CNT in water
17365
    1DPPC    C1    1   2.548   4.752   1.088  0.3787  0.4417  0.2354
    1DPPC    C2    2   2.301   4.760   1.128  0.1241  0.3645 -0.8599
    1DPPC    C3    3   2.408   4.906   0.986  0.1824 -0.2376 -0.2418
    1DPPC    N4    4   2.428   4.833   1.112  0.2685  0.3287  0.0741
    1DPPC    C5    5   2.478   4.908   1.229  0.4697 -0.2144  0.3388
    1DPPC    C6    6   2.406   5.021   1.303 -0.3984 -0.0732 -0.6981
    1DPPC    O7    7   2.393   5.145   1.234 -0.8585  0.4122  0.2481
    1DPPC    P8    8   2.495   5.245   1.308 -0.2743 -0.0740  0.1076
    1DPPC    O9    9   2.628   5.186   1.281 -0.0434  0.2957  0.4165
    1DPPC   O10   10   2.448   5.382   1.277 -0.6071 -0.2791 -0.3155
    1DPPC   O11   11   2.443   5.227   1.459 -0.2850 -0.3960  0.0662
    1DPPC   C12   12   2.348   5.331   1.484  0.0785 -0.0793  0.1473
    1DPPC   C13   13   2.280   5.322   1.621 -0.4359  0.5569 -0.0573
    1DPPC   O14   14   2.212   5.439   1.669 -0.2303  0.4685  0.4600
    1DPPC   C15   15   2.097   5.439   1.741 -0.2010  0.2929  0.5058
    1DPPC   O16   16   2.031   5.335   1.748  0.2922 -0.0957 -0.4804
    1DPPC   C17   17   2.052   5.571   1.803 -0.2879  0.2148  0.6104
    1DPPC   C18   18   2.115   5.595   1.940 -0.3780 -0.3315  0.7478
    1DPPC   C19   19   2.118   5.748   1.941  0.7248 -0.3404  0.2352
    1DPPC   C20   20   2.161   5.816   2.071 -0.3850  0.4336  0.2141
    1DPPC   C21   21   2.064   5.795   2.187 -0.2779 -0.3452  0.1698
    1DPPC   C22   22   2.129   5.838   2.318  0.0615 -0.0186 -0.1051
    1DPPC   C23   23   2.032   5.850   2.435 -0.0871 -0.0982 -0.2201
    1DPPC   C24   24   2.105   5.872   2.568 -0.3686  0.7457 -0.2007
    1DPPC   C25   25   2.003   5.845   2.679  0.2723 -0.1881  0.1685
    1DPPC   C26   26   2.081   5.880   2.806 -0.2392  0.0244  0.4275
    1DPPC   C27   27   2.162   6.007   2.781 -0.0706 -0.1329  0.1650
    1DPPC   C28   28   2.244   6.046   2.904  0.3612  0.3119 -0.2572
    1DPPC   C29   29   2.153   6.056   3.028  0.8453 -0.4538  0.1629
    1DPPC   C30   30   2.222   6.082   3.162  0.1328  0.0321  0.4360
    1DPPC   C31   31   2.116   6.092   3.272 -0.8305 -0.0665 -0.4641
    1DPPC   C32   32   2.402   5.294   1.709 -0.5101  0.4385  0.0079
    1DPPC   O33   33   2.364   5.257   1.842 -0.2065 -0.0636 -0.0440
    1DPPC   C34   34   2.467   5.222   1.924  0.1122  0.5286 -0.1840
    1DPPC   O35   35   2.579   5.250   1.881  0.0670  0.3980 -0.3863
    1DPPC   C36   36   2.430   5.222   2.073  0.1629  0.5263 -0.1715
    1DPPC   C37   37   2.400   5.361   2.129  0.5509  0.5041  0.0930
    1DPPC   C38   38   2.401   5.346   2.281  0.0875 -0.2856  0.0251
    1DPPC   C39   39   2.353   5.475   2.349 -0.5223 -0.4973 -0.0024
    1DPPC   C40   40   2.398   5.455   2.493 -0.1545 -0.4773 -0.1147
    1DPPC   C41   41   2.339   5.549   2.598  0.0603 -0.1591 -0.2782
    1DPPC   C42   42   2.418   5.538   2.729  0.0393 -0.3758 -0.2843
    1DPPC   C43   43   2.527   5.643   2.747  0.3708 -0.7727  0.0527
    1DPPC   C44   44   2.574   5.639   2.893  0.1025  0.4570  0.1905
    1DPPC   C45   45   2.450   5.655   2.981  0.2091  0.0036  0.4285
    1DPPC   C46   46   2.447   5.645   3.133  0.1734  0.2442  0.4437
    1DPPC   C47   47   2.314   5.693   3.190 -0.2417  0.1107 -0.4042
    1DPPC   C48   48   2.291   5.665   3.339 -0.2551  0.8759 -0.2605
    1DPPC   C49   49   2.407   5.729   3.416 -0.0715  0.3557 -0.1012
    1DPPC   C50   50   2.415   5.696   3.565  0.7726  0.8600 -0.0294
    2DPPC    C1   51   2.317   1.647   1.550 -0.4966 -0.3930  0.0528
    2DPPC    C2   52   2.125   1.657   1.403  0.0095  0.2362 -0.4853
    2DPPC    C3   53   2.294   1.501   1.354 -0.2713  0.4782 -0.5846
    2DPPC    N4   54   2.270   1.634   1.411  0.0138  0.3660 -0.1995
    2DPPC    C5   55   2.340   1.727   1.322 -0.1942 -0.1433 -0.9004
    2DPPC    C6   56   2.357   1.867   1.380 -0.5890 -0.3096 -0.3718
    2DPPC    O7   57   2.257   1.963   1.345 -0.0680  0.2559 -0.3390
    2DPPC    P8   58   2.290   2.096   1.429  0.2601  0.0153 -0.0843
    2DPPC    O9   59   2.436   2.102   1.453  0.2828  0.6923 -0.3642
    2DPPC   O10   60   2.201   2.206   1.385 -0.3700 -0.3688  0.2101
    2DPPC   O11   61   2.226   2.051   1.570 -0.2798  0.0416 -0.3196
    2DPPC   C12   62   2.083   2.053   1.568 -0.2832 -0.2458 -0.6245
    2DPPC   C13   63   2.013   2.017   1.699  0.2978  0.2723 -0.1636
    2DPPC   O14   64   1.918   1.913   1.667  0.4989  0.1430 -0.3368
    2DPPC   C15   65   1.933   1.798   1.737  0.1551  0.1093 -0.3173
    2DPPC   O16   66   2.044   1.751   1.763  0.4374  0.4542 -0.8841
    2DPPC   C17   67   1.813   1.705   1.717 -0.0820  0.4144 -0.3105
    2DPPC   C18   68   1.727   1.690   1.843  0.8338 -0.0269  0.2732
    2DPPC   C19   69   1.678   1.825   1.895 -0.1954 -0.1881 -0.2460
    2DPPC   C20   70   1.621   1.792   2.033 -0.2251  0.1028 -0.1880
    2DPPC   C21   71   1.597   1.928   2.098 -0.4597 -0.0607  0.0679
    2DPPC   C22   72   1.550   1.896   2.240  0.2741 -0.1569  0.2929
    2DPPC   C23   73   1.499   2.032   2.288 -0.6197 -0.2735 -0.3015
    2DPPC   C24   74   1.457   2.008   2.433  0.3599  0.4716  0.1161
    2DPPC   C25   75   1.579   1.959   2.512 -0.1474 -0.7210  0.1807
    2DPPC   C26   76   1.528   1.912   2.648 -0.3022 -0.3037  0.2687
    2DPPC   C27   77   1.644   1.889   2.746  0.0458 -0.2383 -0.1234
    2DPPC   C28   78   1.588   1.840   2.880  0.2107  0.0081  0.0362
    2DPPC   C29   79   1.467   1.922   2.925  0.2379  0.1681 -0.1759
    2DPPC   C30   80   1.404   1.854   3.047  0.4908 -0.6610 -0.4993
    2DPPC   C31   81   1.493   1.880   3.169  0.1765 -0.0843 -0.3916
    2DPPC   C32   82   1.971   2.139   1.781 -0.6097 -0.1030 -0.0460
    2DPPC   O33   83   1.922   2.105   1.911  0.8289 -0.2001  0.4931
    2DPPC   C34   84   1.895   2.207   1.997  0.1076  0.1866 -0.1809
    2DPPC   O35   85   1.881   2.317   1.944 -0.0353  0.4072  0.3035
    2DPPC   C36   86   1.847   2.177   2.140 -0.0980  0.8909 -0.0975
    2DPPC   C37   87   1.941   2.238   2.245 -0.5063  0.6313  0.4199
    2DPPC   C38   88   1.886   2.197   2.381  0.0246  0.0764  0.4691
    2DPPC   C39   89   1.972   2.253   2.495 -0.0357 -0.0828  0.5939
    2DPPC   C40   90   1.933   2.208   2.636  0.2396  0.0403  0.7101
    2DPPC   C41   91   2.032   2.262   2.739  0.5070  0.7275  0.1019
    2DPPC   C42   92   2.175   2.237   2.692  0.3897  0.5238 -0.1485
    2DPPC   C43   93   2.269   2.331   2.768  0.2798  0.2132  0.3800
    2DPPC   C44   94   2.319   2.433   2.665 -0.7326 -0.0417 -0.3853
    2DPPC   C45   95   2.352   2.556   2.749 -0.2397 -0.2227 -0.3080
    2DPPC   C46   96   2.337   2.691   2.677  0.2355  0.0741  0.1414
    2DPPC   C47   97   2.196   2.716   2.622  0.1640 -0.4639  0.0740
    2DPPC   C48   98   2.181   2.843   2.539  0.2243 -0.1159  0.5934
    2DPPC   C49   99   2.188   2.972   2.621 -0.3333  0.2826  0.0235
    2DPPC   C50  100   2.074   2.975   2.722 -0.4860 -0.7129 -0.1179
    3DPPC    C1  101   2.112   2.716   1.120 -0.7640 -0.6710 -0.4099
    3DPPC    C2  102   1.920   2.601   1.212  0.0389  0.0618 -0.0741
    3DPPC    C3  103   1.907   2.836   1.167  0.0212 -0.0498 -0.4631
    3DPPC    N4  104   1.996   2.727   1.209 -0.1056  0.1622  0.3706
    3DPPC    C5  105   2.047   2.764   1.342  0.5459 -0.1236  0.2072
    3DPPC    C6  106   1.956   2.809   1.457  0.7129  0.3577  0.1531
    3DPPC    O7  107   1.874   2.705   1.511  0.3094  0.5163 -0.1506
    3DPPC    P8  108   1.764   2.762   1.614 -0.0507  0.1521 -0.3284
    3DPPC    O9  109   1.841   2.871   1.679 -0.1064 -0.0853  0.1370
    3DPPC   O10  110   1.653   2.784   1.519 -0.3220 -0.0444 -0.0587
    3DPPC   O11  111   1.735   2.631   1.702 -0.4090  0.4783  0.0479
    3DPPC   C12  112   1.824   2.635   1.814 -0.3655  0.4666  0.0141
    3DPPC   C13  113   1.749   2.648   1.947 -0.0411 -0.0662  0.2516
    3DPPC   O14  114   1.828   2.648   2.067 -0.0498  0.3045  0.2568
    3DPPC   C15  115   1.805   2.744   2.161 -0.5634  0.3079  0.1320
    3DPPC   O16  116   1.782   2.861   2.131  0.3798  0.4856  0.0640
    3DPPC   C17  117   1.865   2.705   2.296 -0.2964 -0.4592 -0.2011
    3DPPC   C18  118   1.768   2.663   2.406  0.4835 -0.6253  0.4371
    3DPPC   C19  119   1.701   2.534   2.357 -0.2678 -0.0732 -0.0089
    3DPPC   C20  120   1.576   2.493   2.435  0.0185 -0.3550  0.3012
    3DPPC   C21  121   1.593   2.448   2.580  0.4765 -0.0373  0.3494
    3DPPC   C22  122   1.462   2.416   2.652  0.1964 -0.1323 -0.2010
    3DPPC   C23  123   1.509   2.393   2.796 -0.1525 -0.6726 -0.1680
    3DPPC   C24  124   1.389   2.360   2.884 -0.2308  0.0393  0.0021
    3DPPC   C25  125   1.425   2.358   3.033 -0.5039  0.4576  0.0753
    3DPPC   C26  126   1.309   2.313   3.122 -0.2736  0.1610  0.2264
    3DPPC   C27  127   1.272   2.426   3.218  0.2553  0.2276  0.3515
    3DPPC   C28  128   1.157   2.375   3.304  0.0789 -0.0776 -0.0607
    3DPPC   C29  129   1.083   2.495   3.365  0.3083 -0.2510  0.5719
    3DPPC   C30  130   1.156   2.583   3.466  0.0849  0.4983  0.0892
    3DPPC   C31  131   1.089   2.715   3.504  0.2633  0.5674  0.1656
    3DPPC   C32  132   1.661   2.523   1.955  0.1472 -0.1915  0.3820
    3DPPC   O33  133   1.539   2.537   2.028 -0.2695  0.4900 -0.4235
    3DPPC   C34  134   1.466   2.424   2.009 -0.0414  0.2633  0.0172
    3DPPC   O35  135   1.505   2.334   1.934 -0.3886  0.2734 -0.1748
    3DPPC   C36  136   1.352   2.402   2.108  0.0843  0.3901  0.1886
    3DPPC   C37  137   1.277   2.533   2.134 -0.3111  0.1687  0.1553
    3DPPC   C38  138   1.163   2.529   2.237 -0.5898  0.0779 -0.1539
    3DPPC   C39  139   1.213   2.462   2.366 -0.5630  0.0229 -0.1928
    3DPPC   C40  140   1.102   2.412   2.458 -0.4521  0.1778  0.0261
    3DPPC   C41  141   1.104   2.259   2.455  0.0590  0.1829  0.1239
    3DPPC   C42  142   1.001   2.204   2.554 -0.2969  0.0985 -0.2922
    3DPPC   C43  143   1.020   2.258   2.696 -0.0692 -1.0093  0.1133
    3DPPC   C44  144   0.922   2.191   2.793 -0.4802  0.0626  0.4621
    3DPPC   C45  145   0.922   2.278   2.918 -0.3437 -0.2243  0.6618
    3DPPC   C46  146   0.855   2.413   2.891  1.1594  0.3701 -0.2447
    3DPPC   C47  147   0.845   2.513   3.007 -0.1887 -0.2260  0.1784
    3DPPC   C48  148   0.736   2.617   2.981  0.0744 -0.0640 -0.2900
    3DPPC   C49  149   0.737   2.726   3.088 -0.6868 -0.2150 -0.1249
    3DPPC   C50  150   0.633   2.838   3.079  0.0649  0.5235  0.2639
    4DPPC    C1  151   1.873   4.980   1.815 -0.2967  0.0004  0.4148
    4DPPC    C2  152   1.987   5.097   1.975  0.4382  0.6344 -0.3549
    4DPPC    C3  153   2.108   5.003   1.791  0.4963 -0.6799  0.7540
    4DPPC    N4  154   2.000   4.979   1.888 -0.1821  0.1319  0.2177
    4DPPC    C5  155   2.033   4.865   1.974 -0.1185  0.4318  0.5913
    4DPPC    C6  156   1.990   4.724   1.933  0.5244  0.2867  0.3998
    4DPPC    O7  157   2.055   4.664   1.821  0.3322  0.5506  0.1468
    4DPPC    P8  158   2.191   4.589   1.863 -0.0622 -0.2757 -0.0248
    4DPPC    O9  159   2.257   4.515   1.753 -0.0285  0.0369 -0.2164
    4DPPC   O10  160   2.262   4.676   1.960 -0.0373 -0.3622  0.0344
    4DPPC   O11  161   2.119   4.469   1.942 -0.2948  0.2743  0.6137
    4DPPC   C12  162   2.226   4.398   2.005 -0.0544 -0.0182 -0.1197
    4DPPC   C13  163   2.184   4.322   2.131  0.2243 -0.1691 -0.1176
    4DPPC   O14  164   2.115   4.198   2.110 -0.4094  0.2381 -0.4837
    4DPPC   C15  165   2.190   4.099   2.054 -0.3749  0.0485 -0.1070
    4DPPC   O16  166   2.306   4.117   2.018 -0.3563 -0.2860 -0.2248
    4DPPC   C17  167   2.135   3.956   2.045 -0.4786  0.0481  0.5365
    4DPPC   C18  168   2.217   3.855   2.125  0.1319 -0.0737 -0.2318
    4DPPC   C19  169   2.160   3.829   2.265  0.5670  0.1616 -0.0114
    4DPPC   C20  170   2.258   3.744   2.346 -0.0831 -1.0500 -0.4748
    4DPPC   C21  171   2.193   3.710   2.480  0.8066  0.2229  0.3122
    4DPPC   C22  172   2.288   3.615   2.553  0.8742  0.3121  0.3401
    4DPPC   C23  173   2.233   3.553   2.682 -0.0280  0.2921 -0.0416
    4DPPC   C24  174   2.306   3.426   2.729 -0.2326  0.2346  0.1217
    4DPPC   C25  175   2.320   3.408   2.880  0.1799  0.8464  0.1572
    4DPPC   C26  176   2.185   3.384   2.946  0.4090  0.1062  0.3618
    4DPPC   C27  177   2.192   3.397   3.099  0.0379  0.0856  0.3833
    4DPPC   C28  178   2.056   3.418   3.164 -0.1254  0.0083  0.0717
    4DPPC   C29  179   2.078   3.421   3.316  0.1908 -0.1650  0.0294
    4DPPC   C30  180   1.957   3.457   3.402  0.1867 -0.2333  0.0525
    4DPPC   C31  181   1.955   3.404   3.545 -0.1411  0.3061  0.2515
    4DPPC   C32  182   2.097   4.423   2.204  0.3039 -0.0861 -0.1373
    4DPPC   O33  183   2.180   4.532   2.245  0.1424 -0.0431  0.0845
    4DPPC   C34  184   2.124   4.638   2.309 -0.3127  0.0863 -0.5125
    4DPPC   O35  185   2.002   4.645   2.306 -0.3344  0.0489  0.0501
    4DPPC   C36  186   2.206   4.763   2.342  0.0952 -0.4255  0.4610
    4DPPC   C37  187   2.205   4.818   2.485 -0.3605 -0.1041  0.3347
    4DPPC   C38  188   2.294   4.943   2.487 -0.4457 -0.0205 -0.4345
    4DPPC   C39  189   2.309   5.001   2.628  0.1220 -0.1354 -0.4428
    4DPPC   C40  190   2.169   5.022   2.688  0.1158  0.0681 -0.5276
    4DPPC   C41  191   2.196   5.053   2.836 -0.2094 -0.0707 -0.4391
    4DPPC   C42  192   2.062   5.099   2.895 -0.1989 -0.1468 -0.3562
    4DPPC   C43  193   2.005   5.231   2.842  0.5673  0.2635 -0.1939
    4DPPC   C44  194   2.043   5.347   2.933  0.0916  0.4353 -0.2075
    4DPPC   C45  195   1.953   5.339   3.056  0.2182  0.3425 -0.1199
    4DPPC   C46  196   1.957   5.464   3.143  0.5666  0.1230  0.1814
    4DPPC   C47  197   1.892   5.583   3.072 -0.4065 -0.4453  0.1080
    4DPPC   C48  198   1.838   5.690   3.167  0.4029  0.4130 -0.3822
    4DPPC   C49  199   1.797   5.824   3.105  0.1429  0.2321 -0.6007
    4DPPC   C50  200   1.752   5.914   3.220 -0.2921 -0.1693 -0.4547
    5DPPC    C1  201   2.981   2.147   1.439  0.3609 -0.2358 -0.0555
    5DPPC    C2  202   2.739   2.125   1.449  0.0315  0.3834 -0.2686
    5DPPC    C3  203   2.873   2.071   1.629 -0.3915 -0.1351 -0.0042
    5DPPC    N4  204   2.868   2.064   1.482 -0.0510  0.3294 -0.0425
    5DPPC    C5  205   2.886   1.925   1.436  0.1816  0.0998  0.7169
    5DPPC    C6  206   2.807   1.807   1.493 -0.1589 -0.0147  0.0178
    5DPPC    O7  207   2.865   1.695   1.426  0.1035  0.0164  0.1926
    5DPPC    P8  208   2.738   1.628   1.353  0.3373  0.1587 -0.3565
    5DPPC    O9  209   2.655   1.729   1.286  0.3205 -0.0173 -0.6008
    5DPPC   O10  210   2.782   1.511   1.274  0.4019  0.0780 -0.2025
    5DPPC   O11  211   2.657   1.573   1.481  0.1295  0.1307 -0.5011
    5DPPC   C12  212   2.711   1.445   1.516  0.0397  0.0824 -0.5384
    5DPPC   C13  213   2.647   1.392   1.645  0.0140  0.5863 -0.3400
    5DPPC   O14  214   2.518   1.330   1.631  0.1675  0.1323  0.2384
    5DPPC   C15  215   2.498   1.231   1.541 -0.6015  0.0299  0.5170
    5DPPC   O16  216   2.529   1.241   1.422  0.1856  0.5173  0.7611
    5DPPC   C17  217   2.383   1.138   1.582 -0.5411 -0.1721  0.2302
    5DPPC   C18  218   2.386   1.122   1.734 -0.1356  0.7201  0.3180
    5DPPC   C19  219   2.258   1.049   1.773  0.4186 -0.4577 -0.0411
    5DPPC   C20  220   2.255   1.025   1.924 -0.8386  0.1833  0.0426
    5DPPC   C21  221   2.124   0.948   1.943 -0.5098 -0.4117 -0.1074
    5DPPC   C22  222   2.001   1.007   1.875 -0.2672 -0.5608 -0.6856
    5DPPC   C23  223   1.870   0.953   1.932 -0.3369  0.4052  0.1007
    5DPPC   C24  224   1.859   0.955   2.085 -0.4023  0.5766  0.0935
    5DPPC   C25  225   1.719   0.920   2.135 -0.3461  0.0939 -0.0778
    5DPPC   C26  226   1.714   0.950   2.285 -0.2864  0.2308 -0.1030
    5DPPC   C27  227   1.705   1.100   2.314  0.7684  0.3556 -0.3868
    5DPPC   C28  228   1.769   1.129   2.450  0.1039  0.0859 -0.0130
    5DPPC   C29  229   1.920   1.104   2.435  0.0637  0.1423 -0.5544
    5DPPC   C30  230   1.992   1.208   2.521  0.1403  0.4798 -1.0217
    5DPPC   C31  231   2.141   1.175   2.535 -0.0115  0.3482  0.4313
    5DPPC   C32  232   2.663   1.497   1.754 -0.1904 -0.1013  0.3577
    5DPPC   O33  233   2.793   1.496   1.813 -0.0831 -0.2082  0.1205
    5DPPC   C34  234   2.803   1.588   1.914 -0.1016  0.0604 -0.1214
    5DPPC   O35  235   2.709   1.662   1.938  0.0741  0.3931 -0.4404
    5DPPC   C36  236   2.942   1.598   1.977 -0.2509  0.0201  0.2168
    5DPPC   C37  237   3.046   1.652   1.878  0.1220 -0.1981  0.4891
    5DPPC   C38  238   3.181   1.674   1.948  0.3503  1.0293 -0.3183
    5DPPC   C39  239   3.161   1.774   2.062 -0.0930  0.5754  0.0065
    5DPPC   C40  240   3.296   1.789   2.132 -0.0927  0.4080  0.0414
    5DPPC   C41  241   3.299   1.906   2.231  0.4789  0.2274  0.2464
    5DPPC   C42  242   3.416   1.893   2.328  0.8569  0.2784 -0.1974
    5DPPC   C43  243   3.373   1.932   2.470 -0.1365  0.7492 -0.6202
    5DPPC   C44  244   3.265   1.842   2.528  0.4820  0.4587  0.0905
    5DPPC   C45  245   3.187   1.910   2.641 -0.3673  0.1092 -0.2771
    5DPPC   C46  246   3.141   2.044   2.582  0.2554  0.3599 -0.1970
    5DPPC   C47  247   3.049   2.117   2.680 -0.3624 -0.4218 -0.1896
    5DPPC   C48  248   3.127   2.141   2.809 -0.2153 -0.7536 -0.2149
    5DPPC   C49  249   3.041   2.234   2.894  0.6700 -0.0555 -0.0613
    5DPPC   C50  250   3.135   2.338   2.954  0.1454  0.4601 -0.1179
    6DPPC    C1  251   2.170   2.866   2.116  0.1534 -0.7063  0.4525
    6DPPC    C2  252   2.144   2.831   1.878 -0.8688 -0.3975 -0.0186
    6DPPC    C3  253   2.351   2.783   1.997  0.1462 -0.4996 -0.1857
    6DPPC    N4  254   2.204   2.779   2.002  0.1251  0.1855 -0.2446
    6DPPC    C5  255   2.170   2.640   2.033  0.4985  0.1975  0.2316
    6DPPC    C6  256   2.164   2.531   1.926  0.0421 -0.0000  0.4519
    6DPPC    O7  257   2.297   2.490   1.895 -0.0440 -0.4757  0.7065
    6DPPC    P8  258   2.282   2.360   1.801  0.0075  0.0289 -0.0124
    6DPPC    O9  259   2.171   2.385   1.706  0.3366  0.2986 -0.3255
    6DPPC   O10  260   2.419   2.319   1.764  0.0680  0.1878  0.0351
    6DPPC   O11  261   2.231   2.265   1.921  0.1588  0.0053  0.0331
    6DPPC   C12  262   2.340   2.200   1.987  0.2564  0.0861 -0.0478
    6DPPC   C13  263   2.318   2.152   2.131 -0.5309  0.2694 -0.0986
    6DPPC   O14  264   2.206   2.071   2.168 -0.1939 -0.1790 -0.0548
    6DPPC   C15  265   2.200   1.938   2.140 -0.2281 -0.2276  0.1835
    6DPPC   O16  266   2.296   1.881   2.088 -0.2124  0.1585 -0.2107
    6DPPC   C17  267   2.060   1.876   2.156 -0.0788 -0.6919 -0.2709
    6DPPC   C18  268   2.043   1.778   2.271  0.0556  0.2143  0.5346
    6DPPC   C19  269   1.899   1.726   2.281 -0.0393  0.4353  0.3185
    6DPPC   C20  270   1.894   1.640   2.408  0.0022  0.2324  0.1838
    6DPPC   C21  271   1.941   1.733   2.520  0.6827 -0.0630  0.1498
    6DPPC   C22  272   1.944   1.660   2.654  0.2441  0.2343  0.3262
    6DPPC   C23  273   1.988   1.747   2.772  0.2106  0.2601  0.3199
    6DPPC   C24  274   1.955   1.658   2.892 -0.6315  0.1218 -0.0047
    6DPPC   C25  275   1.994   1.746   3.011 -0.2013 -0.2036  0.0996
    6DPPC   C26  276   1.987   1.648   3.128 -0.3784 -0.2279  0.0692
    6DPPC   C27  277   1.972   1.711   3.267  0.1579 -0.3370  0.1770
    6DPPC   C28  278   1.834   1.677   3.322  0.1986 -0.3680  0.2599
    6DPPC   C29  279   1.819   1.709   3.471 -0.0503 -0.1395  0.1868
    6DPPC   C30  280   1.673   1.685   3.510 -0.0971  0.3816  0.3458
    6DPPC   C31  281   1.671   1.664   3.662  0.2763 -0.3930  0.2496
    6DPPC   C32  282   2.322   2.284   2.207  0.4243  0.0330  0.2795
    6DPPC   O33  283   2.439   2.365   2.196  0.6527 -0.3279  0.0339
    6DPPC   C34  284   2.432   2.489   2.252 -0.0405 -0.3156 -0.0721
    6DPPC   O35  285   2.325   2.541   2.283  0.2346  0.2985 -0.1200
    6DPPC   C36  286   2.554   2.559   2.314 -0.4680  0.1054  0.3054
    6DPPC   C37  287   2.593   2.454   2.419 -0.2568 -0.0166  0.1053
    6DPPC   C38  288   2.716   2.496   2.500  0.3086 -0.7283 -0.3691
    6DPPC   C39  289   2.838   2.532   2.414  0.1937  0.0936 -0.2020
    6DPPC   C40  290   2.931   2.609   2.507  0.2717 -0.3789  0.1113
    6DPPC   C41  291   3.075   2.606   2.456  0.2121 -0.0196 -0.0787
    6DPPC   C42  292   3.116   2.468   2.405 -0.1240 -0.0617 -0.2419
    6DPPC   C43  293   3.261   2.468   2.356 -0.1687 -0.1599 -0.3740
    6DPPC   C44  294   3.314   2.343   2.286 -0.5471 -0.4792 -0.0884
    6DPPC   C45  295   3.462   2.358   2.252 -0.6576  0.0562 -0.3366
    6DPPC   C46  296   3.520   2.242   2.171  0.3677 -0.1056  0.6043
    6DPPC   C47  297   3.665   2.257   2.126  0.0954  0.6828 -0.0395
    6DPPC   C48  298   3.685   2.376   2.032 -0.0910  0.5591 -0.2380
    6DPPC   C49  299   3.830   2.424   2.022 -0.0646  0.4254 -0.5036
    6DPPC   C50  300   3.840   2.550   1.936  0.0107  0.5400 -0.3274
    7DPPC    C1  301   1.964   3.352   1.919  0.0502 -0.4593 -0.2188
    7DPPC    C2  302   1.919   3.503   1.749 -0.0373 -0.1075 -0.4976
    7DPPC    C3  303   2.088   3.555   1.902  0.7470 -0.2928 -0.5529
    7DPPC    N4  304   2.030   3.444   1.826 -0.2958 -0.0812 -0.0967
    7DPPC    C5  305   2.132   3.385   1.737  0.1100  0.1022  0.2444
    7DPPC    C6  306   2.231   3.284   1.794  0.3684  0.2076 -0.0163
    7DPPC    O7  307   2.325   3.339   1.886  0.1663  0.6083 -0.0493
    7DPPC    P8  308   2.416   3.217   1.939 -0.8425 -0.1441 -0.0366
    7DPPC    O9  309   2.371   3.086   1.886  0.2954 -0.4116 -0.3618
    7DPPC   O10  310   2.553   3.268   1.916 -0.6182 -0.7913 -0.1596
    7DPPC   O11  311   2.390   3.222   2.098 -0.2076  0.2827  0.0576
    7DPPC   C12  312   2.382   3.359   2.139  0.4432  0.4331 -0.3003
    7DPPC   C13  313   2.377   3.368   2.292  0.0978  0.0233 -0.2829
    7DPPC   O14  314   2.501   3.349   2.362  0.2069  0.3712 -0.3775
    7DPPC   C15  315   2.604   3.431   2.330  0.4902  0.2400  0.1856
    7DPPC   O16  316   2.576   3.527   2.257  0.0985 -0.1535 -0.1896
    7DPPC   C17  317   2.736   3.409   2.404  0.5219  0.3779  0.1710
    7DPPC   C18  318   2.773   3.515   2.508  0.1028  0.1324  0.5776
    7DPPC   C19  319   2.888   3.469   2.598  0.3214  0.3774  0.4255
    7DPPC   C20  320   2.902   3.562   2.719 -0.6826  0.5834  0.3911
    7DPPC   C21  321   3.025   3.530   2.804 -0.2162  0.0411 -0.4711
    7DPPC   C22  322   3.049   3.650   2.896  0.0918 -0.3376 -0.0520
    7DPPC   C23  323   2.943   3.666   3.005  0.5351 -0.0984  0.3450
    7DPPC   C24  324   2.986   3.775   3.105 -0.3186  0.5105  0.0632
    7DPPC   C25  325   2.883   3.799   3.216 -0.3987  0.5532 -0.0198
    7DPPC   C26  326   2.905   3.939   3.273 -0.3549  0.4488  0.2179
    7DPPC   C27  327   3.039   3.947   3.347 -0.3349 -0.0883  0.2459
    7DPPC   C28  328   3.055   4.064   3.444  0.0468  0.2950 -0.2761
    7DPPC   C29  329   3.175   4.049   3.538 -0.5072 -0.6570  0.2973
    7DPPC   C30  330   3.221   4.183   3.597  0.6046 -0.6782 -0.4863
    7DPPC   C31  331   3.335   4.168   3.698  0.0569  0.1818  0.2709
    7DPPC   C32  332   2.275   3.259   2.326 -0.1313  0.4586  0.4452
    7DPPC   O33  333   2.146   3.293   2.274  0.0080  0.0084 -0.2144
    7DPPC   C34  334   2.042   3.207   2.290  0.2352 -0.5117 -1.4065
    7DPPC   O35  335   2.058   3.089   2.321 -0.6799 -0.2060  0.3472
    7DPPC   C36  336   1.905   3.272   2.270  0.4425  0.5161  0.2197
    7DPPC   C37  337   1.862   3.333   2.403 -0.0465 -0.3952  0.4894
    7DPPC   C38  338   1.711   3.353   2.418 -0.0339 -0.2172  0.3844
    7DPPC   C39  339   1.683   3.429   2.548 -0.6992  0.2770 -0.0425
    7DPPC   C40  340   1.730   3.575   2.542  0.3025 -0.0441 -0.2484
    7DPPC   C41  341   1.743   3.635   2.683 -0.2434  0.2521 -0.3207
    7DPPC   C42  342   1.818   3.768   2.670 -0.0792  0.1755 -0.1523
    7DPPC   C43  343   1.906   3.812   2.786  0.4053 -0.4106 -0.2897
    7DPPC   C44  344   2.003   3.926   2.750 -0.5970  0.4553 -0.2831
    7DPPC   C45  345   2.091   3.969   2.867 -0.3754  0.3048 -0.3949
    7DPPC   C46  346   2.209   4.059   2.829  0.2230 -0.0811  0.4941
    7DPPC   C47  347   2.291   4.113   2.946  0.3032  0.4304  0.2067
    7DPPC   C48  348   2.217   4.198   3.050  0.2228  0.4335  0.1468
    7DPPC   C49  349   2.300   4.212   3.178  0.4129 -0.0193  0.0775
    7DPPC   C50  350   2.208   4.277   3.282 -0.0623  0.6078 -0.7216
    8DPPC    C1  351   3.239   4.031   1.787  0.1318  0.4981 -0.0757
    8DPPC    C2  352   3.168   3.875   1.614 -0.2143  0.0864  0.3844
    8DPPC    C3  353   3.016   4.045   1.702 -0.0893  1.0772  0.1980
    8DPPC    N4  354   3.155   4.011   1.668 -0.2979  0.1154  0.2910
    8DPPC    C5  355   3.194   4.100   1.558  0.4678  0.1734  0.6019
    8DPPC    C6  356   3.205   4.251   1.577  0.4656  0.1653  0.6676
    8DPPC    O7  357   3.078   4.316   1.582  0.2754 -0.1902  0.4729
    8DPPC    P8  358   3.091   4.466   1.639  0.0468  0.1017 -0.2240
    8DPPC    O9  359   3.228   4.522   1.651  0.3640 -0.6695 -0.1921
    8DPPC   O10  360   2.968   4.528   1.584 -0.2891 -0.3744 -0.0175
    8DPPC   O11  361   3.042   4.405   1.780  0.8871  0.6245  0.3095
    8DPPC   C12  362   2.949   4.493   1.844 -0.4011 -0.3884 -0.1172
    8DPPC   C13  363   2.863   4.415   1.943 -0.2619 -0.6102 -0.1703
    8DPPC   O14  364   2.775   4.504   2.013 -0.0794 -0.5250 -0.0498
    8DPPC   C15  365   2.648   4.457   2.024 -0.0493 -0.5324  0.2758
    8DPPC   O16  366   2.604   4.375   1.944 -0.4566 -0.2326  0.1926
    8DPPC   C17  367   2.563   4.518   2.136 -0.2844 -0.4666  0.0615
    8DPPC   C18  368   2.639   4.531   2.268 -0.2152  0.2855 -0.0453
    8DPPC   C19  369   2.530   4.526   2.375 -0.2749 -0.6347 -0.1396
    8DPPC   C20  370   2.564   4.439   2.497  0.2904  0.3214  0.3976
    8DPPC   C21  371   2.475   4.460   2.619  0.1561 -0.0179  0.3581
    8DPPC   C22  372   2.522   4.593   2.677 -0.3479  0.1417  0.4002
    8DPPC   C23  373   2.446   4.617   2.809 -0.9847 -0.4340  0.1436
    8DPPC   C24  374   2.478   4.755   2.865  0.4842 -0.6334 -0.1496
    8DPPC   C25  375   2.413   4.767   3.003  0.5871 -0.0247 -0.1518
    8DPPC   C26  376   2.491   4.681   3.103  0.6555 -0.1868 -0.3453
    8DPPC   C27  377   2.430   4.690   3.243  0.1535 -0.4481 -0.5444
    8DPPC   C28  378   2.431   4.834   3.295  0.9096 -0.8018  0.4349
    8DPPC   C29  379   2.384   4.841   3.441 -0.1095 -0.0682  0.0836
    8DPPC   C30  380   2.433   4.974   3.498  0.0023 -0.3207  0.5807
    8DPPC   C31  381   2.356   5.004   3.627 -0.0639  0.1918  0.4248
    8DPPC   C32  382   2.958   4.346   2.042  0.3011 -0.0317 -0.3020
    8DPPC   O33  383   2.915   4.218   2.089 -0.2348  0.2923  0.0968
    8DPPC   C34  384   3.011   4.127   2.121 -0.3600 -0.0415 -0.4566
    8DPPC   O35  385   3.120   4.130   2.066 -0.0539 -0.3792  0.1245
    8DPPC   C36  386   2.965   4.014   2.213 -0.2260 -0.1378 -0.5079
    8DPPC   C37  387   2.859   4.051   2.317 -0.5536 -0.2014 -0.8145
    8DPPC   C38  388   2.809   3.923   2.384 -0.8021  0.3053 -0.0129
    8DPPC   C39  389   2.761   3.955   2.526 -0.1368  0.3826  0.1974
    8DPPC   C40  390   2.881   3.998   2.611 -0.0523  0.1967  0.1717
    8DPPC   C41  391   2.836   4.031   2.753  0.1407 -0.0165  0.2835
    8DPPC   C42  392   2.717   4.126   2.741  0.1883  0.0207  0.1033
    8DPPC   C43  393   2.671   4.162   2.883  0.3863 -0.1883  0.2189
    8DPPC   C44  394   2.752   4.277   2.944  0.3473 -0.1098  0.1211
    8DPPC   C45  395   2.705   4.276   3.089 -0.3275  0.2168 -0.0883
    8DPPC   C46  396   2.818   4.335   3.175 -0.0389 -0.1122 -0.2402
    8DPPC   C47  397   2.779   4.314   3.321 -0.4031 -0.3305 -0.3662
    8DPPC   C48  398   2.661   4.400   3.366  0.3972  0.3013  0.5758
    8DPPC   C49  399   2.612   4.353   3.503  0.4961 -0.0154  0.5040
    8DPPC   C50  400   2.590   4.202   3.493 -0.5264  0.1222  0.6262
    9DPPC    C1  401   3.340   2.132   1.023 -0.7606 -0.5627 -0.1032
    9DPPC    C2  402   3.414   1.907   0.996 -0.1503  0.0285  0.1911
    9DPPC    C3  403   3.429   2.018   1.205 -0.5392  1.3060  0.5013
    9DPPC    N4  404   3.444   2.036   1.060 -0.3879  0.0073  0.3495
    9DPPC    C5  405   3.573   2.095   1.022 -0.2759  0.1137  0.8932
    9DPPC    C6  406   3.701   2.010   1.018 -0.0981  0.4074  0.2935
    9DPPC    O7  407   3.744   1.987   1.152  0.0616  0.1671  0.2020
    9DPPC    P8  408   3.867   1.883   1.155 -0.4155 -0.4011  0.2991
    9DPPC    O9  409   3.899   1.827   1.022 -0.4122 -0.1020  0.1729
    9DPPC   O10  410   3.969   1.935   1.249  0.0841 -0.3358 -0.2693
    9DPPC   O11  411   3.785   1.762   1.222  0.2177 -0.7824  0.3924
    9DPPC   C12  412   3.742   1.799   1.354 -0.3876  0.2051 -0.0706
    9DPPC   C13  413   3.694   1.680   1.437  0.0405 -0.0201 -0.1464
    9DPPC   O14  414   3.601   1.708   1.543  0.1502  0.3716 -0.1529
    9DPPC   C15  415   3.472   1.739   1.512  0.0919  0.4792  0.1916
    9DPPC   O16  416   3.439   1.758   1.395  0.0482 -0.0600  0.1123
    9DPPC   C17  417   3.372   1.774   1.621 -0.5044 -0.3949 -0.0677
    9DPPC   C18  418   3.347   1.925   1.613 -0.4378 -0.3842 -0.0709
    9DPPC   C19  419   3.296   1.994   1.740  0.1590 -0.1805  0.0612
    9DPPC   C20  420   3.298   2.145   1.721  0.7235 -0.1323  0.4626
    9DPPC   C21  421   3.248   2.214   1.849 -0.1382  0.0242  0.0512
    9DPPC   C22  422   3.107   2.165   1.881 -0.2756  0.3410 -0.0713
    9DPPC   C23  423   3.047   2.215   2.013 -0.6737  0.1401 -0.1735
    9DPPC   C24  424   2.923   2.140   2.061 -0.7429  0.1609 -0.3209
    9DPPC   C25  425   2.880   2.164   2.206 -0.1022 -0.5441 -0.0072
    9DPPC   C26  426   2.748   2.091   2.229 -0.1972 -0.4441 -0.2291
    9DPPC   C27  427   2.683   2.113   2.366 -0.1587 -0.0701 -0.2710
    9DPPC   C28  428   2.562   2.021   2.382 -0.1236 -0.0513  0.1173
    9DPPC   C29  429   2.499   2.029   2.521  0.6205 -0.0180  0.4559
    9DPPC   C30  430   2.393   1.921   2.541  0.1531  0.3554 -0.0017
    9DPPC   C31  431   2.333   1.918   2.682 -0.2805  0.3027 -0.1858
    9DPPC   C32  432   3.823   1.614   1.489  0.2652  0.0860 -0.5630
    9DPPC   O33  433   3.913   1.704   1.555  0.0968 -0.4553  0.4318
    9DPPC   C34  434   4.012   1.635   1.618  0.5683 -0.3747 -0.2057
    9DPPC   O35  435   4.048   1.525   1.574  0.5908 -0.2940 -0.3919
    9DPPC   C36  436   4.109   1.715   1.704  0.2179 -0.3292  0.1514
    9DPPC   C37  437   4.091   1.667   1.848 -0.2216  0.0413  0.2189
    9DPPC   C38  438   4.202   1.724   1.936 -0.3444 -0.0771  0.4518
    9DPPC   C39  439   4.220   1.649   2.068 -0.4199  0.4288  0.7521
    9DPPC   C40  440   4.314   1.732   2.156  0.6275  0.3083 -0.2394
    9DPPC   C41  441   4.330   1.693   2.303  0.0338  0.1948 -0.2027
    9DPPC   C42  442   4.433   1.791   2.361 -0.3441  0.6162 -0.2343
    9DPPC   C43  443   4.443   1.761   2.511 -0.3966  0.5708 -0.2400
    9DPPC   C44  444   4.586   1.736   2.560 -0.3916 -0.0710 -0.5778
    9DPPC   C45  445   4.582   1.710   2.710 -0.3275 -0.0076 -0.5657
    9DPPC   C46  446   4.715   1.639   2.740 -0.4447  0.0081  0.0132
    9DPPC   C47  447   4.707   1.582   2.881 -0.2288  0.1270  0.0739
    9DPPC   C48  448   4.827   1.495   2.919 -0.1955  0.1150 -0.0591
    9DPPC   C49  449   4.791   1.414   3.044 -0.4230  0.4755  0.1111
    9DPPC   C50  450   4.683   1.307   3.029 -0.1133  0.2591 -0.6202
   10DPPC    C1  451   2.654   2.791   1.568 -0.0494  0.1025  0.8478
   10DPPC    C2  452   2.745   2.823   1.351  0.6538  0.4718  0.5132
   10DPPC    C3  453   2.828   2.945   1.541 -0.0684  0.1939  0.0829
   10DPPC    N4  454   2.779   2.815   1.494 -0.1299 -0.0006  0.6770
   10DPPC    C5  455   2.860   2.700   1.536  0.2726  0.0574  0.0751
   10DPPC    C6  456   2.979   2.649   1.455  0.1162 -0.0627 -0.0780
   10DPPC    O7  457   3.082   2.745   1.431  0.2223 -0.0641  0.3712
   10DPPC    P8  458   3.214   2.668   1.382  0.0789 -0.0089 -0.1029
   10DPPC    O9  459   3.186   2.543   1.308  0.4767  0.2399 -0.6816
   10DPPC   O10  460   3.320   2.755   1.328 -0.2296  0.4190 -0.0280
   10DPPC   O11  461   3.261   2.617   1.527 -0.0031 -0.6426 -0.2935
   10DPPC   C12  462   3.398   2.650   1.551 -0.5529  1.0115  0.7635
   10DPPC   C13  463   3.470   2.557   1.648 -0.3443 -0.2476 -0.5650
   10DPPC   O14  464   3.511   2.437   1.581  0.2595 -0.1444 -0.3890
   10DPPC   C15  465   3.615   2.443   1.494  0.2407 -0.1132 -0.4091
   10DPPC   O16  466   3.650   2.552   1.448  0.4515 -0.0902 -0.1951
   10DPPC   C17  467   3.656   2.316   1.418 -0.2096 -0.1173 -0.6460
   10DPPC   C18  468   3.656   2.186   1.500 -0.5152  0.0976 -0.2965
   10DPPC   C19  469   3.773   2.190   1.598 -0.5378  0.1921 -0.2730
   10DPPC   C20  470   3.815   2.049   1.643 -0.7182  0.2627  0.1194
   10DPPC   C21  471   3.752   2.027   1.781 -1.3264  0.1512 -0.1729
   10DPPC   C22  472   3.757   1.879   1.820 -0.5253  0.1946 -0.0912
   10DPPC   C23  473   3.674   1.852   1.946  0.4486 -0.2218  0.4659
   10DPPC   C24  474   3.758   1.761   2.036  0.5792 -0.3952  0.1692
   10DPPC   C25  475   3.689   1.709   2.162 -0.2844  0.9479  0.2638
   10DPPC   C26  476   3.793   1.658   2.261 -0.5991  0.1401  0.1905
   10DPPC   C27  477   3.737   1.612   2.396 -0.2091 -0.4344  0.1611
   10DPPC   C28  478   3.633   1.506   2.362 -0.6834  0.1719 -0.3089
   10DPPC   C29  479   3.546   1.491   2.487 -0.7197  0.4897 -0.2949
   10DPPC   C30  480   3.432   1.389   2.473 -0.1008 -0.1372 -0.8551
   10DPPC   C31  481   3.347   1.379   2.600  0.1121 -0.2607 -0.7220
   10DPPC   C32  482   3.401   2.541   1.784 -0.1671 -0.1897 -0.4678
   10DPPC   O33  483   3.401   2.666   1.854 -0.0986 -0.2441 -0.3702
   10DPPC   C34  484   3.308   2.683   1.952  0.0371 -0.4306 -0.2072
   10DPPC   O35  485   3.213   2.606   1.965 -0.6368  0.3658 -0.3280
   10DPPC   C36  486   3.315   2.814   2.031  0.7465 -0.4965 -0.1578
   10DPPC   C37  487   3.211   2.827   2.143  0.3654  0.0614 -0.5740
   10DPPC   C38  488   3.227   2.954   2.226  0.1095 -0.6593  0.5909
   10DPPC   C39  489   3.110   2.986   2.320 -0.3629  0.3260 -0.3156
   10DPPC   C40  490   3.145   3.112   2.399  0.4031  0.1186 -0.3133
   10DPPC   C41  491   3.246   3.085   2.510  0.2857  0.2481 -0.1745
   10DPPC   C42  492   3.184   3.010   2.629  0.6057  0.1740 -0.0525
   10DPPC   C43  493   3.258   3.049   2.757  0.4732 -0.1586  0.1254
   10DPPC   C44  494   3.397   2.988   2.738  0.4993 -0.1100  0.1610
   10DPPC   C45  495   3.473   2.971   2.870  0.2272  0.1564  0.3530
   10DPPC   C46  496   3.615   2.920   2.849 -0.0174 -0.2688 -0.3058
   10DPPC   C47  497   3.684   2.949   2.982  0.0671  0.3917 -0.4894
   10DPPC   C48  498   3.833   2.916   2.981  0.0372  0.2426 -0.2453
   10DPPC   C49  499   3.898   2.944   3.116 -0.6562 -0.5657  0.2671
   10DPPC   C50  500   3.838   2.854   3.224  0.4550 -0.7358  0.7559
   11DPPC    C1  501   3.279   3.080   1.374  0.4887 -0.6326 -0.2126
   11DPPC    C2  502   3.482   3.066   1.254 -1.0068 -0.2450 -0.4376
   11DPPC    C3  503   3.471   3.008   1.472 -0.0020 -0.0424  0.3620
   11DPPC    N4  504   3.422   3.112   1.380  0.3495 -0.0616  0.1494
   11DPPC    C5  505   3.466   3.247   1.418 -0.1020  0.0523  0.2758
   11DPPC    C6  506   3.402   3.322   1.535 -0.3837  0.5311 -0.1818
   11DPPC    O7  507   3.270   3.372   1.511 -0.5855  0.2575  0.3348
   11DPPC    P8  508   3.199   3.438   1.639 -0.4044  0.3926  0.3668
   11DPPC    O9  509   3.294   3.522   1.715 -0.0503  0.2129  0.1255
   11DPPC   O10  510   3.070   3.485   1.584 -0.1646 -0.0386 -0.5717
   11DPPC   O11  511   3.197   3.288   1.699 -0.0721  0.0600 -0.4502
   11DPPC   C12  512   3.072   3.254   1.759  0.2381  0.0552  0.1985
   11DPPC   C13  513   3.083   3.147   1.868  0.6340  0.0659  0.1703
   11DPPC   O14  514   2.956   3.117   1.926  0.8970 -0.0969  0.6638
   11DPPC   C15  515   2.908   2.990   1.913  0.0173  0.3367 -0.4622
   11DPPC   O16  516   2.941   2.921   1.816  0.1934 -0.3013  0.0458
   11DPPC   C17  517   2.778   2.963   1.990  0.1403  0.3095 -0.2627
   11DPPC   C18  518   2.798   2.988   2.139 -0.2357 -0.0966 -0.1451
   11DPPC   C19  519   2.674   2.970   2.228 -0.0006 -0.7329  0.0602
   11DPPC   C20  520   2.734   3.004   2.365 -0.0492 -0.1758 -0.0560
   11DPPC   C21  521   2.613   3.035   2.453  0.2683 -0.0293  0.3325
   11DPPC   C22  522   2.649   3.049   2.601  0.2529 -0.6142  0.3922
   11DPPC   C23  523   2.539   3.114   2.685 -0.0131 -0.8507  0.2312
   11DPPC   C24  524   2.604   3.171   2.811  0.3897  0.5739 -0.5858
   11DPPC   C25  525   2.677   3.059   2.886 -0.3924  0.3527 -0.1379
   11DPPC   C26  526   2.750   3.104   3.013  0.6938 -0.5737 -0.4148
   11DPPC   C27  527   2.824   3.231   2.970  0.1591 -0.0862  0.0787
   11DPPC   C28  528   2.894   3.294   3.091  0.0785  0.1010  0.0282
   11DPPC   C29  529   2.806   3.331   3.210 -0.2471  0.4559 -0.3201
   11DPPC   C30  530   2.893   3.394   3.319 -0.2730 -0.1746  0.0722
   11DPPC   C31  531   2.822   3.378   3.453 -0.3332 -0.4570  0.0067
   11DPPC   C32  532   3.188   3.203   1.963  0.2191 -0.1558  0.7631
   11DPPC   O33  533   3.180   3.340   2.001 -0.0542  0.0739 -0.1112
   11DPPC   C34  534   3.277   3.366   2.093 -0.1613 -0.2237  0.0855
   11DPPC   O35  535   3.331   3.284   2.167 -0.4875 -0.5154  0.0059
   11DPPC   C36  536   3.323   3.511   2.093  0.1584 -0.3257  0.0792
   11DPPC   C37  537   3.351   3.555   2.237  0.3155  0.0619 -0.0658
   11DPPC   C38  538   3.213   3.551   2.303  0.1129  0.2635 -0.4740
   11DPPC   C39  539   3.222   3.587   2.452 -0.3237 -0.3253 -0.2992
   11DPPC   C40  540   3.325   3.493   2.514 -0.9177 -0.1348  0.9933
   11DPPC   C41  541   3.406   3.552   2.630 -0.1426 -0.0643  0.4151
   11DPPC   C42  542   3.488   3.442   2.698 -0.0137 -0.0137  0.3421
   11DPPC   C43  543   3.558   3.371   2.582 -0.0766  0.2554  0.1388
   11DPPC   C44  544   3.671   3.292   2.648 -0.2944 -0.0425  0.1570
   11DPPC   C45  545   3.750   3.213   2.544 -0.2372  0.1994  0.0160
   11DPPC   C46  546   3.650   3.139   2.455  0.0709 -0.1942 -0.0055
   11DPPC   C47  547   3.709   3.031   2.365  0.0537 -0.1989 -0.0110
   11DPPC   C48  548   3.596   2.976   2.277  0.0114 -0.2512  0.0766
   11DPPC   C49  549   3.657   2.883   2.171  0.5488  0.3096 -0.1114
   11DPPC   C50  550   3.718   2.768   2.251 -0.2981 -0.1674 -0.1449
   12DPPC    C1  551   3.409   0.737   1.196 -0.2255 -0.4552 -0.1478
   12DPPC    C2  552   3.382   0.748   0.966  0.3323 -0.1711 -0.0378
   12DPPC    C3  553   3.561   0.874   1.079 -0.3849  0.3661  0.3097
   12DPPC    N4  554   3.421   0.830   1.082 -0.2347 -0.1249  0.1195
   12DPPC    C5  555   3.310   0.924   1.104 -0.2172 -0.1135  0.1605
   12DPPC    C6  556   3.338   1.041   1.198 -0.2930 -0.4291  0.5776
   12DPPC    O7  557   3.217   1.108   1.233 -0.1893 -0.0306  0.1804
   12DPPC    P8  558   3.238   1.267   1.216  0.3596 -0.0884  0.2873
   12DPPC    O9  559   3.296   1.301   1.084  0.7603 -0.7134  0.2969
   12DPPC   O10  560   3.105   1.317   1.256  0.3331 -0.2912  0.4526
   12DPPC   O11  561   3.330   1.281   1.347  0.3882 -0.3300  0.2942
   12DPPC   C12  562   3.245   1.247   1.458 -0.0491 -0.1438  0.0180
   12DPPC   C13  563   3.315   1.265   1.593  0.1113 -0.2395 -0.0521
   12DPPC   O14  564   3.239   1.227   1.709  0.4092 -0.1020  0.1865
   12DPPC   C15  565   3.126   1.288   1.754  0.8066  0.6905  0.1398
   12DPPC   O16  566   3.057   1.352   1.675 -0.0790 -0.4096 -0.0113
   12DPPC   C17  567   3.066   1.234   1.884  0.1096  0.7629 -0.1445
   12DPPC   C18  568   2.954   1.131   1.869  0.8227 -0.2933  1.5602
   12DPPC   C19  569   2.820   1.181   1.923  0.2017 -0.2880  0.0440
   12DPPC   C20  570   2.830   1.187   2.075 -0.2154 -0.0381  0.0628
   12DPPC   C21  571   2.687   1.197   2.129 -0.1482 -0.2837  0.2886
   12DPPC   C22  572   2.680   1.170   2.280  0.2269 -0.4081  0.2859
   12DPPC   C23  573   2.533   1.158   2.320  0.2957 -0.2830  0.5757
   12DPPC   C24  574   2.496   1.141   2.468 -0.3723  0.2350  0.4768
   12DPPC   C25  575   2.552   1.272   2.522 -0.6665  0.4590  0.2423
   12DPPC   C26  576   2.520   1.296   2.670 -0.0338  0.1784  0.4297
   12DPPC   C27  577   2.559   1.438   2.712 -0.5013  0.4815 -0.1490
   12DPPC   C28  578   2.532   1.463   2.860 -0.4743  0.1070 -0.0807
   12DPPC   C29  579   2.390   1.505   2.900 -0.3191  0.3744  0.1937
   12DPPC   C30  580   2.358   1.495   3.049  0.5400 -0.2240  0.3470
   12DPPC   C31  581   2.364   1.351   3.100 -0.0986 -0.2315  0.4128
   12DPPC   C32  582   3.371   1.406   1.576  0.2302 -0.2930 -0.1073
   12DPPC   O33  583   3.456   1.458   1.678 -0.1498  0.4511 -0.1663
   12DPPC   C34  584   3.585   1.417   1.692 -0.3293  0.0603  0.3829
   12DPPC   O35  585   3.635   1.338   1.612 -0.4306  0.4764 -0.0993
   12DPPC   C36  586   3.659   1.457   1.820  0.1068  0.1700  0.0969
   12DPPC   C37  587   3.650   1.356   1.934 -0.0126  0.2988  0.2025
   12DPPC   C38  588   3.511   1.293   1.946  0.0279  0.1780  0.0475
   12DPPC   C39  589   3.487   1.231   2.084 -0.0856  0.1993  0.0373
   12DPPC   C40  590   3.359   1.147   2.084 -0.2111  0.3893 -0.2296
   12DPPC   C41  591   3.310   1.133   2.228 -0.3272 -0.4642 -0.3470
   12DPPC   C42  592   3.178   1.058   2.241 -0.5779 -0.0351 -0.4034
   12DPPC   C43  593   3.159   1.044   2.392  0.1519 -0.5665 -0.3557
   12DPPC   C44  594   3.019   1.088   2.436  0.1882 -0.7836 -0.0192
   12DPPC   C45  595   3.008   1.073   2.588  0.3698  0.3824  0.1176
   12DPPC   C46  596   2.870   1.023   2.631  0.4605  0.0359  0.0048
   12DPPC   C47  597   2.861   1.041   2.783 -0.3162 -0.1954 -0.0059
   12DPPC   C48  598   2.884   1.187   2.823  0.3460 -0.3553  0.2108
   12DPPC   C49  599   2.858   1.207   2.973  0.0758 -0.0446  0.1253
   12DPPC   C50  600   2.877   1.353   3.014  0.4284 -0.0703  0.0560
   13DPPC    C1  601   4.029   2.699   0.578  0.2352  0.2315 -0.0961
   13DPPC    C2  602   4.102   2.473   0.572 -0.1261 -0.0950  0.2130
   13DPPC    C3  603   4.257   2.667   0.584 -0.0924 -0.1618 -0.1188
   13DPPC    N4  604   4.131   2.605   0.629 -0.0899 -0.0371  0.0617
   13DPPC    C5  605   4.140   2.600   0.776 -0.1688 -0.4097  0.0536
   13DPPC    C6  606   4.010   2.611   0.856  0.0663 -0.5914  0.4639
   13DPPC    O7  607   4.034   2.591   0.995  0.3417 -0.0035  0.5053
   13DPPC    P8  608   3.903   2.625   1.082  0.0507 -0.1432  0.1216
   13DPPC    O9  609   3.835   2.732   1.005  0.2857  0.1692  0.3480
   13DPPC   O10  610   3.840   2.491   1.093 -0.1478 -0.0378  0.2751
   13DPPC   O11  611   3.988   2.659   1.214 -0.3459  0.0930  0.3174
   13DPPC   C12  612   3.986   2.537   1.289 -0.4429  0.0138  0.1874
   13DPPC   C13  613   4.033   2.564   1.433  0.2051 -0.1085  0.0027
   13DPPC   O14  614   4.050   2.443   1.507  0.6017 -0.2421 -0.3083
   13DPPC   C15  615   4.138   2.437   1.611 -0.4647  0.2365  0.6319
   13DPPC   O16  616   4.230   2.516   1.623  0.0327 -0.1915 -0.2598
   13DPPC   C17  617   4.122   2.326   1.715 -0.3531 -0.5395 -0.1668
   13DPPC   C18  618   4.208   2.338   1.841 -0.5079 -0.6550 -0.0498
   13DPPC   C19  619   4.152   2.272   1.967 -0.1326  0.4303  0.6970
   13DPPC   C20  620   4.110   2.128   1.935  0.6641  0.4137 -0.3124
   13DPPC   C21  621   4.125   2.050   2.066 -0.0720  0.0533 -0.4363
   13DPPC   C22  622   4.008   2.089   2.156  0.0680 -0.1856 -0.1515
   13DPPC   C23  623   4.023   2.004   2.282  0.0023  0.5522  0.3629
   13DPPC   C24  624   3.890   2.022   2.357 -0.2626  0.4620 -0.0824
   13DPPC   C25  625   3.906   1.960   2.496 -0.2762 -0.1629 -0.3546
   13DPPC   C26  626   3.794   2.009   2.588  0.5675 -0.1686  0.6964
   13DPPC   C27  627   3.791   2.162   2.584 -0.2991 -0.1962  0.0237
   13DPPC   C28  628   3.646   2.197   2.619 -0.1138  0.7717 -0.1580
   13DPPC   C29  629   3.641   2.322   2.708  0.7570  0.4607  0.3422
   13DPPC   C30  630   3.498   2.373   2.728  0.5146 -0.1686  0.2357
   13DPPC   C31  631   3.502   2.482   2.835 -0.4522 -0.2944  0.4126
   13DPPC   C32  632   3.929   2.657   1.496  0.1635 -0.0710 -0.1191
   13DPPC   O33  633   3.981   2.754   1.587 -0.4990  0.1331  0.0524
   13DPPC   C34  634   3.887   2.824   1.656 -0.2936 -0.1400  0.6179
   13DPPC   O35  635   3.771   2.781   1.652 -0.3345  0.0379 -0.5507
   13DPPC   C36  636   3.944   2.931   1.748 -0.3610  0.4611 -0.0366
   13DPPC   C37  637   3.877   2.936   1.885  0.1288 -0.5767  0.2482
   13DPPC   C38  638   3.963   3.015   1.985 -0.0547  0.1293 -0.1442
   13DPPC   C39  639   3.979   3.166   1.969 -0.7157  0.1605 -0.5382
   13DPPC   C40  640   4.073   3.221   2.076 -0.5021 -0.3738 -0.4536
   13DPPC   C41  641   4.022   3.189   2.217  0.7523 -0.1000  0.0742
   13DPPC   C42  642   4.134   3.222   2.316  0.4347  0.0515  0.3860
   13DPPC   C43  643   4.257   3.131   2.310  0.3595  0.0119 -0.5986
   13DPPC   C44  644   4.371   3.152   2.409  0.1510 -0.3562 -0.2781
   13DPPC   C45  645   4.411   3.299   2.424 -0.5519 -0.2101  0.2207
   13DPPC   C46  646   4.493   3.300   2.554 -0.3213  0.2741  0.0741
   13DPPC   C47  647   4.549   3.439   2.584 -0.1607  0.0150  1.0030
   13DPPC   C48  648   4.607   3.455   2.725  0.2724  0.4275  0.7826
   13DPPC   C49  649   4.669   3.594   2.734  0.9026  0.2018 -0.0076
   13DPPC   C50  650   4.683   3.619   2.884  0.5507  0.1106  0.0402
   14DPPC    C1  651   4.323   2.882   1.237  0.0404 -0.1179 -0.0735
   14DPPC    C2  652   4.522   2.969   1.342  0.4979 -0.0437 -0.1290
   14DPPC    C3  653   4.494   2.745   1.326  0.3784  0.0076  0.0461
   14DPPC    N4  654   4.416   2.867   1.350  0.3694  0.0755 -0.3167
   14DPPC    C5  655   4.352   2.859   1.482  0.6149 -0.0300 -0.2029
   14DPPC    C6  656   4.247   2.963   1.523  0.1447 -0.4022 -0.4605
   14DPPC    O7  657   4.304   3.094   1.511 -0.5349 -0.0513  0.0557
   14DPPC    P8  658   4.191   3.206   1.530 -0.0060  0.4469  0.2720
   14DPPC    O9  659   4.234   3.331   1.462 -0.6067  0.2345 -0.5166
   14DPPC   O10  660   4.062   3.146   1.488  0.1875  0.4790 -0.3744
   14DPPC   O11  661   4.212   3.220   1.689 -0.0346  0.7585  0.2500
   14DPPC   C12  662   4.341   3.264   1.733  0.3326 -0.0517  0.0019
   14DPPC   C13  663   4.351   3.237   1.884  0.2390 -0.4265 -0.0582
   14DPPC   O14  664   4.414   3.343   1.956  0.4922 -0.2686 -0.5110
   14DPPC   C15  665   4.536   3.402   1.942  0.1692  0.4468 -0.3351
   14DPPC   O16  666   4.594   3.399   1.834 -0.0427 -0.3374 -0.4297
   14DPPC   C17  667   4.599   3.481   2.057 -0.5744  0.3435  0.1504
   14DPPC   C18  668   4.664   3.377   2.149 -0.1509  0.5455  0.0838
   14DPPC   C19  669   4.768   3.438   2.242  0.5577  0.0041 -0.3470
   14DPPC   C20  670   4.859   3.331   2.304 -0.3192 -0.2580  0.5148
   14DPPC   C21  671   4.955   3.387   2.410  0.1991 -0.6090  0.2354
   14DPPC   C22  672   4.914   3.378   2.557 -0.3802  0.2931  0.1364
   14DPPC   C23  673   5.032   3.409   2.650 -0.0338  0.3081 -0.3064
   14DPPC   C24  674   5.088   3.552   2.655  0.1520  0.2207  0.1031
   14DPPC   C25  675   5.176   3.547   2.780  0.6888 -0.3736 -0.2893
   14DPPC   C26  676   5.106   3.491   2.904 -0.0146 -0.0779 -0.5493
   14DPPC   C27  677   5.211   3.445   3.005 -0.0225  1.0202 -0.0343
   14DPPC   C28  678   5.156   3.378   3.131  0.5443 -0.0353 -0.3352
   14DPPC   C29  679   5.260   3.378   3.243 -0.0078 -0.2796  0.1889
   14DPPC   C30  680   5.377   3.285   3.208 -0.1853 -0.3999 -0.0819
   14DPPC   C31  681   5.489   3.307   3.309 -0.1617 -0.1086 -0.1700
   14DPPC   C32  682   4.414   3.098   1.897  0.4392 -0.3644 -0.3539
   14DPPC   O33  683   4.326   2.988   1.879 -0.5537  0.4559 -0.6314
   14DPPC   C34  684   4.380   2.866   1.908 -0.0634  0.8930  0.3639
   14DPPC   O35  685   4.494   2.830   1.881 -0.4154 -0.3053  0.4276
   14DPPC   C36  686   4.276   2.763   1.954  0.1717  0.0593 -0.9367
   14DPPC   C37  687   4.232   2.785   2.098  0.2379 -0.7048 -0.7951
   14DPPC   C38  688   4.149   2.663   2.140  0.1848 -0.6881 -0.8516
   14DPPC   C39  689   4.116   2.671   2.289 -0.2414 -0.0800 -0.9757
   14DPPC   C40  690   4.017   2.560   2.324  0.2225 -0.3632 -0.5497
   14DPPC   C41  691   3.994   2.541   2.474 -0.3746  0.1539 -0.5718
   14DPPC   C42  692   3.928   2.664   2.536  0.2481  0.1569  0.0985
   14DPPC   C43  693   3.977   2.664   2.681 -0.0204 -0.9797  0.2031
   14DPPC   C44  694   4.127   2.668   2.709 -0.0861  0.2441  0.4674
   14DPPC   C45  695   4.159   2.624   2.852  0.7585  0.0834  0.2386
   14DPPC   C46  696   4.101   2.483   2.859  0.0668  0.3567  0.0667
   14DPPC   C47  697   4.174   2.417   2.976 -0.0450 -0.2234 -0.1850
   14DPPC   C48  698   4.119   2.275   2.983  0.0298 -0.2867 -0.8184
   14DPPC   C49  699   4.178   2.192   3.098 -0.0874  0.3439 -0.2976
   14DPPC   C50  700   4.331   2.189   3.093 -0.0951 -0.1365 -0.2294
   15DPPC    C1  701   4.467   3.829   1.440 -0.2519  0.0245  0.1764
   15DPPC    C2  702   4.444   3.616   1.550 -0.0124 -0.2541 -0.1521
   15DPPC    C3  703   4.448   3.822   1.676  0.1784  0.3624 -0.4548
   15DPPC    N4  704   4.403   3.757   1.551 -0.1730 -0.3030  0.0109
   15DPPC    C5  705   4.257   3.775   1.552 -0.2057 -0.5585  0.6183
   15DPPC    C6  706   4.177   3.706   1.441 -0.0876  0.2403  0.0276
   15DPPC    O7  707   4.037   3.732   1.457 -0.0804  0.3152 -0.0306
   15DPPC    P8  708   3.965   3.675   1.325 -0.1288 -0.3756  0.2922
   15DPPC    O9  709   3.855   3.770   1.300 -0.1650 -0.5982 -0.4163
   15DPPC   O10  710   4.069   3.630   1.230 -0.6848 -1.0280 -0.0162
   15DPPC   O11  711   3.922   3.545   1.411 -0.7616 -0.2920  0.1072
   15DPPC   C12  712   3.834   3.570   1.520 -0.0483  0.3805  0.5425
   15DPPC   C13  713   3.848   3.460   1.625 -0.0166 -0.1611 -0.0289
   15DPPC   O14  714   3.730   3.437   1.702  0.3476 -0.2011  0.5228
   15DPPC   C15  715   3.722   3.311   1.753 -0.0417 -0.3638  0.0638
   15DPPC   O16  716   3.740   3.215   1.679 -0.0125 -0.7059  0.5122
   15DPPC   C17  717   3.630   3.295   1.874  0.0414 -0.2920  0.1363
   15DPPC   C18  718   3.691   3.326   2.011  0.1083  0.1190  0.0148
   15DPPC   C19  719   3.738   3.471   2.028 -0.1095  0.2009 -0.0894
   15DPPC   C20  720   3.815   3.493   2.158 -0.0990 -0.1080 -0.0435
   15DPPC   C21  721   3.833   3.644   2.162  0.6200 -0.1946 -0.0033
   15DPPC   C22  722   3.899   3.691   2.292  0.5975 -0.7104  0.1966
   15DPPC   C23  723   3.907   3.844   2.296  0.0230 -0.6734 -0.0639
   15DPPC   C24  724   3.961   3.871   2.436 -0.9166 -0.3479  0.2402
   15DPPC   C25  725   3.869   3.827   2.550 -0.9990  0.2478  0.4104
   15DPPC   C26  726   3.897   3.889   2.688 -0.1968  0.1964  0.2749
   15DPPC   C27  727   3.802   3.838   2.796 -0.9106 -0.2477 -0.5476
   15DPPC   C28  728   3.859   3.873   2.933 -0.2632  0.0616 -0.8944
   15DPPC   C29  729   3.861   4.025   2.950 -0.2631 -0.0510  0.2177
   15DPPC   C30  730   3.884   4.064   3.096 -0.6967  0.0947  0.2489
   15DPPC   C31  731   3.915   4.213   3.108 -0.0574 -0.0220  0.0912
   15DPPC   C32  732   3.989   3.476   1.683  0.0729 -0.2635 -0.2141
   15DPPC   O33  733   4.006   3.580   1.780  0.0658 -0.3603 -0.1098
   15DPPC   C34  734   4.129   3.606   1.833  0.1391 -0.2368 -0.3380
   15DPPC   O35  735   4.238   3.567   1.793  0.3582 -0.1077  0.1271
   15DPPC   C36  736   4.130   3.701   1.954 -0.6076 -0.5630 -0.0689
   15DPPC   C37  737   4.224   3.637   2.056  0.2543  0.2158 -0.3624
   15DPPC   C38  738   4.242   3.734   2.173  0.3114  0.0007 -0.1928
   15DPPC   C39  739   4.325   3.652   2.272  0.4364  0.2571 -0.0850
   15DPPC   C40  740   4.347   3.711   2.412 -0.2893 -0.4687  0.3443
   15DPPC   C41  741   4.253   3.636   2.506 -0.2107 -0.5201  0.3818
   15DPPC   C42  742   4.286   3.690   2.645 -0.2271  0.4733  0.0079
   15DPPC   C43  743   4.202   3.622   2.753  0.0621 -0.2143 -0.1895
   15DPPC   C44  744   4.223   3.471   2.753  0.3542 -0.1740 -0.4245
   15DPPC   C45  745   4.102   3.393   2.804 -0.1295  0.5136 -0.5036
   15DPPC   C46  746   4.051   3.447   2.938  0.2097  0.5555 -0.3896
   15DPPC   C47  747   3.939   3.355   2.988  0.4500  0.3196 -0.2857
   15DPPC   C48  748   3.914   3.397   3.133  0.5178  0.4042 -0.2984
   15DPPC   C49  749   3.846   3.534   3.133  0.0562  0.1779  0.3463
   15DPPC   C50  750   3.811   3.565   3.278 -0.0137 -0.6407  0.5115
   16DPPC    C1  751   0.618   1.126   1.283  0.2189  0.1110  0.5214
   16DPPC    C2  752   0.623   1.334   1.380 -0.1318 -0.3312 -0.2312
   16DPPC    C3  753   0.796   1.186   1.423 -0.6883 -0.2356  0.6225
   16DPPC    N4  754   0.711   1.236   1.314  0.4444  0.1058 -0.1237
   16DPPC    C5  755   0.779   1.275   1.189  0.1059 -0.4133 -0.4757
   16DPPC    C6  756   0.839   1.413   1.164 -0.0832 -0.2297  0.0625
   16DPPC    O7  757   0.908   1.473   1.274  0.1208  0.1927 -0.2928
   16DPPC    P8  758   0.948   1.617   1.214 -0.2484  0.4017 -0.0464
   16DPPC    O9  759   1.059   1.594   1.118 -0.3235 -0.0734 -0.0243
   16DPPC   O10  760   0.832   1.689   1.155 -0.9196 -0.1286  0.6092
   16DPPC   O11  761   0.993   1.689   1.350 -0.2606 -0.1797  0.2701
   16DPPC   C12  762   0.881   1.748   1.417 -0.2406 -0.3797  0.4784
   16DPPC   C13  763   0.903   1.734   1.568 -0.5224 -0.4085  0.5177
   16DPPC   O14  764   0.942   1.847   1.647 -0.4003 -0.1108  0.0322
   16DPPC   C15  765   0.845   1.924   1.703 -0.5362 -0.1123 -0.2001
   16DPPC   O16  766   0.749   1.960   1.636 -0.2936  0.1171 -0.4259
   16DPPC   C17  767   0.882   1.997   1.832  0.2730 -1.0262  0.0976
   16DPPC   C18  768   0.811   1.923   1.945 -0.2191 -0.1295  0.3842
   16DPPC   C19  769   0.820   1.997   2.079  0.0959  0.6072 -0.0426
   16DPPC   C20  770   0.766   1.911   2.193 -0.6983  0.9229 -0.1740
   16DPPC   C21  771   0.791   1.967   2.333 -0.3587  0.1194  0.0945
   16DPPC   C22  772   0.709   1.886   2.434  0.6821 -0.7063  0.2917
   16DPPC   C23  773   0.710   1.940   2.577  0.5320  0.1402 -0.0228
   16DPPC   C24  774   0.634   1.849   2.673  0.3059  0.0141 -0.3177
   16DPPC   C25  775   0.552   1.916   2.784  0.4851  0.1063 -0.2401
   16DPPC   C26  776   0.641   1.958   2.901 -0.0717 -0.0803  0.2566
   16DPPC   C27  777   0.559   2.003   3.022  0.0052 -0.3045  0.3919
   16DPPC   C28  778   0.629   1.980   3.156 -0.1250 -0.1930  0.4794
   16DPPC   C29  779   0.617   1.834   3.200  0.0143 -0.1247  0.7468
   16DPPC   C30  780   0.677   1.813   3.339  0.7775  0.9269  0.5894
   16DPPC   C31  781   0.616   1.681   3.385  0.3592  0.8169 -0.2572
   16DPPC   C32  782   0.996   1.614   1.589 -0.1179 -0.1076  0.4362
   16DPPC   O33  783   0.947   1.527   1.691 -0.0059  0.1312  0.7005
   16DPPC   C34  784   1.036   1.432   1.729 -0.3361 -0.6092 -0.3086
   16DPPC   O35  785   1.150   1.417   1.687 -0.0996 -0.1754  0.1683
   16DPPC   C36  786   0.991   1.355   1.854  0.2955  0.0844  0.3607
   16DPPC   C37  787   1.106   1.316   1.946  0.3353 -0.4910  0.0772
   16DPPC   C38  788   1.042   1.245   2.066 -0.4735 -0.3577 -0.2750
   16DPPC   C39  789   1.139   1.238   2.183 -0.3409 -0.1398 -0.3698
   16DPPC   C40  790   1.074   1.177   2.307 -0.1146  0.2817 -0.0421
   16DPPC   C41  791   1.167   1.174   2.429  0.5323 -0.1833 -0.5402
   16DPPC   C42  792   1.102   1.146   2.565  1.0719  0.3595 -0.1712
   16DPPC   C43  793   1.199   1.112   2.679  0.0926 -0.5459  0.4092
   16DPPC   C44  794   1.134   1.098   2.817 -0.4513 -0.1573  0.1992
   16DPPC   C45  795   1.234   1.044   2.919 -0.1017  0.2483  0.0727
   16DPPC   C46  796   1.158   1.060   3.051 -0.2475 -0.3731  0.0634
   16DPPC   C47  797   1.035   0.970   3.066  0.2075 -0.9515  0.3715
   16DPPC   C48  798   0.961   0.997   3.197 -0.2277 -0.2002 -0.0233
   16DPPC   C49  799   1.038   0.954   3.322 -0.2807  0.6085  0.2952
   16DPPC   C50  800   0.986   1.017   3.451  0.3996  0.6244  0.5621
   17DPPC    C1  801   2.066   2.100   0.885 -0.0388 -0.0165  0.5412
   17DPPC    C2  802   2.239   2.155   1.058  0.4890 -0.0769 -0.0224
   17DPPC    C3  803   2.226   1.948   0.971  0.3535  0.2689 -0.6633
   17DPPC    N4  804   2.138   2.061   1.007  0.3038 -0.0691  0.3220
   17DPPC    C5  805   2.053   2.028   1.122 -0.4871  0.3857 -0.1286
   17DPPC    C6  806   1.930   1.938   1.105  0.0356 -0.3872  0.1350
   17DPPC    O7  807   1.946   1.802   1.064  0.2452 -0.2201 -0.3422
   17DPPC    P8  808   1.805   1.734   1.027  0.0927 -0.1167  0.0468
   17DPPC    O9  809   1.698   1.836   1.036  0.2156 -0.0042  0.2405
   17DPPC   O10  810   1.807   1.642   0.911  0.9471 -0.0184 -0.0233
   17DPPC   O11  811   1.764   1.633   1.146  0.4675  0.0249  0.2966
   17DPPC   C12  812   1.745   1.697   1.273 -0.0445 -0.3435  0.4054
   17DPPC   C13  813   1.624   1.648   1.353 -0.2752 -0.1534  0.1760
   17DPPC   O14  814   1.584   1.732   1.462 -0.3056  0.4015 -0.2584
   17DPPC   C15  815   1.454   1.767   1.480 -0.4301 -0.3638  0.4271
   17DPPC   O16  816   1.366   1.769   1.394 -0.0943  0.3142  0.0895
   17DPPC   C17  817   1.413   1.828   1.614 -0.3151  0.0170  0.2926
   17DPPC   C18  818   1.348   1.727   1.709 -0.5015 -0.0362  0.1104
   17DPPC   C19  819   1.298   1.809   1.829  0.6138  0.0322  0.5426
   17DPPC   C20  820   1.247   1.722   1.944  0.3524 -0.3706  0.1273
   17DPPC   C21  821   1.226   1.802   2.073  0.5522  0.1358 -0.1479
   17DPPC   C22  822   1.182   1.698   2.177  0.5607 -0.2868 -0.5606
   17DPPC   C23  823   1.103   1.771   2.286 -0.1570 -0.3107 -1.0541
   17DPPC   C24  824   1.043   1.672   2.386  0.2489 -0.6853 -1.1772
   17DPPC   C25  825   1.156   1.603   2.464 -0.2202  0.2249  0.3640
   17DPPC   C26  826   1.111   1.499   2.566 -0.0970 -0.3650 -0.1722
   17DPPC   C27  827   1.038   1.569   2.682  0.1791 -0.0881 -0.1645
   17DPPC   C28  828   0.989   1.481   2.797 -0.4517  0.3114 -0.1243
   17DPPC   C29  829   0.917   1.575   2.894 -0.1927  0.1720  0.2089
   17DPPC   C30  830   0.858   1.510   3.019 -0.4967 -0.1883 -0.1180
   17DPPC   C31  831   0.958   1.502   3.134 -0.4749 -0.6212 -0.1658
   17DPPC   C32  832   1.668   1.504   1.381 -0.0543 -0.0498  0.3694
   17DPPC   O33  833   1.783   1.493   1.464 -0.2455 -0.4228  0.5893
   17DPPC   C34  834   1.816   1.361   1.475  0.0126 -0.3630  0.5501
   17DPPC   O35  835   1.726   1.279   1.458 -0.3925  0.2371 -0.3376
   17DPPC   C36  836   1.947   1.322   1.543  0.3701  0.0898  0.1272
   17DPPC   C37  837   1.938   1.362   1.690  0.2348 -0.3845  0.2500
   17DPPC   C38  838   2.072   1.336   1.759  0.3032  0.3661  0.4073
   17DPPC   C39  839   2.039   1.363   1.906 -0.2756  0.3771  0.2762
   17DPPC   C40  840   2.163   1.378   1.994  0.0475  1.0094 -0.2809
   17DPPC   C41  841   2.118   1.374   2.140 -0.2437  0.0115 -0.3940
   17DPPC   C42  842   2.235   1.387   2.237  0.2894 -0.6423 -0.9380
   17DPPC   C43  843   2.285   1.531   2.253 -0.1786 -0.5616 -0.1338
   17DPPC   C44  844   2.421   1.523   2.322 -0.0313  0.1673 -0.3273
   17DPPC   C45  845   2.481   1.660   2.355 -0.1109  0.1314 -0.0273
   17DPPC   C46  846   2.622   1.633   2.408  0.0146  0.4117 -0.2165
   17DPPC   C47  847   2.711   1.581   2.296 -0.0839 -0.1550 -0.0324
   17DPPC   C48  848   2.846   1.544   2.358  0.1247  0.1874 -0.2817
   17DPPC   C49  849   2.918   1.637   2.457  0.1827 -0.2652  0.1020
   17DPPC   C50  850   3.045   1.566   2.503  0.3963 -0.1273 -0.2681
   18DPPC    C1  851   2.256   5.862   1.614 -0.4752  0.2062 -0.4912
   18DPPC    C2  852   2.430   5.895   1.451  0.1781  0.1659 -0.1590
   18DPPC    C3  853   2.340   5.684   1.491  1.1835 -0.0984 -0.2985
   18DPPC    N4  854   2.382   5.808   1.559 -0.2793  0.3641 -0.2038
   18DPPC    C5  855   2.473   5.776   1.670  0.1895  0.0507 -0.6749
   18DPPC    C6  856   2.619   5.742   1.639  0.3442  0.0982  0.0066
   18DPPC    O7  857   2.629   5.604   1.605 -0.4115  0.1242 -0.3483
   18DPPC    P8  858   2.780   5.547   1.600 -0.4455  0.0010 -0.0171
   18DPPC    O9  859   2.782   5.400   1.594  0.2777  0.0064 -0.0321
   18DPPC   O10  860   2.838   5.632   1.494  0.0588 -0.4947 -0.1434
   18DPPC   O11  861   2.831   5.592   1.746  0.4529 -0.7034 -0.1058
   18DPPC   C12  862   2.761   5.517   1.845  0.1190  0.4078  0.5238
   18DPPC   C13  863   2.796   5.530   1.994  0.3439 -0.3020  0.5393
   18DPPC   O14  864   2.707   5.618   2.064  0.3319  0.2610 -0.1616
   18DPPC   C15  865   2.620   5.709   2.013  0.1592  0.1779 -0.0165
   18DPPC   O16  866   2.653   5.790   1.927 -0.2286  0.4216  0.0614
   18DPPC   C17  867   2.527   5.771   2.118 -0.0880  1.2283 -0.8411
   18DPPC   C18  868   2.592   5.780   2.256 -0.4658  0.3809 -0.6009
   18DPPC   C19  869   2.517   5.860   2.362  0.2787  0.0929  0.1570
   18DPPC   C20  870   2.468   5.995   2.310 -0.4132 -0.2763 -0.1671
   18DPPC   C21  871   2.444   6.093   2.426  0.4488 -0.1295 -0.1077
   18DPPC   C22  872   2.337   6.188   2.372  0.3435  0.0896  0.4788
   18DPPC   C23  873   2.306   6.309   2.460  0.4361  0.2789  0.2541
   18DPPC   C24  874   2.200   6.402   2.401  0.7317  0.4921  0.0592
   18DPPC   C25  875   2.186   6.530   2.483  0.5464  0.2396  0.4227
   18DPPC   C26  876   2.114   6.494   2.613 -0.5644  0.1718 -0.1990
   18DPPC   C27  877   1.984   6.417   2.587 -0.3208 -0.0951 -0.6390
   18DPPC   C28  878   1.934   6.332   2.704  0.0856  0.1580 -0.2780
   18DPPC   C29  879   1.806   6.249   2.689  0.1006  0.0420  0.2335
   18DPPC   C30  880   1.812   6.124   2.778 -0.0072  0.1344  0.3715
   18DPPC   C31  881   1.679   6.049   2.770 -0.2651  0.6070  0.1518
   18DPPC   C32  882   2.947   5.542   2.007  0.3231  0.2569  0.2860
   18DPPC   O33  883   3.008   5.413   2.019 -0.2790 -0.0800 -0.2501
   18DPPC   C34  884   3.136   5.426   2.061 -0.2385 -0.2004 -0.3382
   18DPPC   O35  885   3.189   5.538   2.066 -0.0700 -0.2730 -0.4560
   18DPPC   C36  886   3.209   5.293   2.082  0.0967  0.0307 -0.0293
   18DPPC   C37  887   3.358   5.313   2.112  0.0047 -0.0966  0.5387
   18DPPC   C38  888   3.438   5.185   2.088  0.3694  0.1490  0.4373
   18DPPC   C39  889   3.588   5.212   2.100  0.4709 -0.1254 -0.2088
   18DPPC   C40  890   3.619   5.239   2.247 -0.2365  0.1924 -0.1138
   18DPPC   C41  891   3.766   5.281   2.262 -0.3285  0.3568  0.3499
   18DPPC   C42  892   3.789   5.327   2.406 -0.4965 -0.0608  0.5116
   18DPPC   C43  893   3.759   5.208   2.496 -0.1929 -0.7918 -0.3422
   18DPPC   C44  894   3.820   5.233   2.635  0.2102 -0.0631 -0.6464
   18DPPC   C45  895   3.809   5.119   2.736 -0.0187  0.6323  0.1183
   18DPPC   C46  896   3.864   5.161   2.873  0.1434  0.1720  0.1954
   18DPPC   C47  897   3.904   5.045   2.965 -0.2364 -0.0209  0.1241
   18DPPC   C48  898   3.783   4.962   3.008 -0.4558  0.8035  1.1309
   18DPPC   C49  899   3.825   4.838   3.087  0.1913  0.1465 -0.2275
   18DPPC   C50  900   3.695   4.774   3.135  0.3885  0.3108  0.5373
   19DPPC    C1  901   2.209   0.213   1.380 -0.6980 -0.1653 -0.7042
   19DPPC    C2  902   2.178   0.401   1.226 -0.3739 -0.0232  0.2391
   19DPPC    C3  903   2.258   0.447   1.431 -0.4109  0.7077  0.2594
   19DPPC    N4  904   2.167   0.353   1.364  0.0569  0.1883  0.3473
   19DPPC    C5  905   2.035   0.384   1.421 -0.2973 -0.0652 -0.3336
   19DPPC    C6  906   1.914   0.298   1.383  0.2951 -1.0661  0.0019
   19DPPC    O7  907   1.789   0.364   1.407  0.4792 -0.6652 -0.1290
   19DPPC    P8  908   1.670   0.265   1.360 -0.0701 -0.0331 -0.0799
   19DPPC    O9  909   1.555   0.343   1.412 -0.3366 -0.5018  0.0315
   19DPPC   O10  910   1.693   0.221   1.221 -0.0569  0.1354 -0.1318
   19DPPC   O11  911   1.705   0.154   1.471 -0.3605 -0.3563 -0.3133
   19DPPC   C12  912   1.633   0.192   1.589  0.1270  0.1112 -0.1654
   19DPPC   C13  913   1.692   0.157   1.725 -0.2176  0.2926  0.0321
   19DPPC   O14  914   1.791   0.243   1.785  0.1018  0.4144 -0.6553
   19DPPC   C15  915   1.920   0.270   1.755  0.3684  0.0415  0.1253
   19DPPC   O16  916   1.977   0.199   1.672 -0.3328 -0.0634 -0.2719
   19DPPC   C17  917   1.994   0.367   1.848  0.5984  0.2935 -0.3169
   19DPPC   C18  918   2.067   0.314   1.971 -0.2003 -0.0589  0.0137
   19DPPC   C19  919   2.096   0.429   2.068  0.2788  0.1532 -0.3736
   19DPPC   C20  920   1.970   0.493   2.126  0.5083  0.2908 -0.0208
   19DPPC   C21  921   1.992   0.596   2.237  0.3332  0.5954 -0.2640
   19DPPC   C22  922   1.861   0.604   2.314  0.1456  0.3766 -0.5566
   19DPPC   C23  923   1.832   0.467   2.377 -0.1772  0.5373 -0.3507
   19DPPC   C24  924   1.707   0.468   2.465 -0.3586  0.6666 -0.6078
   19DPPC   C25  925   1.658   0.327   2.501  0.5059  0.4886 -0.1135
   19DPPC   C26  926   1.531   0.348   2.583  0.5571  0.2810  0.0174
   19DPPC   C27  927   1.581   0.409   2.714  0.9736 -1.0121  0.4788
   19DPPC   C28  928   1.464   0.434   2.810  0.0678  0.2640 -0.9085
   19DPPC   C29  929   1.514   0.485   2.946  0.2681 -0.3786 -0.7355
   19DPPC   C30  930   1.551   0.358   3.023 -0.8953 -0.0247  0.4551
   19DPPC   C31  931   1.558   0.386   3.173  0.2120 -0.0688  0.4261
   19DPPC   C32  932   1.727   0.009   1.715  0.4818  0.3985  0.7626
   19DPPC   O33  933   1.617  -0.069   1.764  0.3161 -0.1799 -0.4985
   19DPPC   C34  934   1.645  -0.190   1.820  0.4413  0.4169  0.7613
   19DPPC   O35  935   1.757  -0.241   1.814  0.1105 -0.1961 -0.5996
   19DPPC   C36  936   1.534  -0.277   1.878  0.1996  0.0758 -0.1970
   19DPPC   C37  937   1.394  -0.225   1.843  0.1928  0.2243  0.0501
   19DPPC   C38  938   1.303  -0.234   1.966 -0.1578  0.1365 -0.2134
   19DPPC   C39  939   1.164  -0.177   1.939 -0.2685  0.0833  0.2425
   19DPPC   C40  940   1.088  -0.153   2.070 -0.8831  0.2754 -0.1463
   19DPPC   C41  941   1.038  -0.280   2.138  0.5132 -0.1267  0.1602
   19DPPC   C42  942   0.992  -0.257   2.282 -0.3421  0.6105 -0.2213
   19DPPC   C43  943   0.955  -0.391   2.347  0.0332  0.7075  0.2019
   19DPPC   C44  944   0.941  -0.383   2.499  0.1428  0.5684  0.2196
   19DPPC   C45  945   0.987  -0.515   2.561  0.0297  0.1153 -0.6467
   19DPPC   C46  946   0.961  -0.517   2.712 -0.1014 -0.0808 -0.6718
   19DPPC   C47  947   0.989  -0.659   2.763 -0.1060  0.0818 -0.2127
   19DPPC   C48  948   0.960  -0.662   2.913 -0.4617 -0.1625 -0.2845
   19DPPC   C49  949   1.004  -0.789   2.987 -0.2118  0.3153  0.3965
   19DPPC   C50  950   1.156  -0.806   2.993 -0.2600 -0.1710  0.2485
   20DPPC    C1  951   1.471   0.556   1.135  0.1249 -0.2836  1.1562
   20DPPC    C2  952   1.658   0.643   1.268 -0.3295  0.5977 -0.1566
   20DPPC    C3  953   1.445   0.751   1.249  0.5794  0.6484 -0.1331
   20DPPC    N4  954   1.548   0.675   1.176  0.0456  0.4290 -0.6651
   20DPPC    C5  955   1.591   0.750   1.057 -0.0499  0.2786 -0.7961
   20DPPC    C6  956   1.645   0.891   1.082 -0.1199  0.2948 -0.7371
   20DPPC    O7  957   1.776   0.901   1.137 -0.0155  0.0313 -0.9398
   20DPPC    P8  958   1.786   1.041   1.215 -0.5180 -0.4652  0.0369
   20DPPC    O9  959   1.923   1.057   1.266 -0.8488  0.1535  0.7528
   20DPPC   O10  960   1.716   1.144   1.134  0.0166  0.1965  0.4062
   20DPPC   O11  961   1.688   1.002   1.337 -0.4530 -0.2437  0.1602
   20DPPC   C12  962   1.756   0.997   1.463  0.1281  0.0522 -0.1348
   20DPPC   C13  963   1.685   0.930   1.581 -0.1631 -0.1883 -0.4443
   20DPPC   O14  964   1.656   0.790   1.571 -0.4479 -0.1427 -0.2658
   20DPPC   C15  965   1.744   0.688   1.591 -0.4372 -0.0444  0.2147
   20DPPC   O16  966   1.865   0.709   1.596 -0.4764  0.1784  0.2285
   20DPPC   C17  967   1.685   0.567   1.662 -0.2951 -0.5384 -0.5005
   20DPPC   C18  968   1.656   0.606   1.807  0.4927 -0.7010 -0.2950
   20DPPC   C19  969   1.594   0.494   1.890 -0.1908  0.1882  0.4129
   20DPPC   C20  970   1.583   0.543   2.035 -0.7379  0.4354  0.2911
   20DPPC   C21  971   1.528   0.424   2.113  0.3321 -0.2515  0.0264
   20DPPC   C22  972   1.624   0.305   2.105  0.5562 -0.0501 -0.2919
   20DPPC   C23  973   1.581   0.182   2.185  0.5719 -0.4665 -0.9154
   20DPPC   C24  974   1.444   0.138   2.134  0.3319  0.1007 -0.7617
   20DPPC   C25  975   1.391   0.018   2.213 -0.3835  0.4310 -0.7337
   20DPPC   C26  976   1.381   0.036   2.365  0.1362 -0.5728 -0.5750
   20DPPC   C27  977   1.348  -0.083   2.455  0.1408 -0.1140  0.0402
   20DPPC   C28  978   1.380  -0.021   2.591 -0.3475 -0.3331  0.2570
   20DPPC   C29  979   1.306  -0.101   2.699 -0.5691 -0.0545  0.3121
   20DPPC   C30  980   1.271  -0.015   2.821 -0.1344 -0.0139  0.4116
   20DPPC   C31  981   1.393   0.036   2.898  0.2390 -0.1051 -0.1135
   20DPPC   C32  982   1.559   1.014   1.602  0.0689  0.1227 -0.2928
   20DPPC   O33  983   1.572   1.131   1.683  0.1810  0.1792 -0.3924
   20DPPC   C34  984   1.464   1.213   1.690  0.4274  0.5122 -0.4587
   20DPPC   O35  985   1.374   1.201   1.607  0.3963 -0.6613 -0.2692
   20DPPC   C36  986   1.469   1.336   1.781  0.1981  0.3742 -0.2596
   20DPPC   C37  987   1.495   1.303   1.929  0.1074  0.0837 -0.3073
   20DPPC   C38  988   1.484   1.420   2.028  0.1698  0.0874 -0.3046
   20DPPC   C39  989   1.488   1.369   2.172 -0.0011 -0.0678 -0.3541
   20DPPC   C40  990   1.497   1.480   2.277  0.0269 -0.8106  0.4374
   20DPPC   C41  991   1.539   1.422   2.412  0.1594 -0.4135  0.5660
   20DPPC   C42  992   1.486   1.502   2.532 -0.2381 -0.0408  0.1455
   20DPPC   C43  993   1.499   1.405   2.650 -0.1560  0.2309  0.3594
   20DPPC   C44  994   1.431   1.456   2.777 -0.2552  0.1186  0.3507
   20DPPC   C45  995   1.453   1.355   2.890 -0.3347 -0.5284 -0.2021
   20DPPC   C46  996   1.387   1.413   3.016 -0.1204 -0.1208 -0.2771
   20DPPC   C47  997   1.420   1.339   3.145 -0.7379 -0.2227 -0.1763
   20DPPC   C48  998   1.359   1.429   3.253 -0.1364 -0.1964  0.1427
   20DPPC   C49  999   1.379   1.372   3.393  0.9700 -0.2572 -0.0238
   20DPPC   C50 1000   1.327   1.228   3.404 -0.1934  0.1382 -0.1369
   21DPPC    C1 1001   2.971   4.940   1.662 -0.1610 -0.6993 -1.1545
   21DPPC    C2 1002   3.034   5.133   1.538 -0.0057  0.7011  0.4992
   21DPPC    C3 1003   2.916   5.144   1.736 -0.3484 -0.2322 -0.2862
   21DPPC    N4 1004   2.923   5.069   1.610  0.0364 -0.2537 -0.2548
   21DPPC    C5 1005   2.797   5.070   1.535 -0.4451 -0.3446  0.5436
   21DPPC    C6 1006   2.662   5.025   1.593 -0.5135 -0.1713  0.5208
   21DPPC    O7 1007   2.651   4.884   1.612 -0.5163 -0.2044  0.2753
   21DPPC    P8 1008   2.558   4.839   1.735 -0.2329 -0.0440  0.5503
   21DPPC    O9 1009   2.432   4.912   1.707  0.1277  0.4308  0.1478
   21DPPC   O10 1010   2.572   4.694   1.710  0.0462  0.1271 -0.3019
   21DPPC   O11 1011   2.665   4.907   1.834 -0.2934  0.3661  0.3339
   21DPPC   C12 1012   2.702   4.820   1.941 -0.5174  0.1106  0.2034
   21DPPC   C13 1013   2.783   4.908   2.036  0.0764  0.2514 -0.4264
   21DPPC   O14 1014   2.878   4.833   2.113  0.1007  0.5245 -0.1896
   21DPPC   C15 1015   2.992   4.788   2.053  0.1687 -0.1417  0.4236
   21DPPC   O16 1016   3.020   4.801   1.934  0.0962 -0.0708  0.4142
   21DPPC   C17 1017   3.079   4.691   2.133  0.1548 -0.4616  0.0584
   21DPPC   C18 1018   3.219   4.754   2.141  0.0707 -0.3247  0.5149
   21DPPC   C19 1019   3.231   4.896   2.195  0.0798  0.1262 -0.6517
   21DPPC   C20 1020   3.185   4.890   2.340  0.3820 -0.0220 -0.5602
   21DPPC   C21 1021   3.181   5.030   2.403 -0.0106 -0.2537 -0.0592
   21DPPC   C22 1022   3.147   5.041   2.552 -0.0463  0.3372 -0.1102
   21DPPC   C23 1023   3.173   5.182   2.605  0.3247  0.4526 -0.5927
   21DPPC   C24 1024   3.305   5.245   2.558  0.5115  0.3881 -0.1579
   21DPPC   C25 1025   3.333   5.377   2.629  0.6755  0.1275  0.2681
   21DPPC   C26 1026   3.464   5.435   2.575  0.4484  0.3162 -0.0875
   21DPPC   C27 1027   3.511   5.558   2.654  0.3263  0.3563 -0.0758
   21DPPC   C28 1028   3.440   5.687   2.612 -0.1464  0.0705 -0.1631
   21DPPC   C29 1029   3.462   5.794   2.718  0.2788  0.1356 -0.3118
   21DPPC   C30 1030   3.400   5.931   2.689  0.0379  0.0577 -0.1726
   21DPPC   C31 1031   3.248   5.907   2.687  0.0310  0.0470  0.4645
   21DPPC   C32 1032   2.689   4.981   2.132  0.1897 -0.2236  0.0554
   21DPPC   O33 1033   2.751   5.082   2.211  0.1321 -0.2109  0.0848
   21DPPC   C34 1034   2.751   5.063   2.346  0.0226  0.1734  0.1408
   21DPPC   O35 1035   2.675   4.983   2.400 -0.1742  0.3406  0.1110
   21DPPC   C36 1036   2.827   5.169   2.426 -0.0099 -0.0645  0.4844
   21DPPC   C37 1037   2.738   5.266   2.503 -0.3214 -0.0339  0.0819
   21DPPC   C38 1038   2.683   5.215   2.636  0.1996 -1.0231 -0.0713
   21DPPC   C39 1039   2.788   5.179   2.741  0.1008 -0.1962  0.3190
   21DPPC   C40 1040   2.751   5.105   2.870  0.4018 -0.1025  0.4606
   21DPPC   C41 1041   2.703   5.205   2.975 -0.5288  0.3619 -0.3920
   21DPPC   C42 1042   2.676   5.129   3.105  0.1731 -0.1578 -0.5445
   21DPPC   C43 1043   2.795   5.085   3.191  0.1371 -0.5411 -0.6918
   21DPPC   C44 1044   2.757   5.003   3.315  0.3195  0.1437 -0.1760
   21DPPC   C45 1045   2.886   4.981   3.394  0.1218  1.5328  0.5555
   21DPPC   C46 1046   2.857   4.897   3.518 -0.1901  0.0255 -0.5173
   21DPPC   C47 1047   2.765   4.775   3.515 -0.2468  0.0623 -0.2515
   21DPPC   C48 1048   2.742   4.706   3.650  0.3289 -0.2989 -0.3331
   21DPPC   C49 1049   2.878   4.665   3.706  0.2654  0.1240  0.1373
   21DPPC   C50 1050   2.847   4.585   3.833 -0.0682  0.0260 -0.0042
   22DPPC    C1 1051   3.214   5.794   1.067 -0.2567  0.3704  0.0060
   22DPPC    C2 1052   3.189   5.570   1.039 -0.2436  0.4770  0.6207
   22DPPC    C3 1053   3.344   5.688   0.908 -0.0618  0.3644 -0.2627
   22DPPC    N4 1054   3.294   5.673   1.046 -0.1733  0.4765 -0.2907
   22DPPC    C5 1055   3.395   5.671   1.153 -0.2441  0.0709 -0.2298
   22DPPC    C6 1056   3.494   5.554   1.147 -0.2379  0.0611  0.0484
   22DPPC    O7 1057   3.579   5.549   1.262  0.3256 -0.2321 -0.3731
   22DPPC    P8 1058   3.683   5.426   1.255  0.3576 -0.2283  0.0124
   22DPPC    O9 1059   3.617   5.312   1.189 -0.4447  0.3945 -0.2778
   22DPPC   O10 1060   3.804   5.475   1.185  0.0549  0.3293 -0.1325
   22DPPC   O11 1061   3.704   5.414   1.414  0.4649  0.1909  0.0324
   22DPPC   C12 1062   3.586   5.417   1.494  0.1105 -0.2137 -0.4698
   22DPPC   C13 1063   3.604   5.384   1.643  0.6846  0.2055 -0.4433
   22DPPC   O14 1064   3.637   5.494   1.729  0.0186 -0.6088  0.8855
   22DPPC   C15 1065   3.564   5.531   1.838 -0.1948  0.1577  0.4907
   22DPPC   O16 1066   3.442   5.520   1.840 -0.1873 -0.1148 -0.2005
   22DPPC   C17 1067   3.642   5.613   1.941  0.0719  0.8150 -0.2148
   22DPPC   C18 1068   3.553   5.694   2.036 -0.0073  0.2323  0.2159
   22DPPC   C19 1069   3.555   5.637   2.178 -0.0046  0.0601  0.1474
   22DPPC   C20 1070   3.479   5.734   2.268 -0.2275 -0.2185  0.2617
   22DPPC   C21 1071   3.345   5.779   2.209  0.2709  0.7035 -0.1834
   22DPPC   C22 1072   3.274   5.864   2.315  0.6673  0.4845  0.2598
   22DPPC   C23 1073   3.142   5.914   2.256 -0.0105 -0.7367  0.7013
   22DPPC   C24 1074   3.074   6.000   2.364 -0.3156  0.1449 -0.1771
   22DPPC   C25 1075   2.952   6.077   2.312 -0.6101 -0.5289 -0.5039
   22DPPC   C26 1076   2.889   6.140   2.437  0.3010 -0.3834 -0.1077
   22DPPC   C27 1077   2.863   6.029   2.538  0.4446  0.1433  0.5169
   22DPPC   C28 1078   2.798   6.071   2.670  0.2646 -0.0647  0.4954
   22DPPC   C29 1079   2.788   5.943   2.754  0.2571 -0.2286  0.2451
   22DPPC   C30 1080   2.797   5.981   2.902  0.0188  0.1250  0.1707
   22DPPC   C31 1081   2.674   6.061   2.943 -0.6346 -0.4786 -0.5607
   22DPPC   C32 1082   3.713   5.278   1.636 -0.5230 -1.0524 -0.7423
   22DPPC   O33 1083   3.682   5.176   1.730 -0.6743 -0.3492 -0.0212
   22DPPC   C34 1084   3.767   5.070   1.716 -0.1530  0.0363  0.1917
   22DPPC   O35 1085   3.842   5.061   1.619  0.2026 -0.2582  0.4913
   22DPPC   C36 1086   3.779   4.967   1.829  0.1061  0.5371  0.6248
   22DPPC   C37 1087   3.666   4.864   1.823  0.7189 -0.0939 -0.2692
   22DPPC   C38 1088   3.656   4.808   1.965  0.1939 -0.5527 -0.4842
   22DPPC   C39 1089   3.784   4.735   2.008  0.1122 -0.1026  0.5569
   22DPPC   C40 1090   3.772   4.681   2.151 -0.7712 -0.4891  0.3463
   22DPPC   C41 1091   3.736   4.796   2.245 -0.3021  0.4115 -0.5457
   22DPPC   C42 1092   3.656   4.731   2.359 -0.2215  0.3840 -0.5043
   22DPPC   C43 1093   3.596   4.830   2.458 -0.1500 -0.0564 -0.0179
   22DPPC   C44 1094   3.493   4.774   2.556 -0.0190 -0.2456  0.0132
   22DPPC   C45 1095   3.504   4.862   2.681  0.4683 -0.1516 -0.0959
   22DPPC   C46 1096   3.413   4.782   2.774  0.7710 -0.1535  0.2013
   22DPPC   C47 1097   3.380   4.864   2.899  0.2044 -0.2442  0.1150
   22DPPC   C48 1098   3.274   4.792   2.983 -0.0026  0.1689  0.2087
   22DPPC   C49 1099   3.246   4.874   3.109  0.4361 -0.0448  0.4475
   22DPPC   C50 1100   3.148   4.805   3.204 -0.4664  0.1612 -0.3241
   23DPPC    C1 1101   3.132   5.737   1.764  0.3983 -0.3923  0.3754
   23DPPC    C2 1102   3.254   5.892   1.868  0.2728 -0.3051 -0.1691
   23DPPC    C3 1103   3.342   5.778   1.678  0.1960  0.1557  0.7069
   23DPPC    N4 1104   3.224   5.848   1.732 -0.2789  0.0205 -0.1532
   23DPPC    C5 1105   3.183   5.960   1.645  0.4551  0.2560 -0.2037
   23DPPC    C6 1106   3.036   5.972   1.603  0.2731  0.4061  0.4610
   23DPPC    O7 1107   3.027   6.101   1.543  0.2675  0.0843 -0.2402
   23DPPC    P8 1108   2.874   6.123   1.499  0.1387 -0.1962  0.0669
   23DPPC    O9 1109   2.859   6.268   1.470 -0.0026 -0.1908  0.1641
   23DPPC   O10 1110   2.825   6.019   1.406 -0.4009  0.5638 -0.5174
   23DPPC   O11 1111   2.800   6.094   1.639 -0.4256 -0.4708 -0.2823
   23DPPC   C12 1112   2.770   6.216   1.707 -0.5752 -0.3629 -0.5436
   23DPPC   C13 1113   2.775   6.211   1.860  0.2054 -0.3770 -0.5656
   23DPPC   O14 1114   2.906   6.194   1.916 -0.0093 -0.0346  0.0476
   23DPPC   C15 1115   2.992   6.299   1.915  0.0340 -0.0708 -0.0524
   23DPPC   O16 1116   2.955   6.414   1.892  0.0655 -0.2004 -0.7583
   23DPPC   C17 1117   3.131   6.267   1.971  0.1558  0.4807 -0.0321
   23DPPC   C18 1118   3.172   6.338   2.100 -0.2995  0.0291  0.3647
   23DPPC   C19 1119   3.291   6.265   2.164 -0.0711  0.2999  0.2521
   23DPPC   C20 1120   3.313   6.303   2.311 -0.4232  0.1222  0.3528
   23DPPC   C21 1121   3.443   6.233   2.349 -0.2963  0.2925  0.2346
   23DPPC   C22 1122   3.442   6.260   2.500 -0.4113 -0.0220  0.2902
   23DPPC   C23 1123   3.473   6.407   2.529  0.2933 -0.3220  1.0947
   23DPPC   C24 1124   3.603   6.457   2.465 -0.2081 -0.0475  0.2742
   23DPPC   C25 1125   3.620   6.597   2.525  0.2615 -0.0217  0.0814
   23DPPC   C26 1126   3.754   6.660   2.483  0.4321 -0.4744 -0.0556
   23DPPC   C27 1127   3.776   6.800   2.539 -0.0244 -0.3404 -0.2007
   23DPPC   C28 1128   3.907   6.854   2.481  0.2299 -0.4867  0.2321
   23DPPC   C29 1129   3.920   7.007   2.477  0.3887 -0.5073 -0.1435
   23DPPC   C30 1130   4.050   7.049   2.409  0.3413 -0.1018  0.0112
   23DPPC   C31 1131   4.068   7.198   2.383  0.7787 -0.1562 -0.0019
   23DPPC   C32 1132   2.654   6.128   1.905  0.3094 -0.3583 -0.2545
   23DPPC   O33 1133   2.529   6.192   1.880  0.0438 -0.4809  0.7258
   23DPPC   C34 1134   2.408   6.129   1.885 -0.3745  0.2783  0.3292
   23DPPC   O35 1135   2.408   6.007   1.867  0.0065  0.2836  0.2758
   23DPPC   C36 1136   2.290   6.226   1.886 -0.4358  0.2072  0.1165
   23DPPC   C37 1137   2.199   6.168   1.994  0.2552  0.1797  0.7004
   23DPPC   C38 1138   2.069   6.248   1.993  0.2340  0.1473  0.1340
   23DPPC   C39 1139   1.991   6.200   2.116  0.1628 -0.3263 -0.0937
   23DPPC   C40 1140   1.875   6.291   2.158  0.4427 -0.3053  0.6592
   23DPPC   C41 1141   1.801   6.213   2.267  0.4709 -0.8301  0.3090
   23DPPC   C42 1142   1.722   6.094   2.213 -0.1635 -0.2212 -0.1234
   23DPPC   C43 1143   1.652   6.005   2.315  0.0714 -0.2161  0.0442
   23DPPC   C44 1144   1.557   5.912   2.238  0.2867 -0.4325  0.0389
   23DPPC   C45 1145   1.489   5.815   2.336 -0.4870 -0.0231 -0.0871
   23DPPC   C46 1146   1.393   5.875   2.439 -0.1910  0.2091  0.0542
   23DPPC   C47 1147   1.366   5.787   2.561  0.0526  0.0591  0.0014
   23DPPC   C48 1148   1.495   5.736   2.625 -0.0499  0.3851  0.4671
   23DPPC   C49 1149   1.484   5.648   2.750  0.4547 -0.5901 -0.1688
   23DPPC   C50 1150   1.611   5.576   2.793  0.3279 -0.2918  0.7182
   24DPPC    C1 1151   2.956   0.921   1.550 -0.2677  0.4565  0.0695
   24DPPC    C2 1152   2.771   0.955   1.399  0.0828  0.1126 -0.1648
   24DPPC    C3 1153   2.985   0.932   1.321 -0.1748  0.3285 -0.4947
   24DPPC    N4 1154   2.894   0.878   1.424  0.2215  0.3450 -0.1356
   24DPPC    C5 1155   2.875   0.733   1.409  0.3402  0.3242 -0.0905
   24DPPC    C6 1156   2.774   0.669   1.504  0.1871  0.2341 -0.3121
   24DPPC    O7 1157   2.767   0.526   1.504 -0.2402  0.2456  0.4405
   24DPPC    P8 1158   2.612   0.489   1.478 -0.0739 -0.1941  0.0575
   24DPPC    O9 1159   2.566   0.566   1.360 -0.2319 -0.4115 -0.0236
   24DPPC   O10 1160   2.601   0.342   1.483  0.6789 -0.2420  0.4743
   24DPPC   O11 1161   2.547   0.541   1.616  0.1722  0.0805  0.0719
   24DPPC   C12 1162   2.570   0.447   1.721  0.6793 -0.1851 -0.2709
   24DPPC   C13 1163   2.550   0.503   1.862 -0.5175 -0.6411 -0.2481
   24DPPC   O14 1164   2.557   0.416   1.976 -0.0680  0.1474  0.3373
   24DPPC   C15 1165   2.478   0.306   1.979  0.3963 -0.1929  0.0870
   24DPPC   O16 1166   2.434   0.251   1.878 -0.6122  0.1220  0.3481
   24DPPC   C17 1167   2.483   0.226   2.110  0.1630 -0.1442  0.1254
   24DPPC   C18 1168   2.626   0.177   2.130  0.0300 -0.5664  0.0418
   24DPPC   C19 1169   2.651   0.122   2.271 -0.5769 -0.5781  0.1488
   24DPPC   C20 1170   2.602   0.217   2.380  0.3273  0.3392 -0.2255
   24DPPC   C21 1171   2.638   0.150   2.512  0.3199 -0.0552 -0.4209
   24DPPC   C22 1172   2.569   0.201   2.639 -0.4284 -0.5722 -0.6204
   24DPPC   C23 1173   2.613   0.144   2.774 -0.0600  0.3817 -0.3323
   24DPPC   C24 1174   2.506   0.176   2.879 -0.2776 -0.1597 -0.3877
   24DPPC   C25 1175   2.545   0.099   3.005 -0.0769  0.0209 -0.3400
   24DPPC   C26 1176   2.436   0.118   3.111  0.2170 -0.1677 -0.0020
   24DPPC   C27 1177   2.463   0.043   3.242  0.0285  0.7990  0.6021
   24DPPC   C28 1178   2.591   0.097   3.306  0.6062 -0.0831  0.2152
   24DPPC   C29 1179   2.639   0.009   3.421  0.0847 -0.5838  0.0537
   24DPPC   C30 1180   2.527  -0.011   3.524 -0.2383 -0.5593 -0.2919
   24DPPC   C31 1181   2.571  -0.103   3.638 -0.3944 -0.0045  0.2169
   24DPPC   C32 1182   2.421   0.586   1.858  0.0196  0.1974 -0.3545
   24DPPC   O33 1183   2.372   0.633   1.984  0.4931  0.5143 -0.2831
   24DPPC   C34 1184   2.458   0.713   2.052  0.0516  0.8024 -0.0640
   24DPPC   O35 1185   2.560   0.761   2.003  0.1988 -0.2482 -0.8104
   24DPPC   C36 1186   2.427   0.724   2.202 -0.0208  0.5614 -0.0610
   24DPPC   C37 1187   2.377   0.586   2.245  0.0965  0.5166 -0.0702
   24DPPC   C38 1188   2.365   0.588   2.397  0.4151 -0.1981 -0.0288
   24DPPC   C39 1189   2.496   0.639   2.458  0.6600 -0.0196 -0.7000
   24DPPC   C40 1190   2.476   0.669   2.607 -0.0166  0.9741 -0.9737
   24DPPC   C41 1191   2.611   0.690   2.677 -0.2209 -0.1300 -0.2180
   24DPPC   C42 1192   2.680   0.560   2.720 -0.1572  0.1966  0.6860
   24DPPC   C43 1193   2.804   0.576   2.808  0.2677 -0.3084  0.1889
   24DPPC   C44 1194   2.911   0.642   2.721  0.0921 -0.2440  0.0201
   24DPPC   C45 1195   3.028   0.691   2.807  0.1033 -0.0846 -0.0842
   24DPPC   C46 1196   3.136   0.750   2.717 -0.2286  0.1665 -0.3200
   24DPPC   C47 1197   3.218   0.844   2.805 -0.5720  0.2297 -0.0638
   24DPPC   C48 1198   3.234   0.761   2.933  0.4766 -0.0800 -0.3769
   24DPPC   C49 1199   3.325   0.849   3.019 -0.3880  0.2149  0.2527
   24DPPC   C50 1200   3.361   0.762   3.139  0.3271  0.5227  0.2630
   25DPPC    C1 1201   3.923   4.427   1.143  0.0814 -0.2948 -1.0065
   25DPPC    C2 1202   3.752   4.266   1.120  0.9519 -0.2106 -0.3704
   25DPPC    C3 1203   3.792   4.423   0.942  0.4496  0.2444  0.0943
   25DPPC    N4 1204   3.788   4.405   1.087 -0.4777  0.2920  0.0808
   25DPPC    C5 1205   3.680   4.502   1.108 -0.7817 -0.0605  0.1676
   25DPPC    C6 1206   3.651   4.550   1.250 -0.0743 -0.1818  0.3576
   25DPPC    O7 1207   3.762   4.606   1.321  0.2215  0.2193 -0.4111
   25DPPC    P8 1208   3.738   4.750   1.390  0.2504  0.1176 -0.1897
   25DPPC    O9 1209   3.746   4.832   1.267 -0.4563 -0.2351 -0.4782
   25DPPC   O10 1210   3.614   4.746   1.470  0.2650  0.0371 -0.1711
   25DPPC   O11 1211   3.871   4.740   1.480  0.4007  0.4721 -0.3691
   25DPPC   C12 1212   3.847   4.649   1.589  0.4046  0.4796 -0.3619
   25DPPC   C13 1213   3.966   4.561   1.627  0.2119  0.3090 -0.1562
   25DPPC   O14 1214   3.934   4.472   1.734  0.6071  0.0154 -0.2775
   25DPPC   C15 1215   3.992   4.349   1.743  0.1849 -0.1443  0.3591
   25DPPC   O16 1216   4.065   4.303   1.655 -0.6866 -0.7652 -0.0640
   25DPPC   C17 1217   3.926   4.251   1.841 -0.2166 -0.0311  0.2068
   25DPPC   C18 1218   3.965   4.302   1.980  0.1790 -0.0911  0.1219
   25DPPC   C19 1219   4.072   4.215   2.046  0.1006 -0.2202  0.0794
   25DPPC   C20 1220   4.077   4.246   2.195 -0.0112 -0.4828  0.1386
   25DPPC   C21 1221   3.934   4.254   2.250 -0.0034 -0.2436  0.1280
   25DPPC   C22 1222   3.949   4.280   2.400  0.1027  0.1974  0.0416
   25DPPC   C23 1223   3.812   4.301   2.465  0.2524  0.3254  0.3178
   25DPPC   C24 1224   3.818   4.317   2.617  0.1260  0.4110  0.3138
   25DPPC   C25 1225   3.675   4.325   2.671 -0.1475 -0.0588 -0.3340
   25DPPC   C26 1226   3.672   4.366   2.818  0.2449  0.6234 -0.5136
   25DPPC   C27 1227   3.527   4.382   2.865  0.2205 -0.4309 -0.2088
   25DPPC   C28 1228   3.543   4.404   3.016  0.3976  0.5137 -0.3613
   25DPPC   C29 1229   3.402   4.399   3.076  0.6680 -0.8113  0.1959
   25DPPC   C30 1230   3.393   4.451   3.219  0.1105 -0.3987  0.0157
   25DPPC   C31 1231   3.246   4.427   3.256 -0.0520  0.1549 -0.2637
   25DPPC   C32 1232   4.086   4.651   1.655  0.4817 -0.0908 -0.0126
   25DPPC   O33 1233   4.054   4.751   1.752  0.4198 -0.2246  0.1048
   25DPPC   C34 1234   4.146   4.842   1.793 -0.1399  0.3946  0.0085
   25DPPC   O35 1235   4.241   4.857   1.716 -0.1369  0.4353  0.0201
   25DPPC   C36 1236   4.106   4.944   1.900  0.1112 -0.0605  0.5417
   25DPPC   C37 1237   4.213   4.997   1.996  0.5728 -0.1173  0.0633
   25DPPC   C38 1238   4.139   5.069   2.109  0.0846 -0.2533 -0.1658
   25DPPC   C39 1239   4.223   5.066   2.237  0.2862  0.6215 -0.2702
   25DPPC   C40 1240   4.156   5.126   2.362 -0.0115 -0.6009  0.1704
   25DPPC   C41 1241   4.247   5.122   2.485  0.6011  1.0368 -0.2093
   25DPPC   C42 1242   4.180   5.191   2.604  0.7458  0.6319  0.1097
   25DPPC   C43 1243   4.251   5.181   2.739 -0.2653 -0.1424  0.5896
   25DPPC   C44 1244   4.269   5.036   2.786 -0.1221 -0.1328  0.5660
   25DPPC   C45 1245   4.350   5.031   2.916  0.3331 -0.0799  0.2843
   25DPPC   C46 1246   4.386   4.887   2.951  0.2844 -0.1011  0.2461
   25DPPC   C47 1247   4.459   4.804   2.845  0.0858 -0.7612  0.6189
   25DPPC   C48 1248   4.498   4.665   2.895  0.1157 -0.7692  0.5728
   25DPPC   C49 1249   4.563   4.586   2.781  0.6212 -0.4971  0.6664
   25DPPC   C50 1250   4.588   4.445   2.835  1.2301 -0.6105  0.0937
   26DPPC    C1 1251   2.965   0.224   1.366  0.2020 -0.0824 -0.0675
   26DPPC    C2 1252   3.115   0.361   1.467 -0.0332 -0.3141 -0.4041
   26DPPC    C3 1253   2.934   0.255   1.596 -0.3746 -0.6396 -0.5821
   26DPPC    N4 1254   3.038   0.239   1.493  0.2099 -0.3921 -0.0360
   26DPPC    C5 1255   3.105   0.112   1.527  0.1655 -0.5667 -0.5899
   26DPPC    C6 1256   3.211   0.104   1.637 -0.4216 -0.3567 -0.0035
   26DPPC    O7 1257   3.294  -0.011   1.655 -0.2366 -0.3180 -0.5818
   26DPPC    P8 1258   3.441   0.032   1.607 -0.2624  0.1072 -0.2850
   26DPPC    O9 1259   3.518  -0.094   1.599 -0.4262 -0.0062 -0.0738
   26DPPC   O10 1260   3.423   0.131   1.499  0.6256  0.5312 -0.0571
   26DPPC   O11 1261   3.490   0.111   1.739 -0.2314 -0.1285 -0.1552
   26DPPC   C12 1262   3.489   0.009   1.840 -0.7037  0.3225  0.3000
   26DPPC   C13 1263   3.625  -0.006   1.907 -0.3672 -0.0850 -0.4508
   26DPPC   O14 1264   3.617  -0.106   2.010 -0.5919  0.3553 -0.0344
   26DPPC   C15 1265   3.722  -0.191   2.026 -0.7983  0.0157 -0.4780
   26DPPC   O16 1266   3.796  -0.210   1.929  0.0351 -0.2152  0.1933
   26DPPC   C17 1267   3.694  -0.300   2.130 -0.1463  0.3908  0.0988
   26DPPC   C18 1268   3.810  -0.301   2.229  0.1401 -0.4190 -0.2352
   26DPPC   C19 1269   3.784  -0.335   2.376  0.3122 -0.1305 -0.1356
   26DPPC   C20 1270   3.923  -0.308   2.435  0.4548 -0.0501 -0.5051
   26DPPC   C21 1271   3.921  -0.323   2.587 -0.1783  0.0864 -0.4940
   26DPPC   C22 1272   3.862  -0.452   2.644 -0.1850  0.2630 -0.0974
   26DPPC   C23 1273   3.869  -0.462   2.797 -0.5033  0.1416 -0.0885
   26DPPC   C24 1274   3.799  -0.594   2.827  0.0949 -0.2428 -0.3467
   26DPPC   C25 1275   3.860  -0.672   2.943 -0.2886  0.3310  0.2510
   26DPPC   C26 1276   3.872  -0.587   3.070 -0.1652  0.6704  0.0133
   26DPPC   C27 1277   3.931  -0.688   3.169  0.4447  0.7162 -0.2966
   26DPPC   C28 1278   3.836  -0.803   3.204  0.4569  0.7429 -0.1760
   26DPPC   C29 1279   3.901  -0.895   3.307 -0.0039 -0.0558 -0.5880
   26DPPC   C30 1280   3.803  -1.011   3.323 -0.5264  0.4425 -0.0926
   26DPPC   C31 1281   3.865  -1.132   3.393 -0.2146  0.2933 -0.6178
   26DPPC   C32 1282   3.636   0.136   1.965  0.1622 -0.4259  0.2991
   26DPPC   O33 1283   3.522   0.163   2.047  0.2106 -0.2526  0.3083
   26DPPC   C34 1284   3.501   0.290   2.093 -0.0601  0.0728 -0.6933
   26DPPC   O35 1285   3.585   0.376   2.067  0.0844  0.1785  0.0966
   26DPPC   C36 1286   3.362   0.316   2.151  0.1117  0.3278 -0.3944
   26DPPC   C37 1287   3.339   0.467   2.164 -0.7018  0.2353 -0.7501
   26DPPC   C38 1288   3.407   0.502   2.296 -0.4354 -0.3818 -0.7196
   26DPPC   C39 1289   3.432   0.653   2.296  0.3846 -0.5038  0.1918
   26DPPC   C40 1290   3.494   0.707   2.425  0.4016 -0.0633  0.0017
   26DPPC   C41 1291   3.534   0.852   2.402 -0.1499  0.0625 -0.1786
   26DPPC   C42 1292   3.541   0.931   2.533  0.0621 -0.5809  0.1983
   26DPPC   C43 1293   3.632   1.052   2.511 -0.6073  0.0524  0.8701
   26DPPC   C44 1294   3.712   1.093   2.634 -0.1642  0.7207  0.3652
   26DPPC   C45 1295   3.626   1.154   2.746 -0.0606  0.0592  0.8111
   26DPPC   C46 1296   3.717   1.187   2.864  0.2025 -0.1767  0.6767
   26DPPC   C47 1297   3.741   1.088   2.977 -0.2699 -0.7096  0.3116
   26DPPC   C48 1298   3.836   1.152   3.079  0.4762 -0.3138 -0.6204
   26DPPC   C49 1299   3.855   1.059   3.199 -0.2486  0.1617 -0.1293
   26DPPC   C50 1300   3.958   1.120   3.294 -0.1566  0.4431 -0.4082
   27DPPC    C1 1301   3.572   0.445   1.521 -0.2387 -0.7024 -0.5675
   27DPPC    C2 1302   3.706   0.381   1.696 -0.4413  0.3850 -0.0992
   27DPPC    C3 1303   3.515   0.507   1.748  0.3228 -0.2841 -0.2030
   27DPPC    N4 1304   3.623   0.493   1.650 -0.2373  0.2122 -0.9017
   27DPPC    C5 1305   3.708   0.612   1.648 -0.3719  0.3484  0.3875
   27DPPC    C6 1306   3.664   0.725   1.554  0.0514  0.4861  0.3510
   27DPPC    O7 1307   3.523   0.745   1.573  0.0109  0.1744  0.3831
   27DPPC    P8 1308   3.469   0.892   1.536 -0.0255  0.1079  0.1704
   27DPPC    O9 1309   3.568   0.943   1.438  0.1712 -0.5690  0.0119
   27DPPC   O10 1310   3.326   0.864   1.507  0.0599  0.3676 -0.5425
   27DPPC   O11 1311   3.509   0.958   1.677  0.1279 -0.0751  0.2129
   27DPPC   C12 1312   3.398   0.946   1.766  0.0204 -0.2030  0.0613
   27DPPC   C13 1313   3.415   0.835   1.870 -0.3651 -0.3819 -0.0613
   27DPPC   O14 1314   3.310   0.830   1.967 -0.1792  0.0668  0.1660
   27DPPC   C15 1315   3.206   0.743   1.956  0.3021 -0.5309  0.2891
   27DPPC   O16 1316   3.202   0.671   1.857 -0.4946  0.4873 -0.4394
   27DPPC   C17 1317   3.089   0.739   2.055 -0.5891  0.6186 -0.6846
   27DPPC   C18 1318   2.968   0.674   1.988 -0.6820  0.0982 -0.0228
   27DPPC   C19 1319   2.852   0.699   2.084 -0.5062 -0.0802  0.2368
   27DPPC   C20 1320   2.888   0.662   2.229  0.0730 -0.3084  0.0394
   27DPPC   C21 1321   2.907   0.512   2.248 -0.1660 -0.3429  0.0146
   27DPPC   C22 1322   2.971   0.491   2.386  0.2752  0.6213 -0.0384
   27DPPC   C23 1323   2.992   0.342   2.411 -0.2282  0.5920  0.2272
   27DPPC   C24 1324   3.065   0.322   2.544 -0.4643  0.0973  0.2859
   27DPPC   C25 1325   3.088   0.172   2.561  0.4882  0.2114  0.1089
   27DPPC   C26 1326   3.105   0.134   2.708  0.4683  0.2057  0.1097
   27DPPC   C27 1327   2.992   0.171   2.805  0.1484 -0.9244  0.1818
   27DPPC   C28 1328   3.048   0.160   2.947  0.4054 -0.1836  0.1430
   27DPPC   C29 1329   2.961   0.200   3.067 -0.0212 -0.0800 -0.2000
   27DPPC   C30 1330   3.027   0.167   3.201 -0.7777 -0.1400  0.1630
   27DPPC   C31 1331   2.948   0.232   3.315 -0.5780 -0.1495  0.3051
   27DPPC   C32 1332   3.553   0.842   1.935 -0.4293  0.2218  0.0170
   27DPPC   O33 1333   3.606   0.716   1.980  0.0810  0.2229 -0.5606
   27DPPC   C34 1334   3.722   0.747   2.045 -0.2127  0.6381 -0.2222
   27DPPC   O35 1335   3.777   0.856   2.030  0.2455  0.4489  0.0784
   27DPPC   C36 1336   3.790   0.632   2.119 -0.1302  0.4611 -0.5677
   27DPPC   C37 1337   3.908   0.584   2.034  0.0875  0.2718 -0.1630
   27DPPC   C38 1338   3.992   0.472   2.096  0.4789  0.3782 -0.5007
   27DPPC   C39 1339   3.933   0.331   2.087  0.0897  0.4795  0.3752
   27DPPC   C40 1340   3.996   0.256   2.205 -0.1245  0.2953  0.3719
   27DPPC   C41 1341   3.968   0.107   2.223  0.0916  0.2187  0.0887
   27DPPC   C42 1342   4.050   0.044   2.335 -0.2208  0.1891  0.3027
   27DPPC   C43 1343   4.194   0.015   2.291 -0.3771 -0.6263  0.3183
   27DPPC   C44 1344   4.264  -0.093   2.374  0.3259 -0.0097  0.5361
   27DPPC   C45 1345   4.395  -0.115   2.298  0.0670  0.1705  0.0357
   27DPPC   C46 1346   4.481   0.012   2.305  0.0106  0.2417 -0.5462
   27DPPC   C47 1347   4.625  -0.015   2.260  0.0165  0.3083 -0.5663
   27DPPC   C48 1348   4.693  -0.124   2.341 -0.4294  0.4255 -0.0284
   27DPPC   C49 1349   4.845  -0.134   2.327 -0.3700  0.2670  0.6621
   27DPPC   C50 1350   4.887  -0.266   2.393  0.1756  0.2388  0.2678
   28DPPC    C1 1351   4.319   3.907   0.763  0.8426 -0.4545 -0.5724
   28DPPC    C2 1352   4.368   3.681   0.801  0.2287  0.1784 -0.0094
   28DPPC    C3 1353   4.137   3.763   0.789 -0.5538  0.1607  0.2691
   28DPPC    N4 1354   4.274   3.788   0.836 -0.2301 -0.0452 -0.5487
   28DPPC    C5 1355   4.281   3.807   0.981 -0.5760 -0.4463 -0.4773
   28DPPC    C6 1356   4.180   3.896   1.055  0.3652 -0.2799  0.6403
   28DPPC    O7 1357   4.234   3.940   1.180  0.1846  0.1804  0.5582
   28DPPC    P8 1358   4.163   4.077   1.226 -0.2374  0.0673  0.2541
   28DPPC    O9 1359   4.248   4.153   1.320 -0.5055 -0.1828  0.6994
   28DPPC   O10 1360   4.103   4.146   1.110 -0.3572  0.4769  0.5593
   28DPPC   O11 1361   4.027   4.028   1.295 -0.1702  0.0369  0.3641
   28DPPC   C12 1362   3.978   4.133   1.380  0.4655  0.5668  0.0858
   28DPPC   C13 1363   3.843   4.102   1.446  0.2536  0.2208 -0.4940
   28DPPC   O14 1364   3.797   4.228   1.496  0.3686  0.1649 -0.2435
   28DPPC   C15 1365   3.669   4.271   1.480  0.2685  0.0791  0.3071
   28DPPC   O16 1366   3.597   4.234   1.387  0.7666  0.2647 -0.1608
   28DPPC   C17 1367   3.610   4.365   1.585 -0.4852  0.3085 -0.3143
   28DPPC   C18 1368   3.565   4.288   1.709  0.3995  0.3883  0.0597
   28DPPC   C19 1369   3.502   4.388   1.806  0.0321  0.4092 -0.2011
   28DPPC   C20 1370   3.462   4.320   1.937  0.4949  0.0755 -0.2296
   28DPPC   C21 1371   3.416   4.405   2.056  0.1447 -0.2186 -0.1531
   28DPPC   C22 1372   3.382   4.332   2.186 -0.2852  0.4132  0.0958
   28DPPC   C23 1373   3.305   4.418   2.285 -0.7272  0.0553  0.0658
   28DPPC   C24 1374   3.266   4.347   2.415 -0.0970 -0.5803 -0.0879
   28DPPC   C25 1375   3.227   4.468   2.500  0.3150 -0.1773 -0.4656
   28DPPC   C26 1376   3.141   4.418   2.617  0.2356  0.4936 -0.2296
   28DPPC   C27 1377   3.094   4.523   2.717 -0.6414  0.2354 -0.3624
   28DPPC   C28 1378   2.971   4.596   2.661 -0.4410  0.3862 -0.6103
   28DPPC   C29 1379   2.953   4.717   2.753  0.4956  0.2468 -0.2285
   28DPPC   C30 1380   2.899   4.664   2.886  0.4415  0.0336 -0.3353
   28DPPC   C31 1381   2.840   4.780   2.967  0.4356 -0.0725 -0.1870
   28DPPC   C32 1382   3.872   3.985   1.542 -0.0464  0.1734 -0.4605
   28DPPC   O33 1383   3.760   3.935   1.615  0.2905 -0.3000 -0.2619
   28DPPC   C34 1384   3.804   3.871   1.726  0.6391  0.6544  0.1654
   28DPPC   O35 1385   3.918   3.887   1.771  0.7324 -0.5344  0.3860
   28DPPC   C36 1386   3.694   3.825   1.822 -0.1292  0.4509 -0.8015
   28DPPC   C37 1387   3.654   3.933   1.923 -0.1104 -0.3135  0.0328
   28DPPC   C38 1388   3.528   3.899   2.003 -0.2747  0.2673  0.0306
   28DPPC   C39 1389   3.537   3.969   2.139 -0.3814 -0.1120  0.2350
   28DPPC   C40 1390   3.426   3.930   2.237 -0.4218  0.2576  0.3369
   28DPPC   C41 1391   3.438   4.007   2.369  0.8862  0.4059  0.1398
   28DPPC   C42 1392   3.367   3.936   2.484  0.4973  0.4007 -0.1023
   28DPPC   C43 1393   3.392   3.992   2.624 -0.4009  0.4341  0.0507
   28DPPC   C44 1394   3.369   3.899   2.743  0.7304 -0.5589 -0.4909
   28DPPC   C45 1395   3.430   3.947   2.875 -0.4076  0.5758 -0.3644
   28DPPC   C46 1396   3.424   3.820   2.960 -0.3194  0.6329 -0.2721
   28DPPC   C47 1397   3.495   3.848   3.092  0.0239 -0.0142 -0.3179
   28DPPC   C48 1398   3.449   3.974   3.165 -0.0937  0.0236 -0.4571
   28DPPC   C49 1399   3.566   4.025   3.251 -0.0293  0.0672 -0.5699
   28DPPC   C50 1400   3.523   4.145   3.336 -0.1483 -0.2766 -0.1426
   29DPPC    C1 1401   4.719   5.871   1.602 -0.4628  0.1033 -0.1487
   29DPPC    C2 1402   4.478   5.819   1.596 -0.5921  0.1345 -0.2430
   29DPPC    C3 1403   4.591   5.878   1.389 -0.4832  0.0343  0.4333
   29DPPC    N4 1404   4.606   5.819   1.523 -0.3624 -0.5827  0.1534
   29DPPC    C5 1405   4.643   5.680   1.495 -0.1154 -0.4558 -0.1535
   29DPPC    C6 1406   4.529   5.598   1.433 -0.1923 -0.1703 -0.3894
   29DPPC    O7 1407   4.576   5.471   1.389  0.1789 -0.2877  0.3235
   29DPPC    P8 1408   4.464   5.377   1.320  0.0576  0.0606  0.0427
   29DPPC    O9 1409   4.383   5.457   1.226 -0.0107  0.1241  0.1540
   29DPPC   O10 1410   4.543   5.263   1.269 -0.0180  0.1492 -0.2749
   29DPPC   O11 1411   4.387   5.348   1.459 -0.4404 -0.0647 -0.2603
   29DPPC   C12 1412   4.461   5.254   1.537 -0.5280 -0.0529 -0.1624
   29DPPC   C13 1413   4.442   5.277   1.686  0.2490  0.5676 -0.1502
   29DPPC   O14 1414   4.509   5.175   1.761 -0.1733  0.1122 -0.3911
   29DPPC   C15 1415   4.643   5.161   1.775 -0.2237  0.3482  0.3758
   29DPPC   O16 1416   4.720   5.252   1.744 -0.0331  0.3417  0.8194
   29DPPC   C17 1417   4.677   5.033   1.851  0.2723  0.2077 -0.0745
   29DPPC   C18 1418   4.694   5.062   2.000 -0.4351  0.1314  0.0250
   29DPPC   C19 1419   4.754   4.938   2.068 -0.0492  0.2555 -0.0848
   29DPPC   C20 1420   4.767   4.976   2.216 -0.3065  0.2881 -0.0699
   29DPPC   C21 1421   4.897   4.916   2.270 -0.3200 -0.1437 -0.5100
   29DPPC   C22 1422   4.864   4.867   2.411  0.5205  0.1467 -0.2046
   29DPPC   C23 1423   4.981   4.793   2.475  0.4979  0.0491 -0.2761
   29DPPC   C24 1424   4.944   4.743   2.615  0.6419 -0.2734 -0.3501
   29DPPC   C25 1425   5.052   4.665   2.690  0.2079 -0.0404  0.5347
   29DPPC   C26 1426   4.971   4.593   2.798 -0.1726 -0.7069 -0.1814
   29DPPC   C27 1427   5.061   4.501   2.882  0.1962  0.2016  0.4266
   29DPPC   C28 1428   4.989   4.446   3.005 -0.1157  0.3606  0.3178
   29DPPC   C29 1429   5.097   4.441   3.114  0.3563 -0.3565 -0.1768
   29DPPC   C30 1430   5.048   4.343   3.220  0.0438  0.2469  0.2415
   29DPPC   C31 1431   4.913   4.379   3.281  0.0634  0.3297  0.2351
   29DPPC   C32 1432   4.291   5.280   1.712  0.0963 -0.0385 -0.9407
   29DPPC   O33 1433   4.247   5.352   1.828  0.1213 -0.0554 -0.9207
   29DPPC   C34 1434   4.259   5.487   1.836  0.1744 -0.1167  0.1764
   29DPPC   O35 1435   4.291   5.551   1.736  0.0952  0.2496  0.3835
   29DPPC   C36 1436   4.199   5.554   1.960 -0.1050 -0.2684  0.1222
   29DPPC   C37 1437   4.050   5.517   1.971 -0.2037  0.2135  0.4150
   29DPPC   C38 1438   3.998   5.577   2.102  0.2010  0.0562  0.6489
   29DPPC   C39 1439   4.076   5.523   2.222  0.7420  0.2215  0.3786
   29DPPC   C40 1440   4.049   5.596   2.354  0.1512  0.1706  0.2883
   29DPPC   C41 1441   4.148   5.548   2.460  0.5021  0.3745  0.0554
   29DPPC   C42 1442   4.137   5.634   2.586 -0.1383 -0.0745  0.3145
   29DPPC   C43 1443   4.240   5.600   2.693  0.3349 -0.3143 -0.2136
   29DPPC   C44 1444   4.200   5.673   2.821  0.1118 -0.6241 -0.1050
   29DPPC   C45 1445   4.288   5.633   2.939 -0.0825 -0.2794  0.1574
   29DPPC   C46 1446   4.277   5.482   2.963 -0.0096 -0.2959  0.0855
   29DPPC   C47 1447   4.292   5.444   3.110 -0.1651  0.1092  0.2084
   29DPPC   C48 1448   4.271   5.293   3.127  0.3629  0.0195  0.0927
   29DPPC   C49 1449   4.309   5.255   3.271  0.7375  0.0865  0.0125
   29DPPC   C50 1450   4.305   5.105   3.298 -0.6777  0.0902 -0.0762
   30DPPC    C1 1451   3.920   5.604   1.626 -0.3226  0.0191 -0.3886
   30DPPC    C2 1452   3.807   5.812   1.632  0.1420 -0.0293  0.3389
   30DPPC    C3 1453   3.855   5.719   1.432  0.2669 -0.0193 -0.1425
   30DPPC    N4 1454   3.914   5.738   1.565  0.0363  0.1834 -0.0673
   30DPPC    C5 1455   4.048   5.798   1.581 -0.0871  0.4309  0.0436
   30DPPC    C6 1456   4.092   5.906   1.482  0.2691  0.1843 -0.0706
   30DPPC    O7 1457   4.216   5.959   1.527  0.4583 -0.1419 -0.2062
   30DPPC    P8 1458   4.202   6.111   1.474  0.3492 -0.0708  0.0278
   30DPPC    O9 1459   4.333   6.169   1.435  0.3950  0.2506  0.6451
   30DPPC   O10 1460   4.076   6.145   1.406  0.3716 -0.0989 -0.0275
   30DPPC   O11 1461   4.172   6.148   1.628  0.1556  0.0717 -0.0434
   30DPPC   C12 1462   4.274   6.205   1.711  0.0498  0.1903  0.0045
   30DPPC   C13 1463   4.230   6.262   1.846 -0.8618  0.3231 -0.3410
   30DPPC   O14 1464   4.311   6.367   1.902 -0.0513 -0.0082 -0.8750
   30DPPC   C15 1465   4.290   6.496   1.865 -0.0730  0.2799  0.1066
   30DPPC   O16 1466   4.191   6.529   1.800 -0.1425 -0.0139  0.0617
   30DPPC   C17 1467   4.383   6.609   1.909 -0.2469  0.8296 -0.8910
   30DPPC   C18 1468   4.349   6.667   2.047  0.3577 -0.3018 -0.2445
   30DPPC   C19 1469   4.452   6.766   2.102  0.0376 -0.0761 -0.0493
   30DPPC   C20 1470   4.390   6.791   2.240 -0.4799 -0.2333 -0.2488
   30DPPC   C21 1471   4.390   6.661   2.320  0.2831 -0.0226  0.1098
   30DPPC   C22 1472   4.331   6.690   2.459 -0.1627 -0.2261 -0.0333
   30DPPC   C23 1473   4.360   6.575   2.556  0.7394 -0.1863 -0.2458
   30DPPC   C24 1474   4.292   6.604   2.689  0.7803 -0.1406 -0.2349
   30DPPC   C25 1475   4.142   6.606   2.660  0.6565  0.1553  0.4046
   30DPPC   C26 1476   4.064   6.633   2.789  0.0548  0.2802  0.0183
   30DPPC   C27 1477   4.072   6.511   2.881 -0.0504 -0.0618 -0.4211
   30DPPC   C28 1478   3.999   6.539   3.013  0.2553 -0.1425 -0.2339
   30DPPC   C29 1479   4.040   6.469   3.142  0.2633  0.6135  0.1812
   30DPPC   C30 1480   3.953   6.497   3.265 -0.1077 -0.0740  0.0810
   30DPPC   C31 1481   4.005   6.439   3.396  0.9318 -0.2454 -0.3967
   30DPPC   C32 1482   4.208   6.147   1.944 -0.1825  0.3394 -0.1652
   30DPPC   O33 1483   4.323   6.065   1.965 -0.4060 -0.0031 -0.2802
   30DPPC   C34 1484   4.289   5.956   2.039  0.1226  0.1351  0.1663
   30DPPC   O35 1485   4.177   5.933   2.084 -0.0785  0.0367 -0.3798
   30DPPC   C36 1486   4.399   5.851   2.054 -0.3162 -0.3214  0.1993
   30DPPC   C37 1487   4.498   5.876   2.168  0.0005 -1.1140  0.1097
   30DPPC   C38 1488   4.573   5.743   2.177  0.9737 -0.6125 -0.4401
   30DPPC   C39 1489   4.678   5.756   2.287  0.5253 -0.1542 -0.0615
   30DPPC   C40 1490   4.605   5.767   2.421  0.4565  0.2583 -0.1308
   30DPPC   C41 1491   4.693   5.803   2.541  0.4610 -0.5221  0.1031
   30DPPC   C42 1492   4.607   5.831   2.665 -0.0528  0.0152 -0.3684
   30DPPC   C43 1493   4.699   5.859   2.784  0.0862 -0.2320 -0.4161
   30DPPC   C44 1494   4.789   5.978   2.747 -0.6036  0.5859  0.4894
   30DPPC   C45 1495   4.906   5.985   2.846  0.3189 -0.0954 -0.5240
   30DPPC   C46 1496   5.005   6.097   2.810  0.1111  0.2502 -0.0382
   30DPPC   C47 1497   5.124   6.090   2.906  0.0487 -0.0800  0.0173
   30DPPC   C48 1498   5.220   5.976   2.872 -0.1654 -0.4404  0.5974
   30DPPC   C49 1499   5.319   5.944   2.984  0.6757  0.1991  0.0540
   30DPPC   C50 1500   5.239   5.908   3.110  0.1022  0.6207 -0.1809
   31DPPC    C1 1501   4.564   0.994   1.741 -0.6011  0.3625  0.7289
   31DPPC    C2 1502   4.530   0.760   1.670  0.8509  0.4540  0.7768
   31DPPC    C3 1503   4.361   0.923   1.652 -0.0691  0.2447 -0.0421
   31DPPC    N4 1504   4.506   0.902   1.642 -0.0305  0.2552  0.4881
   31DPPC    C5 1505   4.570   0.928   1.513 -0.3393  0.5753  0.3959
   31DPPC    C6 1506   4.548   1.052   1.426  0.2856  0.2024 -0.3144
   31DPPC    O7 1507   4.418   1.051   1.368 -0.2046 -0.1125  0.7616
   31DPPC    P8 1508   4.375   1.201   1.328 -0.1048 -0.3031 -0.0806
   31DPPC    O9 1509   4.453   1.249   1.211  0.4096  0.1173  0.4254
   31DPPC   O10 1510   4.228   1.206   1.312 -0.1192 -0.3802  0.0272
   31DPPC   O11 1511   4.407   1.276   1.467 -0.7754  0.4405 -0.3202
   31DPPC   C12 1512   4.287   1.285   1.544 -0.6846 -0.2961 -0.0858
   31DPPC   C13 1513   4.317   1.315   1.691 -0.3378 -0.4233 -0.1312
   31DPPC   O14 1514   4.215   1.318   1.792 -0.5559 -0.0015 -0.3590
   31DPPC   C15 1515   4.183   1.198   1.846  0.2262  0.1141  0.3872
   31DPPC   O16 1516   4.262   1.107   1.867  0.1455  0.1049  0.6558
   31DPPC   C17 1517   4.060   1.210   1.937 -0.1444  0.1671 -0.1177
   31DPPC   C18 1518   4.061   1.322   2.042  0.4489  0.3796 -0.3453
   31DPPC   C19 1519   4.171   1.285   2.142 -0.2120  0.2644  0.3460
   31DPPC   C20 1520   4.132   1.336   2.281 -0.5822  0.2062  0.2646
   31DPPC   C21 1521   4.233   1.294   2.388  0.3784  0.4755 -0.5253
   31DPPC   C22 1522   4.209   1.359   2.524  0.0439  0.2325 -0.4682
   31DPPC   C23 1523   4.266   1.274   2.638  0.0579  1.0358  0.1361
   31DPPC   C24 1524   4.215   1.289   2.782  0.2253 -0.3062  0.3510
   31DPPC   C25 1525   4.212   1.166   2.873  0.1202 -0.6873 -0.1630
   31DPPC   C26 1526   4.126   1.059   2.805  0.4134 -0.8460 -0.2849
   31DPPC   C27 1527   4.107   0.938   2.896 -0.2291 -0.2483  0.3860
   31DPPC   C28 1528   4.035   0.815   2.842  0.6167 -0.4026 -0.4045
   31DPPC   C29 1529   3.998   0.714   2.951  0.6684 -0.1430 -0.1460
   31DPPC   C30 1530   3.883   0.624   2.905  0.5166 -0.1633  0.2711
   31DPPC   C31 1531   3.750   0.698   2.889  0.4116 -0.2120  0.8884
   31DPPC   C32 1532   4.404   1.442   1.687 -0.3977 -0.3810 -0.0745
   31DPPC   O33 1533   4.462   1.485   1.810 -0.4086 -0.8170  0.0876
   31DPPC   C34 1534   4.561   1.404   1.856 -0.2046 -0.3323  0.5102
   31DPPC   O35 1535   4.607   1.317   1.783  0.2224 -0.0999  0.5036
   31DPPC   C36 1536   4.626   1.446   1.988  0.2140 -0.2266  0.2704
   31DPPC   C37 1537   4.577   1.371   2.112 -0.3487  0.0709  0.2292
   31DPPC   C38 1538   4.657   1.432   2.228 -0.2444  0.5439 -0.0886
   31DPPC   C39 1539   4.806   1.430   2.193 -0.2745 -0.2578 -0.1913
   31DPPC   C40 1540   4.893   1.420   2.318 -0.0615  0.1849 -0.3027
   31DPPC   C41 1541   5.039   1.462   2.297 -0.0007  0.2391  0.2223
   31DPPC   C42 1542   5.052   1.605   2.246 -0.1354  0.2236  0.1455
   31DPPC   C43 1543   5.004   1.709   2.347 -0.3869  0.2160  0.0345
   31DPPC   C44 1544   5.095   1.706   2.470 -0.0100 -0.3760 -0.2617
   31DPPC   C45 1545   5.065   1.827   2.558  0.2594 -0.3129 -0.2538
   31DPPC   C46 1546   5.156   1.810   2.680 -0.7041 -0.2451  0.4874
   31DPPC   C47 1547   5.163   1.939   2.762 -0.3596 -0.0161  0.1004
   31DPPC   C48 1548   5.244   1.917   2.889  0.2470  0.2336 -0.2396
   31DPPC   C49 1549   5.165   1.831   2.988  0.2459  0.1797 -0.2877
   31DPPC   C50 1550   5.256   1.760   3.087  0.1894  0.2421 -0.1907
   32DPPC    C1 1551   1.961   4.211   1.734  0.2329 -0.2853  0.5226
   32DPPC    C2 1552   1.735   4.176   1.736  0.2231 -0.5068  0.7468
   32DPPC    C3 1553   1.827   4.388   1.806  0.0213  0.5154 -0.3679
   32DPPC    N4 1554   1.834   4.281   1.706  0.1209 -0.4390  0.6443
   32DPPC    C5 1555   1.841   4.314   1.563 -0.3523 -0.6884  0.5618
   32DPPC    C6 1556   1.719   4.392   1.513  0.0067 -0.1020  0.5834
   32DPPC    O7 1557   1.624   4.298   1.462 -0.1370 -0.0529  0.7576
   32DPPC    P8 1558   1.480   4.368   1.477 -0.1619  0.1027 -0.1623
   32DPPC    O9 1559   1.492   4.510   1.439 -0.6664  0.1288 -0.2330
   32DPPC   O10 1560   1.385   4.265   1.427 -0.1158  0.0608 -0.1632
   32DPPC   O11 1561   1.487   4.368   1.638  0.0522  0.2737 -0.1729
   32DPPC   C12 1562   1.354   4.396   1.682  0.0334  0.0339 -0.0773
   32DPPC   C13 1563   1.324   4.364   1.829  0.3895  0.4236  0.0846
   32DPPC   O14 1564   1.198   4.406   1.882  0.0871 -0.2437 -0.0928
   32DPPC   C15 1565   1.172   4.539   1.896  0.3257 -0.2312  0.2380
   32DPPC   O16 1566   1.245   4.627   1.850  0.3739 -0.3747  0.0404
   32DPPC   C17 1567   1.043   4.572   1.973  0.5002 -0.2654  0.5478
   32DPPC   C18 1568   1.080   4.600   2.118  0.1050 -0.2564  0.6462
   32DPPC   C19 1569   0.958   4.611   2.210 -0.1283  0.5735  0.2506
   32DPPC   C20 1570   0.865   4.490   2.194  0.4101  0.1627  0.2114
   32DPPC   C21 1571   0.741   4.498   2.283  0.3082  0.2189  0.0656
   32DPPC   C22 1572   0.627   4.464   2.186  0.2261  0.0756  0.2109
   32DPPC   C23 1573   0.507   4.518   2.263 -0.2139 -0.0824 -0.3606
   32DPPC   C24 1574   0.521   4.472   2.409 -0.5240 -0.1326 -0.3447
   32DPPC   C25 1575   0.413   4.544   2.489 -0.2293  0.2012 -0.2472
   32DPPC   C26 1576   0.445   4.543   2.639  0.7332 -0.3187 -0.4469
   32DPPC   C27 1577   0.565   4.627   2.684 -0.1707  0.6274  0.2455
   32DPPC   C28 1578   0.587   4.632   2.835  0.5560 -0.1308  0.1705
   32DPPC   C29 1579   0.624   4.505   2.913  0.0607 -0.4574 -0.1290
   32DPPC   C30 1580   0.655   4.525   3.061 -0.2227 -0.1275 -0.1126
   32DPPC   C31 1581   0.694   4.389   3.120  0.0087  0.1890  0.4656
   32DPPC   C32 1582   1.445   4.424   1.901  0.2772  1.0892 -0.2676
   32DPPC   O33 1583   1.486   4.346   2.014 -0.2366  0.6989 -0.3470
   32DPPC   C34 1584   1.570   4.418   2.092 -0.2279  0.2329  0.0772
   32DPPC   O35 1585   1.629   4.518   2.051  0.2415  0.0997  0.4177
   32DPPC   C36 1586   1.603   4.362   2.231 -0.1770  0.0912  0.0093
   32DPPC   C37 1587   1.611   4.476   2.333 -0.3730  0.1027  0.0131
   32DPPC   C38 1588   1.489   4.569   2.335 -0.3961  0.0729 -0.0100
   32DPPC   C39 1589   1.500   4.648   2.465 -0.0065 -0.3849  0.2366
   32DPPC   C40 1590   1.625   4.730   2.498 -0.4164  0.2436  0.2453
   32DPPC   C41 1591   1.638   4.780   2.642  0.4462 -0.0483  0.2736
   32DPPC   C42 1592   1.757   4.877   2.642  0.3723  0.0462 -0.0786
   32DPPC   C43 1593   1.710   5.022   2.645 -1.1306 -0.4175 -0.1124
   32DPPC   C44 1594   1.669   5.065   2.504  0.2216  0.3175 -0.2978
   32DPPC   C45 1595   1.646   5.214   2.477 -0.3905  0.1692 -0.6017
   32DPPC   C46 1596   1.778   5.284   2.508 -0.2341 -0.2034 -0.4110
   32DPPC   C47 1597   1.763   5.427   2.455  0.2134  0.0044  0.0167
   32DPPC   C48 1598   1.727   5.454   2.309 -0.1897 -0.0357  0.1066
   32DPPC   C49 1599   1.830   5.387   2.217 -0.0200  0.9236 -0.4129
   32DPPC   C50 1600   1.973   5.436   2.241  0.1557  0.2094  0.0389
   33DPPC    C1 1601   5.698   5.332   1.577 -0.0060 -0.6076 -0.5305
   33DPPC    C2 1602   5.850   5.328   1.767 -0.2151  0.4093  0.2202
   33DPPC    C3 1603   5.823   5.143   1.623 -0.2330  0.0057  0.0483
   33DPPC    N4 1604   5.750   5.253   1.689  0.0723  0.2209  0.0311
   33DPPC    C5 1605   5.640   5.211   1.777  0.2383 -0.3031 -0.0041
   33DPPC    C6 1606   5.518   5.129   1.735 -0.2244  0.2351  0.2663
   33DPPC    O7 1607   5.543   4.993   1.698  0.1583  0.3146  0.2244
   33DPPC    P8 1608   5.403   4.920   1.666  0.2224  0.0897  0.4497
   33DPPC    O9 1609   5.330   5.011   1.574 -0.0178 -0.3414  0.2151
   33DPPC   O10 1610   5.459   4.788   1.633 -0.5122 -0.0086 -0.4453
   33DPPC   O11 1611   5.343   4.933   1.815 -0.4239 -0.2172  0.2201
   33DPPC   C12 1612   5.362   4.802   1.868  0.2894 -0.1377  0.1693
   33DPPC   C13 1613   5.318   4.767   2.011  0.0434 -0.3554  0.0416
   33DPPC   O14 1614   5.182   4.732   2.039 -0.0312  0.1460  0.3144
   33DPPC   C15 1615   5.122   4.619   1.993  0.3117  0.2526 -0.4012
   33DPPC   O16 1616   5.172   4.560   1.897 -0.5313 -0.3575 -0.4741
   33DPPC   C17 1617   4.969   4.615   1.997  0.3317 -0.3403 -0.2729
   33DPPC   C18 1618   4.916   4.486   2.062 -0.0221 -0.3248 -0.5297
   33DPPC   C19 1619   4.779   4.506   2.127  0.4646  0.2081  0.3424
   33DPPC   C20 1620   4.721   4.369   2.163  0.2773  0.2638  0.2541
   33DPPC   C21 1621   4.588   4.387   2.236  0.5100  0.1859  0.7015
   33DPPC   C22 1622   4.578   4.276   2.341 -0.0411  0.1372  0.5985
   33DPPC   C23 1623   4.437   4.289   2.398 -0.3092  0.5214 -0.1352
   33DPPC   C24 1624   4.421   4.207   2.527 -0.0069  0.2834 -0.2482
   33DPPC   C25 1625   4.275   4.202   2.572  0.0679 -0.2287 -0.0620
   33DPPC   C26 1626   4.257   4.117   2.698  0.2295  0.2530  0.2870
   33DPPC   C27 1627   4.348   4.171   2.809  0.0913  0.0812  0.4846
   33DPPC   C28 1628   4.373   4.078   2.928  0.0971 -0.0807  0.3576
   33DPPC   C29 1629   4.491   4.132   3.009  0.1701  0.1415  0.1032
   33DPPC   C30 1630   4.511   4.027   3.118 -0.2733 -0.4139 -0.3426
   33DPPC   C31 1631   4.620   4.056   3.222 -0.2584 -0.0546 -0.4566
   33DPPC   C32 1632   5.344   4.904   2.073 -0.3964 -0.1314 -0.2647
   33DPPC   O33 1633   5.485   4.928   2.073 -0.3086 -0.6411 -0.2478
   33DPPC   C34 1634   5.529   5.050   2.113  0.0308 -0.6425 -0.6049
   33DPPC   O35 1635   5.465   5.150   2.082  0.5424 -0.1606 -0.1467
   33DPPC   C36 1636   5.676   5.059   2.155 -0.2287 -0.3127  0.2547
   33DPPC   C37 1637   5.695   5.015   2.301 -0.0398  0.0339  0.3375
   33DPPC   C38 1638   5.837   5.009   2.356  0.3281  0.3741 -0.5584
   33DPPC   C39 1639   5.841   4.969   2.503  0.6318  0.4602 -0.5435
   33DPPC   C40 1640   5.866   4.820   2.524 -0.2628  0.4025  0.2046
   33DPPC   C41 1641   5.857   4.790   2.673  0.4926  0.2293  0.2230
   33DPPC   C42 1642   5.867   4.643   2.714  0.3984  0.1332 -0.0947
   33DPPC   C43 1643   5.810   4.623   2.855  0.3114  0.1691 -0.1250
   33DPPC   C44 1644   5.852   4.481   2.893  0.4569  0.2582  0.0485
   33DPPC   C45 1645   5.812   4.375   2.789  0.0502  0.4660 -0.0067
   33DPPC   C46 1646   5.809   4.232   2.844  0.1754  0.5730  0.2832
   33DPPC   C47 1647   5.938   4.184   2.910  0.1885 -0.0383 -0.1836
   33DPPC   C48 1648   5.933   4.058   2.996  0.5149 -0.1460 -0.3210
   33DPPC   C49 1649   6.075   3.999   2.996  0.2677 -0.7558 -0.5540
   33DPPC   C50 1650   6.063   3.854   3.043 -0.4667 -0.3012  0.7064
   34DPPC    C1 1651   5.149   2.849   1.015  0.7786 -0.1755 -0.1489
   34DPPC    C2 1652   5.297   2.989   1.149  0.3346  0.2542  0.0563
   34DPPC    C3 1653   5.326   2.751   1.124  0.0169  0.2751  0.2934
   34DPPC    N4 1654   5.228   2.860   1.139  0.1048  0.3607  0.2412
   34DPPC    C5 1655   5.143   2.832   1.255 -0.0823 -0.2804 -0.0419
   34DPPC    C6 1656   5.046   2.943   1.297 -0.2955 -0.3840 -0.2605
   34DPPC    O7 1657   4.955   2.906   1.400  0.1633 -0.2267  0.2048
   34DPPC    P8 1658   4.935   3.025   1.507 -0.1308 -0.3155  0.2497
   34DPPC    O9 1659   5.012   3.146   1.473 -0.2753 -0.2150  0.2781
   34DPPC   O10 1660   4.796   3.013   1.559 -0.0925  0.0783  0.4447
   34DPPC   O11 1661   5.038   2.952   1.606  0.1742 -0.9503 -0.5230
   34DPPC   C12 1662   4.975   2.851   1.685 -0.2776 -0.1274  0.1897
   34DPPC   C13 1663   5.036   2.715   1.650  0.2191  0.2461 -0.4199
   34DPPC   O14 1664   4.968   2.604   1.711  0.7849 -0.1293 -0.4637
   34DPPC   C15 1665   4.883   2.522   1.642  0.0581 -0.1415  0.4383
   34DPPC   O16 1666   4.882   2.527   1.520  0.1904  0.4206  0.4583
   34DPPC   C17 1667   4.794   2.424   1.720 -0.2613 -0.1032  0.1225
   34DPPC   C18 1668   4.733   2.492   1.842  0.8038  0.4023  0.3930
   34DPPC   C19 1669   4.658   2.394   1.934 -0.4128  0.6978 -0.2653
   34DPPC   C20 1670   4.625   2.450   2.072  0.1927  0.3864  0.0096
   34DPPC   C21 1671   4.526   2.352   2.137  0.4009  0.2201  0.0766
   34DPPC   C22 1672   4.501   2.406   2.278  0.7867 -0.0956  0.2662
   34DPPC   C23 1673   4.374   2.343   2.336  0.3874  0.1519 -0.3275
   34DPPC   C24 1674   4.395   2.330   2.487 -0.2876 -0.8860 -0.3130
   34DPPC   C25 1675   4.280   2.275   2.572 -0.3060  0.6616  0.7128
   34DPPC   C26 1676   4.313   2.133   2.620  0.1604  0.5572  0.1052
   34DPPC   C27 1677   4.200   2.053   2.686  0.6230 -0.2113 -0.0186
   34DPPC   C28 1678   4.248   1.919   2.740  0.0988 -0.2229  0.4283
   34DPPC   C29 1679   4.125   1.843   2.793  0.2046 -0.7517 -0.0724
   34DPPC   C30 1680   4.155   1.696   2.820  0.0993 -0.6870  0.4002
   34DPPC   C31 1681   4.021   1.627   2.844 -0.3828 -0.1293 -0.6120
   34DPPC   C32 1682   5.181   2.735   1.693  0.1543 -0.1161 -0.0171
   34DPPC   O33 1683   5.206   2.750   1.833  0.0538 -0.7156  0.0638
   34DPPC   C34 1684   5.336   2.777   1.864 -0.3006  0.7005  0.3591
   34DPPC   O35 1685   5.420   2.791   1.776 -0.7352 -0.1482 -0.2029
   34DPPC   C36 1686   5.376   2.784   2.011  0.0812  0.4333  0.2672
   34DPPC   C37 1687   5.481   2.677   2.044 -0.1331  0.2682  0.4126
   34DPPC   C38 1688   5.533   2.665   2.187  0.4233  0.0745  0.1981
   34DPPC   C39 1689   5.589   2.798   2.235  0.3689 -0.0246  0.5382
   34DPPC   C40 1690   5.611   2.778   2.386 -0.0273 -0.2144  0.5698
   34DPPC   C41 1691   5.690   2.899   2.435  0.5268 -0.1660 -0.4143
   34DPPC   C42 1692   5.710   2.871   2.584  0.4998  0.3465 -0.3107
   34DPPC   C43 1693   5.574   2.860   2.652  0.4636 -0.1702 -0.4661
   34DPPC   C44 1694   5.582   2.827   2.801  0.3049 -0.1405 -0.4510
   34DPPC   C45 1695   5.445   2.792   2.860  0.4370 -0.8384 -0.5596
   34DPPC   C46 1696   5.440   2.764   3.010  0.0180 -0.0199 -0.4155
   34DPPC   C47 1697   5.298   2.725   3.051  0.1817 -0.4277 -0.2224
   34DPPC   C48 1698   5.253   2.721   3.197  0.1699  0.6095 -0.1880
   34DPPC   C49 1699   5.107   2.675   3.200  0.3139  0.1410 -0.2690
   34DPPC   C50 1700   5.060   2.695   3.345 -0.1467 -0.0115 -0.3954
   35DPPC    C1 1701   5.320   3.922   1.533  0.1222 -0.6240 -0.1661
   35DPPC    C2 1702   5.146   4.078   1.530 -0.2959 -0.0614  0.3005
   35DPPC    C3 1703   5.193   3.953   1.741  0.3936 -0.6379 -0.1655
   35DPPC    N4 1704   5.190   3.953   1.594  0.2393 -0.1175 -0.1649
   35DPPC    C5 1705   5.079   3.866   1.551 -0.0251 -0.3029  0.8573
   35DPPC    C6 1706   5.103   3.715   1.558  0.0427 -0.3808 -0.6111
   35DPPC    O7 1707   4.981   3.641   1.553 -0.1286 -0.0940 -0.7053
   35DPPC    P8 1708   5.012   3.487   1.519  0.0963 -0.1808 -0.1231
   35DPPC    O9 1709   4.883   3.448   1.456 -0.5288  0.0011  1.0050
   35DPPC   O10 1710   5.149   3.482   1.464 -0.0204  0.3298 -0.4624
   35DPPC   O11 1711   5.027   3.430   1.669 -0.5312  0.1249  0.0604
   35DPPC   C12 1712   4.901   3.459   1.731 -0.5490  0.2903 -0.0525
   35DPPC   C13 1713   4.915   3.447   1.882 -0.5034 -0.1381 -0.0901
   35DPPC   O14 1714   5.014   3.532   1.941 -0.5650  0.1997 -0.4754
   35DPPC   C15 1715   4.977   3.661   1.967  0.5034  0.5545 -0.6494
   35DPPC   O16 1716   4.889   3.717   1.902  0.1831  0.0848 -0.6275
   35DPPC   C17 1717   5.068   3.734   2.066  0.3928 -0.2447  0.0525
   35DPPC   C18 1718   5.162   3.644   2.147  0.4646 -0.4038 -0.2052
   35DPPC   C19 1719   5.240   3.723   2.253  0.4259 -0.5338 -0.0797
   35DPPC   C20 1720   5.277   3.624   2.364  0.0567 -0.1124  0.4281
   35DPPC   C21 1721   5.373   3.701   2.454  0.1790 -0.3262  0.4820
   35DPPC   C22 1722   5.313   3.831   2.507  0.2431 -0.2588  0.3912
   35DPPC   C23 1723   5.410   3.918   2.587  0.1103  0.1201  0.1455
   35DPPC   C24 1724   5.414   3.858   2.727  0.0113 -0.1696  0.0244
   35DPPC   C25 1725   5.527   3.761   2.762 -0.1794 -0.4009  0.0116
   35DPPC   C26 1726   5.520   3.701   2.902 -0.3449 -0.0310  0.1638
   35DPPC   C27 1727   5.656   3.634   2.923 -0.5010 -0.4415 -0.1249
   35DPPC   C28 1728   5.694   3.624   3.071 -0.1179  0.7122 -0.1397
   35DPPC   C29 1729   5.814   3.532   3.092 -0.5109  0.2528  0.1265
   35DPPC   C30 1730   5.867   3.539   3.236 -0.1587  0.1231  0.0053
   35DPPC   C31 1731   5.991   3.456   3.268  0.1033  0.3976 -0.2888
   35DPPC   C32 1732   4.957   3.304   1.921  0.1719  0.0984  0.0773
   35DPPC   O33 1733   4.862   3.198   1.937 -0.0484  0.2745 -0.0438
   35DPPC   C34 1734   4.914   3.073   1.949  0.1943  0.3977  0.1958
   35DPPC   O35 1735   5.035   3.054   1.937  0.1874  0.3034  0.2688
   35DPPC   C36 1736   4.807   2.963   1.944 -0.1238  0.7215 -0.1490
   35DPPC   C37 1737   4.726   2.922   2.067  0.0686 -0.0060 -0.2617
   35DPPC   C38 1738   4.830   2.878   2.171 -0.3747  0.1982  0.2763
   35DPPC   C39 1739   4.784   2.860   2.315 -0.1517  0.1071  0.3353
   35DPPC   C40 1740   4.670   2.760   2.335 -0.3107  0.2246  0.0113
   35DPPC   C41 1741   4.637   2.738   2.483 -0.1212  0.0707  0.0301
   35DPPC   C42 1742   4.600   2.868   2.553 -0.2187  0.0327  0.0482
   35DPPC   C43 1743   4.577   2.871   2.705  0.8434  0.4095  0.2044
   35DPPC   C44 1744   4.474   2.979   2.736  0.1556 -0.0789 -0.3458
   35DPPC   C45 1745   4.410   2.932   2.867  0.0810  0.0191 -0.3466
   35DPPC   C46 1746   4.296   3.021   2.918  0.0234 -0.0626 -0.3323
   35DPPC   C47 1747   4.357   3.146   2.982  0.4128 -0.3253 -0.1869
   35DPPC   C48 1748   4.428   3.103   3.110  0.4887 -0.4759 -0.2782
   35DPPC   C49 1749   4.485   3.223   3.186 -0.0360 -0.0366 -0.5699
   35DPPC   C50 1750   4.595   3.286   3.100  0.3161 -0.1424 -0.2024
   36DPPC    C1 1751   5.813   4.909   1.289 -0.2655 -0.1399 -0.1049
   36DPPC    C2 1752   5.920   4.708   1.192  0.3355 -0.2433  0.2209
   36DPPC    C3 1753   5.745   4.690   1.349 -0.7158  0.5481  0.4108
   36DPPC    N4 1754   5.861   4.772   1.311 -0.3763 -0.1867 -0.1545
   36DPPC    C5 1755   5.964   4.775   1.416 -0.2672  0.0237 -0.2678
   36DPPC    C6 1756   5.978   4.666   1.522  1.3032  0.0549 -0.4154
   36DPPC    O7 1757   6.004   4.534   1.474 -0.2962 -0.2939 -0.3772
   36DPPC    P8 1758   6.007   4.420   1.587  0.1183  0.1241  0.0383
   36DPPC    O9 1759   5.874   4.356   1.586  0.1108  0.1434 -0.2287
   36DPPC   O10 1760   6.132   4.343   1.567  0.3573  0.4987  0.0944
   36DPPC   O11 1761   6.025   4.509   1.720 -0.6958  0.4359 -0.0576
   36DPPC   C12 1762   6.045   4.427   1.836  0.4317  0.0047 -0.5479
   36DPPC   C13 1763   6.132   4.510   1.930 -0.0149  0.5389 -0.6033
   36DPPC   O14 1764   6.211   4.435   2.024 -0.3976  0.2871 -0.4820
   36DPPC   C15 1765   6.333   4.388   1.988 -0.3309 -0.0230  0.1439
   36DPPC   O16 1766   6.362   4.389   1.869 -0.6378  0.2244  0.0708
   36DPPC   C17 1767   6.409   4.306   2.093 -0.3409 -0.0206  0.1532
   36DPPC   C18 1768   6.314   4.204   2.156 -0.5595  0.0367 -0.0815
   36DPPC   C19 1769   6.390   4.072   2.178  0.1535  0.4803  0.1446
   36DPPC   C20 1770   6.491   4.112   2.286  0.2175  0.5740  0.0503
   36DPPC   C21 1771   6.625   4.039   2.287 -0.0776  0.0258 -0.0991
   36DPPC   C22 1772   6.720   4.110   2.384 -0.6619  0.2607  0.3082
   36DPPC   C23 1773   6.758   4.001   2.484  0.0235 -0.2891 -0.5351
   36DPPC   C24 1774   6.861   4.056   2.583 -0.6091  0.5203 -0.3119
   36DPPC   C25 1775   6.988   4.097   2.508 -0.1227 -0.0833  0.1660
   36DPPC   C26 1776   7.095   4.151   2.603 -0.0638 -0.1465  0.1351
   36DPPC   C27 1777   7.117   4.047   2.714  0.5376  0.0088  0.1633
   36DPPC   C28 1778   7.242   4.092   2.788  0.5055 -0.1304  0.3026
   36DPPC   C29 1779   7.228   4.060   2.937 -0.7414  0.7690  0.3939
   36DPPC   C30 1780   7.344   4.118   3.017 -0.0377  0.1192 -0.1437
   36DPPC   C31 1781   7.373   4.032   3.140 -0.8755  0.0666  0.0203
   36DPPC   C32 1782   6.043   4.619   1.990 -0.3220  0.2012 -0.4425
   36DPPC   O33 1783   5.915   4.566   2.026  0.1059 -0.1061  0.6743
   36DPPC   C34 1784   5.817   4.647   2.075 -0.3663 -0.0777 -0.2890
   36DPPC   O35 1785   5.839   4.767   2.092 -0.5104 -0.1277  0.2432
   36DPPC   C36 1786   5.678   4.585   2.085 -0.1455 -0.5326 -0.0554
   36DPPC   C37 1787   5.640   4.561   2.232 -0.2651 -0.1371 -0.0221
   36DPPC   C38 1788   5.507   4.492   2.259 -0.3289  0.0969  0.2632
   36DPPC   C39 1789   5.482   4.499   2.410 -0.1743  0.2794  0.2807
   36DPPC   C40 1790   5.469   4.650   2.432  0.4554  0.3634  0.0981
   36DPPC   C41 1791   5.415   4.667   2.574  0.1336  0.2880 -0.0123
   36DPPC   C42 1792   5.432   4.809   2.628 -0.1355  0.2289  0.2273
   36DPPC   C43 1793   5.375   4.797   2.770 -0.1756  0.1003  0.1999
   36DPPC   C44 1794   5.430   4.684   2.857  0.0847 -0.4875 -0.7167
   36DPPC   C45 1795   5.369   4.682   2.997  0.1249 -0.5183 -0.6999
   36DPPC   C46 1796   5.450   4.586   3.084 -0.0909 -0.3514 -0.3135
   36DPPC   C47 1797   5.564   4.647   3.166 -0.2216 -0.4124 -0.0858
   36DPPC   C48 1798   5.664   4.548   3.227 -0.2198 -0.2954  0.1037
   36DPPC   C49 1799   5.761   4.635   3.307  0.0644 -0.5122 -0.0006
   36DPPC   C50 1800   5.873   4.553   3.371  0.2299  0.0128  0.4014
   37DPPC    C1 1801   5.428   1.986   0.670 -0.9335  0.6924  0.4001
   37DPPC    C2 1802   5.593   2.105   0.806 -0.4855 -0.3863  0.1637
   37DPPC    C3 1803   5.615   1.881   0.758  0.2115 -0.0530  0.3067
   37DPPC    N4 1804   5.513   1.983   0.790 -0.3221 -0.4656 -0.0571
   37DPPC    C5 1805   5.418   1.961   0.900  0.1632  0.2730  0.5172
   37DPPC    C6 1806   5.482   1.961   1.039  0.6221  0.4281  0.3099
   37DPPC    O7 1807   5.389   1.906   1.132  0.6501  0.0380  0.1073
   37DPPC    P8 1808   5.312   2.020   1.216  0.3148  0.0088 -0.1598
   37DPPC    O9 1809   5.272   2.126   1.120 -0.0360  0.3852  0.3973
   37DPPC   O10 1810   5.230   1.932   1.301  0.0394  0.0614 -0.3699
   37DPPC   O11 1811   5.449   2.048   1.295 -0.0449  0.0480  0.4521
   37DPPC   C12 1812   5.476   1.965   1.408  0.2622 -0.0487  0.3082
   37DPPC   C13 1813   5.607   2.013   1.472  0.0814  0.3353  0.3927
   37DPPC   O14 1814   5.647   1.928   1.581  0.1352 -0.3822 -0.1786
   37DPPC   C15 1815   5.778   1.922   1.618  0.0260  0.5298  0.3975
   37DPPC   O16 1816   5.859   1.995   1.563 -0.0153  0.0951 -0.2598
   37DPPC   C17 1817   5.809   1.857   1.753  0.4653  0.0749  0.0813
   37DPPC   C18 1818   5.922   1.755   1.733  0.3068  0.0300 -0.6187
   37DPPC   C19 1819   6.029   1.782   1.839 -0.1794 -0.1364 -0.0747
   37DPPC   C20 1820   5.976   1.757   1.980  0.2009 -0.5193  0.0014
   37DPPC   C21 1821   6.080   1.825   2.069 -0.0208 -0.0025 -0.1338
   37DPPC   C22 1822   6.034   1.815   2.215 -0.4607 -0.0732 -0.2743
   37DPPC   C23 1823   6.034   1.666   2.249  0.0630 -0.1448 -0.5759
   37DPPC   C24 1824   5.997   1.650   2.397  0.8293 -0.6560 -0.4291
   37DPPC   C25 1825   6.090   1.731   2.487 -0.1752  0.0313  0.0040
   37DPPC   C26 1826   6.041   1.738   2.632 -0.4345 -0.2515 -0.0695
   37DPPC   C27 1827   6.150   1.793   2.725 -0.3008 -0.0313 -0.3558
   37DPPC   C28 1828   6.151   1.722   2.861  0.3615 -0.0893 -0.3895
   37DPPC   C29 1829   6.011   1.729   2.922  0.4655  0.3753 -0.1986
   37DPPC   C30 1830   6.020   1.698   3.071  0.3974  0.1869 -0.2339
   37DPPC   C31 1831   5.901   1.621   3.130  0.0114  0.6240 -0.4368
   37DPPC   C32 1832   5.588   2.155   1.526  0.0718  0.5341 -0.1268
   37DPPC   O33 1833   5.481   2.173   1.618 -0.0212  0.1118 -0.1523
   37DPPC   C34 1834   5.446   2.302   1.639  0.4717  0.2846 -0.3841
   37DPPC   O35 1835   5.458   2.387   1.550 -0.3559  0.6813 -0.1281
   37DPPC   C36 1836   5.394   2.335   1.779  0.0372 -0.7595 -0.2898
   37DPPC   C37 1837   5.282   2.251   1.839 -0.2640 -0.0076  0.2199
   37DPPC   C38 1838   5.247   2.307   1.977  0.1823  0.3334  0.1944
   37DPPC   C39 1839   5.152   2.421   1.939 -0.6279 -0.2262  0.5259
   37DPPC   C40 1840   5.066   2.466   2.057 -0.7129  0.0513  0.3583
   37DPPC   C41 1841   5.151   2.515   2.175  0.1057  0.0393 -0.2181
   37DPPC   C42 1842   5.061   2.548   2.294  0.1668  0.2212 -0.2212
   37DPPC   C43 1843   5.128   2.597   2.423 -0.1413 -0.2598  0.1278
   37DPPC   C44 1844   5.031   2.623   2.539 -0.3497 -0.1816 -0.0622
   37DPPC   C45 1845   5.113   2.654   2.664 -0.0546  0.6985 -0.4602
   37DPPC   C46 1846   5.003   2.678   2.766  0.1770  0.0974 -0.0585
   37DPPC   C47 1847   4.952   2.536   2.792 -0.0146  0.2884  0.6466
   37DPPC   C48 1848   4.803   2.541   2.823 -0.1711 -0.6123  0.0561
   37DPPC   C49 1849   4.795   2.489   2.967  0.4091 -0.2787  0.2091
   37DPPC   C50 1850   4.649   2.481   3.014  0.3696  0.1442  0.1675
   38DPPC    C1 1851   6.006   2.648   1.389  0.3382  0.2621  0.2871
   38DPPC    C2 1852   6.132   2.666   1.204 -0.3720  0.0512 -0.4452
   38DPPC    C3 1853   5.984   2.489   1.206 -0.1835  0.4987  0.0226
   38DPPC    N4 1854   5.995   2.631   1.243 -0.2588  0.4299  0.3096
   38DPPC    C5 1855   5.909   2.723   1.168  0.3884  0.6856 -0.1192
   38DPPC    C6 1856   5.797   2.810   1.226 -0.1075  0.1997 -0.3401
   38DPPC    O7 1857   5.706   2.727   1.299  0.1358  0.1459 -0.0940
   38DPPC    P8 1858   5.617   2.837   1.374 -0.2518 -0.2076 -0.0295
   38DPPC    O9 1859   5.620   2.963   1.295 -0.2770  0.0442  0.3658
   38DPPC   O10 1860   5.485   2.776   1.400 -0.1987 -0.1417  0.3974
   38DPPC   O11 1861   5.696   2.834   1.514 -0.4874 -0.0490  0.1081
   38DPPC   C12 1862   5.652   2.720   1.588 -0.1593 -0.1720  0.1159
   38DPPC   C13 1863   5.749   2.674   1.696  0.0640 -0.2643 -0.1219
   38DPPC   O14 1864   5.718   2.543   1.746 -0.0101 -0.1294  0.1919
   38DPPC   C15 1865   5.798   2.442   1.702 -0.3302 -0.3688  0.1601
   38DPPC   O16 1866   5.865   2.444   1.599 -0.3650 -0.3273  0.1385
   38DPPC   C17 1867   5.771   2.318   1.787  0.0672 -0.1315  0.6391
   38DPPC   C18 1868   5.812   2.361   1.928  0.5671  0.2497  0.3819
   38DPPC   C19 1869   5.796   2.246   2.028  0.4078 -0.1499 -0.0992
   38DPPC   C20 1870   5.827   2.300   2.167 -0.1580 -0.5203  0.1786
   38DPPC   C21 1871   5.809   2.188   2.269  0.8346 -0.8686 -0.0182
   38DPPC   C22 1872   5.880   2.210   2.403 -0.1660 -0.0749  0.3985
   38DPPC   C23 1873   5.815   2.104   2.493 -0.4640 -0.2725 -0.0469
   38DPPC   C24 1874   5.837   2.123   2.643 -0.2713 -0.0281 -0.1050
   38DPPC   C25 1875   5.758   2.008   2.705 -0.3784  0.3350  0.4397
   38DPPC   C26 1876   5.776   2.032   2.855  1.0200  0.1110  0.3239
   38DPPC   C27 1877   5.689   1.938   2.940  0.3980  0.2285 -0.1736
   38DPPC   C28 1878   5.707   1.972   3.088  0.1614  0.2267 -0.1447
   38DPPC   C29 1879   5.587   1.940   3.179  0.6462 -0.5846  0.2233
   38DPPC   C30 1880   5.616   2.008   3.313  0.0759  0.1166 -0.0026
   38DPPC   C31 1881   5.725   1.927   3.383 -0.4052 -0.3943  0.1714
   38DPPC   C32 1882   5.736   2.782   1.804  0.3037 -0.5838  0.2307
   38DPPC   O33 1883   5.843   2.862   1.856  0.1233 -0.3061  0.1767
   38DPPC   C34 1884   5.801   2.957   1.943  0.0003  0.4896 -0.7329
   38DPPC   O35 1885   5.684   2.996   1.943 -0.2456 -0.1726  0.6583
   38DPPC   C36 1886   5.899   3.055   2.009  0.2530 -0.6473  0.6147
   38DPPC   C37 1887   5.844   3.102   2.144 -0.2927  0.2565  0.0841
   38DPPC   C38 1888   5.932   3.211   2.204  0.5471 -0.6672  0.5383
   38DPPC   C39 1889   5.893   3.249   2.347  0.1871 -0.0810  0.2845
   38DPPC   C40 1890   6.013   3.314   2.417  0.0975 -0.1346  0.4878
   38DPPC   C41 1891   5.972   3.360   2.558 -0.3549  0.8813  0.0369
   38DPPC   C42 1892   6.095   3.405   2.636 -0.3792 -0.3520  0.8084
   38DPPC   C43 1893   6.066   3.500   2.753  0.0369 -0.2624  0.8405
   38DPPC   C44 1894   6.177   3.525   2.855  0.6891  0.3387  0.0025
   38DPPC   C45 1895   6.219   3.401   2.934  0.1534  0.1399 -0.0249
   38DPPC   C46 1896   6.315   3.444   3.045 -0.1933  0.2182  0.2471
   38DPPC   C47 1897   6.356   3.314   3.114 -0.4612 -0.0138 -0.0268
   38DPPC   C48 1898   6.427   3.324   3.249 -0.6267  0.2603  0.0396
   38DPPC   C49 1899   6.441   3.182   3.304  0.0013  0.1503 -0.3960
   38DPPC   C50 1900   6.537   3.170   3.423  0.4113  0.1532 -0.7243
   39DPPC    C1 1901   5.327   3.177   1.781  0.2234 -0.0064  0.6682
   39DPPC    C2 1902   5.373   3.112   1.563  0.4719  0.2223 -0.1987
   39DPPC    C3 1903   5.399   3.341   1.627  0.0450 -0.0356  0.7109
   39DPPC    N4 1904   5.420   3.202   1.670 -0.0858 -0.1583  0.3761
   39DPPC    C5 1905   5.558   3.170   1.706 -0.0981 -0.2890  0.3079
   39DPPC    C6 1906   5.666   3.236   1.619 -0.4445  0.2381  0.2780
   39DPPC    O7 1907   5.776   3.147   1.603 -0.0179  0.7530  0.3283
   39DPPC    P8 1908   5.897   3.200   1.511  0.1199  0.0674  0.1045
   39DPPC    O9 1909   5.979   3.092   1.452 -0.5966 -0.5546  0.2428
   39DPPC   O10 1910   5.832   3.305   1.429  0.1343  0.2045  0.2677
   39DPPC   O11 1911   5.995   3.282   1.610  0.2780  0.2611 -0.2090
   39DPPC   C12 1912   6.033   3.226   1.736 -0.4199  0.0955 -0.0687
   39DPPC   C13 1913   6.135   3.312   1.811  0.0719  0.1821 -0.8288
   39DPPC   O14 1914   6.210   3.235   1.907 -0.3084 -0.2987 -0.9105
   39DPPC   C15 1915   6.301   3.140   1.875 -0.0539 -0.3671 -0.0046
   39DPPC   O16 1916   6.308   3.106   1.757  0.4431 -0.0966 -0.0528
   39DPPC   C17 1917   6.363   3.060   1.990  0.2081  0.0293  0.1321
   39DPPC   C18 1918   6.355   3.138   2.122  0.1508 -0.2804  0.3139
   39DPPC   C19 1919   6.465   3.083   2.212  0.6336 -0.1585 -0.1954
   39DPPC   C20 1920   6.446   3.128   2.357 -0.2516 -0.4405 -0.2184
   39DPPC   C21 1921   6.311   3.066   2.393 -0.2189 -0.4398 -0.0963
   39DPPC   C22 1922   6.312   3.081   2.545 -0.3688 -0.1891 -0.1206
   39DPPC   C23 1923   6.174   3.044   2.600 -0.0230 -0.4092  0.6134
   39DPPC   C24 1924   6.168   3.050   2.753  0.0464 -0.7443  0.6299
   39DPPC   C25 1925   6.025   3.031   2.805 -0.2353 -0.4438 -0.0188
   39DPPC   C26 1926   6.029   3.066   2.954  0.0606  0.7564 -0.2990
   39DPPC   C27 1927   5.884   3.056   3.002  0.3010  0.9270  0.4794
   39DPPC   C28 1928   5.787   3.147   2.925  0.2109  0.4404  0.0112
   39DPPC   C29 1929   5.641   3.124   2.963  0.2529 -0.0883 -0.1443
   39DPPC   C30 1930   5.550   3.240   2.921  0.3002  0.0382  0.1046
   39DPPC   C31 1931   5.514   3.233   2.772  0.5150 -0.0563  0.0568
   39DPPC   C32 1932   6.070   3.448   1.834  0.2596  0.0592  0.5143
   39DPPC   O33 1933   5.953   3.434   1.914  0.0278  0.0026  0.1649
   39DPPC   C34 1934   5.899   3.552   1.957 -0.2977 -0.0599 -0.0643
   39DPPC   O35 1935   5.916   3.652   1.888 -0.6728  0.4145  0.5226
   39DPPC   C36 1936   5.780   3.543   2.053 -0.1737  0.4525  0.1410
   39DPPC   C37 1937   5.690   3.424   2.020 -0.0289  0.3069  0.2638
   39DPPC   C38 1938   5.578   3.409   2.123  0.2234  0.2768  0.5323
   39DPPC   C39 1939   5.515   3.271   2.105  0.1388  0.3128  0.5573
   39DPPC   C40 1940   5.398   3.242   2.199 -0.3526  0.4116 -0.0162
   39DPPC   C41 1941   5.346   3.101   2.172  0.1128  0.1712  0.3407
   39DPPC   C42 1942   5.237   3.055   2.268 -0.3794  0.2199 -0.1869
   39DPPC   C43 1943   5.277   3.035   2.415  0.0132 -0.1415 -0.3417
   39DPPC   C44 1944   5.159   3.043   2.511  0.2485 -0.7434  0.0077
   39DPPC   C45 1945   5.201   3.081   2.653 -0.1699  0.3795 -0.1591
   39DPPC   C46 1946   5.084   3.048   2.745  0.1174  0.1463  0.1238
   39DPPC   C47 1947   5.105   3.103   2.886  0.0087 -0.3740  0.3470
   39DPPC   C48 1948   5.020   3.029   2.989  0.1503 -0.6211  0.2850
   39DPPC   C49 1949   4.870   3.038   2.964  0.1429 -0.6848  0.3063
   39DPPC   C50 1950   4.802   2.959   3.077  0.2149  0.1115  0.9194
   40DPPC    C1 1951   5.992   4.051   1.547  0.2005 -0.1206 -0.0860
   40DPPC    C2 1952   6.028   3.830   1.624 -0.4943 -0.2805 -0.4066
   40DPPC    C3 1953   5.969   4.003   1.781 -0.0305 -0.3312 -0.1587
   40DPPC    N4 1954   5.948   3.951   1.645 -0.1708 -0.0964 -0.2262
   40DPPC    C5 1955   5.807   3.918   1.624 -0.2396  0.1521 -0.1686
   40DPPC    C6 1956   5.727   3.826   1.717  0.0654  0.1534  0.0943
   40DPPC    O7 1957   5.586   3.834   1.696  0.0526  0.3712  0.2677
   40DPPC    P8 1958   5.539   3.707   1.784  0.8176 -0.0376  0.0907
   40DPPC    O9 1959   5.392   3.695   1.777  0.7634  0.7201 -0.0735
   40DPPC   O10 1960   5.630   3.593   1.757 -0.2114 -0.6384 -0.9276
   40DPPC   O11 1961   5.567   3.776   1.926  0.0438  0.4312  0.0171
   40DPPC   C12 1962   5.468   3.871   1.967 -0.3729 -0.1109  0.2850
   40DPPC   C13 1963   5.502   3.946   2.096  0.1890 -0.2202  0.2032
   40DPPC   O14 1964   5.385   4.013   2.146  0.5798  0.6293  0.0095
   40DPPC   C15 1965   5.333   4.133   2.109 -0.2031  0.0160 -0.9163
   40DPPC   O16 1966   5.370   4.190   2.007  0.3973  0.2131 -0.5946
   40DPPC   C17 1967   5.208   4.180   2.182  0.2830  0.1598 -0.1586
   40DPPC   C18 1968   5.204   4.147   2.331 -0.0353  0.4147 -0.1082
   40DPPC   C19 1969   5.110   4.252   2.390 -0.2814 -0.0827  0.3981
   40DPPC   C20 1970   5.084   4.227   2.539 -0.1733 -0.5586  0.3383
   40DPPC   C21 1971   5.216   4.248   2.612 -0.1068  0.5018 -0.0549
   40DPPC   C22 1972   5.214   4.189   2.754  0.9573 -0.4082 -0.4028
   40DPPC   C23 1973   5.341   4.217   2.835 -0.0505  0.7611  0.8294
   40DPPC   C24 1974   5.350   4.153   2.974  0.1038 -0.1741  0.4023
   40DPPC   C25 1975   5.493   4.161   3.028  0.0287  0.7758  0.4848
   40DPPC   C26 1976   5.517   4.076   3.153  0.2588 -0.0242 -0.0907
   40DPPC   C27 1977   5.432   4.138   3.265  0.2921  0.0496 -0.1064
   40DPPC   C28 1978   5.519   4.216   3.364 -0.1129  0.1421  0.1775
   40DPPC   C29 1979   5.413   4.282   3.452 -0.2284  0.2040 -0.0065
   40DPPC   C30 1980   5.462   4.336   3.587  0.0499  0.0087 -0.0286
   40DPPC   C31 1981   5.343   4.364   3.679 -0.3097  0.3563 -0.5940
   40DPPC   C32 1982   5.628   4.021   2.053 -0.0571  0.1367  0.0938
   40DPPC   O33 1983   5.724   4.064   2.150  0.2086  0.0881 -0.1454
   40DPPC   C34 1984   5.814   4.159   2.112  0.1524  0.2758  0.1865
   40DPPC   O35 1985   5.818   4.183   1.992  0.2300  0.0834  0.1494
   40DPPC   C36 1986   5.919   4.199   2.216 -0.0843 -0.2920  0.6537
   40DPPC   C37 1987   5.854   4.277   2.330 -0.2419 -0.6716  0.8211
   40DPPC   C38 1988   5.946   4.284   2.452  0.6282 -0.3384  0.1571
   40DPPC   C39 1989   6.076   4.358   2.421  0.3131  0.2821  0.2941
   40DPPC   C40 1990   6.150   4.368   2.554  0.2123 -0.1909  0.3872
   40DPPC   C41 1991   6.223   4.235   2.575  0.2935 -0.1485  0.3731
   40DPPC   C42 1992   6.332   4.242   2.683  0.7897 -0.2497 -0.1183
   40DPPC   C43 1993   6.422   4.118   2.684  0.2210 -0.6730 -0.4828
   40DPPC   C44 1994   6.548   4.126   2.770 -0.1379  0.1155 -0.0178
   40DPPC   C45 1995   6.510   4.158   2.915 -0.0525 -0.5334  0.1507
   40DPPC   C46 1996   6.634   4.185   3.000 -0.1880  0.4741  0.0349
   40DPPC   C47 1997   6.566   4.191   3.137 -0.1207 -0.0394  0.0941
   40DPPC   C48 1998   6.503   4.326   3.171 -0.2151  0.0022 -0.2398
   40DPPC   C49 1999   6.618   4.426   3.160  0.3327 -0.6040 -0.0793
   40DPPC   C50 2000   6.581   4.570   3.197  1.1096 -0.4513  0.1273
   41DPPC    C1 2001   0.848   2.301   1.561 -0.1966 -1.2323 -0.1276
   41DPPC    C2 2002   0.812   2.191   1.349 -0.0955  0.7229 -0.3225
   41DPPC    C3 2003   1.014   2.314   1.404 -0.3456  0.2738 -0.0230
   41DPPC    N4 2004   0.867   2.310   1.415 -0.3599  0.6995 -0.0584
   41DPPC    C5 2005   0.824   2.432   1.345 -0.3105  0.5757 -0.3048
   41DPPC    C6 2006   0.678   2.477   1.344 -0.4732  0.1087  0.8337
   41DPPC    O7 2007   0.616   2.380   1.259  0.1625  0.4063  0.0195
   41DPPC    P8 2008   0.461   2.408   1.229 -0.0255 -0.4085  0.2076
   41DPPC    O9 2009   0.418   2.546   1.261 -0.2008 -0.3740 -0.1759
   41DPPC   O10 2010   0.438   2.349   1.096  0.0785  0.3143 -0.1348
   41DPPC   O11 2011   0.406   2.323   1.355  0.6211 -0.1557  0.6681
   41DPPC   C12 2012   0.282   2.386   1.390  0.4107  0.0382 -0.3692
   41DPPC   C13 2013   0.224   2.349   1.527  0.0563  0.3388 -0.4365
   41DPPC   O14 2014   0.107   2.421   1.568 -0.1570 -0.1562 -0.1622
   41DPPC   C15 2015   0.116   2.556   1.588  0.0203 -0.1055 -0.5673
   41DPPC   O16 2016   0.215   2.626   1.570 -0.1952  0.3563  0.0058
   41DPPC   C17 2017  -0.013   2.619   1.642  0.6575  0.4293  0.3750
   41DPPC   C18 2018  -0.014   2.588   1.791 -0.2355 -0.9311  0.1118
   41DPPC   C19 2019  -0.100   2.689   1.869  0.2632 -0.2163 -0.2522
   41DPPC   C20 2020  -0.081   2.660   2.018  0.2425  0.5977 -0.0918
   41DPPC   C21 2021  -0.138   2.781   2.093  0.2095  0.0539  0.7629
   41DPPC   C22 2022  -0.141   2.773   2.246 -0.2984 -0.4588  0.7308
   41DPPC   C23 2023  -0.236   2.666   2.300 -1.0211 -0.1676  0.0566
   41DPPC   C24 2024  -0.227   2.676   2.452  0.0392  0.3964 -0.0387
   41DPPC   C25 2025  -0.338   2.596   2.519  0.1050 -0.3449 -0.8055
   41DPPC   C26 2026  -0.317   2.582   2.670 -0.3865  0.4803 -0.6554
   41DPPC   C27 2027  -0.444   2.527   2.733  0.0592 -0.2322 -0.3630
   41DPPC   C28 2028  -0.428   2.484   2.879 -0.2612 -0.4143 -0.3794
   41DPPC   C29 2029  -0.387   2.596   2.974 -0.3288 -0.7848  0.0942
   41DPPC   C30 2030  -0.464   2.581   3.105  0.0286  0.2565  0.4356
   41DPPC   C31 2031  -0.412   2.659   3.227  0.2348  0.6099  0.1236
   41DPPC   C32 2032   0.344   2.350   1.622  0.1788  0.3547 -0.5914
   41DPPC   O33 2033   0.373   2.223   1.681  0.4454  0.5524 -0.2944
   41DPPC   C34 2034   0.449   2.232   1.794  0.9664 -0.8770 -0.5042
   41DPPC   O35 2035   0.525   2.326   1.815  0.3011 -0.4511  0.0655
   41DPPC   C36 2036   0.417   2.127   1.901 -0.4423 -0.0523 -0.0812
   41DPPC   C37 2037   0.351   2.189   2.024  0.3697  0.2078  0.2297
   41DPPC   C38 2038   0.347   2.082   2.133  0.1848 -0.1990 -0.1721
   41DPPC   C39 2039   0.432   2.105   2.258 -0.2270  0.1617  0.0437
   41DPPC   C40 2040   0.375   2.051   2.390 -0.5098  0.2667 -0.0358
   41DPPC   C41 2041   0.319   1.909   2.374  0.5561 -0.2296  0.5622
   41DPPC   C42 2042   0.287   1.850   2.512  0.6164  0.2701  0.7941
   41DPPC   C43 2043   0.219   1.715   2.488  0.1017  0.6429  0.0885
   41DPPC   C44 2044   0.210   1.641   2.622 -0.1462  0.2295 -0.1543
   41DPPC   C45 2045   0.346   1.604   2.680 -0.1900  0.6072  0.1937
   41DPPC   C46 2046   0.337   1.487   2.778 -0.1694 -0.0417 -0.5729
   41DPPC   C47 2047   0.264   1.533   2.904  0.8283 -0.1406  0.0518
   41DPPC   C48 2048   0.253   1.421   3.008 -0.3800 -0.0348  0.0463
   41DPPC   C49 2049   0.189   1.479   3.134 -0.5772  0.4516 -0.2726
   41DPPC   C50 2050   0.282   1.583   3.194  0.0532 -0.4319  0.3035
   42DPPC    C1 2051   0.437   3.078   1.270 -0.5500  0.1179 -0.1187
   42DPPC    C2 2052   0.377   3.070   1.492 -0.0831 -0.0063 -0.5501
   42DPPC    C3 2053   0.609   3.137   1.431  0.5472  0.3128  0.4729
   42DPPC    N4 2054   0.465   3.143   1.399  0.6489 -0.3535 -0.1325
   42DPPC    C5 2055   0.441   3.286   1.381  0.0049 -0.4041  0.3070
   42DPPC    C6 2056   0.435   3.370   1.508  0.0457 -0.2917  0.2351
   42DPPC    O7 2057   0.560   3.384   1.577  0.0145  0.3380  0.1738
   42DPPC    P8 2058   0.538   3.469   1.711 -0.2911 -0.0638  0.3822
   42DPPC    O9 2059   0.684   3.493   1.724 -0.2358  0.0073 -0.3412
   42DPPC   O10 2060   0.434   3.563   1.663  0.0526  0.2808  0.3032
   42DPPC   O11 2061   0.488   3.348   1.804 -0.2359 -0.8739 -0.6278
   42DPPC   C12 2062   0.613   3.279   1.817  0.1473 -0.1336 -0.3034
   42DPPC   C13 2063   0.591   3.151   1.898  0.0777 -0.1444 -0.3385
   42DPPC   O14 2064   0.529   3.047   1.821 -0.4762 -0.1928  0.1682
   42DPPC   C15 2065   0.583   2.928   1.784 -0.0005  0.1951 -0.4052
   42DPPC   O16 2066   0.693   2.923   1.730  0.4054 -0.1662  0.4498
   42DPPC   C17 2067   0.486   2.810   1.774 -0.3025  0.3766  0.2871
   42DPPC   C18 2068   0.476   2.753   1.915  0.0557  0.1114  0.2091
   42DPPC   C19 2069   0.387   2.629   1.904  0.5283 -0.2226  0.1289
   42DPPC   C20 2070   0.351   2.564   2.038 -0.3507 -0.1042 -0.0470
   42DPPC   C21 2071   0.289   2.680   2.116  0.2182 -0.0523  0.3366
   42DPPC   C22 2072   0.313   2.650   2.264 -0.3287  0.1081  0.4594
   42DPPC   C23 2073   0.231   2.526   2.300 -0.0622  0.0039  0.7139
   42DPPC   C24 2074   0.208   2.499   2.449 -0.6512 -0.6283  0.5158
   42DPPC   C25 2075   0.135   2.613   2.521  0.1130  0.1381  0.1036
   42DPPC   C26 2076   0.107   2.581   2.668 -0.2961  0.2643  0.0533
   42DPPC   C27 2077   0.030   2.690   2.743 -0.1219  0.4661 -0.0587
   42DPPC   C28 2078   0.045   2.681   2.895  0.0425 -0.3616 -0.1139
   42DPPC   C29 2079   0.167   2.755   2.951 -0.7181  1.2134 -0.4861
   42DPPC   C30 2080   0.171   2.756   3.104 -0.5369 -0.0935 -0.4769
   42DPPC   C31 2081   0.070   2.862   3.147 -0.8010 -0.4476 -0.2145
   42DPPC   C32 2082   0.519   3.194   2.025  0.5467 -0.3346 -0.0025
   42DPPC   O33 2083   0.611   3.268   2.105  0.0355 -0.4421  0.7016
   42DPPC   C34 2084   0.544   3.323   2.210 -0.1860  0.4915  0.0825
   42DPPC   O35 2085   0.426   3.302   2.237 -0.0195 -0.0980  0.3760
   42DPPC   C36 2086   0.627   3.399   2.313  0.6293 -0.2572 -0.0090
   42DPPC   C37 2087   0.691   3.526   2.256  0.3629 -0.1589 -0.0879
   42DPPC   C38 2088   0.799   3.576   2.351  0.1448  0.2201 -0.0360
   42DPPC   C39 2089   0.733   3.586   2.489  0.2237 -0.4550  0.0517
   42DPPC   C40 2090   0.849   3.617   2.583  0.1953 -0.1487 -0.0126
   42DPPC   C41 2091   0.801   3.590   2.725  0.8771 -0.1496  0.2246
   42DPPC   C42 2092   0.680   3.680   2.751  0.7474 -0.3524  0.3307
   42DPPC   C43 2093   0.617   3.681   2.890 -0.2615 -0.1848 -0.1169
   42DPPC   C44 2094   0.573   3.823   2.927 -0.0951 -0.1898  0.1008
   42DPPC   C45 2095   0.513   3.819   3.068 -0.0586  0.0464  0.1241
   42DPPC   C46 2096   0.406   3.712   3.091  0.0843 -0.2542 -0.5903
   42DPPC   C47 2097   0.374   3.718   3.240  0.3400 -0.1624 -0.5383
   42DPPC   C48 2098   0.317   3.852   3.286 -0.1262 -0.4708 -0.2097
   42DPPC   C49 2099   0.239   3.840   3.417 -0.0551  0.0550 -0.1156
   42DPPC   C50 2100   0.164   3.972   3.432 -0.1896 -0.0793  0.4198
   43DPPC    C1 2101   0.578   3.882   1.559  0.2388 -0.1055 -0.0891
   43DPPC    C2 2102   0.736   3.768   1.417  0.1483 -0.4672  0.2903
   43DPPC    C3 2103   0.762   3.996   1.484  0.5787 -0.0033 -0.0496
   43DPPC    N4 2104   0.665   3.895   1.441  0.6410 -0.1717  0.2001
   43DPPC    C5 2105   0.578   3.926   1.327  0.5159 -0.0744  0.3221
   43DPPC    C6 2106   0.503   4.060   1.324 -0.5027 -0.6400 -0.0767
   43DPPC    O7 2107   0.397   4.087   1.416 -0.2679  0.2585 -0.0659
   43DPPC    P8 2108   0.367   4.245   1.430 -0.1094  0.2716  0.1240
   43DPPC    O9 2109   0.387   4.336   1.315 -0.3625 -0.1796 -0.2772
   43DPPC   O10 2110   0.252   4.272   1.519  0.2047  0.0905  0.5876
   43DPPC   O11 2111   0.509   4.267   1.502  0.0524  0.2440 -0.1851
   43DPPC   C12 2112   0.474   4.251   1.640  0.2248  0.4330 -0.1187
   43DPPC   C13 2113   0.601   4.241   1.725  0.2206  0.2059 -0.1388
   43DPPC   O14 2114   0.581   4.164   1.844 -0.3009  0.4719 -0.0497
   43DPPC   C15 2115   0.689   4.123   1.914 -0.2440  0.5446 -0.0951
   43DPPC   O16 2116   0.798   4.152   1.864  0.0637 -0.3490  0.0221
   43DPPC   C17 2117   0.670   4.078   2.059 -0.2215 -0.1642 -0.3054
   43DPPC   C18 2118   0.720   3.936   2.085  0.1135  0.0090  0.0014
   43DPPC   C19 2119   0.642   3.825   2.015 -0.4098  0.6341 -0.4127
   43DPPC   C20 2120   0.515   3.791   2.093 -0.1619  0.2966 -0.1535
   43DPPC   C21 2121   0.439   3.686   2.011  0.0577 -0.1408  0.1965
   43DPPC   C22 2122   0.309   3.653   2.084  0.0740 -1.1016 -0.1999
   43DPPC   C23 2123   0.227   3.548   2.008 -0.5753 -0.3283 -0.5943
   43DPPC   C24 2124   0.115   3.501   2.101 -0.1676  0.0629  0.1074
   43DPPC   C25 2125   0.017   3.618   2.111 -0.4225 -0.1174 -0.2289
   43DPPC   C26 2126  -0.081   3.610   2.228  0.0466  0.1159  0.1861
   43DPPC   C27 2127  -0.192   3.716   2.217 -0.1604 -0.0403  0.7332
   43DPPC   C28 2128  -0.294   3.709   2.331 -0.3261 -0.0555  0.5833
   43DPPC   C29 2129  -0.385   3.831   2.324 -0.6879 -0.3723 -0.3765
   43DPPC   C30 2130  -0.503   3.829   2.422 -0.3489 -0.0508  0.0400
   43DPPC   C31 2131  -0.479   3.920   2.543  0.7889  0.0225 -0.2274
   43DPPC   C32 2132   0.639   4.388   1.745  0.3949  0.1307  0.0792
   43DPPC   O33 2133   0.529   4.476   1.764  0.0999 -0.2124 -0.0228
   43DPPC   C34 2134   0.559   4.609   1.753  0.0627 -0.1554  0.5375
   43DPPC   O35 2135   0.676   4.647   1.754  0.0253  0.0425 -1.0274
   43DPPC   C36 2136   0.446   4.712   1.758  0.4226  0.2586  0.1836
   43DPPC   C37 2137   0.366   4.689   1.886  0.0898 -0.1417 -0.0949
   43DPPC   C38 2138   0.271   4.809   1.892 -0.1689 -0.3430 -0.1213
   43DPPC   C39 2139   0.145   4.779   1.973 -0.5039  0.2266 -0.4292
   43DPPC   C40 2140   0.192   4.757   2.117 -0.1442  0.2790 -0.5379
   43DPPC   C41 2141   0.074   4.744   2.214  0.2618 -0.0943 -0.0893
   43DPPC   C42 2142   0.137   4.758   2.352  0.2237  0.1739 -0.1001
   43DPPC   C43 2143   0.033   4.720   2.458 -0.0316 -0.0408 -0.4278
   43DPPC   C44 2144   0.097   4.732   2.596 -0.5049  0.3045 -0.2327
   43DPPC   C45 2145  -0.015   4.754   2.698  0.0320  0.2965  0.3678
   43DPPC   C46 2146   0.029   4.714   2.839 -0.1585  0.1708  0.3922
   43DPPC   C47 2147  -0.071   4.782   2.932 -0.0395  0.7035  0.1361
   43DPPC   C48 2148  -0.067   4.719   3.071  0.0290  0.1612 -0.1085
   43DPPC   C49 2149  -0.115   4.817   3.179  0.2254  0.4849 -0.3119
   43DPPC   C50 2150  -0.265   4.842   3.164  0.1902  0.9044  0.6508
   44DPPC    C1 2151   0.229   1.911   1.108 -0.1448  0.6522  0.2180
   44DPPC    C2 2152   0.246   1.960   1.338  0.1073  0.3422 -0.4599
   44DPPC    C3 2153   0.416   2.035   1.193  0.0590  0.3565  0.2367
   44DPPC    N4 2154   0.324   1.924   1.219  0.4002 -0.0233 -0.1593
   44DPPC    C5 2155   0.408   1.804   1.235  0.1762 -0.1034  0.4478
   44DPPC    C6 2156   0.357   1.661   1.219  0.0121 -0.0520  0.5128
   44DPPC    O7 2157   0.220   1.649   1.261 -0.1579 -0.0997 -0.0490
   44DPPC    P8 2158   0.184   1.494   1.236  0.3752 -0.1650 -0.4211
   44DPPC    O9 2159   0.037   1.488   1.241  0.3948  0.0627  0.6157
   44DPPC   O10 2160   0.252   1.452   1.111 -0.0384  0.3675 -0.8295
   44DPPC   O11 2161   0.264   1.422   1.356 -0.1049  0.3019  0.1821
   44DPPC   C12 2162   0.182   1.390   1.469  0.1240 -0.1201  0.2304
   44DPPC   C13 2163   0.273   1.408   1.590  0.4959 -0.0646 -0.0542
   44DPPC   O14 2164   0.260   1.310   1.695  0.0881  0.3208  0.2542
   44DPPC   C15 2165   0.378   1.255   1.734 -0.3038 -0.6280  0.1270
   44DPPC   O16 2166   0.483   1.265   1.671 -0.5314 -0.6577 -0.2668
   44DPPC   C17 2167   0.384   1.174   1.863 -0.3430 -0.4463  0.2432
   44DPPC   C18 2168   0.257   1.191   1.947 -0.4942  0.1303 -0.0938
   44DPPC   C19 2169   0.240   1.084   2.055  0.8073 -0.0368 -0.0324
   44DPPC   C20 2170   0.138   1.114   2.165  0.4798  0.2284 -0.4093
   44DPPC   C21 2171   0.203   1.097   2.302  0.3073  0.8123 -0.2515
   44DPPC   C22 2172   0.114   1.160   2.409 -0.5101 -0.3948 -0.2044
   44DPPC   C23 2173   0.193   1.201   2.534 -0.2755 -0.3020 -0.3850
   44DPPC   C24 2174   0.260   1.072   2.584  0.2823  0.0784 -0.1402
   44DPPC   C25 2175   0.397   1.100   2.646  0.1995 -0.1268  0.1337
   44DPPC   C26 2176   0.399   1.101   2.799 -0.0943  0.3635  0.1355
   44DPPC   C27 2177   0.546   1.126   2.830  0.0807 -0.0456 -0.3571
   44DPPC   C28 2178   0.590   1.098   2.974 -0.1595 -0.1512 -0.3057
   44DPPC   C29 2179   0.511   1.185   3.072  0.3504  0.5295 -0.4892
   44DPPC   C30 2180   0.565   1.151   3.211 -0.5816  0.1149 -0.2153
   44DPPC   C31 2181   0.523   1.007   3.243 -0.3290  0.2186  0.5973
   44DPPC   C32 2182   0.288   1.556   1.623 -0.3299 -0.0846  0.4478
   44DPPC   O33 2183   0.173   1.640   1.616  0.2106  0.5673 -1.0716
   44DPPC   C34 2184   0.189   1.767   1.661  0.1605  0.1151  0.2371
   44DPPC   O35 2185   0.298   1.826   1.660  0.1685  0.0955 -0.0851
   44DPPC   C36 2186   0.060   1.848   1.664 -0.0894 -0.2905  0.5679
   44DPPC   C37 2187   0.073   1.976   1.748 -0.6086  0.0649  0.1153
   44DPPC   C38 2188  -0.026   2.077   1.689 -0.4715  0.0239 -0.1856
   44DPPC   C39 2189  -0.045   2.195   1.784  0.5924 -0.1435  0.2532
   44DPPC   C40 2190  -0.086   2.148   1.924 -0.3045 -0.0717  0.0204
   44DPPC   C41 2191  -0.098   2.272   2.012  0.0159  0.2194 -0.3455
   44DPPC   C42 2192  -0.128   2.235   2.157  0.4495  0.0891 -0.2882
   44DPPC   C43 2193  -0.027   2.143   2.227 -0.7469 -0.7917  0.3139
   44DPPC   C44 2194  -0.060   2.117   2.374 -0.0228 -0.5560  0.5190
   44DPPC   C45 2195  -0.050   2.242   2.462  0.0775 -0.0244 -0.2324
   44DPPC   C46 2196  -0.054   2.205   2.611  0.2808  0.0230 -0.2145
   44DPPC   C47 2197   0.075   2.146   2.668  0.0066 -0.5065 -0.1410
   44DPPC   C48 2198   0.055   2.074   2.802  0.0594  0.0870  0.1900
   44DPPC   C49 2199   0.185   1.999   2.831  0.0652 -0.0237 -0.1086
   44DPPC   C50 2200   0.169   1.926   2.965 -0.4576  0.1122 -0.0951
   45DPPC    C1 2201   1.597   2.319   1.619 -0.4024  0.3141  0.8621
   45DPPC    C2 2202   1.558   2.444   1.426 -0.1660 -0.4177 -0.4816
   45DPPC    C3 2203   1.394   2.302   1.504  0.5727 -0.1903 -0.6114
   45DPPC    N4 2204   1.494   2.398   1.550  0.0971  0.0926 -0.1563
   45DPPC    C5 2205   1.451   2.518   1.623 -0.2016 -0.2170  0.1800
   45DPPC    C6 2206   1.354   2.618   1.559 -0.3371  0.1332  0.9154
   45DPPC    O7 2207   1.227   2.567   1.519  0.1263 -0.1955 -0.1833
   45DPPC    P8 2208   1.152   2.695   1.457  0.3137 -0.0512 -0.1115
   45DPPC    O9 2209   1.250   2.760   1.367 -0.5200  0.6302 -0.5460
   45DPPC   O10 2210   1.028   2.646   1.392  0.3960 -0.2020 -0.1557
   45DPPC   O11 2211   1.115   2.762   1.599 -0.2809 -0.0818 -0.2495
   45DPPC   C12 2212   1.012   2.672   1.639  0.2182 -0.8920 -0.7449
   45DPPC   C13 2213   1.021   2.646   1.790 -0.2035  0.4568 -0.4715
   45DPPC   O14 2214   0.936   2.536   1.825 -0.3184  0.5531 -0.4480
   45DPPC   C15 2215   0.996   2.420   1.863  0.3508  1.0232 -0.0655
   45DPPC   O16 2216   1.106   2.388   1.819 -0.0397 -0.5716  0.0721
   45DPPC   C17 2217   0.920   2.331   1.961 -0.0516  0.8591 -0.5229
   45DPPC   C18 2218   0.862   2.421   2.071  0.0522  0.0741  0.1866
   45DPPC   C19 2219   0.766   2.345   2.162 -0.0493 -0.3812 -0.2982
   45DPPC   C20 2220   0.738   2.433   2.283 -0.0771 -0.0718 -0.5296
   45DPPC   C21 2221   0.654   2.357   2.386 -0.1130  0.5757 -0.0758
   45DPPC   C22 2222   0.591   2.453   2.488 -0.2303  0.1652  0.2428
   45DPPC   C23 2223   0.519   2.363   2.588  0.1418  0.3674  0.6928
   45DPPC   C24 2224   0.481   2.455   2.705 -0.0239  0.8936  0.2292
   45DPPC   C25 2225   0.401   2.368   2.802  0.2429  0.2151 -0.1495
   45DPPC   C26 2226   0.368   2.449   2.928 -0.4779 -0.4130  0.0713
   45DPPC   C27 2227   0.318   2.349   3.032 -0.2037 -0.5103  0.1081
   45DPPC   C28 2228   0.370   2.383   3.172 -0.2678  0.3149 -0.0649
   45DPPC   C29 2229   0.523   2.381   3.174 -0.2582  0.7673 -0.3570
   45DPPC   C30 2230   0.591   2.397   3.310  0.2582 -0.0630 -0.5064
   45DPPC   C31 2231   0.555   2.529   3.379 -0.0274 -0.4085  0.0133
   45DPPC   C32 2232   0.973   2.772   1.862 -0.5538  0.0983 -0.0750
   45DPPC   O33 2233   0.966   2.752   2.003 -0.5167  0.1631 -0.0640
   45DPPC   C34 2234   0.966   2.869   2.072  0.0363  0.1744 -0.0784
   45DPPC   O35 2235   1.019   2.970   2.025  0.0513  0.0830 -0.2605
   45DPPC   C36 2236   0.960   2.849   2.223  0.8279  0.3716 -0.0129
   45DPPC   C37 2237   0.826   2.897   2.281  0.5063 -0.3908 -0.1132
   45DPPC   C38 2238   0.694   2.850   2.219  0.1286 -0.0153  0.3990
   45DPPC   C39 2239   0.574   2.925   2.276 -0.3022 -0.1554 -0.3131
   45DPPC   C40 2240   0.572   2.900   2.427 -0.2873  0.0770 -0.2731
   45DPPC   C41 2241   0.455   2.962   2.503 -0.1368  0.2516 -0.1830
   45DPPC   C42 2242   0.466   2.929   2.652 -0.3657  0.5462 -0.1001
   45DPPC   C43 2243   0.368   3.002   2.745  0.0332  0.2321  0.5775
   45DPPC   C44 2244   0.396   3.148   2.707 -0.3734  0.0560 -0.4285
   45DPPC   C45 2245   0.345   3.247   2.812  0.0102 -0.2879  0.0886
   45DPPC   C46 2246   0.370   3.388   2.757  0.2614 -0.4234 -0.1505
   45DPPC   C47 2247   0.259   3.426   2.659 -0.0729  0.0250  0.3935
   45DPPC   C48 2248   0.260   3.579   2.643 -0.1500 -0.0064  0.0762
   45DPPC   C49 2249   0.131   3.623   2.575 -0.0584  0.0903 -0.0354
   45DPPC   C50 2250   0.135   3.776   2.578 -0.1071  0.0873  0.2039
   46DPPC    C1 2251   1.163   3.343   0.978  0.2055 -0.3418 -0.0876
   46DPPC    C2 2252   1.162   3.494   1.179  0.4257  0.3944 -0.1008
   46DPPC    C3 2253   1.347   3.469   1.028 -0.1744  0.0290 -0.5665
   46DPPC    N4 2254   1.235   3.399   1.094 -0.0107  0.1287 -0.1790
   46DPPC    C5 2255   1.282   3.295   1.186 -0.4027 -0.0301 -0.1599
   46DPPC    C6 2256   1.183   3.182   1.216 -0.5373  0.0806 -0.1862
   46DPPC    O7 2257   1.097   3.218   1.325 -0.1234 -0.1456  0.2200
   46DPPC    P8 2258   1.071   3.082   1.407 -0.1559 -0.1549  0.1947
   46DPPC    O9 2259   0.946   3.105   1.483  0.0836  0.4086  0.4215
   46DPPC   O10 2260   1.061   2.973   1.307 -0.1911 -0.0779  0.1147
   46DPPC   O11 2261   1.206   3.077   1.495 -0.0070  0.1815 -0.0168
   46DPPC   C12 2262   1.194   3.187   1.585  0.0882  0.5145 -0.4062
   46DPPC   C13 2263   1.311   3.196   1.684  0.2452 -0.2924 -0.5171
   46DPPC   O14 2264   1.434   3.249   1.632  0.5057 -0.4402 -0.0502
   46DPPC   C15 2265   1.496   3.351   1.698  0.0089 -0.2055  0.0572
   46DPPC   O16 2266   1.578   3.416   1.634 -0.1702  0.2569  0.2941
   46DPPC   C17 2267   1.467   3.381   1.845  0.4574  0.3337  0.0365
   46DPPC   C18 2268   1.565   3.317   1.944 -0.2653 -0.2989  0.3532
   46DPPC   C19 2269   1.503   3.349   2.079 -0.2441  0.0176  0.2879
   46DPPC   C20 2270   1.359   3.299   2.093 -0.1287 -0.4229 -0.0935
   46DPPC   C21 2271   1.301   3.346   2.226  0.2290 -0.7859  0.1931
   46DPPC   C22 2272   1.154   3.304   2.232  0.2076 -0.7036  0.2493
   46DPPC   C23 2273   1.102   3.306   2.376 -0.2175 -0.1169  0.0965
   46DPPC   C24 2274   0.963   3.242   2.378 -0.3130  0.1003  0.5911
   46DPPC   C25 2275   0.911   3.239   2.521  0.2905  0.1171  0.8136
   46DPPC   C26 2276   0.998   3.147   2.607 -0.0074 -0.5567  0.3961
   46DPPC   C27 2277   0.959   3.157   2.755 -0.2100  0.1869  0.2956
   46DPPC   C28 2278   1.065   3.089   2.842 -0.1627  0.0063  0.0972
   46DPPC   C29 2279   1.088   2.944   2.796 -0.2574  0.1453 -0.3949
   46DPPC   C30 2280   1.180   2.881   2.900 -0.6236 -0.5472 -0.4852
   46DPPC   C31 2281   1.190   2.730   2.878 -0.3657 -0.6087  0.0194
   46DPPC   C32 2282   1.319   3.055   1.742 -0.0264  0.0136  0.2703
   46DPPC   O33 2283   1.366   3.033   1.876 -0.2037 -0.3805  0.2715
   46DPPC   C34 2284   1.398   2.903   1.898  0.3491 -0.3281 -0.1939
   46DPPC   O35 2285   1.380   2.814   1.815 -0.3719 -0.0758 -0.3226
   46DPPC   C36 2286   1.453   2.864   2.035  0.6470  0.3190 -0.1290
   46DPPC   C37 2287   1.385   2.947   2.144  0.5443 -0.0411  0.0819
   46DPPC   C38 2288   1.453   2.917   2.278  0.3755 -0.1126  0.1521
   46DPPC   C39 2289   1.377   2.986   2.392 -0.2610 -0.6591  0.0605
   46DPPC   C40 2290   1.309   2.884   2.484 -0.8303 -0.1920  0.1591
   46DPPC   C41 2291   1.422   2.811   2.557 -0.0066  0.6324 -0.2596
   46DPPC   C42 2292   1.499   2.906   2.648 -0.1991  0.3072  0.2478
   46DPPC   C43 2293   1.620   2.839   2.714 -0.1997  0.0352 -0.0249
   46DPPC   C44 2294   1.694   2.948   2.792 -0.0569 -0.0150 -0.0897
   46DPPC   C45 2295   1.603   3.007   2.900 -0.3995 -0.3231 -0.2065
   46DPPC   C46 2296   1.675   3.126   2.963 -0.6634 -0.1013 -0.3187
   46DPPC   C47 2297   1.592   3.166   3.085  0.1828 -0.3036  0.3418
   46DPPC   C48 2298   1.582   3.056   3.190 -0.5057 -0.4094  0.1715
   46DPPC   C49 2299   1.604   3.116   3.329 -0.1093 -0.2750  0.0508
   46DPPC   C50 2300   1.498   3.219   3.370 -0.3745 -0.2910 -0.5835
   47DPPC    C1 2301   1.544   4.163   0.999 -0.2409 -0.0389 -0.1367
   47DPPC    C2 2302   1.729   4.022   1.041  0.0787  0.0334 -0.1943
   47DPPC    C3 2303   1.707   4.233   1.137  0.1957 -0.0492 -0.2967
   47DPPC    N4 2304   1.631   4.111   1.105  0.0271  0.0592 -0.3077
   47DPPC    C5 2305   1.561   4.081   1.231 -0.4396  0.9921 -0.3378
   47DPPC    C6 2306   1.634   4.020   1.350 -0.5367  0.1482 -0.6998
   47DPPC    O7 2307   1.681   3.887   1.328 -0.6624 -0.0972  0.4564
   47DPPC    P8 2308   1.774   3.835   1.449 -0.0631 -0.3475 -0.1083
   47DPPC    O9 2309   1.820   3.696   1.430  0.0932 -0.1859 -0.9750
   47DPPC   O10 2310   1.868   3.933   1.507 -0.0403  0.0764 -0.8450
   47DPPC   O11 2311   1.650   3.841   1.551  0.1706  0.0388  0.1574
   47DPPC   C12 2312   1.657   3.729   1.640 -0.8182 -0.3539 -0.2494
   47DPPC   C13 2313   1.637   3.773   1.785 -0.4320 -0.7293 -0.0801
   47DPPC   O14 2314   1.741   3.728   1.873 -0.2957  0.0282  0.1499
   47DPPC   C15 2315   1.752   3.805   1.985 -0.7034  0.1818  0.0890
   47DPPC   O16 2316   1.800   3.917   1.967 -0.0561 -0.0558  0.2826
   47DPPC   C17 2317   1.783   3.732   2.116 -0.5921 -0.0340 -0.0579
   47DPPC   C18 2318   1.655   3.698   2.193 -0.5858 -0.3059 -0.1635
   47DPPC   C19 2319   1.607   3.823   2.267  0.2153 -0.1042  0.0218
   47DPPC   C20 2320   1.714   3.895   2.351 -0.0112  0.0444  0.1860
   47DPPC   C21 2321   1.684   4.033   2.407 -0.4291 -0.1842  0.5320
   47DPPC   C22 2322   1.817   4.107   2.422 -0.4199 -0.0293 -0.2593
   47DPPC   C23 2323   1.805   4.221   2.524 -0.2970 -0.1938 -0.0602
   47DPPC   C24 2324   1.943   4.281   2.551 -0.2912 -0.2265 -0.0172
   47DPPC   C25 2325   1.926   4.402   2.642  0.3229  0.5494 -0.9216
   47DPPC   C26 2326   2.070   4.449   2.669  0.2288  0.0323  0.5622
   47DPPC   C27 2327   2.067   4.567   2.766  0.0161  0.6707 -0.2129
   47DPPC   C28 2328   2.035   4.509   2.904 -0.1922 -0.1634 -0.6086
   47DPPC   C29 2329   2.044   4.628   2.999 -0.2358 -0.6424  0.0008
   47DPPC   C30 2330   2.034   4.582   3.145  0.0159  0.2632  0.3138
   47DPPC   C31 2331   2.024   4.703   3.238 -0.3204  0.4561  0.0291
   47DPPC   C32 2332   1.491   3.742   1.816 -0.4514 -0.2924  0.2755
   47DPPC   O33 2333   1.437   3.823   1.921  0.2987  0.0890  0.3761
   47DPPC   C34 2334   1.421   3.951   1.880  0.4398  0.0381  0.1614
   47DPPC   O35 2335   1.405   3.974   1.760 -0.1571 -0.3359  0.1691
   47DPPC   C36 2336   1.371   4.046   1.989  0.0379  0.0311 -0.0168
   47DPPC   C37 2337   1.218   4.036   1.995  0.0227  0.0589 -0.3374
   47DPPC   C38 2338   1.177   4.138   2.102 -0.0459 -0.4010  0.0784
   47DPPC   C39 2339   1.264   4.119   2.226  0.2295  0.1680 -0.0296
   47DPPC   C40 2340   1.209   4.212   2.335 -0.6515 -0.0363 -0.2928
   47DPPC   C41 2341   1.268   4.177   2.472 -0.1623  0.0520 -0.4757
   47DPPC   C42 2342   1.262   4.024   2.477  0.3742  0.0574  0.4012
   47DPPC   C43 2343   1.243   3.974   2.621 -0.0116  0.3143  0.4405
   47DPPC   C44 2344   1.227   3.822   2.615  0.6500  0.2538  0.1158
   47DPPC   C45 2345   1.218   3.745   2.746  0.3257  0.5486  0.2667
   47DPPC   C46 2346   1.328   3.752   2.852  0.4357 -0.4649  0.2321
   47DPPC   C47 2347   1.281   3.679   2.978 -0.7111 -0.0098  0.0823
   47DPPC   C48 2348   1.391   3.695   3.083 -0.4881  0.3329 -0.2011
   47DPPC   C49 2349   1.522   3.620   3.054 -0.2013  0.4678  0.7358
   47DPPC   C50 2350   1.645   3.647   3.141  0.3294  0.1929  0.0703
   48DPPC    C1 2351   4.484   2.048   1.293  0.3329  0.2407  0.4786
   48DPPC    C2 2352   4.439   2.198   1.482  0.3497  0.4822  0.2016
   48DPPC    C3 2353   4.399   1.964   1.502  0.1269 -0.1479  0.8659
   48DPPC    N4 2354   4.485   2.065   1.439 -0.4270  0.1052  0.5069
   48DPPC    C5 2355   4.621   2.049   1.493 -0.4196 -0.4687  0.3228
   48DPPC    C6 2356   4.701   1.924   1.456 -0.3439 -0.3807  0.1872
   48DPPC    O7 2357   4.653   1.802   1.515 -0.4146 -0.2510  0.3974
   48DPPC    P8 2358   4.733   1.692   1.429 -0.4787 -0.1332  0.1862
   48DPPC    O9 2359   4.663   1.563   1.444 -0.2817 -0.1556  0.9761
   48DPPC   O10 2360   4.777   1.734   1.294 -1.5189  0.0052 -0.1192
   48DPPC   O11 2361   4.853   1.670   1.534 -0.1152  0.1960 -0.1532
   48DPPC   C12 2362   4.801   1.646   1.665  0.5143  0.0558  0.0743
   48DPPC   C13 2363   4.899   1.681   1.777 -0.2064  0.4647  0.5888
   48DPPC   O14 2364   4.941   1.819   1.784  0.1175  0.3942  0.0797
   48DPPC   C15 2365   4.851   1.911   1.827  0.1159  0.7205 -0.6054
   48DPPC   O16 2366   4.729   1.893   1.822  0.0735  0.9200 -0.3406
   48DPPC   C17 2367   4.902   2.046   1.877 -0.1561  0.5729  0.0844
   48DPPC   C18 2368   4.934   2.051   2.027 -0.0269 -0.6461  0.1065
   48DPPC   C19 2369   4.806   2.059   2.109  0.0451  0.1657  0.1466
   48DPPC   C20 2370   4.843   2.061   2.258  0.1833  0.3243  0.1103
   48DPPC   C21 2371   4.884   2.204   2.292  0.4829  0.1932  0.3120
   48DPPC   C22 2372   4.922   2.219   2.439  0.3685 -0.0080  0.3632
   48DPPC   C23 2373   4.800   2.196   2.528  0.1246 -0.3870 -0.0707
   48DPPC   C24 2374   4.835   2.176   2.675 -0.1810  0.2383  0.0916
   48DPPC   C25 2375   4.714   2.116   2.747  0.1980 -0.2187  0.3517
   48DPPC   C26 2376   4.758   2.073   2.887  0.3908 -0.6121  0.1714
   48DPPC   C27 2377   4.648   2.007   2.970 -0.2411  0.1436 -0.0581
   48DPPC   C28 2378   4.702   1.959   3.105 -0.2499  0.0089 -0.1016
   48DPPC   C29 2379   4.581   1.898   3.176  0.1947 -0.5678  0.1683
   48DPPC   C30 2380   4.602   1.870   3.325  0.2414 -0.2069  0.2308
   48DPPC   C31 2381   4.710   1.767   3.359  0.5203  0.1517  0.4364
   48DPPC   C32 2382   5.023   1.595   1.754 -0.2911  0.4852  0.0430
   48DPPC   O33 2383   4.987   1.458   1.770 -0.5867  0.5795  0.1926
   48DPPC   C34 2384   5.088   1.368   1.753 -0.4411  0.7392  0.2118
   48DPPC   O35 2385   5.171   1.382   1.663 -0.4715 -0.0983  0.0473
   48DPPC   C36 2386   5.070   1.230   1.817  0.1452  0.3422 -0.4689
   48DPPC   C37 2387   5.133   1.229   1.956 -0.5907 -0.1957 -0.1248
   48DPPC   C38 2388   5.133   1.084   2.005 -0.0984 -0.2496 -0.2707
   48DPPC   C39 2389   5.154   1.071   2.156  0.2896  0.1274 -0.2901
   48DPPC   C40 2390   5.288   1.133   2.195  0.4305 -0.1767 -0.2953
   48DPPC   C41 2391   5.315   1.109   2.344 -0.1349 -0.1341 -0.1831
   48DPPC   C42 2392   5.439   1.193   2.377 -0.1442 -0.1959  0.0089
   48DPPC   C43 2393   5.480   1.184   2.524 -0.5785  0.3580  0.1666
   48DPPC   C44 2394   5.611   1.261   2.542 -0.0089 -0.5851  0.1137
   48DPPC   C45 2395   5.727   1.208   2.457  0.1058  0.0161 -0.1108
   48DPPC   C46 2396   5.855   1.259   2.523  0.1522 -0.3147  0.0558
   48DPPC   C47 2397   5.873   1.203   2.665  0.1484 -0.1236  0.1318
   48DPPC   C48 2398   5.974   1.297   2.730  0.3090 -0.4201  0.3139
   48DPPC   C49 2399   6.112   1.293   2.663 -0.1284  0.0292 -0.6308
   48DPPC   C50 2400   6.208   1.384   2.739 -0.2784 -0.3895  0.0652
   49DPPC    C1 2401   6.252   1.607   0.892  0.0484 -0.3189 -0.0183
   49DPPC    C2 2402   6.040   1.618   0.788 -0.0904  0.2507  0.0139
   49DPPC    C3 2403   6.120   1.804   0.915  0.0935  0.0417  0.2625
   49DPPC    N4 2404   6.115   1.658   0.907  0.1777  0.0554 -0.0883
   49DPPC    C5 2405   6.065   1.599   1.033  0.5035 -0.0259  0.0040
   49DPPC    C6 2406   5.918   1.604   1.076  0.5117 -0.4924  0.0952
   49DPPC    O7 2407   5.886   1.722   1.150 -0.1910 -0.7128  0.1436
   49DPPC    P8 2408   5.727   1.742   1.168 -0.1877 -0.1730 -0.4085
   49DPPC    O9 2409   5.753   1.873   1.232  0.2201 -0.3208 -0.2727
   49DPPC   O10 2410   5.691   1.726   1.025 -0.8621 -0.3778 -0.2196
   49DPPC   O11 2411   5.700   1.617   1.266  0.3445 -0.0168 -0.0598
   49DPPC   C12 2412   5.732   1.642   1.403  0.1109  0.2605 -0.0533
   49DPPC   C13 2413   5.657   1.544   1.494  0.0137  0.3673 -0.0187
   49DPPC   O14 2414   5.591   1.596   1.610  0.1117  0.3399  0.0487
   49DPPC   C15 2415   5.469   1.654   1.603 -0.0920 -0.0460  0.3199
   49DPPC   O16 2416   5.390   1.631   1.512  0.1461 -0.0146  0.1046
   49DPPC   C17 2417   5.434   1.741   1.724  0.1535  0.3815  0.0866
   49DPPC   C18 2418   5.343   1.670   1.824 -0.1703 -0.1847 -0.6047
   49DPPC   C19 2419   5.296   1.761   1.937 -0.2581 -0.3427 -0.5139
   49DPPC   C20 2420   5.403   1.845   2.006 -0.0556 -0.5399 -0.5880
   49DPPC   C21 2421   5.348   1.925   2.125  0.5163  0.2042 -0.8154
   49DPPC   C22 2422   5.448   2.033   2.166  0.4135 -0.0238  0.0465
   49DPPC   C23 2423   5.389   2.100   2.291 -0.1793  0.2487 -0.3739
   49DPPC   C24 2424   5.468   2.221   2.341 -0.7894  0.8902 -0.9373
   49DPPC   C25 2425   5.422   2.273   2.477  0.2420 -0.0955 -0.1909
   49DPPC   C26 2426   5.510   2.395   2.507 -0.5905  0.5458 -0.3209
   49DPPC   C27 2427   5.468   2.435   2.648  0.0555 -0.2564  0.1063
   49DPPC   C28 2428   5.550   2.345   2.740  0.2153 -0.2346 -0.0148
   49DPPC   C29 2429   5.496   2.362   2.882 -0.1845  0.8370 -0.2871
   49DPPC   C30 2430   5.351   2.314   2.877  0.0259  0.1713 -0.0906
   49DPPC   C31 2431   5.280   2.330   3.011  0.3299  0.8732 -0.0129
   49DPPC   C32 2432   5.740   1.417   1.506  0.0510  0.4114  0.1874
   49DPPC   O33 2433   5.870   1.450   1.556  0.1460  0.2750  0.0331
   49DPPC   C34 2434   5.946   1.346   1.600 -0.3055 -0.0076  0.1457
   49DPPC   O35 2435   5.888   1.237   1.608 -0.4032  0.0542  0.2854
   49DPPC   C36 2436   6.089   1.360   1.651 -0.2601  0.6530 -0.1557
   49DPPC   C37 2437   6.088   1.432   1.785  0.1556  0.0321  0.1845
   49DPPC   C38 2438   6.214   1.410   1.869  0.0404 -0.1136  0.3194
   49DPPC   C39 2439   6.279   1.541   1.916  0.0670  0.1016 -0.3099
   49DPPC   C40 2440   6.372   1.504   2.032  0.2505 -0.1399 -0.5339
   49DPPC   C41 2441   6.432   1.637   2.077 -0.1954 -0.1552  0.1203
   49DPPC   C42 2442   6.547   1.700   1.999  0.0121 -0.0999  0.4702
   49DPPC   C43 2443   6.661   1.598   1.994 -0.1807 -0.2914 -0.1511
   49DPPC   C44 2444   6.791   1.653   1.935 -0.2758 -0.0078 -0.0997
   49DPPC   C45 2445   6.902   1.552   1.967  0.0359  0.3392 -0.0817
   49DPPC   C46 2446   6.912   1.513   2.115 -0.2133  0.6133  0.0097
   49DPPC   C47 2447   7.018   1.407   2.147 -0.2346  0.7008  0.3722
   49DPPC   C48 2448   7.044   1.391   2.297 -0.1736  0.5590  0.3466
   49DPPC   C49 2449   6.925   1.342   2.379  0.1163 -0.0960  0.3750
   49DPPC   C50 2450   6.949   1.344   2.530  0.2377  0.4551  0.3498
   50DPPC    C1 2451   5.036   5.233   1.296  0.1383  0.1358  0.8833
   50DPPC    C2 2452   4.853   5.311   1.439 -0.0093 -0.1555 -0.4831
   50DPPC    C3 2453   4.822   5.139   1.285  0.3822 -0.5041 -0.0399
   50DPPC    N4 2454   4.893   5.266   1.305 -0.0356 -0.1974 -0.4768
   50DPPC    C5 2455   4.854   5.369   1.207  0.3800  0.2379 -0.1909
   50DPPC    C6 2456   4.870   5.520   1.221  0.4923  0.2748 -0.6978
   50DPPC    O7 2457   4.997   5.548   1.281  0.3515  0.4651 -0.4860
   50DPPC    P8 2458   5.011   5.705   1.313  0.0956  0.3676  0.1133
   50DPPC    O9 2459   5.136   5.764   1.261  0.2031 -0.0415 -0.0941
   50DPPC   O10 2460   4.881   5.776   1.305  0.0285  0.1780 -0.5127
   50DPPC   O11 2461   5.031   5.696   1.473 -0.3987  0.0619  0.1607
   50DPPC   C12 2462   5.148   5.615   1.486 -0.2625  0.2129 -0.1148
   50DPPC   C13 2463   5.179   5.601   1.635 -0.3791  0.0343 -0.1057
   50DPPC   O14 2464   5.132   5.485   1.703 -0.3366  0.3424  0.4587
   50DPPC   C15 2465   5.225   5.393   1.740 -0.1605  0.6059  0.6672
   50DPPC   O16 2466   5.333   5.403   1.683 -0.4597 -0.6745 -0.1637
   50DPPC   C17 2467   5.164   5.260   1.784  0.9632 -0.1275  0.0663
   50DPPC   C18 2468   5.140   5.247   1.935  0.0503 -0.8453 -0.1327
   50DPPC   C19 2469   5.036   5.344   1.989  0.3241 -0.6808  0.0992
   50DPPC   C20 2470   5.053   5.354   2.141  0.6019  0.0341  0.0257
   50DPPC   C21 2471   4.912   5.379   2.194  0.1980 -0.5414 -0.7524
   50DPPC   C22 2472   4.904   5.364   2.346 -0.4372 -0.4146 -0.7691
   50DPPC   C23 2473   4.757   5.377   2.388 -0.1802 -0.4744  0.1639
   50DPPC   C24 2474   4.741   5.380   2.541 -0.6486  0.2135  0.1043
   50DPPC   C25 2475   4.595   5.375   2.585 -0.6381  0.7855  0.2153
   50DPPC   C26 2476   4.588   5.380   2.738  0.7604 -0.5598  0.3508
   50DPPC   C27 2477   4.626   5.246   2.801 -0.2438 -0.9555  0.1530
   50DPPC   C28 2478   4.702   5.264   2.933 -0.3677 -0.2502  0.1350
   50DPPC   C29 2479   4.677   5.145   3.026  0.3347 -0.5001  0.0093
   50DPPC   C30 2480   4.750   5.144   3.160  0.5416 -0.1508 -0.0989
   50DPPC   C31 2481   4.707   5.029   3.252 -0.4510 -0.0261 -0.3905
   50DPPC   C32 2482   5.136   5.727   1.710  0.2260 -0.1907  0.6281
   50DPPC   O33 2483   5.187   5.737   1.843  0.9651  0.0504  0.3311
   50DPPC   C34 2484   5.174   5.849   1.920 -0.5137  0.1184  0.0010
   50DPPC   O35 2485   5.089   5.934   1.893 -0.3545  0.3589  0.2583
   50DPPC   C36 2486   5.235   5.843   2.060  0.1803 -0.1849 -0.3081
   50DPPC   C37 2487   5.132   5.825   2.173 -0.0223 -0.0773 -0.4751
   50DPPC   C38 2488   5.189   5.802   2.313 -0.0067  0.4104 -0.3969
   50DPPC   C39 2489   5.083   5.734   2.400  0.4506  0.2295  0.0209
   50DPPC   C40 2490   5.147   5.735   2.540  0.5692  0.2536 -0.0337
   50DPPC   C41 2491   5.074   5.643   2.638  0.4125  0.0587 -0.3302
   50DPPC   C42 2492   5.126   5.645   2.782 -0.0181 -0.7369 -0.1602
   50DPPC   C43 2493   5.060   5.528   2.856 -0.2246 -0.5692 -0.0811
   50DPPC   C44 2494   5.125   5.515   2.994 -0.5236  0.3163  0.1506
   50DPPC   C45 2495   5.067   5.405   3.083  0.1938 -0.0249  0.2031
   50DPPC   C46 2496   5.147   5.389   3.213 -0.0556  0.2046  0.3856
   50DPPC   C47 2497   5.069   5.297   3.307 -0.1446 -0.5377 -0.4051
   50DPPC   C48 2498   5.152   5.279   3.434  0.3129 -0.0088 -0.6263
   50DPPC   C49 2499   5.291   5.228   3.394  0.3096 -0.2759 -0.3005
   50DPPC   C50 2500   5.370   5.201   3.523 -0.1040 -0.1255 -0.0119
   51DPPC    C1 2501   5.230   6.281   1.763 -0.6170  0.1234 -0.6080
   51DPPC    C2 2502   5.340   6.383   1.945  0.3928 -0.8426 -0.3718
   51DPPC    C3 2503   5.139   6.264   1.978 -0.2839 -0.3157 -0.8463
   51DPPC    N4 2504   5.208   6.357   1.887  0.2119 -0.1375 -0.2927
   51DPPC    C5 2505   5.147   6.488   1.862  0.0686 -0.1614 -0.0766
   51DPPC    C6 2506   5.001   6.482   1.816  0.0391  0.1018 -0.0183
   51DPPC    O7 2507   4.936   6.609   1.806 -0.0844  0.0653  0.3061
   51DPPC    P8 2508   4.782   6.599   1.760 -0.0529 -0.1509  0.2477
   51DPPC    O9 2509   4.757   6.681   1.640  0.0066  0.1912  0.4673
   51DPPC   O10 2510   4.742   6.456   1.758  0.0630 -0.1807  0.0442
   51DPPC   O11 2511   4.717   6.658   1.895 -0.2274 -0.2678  0.2160
   51DPPC   C12 2512   4.760   6.794   1.908  0.5320 -0.4670 -0.1336
   51DPPC   C13 2513   4.792   6.847   2.048 -0.0914 -0.0107 -0.1583
   51DPPC   O14 2514   4.834   6.985   2.042 -0.3093  0.0742  0.2870
   51DPPC   C15 2515   4.745   7.085   2.019 -0.0298  0.2104 -0.2054
   51DPPC   O16 2516   4.639   7.064   1.960 -0.0364 -0.9055  0.1831
   51DPPC   C17 2517   4.782   7.229   2.057  0.5480  0.1687 -0.5917
   51DPPC   C18 2518   4.719   7.303   2.176  0.5863 -0.4732 -0.1672
   51DPPC   C19 2519   4.567   7.311   2.190  0.5735  0.0071 -0.5612
   51DPPC   C20 2520   4.527   7.391   2.314 -0.3871 -0.5781 -0.4876
   51DPPC   C21 2521   4.565   7.324   2.446 -0.1132 -0.2957 -0.4216
   51DPPC   C22 2522   4.478   7.202   2.477 -0.0151 -0.2488  0.0394
   51DPPC   C23 2523   4.505   7.129   2.609  0.4850  0.0225  0.0897
   51DPPC   C24 2524   4.412   7.010   2.631  0.0520  0.4714  0.7471
   51DPPC   C25 2525   4.432   6.941   2.766 -0.5694 -0.2902  0.4622
   51DPPC   C26 2526   4.571   6.877   2.768  0.0105  0.8996 -0.3566
   51DPPC   C27 2527   4.627   6.842   2.905  0.3297 -0.0779 -0.7262
   51DPPC   C28 2528   4.776   6.808   2.890  0.3133 -0.3535 -0.2893
   51DPPC   C29 2529   4.835   6.778   3.028  0.3480  0.3112 -0.1537
   51DPPC   C30 2530   4.978   6.727   3.009  0.3450  0.0782  0.4166
   51DPPC   C31 2531   5.050   6.674   3.133 -0.2381  0.3184  0.8611
   51DPPC   C32 2532   4.902   6.750   2.091 -0.1099  0.2333  0.4520
   51DPPC   O33 2533   4.899   6.724   2.231 -0.0273 -0.5372  0.3197
   51DPPC   C34 2534   4.983   6.626   2.272  0.1979 -0.6588 -0.4242
   51DPPC   O35 2535   5.058   6.575   2.189  0.6052 -0.6806 -0.0532
   51DPPC   C36 2536   4.974   6.584   2.419  0.0856  0.7362 -0.0236
   51DPPC   C37 2537   4.833   6.548   2.466  0.3321  0.2575  0.3526
   51DPPC   C38 2538   4.831   6.477   2.602  0.1089 -0.3916  0.0142
   51DPPC   C39 2539   4.705   6.495   2.687  0.2034  0.6706 -0.0598
   51DPPC   C40 2540   4.740   6.440   2.825 -0.3003  0.5407  0.0206
   51DPPC   C41 2541   4.624   6.450   2.924 -0.3304 -0.0589  0.0470
   51DPPC   C42 2542   4.643   6.355   3.043  1.2136  0.3629  0.1595
   51DPPC   C43 2543   4.525   6.372   3.138  0.5746 -0.1667 -0.5230
   51DPPC   C44 2544   4.512   6.519   3.179 -0.1797 -0.3126 -0.2163
   51DPPC   C45 2545   4.395   6.549   3.273 -0.2348 -0.1646 -0.3315
   51DPPC   C46 2546   4.390   6.691   3.331 -0.2232 -0.1735 -0.3090
   51DPPC   C47 2547   4.386   6.796   3.221 -0.2796 -0.0152 -0.1559
   51DPPC   C48 2548   4.393   6.942   3.266  0.5442 -0.0283 -0.2199
   51DPPC   C49 2549   4.328   7.017   3.149 -0.1821 -0.4914 -0.1164
   51DPPC   C50 2550   4.329   7.169   3.161  0.1381 -0.4914 -0.1283
   52DPPC    C1 2551   5.077   1.494   1.364  0.2120 -0.4807  0.0036
   52DPPC    C2 2552   5.142   1.449   1.144 -0.2656 -0.3289 -0.4442
   52DPPC    C3 2553   4.927   1.478   1.168 -0.2512  0.1387 -0.2120
   52DPPC    N4 2554   5.038   1.419   1.244 -0.2189  0.1485 -0.2517
   52DPPC    C5 2555   4.999   1.281   1.275 -0.1938  0.1624 -0.1597
   52DPPC    C6 2556   5.086   1.168   1.219 -0.8807 -0.0873 -0.7356
   52DPPC    O7 2557   5.065   1.056   1.305  0.2085  0.4331  0.2387
   52DPPC    P8 2558   5.150   0.933   1.245  0.0212  0.2740  0.2973
   52DPPC    O9 2559   5.066   0.813   1.224  0.5926 -0.0709 -0.0458
   52DPPC   O10 2560   5.253   0.990   1.156 -0.2220  0.0235 -0.1467
   52DPPC   O11 2561   5.239   0.902   1.376 -0.4368 -0.4625  0.4395
   52DPPC   C12 2562   5.170   0.821   1.471 -0.5268  0.0224  0.7875
   52DPPC   C13 2563   5.242   0.815   1.606 -0.2537  0.1610  0.6479
   52DPPC   O14 2564   5.156   0.777   1.714 -0.5909 -0.1838  0.2608
   52DPPC   C15 2565   5.215   0.673   1.779 -0.3578 -0.1776  0.0593
   52DPPC   O16 2566   5.309   0.606   1.737  0.0780  0.5378 -0.1234
   52DPPC   C17 2567   5.146   0.628   1.908 -0.5904  0.4148  0.1464
   52DPPC   C18 2568   5.249   0.625   2.021  0.0112  0.2694 -0.3956
   52DPPC   C19 2569   5.173   0.634   2.154  0.1609 -0.2429 -0.2714
   52DPPC   C20 2570   5.267   0.663   2.271 -0.4981  0.0828  0.1828
   52DPPC   C21 2571   5.189   0.662   2.402  0.6379  0.6074  0.8776
   52DPPC   C22 2572   5.073   0.762   2.407  0.0804  0.0520 -0.4765
   52DPPC   C23 2573   5.017   0.760   2.550  0.5896  0.3324 -0.2695
   52DPPC   C24 2574   4.902   0.855   2.582 -0.0555 -0.3705 -0.4580
   52DPPC   C25 2575   4.969   0.992   2.569  0.1914 -0.4572 -0.0944
   52DPPC   C26 2576   4.863   1.098   2.596  0.2416 -0.4393  0.0325
   52DPPC   C27 2577   4.922   1.239   2.595  0.3268 -0.4771 -0.2365
   52DPPC   C28 2578   5.051   1.232   2.677  0.2640 -0.2216 -0.1150
   52DPPC   C29 2579   5.122   1.368   2.671  0.0292 -0.0879  0.0841
   52DPPC   C30 2580   5.246   1.372   2.759  0.0336 -0.4210  0.0969
   52DPPC   C31 2581   5.209   1.365   2.908 -0.3435  0.2741  0.0423
   52DPPC   C32 2582   5.300   0.956   1.623  0.1683  0.0801 -0.1058
   52DPPC   O33 2583   5.436   0.951   1.667  0.2618  0.0158 -0.3942
   52DPPC   C34 2584   5.499   1.072   1.668  0.2311  0.0315 -0.3186
   52DPPC   O35 2585   5.454   1.158   1.593  0.2074  0.1079 -0.2166
   52DPPC   C36 2586   5.629   1.093   1.746  0.6205  0.2918 -1.0255
   52DPPC   C37 2587   5.618   1.215   1.837  0.4667 -0.1544 -0.4340
   52DPPC   C38 2588   5.730   1.218   1.941 -0.1257 -0.2120  0.2070
   52DPPC   C39 2589   5.757   1.356   2.003  0.1771  0.0672 -0.5456
   52DPPC   C40 2590   5.631   1.433   2.043  0.3998  0.4590 -0.5995
   52DPPC   C41 2591   5.680   1.559   2.116  0.2129  0.4201 -0.4058
   52DPPC   C42 2592   5.581   1.609   2.220 -0.4256  0.0223 -0.8168
   52DPPC   C43 2593   5.644   1.724   2.299  0.0572 -0.5593 -0.3534
   52DPPC   C44 2594   5.571   1.746   2.432  0.0718 -0.2716 -0.3937
   52DPPC   C45 2595   5.599   1.635   2.533  0.1887  0.1310  0.0220
   52DPPC   C46 2596   5.561   1.682   2.673  0.0216 -0.1387  0.0676
   52DPPC   C47 2597   5.609   1.565   2.760  0.1782 -0.2971 -0.2293
   52DPPC   C48 2598   5.550   1.552   2.901  0.2324  0.0879 -0.1695
   52DPPC   C49 2599   5.600   1.427   2.974 -0.0261  0.0404 -0.0707
   52DPPC   C50 2600   5.543   1.418   3.115 -0.3020 -0.6197 -0.2204
   53DPPC    C1 2601   5.762   5.570   1.231 -0.1302  0.0510 -0.0522
   53DPPC    C2 2602   5.760   5.732   1.380  0.3062  0.3511 -0.0675
   53DPPC    C3 2603   5.723   5.797   1.153 -0.1161  0.2402 -0.2582
   53DPPC    N4 2604   5.803   5.711   1.241 -0.2926  0.1112 -0.2232
   53DPPC    C5 2605   5.948   5.731   1.221 -0.2601 -0.4222 -0.5475
   53DPPC    C6 2606   6.048   5.639   1.290  0.1977  0.3753 -0.1265
   53DPPC    O7 2607   6.037   5.619   1.431  0.4236  0.3296 -0.1149
   53DPPC    P8 2608   6.091   5.471   1.465 -0.0298  0.2128  0.0978
   53DPPC    O9 2609   5.987   5.379   1.414  0.2721  0.1612 -0.4302
   53DPPC   O10 2610   6.224   5.468   1.400 -0.3747  0.7050 -0.6405
   53DPPC   O11 2611   6.091   5.480   1.626  0.0943  0.3959  0.0872
   53DPPC   C12 2612   6.218   5.537   1.661  0.6597 -0.2088 -0.9179
   53DPPC   C13 2613   6.226   5.690   1.654  0.0332 -0.1130  0.1996
   53DPPC   O14 2614   6.356   5.747   1.671 -0.0023 -0.0469  0.2456
   53DPPC   C15 2615   6.378   5.876   1.636 -0.0416 -0.1080 -0.0040
   53DPPC   O16 2616   6.309   5.937   1.555  0.1055  0.2741  0.1529
   53DPPC   C17 2617   6.517   5.928   1.673 -0.0014 -0.4796  0.3593
   53DPPC   C18 2618   6.594   5.860   1.787  0.7030  0.0810  0.2285
   53DPPC   C19 2619   6.538   5.910   1.921 -0.1474 -0.2041 -0.0156
   53DPPC   C20 2620   6.617   5.840   2.032 -0.0262 -0.1526 -0.0694
   53DPPC   C21 2621   6.596   5.904   2.169 -0.1642  0.7405 -0.4992
   53DPPC   C22 2622   6.449   5.917   2.210 -0.1726 -0.2014 -0.1883
   53DPPC   C23 2623   6.444   6.004   2.336  0.4430  0.1663 -0.4120
   53DPPC   C24 2624   6.528   5.942   2.447 -0.1827  0.5329  0.2704
   53DPPC   C25 2625   6.519   6.038   2.566  0.2035  0.4705  0.3498
   53DPPC   C26 2626   6.569   5.972   2.695 -0.7193 -0.8751  0.0393
   53DPPC   C27 2627   6.561   6.070   2.813 -0.6132 -0.7271 -0.0750
   53DPPC   C28 2628   6.600   6.001   2.944  0.1828  0.6340  0.4219
   53DPPC   C29 2629   6.601   6.100   3.061 -0.1849  0.6985  0.3718
   53DPPC   C30 2630   6.625   6.031   3.195  0.5494 -0.0501 -0.1367
   53DPPC   C31 2631   6.608   6.131   3.310  0.4331 -0.0543 -0.1510
   53DPPC   C32 2632   6.116   5.745   1.745 -0.1095 -0.1849  0.0724
   53DPPC   O33 2633   6.116   5.706   1.883 -0.0688  0.2302  0.1926
   53DPPC   C34 2634   6.005   5.721   1.959 -0.1542 -0.3810  0.1952
   53DPPC   O35 2635   5.898   5.741   1.901  0.1021  0.4083 -0.0273
   53DPPC   C36 2636   6.017   5.694   2.109 -0.1510  0.3597  0.3332
   53DPPC   C37 2637   5.921   5.584   2.156 -0.3836  0.5301  0.2565
   53DPPC   C38 2638   5.935   5.559   2.306  0.3533  0.2614  0.1479
   53DPPC   C39 2639   5.856   5.437   2.355  0.7050  0.1318  0.3976
   53DPPC   C40 2640   5.849   5.425   2.507 -0.3101 -0.4135  0.3196
   53DPPC   C41 2641   5.777   5.299   2.556 -0.4844 -0.1406  0.7733
   53DPPC   C42 2642   5.732   5.324   2.700  0.1294  0.6688  0.8320
   53DPPC   C43 2643   5.621   5.226   2.739  0.5149 -0.1491 -0.1071
   53DPPC   C44 2644   5.581   5.232   2.886 -0.7204 -0.2650 -0.4262
   53DPPC   C45 2645   5.683   5.151   2.967 -0.8197 -0.2451 -0.2824
   53DPPC   C46 2646   5.649   5.161   3.116 -0.1696  0.4310 -0.1744
   53DPPC   C47 2647   5.751   5.074   3.191 -0.2870  0.4786  0.0395
   53DPPC   C48 2648   5.696   5.088   3.334 -0.4745 -0.2331  0.0408
   53DPPC   C49 2649   5.760   4.994   3.436 -0.1439 -0.2339 -0.1642
   53DPPC   C50 2650   5.686   5.015   3.568 -0.2462  0.7600 -0.3750
   54DPPC    C1 2651   5.303   0.026   1.278  0.3296  0.4689  0.1735
   54DPPC    C2 2652   5.329  -0.136   1.104  0.7133 -0.2633  0.3016
   54DPPC    C3 2653   5.494   0.010   1.129  0.2632  0.1864  0.5192
   54DPPC    N4 2654   5.398  -0.064   1.211  0.1719  0.1490  0.3802
   54DPPC    C5 2655   5.461  -0.168   1.295  0.1774 -0.2854 -0.1606
   54DPPC    C6 2656   5.493  -0.139   1.441 -0.1744 -0.0067 -0.1371
   54DPPC    O7 2657   5.550  -0.252   1.508 -0.2330  0.3739  0.5685
   54DPPC    P8 2658   5.440  -0.351   1.571 -0.1481  0.2064  0.4542
   54DPPC    O9 2659   5.315  -0.273   1.550 -0.1193 -0.0564 -0.8106
   54DPPC   O10 2660   5.444  -0.489   1.517  0.1372  0.2870  0.2659
   54DPPC   O11 2661   5.501  -0.352   1.720  0.4122  0.2275  0.2262
   54DPPC   C12 2662   5.572  -0.474   1.740  0.3014  0.1669  0.2459
   54DPPC   C13 2663   5.608  -0.512   1.884  0.2665 -0.2118  0.1562
   54DPPC   O14 2664   5.517  -0.595   1.957 -0.2097  0.0146 -0.1724
   54DPPC   C15 2665   5.520  -0.726   1.921  0.2499 -0.1359  0.3954
   54DPPC   O16 2666   5.598  -0.766   1.834 -0.2289  0.4422 -0.3094
   54DPPC   C17 2667   5.453  -0.830   2.012 -0.0376 -0.2258  0.0823
   54DPPC   C18 2668   5.512  -0.815   2.152 -0.4908  0.8950  0.1695
   54DPPC   C19 2669   5.411  -0.873   2.251 -0.1084  0.1048  0.1060
   54DPPC   C20 2670   5.465  -0.871   2.394 -0.5924 -0.2839  0.2976
   54DPPC   C21 2671   5.378  -0.920   2.510  0.2492 -0.1423  1.0033
   54DPPC   C22 2672   5.340  -1.064   2.475 -0.0426  0.1258  0.1945
   54DPPC   C23 2673   5.288  -1.143   2.595  0.3556 -0.1107  0.2110
   54DPPC   C24 2674   5.139  -1.110   2.602  0.2894 -0.3706 -0.0082
   54DPPC   C25 2675   5.059  -1.199   2.697  0.6949 -0.6618  0.0666
   54DPPC   C26 2676   5.126  -1.195   2.834 -0.3924  0.4951  0.5872
   54DPPC   C27 2677   5.061  -1.310   2.911 -0.4356  0.2292  0.1570
   54DPPC   C28 2678   5.132  -1.324   3.046 -0.1000  0.0574 -0.0363
   54DPPC   C29 2679   5.075  -1.426   3.145  0.1085 -0.0964 -0.0731
   54DPPC   C30 2680   5.155  -1.433   3.275  0.4627 -0.7860 -0.3266
   54DPPC   C31 2681   5.079  -1.510   3.384  0.4034  0.1237  0.2815
   54DPPC   C32 2682   5.667  -0.386   1.948  0.1670  0.1679 -0.4932
   54DPPC   O33 2683   5.662  -0.354   2.087  0.3577 -0.1289 -0.4168
   54DPPC   C34 2684   5.553  -0.288   2.135  0.4835 -0.3368  0.1574
   54DPPC   O35 2685   5.480  -0.212   2.073  0.1270 -0.1041  0.8481
   54DPPC   C36 2686   5.551  -0.297   2.288  0.2487 -0.1281  0.1654
   54DPPC   C37 2687   5.538  -0.159   2.353  0.2943 -0.0679  0.0469
   54DPPC   C38 2688   5.545  -0.177   2.504  0.4260  0.0686  0.0576
   54DPPC   C39 2689   5.594  -0.049   2.572 -0.1024  0.4506 -0.2709
   54DPPC   C40 2690   5.559  -0.035   2.721  0.3181  0.0851 -0.1356
   54DPPC   C41 2691   5.591   0.101   2.783  0.6234 -0.1434  0.2179
   54DPPC   C42 2692   5.536   0.114   2.925  0.2048 -0.2401  0.0689
   54DPPC   C43 2693   5.599   0.005   3.012  0.1048 -0.4526 -0.1225
   54DPPC   C44 2694   5.495  -0.023   3.121  0.3202  0.1702  0.2518
   54DPPC   C45 2695   5.545  -0.149   3.192  0.2736  0.0462  0.0653
   54DPPC   C46 2696   5.463  -0.190   3.315  0.0374 -0.8517 -0.3793
   54DPPC   C47 2697   5.530  -0.297   3.401  0.2169 -0.3390  0.1282
   54DPPC   C48 2698   5.477  -0.288   3.544  0.6869  0.2863  0.2665
   54DPPC   C49 2699   5.580  -0.343   3.642  0.2609  0.0813  0.6018
   54DPPC   C50 2700   5.514  -0.440   3.741  0.1463 -0.1398  0.3123
   55DPPC    C1 2701   6.182   0.062   1.701 -0.6022 -0.2248  0.2693
   55DPPC    C2 2702   6.177   0.247   1.540  0.0219  0.3329 -0.5191
   55DPPC    C3 2703   6.208   0.021   1.474  0.2849  0.5241  0.3538
   55DPPC    N4 2704   6.137   0.108   1.568  0.0978  0.4670  0.2662
   55DPPC    C5 2705   5.997   0.073   1.539  0.2570  0.2146 -0.1949
   55DPPC    C6 2706   5.893   0.075   1.650  0.1450 -0.1165 -0.2943
   55DPPC    O7 2707   5.757   0.051   1.613  0.0656  0.0304 -0.1017
   55DPPC    P8 2708   5.681  -0.000   1.745  0.2486 -0.1047 -0.0482
   55DPPC    O9 2709   5.543   0.014   1.694  0.4051  0.1089 -0.4166
   55DPPC   O10 2710   5.752  -0.126   1.777 -0.0074 -0.1331  0.4085
   55DPPC   O11 2711   5.715   0.113   1.854 -0.1434 -0.1576  0.1317
   55DPPC   C12 2712   5.737   0.050   1.980 -0.0343 -0.2355  0.0737
   55DPPC   C13 2713   5.838   0.123   2.070  0.4901 -0.2591 -0.4874
   55DPPC   O14 2714   5.911   0.047   2.168 -0.6098 -0.2630  0.3590
   55DPPC   C15 2715   5.992  -0.055   2.130  0.8210  0.8737  0.2424
   55DPPC   O16 2716   6.026  -0.076   2.014 -0.4444 -0.1295  0.0294
   55DPPC   C17 2717   6.056  -0.127   2.249 -0.4072 -0.3998  0.1507
   55DPPC   C18 2718   6.066  -0.050   2.381 -0.6152  0.0641 -0.1007
   55DPPC   C19 2719   6.084  -0.148   2.497 -0.1732  0.2086 -0.0441
   55DPPC   C20 2720   6.086  -0.083   2.636 -0.2768 -0.5000  0.2949
   55DPPC   C21 2721   6.130  -0.189   2.738  0.2280 -0.3544  0.2332
   55DPPC   C22 2722   6.099  -0.141   2.880  0.4006  0.3771  0.0278
   55DPPC   C23 2723   6.134  -0.254   2.976  0.5258  0.5726  0.2128
   55DPPC   C24 2724   6.076  -0.223   3.114  0.0453  0.0185  0.1423
   55DPPC   C25 2725   6.092  -0.340   3.211 -0.2970 -0.0832  0.0749
   55DPPC   C26 2726   5.991  -0.453   3.188 -0.4065  0.0850 -0.2689
   55DPPC   C27 2727   6.004  -0.558   3.298  0.0973  0.0746 -0.3377
   55DPPC   C28 2728   5.918  -0.684   3.297 -0.2398  0.2880  0.5201
   55DPPC   C29 2729   5.768  -0.659   3.279 -0.3424 -0.6651 -0.0651
   55DPPC   C30 2730   5.673  -0.778   3.291 -0.6185 -0.4438 -0.0507
   55DPPC   C31 2731   5.524  -0.747   3.274 -0.5675 -0.0057  0.2890
   55DPPC   C32 2732   5.773   0.252   2.120 -0.0964 -0.6611 -0.1903
   55DPPC   O33 2733   5.643   0.228   2.175 -0.0759  0.0788  0.1935
   55DPPC   C34 2734   5.581   0.329   2.241 -0.4011  0.0321 -0.0360
   55DPPC   O35 2735   5.629   0.442   2.228 -0.0239 -0.1118  0.0964
   55DPPC   C36 2736   5.439   0.309   2.293 -0.2599 -0.3548  0.2055
   55DPPC   C37 2737   5.429   0.351   2.439  0.1509  0.1536  0.0899
   55DPPC   C38 2738   5.307   0.284   2.504 -0.0388  0.3404 -0.0705
   55DPPC   C39 2739   5.294   0.309   2.655  0.1000  0.7257 -0.1208
   55DPPC   C40 2740   5.283   0.456   2.697  0.0902  0.6027  0.3100
   55DPPC   C41 2741   5.321   0.485   2.842 -0.5364 -0.2424  0.6526
   55DPPC   C42 2742   5.471   0.473   2.870 -0.4670  0.0039  0.3932
   55DPPC   C43 2743   5.530   0.538   2.996 -0.2022  0.6219 -0.0458
   55DPPC   C44 2744   5.475   0.462   3.116  0.1174  0.1801 -0.1757
   55DPPC   C45 2745   5.498   0.537   3.247 -0.0556 -0.7084  0.3759
   55DPPC   C46 2746   5.445   0.676   3.212  0.6389 -0.6163 -0.3447
   55DPPC   C47 2747   5.472   0.778   3.324 -0.1532 -0.1487 -0.5720
   55DPPC   C48 2748   5.401   0.912   3.304 -0.2132 -0.1583 -0.4264
   55DPPC   C49 2749   5.448   1.002   3.418 -0.0996 -0.4148 -0.2701
   55DPPC   C50 2750   5.353   1.117   3.451 -0.0120 -0.2659 -0.5366
   56DPPC    C1 2751   5.663   0.800   1.445 -0.0359 -0.4359  0.0434
   56DPPC    C2 2752   5.724   0.986   1.310  0.1948 -0.0189 -0.1504
   56DPPC    C3 2753   5.877   0.899   1.470  0.6123 -0.3020 -0.4691
   56DPPC    N4 2754   5.774   0.863   1.372 -0.1733  0.0233  0.2272
   56DPPC    C5 2755   5.809   0.788   1.251 -0.1135  0.3482  0.0431
   56DPPC    C6 2756   5.817   0.636   1.250 -0.0447  0.3525 -0.0962
   56DPPC    O7 2757   5.913   0.571   1.333 -0.5798  0.0800  0.3191
   56DPPC    P8 2758   5.882   0.415   1.360  0.0287 -0.1139 -0.0622
   56DPPC    O9 2759   5.736   0.395   1.345  0.0101  0.2107 -0.3198
   56DPPC   O10 2760   5.978   0.345   1.273  0.1675  0.3571 -0.2910
   56DPPC   O11 2761   5.899   0.411   1.520  0.2218  0.7525 -0.0562
   56DPPC   C12 2762   5.774   0.445   1.581  0.2049 -0.1457  0.4216
   56DPPC   C13 2763   5.770   0.437   1.734  0.3378 -0.3910  0.4128
   56DPPC   O14 2764   5.680   0.524   1.804  0.3161 -0.0597 -0.0231
   56DPPC   C15 2765   5.692   0.659   1.804  0.1608 -0.0462  0.2355
   56DPPC   O16 2766   5.757   0.720   1.720  0.2674 -0.1730  0.2263
   56DPPC   C17 2767   5.599   0.728   1.904  0.2857  0.5997 -0.0864
   56DPPC   C18 2768   5.673   0.718   2.038  0.0401 -0.1107  0.0011
   56DPPC   C19 2769   5.609   0.794   2.155 -0.4097  0.0499 -0.3427
   56DPPC   C20 2770   5.674   0.752   2.287 -0.3106  0.1072 -0.3728
   56DPPC   C21 2771   5.622   0.823   2.412  0.2082 -0.5541  0.2274
   56DPPC   C22 2772   5.694   0.772   2.538 -0.0421  0.0886  0.6402
   56DPPC   C23 2773   5.648   0.843   2.665 -0.2691  1.1101  0.0004
   56DPPC   C24 2774   5.496   0.825   2.671 -0.1761  0.1438 -0.3285
   56DPPC   C25 2775   5.445   0.859   2.811  0.4796 -0.1721 -0.0084
   56DPPC   C26 2776   5.294   0.847   2.828  0.4378  0.3760  0.0506
   56DPPC   C27 2777   5.252   0.925   2.953 -0.2909 -0.0802  0.0939
   56DPPC   C28 2778   5.101   0.901   2.962 -0.2339 -0.4366  0.1462
   56DPPC   C29 2779   5.044   0.978   3.082 -0.4152  0.1048 -0.2778
   56DPPC   C30 2780   4.892   0.969   3.087 -0.4471  0.4090 -0.6752
   56DPPC   C31 2781   4.850   0.822   3.095  0.3114  0.2382  0.4818
   56DPPC   C32 2782   5.917   0.438   1.778  0.4230  0.1234  0.1283
   56DPPC   O33 2783   5.956   0.381   1.904 -0.0123 -0.4367  0.0142
   56DPPC   C34 2784   6.089   0.380   1.929 -0.0459  0.0537  0.2195
   56DPPC   O35 2785   6.160   0.392   1.829 -0.5268  0.2646 -0.1010
   56DPPC   C36 2786   6.136   0.332   2.066  0.3606  0.4058  0.2053
   56DPPC   C37 2787   6.065   0.401   2.183 -0.3204 -0.3658  0.2553
   56DPPC   C38 2788   6.136   0.356   2.311 -0.0762  0.0365  0.2634
   56DPPC   C39 2789   6.072   0.402   2.442  0.1646  0.8832  0.0922
   56DPPC   C40 2790   5.926   0.356   2.450  0.3383  0.3520  0.2296
   56DPPC   C41 2791   5.871   0.394   2.588  0.0063 -0.0471  0.2096
   56DPPC   C42 2792   5.974   0.332   2.683  0.4441  0.0653 -0.1854
   56DPPC   C43 2793   5.950   0.376   2.827 -0.4149  0.0743 -0.3253
   56DPPC   C44 2794   6.060   0.345   2.929 -0.2824  0.5340 -0.3253
   56DPPC   C45 2795   6.038   0.421   3.060  0.2398  0.4646 -0.1949
   56DPPC   C46 2796   6.020   0.572   3.048  0.2644  0.4564 -0.3357
   56DPPC   C47 2797   6.010   0.628   3.190 -0.4087 -0.2740 -0.0864
   56DPPC   C48 2798   5.983   0.779   3.186  0.5263 -0.1250 -1.2937
   56DPPC   C49 2799   5.842   0.814   3.139  0.2997  0.2495 -0.3452
   56DPPC   C50 2800   5.831   0.966   3.148 -0.1333  0.2077 -0.1463
   57DPPC    C1 2801   0.252   5.582   1.319 -0.8421  0.4292 -0.0638
   57DPPC    C2 2802   0.179   5.634   1.096 -0.1467 -0.1262 -0.1689
   57DPPC    C3 2803   0.201   5.417   1.160  0.6399 -0.2934 -0.1472
   57DPPC    N4 2804   0.266   5.547   1.177 -0.1674  0.0855  0.0803
   57DPPC    C5 2805   0.402   5.557   1.123 -0.1726  0.2622  0.0970
   57DPPC    C6 2806   0.498   5.438   1.138  0.0481  0.4319  0.0284
   57DPPC    O7 2807   0.508   5.397   1.274  0.0919 -0.0625 -0.1232
   57DPPC    P8 2808   0.647   5.320   1.302  0.0378 -0.0332  0.2287
   57DPPC    O9 2809   0.605   5.197   1.372 -0.4534  0.1225  0.2113
   57DPPC   O10 2810   0.733   5.320   1.182  0.0193  0.0653  0.2155
   57DPPC   O11 2811   0.716   5.420   1.408  0.4288 -0.2624  0.1925
   57DPPC   C12 2812   0.614   5.425   1.508  0.1984  0.2027 -0.0597
   57DPPC   C13 2813   0.643   5.521   1.623 -0.6696  0.0620  0.2823
   57DPPC   O14 2814   0.611   5.660   1.611 -0.5378  0.0662 -0.0229
   57DPPC   C15 2815   0.680   5.761   1.552 -0.1704 -0.0084  0.2729
   57DPPC   O16 2816   0.772   5.748   1.471 -0.4753  0.4697 -0.1568
   57DPPC   C17 2817   0.633   5.898   1.600 -0.1743  0.0138  0.2063
   57DPPC   C18 2818   0.713   5.955   1.717  0.0097 -0.2365  0.2028
   57DPPC   C19 2819   0.642   6.074   1.783  0.1749 -0.2071  0.3281
   57DPPC   C20 2820   0.719   6.121   1.906  0.6060  0.1521 -0.0756
   57DPPC   C21 2821   0.669   6.252   1.968  0.8049 -0.0474  0.5199
   57DPPC   C22 2822   0.734   6.275   2.104  0.2983 -0.1836  0.7883
   57DPPC   C23 2823   0.680   6.401   2.172 -0.0168  0.2163 -0.1895
   57DPPC   C24 2824   0.735   6.393   2.315 -0.0457 -0.1349 -0.1993
   57DPPC   C25 2825   0.663   6.295   2.408 -0.1793  0.3033  0.1619
   57DPPC   C26 2826   0.681   6.305   2.559  0.3182  0.0742  0.1212
   57DPPC   C27 2827   0.653   6.173   2.632 -0.3525  0.1227 -0.0435
   57DPPC   C28 2828   0.679   6.182   2.782 -0.0881 -0.2870 -0.0650
   57DPPC   C29 2829   0.668   6.043   2.846  0.1356 -0.3242 -0.1070
   57DPPC   C30 2830   0.702   6.031   2.994 -0.1230  0.4784  0.0240
   57DPPC   C31 2831   0.854   6.039   3.011 -0.0106 -0.4484 -0.4532
   57DPPC   C32 2832   0.788   5.487   1.658 -0.7247 -0.4152  0.0516
   57DPPC   O33 2833   0.800   5.386   1.759  0.1175  0.0123  0.3900
   57DPPC   C34 2834   0.913   5.311   1.771 -0.1900 -0.5281 -0.0750
   57DPPC   O35 2835   0.996   5.309   1.680  0.1457  0.3343  0.2087
   57DPPC   C36 2836   0.927   5.227   1.898 -0.3148 -0.2946  0.0927
   57DPPC   C37 2837   0.834   5.106   1.881  0.0915 -0.6877  0.6425
   57DPPC   C38 2838   0.825   5.029   2.012 -0.1898 -0.2245  0.8994
   57DPPC   C39 2839   0.729   4.910   2.000  0.0417 -0.3154 -0.1851
   57DPPC   C40 2840   0.696   4.844   2.135  0.2992 -0.0116  0.0277
   57DPPC   C41 2841   0.607   4.945   2.207 -0.0085 -0.1395 -0.1689
   57DPPC   C42 2842   0.569   4.906   2.350  0.3252 -0.0161 -0.0454
   57DPPC   C43 2843   0.489   5.017   2.419  0.2733 -0.2060  0.2039
   57DPPC   C44 2844   0.453   4.975   2.561  0.3759 -0.0246  0.2844
   57DPPC   C45 2845   0.425   5.108   2.630 -0.0096  0.0189  0.0465
   57DPPC   C46 2846   0.349   5.104   2.763 -0.2758 -0.1323 -0.1102
   57DPPC   C47 2847   0.287   5.237   2.807  0.2658 -0.0751  0.4988
   57DPPC   C48 2848   0.201   5.219   2.932 -0.3890 -0.5200 -0.0073
   57DPPC   C49 2849   0.267   5.153   3.054  0.3637 -0.0343 -0.1483
   57DPPC   C50 2850   0.171   5.127   3.170  0.0303 -0.1653 -0.4526
   58DPPC    C1 2851   0.806   0.472   1.094 -0.2513  0.7065  0.1220
   58DPPC    C2 2852   0.720   0.467   0.869  0.5482 -0.3913 -0.4003
   58DPPC    C3 2853   0.891   0.325   0.917 -0.2935 -0.0108 -0.1016
   58DPPC    N4 2854   0.773   0.386   0.980  0.0904  0.2954  0.3286
   58DPPC    C5 2855   0.687   0.269   1.006  0.0230  0.3038  0.1494
   58DPPC    C6 2856   0.542   0.291   1.049  0.0978 -0.3793  0.7647
   58DPPC    O7 2857   0.473   0.167   1.071 -0.1184 -0.4882 -0.4476
   58DPPC    P8 2858   0.318   0.208   1.086  0.0095 -0.0066 -0.4071
   58DPPC    O9 2859   0.300   0.289   0.964  0.8682  0.1665 -0.4234
   58DPPC   O10 2860   0.265   0.072   1.109 -0.0094  0.1261  0.3714
   58DPPC   O11 2861   0.335   0.297   1.219 -0.8369 -0.3645 -0.0529
   58DPPC   C12 2862   0.352   0.215   1.334 -0.1689 -0.1526  0.0049
   58DPPC   C13 2863   0.373   0.296   1.462  0.5391  0.1000 -0.2715
   58DPPC   O14 2864   0.396   0.217   1.579  0.1444  0.1146 -0.1856
   58DPPC   C15 2865   0.326   0.103   1.607 -0.2003  0.3385 -0.1318
   58DPPC   O16 2866   0.230   0.056   1.547 -0.3462 -0.2325  0.5374
   58DPPC   C17 2867   0.373   0.038   1.737 -0.0070 -0.1172 -0.4288
   58DPPC   C18 2868   0.273   0.101   1.834  0.5205  0.1032 -0.0224
   58DPPC   C19 2869   0.317   0.087   1.980  0.4397 -0.0522 -0.0130
   58DPPC   C20 2870   0.211   0.133   2.081  0.1017 -0.5411 -0.1377
   58DPPC   C21 2871   0.260   0.101   2.222  0.4271  1.0013  0.1253
   58DPPC   C22 2872   0.166   0.139   2.337  0.1925  0.2222  0.2000
   58DPPC   C23 2873   0.216   0.094   2.474 -0.0228  0.3807  0.3298
   58DPPC   C24 2874   0.145   0.152   2.597 -0.1838  0.3171  0.2669
   58DPPC   C25 2875   0.211   0.135   2.734  0.3415  0.0071 -0.0198
   58DPPC   C26 2876   0.119   0.172   2.851  0.2260 -0.2074 -0.0413
   58DPPC   C27 2877   0.187   0.129   2.982  0.0720  0.4811  0.2677
   58DPPC   C28 2878   0.086   0.163   3.092 -0.1441 -0.2782  0.3085
   58DPPC   C29 2879   0.145   0.117   3.226  0.3181  0.0802  0.2296
   58DPPC   C30 2880   0.033   0.112   3.329  0.3974 -0.0810  0.3085
   58DPPC   C31 2881   0.079   0.077   3.471 -0.0237 -0.2652  0.4012
   58DPPC   C32 2882   0.248   0.385   1.459  0.4894  0.0339 -0.1568
   58DPPC   O33 2883   0.222   0.475   1.566  0.2582 -0.0054 -0.1808
   58DPPC   C34 2884   0.105   0.544   1.561  0.3107  0.0914 -0.0782
   58DPPC   O35 2885   0.040   0.545   1.457  0.1120  0.2939  0.0438
   58DPPC   C36 2886   0.068   0.622   1.688  0.4917  0.3819 -0.2044
   58DPPC   C37 2887   0.136   0.561   1.810  0.0538  0.1255 -0.0871
   58DPPC   C38 2888   0.106   0.625   1.946  0.5227  0.4050 -0.1151
   58DPPC   C39 2889   0.188   0.563   2.059  0.1251  0.2964  0.1142
   58DPPC   C40 2890   0.133   0.612   2.194  0.1798  0.4352  0.0865
   58DPPC   C41 2891   0.206   0.562   2.319  0.2867  0.5743  0.0802
   58DPPC   C42 2892   0.142   0.612   2.449 -0.3057 -0.1060  0.0569
   58DPPC   C43 2893   0.221   0.559   2.568 -0.1949  0.8414  0.4159
   58DPPC   C44 2894   0.170   0.595   2.707 -0.4810  0.2688  0.4646
   58DPPC   C45 2895   0.247   0.534   2.825 -0.3612  0.3851  0.4466
   58DPPC   C46 2896   0.181   0.593   2.950 -0.1338  0.7290  0.4073
   58DPPC   C47 2897   0.246   0.547   3.080 -0.2727 -0.4220  0.0794
   58DPPC   C48 2898   0.153   0.555   3.201 -0.6893 -0.9538 -0.2008
   58DPPC   C49 2899   0.250   0.536   3.317 -0.5289  0.1028 -0.1534
   58DPPC   C50 2900   0.165   0.524   3.443 -0.1191  0.3218  0.1471
   59DPPC    C1 2901   6.274   0.696   1.001 -0.2361 -0.1316 -0.6093
   59DPPC    C2 2902   6.472   0.607   0.907 -0.1980  0.1090  0.1952
   59DPPC    C3 2903   6.382   0.542   1.122 -0.6092  0.8452  0.4310
   59DPPC    N4 2904   6.412   0.655   1.032 -0.2078  0.4519  0.0621
   59DPPC    C5 2905   6.483   0.758   1.108 -0.4182  0.6390  0.0056
   59DPPC    C6 2906   6.633   0.745   1.139 -0.4167 -0.1839 -0.3175
   59DPPC    O7 2907   6.669   0.638   1.226 -0.1892  0.1006 -0.0599
   59DPPC    P8 2908   6.830   0.632   1.237 -0.2123 -0.0888  0.1817
   59DPPC    O9 2909   6.861   0.498   1.291 -0.3332 -0.1560  0.0857
   59DPPC   O10 2910   6.879   0.663   1.101 -0.0329 -0.0526  0.2544
   59DPPC   O11 2911   6.847   0.744   1.352 -0.1037 -0.0349  0.1137
   59DPPC   C12 2912   6.791   0.688   1.472 -0.2601 -0.3301 -0.0939
   59DPPC   C13 2913   6.768   0.784   1.589 -0.0354 -0.3163 -0.0598
   59DPPC   O14 2914   6.631   0.825   1.603 -0.1108 -0.4125 -0.5173
   59DPPC   C15 2915   6.576   0.914   1.516 -0.0937 -0.1319 -0.2407
   59DPPC   O16 2916   6.646   0.974   1.435 -0.0430  0.4788  0.2510
   59DPPC   C17 2917   6.423   0.917   1.518 -0.1194 -1.3353  0.6657
   59DPPC   C18 2918   6.385   1.032   1.611  0.1621 -0.4487 -0.2992
   59DPPC   C19 2919   6.235   1.017   1.632  0.1337  0.3317  0.1203
   59DPPC   C20 2920   6.218   0.957   1.772  0.0121  0.4462  0.1546
   59DPPC   C21 2921   6.067   0.962   1.798  0.0880  0.2604  0.6289
   59DPPC   C22 2922   6.040   0.877   1.923 -0.3825 -0.4073  0.0773
   59DPPC   C23 2923   6.119   0.922   2.045 -0.5141 -0.4604  0.1824
   59DPPC   C24 2924   6.077   0.831   2.160  0.7332 -0.8693  0.3294
   59DPPC   C25 2925   6.121   0.894   2.292 -0.1505  0.4822  0.0020
   59DPPC   C26 2926   6.100   0.809   2.418 -0.2693  0.0615 -0.2994
   59DPPC   C27 2927   6.147   0.889   2.539 -0.2703 -0.2675 -0.0805
   59DPPC   C28 2928   6.093   0.819   2.664 -0.3600 -0.0491  0.0038
   59DPPC   C29 2929   6.106   0.898   2.795 -0.2490 -0.0401 -0.0124
   59DPPC   C30 2930   6.251   0.915   2.840 -0.3123  0.0997  0.1414
   59DPPC   C31 2931   6.249   0.996   2.969  0.2300  0.0887  0.1583
   59DPPC   C32 2932   6.878   0.890   1.605 -0.0726 -0.3185  0.2140
   59DPPC   O33 2933   6.960   0.853   1.716 -0.3783 -0.1790  0.4897
   59DPPC   C34 2934   7.072   0.922   1.754  0.2439 -0.6853 -0.3876
   59DPPC   O35 2935   7.117   1.010   1.681 -0.6922  0.5419  0.4719
   59DPPC   C36 2936   7.114   0.895   1.898 -0.0289  0.8393 -0.0100
   59DPPC   C37 2937   7.010   0.919   2.008 -0.0382  0.2782  0.1087
   59DPPC   C38 2938   7.078   0.931   2.145 -0.6120  0.2136  0.3996
   59DPPC   C39 2939   6.972   0.911   2.254 -0.6724  0.4218  0.3813
   59DPPC   C40 2940   7.047   0.899   2.387  0.0564 -0.0665 -0.0670
   59DPPC   C41 2941   6.952   0.847   2.495 -0.2970 -0.2640 -0.4676
   59DPPC   C42 2942   7.030   0.832   2.626 -0.4529  0.2036 -0.3174
   59DPPC   C43 2943   6.947   0.750   2.724 -0.0680  0.5115  0.2721
   59DPPC   C44 2944   7.024   0.728   2.855  0.0087  0.0034  0.1416
   59DPPC   C45 2945   6.946   0.648   2.959  0.2515 -0.0065  0.3166
   59DPPC   C46 2946   7.005   0.673   3.098  0.0522  0.4886  0.3133
   59DPPC   C47 2947   6.938   0.578   3.197  0.3324 -0.1226 -0.0736
   59DPPC   C48 2948   6.983   0.611   3.340 -0.2458 -0.1627  0.1225
   59DPPC   C49 2949   6.929   0.513   3.444  0.4383 -0.2418  0.4048
   59DPPC   C50 2950   7.006   0.526   3.576  0.3607  0.1644  0.4101
   60DPPC    C1 2951   0.051   4.461   1.270 -0.3799  0.5134 -0.4189
   60DPPC    C2 2952   0.119   4.597   1.079 -0.1757  0.4500 -0.0512
   60DPPC    C3 2953   0.212   4.635   1.285  0.1751  0.4757 -0.0544
   60DPPC    N4 2954   0.085   4.595   1.222  0.1159  0.5471  0.0195
   60DPPC    C5 2955  -0.018   4.691   1.265 -0.4595 -0.0621  0.0030
   60DPPC    C6 2956   0.016   4.835   1.227 -0.0776 -0.0569  0.3567
   60DPPC    O7 2957  -0.098   4.917   1.249 -0.0494 -0.0423  0.4486
   60DPPC    P8 2958  -0.056   5.066   1.202 -0.0882 -0.0104  0.5143
   60DPPC    O9 2959   0.027   5.044   1.081 -0.2966 -0.3317  0.4291
   60DPPC   O10 2960  -0.176   5.151   1.196 -0.0951 -0.0775 -0.4631
   60DPPC   O11 2961   0.046   5.109   1.319  0.2315  0.4990  0.0484
   60DPPC   C12 2962  -0.034   5.122   1.436  0.1040 -0.5007  0.0747
   60DPPC   C13 2963   0.062   5.153   1.551 -0.1507 -0.5182  0.2943
   60DPPC   O14 2964  -0.021   5.196   1.660  0.2727  0.2175  0.3368
   60DPPC   C15 2965  -0.048   5.106   1.758  0.2485 -0.0983  0.0415
   60DPPC   O16 2966  -0.009   4.990   1.748 -0.6604 -0.3960 -0.1249
   60DPPC   C17 2967  -0.105   5.163   1.888 -0.0522 -0.4182  0.0515
   60DPPC   C18 2968  -0.024   5.112   2.007  0.3657 -0.3598 -0.2060
   60DPPC   C19 2969  -0.094   5.153   2.137  0.4757 -0.6975 -0.0385
   60DPPC   C20 2970  -0.007   5.128   2.260  0.7556  0.6068  0.0489
   60DPPC   C21 2971  -0.082   5.171   2.386  0.0919  0.0614 -0.1544
   60DPPC   C22 2972   0.002   5.125   2.505 -0.2053 -1.2226 -0.4275
   60DPPC   C23 2973  -0.043   5.181   2.639 -0.2078  0.0711 -0.9578
   60DPPC   C24 2974  -0.179   5.114   2.660  0.4028 -0.8771  0.0624
   60DPPC   C25 2975  -0.220   5.145   2.804 -0.6022  0.4844 -0.4980
   60DPPC   C26 2976  -0.201   5.290   2.849 -0.3319  0.1591  0.4769
   60DPPC   C27 2977  -0.238   5.316   2.995 -0.1111 -0.3580  0.6246
   60DPPC   C28 2978  -0.214   5.461   3.037 -0.2607 -0.2107  0.2097
   60DPPC   C29 2979  -0.066   5.496   3.019 -0.4368  0.2335 -0.3662
   60DPPC   C30 2980  -0.016   5.639   3.043  0.1957 -0.1320  0.5527
   60DPPC   C31 2981   0.137   5.639   3.039  0.1870 -0.4919  0.0626
   60DPPC   C32 2982   0.153   5.261   1.491  0.1549 -0.5533  0.6848
   60DPPC   O33 2983   0.214   5.362   1.571 -0.6986  0.3763  0.1920
   60DPPC   C34 2984   0.295   5.308   1.667  0.3751  0.6702 -0.5311
   60DPPC   O35 2985   0.364   5.209   1.643  0.0981  0.2159  0.5216
   60DPPC   C36 2986   0.332   5.399   1.784 -0.0126  0.2716 -0.0931
   60DPPC   C37 2987   0.223   5.386   1.890 -0.1735 -0.0529 -0.2961
   60DPPC   C38 2988   0.267   5.450   2.022 -0.0833 -0.9728  0.1228
   60DPPC   C39 2989   0.170   5.439   2.140 -0.1808  0.0646  0.1422
   60DPPC   C40 2990   0.219   5.511   2.266  0.2670  0.1081 -0.0527
   60DPPC   C41 2991   0.108   5.498   2.370  0.2951  0.4001  0.0150
   60DPPC   C42 2992   0.162   5.557   2.500  0.3514 -0.2322  0.2825
   60DPPC   C43 2993   0.053   5.573   2.606  0.2009  0.1240  0.0747
   60DPPC   C44 2994  -0.063   5.660   2.558  0.0821 -0.3255 -0.4611
   60DPPC   C45 2995  -0.177   5.657   2.661  0.1008 -0.5528 -0.4464
   60DPPC   C46 2996  -0.282   5.762   2.624  0.2539 -0.2749 -0.0954
   60DPPC   C47 2997  -0.397   5.764   2.725 -0.0426 -0.5100 -0.4251
   60DPPC   C48 2998  -0.470   5.898   2.718  0.0131 -0.4444  0.1912
   60DPPC   C49 2999  -0.591   5.909   2.811  0.2127  0.3570  0.3710
   60DPPC   C50 3000  -0.682   5.786   2.797  0.1015  0.5323 -0.5010
   61DPPC    C1 3001   1.084   4.951   1.342 -0.0053  0.0142 -0.3800
   61DPPC    C2 3002   0.953   5.084   1.192  0.4758  0.1656 -0.3519
   61DPPC    C3 3003   0.985   5.154   1.407  0.4459  0.1798  0.2355
   61DPPC    N4 3004   1.057   5.088   1.297  0.1037  0.1680  0.0188
   61DPPC    C5 3005   1.176   5.161   1.251  0.1846  0.4298  0.6278
   61DPPC    C6 3006   1.290   5.205   1.342  0.0693  0.4696  0.7529
   61DPPC    O7 3007   1.354   5.096   1.409 -0.1902 -0.2415 -0.1487
   61DPPC    P8 3008   1.504   5.137   1.449 -0.2563  0.1382 -0.2882
   61DPPC    O9 3009   1.565   5.004   1.470 -0.0895  0.3381  0.5175
   61DPPC   O10 3010   1.551   5.226   1.340  0.2677 -0.0051 -0.1834
   61DPPC   O11 3011   1.466   5.195   1.594 -0.0865  0.2167 -0.2750
   61DPPC   C12 3012   1.411   5.100   1.686  0.0825  0.3323 -0.0511
   61DPPC   C13 3013   1.375   5.150   1.825  0.1836  0.0169  0.0900
   61DPPC   O14 3014   1.305   5.058   1.910  0.4702 -0.2475  0.0401
   61DPPC   C15 3015   1.385   4.995   2.001  0.5207 -0.4813 -0.1635
   61DPPC   O16 3016   1.495   4.955   1.964  0.3813 -0.6408 -0.4056
   61DPPC   C17 3017   1.315   4.933   2.122  0.3753 -0.3653 -0.1876
   61DPPC   C18 3018   1.203   5.026   2.169  0.5662 -0.3770  0.2996
   61DPPC   C19 3019   1.144   4.970   2.299 -0.1925  0.1158  0.1793
   61DPPC   C20 3020   1.246   4.946   2.411 -0.0242  0.4627  0.1014
   61DPPC   C21 3021   1.162   4.930   2.538  0.2887  0.3108  0.2887
   61DPPC   C22 3022   1.073   4.808   2.515  0.0190  0.5083  0.2814
   61DPPC   C23 3023   0.984   4.791   2.638  0.2909  0.1854  0.4326
   61DPPC   C24 3024   1.065   4.736   2.756 -0.0592 -0.0634  0.5598
   61DPPC   C25 3025   1.125   4.602   2.715 -0.4622 -0.1276  0.1746
   61DPPC   C26 3026   1.243   4.568   2.807 -0.2096  0.0213 -0.0900
   61DPPC   C27 3027   1.315   4.439   2.767 -0.0920  0.0371  0.0770
   61DPPC   C28 3028   1.458   4.444   2.821  0.0849  0.3526 -0.4132
   61DPPC   C29 3029   1.529   4.308   2.814 -0.0045  0.2758  0.1162
   61DPPC   C30 3030   1.627   4.289   2.929 -0.1634 -0.5556  0.1220
   61DPPC   C31 3031   1.679   4.148   2.901  0.1361 -0.2881 -0.6891
   61DPPC   C32 3032   1.310   5.286   1.797  0.2420 -0.0263 -0.2578
   61DPPC   O33 3033   1.269   5.359   1.913 -0.0366  0.3141 -0.5702
   61DPPC   C34 3034   1.370   5.401   1.994 -0.2511  0.8776 -0.5857
   61DPPC   O35 3035   1.485   5.402   1.950  0.0135 -0.5336  0.0218
   61DPPC   C36 3036   1.349   5.442   2.139  0.2538 -0.2053 -0.1891
   61DPPC   C37 3037   1.384   5.340   2.247 -0.2620 -0.0563  0.1246
   61DPPC   C38 3038   1.356   5.410   2.381  0.4001  0.3018  0.0812
   61DPPC   C39 3039   1.216   5.471   2.380  0.1190 -0.3354  0.0822
   61DPPC   C40 3040   1.118   5.359   2.416  0.2443 -0.2285  0.7695
   61DPPC   C41 3041   0.973   5.410   2.410  0.0804 -0.8193 -0.6586
   61DPPC   C42 3042   0.871   5.297   2.413 -0.1373 -0.6205 -0.5178
   61DPPC   C43 3043   0.899   5.212   2.537 -0.0493 -0.3538 -0.3565
   61DPPC   C44 3044   0.864   5.290   2.664  0.1932 -0.1367 -0.4208
   61DPPC   C45 3045   0.870   5.210   2.795 -0.3641  0.0858 -0.2582
   61DPPC   C46 3046   0.753   5.112   2.800 -0.3891  0.1534  0.6285
   61DPPC   C47 3047   0.745   5.012   2.916 -0.1634 -0.4657  0.1153
   61DPPC   C48 3048   0.689   5.065   3.048 -0.4518 -0.6025  0.0501
   61DPPC   C49 3049   0.678   4.939   3.134 -0.4869 -0.5808  0.0770
   61DPPC   C50 3050   0.592   4.960   3.259 -0.1686  0.0122  0.1973
   62DPPC    C1 3051   1.511   5.507   1.527  0.7742 -0.9057 -0.1136
   62DPPC    C2 3052   1.458   5.544   1.296  0.2309 -0.3796 -0.0693
   62DPPC    C3 3053   1.686   5.539   1.389 -0.0282  0.1118  0.2188
   62DPPC    N4 3054   1.546   5.582   1.407 -0.1117 -0.1145  0.1139
   62DPPC    C5 3055   1.532   5.721   1.455  0.2626  0.1700 -0.5772
   62DPPC    C6 3056   1.567   5.823   1.347  1.6734 -0.0734 -0.3666
   62DPPC    O7 3057   1.596   5.953   1.400  0.3635  0.1253 -0.1162
   62DPPC    P8 3058   1.658   6.058   1.295  0.3259  0.5771  0.3095
   62DPPC    O9 3059   1.777   6.116   1.360  0.5309  0.2149  0.2616
   62DPPC   O10 3060   1.658   6.006   1.157  0.2257  0.2553  0.4292
   62DPPC   O11 3061   1.549   6.176   1.304 -0.4629 -0.1160  0.0172
   62DPPC   C12 3062   1.515   6.225   1.435  0.4157 -0.0963  0.2434
   62DPPC   C13 3063   1.382   6.299   1.447  0.0224 -0.8177  0.4488
   62DPPC   O14 3064   1.358   6.363   1.573  0.1824 -0.1291  0.1373
   62DPPC   C15 3065   1.258   6.453   1.594  0.2128 -0.0775  0.0620
   62DPPC   O16 3066   1.191   6.493   1.499 -0.1534  0.0257  0.3615
   62DPPC   C17 3067   1.232   6.505   1.735 -0.1746  0.7802 -0.3157
   62DPPC   C18 3068   1.129   6.618   1.742 -0.6141  0.3713 -0.1462
   62DPPC   C19 3069   1.107   6.700   1.870 -0.9779 -0.3954  0.2939
   62DPPC   C20 3070   1.084   6.609   1.990  0.2617 -0.2059  0.6894
   62DPPC   C21 3071   1.063   6.689   2.119 -0.0815  0.1592  0.4099
   62DPPC   C22 3072   1.080   6.595   2.239  0.2033 -0.4267 -0.0827
   62DPPC   C23 3073   1.022   6.671   2.358  0.5712  0.4129 -0.4298
   62DPPC   C24 3074   1.065   6.605   2.490 -0.0469 -0.5161 -0.6818
   62DPPC   C25 3075   0.974   6.665   2.597  0.0768 -0.6134 -0.5229
   62DPPC   C26 3076   1.038   6.652   2.736 -0.3288  0.2057 -0.2562
   62DPPC   C27 3077   0.963   6.743   2.834 -0.4720 -0.6051  0.3990
   62DPPC   C28 3078   1.010   6.709   2.975 -0.2543 -0.2747  0.4064
   62DPPC   C29 3079   0.969   6.819   3.074 -0.4421  0.3683 -0.3763
   62DPPC   C30 3080   1.022   6.798   3.216 -0.5224 -0.0609 -0.4089
   62DPPC   C31 3081   0.957   6.672   3.273 -0.0368 -0.3319 -0.4447
   62DPPC   C32 3082   1.282   6.190   1.409 -0.8015  0.1508 -0.2439
   62DPPC   O33 3083   1.230   6.107   1.514 -0.2095  0.1125  0.0218
   62DPPC   C34 3084   1.195   5.979   1.488  0.6346 -0.1338  0.0621
   62DPPC   O35 3085   1.236   5.909   1.395  0.5461 -0.4247  0.2406
   62DPPC   C36 3086   1.124   5.912   1.605 -0.0505  0.3096 -0.0938
   62DPPC   C37 3087   1.203   5.791   1.655 -0.1927  0.2380 -0.0446
   62DPPC   C38 3088   1.169   5.761   1.802 -0.1011 -0.0633 -0.0827
   62DPPC   C39 3089   1.019   5.739   1.822 -0.0015 -0.3460  0.3524
   62DPPC   C40 3090   0.990   5.683   1.962  0.1228  0.0473  0.5352
   62DPPC   C41 3091   0.838   5.668   1.975 -0.0342  0.2813 -0.7984
   62DPPC   C42 3092   0.797   5.610   2.111  0.9068 -0.0489 -0.6423
   62DPPC   C43 3093   0.645   5.588   2.111  0.8375  0.3309  0.6613
   62DPPC   C44 3094   0.599   5.560   2.254 -0.2993  0.2015  0.2761
   62DPPC   C45 3095   0.593   5.695   2.325  0.1385  0.2460  0.2306
   62DPPC   C46 3096   0.542   5.700   2.469 -0.3435 -0.3049  0.0806
   62DPPC   C47 3097   0.630   5.627   2.571  0.0932  0.1714  0.0448
   62DPPC   C48 3098   0.569   5.657   2.708  0.0169  0.3614 -0.0301
   62DPPC   C49 3099   0.630   5.562   2.811  0.1946 -0.1145 -0.5723
   62DPPC   C50 3100   0.572   5.610   2.944  0.1578 -0.3607 -0.4990
   63DPPC    C1 3101   1.411   1.208   1.267 -0.0413  0.0935  0.2458
   63DPPC    C2 3102   1.311   1.376   1.369  0.4794  0.2480  0.2113
   63DPPC    C3 3103   1.243   1.293   1.148 -0.6318  0.7839  0.0872
   63DPPC    N4 3104   1.275   1.260   1.287  0.0926  0.5950 -0.1187
   63DPPC    C5 3105   1.190   1.167   1.364  0.5579  0.5631  0.3644
   63DPPC    C6 3106   1.163   1.035   1.290  0.0163  0.2175  1.1696
   63DPPC    O7 3107   1.024   1.003   1.295 -0.0092  0.0809 -0.1845
   63DPPC    P8 3108   0.991   0.888   1.187  0.0371  0.1064 -0.2255
   63DPPC    O9 3109   0.858   0.926   1.134 -0.2793 -0.5560  0.0872
   63DPPC   O10 3110   1.105   0.883   1.093  0.3627  0.1814  0.1633
   63DPPC   O11 3111   0.992   0.755   1.277 -0.5578  0.1786 -0.1056
   63DPPC   C12 3112   0.901   0.755   1.387  0.0284  0.6872  0.3932
   63DPPC   C13 3113   0.908   0.627   1.470  0.2900  0.7040  0.3961
   63DPPC   O14 3114   0.798   0.598   1.557  0.2553  0.3988  0.2506
   63DPPC   C15 3115   0.769   0.476   1.610  0.3856  0.1789 -0.1802
   63DPPC   O16 3116   0.821   0.373   1.567 -0.2341 -0.2166 -0.0099
   63DPPC   C17 3117   0.668   0.474   1.725  0.1429 -0.5834 -0.4011
   63DPPC   C18 3118   0.723   0.523   1.859  0.0112 -0.3923 -0.4169
   63DPPC   C19 3119   0.619   0.484   1.964 -0.0936 -0.0055 -0.3759
   63DPPC   C20 3120   0.677   0.502   2.104 -0.1820 -0.0182 -0.3376
   63DPPC   C21 3121   0.567   0.450   2.197 -0.0675  0.2063 -0.0736
   63DPPC   C22 3122   0.620   0.466   2.340 -0.0411 -0.1398 -0.0456
   63DPPC   C23 3123   0.537   0.397   2.449 -0.2165  0.2604  0.0729
   63DPPC   C24 3124   0.611   0.405   2.583  0.0501  0.0102 -0.0576
   63DPPC   C25 3125   0.531   0.338   2.694 -0.2226 -0.1692 -0.3595
   63DPPC   C26 3126   0.619   0.289   2.809 -0.3977  0.5293  0.0812
   63DPPC   C27 3127   0.540   0.251   2.934  0.7435 -0.2186  0.5980
   63DPPC   C28 3128   0.607   0.149   3.026 -0.2649 -0.6167  0.9044
   63DPPC   C29 3129   0.531   0.160   3.158 -0.7704 -0.0909  0.5745
   63DPPC   C30 3130   0.608   0.085   3.267 -0.6091 -0.8972 -0.0873
   63DPPC   C31 3131   0.574   0.107   3.415  0.4542 -0.2642  0.0746
   63DPPC   C32 3132   1.050   0.647   1.524  0.4841 -0.6384  0.4189
   63DPPC   O33 3133   1.063   0.755   1.617  0.0006  0.0285 -0.2831
   63DPPC   C34 3134   1.187   0.809   1.631  0.1631 -0.3337 -0.3228
   63DPPC   O35 3135   1.262   0.796   1.535 -0.1355 -0.5336 -0.5306
   63DPPC   C36 3136   1.182   0.946   1.699 -0.0397 -0.4159 -0.1687
   63DPPC   C37 3137   1.260   0.959   1.829 -0.3440  0.1631 -0.0416
   63DPPC   C38 3138   1.209   0.873   1.945 -0.1992 -0.2170 -0.2625
   63DPPC   C39 3139   1.284   0.892   2.077 -0.5142  0.0755 -0.1252
   63DPPC   C40 3140   1.218   0.783   2.161  0.0990 -0.0866  0.1512
   63DPPC   C41 3141   1.257   0.805   2.307 -0.3155 -0.2320  0.2837
   63DPPC   C42 3142   1.243   0.681   2.396 -0.0074 -0.2877  0.2539
   63DPPC   C43 3143   1.276   0.713   2.542  0.3257 -0.1486  0.1501
   63DPPC   C44 3144   1.408   0.788   2.555 -0.0323  0.4669  0.2780
   63DPPC   C45 3145   1.463   0.799   2.698 -0.1033  0.8629  0.2778
   63DPPC   C46 3146   1.582   0.894   2.703  0.2109  0.4577  0.6282
   63DPPC   C47 3147   1.650   0.912   2.839  0.4544 -0.0768  0.5767
   63DPPC   C48 3148   1.747   1.029   2.824  0.7077 -0.3285  0.2084
   63DPPC   C49 3149   1.857   1.023   2.931  0.4601  0.0595  0.4885
   63DPPC   C50 3150   1.974   1.120   2.917  0.2486  0.2594  0.1064
   64DPPC    C1 3151   4.586   4.695   1.236 -0.8433 -1.0842 -0.2010
   64DPPC    C2 3152   4.595   4.464   1.174  0.5698  0.8192 -0.3269
   64DPPC    C3 3153   4.802   4.582   1.224  0.5291  0.0683 -0.0086
   64DPPC    N4 3154   4.659   4.569   1.255  0.7048 -0.0736  0.7432
   64DPPC    C5 3155   4.658   4.528   1.396  0.1311 -0.1232  0.7269
   64DPPC    C6 3156   4.697   4.388   1.445 -0.9204 -0.7060 -0.0732
   64DPPC    O7 3157   4.739   4.394   1.582  0.1320 -0.1584 -0.4107
   64DPPC    P8 3158   4.768   4.245   1.635 -0.2607  0.0774  0.4849
   64DPPC    O9 3159   4.823   4.187   1.510 -0.3079  0.5871  0.2242
   64DPPC   O10 3160   4.857   4.267   1.750  0.2116  1.0829 -0.0587
   64DPPC   O11 3161   4.618   4.205   1.677 -0.2340 -0.1728  0.3472
   64DPPC   C12 3162   4.581   4.295   1.782 -0.2726 -0.0874  0.2611
   64DPPC   C13 3163   4.433   4.299   1.822 -0.1702  0.1108  0.6270
   64DPPC   O14 3164   4.388   4.406   1.906 -0.7957  0.2906  0.0777
   64DPPC   C15 3165   4.385   4.535   1.865 -0.4140  0.2070 -0.2164
   64DPPC   O16 3166   4.369   4.555   1.745  0.2432 -0.2650 -0.3886
   64DPPC   C17 3167   4.333   4.629   1.974 -0.2612 -0.0325  0.0640
   64DPPC   C18 3168   4.427   4.666   2.089 -0.0318  0.4503 -0.2759
   64DPPC   C19 3169   4.346   4.741   2.195 -0.0666 -0.3767  0.2909
   64DPPC   C20 3170   4.424   4.775   2.322  0.3018 -0.6765  0.1450
   64DPPC   C21 3171   4.329   4.763   2.441 -0.0898 -0.6110 -0.1574
   64DPPC   C22 3172   4.288   4.617   2.461 -0.2115 -0.4907  0.4982
   64DPPC   C23 3173   4.150   4.612   2.528 -0.4577  0.0298  0.0339
   64DPPC   C24 3174   4.134   4.717   2.638  0.2195 -0.2483  0.4036
   64DPPC   C25 3175   4.015   4.694   2.732  0.0802 -0.2548  0.2264
   64DPPC   C26 3176   4.052   4.574   2.820 -0.3653 -0.4215  0.1860
   64DPPC   C27 3177   4.116   4.622   2.950 -0.2756  0.0077 -0.0155
   64DPPC   C28 3178   4.191   4.517   3.032 -0.0537  0.1459 -0.0395
   64DPPC   C29 3179   4.254   4.583   3.154 -0.1741 -0.0232  0.1152
   64DPPC   C30 3180   4.353   4.503   3.239  0.2120  0.1608 -0.1548
   64DPPC   C31 3181   4.401   4.584   3.360 -0.2171  0.4996 -0.2073
   64DPPC   C32 3182   4.412   4.154   1.867  0.0819 -0.2933 -0.5226
   64DPPC   O33 3183   4.525   4.117   1.946 -0.3649 -0.0178  0.2556
   64DPPC   C34 3184   4.517   3.991   1.997  0.4721 -0.3149 -0.3161
   64DPPC   O35 3185   4.425   3.910   1.986 -0.0268  0.1554  0.2746
   64DPPC   C36 3186   4.620   3.971   2.108  0.1471 -0.1087  0.0284
   64DPPC   C37 3187   4.614   3.826   2.159 -0.3976  0.2307  0.9523
   64DPPC   C38 3188   4.732   3.806   2.254  0.2293 -0.4754  0.0523
   64DPPC   C39 3189   4.724   3.887   2.384 -0.1074 -0.0077 -0.2518
   64DPPC   C40 3190   4.831   3.843   2.485 -0.3282  0.1431  0.0507
   64DPPC   C41 3191   4.829   3.934   2.608 -0.3968 -0.3546  0.4211
   64DPPC   C42 3192   4.922   3.876   2.715 -0.2354 -0.3756  0.2699
   64DPPC   C43 3193   4.925   3.956   2.845  0.0709  0.0667 -0.0050
   64DPPC   C44 3194   5.017   3.892   2.949 -0.1694 -0.3425 -0.0414
   64DPPC   C45 3195   5.004   3.943   3.093 -0.5412 -0.5089 -0.0140
   64DPPC   C46 3196   5.089   3.850   3.180 -0.0560 -0.4789 -0.4470
   64DPPC   C47 3197   5.069   3.888   3.327  0.8223  0.1787 -0.4897
   64DPPC   C48 3198   5.171   3.798   3.398  0.3554  0.1091  0.1018
   64DPPC   C49 3199   5.174   3.815   3.550 -0.2423 -0.0225  0.1304
   64DPPC   C50 3200   5.270   3.710   3.608 -0.3779 -0.1346  0.1520
   65DPPC    C1 3201   4.533   1.260   5.198  0.0496  0.1119 -0.0480
   65DPPC    C2 3202   4.625   1.170   5.401  0.0948 -0.1848  0.2999
   65DPPC    C3 3203   4.390   1.191   5.343 -0.0011  0.2217 -0.9907
   65DPPC    N4 3204   4.521   1.258   5.345  0.2311 -0.2390 -0.0375
   65DPPC    C5 3205   4.503   1.394   5.396  0.2481 -0.1966 -0.1448
   65DPPC    C6 3206   4.605   1.505   5.369  0.0738 -0.0337 -0.1360
   65DPPC    O7 3207   4.742   1.481   5.403  0.0644  0.3682  0.1982
   65DPPC    P8 3208   4.836   1.527   5.281 -0.0245  0.0499  0.0091
   65DPPC    O9 3209   4.787   1.666   5.265  0.0110  0.0785  0.1511
   65DPPC   O10 3210   4.973   1.490   5.323 -0.1397 -0.0162  0.3296
   65DPPC   O11 3211   4.797   1.435   5.154 -0.0549  0.5658 -0.3578
   65DPPC   C12 3212   4.841   1.516   5.045 -0.0400  0.4912 -0.4067
   65DPPC   C13 3213   4.911   1.426   4.943 -0.3894 -0.0814 -0.1466
   65DPPC   O14 3214   4.979   1.494   4.836 -0.0076  0.1802  0.2560
   65DPPC   C15 3215   5.114   1.499   4.852 -0.0052  1.1295 -0.0014
   65DPPC   O16 3216   5.170   1.446   4.948 -0.8977  0.2802  0.0724
   65DPPC   C17 3217   5.185   1.533   4.721 -0.3474 -0.3298 -0.5847
   65DPPC   C18 3218   5.172   1.682   4.689 -0.5770 -0.2026  0.0828
   65DPPC   C19 3219   5.248   1.739   4.569  0.1064  0.0711  0.6407
   65DPPC   C20 3220   5.229   1.888   4.539  0.7926 -0.0202 -0.2835
   65DPPC   C21 3221   5.290   1.908   4.400 -0.4352  0.1329 -0.8104
   65DPPC   C22 3222   5.274   2.054   4.359  0.3219  0.3612 -0.2970
   65DPPC   C23 3223   5.354   2.077   4.231 -0.3132 -0.0293 -0.7659
   65DPPC   C24 3224   5.342   2.222   4.184  0.4244  0.3720  0.2499
   65DPPC   C25 3225   5.413   2.240   4.050 -0.2594 -0.5112 -0.2416
   65DPPC   C26 3226   5.377   2.370   3.977 -0.6055 -0.1186  0.6249
   65DPPC   C27 3227   5.438   2.371   3.837 -0.1362  0.2869  0.8302
   65DPPC   C28 3228   5.590   2.359   3.846 -0.1310 -0.1792  0.2072
   65DPPC   C29 3229   5.658   2.342   3.711  0.0221  0.3645  0.2117
   65DPPC   C30 3230   5.604   2.442   3.609 -0.5091  0.0353  0.1663
   65DPPC   C31 3231   5.650   2.423   3.464 -0.6052 -0.1917  0.1655
   65DPPC   C32 3232   4.800   1.333   4.896 -0.4170 -0.1602  0.0720
   65DPPC   O33 3233   4.692   1.393   4.824 -0.0903 -0.2188 -0.4809
   65DPPC   C34 3234   4.604   1.296   4.786 -0.5245 -0.1941  0.4273
   65DPPC   O35 3235   4.608   1.184   4.837 -0.1246 -0.3125  0.1410
   65DPPC   C36 3236   4.507   1.345   4.678  0.1710 -0.2026 -0.2119
   65DPPC   C37 3237   4.364   1.381   4.720  0.1092 -0.1099 -0.4996
   65DPPC   C38 3238   4.298   1.393   4.583 -0.1212 -0.0511 -0.3838
   65DPPC   C39 3239   4.382   1.479   4.488  0.0381  0.5952  0.3368
   65DPPC   C40 3240   4.356   1.436   4.344  0.4951 -0.4646  0.5655
   65DPPC   C41 3241   4.442   1.516   4.246 -0.7895  0.5674  0.2538
   65DPPC   C42 3242   4.422   1.454   4.107 -0.5012  0.3821  0.2948
   65DPPC   C43 3243   4.506   1.531   4.004 -0.4255 -0.0117  0.0610
   65DPPC   C44 3244   4.446   1.486   3.870 -0.1352  0.9698 -0.4025
   65DPPC   C45 3245   4.296   1.515   3.862 -0.2697  0.6477  0.6745
   65DPPC   C46 3246   4.240   1.464   3.729  0.3951  0.0820  0.6075
   65DPPC   C47 3247   4.090   1.492   3.718  0.2261 -0.8692  0.4104
   65DPPC   C48 3248   4.023   1.396   3.620 -0.1744 -0.2107  0.0319
   65DPPC   C49 3249   3.879   1.442   3.597 -0.0302  0.1656 -0.1346
   65DPPC   C50 3250   3.802   1.423   3.729 -0.3154  0.1310 -0.3058
   66DPPC    C1 3251   1.482   2.786   5.401 -0.6540 -0.2408 -0.0455
   66DPPC    C2 3252   1.629   2.612   5.495 -0.2099 -0.1857  0.2005
   66DPPC    C3 3253   1.402   2.584   5.483 -0.5167  0.5210 -0.5645
   66DPPC    N4 3254   1.515   2.643   5.409  0.0829 -0.0837 -0.1547
   66DPPC    C5 3255   1.534   2.589   5.274 -0.1106  0.5432 -0.4378
   66DPPC    C6 3256   1.408   2.584   5.186 -0.5583 -0.0786  0.2239
   66DPPC    O7 3257   1.454   2.564   5.053  0.1341 -0.0107  0.4483
   66DPPC    P8 3258   1.321   2.616   4.979  0.3887  0.1649  0.1121
   66DPPC    O9 3259   1.220   2.686   5.061 -0.2062 -0.1311 -0.3582
   66DPPC   O10 3260   1.357   2.678   4.849  0.4135  0.1593  0.1165
   66DPPC   O11 3261   1.265   2.466   4.965  0.0469  0.2665  0.3788
   66DPPC   C12 3262   1.315   2.420   4.839  0.6682  0.0307  0.7030
   66DPPC   C13 3263   1.246   2.292   4.792  0.1974  0.6681 -0.3985
   66DPPC   O14 3264   1.316   2.226   4.685 -0.1914 -0.4084 -0.0045
   66DPPC   C15 3265   1.429   2.163   4.728 -0.1513 -0.1347  0.2956
   66DPPC   O16 3266   1.454   2.144   4.847 -0.1488 -0.2266  0.2803
   66DPPC   C17 3267   1.490   2.082   4.614  0.1024  0.8102 -0.2496
   66DPPC   C18 3268   1.610   2.161   4.561  0.6417  0.4048  0.3617
   66DPPC   C19 3269   1.676   2.103   4.436  0.1974  0.7152 -0.0216
   66DPPC   C20 3270   1.598   2.097   4.305 -0.0341  0.5412  0.1251
   66DPPC   C21 3271   1.663   2.019   4.190  0.6038  0.5346  0.4855
   66DPPC   C22 3272   1.627   2.062   4.048 -0.2769  0.3766  0.6542
   66DPPC   C23 3273   1.701   2.189   4.007  0.1084  0.0162  0.2213
   66DPPC   C24 3274   1.671   2.211   3.859 -0.3228  0.3202  0.3537
   66DPPC   C25 3275   1.713   2.347   3.802  0.1172  0.0202 -0.0464
   66DPPC   C26 3276   1.671   2.358   3.655  0.2553 -0.5591 -0.1327
   66DPPC   C27 3277   1.695   2.498   3.597 -0.1288 -0.6555 -0.5283
   66DPPC   C28 3278   1.619   2.513   3.465 -0.3110 -0.1535 -0.3711
   66DPPC   C29 3279   1.719   2.568   3.363  0.1372 -0.6495 -0.2063
   66DPPC   C30 3280   1.662   2.557   3.222  0.0254 -0.1070 -0.2071
   66DPPC   C31 3281   1.758   2.637   3.134  0.1603  0.1416  0.1658
   66DPPC   C32 3282   1.112   2.352   4.748 -0.0128  0.0707 -0.5933
   66DPPC   O33 3283   1.128   2.476   4.677 -0.1731  0.2511 -0.3186
   66DPPC   C34 3284   1.037   2.575   4.698  0.2963  0.5330  0.4391
   66DPPC   O35 3285   0.953   2.580   4.788 -0.3334  0.0929 -0.1114
   66DPPC   C36 3286   1.069   2.694   4.608  0.2756  0.1125 -0.1315
   66DPPC   C37 3287   1.007   2.831   4.636 -0.4178 -0.1827 -0.2171
   66DPPC   C38 3288   1.043   2.922   4.519  0.0346 -0.4451 -0.2831
   66DPPC   C39 3289   0.990   3.064   4.543 -0.5569 -0.5883 -0.7313
   66DPPC   C40 3290   1.078   3.156   4.456  0.0775  0.0894  0.6012
   66DPPC   C41 3291   1.033   3.301   4.474 -0.6577  0.0355 -0.6950
   66DPPC   C42 3292   1.102   3.403   4.383  0.5745 -0.5520 -0.4552
   66DPPC   C43 3293   1.238   3.459   4.426  0.2669  0.0470 -0.2353
   66DPPC   C44 3294   1.269   3.588   4.350  0.3825 -0.1085 -0.4539
   66DPPC   C45 3295   1.287   3.570   4.199 -0.2290  0.1127 -0.5558
   66DPPC   C46 3296   1.417   3.497   4.164 -0.3792 -0.7857  0.6913
   66DPPC   C47 3297   1.413   3.449   4.019 -0.0147  0.2232  0.3358
   66DPPC   C48 3298   1.541   3.371   3.987 -0.1794  0.1548 -0.1715
   66DPPC   C49 3299   1.537   3.300   3.852 -0.9400 -0.2972  0.0809
   66DPPC   C50 3300   1.670   3.233   3.816 -0.4975  0.9167 -0.6168
   67DPPC    C1 3301   5.028   2.927   5.384 -1.0820 -0.2602 -0.2023
   67DPPC    C2 3302   5.184   2.866   5.221  0.2194  0.4076  0.0109
   67DPPC    C3 3303   5.214   2.775   5.437 -0.6504  0.4924  0.3781
   67DPPC    N4 3304   5.112   2.815   5.339 -0.1298  0.4388 -0.1895
   67DPPC    C5 3305   5.037   2.699   5.289  0.0072  0.5562 -0.6674
   67DPPC    C6 3306   4.929   2.646   5.383  0.1638  0.5264 -0.5056
   67DPPC    O7 3307   4.860   2.534   5.329  0.9453 -0.4988  0.5593
   67DPPC    P8 3308   4.753   2.475   5.434  0.0764  0.0132 -0.0220
   67DPPC    O9 3309   4.728   2.331   5.409 -0.0064  0.0821 -0.3289
   67DPPC   O10 3310   4.784   2.531   5.568  0.0725 -0.0849  0.0203
   67DPPC   O11 3311   4.629   2.558   5.374 -0.0815 -0.0177  0.2584
   67DPPC   C12 3312   4.573   2.489   5.262 -0.0910 -0.2586  0.4095
   67DPPC   C13 3313   4.453   2.565   5.205 -0.0479 -0.4815  0.0156
   67DPPC   O14 3314   4.377   2.491   5.109  0.0069 -0.0187 -0.3884
   67DPPC   C15 3315   4.278   2.408   5.152  0.0554  0.1853  0.1166
   67DPPC   O16 3316   4.245   2.391   5.269 -0.2020 -0.4340 -0.0420
   67DPPC   C17 3317   4.179   2.381   5.038  0.1528  0.0625  0.0607
   67DPPC   C18 3318   4.230   2.266   4.952  0.2083  0.1351 -0.0041
   67DPPC   C19 3319   4.162   2.257   4.816 -0.2914 -0.8158  0.3000
   67DPPC   C20 3320   4.236   2.162   4.721  0.4077 -0.1235  0.1437
   67DPPC   C21 3321   4.123   2.116   4.629  0.3513  0.6330 -0.1756
   67DPPC   C22 3322   4.173   2.047   4.502  0.4733  0.0509  0.1818
   67DPPC   C23 3323   4.284   1.945   4.527  0.2535 -0.2679 -0.1314
   67DPPC   C24 3324   4.346   1.917   4.390  0.0697 -0.2019 -0.2292
   67DPPC   C25 3325   4.444   2.033   4.368  0.0274 -0.0197  0.5206
   67DPPC   C26 3326   4.526   2.021   4.240 -0.3504 -0.2176  0.2930
   67DPPC   C27 3327   4.433   1.996   4.121 -0.2597 -0.4304  0.2664
   67DPPC   C28 3328   4.495   1.971   3.984 -0.6740  0.8866 -0.1749
   67DPPC   C29 3329   4.387   1.974   3.875 -0.6825 -0.2788 -0.2128
   67DPPC   C30 3330   4.468   1.944   3.749  0.6289  0.4283  0.4394
   67DPPC   C31 3331   4.540   1.810   3.759  0.0633  0.1011  0.1641
   67DPPC   C32 3332   4.500   2.703   5.159 -0.6304 -0.4021 -0.3554
   67DPPC   O33 3333   4.608   2.699   5.066  0.0181  0.2637  0.3480
   67DPPC   C34 3334   4.657   2.816   5.017  0.0007  0.0462 -0.1978
   67DPPC   O35 3335   4.588   2.916   5.034  0.2699  0.1640  0.2108
   67DPPC   C36 3336   4.768   2.813   4.911  0.5854  0.2395  0.4047
   67DPPC   C37 3337   4.761   2.701   4.807 -0.2518  0.0169  0.6877
   67DPPC   C38 3338   4.650   2.711   4.702  0.0216 -0.2760  0.3663
   67DPPC   C39 3339   4.616   2.570   4.655 -0.2039 -0.1178  0.0545
   67DPPC   C40 3340   4.559   2.595   4.515  0.8957  0.1933 -0.3409
   67DPPC   C41 3341   4.526   2.470   4.434 -0.0290  0.4840 -0.4211
   67DPPC   C42 3342   4.546   2.503   4.286  0.4049  0.6184 -0.3336
   67DPPC   C43 3343   4.515   2.380   4.201  0.0443  0.4095  0.0946
   67DPPC   C44 3344   4.555   2.419   4.058  0.0410 -0.3438 -0.1147
   67DPPC   C45 3345   4.703   2.454   4.053 -0.1289  0.4056 -0.0228
   67DPPC   C46 3346   4.776   2.486   3.923 -0.0274 -0.2665 -0.1349
   67DPPC   C47 3347   4.918   2.543   3.930 -0.1250 -0.0983  0.4859
   67DPPC   C48 3348   4.978   2.551   3.789 -0.3353  0.6927  0.4348
   67DPPC   C49 3349   5.113   2.621   3.805  0.2816 -0.3102 -0.2648
   67DPPC   C50 3350   5.093   2.768   3.845 -0.3995 -0.5293  0.2249
   68DPPC    C1 3351   1.235   5.073   4.776 -0.2106 -0.0533 -0.1462
   68DPPC    C2 3352   1.434   5.027   4.653 -0.4872 -0.2496 -0.4677
   68DPPC    C3 3353   1.450   5.142   4.858  0.0948 -0.0058 -0.2167
   68DPPC    N4 3354   1.377   5.035   4.788 -0.1200  0.2193 -0.3403
   68DPPC    C5 3355   1.395   4.908   4.859  0.5141  0.4552 -0.0672
   68DPPC    C6 3356   1.522   4.824   4.844  0.1883 -0.1223  0.3750
   68DPPC    O7 3357   1.514   4.712   4.933  0.0528 -0.2546  0.1968
   68DPPC    P8 3358   1.638   4.615   4.901  0.1161 -0.0511 -0.1762
   68DPPC    O9 3359   1.763   4.692   4.919  0.2691 -0.4112  0.3080
   68DPPC   O10 3360   1.614   4.489   4.974  0.0907  0.2730  0.3797
   68DPPC   O11 3361   1.620   4.595   4.742 -0.4155  0.6051 -0.2041
   68DPPC   C12 3362   1.570   4.465   4.711  0.3990  0.2068  0.1146
   68DPPC   C13 3363   1.583   4.432   4.562  0.4252  0.4939  0.0530
   68DPPC   O14 3364   1.707   4.374   4.519  0.6188  0.7056  0.3185
   68DPPC   C15 3365   1.722   4.239   4.526 -0.3034  0.5374 -0.7435
   68DPPC   O16 3366   1.631   4.170   4.572  0.2849  0.2614  0.0295
   68DPPC   C17 3367   1.848   4.174   4.469 -0.5406 -0.2907 -0.3428
   68DPPC   C18 3368   1.800   4.091   4.350  0.0037  0.2663 -0.9620
   68DPPC   C19 3369   1.911   4.005   4.288  0.1263 -0.1888 -0.1305
   68DPPC   C20 3370   1.861   3.938   4.160 -0.8243  0.5531 -0.1630
   68DPPC   C21 3371   1.905   4.007   4.031  0.3821 -0.1304 -0.1369
   68DPPC   C22 3372   1.834   3.961   3.903 -0.0258  0.0723  0.0171
   68DPPC   C23 3373   1.868   3.813   3.887  0.4046  0.2080 -0.3544
   68DPPC   C24 3374   1.795   3.761   3.763  0.0771 -0.4228  0.0974
   68DPPC   C25 3375   1.642   3.770   3.768  0.0732  0.0111 -0.6369
   68DPPC   C26 3376   1.587   3.686   3.652  0.1393 -0.0169 -0.6477
   68DPPC   C27 3377   1.436   3.675   3.674  0.0966  0.7528 -0.5200
   68DPPC   C28 3378   1.364   3.604   3.560 -0.2677 -0.2781  0.3392
   68DPPC   C29 3379   1.213   3.606   3.585 -0.2711 -0.0187  0.2942
   68DPPC   C30 3380   1.136   3.492   3.518  0.1923 -0.1548 -0.0133
   68DPPC   C31 3381   1.166   3.499   3.368  0.1252  0.0639 -0.0179
   68DPPC   C32 3382   1.549   4.564   4.492  0.2530  0.4541  0.0632
   68DPPC   O33 3383   1.409   4.576   4.465  0.2563  0.2068 -0.0682
   68DPPC   C34 3384   1.388   4.689   4.393 -0.3691  0.3474  0.3262
   68DPPC   O35 3385   1.448   4.791   4.425 -0.0110  0.0615  0.5683
   68DPPC   C36 3386   1.254   4.699   4.319  0.2417 -0.1413 -0.8784
   68DPPC   C37 3387   1.262   4.792   4.198  0.2720  0.4166 -0.4505
   68DPPC   C38 3388   1.124   4.831   4.144 -0.1001 -0.1358  0.0900
   68DPPC   C39 3389   1.153   4.917   4.021 -0.4816 -0.0104  0.0870
   68DPPC   C40 3390   1.027   4.944   3.939  0.0174 -0.3067 -0.7876
   68DPPC   C41 3391   0.971   4.808   3.896 -0.1215 -0.5317  0.0882
   68DPPC   C42 3392   0.870   4.833   3.784  0.1137  0.4123  0.0828
   68DPPC   C43 3393   0.926   4.789   3.648  0.1569  0.5788  0.0465
   68DPPC   C44 3394   0.961   4.640   3.653  0.3955  0.6237 -0.2468
   68DPPC   C45 3395   1.041   4.612   3.526 -0.1013 -0.9148 -0.2352
   68DPPC   C46 3396   0.939   4.598   3.413 -0.1679 -0.2358 -0.2649
   68DPPC   C47 3397   0.997   4.571   3.274 -0.7856 -0.1166 -0.5492
   68DPPC   C48 3398   1.069   4.437   3.290 -0.0742  0.3576  0.2913
   68DPPC   C49 3399   1.171   4.433   3.176 -0.0684 -0.1332  0.3104
   68DPPC   C50 3400   1.305   4.369   3.211 -0.0871 -0.2664  0.1407
   69DPPC    C1 3401   3.797   1.602   5.068 -0.2971 -0.3165  0.1943
   69DPPC    C2 3402   3.619   1.556   4.934  0.2031  0.4558 -0.2242
   69DPPC    C3 3403   3.632   1.417   5.118  0.0176 -0.4825 -0.2700
   69DPPC    N4 3404   3.716   1.488   5.021 -0.2101 -0.1942 -0.2576
   69DPPC    C5 3405   3.794   1.407   4.927  0.0141  0.3061 -0.5109
   69DPPC    C6 3406   3.897   1.306   4.978 -0.1918  0.5861  0.4741
   69DPPC    O7 3407   4.028   1.355   4.951 -0.1100  0.2387  0.2303
   69DPPC    P8 3408   4.120   1.280   5.060  0.4590  0.0458 -0.3733
   69DPPC    O9 3409   4.257   1.333   5.043  0.1738  0.8273 -0.2766
   69DPPC   O10 3410   4.057   1.279   5.194  0.1550 -0.3735 -0.5169
   69DPPC   O11 3411   4.110   1.131   5.000 -0.1167 -0.3008  0.5667
   69DPPC   C12 3412   4.204   1.130   4.892 -0.6008  0.3630  0.1356
   69DPPC   C13 3413   4.200   0.995   4.820 -0.4384  0.3181  0.2099
   69DPPC   O14 3414   4.294   0.979   4.713 -0.1123  0.2238  0.5084
   69DPPC   C15 3415   4.419   0.929   4.728 -0.2942 -0.5629 -0.4559
   69DPPC   O16 3416   4.454   0.872   4.831  0.3655  0.0287 -0.3454
   69DPPC   C17 3417   4.509   0.950   4.606  0.3601 -0.6370  0.0067
   69DPPC   C18 3418   4.427   0.951   4.477  0.1584  0.0589  0.1337
   69DPPC   C19 3419   4.503   0.972   4.346  0.2600 -0.2961  0.1357
   69DPPC   C20 3420   4.430   0.960   4.212 -0.2066 -0.1974  0.3805
   69DPPC   C21 3421   4.325   1.067   4.183  0.4505  0.3057 -0.1979
   69DPPC   C22 3422   4.265   1.037   4.046  0.4518  1.2184 -0.4087
   69DPPC   C23 3423   4.126   1.101   4.033 -0.2936 -0.3123 -0.2816
   69DPPC   C24 3424   4.071   1.080   3.892  0.0280  0.5207 -0.5357
   69DPPC   C25 3425   4.056   0.929   3.874  1.2592  0.3345 -0.0767
   69DPPC   C26 3426   4.039   0.897   3.726 -0.3041 -0.0573  0.1739
   69DPPC   C27 3427   4.014   0.747   3.710 -0.0899 -0.1006  0.2470
   69DPPC   C28 3428   3.895   0.705   3.797 -0.2588  0.4142  0.2663
   69DPPC   C29 3429   3.880   0.553   3.811  0.1057  0.3167 -0.3587
   69DPPC   C30 3430   3.735   0.508   3.832  0.3051 -0.0536  0.2265
   69DPPC   C31 3431   3.675   0.567   3.959 -0.2762  0.2204 -0.1724
   69DPPC   C32 3432   4.056   0.999   4.768 -0.3770  0.0369  0.0157
   69DPPC   O33 3433   4.013   1.113   4.693  0.1173  0.1184 -0.1473
   69DPPC   C34 3434   3.885   1.124   4.649  0.0078 -0.8072 -0.0878
   69DPPC   O35 3435   3.789   1.084   4.716  0.2632 -0.4919  0.4725
   69DPPC   C36 3436   3.872   1.203   4.519 -0.3099 -0.1332  0.3475
   69DPPC   C37 3437   3.884   1.351   4.559 -0.7894 -0.0967  0.3632
   69DPPC   C38 3438   3.862   1.434   4.433 -0.3373 -0.0427  0.3202
   69DPPC   C39 3439   3.936   1.383   4.308 -0.3429  0.1845  0.2227
   69DPPC   C40 3440   3.915   1.467   4.182  0.4462 -0.2170 -0.1798
   69DPPC   C41 3441   3.974   1.607   4.196  0.2652 -0.1338 -0.2461
   69DPPC   C42 3442   3.944   1.691   4.072 -0.8001  0.3434  0.3245
   69DPPC   C43 3443   4.011   1.827   4.098  0.4979 -0.2086 -0.0569
   69DPPC   C44 3444   3.972   1.928   3.990 -0.2913 -0.4983 -0.0537
   69DPPC   C45 3445   4.023   1.886   3.852 -0.1471 -1.1101  0.1813
   69DPPC   C46 3446   3.952   1.965   3.742  0.2912 -0.1938  0.5450
   69DPPC   C47 3447   3.987   1.895   3.610 -0.0260  0.2735  0.2107
   69DPPC   C48 3448   3.920   1.948   3.483 -0.0771 -0.2580  0.0159
   69DPPC   C49 3449   3.964   1.864   3.363 -0.2508 -0.0088 -0.2205
   69DPPC   C50 3450   3.904   1.908   3.229 -0.6997  0.6105  0.1781
   70DPPC    C1 3451   3.090   1.880   5.317 -0.9204  0.4272  0.0213
   70DPPC    C2 3452   3.144   2.012   5.131  0.4463 -0.4091 -0.1842
   70DPPC    C3 3453   3.308   1.963   5.294 -0.0613 -0.3105  0.3903
   70DPPC    N4 3454   3.167   1.999   5.275  0.0271 -0.2134 -0.0996
   70DPPC    C5 3455   3.117   2.111   5.356  0.5621  0.1842 -0.3221
   70DPPC    C6 3456   3.195   2.243   5.344  0.8229  0.0055 -0.5997
   70DPPC    O7 3457   3.161   2.316   5.226  0.0728 -0.0847 -0.4442
   70DPPC    P8 3458   3.280   2.421   5.198  0.0238  0.2029  0.3751
   70DPPC    O9 3459   3.205   2.528   5.128 -0.9572 -0.6202  0.1364
   70DPPC   O10 3460   3.357   2.426   5.324  0.4895  0.0492  0.0965
   70DPPC   O11 3461   3.346   2.335   5.079  0.0022  0.0419  0.4789
   70DPPC   C12 3462   3.371   2.416   4.963  0.1261 -0.3661  0.2193
   70DPPC   C13 3463   3.486   2.373   4.871 -0.1914 -0.1177 -0.2967
   70DPPC   O14 3464   3.557   2.475   4.798  0.0726 -0.7190 -0.8869
   70DPPC   C15 3465   3.689   2.457   4.774  0.2250 -0.7920 -0.0361
   70DPPC   O16 3466   3.751   2.365   4.827 -0.2012 -1.0028  0.0925
   70DPPC   C17 3467   3.734   2.537   4.651 -0.1225  0.1475  0.4331
   70DPPC   C18 3468   3.766   2.431   4.545 -0.2936 -0.0802  0.6072
   70DPPC   C19 3469   3.867   2.479   4.441 -0.3720 -0.0396  0.5497
   70DPPC   C20 3470   3.882   2.373   4.331  0.0587  0.6150 -0.0321
   70DPPC   C21 3471   4.002   2.392   4.238  0.9273 -0.6217  0.8051
   70DPPC   C22 3472   4.003   2.274   4.141 -0.4103 -0.5104  0.6399
   70DPPC   C23 3473   4.131   2.283   4.058 -0.4955  0.1964  0.5810
   70DPPC   C24 3474   4.124   2.422   3.993 -0.1246 -0.2995 -0.5441
   70DPPC   C25 3475   4.236   2.441   3.890 -0.2171 -0.1023 -0.6091
   70DPPC   C26 3476   4.218   2.325   3.792  0.5782 -0.5496 -0.2429
   70DPPC   C27 3477   4.326   2.335   3.684  0.2554  0.3106 -0.5019
   70DPPC   C28 3478   4.296   2.233   3.574  0.2147 -0.2637  0.0336
   70DPPC   C29 3479   4.393   2.241   3.456 -0.1011 -0.1760 -0.2225
   70DPPC   C30 3480   4.539   2.220   3.499 -0.0123  0.5889 -0.1406
   70DPPC   C31 3481   4.642   2.242   3.389 -0.0094 -0.4137 -0.3476
   70DPPC   C32 3482   3.426   2.255   4.795 -0.1807 -0.2376 -0.1209
   70DPPC   O33 3483   3.303   2.278   4.725  0.0274  0.2829 -0.3286
   70DPPC   C34 3484   3.264   2.167   4.657  0.3309 -0.1314  0.1615
   70DPPC   O35 3485   3.323   2.059   4.667  0.4279 -0.0590  0.3582
   70DPPC   C36 3486   3.157   2.178   4.548  0.8138  0.3092 -0.2726
   70DPPC   C37 3487   3.226   2.197   4.413  0.3251  0.7365 -0.4658
   70DPPC   C38 3488   3.129   2.183   4.296 -0.0875  0.3496 -0.0776
   70DPPC   C39 3489   3.189   2.166   4.157 -0.1348  0.4075 -0.1053
   70DPPC   C40 3490   3.083   2.151   4.048  0.3405  0.1874 -0.5432
   70DPPC   C41 3491   3.156   2.150   3.913  0.4163 -0.0734 -0.5008
   70DPPC   C42 3492   3.064   2.130   3.793  0.0078 -0.6638 -0.0953
   70DPPC   C43 3493   3.160   2.138   3.674  0.1269 -0.2433  0.0281
   70DPPC   C44 3494   3.099   2.119   3.535  0.0009  0.5776 -0.0332
   70DPPC   C45 3495   3.211   2.078   3.440 -0.0151  0.6586 -0.0866
   70DPPC   C46 3496   3.296   2.193   3.385  0.6891  0.1916  0.0107
   70DPPC   C47 3497   3.396   2.122   3.294 -0.1085 -0.1323 -0.6236
   70DPPC   C48 3498   3.496   2.222   3.238 -0.3175  0.3679 -0.1096
   70DPPC   C49 3499   3.599   2.159   3.144 -0.4644 -0.2280  0.1302
   70DPPC   C50 3500   3.710   2.262   3.123 -0.1319 -0.4437  0.7861
   71DPPC    C1 3501   3.465   3.080   5.876 -0.1833 -0.6542 -0.1031
   71DPPC    C2 3502   3.295   2.942   5.810  0.0714 -0.2028  0.1013
   71DPPC    C3 3503   3.329   3.170   5.710 -0.0084 -0.0038 -0.2146
   71DPPC    N4 3504   3.387   3.043   5.757 -0.2220 -0.1146 -0.2476
   71DPPC    C5 3505   3.476   2.975   5.662  0.3425  0.1783  0.0651
   71DPPC    C6 3506   3.624   3.014   5.648  0.3968 -0.0712 -0.0687
   71DPPC    O7 3507   3.634   3.132   5.568 -0.0450 -0.3679 -0.5749
   71DPPC    P8 3508   3.773   3.190   5.625 -0.1947 -0.2656 -0.3117
   71DPPC    O9 3509   3.819   3.318   5.568 -0.5715  0.1903  0.3946
   71DPPC   O10 3510   3.775   3.179   5.773 -0.2137 -0.4368 -0.3249
   71DPPC   O11 3511   3.869   3.073   5.570  0.0783  0.1258 -0.6730
   71DPPC   C12 3512   3.910   3.095   5.434 -0.0392  0.0393 -0.7233
   71DPPC   C13 3513   4.000   2.986   5.377  0.0073 -0.3758  0.1234
   71DPPC   O14 3514   4.064   3.015   5.252 -0.2543 -0.2892  0.0092
   71DPPC   C15 3515   4.178   2.943   5.229 -0.0703  0.0070 -0.0136
   71DPPC   O16 3516   4.228   2.864   5.308 -0.1165 -0.1146 -0.1053
   71DPPC   C17 3517   4.209   2.935   5.079  0.5544  0.2595  0.0994
   71DPPC   C18 3518   4.119   2.840   4.999  0.2060  0.4138  0.3049
   71DPPC   C19 3519   4.188   2.789   4.872 -0.1132  0.2550  0.1953
   71DPPC   C20 3520   4.071   2.761   4.777  0.0099  0.0053  0.1195
   71DPPC   C21 3521   4.121   2.772   4.633 -0.4687  0.2595 -0.0258
   71DPPC   C22 3522   4.009   2.806   4.534 -0.3112  0.4712 -0.1339
   71DPPC   C23 3523   4.077   2.855   4.406  0.1672 -0.5763 -0.2888
   71DPPC   C24 3524   3.988   2.887   4.286 -0.4570  0.4865  0.4396
   71DPPC   C25 3525   4.074   2.946   4.174 -0.2814 -0.3579  0.1152
   71DPPC   C26 3526   4.182   2.850   4.126 -0.1569 -0.1453 -0.0319
   71DPPC   C27 3527   4.267   2.925   4.023  0.1800  0.1832  0.4805
   71DPPC   C28 3528   4.397   2.859   3.978 -0.1512 -0.3826  0.3437
   71DPPC   C29 3529   4.455   2.935   3.858  0.3326 -0.9348  0.2191
   71DPPC   C30 3530   4.579   2.868   3.798  0.6079 -0.2138 -0.0225
   71DPPC   C31 3531   4.552   2.732   3.734  1.0338 -0.2982 -0.0246
   71DPPC   C32 3532   3.907   2.865   5.380  0.1499 -0.5008 -0.3435
   71DPPC   O33 3533   3.805   2.866   5.280  0.1267 -0.1343 -0.3152
   71DPPC   C34 3534   3.783   2.748   5.218 -0.2988 -0.0124 -0.3993
   71DPPC   O35 3535   3.817   2.637   5.260  0.4235  0.2244 -0.3524
   71DPPC   C36 3536   3.702   2.744   5.088 -0.2712  0.1328 -0.4204
   71DPPC   C37 3537   3.719   2.886   5.032 -0.2835  0.3647  0.1506
   71DPPC   C38 3538   3.683   2.883   4.883 -0.2030  0.0076  0.1358
   71DPPC   C39 3539   3.662   3.025   4.830  0.4231  0.3141  0.6862
   71DPPC   C40 3540   3.652   3.031   4.678  1.1205  0.0884  0.6295
   71DPPC   C41 3541   3.648   3.175   4.629  0.5815 -0.1146  0.0549
   71DPPC   C42 3542   3.671   3.172   4.477 -0.0747  0.2975 -0.0578
   71DPPC   C43 3543   3.569   3.079   4.413 -0.0479  0.1440  0.1209
   71DPPC   C44 3544   3.579   3.098   4.261  0.3935 -0.4873  0.0708
   71DPPC   C45 3545   3.494   2.998   4.183  0.4665 -0.3389 -0.1974
   71DPPC   C46 3546   3.479   3.044   4.037  0.5868 -0.2132 -0.1703
   71DPPC   C47 3547   3.373   2.953   3.974  0.5750 -0.4107  0.1298
   71DPPC   C48 3548   3.374   2.976   3.823 -0.3677 -0.6305  0.0858
   71DPPC   C49 3549   3.519   2.968   3.774 -0.3668  0.2425 -0.0675
   71DPPC   C50 3550   3.531   3.002   3.625 -0.6543  0.2158 -0.0969
   72DPPC    C1 3551   3.892   3.694   5.984 -0.6350  0.2501 -0.2975
   72DPPC    C2 3552   4.107   3.768   5.895 -0.5424  0.6470 -0.4828
   72DPPC    C3 3553   3.905   3.768   5.761 -0.7146 -0.4370  0.4158
   72DPPC    N4 3554   3.981   3.699   5.867 -0.1276 -0.3579  0.0547
   72DPPC    C5 3555   4.003   3.558   5.833 -0.7305 -0.4560  0.0540
   72DPPC    C6 3556   4.073   3.528   5.700  0.2609  0.8195  0.2722
   72DPPC    O7 3557   4.215   3.514   5.704  0.2470  0.1846 -0.8736
   72DPPC    P8 3558   4.247   3.360   5.669 -0.1208 -0.0409 -0.2378
   72DPPC    O9 3559   4.393   3.353   5.690 -0.1435  0.0996 -0.0258
   72DPPC   O10 3560   4.156   3.276   5.749 -0.0000  0.2044  0.1621
   72DPPC   O11 3561   4.201   3.372   5.515 -0.2360 -0.7723 -0.2643
   72DPPC   C12 3562   4.318   3.430   5.455 -0.2346 -0.1683  0.3109
   72DPPC   C13 3563   4.303   3.427   5.303  0.1120  0.2298  0.2672
   72DPPC   O14 3564   4.211   3.526   5.254  0.1347  0.2552  0.2763
   72DPPC   C15 3565   4.245   3.657   5.258  0.5440  0.1699 -0.3030
   72DPPC   O16 3566   4.300   3.704   5.358 -0.1135  0.6413 -0.1565
   72DPPC   C17 3567   4.149   3.735   5.168  0.1255  0.0954  0.0729
   72DPPC   C18 3568   4.228   3.815   5.064  0.0454  0.0423 -0.0284
   72DPPC   C19 3569   4.336   3.732   4.994 -0.1794  0.0871 -0.4352
   72DPPC   C20 3570   4.374   3.792   4.859  0.2213  0.6117 -0.0887
   72DPPC   C21 3571   4.462   3.693   4.783 -0.6653 -0.0771 -0.2315
   72DPPC   C22 3572   4.484   3.727   4.636 -0.6945 -0.4721 -0.3294
   72DPPC   C23 3573   4.544   3.608   4.562 -0.3456 -0.7580  0.4011
   72DPPC   C24 3574   4.561   3.647   4.415  0.4343 -0.3884  0.5869
   72DPPC   C25 3575   4.582   3.521   4.330 -0.0031  0.0666 -0.2093
   72DPPC   C26 3576   4.585   3.543   4.179  0.0063 -0.0653 -0.2275
   72DPPC   C27 3577   4.566   3.408   4.108 -0.1975 -0.3824  0.4139
   72DPPC   C28 3578   4.525   3.427   3.961 -0.0789  0.2087  0.4529
   72DPPC   C29 3579   4.513   3.305   3.870  0.2303  0.6879 -0.2339
   72DPPC   C30 3580   4.476   3.330   3.724  0.0953 -0.2873 -0.3745
   72DPPC   C31 3581   4.594   3.406   3.663 -0.2626  0.2604 -0.4005
   72DPPC   C32 3582   4.278   3.280   5.269  0.1249  0.2611  0.1197
   72DPPC   O33 3583   4.300   3.251   5.131  0.0611 -0.4466  0.2545
   72DPPC   C34 3584   4.429   3.261   5.089  0.1912 -1.0059  0.5118
   72DPPC   O35 3585   4.524   3.263   5.168  0.2111 -0.2876  0.4699
   72DPPC   C36 3586   4.454   3.212   4.946  0.1700  0.2100  0.0795
   72DPPC   C37 3587   4.407   3.313   4.842 -0.1236 -0.1970 -0.1874
   72DPPC   C38 3588   4.461   3.259   4.709  0.5280  0.0987 -0.0480
   72DPPC   C39 3589   4.399   3.123   4.675  0.0881  0.2070  0.3209
   72DPPC   C40 3590   4.468   3.065   4.552  0.2780  0.4403  0.3177
   72DPPC   C41 3591   4.462   3.155   4.428 -0.3773  0.3334  0.2696
   72DPPC   C42 3592   4.514   3.067   4.314  0.1145  0.6291  0.2655
   72DPPC   C43 3593   4.657   3.014   4.329  0.2657  1.0104  0.2006
   72DPPC   C44 3594   4.711   2.948   4.202 -0.0359  0.1685  0.4990
   72DPPC   C45 3595   4.860   2.917   4.220 -0.0683 -0.0209  0.4379
   72DPPC   C46 3596   4.872   2.841   4.352  0.1309  0.0428  0.4576
   72DPPC   C47 3597   5.020   2.806   4.363  0.1373 -0.2217 -0.4219
   72DPPC   C48 3598   5.054   2.730   4.491  0.3341  0.2924 -0.1670
   72DPPC   C49 3599   5.203   2.725   4.524  0.1796  0.4502  0.5828
   72DPPC   C50 3600   5.207   2.627   4.641 -0.2059 -0.5133 -0.2001
   73DPPC    C1 3601   2.922   0.766   4.686  0.4609 -0.1890  0.6067
   73DPPC    C2 3602   3.093   0.917   4.611  0.4516  0.2863 -0.3908
   73DPPC    C3 3603   3.137   0.728   4.748 -0.2704  0.2594  0.1372
   73DPPC    N4 3604   3.043   0.839   4.726  0.2549  0.6317 -0.2399
   73DPPC    C5 3605   3.028   0.917   4.849  0.3416  0.2805 -0.0043
   73DPPC    C6 3606   3.028   1.070   4.845 -0.1796  0.2850  0.1499
   73DPPC    O7 3607   3.162   1.121   4.838 -0.1306  0.1594  0.1638
   73DPPC    P8 3608   3.166   1.273   4.891 -0.0445  0.1080  0.3028
   73DPPC    O9 3609   3.059   1.280   4.993  0.1902 -0.6689  0.6127
   73DPPC   O10 3610   3.298   1.327   4.931  0.0133 -0.0061  0.2673
   73DPPC   O11 3611   3.106   1.357   4.767  0.0335 -0.1020  0.1229
   73DPPC   C12 3612   3.221   1.388   4.688 -0.1384 -0.1195 -0.1357
   73DPPC   C13 3613   3.205   1.476   4.565  0.0131 -0.1394 -0.1701
   73DPPC   O14 3614   3.318   1.502   4.481  0.1462  0.1183  0.0872
   73DPPC   C15 3615   3.433   1.562   4.523 -0.1676  0.9187 -0.1695
   73DPPC   O16 3616   3.463   1.596   4.637 -0.6983 -0.3523  0.3676
   73DPPC   C17 3617   3.536   1.574   4.410  0.1772 -0.0396  0.0395
   73DPPC   C18 3618   3.517   1.705   4.335  0.4818  0.2135  0.4007
   73DPPC   C19 3619   3.505   1.670   4.187  0.2629 -0.1028  0.4912
   73DPPC   C20 3620   3.473   1.795   4.105  0.1654 -0.3457  0.1554
   73DPPC   C21 3621   3.488   1.762   3.956  0.0402  0.4415 -0.0369
   73DPPC   C22 3622   3.368   1.808   3.873  0.2855  0.7666 -0.2143
   73DPPC   C23 3623   3.370   1.748   3.732 -0.1288  0.1216  0.0527
   73DPPC   C24 3624   3.497   1.800   3.664  0.0740 -0.0948  0.2639
   73DPPC   C25 3625   3.512   1.748   3.521 -0.0935 -0.2369  0.2967
   73DPPC   C26 3626   3.388   1.774   3.435  0.1441 -0.1455 -0.0209
   73DPPC   C27 3627   3.416   1.696   3.306 -0.1860 -0.5399  0.1412
   73DPPC   C28 3628   3.301   1.728   3.211  0.1821 -0.1526 -0.1821
   73DPPC   C29 3629   3.316   1.643   3.085  0.4327 -0.3424 -0.0254
   73DPPC   C30 3630   3.184   1.658   3.008  0.3689 -0.3173  0.0886
   73DPPC   C31 3631   3.190   1.595   2.869 -0.6633  0.1565 -0.1759
   73DPPC   C32 3632   3.125   1.595   4.620  0.2944  0.1490 -0.3804
   73DPPC   O33 3633   3.013   1.637   4.542 -0.3461 -0.5074  0.1666
   73DPPC   C34 3634   2.926   1.720   4.604 -0.1825 -0.0295 -0.2325
   73DPPC   O35 3635   2.930   1.716   4.727  0.3806  0.1095 -0.2413
   73DPPC   C36 3636   2.812   1.773   4.517 -0.2711 -0.2629 -0.2586
   73DPPC   C37 3637   2.788   1.922   4.542  0.4469 -0.0406 -0.8751
   73DPPC   C38 3638   2.685   1.972   4.441 -0.0406 -0.3226 -0.5221
   73DPPC   C39 3639   2.750   1.978   4.302  0.2121 -0.3414 -0.4057
   73DPPC   C40 3640   2.654   1.998   4.185 -0.3515 -0.2970  0.0590
   73DPPC   C41 3641   2.722   2.036   4.053 -0.0986 -0.2784  0.1958
   73DPPC   C42 3642   2.623   2.083   3.947  0.0473 -0.2523  0.0705
   73DPPC   C43 3643   2.706   2.132   3.828 -0.2714  0.0360 -0.0370
   73DPPC   C44 3644   2.625   2.143   3.699  0.0105  1.4798 -0.1047
   73DPPC   C45 3645   2.718   2.190   3.586  0.5810  0.1207 -0.2270
   73DPPC   C46 3646   2.634   2.192   3.458  0.1113 -0.0077  0.0774
   73DPPC   C47 3647   2.716   2.258   3.347 -0.4369  0.1913 -0.2139
   73DPPC   C48 3648   2.639   2.269   3.215 -0.1244  0.0494 -0.4084
   73DPPC   C49 3649   2.747   2.309   3.115  0.3743 -0.0258  0.0955
   73DPPC   C50 3650   2.672   2.323   2.983 -0.0368  0.5899  0.3921
   74DPPC    C1 3651   2.847   2.507   4.869 -0.1711  0.0827 -0.2111
   74DPPC    C2 3652   2.842   2.392   5.074  0.0134 -0.8773 -0.3526
   74DPPC    C3 3653   3.012   2.346   4.903 -0.0281 -0.0197 -0.2914
   74DPPC    N4 3654   2.871   2.375   4.931 -0.0654 -0.0231 -0.4758
   74DPPC    C5 3655   2.772   2.300   4.852 -0.5150  0.2074 -0.1337
   74DPPC    C6 3656   2.716   2.179   4.928 -0.4372  0.4174  0.2642
   74DPPC    O7 3657   2.820   2.082   4.939 -0.1400  0.6925 -0.0748
   74DPPC    P8 3658   2.763   1.979   5.049  0.0152  0.1659 -0.4792
   74DPPC    O9 3659   2.844   1.856   5.060 -0.0354  0.1533 -0.2497
   74DPPC   O10 3660   2.715   2.064   5.161 -0.2528 -0.6395  0.0226
   74DPPC   O11 3661   2.624   1.941   4.977 -0.1839  0.0494 -0.0397
   74DPPC   C12 3662   2.645   1.814   4.915 -0.1694 -0.0543  0.1784
   74DPPC   C13 3663   2.533   1.778   4.818  0.2610 -0.0177 -0.3374
   74DPPC   O14 3664   2.578   1.672   4.731  0.3523 -0.5341  0.3298
   74DPPC   C15 3665   2.484   1.595   4.670 -0.3846  0.4839  0.1548
   74DPPC   O16 3666   2.394   1.540   4.732 -0.2365  0.1811  0.1022
   74DPPC   C17 3667   2.538   1.531   4.542 -0.1372 -0.5510  0.7687
   74DPPC   C18 3668   2.462   1.614   4.438  0.4881 -0.5089  0.3434
   74DPPC   C19 3669   2.521   1.575   4.302  0.3780  0.7266 -0.0693
   74DPPC   C20 3670   2.443   1.640   4.187 -0.4117  0.3568  0.2515
   74DPPC   C21 3671   2.521   1.621   4.057 -0.4878  0.1611  0.2344
   74DPPC   C22 3672   2.449   1.624   3.922  0.6521 -0.1930 -0.3972
   74DPPC   C23 3673   2.557   1.619   3.815  0.4234 -0.2994 -0.6244
   74DPPC   C24 3674   2.482   1.592   3.684 -0.6731 -0.2876 -0.0098
   74DPPC   C25 3675   2.443   1.728   3.626  0.0284 -0.1399 -0.1452
   74DPPC   C26 3676   2.345   1.720   3.508 -0.5635 -0.0789  0.3381
   74DPPC   C27 3677   2.442   1.765   3.398 -0.5999  0.0562  0.3616
   74DPPC   C28 3678   2.345   1.810   3.288 -0.3870  0.1615  0.2163
   74DPPC   C29 3679   2.429   1.851   3.167  0.1212  0.3037  0.6108
   74DPPC   C30 3680   2.342   1.949   3.088  0.5173 -0.2873 -0.5803
   74DPPC   C31 3681   2.423   2.040   2.995  0.3248  0.4385 -0.0424
   74DPPC   C32 3682   2.489   1.905   4.745 -0.0237 -0.0178 -0.1659
   74DPPC   O33 3683   2.382   1.900   4.651  0.1009 -0.2002 -0.2977
   74DPPC   C34 3684   2.338   2.022   4.612  0.2224 -0.2398 -0.5581
   74DPPC   O35 3685   2.419   2.115   4.612 -0.4404  0.3434  0.2156
   74DPPC   C36 3686   2.209   2.022   4.530  0.1383  0.0304 -0.4261
   74DPPC   C37 3687   2.226   1.934   4.406  0.1683  0.0117 -0.4088
   74DPPC   C38 3688   2.285   2.001   4.282  0.0966  0.5769 -0.1401
   74DPPC   C39 3689   2.240   1.945   4.147 -0.3370  0.2372  0.1410
   74DPPC   C40 3690   2.260   2.047   4.034 -0.2379 -0.1874 -0.2247
   74DPPC   C41 3691   2.189   1.963   3.927  0.2993 -0.0279 -0.7159
   74DPPC   C42 3692   2.145   2.056   3.813  0.0587  0.3498 -0.3208
   74DPPC   C43 3693   2.091   1.986   3.689 -0.1785 -0.2302  0.1068
   74DPPC   C44 3694   2.065   2.080   3.571 -0.0168 -0.1553  0.1311
   74DPPC   C45 3695   2.083   2.019   3.432  0.6424  0.1222  0.0878
   74DPPC   C46 3696   2.092   2.137   3.335  0.0939  0.0778 -0.0254
   74DPPC   C47 3697   2.195   2.237   3.389 -0.0868  0.1188  0.2426
   74DPPC   C48 3698   2.216   2.355   3.295  0.1606  0.1522  0.3379
   74DPPC   C49 3699   2.310   2.464   3.348  0.3595  0.2139 -0.1341
   74DPPC   C50 3700   2.282   2.591   3.267  0.2206  0.4355  0.2602
   75DPPC    C1 3701   2.709   3.031   5.258  0.3051 -0.5828  0.2511
   75DPPC    C2 3702   2.908   3.011   5.147 -0.0378  0.5101 -0.5565
   75DPPC    C3 3703   2.716   3.073   5.025  0.5895 -0.2175 -0.0969
   75DPPC    N4 3704   2.764   2.983   5.131  0.0521 -0.3376  0.0485
   75DPPC    C5 3705   2.752   2.839   5.101  0.2760 -0.3351 -0.0639
   75DPPC    C6 3706   2.611   2.779   5.095  0.1559 -0.0546 -0.1108
   75DPPC    O7 3707   2.622   2.643   5.051  0.0624 -0.0145 -0.2595
   75DPPC    P8 3708   2.479   2.571   5.067  0.0450  0.0721 -0.0284
   75DPPC    O9 3709   2.497   2.425   5.051  0.6032  0.1791 -0.4057
   75DPPC   O10 3710   2.410   2.638   5.180  0.0956  0.1625 -0.0506
   75DPPC   O11 3711   2.414   2.640   4.937  0.3442  0.2149 -0.1044
   75DPPC   C12 3712   2.431   2.555   4.823  0.0266  0.1018 -0.0690
   75DPPC   C13 3713   2.354   2.610   4.703 -0.1919 -0.0283  0.0113
   75DPPC   O14 3714   2.358   2.524   4.588 -0.8224  0.0733 -0.0919
   75DPPC   C15 3715   2.230   2.487   4.564 -0.7511  0.0195 -0.3898
   75DPPC   O16 3716   2.143   2.499   4.650 -0.2084  0.6832  0.0744
   75DPPC   C17 3717   2.204   2.390   4.448 -0.1987 -0.3545 -0.2042
   75DPPC   C18 3718   2.079   2.424   4.367 -0.4172 -0.0510  0.2535
   75DPPC   C19 3719   2.071   2.387   4.218 -0.6318  0.7823  0.0515
   75DPPC   C20 3720   2.180   2.452   4.133 -0.0091  0.0951  0.3137
   75DPPC   C21 3721   2.141   2.435   3.986  0.1479  0.0327  0.2797
   75DPPC   C22 3722   2.252   2.516   3.918 -0.0824  0.0551 -0.0754
   75DPPC   C23 3723   2.244   2.498   3.767  0.3170  0.5750 -0.1620
   75DPPC   C24 3724   2.355   2.585   3.708  0.4376  0.2307 -0.4472
   75DPPC   C25 3725   2.493   2.541   3.757  0.2428  0.0518 -0.0566
   75DPPC   C26 3726   2.607   2.628   3.704 -0.0485  0.5083  0.0608
   75DPPC   C27 3727   2.615   2.601   3.553  0.4551 -0.3569  0.2356
   75DPPC   C28 3728   2.754   2.655   3.521  0.3257 -0.2093 -0.0797
   75DPPC   C29 3729   2.802   2.625   3.379  0.2327 -0.4965 -0.0507
   75DPPC   C30 3730   2.701   2.665   3.272 -0.0009 -0.6043  0.1274
   75DPPC   C31 3731   2.764   2.646   3.134  0.3067  0.3834  0.1225
   75DPPC   C32 3732   2.418   2.747   4.680 -0.4553  0.0270 -0.4111
   75DPPC   O33 3733   2.560   2.732   4.684 -0.4673  0.0058  0.0603
   75DPPC   C34 3734   2.640   2.842   4.672 -0.2602 -0.1508  0.0064
   75DPPC   O35 3735   2.592   2.955   4.670  0.4563  0.1525 -0.4505
   75DPPC   C36 3736   2.788   2.818   4.643 -0.3406  0.0370 -0.5661
   75DPPC   C37 3737   2.837   2.896   4.520 -0.5538 -0.0312 -0.6944
   75DPPC   C38 3738   2.966   2.840   4.463  0.0765  0.8330 -0.1457
   75DPPC   C39 3739   3.007   2.912   4.334 -0.4593  0.5279 -0.4917
   75DPPC   C40 3740   2.893   2.890   4.235 -0.4501  0.1169 -0.4133
   75DPPC   C41 3741   2.943   2.944   4.100  0.0014 -0.0197 -0.3033
   75DPPC   C42 3742   2.820   2.941   4.010 -0.1963  0.6303 -0.0575
   75DPPC   C43 3743   2.857   3.023   3.886  0.1502  0.1384 -0.2826
   75DPPC   C44 3744   2.908   2.943   3.766 -0.0252  0.2123 -0.4084
   75DPPC   C45 3745   2.956   3.036   3.654 -0.5322  0.1206 -0.7050
   75DPPC   C46 3746   3.031   2.955   3.548  0.1037 -0.0597 -0.1313
   75DPPC   C47 3747   3.114   3.046   3.457 -0.2575 -0.2434 -0.6507
   75DPPC   C48 3748   3.220   2.958   3.391  0.1193  0.1087 -0.5194
   75DPPC   C49 3749   3.162   2.856   3.293 -0.1401 -0.4411  0.2029
   75DPPC   C50 3750   3.279   2.776   3.236  0.4586  0.3588  0.2877
   76DPPC    C1 3751   3.498   3.367   5.378 -0.5861 -0.1079  0.0795
   76DPPC    C2 3752   3.649   3.408   5.197 -0.6792  0.3575  0.4492
   76DPPC    C3 3753   3.425   3.341   5.147 -0.0367 -0.1610  0.0933
   76DPPC    N4 3754   3.536   3.324   5.242 -0.2145 -0.3762  0.2655
   76DPPC    C5 3755   3.589   3.187   5.244  0.0524 -0.2811 -0.0956
   76DPPC    C6 3756   3.494   3.074   5.285  0.5775 -0.6869  0.0157
   76DPPC    O7 3757   3.386   3.057   5.192  0.3322 -0.0584  0.1804
   76DPPC    P8 3758   3.295   2.931   5.232  0.1838  0.0261  0.1096
   76DPPC    O9 3759   3.379   2.811   5.257  0.1846 -0.2014 -0.9082
   76DPPC   O10 3760   3.204   2.998   5.327 -0.2291 -0.5158  0.1029
   76DPPC   O11 3761   3.231   2.914   5.085  0.3068 -0.0145  0.0611
   76DPPC   C12 3762   3.322   2.860   4.988  0.5037  0.0405  0.2132
   76DPPC   C13 3763   3.273   2.899   4.849 -0.0386 -0.0667  0.3719
   76DPPC   O14 3764   3.323   2.798   4.760 -0.2847  0.2081 -0.0839
   76DPPC   C15 3765   3.245   2.696   4.716  0.4525 -0.5572  0.3572
   76DPPC   O16 3766   3.127   2.689   4.750  0.3149 -0.1462 -0.0272
   76DPPC   C17 3767   3.299   2.598   4.612  0.0572 -0.3852 -0.0150
   76DPPC   C18 3768   3.385   2.659   4.502  0.5737 -0.1952  0.4904
   76DPPC   C19 3769   3.401   2.564   4.383  0.0908  0.0576  0.2234
   76DPPC   C20 3770   3.476   2.631   4.267 -0.3513  0.2889  0.0678
   76DPPC   C21 3771   3.494   2.548   4.140 -0.8749  0.0639  0.1385
   76DPPC   C22 3772   3.569   2.627   4.033 -0.1935 -0.4559  0.2311
   76DPPC   C23 3773   3.699   2.671   4.100  0.0843 -0.5463 -0.2389
   76DPPC   C24 3774   3.767   2.776   4.012  0.2606 -0.0239  0.5030
   76DPPC   C25 3775   3.855   2.710   3.905 -0.4558  0.1035 -0.1742
   76DPPC   C26 3776   3.917   2.817   3.815  0.0353  0.0946  0.1555
   76DPPC   C27 3777   4.021   2.754   3.723 -0.2942  0.1930 -0.2832
   76DPPC   C28 3778   4.066   2.867   3.629  0.0171  0.0141 -0.3517
   76DPPC   C29 3779   4.182   2.804   3.552 -0.2905 -0.2343 -0.6196
   76DPPC   C30 3780   4.223   2.904   3.444  0.2254 -0.0873 -0.2901
   76DPPC   C31 3781   4.239   3.041   3.510  0.0053 -0.4390  0.5085
   76DPPC   C32 3782   3.324   3.042   4.831  0.2638 -0.2686 -0.3965
   76DPPC   O33 3783   3.230   3.129   4.768 -0.2322 -0.1729  0.4707
   76DPPC   C34 3784   3.277   3.256   4.757 -0.1131 -0.2077  0.5774
   76DPPC   O35 3785   3.369   3.295   4.829  0.6128  0.4945 -0.7035
   76DPPC   C36 3786   3.221   3.344   4.645  0.9518  0.1316  0.2991
   76DPPC   C37 3787   3.249   3.286   4.506 -0.0122 -0.1667  0.2215
   76DPPC   C38 3788   3.158   3.361   4.408  0.4726  0.2014  0.0455
   76DPPC   C39 3789   3.186   3.321   4.263  0.4887 -0.2249  0.1648
   76DPPC   C40 3790   3.061   3.352   4.180  0.2588 -0.0452  0.5765
   76DPPC   C41 3791   3.097   3.319   4.035  0.2547  0.3404  0.4870
   76DPPC   C42 3792   3.124   3.451   3.962  0.2341 -0.0817 -0.2871
   76DPPC   C43 3793   3.149   3.425   3.813 -0.1412  0.0498 -0.3722
   76DPPC   C44 3794   3.292   3.449   3.765  0.0905 -0.1589  0.2059
   76DPPC   C45 3795   3.295   3.428   3.614 -0.2930  0.8966  0.0379
   76DPPC   C46 3796   3.433   3.388   3.561 -0.3467  0.2373  0.3855
   76DPPC   C47 3797   3.439   3.366   3.410  0.1548  0.3917  0.3806
   76DPPC   C48 3798   3.442   3.491   3.321 -0.0437  0.3039  0.2494
   76DPPC   C49 3799   3.412   3.458   3.174 -0.4116  0.3666  0.3100
   76DPPC   C50 3800   3.273   3.396   3.164 -0.3525  0.3545 -0.4440
   77DPPC    C1 3801   2.751   1.404   4.872  0.1406  0.4683  0.0865
   77DPPC    C2 3802   2.768   1.492   5.087 -0.0899  0.0162  0.2753
   77DPPC    C3 3803   2.547   1.419   4.993  0.1022 -0.7588 -0.0675
   77DPPC    N4 3804   2.692   1.396   5.006  0.2036 -0.0582  0.0834
   77DPPC    C5 3805   2.725   1.275   5.083 -0.5738 -0.3156  0.0184
   77DPPC    C6 3806   2.669   1.135   5.054 -0.3164 -0.3395 -0.3670
   77DPPC    O7 3807   2.703   1.097   4.920  0.2648  0.1288 -0.3602
   77DPPC    P8 3808   2.634   0.960   4.870 -0.1718  0.2736 -0.1626
   77DPPC    O9 3809   2.708   0.852   4.939 -0.3332  0.4831  0.3381
   77DPPC   O10 3810   2.497   0.992   4.917 -0.2506 -0.3149  0.0090
   77DPPC   O11 3811   2.665   0.977   4.713 -0.0365 -0.5423 -0.2281
   77DPPC   C12 3812   2.547   1.033   4.654  0.2132  0.2623  0.0177
   77DPPC   C13 3813   2.546   1.017   4.502  0.1297 -0.1941  0.0640
   77DPPC   O14 3814   2.514   0.886   4.453  0.1480 -0.0272 -0.4033
   77DPPC   C15 3815   2.383   0.849   4.443  0.1498 -0.2641  0.3528
   77DPPC   O16 3816   2.296   0.902   4.512  0.1896  0.1761  0.0709
   77DPPC   C17 3817   2.362   0.707   4.390 -0.0745 -0.0161 -0.2354
   77DPPC   C18 3818   2.315   0.715   4.245  0.0975  0.6209 -0.2586
   77DPPC   C19 3819   2.296   0.579   4.178 -0.1533  0.5102  0.0363
   77DPPC   C20 3820   2.204   0.594   4.057 -0.6110 -0.2616  0.2806
   77DPPC   C21 3821   2.230   0.476   3.963  0.4905  0.1425  0.0721
   77DPPC   C22 3822   2.128   0.462   3.850  0.2340  0.0295  0.3168
   77DPPC   C23 3823   2.135   0.592   3.769  0.9135 -0.2318 -0.0485
   77DPPC   C24 3824   2.045   0.573   3.646  1.0866 -0.4708 -0.1396
   77DPPC   C25 3825   2.049   0.686   3.543 -0.3830  0.1399  0.4515
   77DPPC   C26 3826   1.926   0.660   3.456  0.1625 -0.2826 -0.2052
   77DPPC   C27 3827   1.923   0.764   3.344 -0.5042  0.2828  0.3261
   77DPPC   C28 3828   1.804   0.762   3.248 -0.4618 -0.4224  0.2789
   77DPPC   C29 3829   1.689   0.824   3.329  0.5057  1.0259  0.5772
   77DPPC   C30 3830   1.557   0.839   3.253  0.3170 -0.8145  0.5114
   77DPPC   C31 3831   1.440   0.868   3.347  0.0362  0.3757 -0.1801
   77DPPC   C32 3832   2.686   1.051   4.449  0.1174  0.1395  0.2479
   77DPPC   O33 3833   2.702   1.194   4.447  0.0563  0.1393 -0.2783
   77DPPC   C34 3834   2.828   1.243   4.443  0.0375  0.1601 -0.7363
   77DPPC   O35 3835   2.921   1.163   4.438 -0.0715 -0.0537  0.3928
   77DPPC   C36 3836   2.849   1.393   4.424  0.1710  0.2176 -0.1726
   77DPPC   C37 3837   2.947   1.421   4.309  0.1823 -0.4686 -0.3305
   77DPPC   C38 3838   2.913   1.548   4.231  0.2328 -0.4093 -0.2543
   77DPPC   C39 3839   2.988   1.570   4.099 -0.0456  0.2548 -0.3056
   77DPPC   C40 3840   2.938   1.696   4.028  0.5941  0.5750 -0.1938
   77DPPC   C41 3841   2.983   1.672   3.884  0.7219 -0.1446 -0.0364
   77DPPC   C42 3842   2.930   1.787   3.799  0.0588 -0.0823  0.4458
   77DPPC   C43 3843   2.967   1.770   3.651 -1.0003 -0.1213  0.1831
   77DPPC   C44 3844   2.927   1.650   3.565 -0.0727 -0.1247 -0.2516
   77DPPC   C45 3845   2.938   1.657   3.413  0.0044  0.0651 -0.2371
   77DPPC   C46 3846   2.866   1.777   3.352 -0.1729  0.0154 -0.1263
   77DPPC   C47 3847   2.864   1.778   3.199 -1.1743  0.0071 -0.1223
   77DPPC   C48 3848   2.804   1.912   3.154 -0.3903  0.5077  0.2886
   77DPPC   C49 3849   2.805   1.921   3.002 -0.0386  0.2420  0.2741
   77DPPC   C50 3850   2.743   1.791   2.948 -0.0926  0.1673  0.5168
   78DPPC    C1 3851   1.384   1.414   5.094  0.1592 -0.5105 -0.3079
   78DPPC    C2 3852   1.353   1.540   5.299 -0.2735 -1.4165 -0.2544
   78DPPC    C3 3853   1.289   1.633   5.098 -0.0944 -0.9244 -0.2271
   78DPPC    N4 3854   1.392   1.546   5.157  0.1189 -0.5991 -0.1162
   78DPPC    C5 3855   1.517   1.622   5.140 -0.0011 -0.5146 -0.6434
   78DPPC    C6 3856   1.638   1.546   5.194 -0.2063 -0.4248 -0.0397
   78DPPC    O7 3857   1.768   1.606   5.198 -0.2191 -0.3596 -0.5261
   78DPPC    P8 3858   1.880   1.492   5.218  0.4022  0.3429  0.0586
   78DPPC    O9 3859   2.002   1.570   5.248  0.3457  0.3923  0.1583
   78DPPC   O10 3860   1.821   1.394   5.312  0.7052  0.3193  0.2272
   78DPPC   O11 3861   1.870   1.404   5.083  0.0483 -0.1939  0.4321
   78DPPC   C12 3862   1.939   1.454   4.968  0.0154 -0.3486  0.3450
   78DPPC   C13 3863   1.914   1.355   4.854  0.3319  0.1476 -0.1622
   78DPPC   O14 3864   2.007   1.366   4.746  0.4383  0.3122 -0.0540
   78DPPC   C15 3865   2.113   1.280   4.741  0.2764  0.0747  0.5112
   78DPPC   O16 3866   2.104   1.187   4.821 -1.0242 -0.0585  0.2457
   78DPPC   C17 3867   2.205   1.288   4.619  0.2817 -0.0669  0.5064
   78DPPC   C18 3868   2.157   1.201   4.502  0.6100 -0.3478  0.5815
   78DPPC   C19 3869   2.240   1.221   4.375 -0.0777  0.2574  0.2234
   78DPPC   C20 3870   2.188   1.123   4.269  0.5964  0.0725  0.0553
   78DPPC   C21 3871   2.257   1.147   4.135 -0.1069  0.1366 -0.2991
   78DPPC   C22 3872   2.408   1.129   4.148 -0.1326  0.1143 -0.0302
   78DPPC   C23 3873   2.469   1.133   4.008 -0.0043 -0.5035  0.0074
   78DPPC   C24 3874   2.615   1.178   4.015 -0.1020 -0.1905  0.0569
   78DPPC   C25 3875   2.652   1.249   3.884  0.0409 -0.0326  0.1821
   78DPPC   C26 3876   2.804   1.246   3.874 -0.0026 -0.2544 -0.4342
   78DPPC   C27 3877   2.837   1.290   3.731  0.1422  0.7637 -0.0917
   78DPPC   C28 3878   2.783   1.189   3.630 -0.0696  0.6205  0.1612
   78DPPC   C29 3879   2.815   1.233   3.487 -0.0392  0.0545 -0.0082
   78DPPC   C30 3880   2.721   1.341   3.431 -0.3041 -0.2699 -0.1967
   78DPPC   C31 3881   2.585   1.282   3.394 -0.5816  0.5949 -0.5748
   78DPPC   C32 3882   1.769   1.384   4.813  0.1116 -0.0716  0.4424
   78DPPC   O33 3883   1.745   1.522   4.788  0.3368 -0.0496  0.3441
   78DPPC   C34 3884   1.620   1.568   4.763  0.2054 -0.4646  0.2450
   78DPPC   O35 3885   1.530   1.543   4.843 -0.0054  0.2779  0.2469
   78DPPC   C36 3886   1.616   1.689   4.669  0.0801 -0.5636  0.1205
   78DPPC   C37 3887   1.610   1.642   4.524  0.6518  0.4566 -0.2472
   78DPPC   C38 3888   1.752   1.604   4.483  0.6445  0.3423 -0.1679
   78DPPC   C39 3889   1.776   1.575   4.335 -0.1719 -0.4789 -0.1458
   78DPPC   C40 3890   1.916   1.514   4.337 -0.0269 -0.1455  0.1031
   78DPPC   C41 3891   1.973   1.497   4.196 -0.4892 -0.2643 -0.0727
   78DPPC   C42 3892   2.016   1.626   4.126  0.2454 -0.3352  0.2406
   78DPPC   C43 3893   1.939   1.654   3.997 -0.0227  0.1320  0.4972
   78DPPC   C44 3894   1.961   1.548   3.889 -0.1643  0.4042  0.2000
   78DPPC   C45 3895   2.107   1.509   3.864 -0.2103  0.4880 -0.2056
   78DPPC   C46 3896   2.113   1.394   3.764  0.2066  0.0602  0.3099
   78DPPC   C47 3897   2.258   1.360   3.727  0.1258  0.1164 -0.0587
   78DPPC   C48 3898   2.265   1.246   3.626 -0.2101 -0.3061  0.3912
   78DPPC   C49 3899   2.227   1.114   3.694  0.0181 -0.6072 -0.0564
   78DPPC   C50 3900   2.240   0.997   3.596 -0.0225 -0.4270 -0.2804
   79DPPC    C1 3901   1.887   2.446   5.106  0.0090 -0.2210  0.3429
   79DPPC    C2 3902   2.119   2.438   5.067 -0.3275 -0.3632 -0.8680
   79DPPC    C3 3903   1.992   2.543   4.914 -0.1062 -0.7676  0.4912
   79DPPC    N4 3904   2.001   2.526   5.059 -0.1079  0.0935  0.5945
   79DPPC    C5 3905   2.026   2.644   5.144  0.1740  0.2390  0.3113
   79DPPC    C6 3906   1.949   2.773   5.117 -0.1790 -0.0058  0.1329
   79DPPC    O7 3907   1.806   2.762   5.127 -0.1316 -0.0712  0.8069
   79DPPC    P8 3908   1.744   2.904   5.084 -0.2402 -0.3343  0.0691
   79DPPC    O9 3909   1.597   2.896   5.088 -0.2077 -0.9902  0.0167
   79DPPC   O10 3910   1.812   3.009   5.164 -0.3758  0.0974 -0.3741
   79DPPC   O11 3911   1.796   2.899   4.932 -0.0055  0.0165  0.1351
   79DPPC   C12 3912   1.692   2.836   4.857  0.1833  0.1621 -0.2511
   79DPPC   C13 3913   1.710   2.855   4.706  0.2044  0.1748 -0.2472
   79DPPC   O14 3914   1.610   2.789   4.627 -0.1640 -0.2786  0.5865
   79DPPC   C15 3915   1.612   2.654   4.610 -0.1879 -0.1610 -0.4023
   79DPPC   O16 3916   1.697   2.590   4.671  0.3229  0.8641 -0.0244
   79DPPC   C17 3917   1.500   2.594   4.524 -0.6364  0.0812  0.0132
   79DPPC   C18 3918   1.569   2.564   4.391  0.0256  0.1000  0.3508
   79DPPC   C19 3919   1.618   2.686   4.314  0.3223 -0.3264 -0.1426
   79DPPC   C20 3920   1.689   2.642   4.186  0.5176 -0.2898 -0.0478
   79DPPC   C21 3921   1.743   2.763   4.109  0.5432 -0.2465  0.0387
   79DPPC   C22 3922   1.790   2.703   3.976  0.3131 -0.2236 -0.0531
   79DPPC   C23 3923   1.822   2.822   3.886 -0.5087  0.0169 -0.0416
   79DPPC   C24 3924   1.891   2.763   3.762 -0.0269  0.2812  0.0966
   79DPPC   C25 3925   1.980   2.865   3.690 -0.0207  0.2102  0.0040
   79DPPC   C26 3926   2.045   2.809   3.563  0.0619  0.6205 -0.1338
   79DPPC   C27 3927   2.139   2.910   3.499  0.8164  0.2026  0.3033
   79DPPC   C28 3928   2.052   3.023   3.444 -0.0728 -0.4324  0.3999
   79DPPC   C29 3929   1.969   2.994   3.318  0.2853  0.0934  0.0379
   79DPPC   C30 3930   2.070   2.959   3.210 -0.1575  0.0155 -0.3539
   79DPPC   C31 3931   1.995   2.983   3.079 -0.6205 -0.1027 -0.1119
   79DPPC   C32 3932   1.853   2.832   4.658  0.0451 -0.4147 -0.4488
   79DPPC   O33 3933   1.888   2.853   4.521 -0.0986 -0.0431 -0.4292
   79DPPC   C34 3934   2.021   2.844   4.492 -0.0281 -0.0971 -0.0918
   79DPPC   O35 3935   2.108   2.854   4.578 -0.0512  0.2078 -0.1037
   79DPPC   C36 3936   2.052   2.868   4.345 -0.5875  0.1729 -0.1703
   79DPPC   C37 3937   2.205   2.861   4.332 -0.5696  0.4418 -0.1232
   79DPPC   C38 3938   2.259   2.878   4.190 -0.0802  0.5087  0.0712
   79DPPC   C39 3939   2.410   2.859   4.202 -0.1591  0.3859  0.9994
   79DPPC   C40 3940   2.443   2.718   4.252 -0.3155 -0.1242 -0.2750
   79DPPC   C41 3941   2.593   2.691   4.242 -0.2321  0.0711  0.3974
   79DPPC   C42 3942   2.621   2.554   4.305 -0.4037  0.1154  0.5712
   79DPPC   C43 3943   2.769   2.530   4.275 -0.5318 -0.6218  0.4949
   79DPPC   C44 3944   2.808   2.512   4.129  0.4466 -0.4693  0.7251
   79DPPC   C45 3945   2.953   2.558   4.122  0.3445 -0.1989  0.3577
   79DPPC   C46 3946   3.014   2.517   3.988 -0.0824 -0.0844  0.1255
   79DPPC   C47 3947   3.166   2.522   4.007 -0.1043 -0.1408  0.3173
   79DPPC   C48 3948   3.190   2.511   3.856  0.0476  0.0392  0.3281
   79DPPC   C49 3949   3.337   2.491   3.815  0.0671 -0.0135  0.4239
   79DPPC   C50 3950   3.353   2.480   3.663  0.3265 -0.4035  0.4787
   80DPPC    C1 3951   2.249   4.126   4.738  0.3195 -0.3690 -0.4414
   80DPPC    C2 3952   2.022   4.138   4.798 -0.1516 -0.6962  0.7119
   80DPPC    C3 3953   2.167   4.205   4.952 -0.0263 -0.1749 -0.2883
   80DPPC    N4 3954   2.155   4.102   4.848  0.3959 -0.1815 -0.3345
   80DPPC    C5 3955   2.155   3.958   4.879 -0.1435 -0.2536 -0.6559
   80DPPC    C6 3956   2.277   3.872   4.911 -0.0476 -0.0038 -0.3490
   80DPPC    O7 3957   2.262   3.732   4.885  0.7002 -0.1970  0.2250
   80DPPC    P8 3958   2.401   3.660   4.924  0.7047 -0.1618  0.2749
   80DPPC    O9 3959   2.429   3.734   5.049  0.5894 -0.0333  0.2242
   80DPPC   O10 3960   2.356   3.519   4.914 -0.8356  0.3357 -0.0790
   80DPPC   O11 3961   2.455   3.712   4.781  0.2344 -0.0769  0.1253
   80DPPC   C12 3962   2.475   3.601   4.694 -0.1455 -0.1716  0.1572
   80DPPC   C13 3963   2.483   3.623   4.543  0.0669  0.0201  0.1970
   80DPPC   O14 3964   2.612   3.662   4.495 -0.0071  0.0861  0.0512
   80DPPC   C15 3965   2.713   3.571   4.489  0.1160  0.2170  0.1304
   80DPPC   O16 3966   2.691   3.458   4.531  0.3683  0.2353  0.3124
   80DPPC   C17 3967   2.852   3.624   4.450 -0.0612  0.7329  0.1936
   80DPPC   C18 3968   2.852   3.700   4.317 -0.5342 -0.3639 -0.4459
   80DPPC   C19 3969   3.001   3.720   4.289 -0.4804 -0.0251  0.0608
   80DPPC   C20 3970   3.009   3.805   4.161 -0.0284 -0.7547 -0.4038
   80DPPC   C21 3971   3.151   3.841   4.117  0.0590 -0.1913  0.3189
   80DPPC   C22 3972   3.164   3.912   3.982 -0.3325 -0.5798  0.0704
   80DPPC   C23 3973   3.306   3.966   3.960 -0.4903 -0.1240  0.1506
   80DPPC   C24 3974   3.352   4.048   4.080 -0.0570 -0.5785  0.2985
   80DPPC   C25 3975   3.504   4.043   4.082 -0.0632 -0.7582  0.2783
   80DPPC   C26 3976   3.553   4.124   4.202  0.2243 -0.3561 -0.1074
   80DPPC   C27 3977   3.703   4.119   4.232  0.3813 -0.1110 -0.8153
   80DPPC   C28 3978   3.745   4.176   4.368  0.1716 -0.3500 -0.6477
   80DPPC   C29 3979   3.653   4.119   4.476  0.4899  0.1240 -0.1183
   80DPPC   C30 3980   3.672   4.181   4.614  0.1983 -0.5283  0.2212
   80DPPC   C31 3981   3.562   4.122   4.703  0.0181 -0.0265  0.3347
   80DPPC   C32 3982   2.377   3.730   4.516  0.1099 -0.0057 -0.0742
   80DPPC   O33 3983   2.262   3.662   4.467  0.0112  0.2202 -0.1610
   80DPPC   C34 3984   2.140   3.715   4.497 -0.1379  0.0616 -0.4806
   80DPPC   O35 3985   2.121   3.819   4.559 -0.2487 -0.2601  0.0353
   80DPPC   C36 3986   2.011   3.650   4.446 -0.3730 -0.0037  0.1835
   80DPPC   C37 3987   2.023   3.510   4.385  0.0757  0.0047  0.2468
   80DPPC   C38 3988   1.887   3.455   4.342  0.0714 -0.1919  0.5078
   80DPPC   C39 3989   1.915   3.320   4.275 -0.3559  0.3424 -0.7878
   80DPPC   C40 3990   2.030   3.336   4.176  0.3463 -0.0081 -0.0419
   80DPPC   C41 3991   2.065   3.210   4.096 -0.0496  0.1830 -0.5210
   80DPPC   C42 3992   2.195   3.226   4.018  0.1370  0.4017 -0.1692
   80DPPC   C43 3993   2.208   3.118   3.910 -0.2695 -0.0897  0.2741
   80DPPC   C44 3994   2.348   3.107   3.851 -0.4076  0.0518 -0.0820
   80DPPC   C45 3995   2.372   2.972   3.782  0.4046  0.0968  0.0995
   80DPPC   C46 3996   2.488   2.982   3.683  0.1373  0.2835 -0.1965
   80DPPC   C47 3997   2.450   3.075   3.568 -0.4745 -0.3978 -0.5549
   80DPPC   C48 3998   2.558   3.067   3.460  0.0636  0.0432 -0.0522
   80DPPC   C49 3999   2.508   3.127   3.329  0.3705 -0.1122 -0.2401
   80DPPC   C50 4000   2.439   3.021   3.243  0.0955  0.1082 -0.2893
   81DPPC    C1 4001   4.603   4.435   5.721 -0.4925 -0.1610 -0.1896
   81DPPC    C2 4002   4.803   4.534   5.608  0.2415 -0.2779  0.4307
   81DPPC    C3 4003   4.647   4.664   5.730 -0.0300  0.2756 -0.1791
   81DPPC    N4 4004   4.660   4.546   5.644  0.2479 -0.1197  0.4058
   81DPPC    C5 4005   4.554   4.545   5.542 -0.0366  0.9588  0.6765
   81DPPC    C6 4006   4.585   4.629   5.419 -0.0303  0.0181  0.0255
   81DPPC    O7 4007   4.602   4.770   5.435 -0.2245  0.0874 -0.3485
   81DPPC    P8 4008   4.692   4.820   5.311  0.1026 -0.0986 -0.1884
   81DPPC    O9 4009   4.694   4.967   5.325 -0.2888 -0.1015 -0.0720
   81DPPC   O10 4010   4.809   4.730   5.319  0.1538 -0.0000  0.1862
   81DPPC   O11 4011   4.605   4.743   5.199 -0.0568  0.8697 -0.7422
   81DPPC   C12 4012   4.694   4.715   5.091 -0.0242  0.0164 -0.5072
   81DPPC   C13 4013   4.618   4.640   4.981 -0.2209 -0.5414  0.0070
   81DPPC   O14 4014   4.686   4.609   4.859  0.1459  0.2175  0.0089
   81DPPC   C15 4015   4.793   4.525   4.855 -0.0186  0.0168 -0.2178
   81DPPC   O16 4016   4.839   4.474   4.957 -0.4935 -0.1096 -0.0645
   81DPPC   C17 4017   4.852   4.487   4.719  0.2671 -0.4971  0.0497
   81DPPC   C18 4018   4.798   4.579   4.610  0.7812  0.0421  0.2446
   81DPPC   C19 4019   4.830   4.523   4.471  0.2481 -0.9214  0.5006
   81DPPC   C20 4020   4.981   4.513   4.448  0.3380  0.4974  0.3602
   81DPPC   C21 4021   5.011   4.501   4.298  0.4695  0.5336  0.3834
   81DPPC   C22 4022   5.018   4.635   4.224  0.4621  0.3234  0.0002
   81DPPC   C23 4023   5.093   4.624   4.091  0.3658 -0.0662 -0.0226
   81DPPC   C24 4024   5.116   4.757   4.020  0.4835 -0.1363 -0.1154
   81DPPC   C25 4025   5.137   4.748   3.868 -0.0946 -0.1097 -0.2002
   81DPPC   C26 4026   5.163   4.885   3.805 -0.1675  0.0666  0.1463
   81DPPC   C27 4027   5.026   4.936   3.760 -0.1018  0.5511  0.4941
   81DPPC   C28 4028   5.018   5.084   3.719  0.4298  0.4790  0.1231
   81DPPC   C29 4029   4.872   5.125   3.700  0.4430  0.3142 -0.3695
   81DPPC   C30 4030   4.857   5.263   3.635  0.2479  0.0392 -0.9112
   81DPPC   C31 4031   4.711   5.306   3.620  0.0012 -0.4305  0.0549
   81DPPC   C32 4032   4.503   4.738   4.955  0.1268 -0.2038 -0.2771
   81DPPC   O33 4033   4.551   4.872   4.946 -0.0610 -0.1283 -0.1790
   81DPPC   C34 4034   4.455   4.967   4.938  0.4255  0.4743  0.9294
   81DPPC   O35 4035   4.342   4.943   4.980  0.3091 -0.5007  0.0830
   81DPPC   C36 4036   4.495   5.093   4.861  0.2143 -0.4040 -0.6573
   81DPPC   C37 4037   4.500   5.225   4.939 -0.5327 -0.3792 -0.6466
   81DPPC   C38 4038   4.516   5.352   4.856  0.0270  0.2948  0.4767
   81DPPC   C39 4039   4.660   5.350   4.803 -0.3301 -0.2445 -0.4986
   81DPPC   C40 4040   4.704   5.483   4.742  0.3520 -0.2151  0.0528
   81DPPC   C41 4041   4.849   5.474   4.693  0.1391 -0.7803 -0.4750
   81DPPC   C42 4042   4.887   5.586   4.597 -0.1659 -0.0632  0.2347
   81DPPC   C43 4043   5.039   5.600   4.581 -0.2285 -0.0644 -0.3945
   81DPPC   C44 4044   5.105   5.591   4.719 -0.2972  0.2090 -0.3438
   81DPPC   C45 4045   5.257   5.598   4.723 -0.2707 -0.2792 -0.3955
   81DPPC   C46 4046   5.328   5.498   4.631  0.4214  0.0192 -0.1949
   81DPPC   C47 4047   5.480   5.512   4.640  0.4014 -0.1833  0.5418
   81DPPC   C48 4048   5.535   5.462   4.506 -0.2364 -0.2035  0.2848
   81DPPC   C49 4049   5.685   5.432   4.498 -0.3264 -0.5420 -0.1458
   81DPPC   C50 4050   5.748   5.408   4.360  0.4922 -0.5039  0.2186
   82DPPC    C1 4051   2.044   5.330   4.764 -0.2597  0.1950 -0.0797
   82DPPC    C2 4052   2.096   5.177   4.951  0.3871 -0.0333  0.4099
   82DPPC    C3 4053   2.201   5.385   4.930 -0.2106  0.4178  0.0422
   82DPPC    N4 4054   2.073   5.315   4.907  0.1998 -0.2617 -0.2208
   82DPPC    C5 4055   1.973   5.374   4.997 -0.1509 -0.2235 -0.6317
   82DPPC    C6 4056   1.961   5.525   5.022  0.1476 -0.2547 -0.2842
   82DPPC    O7 4057   1.902   5.598   4.914 -0.2172 -0.0326  0.0639
   82DPPC    P8 4058   1.974   5.741   4.900 -0.0091 -0.1364  0.0668
   82DPPC    O9 4059   1.860   5.834   4.889 -0.3144 -0.5180 -0.0387
   82DPPC   O10 4060   2.077   5.750   5.006  0.4870 -0.2685 -0.3999
   82DPPC   O11 4061   2.018   5.705   4.749  0.2065 -0.0346  0.1059
   82DPPC   C12 4062   1.909   5.715   4.657  0.4094  0.2336 -0.1064
   82DPPC   C13 4063   1.923   5.647   4.521  0.6024 -0.1385  0.0956
   82DPPC   O14 4064   1.898   5.506   4.511 -0.2181 -0.0261  0.4444
   82DPPC   C15 4065   1.772   5.457   4.492  0.0109 -0.3693 -0.2659
   82DPPC   O16 4066   1.678   5.508   4.553  0.0845  0.1196 -0.5503
   82DPPC   C17 4067   1.761   5.306   4.472  0.5514 -0.4302 -0.1159
   82DPPC   C18 4068   1.777   5.275   4.323 -0.2541  0.5331 -0.4116
   82DPPC   C19 4069   1.708   5.142   4.291  0.4026  0.0269  0.2473
   82DPPC   C20 4070   1.696   5.113   4.141  0.3135 -0.1369  0.2857
   82DPPC   C21 4071   1.617   4.987   4.107  0.4208 -0.0038 -0.4651
   82DPPC   C22 4072   1.578   4.992   3.959 -0.3788  0.2593 -0.2468
   82DPPC   C23 4073   1.698   5.024   3.870  0.1369 -0.1400  0.3035
   82DPPC   C24 4074   1.662   5.035   3.722 -0.0712 -0.1873  0.3511
   82DPPC   C25 4075   1.783   5.020   3.630 -0.0825 -0.1549  0.3311
   82DPPC   C26 4076   1.736   5.030   3.485  0.2673 -0.3953  0.1990
   82DPPC   C27 4077   1.855   5.025   3.389  0.0866 -0.0284 -0.0458
   82DPPC   C28 4078   1.942   5.150   3.397  0.1846 -0.1421  0.7251
   82DPPC   C29 4079   2.075   5.134   3.323  0.1152  0.2447  0.5111
   82DPPC   C30 4080   2.153   5.264   3.346  0.3294  0.2381 -0.1547
   82DPPC   C31 4081   2.288   5.256   3.275  0.3612  0.5189 -0.1251
   82DPPC   C32 4082   2.056   5.693   4.461  0.3590 -0.1590 -0.4695
   82DPPC   O33 4083   2.066   5.829   4.420  0.0843  0.0541  0.1682
   82DPPC   C34 4084   2.184   5.861   4.362 -0.1537  0.5681 -0.0433
   82DPPC   O35 4085   2.262   5.772   4.326 -0.5375  0.1641  0.1195
   82DPPC   C36 4086   2.183   6.007   4.317 -0.0330  0.6314  0.1545
   82DPPC   C37 4087   2.265   6.030   4.190 -0.2689  0.4053 -0.0409
   82DPPC   C38 4088   2.191   5.998   4.060 -0.0261  0.7963 -0.2802
   82DPPC   C39 4089   2.282   6.020   3.939  0.2011 -0.1820 -0.3016
   82DPPC   C40 4090   2.407   5.935   3.958  0.1893 -0.0108  0.5894
   82DPPC   C41 4091   2.363   5.789   3.970  0.0984 -0.1031 -0.7724
   82DPPC   C42 4092   2.501   5.723   3.962  0.2232  0.0842 -0.1816
   82DPPC   C43 4093   2.488   5.571   3.977  0.1394  0.0944 -0.1502
   82DPPC   C44 4094   2.626   5.505   3.969  0.2027  0.0548  1.0013
   82DPPC   C45 4095   2.604   5.356   3.994  0.2642 -0.0910  0.2061
   82DPPC   C46 4096   2.738   5.282   3.993  0.0407 -0.4964 -0.4044
   82DPPC   C47 4097   2.717   5.131   4.004 -0.1104 -0.4352  0.1636
   82DPPC   C48 4098   2.845   5.047   4.009 -0.2078 -0.5784  0.2547
   82DPPC   C49 4099   2.940   5.073   3.892 -0.2874  0.1350  0.3406
   82DPPC   C50 4100   3.061   4.981   3.905 -0.4971 -0.2069 -0.0763
   83DPPC    C1 4101   4.613   0.616   5.301 -0.1550  0.0727  0.3486
   83DPPC    C2 4102   4.748   0.421   5.328 -0.2596 -0.1437 -0.0431
   83DPPC    C3 4103   4.784   0.601   5.155 -0.2472  0.6492  0.1586
   83DPPC    N4 4104   4.751   0.564   5.294 -0.2548 -0.1447 -0.0464
   83DPPC    C5 4105   4.811   0.662   5.386 -0.5120  0.3623 -0.4139
   83DPPC    C6 4106   4.960   0.649   5.418 -0.6042  0.3804  0.0259
   83DPPC    O7 4107   4.986   0.532   5.496 -0.5006 -0.0213 -0.6070
   83DPPC    P8 4108   5.143   0.503   5.471 -0.3655  0.2707 -0.1049
   83DPPC    O9 4109   5.213   0.633   5.459 -0.3228  0.2217 -0.4139
   83DPPC   O10 4110   5.190   0.386   5.548 -0.1508  0.2331 -0.2923
   83DPPC   O11 4111   5.114   0.464   5.317 -0.1855  0.0176 -0.0750
   83DPPC   C12 4112   5.227   0.402   5.255 -0.3051 -0.0922 -0.1813
   83DPPC   C13 4113   5.199   0.331   5.122 -0.2247  0.0216 -0.2586
   83DPPC   O14 4114   5.271   0.380   5.008  0.2581 -0.3140 -0.1056
   83DPPC   C15 4115   5.287   0.292   4.905  0.1396 -0.2630 -0.1681
   83DPPC   O16 4116   5.273   0.172   4.927 -0.9240 -0.0611  0.3158
   83DPPC   C17 4117   5.342   0.335   4.769  0.1355  0.1309 -0.0479
   83DPPC   C18 4118   5.234   0.328   4.661 -0.3907  0.1110  0.4745
   83DPPC   C19 4119   5.297   0.399   4.541 -0.0195 -0.0033  0.5990
   83DPPC   C20 4120   5.220   0.361   4.414  0.6888 -0.1796  0.2194
   83DPPC   C21 4121   5.278   0.430   4.291 -0.1535  0.3336  0.1032
   83DPPC   C22 4122   5.225   0.363   4.164 -0.3125  0.4171  0.1249
   83DPPC   C23 4123   5.251   0.457   4.045  0.4534 -0.2502 -0.2466
   83DPPC   C24 4124   5.236   0.375   3.917 -1.1505  0.2337 -0.3968
   83DPPC   C25 4125   5.274   0.467   3.800  0.3178  0.5365  0.2880
   83DPPC   C26 4126   5.165   0.574   3.795  0.0364  0.2191 -0.5965
   83DPPC   C27 4127   5.200   0.666   3.678 -0.0235  0.4629 -0.4230
   83DPPC   C28 4128   5.074   0.748   3.649 -0.3317  0.0798 -0.1786
   83DPPC   C29 4129   5.102   0.842   3.531  0.1907  0.2204  0.0570
   83DPPC   C30 4130   4.992   0.947   3.515  0.3063  0.2963 -0.2417
   83DPPC   C31 4131   4.855   0.880   3.508  0.4171  0.0939 -0.4836
   83DPPC   C32 4132   5.047   0.323   5.113 -0.2709  0.1668  0.3465
   83DPPC   O33 4133   4.993   0.192   5.093 -0.2048  0.2108 -0.1238
   83DPPC   C34 4134   4.863   0.191   5.054 -0.1399 -0.4882 -0.3360
   83DPPC   O35 4135   4.800   0.296   5.047  0.5446 -0.0047  0.5485
   83DPPC   C36 4136   4.785   0.060   5.072 -0.1464 -0.4597 -0.1591
   83DPPC   C37 4137   4.733  -0.004   4.943  0.3447 -0.6121 -0.2815
   83DPPC   C38 4138   4.630   0.082   4.871  0.2907 -0.0535  0.4448
   83DPPC   C39 4139   4.601   0.026   4.731  0.7208  0.1421  0.2752
   83DPPC   C40 4140   4.528   0.132   4.648 -0.6085 -0.7116  0.3202
   83DPPC   C41 4141   4.475   0.053   4.529 -0.6520  0.4812 -0.4699
   83DPPC   C42 4142   4.583   0.010   4.429 -0.1775  0.4952  0.0330
   83DPPC   C43 4143   4.504  -0.046   4.310 -0.1124 -0.0576  0.2504
   83DPPC   C44 4144   4.600  -0.082   4.196 -0.2632  0.1051  0.0724
   83DPPC   C45 4145   4.522  -0.075   4.065  0.0687 -0.4775 -0.1576
   83DPPC   C46 4146   4.612  -0.110   3.946  0.3276 -0.0739 -0.0817
   83DPPC   C47 4147   4.540  -0.072   3.816  0.5761  0.6965  0.0022
   83DPPC   C48 4148   4.630  -0.111   3.699  0.0397 -0.4782 -0.0275
   83DPPC   C49 4149   4.546  -0.082   3.574  0.1428  0.0723  0.0311
   83DPPC   C50 4150   4.620  -0.117   3.445 -0.2037  0.2298 -0.2115
   84DPPC    C1 4151   1.865   0.870   5.260  0.2179 -0.4805 -0.4466
   84DPPC    C2 4152   2.050   1.008   5.254 -0.0528 -0.3673  0.7385
   84DPPC    C3 4153   2.069   0.770   5.321  0.6137  0.3533  0.2110
   84DPPC    N4 4154   2.009   0.869   5.230  0.2555 -0.2915 -0.2680
   84DPPC    C5 4155   2.048   0.832   5.094 -0.1573  0.1349 -0.5029
   84DPPC    C6 4156   1.965   0.721   5.028 -0.4758  0.0851 -0.0206
   84DPPC    O7 4157   2.016   0.588   5.046 -0.3647  0.1922  0.4894
   84DPPC    P8 4158   1.927   0.483   4.961  0.0482  0.1842  0.0630
   84DPPC    O9 4159   2.000   0.355   4.976 -0.1259  0.0469 -0.2615
   84DPPC   O10 4160   1.787   0.504   5.005  0.1050  0.9339 -0.0969
   84DPPC   O11 4161   1.955   0.541   4.814  0.1097  0.0040  0.0038
   84DPPC   C12 4162   1.839   0.528   4.731 -0.3354  0.3631  0.5683
   84DPPC   C13 4163   1.846   0.604   4.598 -0.4057 -0.6449 -0.0201
   84DPPC   O14 4164   1.726   0.600   4.519 -0.2735  0.4919 -0.2864
   84DPPC   C15 4165   1.603   0.627   4.568  0.0358  0.2872  0.6173
   84DPPC   O16 4166   1.592   0.702   4.664 -0.5037  0.5859  0.3279
   84DPPC   C17 4167   1.481   0.591   4.482  0.4086  0.1137  0.1603
   84DPPC   C18 4168   1.430   0.696   4.383  0.5760 -0.5731 -0.6729
   84DPPC   C19 4169   1.327   0.642   4.284  0.1484 -0.2072 -0.4366
   84DPPC   C20 4170   1.236   0.749   4.224 -0.1694 -0.2879 -0.1046
   84DPPC   C21 4171   1.152   0.831   4.322 -0.0675 -0.2382 -0.0585
   84DPPC   C22 4172   1.074   0.947   4.260 -0.0314  0.1498  0.6147
   84DPPC   C23 4173   1.176   1.033   4.186 -0.3749 -0.3584 -0.4734
   84DPPC   C24 4174   1.120   1.145   4.098  0.3165  0.3341 -0.0533
   84DPPC   C25 4175   1.226   1.208   4.009  0.3445 -0.2082 -0.4075
   84DPPC   C26 4176   1.167   1.316   3.918  0.1714  0.0972  0.0680
   84DPPC   C27 4177   1.254   1.373   3.807 -0.6512  0.0028 -0.6406
   84DPPC   C28 4178   1.190   1.479   3.718 -0.1211  0.5775 -0.3511
   84DPPC   C29 4179   1.140   1.604   3.790 -0.4334  0.1713  0.1482
   84DPPC   C30 4180   1.078   1.706   3.695  0.2562  0.4871  0.0255
   84DPPC   C31 4181   0.964   1.645   3.613  0.7120  0.0479 -0.2857
   84DPPC   C32 4182   1.970   0.547   4.529 -0.0259 -0.2445  0.3331
   84DPPC   O33 4183   1.971   0.408   4.500 -0.0620 -0.1191 -0.2718
   84DPPC   C34 4184   2.082   0.358   4.438 -0.0932  0.1259 -0.5291
   84DPPC   O35 4185   2.189   0.416   4.457 -0.1599  0.0423  0.1528
   84DPPC   C36 4186   2.073   0.219   4.376  0.2762  0.0440 -0.4057
   84DPPC   C37 4187   2.077   0.228   4.223  0.1892  0.0335 -0.4087
   84DPPC   C38 4188   2.099   0.092   4.157 -0.0963 -0.2207  0.0142
   84DPPC   C39 4189   2.016   0.101   4.028  0.0681  0.3236 -0.0580
   84DPPC   C40 4190   2.040  -0.017   3.933 -0.1343  0.1969  0.0471
   84DPPC   C41 4191   1.977   0.028   3.801 -0.2372 -0.2523 -0.0597
   84DPPC   C42 4192   2.009  -0.075   3.693 -0.1315 -0.2924  0.0093
   84DPPC   C43 4193   1.945  -0.211   3.718 -0.4678 -0.1376  0.0049
   84DPPC   C44 4194   2.003  -0.313   3.620 -0.0402 -0.3598  0.4819
   84DPPC   C45 4195   1.936  -0.450   3.627 -0.5462 -0.1352  0.1454
   84DPPC   C46 4196   1.990  -0.556   3.530  0.2725 -0.3074  0.7754
   84DPPC   C47 4197   1.902  -0.681   3.542 -0.4655  0.0957 -0.3190
   84DPPC   C48 4198   1.883  -0.726   3.687 -0.5677  0.5144 -0.2002
   84DPPC   C49 4199   1.834  -0.870   3.700  0.5087  0.0904 -0.7380
   84DPPC   C50 4200   1.823  -0.909   3.847  0.7189 -0.1463 -0.7832
   85DPPC    C1 4201   4.009   4.871   5.435 -0.1831 -0.0338 -0.4927
   85DPPC    C2 4202   4.182   5.033   5.439 -0.0301  0.1484 -0.3566
   85DPPC    C3 4203   4.074   4.981   5.232 -0.1005  0.1128 -0.4185
   85DPPC    N4 4204   4.123   4.925   5.359 -0.1984  0.2235 -0.3323
   85DPPC    C5 4205   4.227   4.825   5.336  0.1777  0.3726  0.6806
   85DPPC    C6 4206   4.188   4.714   5.239  0.3062  0.5672  0.4032
   85DPPC    O7 4207   4.303   4.630   5.226  0.0710  0.1489  0.9750
   85DPPC    P8 4208   4.255   4.477   5.240 -0.0087  0.0892  0.0979
   85DPPC    O9 4209   4.370   4.404   5.183  0.6948  0.8023  0.5810
   85DPPC   O10 4210   4.212   4.450   5.379 -0.5538  0.0764 -0.0715
   85DPPC   O11 4211   4.131   4.467   5.138 -0.2116 -0.2811  0.3808
   85DPPC   C12 4212   4.175   4.419   5.011 -0.2542  0.3963  0.1101
   85DPPC   C13 4213   4.053   4.389   4.923 -0.0778  0.1007 -0.0337
   85DPPC   O14 4214   4.081   4.281   4.833 -0.5357  0.0022 -0.0624
   85DPPC   C15 4215   4.019   4.162   4.856 -0.1641 -0.1123  0.3707
   85DPPC   O16 4216   3.936   4.157   4.946  0.0859 -0.0034  0.6099
   85DPPC   C17 4217   4.045   4.045   4.761 -0.0189 -0.0715  0.3603
   85DPPC   C18 4218   3.940   3.934   4.762  0.5498 -0.6152  0.0910
   85DPPC   C19 4219   3.974   3.841   4.645  0.3781 -0.6723  0.0863
   85DPPC   C20 4220   3.977   3.917   4.512  0.7145 -0.8377 -0.0013
   85DPPC   C21 4221   4.020   3.821   4.400  0.7975 -0.5299 -0.2324
   85DPPC   C22 4222   4.034   3.894   4.266  0.1667 -0.0785 -0.0588
   85DPPC   C23 4223   4.075   3.787   4.166 -0.4076 -0.1075 -0.2641
   85DPPC   C24 4224   4.109   3.853   4.032 -0.4519  0.0730 -0.1856
   85DPPC   C25 4225   4.136   3.742   3.930 -0.7654  0.0349 -0.2282
   85DPPC   C26 4226   4.173   3.778   3.786  0.6896 -0.1631  0.0812
   85DPPC   C27 4227   4.167   3.642   3.716  0.0434 -0.0947  0.0046
   85DPPC   C28 4228   4.207   3.650   3.569 -0.2282 -0.1486 -0.0737
   85DPPC   C29 4229   4.189   3.523   3.486 -0.1067 -0.0338 -0.2778
   85DPPC   C30 4230   4.242   3.526   3.342  0.1034 -0.5892 -0.2169
   85DPPC   C31 4231   4.388   3.571   3.344 -0.0816 -0.0017  0.2595
   85DPPC   C32 4232   4.017   4.522   4.856 -0.0535 -0.0041 -0.2574
   85DPPC   O33 4233   4.120   4.605   4.801 -0.1059  0.2122 -0.0359
   85DPPC   C34 4234   4.088   4.720   4.736  0.0611  0.1987 -0.1416
   85DPPC   O35 4235   3.989   4.784   4.771  0.1421  0.0846  0.2940
   85DPPC   C36 4236   4.199   4.782   4.651 -0.0443  0.8251  0.1750
   85DPPC   C37 4237   4.247   4.700   4.531 -0.2687  0.7206  0.1582
   85DPPC   C38 4238   4.371   4.753   4.460  0.1716 -0.3135  0.1311
   85DPPC   C39 4239   4.385   4.684   4.325  0.5078  0.2261 -0.1180
   85DPPC   C40 4240   4.527   4.713   4.278  0.5518 -0.0607 -0.1635
   85DPPC   C41 4241   4.565   4.608   4.173  0.0246 -0.7647  0.3419
   85DPPC   C42 4242   4.474   4.605   4.051 -0.2625 -0.2682  0.5424
   85DPPC   C43 4243   4.469   4.461   4.000  0.3938 -0.2052  0.2988
   85DPPC   C44 4244   4.415   4.453   3.857  0.5315  0.2360  0.2220
   85DPPC   C45 4245   4.436   4.314   3.798 -1.5393 -0.3508  0.7787
   85DPPC   C46 4246   4.345   4.311   3.675 -0.4641 -0.0597 -0.0320
   85DPPC   C47 4247   4.329   4.161   3.648 -0.4081 -0.0335 -0.2126
   85DPPC   C48 4248   4.289   4.147   3.501 -0.0328 -0.1975 -0.3003
   85DPPC   C49 4249   4.253   4.002   3.467 -0.1543 -0.1191 -0.5138
   85DPPC   C50 4250   4.169   3.998   3.339 -0.3152  0.1213 -0.4160
   86DPPC    C1 4251   4.806   5.547   5.819  0.2715 -0.4316 -0.0880
   86DPPC    C2 4252   4.654   5.383   5.737  0.3282 -0.0671 -0.3608
   86DPPC    C3 4253   4.853   5.444   5.624 -0.1775 -0.1279 -0.6279
   86DPPC    N4 4254   4.738   5.498   5.699  0.1700  0.0873 -0.2425
   86DPPC    C5 4255   4.667   5.607   5.631  0.0151  0.4325  0.4649
   86DPPC    C6 4256   4.523   5.639   5.672 -0.3205 -0.3948 -0.0403
   86DPPC    O7 4257   4.479   5.761   5.613  0.1888 -0.1554  0.0634
   86DPPC    P8 4258   4.318   5.766   5.623  0.1776 -0.0852 -0.1454
   86DPPC    O9 4259   4.266   5.668   5.720 -0.2922 -0.0246 -0.3366
   86DPPC   O10 4260   4.264   5.904   5.622 -0.0912 -0.1901  0.0927
   86DPPC   O11 4261   4.287   5.704   5.478 -0.3845 -0.3539  0.0886
   86DPPC   C12 4262   4.343   5.796   5.383 -0.0380 -0.5479  0.1032
   86DPPC   C13 4263   4.356   5.730   5.246 -0.1381  0.1946 -0.2668
   86DPPC   O14 4264   4.396   5.822   5.143  0.0172  0.0314 -0.3527
   86DPPC   C15 4265   4.525   5.846   5.109  0.0796  0.7494  0.3859
   86DPPC   O16 4266   4.603   5.755   5.137  0.3029  0.6004 -0.6821
   86DPPC   C17 4267   4.544   5.941   4.990 -0.3522 -0.1562 -0.4168
   86DPPC   C18 4268   4.588   5.869   4.863 -0.9192  0.4300 -0.9493
   86DPPC   C19 4269   4.620   5.973   4.755 -0.0303  0.5469 -0.5811
   86DPPC   C20 4270   4.702   5.894   4.653 -0.1798  0.2313 -0.4582
   86DPPC   C21 4271   4.728   5.984   4.532 -0.1665  0.1912 -0.4853
   86DPPC   C22 4272   4.818   5.910   4.432  0.3038  0.2222 -0.0892
   86DPPC   C23 4273   4.850   6.017   4.327 -0.9665 -0.0369 -0.7525
   86DPPC   C24 4274   4.924   5.942   4.215  0.0737  0.0290 -0.1241
   86DPPC   C25 4275   4.913   6.028   4.089 -0.6544  0.0765 -0.0364
   86DPPC   C26 4276   4.999   5.939   4.000 -0.2994  0.0711  0.3097
   86DPPC   C27 4277   5.009   5.962   3.849  0.1221 -0.1806  0.2969
   86DPPC   C28 4278   5.091   5.849   3.786  0.4500  0.1349  0.1506
   86DPPC   C29 4279   5.108   5.880   3.637 -0.6455 -0.4619 -0.1142
   86DPPC   C30 4280   5.180   5.756   3.582  0.3257  0.1837 -0.3173
   86DPPC   C31 4281   5.095   5.629   3.588 -0.5315  0.7728  0.1672
   86DPPC   C32 4282   4.216   5.678   5.216  0.0197 -0.1256 -0.4542
   86DPPC   O33 4283   4.213   5.547   5.159 -0.1689 -0.3934  0.1533
   86DPPC   C34 4284   4.092   5.499   5.119 -0.2380  0.0021 -0.1197
   86DPPC   O35 4285   3.989   5.564   5.131  0.0800  0.4854  0.0412
   86DPPC   C36 4286   4.080   5.351   5.083 -0.2217 -0.1194  0.3615
   86DPPC   C37 4287   4.082   5.348   4.930  0.3997 -0.5479  0.3729
   86DPPC   C38 4288   4.052   5.200   4.906 -0.3077 -0.3976  0.3056
   86DPPC   C39 4289   4.017   5.176   4.759 -0.0672  0.2921  0.1297
   86DPPC   C40 4290   4.116   5.215   4.649  0.0251 -0.3727 -0.0260
   86DPPC   C41 4291   4.061   5.178   4.511 -0.2262  0.0557 -0.0410
   86DPPC   C42 4292   3.918   5.230   4.499 -0.1403  0.4045  0.4308
   86DPPC   C43 4293   3.869   5.228   4.354  0.2634  1.0861  0.2770
   86DPPC   C44 4294   3.721   5.260   4.331  0.0701 -0.1818 -0.3306
   86DPPC   C45 4295   3.692   5.407   4.358  0.1280 -0.2078 -0.1290
   86DPPC   C46 4296   3.556   5.437   4.295  0.1202  0.1990  0.0789
   86DPPC   C47 4297   3.534   5.588   4.282 -0.4912  0.0715 -0.4308
   86DPPC   C48 4298   3.645   5.647   4.194  0.3940 -0.1027  0.5467
   86DPPC   C49 4299   3.632   5.799   4.211 -0.2583 -0.0271 -0.5123
   86DPPC   C50 4300   3.735   5.876   4.127  0.1142 -0.1456 -0.1679
   87DPPC    C1 4301   4.096   0.437   4.765  0.3938 -0.6351 -0.2003
   87DPPC    C2 4302   4.277   0.553   4.686 -0.2737 -0.2606  0.2312
   87DPPC    C3 4303   4.239   0.571   4.912  0.2161 -0.0197  0.5035
   87DPPC    N4 4304   4.234   0.474   4.801  0.0499 -0.0238  0.5151
   87DPPC    C5 4305   4.326   0.361   4.820  0.5788  0.4259  0.6594
   87DPPC    C6 4306   4.336   0.287   4.954  0.0708 -0.7989  0.0394
   87DPPC    O7 4307   4.228   0.197   4.981 -0.8129  0.3635  0.5032
   87DPPC    P8 4308   4.231   0.116   5.120 -0.2240 -0.0162  0.2717
   87DPPC    O9 4309   4.359   0.041   5.111 -0.0419  0.2781  0.4124
   87DPPC   O10 4310   4.201   0.225   5.215 -0.3044  0.1968  0.0037
   87DPPC   O11 4311   4.110   0.027   5.063 -0.3014  0.4313 -0.2764
   87DPPC   C12 4312   4.167  -0.074   4.980 -0.0516  0.1237  0.2652
   87DPPC   C13 4313   4.103  -0.085   4.842  0.3701  0.1884  0.0631
   87DPPC   O14 4314   4.179  -0.186   4.773  0.0502  0.2033 -0.3186
   87DPPC   C15 4315   4.122  -0.309   4.773 -0.3278  0.3796 -0.2601
   87DPPC   O16 4316   4.033  -0.338   4.853  0.0414 -0.2062 -0.0622
   87DPPC   C17 4317   4.183  -0.415   4.682  0.1982  0.2877  0.1994
   87DPPC   C18 4318   4.249  -0.356   4.557 -0.1178 -0.2324 -0.2127
   87DPPC   C19 4319   4.333  -0.459   4.481  0.4360 -0.1665  0.3005
   87DPPC   C20 4320   4.399  -0.401   4.356 -0.2801  0.3122  0.1381
   87DPPC   C21 4321   4.464  -0.522   4.288  0.3168  0.3889  0.5720
   87DPPC   C22 4322   4.488  -0.481   4.142 -0.0725 -0.3237  0.3077
   87DPPC   C23 4323   4.560  -0.592   4.065  0.2053 -0.0187  0.1282
   87DPPC   C24 4324   4.595  -0.552   3.922 -0.4851 -0.0600 -0.0531
   87DPPC   C25 4325   4.674  -0.657   3.844  0.0304  0.2047  0.1112
   87DPPC   C26 4326   4.696  -0.622   3.697 -0.3891  0.5955  0.1403
   87DPPC   C27 4327   4.558  -0.593   3.636 -0.4322  0.0044 -0.0501
   87DPPC   C28 4328   4.591  -0.538   3.497  0.2348  0.7204  0.3858
   87DPPC   C29 4329   4.656  -0.647   3.412 -0.4118  0.3738  0.3293
   87DPPC   C30 4330   4.719  -0.590   3.284 -0.7255  0.3729  0.1734
   87DPPC   C31 4331   4.728  -0.710   3.189 -0.0150  0.4990  0.0782
   87DPPC   C32 4332   4.095   0.050   4.770  0.4974 -0.0660 -0.4369
   87DPPC   O33 4333   4.015   0.053   4.652  0.1416  0.5789 -0.1838
   87DPPC   C34 4334   4.071   0.117   4.546  0.5331  0.2376 -0.1875
   87DPPC   O35 4335   4.161   0.199   4.561  0.2548  0.4544  0.3236
   87DPPC   C36 4336   4.016   0.073   4.410  0.6410 -0.0779 -0.1292
   87DPPC   C37 4337   4.077  -0.062   4.370  0.1898 -0.2421 -0.2667
   87DPPC   C38 4338   4.051  -0.082   4.220  0.0417 -0.4649 -0.2107
   87DPPC   C39 4339   4.113  -0.202   4.150  0.2081 -0.6083  0.1815
   87DPPC   C40 4340   4.078  -0.212   4.001  0.6709  0.4316 -0.0053
   87DPPC   C41 4341   4.186  -0.300   3.939  0.5711  0.1036  0.2832
   87DPPC   C42 4342   4.164  -0.307   3.788 -0.6119 -0.3164  0.4636
   87DPPC   C43 4343   4.270  -0.393   3.718 -0.5744  0.2171 -0.1407
   87DPPC   C44 4344   4.214  -0.462   3.594 -0.2734  0.1435 -0.2358
   87DPPC   C45 4345   4.198  -0.351   3.490  0.1376 -0.0293 -0.4871
   87DPPC   C46 4346   4.258  -0.376   3.351  0.4145 -0.1081 -0.3546
   87DPPC   C47 4347   4.203  -0.267   3.259 -0.0241 -0.0540 -0.0348
   87DPPC   C48 4348   4.234  -0.286   3.110  0.0287 -0.2209 -0.0022
   87DPPC   C49 4349   4.156  -0.202   3.010  0.4903  0.5195  0.2512
   87DPPC   C50 4350   4.219  -0.239   2.875  0.7406  0.2711  0.4367
   88DPPC    C1 4351   3.906   0.275   5.387 -0.0357 -0.2622  0.1353
   88DPPC    C2 4352   3.979   0.467   5.527 -0.1665 -0.3513  0.2705
   88DPPC    C3 4353   3.750   0.412   5.526  0.2775 -0.2381  0.1883
   88DPPC    N4 4354   3.873   0.406   5.445  0.0407 -0.0990 -0.1877
   88DPPC    C5 4355   3.827   0.499   5.342 -0.1130 -0.4400 -0.4289
   88DPPC    C6 4356   3.922   0.593   5.266  0.0031 -0.2654 -0.0700
   88DPPC    O7 4357   3.851   0.642   5.152 -0.3656  0.3961  0.4383
   88DPPC    P8 4358   3.934   0.760   5.082  0.2947 -0.0892  0.3920
   88DPPC    O9 4359   3.849   0.881   5.095 -0.0804 -0.3398  0.2753
   88DPPC   O10 4360   4.067   0.762   5.146  0.2599  0.1170  0.4595
   88DPPC   O11 4361   3.951   0.719   4.927 -0.1141  0.3528  0.2269
   88DPPC   C12 4362   3.828   0.733   4.857 -0.0745  0.2338  0.1336
   88DPPC   C13 4363   3.825   0.687   4.711 -0.0933  0.0522  0.1920
   88DPPC   O14 4364   3.921   0.754   4.629 -0.2416  0.0558  0.0196
   88DPPC   C15 4365   3.971   0.685   4.522  0.0296 -0.3009  0.3715
   88DPPC   O16 4366   3.948   0.565   4.513 -0.0181 -0.2233 -0.6188
   88DPPC   C17 4367   4.071   0.757   4.432 -0.3893 -0.5768 -0.3150
   88DPPC   C18 4368   4.012   0.880   4.362  0.5217  0.1479  0.1817
   88DPPC   C19 4369   3.899   0.853   4.263  0.3897  0.0260  0.3654
   88DPPC   C20 4370   3.844   0.985   4.208 -0.0258 -0.3420 -0.1069
   88DPPC   C21 4371   3.728   0.962   4.111 -0.0660 -0.0783 -0.1234
   88DPPC   C22 4372   3.695   1.090   4.034 -0.7895 -0.0243  0.2633
   88DPPC   C23 4373   3.590   1.069   3.925  0.0350  0.0122 -0.5561
   88DPPC   C24 4374   3.642   0.982   3.810  0.3530 -0.3773 -0.1245
   88DPPC   C25 4375   3.520   0.958   3.720 -0.0048 -0.3026  0.3328
   88DPPC   C26 4376   3.505   0.839   3.625 -0.0424 -0.0366  0.0042
   88DPPC   C27 4377   3.623   0.838   3.528  0.0254 -0.2206  0.0882
   88DPPC   C28 4378   3.635   0.701   3.461  1.0567 -0.0744 -0.0417
   88DPPC   C29 4379   3.739   0.710   3.349  0.8040 -0.2229 -0.2894
   88DPPC   C30 4380   3.777   0.570   3.300  1.6757 -0.0894 -0.0128
   88DPPC   C31 4381   3.824   0.496   3.426  0.5161 -0.2133  0.3584
   88DPPC   C32 4382   3.682   0.700   4.658  0.0548  0.0536 -0.2105
   88DPPC   O33 4383   3.640   0.834   4.684 -0.0367  0.0023 -0.0946
   88DPPC   C34 4384   3.516   0.865   4.638  0.1139 -0.1493 -0.6003
   88DPPC   O35 4385   3.445   0.776   4.591 -0.8311  0.4410 -0.3110
   88DPPC   C36 4386   3.461   1.007   4.644  0.4414 -0.0436 -0.0534
   88DPPC   C37 4387   3.525   1.106   4.546  0.0209 -0.1135 -0.4015
   88DPPC   C38 4388   3.457   1.090   4.410  0.1453  0.0605 -0.4837
   88DPPC   C39 4389   3.313   1.135   4.435  0.0205 -0.5770 -0.0340
   88DPPC   C40 4390   3.244   1.118   4.300 -0.1751  0.3054 -0.0567
   88DPPC   C41 4391   3.310   1.217   4.203  0.3510  0.0397  0.0228
   88DPPC   C42 4392   3.261   1.193   4.060 -0.2829 -0.1445  0.2642
   88DPPC   C43 4393   3.320   1.290   3.958  0.1161 -0.1042  0.5263
   88DPPC   C44 4394   3.248   1.294   3.823  0.3932 -0.2918  0.3725
   88DPPC   C45 4395   3.304   1.412   3.743 -0.5507  0.1411  0.3382
   88DPPC   C46 4396   3.253   1.429   3.600  0.4263 -0.1259 -0.0460
   88DPPC   C47 4397   3.316   1.321   3.513  0.3494  0.1301 -0.4222
   88DPPC   C48 4398   3.272   1.332   3.367 -0.3184  0.1084 -0.2255
   88DPPC   C49 4399   3.354   1.225   3.295 -0.0639  0.1936 -0.0652
   88DPPC   C50 4400   3.370   1.262   3.147 -0.1188  0.5608  0.0201
   89DPPC    C1 4401   3.484   4.474   5.420 -0.2587  1.0700  0.1220
   89DPPC    C2 4402   3.526   4.537   5.656 -0.1799 -0.1170 -0.2061
   89DPPC    C3 4403   3.667   4.619   5.506  0.4048  0.2867  0.7884
   89DPPC    N4 4404   3.583   4.500   5.526  0.2339  0.2435 -0.1295
   89DPPC    C5 4405   3.680   4.390   5.533 -0.0014  0.0575  0.2780
   89DPPC    C6 4406   3.639   4.244   5.554  0.5549 -0.1193  0.1677
   89DPPC    O7 4407   3.596   4.186   5.430  0.3113 -0.0527  0.2198
   89DPPC    P8 4408   3.498   4.064   5.468  0.1258  0.0150 -0.0353
   89DPPC    O9 4409   3.576   3.938   5.473  0.2407  0.1032  0.4119
   89DPPC   O10 4410   3.407   4.100   5.579  0.1198 -0.0657 -0.0142
   89DPPC   O11 4411   3.411   4.061   5.333 -0.0656 -0.2827  0.0948
   89DPPC   C12 4412   3.489   4.009   5.225  0.0652  0.0877  0.0115
   89DPPC   C13 4413   3.401   3.993   5.101  0.1557  0.3357 -0.0870
   89DPPC   O14 4414   3.469   3.927   4.993 -0.1886  0.0340 -0.1229
   89DPPC   C15 4415   3.469   3.791   4.994 -0.1161  0.0381  0.3645
   89DPPC   O16 4416   3.388   3.723   5.057  0.2493 -0.1487  0.6341
   89DPPC   C17 4417   3.535   3.721   4.876 -0.4059  0.0828  0.1745
   89DPPC   C18 4418   3.650   3.625   4.908 -0.5934 -0.0204  0.5382
   89DPPC   C19 4419   3.701   3.565   4.778 -0.1409  0.6180  0.4153
   89DPPC   C20 4420   3.797   3.447   4.790  0.0658  0.7599  0.1748
   89DPPC   C21 4421   3.928   3.496   4.852  0.0525  0.1456  0.7070
   89DPPC   C22 4422   4.029   3.381   4.849 -0.5495 -0.3793  0.1752
   89DPPC   C23 4423   4.051   3.339   4.704  0.0446  0.0867  0.1272
   89DPPC   C24 4424   4.097   3.454   4.614  0.5226  0.2589  0.5801
   89DPPC   C25 4425   4.146   3.389   4.484 -0.5281  0.3185  0.1405
   89DPPC   C26 4426   4.042   3.333   4.387 -0.3388  0.2261 -0.0093
   89DPPC   C27 4427   4.110   3.338   4.250 -0.4606 -0.3312 -0.0899
   89DPPC   C28 4428   3.999   3.307   4.149 -0.5919  0.7072 -0.2739
   89DPPC   C29 4429   4.047   3.287   4.005 -0.3778 -0.0080 -0.1079
   89DPPC   C30 4430   3.919   3.267   3.922 -0.3330  0.0912 -0.2006
   89DPPC   C31 4431   3.946   3.236   3.775 -0.4561 -0.0546 -0.1923
   89DPPC   C32 4432   3.335   4.129   5.077  0.2321  0.4542  0.3638
   89DPPC   O33 4433   3.428   4.234   5.051  0.6139 -0.0058 -0.1613
   89DPPC   C34 4434   3.372   4.354   5.022  0.3216 -0.0280  0.3131
   89DPPC   O35 4435   3.255   4.372   5.056  0.1203  0.2021 -0.4955
   89DPPC   C36 4436   3.471   4.465   4.986 -0.3037  0.2530 -0.5714
   89DPPC   C37 4437   3.504   4.458   4.837 -0.4067 -0.2036 -0.5730
   89DPPC   C38 4438   3.615   4.552   4.789  0.0025 -0.4297 -0.0843
   89DPPC   C39 4439   3.596   4.556   4.637  0.0024  0.0275 -0.0748
   89DPPC   C40 4440   3.682   4.657   4.562 -0.1531  0.1107 -0.1403
   89DPPC   C41 4441   3.668   4.635   4.411  0.2606  0.4846 -0.2378
   89DPPC   C42 4442   3.720   4.764   4.347  0.0163  0.5486 -0.3097
   89DPPC   C43 4443   3.872   4.779   4.354  0.1184 -0.4475 -0.2359
   89DPPC   C44 4444   3.907   4.887   4.252  0.1733 -0.3316 -0.0937
   89DPPC   C45 4445   4.054   4.886   4.208  0.0993 -0.0268 -0.3482
   89DPPC   C46 4446   4.082   4.978   4.088  0.1007 -0.2071 -0.4871
   89DPPC   C47 4447   4.227   5.027   4.086  0.1376 -0.2884 -0.0088
   89DPPC   C48 4448   4.245   5.121   3.967 -0.0947 -0.0482  0.1445
   89DPPC   C49 4449   4.386   5.178   3.947 -0.0347  0.0098  0.7010
   89DPPC   C50 4450   4.468   5.071   3.873 -0.5612  0.2066 -0.1928
   90DPPC    C1 4451   2.793   4.448   5.169 -0.3824  0.4284  0.0752
   90DPPC    C2 4452   2.995   4.390   5.239  0.0834 -0.1392  0.3070
   90DPPC    C3 4453   2.874   4.555   5.356  0.1897 -0.3804 -0.1516
   90DPPC    N4 4454   2.914   4.511   5.221  0.0913 -0.2089 -0.2382
   90DPPC    C5 4455   2.975   4.604   5.125 -0.2144  0.1720 -0.0643
   90DPPC    C6 4456   3.107   4.679   5.148  0.0420 -0.2853 -0.0300
   90DPPC    O7 4457   3.093   4.776   5.253  0.1683 -0.4931  0.1782
   90DPPC    P8 4458   3.242   4.826   5.290  0.2218 -0.4222 -0.1277
   90DPPC    O9 4459   3.230   4.918   5.405 -0.1282 -0.6304  0.0047
   90DPPC   O10 4460   3.321   4.701   5.294 -0.1797 -0.6658  0.3998
   90DPPC   O11 4461   3.265   4.917   5.160 -0.1888 -0.1746 -0.0310
   90DPPC   C12 4462   3.403   4.912   5.123 -0.1293  0.2077  0.1307
   90DPPC   C13 4463   3.436   5.002   5.003  0.4511 -0.2275 -0.0442
   90DPPC   O14 4464   3.502   5.128   5.022 -0.0342  0.0210  0.0276
   90DPPC   C15 4465   3.638   5.121   5.030 -0.0346 -0.1670 -0.1028
   90DPPC   O16 4466   3.700   5.017   5.047  0.8438  0.3713  0.0621
   90DPPC   C17 4467   3.695   5.263   5.020 -0.0020 -0.1997 -0.3749
   90DPPC   C18 4468   3.682   5.316   4.877  0.3299 -0.0444 -0.3488
   90DPPC   C19 4469   3.733   5.460   4.875 -0.5033  0.2684  0.4661
   90DPPC   C20 4470   3.761   5.517   4.736  0.8747 -0.3315  0.4851
   90DPPC   C21 4471   3.809   5.662   4.748 -0.0161 -0.0018  0.1299
   90DPPC   C22 4472   3.830   5.723   4.610  0.1643 -0.2912  0.0287
   90DPPC   C23 4473   3.937   5.658   4.522 -0.2629 -0.4629 -0.3686
   90DPPC   C24 4474   3.967   5.711   4.381  0.7708 -0.3610 -0.1224
   90DPPC   C25 4475   4.064   5.614   4.313  0.8365 -0.3013 -0.1129
   90DPPC   C26 4476   4.085   5.659   4.168  0.2444  0.5828  0.0631
   90DPPC   C27 4477   4.182   5.563   4.098  0.6016  0.7093  0.3808
   90DPPC   C28 4478   4.174   5.587   3.947 -0.6381 -0.3617  0.2540
   90DPPC   C29 4479   4.269   5.501   3.864 -0.3228  0.0132  0.2253
   90DPPC   C30 4480   4.262   5.515   3.711 -0.2509  0.0392  0.2238
   90DPPC   C31 4481   4.139   5.446   3.651 -0.2354  0.3527 -0.1730
   90DPPC   C32 4482   3.317   5.003   4.907 -0.0159 -0.4764  0.5253
   90DPPC   O33 4483   3.312   4.883   4.829 -0.1463 -0.0077 -0.1943
   90DPPC   C34 4484   3.221   4.896   4.729 -0.1396 -0.3351 -0.2428
   90DPPC   O35 4485   3.138   4.986   4.724 -0.0142 -0.1990  0.0880
   90DPPC   C36 4486   3.198   4.760   4.662 -0.5211 -0.6360  0.4807
   90DPPC   C37 4487   3.127   4.799   4.532  0.1288 -0.1861  0.2562
   90DPPC   C38 4488   3.122   4.671   4.448  0.1526 -0.1499  0.1994
   90DPPC   C39 4489   3.025   4.685   4.330 -0.1425  0.0469  0.4636
   90DPPC   C40 4490   3.025   4.563   4.237 -0.1651  0.6038 -0.2709
   90DPPC   C41 4491   3.152   4.559   4.152  0.1495  0.0505  0.2185
   90DPPC   C42 4492   3.141   4.452   4.044 -0.3403  0.4197 -0.1003
   90DPPC   C43 4493   3.243   4.481   3.934 -0.0518 -0.4645 -0.0703
   90DPPC   C44 4494   3.225   4.619   3.871 -0.5878 -0.3268  0.3834
   90DPPC   C45 4495   3.305   4.637   3.742  0.4607  0.0247  1.0685
   90DPPC   C46 4496   3.341   4.781   3.704 -0.3850  0.0257  0.2163
   90DPPC   C47 4497   3.388   4.786   3.559  0.0102  0.0605  0.3447
   90DPPC   C48 4498   3.427   4.925   3.508  0.0872 -0.3773 -0.8194
   90DPPC   C49 4499   3.305   5.016   3.496  0.1590 -0.2001 -0.2265
   90DPPC   C50 4500   3.347   5.162   3.478 -0.2722 -0.0567 -0.0756
   91DPPC    C1 4501   3.575   6.263   4.852  0.0815 -0.2019  0.5778
   91DPPC    C2 4502   3.719   6.190   5.027 -0.0778  0.4380  0.6060
   91DPPC    C3 4503   3.714   6.078   4.814 -0.6995 -0.5976 -0.4092
   91DPPC    N4 4504   3.633   6.144   4.917  0.5836 -0.1055  0.3098
   91DPPC    C5 4505   3.518   6.063   4.959  0.2099  0.4187  0.3132
   91DPPC    C6 4506   3.538   5.920   5.011 -0.1437  0.3567  0.2767
   91DPPC    O7 4507   3.421   5.844   5.045 -0.0799 -0.0795 -0.4600
   91DPPC    P8 4508   3.453   5.693   5.090  0.1005  0.0725 -0.0798
   91DPPC    O9 4509   3.590   5.683   5.146 -0.0427 -0.4357  0.1851
   91DPPC   O10 4510   3.329   5.672   5.167  0.1554 -0.0737 -0.0318
   91DPPC   O11 4511   3.448   5.625   4.945 -0.1032 -0.0276 -0.0250
   91DPPC   C12 4512   3.315   5.637   4.894  0.0467 -0.0809 -0.4320
   91DPPC   C13 4513   3.308   5.624   4.742  0.1052 -0.1005 -0.4327
   91DPPC   O14 4514   3.361   5.503   4.685  0.4574 -0.3618  0.4373
   91DPPC   C15 4515   3.290   5.388   4.700 -0.2551  0.0669  0.3909
   91DPPC   O16 4516   3.170   5.385   4.724 -0.4033  0.7659 -0.2229
   91DPPC   C17 4517   3.378   5.267   4.667 -0.1500  0.2293  0.0670
   91DPPC   C18 4518   3.342   5.219   4.526  0.9845 -0.0031 -0.1526
   91DPPC   C19 4519   3.398   5.088   4.470 -0.3221 -0.7582  0.2668
   91DPPC   C20 4520   3.357   5.070   4.324  0.2945  0.1356 -0.0260
   91DPPC   C21 4521   3.371   4.922   4.288  0.3817  0.0973  0.1605
   91DPPC   C22 4522   3.332   4.900   4.141  0.2505  0.9092  0.0663
   91DPPC   C23 4523   3.425   4.965   4.038  0.0019  0.1075 -0.6704
   91DPPC   C24 4524   3.571   4.927   4.057  0.0014  0.2905 -0.2991
   91DPPC   C25 4525   3.648   4.987   3.940 -0.0951 -0.1695 -0.5997
   91DPPC   C26 4526   3.641   5.139   3.947  0.1316 -0.1882  0.1427
   91DPPC   C27 4527   3.694   5.225   3.832  0.2471 -0.4584 -0.0074
   91DPPC   C28 4528   3.715   5.365   3.891  0.0709 -0.5139  0.1839
   91DPPC   C29 4529   3.764   5.464   3.786 -0.1362 -0.0613  0.5134
   91DPPC   C30 4530   3.748   5.610   3.829 -0.0085 -0.0164  0.4094
   91DPPC   C31 4531   3.787   5.707   3.717 -0.3223  0.2412  0.5194
   91DPPC   C32 4532   3.381   5.749   4.693 -0.0536  0.1045 -0.1437
   91DPPC   O33 4533   3.304   5.831   4.604  0.4702  0.1277 -0.5862
   91DPPC   C34 4534   3.365   5.948   4.574  0.5612  0.2302 -0.0127
   91DPPC   O35 4535   3.458   5.987   4.645  0.2552  0.4507  0.2712
   91DPPC   C36 4536   3.313   6.038   4.462 -0.1777 -0.2991 -0.1011
   91DPPC   C37 4537   3.283   5.968   4.329  0.0561 -0.4769 -0.0597
   91DPPC   C38 4538   3.333   6.037   4.201 -0.1306 -0.1560  0.0390
   91DPPC   C39 4539   3.316   5.942   4.083 -0.0585  0.3011 -0.3411
   91DPPC   C40 4540   3.364   5.971   3.941  0.2618 -0.2771 -0.3531
   91DPPC   C41 4541   3.337   5.858   3.840 -0.1945 -0.1645 -0.3590
   91DPPC   C42 4542   3.392   5.898   3.703  0.2176 -0.2713 -0.2244
   91DPPC   C43 4543   3.372   5.772   3.619 -0.4066 -0.2200 -0.1524
   91DPPC   C44 4544   3.413   5.797   3.474 -0.8547 -0.1617 -0.2712
   91DPPC   C45 4545   3.395   5.665   3.399 -0.4091 -0.2664 -0.1942
   91DPPC   C46 4546   3.430   5.648   3.251 -0.1654 -0.3034 -0.1328
   91DPPC   C47 4547   3.449   5.503   3.205  0.5641 -0.2170 -0.1173
   91DPPC   C48 4548   3.475   5.482   3.056 -0.0133  0.0877 -0.2648
   91DPPC   C49 4549   3.497   5.333   3.031 -0.5255  0.0602 -0.5557
   91DPPC   C50 4550   3.363   5.260   3.043 -0.2607 -0.3892 -0.2881
   92DPPC    C1 4551   3.115   0.122   4.944 -0.1403 -0.4980  0.0843
   92DPPC    C2 4552   3.283   0.123   5.126 -0.0292  0.3468 -0.1889
   92DPPC    C3 4553   3.051   0.165   5.161 -0.0006 -0.2687 -0.2270
   92DPPC    N4 4554   3.163   0.184   5.068 -0.0940  0.1564 -0.2568
   92DPPC    C5 4555   3.172   0.330   5.059  0.4996  0.1626  0.3607
   92DPPC    C6 4556   3.243   0.399   4.942 -0.1505  0.8161  0.3440
   92DPPC    O7 4557   3.384   0.377   4.930 -0.2554  0.3114  0.0631
   92DPPC    P8 4558   3.458   0.486   4.838 -0.3533  0.1614 -0.1953
   92DPPC    O9 4559   3.418   0.622   4.880 -0.2303  0.0831  0.1720
   92DPPC   O10 4560   3.597   0.440   4.820 -0.3877 -0.0209  0.0100
   92DPPC   O11 4561   3.387   0.449   4.698 -0.3511  0.3418 -0.2450
   92DPPC   C12 4562   3.464   0.364   4.613 -0.2794 -0.0116  0.1698
   92DPPC   C13 4563   3.400   0.281   4.501  0.1370 -0.6415  0.3897
   92DPPC   O14 4564   3.496   0.211   4.420  0.1029  0.2340 -0.4277
   92DPPC   C15 4565   3.551   0.096   4.467 -0.6280  0.0456 -0.0139
   92DPPC   O16 4566   3.520   0.048   4.576 -0.1548 -0.1877  0.0188
   92DPPC   C17 4567   3.625   0.011   4.364 -0.5116 -0.1115  0.1996
   92DPPC   C18 4568   3.569   0.026   4.222 -0.3658 -0.4209  0.1070
   92DPPC   C19 4569   3.663  -0.024   4.113 -0.3190 -0.1984  0.0442
   92DPPC   C20 4570   3.608  -0.012   3.971  0.2298 -0.4299 -0.1920
   92DPPC   C21 4571   3.703  -0.061   3.862  0.4183  0.1643 -0.2979
   92DPPC   C22 4572   3.719  -0.213   3.851  0.0274  0.1050 -0.0399
   92DPPC   C23 4573   3.798  -0.246   3.725  0.1950  0.4814 -0.0353
   92DPPC   C24 4574   3.720  -0.202   3.601  0.0072  0.3054  0.0195
   92DPPC   C25 4575   3.804  -0.224   3.475  0.0603 -0.0970  0.1245
   92DPPC   C26 4576   3.710  -0.182   3.361  0.3559  0.1679 -0.0242
   92DPPC   C27 4577   3.786  -0.200   3.229 -0.1614 -0.3718 -0.2504
   92DPPC   C28 4578   3.713  -0.133   3.113 -0.1488  0.0940  0.0089
   92DPPC   C29 4579   3.784  -0.165   2.981  0.5563  0.7145  0.2280
   92DPPC   C30 4580   3.740  -0.057   2.882  0.3370  0.0169 -0.4441
   92DPPC   C31 4581   3.589  -0.033   2.884  0.3464  0.0536 -0.1462
   92DPPC   C32 4582   3.326   0.388   4.420  0.2331 -1.0453 -0.2354
   92DPPC   O33 4583   3.410   0.497   4.381 -0.4906 -0.1171  0.7485
   92DPPC   C34 4584   3.338   0.598   4.325  0.1448  0.0577  0.2354
   92DPPC   O35 4585   3.216   0.609   4.337  0.1195  0.3128 -0.2558
   92DPPC   C36 4586   3.426   0.704   4.260 -0.0661  0.0200 -0.1174
   92DPPC   C37 4587   3.359   0.780   4.145  0.5844  0.3595 -0.2823
   92DPPC   C38 4588   3.286   0.694   4.042 -0.5751  0.4302  0.4551
   92DPPC   C39 4589   3.204   0.782   3.948  0.1649  0.3294 -0.3016
   92DPPC   C40 4590   3.130   0.713   3.834  0.2895  0.3863 -0.4162
   92DPPC   C41 4591   3.035   0.796   3.747 -0.5588 -0.1216  0.0188
   92DPPC   C42 4592   3.054   0.726   3.613  0.5854  0.3486 -0.0735
   92DPPC   C43 4593   2.976   0.795   3.501  0.3790 -0.6110 -0.5297
   92DPPC   C44 4594   3.005   0.717   3.372  0.2194 -0.1599 -0.8383
   92DPPC   C45 4595   2.920   0.788   3.266 -0.4051  0.1650 -0.1250
   92DPPC   C46 4596   2.781   0.796   3.331 -0.5177 -0.4698 -0.2781
   92DPPC   C47 4597   2.688   0.881   3.244  0.0861  0.2769 -0.2125
   92DPPC   C48 4598   2.545   0.849   3.289  0.1040 -0.0563 -0.3822
   92DPPC   C49 4599   2.447   0.933   3.208 -0.7338 -0.9142 -0.2696
   92DPPC   C50 4600   2.489   0.921   3.061 -0.2163  0.3715 -0.2468
   93DPPC    C1 4601   2.614   3.771   5.356  0.1606 -0.4452 -0.0385
   93DPPC    C2 4602   2.703   3.979   5.402 -0.4642  0.1055  0.0920
   93DPPC    C3 4603   2.850   3.810   5.403 -0.7094 -0.0396 -0.0624
   93DPPC    N4 4604   2.731   3.855   5.328 -0.4388  0.3292 -0.2757
   93DPPC    C5 4605   2.763   3.863   5.185  0.1864 -0.1015 -0.1638
   93DPPC    C6 4606   2.667   3.929   5.086  0.2748 -0.1838 -0.3050
   93DPPC    O7 4607   2.704   4.061   5.047 -0.3641  0.1063  0.0654
   93DPPC    P8 4608   2.567   4.145   5.026 -0.2229  0.3103 -0.0432
   93DPPC    O9 4609   2.486   4.080   5.131 -0.2011 -0.4833 -0.5103
   93DPPC   O10 4610   2.590   4.291   5.017  0.1862  0.2805  0.4507
   93DPPC   O11 4611   2.535   4.090   4.878 -0.5612 -0.1766  0.2089
   93DPPC   C12 4612   2.639   4.139   4.794  0.0877 -0.7730  0.6445
   93DPPC   C13 4613   2.664   4.070   4.659  0.0211  0.2060  0.1195
   93DPPC   O14 4614   2.555   4.057   4.566 -0.2793 -0.3505  0.5449
   93DPPC   C15 4615   2.501   4.162   4.500  0.7573 -0.1096  0.0557
   93DPPC   O16 4616   2.513   4.278   4.541 -0.1012  0.1651 -0.4292
   93DPPC   C17 4617   2.406   4.123   4.386  0.1217  1.0432  0.1729
   93DPPC   C18 4618   2.453   4.002   4.306 -0.8788  0.3110  0.6803
   93DPPC   C19 4619   2.341   3.957   4.212 -0.0463  0.1564 -0.2478
   93DPPC   C20 4620   2.390   3.846   4.118  0.1635  0.0166  0.0254
   93DPPC   C21 4621   2.275   3.799   4.029  0.0351 -0.6487  0.5412
   93DPPC   C22 4622   2.333   3.704   3.923  0.3435  0.0407  0.0883
   93DPPC   C23 4623   2.241   3.609   3.847  0.5349 -0.4104  0.4183
   93DPPC   C24 4624   2.311   3.554   3.722 -0.1286 -0.1761 -0.0600
   93DPPC   C25 4625   2.377   3.665   3.640 -0.3225 -0.1606 -0.1964
   93DPPC   C26 4626   2.403   3.611   3.499  0.2408 -0.2326 -0.0666
   93DPPC   C27 4627   2.406   3.714   3.386  0.2438 -0.3868 -0.2059
   93DPPC   C28 4628   2.474   3.648   3.265  0.5893 -0.1881 -0.1226
   93DPPC   C29 4629   2.482   3.738   3.141  0.1102  0.5157  0.3500
   93DPPC   C30 4630   2.543   3.673   3.017  0.6740  0.7971  0.4750
   93DPPC   C31 4631   2.582   3.789   2.924 -0.0794  0.5618 -0.1477
   93DPPC   C32 4632   2.736   3.943   4.703 -0.1119  0.1914  0.3011
   93DPPC   O33 4633   2.871   3.969   4.743 -0.1851 -0.4498  0.9732
   93DPPC   C34 4634   2.948   3.863   4.780  0.3343 -0.4798 -0.1542
   93DPPC   O35 4635   2.901   3.751   4.759 -0.5170 -0.0128 -0.8193
   93DPPC   C36 4636   3.086   3.900   4.835  0.1368  0.4622 -0.2808
   93DPPC   C37 4637   3.191   3.910   4.725 -0.1724  0.6805 -0.5577
   93DPPC   C38 4638   3.225   3.785   4.644 -0.0170  0.4724 -0.1710
   93DPPC   C39 4639   3.351   3.818   4.563  0.2727 -0.0907  0.0394
   93DPPC   C40 4640   3.413   3.708   4.479  0.4603  0.0880 -0.0556
   93DPPC   C41 4641   3.548   3.759   4.428  0.2428  0.4419 -0.2808
   93DPPC   C42 4642   3.631   3.652   4.358 -0.2764  0.2888 -0.6619
   93DPPC   C43 4643   3.594   3.655   4.209 -0.3148 -0.5366 -0.6756
   93DPPC   C44 4644   3.708   3.591   4.130  0.3474  0.1207 -0.2717
   93DPPC   C45 4645   3.711   3.604   3.977 -0.2465 -0.3512 -0.3297
   93DPPC   C46 4646   3.753   3.750   3.959  0.0716 -0.4188 -0.1474
   93DPPC   C47 4647   3.768   3.755   3.807 -0.3447 -0.3698 -0.1869
   93DPPC   C48 4648   3.832   3.886   3.761 -0.9817 -0.0268 -0.1199
   93DPPC   C49 4649   3.831   3.904   3.609  0.8937 -0.5505 -0.2328
   93DPPC   C50 4650   3.880   4.043   3.566 -0.8306  0.0696 -0.2941
   94DPPC    C1 4651   2.925   5.270   4.519 -0.2448  0.3893  0.0791
   94DPPC    C2 4652   2.795   5.068   4.512  0.1099 -0.0831  0.0630
   94DPPC    C3 4653   2.803   5.226   4.330 -0.1472 -0.2439  0.1226
   94DPPC    N4 4654   2.797   5.211   4.476 -0.0599 -0.0595  0.1465
   94DPPC    C5 4655   2.697   5.302   4.534  0.4201  0.5038  0.0951
   94DPPC    C6 4656   2.567   5.310   4.453  0.7053 -0.0312 -0.4257
   94DPPC    O7 4657   2.496   5.428   4.489  0.1599 -0.4331 -0.1584
   94DPPC    P8 4658   2.343   5.380   4.495 -0.0395  0.1668 -0.3045
   94DPPC    O9 4659   2.343   5.237   4.533  0.9215  0.2729  0.1223
   94DPPC   O10 4660   2.258   5.480   4.563 -0.2673 -0.0122 -0.3204
   94DPPC   O11 4661   2.308   5.384   4.338 -0.0123  0.1661 -0.3109
   94DPPC   C12 4662   2.189   5.305   4.329 -0.1414  0.3470 -0.1699
   94DPPC   C13 4663   2.136   5.256   4.194 -0.4155 -0.0219  0.0692
   94DPPC   O14 4664   2.202   5.141   4.137  0.1014  0.0240  0.5590
   94DPPC   C15 4665   2.150   5.024   4.183 -0.4515 -0.1048 -0.3646
   94DPPC   O16 4666   2.103   5.015   4.297  0.1197  0.1374 -0.1030
   94DPPC   C17 4667   2.159   4.901   4.093  0.0081 -0.4524  0.1466
   94DPPC   C18 4668   2.101   4.931   3.954 -0.0093 -0.5006  0.1436
   94DPPC   C19 4669   2.084   4.804   3.871  0.6212 -0.5310  0.0529
   94DPPC   C20 4670   2.054   4.827   3.723 -0.5481 -0.3849  0.3007
   94DPPC   C21 4671   2.009   4.693   3.663 -0.5782 -0.1290 -0.2549
   94DPPC   C22 4672   1.890   4.627   3.732 -0.4060  0.1693  0.3329
   94DPPC   C23 4673   1.853   4.489   3.678 -0.6045  0.4531 -0.2679
   94DPPC   C24 4674   1.824   4.492   3.528  0.0785  0.0357 -0.4129
   94DPPC   C25 4675   1.834   4.345   3.484 -0.0782  0.0065 -0.3498
   94DPPC   C26 4676   1.735   4.263   3.567  0.0867  0.0113 -0.1473
   94DPPC   C27 4677   1.741   4.122   3.509  0.1228  0.0205 -0.1658
   94DPPC   C28 4678   1.874   4.046   3.509  0.4847  0.6355  0.6307
   94DPPC   C29 4679   1.873   3.949   3.390 -0.1082 -0.2139  1.3139
   94DPPC   C30 4680   2.015   3.895   3.374 -0.1172  0.0228  0.3835
   94DPPC   C31 4681   2.039   3.817   3.244  0.0916  0.4199  0.1821
   94DPPC   C32 4682   2.132   5.378   4.102 -0.1541  0.1027  0.2202
   94DPPC   O33 4683   2.046   5.477   4.158  0.3044  0.1043  0.9282
   94DPPC   C34 4684   2.036   5.598   4.097  0.3276 -0.2842  0.1428
   94DPPC   O35 4685   2.079   5.614   3.983 -1.0184 -0.0097 -0.3395
   94DPPC   C36 4686   1.924   5.681   4.159 -0.1847 -0.3257 -0.7157
   94DPPC   C37 4687   1.780   5.633   4.136 -0.3742 -0.3356  0.4119
   94DPPC   C38 4688   1.682   5.744   4.176 -0.2139 -0.1921  0.4083
   94DPPC   C39 4689   1.548   5.699   4.118  0.0655 -0.4575 -0.0416
   94DPPC   C40 4690   1.423   5.777   4.160  0.0069 -0.2042 -0.6725
   94DPPC   C41 4691   1.292   5.747   4.085 -0.5292 -0.1468  0.2311
   94DPPC   C42 4692   1.317   5.793   3.941 -0.2736  0.2478  0.3990
   94DPPC   C43 4693   1.196   5.763   3.853 -0.0581  0.0437  0.1731
   94DPPC   C44 4694   1.225   5.795   3.706  0.0460  0.6109  0.3163
   94DPPC   C45 4695   1.349   5.718   3.661  0.1153  0.8801  0.0457
   94DPPC   C46 4696   1.411   5.748   3.524  0.0402 -0.3385 -0.2618
   94DPPC   C47 4697   1.321   5.704   3.408  0.4002 -0.6033 -0.4401
   94DPPC   C48 4698   1.383   5.734   3.271 -0.1707 -0.0682 -0.5837
   94DPPC   C49 4699   1.376   5.881   3.228  0.7649 -0.0222 -0.5915
   94DPPC   C50 4700   1.235   5.937   3.211  0.8002  0.3017  0.1550
   95DPPC    C1 4701   2.526   5.871   4.839 -0.1380  0.0640  0.1882
   95DPPC    C2 4702   2.357   5.812   4.673  0.2901  0.4886 -0.2990
   95DPPC    C3 4703   2.579   5.835   4.608 -0.6878 -0.2963 -0.1319
   95DPPC    N4 4704   2.494   5.791   4.720 -0.0468 -0.2508  0.3760
   95DPPC    C5 4705   2.506   5.649   4.755  0.2452 -0.3259 -0.0161
   95DPPC    C6 4706   2.644   5.585   4.743  0.2982 -0.1519 -0.3441
   95DPPC    O7 4707   2.742   5.634   4.835  0.3248  0.0599 -0.4872
   95DPPC    P8 4708   2.877   5.550   4.807  0.0504 -0.4608 -0.2515
   95DPPC    O9 4709   2.970   5.621   4.898 -0.2567  0.6829 -0.8111
   95DPPC   O10 4710   2.833   5.410   4.829 -0.1947 -0.3687 -0.1529
   95DPPC   O11 4711   2.895   5.577   4.649 -0.2618 -0.0023 -0.2123
   95DPPC   C12 4712   2.982   5.689   4.631  0.7489 -0.7644 -0.1702
   95DPPC   C13 4713   3.019   5.733   4.489 -0.0913 -0.0698 -0.1796
   95DPPC   O14 4714   2.905   5.800   4.433 -0.4659 -0.1005  0.5301
   95DPPC   C15 4715   2.920   5.935   4.420 -0.4720 -0.1675 -0.2260
   95DPPC   O16 4716   2.956   5.997   4.520  0.3612 -0.1726 -0.5207
   95DPPC   C17 4717   2.802   5.993   4.341 -0.7824 -0.0442  0.3212
   95DPPC   C18 4718   2.828   6.020   4.193  0.2900 -0.3022  0.4528
   95DPPC   C19 4719   2.886   5.897   4.122 -0.7136 -0.4662 -0.1034
   95DPPC   C20 4720   2.867   5.914   3.972 -0.3140  0.4510 -0.0534
   95DPPC   C21 4721   2.939   5.802   3.897 -1.0914  0.1824 -0.4163
   95DPPC   C22 4722   2.950   5.834   3.748  0.0811 -0.0705 -0.3915
   95DPPC   C23 4723   2.813   5.831   3.680 -0.0233 -0.1406 -0.1763
   95DPPC   C24 4724   2.830   5.888   3.540  0.1109  0.1227 -0.0535
   95DPPC   C25 4725   2.892   5.800   3.431  0.2543  0.2457 -0.0719
   95DPPC   C26 4726   3.017   5.865   3.373  0.4555 -0.0938 -0.0220
   95DPPC   C27 4727   2.982   6.006   3.324 -0.0874 -0.1606  0.1700
   95DPPC   C28 4728   3.114   6.078   3.298  0.2290 -0.4664  0.8968
   95DPPC   C29 4729   3.194   5.988   3.203 -0.3415 -0.1210  0.0762
   95DPPC   C30 4730   3.319   6.069   3.166 -0.1851 -0.2943  0.2276
   95DPPC   C31 4731   3.411   5.984   3.078  0.4041  0.6654 -0.0942
   95DPPC   C32 4732   3.073   5.604   4.426  0.6420  0.2502 -0.2100
   95DPPC   O33 4733   3.144   5.613   4.302  0.1354 -0.2414 -0.5421
   95DPPC   C34 4734   3.155   5.495   4.236 -0.3428 -0.0396 -0.9841
   95DPPC   O35 4735   3.131   5.385   4.286  0.2441  0.1689 -0.2382
   95DPPC   C36 4736   3.219   5.513   4.098  0.4957  0.0450 -0.5948
   95DPPC   C37 4737   3.110   5.467   4.000 -0.4003  0.9015 -0.0132
   95DPPC   C38 4738   3.164   5.487   3.859 -0.3927 -0.6421 -0.2409
   95DPPC   C39 4739   3.059   5.452   3.753 -0.6173  0.0081 -0.2362
   95DPPC   C40 4740   3.130   5.462   3.618  0.3953  0.1305  0.2918
   95DPPC   C41 4741   3.027   5.429   3.509 -0.0251  0.5655  0.5535
   95DPPC   C42 4742   3.089   5.450   3.371 -0.2986  0.6492  0.4423
   95DPPC   C43 4743   2.980   5.452   3.263  0.1413  0.9171 -0.0008
   95DPPC   C44 4744   3.050   5.488   3.132  0.1781 -0.7044 -0.4473
   95DPPC   C45 4745   2.962   5.510   3.008 -0.2117 -0.6149 -0.1566
   95DPPC   C46 4746   3.048   5.561   2.892 -0.0576 -0.2283  0.1248
   95DPPC   C47 4747   2.965   5.564   2.763 -0.1089 -0.3066  0.1556
   95DPPC   C48 4748   3.033   5.625   2.641 -0.1578 -0.5984 -0.0186
   95DPPC   C49 4749   2.942   5.594   2.522 -0.3445 -0.3806  0.0663
   95DPPC   C50 4750   3.036   5.564   2.405 -0.6160  0.0996 -0.2786
   96DPPC    C1 4751   2.408   0.457   4.653 -0.0951 -0.0522 -0.6086
   96DPPC    C2 4752   2.335   0.402   4.877  0.5830  0.7943 -0.0088
   96DPPC    C3 4753   2.320   0.618   4.804  0.3387  0.6909  0.2078
   96DPPC    N4 4754   2.406   0.499   4.793  0.0256  0.5450 -0.7849
   96DPPC    C5 4755   2.529   0.543   4.861 -0.0655 -0.2830 -0.0614
   96DPPC    C6 4756   2.649   0.448   4.865 -0.0451 -0.2743 -0.4377
   96DPPC    O7 4757   2.731   0.452   4.748  0.1145 -0.1140 -0.3206
   96DPPC    P8 4758   2.873   0.389   4.789  0.2504  0.3107 -0.1316
   96DPPC    O9 4759   2.933   0.487   4.882  0.5081  0.0274  0.0057
   96DPPC   O10 4760   2.853   0.244   4.809  0.0207  0.3773  0.1213
   96DPPC   O11 4761   2.937   0.420   4.644  0.1692 -0.0240 -0.2409
   96DPPC   C12 4762   2.871   0.346   4.541 -0.2418 -0.3341  0.2378
   96DPPC   C13 4763   2.922   0.358   4.398  0.3467  0.0169  0.4736
   96DPPC   O14 4764   3.039   0.278   4.378  0.2651 -0.0566  0.2906
   96DPPC   C15 4765   3.012   0.147   4.353  0.2445  0.0232 -0.1135
   96DPPC   O16 4766   2.908   0.097   4.397  0.3263  0.5122  0.6474
   96DPPC   C17 4767   3.110   0.063   4.271  0.0517 -0.8306  0.5188
   96DPPC   C18 4768   3.079   0.058   4.121  0.0687  0.4994  0.4624
   96DPPC   C19 4769   3.195   0.106   4.033  0.1408  0.2655  0.4291
   96DPPC   C20 4770   3.223   0.254   4.063 -0.6885  0.5466 -0.1562
   96DPPC   C21 4771   3.324   0.326   3.974 -0.1894 -0.3970 -0.3632
   96DPPC   C22 4772   3.252   0.332   3.839 -0.3627 -0.0723 -0.2570
   96DPPC   C23 4773   3.353   0.375   3.732 -0.2123 -0.4103 -0.2548
   96DPPC   C24 4774   3.309   0.294   3.611 -0.1260 -0.3277 -0.3414
   96DPPC   C25 4775   3.422   0.322   3.511 -0.1585  0.5971 -0.1253
   96DPPC   C26 4776   3.385   0.258   3.377  0.5029  0.3494 -0.1917
   96DPPC   C27 4777   3.513   0.214   3.305  0.6864  0.4149  0.0931
   96DPPC   C28 4778   3.503   0.182   3.156  0.2125  0.5817  0.0871
   96DPPC   C29 4779   3.431   0.296   3.084  0.4717  0.4999 -0.3024
   96DPPC   C30 4780   3.416   0.268   2.934 -0.0623 -0.1790 -0.1249
   96DPPC   C31 4781   3.347   0.381   2.857  0.3196 -0.1784 -0.4661
   96DPPC   C32 4782   2.940   0.509   4.374  0.1294  0.0432  0.4769
   96DPPC   O33 4783   2.834   0.573   4.303  0.5895  0.0329 -0.2371
   96DPPC   C34 4784   2.848   0.708   4.290  0.1891  0.1068  0.0558
   96DPPC   O35 4785   2.894   0.763   4.390 -0.0760  0.1473  0.1562
   96DPPC   C36 4786   2.768   0.787   4.187  0.3062 -0.2720 -0.3305
   96DPPC   C37 4787   2.771   0.716   4.052  0.3905 -0.6268 -0.1411
   96DPPC   C38 4788   2.659   0.756   3.957  0.3439 -0.1797  0.0990
   96DPPC   C39 4789   2.642   0.665   3.835  0.4124 -0.0982  0.0286
   96DPPC   C40 4790   2.590   0.744   3.715 -0.3937 -0.6516  0.0048
   96DPPC   C41 4791   2.500   0.673   3.614 -0.3589 -0.1458 -0.3881
   96DPPC   C42 4792   2.568   0.544   3.567 -0.0612 -0.1798  0.1293
   96DPPC   C43 4793   2.532   0.495   3.426 -0.3053  0.0269  0.1191
   96DPPC   C44 4794   2.383   0.491   3.390 -0.1606  0.2985 -0.5130
   96DPPC   C45 4795   2.360   0.456   3.243 -0.0849 -0.5279 -0.3304
   96DPPC   C46 4796   2.225   0.511   3.199  0.2017  0.3461 -0.1314
   96DPPC   C47 4797   2.185   0.472   3.056 -0.1597 -0.4618  0.1869
   96DPPC   C48 4798   2.062   0.552   3.013  0.2862  0.0677 -0.1232
   96DPPC   C49 4799   2.017   0.520   2.870 -0.2428 -0.1224  0.0821
   96DPPC   C50 4800   1.910   0.605   2.802 -0.3052  0.1627  0.5308
   97DPPC    C1 4801   0.584   2.695   5.105 -0.0362 -0.1902 -0.1133
   97DPPC    C2 4802   0.725   2.782   4.924 -0.1800  0.0440 -0.0810
   97DPPC    C3 4803   0.693   2.542   4.953  0.7724 -0.2143 -0.3074
   97DPPC    N4 4804   0.701   2.673   5.019 -0.1694 -0.1537 -0.3055
   97DPPC    C5 4805   0.814   2.687   5.112 -0.4465  0.1360 -0.0107
   97DPPC    C6 4806   0.819   2.590   5.230 -0.7169 -0.3689 -0.4118
   97DPPC    O7 4807   0.845   2.453   5.201 -0.3196 -0.3577 -0.1235
   97DPPC    P8 4808   0.862   2.344   5.319  0.1544 -0.0901  0.0555
   97DPPC    O9 4809   1.008   2.339   5.345  0.2300 -0.2986 -0.3982
   97DPPC   O10 4810   0.772   2.373   5.433  0.1928 -0.0354  0.0722
   97DPPC   O11 4811   0.810   2.218   5.233  0.3376  0.2934 -0.6301
   97DPPC   C12 4812   0.902   2.205   5.124  0.4042 -0.2092 -0.5167
   97DPPC   C13 4813   0.899   2.073   5.047  0.0919 -0.7382  0.3823
   97DPPC   O14 4814   0.997   2.067   4.942 -0.2624 -0.5223  0.0361
   97DPPC   C15 4815   1.092   1.973   4.964 -0.0245 -0.3269 -0.1542
   97DPPC   O16 4816   1.084   1.898   5.062 -0.2075  0.2519  0.2777
   97DPPC   C17 4817   1.158   1.932   4.832  0.1959 -0.3039 -0.0509
   97DPPC   C18 4818   1.136   1.782   4.815 -0.0210 -0.2670 -0.0889
   97DPPC   C19 4819   1.215   1.736   4.693 -0.0966  0.3076 -0.3564
   97DPPC   C20 4820   1.142   1.609   4.649  0.2050 -0.0951  0.2913
   97DPPC   C21 4821   1.192   1.563   4.512 -0.2004 -0.0331  0.1223
   97DPPC   C22 4822   1.178   1.671   4.404  0.5351  0.2111  0.2680
   97DPPC   C23 4823   1.237   1.608   4.278 -0.4677 -0.0480 -0.0787
   97DPPC   C24 4824   1.285   1.707   4.172 -0.6911 -0.1828 -0.3089
   97DPPC   C25 4825   1.177   1.802   4.119 -0.2427  0.3039 -0.3536
   97DPPC   C26 4826   1.233   1.864   3.990  0.2454  0.1007 -0.2399
   97DPPC   C27 4827   1.165   1.990   3.937 -0.2550  0.0253  0.2157
   97DPPC   C28 4828   1.266   2.078   3.864  0.0334 -0.5171 -0.0497
   97DPPC   C29 4829   1.192   2.181   3.778 -0.1898 -0.3375  0.3521
   97DPPC   C30 4830   1.290   2.261   3.693 -0.3689 -0.3385  0.1417
   97DPPC   C31 4831   1.329   2.186   3.566  0.0295  0.0201  0.0472
   97DPPC   C32 4832   0.754   2.051   5.003 -0.0955  0.8607  0.1175
   97DPPC   O33 4833   0.713   2.134   4.894 -0.4001 -0.2133 -0.6118
   97DPPC   C34 4834   0.588   2.112   4.845 -0.4679 -0.0367 -0.5207
   97DPPC   O35 4835   0.546   1.998   4.862 -0.7482  0.1265 -0.0789
   97DPPC   C36 4836   0.545   2.209   4.734 -0.3157  0.2456 -0.3343
   97DPPC   C37 4837   0.666   2.279   4.673  0.1528 -0.0849  0.1911
   97DPPC   C38 4838   0.618   2.398   4.589 -0.6077 -0.5634 -0.0567
   97DPPC   C39 4839   0.716   2.469   4.495 -0.1411 -0.7224  0.3103
   97DPPC   C40 4840   0.632   2.562   4.407  0.4813 -0.5714 -0.1288
   97DPPC   C41 4841   0.737   2.639   4.328 -0.4290  0.3032 -0.5012
   97DPPC   C42 4842   0.828   2.538   4.257 -0.1696  0.2238 -0.0605
   97DPPC   C43 4843   0.899   2.611   4.143  0.4301  0.1058  0.2306
   97DPPC   C44 4844   0.776   2.631   4.053  0.3760 -0.3145  0.2120
   97DPPC   C45 4845   0.792   2.715   3.926  0.0973  0.1213  0.4656
   97DPPC   C46 4846   0.670   2.803   3.896  0.4580  0.3037 -0.5087
   97DPPC   C47 4847   0.666   2.861   3.755 -0.1614  0.5266 -0.4032
   97DPPC   C48 4848   0.541   2.949   3.747 -0.5294  0.0515  0.0592
   97DPPC   C49 4849   0.526   3.005   3.606  0.4050 -0.2740 -0.1780
   97DPPC   C50 4850   0.488   2.891   3.512 -0.1506 -0.5398  0.3631
   98DPPC    C1 4851   4.030   2.314   5.492 -0.0137  0.2655 -0.5598
   98DPPC    C2 4852   4.243   2.264   5.597 -0.0995  0.7730 -0.0568
   98DPPC    C3 4853   4.064   2.128   5.645 -0.6555  0.3084  0.0054
   98DPPC    N4 4854   4.122   2.208   5.536 -0.1934  0.4923  0.3788
   98DPPC    C5 4855   4.160   2.119   5.425 -0.6193  0.4670  0.2516
   98DPPC    C6 4856   4.052   2.057   5.336 -0.0631 -0.6970  0.3786
   98DPPC    O7 4857   4.114   1.996   5.223 -0.0390 -0.4484  0.2588
   98DPPC    P8 4858   4.003   1.923   5.133  0.0006 -0.0705 -0.0988
   98DPPC    O9 4859   3.889   1.891   5.221 -0.2578 -0.4770 -0.5718
   98DPPC   O10 4860   3.990   2.024   5.025  0.0456 -0.1030 -0.1347
   98DPPC   O11 4861   4.071   1.788   5.079 -0.1230 -0.0432 -0.3255
   98DPPC   C12 4862   4.175   1.825   4.988 -0.1671  0.1052 -0.3160
   98DPPC   C13 4863   4.222   1.710   4.898  0.0303  0.2087 -0.3468
   98DPPC   O14 4864   4.338   1.732   4.817  0.0602 -0.1972 -0.4178
   98DPPC   C15 4865   4.459   1.726   4.879 -0.1498 -0.3135 -0.0187
   98DPPC   O16 4866   4.468   1.735   5.001 -0.0425  0.4626 -0.0807
   98DPPC   C17 4867   4.587   1.698   4.800 -0.0931  0.1889 -0.1091
   98DPPC   C18 4868   4.657   1.826   4.755 -0.1750  0.2235 -0.1396
   98DPPC   C19 4869   4.761   1.781   4.652  0.0269  0.3569  0.0044
   98DPPC   C20 4870   4.685   1.711   4.539  0.1009  0.7983 -0.3212
   98DPPC   C21 4871   4.784   1.628   4.456 -0.4442  0.2227 -0.4007
   98DPPC   C22 4872   4.897   1.703   4.386 -0.0253 -0.1779 -0.1605
   98DPPC   C23 4873   4.973   1.606   4.296  0.2874  0.0294 -0.1230
   98DPPC   C24 4874   5.067   1.675   4.197  0.7219  0.5803  0.6596
   98DPPC   C25 4875   5.128   1.559   4.118 -0.3033  0.7888 -0.4706
   98DPPC   C26 4876   5.173   1.595   3.976 -0.0453  0.1111 -0.5649
   98DPPC   C27 4877   5.243   1.730   3.988 -0.4626  0.2861 -0.0859
   98DPPC   C28 4878   5.322   1.767   3.863 -0.1263 -0.1974 -0.0141
   98DPPC   C29 4879   5.409   1.893   3.868  0.4479 -0.5906  0.1265
   98DPPC   C30 4880   5.476   1.929   3.736 -0.5506 -0.1746 -0.2825
   98DPPC   C31 4881   5.397   2.035   3.659  0.2098  0.6591  0.0637
   98DPPC   C32 4882   4.090   1.684   4.824 -0.1059 -0.3686  0.0839
   98DPPC   O33 4883   4.031   1.806   4.779 -0.2245 -0.3755  0.2234
   98DPPC   C34 4884   3.903   1.794   4.735 -0.3638  0.3152  0.4114
   98DPPC   O35 4885   3.850   1.683   4.744 -0.1610  0.2423  0.7292
   98DPPC   C36 4886   3.828   1.923   4.703 -0.1531  0.3451  0.0277
   98DPPC   C37 4887   3.766   1.919   4.563  0.9434 -0.8710 -0.4393
   98DPPC   C38 4888   3.733   2.056   4.504 -0.2266 -0.9669 -0.0222
   98DPPC   C39 4889   3.670   2.039   4.365  0.5586 -0.1027 -0.4965
   98DPPC   C40 4890   3.605   2.163   4.302  0.3335 -0.1082 -0.2793
   98DPPC   C41 4891   3.606   2.112   4.157 -0.0085 -0.1770 -0.2589
   98DPPC   C42 4892   3.606   2.221   4.049 -0.5043 -0.0914 -0.1757
   98DPPC   C43 4893   3.613   2.171   3.904 -0.0781  0.1609 -0.2430
   98DPPC   C44 4894   3.632   2.285   3.804  0.0246  0.0677 -0.3295
   98DPPC   C45 4895   3.645   2.205   3.675 -0.3184  0.1281 -0.4032
   98DPPC   C46 4896   3.694   2.300   3.565  0.3544 -0.1378 -0.3381
   98DPPC   C47 4897   3.824   2.354   3.625  0.0720  0.0282  0.1280
   98DPPC   C48 4898   3.905   2.453   3.541 -0.5677  0.3027 -0.1690
   98DPPC   C49 4899   3.930   2.383   3.408 -0.3665 -0.1967  0.1283
   98DPPC   C50 4900   4.003   2.473   3.307 -0.7638 -0.4642 -0.4057
   99DPPC    C1 4901   1.076   3.564   5.104 -0.0251  0.0401  0.7443
   99DPPC    C2 4902   0.980   3.348   5.124 -0.4159  0.5128  0.1090
   99DPPC    C3 4903   1.098   3.382   4.926  0.5762 -0.3993  0.1662
   99DPPC    N4 4904   1.093   3.423   5.067 -0.2813  0.2063 -0.0290
   99DPPC    C5 4905   1.213   3.376   5.138 -0.5646 -0.0260  0.2997
   99DPPC    C6 4906   1.347   3.430   5.089 -0.1730 -0.5621  0.7605
   99DPPC    O7 4907   1.448   3.348   5.149  0.3252 -0.6278 -0.1401
   99DPPC    P8 4908   1.585   3.429   5.126 -0.0389  0.0009 -0.1155
   99DPPC    O9 4909   1.543   3.570   5.111  0.8414  0.2876  0.0729
   99DPPC   O10 4910   1.687   3.386   5.224  0.4480  0.2321 -0.5176
   99DPPC   O11 4911   1.609   3.365   4.980  0.2841 -0.4574  0.1380
   99DPPC   C12 4912   1.745   3.394   4.946  0.1249  0.1428  0.0001
   99DPPC   C13 4913   1.801   3.308   4.832 -0.3528 -0.3866  0.1553
   99DPPC   O14 4914   1.929   3.361   4.793 -0.2688 -0.2489  0.6116
   99DPPC   C15 4915   2.041   3.283   4.794 -0.1051 -0.0278 -0.0618
   99DPPC   O16 4916   2.042   3.177   4.856  0.0694  0.2213  0.3653
   99DPPC   C17 4917   2.160   3.317   4.705  0.5998 -0.4527  0.7046
   99DPPC   C18 4918   2.162   3.225   4.582 -0.3389  0.8336 -0.3041
   99DPPC   C19 4919   2.261   3.266   4.473  0.1723 -0.2045 -0.2413
   99DPPC   C20 4920   2.392   3.188   4.485  0.2874 -0.0238 -0.3088
   99DPPC   C21 4921   2.474   3.188   4.356  0.3422 -0.1625 -0.2746
   99DPPC   C22 4922   2.500   3.326   4.294  0.0627  0.1481  0.2819
   99DPPC   C23 4923   2.575   3.300   4.163  0.0374  0.4206  0.2137
   99DPPC   C24 4924   2.595   3.408   4.056  0.1221  0.3773  0.1857
   99DPPC   C25 4925   2.667   3.354   3.932  0.0811 -0.2134  0.4176
   99DPPC   C26 4926   2.671   3.463   3.825  0.6161 -0.0943  0.5571
   99DPPC   C27 4927   2.743   3.583   3.887  0.5878  0.2263 -0.0238
   99DPPC   C28 4928   2.742   3.704   3.793  0.4271  0.4236  0.2299
   99DPPC   C29 4929   2.810   3.827   3.852  0.4113  0.3016  0.5061
   99DPPC   C30 4930   2.753   3.958   3.795 -0.4188 -0.2687  0.0037
   99DPPC   C31 4931   2.842   4.070   3.849 -0.5540 -0.1669  0.0158
   99DPPC   C32 4932   1.701   3.309   4.716 -0.3287 -0.2027  0.1348
   99DPPC   O33 4933   1.711   3.214   4.610 -0.0651 -0.1043  0.0703
   99DPPC   C34 4934   1.603   3.206   4.528 -0.0682 -0.4319  0.1030
   99DPPC   O35 4935   1.508   3.285   4.532 -0.2776 -0.6522 -0.3982
   99DPPC   C36 4936   1.607   3.111   4.408  0.1673 -0.1196 -0.1390
   99DPPC   C37 4937   1.467   3.115   4.346  0.0782  0.0631  0.0708
   99DPPC   C38 4938   1.466   3.035   4.215 -0.3999  0.2415 -0.0362
   99DPPC   C39 4939   1.325   3.025   4.155 -0.5169  0.0614  0.2686
   99DPPC   C40 4940   1.321   2.952   4.021 -0.3770  0.1362  0.2231
   99DPPC   C41 4941   1.360   2.808   4.055  0.2341  0.1048 -0.5775
   99DPPC   C42 4942   1.355   2.707   3.940  0.0066 -0.0983 -0.3887
   99DPPC   C43 4943   1.397   2.571   3.996 -0.2169  0.0561  0.1629
   99DPPC   C44 4944   1.309   2.518   4.110 -0.5957 -0.2950 -0.2844
   99DPPC   C45 4945   1.378   2.387   4.150  0.4307  0.2815 -0.1132
   99DPPC   C46 4946   1.320   2.338   4.283 -0.1162  0.6517 -0.2083
   99DPPC   C47 4947   1.191   2.268   4.239  0.0931  0.2561 -0.1973
   99DPPC   C48 4948   1.115   2.204   4.355 -0.7755  1.0200 -0.3313
   99DPPC   C49 4949   0.996   2.122   4.307  0.2506 -0.1640 -0.9288
   99DPPC   C50 4950   0.900   2.210   4.226 -0.4506  0.0528  0.1129
  100DPPC    C1 4951   5.370   4.131   5.543 -0.1672  0.0608 -0.4786
  100DPPC    C2 4952   5.454   4.135   5.329 -0.4128  0.3575 -0.1288
  100DPPC    C3 4953   5.412   3.925   5.444  0.2643 -0.0735  0.3684
  100DPPC    N4 4954   5.361   4.060   5.414 -0.0125 -0.3168 -0.2811
  100DPPC    C5 4955   5.223   4.073   5.367  0.0731 -0.3440 -0.5420
  100DPPC    C6 4956   5.121   3.987   5.443  0.3193  0.1751  0.3952
  100DPPC    O7 4957   4.987   4.036   5.436  0.2216 -0.1526 -0.0455
  100DPPC    P8 4958   4.874   3.922   5.456 -0.1250  0.1829 -0.0804
  100DPPC    O9 4959   4.920   3.817   5.549 -0.1599 -0.5501 -0.8747
  100DPPC   O10 4960   4.743   3.990   5.468  0.1906  0.8072 -0.1021
  100DPPC   O11 4961   4.875   3.855   5.309 -0.1165  0.5404 -0.2459
  100DPPC   C12 4962   4.833   3.957   5.217 -0.2988  0.3463 -0.3786
  100DPPC   C13 4963   4.819   3.917   5.070  0.1887 -0.6311 -0.1693
  100DPPC   O14 4964   4.783   4.022   4.980  0.0603  0.1196  0.7455
  100DPPC   C15 4965   4.654   4.066   4.983  0.0327  0.0681  0.3500
  100DPPC   O16 4966   4.586   4.040   5.082 -0.7536 -0.2830 -0.2794
  100DPPC   C17 4967   4.612   4.179   4.888  0.0420 -0.3491 -0.1525
  100DPPC   C18 4968   4.562   4.128   4.753  0.3654 -0.1592 -0.3462
  100DPPC   C19 4969   4.471   4.237   4.695  0.3580  0.2617  0.4466
  100DPPC   C20 4970   4.424   4.197   4.555  0.2395  0.9947  0.2742
  100DPPC   C21 4971   4.318   4.298   4.510 -0.4453  0.1582 -0.0360
  100DPPC   C22 4972   4.259   4.280   4.370  0.0201  0.1691 -0.2357
  100DPPC   C23 4973   4.158   4.392   4.348  0.0756  0.2514 -0.0704
  100DPPC   C24 4974   4.121   4.397   4.200 -0.3384 -0.8414 -0.0106
  100DPPC   C25 4975   3.986   4.465   4.172 -0.1055 -0.3861 -0.0443
  100DPPC   C26 4976   3.947   4.432   4.028 -0.3102  0.3711 -0.1631
  100DPPC   C27 4977   4.010   4.516   3.916  0.4626  0.6226  0.4523
  100DPPC   C28 4978   3.959   4.480   3.777  0.2700 -0.0807  0.6996
  100DPPC   C29 4979   3.808   4.495   3.761  0.3410  0.4828  0.5503
  100DPPC   C30 4980   3.768   4.467   3.616  0.2453  0.1193  0.6474
  100DPPC   C31 4981   3.615   4.462   3.605  0.2726  0.2719  0.1693
  100DPPC   C32 4982   4.741   3.785   5.069  0.5222 -0.8385  0.3010
  100DPPC   O33 4983   4.782   3.687   4.973  0.2253 -0.1119 -0.5948
  100DPPC   C34 4984   4.891   3.613   5.009  0.0366  0.1131  0.4979
  100DPPC   O35 4985   4.930   3.593   5.123  0.8216  0.1153  0.2336
  100DPPC   C36 4986   4.960   3.554   4.885 -0.6064  0.6917 -0.1496
  100DPPC   C37 4987   4.879   3.439   4.827 -0.2517  0.1686  0.3780
  100DPPC   C38 4988   4.943   3.365   4.710 -0.4994  0.5202  0.0172
  100DPPC   C39 4989   4.901   3.219   4.694 -0.2980  0.4290  0.3025
  100DPPC   C40 4990   5.004   3.145   4.609 -0.3819  0.5772  0.0704
  100DPPC   C41 4991   5.015   3.202   4.467  0.0757 -0.1246 -0.1801
  100DPPC   C42 4992   5.147   3.143   4.416  0.2340 -0.1566  0.2603
  100DPPC   C43 4993   5.190   3.208   4.284 -0.5509 -0.5833 -0.2111
  100DPPC   C44 4994   5.294   3.125   4.209  0.1699  0.4818 -0.4084
  100DPPC   C45 4995   5.290   3.174   4.064 -0.1608  0.2016 -0.4951
  100DPPC   C46 4996   5.402   3.127   3.970 -0.0085  0.0446 -0.2358
  100DPPC   C47 4997   5.388   3.196   3.835 -0.0557  0.0499 -0.2282
  100DPPC   C48 4998   5.502   3.298   3.829  0.3532 -0.4189 -0.4248
  100DPPC   C49 4999   5.523   3.360   3.691 -0.0897  0.2983 -0.1714
  100DPPC   C50 5000   5.659   3.427   3.669 -0.0456  0.1728 -0.2856
  101DPPC    C1 5001   0.414   1.569   5.067  0.0401  0.2526 -0.3246
  101DPPC    C2 5002   0.376   1.625   5.286 -0.0094 -0.5760  0.2434
  101DPPC    C3 5003   0.513   1.772   5.135  0.4430 -0.2496  0.0750
  101DPPC    N4 5004   0.478   1.637   5.180 -0.2666 -0.0756  0.0487
  101DPPC    C5 5005   0.607   1.578   5.219 -0.3877 -0.0695  0.4714
  101DPPC    C6 5006   0.612   1.427   5.243 -0.0210 -0.0364  0.6080
  101DPPC    O7 5007   0.751   1.398   5.263  0.0724  0.3829  0.5973
  101DPPC    P8 5008   0.773   1.239   5.280  0.0371  0.3788  0.6051
  101DPPC    O9 5009   0.909   1.244   5.338  0.1194 -0.5681  0.5054
  101DPPC   O10 5010   0.651   1.184   5.343  0.0274 -0.4691 -0.1383
  101DPPC   O11 5011   0.796   1.211   5.124  0.2176 -0.2892  0.7477
  101DPPC   C12 5012   0.924   1.266   5.089 -0.1918 -0.0777 -0.4602
  101DPPC   C13 5013   0.926   1.242   4.938  0.0138 -0.4450 -0.4011
  101DPPC   O14 5014   1.053   1.254   4.873 -0.0297 -0.5980 -0.5147
  101DPPC   C15 5015   1.145   1.153   4.869 -0.0787 -0.6510 -0.3069
  101DPPC   O16 5016   1.160   1.073   4.961 -0.0425 -0.0189  0.2397
  101DPPC   C17 5017   1.254   1.185   4.767 -0.1721  0.3289 -0.1158
  101DPPC   C18 5018   1.224   1.146   4.622 -0.0393  0.0458 -0.0688
  101DPPC   C19 5019   1.352   1.111   4.546  0.0123 -0.2335  0.1482
  101DPPC   C20 5020   1.463   1.215   4.560  0.0935 -0.3051  0.0412
  101DPPC   C21 5021   1.571   1.197   4.453  0.1932  0.0953  0.0712
  101DPPC   C22 5022   1.528   1.214   4.308 -0.2889  0.4361  0.2485
  101DPPC   C23 5023   1.616   1.113   4.232 -0.0182  0.6037  0.3402
  101DPPC   C24 5024   1.575   1.091   4.087  0.1530  0.0475  0.3763
  101DPPC   C25 5025   1.647   0.976   4.015 -0.1710  0.1592 -0.1330
  101DPPC   C26 5026   1.613   0.983   3.866  0.0845 -0.8224 -0.2476
  101DPPC   C27 5027   1.710   1.081   3.801 -0.4609 -0.3076 -0.2998
  101DPPC   C28 5028   1.698   1.084   3.649 -0.2157 -0.2223 -0.3184
  101DPPC   C29 5029   1.799   1.189   3.601  0.2492 -0.7250 -0.4475
  101DPPC   C30 5030   1.821   1.173   3.450 -0.3946 -0.1093 -0.6085
  101DPPC   C31 5031   1.956   1.236   3.417  0.1316 -0.7384  0.3002
  101DPPC   C32 5032   0.811   1.319   4.872 -0.3801 -0.0531  0.7278
  101DPPC   O33 5033   0.810   1.460   4.897  0.2997  0.0425  0.2521
  101DPPC   C34 5034   0.708   1.536   4.847 -0.0221 -0.5581 -0.0120
  101DPPC   O35 5035   0.593   1.494   4.832 -0.2504  0.2147 -0.4423
  101DPPC   C36 5036   0.758   1.678   4.823 -0.3764 -0.3933  0.2306
  101DPPC   C37 5037   0.751   1.708   4.673  0.0662  0.3381  0.3458
  101DPPC   C38 5038   0.821   1.838   4.637  0.2149  0.0647 -0.3609
  101DPPC   C39 5039   0.806   1.871   4.488  0.2145  0.3448 -0.3005
  101DPPC   C40 5040   0.669   1.937   4.468  0.0783  0.1952  0.1197
  101DPPC   C41 5041   0.640   2.001   4.332  0.1688  0.6314  0.3041
  101DPPC   C42 5042   0.493   2.045   4.331 -0.1656 -0.4783 -0.0791
  101DPPC   C43 5043   0.447   2.109   4.200 -0.6453 -0.3979  0.1277
  101DPPC   C44 5044   0.297   2.136   4.214 -0.5061  0.4174  0.0601
  101DPPC   C45 5045   0.222   2.003   4.207  0.4198 -0.1342  0.4477
  101DPPC   C46 5046   0.076   2.016   4.249  0.3388 -0.0601  0.1450
  101DPPC   C47 5047  -0.004   1.885   4.252  0.2287 -0.0122 -0.5265
  101DPPC   C48 5048  -0.016   1.826   4.111 -0.0765 -0.5363 -0.2836
  101DPPC   C49 5049  -0.137   1.734   4.092 -0.0695 -0.5288 -0.3676
  101DPPC   C50 5050  -0.185   1.726   3.947  0.4617 -0.1647 -0.5686
  102DPPC    C1 5051   0.102   3.584   5.174 -0.0048 -0.2162 -0.1042
  102DPPC    C2 5052   0.088   3.427   5.360 -0.5264 -0.6371 -0.4660
  102DPPC    C3 5053   0.295   3.470   5.239  0.1328 -0.3157 -0.6796
  102DPPC    N4 5054   0.149   3.456   5.229  0.0761 -0.1765 -0.0811
  102DPPC    C5 5055   0.112   3.347   5.138 -0.7654  0.1535 -0.1443
  102DPPC    C6 5056   0.135   3.199   5.170  0.0191  0.3808  0.3752
  102DPPC    O7 5057   0.274   3.167   5.178 -0.0597 -0.0624 -0.0408
  102DPPC    P8 5058   0.261   3.006   5.180 -0.3798 -0.0378 -0.0700
  102DPPC    O9 5059   0.405   2.969   5.181 -0.1614  0.7874  0.1841
  102DPPC   O10 5060   0.178   2.973   5.297  0.1722 -0.6885  0.1446
  102DPPC   O11 5061   0.198   2.975   5.035 -0.1313 -0.3400 -0.1132
  102DPPC   C12 5062   0.298   3.008   4.939  0.1544  0.1528  0.3478
  102DPPC   C13 5063   0.279   2.960   4.795  0.1692  0.7356  0.1476
  102DPPC   O14 5064   0.382   3.010   4.708  0.0222  0.3270 -0.2661
  102DPPC   C15 5065   0.450   2.915   4.639 -0.0211  0.0113  0.1192
  102DPPC   O16 5066   0.427   2.795   4.659 -0.3548 -0.0169 -0.3978
  102DPPC   C17 5067   0.541   2.972   4.530 -0.3536  0.3595  0.0207
  102DPPC   C18 5068   0.469   2.971   4.395 -0.1102 -0.1634 -0.1086
  102DPPC   C19 5069   0.559   3.043   4.295  0.2891  0.1398  0.4602
  102DPPC   C20 5070   0.511   3.034   4.149  0.0566  0.5316  0.5122
  102DPPC   C21 5071   0.377   3.107   4.139 -0.1740  0.0455  0.0511
  102DPPC   C22 5072   0.305   3.105   4.004  0.0601  0.1512 -0.0757
  102DPPC   C23 5073   0.171   3.179   4.003 -0.1097 -0.1526  0.3126
  102DPPC   C24 5074   0.098   3.189   3.869  0.0884  0.0670  0.2213
  102DPPC   C25 5075  -0.028   3.275   3.882 -0.0180  0.0234 -0.4751
  102DPPC   C26 5076  -0.084   3.282   3.740  0.2861 -0.4784 -0.6251
  102DPPC   C27 5077  -0.115   3.141   3.690  0.2480 -0.5623 -0.3645
  102DPPC   C28 5078  -0.213   3.139   3.573 -0.0771  0.1123 -0.1095
  102DPPC   C29 5079  -0.205   3.001   3.508 -0.0823  0.0601  0.0004
  102DPPC   C30 5080  -0.308   2.988   3.395 -0.2850  0.1436  0.1762
  102DPPC   C31 5081  -0.443   3.038   3.448 -0.3431 -0.2683  0.4223
  102DPPC   C32 5082   0.130   2.959   4.758  0.1386 -0.1183  0.2759
  102DPPC   O33 5083   0.088   2.904   4.633  0.8424  0.2647 -0.1367
  102DPPC   C34 5084   0.101   2.769   4.633 -0.3164  0.1392  0.4020
  102DPPC   O35 5085   0.103   2.702   4.736  0.4273  0.1490  0.3962
  102DPPC   C36 5086   0.096   2.706   4.493  0.1371 -0.3157  0.5869
  102DPPC   C37 5087   0.219   2.621   4.461 -0.1233 -0.3566 -0.3354
  102DPPC   C38 5088   0.211   2.603   4.309  0.0835 -0.0014 -0.3883
  102DPPC   C39 5089   0.194   2.736   4.235 -0.3649  0.0744 -0.1535
  102DPPC   C40 5090   0.187   2.710   4.085  0.4462 -0.0368 -0.1760
  102DPPC   C41 5091   0.325   2.678   4.028  0.7225 -0.1248  0.5377
  102DPPC   C42 5092   0.313   2.700   3.877 -0.0655  0.0290  0.6207
  102DPPC   C43 5093   0.231   2.589   3.811  0.5062  0.1563 -0.3188
  102DPPC   C44 5094   0.181   2.625   3.671 -0.6186  0.3425  0.1240
  102DPPC   C45 5095   0.096   2.509   3.619  0.8034 -0.5701 -0.2237
  102DPPC   C46 5096   0.050   2.538   3.476 -0.5133 -0.1560  0.2625
  102DPPC   C47 5097   0.012   2.412   3.399 -0.5873 -0.0659  0.1512
  102DPPC   C48 5098  -0.041   2.453   3.261 -0.4985 -1.2400 -0.2428
  102DPPC   C49 5099  -0.131   2.345   3.201 -0.9245 -0.7232 -0.5372
  102DPPC   C50 5100  -0.046   2.220   3.180  0.7238  0.2041  0.4004
  103DPPC    C1 5101   0.607   3.737   5.710  0.3471  0.3573  0.5717
  103DPPC    C2 5102   0.418   3.834   5.790  0.6440 -0.6284  0.6178
  103DPPC    C3 5103   0.598   3.947   5.846  0.0057  0.1121  0.4578
  103DPPC    N4 5104   0.548   3.870   5.732  0.2020  0.3537  0.2064
  103DPPC    C5 5105   0.533   3.959   5.616  0.1692  0.4296  0.2695
  103DPPC    C6 5106   0.433   3.911   5.510 -0.1001  0.8786  0.3170
  103DPPC    O7 5107   0.428   3.990   5.392 -0.1771  0.4622  0.0388
  103DPPC    P8 5108   0.349   3.921   5.270  0.1813  0.1796 -0.0342
  103DPPC    O9 5109   0.382   3.779   5.295  0.0540  0.1612  0.0313
  103DPPC   O10 5110   0.212   3.965   5.308  0.0335  0.1058 -0.4746
  103DPPC   O11 5111   0.439   3.996   5.160  0.1040  0.2599 -0.0437
  103DPPC   C12 5112   0.554   3.919   5.123  0.0389  0.1621 -0.0407
  103DPPC   C13 5113   0.535   3.835   4.996  0.1114 -0.0438  0.0836
  103DPPC   O14 5114   0.649   3.750   4.979  0.3799  0.2736  0.2694
  103DPPC   C15 5115   0.650   3.673   4.866 -0.4912  1.0033 -0.2497
  103DPPC   O16 5116   0.542   3.660   4.810 -0.4361 -0.0629 -0.1124
  103DPPC   C17 5117   0.782   3.605   4.831 -0.4298  0.8855  0.2087
  103DPPC   C18 5118   0.849   3.649   4.701  0.3174 -0.3696  0.1495
  103DPPC   C19 5119   0.917   3.785   4.716  0.5851 -0.4590 -0.2398
  103DPPC   C20 5120   0.950   3.853   4.583 -0.4647  0.2259 -0.1583
  103DPPC   C21 5121   0.822   3.844   4.500 -0.6575  0.2434  0.1361
  103DPPC   C22 5122   0.846   3.910   4.364  0.2476 -0.2409  0.0550
  103DPPC   C23 5123   0.943   3.831   4.276  0.4807 -0.1092  0.1947
  103DPPC   C24 5124   0.944   3.897   4.138  0.5400 -0.1847  0.1585
  103DPPC   C25 5125   1.044   3.840   4.038 -0.3474 -0.8902 -0.3426
  103DPPC   C26 5126   1.008   3.886   3.897 -0.0715 -0.3222 -0.2302
  103DPPC   C27 5127   0.864   3.842   3.871 -0.2375 -0.1877  0.4562
  103DPPC   C28 5128   0.801   3.872   3.735  0.4766 -0.5891  0.0349
  103DPPC   C29 5129   0.887   3.821   3.619 -0.0579 -0.1630 -0.5587
  103DPPC   C30 5130   0.830   3.867   3.485  0.0269  0.5566 -0.3526
  103DPPC   C31 5131   0.852   3.762   3.376  0.0680  0.1796  0.0177
  103DPPC   C32 5132   0.512   3.940   4.887 -0.2562 -0.1593  0.0475
  103DPPC   O33 5133   0.626   4.015   4.843 -0.2863 -0.0771  0.1095
  103DPPC   C34 5134   0.598   4.120   4.762 -0.3879 -0.2909 -0.1332
  103DPPC   O35 5135   0.500   4.193   4.780  0.2377  0.4411  0.4047
  103DPPC   C36 5136   0.697   4.158   4.652  0.0819  0.4552  0.5327
  103DPPC   C37 5137   0.690   4.302   4.602  0.2985  0.4167  0.3862
  103DPPC   C38 5138   0.813   4.319   4.513 -0.3251 -0.1307 -0.6000
  103DPPC   C39 5139   0.807   4.466   4.472 -0.6092 -0.0781 -0.3762
  103DPPC   C40 5140   0.931   4.502   4.390 -0.6506  0.2626 -0.2924
  103DPPC   C41 5141   0.903   4.431   4.258 -0.3090 -0.7288  0.1585
  103DPPC   C42 5142   0.976   4.497   4.141 -0.5916 -0.1364  0.3136
  103DPPC   C43 5143   0.912   4.434   4.017  0.2566 -0.0059 -0.1998
  103DPPC   C44 5144   0.920   4.281   4.019 -0.2218 -0.0436 -0.7387
  103DPPC   C45 5145   0.829   4.237   3.905 -0.3913 -0.5212 -0.4202
  103DPPC   C46 5146   0.859   4.305   3.772  0.4374 -0.2246 -0.0850
  103DPPC   C47 5147   0.781   4.255   3.651 -0.2885  0.2504  0.1810
  103DPPC   C48 5148   0.629   4.278   3.652 -0.3479 -0.1032 -0.1836
  103DPPC   C49 5149   0.569   4.236   3.518 -0.5837 -0.0025 -0.1097
  103DPPC   C50 5150   0.502   4.355   3.449 -0.4351 -0.1896 -0.5853
  104DPPC    C1 5151   0.891   4.598   5.743 -0.2105  0.2866  0.2190
  104DPPC    C2 5152   0.820   4.816   5.727  0.6125 -0.2022 -0.0282
  104DPPC    C3 5153   0.713   4.657   5.590  0.0777 -0.6552 -0.3941
  104DPPC    N4 5154   0.844   4.696   5.644 -0.1091 -0.1691 -0.2891
  104DPPC    C5 5155   0.942   4.722   5.538  0.5609  0.2436  0.4207
  104DPPC    C6 5156   0.975   4.616   5.432 -0.0009  0.2750  0.2137
  104DPPC    O7 5157   0.882   4.601   5.325 -0.5110  0.1858  0.6623
  104DPPC    P8 5158   0.889   4.449   5.272 -0.0912  0.3417  0.2628
  104DPPC    O9 5159   1.031   4.413   5.287 -0.1365 -0.0293 -0.1827
  104DPPC   O10 5160   0.790   4.389   5.365  0.5522 -0.1418  0.6451
  104DPPC   O11 5161   0.834   4.455   5.121  0.5482 -0.8002 -0.0269
  104DPPC   C12 5162   0.932   4.483   5.021  0.4501 -1.1356 -0.2183
  104DPPC   C13 5163   0.876   4.494   4.879  0.0792  0.6826  0.0390
  104DPPC   O14 5164   0.980   4.472   4.783 -0.1401 -0.3772  0.0251
  104DPPC   C15 5165   1.042   4.352   4.774  0.5994 -0.0436  0.5653
  104DPPC   O16 5166   1.034   4.263   4.859  0.0014 -0.6343 -0.0988
  104DPPC   C17 5167   1.138   4.348   4.654  0.1549 -0.1078  0.2086
  104DPPC   C18 5168   1.200   4.211   4.627 -0.0650 -0.1620 -0.0286
  104DPPC   C19 5169   1.263   4.223   4.488  0.0207 -0.2244  0.0051
  104DPPC   C20 5170   1.286   4.098   4.404  0.0625 -0.3620  0.2184
  104DPPC   C21 5171   1.370   4.119   4.277 -0.5713 -0.4874 -0.2284
  104DPPC   C22 5172   1.378   3.995   4.188 -0.5818 -0.1136 -0.7498
  104DPPC   C23 5173   1.498   4.003   4.094  0.2091 -0.0993  0.2454
  104DPPC   C24 5174   1.480   4.123   4.000 -0.5471 -0.4950 -0.1277
  104DPPC   C25 5175   1.379   4.080   3.893 -0.7555 -0.1748 -0.0600
  104DPPC   C26 5176   1.353   4.192   3.792  0.1272  0.0396 -0.0657
  104DPPC   C27 5177   1.250   4.128   3.698  0.3249  0.2952 -0.4582
  104DPPC   C28 5178   1.294   4.004   3.622  0.0984  0.2198 -0.4676
  104DPPC   C29 5179   1.384   4.045   3.505  0.6412  0.1214 -0.0872
  104DPPC   C30 5180   1.397   3.932   3.403  0.6393  0.0112  0.0346
  104DPPC   C31 5181   1.469   3.978   3.277 -0.1441  0.5938 -0.2088
  104DPPC   C32 5182   0.802   4.627   4.863 -0.1545  0.5570  0.0682
  104DPPC   O33 5183   0.696   4.616   4.768  0.0568 -0.3864 -0.0693
  104DPPC   C34 5184   0.641   4.737   4.742  0.0849 -0.3675 -0.0397
  104DPPC   O35 5185   0.649   4.832   4.819 -0.8127 -0.4224  0.1248
  104DPPC   C36 5186   0.547   4.753   4.622  0.1769  0.4186 -0.0126
  104DPPC   C37 5187   0.459   4.628   4.613  0.0616  0.5288 -0.4165
  104DPPC   C38 5188   0.371   4.619   4.488  0.1723 -0.1794 -0.4502
  104DPPC   C39 5189   0.271   4.503   4.486  0.1237 -0.1449 -0.1185
  104DPPC   C40 5190   0.203   4.490   4.350 -0.4546 -0.5562  0.2057
  104DPPC   C41 5191   0.094   4.384   4.368 -0.4645 -0.6195 -0.2060
  104DPPC   C42 5192   0.002   4.440   4.477 -0.1956 -0.0672 -0.2575
  104DPPC   C43 5193  -0.110   4.341   4.512 -0.2455  0.1240  0.1289
  104DPPC   C44 5194  -0.184   4.282   4.393  0.0802  0.3600 -0.1946
  104DPPC   C45 5195  -0.290   4.183   4.443  0.5085  0.1890  0.3783
  104DPPC   C46 5196  -0.374   4.134   4.325  0.5830 -0.1748  0.4747
  104DPPC   C47 5197  -0.488   4.039   4.361 -0.3210  0.7849  0.1887
  104DPPC   C48 5198  -0.571   4.015   4.234  0.2523 -0.0494 -0.0349
  104DPPC   C49 5199  -0.609   4.145   4.164  0.8136 -0.1692 -0.5671
  104DPPC   C50 5200  -0.691   4.101   4.042  0.2126  0.0189 -0.2317
  105DPPC    C1 5201   6.174   2.278   5.410  0.3537 -0.4478 -0.5296
  105DPPC    C2 5202   6.198   2.155   5.225 -0.8769 -0.4458 -0.1680
  105DPPC    C3 5203   6.198   2.048   5.439  0.4835 -0.3929 -0.3517
  105DPPC    N4 5204   6.251   2.162   5.362  0.2785 -0.4671 -0.6035
  105DPPC    C5 5205   6.397   2.173   5.367  0.2111  0.1742  0.0511
  105DPPC    C6 5206   6.466   2.286   5.290  0.1290 -0.1921 -0.5657
  105DPPC    O7 5207   6.485   2.252   5.152 -0.4080  0.1887 -0.7357
  105DPPC    P8 5208   6.592   2.353   5.087  0.0018  0.2502  0.0210
  105DPPC    O9 5209   6.511   2.477   5.093  0.3048  0.4537 -0.0599
  105DPPC   O10 5210   6.724   2.334   5.152 -0.1581 -0.3946  0.1603
  105DPPC   O11 5211   6.596   2.277   4.945  0.4761  0.2041  0.0569
  105DPPC   C12 5212   6.465   2.265   4.888  0.4532  0.0988  0.1326
  105DPPC   C13 5213   6.464   2.188   4.756 -0.2750  0.2372  0.0533
  105DPPC   O14 5214   6.338   2.192   4.688 -0.1413 -0.0046 -0.2147
  105DPPC   C15 5215   6.227   2.120   4.719 -0.2002 -0.2390 -0.9488
  105DPPC   O16 5216   6.214   2.063   4.828 -0.7764  0.4835 -0.6332
  105DPPC   C17 5217   6.101   2.184   4.661 -0.3074  0.3003 -0.1380
  105DPPC   C18 5218   6.103   2.156   4.511 -0.4037 -0.3980 -0.0106
  105DPPC   C19 5219   5.969   2.196   4.448 -0.2266 -0.1278 -0.2146
  105DPPC   C20 5220   5.953   2.181   4.296 -0.6967 -0.2346 -0.1564
  105DPPC   C21 5221   5.819   2.245   4.260 -0.4836  0.1344 -0.3003
  105DPPC   C22 5222   5.805   2.215   4.111  0.3039  0.0358 -0.3614
  105DPPC   C23 5223   5.783   2.063   4.111 -0.3523  0.1255  0.0998
  105DPPC   C24 5224   5.786   2.021   3.964 -0.1265 -0.2355  0.2051
  105DPPC   C25 5225   5.921   2.054   3.900 -0.3327 -0.4072 -0.3227
  105DPPC   C26 5226   5.917   2.018   3.751 -0.2766  0.1294 -0.4563
  105DPPC   C27 5227   6.055   2.039   3.687 -0.0462  0.4538  0.1382
  105DPPC   C28 5228   6.049   1.986   3.543  0.4787  0.1809  0.2162
  105DPPC   C29 5229   6.182   1.993   3.467  0.2063  0.1503 -0.2591
  105DPPC   C30 5230   6.296   1.914   3.530  0.1475  0.2927  0.0300
  105DPPC   C31 5231   6.412   1.903   3.430  0.0555 -0.7094  0.0220
  105DPPC   C32 5232   6.520   2.050   4.794 -0.6468 -0.0699 -0.5057
  105DPPC   O33 5233   6.553   1.956   4.691  0.0316 -0.0215 -0.3297
  105DPPC   C34 5234   6.581   1.832   4.740 -0.1037 -0.0884 -0.4244
  105DPPC   O35 5235   6.546   1.789   4.849 -0.2021  0.3043 -0.3014
  105DPPC   C36 5236   6.656   1.735   4.648 -0.2724 -0.2945 -0.3447
  105DPPC   C37 5237   6.576   1.717   4.519 -0.2887 -0.0381 -0.3709
  105DPPC   C38 5238   6.657   1.624   4.428  0.1193 -0.3076  0.2656
  105DPPC   C39 5239   6.574   1.596   4.303  0.4645  0.9086 -0.2464
  105DPPC   C40 5240   6.657   1.518   4.200  0.1630  0.0358  0.1605
  105DPPC   C41 5241   6.606   1.513   4.056  0.4488 -0.0165  0.0594
  105DPPC   C42 5242   6.606   1.650   3.987 -0.1978 -0.0046  0.0776
  105DPPC   C43 5243   6.747   1.705   3.967 -0.1719 -0.2557 -0.4514
  105DPPC   C44 5244   6.769   1.715   3.816 -0.5386  0.2713 -0.4733
  105DPPC   C45 5245   6.895   1.799   3.791 -0.0140 -0.5414 -0.6022
  105DPPC   C46 5246   6.864   1.936   3.852  0.2372 -0.6651 -0.1891
  105DPPC   C47 5247   6.974   2.039   3.825 -0.3605  0.0678  0.1513
  105DPPC   C48 5248   6.965   2.186   3.869  0.8104  0.0667  0.4310
  105DPPC   C49 5249   7.082   2.266   3.813  0.5316 -0.0200 -0.2900
  105DPPC   C50 5250   7.067   2.273   3.660  0.1458 -0.2526 -0.2642
  106DPPC    C1 5251   5.577   2.325   5.741 -0.0624  0.5016 -0.1235
  106DPPC    C2 5252   5.356   2.247   5.712  0.3898  0.1846  0.0585
  106DPPC    C3 5253   5.532   2.183   5.563  0.6559  0.2763  0.1301
  106DPPC    N4 5254   5.475   2.295   5.640  0.1437  0.2986 -0.2732
  106DPPC    C5 5255   5.455   2.413   5.555 -0.2455  0.3070 -0.1719
  106DPPC    C6 5256   5.367   2.389   5.432 -0.1290  0.1477 -0.2245
  106DPPC    O7 5257   5.381   2.479   5.322 -0.0033  0.1866 -0.1767
  106DPPC    P8 5258   5.273   2.442   5.209 -0.2420 -0.1392  0.1566
  106DPPC    O9 5259   5.157   2.385   5.282  0.0244 -0.4816  0.3154
  106DPPC   O10 5260   5.291   2.582   5.164  0.1188 -0.1010  0.4194
  106DPPC   O11 5261   5.377   2.333   5.153 -0.4370 -0.1039 -0.2797
  106DPPC   C12 5262   5.466   2.409   5.071 -0.1499 -0.1878 -0.0457
  106DPPC   C13 5263   5.613   2.375   5.096 -0.0403  0.1223 -0.2568
  106DPPC   O14 5264   5.706   2.473   5.048  0.1141  0.1055  0.0031
  106DPPC   C15 5265   5.838   2.450   5.070  0.0813 -0.2246 -0.1312
  106DPPC   O16 5266   5.868   2.398   5.177  0.7285  0.0437 -0.1763
  106DPPC   C17 5267   5.931   2.547   4.995 -0.5219  0.2401 -0.2853
  106DPPC   C18 5268   6.028   2.469   4.906 -0.3917  0.2701 -0.1695
  106DPPC   C19 5269   6.102   2.562   4.810  0.0312 -0.0013 -0.1120
  106DPPC   C20 5270   5.992   2.608   4.714 -0.4050 -0.1608  0.3037
  106DPPC   C21 5271   6.052   2.672   4.588  0.1490 -0.5646  0.3596
  106DPPC   C22 5272   5.949   2.709   4.482  0.4351 -0.1941  0.2077
  106DPPC   C23 5273   6.005   2.709   4.340  0.1925 -0.0914  0.1122
  106DPPC   C24 5274   6.052   2.570   4.298 -0.5711 -0.0816 -0.8215
  106DPPC   C25 5275   6.129   2.559   4.166 -0.1839 -0.1460 -0.5908
  106DPPC   C26 5276   6.191   2.419   4.158  0.4629  0.0859  0.1915
  106DPPC   C27 5277   6.251   2.400   4.019 -0.4065 -0.1884 -0.1576
  106DPPC   C28 5278   6.298   2.257   3.989 -0.1199 -0.1120 -0.0838
  106DPPC   C29 5279   6.327   2.249   3.839 -0.1126 -0.0376 -0.0865
  106DPPC   C30 5280   6.453   2.164   3.820 -0.0303  0.0423  0.0931
  106DPPC   C31 5281   6.437   2.014   3.846  0.1431 -0.0205 -0.1563
  106DPPC   C32 5282   5.620   2.223   5.079 -0.0280  0.1439 -0.4429
  106DPPC   O33 5283   5.593   2.171   4.948 -0.1892 -0.6095 -0.1177
  106DPPC   C34 5284   5.695   2.173   4.859  0.0759 -0.2979  0.1878
  106DPPC   O35 5285   5.812   2.173   4.897  0.2069 -0.9893 -0.1949
  106DPPC   C36 5286   5.662   2.122   4.718  0.0598 -0.1381  0.1340
  106DPPC   C37 5287   5.548   2.196   4.648  0.3143  0.4226  0.3033
  106DPPC   C38 5288   5.576   2.343   4.615  0.3681  0.2867 -0.2796
  106DPPC   C39 5289   5.495   2.396   4.497 -0.4813  0.5610  0.4123
  106DPPC   C40 5290   5.549   2.528   4.442 -0.0957  0.2574  0.0479
  106DPPC   C41 5291   5.476   2.580   4.318 -0.0337 -0.6825 -0.3944
  106DPPC   C42 5292   5.578   2.621   4.212 -0.0052  0.2644 -0.0164
  106DPPC   C43 5293   5.504   2.674   4.089  0.3852  0.8270 -0.0099
  106DPPC   C44 5294   5.606   2.739   3.996  0.5140  0.6342 -0.0022
  106DPPC   C45 5295   5.543   2.754   3.857 -0.5425 -0.0067  0.3953
  106DPPC   C46 5296   5.628   2.835   3.758  0.0872 -0.2677  0.7146
  106DPPC   C47 5297   5.569   2.829   3.617 -0.3735 -0.3219  0.9078
  106DPPC   C48 5298   5.444   2.916   3.595  0.3270  0.4308 -0.2009
  106DPPC   C49 5299   5.408   2.934   3.447 -0.2379 -0.8322 -0.2324
  106DPPC   C50 5300   5.264   2.984   3.451  0.1060  0.2143 -0.5530
  107DPPC    C1 5301   5.703   3.447   4.960  0.1638  0.4507  0.5716
  107DPPC    C2 5302   5.660   3.284   5.139  0.2881 -0.1300  0.4999
  107DPPC    C3 5303   5.830   3.462   5.145  0.1869  0.2114  0.0036
  107DPPC    N4 5304   5.760   3.361   5.064  0.0162  0.0640  0.3328
  107DPPC    C5 5305   5.878   3.284   5.021 -0.2625 -0.1228 -0.1057
  107DPPC    C6 5306   5.850   3.187   4.906  0.0494 -0.0156 -0.2731
  107DPPC    O7 5307   5.972   3.125   4.864  0.1180 -0.3195  0.3626
  107DPPC    P8 5308   5.959   2.975   4.806 -0.2468 -0.0982 -0.1401
  107DPPC    O9 5309   6.096   2.922   4.826 -0.0599  0.1543 -0.7293
  107DPPC   O10 5310   5.834   2.924   4.866 -0.4221  0.7687  0.2534
  107DPPC   O11 5311   5.947   3.025   4.654  0.5225 -0.0819 -0.2007
  107DPPC   C12 5312   6.080   3.054   4.611  0.5185  0.2460 -0.0005
  107DPPC   C13 5313   6.090   3.179   4.523 -0.2937 -0.2108 -0.7507
  107DPPC   O14 5314   6.222   3.214   4.480  0.0523 -0.0771  0.4037
  107DPPC   C15 5315   6.322   3.241   4.569  0.2674  0.0110  0.1340
  107DPPC   O16 5316   6.303   3.292   4.679  0.4688 -0.5898  0.4514
  107DPPC   C17 5317   6.453   3.254   4.491  0.4088 -0.7180  0.2388
  107DPPC   C18 5318   6.548   3.367   4.531  0.0142 -0.0840 -0.5874
  107DPPC   C19 5319   6.693   3.343   4.488  0.0342 -0.1995 -0.4553
  107DPPC   C20 5320   6.800   3.447   4.519 -0.2787  0.0306 -0.1403
  107DPPC   C21 5321   6.930   3.437   4.440 -0.0927  0.2841  0.1273
  107DPPC   C22 5322   6.940   3.548   4.335 -0.2870 -0.0744 -0.2729
  107DPPC   C23 5323   7.056   3.524   4.239 -0.3087  0.1401 -0.3531
  107DPPC   C24 5324   7.044   3.392   4.161  0.1411 -0.2660  0.2618
  107DPPC   C25 5325   7.172   3.365   4.082  0.2146  0.3022  0.1802
  107DPPC   C26 5326   7.206   3.461   3.968  0.2016 -0.0282 -0.1030
  107DPPC   C27 5327   7.335   3.413   3.901  0.0683 -0.3835 -0.1109
  107DPPC   C28 5328   7.315   3.272   3.847  0.1539 -0.6221  0.4758
  107DPPC   C29 5329   7.436   3.214   3.772 -0.1436 -0.4090 -0.1787
  107DPPC   C30 5330   7.427   3.086   3.690  0.5183 -0.5849  0.0193
  107DPPC   C31 5331   7.546   3.050   3.600  0.4128 -0.2394 -0.2603
  107DPPC   C32 5332   6.016   3.287   4.602 -0.4534 -0.5901 -0.3755
  107DPPC   O33 5333   5.956   3.386   4.518  0.6086  0.6035  0.2367
  107DPPC   C34 5334   5.837   3.442   4.552  0.2456  0.1875 -0.3324
  107DPPC   O35 5335   5.784   3.412   4.658  0.3003  0.0866 -0.3338
  107DPPC   C36 5336   5.769   3.542   4.458 -0.0630 -0.0375 -0.3499
  107DPPC   C37 5337   5.637   3.494   4.397 -0.4460 -0.3070  0.6651
  107DPPC   C38 5338   5.578   3.594   4.298  0.6076 -0.0792  0.2443
  107DPPC   C39 5339   5.484   3.523   4.200 -0.1210  0.5474  0.4815
  107DPPC   C40 5340   5.429   3.611   4.087  0.0226 -0.4077 -0.3508
  107DPPC   C41 5341   5.547   3.678   4.017  0.3433 -0.1193  0.4494
  107DPPC   C42 5342   5.500   3.751   3.891  0.2670  0.6048  0.8913
  107DPPC   C43 5343   5.626   3.788   3.813 -0.0916  0.0377  0.0274
  107DPPC   C44 5344   5.598   3.859   3.681  0.3138  0.0080 -0.0765
  107DPPC   C45 5345   5.723   3.884   3.596  0.2636 -0.4611 -0.2885
  107DPPC   C46 5346   5.822   3.971   3.673 -0.1779 -0.2534  0.0422
  107DPPC   C47 5347   5.964   3.941   3.627 -0.3570 -0.0768 -0.6447
  107DPPC   C48 5348   6.000   3.792   3.638  0.1878  0.1119  0.2091
  107DPPC   C49 5349   6.137   3.748   3.586  0.2152 -0.1314  0.4806
  107DPPC   C50 5350   6.143   3.601   3.627 -0.1266 -0.3144 -0.1066
  108DPPC    C1 5351   0.282   4.381   4.889 -0.2424 -0.2373  0.2472
  108DPPC    C2 5352   0.469   4.407   5.006  0.7504  0.0559  0.3482
  108DPPC    C3 5353   0.288   4.305   5.107  0.4786 -0.0461 -0.2762
  108DPPC    N4 5354   0.324   4.421   5.025  0.6861  0.0127 -0.1037
  108DPPC    C5 5355   0.278   4.548   5.083  0.0069 -0.2598 -0.0366
  108DPPC    C6 5356   0.143   4.599   5.031 -0.0950 -0.2708  0.2128
  108DPPC    O7 5357   0.042   4.502   5.061 -0.1625 -0.1518  0.3686
  108DPPC    P8 5358  -0.091   4.566   4.995  0.0091  0.1541  0.3184
  108DPPC    O9 5359  -0.138   4.655   5.103  0.1259  0.2044  0.3284
  108DPPC   O10 5360  -0.062   4.614   4.858  0.1882 -0.0524  0.2831
  108DPPC   O11 5361  -0.175   4.430   4.983  0.3191 -0.0020 -0.1446
  108DPPC   C12 5362  -0.159   4.360   4.859  0.9160  0.0943 -0.1228
  108DPPC   C13 5363  -0.194   4.213   4.883  0.6657  0.1605 -0.0834
  108DPPC   O14 5364  -0.137   4.104   4.810 -0.4578 -0.1483 -0.5242
  108DPPC   C15 5365  -0.003   4.080   4.821 -0.4552  0.2313  0.3336
  108DPPC   O16 5366   0.070   4.119   4.912 -0.2904 -0.4274  0.4921
  108DPPC   C17 5367   0.057   3.991   4.712 -0.4637  0.3651  0.2213
  108DPPC   C18 5368   0.184   4.056   4.656 -0.6709  0.1318 -0.5399
  108DPPC   C19 5369   0.208   4.021   4.509  0.2832  0.0403 -0.3706
  108DPPC   C20 5370   0.349   4.073   4.482  0.5714 -0.4092  0.2196
  108DPPC   C21 5371   0.381   4.039   4.336 -0.4329  0.2842 -0.1717
  108DPPC   C22 5372   0.530   4.009   4.330 -0.5800 -0.5209  0.0346
  108DPPC   C23 5373   0.549   3.947   4.192  0.4566  0.2359 -0.1781
  108DPPC   C24 5374   0.472   4.032   4.091  0.5171  0.3378 -0.1377
  108DPPC   C25 5375   0.504   3.991   3.948 -0.0287  0.0303 -0.1728
  108DPPC   C26 5376   0.396   4.056   3.861  0.1454  0.2959 -0.1917
  108DPPC   C27 5377   0.257   4.015   3.911  0.1265  0.2278 -0.2994
  108DPPC   C28 5378   0.154   4.089   3.826  0.0465 -0.1120 -0.5006
  108DPPC   C29 5379   0.009   4.057   3.862 -0.0846  0.5418 -0.4208
  108DPPC   C30 5380  -0.011   4.073   4.012 -0.2751 -0.2229 -0.3593
  108DPPC   C31 5381  -0.158   4.056   4.053 -0.3683 -0.0275 -0.6100
  108DPPC   C32 5382  -0.346   4.200   4.891  0.6912 -0.4743 -0.5542
  108DPPC   O33 5383  -0.425   4.234   4.777 -0.0469  0.0349  0.0995
  108DPPC   C34 5384  -0.557   4.203   4.788  0.0420 -0.4376 -0.1810
  108DPPC   O35 5385  -0.595   4.103   4.849 -0.5499  0.1262  0.3873
  108DPPC   C36 5386  -0.646   4.266   4.681 -0.2346  0.1293  0.3782
  108DPPC   C37 5387  -0.719   4.156   4.604  0.0666  0.0272  0.2372
  108DPPC   C38 5388  -0.833   4.215   4.520 -0.4514 -0.5505  0.5307
  108DPPC   C39 5389  -0.919   4.112   4.447 -0.3692 -0.1276 -0.1730
  108DPPC   C40 5390  -1.014   4.181   4.350 -0.1475  0.2516 -0.1216
  108DPPC   C41 5391  -1.075   4.066   4.270  0.2771  0.3878 -0.6522
  108DPPC   C42 5392  -1.186   4.120   4.180  0.0033  0.1163 -0.4812
  108DPPC   C43 5393  -1.239   4.014   4.084 -0.1306  0.1044 -0.3955
  108DPPC   C44 5394  -1.356   4.074   4.005 -0.6372 -0.4481 -0.0731
  108DPPC   C45 5395  -1.312   4.189   3.914 -0.1244 -0.5888 -0.0097
  108DPPC   C46 5396  -1.426   4.241   3.827  0.3135 -0.0888 -0.2829
  108DPPC   C47 5397  -1.377   4.370   3.760  0.0748 -0.0225 -0.3338
  108DPPC   C48 5398  -1.488   4.446   3.688  0.1673  0.0547 -0.3956
  108DPPC   C49 5399  -1.453   4.592   3.658  0.4394  0.1559  0.4039
  108DPPC   C50 5400  -1.574   4.657   3.592  0.1798 -0.6368  0.0831
  109DPPC    C1 5401   5.545   1.316   5.274 -0.6493 -0.1271  0.6359
  109DPPC    C2 5402   5.504   1.400   5.062 -0.7854  0.5484  0.1232
  109DPPC    C3 5403   5.366   1.465   5.239 -0.0419  0.3286  0.7509
  109DPPC    N4 5404   5.506   1.439   5.204 -0.2419 -0.1802  0.3203
  109DPPC    C5 5405   5.592   1.552   5.244  0.0209 -0.2177 -0.1199
  109DPPC    C6 5406   5.736   1.578   5.202 -0.0031 -0.2459 -0.2193
  109DPPC    O7 5407   5.826   1.479   5.255 -0.0335 -0.2259 -0.1305
  109DPPC    P8 5408   5.978   1.512   5.214 -0.1063  0.2848 -0.0013
  109DPPC    O9 5409   5.977   1.657   5.246 -0.1258  0.2982 -0.0633
  109DPPC   O10 5410   6.047   1.402   5.285 -0.3746  0.2515  0.2105
  109DPPC   O11 5411   5.959   1.460   5.063 -0.4640  0.0886  0.1112
  109DPPC   C12 5412   5.915   1.324   5.054 -0.4324  0.0907 -0.0733
  109DPPC   C13 5413   5.950   1.241   4.930 -0.0833  0.4655 -0.2260
  109DPPC   O14 5414   6.076   1.174   4.946 -0.6292 -0.4857  0.1404
  109DPPC   C15 5415   6.115   1.070   5.025  0.5334  0.0544  0.2941
  109DPPC   O16 5416   6.033   1.030   5.107  0.4659 -0.1163  0.1421
  109DPPC   C17 5417   6.242   0.993   4.990  0.7619  0.3944  0.3743
  109DPPC   C18 5418   6.251   0.976   4.838 -0.0861 -0.3387  0.3991
  109DPPC   C19 5419   6.157   0.875   4.773  0.3532 -0.5645  0.1097
  109DPPC   C20 5420   6.147   0.901   4.622 -0.1385  0.4357  0.3062
  109DPPC   C21 5421   6.062   1.026   4.596 -0.3211  0.3154  0.3236
  109DPPC   C22 5422   6.032   1.023   4.446  0.5054 -0.0645  0.1610
  109DPPC   C23 5423   5.926   1.120   4.393  0.3564 -0.3028  0.0226
  109DPPC   C24 5424   5.910   1.104   4.241  0.1385 -0.0367  0.0184
  109DPPC   C25 5425   5.811   1.217   4.209  0.4139  0.2082  0.0261
  109DPPC   C26 5426   5.767   1.202   4.063  0.1635  0.2354  0.0997
  109DPPC   C27 5427   5.875   1.167   3.961 -0.0386 -0.1183  0.0056
  109DPPC   C28 5428   5.824   1.121   3.824  0.5946  0.9826 -0.6137
  109DPPC   C29 5429   5.939   1.066   3.738  0.2375  0.0925 -0.5379
  109DPPC   C30 5430   5.909   1.017   3.596  0.0385  0.4890 -0.6338
  109DPPC   C31 5431   6.037   0.955   3.540  0.2037  0.6413 -0.4287
  109DPPC   C32 5432   5.944   1.337   4.811  0.2047 -0.1037 -0.7070
  109DPPC   O33 5433   5.813   1.386   4.780  0.1775  0.3717  0.1260
  109DPPC   C34 5434   5.727   1.300   4.719  0.4392  0.5241 -0.4694
  109DPPC   O35 5435   5.757   1.183   4.692 -0.1361  0.3234 -0.2528
  109DPPC   C36 5436   5.612   1.372   4.649 -0.5597 -0.0936  0.5151
  109DPPC   C37 5437   5.574   1.313   4.513 -0.0217  0.3066  0.1871
  109DPPC   C38 5438   5.446   1.385   4.470 -0.1377 -0.0323 -0.0378
  109DPPC   C39 5439   5.374   1.322   4.351  0.1715 -0.2541 -0.1088
  109DPPC   C40 5440   5.452   1.355   4.224 -0.3785  0.0397 -0.3770
  109DPPC   C41 5441   5.399   1.311   4.088 -0.3259  0.0352 -0.3960
  109DPPC   C42 5442   5.396   1.161   4.056 -0.0674 -0.0039 -0.2419
  109DPPC   C43 5443   5.388   1.147   3.903  0.3832  0.4009 -0.3059
  109DPPC   C44 5444   5.248   1.154   3.842  0.0506 -0.4847  0.3253
  109DPPC   C45 5445   5.224   1.290   3.777  0.2480 -0.7153 -0.2333
  109DPPC   C46 5446   5.094   1.300   3.696  0.2191  0.0332 -0.1021
  109DPPC   C47 5447   5.074   1.445   3.652 -1.1421 -0.3971 -0.9529
  109DPPC   C48 5448   5.150   1.472   3.522 -0.3569 -0.0769 -0.4302
  109DPPC   C49 5449   5.116   1.605   3.455 -0.2287  0.1270 -0.0913
  109DPPC   C50 5450   5.155   1.722   3.546  0.0096  0.3032 -0.4155
  110DPPC    C1 5451   4.955   2.185   5.213 -0.7574  0.0197 -0.6473
  110DPPC    C2 5452   4.918   1.970   5.109  0.5717 -0.8628 -0.1010
  110DPPC    C3 5453   4.743   2.099   5.168 -0.2369  0.5847  0.0719
  110DPPC    N4 5454   4.877   2.061   5.217 -0.1755 -0.3578 -0.7979
  110DPPC    C5 5455   4.873   1.998   5.350  0.2334  0.4266 -0.4080
  110DPPC    C6 5456   5.007   1.977   5.420  0.1980  0.4125 -0.3448
  110DPPC    O7 5457   5.099   1.874   5.384  0.0908  0.1507  0.1321
  110DPPC    P8 5458   5.250   1.931   5.378  0.1161  0.0712  0.0177
  110DPPC    O9 5459   5.248   2.040   5.477  0.7348  0.2753 -0.1932
  110DPPC   O10 5460   5.342   1.815   5.385 -0.2330 -0.2278 -0.2932
  110DPPC   O11 5461   5.225   1.991   5.230 -0.3326 -0.6091 -0.1912
  110DPPC   C12 5462   5.341   1.977   5.147 -0.0015  0.1233  0.1309
  110DPPC   C13 5463   5.312   1.962   4.998  0.2017  0.2797  0.0752
  110DPPC   O14 5464   5.417   1.905   4.919  0.6156  0.1686  0.7008
  110DPPC   C15 5465   5.449   1.773   4.925 -0.4467 -0.1687 -0.6954
  110DPPC   O16 5466   5.373   1.698   4.987 -0.2607  0.3926  0.2248
  110DPPC   C17 5467   5.559   1.711   4.839 -0.3962 -0.4164 -0.4533
  110DPPC   C18 5468   5.694   1.783   4.839 -0.0401 -1.0682  0.1968
  110DPPC   C19 5469   5.782   1.727   4.726 -0.4835 -0.0894 -0.6498
  110DPPC   C20 5470   5.719   1.758   4.590 -0.4159 -0.2063 -0.7084
  110DPPC   C21 5471   5.783   1.677   4.477  0.5252 -0.3761 -0.0610
  110DPPC   C22 5472   5.696   1.689   4.352 -0.1955  0.6787  0.5325
  110DPPC   C23 5473   5.772   1.625   4.237 -0.0890  0.4405  0.7347
  110DPPC   C24 5474   5.686   1.638   4.111  0.2874  0.0904  0.4335
  110DPPC   C25 5475   5.744   1.567   3.989 -0.5330 -0.0966  0.1423
  110DPPC   C26 5476   5.643   1.563   3.874 -0.3836 -0.6774  0.0271
  110DPPC   C27 5477   5.691   1.494   3.746  0.4294 -0.0106 -0.0364
  110DPPC   C28 5478   5.709   1.595   3.633 -0.2211  0.1138 -0.0322
  110DPPC   C29 5479   5.758   1.526   3.506  0.0559  0.4546 -0.1139
  110DPPC   C30 5480   5.903   1.483   3.529  0.0408  0.2935 -0.3112
  110DPPC   C31 5481   5.932   1.396   3.406  0.4094  0.0774 -0.0734
  110DPPC   C32 5482   5.271   2.099   4.945 -0.0772 -0.1401 -0.8250
  110DPPC   O33 5483   5.137   2.110   4.895 -0.5905 -0.5806  0.4215
  110DPPC   C34 5484   5.111   2.238   4.858 -0.0470 -0.6968 -0.3843
  110DPPC   O35 5485   5.204   2.319   4.861 -0.0174 -0.7505  0.4922
  110DPPC   C36 5486   4.973   2.260   4.794  0.1227  0.2399 -0.4515
  110DPPC   C37 5487   4.995   2.277   4.644  0.0187  0.7090 -0.4146
  110DPPC   C38 5488   4.868   2.303   4.563 -0.3595  0.0905 -0.0274
  110DPPC   C39 5489   4.889   2.320   4.412 -0.2777  0.1851 -0.0043
  110DPPC   C40 5490   4.918   2.183   4.349 -0.0984  0.2023  0.0380
  110DPPC   C41 5491   4.936   2.206   4.199  0.3160 -0.0599  0.0473
  110DPPC   C42 5492   4.918   2.070   4.133 -0.4082  0.1906 -0.2839
  110DPPC   C43 5493   4.947   2.089   3.984  0.1441  0.1422 -0.1843
  110DPPC   C44 5494   4.921   1.961   3.905 -0.4188 -0.0348  0.2753
  110DPPC   C45 5495   4.968   1.985   3.761 -0.0381 -0.3957  0.3358
  110DPPC   C46 5496   4.873   2.090   3.704  0.0249 -0.8834 -0.6893
  110DPPC   C47 5497   4.930   2.124   3.566  0.1512  0.0676 -0.4159
  110DPPC   C48 5498   5.053   2.214   3.569 -0.3539  0.7410  0.5283
  110DPPC   C49 5499   5.086   2.274   3.432  0.4620 -0.3553  0.2345
  110DPPC   C50 5500   5.235   2.309   3.422  0.2871  0.2187 -0.4666
  111DPPC    C1 5501   4.696   3.370   5.423 -0.4445  0.1014 -0.2405
  111DPPC    C2 5502   4.757   3.478   5.625  0.1684  0.3976 -0.2996
  111DPPC    C3 5503   4.880   3.289   5.559 -0.0780  0.8508  0.4495
  111DPPC    N4 5504   4.810   3.408   5.508 -0.3369  0.3040 -0.4742
  111DPPC    C5 5505   4.893   3.498   5.426  0.1791  0.0954 -0.1868
  111DPPC    C6 5506   5.040   3.529   5.455  0.1942  0.1001 -0.2686
  111DPPC    O7 5507   5.121   3.418   5.418  0.0672 -0.0345 -0.1435
  111DPPC    P8 5508   5.277   3.450   5.440  0.1169 -0.2030 -0.2515
  111DPPC    O9 5509   5.282   3.510   5.575 -0.2248  0.0501 -0.3520
  111DPPC   O10 5510   5.347   3.324   5.405  0.2019 -0.3022  0.2664
  111DPPC   O11 5511   5.294   3.554   5.317 -0.4226  0.0971 -0.0721
  111DPPC   C12 5512   5.332   3.479   5.202 -0.2928 -0.0487  0.0641
  111DPPC   C13 5513   5.310   3.536   5.061  0.0910  0.1573  0.0886
  111DPPC   O14 5514   5.377   3.471   4.952  0.2239  0.1143  0.1948
  111DPPC   C15 5515   5.303   3.371   4.898  0.4019 -0.0910  0.3302
  111DPPC   O16 5516   5.212   3.318   4.964  0.0803  0.1919  0.1161
  111DPPC   C17 5517   5.348   3.309   4.766 -0.2036  0.5001 -0.1619
  111DPPC   C18 5518   5.464   3.210   4.784 -0.3898  0.2549 -0.3022
  111DPPC   C19 5519   5.473   3.118   4.662  0.0362 -0.7240  0.4603
  111DPPC   C20 5520   5.593   3.023   4.668  0.5623 -0.0397  1.1014
  111DPPC   C21 5521   5.620   2.951   4.535 -1.1855  0.0111  0.6971
  111DPPC   C22 5522   5.645   3.050   4.422  0.0762 -0.4001  0.6083
  111DPPC   C23 5523   5.729   2.996   4.305  0.0797  0.3206  0.2734
  111DPPC   C24 5524   5.748   3.100   4.194  0.4191  0.1026  0.1258
  111DPPC   C25 5525   5.869   3.069   4.106  0.1890 -0.4735  0.0053
  111DPPC   C26 5526   5.893   3.173   3.996  0.1381 -0.0411  0.3995
  111DPPC   C27 5527   5.932   3.309   4.054  0.8789  0.0174 -0.2151
  111DPPC   C28 5528   5.938   3.409   3.939 -0.6845  0.3146 -0.0569
  111DPPC   C29 5529   6.001   3.541   3.981  0.1053 -0.1962  0.3848
  111DPPC   C30 5530   5.895   3.630   4.048  0.4240  0.5713 -0.1206
  111DPPC   C31 5531   5.974   3.738   4.123  0.9164 -0.2164  0.5123
  111DPPC   C32 5532   5.347   3.684   5.079  0.6392  0.0138  0.1620
  111DPPC   O33 5533   5.246   3.764   5.017  0.1662 -0.2445  0.5947
  111DPPC   C34 5534   5.280   3.896   5.027 -0.3128 -0.0930  0.2212
  111DPPC   O35 5535   5.370   3.931   5.102 -0.2742 -0.0020  0.1320
  111DPPC   C36 5536   5.201   4.000   4.947 -0.2061  0.1359  0.4147
  111DPPC   C37 5537   5.097   3.938   4.853  0.0498  0.1217  0.1411
  111DPPC   C38 5538   5.066   4.034   4.738  0.6515 -0.4762 -0.5352
  111DPPC   C39 5539   4.961   3.952   4.663  0.2259 -0.4421  0.0140
  111DPPC   C40 5540   4.901   4.029   4.545 -0.6456 -0.8026  0.2124
  111DPPC   C41 5541   4.826   3.940   4.446 -0.4335 -0.4917 -0.2347
  111DPPC   C42 5542   4.743   4.027   4.352 -0.1122 -0.1931 -0.2428
  111DPPC   C43 5543   4.671   3.943   4.246 -0.1300 -0.7251  0.1853
  111DPPC   C44 5544   4.591   4.039   4.158 -0.0930 -0.2796  0.6314
  111DPPC   C45 5545   4.532   3.958   4.042 -0.1009  0.0836  0.3783
  111DPPC   C46 5546   4.638   3.893   3.954 -0.2988  0.5575 -0.2124
  111DPPC   C47 5547   4.566   3.833   3.833 -0.0051 -0.0324 -0.0997
  111DPPC   C48 5548   4.678   3.786   3.741  0.1054  0.3717 -0.1726
  111DPPC   C49 5549   4.658   3.854   3.605 -0.4562 -0.5924 -0.5747
  111DPPC   C50 5550   4.747   3.793   3.496  0.0866 -0.3009 -0.2972
  112DPPC    C1 5551   6.255   4.390   5.337  0.1074  0.2711  0.1543
  112DPPC    C2 5552   6.043   4.308   5.279  0.5403  0.0528 -0.4004
  112DPPC    C3 5553   6.149   4.226   5.480 -0.3678 -0.2034 -0.1289
  112DPPC    N4 5554   6.171   4.270   5.341  0.3296  0.1125  0.0748
  112DPPC    C5 5555   6.225   4.167   5.251 -0.5556 -0.7458  0.5021
  112DPPC    C6 5556   6.180   4.021   5.240 -0.7147 -0.7244  0.8848
  112DPPC    O7 5557   6.074   4.007   5.145 -0.0388 -0.0854  0.0195
  112DPPC    P8 5558   6.057   3.846   5.141 -0.2195 -0.0711  0.2036
  112DPPC    O9 5559   6.190   3.792   5.104 -0.5034 -0.2976 -0.4849
  112DPPC   O10 5560   6.000   3.817   5.275 -0.4449 -0.4071  0.0343
  112DPPC   O11 5561   5.943   3.830   5.029  0.0433  0.7368 -0.1927
  112DPPC   C12 5562   5.991   3.845   4.895  0.0560  0.0435 -0.2692
  112DPPC   C13 5563   5.919   3.759   4.791  0.0518 -0.2633 -0.0155
  112DPPC   O14 5564   5.989   3.776   4.667  0.4401 -0.0089  0.2335
  112DPPC   C15 5565   6.096   3.700   4.633 -0.1651 -0.6452 -0.3122
  112DPPC   O16 5566   6.147   3.624   4.715  0.3840 -0.2743 -0.3011
  112DPPC   C17 5567   6.145   3.733   4.492  0.2889  0.1970  0.0292
  112DPPC   C18 5568   6.264   3.649   4.445 -0.0109 -0.0441 -0.2989
  112DPPC   C19 5569   6.294   3.690   4.300 -0.4207  0.0364 -0.3628
  112DPPC   C20 5570   6.411   3.605   4.249  0.2113  0.3479  0.5424
  112DPPC   C21 5571   6.464   3.651   4.114 -0.5928  0.0119  0.1067
  112DPPC   C22 5572   6.558   3.551   4.046 -0.4747 -0.1182  0.4635
  112DPPC   C23 5573   6.596   3.603   3.907 -0.3488 -0.5201  0.3475
  112DPPC   C24 5574   6.719   3.537   3.845 -0.0606 -0.0560  0.4299
  112DPPC   C25 5575   6.751   3.612   3.715  0.1962  0.0642  0.5608
  112DPPC   C26 5576   6.888   3.576   3.658 -0.1340  0.0870 -0.2580
  112DPPC   C27 5577   6.904   3.434   3.604 -0.2047 -0.1444  0.3162
  112DPPC   C28 5578   7.048   3.419   3.555 -0.0494  0.2550  0.6522
  112DPPC   C29 5579   7.050   3.293   3.468  0.7473  0.5126  0.2840
  112DPPC   C30 5580   7.186   3.240   3.424  0.1727 -0.3105 -0.5440
  112DPPC   C31 5581   7.184   3.204   3.275  0.1755  0.0632 -0.6361
  112DPPC   C32 5582   5.778   3.815   4.776  0.2166  0.0976 -0.2195
  112DPPC   O33 5583   5.675   3.718   4.755 -0.0041  0.2541  0.1300
  112DPPC   C34 5584   5.546   3.761   4.754  0.0357  0.3736 -0.3111
  112DPPC   O35 5585   5.515   3.864   4.813  0.4623  0.3677 -0.0700
  112DPPC   C36 5586   5.441   3.664   4.700  0.0604  0.1269  0.0756
  112DPPC   C37 5587   5.353   3.723   4.589  0.3675 -0.4629 -0.4914
  112DPPC   C38 5588   5.234   3.634   4.551  0.1205 -0.3068 -0.0917
  112DPPC   C39 5589   5.161   3.688   4.428 -0.2960 -0.4282  0.1040
  112DPPC   C40 5590   5.034   3.603   4.414 -0.7327  0.2623 -0.1822
  112DPPC   C41 5591   4.951   3.639   4.291 -0.9261  0.4291 -0.0039
  112DPPC   C42 5592   5.012   3.593   4.158 -0.1728 -0.1873  0.5501
  112DPPC   C43 5593   4.928   3.632   4.036  0.3387  0.8845  0.5369
  112DPPC   C44 5594   5.002   3.583   3.912 -0.4009 -0.0592  0.4594
  112DPPC   C45 5595   5.034   3.434   3.916 -0.2071 -0.0392 -0.1521
  112DPPC   C46 5596   5.095   3.387   3.784 -0.3190  0.4168 -0.3675
  112DPPC   C47 5597   4.990   3.416   3.677  0.0107  0.6015 -0.6426
  112DPPC   C48 5598   4.975   3.301   3.576 -0.0979 -0.3345  0.4194
  112DPPC   C49 5599   4.875   3.343   3.468  0.1352 -0.4725  0.1487
  112DPPC   C50 5600   4.870   3.226   3.369  0.1996 -0.1787 -0.2042
  113DPPC    C1 5601   3.004   5.099   5.303  0.1876 -0.4995  0.0087
  113DPPC    C2 5602   2.868   5.233   5.165  0.4008  0.2958 -0.0229
  113DPPC    C3 5603   2.783   5.032   5.260 -0.5096  0.4680 -0.1394
  113DPPC    N4 5604   2.901   5.094   5.198 -0.1540  0.2427  0.3065
  113DPPC    C5 5605   2.980   5.028   5.093 -0.1030  0.4293  0.2273
  113DPPC    C6 5606   2.905   4.976   4.970  0.2212  0.1621  0.1420
  113DPPC    O7 5607   2.806   4.876   4.992  0.0503  0.2716 -0.1225
  113DPPC    P8 5608   2.691   4.895   4.881 -0.0776  0.1826 -0.0064
  113DPPC    O9 5609   2.569   4.832   4.936  0.0250 -0.0171 -0.0038
  113DPPC   O10 5610   2.699   5.036   4.836  0.2696  0.1026 -0.1992
  113DPPC   O11 5611   2.741   4.798   4.763 -0.3115 -0.1979  0.2047
  113DPPC   C12 5612   2.708   4.664   4.798  0.1004 -0.3494  0.0233
  113DPPC   C13 5613   2.734   4.554   4.694 -0.0780 -0.6463  0.2906
  113DPPC   O14 5614   2.873   4.521   4.678  0.1130  0.1804  0.1998
  113DPPC   C15 5615   2.942   4.432   4.754 -0.4303 -0.9639 -0.6316
  113DPPC   O16 5616   2.885   4.364   4.840 -0.2860 -0.0631  0.1824
  113DPPC   C17 5617   3.091   4.403   4.730 -0.0378  0.4139  0.0635
  113DPPC   C18 5618   3.126   4.276   4.653 -0.2456  0.4206 -0.0432
  113DPPC   C19 5619   3.051   4.264   4.520 -0.1923 -0.5916  0.0041
  113DPPC   C20 5620   3.057   4.122   4.466  0.3179 -0.5503 -0.0529
  113DPPC   C21 5621   2.998   4.124   4.325 -0.0191 -0.0526  0.0909
  113DPPC   C22 5622   2.855   4.178   4.332 -0.0195  0.0458 -0.5558
  113DPPC   C23 5623   2.792   4.215   4.198 -0.4718  0.2303 -0.2948
  113DPPC   C24 5624   2.697   4.330   4.233 -0.7406  0.0346 -0.3815
  113DPPC   C25 5625   2.646   4.402   4.108  0.2921  0.2766 -0.6749
  113DPPC   C26 5626   2.597   4.298   4.008 -0.2711  0.0162 -0.1372
  113DPPC   C27 5627   2.445   4.289   4.000 -0.2921 -0.0344  0.3239
  113DPPC   C28 5628   2.390   4.340   3.867  0.2910  0.1929  0.1680
  113DPPC   C29 5629   2.239   4.321   3.849  0.4387 -0.5001 -0.3759
  113DPPC   C30 5630   2.216   4.252   3.714 -0.7300 -0.0001 -0.4402
  113DPPC   C31 5631   2.273   4.110   3.715 -0.3332  0.1560 -0.6026
  113DPPC   C32 5632   2.682   4.612   4.563 -0.1791 -0.0649  0.5845
  113DPPC   O33 5633   2.541   4.627   4.547 -0.1304 -0.4792 -0.2885
  113DPPC   C34 5634   2.499   4.642   4.418 -0.2938  0.4796 -0.1317
  113DPPC   O35 5635   2.580   4.663   4.328 -0.2528 -1.1228 -0.4948
  113DPPC   C36 5636   2.350   4.659   4.391 -0.3426  0.0402 -0.1478
  113DPPC   C37 5637   2.278   4.532   4.345 -0.2073  0.1876 -0.7731
  113DPPC   C38 5638   2.142   4.575   4.290 -0.4879  0.6294  0.2439
  113DPPC   C39 5639   2.064   4.455   4.237 -0.2366  0.4440  0.2890
  113DPPC   C40 5640   1.937   4.503   4.166 -0.0035  0.1509 -0.3340
  113DPPC   C41 5641   1.876   4.384   4.091  0.4347 -0.1764 -0.1751
  113DPPC   C42 5642   1.742   4.426   4.030 -0.0012 -0.4806  0.5566
  113DPPC   C43 5643   1.643   4.458   4.143 -0.4205 -0.0474  0.0739
  113DPPC   C44 5644   1.506   4.498   4.089  0.0212  0.1618 -0.9156
  113DPPC   C45 5645   1.518   4.584   3.963  0.2365  0.1917 -0.8753
  113DPPC   C46 5646   1.373   4.607   3.918 -0.1130 -0.8853 -0.3273
  113DPPC   C47 5647   1.377   4.703   3.799  0.6560 -0.0795  0.3359
  113DPPC   C48 5648   1.453   4.643   3.681 -0.0831  0.1747 -0.2704
  113DPPC   C49 5649   1.420   4.707   3.545  0.0571  0.4546 -0.1722
  113DPPC   C50 5650   1.509   4.642   3.439  0.5689 -0.2630  0.6745
  114DPPC    C1 5651   5.063   6.209   5.441 -0.1635  0.0715 -0.3207
  114DPPC    C2 5652   5.212   6.309   5.288 -0.2715 -0.2969  0.0438
  114DPPC    C3 5653   5.292   6.217   5.485  0.4347 -0.2074 -0.3523
  114DPPC    N4 5654   5.195   6.194   5.377 -0.0153 -0.3124  0.0743
  114DPPC    C5 5655   5.217   6.071   5.298 -0.0675 -0.3802  0.1652
  114DPPC    C6 5656   5.187   5.934   5.358 -0.5271 -0.1750  0.4143
  114DPPC    O7 5657   5.049   5.899   5.363 -0.4762 -0.4834 -0.2317
  114DPPC    P8 5658   5.022   5.772   5.457  0.0760 -0.2062  0.3074
  114DPPC    O9 5659   5.121   5.767   5.567 -0.1236 -0.3901  0.4798
  114DPPC   O10 5660   4.876   5.773   5.484 -0.0634 -0.5424 -0.3941
  114DPPC   O11 5661   5.052   5.674   5.333  0.2593  0.8092 -0.4654
  114DPPC   C12 5662   4.932   5.642   5.263 -0.0921 -0.3941  0.6362
  114DPPC   C13 5663   4.972   5.570   5.134 -0.0972 -0.3264  0.5969
  114DPPC   O14 5664   5.016   5.436   5.159  0.2568 -0.5169 -0.9171
  114DPPC   C15 5665   4.942   5.323   5.179 -0.0307 -0.1028  0.5082
  114DPPC   O16 5666   4.827   5.329   5.221 -0.1610 -0.0288  0.1448
  114DPPC   C17 5667   5.030   5.199   5.193 -0.0802 -0.2254 -0.2376
  114DPPC   C18 5668   4.976   5.073   5.123  0.1050 -0.2525 -0.3327
  114DPPC   C19 5669   4.976   5.078   4.970 -0.6448 -0.0802 -0.3351
  114DPPC   C20 5670   4.933   4.940   4.920 -0.3618 -0.2458 -0.1284
  114DPPC   C21 5671   4.926   4.925   4.768  0.1261  0.2821 -0.2050
  114DPPC   C22 5672   5.070   4.957   4.727  0.1486  0.6808  0.1747
  114DPPC   C23 5673   5.053   4.982   4.577  0.1310 -0.2042  0.0212
  114DPPC   C24 5674   5.184   5.018   4.506  0.1260 -0.0100  0.1090
  114DPPC   C25 5675   5.143   5.041   4.360  0.0702 -0.0107  0.1244
  114DPPC   C26 5676   5.258   5.119   4.296  0.3276 -0.4721  0.0210
  114DPPC   C27 5677   5.255   5.120   4.143  0.5794  0.4505  0.0183
  114DPPC   C28 5678   5.376   5.188   4.076  0.6431  0.2629 -0.0578
  114DPPC   C29 5679   5.366   5.174   3.924 -0.1493  0.2450 -0.0127
  114DPPC   C30 5680   5.495   5.223   3.857 -0.0765 -0.3081 -0.2785
  114DPPC   C31 5681   5.544   5.360   3.901  0.1901 -0.4663 -0.0787
  114DPPC   C32 5682   5.078   5.660   5.070 -0.5314 -0.2671 -0.0630
  114DPPC   O33 5683   5.023   5.776   5.009 -0.0397  0.0478  0.0826
  114DPPC   C34 5684   5.116   5.850   4.942 -0.2815  0.2088 -0.0805
  114DPPC   O35 5685   5.236   5.850   4.970 -0.2421  0.2566 -0.2483
  114DPPC   C36 5686   5.062   5.939   4.830 -0.8429  0.6604  0.5403
  114DPPC   C37 5687   5.115   6.082   4.843  0.3809  0.2422  0.3450
  114DPPC   C38 5688   5.035   6.158   4.737  0.1444 -0.1922  0.2100
  114DPPC   C39 5689   5.079   6.304   4.740 -0.0941 -0.1081 -0.3650
  114DPPC   C40 5690   5.011   6.394   4.635 -0.0605  0.1909 -0.1320
  114DPPC   C41 5691   5.031   6.347   4.491  0.0849  0.1325 -0.0934
  114DPPC   C42 5692   4.953   6.422   4.383  0.4570  0.8242  0.1091
  114DPPC   C43 5693   4.993   6.382   4.241  0.1702 -0.5273  0.3916
  114DPPC   C44 5694   4.913   6.470   4.145  0.4363 -0.4307  0.2581
  114DPPC   C45 5695   4.934   6.460   3.993  0.1909  0.1625  0.1821
  114DPPC   C46 5696   4.836   6.554   3.922  0.1176 -0.0170  0.0467
  114DPPC   C47 5697   4.876   6.554   3.774  0.4129  0.3884  0.1256
  114DPPC   C48 5698   4.777   6.650   3.707 -0.1778 -0.1443  0.2248
  114DPPC   C49 5699   4.845   6.690   3.576 -0.0490 -0.0912  0.3073
  114DPPC   C50 5700   4.749   6.783   3.502 -0.2527 -0.4704  0.0937
  115DPPC    C1 5701   1.720   0.215   5.111 -0.1478 -0.1651  0.0881
  115DPPC    C2 5702   1.785   0.219   5.341  0.1397  0.5475 -0.4337
  115DPPC    C3 5703   1.634   0.050   5.240 -0.6063  0.2670 -0.2258
  115DPPC    N4 5704   1.756   0.132   5.227 -0.3037 -0.1136  0.1735
  115DPPC    C5 5705   1.883   0.063   5.200 -0.2458 -0.1022  0.4199
  115DPPC    C6 5706   1.887  -0.047   5.093  0.0879  0.7583 -0.4615
  115DPPC    O7 5707   2.026  -0.081   5.093 -0.1446 -0.2328  0.5142
  115DPPC    P8 5708   2.042  -0.240   5.112  0.1690 -0.2081  0.4579
  115DPPC    O9 5709   2.184  -0.273   5.141  0.2912 -0.4335 -0.3817
  115DPPC   O10 5710   1.920  -0.287   5.182  0.1582  0.4010  0.8497
  115DPPC   O11 5711   2.025  -0.265   4.954  0.1892 -0.0790  0.4353
  115DPPC   C12 5712   2.126  -0.208   4.871 -0.6275  1.2175  0.3079
  115DPPC   C13 5713   2.096  -0.206   4.721 -0.1980 -0.7565  0.1709
  115DPPC   O14 5714   2.209  -0.210   4.632  0.3313 -0.5222  0.8281
  115DPPC   C15 5715   2.304  -0.112   4.632 -0.1715 -0.0212 -0.3170
  115DPPC   O16 5716   2.314  -0.027   4.719  0.6043 -0.4552  0.0303
  115DPPC   C17 5717   2.415  -0.125   4.527  0.3093 -0.1361  0.2009
  115DPPC   C18 5718   2.413   0.000   4.438 -0.3279 -0.2244  0.0878
  115DPPC   C19 5719   2.504  -0.003   4.315 -0.2447  0.7637  0.1179
  115DPPC   C20 5720   2.491   0.140   4.262 -0.6835  0.4767 -0.5692
  115DPPC   C21 5721   2.622   0.187   4.198 -0.6837 -0.1686 -1.0523
  115DPPC   C22 5722   2.606   0.329   4.141 -0.2139  0.3663  0.1223
  115DPPC   C23 5723   2.733   0.372   4.067  0.1603 -0.1110  0.4760
  115DPPC   C24 5724   2.732   0.290   3.938  0.3363  0.0844  0.3501
  115DPPC   C25 5725   2.857   0.324   3.857 -0.1734  0.4136 -0.3110
  115DPPC   C26 5726   2.875   0.246   3.726 -0.0031 -0.1329  0.0355
  115DPPC   C27 5727   2.893   0.103   3.777  0.2311 -0.1081  0.0228
  115DPPC   C28 5728   2.968   0.032   3.664 -0.1843 -0.2967 -0.1352
  115DPPC   C29 5729   3.034  -0.091   3.727 -0.0291  0.0589  0.3994
  115DPPC   C30 5730   3.136  -0.156   3.634 -0.4431  0.3346 -0.2553
  115DPPC   C31 5731   3.256  -0.062   3.640 -0.0382 -0.1820 -0.2319
  115DPPC   C32 5732   1.995  -0.093   4.701  0.4106 -0.1532  0.4501
  115DPPC   O33 5733   1.971  -0.074   4.561 -0.3990  0.8263  0.7110
  115DPPC   C34 5734   1.888  -0.166   4.504  0.1454  0.3666  0.6573
  115DPPC   O35 5735   1.828  -0.250   4.570 -0.2552 -0.1556 -0.3626
  115DPPC   C36 5736   1.892  -0.161   4.351 -0.6870 -0.4815  0.6031
  115DPPC   C37 5737   1.760  -0.200   4.283 -0.3044 -0.1484 -0.3501
  115DPPC   C38 5738   1.769  -0.152   4.139 -0.4503  0.2409 -0.2293
  115DPPC   C39 5739   1.634  -0.195   4.080 -0.6319  0.4955 -0.0043
  115DPPC   C40 5740   1.646  -0.161   3.931  0.0451 -0.6189 -0.2224
  115DPPC   C41 5741   1.513  -0.187   3.860 -0.0117 -0.1787 -0.2841
  115DPPC   C42 5742   1.525  -0.186   3.707  0.3074 -0.0688 -0.2574
  115DPPC   C43 5743   1.394  -0.148   3.638  0.1163 -0.1497  0.0586
  115DPPC   C44 5744   1.414  -0.138   3.487  0.0318  0.3046  0.0747
  115DPPC   C45 5745   1.525  -0.040   3.450 -0.1552  0.2997 -0.5155
  115DPPC   C46 5746   1.581  -0.070   3.311 -0.1179 -0.2680 -0.3780
  115DPPC   C47 5747   1.691   0.033   3.290  0.0918 -0.3040  0.4994
  115DPPC   C48 5748   1.783   0.002   3.172 -0.9886  0.0549 -0.4549
  115DPPC   C49 5749   1.884   0.117   3.166 -0.0247 -0.7649 -0.1148
  115DPPC   C50 5750   1.982   0.114   3.284  0.2929 -0.4821 -0.3705
  116DPPC    C1 5751   5.420   0.887   5.086  0.2197 -0.5772  0.0720
  116DPPC    C2 5752   5.313   0.776   4.900  0.2348  0.9812  0.1727
  116DPPC    C3 5753   5.432   0.669   5.072  0.1006 -0.4642  0.5649
  116DPPC    N4 5754   5.334   0.775   5.045  0.1166 -0.5429  0.1957
  116DPPC    C5 5755   5.209   0.765   5.123 -0.2544  0.0738 -0.3111
  116DPPC    C6 5756   5.113   0.882   5.103  0.2486  0.5640  0.1229
  116DPPC    O7 5757   4.981   0.882   5.157  0.2201  0.1995  0.0576
  116DPPC    P8 5758   4.893   0.987   5.071 -0.3144 -0.2011  0.1129
  116DPPC    O9 5759   4.761   0.948   5.125 -0.4763 -0.1798 -0.2644
  116DPPC   O10 5760   4.958   1.119   5.086 -1.1387  0.2717 -0.4036
  116DPPC   O11 5761   4.918   0.937   4.920 -0.0855 -0.0717  0.1085
  116DPPC   C12 5762   4.801   0.912   4.842  0.0561 -0.5383  0.0423
  116DPPC   C13 5763   4.813   0.824   4.718 -0.1847 -0.5747  0.0430
  116DPPC   O14 5764   4.806   0.684   4.746 -0.4560 -0.6558 -0.4135
  116DPPC   C15 5765   4.917   0.606   4.764  0.0982  0.1665 -0.2015
  116DPPC   O16 5766   5.023   0.655   4.802  0.1752 -0.1586  0.0121
  116DPPC   C17 5767   4.881   0.459   4.740  0.3697  0.0802 -0.0826
  116DPPC   C18 5768   4.771   0.425   4.639  0.3980 -0.8045  0.1815
  116DPPC   C19 5769   4.820   0.442   4.496  0.2163 -0.0961  0.1984
  116DPPC   C20 5770   4.717   0.390   4.394  0.1655 -0.3525  0.3787
  116DPPC   C21 5771   4.599   0.487   4.401  0.4002 -0.0070 -0.3004
  116DPPC   C22 5772   4.483   0.421   4.325 -0.0609  0.1209  0.2805
  116DPPC   C23 5773   4.378   0.531   4.312 -0.0026  0.1539  0.0824
  116DPPC   C24 5774   4.279   0.510   4.197 -0.0258  0.2724  0.0807
  116DPPC   C25 5775   4.178   0.400   4.229  0.3180 -0.2055 -0.4462
  116DPPC   C26 5776   4.071   0.371   4.124  0.4542  0.5555 -0.7989
  116DPPC   C27 5777   4.123   0.272   4.019  0.0337 -0.1078 -0.3864
  116DPPC   C28 5778   4.027   0.243   3.904  0.0363 -0.0182 -0.4112
  116DPPC   C29 5779   4.091   0.168   3.787  0.0293 -0.1622 -0.3226
  116DPPC   C30 5780   4.199   0.272   3.757  0.2608 -0.1256  0.6007
  116DPPC   C31 5781   4.276   0.230   3.631 -0.5233  0.6134 -0.1324
  116DPPC   C32 5782   4.931   0.890   4.645 -0.2035 -0.1209  0.4224
  116DPPC   O33 5783   4.913   1.023   4.596  0.4349 -0.2338 -0.1320
  116DPPC   C34 5784   5.028   1.095   4.584  0.1066  0.3941  0.3884
  116DPPC   O35 5785   5.131   1.066   4.644  0.1732  0.1333  0.1505
  116DPPC   C36 5786   5.001   1.238   4.537 -0.3464  0.3093  0.3786
  116DPPC   C37 5787   4.917   1.236   4.410  0.2429  0.1551 -0.0120
  116DPPC   C38 5788   4.981   1.181   4.282  0.3198 -0.6584  0.3687
  116DPPC   C39 5789   4.866   1.190   4.181  0.1743 -0.0487  0.5842
  116DPPC   C40 5790   4.892   1.117   4.049 -0.0767  0.3565  0.3076
  116DPPC   C41 5791   4.806   1.182   3.940  0.0120 -0.3157 -0.1683
  116DPPC   C42 5792   4.776   1.093   3.819 -0.3142 -0.3985 -0.0278
  116DPPC   C43 5793   4.667   1.175   3.750  0.0672  0.2016  0.0754
  116DPPC   C44 5794   4.709   1.219   3.609  0.2705  0.3116  0.1690
  116DPPC   C45 5795   4.592   1.301   3.554  0.2125  0.0145 -0.1542
  116DPPC   C46 5796   4.467   1.214   3.539 -0.1551  0.4356  0.4320
  116DPPC   C47 5797   4.347   1.289   3.480 -0.0624  0.2589  0.0092
  116DPPC   C48 5798   4.388   1.348   3.345 -0.0099 -0.0094 -0.0909
  116DPPC   C49 5799   4.276   1.441   3.298  0.1436  0.1385 -0.1647
  116DPPC   C50 5800   4.321   1.516   3.173  1.0639  0.1799  0.1846
  117DPPC    C1 5801   0.679   5.695   4.688 -0.1110  0.0933 -0.1398
  117DPPC    C2 5802   0.562   5.497   4.630  0.8244 -0.8178  0.1653
  117DPPC    C3 5803   0.441   5.692   4.717  0.1723  0.0642  0.2789
  117DPPC    N4 5804   0.563   5.611   4.722  0.0111 -0.2347 -0.5299
  117DPPC    C5 5805   0.569   5.558   4.859  0.1095 -0.4888 -0.6327
  117DPPC    C6 5806   0.704   5.518   4.919 -0.3354  0.0820  0.7733
  117DPPC    O7 5807   0.750   5.403   4.849 -0.2724  0.5824 -0.0210
  117DPPC    P8 5808   0.911   5.404   4.838 -0.2368 -0.1048  0.3903
  117DPPC    O9 5809   0.967   5.533   4.884 -0.2874 -0.2050  0.7342
  117DPPC   O10 5810   0.942   5.267   4.884  0.1962 -0.0339  0.3119
  117DPPC   O11 5811   0.914   5.409   4.677 -0.9459  0.4635  0.3901
  117DPPC   C12 5812   0.913   5.274   4.628  0.3109  0.5094  0.1933
  117DPPC   C13 5813   0.957   5.259   4.483  0.0313  0.1219  0.1496
  117DPPC   O14 5814   0.902   5.141   4.422  0.2329  0.0849  0.0385
  117DPPC   C15 5815   0.781   5.168   4.366 -0.0284 -0.5783  0.2677
  117DPPC   O16 5816   0.699   5.230   4.434  0.0461 -0.1675 -0.0128
  117DPPC   C17 5817   0.745   5.085   4.243 -0.1127  0.1440 -0.2044
  117DPPC   C18 5818   0.723   4.942   4.293  0.5363  0.0492 -0.1760
  117DPPC   C19 5819   0.717   4.854   4.169 -0.2367  0.3003 -0.3199
  117DPPC   C20 5820   0.658   4.719   4.209  0.3465  0.0913 -0.1626
  117DPPC   C21 5821   0.590   4.637   4.100 -0.6429  0.5539  0.0907
  117DPPC   C22 5822   0.517   4.514   4.155  0.2037  0.0046  0.0086
  117DPPC   C23 5823   0.456   4.435   4.039 -0.0519 -0.3048  0.3523
  117DPPC   C24 5824   0.365   4.515   3.945  0.5401  0.1494  0.1585
  117DPPC   C25 5825   0.298   4.414   3.852 -0.0324 -0.0605  0.7877
  117DPPC   C26 5826   0.169   4.476   3.796  0.2305 -0.1055  0.1245
  117DPPC   C27 5827   0.116   4.392   3.680 -0.0893  0.0470  0.1606
  117DPPC   C28 5828   0.008   4.475   3.611  0.0567  0.1354  0.0379
  117DPPC   C29 5829  -0.072   4.403   3.502 -0.2730 -0.0329  0.3866
  117DPPC   C30 5830  -0.133   4.272   3.551 -0.2711 -0.1803 -0.0032
  117DPPC   C31 5831  -0.171   4.198   3.422  0.7746 -0.7174 -0.0159
  117DPPC   C32 5832   1.108   5.282   4.484 -0.0048  0.3627  0.1362
  117DPPC   O33 5833   1.178   5.318   4.365  0.0002 -0.2077 -0.0388
  117DPPC   C34 5834   1.312   5.338   4.385 -0.0837 -0.0166  0.3406
  117DPPC   O35 5835   1.366   5.343   4.495  0.4160 -0.6460  0.1265
  117DPPC   C36 5836   1.402   5.351   4.262  0.0649 -0.2665  0.4236
  117DPPC   C37 5837   1.318   5.324   4.137  0.3118  0.6690  0.0508
  117DPPC   C38 5838   1.398   5.340   4.008 -0.0514 -0.2349 -0.2913
  117DPPC   C39 5839   1.327   5.312   3.876 -0.2357 -0.7542 -0.0857
  117DPPC   C40 5840   1.428   5.334   3.763 -0.6296  0.1903 -0.2656
  117DPPC   C41 5841   1.366   5.323   3.623 -0.3029 -0.0253 -0.3926
  117DPPC   C42 5842   1.481   5.330   3.522 -0.1854 -0.4269 -0.2912
  117DPPC   C43 5843   1.429   5.332   3.379 -0.5487 -0.1427 -0.1556
  117DPPC   C44 5844   1.551   5.347   3.287 -0.3012  0.4696  0.2658
  117DPPC   C45 5845   1.528   5.335   3.137 -0.6372 -0.0325  0.3553
  117DPPC   C46 5846   1.473   5.193   3.118  0.1839 -0.2136 -0.8175
  117DPPC   C47 5847   1.583   5.088   3.127  0.4132  0.0865 -0.1010
  117DPPC   C48 5848   1.521   4.953   3.091 -0.3261  0.2502  0.5417
  117DPPC   C49 5849   1.629   4.845   3.085 -0.3774  0.2568 -0.6967
  117DPPC   C50 5850   1.569   4.707   3.061 -0.2409  0.0325  0.2349
  118DPPC    C1 5851   1.022   6.262   5.423  0.0975  0.1768  0.3328
  118DPPC    C2 5852   1.158   6.131   5.259 -0.6974 -0.1781 -0.7453
  118DPPC    C3 5853   0.951   6.236   5.216  0.7235  0.3256 -0.2668
  118DPPC    N4 5854   1.026   6.160   5.317 -0.1622  0.1907  0.3074
  118DPPC    C5 5855   0.950   6.048   5.373  0.4382 -0.4399 -0.1234
  118DPPC    C6 5856   0.935   5.919   5.292  0.0345 -0.1112 -0.5756
  118DPPC    O7 5857   0.885   5.936   5.159 -0.5831 -0.0915 -0.3429
  118DPPC    P8 5858   0.889   5.809   5.062 -0.1757 -0.0280 -0.4095
  118DPPC    O9 5859   0.883   5.695   5.156 -0.3997  0.4351  0.1394
  118DPPC   O10 5860   0.796   5.840   4.951 -0.0119  0.0146 -0.5365
  118DPPC   O11 5861   1.040   5.828   5.009  0.0218 -0.0215  0.1558
  118DPPC   C12 5862   1.020   5.940   4.923 -0.0989 -0.1375  0.0315
  118DPPC   C13 5863   1.148   5.995   4.859  0.0453 -0.4911  0.0100
  118DPPC   O14 5864   1.125   6.119   4.790  0.5185 -0.3616  0.0788
  118DPPC   C15 5865   1.172   6.235   4.842 -0.5001  0.0633  0.0787
  118DPPC   O16 5866   1.263   6.230   4.924 -0.0938  0.0142 -0.3710
  118DPPC   C17 5867   1.122   6.370   4.789 -0.1902 -0.0784 -0.5797
  118DPPC   C18 5868   1.185   6.413   4.656  0.6690 -0.1189 -0.1917
  118DPPC   C19 5869   1.184   6.565   4.638  0.3048 -0.1322 -0.3033
  118DPPC   C20 5870   1.246   6.602   4.503 -0.0909  0.5148 -0.3115
  118DPPC   C21 5871   1.168   6.528   4.395  0.0062 -0.1096  0.0402
  118DPPC   C22 5872   1.041   6.601   4.349  0.1827  0.2066  0.0522
  118DPPC   C23 5873   0.975   6.540   4.225 -0.5614 -0.0596  0.5715
  118DPPC   C24 5874   0.850   6.619   4.186 -0.0755  0.1518 -0.6135
  118DPPC   C25 5875   0.865   6.768   4.153 -0.3337  0.4079  0.3888
  118DPPC   C26 5876   0.745   6.862   4.156 -0.5249  0.1623  0.4254
  118DPPC   C27 5877   0.780   7.006   4.119  0.1986 -0.0592  0.2465
  118DPPC   C28 5878   0.662   7.099   4.144  0.2782  0.2325 -0.4448
  118DPPC   C29 5879   0.538   7.030   4.086  0.1984  0.1478 -0.1746
  118DPPC   C30 5880   0.528   7.053   3.935  0.2129 -0.0954 -0.2130
  118DPPC   C31 5881   0.404   6.981   3.882  0.5449 -0.5829 -0.3378
  118DPPC   C32 5882   1.205   5.875   4.785 -0.1030 -0.6452  0.1454
  118DPPC   O33 5883   1.108   5.811   4.701  0.0820 -0.6174 -0.0899
  118DPPC   C34 5884   1.150   5.725   4.605  0.4592 -0.3332 -0.1870
  118DPPC   O35 5885   1.262   5.729   4.555  0.5831 -0.1216  0.1076
  118DPPC   C36 5886   1.034   5.659   4.528  0.1181 -0.0470  0.0808
  118DPPC   C37 5887   1.044   5.659   4.376 -0.0235  0.4859  0.0682
  118DPPC   C38 5888   0.934   5.578   4.306  0.1969  0.1697  0.0856
  118DPPC   C39 5889   0.949   5.586   4.154 -0.8114 -0.1645 -0.0400
  118DPPC   C40 5890   0.872   5.475   4.083 -0.4691 -0.4530  0.0382
  118DPPC   C41 5891   0.915   5.463   3.937  0.0106  0.0476  0.1359
  118DPPC   C42 5892   0.840   5.352   3.862  0.2807  0.0430 -0.1300
  118DPPC   C43 5893   0.871   5.327   3.715 -0.0883  0.1358 -0.2231
  118DPPC   C44 5894   0.777   5.229   3.644 -0.1146  0.2575 -0.3586
  118DPPC   C45 5895   0.846   5.211   3.509  0.0592  0.3112 -0.2765
  118DPPC   C46 5896   0.973   5.135   3.550 -0.4029 -0.4904 -0.3259
  118DPPC   C47 5897   1.080   5.139   3.441  0.2808 -0.6261  0.3343
  118DPPC   C48 5898   1.041   5.036   3.335  0.5411 -0.6076  0.2187
  118DPPC   C49 5899   1.147   5.012   3.227 -0.1980 -0.1103 -0.6343
  118DPPC   C50 5900   1.082   4.955   3.101 -0.3276 -0.6307 -0.3328
  119DPPC    C1 5901   1.227   0.666   5.300 -0.2709  0.4595  0.5474
  119DPPC    C2 5902   1.030   0.701   5.420 -0.1484 -0.1439  0.3056
  119DPPC    C3 5903   1.011   0.609   5.202 -0.0005 -0.2134 -0.0986
  119DPPC    N4 5904   1.093   0.609   5.324 -0.2073  0.0900  0.0406
  119DPPC    C5 5905   1.098   0.473   5.378 -0.3956  0.1659  0.2540
  119DPPC    C6 5906   1.119   0.344   5.298 -0.2806  0.4668 -0.2076
  119DPPC    O7 5907   1.248   0.327   5.239 -0.3636  0.1480 -0.3027
  119DPPC    P8 5908   1.255   0.190   5.155  0.2381  0.0878 -0.1606
  119DPPC    O9 5909   1.285   0.094   5.264 -0.5097  0.0094 -0.0178
  119DPPC   O10 5910   1.127   0.183   5.081  0.1377  0.7291 -0.0500
  119DPPC   O11 5911   1.378   0.234   5.060  0.4079  0.0800  0.0547
  119DPPC   C12 5912   1.325   0.315   4.955  0.0838 -0.0698  0.0994
  119DPPC   C13 5913   1.422   0.425   4.910 -0.0662  0.1550  0.3188
  119DPPC   O14 5914   1.351   0.507   4.816 -0.0476 -0.0131  0.1571
  119DPPC   C15 5915   1.282   0.616   4.858  0.2566  0.3439 -0.2710
  119DPPC   O16 5916   1.289   0.650   4.976  0.7043  0.4932 -0.3376
  119DPPC   C17 5917   1.184   0.694   4.770  0.3358  0.2576 -0.4363
  119DPPC   C18 5918   1.109   0.607   4.668  0.4113 -0.2543 -0.0585
  119DPPC   C19 5919   1.009   0.521   4.747  0.1348  0.3346  0.2454
  119DPPC   C20 5920   0.898   0.460   4.660  0.4010 -0.4003  0.4124
  119DPPC   C21 5921   0.778   0.395   4.728 -0.1024 -0.1672 -0.2447
  119DPPC   C22 5922   0.678   0.331   4.632 -0.3421  0.0662 -0.1515
  119DPPC   C23 5923   0.605   0.420   4.531 -0.5020 -0.0621 -0.1488
  119DPPC   C24 5924   0.567   0.341   4.405 -0.5063  0.0511 -0.2185
  119DPPC   C25 5925   0.445   0.399   4.334 -0.0518  0.7819 -0.4163
  119DPPC   C26 5926   0.413   0.306   4.217  0.3468 -0.1486  0.2074
  119DPPC   C27 5927   0.285   0.344   4.141  0.5024  0.4974  0.2637
  119DPPC   C28 5928   0.253   0.244   4.030 -0.0482  0.5927  0.3369
  119DPPC   C29 5929   0.123   0.291   3.964  0.3458  0.3100 -0.6517
  119DPPC   C30 5930   0.075   0.209   3.845 -0.7939 -0.4517  0.3164
  119DPPC   C31 5931  -0.062   0.266   3.806 -0.8638 -0.2702  0.8176
  119DPPC   C32 5932   1.543   0.355   4.848 -0.6029 -0.4091 -0.1086
  119DPPC   O33 5933   1.541   0.260   4.741  0.1152 -0.3788 -0.1582
  119DPPC   C34 5934   1.656   0.201   4.699  0.3956  0.6972 -0.9475
  119DPPC   O35 5935   1.771   0.227   4.733  0.3801 -0.3136 -0.0830
  119DPPC   C36 5936   1.636   0.081   4.606  0.1406 -0.0728  0.0848
  119DPPC   C37 5937   1.573   0.102   4.468 -0.2278  0.0218  0.2660
  119DPPC   C38 5938   1.656   0.209   4.397 -0.0004  0.0123  0.5103
  119DPPC   C39 5939   1.599   0.208   4.255  0.3761  0.5840  0.3502
  119DPPC   C40 5940   1.691   0.282   4.158  0.0664  0.5078 -0.0070
  119DPPC   C41 5941   1.643   0.282   4.013  0.0349  0.3333  0.0030
  119DPPC   C42 5942   1.733   0.358   3.916 -0.0245  0.3233 -0.0602
  119DPPC   C43 5943   1.704   0.341   3.767 -0.2632 -0.3767  0.0630
  119DPPC   C44 5944   1.565   0.378   3.713  0.1162  0.3754 -0.4141
  119DPPC   C45 5945   1.585   0.446   3.577  0.2074 -0.0356 -0.6074
  119DPPC   C46 5946   1.446   0.494   3.536  0.0824 -0.0065 -0.1574
  119DPPC   C47 5947   1.420   0.598   3.645  0.2512  0.2526 -0.3628
  119DPPC   C48 5948   1.281   0.663   3.640 -0.1852 -0.5987  0.3744
  119DPPC   C49 5949   1.252   0.734   3.772  0.2683  0.0757  0.1125
  119DPPC   C50 5950   1.125   0.817   3.756  0.2385  0.0466  0.2013
  120DPPC    C1 5951   0.813   1.110   5.860  0.0279 -0.0041  0.2958
  120DPPC    C2 5952   0.805   1.303   5.729 -0.1273  0.2564 -0.1283
  120DPPC    C3 5953   0.605   1.194   5.813 -0.2731 -0.3038 -0.5525
  120DPPC    N4 5954   0.737   1.174   5.752  0.1869  0.1610  0.2813
  120DPPC    C5 5955   0.746   1.092   5.630  0.2575  0.4179  0.1123
  120DPPC    C6 5956   0.688   0.951   5.643 -0.2032  0.6011  0.0283
  120DPPC    O7 5957   0.727   0.871   5.532 -0.2631  0.2451  0.2617
  120DPPC    P8 5958   0.603   0.780   5.484 -0.0676  0.0792  0.0665
  120DPPC    O9 5959   0.665   0.650   5.451 -0.4304 -0.0808  0.0059
  120DPPC   O10 5960   0.492   0.777   5.582 -0.4679 -0.2929 -0.3887
  120DPPC   O11 5961   0.542   0.844   5.349 -0.0628  0.4466  0.2365
  120DPPC   C12 5962   0.647   0.835   5.253 -0.0223  0.2838  0.2948
  120DPPC   C13 5963   0.614   0.872   5.108  0.2098  0.4039  0.2703
  120DPPC   O14 5964   0.722   0.859   5.015 -0.3082 -0.6981 -0.1934
  120DPPC   C15 5965   0.695   0.770   4.915 -0.4116 -0.4798 -0.3624
  120DPPC   O16 5966   0.641   0.666   4.953  0.5726 -0.5284  0.9814
  120DPPC   C17 5967   0.749   0.799   4.775 -0.3069  0.2840 -0.1695
  120DPPC   C18 5968   0.851   0.912   4.765  0.4523 -0.3729  0.0120
  120DPPC   C19 5969   0.919   0.907   4.627  0.3646  0.6068 -0.0795
  120DPPC   C20 5970   0.838   0.980   4.520 -0.6023 -0.4532 -0.0975
  120DPPC   C21 5971   0.857   1.131   4.537 -0.4170 -0.4459 -0.3769
  120DPPC   C22 5972   0.811   1.227   4.426  0.0904  0.1185 -0.1055
  120DPPC   C23 5973   0.840   1.371   4.468  0.2556  0.1064 -0.1779
  120DPPC   C24 5974   0.787   1.464   4.359 -0.1155 -0.0026 -0.0928
  120DPPC   C25 5975   0.821   1.414   4.219 -0.0271  0.2756 -0.1720
  120DPPC   C26 5976   0.804   1.522   4.112  0.0610  0.5809  0.1226
  120DPPC   C27 5977   0.807   1.460   3.972  0.0139  0.2795  0.2541
  120DPPC   C28 5978   0.703   1.348   3.963 -0.0719  0.3813 -0.0423
  120DPPC   C29 5979   0.738   1.259   3.844 -0.0701  0.0869  0.1760
  120DPPC   C30 5980   0.707   1.357   3.730  0.0307 -0.0762  0.0078
  120DPPC   C31 5981   0.734   1.291   3.594 -0.4016 -0.2885  0.0232
  120DPPC   C32 5982   0.544   1.007   5.122 -0.1278  0.2358  0.2314
  120DPPC   O33 5983   0.471   1.045   5.005 -0.5154  0.3126  0.4970
  120DPPC   C34 5984   0.403   1.163   5.013 -0.2719  0.5255 -0.4527
  120DPPC   O35 5985   0.395   1.217   5.123  0.4184 -0.1552 -0.0567
  120DPPC   C36 5986   0.316   1.200   4.892 -0.0893  0.5102 -0.5901
  120DPPC   C37 5987   0.351   1.142   4.755 -0.4010 -0.4942 -0.2563
  120DPPC   C38 5988   0.277   1.213   4.642 -0.0838 -0.2000 -0.2827
  120DPPC   C39 5989   0.287   1.148   4.504 -0.1073  0.3259 -0.5351
  120DPPC   C40 5990   0.429   1.126   4.453  0.0038  0.1442 -0.1506
  120DPPC   C41 5991   0.435   1.064   4.313  0.1570  0.3650 -0.2430
  120DPPC   C42 5992   0.351   1.130   4.204  0.0059  0.2100 -0.2212
  120DPPC   C43 5993   0.397   1.072   4.070  0.0487  0.0746 -0.1472
  120DPPC   C44 5994   0.301   1.112   3.959  0.2674  0.6485 -0.1325
  120DPPC   C45 5995   0.361   1.064   3.827  0.0567 -0.4069  0.1407
  120DPPC   C46 5996   0.266   1.083   3.708  0.3349 -0.2169 -0.0520
  120DPPC   C47 5997   0.348   1.048   3.582 -0.0273 -0.3088 -0.2634
  120DPPC   C48 5998   0.254   1.073   3.464 -0.1140  0.5026 -0.0346
  120DPPC   C49 5999   0.112   1.018   3.477  0.0050  0.3275  0.5407
  120DPPC   C50 6000   0.060   1.034   3.334  0.7880  0.8650  0.3108
  121DPPC    C1 6001   5.664   4.978   5.828 -0.8690  0.3364 -0.3866
  121DPPC    C2 6002   5.705   4.901   5.615 -0.8268 -0.1091  0.0295
  121DPPC    C3 6003   5.520   4.813   5.716 -0.1626  0.0656 -0.0844
  121DPPC    N4 6004   5.658   4.856   5.746 -0.1694 -0.1455  0.2594
  121DPPC    C5 6005   5.731   4.745   5.808 -0.3829 -0.3043  0.2314
  121DPPC    C6 6006   5.719   4.603   5.752  0.3735 -0.2585 -0.0630
  121DPPC    O7 6007   5.721   4.589   5.610  0.3254  0.0190 -0.0913
  121DPPC    P8 6008   5.724   4.438   5.555 -0.0391  0.0069 -0.0809
  121DPPC    O9 6009   5.869   4.409   5.543 -0.0773 -0.2109 -0.0180
  121DPPC   O10 6010   5.647   4.362   5.656  0.0383 -0.0183 -0.0407
  121DPPC   O11 6011   5.634   4.455   5.423  0.3767 -0.0149 -0.3688
  121DPPC   C12 6012   5.705   4.539   5.331  0.2087  0.3456 -0.1732
  121DPPC   C13 6013   5.643   4.560   5.193 -0.2217 -0.4311 -0.1080
  121DPPC   O14 6014   5.744   4.619   5.110  0.0030  0.0713  0.5115
  121DPPC   C15 6015   5.773   4.554   4.994 -0.2888  0.1388  0.3993
  121DPPC   O16 6016   5.732   4.439   4.985 -0.0589  0.1128 -0.4177
  121DPPC   C17 6017   5.852   4.638   4.893  0.1453 -0.5816  0.1328
  121DPPC   C18 6018   5.849   4.600   4.745 -0.1558 -0.2570  0.0555
  121DPPC   C19 6019   5.932   4.689   4.651  0.1661  0.0945  0.6646
  121DPPC   C20 6020   5.933   4.632   4.509 -0.5494  0.2404  0.5971
  121DPPC   C21 6021   6.012   4.718   4.410 -0.3674 -0.3489  0.2263
  121DPPC   C22 6022   6.044   4.656   4.274 -0.2843 -0.3185  0.2321
  121DPPC   C23 6023   6.163   4.715   4.198 -0.4228 -0.4392 -0.0796
  121DPPC   C24 6024   6.196   4.657   4.060 -0.0007 -0.0299 -0.1533
  121DPPC   C25 6025   6.331   4.721   4.027  0.0859 -0.5927 -0.9025
  121DPPC   C26 6026   6.329   4.871   4.056  0.2050 -0.7644 -0.0049
  121DPPC   C27 6027   6.467   4.930   4.027 -0.4105  0.4454 -0.5079
  121DPPC   C28 6028   6.515   4.896   3.886  0.1875 -0.9188  0.0119
  121DPPC   C29 6029   6.659   4.946   3.876 -0.0721 -0.1593  0.0414
  121DPPC   C30 6030   6.703   4.954   3.729 -0.4830  0.4113 -0.0565
  121DPPC   C31 6031   6.713   4.814   3.667 -0.4182  0.2821  0.2418
  121DPPC   C32 6032   5.525   4.650   5.229 -0.0169 -0.2887  0.2093
  121DPPC   O33 6033   5.426   4.662   5.127  0.2148 -0.5130 -0.0414
  121DPPC   C34 6034   5.311   4.729   5.157  0.5399  0.1002 -0.1696
  121DPPC   O35 6035   5.295   4.800   5.256 -0.0743 -0.4680  0.1376
  121DPPC   C36 6036   5.191   4.710   5.064  0.3222  0.1430  0.1003
  121DPPC   C37 6037   5.200   4.609   4.948  0.3337  0.0600  0.1736
  121DPPC   C38 6038   5.282   4.670   4.834  0.2102 -0.0420  0.0295
  121DPPC   C39 6039   5.264   4.594   4.703 -0.5378  0.1064  0.0401
  121DPPC   C40 6040   5.328   4.669   4.586  0.5180 -0.5599  0.1763
  121DPPC   C41 6041   5.347   4.580   4.464 -0.0248 -0.6810  0.1778
  121DPPC   C42 6042   5.375   4.684   4.354  0.0215 -0.6354  0.2326
  121DPPC   C43 6043   5.468   4.608   4.260  0.0933 -0.2742  0.0129
  121DPPC   C44 6044   5.451   4.650   4.114 -0.1043  0.2181  0.1755
  121DPPC   C45 6045   5.568   4.586   4.039 -0.0910  0.5114 -0.0569
  121DPPC   C46 6046   5.705   4.631   4.090  0.0232 -0.0654  0.1537
  121DPPC   C47 6047   5.820   4.561   4.017 -0.2856 -0.4042 -0.0139
  121DPPC   C48 6048   5.821   4.585   3.866 -0.6330 -0.1956  0.0171
  121DPPC   C49 6049   5.914   4.505   3.776  0.3008 -0.0558  0.8420
  121DPPC   C50 6050   5.877   4.359   3.799 -0.5697  0.0273  0.0434
  122DPPC    C1 6051   0.174   5.244   5.725  0.9181 -0.4666 -0.3402
  122DPPC    C2 6052  -0.045   5.325   5.707  0.2422 -0.7586  0.2704
  122DPPC    C3 6053  -0.023   5.103   5.657 -0.0796  0.2025 -0.0789
  122DPPC    N4 6054   0.050   5.230   5.647  0.6556 -0.1996  0.0312
  122DPPC    C5 6055   0.065   5.278   5.509 -0.6504 -0.2665 -0.1510
  122DPPC    C6 6056   0.179   5.225   5.421 -0.0842  0.3069  0.2268
  122DPPC    O7 6057   0.175   5.309   5.305 -0.3519 -0.0602 -0.0301
  122DPPC    P8 6058   0.255   5.245   5.181  0.0088 -0.1847  0.2644
  122DPPC    O9 6059   0.292   5.354   5.088 -0.2528 -0.3529 -0.0414
  122DPPC   O10 6060   0.338   5.128   5.217  0.3721  0.2094  0.6969
  122DPPC   O11 6061   0.125   5.193   5.099 -0.3773  0.2090  0.6255
  122DPPC   C12 6062   0.164   5.103   4.995 -0.4653  0.2136  0.5891
  122DPPC   C13 6063   0.081   5.126   4.869  0.1377 -0.3780  0.0801
  122DPPC   O14 6064   0.050   5.018   4.779 -0.3501 -0.0499 -0.1542
  122DPPC   C15 6065   0.141   4.936   4.720  0.0058  0.0001  0.3183
  122DPPC   O16 6066   0.261   4.939   4.747  0.1126  0.1738 -0.1565
  122DPPC   C17 6067   0.085   4.841   4.614 -0.3473  0.4460  0.0997
  122DPPC   C18 6068   0.079   4.903   4.474 -0.0435  0.0387 -0.0952
  122DPPC   C19 6069   0.215   4.952   4.423  0.0005  0.0996  0.0789
  122DPPC   C20 6070   0.192   5.097   4.378 -0.0214  0.2527  0.5743
  122DPPC   C21 6071   0.317   5.161   4.318  0.0084  0.0774  0.4476
  122DPPC   C22 6072   0.304   5.313   4.303 -0.0851  0.0216 -0.0766
  122DPPC   C23 6073   0.440   5.361   4.252  0.2959 -0.1858  0.7153
  122DPPC   C24 6074   0.455   5.509   4.214 -0.3903 -0.1960  0.3801
  122DPPC   C25 6075   0.355   5.532   4.100 -0.0884  0.1417  0.1829
  122DPPC   C26 6076   0.380   5.661   4.021 -0.3945  0.0577 -0.0494
  122DPPC   C27 6077   0.283   5.673   3.903  0.2355 -0.1804 -0.5999
  122DPPC   C28 6078   0.332   5.792   3.820  0.0357  0.3896  0.0878
  122DPPC   C29 6079   0.229   5.824   3.711 -0.3336  0.1215  0.3538
  122DPPC   C30 6080   0.249   5.953   3.631 -0.6913  0.0484  0.1467
  122DPPC   C31 6081   0.225   6.077   3.718 -0.6357  0.1761 -0.0184
  122DPPC   C32 6082   0.141   5.245   4.794 -0.3034 -0.0576  0.2280
  122DPPC   O33 6083   0.058   5.314   4.700  0.4137  0.5673  0.0417
  122DPPC   C34 6084   0.099   5.432   4.646  0.2262  0.6309  0.0384
  122DPPC   O35 6085   0.215   5.471   4.641  0.2651  0.4539 -0.6031
  122DPPC   C36 6086  -0.016   5.511   4.583 -0.1805 -0.4344 -0.5972
  122DPPC   C37 6087   0.012   5.563   4.442  0.0221 -0.3141 -0.5127
  122DPPC   C38 6088  -0.097   5.663   4.402  0.1145  0.0837  0.2110
  122DPPC   C39 6089  -0.051   5.750   4.285  0.0014  0.2189  0.2668
  122DPPC   C40 6090  -0.064   5.658   4.163  0.3015 -0.0559  0.4404
  122DPPC   C41 6091  -0.033   5.728   4.030 -0.0417 -0.4708  0.1372
  122DPPC   C42 6092  -0.138   5.839   4.027  0.0401 -0.3963  0.0369
  122DPPC   C43 6093  -0.131   5.900   3.887 -0.3195 -0.3827  0.0234
  122DPPC   C44 6094  -0.232   6.014   3.882 -0.1126 -0.1996 -0.0251
  122DPPC   C45 6095  -0.261   6.050   3.736 -0.2728  0.5904  0.1964
  122DPPC   C46 6096  -0.336   6.180   3.704 -0.5551  0.4303  0.1987
  122DPPC   C47 6097  -0.342   6.203   3.553  0.1448 -0.0718  0.0867
  122DPPC   C48 6098  -0.409   6.335   3.514 -0.2940 -0.3785 -0.2091
  122DPPC   C49 6099  -0.377   6.370   3.369  0.2042  0.2160  0.0382
  122DPPC   C50 6100  -0.417   6.511   3.325  0.1539  0.1099 -0.2620
  123DPPC    C1 6101   0.242   0.552   5.510  0.5538  0.1357 -0.3493
  123DPPC    C2 6102   0.221   0.336   5.594  0.0124 -0.5472 -0.5909
  123DPPC    C3 6103   0.442   0.448   5.588 -0.4074  0.7156 -0.1373
  123DPPC    N4 6104   0.313   0.424   5.521 -0.1095 -0.2400 -0.3771
  123DPPC    C5 6105   0.331   0.389   5.379 -0.3215  0.3422 -0.5504
  123DPPC    C6 6106   0.413   0.265   5.343 -0.1190  0.4038 -0.3020
  123DPPC    O7 6107   0.353   0.144   5.389 -0.1428  0.6883  0.4375
  123DPPC    P8 6108   0.480   0.046   5.383 -0.5710  0.1590 -0.0898
  123DPPC    O9 6109   0.606   0.104   5.433 -0.1611 -0.6906 -0.1129
  123DPPC   O10 6110   0.437  -0.090   5.422  0.7111  0.1038  1.2132
  123DPPC   O11 6111   0.491   0.054   5.222 -0.6815 -0.0564 -0.1099
  123DPPC   C12 6112   0.516  -0.070   5.156  0.0741 -0.0809  0.2014
  123DPPC   C13 6113   0.508  -0.046   5.005 -0.3645 -0.1941  0.2061
  123DPPC   O14 6114   0.616  -0.110   4.935 -0.2534 -0.1739  0.3614
  123DPPC   C15 6115   0.730  -0.041   4.906 -0.4757 -0.0360 -0.1908
  123DPPC   O16 6116   0.781   0.042   4.980 -0.1335 -0.4225  0.0134
  123DPPC   C17 6117   0.801  -0.090   4.779  0.0321  0.2596 -0.0223
  123DPPC   C18 6118   0.718  -0.068   4.653 -0.0004 -0.3402 -0.1071
  123DPPC   C19 6119   0.733  -0.180   4.550  1.0211 -0.7515  0.4741
  123DPPC   C20 6120   0.875  -0.159   4.498  0.4090  0.3860 -0.8092
  123DPPC   C21 6121   0.908  -0.252   4.381  0.5417 -0.3388 -0.2052
  123DPPC   C22 6122   0.996  -0.189   4.272 -0.1176 -0.0227 -0.5617
  123DPPC   C23 6123   1.060  -0.289   4.176 -0.0425 -0.3606 -0.1630
  123DPPC   C24 6124   1.140  -0.216   4.069 -0.0194  0.5048  0.4351
  123DPPC   C25 6125   1.058  -0.119   3.983 -0.1464 -0.1204 -0.1590
  123DPPC   C26 6126   1.127  -0.069   3.856  0.8480  0.2340  0.5062
  123DPPC   C27 6127   1.030   0.017   3.775  0.5234 -0.0865  0.5506
  123DPPC   C28 6128   1.104   0.087   3.660 -0.3824  0.3888  0.2527
  123DPPC   C29 6129   1.211   0.177   3.723  0.2968 -0.2080 -0.0436
  123DPPC   C30 6130   1.125   0.289   3.781 -0.1520 -0.3717 -0.3855
  123DPPC   C31 6131   1.046   0.358   3.669  0.2523 -0.3493 -0.6597
  123DPPC   C32 6132   0.474   0.098   4.967  0.3223 -0.0973 -0.0552
  123DPPC   O33 6133   0.399   0.097   4.845  0.1451 -0.0487  0.0524
  123DPPC   C34 6134   0.357   0.212   4.787  0.2285  0.0076  0.1047
  123DPPC   O35 6135   0.347   0.321   4.845 -0.6611  0.0452 -0.1034
  123DPPC   C36 6136   0.292   0.185   4.651  0.4803 -0.2527  0.0357
  123DPPC   C37 6137   0.149   0.131   4.657  0.3273  0.1339 -0.1358
  123DPPC   C38 6138   0.102   0.139   4.512  0.0466  0.2532 -0.0402
  123DPPC   C39 6139  -0.037   0.079   4.490  0.0985  0.3359 -0.6117
  123DPPC   C40 6140  -0.072   0.042   4.346 -0.0682 -0.0601 -0.4701
  123DPPC   C41 6141  -0.209   0.096   4.306 -0.2551 -0.1641  0.0311
  123DPPC   C42 6142  -0.243   0.022   4.177  0.1308 -0.2114 -0.0448
  123DPPC   C43 6143  -0.390   0.039   4.137  0.1674  0.1730 -0.0235
  123DPPC   C44 6144  -0.386   0.167   4.053 -0.3196  0.2880  0.1231
  123DPPC   C45 6145  -0.506   0.203   3.965 -0.1517 -0.4184 -0.4104
  123DPPC   C46 6146  -0.463   0.325   3.885 -0.5242 -0.2258 -0.3198
  123DPPC   C47 6147  -0.576   0.380   3.797  0.4120  0.9064 -0.8509
  123DPPC   C48 6148  -0.616   0.280   3.688  0.0246  0.8865 -0.6907
  123DPPC   C49 6149  -0.741   0.309   3.605 -0.6681  0.2525  0.1190
  123DPPC   C50 6150  -0.756   0.195   3.504 -0.5011  0.3661 -0.0346
  124DPPC    C1 6151   6.037   1.448   6.077  0.9667  0.9475 -0.1554
  124DPPC    C2 6152   6.072   1.231   5.982 -0.2508 -0.1672 -0.5953
  124DPPC    C3 6153   6.238   1.311   6.122  0.3725 -0.3257 -0.5866
  124DPPC    N4 6154   6.138   1.355   6.023 -0.1693 -0.3790 -0.0701
  124DPPC    C5 6155   6.208   1.419   5.910 -0.0286  0.2472  0.3652
  124DPPC    C6 6156   6.333   1.356   5.848  0.0916  0.6312  0.2128
  124DPPC    O7 6157   6.306   1.228   5.789  0.1562  0.6391  0.1663
  124DPPC    P8 6158   6.448   1.157   5.759 -0.1224  0.1234  0.0613
  124DPPC    O9 6159   6.557   1.217   5.839  0.2341  0.1780 -0.4631
  124DPPC   O10 6160   6.406   1.016   5.774 -0.0884  0.1511  0.4269
  124DPPC   O11 6161   6.463   1.192   5.603 -0.0405  1.0264  0.2630
  124DPPC   C12 6162   6.364   1.115   5.533  0.9197  0.0166 -0.0143
  124DPPC   C13 6163   6.369   1.131   5.381  0.3549 -0.1489 -0.0513
  124DPPC   O14 6164   6.466   1.037   5.332  0.0395  0.1156 -1.2044
  124DPPC   C15 6165   6.443   0.903   5.327 -0.1167  0.1039 -0.3142
  124DPPC   O16 6166   6.343   0.842   5.364  0.3532 -0.5503 -0.0963
  124DPPC   C17 6167   6.551   0.830   5.246  0.1846 -0.1439  0.3053
  124DPPC   C18 6168   6.482   0.762   5.128  0.0421  0.6668 -0.0814
  124DPPC   C19 6169   6.580   0.758   5.010  0.4601 -0.3753  0.2898
  124DPPC   C20 6170   6.536   0.696   4.878 -0.1698 -0.1414  0.3869
  124DPPC   C21 6171   6.654   0.695   4.781 -0.1335  0.0230  0.4296
  124DPPC   C22 6172   6.609   0.605   4.666  0.6434  0.4298 -0.2057
  124DPPC   C23 6173   6.490   0.672   4.598  0.3383  0.4470  0.3447
  124DPPC   C24 6174   6.442   0.601   4.472 -0.3730  0.2165  0.7394
  124DPPC   C25 6175   6.333   0.672   4.391  0.0695  0.4845  0.3761
  124DPPC   C26 6176   6.314   0.593   4.262 -0.5018 -0.0146  0.7600
  124DPPC   C27 6177   6.232   0.675   4.162  0.9551  0.3062 -0.2126
  124DPPC   C28 6178   6.204   0.616   4.024  0.1814  0.2544 -0.0381
  124DPPC   C29 6179   6.161   0.722   3.923  0.2104 -0.0370 -0.3586
  124DPPC   C30 6180   6.201   0.699   3.777  0.3047  0.3973 -0.4026
  124DPPC   C31 6181   6.121   0.590   3.706 -0.0094 -0.1216  0.7196
  124DPPC   C32 6182   6.385   1.275   5.332 -0.6306  0.0478  0.1918
  124DPPC   O33 6183   6.353   1.285   5.193  0.0599  0.0735  0.0317
  124DPPC   C34 6184   6.367   1.407   5.135  0.2146  0.1522  0.2318
  124DPPC   O35 6185   6.424   1.498   5.195  0.1458  0.5834 -0.3422
  124DPPC   C36 6186   6.328   1.410   4.987  0.4277 -0.2148  0.1659
  124DPPC   C37 6187   6.286   1.544   4.926 -0.5010 -0.2897  0.6174
  124DPPC   C38 6188   6.274   1.537   4.774 -0.0347 -0.0532  0.5683
  124DPPC   C39 6189   6.193   1.659   4.729 -0.0493 -0.2726 -0.0167
  124DPPC   C40 6190   6.194   1.674   4.577  0.1502 -0.3907 -0.0271
  124DPPC   C41 6191   6.160   1.535   4.523  0.2624 -0.5076  0.2004
  124DPPC   C42 6192   6.181   1.513   4.373  0.3245  0.3472  0.0743
  124DPPC   C43 6193   6.197   1.365   4.335  0.2563  0.3798 -0.0824
  124DPPC   C44 6194   6.216   1.374   4.183  0.5014 -0.1672 -0.0868
  124DPPC   C45 6195   6.236   1.242   4.108 -0.7142 -0.2869 -0.2221
  124DPPC   C46 6196   6.218   1.255   3.957 -0.4854 -0.0204 -0.2281
  124DPPC   C47 6197   6.298   1.370   3.896 -0.2916 -0.2445 -0.3993
  124DPPC   C48 6198   6.311   1.334   3.748 -0.3679 -0.4197 -0.3645
  124DPPC   C49 6199   6.424   1.424   3.696 -0.3586 -0.3652 -0.2500
  124DPPC   C50 6200   6.462   1.421   3.548  0.0631 -0.0127 -0.1526
  125DPPC    C1 6201   5.683   5.572   5.746 -0.2277 -0.0940 -0.0120
  125DPPC    C2 6202   5.563   5.408   5.624  0.2799 -0.1061 -0.1300
  125DPPC    C3 6203   5.465   5.619   5.658 -0.2138 -0.1659 -0.0390
  125DPPC    N4 6204   5.593   5.551   5.631 -0.1453 -0.0160 -0.0898
  125DPPC    C5 6205   5.660   5.595   5.508  0.2136  0.1669  0.1667
  125DPPC    C6 6206   5.804   5.550   5.481  0.3160  0.1175  0.7853
  125DPPC    O7 6207   5.836   5.411   5.491  0.5720  0.1128 -0.0278
  125DPPC    P8 6208   5.968   5.364   5.412  0.3950 -0.0613 -0.2171
  125DPPC    O9 6209   6.064   5.471   5.444 -0.2653  0.2358  0.8008
  125DPPC   O10 6210   5.984   5.224   5.458 -0.4590 -0.0467  0.1376
  125DPPC   O11 6211   5.910   5.382   5.263  0.5821 -0.4374 -0.3389
  125DPPC   C12 6212   5.836   5.265   5.227  0.1287 -0.2374 -0.0636
  125DPPC   C13 6213   5.717   5.305   5.139 -0.0059 -0.3320  0.0734
  125DPPC   O14 6214   5.641   5.193   5.092  0.0253 -0.6053  0.6595
  125DPPC   C15 6215   5.509   5.200   5.059  0.1552  0.2336  0.2777
  125DPPC   O16 6216   5.450   5.308   5.070  0.5220  0.4557  0.0641
  125DPPC   C17 6217   5.438   5.070   5.020  0.7258  0.1162 -0.3757
  125DPPC   C18 6218   5.515   4.970   4.934  0.1203 -0.4462 -0.2702
  125DPPC   C19 6219   5.531   5.021   4.790  0.0181 -0.0253 -0.1345
  125DPPC   C20 6220   5.621   4.941   4.695  0.4563 -0.0029  0.2582
  125DPPC   C21 6221   5.610   5.005   4.557 -0.7767 -0.8153 -0.0375
  125DPPC   C22 6222   5.700   4.955   4.443  0.8526 -0.0841  0.8999
  125DPPC   C23 6223   5.666   5.029   4.314  0.7689  0.3655  1.1770
  125DPPC   C24 6224   5.763   4.998   4.200 -0.3658  0.3065  0.2099
  125DPPC   C25 6225   5.727   5.058   4.063 -0.7333 -0.0044  0.1721
  125DPPC   C26 6226   5.848   5.106   3.984 -0.4787 -0.0518  0.5308
  125DPPC   C27 6227   5.930   4.987   3.933 -0.1055  0.3378  0.2186
  125DPPC   C28 6228   6.027   5.039   3.826 -0.3805 -0.2985 -0.3496
  125DPPC   C29 6229   6.113   4.923   3.778  0.5354  0.1299  0.2210
  125DPPC   C30 6230   6.160   4.937   3.633 -0.3112  0.1030 -0.0598
  125DPPC   C31 6231   6.251   4.820   3.597  0.5469  0.6027  0.4339
  125DPPC   C32 6232   5.789   5.379   5.026  0.0370  0.2564  0.4786
  125DPPC   O33 6233   5.886   5.312   4.944  0.0379  0.1197  0.5914
  125DPPC   C34 6234   5.923   5.386   4.835 -0.2871 -0.1891  0.2675
  125DPPC   O35 6235   5.901   5.506   4.826  0.7241  0.0078  0.3300
  125DPPC   C36 6236   6.009   5.311   4.733 -0.8788 -0.0945 -0.3070
  125DPPC   C37 6237   5.960   5.170   4.699 -0.5353 -0.3688  0.3133
  125DPPC   C38 6238   6.047   5.115   4.587  0.1680  0.4164  0.4651
  125DPPC   C39 6239   6.039   5.204   4.463  0.1427  0.1974  0.3077
  125DPPC   C40 6240   6.124   5.154   4.346  0.2616  0.0712  0.4476
  125DPPC   C41 6241   6.134   5.251   4.228  0.2234 -0.5006 -0.0319
  125DPPC   C42 6242   6.227   5.207   4.115  0.4336 -0.0418 -0.0385
  125DPPC   C43 6243   6.240   5.318   4.010  0.0375 -0.0682 -0.1199
  125DPPC   C44 6244   6.336   5.270   3.902 -0.0687 -0.4116 -0.0630
  125DPPC   C45 6245   6.373   5.390   3.814 -0.0064 -0.2994  0.1156
  125DPPC   C46 6246   6.479   5.351   3.710 -0.1160  0.0804 -0.1400
  125DPPC   C47 6247   6.510   5.462   3.610  0.2832  0.1723  0.0816
  125DPPC   C48 6248   6.564   5.424   3.472 -0.1873 -0.0563 -0.0409
  125DPPC   C49 6249   6.687   5.338   3.503 -0.1050  0.0260 -0.1421
  125DPPC   C50 6250   6.766   5.312   3.374  1.1465 -0.0252  0.6191
  126DPPC    C1 6251   0.066   5.601   5.041 -0.5264 -0.5831 -0.2817
  126DPPC    C2 6252  -0.012   5.567   5.257 -0.2599  0.0208  0.2201
  126DPPC    C3 6253  -0.140   5.506   5.048 -0.3156 -0.1815  0.3181
  126DPPC    N4 6254  -0.057   5.603   5.122 -0.2315 -0.1401  0.1676
  126DPPC    C5 6255  -0.114   5.738   5.114  0.2426  0.0699  0.3269
  126DPPC    C6 6256  -0.243   5.769   5.189  0.0525  0.0844 -0.0043
  126DPPC    O7 6257  -0.351   5.687   5.142  0.0205 -0.0725  0.3389
  126DPPC    P8 6258  -0.493   5.756   5.173 -0.0603 -0.0963  0.0277
  126DPPC    O9 6259  -0.599   5.655   5.198 -0.0575 -0.0946  0.0473
  126DPPC   O10 6260  -0.476   5.855   5.282 -0.6146 -0.0752  0.0982
  126DPPC   O11 6261  -0.513   5.852   5.046  0.5870  0.0247  0.0131
  126DPPC   C12 6262  -0.499   5.774   4.927  0.3405  0.0307 -0.0213
  126DPPC   C13 6263  -0.553   5.847   4.804  0.1622  0.2168  0.1662
  126DPPC   O14 6264  -0.472   5.955   4.756  0.4027  0.1002  0.3062
  126DPPC   C15 6265  -0.375   5.927   4.665  0.5143 -0.2703  0.5382
  126DPPC   O16 6266  -0.352   5.809   4.639  0.4667 -0.1971  0.1661
  126DPPC   C17 6267  -0.308   6.043   4.591 -0.0286  0.1521  0.6992
  126DPPC   C18 6268  -0.400   6.099   4.483  0.6421 -0.3435 -0.1439
  126DPPC   C19 6269  -0.420   6.001   4.367 -0.0148 -0.3269 -0.0492
  126DPPC   C20 6270  -0.537   6.026   4.272  0.0915  0.3389 -0.0106
  126DPPC   C21 6271  -0.549   5.923   4.159  0.3783  0.0807  0.1899
  126DPPC   C22 6272  -0.582   5.782   4.209 -0.0869  0.2311  0.3111
  126DPPC   C23 6273  -0.603   5.701   4.081  0.3042  0.2743  0.2178
  126DPPC   C24 6274  -0.462   5.681   4.024  0.1144 -0.1017 -0.1275
  126DPPC   C25 6275  -0.474   5.610   3.889 -0.3171  0.2295 -0.2676
  126DPPC   C26 6276  -0.339   5.561   3.836 -0.2589 -0.1612  0.2271
  126DPPC   C27 6277  -0.370   5.471   3.716 -0.2362  0.3223 -0.1456
  126DPPC   C28 6278  -0.239   5.436   3.645 -0.1224  0.1970  0.1242
  126DPPC   C29 6279  -0.261   5.342   3.527  0.2522  0.1344  0.1025
  126DPPC   C30 6280  -0.128   5.303   3.461  0.2414  0.4152 -0.0903
  126DPPC   C31 6281  -0.169   5.211   3.346  0.7193  0.4330 -0.2780
  126DPPC   C32 6282  -0.698   5.869   4.845 -0.0506 -0.4120 -0.2291
  126DPPC   O33 6283  -0.781   5.920   4.740 -0.0778  0.6312  0.2805
  126DPPC   C34 6284  -0.789   6.055   4.725 -0.4630  0.5523 -0.2425
  126DPPC   O35 6285  -0.763   6.130   4.819  0.1894  0.2840 -0.2038
  126DPPC   C36 6286  -0.856   6.093   4.593 -0.4989  0.0134 -0.3836
  126DPPC   C37 6287  -0.986   6.020   4.559 -0.0837 -0.6284 -0.6027
  126DPPC   C38 6288  -1.067   6.080   4.444 -0.4710  0.0044 -0.0036
  126DPPC   C39 6289  -0.994   6.026   4.321 -0.0822  0.1150  0.1784
  126DPPC   C40 6290  -1.011   5.874   4.324 -0.0469  0.1119  0.2325
  126DPPC   C41 6291  -0.945   5.807   4.204 -0.0119  0.6479 -0.0495
  126DPPC   C42 6292  -0.984   5.661   4.185 -0.0277  0.5834  0.4850
  126DPPC   C43 6293  -1.129   5.646   4.139  0.2389 -0.2777 -0.1088
  126DPPC   C44 6294  -1.160   5.497   4.124  0.0187 -0.2227 -0.2056
  126DPPC   C45 6295  -1.302   5.465   4.077 -0.0421 -0.2891  0.0200
  126DPPC   C46 6296  -1.377   5.376   4.177 -0.1852 -0.0441  0.1329
  126DPPC   C47 6297  -1.518   5.329   4.140 -0.1245  0.2167 -0.4464
  126DPPC   C48 6298  -1.602   5.280   4.258  0.4142 -0.1062 -0.1948
  126DPPC   C49 6299  -1.549   5.146   4.311  0.2967  0.0571  0.3425
  126DPPC   C50 6300  -1.657   5.098   4.409 -0.1701  0.1756 -0.1081
  127DPPC    C1 6301   5.802   6.224   5.002 -0.0276  0.3334 -0.1084
  127DPPC    C2 6302   6.011   6.138   4.977 -0.3215 -0.3947 -0.1380
  127DPPC    C3 6303   5.984   6.355   5.094  0.4662 -0.8872  0.0684
  127DPPC    N4 6304   5.932   6.219   5.071 -0.2096 -0.6520  0.1811
  127DPPC    C5 6305   5.915   6.147   5.198  0.0054 -0.2041  0.4697
  127DPPC    C6 6306   6.021   6.145   5.308  0.3478  0.3852  0.1559
  127DPPC    O7 6307   6.142   6.080   5.268 -0.0800 -0.5103  0.2755
  127DPPC    P8 6308   6.249   6.096   5.388 -0.0375 -0.1717  0.1932
  127DPPC    O9 6309   6.186   6.170   5.499  0.1183 -0.0340  0.1915
  127DPPC   O10 6310   6.307   5.964   5.421 -0.0292 -0.1735  0.1735
  127DPPC   O11 6311   6.347   6.204   5.319  0.3086 -0.3264  0.4372
  127DPPC   C12 6312   6.429   6.146   5.217 -0.2507 -0.8342  0.2676
  127DPPC   C13 6313   6.401   6.222   5.087  0.0659 -0.3764  0.4594
  127DPPC   O14 6314   6.470   6.161   4.977  0.2804 -0.0964  0.4402
  127DPPC   C15 6315   6.432   6.045   4.916  0.6425 -0.0660  0.1521
  127DPPC   O16 6316   6.340   5.973   4.954  0.4414  0.0248 -0.1592
  127DPPC   C17 6317   6.512   6.005   4.792  0.0433  0.0631 -0.2812
  127DPPC   C18 6318   6.473   6.087   4.669 -0.5034 -0.1244 -0.2363
  127DPPC   C19 6319   6.555   6.034   4.552  0.3684  0.1251  0.2488
  127DPPC   C20 6320   6.542   6.119   4.425  0.1337 -0.6762 -0.2749
  127DPPC   C21 6321   6.671   6.137   4.345  0.0640 -0.2749 -0.3030
  127DPPC   C22 6322   6.679   6.247   4.240 -0.0044 -0.3359 -0.3720
  127DPPC   C23 6323   6.805   6.233   4.155  0.1168 -0.3520 -0.1892
  127DPPC   C24 6324   6.767   6.128   4.050 -0.2462 -0.9640  0.5378
  127DPPC   C25 6325   6.885   6.105   3.955 -0.1669  0.5715  0.2304
  127DPPC   C26 6326   6.980   5.996   4.006 -0.3132  0.2663 -0.1446
  127DPPC   C27 6327   7.084   5.958   3.900  0.3086 -0.4603  0.7125
  127DPPC   C28 6328   7.024   5.837   3.828  0.0110 -0.1618  0.4540
  127DPPC   C29 6329   7.126   5.780   3.729 -0.0949  0.0613  0.2134
  127DPPC   C30 6330   7.052   5.669   3.654  0.2272 -0.1591  0.2186
  127DPPC   C31 6331   7.120   5.652   3.517 -0.2570 -0.3638  0.0028
  127DPPC   C32 6332   6.424   6.370   5.115  0.0232 -0.2446 -0.1785
  127DPPC   O33 6333   6.360   6.459   5.023 -0.7946 -0.4272  0.2011
  127DPPC   C34 6334   6.370   6.588   5.064  0.1721 -0.4507  0.0636
  127DPPC   O35 6335   6.412   6.604   5.178 -0.1650 -0.0917  0.1395
  127DPPC   C36 6336   6.320   6.707   4.981 -0.3991 -0.4134  0.4570
  127DPPC   C37 6337   6.250   6.656   4.855  0.4162 -0.3097 -0.0492
  127DPPC   C38 6338   6.186   6.776   4.785  0.1069 -0.3984  0.0795
  127DPPC   C39 6339   6.099   6.717   4.673 -0.0842  0.0093  0.0115
  127DPPC   C40 6340   6.034   6.840   4.609 -0.1192 -0.0910 -0.1464
  127DPPC   C41 6341   5.952   6.837   4.480 -0.8177  0.1085  0.2862
  127DPPC   C42 6342   5.835   6.738   4.487 -0.0271 -0.8852 -0.2706
  127DPPC   C43 6343   5.783   6.719   4.345  0.0713  0.1906 -0.4637
  127DPPC   C44 6344   5.728   6.854   4.298 -1.1722 -0.0175  0.3394
  127DPPC   C45 6345   5.656   6.842   4.164 -0.8448  0.6644  0.0985
  127DPPC   C46 6346   5.646   6.985   4.111  0.4499  0.4883 -0.6873
  127DPPC   C47 6347   5.563   6.986   3.982 -0.1045 -0.0830 -0.3426
  127DPPC   C48 6348   5.530   7.131   3.945 -0.0806  0.0602  0.1938
  127DPPC   C49 6349   5.499   7.138   3.796  0.0773  0.3223  0.1734
  127DPPC   C50 6350   5.632   7.103   3.727 -0.7135 -1.1729 -0.6509
  128DPPC    C1 6351   5.952   0.567   5.602  0.4007  0.1022  0.1145
  128DPPC    C2 6352   5.866   0.593   5.389 -0.0847 -0.2898  0.0802
  128DPPC    C3 6353   5.707   0.565   5.573 -0.2644  0.3778 -0.4774
  128DPPC    N4 6354   5.838   0.527   5.518  0.0998  0.2998  0.4274
  128DPPC    C5 6355   5.855   0.383   5.535  0.2426  0.3001  0.2896
  128DPPC    C6 6356   5.827   0.291   5.416  0.3949  0.1980  0.3310
  128DPPC    O7 6357   5.700   0.300   5.351  0.4738 -0.3958  0.0909
  128DPPC    P8 6358   5.638   0.162   5.296 -0.0548 -0.1475  0.0552
  128DPPC    O9 6359   5.735   0.072   5.363  0.2367  0.0027 -0.1661
  128DPPC   O10 6360   5.491   0.154   5.312 -0.0430 -0.0654  0.2096
  128DPPC   O11 6361   5.694   0.187   5.148 -0.1699  0.0293  0.0417
  128DPPC   C12 6362   5.628   0.303   5.095 -0.4647  0.1751  0.7230
  128DPPC   C13 6363   5.726   0.394   5.022 -0.5402 -0.3884 -0.0897
  128DPPC   O14 6364   5.675   0.522   4.982  0.2626 -0.0901 -0.1850
  128DPPC   C15 6365   5.772   0.603   4.932  0.2332  0.2679  0.3304
  128DPPC   O16 6366   5.891   0.596   4.960  0.3100 -0.3340 -0.1258
  128DPPC   C17 6367   5.728   0.735   4.868 -0.1085  0.1312  0.2777
  128DPPC   C18 6368   5.662   0.715   4.732  0.0140  0.1431  0.2155
  128DPPC   C19 6369   5.660   0.851   4.662 -0.0501  0.3963  0.7002
  128DPPC   C20 6370   5.586   0.846   4.528  0.3034 -0.1162  0.5193
  128DPPC   C21 6371   5.445   0.788   4.539 -0.2212  1.1404  0.5784
  128DPPC   C22 6372   5.368   0.821   4.411  0.1601  0.1015  0.0784
  128DPPC   C23 6373   5.220   0.794   4.436  0.2088 -0.2810 -0.0363
  128DPPC   C24 6374   5.147   0.780   4.302 -0.3486  0.4190  0.1924
  128DPPC   C25 6375   5.001   0.734   4.309 -0.2171  0.0148  0.3082
  128DPPC   C26 6376   4.960   0.724   4.162 -0.3578  0.2099  0.3341
  128DPPC   C27 6377   4.807   0.727   4.155 -0.3363 -0.2251 -0.5713
  128DPPC   C28 6378   4.765   0.758   4.011 -0.3345 -0.1242 -0.5505
  128DPPC   C29 6379   4.615   0.764   3.978 -0.3952  0.3518 -0.2125
  128DPPC   C30 6380   4.594   0.765   3.826 -0.0935 -0.4499 -0.2643
  128DPPC   C31 6381   4.445   0.766   3.793 -0.1857  0.3958  0.1486
  128DPPC   C32 6382   5.781   0.301   4.913 -0.1859  0.5306 -0.7105
  128DPPC   O33 6383   5.678   0.255   4.826 -0.5313 -0.5234  0.2205
  128DPPC   C34 6384   5.731   0.165   4.739 -0.0403 -0.1978  0.1822
  128DPPC   O35 6385   5.847   0.126   4.753 -0.1654 -0.4740  0.4568
  128DPPC   C36 6386   5.632   0.100   4.643  0.3810 -0.5685 -0.0047
  128DPPC   C37 6387   5.679   0.089   4.497 -0.7673  0.4305 -0.4678
  128DPPC   C38 6388   5.552   0.075   4.413 -0.9883 -0.0674 -0.0578
  128DPPC   C39 6389   5.573   0.042   4.265  0.1151  0.1292  0.0473
  128DPPC   C40 6390   5.434   0.024   4.205  0.1046  0.0082  0.1090
  128DPPC   C41 6391   5.446   0.007   4.053  0.6623  0.3907  0.1089
  128DPPC   C42 6392   5.310  -0.026   3.992  0.9182 -0.4702  0.0006
  128DPPC   C43 6393   5.334   0.005   3.844 -0.1459  0.0278 -0.0762
  128DPPC   C44 6394   5.203  -0.002   3.766 -0.0961 -0.3157 -0.1263
  128DPPC   C45 6395   5.238   0.024   3.619 -0.2305  0.1715 -0.0711
  128DPPC   C46 6396   5.115   0.001   3.532 -0.0113 -0.0880 -0.3123
  128DPPC   C47 6397   5.130   0.063   3.393 -0.0364 -0.2888 -0.4056
  128DPPC   C48 6398   5.016   0.004   3.310 -0.0722 -0.4581 -0.2366
  128DPPC   C49 6399   5.019  -0.146   3.338 -0.1698 -0.2822  0.7433
  128DPPC   C50 6400   4.917  -0.213   3.246  0.3734 -0.1793  0.0593
  129SOL     OW 6401   4.070   5.933   0.292 -0.5448  0.2353  0.1595
  129SOL    HW1 6402   4.078   5.993   0.212 -0.5160  0.9446  0.6836
  129SOL    HW2 6403   4.001   5.862   0.274  1.1603 -1.1126 -1.4053
  130SOL     OW 6404   1.795   0.126   6.537 -0.1367  0.0685  0.2347
  130SOL    HW1 6405   1.791   0.213   6.489 -0.0463 -0.7721 -1.3658
  130SOL    HW2 6406   1.831   0.140   6.629  0.9854  1.5469 -0.3931
  131SOL     OW 6407   0.493   1.357   1.061 -0.3782 -0.3638 -0.1257
  131SOL    HW1 6408   0.473   1.260   1.047  0.2763 -0.5284  0.0257
  131SOL    HW2 6409   0.408   1.408   1.074 -0.6911 -1.0084  0.3611
  132SOL     OW 6410   1.345   4.456   0.411  0.1047 -0.0187  0.0881
  132SOL    HW1 6411   1.290   4.539   0.422  1.0551  0.5100  1.1070
  132SOL    HW2 6412   1.365   4.442   0.315 -1.8613 -0.2849 -0.3382
  133SOL     OW 6413   1.210   1.682   0.521  0.0012  0.5398 -0.1344
  133SOL    HW1 6414   1.140   1.625   0.478 -0.9601  0.4679  1.4424
  133SOL    HW2 6415   1.167   1.765   0.557  0.2676 -0.4449  2.7043
  134SOL     OW 6416   3.230   4.795   6.635 -0.3681 -0.2529  0.3192
  134SOL    HW1 6417   3.175   4.871   6.600 -1.3237 -0.9394  0.2775
  134SOL    HW2 6418   3.221   4.717   6.573 -2.0731 -1.4917  2.0422
  135SOL     OW 6419   0.612   2.082   6.102  0.6570  0.3125 -0.1048
  135SOL    HW1 6420   0.696   2.135   6.100 -0.7720  2.7873  0.6234
  135SOL    HW2 6421   0.563   2.093   6.016  0.0515  0.7164  0.2856
  136SOL     OW 6422   2.886   5.996   5.969 -0.1950  0.0663 -0.3652
  136SOL    HW1 6423   2.901   5.913   6.023 -2.7427 -1.2331 -1.4725
  136SOL    HW2 6424   2.929   5.986   5.880  0.3486  0.3985 -0.1484
  137SOL     OW 6425   5.507   0.816   0.841  0.2231  0.2281  0.2415
  137SOL    HW1 6426   5.499   0.759   0.759 -3.4713  0.0406  0.5513
  137SOL    HW2 6427   5.559   0.898   0.819  4.1745 -2.2814 -0.6748
  138SOL     OW 6428   0.039   1.647   0.069  0.0869  0.3960  0.6678
  138SOL    HW1 6429   0.041   1.552   0.098 -1.4498  0.2027  0.2299
  138SOL    HW2 6430   0.076   1.705   0.141 -2.5812 -0.1694  2.6542
  139SOL     OW 6431   0.903   0.896   6.073 -0.0433  0.1875  0.0089
  139SOL    HW1 6432   0.861   0.955   6.142 -2.4430 -0.0672 -1.1201
  139SOL    HW2 6433   0.982   0.849   6.112  1.4532  3.3958  1.2264
  140SOL     OW 6434   5.463   4.183   1.330  0.4676 -0.1113  0.2988
  140SOL    HW1 6435   5.379   4.189   1.278 -0.5538 -0.3066  1.8510
  140SOL    HW2 6436   5.479   4.270   1.378 -0.2301 -0.8666  1.9782
  141SOL     OW 6437   1.689   4.794   2.068  0.5180  0.5106  0.0120
  141SOL    HW1 6438   1.619   4.860   2.039  1.1855  0.6500 -1.3583
  141SOL    HW2 6439   1.663   4.702   2.038  0.1595  0.3078  0.9053
  142SOL     OW 6440   1.696   5.015   0.202 -0.4788 -0.1334  0.3046
  142SOL    HW1 6441   1.745   5.101   0.211  0.5771 -0.8024  1.2389
  142SOL    HW2 6442   1.761   4.939   0.207 -1.5300 -1.0239  0.8778
  143SOL     OW 6443   2.944   0.337   1.041  0.2005  0.4226  0.1871
  143SOL    HW1 6444   2.923   0.299   0.951 -0.6356 -2.2658  1.4189
  143SOL    HW2 6445   3.041   0.361   1.045  0.0936  1.2762 -1.6334
  144SOL     OW 6446   5.505   5.756   0.605  0.8520  0.5951  0.6146
  144SOL    HW1 6447   5.527   5.676   0.661  3.2079  0.4583 -0.4329
  144SOL    HW2 6448   5.500   5.730   0.509 -1.7839  1.1116  0.5166
  145SOL     OW 6449   5.341   5.259   1.447  0.1149  0.0243  0.3806
  145SOL    HW1 6450   5.335   5.165   1.482 -1.4894  0.2841  0.8727
  145SOL    HW2 6451   5.328   5.323   1.523 -2.0101  0.6116 -0.4157
  146SOL     OW 6452   4.480   3.484   0.099 -0.1802  0.1505  0.4860
  146SOL    HW1 6453   4.427   3.535   0.167  0.1168 -0.8015  1.4597
  146SOL    HW2 6454   4.419   3.422   0.049 -0.1099 -0.5239  1.2084
  147SOL     OW 6455   0.389   4.383   0.527  0.5992  0.4466 -0.0599
  147SOL    HW1 6456   0.320   4.446   0.491 -0.8218 -0.3974  1.0703
  147SOL    HW2 6457   0.384   4.381   0.626 -2.0937 -4.0860  0.0378
  148SOL     OW 6458   5.533   5.405   6.364 -0.6062  0.0234  0.4541
  148SOL    HW1 6459   5.613   5.463   6.345  0.4022 -0.7111  2.1883
  148SOL    HW2 6460   5.486   5.438   6.445 -0.3330 -1.2340  1.1493
  149SOL     OW 6461   2.207   3.153   0.413  0.4259  0.1749 -0.4199
  149SOL    HW1 6462   2.126   3.132   0.468 -1.2289  0.7051 -2.4996
  149SOL    HW2 6463   2.285   3.170   0.473 -1.1111  0.1816  1.6919
  150SOL     OW 6464   5.148   0.884   5.546  0.3271  0.2431 -0.2177
  150SOL    HW1 6465   5.174   0.794   5.513 -0.8881 -0.0633 -0.3867
  150SOL    HW2 6466   5.173   0.892   5.643 -1.6597 -1.2035  0.4897
  151SOL     OW 6467   1.509   5.223   5.208  0.3083 -0.3838  0.2705
  151SOL    HW1 6468   1.549   5.228   5.300  1.6189 -1.0629 -0.2398
  151SOL    HW2 6469   1.547   5.296   5.151 -0.3626 -0.0797  0.2073
  152SOL     OW 6470   1.670   4.879   4.523 -0.4774  0.5294 -0.1641
  152SOL    HW1 6471   1.760   4.862   4.483 -1.0820 -0.0212 -1.3315
  152SOL    HW2 6472   1.599   4.860   4.455 -1.4701  1.2519  0.6457
  153SOL     OW 6473   2.377   1.199   5.275  0.4060 -0.0530 -0.7834
  153SOL    HW1 6474   2.322   1.211   5.358  2.6671  0.6203  0.7061
  153SOL    HW2 6475   2.317   1.178   5.198 -1.7159 -1.6257  1.1648
  154SOL     OW 6476   1.989   5.362   0.624 -0.1656  0.1552 -0.3530
  154SOL    HW1 6477   1.954   5.327   0.711 -1.4675 -0.9086 -1.2699
  154SOL    HW2 6478   2.029   5.287   0.571 -1.2045  0.3744 -1.5093
  155SOL     OW 6479   1.126   3.404   5.459  0.2688 -0.0840  0.3197
  155SOL    HW1 6480   1.136   3.312   5.495 -0.0155  1.1183  3.8630
  155SOL    HW2 6481   1.177   3.468   5.516 -0.1546  2.0812 -1.5784
  156SOL     OW 6482   2.078   0.252   6.153  0.3464  0.1375 -0.5556
  156SOL    HW1 6483   2.115   0.330   6.205 -0.5747  0.3044 -0.1355
  156SOL    HW2 6484   2.077   0.274   6.056  1.4473  0.0845 -0.5993
  157SOL     OW 6485   2.139   0.959   1.374  0.1232 -0.4861  0.2874
  157SOL    HW1 6486   2.064   1.019   1.346  1.0654  0.7647  0.3258
  157SOL    HW2 6487   2.222   0.984   1.324  0.4859 -1.9752  0.0874
  158SOL     OW 6488   2.496   0.125   1.643 -0.1869 -0.3021  0.2821
  158SOL    HW1 6489   2.523   0.206   1.591 -1.6637  0.3684  0.5093
  158SOL    HW2 6490   2.475   0.151   1.737  0.6479 -1.1889  0.7252
  159SOL     OW 6491   2.868   5.914   0.571  0.2442 -0.3822  0.1475
  159SOL    HW1 6492   2.806   5.983   0.533  0.1796  0.9558  2.5154
  159SOL    HW2 6493   2.813   5.842   0.615  0.3503 -1.2835 -1.1233
  160SOL     OW 6494   1.616   1.506   0.369 -0.1617  0.3474 -0.0653
  160SOL    HW1 6495   1.624   1.447   0.448 -0.5013 -0.8719 -0.9180
  160SOL    HW2 6496   1.528   1.490   0.324 -0.2372  1.4561 -0.3541
  161SOL     OW 6497   0.495   1.227   0.441 -0.0222 -0.2333  0.0728
  161SOL    HW1 6498   0.566   1.269   0.384 -0.4399 -0.3478 -0.5391
  161SOL    HW2 6499   0.461   1.294   0.507  0.3214 -0.0379  0.0535
  162SOL     OW 6500   0.612   5.142   4.881  0.4730 -0.6303 -0.2356
  162SOL    HW1 6501   0.663   5.228   4.875 -2.5943  1.3103 -0.9742
  162SOL    HW2 6502   0.549   5.135   4.803 -2.0214 -1.6708  1.7153
  163SOL     OW 6503   6.234   1.771   5.253  0.0873  0.1737  0.9445
  163SOL    HW1 6504   6.266   1.807   5.166  0.6979 -1.8077  0.3180
  163SOL    HW2 6505   6.140   1.737   5.243  0.4084 -0.6993  0.8660
  164SOL     OW 6506   2.886   5.627   6.560  0.3714  0.1160 -0.2096
  164SOL    HW1 6507   2.878   5.627   6.659 -1.5330  0.9193 -0.3246
  164SOL    HW2 6508   2.891   5.721   6.527 -0.4793 -0.0821 -0.9484
  165SOL     OW 6509   3.960   6.045   1.182 -0.4006  0.1631 -0.0647
  165SOL    HW1 6510   4.016   6.075   1.259  1.8195  0.9824 -1.8833
  165SOL    HW2 6511   4.017   6.040   1.099 -1.8791 -3.7421 -1.0913
  166SOL     OW 6512   0.235   3.877   0.682  0.2821  0.1735  0.3365
  166SOL    HW1 6513   0.292   3.952   0.717 -0.0911  0.4493  0.3531
  166SOL    HW2 6514   0.185   3.908   0.602  0.0904 -0.0456  0.3718
  167SOL     OW 6515   5.381   0.122   0.174 -0.0784  0.3113 -0.4956
  167SOL    HW1 6516   5.415   0.089   0.262 -0.8306  0.0362 -0.3049
  167SOL    HW2 6517   5.434   0.081   0.100 -0.2987 -0.4749 -0.2211
  168SOL     OW 6518   4.440   1.289   5.973 -0.0083 -0.0094  0.2633
  168SOL    HW1 6519   4.524   1.336   5.946  0.7448 -2.0236 -1.1883
  168SOL    HW2 6520   4.454   1.190   5.967 -2.0167 -0.4328  1.5477
  169SOL     OW 6521   4.480   4.176   1.431  0.5854  0.2400 -0.1402
  169SOL    HW1 6522   4.474   4.217   1.523 -0.2813 -0.4411  0.1222
  169SOL    HW2 6523   4.389   4.170   1.392  0.6201 -1.7202 -0.0320
  170SOL     OW 6524   3.531   6.275   0.363  0.1351 -0.2735 -0.4816
  170SOL    HW1 6525   3.625   6.280   0.330 -0.2873  0.3685 -1.6409
  170SOL    HW2 6526   3.506   6.362   0.406 -0.4688  0.2265 -1.7694
  171SOL     OW 6527   2.035   0.073   0.491 -0.0071  0.4618  0.7596
  171SOL    HW1 6528   2.055   0.115   0.580 -1.0742 -0.5904  1.5282
  171SOL    HW2 6529   1.978  -0.008   0.504 -0.9226  0.7750 -0.9615
  172SOL     OW 6530   3.477   3.496   1.192  0.3142  0.3481  0.1187
  172SOL    HW1 6531   3.559   3.472   1.243  0.3951  0.7463  0.1832
  172SOL    HW2 6532   3.488   3.588   1.154 -1.0803  1.4184  2.1714
  173SOL     OW 6533   5.988   3.263   6.078 -0.9340 -0.0092  0.0262
  173SOL    HW1 6534   5.954   3.301   6.164 -1.1618  1.2629 -0.5954
  173SOL    HW2 6535   5.949   3.172   6.063 -1.2067 -0.0684  1.0682
  174SOL     OW 6536   4.974   3.889   6.029  0.2785  0.2804 -0.0925
  174SOL    HW1 6537   4.934   3.978   6.007 -0.5457  0.5231  2.1142
  174SOL    HW2 6538   5.011   3.848   5.946 -0.2255  2.2179 -1.3510
  175SOL     OW 6539   3.026   4.662   1.106 -0.1983  0.2648 -0.2376
  175SOL    HW1 6540   3.028   4.566   1.079  1.4474  0.4925 -1.0942
  175SOL    HW2 6541   2.994   4.671   1.200  1.2045 -1.2761  0.4217
  176SOL     OW 6542   1.029   2.433   0.814 -0.6596  0.9602 -0.0118
  176SOL    HW1 6543   1.065   2.431   0.907  1.4875  1.0521 -0.7806
  176SOL    HW2 6544   1.099   2.468   0.752 -1.9924  0.7790 -1.7031
  177SOL     OW 6545   5.666   3.363   6.228 -0.4576 -0.0461 -0.6274
  177SOL    HW1 6546   5.714   3.348   6.141 -0.5943  0.6529 -0.8248
  177SOL    HW2 6547   5.726   3.412   6.291 -1.3586  2.1213 -1.3659
  178SOL     OW 6548   2.779   5.803   1.281  0.0486  0.8011  0.0817
  178SOL    HW1 6549   2.792   5.732   1.350  0.1990  1.7207  1.0221
  178SOL    HW2 6550   2.787   5.893   1.324 -3.3885  1.4498 -0.3994
  179SOL     OW 6551   4.184   6.078   1.014 -0.2334  0.5741  0.6299
  179SOL    HW1 6552   4.204   6.090   0.917 -0.9539 -0.3871  0.3401
  179SOL    HW2 6553   4.247   6.133   1.068  1.3764 -0.2731 -0.3071
  180SOL     OW 6554   2.664   0.330   5.676 -0.0037  0.0351 -1.1293
  180SOL    HW1 6555   2.586   0.334   5.613 -0.7276 -1.0400 -0.3590
  180SOL    HW2 6556   2.695   0.422   5.698 -0.8904  0.4735 -1.6694
  181SOL     OW 6557   1.243   4.871   5.805  0.8944  0.3631  0.0578
  181SOL    HW1 6558   1.259   4.871   5.707  1.7635 -0.1263  0.1917
  181SOL    HW2 6559   1.322   4.910   5.852 -0.2652  2.3781  0.4747
  182SOL     OW 6560   0.941   3.396   0.030 -0.5446 -0.0683 -0.7346
  182SOL    HW1 6561   0.919   3.491   0.005 -0.7451 -0.0669 -0.5587
  182SOL    HW2 6562   0.978   3.348  -0.049 -1.6564 -0.2180 -1.1764
  183SOL     OW 6563   1.759   2.862   0.681 -0.3934 -0.1837 -0.4476
  183SOL    HW1 6564   1.745   2.959   0.664  0.7363 -0.0796 -0.8832
  183SOL    HW2 6565   1.747   2.811   0.595 -0.4315 -0.3582 -0.3392
  184SOL     OW 6566   2.014   6.017   6.040  0.1026 -0.1022  0.4619
  184SOL    HW1 6567   1.964   6.077   6.103  1.8388  0.4974  1.3171
  184SOL    HW2 6568   2.063   5.947   6.091  2.1353  0.8346 -0.0974
  185SOL     OW 6569   5.340   3.546   1.303 -0.0842  0.5438  0.2065
  185SOL    HW1 6570   5.302   3.552   1.211  0.8745  2.0470 -0.1196
  185SOL    HW2 6571   5.265   3.531   1.368 -0.6048 -2.5396 -0.9204
  186SOL     OW 6572   1.099   5.444   6.165  0.5486  0.1478 -0.4802
  186SOL    HW1 6573   1.164   5.371   6.188  0.0015  0.1261  1.1011
  186SOL    HW2 6574   1.106   5.464   6.068  0.8804 -1.8461 -0.9160
  187SOL     OW 6575   0.927   4.417   6.167 -0.0569  0.3170 -0.4725
  187SOL    HW1 6576   0.977   4.403   6.252  1.3509  0.2628 -1.2717
  187SOL    HW2 6577   0.992   4.421   6.090 -0.7662  4.6994 -1.1324
  188SOL     OW 6578   3.653   2.324   6.489 -0.3359 -0.1323  1.1393
  188SOL    HW1 6579   3.704   2.383   6.551  3.0858 -1.8432  0.1454
  188SOL    HW2 6580   3.651   2.366   6.398 -0.3125 -0.2765  1.0720
  189SOL     OW 6581   0.143   3.466   4.829 -0.0474 -0.3526 -0.3862
  189SOL    HW1 6582   0.093   3.551   4.843 -1.4261 -1.3951  1.5585
  189SOL    HW2 6583   0.092   3.407   4.767  0.3049 -0.2434 -0.7832
  190SOL     OW 6584   3.363   2.511   6.293  0.1321 -0.3377  0.5896
  190SOL    HW1 6585   3.383   2.419   6.260  1.2813  0.4653 -1.0452
  190SOL    HW2 6586   3.267   2.533   6.275  0.2239 -0.6843 -0.3679
  191SOL     OW 6587   2.368   5.963   0.856 -0.0176  0.2767  0.0795
  191SOL    HW1 6588   2.438   5.895   0.874  0.3869  0.7142  0.1896
  191SOL    HW2 6589   2.287   5.919   0.817  0.1454 -0.2947  0.3814
  192SOL     OW 6590   0.612   5.591   0.051 -0.2363 -0.4911 -0.2859
  192SOL    HW1 6591   0.680   5.519   0.034 -0.9913 -1.1853 -0.4545
  192SOL    HW2 6592   0.622   5.626   0.144 -1.0915 -2.2084  0.5029
  193SOL     OW 6593   0.063   3.829   0.907  0.2679  0.3889 -0.0946
  193SOL    HW1 6594   0.023   3.901   0.851  1.2645  0.9307 -0.1330
  193SOL    HW2 6595   0.134   3.782   0.854  0.6363  0.3512  0.4298
  194SOL     OW 6596   2.916   0.515   6.097  0.1074  0.5011  0.1277
  194SOL    HW1 6597   2.910   0.601   6.147 -0.1676  0.1808  0.6509
  194SOL    HW2 6598   2.833   0.502   6.042  0.0561  0.4712  0.2119
  195SOL     OW 6599   3.977   3.916   6.207  0.0296 -0.0464 -0.1270
  195SOL    HW1 6600   3.929   3.911   6.295 -0.6713  1.1923 -0.4067
  195SOL    HW2 6601   4.071   3.945   6.222  0.2792 -1.0480  0.3100
  196SOL     OW 6602   5.251   3.056   0.115 -0.0738  0.1488 -0.4284
  196SOL    HW1 6603   5.201   3.119   0.056 -0.4518  0.3283  0.0812
  196SOL    HW2 6604   5.197   2.973   0.129  0.4845 -0.3723 -1.2218
  197SOL     OW 6605   2.474   5.991   0.181 -0.5363  0.5188 -0.1335
  197SOL    HW1 6606   2.479   5.976   0.082  0.5737 -1.1213  0.1357
  197SOL    HW2 6607   2.445   6.085   0.199  0.3540  1.1985 -2.0137
  198SOL     OW 6608   1.238   3.984   6.197 -0.0457 -0.4210  0.0379
  198SOL    HW1 6609   1.307   3.912   6.204  1.3989  0.8989 -0.1650
  198SOL    HW2 6610   1.178   3.980   6.277 -1.0491 -2.8415 -0.7345
  199SOL     OW 6611   0.180   2.116   0.358 -0.5364 -0.2336  0.1932
  199SOL    HW1 6612   0.233   2.126   0.274 -0.4411 -1.9335  0.0287
  199SOL    HW2 6613   0.219   2.175   0.429  0.8660 -0.5852 -0.2575
  200SOL     OW 6614   4.878   2.236   6.576  0.1395  0.0513  0.1993
  200SOL    HW1 6615   4.858   2.316   6.633 -1.6703 -0.1420 -0.1093
  200SOL    HW2 6616   4.892   2.266   6.481  0.0099  0.0623  0.1832
  201SOL     OW 6617   4.845   3.301   0.015  0.5327 -0.6289 -0.1170
  201SOL    HW1 6618   4.864   3.389  -0.028  0.9606  0.1230  1.5684
  201SOL    HW2 6619   4.925   3.241   0.005  0.7335 -0.3605 -0.1247
  202SOL     OW 6620   4.939   0.913   0.210  0.3633  0.1745 -0.2877
  202SOL    HW1 6621   4.931   0.874   0.118 -0.5081 -0.7077  0.1509
  202SOL    HW2 6622   4.863   0.881   0.266 -0.4937  2.6506  0.0634
  203SOL     OW 6623   4.058   5.136   1.461 -0.2239 -0.0158  0.4930
  203SOL    HW1 6624   4.076   5.225   1.419  0.8040 -0.4777 -0.0777
  203SOL    HW2 6625   3.994   5.147   1.537 -0.3639  1.1547  0.2203
  204SOL     OW 6626   1.157   1.142   5.681  0.6174 -0.1352 -0.3557
  204SOL    HW1 6627   1.141   1.051   5.643 -1.8424 -0.6680  1.6844
  204SOL    HW2 6628   1.227   1.138   5.751  0.3987 -0.5170 -0.1539
  205SOL     OW 6629   6.037   4.735   0.460  0.3413  0.4065 -0.0874
  205SOL    HW1 6630   6.106   4.797   0.421 -0.3507  0.5087 -1.2060
  205SOL    HW2 6631   6.070   4.700   0.548  2.9250 -1.4665 -1.6460
  206SOL     OW 6632   2.216   3.918   1.514  0.2926  0.2917  0.2716
  206SOL    HW1 6633   2.257   3.961   1.595 -2.1249  2.3539  0.5490
  206SOL    HW2 6634   2.153   3.847   1.543  0.1542  0.3610  0.1379
  207SOL     OW 6635   5.946   2.887   6.426 -0.3469 -0.2552  0.5032
  207SOL    HW1 6636   6.028   2.865   6.373  1.3772  0.5156  2.6978
  207SOL    HW2 6637   5.922   2.808   6.483 -0.1819  0.0699  1.0237
  208SOL     OW 6638   1.230   2.304   5.211  0.0384 -0.7933  0.5770
  208SOL    HW1 6639   1.143   2.310   5.259 -1.2664 -0.4440 -1.6723
  208SOL    HW2 6640   1.229   2.368   5.133  2.9310  0.3834  1.3680
  209SOL     OW 6641   2.767   3.912   0.211 -0.6027 -0.0808  0.5590
  209SOL    HW1 6642   2.726   3.847   0.274  0.6924 -1.3751  0.1307
  209SOL    HW2 6643   2.720   4.000   0.218 -1.5619 -0.6763  2.0897
  210SOL     OW 6644   0.623   2.457   6.075 -0.3945 -0.1145  1.0912
  210SOL    HW1 6645   0.602   2.488   5.983 -2.5091 -2.5953  0.6000
  210SOL    HW2 6646   0.543   2.411   6.114  0.6757  0.1822  3.8896
  211SOL     OW 6647   4.960   4.244   0.396  0.2296  0.1543  0.4058
  211SOL    HW1 6648   5.038   4.200   0.440  1.1515  0.4419 -0.9206
  211SOL    HW2 6649   4.990   4.327   0.350 -1.0899  0.9476  0.9164
  212SOL     OW 6650   1.933   0.294   0.326  0.3695  0.4239 -0.5063
  212SOL    HW1 6651   1.945   0.218   0.390 -1.9776 -1.4636 -2.1251
  212SOL    HW2 6652   1.948   0.380   0.374  0.1749 -0.9328  2.2004
  213SOL     OW 6653   3.562   4.035   0.158  0.2324  0.0946 -0.0265
  213SOL    HW1 6654   3.507   4.118   0.171 -1.9042 -1.4647  1.6942
  213SOL    HW2 6655   3.526   3.984   0.079  0.0360 -0.2925  0.3079
  214SOL     OW 6656   1.635   2.360   5.765  0.6151  0.5551  0.3938
  214SOL    HW1 6657   1.571   2.407   5.826 -0.1685  0.1334 -0.0814
  214SOL    HW2 6658   1.585   2.327   5.684  0.9887 -1.6097  0.9802
  215SOL     OW 6659   3.948   1.864   6.033  0.6972 -0.2402 -0.2349
  215SOL    HW1 6660   4.011   1.848   6.109  0.3562 -0.7432 -0.0576
  215SOL    HW2 6661   3.991   1.834   5.948  1.7092  1.7344 -0.4871
  216SOL     OW 6662   5.010   0.536   0.099  0.2722 -0.0332 -0.1359
  216SOL    HW1 6663   5.109   0.547   0.089  0.0634 -0.1134 -2.9237
  216SOL    HW2 6664   4.963   0.617   0.065 -0.6690 -1.3109 -2.0634
  217SOL     OW 6665   1.662   1.298   0.579 -0.0220  0.1896 -0.2176
  217SOL    HW1 6666   1.618   1.360   0.645  0.3925  1.1489 -0.8102
  217SOL    HW2 6667   1.759   1.321   0.571 -0.0135 -0.0728 -0.9712
  218SOL     OW 6668   2.820   5.573   5.875  0.2831 -0.3338 -0.4277
  218SOL    HW1 6669   2.861   5.634   5.942  0.8413  0.5379 -1.5364
  218SOL    HW2 6670   2.811   5.482   5.915  2.1342 -0.2528  0.2722
  219SOL     OW 6671   3.922   1.434   6.055  0.6958 -0.1004 -0.3361
  219SOL    HW1 6672   4.015   1.458   6.025  1.1523  0.2872  1.2877
  219SOL    HW2 6673   3.885   1.508   6.111 -1.0380  0.2200 -1.7929
  220SOL     OW 6674   1.417   6.324   1.099 -0.0735 -0.0170 -0.3467
  220SOL    HW1 6675   1.485   6.281   1.158 -0.5920  0.3051  0.5024
  220SOL    HW2 6676   1.361   6.386   1.153 -1.8830 -1.2214 -0.7481
  221SOL     OW 6677   3.604   5.873   5.585  0.0229 -0.2380  0.5471
  221SOL    HW1 6678   3.604   5.844   5.681  0.6020 -2.5215 -0.0769
  221SOL    HW2 6679   3.610   5.792   5.526  0.5909  1.1557 -1.4018
  222SOL     OW 6680   5.788   4.544   6.129  0.1193 -0.2547  0.3387
  222SOL    HW1 6681   5.819   4.587   6.214 -1.1854  2.0411 -0.2484
  222SOL    HW2 6682   5.728   4.467   6.151 -0.6078  0.6093  1.5636
  223SOL     OW 6683   2.146   2.922   4.826  0.1751 -0.1437  0.0006
  223SOL    HW1 6684   2.083   2.999   4.824 -0.7292 -0.8272  0.7717
  223SOL    HW2 6685   2.151   2.880   4.735 -1.7102 -1.0029  0.2348
  224SOL     OW 6686   3.396   6.140   6.104  0.4324 -0.2126 -0.3331
  224SOL    HW1 6687   3.312   6.194   6.114 -0.7921 -1.9154 -0.9721
  224SOL    HW2 6688   3.442   6.134   6.192  0.4050  1.5151 -0.1667
  225SOL     OW 6689   1.098   3.699   0.865  0.0056  0.7058 -0.0490
  225SOL    HW1 6690   1.118   3.797   0.864  1.2728  0.5153  1.8173
  225SOL    HW2 6691   1.003   3.684   0.894 -0.7647  1.3971 -2.0738
  226SOL     OW 6692   3.476   2.295   5.569 -0.1118  0.0870  0.1874
  226SOL    HW1 6693   3.437   2.350   5.495  0.4406  1.0492  0.5866
  226SOL    HW2 6694   3.428   2.316   5.654 -1.1517 -1.4680  0.0053
  227SOL     OW 6695   3.793   2.354   5.274  0.4693  0.1993 -0.3871
  227SOL    HW1 6696   3.814   2.451   5.276 -0.9269  0.5300  1.5200
  227SOL    HW2 6697   3.805   2.319   5.181  1.2346  2.1205 -1.0620
  228SOL     OW 6698   3.840   4.809   4.975  0.2343  0.0509 -0.7466
  228SOL    HW1 6699   3.898   4.807   4.893  1.2017 -0.7522 -0.0784
  228SOL    HW2 6700   3.784   4.892   4.974  1.8773  1.2213 -1.1183
  229SOL     OW 6701   6.042   4.778   5.860 -0.4723  0.1738  0.4635
  229SOL    HW1 6702   6.134   4.776   5.899 -0.6713  1.6136  1.0389
  229SOL    HW2 6703   5.993   4.694   5.885  0.0534  0.2228  1.6973
  230SOL     OW 6704   0.753   3.836   0.134  0.4080 -0.3520  0.1703
  230SOL    HW1 6705   0.711   3.900   0.070 -0.8479  0.3513  1.6415
  230SOL    HW2 6706   0.851   3.855   0.141  0.6049 -0.4976 -1.5467
  231SOL     OW 6707   1.541   4.946   6.418 -0.3599 -0.3770  1.4750
  231SOL    HW1 6708   1.550   5.045   6.406  0.2280 -0.1814  3.2768
  231SOL    HW2 6709   1.516   4.926   6.513 -2.0833 -1.8909  0.7586
  232SOL     OW 6710   4.834   0.094   6.274 -0.1393  0.4776  0.1322
  232SOL    HW1 6711   4.911   0.032   6.288 -1.5082 -1.2066  0.6092
  232SOL    HW2 6712   4.787   0.069   6.189 -0.9068  0.6184  0.5051
  233SOL     OW 6713   0.518   2.249   5.812  0.3221  0.8452  0.1615
  233SOL    HW1 6714   0.601   2.254   5.756  0.4779  2.0130  0.4812
  233SOL    HW2 6715   0.454   2.185   5.770 -0.2540  2.8525 -2.3040
  234SOL     OW 6716   2.313   0.362   6.324 -0.0697 -0.0181  0.1118
  234SOL    HW1 6717   2.308   0.382   6.422 -2.0730  2.5667 -0.4153
  234SOL    HW2 6718   2.338   0.445   6.275 -1.3205 -0.6865 -1.7396
  235SOL     OW 6719   1.728   4.244   0.506  0.2007 -0.1372 -0.3179
  235SOL    HW1 6720   1.816   4.230   0.461  0.8040 -0.0474  0.7872
  235SOL    HW2 6721   1.720   4.180   0.583 -0.8342 -0.3491 -0.5889
  236SOL     OW 6722   5.653   5.923   6.060 -0.4725 -0.4046 -0.3394
  236SOL    HW1 6723   5.738   5.954   6.019  0.9860 -1.5607  1.6341
  236SOL    HW2 6724   5.583   5.914   5.989  1.3331 -0.4654 -2.2046
  237SOL     OW 6725   2.222   3.535   5.699 -0.1028 -0.6371  0.4909
  237SOL    HW1 6726   2.181   3.449   5.731 -1.5810 -0.7621 -1.5678
  237SOL    HW2 6727   2.254   3.587   5.778 -0.0997 -2.5990  1.8698
  238SOL     OW 6728   1.384   2.054   5.715  0.2475  0.1283 -0.0842
  238SOL    HW1 6729   1.374   2.142   5.761  0.4997 -0.3910  0.9924
  238SOL    HW2 6730   1.295   2.025   5.678 -0.6319 -0.7129  2.4820
  239SOL     OW 6731   2.774   1.673   0.903  0.7516  0.7352 -1.1932
  239SOL    HW1 6732   2.813   1.752   0.856  0.9403  1.4109  0.0493
  239SOL    HW2 6733   2.703   1.704   0.966  0.2844 -0.1777 -1.2562
  240SOL     OW 6734   0.915   3.736   5.910  0.4536  0.2746 -0.1295
  240SOL    HW1 6735   0.882   3.724   6.004  0.8394 -1.5609 -0.1864
  240SOL    HW2 6736   0.930   3.833   5.892 -0.0407  0.6987  1.5593
  241SOL     OW 6737   0.520   2.181   6.497 -0.0319  0.3208 -0.1175
  241SOL    HW1 6738   0.434   2.230   6.484  0.8609  2.0530  0.2039
  241SOL    HW2 6739   0.593   2.246   6.519  1.7176 -0.9069 -1.8981
  242SOL     OW 6740   1.121   3.689   1.715  0.0561 -0.4156 -0.3798
  242SOL    HW1 6741   1.110   3.606   1.769  0.7955 -0.3811 -0.1771
  242SOL    HW2 6742   1.058   3.759   1.749 -0.2187 -0.7303 -0.2362
  243SOL     OW 6743   5.287   3.057   0.413  0.5722  1.0937  0.3478
  243SOL    HW1 6744   5.370   3.015   0.449 -0.8888 -1.5395  0.9229
  243SOL    HW2 6745   5.288   3.053   0.313 -0.0333 -1.7248  0.3471
  244SOL     OW 6746   5.179   5.462   5.464 -0.0167  0.4210 -0.3239
  244SOL    HW1 6747   5.259   5.416   5.425  0.8300  1.6222 -0.0700
  244SOL    HW2 6748   5.138   5.521   5.395 -0.5687 -0.0241 -0.3854
  245SOL     OW 6749   3.536   4.879   0.423 -0.0890  0.7779 -0.8514
  245SOL    HW1 6750   3.463   4.946   0.437 -0.3905  0.5595 -1.3236
  245SOL    HW2 6751   3.619   4.926   0.393 -0.5586  0.8663 -2.0604
  246SOL     OW 6752   3.566   5.629   5.479  0.2139 -0.7419  0.4361
  246SOL    HW1 6753   3.518   5.579   5.551  0.8609 -1.2347  0.5471
  246SOL    HW2 6754   3.643   5.573   5.446 -1.5030 -1.6642 -2.4079
  247SOL     OW 6755   5.803   5.662   0.658 -0.1730  0.2965  0.1707
  247SOL    HW1 6756   5.798   5.752   0.614 -1.3003  0.6209  0.9239
  247SOL    HW2 6757   5.711   5.625   0.667  0.3349 -1.3382 -0.9029
  248SOL     OW 6758   2.489   2.117   5.324  0.2584  0.2404 -0.2189
  248SOL    HW1 6759   2.511   2.195   5.382  1.3770 -0.0479 -0.2281
  248SOL    HW2 6760   2.573   2.082   5.283 -0.3730 -0.2918 -1.0789
  249SOL     OW 6761   3.708   1.983   5.925  0.3314 -0.6048 -0.0687
  249SOL    HW1 6762   3.643   1.914   5.894  0.4485 -1.9204  2.4090
  249SOL    HW2 6763   3.800   1.945   5.928  0.9358  0.6268 -1.5725
  250SOL     OW 6764   3.725   4.074   0.592 -0.2555 -0.5785  0.2556
  250SOL    HW1 6765   3.710   4.047   0.497  0.3304 -0.1673  0.0381
  250SOL    HW2 6766   3.791   4.013   0.635 -0.8816 -1.0560  0.5475
  251SOL     OW 6767   2.092   1.763   4.925  0.0519  0.6159 -0.3563
  251SOL    HW1 6768   2.142   1.845   4.897 -0.8853  0.5657 -2.3464
  251SOL    HW2 6769   1.996   1.786   4.939 -0.7354 -0.4542 -3.2051
  252SOL     OW 6770   6.189   3.303   1.099 -0.1163 -0.0042 -0.0106
  252SOL    HW1 6771   6.203   3.386   1.153 -0.0370  0.9086 -1.3945
  252SOL    HW2 6772   6.091   3.286   1.088 -0.1333 -0.1909  0.3830
  253SOL     OW 6773   3.219   4.141   0.602  0.2560 -0.2250 -0.1347
  253SOL    HW1 6774   3.180   4.085   0.529  0.7314 -1.0436  0.2174
  253SOL    HW2 6775   3.290   4.201   0.565 -1.3894  1.3635 -0.7972
  254SOL     OW 6776   3.876   5.785   0.198  0.1560  0.1287 -0.2566
  254SOL    HW1 6777   3.820   5.829   0.268 -0.2392 -0.5685 -0.1349
  254SOL    HW2 6778   3.841   5.694   0.178  0.0981  0.4150 -1.5646
  255SOL     OW 6779   1.550   3.380   6.521  0.4643  0.1737 -0.1953
  255SOL    HW1 6780   1.474   3.317   6.539  1.2809 -0.4123  1.4128
  255SOL    HW2 6781   1.543   3.415   6.428 -0.3527 -1.8435 -0.9588
  256SOL     OW 6782   4.243   0.580   5.432  0.6066 -0.0125 -0.0173
  256SOL    HW1 6783   4.208   0.655   5.376 -0.4372 -0.6440 -0.2237
  256SOL    HW2 6784   4.282   0.618   5.516  1.4034  0.8691 -0.7497
  257SOL     OW 6785   1.342   6.063   0.369  0.3016  0.4189  0.3727
  257SOL    HW1 6786   1.400   6.071   0.288 -0.7455 -1.7373 -0.6725
  257SOL    HW2 6787   1.383   5.999   0.434  0.2454  0.7196  0.7050
  258SOL     OW 6788   2.038   3.507   6.351 -0.3344 -0.1593 -0.6629
  258SOL    HW1 6789   2.090   3.529   6.269 -0.3140  2.2256 -0.0715
  258SOL    HW2 6790   2.053   3.411   6.375  0.4746 -0.6261 -2.8213
  259SOL     OW 6791   4.822   5.910   1.893  0.3296  0.0068 -0.1433
  259SOL    HW1 6792   4.791   5.818   1.918  0.2857 -0.5513 -2.0758
  259SOL    HW2 6793   4.922   5.914   1.895  0.4590 -0.8898 -2.4947
  260SOL     OW 6794   3.972   1.795   5.490  0.1762 -0.0669 -0.6293
  260SOL    HW1 6795   4.064   1.757   5.495  1.6283  2.8688 -2.0431
  260SOL    HW2 6796   3.940   1.792   5.395  0.7870  2.8035 -1.0382
  261SOL     OW 6797   4.055   1.841   5.749  0.3949  0.0231 -0.1702
  261SOL    HW1 6798   4.155   1.838   5.747  0.3795 -1.6366  0.0688
  261SOL    HW2 6799   4.020   1.807   5.662  0.0281  0.1547 -0.0731
  262SOL     OW 6800   5.758   3.352   5.929 -0.0212  0.1116 -0.0559
  262SOL    HW1 6801   5.769   3.435   5.875 -1.3129 -0.4239 -1.2068
  262SOL    HW2 6802   5.847   3.312   5.948  0.5249  0.9745 -0.7642
  263SOL     OW 6803   4.079   1.840   0.129  0.1479 -0.0071 -0.2004
  263SOL    HW1 6804   4.151   1.771   0.119 -0.2208 -0.3709 -0.3598
  263SOL    HW2 6805   4.070   1.864   0.226 -0.1608 -0.6599 -0.0609
  264SOL     OW 6806   2.648   4.444   1.690  0.4754  0.2675  0.3432
  264SOL    HW1 6807   2.627   4.417   1.784  0.8769  0.0749  0.3780
  264SOL    HW2 6808   2.642   4.544   1.682  3.1703  0.5970  1.2844
  265SOL     OW 6809   1.009   4.536   6.672 -0.5996 -0.0856  0.6918
  265SOL    HW1 6810   0.946   4.499   6.740  1.0677  0.9543  2.9200
  265SOL    HW2 6811   1.042   4.625   6.702  0.5043  0.2471 -1.3235
  266SOL     OW 6812   3.184   4.284   0.136  0.8400 -0.1730 -0.1083
  266SOL    HW1 6813   3.095   4.254   0.169 -0.4359 -2.4285 -4.7720
  266SOL    HW2 6814   3.195   4.382   0.152 -2.7731  0.3114  0.0382
  267SOL     OW 6815   3.150   5.201   6.273 -0.0467 -0.3472  0.4970
  267SOL    HW1 6816   3.112   5.293   6.284  1.1932  0.3617 -0.8052
  267SOL    HW2 6817   3.244   5.200   6.307  0.5464 -0.6443 -1.1040
  268SOL     OW 6818   4.289   5.779   0.332 -0.9091  0.3553 -0.0522
  268SOL    HW1 6819   4.210   5.838   0.316 -1.2066  0.6622  2.2133
  268SOL    HW2 6820   4.265   5.684   0.312 -1.3456  0.6334 -0.8798
  269SOL     OW 6821   2.144   0.900   5.873 -0.1471  0.1146 -0.0859
  269SOL    HW1 6822   2.171   0.991   5.902 -0.7880  0.3548 -0.2355
  269SOL    HW2 6823   2.101   0.905   5.783  1.0662 -0.5090 -0.7325
  270SOL     OW 6824   1.850   4.171   2.046  0.2082 -0.9003  0.2015
  270SOL    HW1 6825   1.833   4.074   2.028 -1.1278 -0.7133  0.3464
  270SOL    HW2 6826   1.944   4.183   2.080  0.6050 -2.0479 -0.4357
  271SOL     OW 6827   1.339   4.891   0.739  0.1133 -0.2981  0.5690
  271SOL    HW1 6828   1.414   4.834   0.772 -0.3241 -1.4450 -0.3720
  271SOL    HW2 6829   1.308   4.858   0.651 -1.4317  0.2366  0.8812
  272SOL     OW 6830   2.607   5.179   1.004 -0.0536 -0.3642 -0.5956
  272SOL    HW1 6831   2.647   5.220   1.086  0.8435 -1.3065 -0.5440
  272SOL    HW2 6832   2.616   5.243   0.928  1.1918 -0.3666 -0.4831
  273SOL     OW 6833   1.022   2.933   1.058  0.7139  0.1419  0.2737
  273SOL    HW1 6834   1.025   2.954   1.156 -0.6616  0.5655  0.2517
  273SOL    HW2 6835   0.982   2.842   1.045 -1.4332  1.0385  0.0626
  274SOL     OW 6836   1.211   3.176   5.579 -0.0067 -0.4671 -0.0473
  274SOL    HW1 6837   1.281   3.168   5.650 -0.7203 -2.1616  0.5216
  274SOL    HW2 6838   1.254   3.170   5.489  0.6703 -0.5843  0.2802
  275SOL     OW 6839   0.954   3.119   5.524  0.4308  0.4482  0.1718
  275SOL    HW1 6840   0.960   3.099   5.426 -2.3533 -0.2014  0.0469
  275SOL    HW2 6841   1.046   3.125   5.563  1.5952  0.3070 -2.3777
  276SOL     OW 6842   2.335   2.908   5.262  0.4269 -0.6162  0.2712
  276SOL    HW1 6843   2.344   2.955   5.175  2.0105 -0.1256  0.6687
  276SOL    HW2 6844   2.348   2.809   5.248 -0.3377 -0.6588 -0.1824
  277SOL     OW 6845   3.820   5.777   5.207  0.0045 -0.0026 -0.3759
  277SOL    HW1 6846   3.885   5.706   5.180 -0.5994 -0.2283 -1.2588
  277SOL    HW2 6847   3.727   5.743   5.195 -0.3051  1.2220 -1.6122
  278SOL     OW 6848   3.652   6.105   0.793 -0.0670 -0.4237  0.2771
  278SOL    HW1 6849   3.638   6.051   0.876 -0.5141  0.5673  0.8684
  278SOL    HW2 6850   3.634   6.201   0.813  2.3412  0.2075 -0.3103
  279SOL     OW 6851   6.119   1.317   1.290 -0.0519 -0.1145 -0.1226
  279SOL    HW1 6852   6.171   1.236   1.264  1.2082  0.2211  1.1811
  279SOL    HW2 6853   6.180   1.396   1.294  0.2320 -0.2625  4.4549
  280SOL     OW 6854   2.355   1.011   0.616  0.2019 -0.0030  0.0362
  280SOL    HW1 6855   2.418   0.937   0.596 -1.2107 -1.0447 -0.7411
  280SOL    HW2 6856   2.314   1.045   0.531 -0.7720  0.1870  0.5601
  281SOL     OW 6857   0.939   4.856   6.042 -0.0505  0.4876 -0.2058
  281SOL    HW1 6858   1.032   4.821   6.031  0.5348  0.7063  3.0666
  281SOL    HW2 6859   0.941   4.956   6.047 -0.4056  0.4774  0.1830
  282SOL     OW 6860   1.920   4.936   6.300  0.2911 -0.4038  0.0945
  282SOL    HW1 6861   1.993   4.965   6.237  1.2136 -1.4428  0.6346
  282SOL    HW2 6862   1.896   5.012   6.360  0.7482  0.0339 -0.2641
  283SOL     OW 6863   3.749   1.180   0.023  0.0987  0.0628  0.3537
  283SOL    HW1 6864   3.736   1.227   0.110  2.1228  0.4461  0.4917
  283SOL    HW2 6865   3.723   1.241  -0.052  0.6955  0.6383  0.6101
  284SOL     OW 6866   5.393   5.122   0.115 -0.0256 -0.9177 -0.0481
  284SOL    HW1 6867   5.446   5.207   0.115 -1.2443 -0.0748  2.3159
  284SOL    HW2 6868   5.456   5.044   0.120  1.0554 -0.0428  0.5058
  285SOL     OW 6869   5.047   1.459   5.721 -0.2966  0.5077  0.1455
  285SOL    HW1 6870   5.027   1.509   5.806  2.0507  0.3534  0.8742
  285SOL    HW2 6871   5.058   1.525   5.646 -1.9699  0.6753  0.0158
  286SOL     OW 6872   5.612   1.127   4.934 -0.3812  0.1587  0.3270
  286SOL    HW1 6873   5.673   1.077   4.995  0.6886  0.7279 -0.2269
  286SOL    HW2 6874   5.616   1.087   4.842 -1.1559 -0.0469  0.3829
  287SOL     OW 6875   5.652   1.095   0.260 -0.0449  0.3111  0.1947
  287SOL    HW1 6876   5.680   1.131   0.171  1.8853  0.0761  0.6585
  287SOL    HW2 6877   5.564   1.134   0.285  0.9284  3.0460 -0.2878
  288SOL     OW 6878   3.709   2.438   6.213 -0.5261 -0.1556 -0.2384
  288SOL    HW1 6879   3.764   2.492   6.277  2.9860 -1.2667 -2.0812
  288SOL    HW2 6880   3.706   2.484   6.125 -0.5601 -1.2234 -0.8120
  289SOL     OW 6881   1.893   1.697   5.692  0.0321  0.4894  0.0806
  289SOL    HW1 6882   1.878   1.601   5.669  0.0795  0.6326 -0.5487
  289SOL    HW2 6883   1.925   1.747   5.611  0.3825  0.9563  0.4967
  290SOL     OW 6884   0.584   3.106   6.410 -0.5581 -0.7035 -0.2569
  290SOL    HW1 6885   0.576   3.153   6.323 -0.3625  0.0045  0.0998
  290SOL    HW2 6886   0.538   3.017   6.405 -0.0146 -0.9351 -1.2647
  291SOL     OW 6887   1.419   0.829   0.386  0.0473 -0.3098 -0.1882
  291SOL    HW1 6888   1.446   0.826   0.482  3.6394  0.6365 -1.0306
  291SOL    HW2 6889   1.449   0.745   0.341  0.0459  0.0450 -0.8521
  292SOL     OW 6890   0.900   1.695   6.446 -0.4857 -0.5236  0.2531
  292SOL    HW1 6891   0.986   1.742   6.463 -0.1202 -0.9651 -0.3346
  292SOL    HW2 6892   0.885   1.626   6.517  0.6637 -1.8485 -0.7325
  293SOL     OW 6893   5.863   3.668   0.978  0.2012 -0.4152 -0.5661
  293SOL    HW1 6894   5.823   3.586   0.938 -1.7028  0.4924 -0.6245
  293SOL    HW2 6895   5.848   3.667   1.077  0.9521 -0.5448 -0.4493
  294SOL     OW 6896   2.578   4.140   1.413 -0.2466  0.2327  0.4304
  294SOL    HW1 6897   2.604   4.236   1.409 -0.3416  0.2313 -0.3588
  294SOL    HW2 6898   2.602   4.102   1.503  2.2063  0.3102 -0.1192
  295SOL     OW 6899   1.409   4.544   0.728  0.1246  0.0644  0.4329
  295SOL    HW1 6900   1.457   4.604   0.791  0.2333 -2.2473  2.7044
  295SOL    HW2 6901   1.464   4.534   0.644 -0.2238  3.5119 -0.3514
  296SOL     OW 6902   1.987   3.880   1.748  0.1767 -0.1809  0.4594
  296SOL    HW1 6903   1.908   3.860   1.807 -0.3594 -2.0672 -0.8011
  296SOL    HW2 6904   1.956   3.913   1.659  0.7950 -0.8275 -0.0120
  297SOL     OW 6905   2.623   2.855   0.514  0.3275 -0.5087  0.3369
  297SOL    HW1 6906   2.593   2.774   0.464  1.1109  0.0634 -1.1161
  297SOL    HW2 6907   2.672   2.827   0.596 -1.2573 -1.4656  1.0198
  298SOL     OW 6908   4.023   2.818   6.564 -0.4775 -0.4488  0.0138
  298SOL    HW1 6909   4.048   2.890   6.629 -0.4107 -0.2647 -0.2138
  298SOL    HW2 6910   4.071   2.833   6.478 -0.6722 -0.6116 -0.1241
  299SOL     OW 6911   1.135   5.141   0.504  0.2128 -0.8013 -0.6968
  299SOL    HW1 6912   1.167   5.075   0.437  0.6019  0.1677 -1.4842
  299SOL    HW2 6913   1.038   5.124   0.523  0.2922 -1.5508 -0.9275
  300SOL     OW 6914   1.640   1.116   6.469 -0.5871  0.1517 -0.3970
  300SOL    HW1 6915   1.711   1.063   6.422 -0.4750 -0.4984  0.4933
  300SOL    HW2 6916   1.618   1.073   6.556  0.3431  2.1919  0.9207
  301SOL     OW 6917   3.743   3.927   5.023 -0.6830  0.0044  0.6303
  301SOL    HW1 6918   3.806   3.998   4.993 -0.0941 -1.1990 -1.1030
  301SOL    HW2 6919   3.649   3.952   4.997 -0.3452 -0.3509 -1.0131
  302SOL     OW 6920   1.217   6.007   6.667 -0.2071  0.2909  0.3602
  302SOL    HW1 6921   1.179   5.992   6.759 -0.5615  0.9529  0.3292
  302SOL    HW2 6922   1.219   6.105   6.648  2.6199  0.4137  0.8214
  303SOL     OW 6923   1.012   5.926   6.011  0.5364 -0.4229 -0.1408
  303SOL    HW1 6924   1.087   5.864   5.992 -1.4127 -2.2634 -2.4829
  303SOL    HW2 6925   0.970   5.955   5.925  0.5840  3.2924  0.9217
  304SOL     OW 6926   4.991   0.013   0.337 -0.5844 -0.2423  0.1335
  304SOL    HW1 6927   4.962  -0.081   0.316 -1.1660  0.0561 -0.4490
  304SOL    HW2 6928   5.036   0.053   0.257 -1.0091  0.2251  0.1244
  305SOL     OW 6929   4.821   1.858   0.799 -0.2261  0.0642 -0.1125
  305SOL    HW1 6930   4.903   1.817   0.838 -1.1712 -1.5758  0.2405
  305SOL    HW2 6931   4.782   1.924   0.864  0.2474  0.1093  0.1268
  306SOL     OW 6932   1.141   1.433   5.598  0.5363  0.7907 -0.5776
  306SOL    HW1 6933   1.120   1.335   5.595  0.1366  0.8817 -1.1546
  306SOL    HW2 6934   1.222   1.449   5.653  0.3157  0.1845 -0.0722
  307SOL     OW 6935   3.724   3.771   0.594 -0.7052 -0.3016  0.7282
  307SOL    HW1 6936   3.635   3.809   0.616 -1.7802 -0.6445 -2.4534
  307SOL    HW2 6937   3.715   3.673   0.574  0.2239 -0.2209 -0.2059
  308SOL     OW 6938   3.050   2.164   0.743 -0.4219  0.8864 -0.7232
  308SOL    HW1 6939   3.150   2.165   0.735 -0.2814 -1.4259  0.1099
  308SOL    HW2 6940   3.009   2.177   0.652  0.6434  0.8444 -1.2260
  309SOL     OW 6941   2.423   1.761   0.680 -0.0714 -0.2605  0.4693
  309SOL    HW1 6942   2.390   1.756   0.774  1.7489 -0.9630  1.1170
  309SOL    HW2 6943   2.446   1.669   0.648  1.5798  0.1976  0.2339
  310SOL     OW 6944   0.978   2.918   0.784  0.0248 -0.3987 -0.1545
  310SOL    HW1 6945   0.964   2.831   0.736 -1.7530 -1.3173  1.8556
  310SOL    HW2 6946   0.992   2.900   0.881 -1.4570  1.5892  0.4882
  311SOL     OW 6947   2.785   2.095   0.106 -0.3156  0.2091  0.5669
  311SOL    HW1 6948   2.775   2.008   0.058 -0.2053 -0.0112  0.9370
  311SOL    HW2 6949   2.776   2.170   0.041  2.4006 -0.1056 -0.3193
  312SOL     OW 6950   5.085   2.646   0.519 -0.0766 -0.3502 -0.8319
  312SOL    HW1 6951   5.054   2.668   0.612  0.7336 -2.8393  0.1049
  312SOL    HW2 6952   5.106   2.730   0.470 -1.2798  1.0670  0.9626
  313SOL     OW 6953   3.990   3.178   0.589  0.4335 -0.3495 -0.1686
  313SOL    HW1 6954   4.042   3.212   0.668 -0.1272  2.8836 -1.0493
  313SOL    HW2 6955   4.052   3.133   0.525  0.9668 -2.6296  1.7768
  314SOL     OW 6956   2.516   3.971   6.017  0.3488 -0.0171 -0.0818
  314SOL    HW1 6957   2.585   3.900   6.008  1.0835  0.7783 -0.8688
  314SOL    HW2 6958   2.530   4.022   6.102  1.2464  0.6623 -0.6224
  315SOL     OW 6959   2.888   0.543   6.449  0.2741 -0.2178 -0.4772
  315SOL    HW1 6960   2.795   0.510   6.436 -0.3276  0.6966  1.1346
  315SOL    HW2 6961   2.907   0.617   6.384 -0.9510  1.1048  0.6155
  316SOL     OW 6962   5.457   4.402   4.988 -0.2290 -0.5577  0.5999
  316SOL    HW1 6963   5.422   4.495   4.979  1.7069  0.0403 -2.0125
  316SOL    HW2 6964   5.544   4.404   5.037 -2.2007 -1.6849  4.5707
  317SOL     OW 6965   1.813   4.273   5.006  0.2641 -0.1786 -0.1659
  317SOL    HW1 6966   1.736   4.315   4.956  1.4260  1.1227 -0.9517
  317SOL    HW2 6967   1.785   4.185   5.043 -1.8529  0.6197  0.2617
  318SOL     OW 6968   2.375   0.667   6.324 -0.0857 -0.5293  0.0353
  318SOL    HW1 6969   2.466   0.633   6.348 -0.5975 -2.0991 -0.0994
  318SOL    HW2 6970   2.323   0.685   6.407 -0.1645 -1.1097  0.1129
  319SOL     OW 6971   3.551   6.130   0.114 -0.0153 -0.6978  0.5672
  319SOL    HW1 6972   3.620   6.201   0.124 -0.0343 -0.6610  0.4342
  319SOL    HW2 6973   3.495   6.126   0.197 -0.1863 -0.3784  0.4642
  320SOL     OW 6974   4.938   0.940   0.919 -0.3500 -0.3133  0.2128
  320SOL    HW1 6975   5.012   0.882   0.887  0.7094  1.5833 -0.9445
  320SOL    HW2 6976   4.875   0.959   0.844 -1.2566 -0.7522  0.8371
  321SOL     OW 6977   4.175   0.796   6.414 -0.0965  0.0715 -0.2945
  321SOL    HW1 6978   4.128   0.861   6.355 -1.5352  0.0193  0.7412
  321SOL    HW2 6979   4.144   0.809   6.509  1.0111 -0.8589  0.2186
  322SOL     OW 6980   1.005   2.866   6.517  0.9309 -0.1396  0.4230
  322SOL    HW1 6981   0.913   2.905   6.520  0.2317 -1.7610  0.9115
  322SOL    HW2 6982   1.043   2.863   6.609  2.0947  1.8184  0.0766
  323SOL     OW 6983   1.116   5.928   0.225  0.5316  0.3045 -0.4499
  323SOL    HW1 6984   1.049   5.854   0.220 -1.1907  1.8208 -0.9219
  323SOL    HW2 6985   1.156   5.931   0.317 -0.5933 -0.1774  0.0694
  324SOL     OW 6986   3.789   2.697   5.710  0.1347 -0.7540 -0.1070
  324SOL    HW1 6987   3.722   2.676   5.639 -0.2032 -0.7923  0.2187
  324SOL    HW2 6988   3.744   2.695   5.799  0.5308 -0.5924  0.0969
  325SOL     OW 6989   1.373   2.860   6.669 -0.2165 -0.4868  0.2714
  325SOL    HW1 6990   1.394   2.764   6.654  0.6063 -0.5046  1.3577
  325SOL    HW2 6991   1.280   2.869   6.704 -0.8244 -0.7363 -1.2150
  326SOL     OW 6992   1.275   3.761   5.329  0.7709 -0.0602 -0.2739
  326SOL    HW1 6993   1.273   3.831   5.257  0.2230  1.8251  1.4866
  326SOL    HW2 6994   1.340   3.788   5.400 -0.1606 -0.8762  0.9213
  327SOL     OW 6995   5.020   1.933   1.519  0.4354  0.3152 -0.0670
  327SOL    HW1 6996   5.107   1.897   1.485  0.2111 -0.3108  0.0261
  327SOL    HW2 6997   4.995   1.887   1.604 -0.3418 -0.0172 -0.4697
  328SOL     OW 6998   0.424   4.086   0.756  0.1348 -0.4707 -0.1802
  328SOL    HW1 6999   0.420   4.127   0.847  0.0613 -2.5650  0.8243
  328SOL    HW2 7000   0.515   4.100   0.717  0.6514 -0.8020  0.8587
  329SOL     OW 7001   5.924   6.122   5.633 -1.2041 -0.2244 -0.1290
  329SOL    HW1 7002   6.013   6.160   5.610 -0.9960 -1.8485 -2.3822
  329SOL    HW2 7003   5.854   6.192   5.623 -0.2338  1.0710  1.6589
  330SOL     OW 7004   4.811   0.642   0.305  0.1023  0.4541  0.2850
  330SOL    HW1 7005   4.757   0.642   0.221  0.4324  1.7552  0.0398
  330SOL    HW2 7006   4.827   0.548   0.335  1.3913 -0.1594 -2.0273
  331SOL     OW 7007   1.615   2.208   0.016  0.3302 -0.6063  0.0092
  331SOL    HW1 7008   1.633   2.210  -0.082  0.6567  1.4805  0.0544
  331SOL    HW2 7009   1.697   2.237   0.065 -0.4702  0.5309  0.7379
  332SOL     OW 7010   1.272   2.970   6.043  0.5794  0.5401 -0.3961
  332SOL    HW1 7011   1.303   2.995   5.952  3.2570  2.9203  1.0328
  332SOL    HW2 7012   1.229   3.049   6.087 -0.0031 -0.3525  0.6950
  333SOL     OW 7013   1.350   0.877   5.486  0.2059 -0.1175 -0.7238
  333SOL    HW1 7014   1.369   0.839   5.577 -2.0250  2.7723  1.1400
  333SOL    HW2 7015   1.401   0.962   5.474  0.8454 -0.7199 -2.4281
  334SOL     OW 7016   5.130   0.076   0.109  0.5497 -0.4716  0.0432
  334SOL    HW1 7017   5.125   0.117   0.018  0.4972 -0.4354  0.0627
  334SOL    HW2 7018   5.225   0.076   0.139  0.6479 -0.9870 -0.2416
  335SOL     OW 7019   6.134   0.171   5.719  0.4382 -0.0453 -0.0197
  335SOL    HW1 7020   6.040   0.185   5.752  0.7876  2.4367  0.0514
  335SOL    HW2 7021   6.151   0.073   5.710 -2.3932 -0.5550 -0.7335
  336SOL     OW 7022   4.677   1.385   6.407  0.0210 -0.0259 -0.2163
  336SOL    HW1 7023   4.593   1.377   6.460  1.5229 -3.1164  1.9819
  336SOL    HW2 7024   4.672   1.325   6.328 -0.5506  1.3827 -1.3071
  337SOL     OW 7025   1.186   6.232   6.051  0.4752 -0.1020  1.0690
  337SOL    HW1 7026   1.172   6.306   6.117  0.2707 -0.7281  1.7362
  337SOL    HW2 7027   1.199   6.145   6.100 -0.9522 -0.8023  0.2715
  338SOL     OW 7028   2.597   0.560   0.499  0.1043 -0.1266 -0.3544
  338SOL    HW1 7029   2.588   0.657   0.524  1.3178 -0.2762  0.7875
  338SOL    HW2 7030   2.518   0.509   0.535 -0.5585  0.4231 -0.9921
  339SOL     OW 7031   1.544   0.590   0.322 -0.6651 -0.2213  0.4156
  339SOL    HW1 7032   1.535   0.538   0.407 -2.7113  0.9683  0.9975
  339SOL    HW2 7033   1.518   0.533   0.245 -0.1230 -0.8883  0.7115
  340SOL     OW 7034   1.274   3.930   5.086  0.2594 -0.2037  0.3439
  340SOL    HW1 7035   1.313   3.875   5.012 -0.3316 -0.4124  0.1818
  340SOL    HW2 7036   1.234   4.014   5.048  0.0927 -0.2381  0.4395
  341SOL     OW 7037   4.369   0.652   0.098 -0.2905 -0.2490 -0.0391
  341SOL    HW1 7038   4.348   0.581   0.166 -0.9866  0.4211  0.4637
  341SOL    HW2 7039   4.290   0.665   0.038 -0.3759  0.4760  0.2187
  342SOL     OW 7040   4.668   3.949   6.121 -0.1337 -0.5763 -0.3404
  342SOL    HW1 7041   4.645   4.045   6.139  0.0863 -0.5634 -0.1090
  342SOL    HW2 7042   4.619   3.917   6.040  0.2907 -0.0726 -0.8065
  343SOL     OW 7043   1.288   0.746   6.422 -0.3311 -0.1443  0.1454
  343SOL    HW1 7044   1.215   0.758   6.489 -1.1105 -1.8969 -0.3400
  343SOL    HW2 7045   1.354   0.680   6.456 -0.5731 -0.8148 -0.6595
  344SOL     OW 7046   6.266   0.888   0.442 -0.5984 -0.3411 -0.0784
  344SOL    HW1 7047   6.312   0.836   0.371  1.5242 -0.9121  1.6056
  344SOL    HW2 7048   6.234   0.825   0.514 -0.4308  0.4182  0.6782
  345SOL     OW 7049   1.728   5.024   0.526  0.1027  0.5505  0.0396
  345SOL    HW1 7050   1.757   5.022   0.621 -3.7134  0.3083  1.3367
  345SOL    HW2 7051   1.733   5.118   0.492  1.3700  0.6598  0.4596
  346SOL     OW 7052   6.215   0.632   5.276  0.6125  0.2762 -0.4745
  346SOL    HW1 7053   6.143   0.659   5.213 -1.2272 -0.3685  1.2644
  346SOL    HW2 7054   6.258   0.713   5.316 -0.9725  0.7037  0.4347
  347SOL     OW 7055   2.647   6.175   5.793 -0.6589 -0.4907  0.3883
  347SOL    HW1 7056   2.652   6.218   5.883  0.9665 -0.9529  0.5586
  347SOL    HW2 7057   2.554   6.180   5.758 -0.9623  1.2106  1.3429
  348SOL     OW 7058   4.987   3.803   1.172  0.0442  0.0981  0.4260
  348SOL    HW1 7059   4.928   3.856   1.233  0.3053 -0.9545  1.6131
  348SOL    HW2 7060   4.944   3.715   1.152  0.9604 -0.4608  0.8769
  349SOL     OW 7061   0.397   3.438   4.896 -0.4968 -0.1938 -0.1995
  349SOL    HW1 7062   0.299   3.449   4.878 -0.1759 -0.2219 -2.2920
  349SOL    HW2 7063   0.447   3.511   4.850  0.4650  0.0521  1.1861
  350SOL     OW 7064   0.796   4.803   1.193  0.3697  0.3830 -0.3926
  350SOL    HW1 7065   0.791   4.855   1.278  0.1765 -1.8561  1.0517
  350SOL    HW2 7066   0.849   4.720   1.208  1.6522  0.6469 -2.9212
  351SOL     OW 7067   5.723   3.902   6.581 -0.5681 -0.3344 -0.6795
  351SOL    HW1 7068   5.739   3.805   6.564 -2.0169 -0.6236 -0.5423
  351SOL    HW2 7069   5.711   3.917   6.679  1.2441  0.2691 -0.5115
  352SOL     OW 7070   2.452   4.686   0.726  0.3243  0.2346 -0.4483
  352SOL    HW1 7071   2.549   4.711   0.721  0.2188  0.5619 -0.8788
  352SOL    HW2 7072   2.413   4.684   0.634  0.2006 -1.0276 -0.3832
  353SOL     OW 7073   3.928   6.109   0.830 -0.4734 -0.2464  0.2005
  353SOL    HW1 7074   3.831   6.091   0.813 -0.2775  0.3449 -1.8555
  353SOL    HW2 7075   3.983   6.039   0.784  0.0871  0.2075  0.1667
  354SOL     OW 7076   5.992   4.540   5.937  0.0642  0.6933  0.0144
  354SOL    HW1 7077   6.067   4.507   5.993  1.5350 -0.3663 -2.4120
  354SOL    HW2 7078   5.911   4.554   5.994  0.9643 -1.8580  2.1089
  355SOL     OW 7079   1.962   5.437   0.076 -0.2855  0.5090 -0.4816
  355SOL    HW1 7080   1.987   5.347   0.110  2.1868  0.2911 -2.5845
  355SOL    HW2 7081   2.033   5.503   0.098 -1.4484  1.6951 -0.1148
  356SOL     OW 7082   2.730   5.350   0.367  0.0272  0.3853 -0.0702
  356SOL    HW1 7083   2.649   5.373   0.314  0.3987  0.2956 -0.6788
  356SOL    HW2 7084   2.812   5.365   0.312  0.3456 -1.2332 -0.1019
  357SOL     OW 7085   0.491   0.855   6.019 -0.7844 -0.3722  0.7337
  357SOL    HW1 7086   0.432   0.871   5.939  0.9749  1.8302 -0.2163
  357SOL    HW2 7087   0.582   0.829   5.988  0.6518  2.9173  1.8124
  358SOL     OW 7088   3.183   3.769   1.274 -0.0623  0.4636  0.0012
  358SOL    HW1 7089   3.245   3.702   1.315  1.8340  2.3168  0.3068
  358SOL    HW2 7090   3.100   3.722   1.243  0.7165 -1.8354  1.1293
  359SOL     OW 7091   0.818   4.737   0.143  0.2114  0.5633 -0.4676
  359SOL    HW1 7092   0.732   4.780   0.170 -0.4858 -0.4245 -1.0683
  359SOL    HW2 7093   0.823   4.645   0.181  0.6865  0.3634 -0.9982
  360SOL     OW 7094   5.940   3.939   6.162 -0.1607  0.1384 -0.2793
  360SOL    HW1 7095   5.965   3.843   6.147  0.3100  0.4939 -1.9549
  360SOL    HW2 7096   5.972   3.968   6.253  2.0719 -0.5406 -0.7811
  361SOL     OW 7097   4.995   4.831   0.450 -0.1024  0.0436 -0.0808
  361SOL    HW1 7098   5.023   4.735   0.453  0.7820  0.2457 -1.3533
  361SOL    HW2 7099   4.930   4.849   0.525 -0.7677 -1.6814 -0.1944
  362SOL     OW 7100   1.017   4.298   0.267  0.0854  0.3126  0.1246
  362SOL    HW1 7101   1.064   4.309   0.354 -0.6961  0.9542  0.4755
  362SOL    HW2 7102   0.957   4.219   0.271 -0.2864  0.6021  0.3278
  363SOL     OW 7103   5.575   5.342   0.121  0.1899  0.2114  0.1266
  363SOL    HW1 7104   5.653   5.378   0.069 -0.0524 -0.6271 -0.8500
  363SOL    HW2 7105   5.581   5.374   0.215  0.5650  1.9165 -0.4246
  364SOL     OW 7106   2.319   5.676   5.011  0.3711 -0.1310  0.3460
  364SOL    HW1 7107   2.372   5.723   5.081  1.3667 -0.7590  0.0224
  364SOL    HW2 7108   2.227   5.715   5.008  0.8620  1.1131  0.7692
  365SOL     OW 7109   1.641   2.473   6.459 -0.2352 -0.2891  0.0112
  365SOL    HW1 7110   1.725   2.467   6.513  1.3035 -0.8689 -2.2594
  365SOL    HW2 7111   1.632   2.565   6.421  1.1175 -0.9622 -2.1725
  366SOL     OW 7112   6.259   1.432   0.526  0.4383  0.3851 -0.2154
  366SOL    HW1 7113   6.347   1.477   0.509  0.5630  1.0504  1.8978
  366SOL    HW2 7114   6.189   1.475   0.468  0.9935  1.7898  0.0984
  367SOL     OW 7115   2.629   3.743   6.228 -0.2216  0.3621 -0.8031
  367SOL    HW1 7116   2.628   3.648   6.261 -0.2231  1.0190  1.2118
  367SOL    HW2 7117   2.546   3.790   6.258  0.9814  1.7216  0.5497
  368SOL     OW 7118   3.974   5.450   6.436 -0.0162  0.1598 -0.5234
  368SOL    HW1 7119   4.054   5.508   6.454 -0.4023  0.6070 -0.1983
  368SOL    HW2 7120   4.004   5.361   6.403  0.6692 -0.0439  0.5728
  369SOL     OW 7121   0.529   4.268   5.868  0.3914  0.1418 -0.3310
  369SOL    HW1 7122   0.461   4.324   5.821  0.9635  1.7416  0.6650
  369SOL    HW2 7123   0.621   4.291   5.835  0.5961 -0.7816 -0.4494
  370SOL     OW 7124   0.786   2.204   0.484  0.5414 -0.0282 -0.3715
  370SOL    HW1 7125   0.850   2.276   0.457  0.5282  0.0358 -0.2322
  370SOL    HW2 7126   0.831   2.115   0.481  0.1905 -0.1882 -1.8942
  371SOL     OW 7127   4.606   4.809   0.280 -0.7315  0.0731  0.0712
  371SOL    HW1 7128   4.611   4.907   0.295 -0.3866 -0.1347  1.3967
  371SOL    HW2 7129   4.550   4.791   0.199  0.9229  1.4331 -1.4571
  372SOL     OW 7130   4.990   4.241   5.037 -0.3581  0.1208 -0.5093
  372SOL    HW1 7131   4.928   4.163   5.041 -0.1313 -0.1240 -1.4110
  372SOL    HW2 7132   4.941   4.320   5.001 -0.8980  0.7390  1.4893
  373SOL     OW 7133   3.417   0.562   6.294 -0.5007 -0.3347 -0.3166
  373SOL    HW1 7134   3.332   0.606   6.324  0.2002  1.9942 -1.5582
  373SOL    HW2 7135   3.494   0.601   6.344  0.0643 -0.8271 -0.7958
  374SOL     OW 7136   3.731   0.029   1.266 -0.4044  0.2601 -0.2907
  374SOL    HW1 7137   3.645   0.033   1.215 -0.9116 -0.0915  0.5201
  374SOL    HW2 7138   3.733  -0.053   1.322 -1.5000  2.2862  3.0486
  375SOL     OW 7139   3.337   4.037   0.834  0.2164  0.1190 -0.5563
  375SOL    HW1 7140   3.249   4.052   0.788 -1.7188 -0.1255  2.7853
  375SOL    HW2 7141   3.365   4.122   0.879 -1.5554 -1.1495  3.3873
  376SOL     OW 7142   6.190   3.978   1.301  0.6899  0.3298  0.4253
  376SOL    HW1 7143   6.227   4.068   1.323  0.3506  0.7943 -0.8247
  376SOL    HW2 7144   6.105   3.989   1.251 -0.7214 -0.7136  2.4409
  377SOL     OW 7145   2.661   0.168   6.245  0.0590 -0.1543 -0.1913
  377SOL    HW1 7146   2.719   0.142   6.322  1.1545  2.2552 -0.1229
  377SOL    HW2 7147   2.708   0.149   6.159 -0.6966 -1.7653 -0.2936
  378SOL     OW 7148   4.363   1.153   0.973 -0.5216  0.6154 -0.3111
  378SOL    HW1 7149   4.402   1.061   0.970 -0.7449  0.5533 -2.0094
  378SOL    HW2 7150   4.403   1.204   1.050  1.1587 -0.2140 -0.5951
  379SOL     OW 7151   1.025   5.634   0.010  0.5126 -0.7097 -0.3149
  379SOL    HW1 7152   1.062   5.693  -0.062  1.1426 -1.6256 -0.7555
  379SOL    HW2 7153   1.032   5.538  -0.018 -1.8047 -0.9697 -0.2179
  380SOL     OW 7154   5.648   0.347   0.676 -0.2722 -0.2372  0.0807
  380SOL    HW1 7155   5.613   0.352   0.583 -0.8424 -0.6849  0.2638
  380SOL    HW2 7156   5.631   0.434   0.723 -0.0058 -0.0204 -0.2188
  381SOL     OW 7157   2.867   2.855   0.296  0.2011 -0.4309 -0.0676
  381SOL    HW1 7158   2.813   2.904   0.363  0.5881 -0.8957  0.6000
  381SOL    HW2 7159   2.811   2.833   0.216 -1.0553 -2.1902  1.2131
  382SOL     OW 7160   2.397   4.814   6.662  0.1004  0.2992  0.1854
  382SOL    HW1 7161   2.347   4.882   6.608 -0.0870 -0.5084 -0.6825
  382SOL    HW2 7162   2.352   4.725   6.652  1.2534 -0.2750  0.0374
  383SOL     OW 7163   2.112   1.085   0.152 -0.0824 -0.1154  0.2890
  383SOL    HW1 7164   2.129   0.991   0.124  0.5037  0.4760 -1.4372
  383SOL    HW2 7165   2.052   1.085   0.232  1.2237 -1.9970  1.3503
  384SOL     OW 7166   0.415   0.178   6.588 -0.3884  0.4472 -0.0791
  384SOL    HW1 7167   0.362   0.121   6.526 -1.6802 -1.4820  2.5804
  384SOL    HW2 7168   0.490   0.123   6.628  0.3406  1.5769  0.1519
  385SOL     OW 7169   0.685   1.042   0.206 -0.0428  0.5408  0.4884
  385SOL    HW1 7170   0.744   1.024   0.285 -0.5155  0.5468  0.8483
  385SOL    HW2 7171   0.655   0.955   0.167  1.1630  0.5116 -0.4409
  386SOL     OW 7172   5.876   2.098   5.647  0.1023 -0.0457 -0.4252
  386SOL    HW1 7173   5.935   2.175   5.669  0.5495 -0.6125  0.3818
  386SOL    HW2 7174   5.884   2.077   5.549 -1.4077  2.0645 -1.0760
  387SOL     OW 7175   4.282   1.594   0.904 -0.3264  0.5744  0.0029
  387SOL    HW1 7176   4.188   1.605   0.935  0.2290  2.0931  1.2763
  387SOL    HW2 7177   4.339   1.669   0.940  1.4383 -0.4575 -0.4862
  388SOL     OW 7178   3.866   4.736   0.530 -0.5224  0.2274 -0.2314
  388SOL    HW1 7179   3.920   4.708   0.451  0.2064 -0.1778  0.3905
  388SOL    HW2 7180   3.876   4.834   0.546 -0.3503  0.2367 -0.4041
  389SOL     OW 7181   2.052   5.813   0.454  0.0499  0.5218  0.3593
  389SOL    HW1 7182   2.084   5.839   0.362  0.4250 -0.2320  0.2704
  389SOL    HW2 7183   2.087   5.879   0.521  0.6626  0.4781  0.0930
  390SOL     OW 7184   2.774   3.088   0.049 -0.3360  0.2195 -0.4231
  390SOL    HW1 7185   2.767   3.034  -0.035 -0.6460 -1.1544  0.4514
  390SOL    HW2 7186   2.683   3.115   0.079 -0.1532  1.8757 -1.2096
  391SOL     OW 7187   3.519   4.895   6.009 -0.1102  0.2853 -0.2828
  391SOL    HW1 7188   3.420   4.886   6.011 -0.1145  0.3503 -0.1592
  391SOL    HW2 7189   3.556   4.849   5.928 -0.2430  0.2888 -0.3443
  392SOL     OW 7190   4.518   0.237   1.223  0.5329 -0.1952  0.3529
  392SOL    HW1 7191   4.543   0.155   1.275 -1.9448  0.5316  2.9476
  392SOL    HW2 7192   4.447   0.287   1.272 -2.3575  0.4679 -3.9927
  393SOL     OW 7193   5.745   1.872   5.743 -0.3150 -0.1167 -0.2754
  393SOL    HW1 7194   5.674   1.863   5.673  1.2268  1.8774 -2.2219
  393SOL    HW2 7195   5.816   1.935   5.711 -0.1377  1.9529  3.5919
  394SOL     OW 7196   1.801   3.484   0.272  0.2666  0.2919 -0.3286
  394SOL    HW1 7197   1.722   3.451   0.325 -0.3086 -1.0018 -1.9261
  394SOL    HW2 7198   1.876   3.418   0.279  0.0887 -0.0318 -1.3072
  395SOL     OW 7199   5.667   1.149   5.721  0.6593  0.2309  0.5642
  395SOL    HW1 7200   5.610   1.230   5.708 -0.3487 -0.5289  0.0844
  395SOL    HW2 7201   5.717   1.130   5.637 -0.3806 -0.5746  0.1010
  396SOL     OW 7202   2.565   3.134   1.445 -0.6138  0.2436 -0.4773
  396SOL    HW1 7203   2.624   3.213   1.459 -0.8755  0.6120 -1.3709
  396SOL    HW2 7204   2.566   3.109   1.348 -2.3304  0.5948 -0.6170
  397SOL     OW 7205   2.289   4.086   1.755  0.3668 -0.3177 -0.0859
  397SOL    HW1 7206   2.334   4.167   1.718  1.5197 -0.8381  0.1143
  397SOL    HW2 7207   2.279   4.096   1.854 -2.8542  1.1410 -0.4406
  398SOL     OW 7208   3.110   3.971   0.405 -0.4083  0.0442  0.0848
  398SOL    HW1 7209   3.141   3.894   0.350  0.1899  0.1200  0.3073
  398SOL    HW2 7210   3.028   4.011   0.364 -0.5720 -0.5443 -0.1741
  399SOL     OW 7211   1.686   6.285   0.130 -0.1625 -0.4741 -0.5134
  399SOL    HW1 7212   1.714   6.194   0.098  1.8588 -0.0146 -0.1564
  399SOL    HW2 7213   1.759   6.351   0.112 -1.4320  1.0152 -0.3941
  400SOL     OW 7214   1.681   4.807   1.604  0.0921 -0.5702 -0.0866
  400SOL    HW1 7215   1.660   4.876   1.535  2.0041  1.0078  0.7744
  400SOL    HW2 7216   1.603   4.796   1.665 -0.8430 -0.4139 -1.2213
  401SOL     OW 7217   2.238   5.306   1.001 -0.0293 -0.6996  0.7032
  401SOL    HW1 7218   2.258   5.262   1.088  0.6060 -0.0282  0.9111
  401SOL    HW2 7219   2.167   5.375   1.013  0.4814 -0.1876  0.8203
  402SOL     OW 7220   3.526   0.722   5.491  0.3217 -0.4548 -0.0294
  402SOL    HW1 7221   3.434   0.753   5.515 -0.9817 -1.9949 -2.5853
  402SOL    HW2 7222   3.560   0.777   5.414  1.2719 -0.3295  0.4776
  403SOL     OW 7223   1.354   5.736   0.412  0.2122  0.0925 -0.2307
  403SOL    HW1 7224   1.443   5.752   0.455  0.8613 -0.8270 -1.1816
  403SOL    HW2 7225   1.283   5.786   0.462  1.0542 -0.2426  1.3589
  404SOL     OW 7226   4.901   4.662   0.184  0.5508 -0.1806 -0.1017
  404SOL    HW1 7227   4.876   4.686   0.090 -2.9366 -3.0867 -0.1530
  404SOL    HW2 7228   4.849   4.720   0.247  0.8039 -0.0368 -0.0278
  405SOL     OW 7229   3.767   6.167   6.092  0.0797 -0.6566  0.2665
  405SOL    HW1 7230   3.779   6.237   6.163 -0.1250 -1.2423  0.8876
  405SOL    HW2 7231   3.726   6.085   6.132 -1.9264 -0.2979 -0.9148
  406SOL     OW 7232   0.893   0.276   5.057  0.1456  0.6926 -0.9469
  406SOL    HW1 7233   0.846   0.188   5.046  1.6381 -0.4241  0.9085
  406SOL    HW2 7234   0.992   0.262   5.051  0.4471  2.1078  0.1188
  407SOL     OW 7235   2.814   4.086   0.481  0.3767 -0.1377 -0.0531
  407SOL    HW1 7236   2.803   3.991   0.510 -1.1375  0.3638  1.1581
  407SOL    HW2 7237   2.875   4.133   0.546 -0.6229  0.2433  0.6261
  408SOL     OW 7238   3.342   2.616   5.724 -0.2012 -0.2491  0.1052
  408SOL    HW1 7239   3.263   2.555   5.716  1.1687 -1.9541 -1.2395
  408SOL    HW2 7240   3.369   2.647   5.633  0.9438 -0.0687  0.4936
  409SOL     OW 7241   3.552   1.705   5.533  0.2028  0.5561  0.6605
  409SOL    HW1 7242   3.602   1.785   5.499 -1.1375  1.1137 -0.0397
  409SOL    HW2 7243   3.498   1.665   5.459 -0.0947 -0.2756  1.3111
  410SOL     OW 7244   3.771   4.894   6.104 -0.3322 -0.1061  0.6998
  410SOL    HW1 7245   3.842   4.947   6.057 -0.3556 -0.5599  0.1424
  410SOL    HW2 7246   3.684   4.904   6.056 -0.3016 -0.7765  0.4982
  411SOL     OW 7247   3.047   0.510   5.856 -0.2629  0.1866 -0.2722
  411SOL    HW1 7248   3.070   0.413   5.856  0.4066  0.3193  0.8415
  411SOL    HW2 7249   3.006   0.534   5.944 -1.4916  0.6960 -0.9529
  412SOL     OW 7250   0.294   2.743   0.692 -0.2596 -0.2161 -0.0163
  412SOL    HW1 7251   0.249   2.657   0.716  0.1579 -1.0158 -1.8910
  412SOL    HW2 7252   0.354   2.772   0.767  0.1535 -1.9452  0.3602
  413SOL     OW 7253   4.606   3.567   6.049 -0.1355  0.3527 -0.4811
  413SOL    HW1 7254   4.693   3.520   6.038  0.0824  0.5601  0.2869
  413SOL    HW2 7255   4.587   3.581   6.147 -1.2338 -0.0711 -0.6154
  414SOL     OW 7256   6.266   1.805   1.254  0.0500  0.3037  0.2181
  414SOL    HW1 7257   6.179   1.821   1.301  1.4051  0.6456  2.8521
  414SOL    HW2 7258   6.302   1.716   1.281  0.4058  0.0248 -1.1037
  415SOL     OW 7259   3.425   5.191   6.375 -0.2952 -0.4725  0.1282
  415SOL    HW1 7260   3.423   5.279   6.421  0.7422 -1.1845  1.6431
  415SOL    HW2 7261   3.518   5.173   6.343 -0.6769 -0.6755 -0.9182
  416SOL     OW 7262   1.585   3.926   5.961 -0.1069  0.2698  0.0255
  416SOL    HW1 7263   1.557   3.965   5.873 -0.0545 -0.9603 -0.5545
  416SOL    HW2 7264   1.669   3.874   5.950 -0.9616 -1.2602  0.4397
  417SOL     OW 7265   6.248   3.788   6.157  0.1517 -0.4932  0.2327
  417SOL    HW1 7266   6.289   3.852   6.222  1.7016 -1.6272  0.4171
  417SOL    HW2 7267   6.215   3.707   6.207  0.2389 -0.8335 -0.2578
  418SOL     OW 7268   5.211   0.169   0.524 -0.3862  0.6361  0.2969
  418SOL    HW1 7269   5.124   0.162   0.477 -0.0984 -1.8845  0.0332
  418SOL    HW2 7270   5.201   0.137   0.619 -0.2913  2.8783  1.1408
  419SOL     OW 7271   0.065   2.891   5.675  0.2726 -0.3977  0.5031
  419SOL    HW1 7272  -0.019   2.928   5.716 -0.7793 -0.1804 -1.6953
  419SOL    HW2 7273   0.106   2.959   5.615  0.7021 -1.3206 -0.2818
  420SOL     OW 7274   5.278   3.097   0.760  0.7678 -0.7128  0.2964
  420SOL    HW1 7275   5.199   3.137   0.806  1.1680 -1.5264  1.7787
  420SOL    HW2 7276   5.247   3.034   0.689  0.0457 -1.4786  1.2612
  421SOL     OW 7277   1.835   2.993   1.917 -0.2172  0.7203 -0.0440
  421SOL    HW1 7278   1.787   2.939   1.986 -1.9312  0.6723 -1.2211
  421SOL    HW2 7279   1.798   2.974   1.827 -0.1863  3.0724 -0.6328
  422SOL     OW 7280   2.467   0.019   0.510  0.6120 -0.5261 -0.1660
  422SOL    HW1 7281   2.546   0.013   0.571 -0.2310  1.8383  1.2788
  422SOL    HW2 7282   2.386  -0.017   0.556 -0.4295  2.9613  1.0206
  423SOL     OW 7283   1.242   3.546   0.672  0.1784 -0.2318  0.1964
  423SOL    HW1 7284   1.342   3.541   0.673  0.2045 -0.3534 -1.3046
  423SOL    HW2 7285   1.212   3.626   0.723  1.1739  1.2821 -1.4831
  424SOL     OW 7286   5.096   4.993   6.518  0.4239 -0.1267 -0.2376
  424SOL    HW1 7287   5.055   4.974   6.607 -0.2029  2.2334  0.0518
  424SOL    HW2 7288   5.194   5.007   6.529  0.1090  1.8438  0.4377
  425SOL     OW 7289   2.904   6.010   4.777 -0.5621 -0.5012  0.1969
  425SOL    HW1 7290   2.998   6.026   4.806 -0.3876  0.8261 -0.9780
  425SOL    HW2 7291   2.902   5.997   4.678 -1.7236  0.5808  0.0621
  426SOL     OW 7292   2.389   3.203   0.605  0.3771 -0.6020  0.4929
  426SOL    HW1 7293   2.362   3.146   0.682  3.8187 -0.7735  1.7405
  426SOL    HW2 7294   2.418   3.293   0.638 -0.5049  0.2503 -0.9303
  427SOL     OW 7295   0.711   5.542   5.342  0.0721 -0.3910 -0.0884
  427SOL    HW1 7296   0.705   5.598   5.425  0.9294 -0.4828  0.0448
  427SOL    HW2 7297   0.763   5.592   5.272 -0.6964 -0.2888 -0.6000
  428SOL     OW 7298   3.582   5.136   0.659 -0.6318  0.3031  0.0123
  428SOL    HW1 7299   3.561   5.066   0.728 -1.0978  0.0038 -0.4328
  428SOL    HW2 7300   3.600   5.223   0.705  0.0576 -0.1197  0.5848
  429SOL     OW 7301   6.055   5.084   5.038 -0.2560 -0.2587 -0.3563
  429SOL    HW1 7302   6.053   4.994   4.994 -2.8115 -0.9170  0.8934
  429SOL    HW2 7303   6.001   5.149   4.984 -0.2335 -0.0561 -0.1373
  430SOL     OW 7304   2.633   5.275   4.886  0.6049 -0.1518  0.3965
  430SOL    HW1 7305   2.717   5.324   4.862  1.5091 -2.0185 -0.4226
  430SOL    HW2 7306   2.649   5.177   4.881 -1.5783 -0.5602  0.4900
  431SOL     OW 7307   6.256   3.556   1.239 -0.4665 -0.0051 -0.2322
  431SOL    HW1 7308   6.196   3.588   1.166  1.9136  0.2933 -2.2008
  431SOL    HW2 7309   6.308   3.632   1.276 -1.4985 -0.1855  1.7396
  432SOL     OW 7310   1.387   5.072   5.502  0.6947  0.0908  0.0022
  432SOL    HW1 7311   1.388   5.172   5.499 -0.3978  0.1310  0.6007
  432SOL    HW2 7312   1.317   5.038   5.440  0.6375 -0.2850  0.2709
  433SOL     OW 7313   2.796   3.679   6.483 -0.0930  0.3812 -0.0552
  433SOL    HW1 7314   2.706   3.671   6.526 -0.0890 -0.4427 -0.1894
  433SOL    HW2 7315   2.816   3.776   6.465 -0.5688  0.6473  0.7760
  434SOL     OW 7316   6.070   4.198   1.173 -0.4683 -0.5163 -0.4950
  434SOL    HW1 7317   5.982   4.168   1.137  0.0747 -1.1437 -1.3141
  434SOL    HW2 7318   6.086   4.293   1.147 -0.1948 -0.8862 -1.7135
  435SOL     OW 7319   4.145   5.116   0.132 -0.4194 -0.4542 -0.2614
  435SOL    HW1 7320   4.107   5.056   0.062 -2.3881 -0.4563  0.7652
  435SOL    HW2 7321   4.145   5.070   0.220 -0.8514  0.6197  0.3173
  436SOL     OW 7322   5.279   0.557   5.958 -0.3582 -0.1223  0.2478
  436SOL    HW1 7323   5.232   0.579   6.043  1.6297 -0.5846  1.5293
  436SOL    HW2 7324   5.231   0.481   5.913 -0.7617 -0.6914  1.5739
  437SOL     OW 7325   2.854   2.284   4.521  0.7613 -0.3860  0.3064
  437SOL    HW1 7326   2.763   2.308   4.555  0.9230 -2.3701  2.3774
  437SOL    HW2 7327   2.914   2.364   4.527 -0.8329  0.9919 -1.2366
  438SOL     OW 7328   0.290   2.863   0.116 -0.6156  0.3846 -0.1192
  438SOL    HW1 7329   0.326   2.770   0.111 -0.9257  0.2793 -0.4753
  438SOL    HW2 7330   0.356   2.922   0.163 -1.6033 -0.5940  2.7218
  439SOL     OW 7331   2.137   1.627   0.817  0.4663  0.0244  0.4241
  439SOL    HW1 7332   2.131   1.544   0.762 -2.2324  0.0133  0.6087
  439SOL    HW2 7333   2.082   1.700   0.775  0.3836  0.7902  1.7876
  440SOL     OW 7334   1.501   1.096   5.775 -0.4782  0.0650 -0.1417
  440SOL    HW1 7335   1.495   1.063   5.681 -1.7667 -1.2054  0.3525
  440SOL    HW2 7336   1.595   1.126   5.794 -0.0660 -0.1942 -1.6419
  441SOL     OW 7337   4.338   0.705   0.588 -0.6112 -0.1329  0.1226
  441SOL    HW1 7338   4.428   0.684   0.552  0.3308  1.8222  1.1483
  441SOL    HW2 7339   4.283   0.750   0.518 -0.7302 -1.1739 -0.4540
  442SOL     OW 7340   3.338   3.413   5.984 -0.1959 -0.3260  0.3064
  442SOL    HW1 7341   3.244   3.428   5.951  0.1102  1.2173  0.1070
  442SOL    HW2 7342   3.355   3.469   6.065  0.0446 -1.8503  1.3604
  443SOL     OW 7343   4.420   5.004   6.064 -0.2623  0.0913  0.0492
  443SOL    HW1 7344   4.517   4.979   6.065 -0.2269  0.2514  0.8917
  443SOL    HW2 7345   4.385   4.998   5.970 -0.0585 -2.3625  0.0691
  444SOL     OW 7346   5.764   0.840   5.771 -0.0485 -0.0726 -0.1481
  444SOL    HW1 7347   5.728   0.913   5.828 -0.1276 -0.2304  0.0040
  444SOL    HW2 7348   5.793   0.764   5.828 -0.8123 -0.5354 -0.3625
  445SOL     OW 7349   3.645   0.722   6.385 -0.2033 -0.0601 -0.2556
  445SOL    HW1 7350   3.673   0.749   6.293 -0.0258  2.4097  0.4404
  445SOL    HW2 7351   3.589   0.795   6.425 -0.1161 -0.9965  1.6635
  446SOL     OW 7352   1.777   5.382   6.545 -0.1631 -0.0518 -0.7305
  446SOL    HW1 7353   1.713   5.455   6.520 -0.8143 -0.9762 -1.9092
  446SOL    HW2 7354   1.826   5.407   6.628 -1.7463  0.8857 -0.0310
  447SOL     OW 7355   0.990   6.301   5.856  0.0924  0.2913  0.1170
  447SOL    HW1 7356   1.068   6.276   5.913  0.3047  0.7667  0.0449
  447SOL    HW2 7357   0.934   6.368   5.904  1.3244  2.1854 -0.9609
  448SOL     OW 7358   3.581   2.872   0.072 -0.1511  0.3782  0.3512
  448SOL    HW1 7359   3.638   2.820   0.135 -0.9311 -0.4120  0.4208
  448SOL    HW2 7360   3.484   2.856   0.093 -0.4529 -0.6720 -1.6368
  449SOL     OW 7361   3.721   5.812   0.465  0.0698  0.2608 -0.0055
  449SOL    HW1 7362   3.702   5.905   0.494  2.2910  0.3900  1.2346
  449SOL    HW2 7363   3.802   5.778   0.512 -0.0977 -1.9629 -1.1765
  450SOL     OW 7364   1.749   6.080   4.838  0.5960 -0.9380  0.2567
  450SOL    HW1 7365   1.774   6.073   4.742  0.8311 -1.9164  0.3853
  450SOL    HW2 7366   1.803   6.016   4.892 -2.5903 -3.7530  0.4425
  451SOL     OW 7367   6.182   2.671   5.610 -0.7226 -0.9870  0.6458
  451SOL    HW1 7368   6.191   2.713   5.701 -0.5622 -0.9871  0.6308
  451SOL    HW2 7369   6.225   2.730   5.542 -0.3420 -1.2546  0.6482
  452SOL     OW 7370   2.627   4.917   0.509  0.0072  0.4609 -0.3700
  452SOL    HW1 7371   2.694   4.907   0.435  1.0370  0.1851  0.5843
  452SOL    HW2 7372   2.657   4.865   0.589 -1.7498 -0.3286 -0.1816
  453SOL     OW 7373   5.633   2.074   0.461  0.0016  0.2769  0.5672
  453SOL    HW1 7374   5.582   2.005   0.409  0.2656  0.1376  0.4911
  453SOL    HW2 7375   5.728   2.076   0.429  0.1783  0.1602  1.0762
  454SOL     OW 7376   2.672   0.872   1.748 -0.7343 -0.1467  0.1810
  454SOL    HW1 7377   2.599   0.938   1.759  0.1527  1.2549 -1.7415
  454SOL    HW2 7378   2.687   0.823   1.834 -1.4742  2.0966  1.6620
  455SOL     OW 7379   6.030   4.292   6.492 -0.1236 -0.1268  0.4961
  455SOL    HW1 7380   6.010   4.194   6.487 -2.2091  0.1951  1.4145
  455SOL    HW2 7381   6.036   4.330   6.400  1.8034 -1.2637  0.0903
  456SOL     OW 7382   3.630   5.703   6.617 -0.2358  0.3786  0.1811
  456SOL    HW1 7383   3.576   5.768   6.563 -0.7387  0.4246  0.7314
  456SOL    HW2 7384   3.642   5.618   6.565 -3.4392 -0.8261  1.1375
  457SOL     OW 7385   6.259   2.823   5.363 -0.2166  0.1210 -0.3986
  457SOL    HW1 7386   6.335   2.887   5.349  0.5791 -1.0815 -1.8458
  457SOL    HW2 7387   6.212   2.807   5.277 -0.8846 -0.6836  0.0982
  458SOL     OW 7388   5.380   2.738   4.978  0.6275  0.3432  0.3740
  458SOL    HW1 7389   5.351   2.660   5.033  0.4059 -0.4989 -0.8833
  458SOL    HW2 7390   5.466   2.716   4.931 -0.2782  0.1875 -1.2877
  459SOL     OW 7391   3.458   1.057   0.384 -0.1781 -0.0825 -0.7026
  459SOL    HW1 7392   3.545   1.046   0.336  0.0824  0.9250 -0.4749
  459SOL    HW2 7393   3.385   1.012   0.331 -0.2105  2.4313 -2.9979
  460SOL     OW 7394   2.946   4.639   0.270  0.3198 -0.2570 -0.1322
  460SOL    HW1 7395   3.030   4.598   0.237  1.3338  0.1420  1.7819
  460SOL    HW2 7396   2.964   4.685   0.357 -1.6878  0.6255 -0.1349
  461SOL     OW 7397   4.131   2.235   0.768  0.8141  0.4389  0.9261
  461SOL    HW1 7398   4.047   2.258   0.817  0.2188  0.1913  0.0581
  461SOL    HW2 7399   4.143   2.136   0.767  0.8311  0.4416  0.6079
  462SOL     OW 7400   2.218   4.955   6.115 -0.2922  0.2663  0.6223
  462SOL    HW1 7401   2.309   4.986   6.090 -0.6792 -0.1558 -1.5082
  462SOL    HW2 7402   2.223   4.863   6.155  0.0428 -1.1385 -2.3693
  463SOL     OW 7403   5.105   3.751   6.499 -0.2153  0.6539  0.6052
  463SOL    HW1 7404   5.046   3.800   6.434 -2.4225 -1.6178  0.7453
  463SOL    HW2 7405   5.054   3.734   6.583  1.1181 -0.2654  1.2540
  464SOL     OW 7406   4.235   2.587   6.583  0.4257 -0.3218  0.3175
  464SOL    HW1 7407   4.162   2.571   6.517  1.2988 -0.6547 -0.5770
  464SOL    HW2 7408   4.216   2.672   6.633 -0.7949 -0.6298  0.4175
  465SOL     OW 7409   0.141   1.575   5.541 -0.3595 -0.4741 -0.2629
  465SOL    HW1 7410   0.057   1.522   5.533 -1.5604  1.0518  1.3941
  465SOL    HW2 7411   0.136   1.654   5.479 -0.4307 -0.0638  0.2566
  466SOL     OW 7412   3.997   0.998   6.280  0.6923  0.1542 -0.2001
  466SOL    HW1 7413   4.015   1.085   6.235 -0.2195  1.5639  1.9522
  466SOL    HW2 7414   3.898   0.984   6.287  0.8051 -0.2662  0.8099
  467SOL     OW 7415   3.766   5.183   0.999  0.4614  0.3371 -0.4212
  467SOL    HW1 7416   3.708   5.218   1.072  1.4024  0.4933  0.2687
  467SOL    HW2 7417   3.861   5.212   1.014  1.0655 -1.4982 -0.4682
  468SOL     OW 7418   2.501   4.870   5.430  0.2933 -0.1055 -0.9330
  468SOL    HW1 7419   2.544   4.950   5.473  0.5601 -1.9951  2.6901
  468SOL    HW2 7420   2.402   4.872   5.446  0.4351 -0.9925  0.1620
  469SOL     OW 7421   2.134   5.080   5.879 -0.0832 -0.2934 -0.6151
  469SOL    HW1 7422   2.133   5.046   5.973  0.7588  1.9607  0.2711
  469SOL    HW2 7423   2.109   5.006   5.817 -2.3379 -1.4411  1.4708
  470SOL     OW 7424   4.582   2.383   4.981 -0.5754 -0.3633  0.5968
  470SOL    HW1 7425   4.513   2.450   5.009 -0.2382  0.0234  0.5180
  470SOL    HW2 7426   4.673   2.424   4.989 -0.4664 -0.1756 -1.2033
  471SOL     OW 7427   0.877   1.554   0.686  0.0484 -0.2426 -0.3473
  471SOL    HW1 7428   0.951   1.586   0.745 -0.1202 -0.3240 -0.0895
  471SOL    HW2 7429   0.902   1.569   0.591  0.4425 -0.3688 -0.2654
  472SOL     OW 7430   5.136   5.180   0.125  0.2950  0.5294  0.3237
  472SOL    HW1 7431   5.104   5.209   0.215  0.0862 -1.4829  0.9623
  472SOL    HW2 7432   5.235   5.165   0.128  0.0606 -1.0838  0.7134
  473SOL     OW 7433   2.171   1.388   0.087 -0.1322  0.3796  0.4481
  473SOL    HW1 7434   2.242   1.318   0.088 -2.0593 -1.7519  2.4779
  473SOL    HW2 7435   2.108   1.373   0.163 -2.1647  2.7869 -0.5881
  474SOL     OW 7436   2.149   0.388   6.570  0.3562 -0.4370  0.3512
  474SOL    HW1 7437   2.056   0.419   6.554  0.5888  0.1149  0.0476
  474SOL    HW2 7438   2.151   0.288   6.572 -0.5590 -0.4564  2.2359
  475SOL     OW 7439   3.653   0.030   0.950 -0.1490 -0.0426  0.0377
  475SOL    HW1 7440   3.555   0.048   0.952  0.1292  1.5937  0.9895
  475SOL    HW2 7441   3.699   0.088   1.017  1.6765  0.5762 -1.6367
  476SOL     OW 7442   0.142   2.838   1.318 -0.3386 -0.5101  0.4960
  476SOL    HW1 7443   0.221   2.813   1.373 -0.9542 -0.7996  1.2737
  476SOL    HW2 7444   0.081   2.897   1.371  0.5126  1.7375 -0.9167
  477SOL     OW 7445   2.060   1.364   0.354 -0.2306  0.3219 -0.1339
  477SOL    HW1 7446   2.009   1.373   0.440 -2.3979  1.9638 -1.4708
  477SOL    HW2 7447   2.146   1.415   0.361  0.3886 -0.8493  1.5173
  478SOL     OW 7448   6.213   1.468   5.512 -0.1681  0.2166  0.8176
  478SOL    HW1 7449   6.160   1.444   5.430  0.0419 -0.1679  0.7915
  478SOL    HW2 7450   6.169   1.429   5.593 -1.9358  2.8736  1.2694
  479SOL     OW 7451   5.072   1.169   6.345 -0.3042  0.0001  0.0812
  479SOL    HW1 7452   5.001   1.099   6.351 -1.2923  0.9596 -0.1446
  479SOL    HW2 7453   5.066   1.229   6.425  0.1775  0.1589 -0.0006
  480SOL     OW 7454   5.749   6.318   5.737 -0.0228  0.1042 -0.3949
  480SOL    HW1 7455   5.805   6.310   5.820 -0.1661 -0.9831 -0.3813
  480SOL    HW2 7456   5.736   6.414   5.715  0.6580  0.3992  0.4123
  481SOL     OW 7457   3.003   2.222   5.947 -0.4930 -0.3416  0.3108
  481SOL    HW1 7458   2.910   2.258   5.947  0.3024  1.8464  0.2419
  481SOL    HW2 7459   3.054   2.259   5.869  0.6537 -0.9016  0.7599
  482SOL     OW 7460   3.657   2.621   5.490 -0.2019  0.5255 -0.1158
  482SOL    HW1 7461   3.562   2.629   5.460  0.1609  0.2163 -1.4267
  482SOL    HW2 7462   3.717   2.630   5.411  0.8819  0.9887  0.7398
  483SOL     OW 7463   5.674   1.904   0.169  0.2499  0.9183 -0.4206
  483SOL    HW1 7464   5.648   1.875   0.077  0.6282  1.3642 -0.6722
  483SOL    HW2 7465   5.594   1.905   0.228 -0.0279  0.8164 -0.7924
  484SOL     OW 7466   2.459   1.533   0.025  0.7971 -0.3860 -0.2819
  484SOL    HW1 7467   2.454   1.498   0.118  0.5971 -0.8900 -0.4771
  484SOL    HW2 7468   2.497   1.463  -0.035  3.5343  0.8385 -0.1315
  485SOL     OW 7469   4.289   0.108   1.380  0.4144 -0.0373 -0.1214
  485SOL    HW1 7470   4.342   0.026   1.403 -1.1528 -1.3106 -0.8441
  485SOL    HW2 7471   4.286   0.119   1.280  1.6860  1.6868 -0.0168
  486SOL     OW 7472   3.294   0.805   5.578  0.4209 -0.2764  0.2562
  486SOL    HW1 7473   3.302   0.762   5.668  0.4348 -0.0248  0.3761
  486SOL    HW2 7474   3.199   0.804   5.549  0.2814  0.4402  0.6719
  487SOL     OW 7475   1.462   1.303   0.036  0.0037 -0.6108  1.0045
  487SOL    HW1 7476   1.553   1.275   0.003  0.9582  1.4071  1.7740
  487SOL    HW2 7477   1.398   1.301  -0.041  1.6880  1.9253 -0.6521
  488SOL     OW 7478   5.980   6.075   1.817  0.0377 -0.0287  0.2344
  488SOL    HW1 7479   5.884   6.085   1.794 -0.1994 -2.4581 -0.0878
  488SOL    HW2 7480   5.998   6.116   1.907 -1.2957  0.3989  0.3167
  489SOL     OW 7481   5.375   2.700   0.759 -0.3734 -0.7269  0.1270
  489SOL    HW1 7482   5.277   2.688   0.744 -0.3215  0.0263 -0.8948
  489SOL    HW2 7483   5.426   2.637   0.700 -0.2172  0.4933 -1.0890
  490SOL     OW 7484   5.347   1.588   5.595 -0.1290 -0.0343 -0.8714
  490SOL    HW1 7485   5.337   1.650   5.517 -1.2724  1.7155  0.5695
  490SOL    HW2 7486   5.257   1.553   5.621  0.2046 -0.4076 -0.2012
  491SOL     OW 7487   2.350   1.497   0.514 -0.3616  0.3203 -0.1173
  491SOL    HW1 7488   2.447   1.484   0.493 -0.3164  0.2615  0.1309
  491SOL    HW2 7489   2.314   1.572   0.458 -0.1651  0.3657 -0.1839
  492SOL     OW 7490   1.045   5.122   0.881 -0.2128 -0.0035  0.3376
  492SOL    HW1 7491   1.008   5.208   0.917  1.8617  1.5291 -0.9370
  492SOL    HW2 7492   1.142   5.135   0.858 -0.9786 -1.0363 -4.7638
  493SOL     OW 7493   4.365   3.533   5.938 -0.0342  0.5852  0.2813
  493SOL    HW1 7494   4.460   3.534   5.970  0.2887  2.6370 -0.5434
  493SOL    HW2 7495   4.362   3.499   5.844 -0.4181 -1.3339  0.9423
  494SOL     OW 7496   3.560   2.028   0.207 -0.0300 -0.3196 -0.1185
  494SOL    HW1 7497   3.506   2.015   0.290  1.4922 -2.4734  0.6146
  494SOL    HW2 7498   3.565   1.941   0.157  1.1248  0.3309 -1.1781
  495SOL     OW 7499   0.433   2.413   0.693  0.1277 -0.2748 -0.1709
  495SOL    HW1 7500   0.414   2.316   0.710  0.8861 -1.0319 -3.1457
  495SOL    HW2 7501   0.438   2.430   0.595 -1.8620  3.1979  0.1624
  496SOL     OW 7502   3.565   2.861   1.801  0.2032  0.3047  0.0467
  496SOL    HW1 7503   3.627   2.837   1.727 -0.0239  1.7410 -0.6550
  496SOL    HW2 7504   3.553   2.783   1.862 -0.1957 -1.1591 -1.8326
  497SOL     OW 7505   3.620   3.817   1.179 -0.0339  0.7116  0.1368
  497SOL    HW1 7506   3.713   3.805   1.216  0.0529  2.9747  0.8351
  497SOL    HW2 7507   3.560   3.852   1.251 -1.1980  0.2196 -0.5681
  498SOL     OW 7508   1.315   1.869   0.266 -0.3864 -0.0270  0.3917
  498SOL    HW1 7509   1.362   1.793   0.312  0.3735 -0.3380 -0.8664
  498SOL    HW2 7510   1.377   1.948   0.261 -0.5147  0.0534  0.0431
  499SOL     OW 7511   3.147   5.911   0.621  0.6479  0.2973  0.0321
  499SOL    HW1 7512   3.176   5.832   0.567  3.3427  0.1116  1.5871
  499SOL    HW2 7513   3.054   5.937   0.595  0.6530 -1.7457 -2.3435
  500SOL     OW 7514   0.421   4.225   1.005 -0.5392 -0.3984  0.1929
  500SOL    HW1 7515   0.497   4.285   0.982 -1.4847  0.0064 -2.1524
  500SOL    HW2 7516   0.392   4.241   1.099  0.5851  1.3020  0.2746
  501SOL     OW 7517   0.768   0.555   0.027 -0.3822 -0.0349 -0.6050
  501SOL    HW1 7518   0.719   0.482  -0.021  0.2296 -0.2228 -0.9488
  501SOL    HW2 7519   0.829   0.601  -0.037  1.7367 -1.3871  0.3450
  502SOL     OW 7520   3.207   5.701   0.227  0.1041  0.0980 -0.1660
  502SOL    HW1 7521   3.300   5.729   0.203  0.4585  1.7362  2.6154
  502SOL    HW2 7522   3.205   5.672   0.323 -2.2168 -0.2609 -0.2553
  503SOL     OW 7523   3.270   4.890   5.961 -0.0543 -0.6602  0.0998
  503SOL    HW1 7524   3.284   4.869   5.865  0.1345  0.2354 -0.0725
  503SOL    HW2 7525   3.182   4.852   5.991  0.5500 -2.2243 -0.0266
  504SOL     OW 7526   3.134   6.270   5.854  0.0461  0.1725  0.3145
  504SOL    HW1 7527   3.042   6.235   5.841 -0.0803 -0.1504  1.8356
  504SOL    HW2 7528   3.193   6.236   5.781 -1.3115  1.5915 -1.5334
  505SOL     OW 7529   3.548   0.675   0.585 -0.2096  0.0414  0.0291
  505SOL    HW1 7530   3.503   0.763   0.569  0.1447  1.0348  3.6438
  505SOL    HW2 7531   3.644   0.689   0.609 -0.3642 -1.1875  1.5738
  506SOL     OW 7532   6.048   5.192   0.805  0.1885 -0.2145  0.5270
  506SOL    HW1 7533   5.971   5.151   0.854 -0.2751 -0.6211 -0.5076
  506SOL    HW2 7534   6.037   5.292   0.802 -0.1967 -0.2541  0.5657
  507SOL     OW 7535   3.053   0.642   1.165  0.1676  0.2169  0.2222
  507SOL    HW1 7536   2.993   0.674   1.093 -1.7123 -0.6024  1.3423
  507SOL    HW2 7537   3.089   0.551   1.141 -2.9435 -1.5069  1.5270
  508SOL     OW 7538   1.452   4.303   5.051  0.2518  0.2285 -0.2986
  508SOL    HW1 7539   1.534   4.361   5.048  0.1745  0.3185 -0.7121
  508SOL    HW2 7540   1.460   4.230   4.984  1.5871 -1.9490  2.0437
  509SOL     OW 7541   1.870   3.626   0.601  0.1134 -0.1306 -0.0797
  509SOL    HW1 7542   1.871   3.527   0.585  1.6292 -0.1104 -0.2196
  509SOL    HW2 7543   1.792   3.667   0.554 -2.0836 -1.5610  2.0441
  510SOL     OW 7544   6.129   2.663   0.666  0.1999  0.3927  0.1693
  510SOL    HW1 7545   6.173   2.622   0.587  0.3205  0.8014  0.0215
  510SOL    HW2 7546   6.090   2.591   0.724 -0.3357  0.1122 -0.5201
  511SOL     OW 7547   4.012   5.049   6.027  0.2001  0.1313 -0.3890
  511SOL    HW1 7548   3.987   5.131   5.975 -0.0034  0.3055 -0.0162
  511SOL    HW2 7549   4.099   5.064   6.072 -0.3487  0.5572  0.5673
  512SOL     OW 7550   6.224   0.576   5.968  0.1149 -0.5998  0.3846
  512SOL    HW1 7551   6.155   0.648   5.979 -0.8849 -1.7165  1.6627
  512SOL    HW2 7552   6.215   0.536   5.877 -0.7144 -0.5242  0.4281
  513SOL     OW 7553   3.176   0.737   0.336 -0.3099 -0.8190 -0.5945
  513SOL    HW1 7554   3.215   0.651   0.368 -1.8180 -1.4258 -0.3055
  513SOL    HW2 7555   3.076   0.730   0.333 -0.4672  0.9068 -0.6259
  514SOL     OW 7556   5.425   3.784   6.315  0.3993 -0.1883 -0.4604
  514SOL    HW1 7557   5.454   3.851   6.383  1.3277  1.0624 -2.0325
  514SOL    HW2 7558   5.449   3.692   6.347 -0.1620  0.2632  1.3587
  515SOL     OW 7559   1.328   3.729   1.549  0.2001 -0.1574 -0.3956
  515SOL    HW1 7560   1.260   3.727   1.622  1.9330  2.5265  1.5108
  515SOL    HW2 7561   1.346   3.824   1.523  3.5657 -0.6293 -0.3208
  516SOL     OW 7562   5.942   1.055   6.519  0.2762  0.4409  0.4660
  516SOL    HW1 7563   5.890   1.084   6.439  0.6670 -0.4287 -0.1175
  516SOL    HW2 7564   6.040   1.068   6.502  0.3358  0.7610  1.0181
  517SOL     OW 7565   6.283   4.699   0.228  0.4027 -0.1184 -0.0725
  517SOL    HW1 7566   6.254   4.794   0.217  2.4055  0.5269 -0.2102
  517SOL    HW2 7567   6.233   4.641   0.163  1.3842  1.3505 -2.2491
  518SOL     OW 7568   4.966   2.167   1.367  0.0475  0.6489  0.0530
  518SOL    HW1 7569   5.006   2.109   1.438 -1.5388 -0.5181  0.0374
  518SOL    HW2 7570   5.011   2.257   1.369  0.3086  0.5262  2.2630
  519SOL     OW 7571   4.770   4.488   0.808 -0.3714 -0.5591  0.6090
  519SOL    HW1 7572   4.813   4.406   0.771  0.6439  0.9706 -1.8028
  519SOL    HW2 7573   4.671   4.474   0.815 -0.2077 -1.9804  0.2505
  520SOL     OW 7574   4.079   5.554   5.853 -0.4303 -0.4493 -0.1764
  520SOL    HW1 7575   4.149   5.586   5.790 -0.0990  0.0020  0.4118
  520SOL    HW2 7576   4.033   5.632   5.896  0.2801 -0.7344  1.1584
  521SOL     OW 7577   2.627   1.399   0.603  0.3189  0.2208  0.2097
  521SOL    HW1 7578   2.602   1.328   0.668 -0.1386  1.4215  1.3887
  521SOL    HW2 7579   2.713   1.441   0.630  1.2711 -0.7223 -1.2137
  522SOL     OW 7580   4.309   2.953   5.755 -0.2435  0.2546  0.2661
  522SOL    HW1 7581   4.349   2.941   5.846  0.0869  0.9541  0.2224
  522SOL    HW2 7582   4.213   2.978   5.763  0.3072  2.5213  0.5291
  523SOL     OW 7583   2.859   0.338   0.025 -0.1498  1.0561  0.0811
  523SOL    HW1 7584   2.872   0.242   0.000 -0.8420  0.7852  0.7255
  523SOL    HW2 7585   2.862   0.394  -0.058  0.1271  0.4703 -0.3156
  524SOL     OW 7586   1.403   1.944   5.246 -0.1209 -0.2830  0.0422
  524SOL    HW1 7587   1.307   1.933   5.272 -0.5072 -1.7946 -1.7716
  524SOL    HW2 7588   1.414   2.028   5.193 -0.3627  0.0666  0.5370
  525SOL     OW 7589   3.170   1.452   0.480  0.2482  0.6822 -0.0461
  525SOL    HW1 7590   3.253   1.396   0.484  0.3360  0.8152  0.0187
  525SOL    HW2 7591   3.135   1.467   0.572  0.6209  1.3138 -0.0001
  526SOL     OW 7592   2.585   3.623   1.986 -0.2134 -0.6125 -0.2329
  526SOL    HW1 7593   2.583   3.598   2.083 -2.4356 -1.1998 -0.3621
  526SOL    HW2 7594   2.503   3.588   1.941  0.0056  0.9601 -2.0025
  527SOL     OW 7595   5.463   5.938   5.866  0.0146 -0.1339 -0.7603
  527SOL    HW1 7596   5.376   5.895   5.846 -0.9552  0.0365  2.5622
  527SOL    HW2 7597   5.480   6.011   5.799 -2.8890  0.4933 -0.9419
  528SOL     OW 7598   3.246   4.028   1.237 -0.6302 -0.8220 -0.7748
  528SOL    HW1 7599   3.158   4.059   1.199 -1.5685 -2.5205 -0.0854
  528SOL    HW2 7600   3.236   3.936   1.273  0.8740 -0.2072  1.3914
  529SOL     OW 7601   1.304   3.531   6.472  0.1447  0.0258 -0.6826
  529SOL    HW1 7602   1.277   3.541   6.568  1.8295  0.8246 -0.2488
  529SOL    HW2 7603   1.374   3.599   6.450  1.9193 -1.9605 -1.6388
  530SOL     OW 7604   6.029   0.435   5.151  0.6796 -0.1698  0.2024
  530SOL    HW1 7605   5.967   0.491   5.096 -0.1275 -0.7449  0.5219
  530SOL    HW2 7606   6.123   0.468   5.137  0.2212  1.3722  0.5151
  531SOL     OW 7607   1.939   4.698   1.036 -0.2681  0.8267  0.1663
  531SOL    HW1 7608   1.948   4.700   1.135  1.8677 -0.7414  0.0629
  531SOL    HW2 7609   1.903   4.609   1.007  0.8036  0.6140 -0.5603
  532SOL     OW 7610   0.887   0.955   0.834  0.1704  0.0517  0.1367
  532SOL    HW1 7611   0.872   0.897   0.914 -0.4913  0.9018  0.6501
  532SOL    HW2 7612   0.974   1.004   0.844  1.2576 -1.5821 -0.7854
  533SOL     OW 7613   2.472   0.887   0.871 -0.5235  0.5281 -0.0429
  533SOL    HW1 7614   2.373   0.871   0.870 -0.3751 -0.4538  0.1539
  533SOL    HW2 7615   2.490   0.984   0.883 -1.4612  0.6306  0.5934
  534SOL     OW 7616   5.835   2.623   6.492 -0.9955  0.6161 -0.4840
  534SOL    HW1 7617   5.740   2.621   6.525 -1.3663  2.7535 -1.2609
  534SOL    HW2 7618   5.835   2.623   6.392  0.0136 -2.7283 -0.6210
  535SOL     OW 7619   5.917   3.153   0.107 -1.0628 -0.2610 -0.4112
  535SOL    HW1 7620   5.976   3.229   0.133 -1.0388  0.8922 -3.4483
  535SOL    HW2 7621   5.832   3.157   0.159 -0.1050  0.4249  1.1558
  536SOL     OW 7622   0.757   3.135   4.946 -0.2109  0.4303 -0.0102
  536SOL    HW1 7623   0.689   3.154   5.017 -0.7189 -1.3966  0.0436
  536SOL    HW2 7624   0.717   3.153   4.856 -0.9244 -0.8988  0.0042
  537SOL     OW 7625   4.225   2.824   6.381 -0.1751  0.5064  0.4187
  537SOL    HW1 7626   4.230   2.732   6.422 -0.6362  1.2788  2.3002
  537SOL    HW2 7627   4.311   2.842   6.332  0.6786 -0.2382  1.5739
  538SOL     OW 7628   1.336   1.529   0.309  0.0953  0.7398  0.3519
  538SOL    HW1 7629   1.269   1.500   0.378  1.7396 -0.5381  1.4830
  538SOL    HW2 7630   1.291   1.535   0.219 -0.8338 -4.1308  0.2176
  539SOL     OW 7631   0.865   2.660   5.927  0.1460 -0.0390  0.1245
  539SOL    HW1 7632   0.871   2.611   5.840 -1.7771  2.0824 -1.3000
  539SOL    HW2 7633   0.949   2.712   5.942  0.1045  0.3772 -0.9890
  540SOL     OW 7634   6.154   4.625   0.685 -0.2815 -0.2550  0.1584
  540SOL    HW1 7635   6.087   4.552   0.701 -0.2864  0.2168  2.7595
  540SOL    HW2 7636   6.240   4.602   0.729  0.0280  0.8494  0.1639
  541SOL     OW 7637   4.114   1.384   0.083 -0.6176 -0.5185 -0.5341
  541SOL    HW1 7638   4.086   1.293   0.113  2.5564 -0.9703  1.4967
  541SOL    HW2 7639   4.110   1.447   0.160 -0.9846  0.6562 -1.4772
  542SOL     OW 7640   6.129   4.001   0.528 -0.1103  0.5362 -0.4862
  542SOL    HW1 7641   6.080   4.083   0.499 -1.5169  0.1867  0.7600
  542SOL    HW2 7642   6.174   4.018   0.616  1.3166  0.5820 -1.2070
  543SOL     OW 7643   1.475   1.743   0.490 -0.2733  0.0257  0.3339
  543SOL    HW1 7644   1.376   1.731   0.480  0.0432 -1.8131 -1.0459
  543SOL    HW2 7645   1.523   1.685   0.424  1.7450  0.9330  0.9184
  544SOL     OW 7646   1.068   3.512   1.924 -0.3454 -0.1507  0.1116
  544SOL    HW1 7647   1.068   3.413   1.937  1.3525 -0.1568  0.2084
  544SOL    HW2 7648   1.108   3.557   2.004  2.6393  0.3230 -1.5316
  545SOL     OW 7649   1.997   3.075   1.698 -0.0473 -0.0421  0.5183
  545SOL    HW1 7650   2.001   3.099   1.602  2.7984  0.9714  0.7742
  545SOL    HW2 7651   1.948   2.989   1.709 -1.1253  0.2253 -1.7080
  546SOL     OW 7652   1.447   4.680   6.025  0.5332 -0.2833  0.5588
  546SOL    HW1 7653   1.438   4.720   6.116 -0.8749 -0.1339  0.3736
  546SOL    HW2 7654   1.435   4.751   5.955  2.2540 -0.2649  0.2232
  547SOL     OW 7655   0.329   0.665   6.180  0.5414 -0.0232  0.6061
  547SOL    HW1 7656   0.344   0.688   6.084 -0.0334 -0.0140  0.5170
  547SOL    HW2 7657   0.239   0.624   6.191  0.6107 -0.0420  1.1413
  548SOL     OW 7658   5.378   5.656   1.031  0.0958  0.6148  0.0678
  548SOL    HW1 7659   5.399   5.586   1.099  0.6701 -0.9175 -1.5778
  548SOL    HW2 7660   5.371   5.745   1.075  0.0650 -0.3587  2.1471
  549SOL     OW 7661   5.228   1.421   6.466 -0.4391 -0.1750 -0.2352
  549SOL    HW1 7662   5.135   1.450   6.490  0.2878  1.7684  0.4966
  549SOL    HW2 7663   5.263   1.359   6.536 -0.5454  0.5936  0.5213
  550SOL     OW 7664   4.221   4.983   0.632 -0.4324  0.5420  0.8818
  550SOL    HW1 7665   4.319   4.986   0.616 -0.0957 -1.9895  1.9692
  550SOL    HW2 7666   4.196   5.054   0.699  0.8040  0.6312  1.2668
  551SOL     OW 7667   0.271   4.863   0.743  0.0559  0.0208  0.2628
  551SOL    HW1 7668   0.338   4.819   0.804 -1.3889 -0.3074  1.6895
  551SOL    HW2 7669   0.313   4.943   0.700  1.5233 -0.4803  0.7012
  552SOL     OW 7670   4.735   0.933   0.733  0.2999  0.3079 -1.0132
  552SOL    HW1 7671   4.683   0.854   0.764 -0.6367  0.2376 -2.6555
  552SOL    HW2 7672   4.791   0.908   0.654 -0.3421  1.3578 -1.8324
  553SOL     OW 7673   3.759   3.076   0.986  0.3496  0.2247 -0.5072
  553SOL    HW1 7674   3.815   3.154   1.015 -1.3158  1.3165 -0.0694
  553SOL    HW2 7675   3.751   3.011   1.061  1.4272 -0.2119 -0.7468
  554SOL     OW 7676   1.959   5.729   1.420 -0.4393  0.3339  0.4733
  554SOL    HW1 7677   1.890   5.722   1.492 -0.5132 -1.7065  0.2744
  554SOL    HW2 7678   1.995   5.822   1.417 -2.2722  1.1244  1.4072
  555SOL     OW 7679   2.309   2.425   0.495  0.0620  0.0880 -0.8469
  555SOL    HW1 7680   2.341   2.387   0.581  0.4899  0.7075 -0.7262
  555SOL    HW2 7681   2.358   2.510   0.475 -0.4578  0.2698 -1.4009
  556SOL     OW 7682   4.198   1.966   6.587  0.2814 -0.4178  0.3262
  556SOL    HW1 7683   4.292   1.983   6.615 -0.2512  1.7463  0.9615
  556SOL    HW2 7684   4.149   1.920   6.662  1.2797 -3.5069 -0.7610
  557SOL     OW 7685   4.394   3.714   5.676 -0.1223 -0.4039  0.1739
  557SOL    HW1 7686   4.318   3.650   5.686 -0.2544 -0.2546  0.1359
  557SOL    HW2 7687   4.419   3.722   5.580  0.2844 -0.8477  0.2415
  558SOL     OW 7688   4.957   0.198   5.563 -0.2667  0.2167 -0.1740
  558SOL    HW1 7689   4.900   0.279   5.578 -0.5951 -0.2119  0.9885
  558SOL    HW2 7690   5.046   0.227   5.528  0.0028  1.1948  1.2348
  559SOL     OW 7691   2.689   3.523   0.092 -0.5486  0.4189 -0.3451
  559SOL    HW1 7692   2.601   3.495   0.054  0.2057 -2.8768  0.0277
  559SOL    HW2 7693   2.675   3.566   0.181 -1.7490 -1.2917  0.3334
  560SOL     OW 7694   3.143   2.324   5.651 -0.6814  0.0929 -0.4434
  560SOL    HW1 7695   3.158   2.227   5.671 -2.2469  0.0192  0.5526
  560SOL    HW2 7696   3.061   2.333   5.594 -2.5499  0.9773  2.1883
  561SOL     OW 7697   1.826   2.292   0.167  0.1746 -0.4554 -0.3822
  561SOL    HW1 7698   1.885   2.362   0.128  1.5428 -1.5489 -0.3626
  561SOL    HW2 7699   1.876   2.205   0.173 -0.9919 -1.0841  0.9504
  562SOL     OW 7700   3.193   5.768   5.936 -0.3110  0.2054  0.1233
  562SOL    HW1 7701   3.250   5.845   5.910  0.6794  0.1199  1.9147
  562SOL    HW2 7702   3.167   5.716   5.854 -0.7298  2.2075 -1.0722
  563SOL     OW 7703   0.024   4.931   5.202 -0.6845  0.3250  0.3222
  563SOL    HW1 7704   0.015   5.026   5.174 -0.8143  0.1372 -0.2805
  563SOL    HW2 7705  -0.061   4.882   5.183 -0.0067 -0.3588 -1.1546
  564SOL     OW 7706   2.612   3.260   4.744 -0.0265  0.0185 -0.3819
  564SOL    HW1 7707   2.629   3.331   4.676 -1.4216  0.9093  0.1530
  564SOL    HW2 7708   2.559   3.186   4.703  0.5996 -0.2659 -0.6899
  565SOL     OW 7709   2.333   4.333   6.192 -0.9552 -0.0526  0.4135
  565SOL    HW1 7710   2.302   4.397   6.122  0.1568 -2.2791 -2.3182
  565SOL    HW2 7711   2.414   4.284   6.159  0.0797 -0.7696  3.6032
  566SOL     OW 7712   2.907   6.317   1.073 -0.0796  0.2906  0.1835
  566SOL    HW1 7713   2.827   6.376   1.063  0.4848  1.4068  1.7688
  566SOL    HW2 7714   2.879   6.230   1.114 -0.5340  0.5255  0.3774
  567SOL     OW 7715   6.192   4.308   0.846  0.4932  0.2020  0.5134
  567SOL    HW1 7716   6.204   4.314   0.747  1.1389  1.1778  0.6381
  567SOL    HW2 7717   6.281   4.297   0.890  0.2266 -0.0554  1.0024
  568SOL     OW 7718   1.201   5.990   6.256 -0.0793  0.4194 -0.0253
  568SOL    HW1 7719   1.174   5.894   6.244 -1.2427  0.9114 -1.9576
  568SOL    HW2 7720   1.295   6.003   6.225 -0.6837  0.2781 -2.0736
  569SOL     OW 7721   4.611   1.459   0.372  0.1407  0.2549  0.0401
  569SOL    HW1 7722   4.586   1.555   0.382  0.0423  0.0737  1.8404
  569SOL    HW2 7723   4.697   1.442   0.421 -0.6452 -0.8693  1.0847
  570SOL     OW 7724   3.225   1.701   1.231  0.2044 -0.4024  0.3288
  570SOL    HW1 7725   3.312   1.721   1.274  0.3802 -0.9886  0.2515
  570SOL    HW2 7726   3.180   1.626   1.279  0.5167 -1.2281 -0.6431
  571SOL     OW 7727   5.863   1.888   0.345 -0.0649 -0.5056 -0.5743
  571SOL    HW1 7728   5.920   1.816   0.305 -4.0996 -3.6591 -1.3680
  571SOL    HW2 7729   5.788   1.909   0.284 -0.5125  2.5755  0.8625
  572SOL     OW 7730   6.293   1.367   0.137 -0.3620  0.3198  0.8435
  572SOL    HW1 7731   6.212   1.345   0.192 -0.8045  0.7563  0.3729
  572SOL    HW2 7732   6.372   1.316   0.172 -1.1319 -1.2001  0.4357
  573SOL     OW 7733   4.208   0.131   1.129 -0.5424 -0.7792  0.0566
  573SOL    HW1 7734   4.187   0.165   1.038  0.0560 -1.0474 -0.1802
  573SOL    HW2 7735   4.125   0.093   1.170 -1.2642  1.0164  0.3686
  574SOL     OW 7736   0.434   3.694   0.313 -0.0118  0.2264  0.0434
  574SOL    HW1 7737   0.533   3.702   0.329 -0.1888  1.2487  0.7518
  574SOL    HW2 7738   0.416   3.696   0.214  0.6980 -0.4592 -0.1145
  575SOL     OW 7739   1.689   4.771   6.300 -0.5455  0.6931  0.3473
  575SOL    HW1 7740   1.758   4.843   6.289  0.2101  0.1219  1.2355
  575SOL    HW2 7741   1.606   4.811   6.339 -0.3588  1.2003  0.2351
  576SOL     OW 7742   0.832   1.665   6.011 -0.1877  0.0493 -0.0124
  576SOL    HW1 7743   0.903   1.614   6.060  0.9368  1.7859  0.2654
  576SOL    HW2 7744   0.857   1.762   6.008 -2.0127  0.5374 -0.9152
  577SOL     OW 7745   2.652   0.631   0.233  0.3354  0.3106  0.3491
  577SOL    HW1 7746   2.609   0.581   0.157 -1.3141  2.3410 -0.1368
  577SOL    HW2 7747   2.627   0.587   0.320 -0.2308 -0.2948 -0.1079
  578SOL     OW 7748   0.423   3.313   5.576  0.4462  0.0553  0.2781
  578SOL    HW1 7749   0.476   3.281   5.655  1.6948  2.6990  0.6477
  578SOL    HW2 7750   0.486   3.332   5.500 -0.4361 -0.1212 -0.5068
  579SOL     OW 7751   2.984   6.207   0.570  0.0597 -0.0979  0.0287
  579SOL    HW1 7752   3.065   6.180   0.518  0.1698  0.1469  0.0706
  579SOL    HW2 7753   2.903   6.190   0.515  0.1396 -0.3538 -0.0097
  580SOL     OW 7754   4.922   4.589   5.929 -0.0107 -0.1116 -0.1517
  580SOL    HW1 7755   5.012   4.551   5.950  0.0642  0.6995  1.1171
  580SOL    HW2 7756   4.933   4.676   5.881 -0.0706  0.4839  0.8806
  581SOL     OW 7757   5.749   1.423   6.662 -0.5529  0.1618  0.7448
  581SOL    HW1 7758   5.697   1.496   6.708 -1.7438 -0.3084  0.1718
  581SOL    HW2 7759   5.728   1.424   6.565 -0.7199 -1.0570  0.7542
  582SOL     OW 7760   1.906   4.834   4.379  0.1212 -0.1640  0.2926
  582SOL    HW1 7761   1.944   4.747   4.413  1.5296 -0.2610 -1.3887
  582SOL    HW2 7762   1.981   4.892   4.347 -0.8959  1.2699  0.4522
  583SOL     OW 7763   0.907   3.082   1.733 -0.3354 -0.0927 -0.1992
  583SOL    HW1 7764   0.934   3.088   1.637  0.0681 -0.3385 -0.1034
  583SOL    HW2 7765   0.828   3.022   1.742  0.4105 -1.1064 -0.2358
  584SOL     OW 7766   2.725   1.540   5.913  0.0703  0.4018  0.0375
  584SOL    HW1 7767   2.732   1.494   5.824 -1.7059  0.7344 -0.3114
  584SOL    HW2 7768   2.813   1.534   5.960  1.3573  0.9760 -2.1096
  585SOL     OW 7769   6.106   3.088   5.246  0.7386 -0.3689  0.3545
  585SOL    HW1 7770   6.169   3.037   5.187  1.6802  0.9885  0.1355
  585SOL    HW2 7771   6.018   3.041   5.249  1.5114 -1.9103  0.0465
  586SOL     OW 7772   4.789   4.834   1.453 -0.1294 -0.3653  0.0134
  586SOL    HW1 7773   4.731   4.800   1.527 -0.8331 -1.3287 -0.9484
  586SOL    HW2 7774   4.851   4.904   1.489 -0.9115 -0.3241  1.3618
  587SOL     OW 7775   0.159   3.896   1.845  0.1057  0.2412 -0.2759
  587SOL    HW1 7776   0.152   3.882   1.944  0.7846 -1.3612 -0.4321
  587SOL    HW2 7777   0.213   3.979   1.827  1.5365 -0.4453  0.6942
  588SOL     OW 7778   5.028   2.650   0.770  0.3752 -0.1264 -0.2113
  588SOL    HW1 7779   4.933   2.646   0.800  0.2229 -1.5689 -0.8251
  588SOL    HW2 7780   5.067   2.558   0.771  2.0866  0.5616  1.0061
  589SOL     OW 7781   1.418   0.360   5.690 -0.6960  0.3423  0.2473
  589SOL    HW1 7782   1.414   0.278   5.632 -0.3946  0.8109 -0.4512
  589SOL    HW2 7783   1.432   0.441   5.633  1.4484  0.6427  1.0803
  590SOL     OW 7784   4.317   3.332   6.638  0.0567 -0.2890  0.3804
  590SOL    HW1 7785   4.302   3.369   6.546  0.5161 -1.8418 -0.3394
  590SOL    HW2 7786   4.229   3.315   6.681 -0.3061 -2.6839 -1.0983
  591SOL     OW 7787   1.142   4.281   0.531 -0.4944 -0.2066  0.5309
  591SOL    HW1 7788   1.153   4.216   0.606 -2.4329 -0.9058  0.2677
  591SOL    HW2 7789   1.230   4.324   0.510  0.6136 -1.9733  1.4049
  592SOL     OW 7790   0.963   4.442   0.749  0.4869  0.1710 -0.2198
  592SOL    HW1 7791   1.002   4.501   0.820  1.7612 -1.0873  0.1625
  592SOL    HW2 7792   1.009   4.459   0.663  1.2032 -0.6008  0.0035
  593SOL     OW 7793   5.778   5.637   1.662  0.5279 -0.5146  0.2228
  593SOL    HW1 7794   5.842   5.682   1.724  1.7675  0.2194 -1.5089
  593SOL    HW2 7795   5.698   5.607   1.713  1.3712  0.2926  2.1116
  594SOL     OW 7796   2.051   0.203   0.736 -0.3900 -0.1724  0.0980
  594SOL    HW1 7797   2.123   0.253   0.687 -0.2642 -0.6022 -0.1656
  594SOL    HW2 7798   2.050   0.230   0.832  0.2102 -0.2525  0.1299
  595SOL     OW 7799   2.823   0.209   6.450 -0.3784 -0.0186  0.3102
  595SOL    HW1 7800   2.902   0.266   6.425 -0.4641  0.7480  1.6669
  595SOL    HW2 7801   2.855   0.127   6.497 -0.3395 -0.2132 -0.0559
  596SOL     OW 7802   6.009   1.722   5.904 -0.0331  0.3375  0.4311
  596SOL    HW1 7803   6.075   1.734   5.978 -0.8795 -0.9219  1.4223
  596SOL    HW2 7804   5.917   1.727   5.941 -0.4912  0.8723 -0.7480
  597SOL     OW 7805   3.034   5.369   0.270 -0.0535 -0.3338  0.2236
  597SOL    HW1 7806   3.108   5.375   0.337  1.2544  2.0345 -1.3044
  597SOL    HW2 7807   3.069   5.333   0.184 -0.7077  0.6212 -0.4560
  598SOL     OW 7808   2.960   3.918   5.801 -0.3553  0.3230 -0.4147
  598SOL    HW1 7809   2.879   3.972   5.779  1.0388  2.7561  0.0570
  598SOL    HW2 7810   3.039   3.952   5.749  1.1508  0.5378  1.8331
  599SOL     OW 7811   5.178   4.916   5.937 -0.1528  0.5301 -0.2918
  599SOL    HW1 7812   5.231   4.832   5.937 -1.8371 -0.5944  0.4020
  599SOL    HW2 7813   5.144   4.935   6.029  0.1183  1.9419 -0.4505
  600SOL     OW 7814   3.144   5.027   6.478  0.1933  0.6486 -0.2131
  600SOL    HW1 7815   3.242   5.038   6.494  0.1163  0.8185  0.1504
  600SOL    HW2 7816   3.116   5.090   6.405  0.2680  0.9437  0.0090
  601SOL     OW 7817   2.938   0.383   0.757  0.2992 -0.0689  0.1290
  601SOL    HW1 7818   2.842   0.411   0.750  0.7988  1.4678 -1.2851
  601SOL    HW2 7819   2.953   0.302   0.700  0.7196  2.4236 -3.6785
  602SOL     OW 7820   6.291   3.911   5.483 -0.3439  0.0991  0.3716
  602SOL    HW1 7821   6.320   3.827   5.529  2.2009  1.0329  0.6057
  602SOL    HW2 7822   6.349   3.928   5.404 -1.3756  1.2258 -0.1791
  603SOL     OW 7823   2.517   4.046   6.420  0.8535 -0.0821  0.2332
  603SOL    HW1 7824   2.426   4.082   6.441  1.4011  0.1032  2.4313
  603SOL    HW2 7825   2.549   4.086   6.333 -0.5206  1.0185  0.1992
  604SOL     OW 7826   1.508   1.469   1.113 -0.9267  0.4432  0.3334
  604SOL    HW1 7827   1.451   1.549   1.097 -0.2708  0.6864 -0.9856
  604SOL    HW2 7828   1.537   1.431   1.025 -0.5786 -0.7803  0.9491
  605SOL     OW 7829   4.509   4.522   0.623  0.5795 -0.7088  0.1244
  605SOL    HW1 7830   4.537   4.450   0.559  0.5070 -0.2637 -0.4191
  605SOL    HW2 7831   4.525   4.612   0.580  1.3562 -0.3816  1.0711
  606SOL     OW 7832   3.494   1.822   5.084  0.1390  0.5861  0.9891
  606SOL    HW1 7833   3.438   1.801   5.003  1.1980  0.1006  0.3681
  606SOL    HW2 7834   3.536   1.912   5.073  1.2784  0.0035  0.4102
  607SOL     OW 7835   4.412   2.734   6.172 -0.8066 -0.2939 -0.0081
  607SOL    HW1 7836   4.318   2.763   6.153 -0.2461  2.7401  1.2287
  607SOL    HW2 7837   4.475   2.784   6.113  0.1457 -0.2882  0.9723
  608SOL     OW 7838   2.977   3.780   1.899  0.1823  0.0356 -0.7456
  608SOL    HW1 7839   2.898   3.837   1.919 -0.3491 -0.0683 -2.4686
  608SOL    HW2 7840   2.962   3.688   1.937  0.6753  0.7344  1.2791
  609SOL     OW 7841   1.591   3.851   5.660 -0.0832  0.1234 -0.4205
  609SOL    HW1 7842   1.617   3.931   5.606 -0.6867  0.2760 -0.4840
  609SOL    HW2 7843   1.673   3.813   5.703  0.3106  0.3630 -0.9438
  610SOL     OW 7844   5.289   0.934   6.023  0.2005  0.1933  0.1863
  610SOL    HW1 7845   5.285   0.918   6.122  0.0125  0.0814  0.1623
  610SOL    HW2 7846   5.379   0.970   5.998  0.6093 -0.7254  0.2639
  611SOL     OW 7847   5.352   2.756   0.116 -0.0019 -0.0716  0.0429
  611SOL    HW1 7848   5.344   2.734   0.019 -0.7217 -0.4507  0.1850
  611SOL    HW2 7849   5.261   2.771   0.155  0.1993 -0.9859  0.9040
  612SOL     OW 7850   3.027   3.785   0.992  0.7675 -0.0171 -0.5477
  612SOL    HW1 7851   3.085   3.721   0.942 -0.4891 -1.7634  0.1314
  612SOL    HW2 7852   2.969   3.735   1.056 -1.1034  1.6682 -0.8035
  613SOL     OW 7853   3.270   0.966   0.207 -0.3709 -0.4763  0.3424
  613SOL    HW1 7854   3.265   0.867   0.219  0.2127 -0.5236  0.2260
  613SOL    HW2 7855   3.321   0.987   0.123  0.5733 -0.0617  1.0027
  614SOL     OW 7856   1.081   3.491   6.283  0.0062  0.0186  0.3880
  614SOL    HW1 7857   1.093   3.512   6.186  0.4341  0.2543  0.4879
  614SOL    HW2 7858   1.163   3.521   6.333  0.5825 -1.7381  0.5608
  615SOL     OW 7859   3.845   0.292   0.580 -0.1413 -0.0362  0.0686
  615SOL    HW1 7860   3.942   0.293   0.557 -0.6352  0.7063 -2.1724
  615SOL    HW2 7861   3.835   0.283   0.679  2.1839 -0.5453  0.3190
  616SOL     OW 7862   6.241   1.757   0.496  0.1523 -0.1795 -1.0521
  616SOL    HW1 7863   6.302   1.757   0.575 -0.5334 -0.7126 -0.5021
  616SOL    HW2 7864   6.288   1.796   0.417  0.3168  1.9796  0.0335
  617SOL     OW 7865   5.696   6.128   0.462  0.0889  0.0611  0.4846
  617SOL    HW1 7866   5.755   6.157   0.537  0.3785  2.1425 -0.4869
  617SOL    HW2 7867   5.626   6.197   0.446  0.2655 -0.1480 -1.3887
  618SOL     OW 7868   5.364   1.075   4.761 -0.0270 -0.6195 -0.3184
  618SOL    HW1 7869   5.277   1.085   4.713  0.6761 -2.3430 -2.0630
  618SOL    HW2 7870   5.357   1.119   4.851 -1.3451  2.9352 -1.9445
  619SOL     OW 7871   0.339   5.207   0.812 -0.5259  0.0537  0.1945
  619SOL    HW1 7872   0.245   5.203   0.847  0.0382  1.8750  2.1644
  619SOL    HW2 7873   0.397   5.146   0.865 -0.5392 -0.9219 -0.8935
  620SOL     OW 7874   1.567   2.148   0.451 -0.0258  0.3441 -0.2335
  620SOL    HW1 7875   1.482   2.140   0.504  0.6880 -0.8047  0.7763
  620SOL    HW2 7876   1.640   2.180   0.511  0.7904 -0.9483 -0.5146
  621SOL     OW 7877   1.779   6.021   0.753  0.2521  0.2529 -0.3763
  621SOL    HW1 7878   1.699   6.065   0.792 -0.0460  0.1961 -0.9118
  621SOL    HW2 7879   1.779   5.924   0.775  1.5059  0.6721  1.7939
  622SOL     OW 7880   3.415   5.383   5.998  0.0809 -0.5503 -0.4155
  622SOL    HW1 7881   3.347   5.309   5.999 -1.4868  0.8077  1.6851
  622SOL    HW2 7882   3.397   5.442   5.919 -1.3510 -0.1192  0.1925
  623SOL     OW 7883   4.300   4.787   0.109  0.2113  0.2313  0.0841
  623SOL    HW1 7884   4.268   4.737   0.029  0.3037  0.3916 -0.0550
  623SOL    HW2 7885   4.259   4.748   0.192 -2.1032  1.7693 -0.2363
  624SOL     OW 7886   1.684   5.792   0.436 -0.5035  0.4849 -0.4411
  624SOL    HW1 7887   1.624   5.849   0.492 -1.1850  1.1909 -1.8133
  624SOL    HW2 7888   1.733   5.727   0.494 -2.4980 -0.0370  0.7601
  625SOL     OW 7889   0.523   4.509   1.142 -0.5954  0.3095 -0.4984
  625SOL    HW1 7890   0.480   4.443   1.204 -1.0255 -0.7327 -1.8486
  625SOL    HW2 7891   0.593   4.463   1.087  1.7987  1.8257  1.1227
  626SOL     OW 7892   1.388   3.129   5.362  0.1072  0.1313  0.1205
  626SOL    HW1 7893   1.344   3.090   5.281 -0.5756 -0.4783  0.7686
  626SOL    HW2 7894   1.478   3.165   5.337 -0.6868  1.2660 -1.1937
  627SOL     OW 7895   2.027   5.277   5.561 -0.0132  0.7202  0.0933
  627SOL    HW1 7896   2.098   5.206   5.559 -0.6614  0.0217  0.9530
  627SOL    HW2 7897   2.004   5.304   5.467 -1.4893 -2.0077 -0.4423
  628SOL     OW 7898   0.557   1.207   0.039  0.3598 -0.6570  0.3611
  628SOL    HW1 7899   0.504   1.149  -0.023 -0.0752 -1.1032  1.1415
  628SOL    HW2 7900   0.615   1.150   0.097  1.2122 -0.2063 -0.0276
  629SOL     OW 7901   3.436   2.693   6.477  0.2099  0.1976  0.0728
  629SOL    HW1 7902   3.433   2.608   6.424 -1.2675 -0.7365  1.5719
  629SOL    HW2 7903   3.530   2.727   6.479  0.5891 -0.5746 -1.7778
  630SOL     OW 7904   0.424   0.481   0.237 -0.4194  0.2830  0.3548
  630SOL    HW1 7905   0.409   0.551   0.307  1.0802 -0.1975  1.1987
  630SOL    HW2 7906   0.481   0.409   0.274  3.8203  1.8713 -2.3954
  631SOL     OW 7907   2.374   3.857   0.803 -0.2021 -0.4473 -0.3160
  631SOL    HW1 7908   2.337   3.772   0.840  0.4479  0.3359  2.3175
  631SOL    HW2 7909   2.329   3.935   0.846  0.8985  0.5392 -0.8846
  632SOL     OW 7910   5.778   1.667   6.270 -0.0828 -0.5834  0.1589
  632SOL    HW1 7911   5.760   1.688   6.174  0.3200 -0.6833  0.0613
  632SOL    HW2 7912   5.855   1.721   6.303  0.7324 -1.6321  0.0076
  633SOL     OW 7913   4.546   2.329   0.138 -0.0144 -0.1054 -0.7320
  633SOL    HW1 7914   4.511   2.326   0.232  1.0793  0.7934 -0.2632
  633SOL    HW2 7915   4.470   2.339   0.074 -0.6612  1.0721  0.1867
  634SOL     OW 7916   5.300   1.293   5.980  0.0040 -0.2216  0.3355
  634SOL    HW1 7917   5.288   1.386   6.012 -0.9883 -0.4890  0.7560
  634SOL    HW2 7918   5.369   1.247   6.036  0.1017  0.0889  0.4723
  635SOL     OW 7919   2.680   5.932   6.133 -0.1098  0.4486  0.0663
  635SOL    HW1 7920   2.755   5.967   6.076 -0.0764  0.6770  0.2486
  635SOL    HW2 7921   2.652   5.842   6.100  0.0288  0.5045 -0.2018
  636SOL     OW 7922   3.677   4.828   5.791 -0.2781  0.3640 -0.8485
  636SOL    HW1 7923   3.624   4.879   5.723  1.5518  0.8637 -1.9554
  636SOL    HW2 7924   3.773   4.854   5.784  0.2034 -0.8703  0.7870
  637SOL     OW 7925   1.728   2.199   4.921 -0.1607 -0.3073 -0.3305
  637SOL    HW1 7926   1.712   2.297   4.934 -1.5081 -0.6671  1.1261
  637SOL    HW2 7927   1.641   2.154   4.901  0.5110 -1.1753 -1.3952
  638SOL     OW 7928   1.596   4.049   6.470 -0.3865  0.0890  0.1575
  638SOL    HW1 7929   1.671   4.049   6.535 -0.9765  0.9856  0.8591
  638SOL    HW2 7930   1.513   4.013   6.514 -0.2029 -1.7286 -0.8523
  639SOL     OW 7931   4.000   3.510   0.599 -0.0180 -0.0283  0.4149
  639SOL    HW1 7932   3.904   3.513   0.628 -0.3968 -1.0836 -0.6710
  639SOL    HW2 7933   4.035   3.417   0.606 -0.0932 -0.3351 -2.2827
  640SOL     OW 7934   1.354   2.894   4.679 -0.2012  0.2444  0.3256
  640SOL    HW1 7935   1.447   2.891   4.642  0.1582 -0.7169  1.2832
  640SOL    HW2 7936   1.342   2.823   4.748 -1.6178  0.4307  0.3117
  641SOL     OW 7937   5.870   2.432   0.024  0.0149  1.1638  0.4893
  641SOL    HW1 7938   5.922   2.485   0.091  0.5867  0.7690  0.3722
  641SOL    HW2 7939   5.858   2.486  -0.059  0.3352  1.2268  0.4814
  642SOL     OW 7940   6.201   3.849   5.904 -0.0641 -0.2979  0.0036
  642SOL    HW1 7941   6.193   3.817   5.999  0.0927 -2.5846 -0.7006
  642SOL    HW2 7942   6.138   3.797   5.846 -0.6910  1.5663 -1.0796
  643SOL     OW 7943   4.236   6.112   5.938 -0.2804 -0.3625  0.1887
  643SOL    HW1 7944   4.140   6.096   5.959 -0.1548  2.5657  4.1018
  643SOL    HW2 7945   4.243   6.168   5.855 -2.1014  0.8474  0.7846
  644SOL     OW 7946   2.885   3.175   1.182  0.1022 -0.0307 -0.2232
  644SOL    HW1 7947   2.936   3.178   1.096  0.3521  0.0640 -0.0748
  644SOL    HW2 7948   2.912   3.252   1.240 -0.5369  0.2671 -0.3180
  645SOL     OW 7949   6.078   0.455   1.058 -0.4535 -0.3858 -0.2859
  645SOL    HW1 7950   6.051   0.415   1.146 -1.1901 -0.3469 -0.4824
  645SOL    HW2 7951   6.099   0.382   0.993  0.3736 -0.4094  0.0053
  646SOL     OW 7952   4.619   5.352   0.268  0.2546 -0.0160  0.1474
  646SOL    HW1 7953   4.627   5.389   0.175  0.4201  3.2240  1.3429
  646SOL    HW2 7954   4.546   5.283   0.269 -0.0611  0.1827 -2.2616
  647SOL     OW 7955   4.246   4.314   5.635  0.0806 -0.5612  0.5598
  647SOL    HW1 7956   4.325   4.253   5.645  0.5851 -0.0790 -0.4258
  647SOL    HW2 7957   4.219   4.319   5.539  0.0377  0.7472  0.6186
  648SOL     OW 7958   5.915   1.317   0.244 -0.2033 -0.1108  0.1634
  648SOL    HW1 7959   5.856   1.356   0.174  1.1737  1.0996 -0.3637
  648SOL    HW2 7960   5.936   1.222   0.221  0.7876  0.4601 -1.4963
  649SOL     OW 7961   4.159   3.136   6.358  0.0501 -0.0850 -0.2241
  649SOL    HW1 7962   4.184   3.057   6.302 -0.3246 -0.2310 -0.1916
  649SOL    HW2 7963   4.155   3.218   6.302  1.8943  0.1973  0.0086
  650SOL     OW 7964   0.531   4.470   5.297 -0.2025  1.3226  0.1816
  650SOL    HW1 7965   0.606   4.405   5.303 -1.2047  0.2282  2.2775
  650SOL    HW2 7966   0.567   4.563   5.287  1.5234  0.9512  2.2038
  651SOL     OW 7967   1.596   1.875   0.682  0.5224  0.8412  0.0016
  651SOL    HW1 7968   1.695   1.884   0.668  0.7822 -0.4158  0.8675
  651SOL    HW2 7969   1.554   1.837   0.599  0.8212  1.0049 -0.2276
  652SOL     OW 7970   3.184   1.506   6.202  0.5155  0.0195  0.1336
  652SOL    HW1 7971   3.134   1.546   6.125  2.3680 -0.2420 -1.2439
  652SOL    HW2 7972   3.212   1.413   6.179  2.6576  0.5700  0.3781
  653SOL     OW 7973   3.208   1.393   5.653 -0.5177 -0.2917 -0.3542
  653SOL    HW1 7974   3.298   1.353   5.639 -0.4543 -0.2055 -0.1987
  653SOL    HW2 7975   3.150   1.374   5.574 -0.5002 -0.7202 -0.2695
  654SOL     OW 7976   1.348   2.800   0.339  0.0076 -0.2325 -0.2455
  654SOL    HW1 7977   1.439   2.829   0.309  0.5361 -0.4275  1.0602
  654SOL    HW2 7978   1.313   2.867   0.405 -1.4621  0.6260 -1.8295
  655SOL     OW 7979   3.828   4.052   5.925  0.3353 -0.3315 -0.5398
  655SOL    HW1 7980   3.864   4.040   6.017 -0.9114  2.3862  0.3956
  655SOL    HW2 7981   3.904   4.055   5.860  1.3852 -0.2722  0.6531
  656SOL     OW 7982   0.466   3.488   0.052  0.6763 -0.3865  0.3574
  656SOL    HW1 7983   0.522   3.480   0.135  0.2922 -1.2893  0.5380
  656SOL    HW2 7984   0.507   3.436  -0.022  1.1504  0.6249 -0.1037
  657SOL     OW 7985   6.050   0.648   0.216  0.7025  0.0642 -0.5342
  657SOL    HW1 7986   6.058   0.602   0.127 -1.7604 -4.1218  1.1495
  657SOL    HW2 7987   5.961   0.693   0.223  0.7780  0.1449 -0.0591
  658SOL     OW 7988   1.694   4.394   0.786 -0.2777  0.0945  0.0312
  658SOL    HW1 7989   1.738   4.436   0.706  1.2218 -0.4794  0.5262
  658SOL    HW2 7990   1.608   4.441   0.804 -0.2072  0.8281 -1.3753
  659SOL     OW 7991   3.746   6.271   5.837  0.3535 -0.4299  0.2629
  659SOL    HW1 7992   3.751   6.227   5.927  2.1487  1.1501  1.0014
  659SOL    HW2 7993   3.821   6.336   5.827  0.2353 -0.5736 -2.4290
  660SOL     OW 7994   1.962   5.946   1.730  0.1394  0.3763  0.8819
  660SOL    HW1 7995   1.881   5.997   1.758  0.5502  1.8157 -0.3989
  660SOL    HW2 7996   1.987   5.972   1.637 -0.1921 -2.9172 -0.2730
  661SOL     OW 7997   5.646   6.162   6.464 -0.1665 -0.1481  0.1837
  661SOL    HW1 7998   5.607   6.122   6.381  0.8288  1.8563 -1.3647
  661SOL    HW2 7999   5.627   6.103   6.542 -2.4837 -1.3635 -1.1809
  662SOL     OW 8000   0.947   6.053   5.775 -0.0205 -0.2318 -0.5020
  662SOL    HW1 8001   0.848   6.046   5.761  0.1434 -1.1788 -1.3332
  662SOL    HW2 8002   0.968   6.141   5.816 -1.1953  0.0575 -0.4648
  663SOL     OW 8003   1.273   4.672   5.115 -0.1148  0.2022 -0.0608
  663SOL    HW1 8004   1.361   4.684   5.069 -0.4804 -2.0848 -1.4900
  663SOL    HW2 8005   1.264   4.578   5.146 -1.7542  0.6087  0.8129
  664SOL     OW 8006   0.087   2.379   0.538  0.2188 -0.0715  0.1270
  664SOL    HW1 8007   0.004   2.330   0.512 -0.4703  0.8912  0.4821
  664SOL    HW2 8008   0.105   2.452   0.472 -0.2496  0.8940  1.0450
  665SOL     OW 8009   5.928   2.157   6.597  0.2230  0.5666 -0.0453
  665SOL    HW1 8010   5.975   2.188   6.514 -0.1143  2.4816  0.4286
  665SOL    HW2 8011   5.905   2.236   6.653 -2.8043 -0.3677  0.1629
  666SOL     OW 8012   2.677   2.336   1.820  0.4786  0.0780 -0.4533
  666SOL    HW1 8013   2.586   2.328   1.778  0.2122  1.7716 -0.2858
  666SOL    HW2 8014   2.706   2.247   1.855 -1.7058 -0.2746  0.6628
  667SOL     OW 8015   0.002   4.182   1.439 -0.2966 -0.5331 -0.4569
  667SOL    HW1 8016   0.099   4.195   1.461 -0.2485 -0.4419 -0.7085
  667SOL    HW2 8017  -0.054   4.247   1.491 -0.1098  0.2976 -1.2506
  668SOL     OW 8018   0.779   2.309   6.293 -0.3197  0.6428 -0.1325
  668SOL    HW1 8019   0.875   2.286   6.276  0.0528  1.0695  1.3000
  668SOL    HW2 8020   0.740   2.350   6.210  0.9871  1.2794 -0.4583
  669SOL     OW 8021   0.816   3.162   0.380 -0.2253 -0.1089 -1.0078
  669SOL    HW1 8022   0.741   3.184   0.444  0.1597 -0.9927 -0.2332
  669SOL    HW2 8023   0.866   3.083   0.414  2.4290  1.7429 -0.3449
  670SOL     OW 8024   0.868   3.741   6.394 -0.5018 -0.0930 -0.5454
  670SOL    HW1 8025   0.853   3.747   6.296 -2.7202 -1.5414 -0.3461
  670SOL    HW2 8026   0.781   3.728   6.441  0.6616 -1.1558  1.4676
  671SOL     OW 8027   1.919   0.245   0.996  0.3904 -0.6221 -0.8364
  671SOL    HW1 8028   1.861   0.221   1.073  1.2972 -1.6334 -0.4390
  671SOL    HW2 8029   1.908   0.342   0.974  0.2441 -0.2828  0.6676
  672SOL     OW 8030   2.587   5.420   5.117 -0.8387  0.0252  0.4641
  672SOL    HW1 8031   2.597   5.379   5.026  0.6427  1.3702 -0.0375
  672SOL    HW2 8032   2.558   5.515   5.108 -0.1046  0.3573  1.3387
  673SOL     OW 8033   5.669   1.390   0.576 -0.1769  0.1294 -0.5896
  673SOL    HW1 8034   5.581   1.344   0.582 -1.5229  2.4633 -1.0900
  673SOL    HW2 8035   5.684   1.444   0.659  0.9620 -0.5119 -0.3597
  674SOL     OW 8036   1.265   4.271   5.539 -0.4579  0.0823  0.2082
  674SOL    HW1 8037   1.263   4.311   5.447 -1.0145  0.6258  0.4479
  674SOL    HW2 8038   1.359   4.273   5.574 -0.1995 -0.3674 -0.4461
  675SOL     OW 8039   5.140   2.170   6.642 -0.1208  0.0847 -0.1726
  675SOL    HW1 8040   5.162   2.102   6.712  1.1961  0.0148 -0.6325
  675SOL    HW2 8041   5.041   2.179   6.635 -0.2799 -0.1273  1.4772
  676SOL     OW 8042   3.477   0.940   0.628  0.1030 -0.3613 -0.1677
  676SOL    HW1 8043   3.515   1.004   0.695 -0.3078 -1.0663  0.7456
  676SOL    HW2 8044   3.459   0.989   0.543  0.7620  0.5162  0.1764
  677SOL     OW 8045   1.226   6.303   0.227  0.1662  0.7459  0.5279
  677SOL    HW1 8046   1.131   6.336   0.230 -0.3933 -0.6130 -0.8310
  677SOL    HW2 8047   1.233   6.220   0.282 -0.8309 -2.1864 -3.2869
  678SOL     OW 8048   2.147   3.683   0.355  0.5540  0.5705 -0.2021
  678SOL    HW1 8049   2.217   3.694   0.285  0.2671  0.4981 -0.5024
  678SOL    HW2 8050   2.177   3.726   0.440  1.5208 -0.5793  0.0542
  679SOL     OW 8051   5.467   2.581   0.300 -0.0094  0.3909 -0.1353
  679SOL    HW1 8052   5.459   2.677   0.273 -0.7502  0.1185 -0.9249
  679SOL    HW2 8053   5.378   2.537   0.293  0.0456 -0.0557  1.4545
  680SOL     OW 8054   4.361   5.465   0.724 -0.1262  0.2196  0.5030
  680SOL    HW1 8055   4.341   5.499   0.815  0.0673  0.7181  0.3665
  680SOL    HW2 8056   4.276   5.454   0.673 -0.1900  0.5965  0.5206
  681SOL     OW 8057   1.086   2.804   0.086  0.0154  0.4884  0.5444
  681SOL    HW1 8058   1.030   2.724   0.067  1.9013 -0.3978 -1.8339
  681SOL    HW2 8059   1.136   2.791   0.171 -1.6876  0.3649  1.5674
  682SOL     OW 8060   6.267   2.627   6.187  1.2830 -0.7307 -0.1371
  682SOL    HW1 8061   6.346   2.652   6.131  0.6213  0.1426 -0.7185
  682SOL    HW2 8062   6.256   2.528   6.188  1.3631 -0.7723 -1.4947
  683SOL     OW 8063   4.657   1.301   0.967  0.6262  0.0168 -0.3390
  683SOL    HW1 8064   4.645   1.382   1.024  1.1297 -0.1018 -0.0543
  683SOL    HW2 8065   4.571   1.279   0.920 -0.1784 -0.6307  1.3582
  684SOL     OW 8066   2.130   4.310   5.741  0.0173 -0.2475 -0.5176
  684SOL    HW1 8067   2.166   4.348   5.826 -0.8107 -1.6823  0.5415
  684SOL    HW2 8068   2.039   4.272   5.758 -0.7860  0.6910 -2.4072
  685SOL     OW 8069   3.493   5.012   0.891 -0.2204 -0.4450 -0.3421
  685SOL    HW1 8070   3.475   5.070   0.971 -1.5630 -0.8110 -0.3688
  685SOL    HW2 8071   3.541   4.930   0.921  0.4320  0.0074 -0.1052
  686SOL     OW 8072   2.986   4.709   1.398  0.1229 -0.3413 -0.1139
  686SOL    HW1 8073   3.083   4.731   1.394 -0.2006  1.7442  1.6302
  686SOL    HW2 8074   2.968   4.650   1.476 -0.4201  2.5464  2.1280
  687SOL     OW 8075   3.319   2.398   5.923 -0.1492 -0.2222  0.1804
  687SOL    HW1 8076   3.408   2.429   5.891 -0.1027 -0.1384  0.3919
  687SOL    HW2 8077   3.331   2.343   6.006 -0.2584 -0.5401 -0.0100
  688SOL     OW 8078   2.448   6.001   6.593  0.4461  0.2716  0.2849
  688SOL    HW1 8079   2.529   6.013   6.535 -0.1542 -0.3587 -0.7230
  688SOL    HW2 8080   2.368   6.039   6.547 -0.0962 -0.4932  0.5688
  689SOL     OW 8081   1.959   2.441   1.548  0.1393 -0.0188 -0.3552
  689SOL    HW1 8082   1.933   2.538   1.550  1.5703  0.3669  0.7862
  689SOL    HW2 8083   2.042   2.427   1.601 -0.8002 -2.1327  0.6889
  690SOL     OW 8084   2.926   2.789   6.600 -0.0705  0.0307 -0.2577
  690SOL    HW1 8085   2.983   2.736   6.537  0.7449  2.8508 -2.0775
  690SOL    HW2 8086   2.976   2.871   6.628 -2.1784  1.1573  0.3870
  691SOL     OW 8087   0.040   3.526   0.879  1.0337  0.3362 -0.5460
  691SOL    HW1 8088   0.024   3.553   0.784 -1.6343  1.6058  0.1768
  691SOL    HW2 8089  -0.047   3.521   0.927  2.3958  0.8927  2.1670
  692SOL     OW 8090   2.352   1.623   5.764  0.4092  0.6153 -0.1664
  692SOL    HW1 8091   2.413   1.597   5.839  0.4142  1.4632  0.1398
  692SOL    HW2 8092   2.367   1.563   5.686  0.0656 -0.5908  0.6706
  693SOL     OW 8093   3.054   4.746   6.363 -0.0751 -1.0735  0.0500
  693SOL    HW1 8094   2.992   4.807   6.412 -0.3870  1.6310 -3.3449
  693SOL    HW2 8095   3.148   4.771   6.384 -0.1960 -0.9276  0.4245
  694SOL     OW 8096   2.287   4.675   0.504  0.2287 -0.2801 -0.9824
  694SOL    HW1 8097   2.306   4.594   0.449 -1.1424  2.1333 -5.5164
  694SOL    HW2 8098   2.197   4.666   0.546 -1.0620 -0.2511 -3.5585
  695SOL     OW 8099   3.927   1.349   1.019  0.8623 -0.1076 -0.5928
  695SOL    HW1 8100   3.985   1.307   0.949  0.7480  0.8985 -1.3027
  695SOL    HW2 8101   3.972   1.432   1.054  1.2593 -0.9652  1.0542
  696SOL     OW 8102   4.022   5.282   1.104  0.0223  0.1722  0.3312
  696SOL    HW1 8103   4.034   5.276   1.203 -0.6096 -0.5387  0.3673
  696SOL    HW2 8104   4.109   5.262   1.059  0.1273 -0.2498  0.7186
  697SOL     OW 8105   1.334   1.235   5.491  0.0111 -0.2053  0.4845
  697SOL    HW1 8106   1.329   1.199   5.398 -0.9446  2.0750 -0.4065
  697SOL    HW2 8107   1.258   1.198   5.545 -0.8393  0.3145 -0.3429
  698SOL     OW 8108   5.594   0.501   6.224  0.2776  0.3539 -0.3734
  698SOL    HW1 8109   5.557   0.532   6.136  0.5726  0.9556 -0.2923
  698SOL    HW2 8110   5.563   0.408   6.242  2.3156 -0.8159 -2.3459
  699SOL     OW 8111   4.151   1.986   0.750 -0.3376  0.0170  0.4091
  699SOL    HW1 8112   4.236   1.934   0.747 -1.0280 -1.1856  0.8119
  699SOL    HW2 8113   4.073   1.922   0.749 -1.2045  0.9869  2.3338
  700SOL     OW 8114   0.488   3.769   0.938  0.1000  0.4632 -0.2807
  700SOL    HW1 8115   0.439   3.812   0.863  2.3060 -0.4579 -2.4173
  700SOL    HW2 8116   0.456   3.674   0.948  0.8535  0.0919 -1.1811
  701SOL     OW 8117   2.972   4.220   0.670 -0.2532  0.4215 -0.1596
  701SOL    HW1 8118   2.962   4.319   0.670  0.4345  0.5208  1.7289
  701SOL    HW2 8119   3.064   4.196   0.639  0.3315  0.5182  1.4033
  702SOL     OW 8120   2.282   3.842   1.241 -0.2486 -0.1831  0.5816
  702SOL    HW1 8121   2.242   3.843   1.332 -1.2816 -1.4632  0.1593
  702SOL    HW2 8122   2.335   3.926   1.227 -0.8125  0.4329  2.0206
  703SOL     OW 8123   1.595   1.637   0.032  0.3128  0.1968  0.3709
  703SOL    HW1 8124   1.570   1.548   0.070 -1.6274 -1.1359 -3.5648
  703SOL    HW2 8125   1.676   1.627  -0.026  2.0788  1.8133  2.3456
  704SOL     OW 8126   4.066   1.113   0.940 -0.2157  0.0185 -0.2268
  704SOL    HW1 8127   4.164   1.112   0.919 -0.5277 -0.7699 -1.8102
  704SOL    HW2 8128   4.052   1.086   1.036  1.1099  0.1790  0.0305
  705SOL     OW 8129   3.068   5.941   6.248  0.6011  0.0478  0.0719
  705SOL    HW1 8130   3.011   5.958   6.328  1.6554  1.3095  0.5933
  705SOL    HW2 8131   3.074   6.025   6.194 -1.4519 -1.1929 -2.2952
  706SOL     OW 8132   3.504   5.611   0.509 -0.0578  0.0720 -0.0464
  706SOL    HW1 8133   3.586   5.661   0.484 -0.5952  1.3183  0.5667
  706SOL    HW2 8134   3.528   5.519   0.538  1.1679  0.5373  0.4729
  707SOL     OW 8135   0.992   3.957   0.219 -0.2263  0.1950 -0.0006
  707SOL    HW1 8136   1.052   3.961   0.139  0.2541 -0.2564  0.3283
  707SOL    HW2 8137   1.045   3.929   0.299 -0.2525  2.5826  0.9311
  708SOL     OW 8138   2.157   3.403   0.215 -0.7582  0.1467 -0.3233
  708SOL    HW1 8139   2.140   3.467   0.290 -1.7142 -0.1255 -0.3050
  708SOL    HW2 8140   2.095   3.422   0.139 -2.1110 -1.6720  0.2506
  709SOL     OW 8141   5.200   6.280   6.473  0.4972 -0.0630  0.5378
  709SOL    HW1 8142   5.138   6.266   6.396 -1.7797 -2.8011  2.6440
  709SOL    HW2 8143   5.186   6.371   6.511 -2.2207 -0.4962  0.7827
  710SOL     OW 8144   3.410   1.322   0.482 -0.1975  0.1772  0.7151
  710SOL    HW1 8145   3.418   1.227   0.452  1.3996  1.0596 -2.0243
  710SOL    HW2 8146   3.470   1.337   0.561  0.6666 -0.7829  0.2654
  711SOL     OW 8147   4.199   4.033   0.401 -0.2311 -0.2335  0.2263
  711SOL    HW1 8148   4.190   3.934   0.389 -0.4411 -0.1540 -0.3144
  711SOL    HW2 8149   4.171   4.079   0.317 -1.8291  0.3667  1.0596
  712SOL     OW 8150   4.509   0.446   0.773 -0.0476  0.3820  0.5716
  712SOL    HW1 8151   4.523   0.352   0.742 -0.4847  0.5037 -0.0132
  712SOL    HW2 8152   4.477   0.446   0.867 -1.1718 -0.1089  0.2000
  713SOL     OW 8153   4.060   3.938   6.590 -0.2500 -0.0798 -0.2067
  713SOL    HW1 8154   3.990   3.906   6.527 -0.6410  1.1384 -0.4247
  713SOL    HW2 8155   4.102   4.021   6.553  0.9853 -0.5217  0.1518
  714SOL     OW 8156   5.942   3.800   0.583 -0.2291  0.3283  0.6831
  714SOL    HW1 8157   6.008   3.866   0.547 -0.8035 -0.7254 -2.6512
  714SOL    HW2 8158   5.990   3.719   0.616  0.2877 -0.4270 -1.7097
  715SOL     OW 8159   2.534   0.595   0.944  0.6745  0.6215  0.3386
  715SOL    HW1 8160   2.557   0.530   1.017  1.2940  1.3455  0.8002
  715SOL    HW2 8161   2.538   0.548   0.855 -1.6915 -0.6953  0.8433
  716SOL     OW 8162   1.817   1.492   6.622 -0.5857  0.0596 -0.9421
  716SOL    HW1 8163   1.795   1.463   6.529  0.1436 -0.3578 -0.9902
  716SOL    HW2 8164   1.906   1.538   6.623 -1.3722  1.6346 -0.7348
  717SOL     OW 8165   1.352   6.114   5.823 -0.2328  0.3382  0.2896
  717SOL    HW1 8166   1.308   6.156   5.903  0.5647  1.1953  0.2873
  717SOL    HW2 8167   1.434   6.065   5.852 -0.0198  0.5323  0.0159
  718SOL     OW 8168   5.651   2.931   5.057  0.9018  0.0009  0.6734
  718SOL    HW1 8169   5.563   2.923   5.012  1.1199  1.3158 -0.0548
  718SOL    HW2 8170   5.724   2.929   4.988  1.5747 -2.4690  1.3639
  719SOL     OW 8171   5.229   2.548   5.961 -0.1520 -0.0354  0.6090
  719SOL    HW1 8172   5.291   2.544   5.883 -2.6571 -0.2021 -1.4846
  719SOL    HW2 8173   5.178   2.463   5.968  0.1749 -0.1123  2.6305
  720SOL     OW 8174   4.930   1.104   1.547  0.4923 -0.1619  0.5449
  720SOL    HW1 8175   4.896   1.197   1.532  0.6403 -0.1042  0.5656
  720SOL    HW2 8176   4.984   1.075   1.467 -0.1420 -0.4964  0.2300
  721SOL     OW 8177   3.410   2.354   0.319  0.6103 -0.4190  0.1597
  721SOL    HW1 8178   3.323   2.312   0.343  1.1646 -1.5159  0.3133
  721SOL    HW2 8179   3.408   2.383   0.223 -0.4328  0.9384  0.5588
  722SOL     OW 8180   2.871   3.570   0.862 -0.3781  0.0426  0.5408
  722SOL    HW1 8181   2.962   3.612   0.862  0.0409 -0.8549  0.6469
  722SOL    HW2 8182   2.822   3.599   0.944  0.2019 -0.2960  1.0131
  723SOL     OW 8183   1.441   2.775   6.009 -0.0681  0.0470 -0.0786
  723SOL    HW1 8184   1.374   2.836   6.052 -1.5836 -1.2633 -0.4652
  723SOL    HW2 8185   1.437   2.787   5.909 -0.3668 -0.6549 -0.1539
  724SOL     OW 8186   4.203   0.791   0.376 -0.2898  0.5796 -0.2736
  724SOL    HW1 8187   4.268   0.820   0.305  0.1814  0.8278  0.2512
  724SOL    HW2 8188   4.110   0.793   0.338 -0.2165  2.1354 -0.4748
  725SOL     OW 8189   2.216   1.706   0.398 -0.1892 -0.2575 -0.2503
  725SOL    HW1 8190   2.156   1.670   0.327  0.2224 -0.0452 -0.7170
  725SOL    HW2 8191   2.240   1.801   0.377  0.2723 -0.3249 -0.0490
  726SOL     OW 8192   2.429   5.584   5.340 -0.2538 -0.7051 -0.0141
  726SOL    HW1 8193   2.425   5.623   5.433 -1.3259 -1.8008  0.4274
  726SOL    HW2 8194   2.482   5.645   5.281  1.0330 -0.3114  1.4701
  727SOL     OW 8195   6.263   2.109   5.739  0.6782  0.3295  0.1697
  727SOL    HW1 8196   6.249   2.013   5.763  1.0404  0.2672  0.1409
  727SOL    HW2 8197   6.361   2.128   5.735  0.6449  0.3257 -1.3224
  728SOL     OW 8198   2.784   2.923   6.207 -0.2259  0.0692 -0.4113
  728SOL    HW1 8199   2.871   2.954   6.245  0.2949 -0.4347 -1.1823
  728SOL    HW2 8200   2.797   2.891   6.114 -1.1245 -0.5857 -0.3278
  729SOL     OW 8201   2.253   1.138   5.038  0.5960  0.0236 -0.0409
  729SOL    HW1 8202   2.203   1.151   4.953  1.0690 -1.2145 -0.5360
  729SOL    HW2 8203   2.320   1.064   5.026  1.2562  0.3997  1.1505
  730SOL     OW 8204   2.664   3.130   0.828 -0.4178 -0.1440  0.9389
  730SOL    HW1 8205   2.716   3.214   0.813 -0.1822 -0.6700 -1.7208
  730SOL    HW2 8206   2.580   3.134   0.774 -0.3371 -1.6558  0.6642
  731SOL     OW 8207   2.747   2.329   0.756 -0.3725  0.1858 -0.5118
  731SOL    HW1 8208   2.797   2.415   0.746  0.3863 -0.1041  0.5414
  731SOL    HW2 8209   2.765   2.270   0.678  0.4810  0.3211 -0.4230
  732SOL     OW 8210   4.469   2.681   0.111  0.3888 -0.4906  0.6315
  732SOL    HW1 8211   4.501   2.772   0.136  0.0045  0.0966 -0.8950
  732SOL    HW2 8212   4.484   2.666   0.013  1.1487 -2.3791  0.9891
  733SOL     OW 8213   3.263   0.494   0.440 -0.3681  0.0992  0.3083
  733SOL    HW1 8214   3.236   0.401   0.467 -0.0331 -0.0482  0.1392
  733SOL    HW2 8215   3.263   0.553   0.521 -0.0618 -0.1736  0.5127
  734SOL     OW 8216   1.336   1.796   6.288  0.7734  1.1892  0.0324
  734SOL    HW1 8217   1.256   1.808   6.347  0.1420  1.1622 -0.8048
  734SOL    HW2 8218   1.387   1.715   6.317 -0.3852  0.2795 -0.3935
  735SOL     OW 8219   2.370   3.823   5.742  0.3714  0.4716 -0.3366
  735SOL    HW1 8220   2.341   3.859   5.831  3.6886  3.8580 -0.3092
  735SOL    HW2 8221   2.298   3.838   5.675 -0.3209  2.8641  0.7964
  736SOL     OW 8222   1.913   1.442   0.589  0.7675  0.1021  0.6513
  736SOL    HW1 8223   1.851   1.484   0.655 -0.1115 -0.1945  0.0278
  736SOL    HW2 8224   1.994   1.407   0.637  0.2843  0.1517  1.5275
  737SOL     OW 8225   1.418   5.988   5.380 -0.0693 -0.1705 -0.1554
  737SOL    HW1 8226   1.414   5.889   5.364 -0.6139 -0.0701 -0.6829
  737SOL    HW2 8227   1.428   6.035   5.292  0.9913  0.2122  0.1571
  738SOL     OW 8228   5.261   4.423   0.522  0.0098 -0.7144 -0.4192
  738SOL    HW1 8229   5.223   4.472   0.444  1.5519  1.5093  0.1279
  738SOL    HW2 8230   5.355   4.396   0.501  0.8186  0.8327  0.9346
  739SOL     OW 8231   2.360   3.020   5.001  0.3468 -0.2157  0.0116
  739SOL    HW1 8232   2.276   3.000   4.951  1.7954 -1.7991 -1.9159
  739SOL    HW2 8233   2.386   3.115   4.986 -0.3664 -0.0967 -0.5155
  740SOL     OW 8234   3.241   5.673   0.520 -0.2915  0.5910  0.5810
  740SOL    HW1 8235   3.201   5.628   0.600 -1.1038 -0.8201 -0.5684
  740SOL    HW2 8236   3.339   5.652   0.516 -0.4230 -0.0850  0.7450
  741SOL     OW 8237   3.671   6.020   1.236  0.3774 -0.3877  0.5256
  741SOL    HW1 8238   3.680   6.060   1.326  1.4755  0.6818 -0.0407
  741SOL    HW2 8239   3.753   6.038   1.182 -0.0603 -1.4052 -0.5407
  742SOL     OW 8240   2.927   1.049   0.833 -0.2264  0.6657  0.5096
  742SOL    HW1 8241   2.870   1.026   0.912 -0.9888  0.0455 -0.2060
  742SOL    HW2 8242   2.954   1.145   0.838  1.8682  0.0630  2.8507
  743SOL     OW 8243   4.304   4.205   6.143  0.2706 -1.0698 -0.5589
  743SOL    HW1 8244   4.274   4.243   6.056 -3.1979 -0.2662  0.8040
  743SOL    HW2 8245   4.278   4.108   6.148  1.7819 -1.5142 -0.9272
  744SOL     OW 8246   3.122   2.583   5.933 -0.4720 -0.1813  0.8320
  744SOL    HW1 8247   3.176   2.502   5.908  0.8930  1.5543 -2.5000
  744SOL    HW2 8248   3.081   2.622   5.851 -1.7925  2.0614  2.4499
  745SOL     OW 8249   4.565   4.182   6.173 -0.2637 -0.2390 -0.5200
  745SOL    HW1 8250   4.584   4.235   6.255  0.7525 -0.8979 -0.3129
  745SOL    HW2 8251   4.468   4.189   6.151 -0.5053  0.1385  0.6015
  746SOL     OW 8252   2.670   3.043   6.444 -0.3937  0.1780 -0.6272
  746SOL    HW1 8253   2.738   3.005   6.381 -0.3091  0.1341 -0.5102
  746SOL    HW2 8254   2.610   3.106   6.395  0.9018  1.6951 -0.3552
  747SOL     OW 8255   2.046   5.243   0.291 -0.5214  0.2917 -1.2096
  747SOL    HW1 8256   1.962   5.277   0.332  0.7279  2.7533 -0.5007
  747SOL    HW2 8257   2.090   5.178   0.353 -0.2327  1.5872 -0.0181
  748SOL     OW 8258   1.977   6.009   1.462  0.4154  0.2012 -0.2488
  748SOL    HW1 8259   1.903   6.064   1.423  0.9926  1.2306  0.0736
  748SOL    HW2 8260   2.048   5.995   1.393  0.8252  0.8951  0.0273
  749SOL     OW 8261   2.826   2.170   0.534  0.0733 -0.0918 -0.1265
  749SOL    HW1 8262   2.738   2.124   0.537 -0.9804  1.8642  1.0845
  749SOL    HW2 8263   2.823   2.244   0.466  1.2180 -0.7552 -0.9454
  750SOL     OW 8264   5.905   0.656   0.484 -0.2423  0.3452 -0.3878
  750SOL    HW1 8265   5.979   0.676   0.419  0.0164 -0.3989 -0.3393
  750SOL    HW2 8266   5.920   0.707   0.569  1.5174 -1.5139  0.5071
  751SOL     OW 8267   3.357   1.714   0.034 -0.2184  0.3589  0.1824
  751SOL    HW1 8268   3.288   1.780   0.005  0.8962  3.4177  3.6990
  751SOL    HW2 8269   3.326   1.670   0.119  0.7651 -0.7853 -0.0279
  752SOL     OW 8270   3.852   3.194   0.122 -0.1841  0.2637  0.4783
  752SOL    HW1 8271   3.817   3.131   0.191 -0.8045  0.1993  0.1106
  752SOL    HW2 8272   3.843   3.152   0.031  1.9774 -0.2710  0.4600
  753SOL     OW 8273   6.120   4.914   0.689  0.8806 -0.9300  0.1649
  753SOL    HW1 8274   6.180   4.863   0.750  1.7594  0.4148  0.4714
  753SOL    HW2 8275   6.080   4.991   0.739  1.2091 -0.1076 -0.8137
  754SOL     OW 8276   5.648   4.405   1.455 -0.0772 -0.1590  0.2111
  754SOL    HW1 8277   5.740   4.396   1.494  0.0899  1.3622  0.2381
  754SOL    HW2 8278   5.589   4.454   1.519 -0.1211  1.3544 -0.9228
  755SOL     OW 8279   5.441   0.750   5.409  0.5461 -0.5348 -0.0579
  755SOL    HW1 8280   5.448   0.818   5.483  0.8016 -1.5925  0.9115
  755SOL    HW2 8281   5.360   0.693   5.424  0.1128 -0.2085 -1.0839
  756SOL     OW 8282   2.279   6.193   6.271  0.1708  0.2117 -0.3067
  756SOL    HW1 8283   2.188   6.215   6.236  0.1660  0.9242  0.1489
  756SOL    HW2 8284   2.339   6.273   6.262  0.2133  0.3600  1.1703
  757SOL     OW 8285   5.660   4.905   0.878  0.3037 -0.2772  0.2772
  757SOL    HW1 8286   5.630   4.810   0.888  0.7485 -0.2698  2.0610
  757SOL    HW2 8287   5.723   4.912   0.801 -0.5831 -1.1995 -0.5644
  758SOL     OW 8288   0.859   2.539   5.677 -0.4926  0.1141 -0.0062
  758SOL    HW1 8289   0.765   2.506   5.681  0.0186 -1.7117 -1.7200
  758SOL    HW2 8290   0.922   2.462   5.687  0.8507  1.2232  0.5095
  759SOL     OW 8291   0.882   0.246   5.719  0.2941  0.0076 -0.5070
  759SOL    HW1 8292   0.859   0.313   5.648  0.4468  1.2060  0.5377
  759SOL    HW2 8293   0.967   0.200   5.694 -0.3385 -0.5533 -1.7380
  760SOL     OW 8294   4.638   3.277   0.194  0.0258 -0.0694 -0.2862
  760SOL    HW1 8295   4.728   3.265   0.152  0.8560  1.1286  1.0600
  760SOL    HW2 8296   4.591   3.353   0.150  0.1185 -0.0080 -0.2790
  761SOL     OW 8297   2.895   1.651   0.036 -0.2940 -0.0345 -0.4357
  761SOL    HW1 8298   2.938   1.569  -0.000 -0.9203 -0.0542 -1.1564
  761SOL    HW2 8299   2.804   1.662  -0.004  0.3746  1.8358 -1.5776
  762SOL     OW 8300   2.728   3.867   1.944  0.2973 -0.0745 -0.4663
  762SOL    HW1 8301   2.689   3.781   1.978 -1.7419  0.2858 -1.7622
  762SOL    HW2 8302   2.664   3.941   1.960  1.2973  0.9104 -0.9210
  763SOL     OW 8303   5.841   5.237   5.726  0.5373 -0.0675  0.6494
  763SOL    HW1 8304   5.924   5.185   5.744  0.2661 -0.8924 -0.3801
  763SOL    HW2 8305   5.833   5.256   5.628 -0.0110  0.8361  0.8511
  764SOL     OW 8306   3.096   4.734   0.488  0.7882 -0.0543 -0.3775
  764SOL    HW1 8307   3.190   4.715   0.515  0.6729 -0.2337 -0.0934
  764SOL    HW2 8308   3.072   4.828   0.511  0.5802 -0.3098  0.4684
  765SOL     OW 8309   0.207   3.131   5.526  0.0404 -0.4864 -0.5660
  765SOL    HW1 8310   0.274   3.194   5.563  1.7798 -3.1683  1.2136
  765SOL    HW2 8311   0.242   3.091   5.441  0.6179 -1.6329  0.1843
  766SOL     OW 8312   1.754   5.079   5.019 -0.0285 -0.4109  0.3592
  766SOL    HW1 8313   1.818   5.009   5.052  3.2686  2.5517  0.7416
  766SOL    HW2 8314   1.751   5.076   4.919  0.5351 -0.7287  0.3445
  767SOL     OW 8315   3.477   1.049   6.063  0.1399  0.0544  0.2505
  767SOL    HW1 8316   3.489   1.145   6.090  2.6664  0.1930 -1.1569
  767SOL    HW2 8317   3.549   1.022   6.000  0.7432 -3.3701  2.1257
  768SOL     OW 8318   3.463   1.439   0.751 -0.2955 -0.0611 -0.2380
  768SOL    HW1 8319   3.501   1.448   0.844 -0.1005 -1.0450 -0.2110
  768SOL    HW2 8320   3.363   1.441   0.756 -0.2948  1.7681 -0.2263
  769SOL     OW 8321   5.807   3.737   0.237  0.5488  0.4882  0.5473
  769SOL    HW1 8322   5.752   3.657   0.214 -0.1071  0.9089  0.6459
  769SOL    HW2 8323   5.749   3.808   0.277  0.7704  1.7864 -1.3207
  770SOL     OW 8324   3.805   1.005   1.300  0.7308 -0.3423 -0.0679
  770SOL    HW1 8325   3.722   1.018   1.354 -1.8999 -2.3648 -3.2716
  770SOL    HW2 8326   3.834   0.910   1.306  2.1984  0.0959  0.1051
  771SOL     OW 8327   1.180   5.170   6.210 -0.0412  0.3806 -0.0096
  771SOL    HW1 8328   1.095   5.117   6.218  0.0278 -0.0134 -1.5865
  771SOL    HW2 8329   1.256   5.108   6.196  0.1204  0.8465 -1.3256
  772SOL     OW 8330   4.291   3.992   5.389 -0.2931 -0.6415 -0.7929
  772SOL    HW1 8331   4.289   3.893   5.371  3.1405 -0.6240 -2.0332
  772SOL    HW2 8332   4.304   4.040   5.302  0.2851  0.7410  0.0431
  773SOL     OW 8333   0.079   3.155   1.235  0.1278 -0.0230 -0.6505
  773SOL    HW1 8334   0.029   3.237   1.207 -0.4995 -0.0123  0.4268
  773SOL    HW2 8335   0.093   3.157   1.335  0.1540 -1.1933 -0.6191
  774SOL     OW 8336   5.017   2.037   6.137  0.2299  0.3537 -0.4775
  774SOL    HW1 8337   5.104   2.028   6.186  0.4342 -0.2321 -0.9419
  774SOL    HW2 8338   4.949   2.077   6.198  0.8443  0.8910 -0.1316
  775SOL     OW 8339   1.599   1.560   0.745  0.6993 -0.2906  0.1651
  775SOL    HW1 8340   1.656   1.586   0.823 -0.3267  0.8118  0.5842
  775SOL    HW2 8341   1.587   1.639   0.685 -0.6161 -0.3952  0.2519
  776SOL     OW 8342   3.146   5.993   0.175 -0.0177 -0.3757  0.0111
  776SOL    HW1 8343   3.230   5.961   0.220  0.5215 -1.2994 -1.5826
  776SOL    HW2 8344   3.073   5.925   0.189  0.6494 -1.5753 -1.9222
  777SOL     OW 8345   3.296   1.179   0.849 -0.0560  0.0389 -0.1097
  777SOL    HW1 8346   3.211   1.172   0.797  0.1340 -1.4632 -0.2713
  777SOL    HW2 8347   3.283   1.242   0.925 -1.1126  0.3303 -0.5111
  778SOL     OW 8348   0.129   6.305   6.647 -0.9009 -0.5374 -0.3940
  778SOL    HW1 8349   0.174   6.282   6.560 -0.5769  1.2893 -0.7444
  778SOL    HW2 8350   0.093   6.398   6.643 -2.7769 -1.1651  0.7019
  779SOL     OW 8351   2.026   4.603   4.931 -0.2477  0.0605 -0.7804
  779SOL    HW1 8352   1.927   4.618   4.934 -0.3161 -0.4703  1.4655
  779SOL    HW2 8353   2.060   4.589   5.024  1.9244  0.0282 -1.5305
  780SOL     OW 8354   2.567   3.482   6.309 -0.0848 -0.6744 -0.6088
  780SOL    HW1 8355   2.586   3.438   6.396 -0.6807 -0.3864 -0.3280
  780SOL    HW2 8356   2.479   3.530   6.314 -0.3004 -0.9605 -1.4818
  781SOL     OW 8357   2.115   3.451   0.566  0.2254  0.5470 -0.1336
  781SOL    HW1 8358   2.211   3.435   0.543  0.0759 -0.3029 -0.1973
  781SOL    HW2 8359   2.094   3.548   0.555  0.6349  0.4853 -1.8164
  782SOL     OW 8360   5.789   4.075   5.428  0.8849  0.4990  0.4072
  782SOL    HW1 8361   5.837   4.132   5.361  0.4393  0.6791  0.2386
  782SOL    HW2 8362   5.778   3.983   5.390 -0.1913  0.8468 -0.1629
  783SOL     OW 8363   2.158   1.948   5.194  0.4082 -0.1745  0.4366
  783SOL    HW1 8364   2.171   1.989   5.104  0.2701  0.7740  0.8380
  783SOL    HW2 8365   2.161   1.848   5.186 -2.3365 -0.2093 -1.0617
  784SOL     OW 8366   5.126   1.476   0.098 -0.2599 -0.2745 -0.3608
  784SOL    HW1 8367   5.084   1.412   0.162  0.5614 -1.6161 -1.1150
  784SOL    HW2 8368   5.194   1.428   0.042 -1.5420  0.6478 -2.8546
  785SOL     OW 8369   4.013   4.543   5.543 -0.3413  0.3447  0.0964
  785SOL    HW1 8370   4.093   4.514   5.490 -1.1286 -0.5131 -0.6577
  785SOL    HW2 8371   3.991   4.474   5.610 -0.8484  0.2666 -0.1485
  786SOL     OW 8372   0.106   4.355   0.091 -0.5795 -0.6547  0.0191
  786SOL    HW1 8373   0.169   4.421   0.050 -1.4940  0.0843 -0.2116
  786SOL    HW2 8374   0.102   4.273   0.033 -0.8470 -0.1651 -0.6643
  787SOL     OW 8375   1.135   3.179   6.123  0.5088  0.4585  0.2814
  787SOL    HW1 8376   1.048   3.166   6.170  0.4531 -0.6521 -0.1040
  787SOL    HW2 8377   1.119   3.232   6.039  0.5112  1.8712  1.1381
  788SOL     OW 8378   4.764   2.912   0.618 -0.5690 -0.7205  0.2912
  788SOL    HW1 8379   4.741   3.007   0.597  0.0406 -0.8108 -0.8588
  788SOL    HW2 8380   4.800   2.907   0.711  1.0755  0.4900 -0.2203
  789SOL     OW 8381   0.468   4.588   6.549 -0.0351  0.3622 -0.1818
  789SOL    HW1 8382   0.391   4.600   6.611  1.0977 -0.7877  1.5374
  789SOL    HW2 8383   0.496   4.677   6.513 -1.4183  0.9173  0.0585
  790SOL     OW 8384   2.183   0.372   5.201  0.3180  0.1040 -0.1160
  790SOL    HW1 8385   2.104   0.386   5.141  0.4556  1.9428  0.0786
  790SOL    HW2 8386   2.191   0.275   5.223  0.1377 -0.6146 -2.8616
  791SOL     OW 8387   2.883   2.614   1.132  0.2244  0.1057  0.3188
  791SOL    HW1 8388   2.834   2.595   1.047  3.2924 -1.4709 -1.2823
  791SOL    HW2 8389   2.936   2.698   1.122  1.3547 -0.5937  0.2581
  792SOL     OW 8390   2.201   0.734   0.614  0.1872  0.1251  0.2821
  792SOL    HW1 8391   2.148   0.696   0.690  0.0693  0.8488  0.5683
  792SOL    HW2 8392   2.234   0.825   0.639 -0.2199  0.5475 -0.6978
  793SOL     OW 8393   3.044   4.729   6.065 -0.6716 -0.9402 -0.1349
  793SOL    HW1 8394   3.086   4.646   6.029  1.8907 -0.2590  1.0196
  793SOL    HW2 8395   3.049   4.728   6.165 -0.2167  0.7521 -0.1097
  794SOL     OW 8396   2.466   5.833   0.404  0.3264  0.4483  0.4179
  794SOL    HW1 8397   2.454   5.879   0.316  0.7259 -0.1777  0.0313
  794SOL    HW2 8398   2.394   5.765   0.415 -1.1001  2.0468  1.5971
  795SOL     OW 8399   2.638   6.022   6.382 -0.0289  0.6996  0.2887
  795SOL    HW1 8400   2.667   6.003   6.289  1.3418 -0.4094  0.9016
  795SOL    HW2 8401   2.716   6.011   6.444 -0.5946  2.6769  1.4308
  796SOL     OW 8402   4.028   6.320   0.623 -0.6032  0.8412  0.2508
  796SOL    HW1 8403   3.998   6.414   0.636 -1.8608  0.2556  1.8628
  796SOL    HW2 8404   4.010   6.267   0.706  1.2682 -0.5318 -0.1460
  797SOL     OW 8405   0.431   1.144   5.523  0.2840 -0.2073  0.3292
  797SOL    HW1 8406   0.477   1.110   5.440  1.2245  0.2268  0.6632
  797SOL    HW2 8407   0.333   1.124   5.516  0.2824  0.1281 -1.0482
  798SOL     OW 8408   2.675   0.026   0.700  0.3772  0.6457 -0.0663
  798SOL    HW1 8409   2.729   0.089   0.755  0.6490  0.7950 -0.4937
  798SOL    HW2 8410   2.697  -0.068   0.725  2.8515  0.5963 -2.0135
  799SOL     OW 8411   1.311   1.261   6.489 -0.3112 -1.0186 -0.4650
  799SOL    HW1 8412   1.213   1.253   6.508 -0.6125  1.5759 -0.5085
  799SOL    HW2 8413   1.332   1.215   6.403 -1.8852 -0.0728 -1.4163
  800SOL     OW 8414   3.476   3.889   0.607  0.9339 -0.4319 -0.1080
  800SOL    HW1 8415   3.454   3.881   0.510  1.8592 -0.6676 -0.3035
  800SOL    HW2 8416   3.428   3.968   0.646  1.7136  0.5685 -1.1114
  801SOL     OW 8417   1.741   0.918   5.994 -0.6513 -0.1185  0.1223
  801SOL    HW1 8418   1.743   1.014   5.966  0.8875 -0.2444 -0.3163
  801SOL    HW2 8419   1.804   0.865   5.936  0.5413 -0.8980  2.0292
  802SOL     OW 8420   1.228   0.492   0.509  0.2159  0.8985 -0.2381
  802SOL    HW1 8421   1.241   0.394   0.495 -0.5821  0.8620 -0.7903
  802SOL    HW2 8422   1.168   0.528   0.438 -0.3826  1.5702  0.5872
  803SOL     OW 8423   1.240   0.972   0.232 -0.0474  0.3592 -0.6343
  803SOL    HW1 8424   1.324   0.924   0.257 -1.8189 -1.5155  2.3037
  803SOL    HW2 8425   1.229   0.968   0.133  1.8798 -1.9508 -0.8665
  804SOL     OW 8426   5.531   5.962   0.770  0.2568  0.2272  0.5128
  804SOL    HW1 8427   5.619   5.948   0.815  0.2861  0.9661  0.7097
  804SOL    HW2 8428   5.514   5.888   0.705  2.0378  1.1218 -1.1132
  805SOL     OW 8429   0.914   4.999   4.768  0.2937  0.3961 -0.1264
  805SOL    HW1 8430   0.940   5.080   4.822  0.6728  1.1648 -1.4263
  805SOL    HW2 8431   0.826   4.965   4.801  0.9768  0.2147  1.6508
  806SOL     OW 8432   1.313   4.298   6.474 -0.1036 -0.1675  0.2200
  806SOL    HW1 8433   1.390   4.360   6.488 -0.3602  0.3138 -0.4863
  806SOL    HW2 8434   1.271   4.278   6.563 -0.1474  0.8376  0.4392
  807SOL     OW 8435   0.019   0.236   6.631  0.5440 -0.1329 -0.0684
  807SOL    HW1 8436  -0.071   0.257   6.670  0.8216  0.9889  0.0039
  807SOL    HW2 8437   0.090   0.283   6.684  1.0049  0.6630 -1.3541
  808SOL     OW 8438   3.935   3.452   5.219  0.1056 -0.1353 -0.1042
  808SOL    HW1 8439   3.880   3.535   5.218 -0.2996 -0.3770  0.7226
  808SOL    HW2 8440   4.032   3.476   5.220  0.0478  0.2843 -2.1565
  809SOL     OW 8441   0.143   4.979   5.930  0.0288 -0.4342 -0.2991
  809SOL    HW1 8442   0.082   4.900   5.938 -0.1055 -0.4610 -1.4897
  809SOL    HW2 8443   0.238   4.947   5.922  0.0500 -0.4422 -0.0363
  810SOL     OW 8444   3.134   4.356   6.555 -0.7583  0.7164 -0.0901
  810SOL    HW1 8445   3.078   4.439   6.543  0.9020  1.8528 -0.3777
  810SOL    HW2 8446   3.147   4.339   6.653  0.3479  1.8849  0.0037
  811SOL     OW 8447   4.311   6.122   0.781  0.2495 -0.2348  0.4375
  811SOL    HW1 8448   4.411   6.125   0.772  0.1691 -1.4055 -1.6401
  811SOL    HW2 8449   4.273   6.071   0.704 -2.3630  4.5915 -1.9070
  812SOL     OW 8450   1.696   4.032   5.027 -0.5331  0.6292  0.0911
  812SOL    HW1 8451   1.642   4.003   5.106  1.4567 -0.5858  1.1062
  812SOL    HW2 8452   1.734   3.952   4.981  1.5188  1.3927  0.3166
  813SOL     OW 8453   0.072   5.952   0.150 -0.2870 -0.1416  0.0400
  813SOL    HW1 8454   0.009   6.028   0.138 -1.0393 -0.8141 -0.2763
  813SOL    HW2 8455   0.114   5.928   0.062 -0.5821 -0.5554  0.0130
  814SOL     OW 8456   3.709   0.753   5.694 -0.2410  0.0309  0.3012
  814SOL    HW1 8457   3.793   0.797   5.662 -0.4692  1.6431  1.7497
  814SOL    HW2 8458   3.644   0.748   5.618  0.7810 -0.3011 -0.5796
  815SOL     OW 8459   3.541   1.564   5.970 -0.2887 -0.2969 -0.5018
  815SOL    HW1 8460   3.567   1.582   6.065 -2.7511  1.1747 -0.0092
  815SOL    HW2 8461   3.608   1.503   5.928 -0.0787 -2.5079  2.7015
  816SOL     OW 8462   0.882   0.388   0.598  0.7187  0.5644 -0.4905
  816SOL    HW1 8463   0.968   0.337   0.598  0.3654 -0.1146 -2.6545
  816SOL    HW2 8464   0.806   0.324   0.605  0.3316  1.0240 -0.4835
  817SOL     OW 8465   0.103   3.621   0.144 -0.0356  0.0435 -0.6555
  817SOL    HW1 8466   0.108   3.534   0.096  0.9302  0.0814 -0.6506
  817SOL    HW2 8467   0.167   3.686   0.102 -3.1066  1.8938 -2.8400
  818SOL     OW 8468   3.389   2.651   5.474  0.3767 -0.2539  0.5809
  818SOL    HW1 8469   3.398   2.724   5.405  0.7809 -1.1913 -0.3864
  818SOL    HW2 8470   3.372   2.564   5.428  1.1243 -0.9864  1.6527
  819SOL     OW 8471   5.828   2.766   5.892  0.3289 -0.4114  0.8006
  819SOL    HW1 8472   5.838   2.672   5.861 -1.5074 -0.0650 -1.0706
  819SOL    HW2 8473   5.771   2.817   5.827  1.4283  2.0626  1.6555
  820SOL     OW 8474   1.228   0.177   6.417  0.0921 -0.6199 -0.2449
  820SOL    HW1 8475   1.199   0.263   6.459  1.2285  0.3592 -1.3937
  820SOL    HW2 8476   1.179   0.163   6.331 -0.0294 -1.1014 -0.1051
  821SOL     OW 8477   1.299   0.151   5.919 -0.0969 -0.3104  0.1730
  821SOL    HW1 8478   1.325   0.118   6.010 -0.6247 -2.2980 -0.3344
  821SOL    HW2 8479   1.378   0.196   5.877  0.8344 -1.3007  0.7857
  822SOL     OW 8480   5.866   5.975   5.903  0.2766 -0.7020 -0.0041
  822SOL    HW1 8481   5.857   6.062   5.854  0.0886 -1.3428 -1.1413
  822SOL    HW2 8482   5.963   5.956   5.920  0.3068 -0.1901  0.4060
  823SOL     OW 8483   2.626   3.461   1.755 -0.3851  0.6005  0.0141
  823SOL    HW1 8484   2.638   3.522   1.834 -1.6655  0.2973  0.4639
  823SOL    HW2 8485   2.620   3.367   1.786 -1.1668  0.4998 -0.4152
  824SOL     OW 8486   0.028   5.279   0.613  0.2695 -0.3033 -0.1437
  824SOL    HW1 8487   0.109   5.335   0.594 -2.4049  3.9878 -0.4822
  824SOL    HW2 8488   0.027   5.252   0.709  2.0017 -0.3509 -0.1156
  825SOL     OW 8489   3.845   4.372   0.090 -0.2936 -0.4241 -0.2561
  825SOL    HW1 8490   3.801   4.300   0.037  1.2620 -1.1110 -0.6865
  825SOL    HW2 8491   3.888   4.332   0.171 -0.3797  0.2054  0.1057
  826SOL     OW 8492   1.176   1.154   0.773  0.4508  0.1845 -0.3590
  826SOL    HW1 8493   1.225   1.067   0.773  0.4071  0.1585  0.0610
  826SOL    HW2 8494   1.223   1.218   0.711  1.9435  0.6526  1.1553
  827SOL     OW 8495   5.004   5.973   0.740  0.7146  0.0960  0.2873
  827SOL    HW1 8496   5.003   5.968   0.840 -0.3672  0.8414  0.3235
  827SOL    HW2 8497   5.095   5.949   0.706  0.2972 -3.4580  1.2681
  828SOL     OW 8498   0.672   1.481   1.657 -0.0129  0.1324 -0.4972
  828SOL    HW1 8499   0.743   1.472   1.727 -0.2905 -0.1341 -0.2477
  828SOL    HW2 8500   0.610   1.403   1.663  1.0358 -0.9046 -2.2498
  829SOL     OW 8501   0.510   4.773   1.123  0.1466  0.1377 -0.6624
  829SOL    HW1 8502   0.511   4.677   1.150  0.1833  0.4554  0.5606
  829SOL    HW2 8503   0.600   4.813   1.140 -0.0812  0.5679 -0.4554
  830SOL     OW 8504   3.330   5.035   0.239  0.1394  0.1383  0.0275
  830SOL    HW1 8505   3.370   4.982   0.164 -1.4969 -0.2290 -0.6493
  830SOL    HW2 8506   3.401   5.089   0.284  2.0981 -3.2102  1.3064
  831SOL     OW 8507   1.989   5.243   0.861  0.0010  0.4093 -0.3151
  831SOL    HW1 8508   2.069   5.241   0.920 -0.2596  0.3259  0.0370
  831SOL    HW2 8509   1.943   5.154   0.863  0.0678  0.3595 -0.7533
  832SOL     OW 8510   5.212   5.821   6.046  0.1964  0.3065 -0.0781
  832SOL    HW1 8511   5.294   5.776   6.078 -0.0929 -0.8426 -0.8950
  832SOL    HW2 8512   5.156   5.757   5.993 -0.8110  1.2910 -0.2665
  833SOL     OW 8513   4.073   3.086   6.616  0.4193  0.5624  0.6518
  833SOL    HW1 8514   4.141   3.101   6.688  0.1862  0.9714  0.7892
  833SOL    HW2 8515   4.115   3.102   6.527  1.0265 -1.0429  0.6071
  834SOL     OW 8516   2.159   0.473   5.476  1.0652  0.5855 -0.0358
  834SOL    HW1 8517   2.225   0.547   5.491  0.6748  1.1262 -0.8731
  834SOL    HW2 8518   2.166   0.442   5.381 -0.2344  1.0254 -0.3021
  835SOL     OW 8519   6.004   5.676   5.865  0.0505  0.2932 -0.0665
  835SOL    HW1 8520   5.981   5.736   5.789  0.4243 -0.4955 -0.8170
  835SOL    HW2 8521   5.938   5.689   5.939  0.6802  2.3292  0.2047
  836SOL     OW 8522   1.164   3.943   5.631  0.4214 -0.0057 -0.1502
  836SOL    HW1 8523   1.169   4.036   5.667  1.0991 -0.2014  0.2694
  836SOL    HW2 8524   1.127   3.946   5.538 -0.5942  0.5733  0.2568
  837SOL     OW 8525   2.953   3.441   1.360  0.1210 -0.2487 -0.2979
  837SOL    HW1 8526   3.035   3.445   1.302 -0.4526  2.5712 -1.0742
  837SOL    HW2 8527   2.980   3.439   1.456  1.1261  0.7124 -0.5406
  838SOL     OW 8528   3.180   5.374   5.516  0.6142  0.0310 -0.4389
  838SOL    HW1 8529   3.085   5.404   5.504  1.3484  3.7021  1.4652
  838SOL    HW2 8530   3.236   5.410   5.441  1.0165  0.7727  0.2083
  839SOL     OW 8531   1.538   6.255   4.948  0.1330  0.5439  0.0899
  839SOL    HW1 8532   1.586   6.183   4.898 -0.3673  0.4051 -0.2028
  839SOL    HW2 8533   1.443   6.259   4.917  0.0595  1.0810  0.3718
  840SOL     OW 8534   1.426   4.301   6.196  0.0352 -0.1826 -1.0789
  840SOL    HW1 8535   1.489   4.223   6.190 -1.1047 -1.3845  1.1467
  840SOL    HW2 8536   1.351   4.278   6.258 -0.4302  2.6731 -0.4596
  841SOL     OW 8537   4.410   0.463   6.555 -0.4983  0.6306  0.3326
  841SOL    HW1 8538   4.496   0.510   6.538  0.3432 -0.9685  0.0078
  841SOL    HW2 8539   4.342   0.495   6.489  0.5685  0.0945 -1.0769
  842SOL     OW 8540   5.162   0.293   0.905 -0.0313  0.4982 -0.1548
  842SOL    HW1 8541   5.194   0.306   0.998  0.4621  1.8104 -0.4843
  842SOL    HW2 8542   5.068   0.325   0.897  0.2679  1.3601 -0.3300
  843SOL     OW 8543   1.920   6.149   0.542  0.0331 -0.1602  0.5957
  843SOL    HW1 8544   1.871   6.101   0.614 -0.3458 -1.0347 -0.2193
  843SOL    HW2 8545   1.883   6.123   0.453  0.7792  0.5571  0.0506
  844SOL     OW 8546   1.028   4.934   4.540 -0.0000  0.5760 -0.0949
  844SOL    HW1 8547   0.996   4.994   4.468 -0.9990  1.3374  0.9464
  844SOL    HW2 8548   0.991   4.965   4.628  0.7365 -0.6436  0.6710
  845SOL     OW 8549   3.997   0.510   6.299  0.1098 -0.1597 -0.3274
  845SOL    HW1 8550   3.919   0.447   6.290 -0.1149  0.2686 -1.6672
  845SOL    HW2 8551   3.974   0.581   6.366  0.1015 -1.0897  0.6911
  846SOL     OW 8552   2.017   2.938   0.858 -0.4259 -0.1234 -0.0141
  846SOL    HW1 8553   2.006   3.006   0.931  2.2330 -0.2718  0.6428
  846SOL    HW2 8554   1.975   2.972   0.774  0.2665  2.0850  0.4692
  847SOL     OW 8555   2.723   4.309   6.499  0.0926 -0.0525 -0.4993
  847SOL    HW1 8556   2.758   4.224   6.539  0.2743  0.6874  0.9840
  847SOL    HW2 8557   2.792   4.380   6.505 -1.3398  1.2639  1.8783
  848SOL     OW 8558   0.958   4.341   1.753  0.1003  0.0171 -0.2895
  848SOL    HW1 8559   0.898   4.272   1.793 -0.8762  0.3074 -1.1837
  848SOL    HW2 8560   1.044   4.344   1.802 -0.1845 -1.2217  0.3070
  849SOL     OW 8561   4.269   6.169   5.680 -0.1325  0.1664  0.1679
  849SOL    HW1 8562   4.268   6.072   5.659 -2.9957  0.1026  0.1424
  849SOL    HW2 8563   4.311   6.220   5.605  1.3899 -1.0250  0.1852
  850SOL     OW 8564   5.902   6.052   6.452 -0.3845 -0.5705  0.1747
  850SOL    HW1 8565   5.926   6.048   6.355  0.1595  0.2413  0.2704
  850SOL    HW2 8566   5.805   6.075   6.461  0.1006  1.9454 -0.1929
  851SOL     OW 8567   2.114   2.865   6.397 -0.0850  0.6141  0.8375
  851SOL    HW1 8568   2.127   2.781   6.345 -0.2733 -0.2927  2.2148
  851SOL    HW2 8569   2.081   2.937   6.335  1.0454 -0.0115 -0.5601
  852SOL     OW 8570   3.242   5.292   1.338 -0.8167  0.2316 -0.1846
  852SOL    HW1 8571   3.189   5.251   1.263  1.0473 -1.6744 -0.5636
  852SOL    HW2 8572   3.278   5.219   1.397 -1.5762  1.6435  2.1828
  853SOL     OW 8573   0.135   0.079   5.796 -0.0810  0.4150  0.5529
  853SOL    HW1 8574   0.131   0.072   5.696 -0.5340  0.0148  0.5998
  853SOL    HW2 8575   0.161   0.172   5.821  0.7731  0.3260  0.0488
  854SOL     OW 8576   6.199   1.983   6.421 -0.1524 -0.3058  0.3791
  854SOL    HW1 8577   6.104   1.983   6.392 -0.7724 -0.0055  2.2308
  854SOL    HW2 8578   6.211   2.048   6.497  1.4161 -0.6973  0.5126
  855SOL     OW 8579   6.289   1.742   6.467 -0.4143 -0.0391  0.3406
  855SOL    HW1 8580   6.282   1.724   6.565 -2.5331  0.8157  0.3872
  855SOL    HW2 8581   6.280   1.840   6.450 -1.8051 -0.3382 -0.8255
  856SOL     OW 8582   2.220   1.212   5.491 -0.5125 -0.5283  0.2116
  856SOL    HW1 8583   2.151   1.280   5.516 -1.1624 -1.2373  0.3963
  856SOL    HW2 8584   2.278   1.192   5.571  0.9658  1.2253 -0.3490
  857SOL     OW 8585   1.078   6.279   0.612  0.6205 -0.0228 -0.6027
  857SOL    HW1 8586   1.132   6.247   0.689 -0.5456  2.2890  1.3161
  857SOL    HW2 8587   1.011   6.210   0.586  0.5194 -0.5651  1.0061
  858SOL     OW 8588   4.930   4.241   1.271 -0.3503 -0.5762 -0.2073
  858SOL    HW1 8589   5.028   4.260   1.263 -0.5389  0.1765 -0.8484
  858SOL    HW2 8590   4.901   4.248   1.366 -0.2638  1.6616 -0.3103
  859SOL     OW 8591   3.145   4.568   5.690  0.1869 -0.1033  0.0051
  859SOL    HW1 8592   3.104   4.489   5.646 -0.9424  0.3519  0.1870
  859SOL    HW2 8593   3.072   4.630   5.721  1.0239  0.7103  0.4000
  860SOL     OW 8594   3.439   2.043   6.022 -0.1068 -0.5459  0.1945
  860SOL    HW1 8595   3.462   2.067   5.927 -1.3581  0.5541  0.1424
  860SOL    HW2 8596   3.480   1.954   6.044  1.7212 -0.0014 -0.7721
  861SOL     OW 8597   0.914   3.635   0.627 -0.4613  0.2003  0.4712
  861SOL    HW1 8598   0.824   3.650   0.667 -0.2785  0.1481  0.9099
  861SOL    HW2 8599   0.984   3.675   0.685  0.0121 -1.9073  1.4638
  862SOL     OW 8600   2.789   2.654   6.294 -0.1378  0.3126 -0.0744
  862SOL    HW1 8601   2.697   2.618   6.310  0.5819 -0.2740  3.6995
  862SOL    HW2 8602   2.788   2.753   6.308 -0.1577  0.2526  0.3875
  863SOL     OW 8603   3.210   0.313   6.591  0.1577  0.3386 -0.0608
  863SOL    HW1 8604   3.176   0.395   6.544 -0.7971  0.5882  1.0119
  863SOL    HW2 8605   3.306   0.327   6.617  0.5991  0.3321 -1.5629
  864SOL     OW 8606   2.373   1.063   1.273  0.4359 -0.3792  0.0994
  864SOL    HW1 8607   2.430   1.143   1.292  0.2935  0.1421 -1.5288
  864SOL    HW2 8608   2.412   0.983   1.318  1.9291  0.1472 -0.2069
  865SOL     OW 8609   6.168   3.706   1.041  0.4538 -0.3310 -0.0756
  865SOL    HW1 8610   6.233   3.770   1.000 -0.3016  0.2539 -0.3693
  865SOL    HW2 8611   6.077   3.746   1.043  0.2710 -0.7287  1.2823
  866SOL     OW 8612   6.212   2.882   5.088 -0.1271 -0.2326 -0.1137
  866SOL    HW1 8613   6.276   2.807   5.074  1.1136  0.4465  1.5737
  866SOL    HW2 8614   6.161   2.899   5.004  0.4526 -2.1285 -0.8925
  867SOL     OW 8615   4.368   0.445   1.398  0.6128 -0.0892  0.2069
  867SOL    HW1 8616   4.289   0.433   1.459  0.0122  0.3244 -0.4658
  867SOL    HW2 8617   4.353   0.525   1.340  1.3680 -0.2267 -0.1889
  868SOL     OW 8618   4.975   0.169   1.150 -0.1456 -0.7649  0.4624
  868SOL    HW1 8619   4.943   0.208   1.064 -1.2242 -0.4073  1.0109
  868SOL    HW2 8620   4.942   0.224   1.227  2.9164  0.4356  1.0552
  869SOL     OW 8621   4.979   0.580   5.774  0.2766  0.9345  0.1934
  869SOL    HW1 8622   4.945   0.569   5.681  0.7751  1.2473 -0.0283
  869SOL    HW2 8623   5.049   0.511   5.792 -0.8258 -0.0553  0.8302
  870SOL     OW 8624   4.364   2.084   0.416  0.0719 -0.8551  0.1050
  870SOL    HW1 8625   4.389   2.024   0.340 -0.3459 -1.1015  0.1611
  870SOL    HW2 8626   4.438   2.085   0.484 -0.0836 -1.5980  0.2841
  871SOL     OW 8627   3.967   5.884   0.663  0.7362 -0.4423  0.1447
  871SOL    HW1 8628   4.017   5.907   0.580  1.5942  0.0896  0.7908
  871SOL    HW2 8629   3.973   5.786   0.680  1.5688 -0.3864  0.2119
  872SOL     OW 8630   0.295   5.341   6.597  0.0625  0.1333  0.4355
  872SOL    HW1 8631   0.348   5.384   6.524 -1.0160  0.2715 -0.2912
  872SOL    HW2 8632   0.220   5.401   6.624 -0.0391 -0.2777  1.0951
  873SOL     OW 8633   0.506   2.173   0.439 -0.5587 -0.1052  0.4065
  873SOL    HW1 8634   0.471   2.155   0.531  0.1139 -1.3635  0.4374
  873SOL    HW2 8635   0.602   2.198   0.445 -1.1269  2.3769  0.2380
  874SOL     OW 8636   1.187   0.109   0.894 -0.5454 -0.0146  0.5256
  874SOL    HW1 8637   1.248   0.090   0.971 -1.2766 -1.5882  0.7664
  874SOL    HW2 8638   1.119   0.036   0.887 -2.7667  1.9230  0.6118
  875SOL     OW 8639   4.713   5.055   5.837 -0.1886  0.8110  0.2042
  875SOL    HW1 8640   4.673   4.998   5.766  0.4330  1.2938 -0.5422
  875SOL    HW2 8641   4.695   5.014   5.927 -3.2523  1.5033  0.0125
  876SOL     OW 8642   2.682   5.511   5.439 -0.0462  0.3170  0.1297
  876SOL    HW1 8643   2.617   5.486   5.367  0.0425 -0.7951  0.4159
  876SOL    HW2 8644   2.640   5.579   5.499 -0.9954 -0.4393  0.3486
  877SOL     OW 8645   4.609   6.275   1.595 -0.4633  0.1716  0.2285
  877SOL    HW1 8646   4.592   6.192   1.648  1.1971 -1.6966 -1.9268
  877SOL    HW2 8647   4.655   6.343   1.652 -0.2794 -1.0697  1.6129
  878SOL     OW 8648   4.043   1.113   0.532  0.3126 -0.2682 -0.1860
  878SOL    HW1 8649   4.017   1.207   0.556  0.8550 -0.4882  1.4212
  878SOL    HW2 8650   3.982   1.049   0.579  1.0419 -0.7291  0.1482
  879SOL     OW 8651   3.866   2.244   5.048 -0.3408 -0.8305 -0.2241
  879SOL    HW1 8652   3.935   2.173   5.041  0.3314 -0.0648 -2.0948
  879SOL    HW2 8653   3.858   2.292   4.961 -1.8267  0.4240  0.5372
  880SOL     OW 8654   4.596   4.106   1.126 -0.7632 -0.2145  0.1789
  880SOL    HW1 8655   4.620   4.103   1.223  0.8965 -0.7197 -0.2069
  880SOL    HW2 8656   4.522   4.172   1.111 -1.7845 -0.9226  1.9157
  881SOL     OW 8657   2.279   3.051   0.824 -0.4469  0.3844 -0.2514
  881SOL    HW1 8658   2.186   3.019   0.841 -0.4669  0.8343  0.5522
  881SOL    HW2 8659   2.344   2.995   0.874 -0.2266 -0.2849 -1.2620
  882SOL     OW 8660   2.991   3.873   0.040  0.0442  0.9440  0.1164
  882SOL    HW1 8661   2.919   3.879   0.109  0.6046  1.0507  0.7055
  882SOL    HW2 8662   2.951   3.849  -0.048 -1.0499  3.3793 -0.1235
  883SOL     OW 8663   5.808   0.873   0.157 -0.1386 -0.5861  0.3274
  883SOL    HW1 8664   5.734   0.926   0.198 -0.4967  0.2053 -1.2784
  883SOL    HW2 8665   5.771   0.789   0.117  0.0885 -0.9711  0.9124
  884SOL     OW 8666   4.000   2.620   0.252  0.2396 -0.0129  1.1969
  884SOL    HW1 8667   4.098   2.610   0.269  0.2785  1.2730  1.8241
  884SOL    HW2 8668   3.985   2.683   0.176 -0.1120 -0.1924  1.1101
  885SOL     OW 8669   3.294   4.307   0.955  0.4548 -0.8315 -0.4010
  885SOL    HW1 8670   3.199   4.338   0.963  0.6935  0.5701 -2.2628
  885SOL    HW2 8671   3.334   4.299   1.046 -1.3645 -1.2377  0.4115
  886SOL     OW 8672   0.080   4.812   1.574  0.0351  0.0821 -0.5996
  886SOL    HW1 8673   0.115   4.732   1.623  0.7733 -0.4860 -1.9786
  886SOL    HW2 8674   0.050   4.881   1.639  1.2417 -0.5141  0.6322
  887SOL     OW 8675   2.043   6.325   6.295 -0.1813  0.2548  0.3929
  887SOL    HW1 8676   2.052   6.397   6.227  0.5931  0.7527  1.0159
  887SOL    HW2 8677   1.946   6.308   6.313 -0.3989  2.5662  1.7197
  888SOL     OW 8678   1.691   2.798   6.113 -0.3640 -0.6212  0.2986
  888SOL    HW1 8679   1.766   2.774   6.052  0.3360 -0.3903  1.0578
  888SOL    HW2 8680   1.604   2.768   6.073 -0.3519  2.4452 -2.4528
  889SOL     OW 8681   2.602   0.806   6.531  0.3360  0.2008  0.0509
  889SOL    HW1 8682   2.663   0.838   6.604 -0.5908 -0.7692  1.3077
  889SOL    HW2 8683   2.652   0.799   6.445  2.2226 -1.3690  1.2131
  890SOL     OW 8684   2.729   0.048   4.623 -0.6585 -0.0910  0.4907
  890SOL    HW1 8685   2.753   0.121   4.687 -0.5009  1.4483 -1.2406
  890SOL    HW2 8686   2.791   0.050   4.545 -1.2568 -1.4819 -0.0538
  891SOL     OW 8687   0.546   4.863   6.514 -0.4683  0.7465 -0.0386
  891SOL    HW1 8688   0.477   4.866   6.441  0.1359  2.3265 -0.5861
  891SOL    HW2 8689   0.624   4.919   6.488  1.1985 -1.2358  0.4381
  892SOL     OW 8690   3.572   1.151   0.824  0.5759  0.0352 -0.6432
  892SOL    HW1 8691   3.473   1.161   0.825  0.5591  0.1690  2.2293
  892SOL    HW2 8692   3.615   1.241   0.835  0.9979 -0.1971 -0.3730
  893SOL     OW 8693   3.729   1.848   6.359  0.2680 -0.5539  0.7730
  893SOL    HW1 8694   3.812   1.808   6.397 -0.1119  0.0307  2.2760
  893SOL    HW2 8695   3.690   1.914   6.424 -0.6770  0.1382 -0.4361
  894SOL     OW 8696   4.576   5.171   6.405 -0.4952 -0.1479 -0.6176
  894SOL    HW1 8697   4.578   5.118   6.490  0.0144 -0.5001 -0.8444
  894SOL    HW2 8698   4.568   5.268   6.426  3.4639  0.2214  0.0601
  895SOL     OW 8699   5.815   2.122   1.268  0.0886  0.1615 -0.2504
  895SOL    HW1 8700   5.785   2.028   1.279 -1.4552  0.5454 -0.8582
  895SOL    HW2 8701   5.876   2.147   1.344  2.5632 -2.0349 -1.3648
  896SOL     OW 8702   4.021   6.323   6.096 -1.2300 -0.6374  0.1831
  896SOL    HW1 8703   3.988   6.301   6.187 -1.2833 -0.6658  0.1572
  896SOL    HW2 8704   4.056   6.240   6.052 -1.2155 -0.6262  0.1733
  897SOL     OW 8705   3.224   0.936   5.155  0.2826  0.1075  0.1399
  897SOL    HW1 8706   3.266   0.909   5.069  0.9620 -0.9036  0.7615
  897SOL    HW2 8707   3.279   1.007   5.199 -0.2375  0.8533 -0.3990
  898SOL     OW 8708   0.226   3.909   4.954  0.3218  0.2203 -0.0897
  898SOL    HW1 8709   0.172   3.827   4.940  0.0511 -0.2021  2.8101
  898SOL    HW2 8710   0.168   3.990   4.944 -0.3378 -0.1355  0.7581
  899SOL     OW 8711   2.095   3.082   5.374 -0.8904 -0.4677  0.0930
  899SOL    HW1 8712   2.192   3.057   5.377 -0.0998  2.2655  0.6533
  899SOL    HW2 8713   2.075   3.124   5.286 -1.0854  0.4949  0.5759
  900SOL     OW 8714   3.163   3.668   6.235  0.1928  0.5143  0.6545
  900SOL    HW1 8715   3.129   3.669   6.329  1.9495  1.7098  1.3166
  900SOL    HW2 8716   3.251   3.619   6.232 -1.0926 -1.9057 -0.8871
  901SOL     OW 8717   0.702   3.309   5.990 -0.6118  0.2199  0.1603
  901SOL    HW1 8718   0.777   3.265   6.041 -0.4186 -1.7377 -1.6915
  901SOL    HW2 8719   0.727   3.316   5.894 -2.0379  1.4258 -0.1615
  902SOL     OW 8720   5.605   5.375   0.379  0.2789  0.1946 -0.0732
  902SOL    HW1 8721   5.588   5.277   0.373  0.4088  0.0576  1.4846
  902SOL    HW2 8722   5.545   5.416   0.447  0.3421  1.1814 -0.5846
  903SOL     OW 8723   2.058   2.436   0.910  0.6722  0.7579  0.0448
  903SOL    HW1 8724   2.072   2.532   0.887  0.1056  0.9046  0.2791
  903SOL    HW2 8725   1.961   2.413   0.899  0.4278  0.7359  1.8705
  904SOL     OW 8726   3.477   4.227   0.505 -0.3001 -0.0090  0.2590
  904SOL    HW1 8727   3.469   4.243   0.406 -2.4738  1.1815  0.5453
  904SOL    HW2 8728   3.572   4.207   0.529  0.4393  0.6370 -1.9287
  905SOL     OW 8729   0.683   4.554   0.767  0.1468 -0.2339 -0.0960
  905SOL    HW1 8730   0.758   4.618   0.748  0.7581 -1.0700 -0.5507
  905SOL    HW2 8731   0.667   4.496   0.687  0.9751 -2.0192  0.9736
  906SOL     OW 8732   4.022   3.961   0.178  0.2052 -0.1831  0.4381
  906SOL    HW1 8733   4.004   3.936   0.083 -0.6083  0.9930  0.2695
  906SOL    HW2 8734   3.962   3.908   0.239  1.2073 -1.4503  0.3775
  907SOL     OW 8735   4.514   2.218   6.005  0.3073  0.4672  0.0201
  907SOL    HW1 8736   4.550   2.275   5.931 -2.5693  0.9927 -1.1073
  907SOL    HW2 8737   4.483   2.277   6.080 -0.5233  0.2306 -0.1327
  908SOL     OW 8738   0.779   1.824   0.164  0.0696 -0.0619 -0.4354
  908SOL    HW1 8739   0.732   1.846   0.250 -0.5792 -3.0037  0.0686
  908SOL    HW2 8740   0.711   1.813   0.091  0.3503 -0.2609 -0.6700
  909SOL     OW 8741   1.469   2.899   1.358  0.7213 -0.4980 -0.0410
  909SOL    HW1 8742   1.390   2.837   1.356 -0.4329  0.9051  0.4385
  909SOL    HW2 8743   1.543   2.857   1.412 -0.5512 -0.8893  1.4797
  910SOL     OW 8744   5.426   4.470   5.750  0.7734 -0.5059 -0.3290
  910SOL    HW1 8745   5.369   4.516   5.682  0.4666 -0.3120  0.0531
  910SOL    HW2 8746   5.510   4.438   5.707  1.0759  0.5733 -0.5687
  911SOL     OW 8747   5.685   1.353   1.189  0.4925  0.2174 -0.1881
  911SOL    HW1 8748   5.681   1.450   1.214 -0.2730  0.0857  0.2357
  911SOL    HW2 8749   5.594   1.313   1.199  0.7788 -0.5167 -0.4906
  912SOL     OW 8750   5.255   6.102   0.323 -0.3085  0.0902 -0.7676
  912SOL    HW1 8751   5.170   6.129   0.369 -0.8572 -0.1997 -1.5841
  912SOL    HW2 8752   5.252   6.005   0.303 -0.2732  0.2928 -1.7990
  913SOL     OW 8753   4.859   5.105   6.676  0.2349  0.0317 -0.1612
  913SOL    HW1 8754   4.946   5.076   6.715 -0.0388 -0.1648  0.3138
  913SOL    HW2 8755   4.871   5.127   6.579  0.9753  0.7688  0.0880
  914SOL     OW 8756   5.566   6.122   5.192 -0.6845  0.0776 -0.2199
  914SOL    HW1 8757   5.529   6.188   5.127 -2.0577  1.5595  1.9369
  914SOL    HW2 8758   5.543   6.030   5.162 -2.6664  0.7764 -1.0437
  915SOL     OW 8759   1.949   2.293   1.332 -0.3491  0.1102  0.2666
  915SOL    HW1 8760   1.918   2.336   1.416 -0.5953 -0.2065  0.3399
  915SOL    HW2 8761   2.041   2.257   1.344 -0.3573  0.1271  0.3773
  916SOL     OW 8762   2.040   4.396   1.233  0.0569 -0.4984  0.4787
  916SOL    HW1 8763   2.020   4.302   1.261 -1.7926 -0.5082 -0.6957
  916SOL    HW2 8764   2.122   4.397   1.176  0.0533 -1.3962  0.4444
  917SOL     OW 8765   3.222   0.791   6.518  0.4218 -0.3856  0.2154
  917SOL    HW1 8766   3.150   0.851   6.554 -0.3153 -1.0501 -0.1208
  917SOL    HW2 8767   3.280   0.760   6.593 -0.5104 -0.9722  0.7080
  918SOL     OW 8768   6.190   4.545   0.036 -0.6198 -0.5464  0.3169
  918SOL    HW1 8769   6.257   4.472   0.047 -0.8052 -0.8478 -0.4703
  918SOL    HW2 8770   6.166   4.554  -0.061 -1.6899 -0.4197  0.5821
  919SOL     OW 8771   1.636   5.343   0.645 -0.2157 -0.2696 -0.3463
  919SOL    HW1 8772   1.550   5.370   0.602 -0.5184  0.3579  0.6208
  919SOL    HW2 8773   1.617   5.307   0.737  0.5098 -0.6564 -0.3422
  920SOL     OW 8774   5.135   0.691   0.353 -0.7812 -0.3605  0.6021
  920SOL    HW1 8775   5.197   0.728   0.284  0.3511 -1.4975  0.9854
  920SOL    HW2 8776   5.041   0.708   0.325 -0.3672  2.9790  0.8468
  921SOL     OW 8777   4.149   4.696   5.942 -0.4582 -1.0352  0.0066
  921SOL    HW1 8778   4.219   4.730   6.005  1.2594  1.2240 -2.8817
  921SOL    HW2 8779   4.083   4.641   5.993  0.8898  0.4326  3.7003
  922SOL     OW 8780   0.115   3.267   1.547  0.1039 -0.5637  0.0067
  922SOL    HW1 8781   0.079   3.189   1.596  1.3679 -1.5217 -0.5372
  922SOL    HW2 8782   0.081   3.352   1.588 -0.5400 -1.3743  1.1749
  923SOL     OW 8783   2.244   5.086   5.489 -0.1898  0.1763 -0.0859
  923SOL    HW1 8784   2.323   5.145   5.505  1.4100 -1.8211 -0.2799
  923SOL    HW2 8785   2.258   4.998   5.533  0.5832 -2.4993 -4.9287
  924SOL     OW 8786   0.630   0.774   0.122  0.2203 -0.5770  0.3879
  924SOL    HW1 8787   0.672   0.762   0.212  0.6862  1.7014  0.5323
  924SOL    HW2 8788   0.679   0.718   0.055  2.2739  0.5051  0.9175
  925SOL     OW 8789   3.214   3.907   6.475 -0.3079 -0.0905  0.4155
  925SOL    HW1 8790   3.184   3.812   6.459 -0.7110  0.4135 -2.3267
  925SOL    HW2 8791   3.134   3.967   6.473  0.1469  0.5090  0.0886
  926SOL     OW 8792   4.666   2.023   0.963  0.1642  0.0135  0.6250
  926SOL    HW1 8793   4.608   1.946   0.993 -1.2132  0.7082 -0.1721
  926SOL    HW2 8794   4.715   2.060   1.042 -1.4939  0.2334  1.6049
  927SOL     OW 8795   5.925   4.415   0.673  0.1892  0.3731  0.9181
  927SOL    HW1 8796   5.898   4.319   0.668  0.6350  0.2995 -0.9042
  927SOL    HW2 8797   5.858   4.472   0.625  1.2221  0.6301 -0.2930
  928SOL     OW 8798   6.222   6.185   0.097  0.0126 -0.6624 -0.5108
  928SOL    HW1 8799   6.297   6.235   0.054  0.3437 -0.9582 -0.2860
  928SOL    HW2 8800   6.137   6.204   0.049 -0.0520  0.8862  0.1554
  929SOL     OW 8801   1.458   3.843   6.628 -0.3161 -0.6783  0.2413
  929SOL    HW1 8802   1.492   3.798   6.710 -0.6097 -2.1167 -0.4033
  929SOL    HW2 8803   1.487   3.792   6.547  1.4861  1.6558 -0.7192
  930SOL     OW 8804   5.739   1.722   5.988 -0.1307  0.4215  0.3281
  930SOL    HW1 8805   5.744   1.762   5.897  0.5089 -2.0256 -0.7719
  930SOL    HW2 8806   5.646   1.692   6.007  0.0731 -0.5921 -0.2306
  931SOL     OW 8807   3.002   5.746   0.791  0.2901  0.3051  0.1325
  931SOL    HW1 8808   3.037   5.820   0.733 -0.1845  0.5899  0.2079
  931SOL    HW2 8809   2.916   5.774   0.832 -0.3337 -0.6110 -0.5087
  932SOL     OW 8810   1.609   2.860   0.239 -0.0033 -0.1136 -0.0497
  932SOL    HW1 8811   1.612   2.941   0.180  0.1450  0.5512  0.8388
  932SOL    HW2 8812   1.594   2.779   0.184 -0.4267  0.5502 -0.9379
  933SOL     OW 8813   2.319   0.011   5.836 -0.5171 -0.3019  0.0352
  933SOL    HW1 8814   2.317   0.102   5.795 -1.2295 -0.1470  0.4024
  933SOL    HW2 8815   2.373   0.014   5.921 -1.2378 -0.0224  0.4944
  934SOL     OW 8816   4.284   5.485   0.256  0.0912  0.9374  0.4994
  934SOL    HW1 8817   4.333   5.456   0.173 -0.8315  1.6439 -0.3143
  934SOL    HW2 8818   4.189   5.454   0.251 -0.4387  2.4963  0.4523
  935SOL     OW 8819   4.158   0.054   0.381 -0.1038 -0.6246  0.0358
  935SOL    HW1 8820   4.113   0.046   0.470 -1.4260 -0.4647 -0.6085
  935SOL    HW2 8821   4.257   0.046   0.394 -0.0838  1.4351  1.7860
  936SOL     OW 8822   2.798   1.664   0.478 -0.5163  0.0129 -0.0495
  936SOL    HW1 8823   2.788   1.606   0.397 -0.1809 -0.7341  0.4358
  936SOL    HW2 8824   2.881   1.720   0.468  0.7134 -1.6168  0.6984
  937SOL     OW 8825   2.345   0.776   5.735 -0.0855 -0.2209  0.3204
  937SOL    HW1 8826   2.273   0.803   5.799  1.3479  3.6929  0.5221
  937SOL    HW2 8827   2.417   0.728   5.785 -0.2769  0.2958  1.1082
  938SOL     OW 8828   1.686   1.157   5.257  0.2433  0.2114 -0.0447
  938SOL    HW1 8829   1.749   1.234   5.267  0.1939  0.3322 -0.5869
  938SOL    HW2 8830   1.664   1.146   5.160  0.7576 -0.8961 -0.0466
  939SOL     OW 8831   1.591   2.740   6.359  0.3663 -0.3201 -0.3565
  939SOL    HW1 8832   1.638   2.776   6.279  0.1672  0.2903 -0.2076
  939SOL    HW2 8833   1.505   2.789   6.372  0.0829 -0.8663 -0.1548
  940SOL     OW 8834   2.955   2.923   0.622 -0.4463  0.0966 -0.2585
  940SOL    HW1 8835   2.878   2.861   0.608  0.7776 -1.8140  0.9954
  940SOL    HW2 8836   2.972   2.934   0.720  2.1168 -1.2600 -0.4478
  941SOL     OW 8837   0.041   0.174   6.344  0.2053  0.1873  1.4405
  941SOL    HW1 8838   0.134   0.170   6.307 -0.2412  0.8500  0.1427
  941SOL    HW2 8839   0.044   0.196   6.441  1.4197 -0.7370  1.6347
  942SOL     OW 8840   5.093   6.133   1.439  0.4060 -0.3713 -0.2624
  942SOL    HW1 8841   5.017   6.147   1.503 -0.2550  1.4684 -1.3681
  942SOL    HW2 8842   5.169   6.089   1.487 -1.4261 -2.5824  0.8001
  943SOL     OW 8843   5.535   0.674   6.032 -0.1234  0.3657 -0.3957
  943SOL    HW1 8844   5.457   0.665   5.971 -0.1679  0.5658 -0.3710
  943SOL    HW2 8845   5.526   0.759   6.085 -1.9454 -1.4782  2.5071
  944SOL     OW 8846   3.057   1.724   4.971 -0.0311 -0.1250  0.3942
  944SOL    HW1 8847   3.041   1.711   4.873 -0.7642  0.1867  0.4599
  944SOL    HW2 8848   2.980   1.774   5.010  0.5148  0.2320  1.0301
  945SOL     OW 8849   0.941   1.635   0.420  0.2626  0.2319  0.1146
  945SOL    HW1 8850   0.869   1.700   0.395  1.2228  1.5843  0.7716
  945SOL    HW2 8851   0.930   1.551   0.366 -0.7381  1.0940 -1.0721
  946SOL     OW 8852   3.610   0.298   5.078  0.0642  0.2401 -0.1774
  946SOL    HW1 8853   3.702   0.277   5.045 -0.0324 -0.5224  0.0138
  946SOL    HW2 8854   3.552   0.326   5.001  0.5276  1.0049 -0.2538
  947SOL     OW 8855   6.242   1.070   1.229 -0.5734 -0.4288  0.3716
  947SOL    HW1 8856   6.341   1.087   1.237 -0.6250 -0.7519  2.0071
  947SOL    HW2 8857   6.225   0.972   1.233 -0.7914 -0.6415 -2.7469
  948SOL     OW 8858   2.024   2.997   0.572 -0.3647  0.0873  0.5848
  948SOL    HW1 8859   2.096   2.929   0.587  0.9589  1.5864  1.3027
  948SOL    HW2 8860   1.979   2.979   0.485  1.3712 -0.4874 -0.2358
  949SOL     OW 8861   0.873   5.331   5.368 -0.2192  0.5278 -0.1919
  949SOL    HW1 8862   0.810   5.254   5.358 -1.5478  1.0124  3.3249
  949SOL    HW2 8863   0.821   5.417   5.366  0.8385  1.1732 -0.7948
  950SOL     OW 8864   4.174   0.306   1.541  0.2593 -0.0187 -0.2581
  950SOL    HW1 8865   4.155   0.282   1.637 -1.0580  0.0255 -0.4886
  950SOL    HW2 8866   4.208   0.225   1.493 -0.4386 -0.4157 -0.0938
  951SOL     OW 8867   2.261   5.576   1.160  0.3759 -0.1184  0.4700
  951SOL    HW1 8868   2.325   5.504   1.186  0.9445  0.2415  0.0741
  951SOL    HW2 8869   2.306   5.665   1.165  0.0659  0.0892 -0.3304
  952SOL     OW 8870   3.769   1.548   0.721 -0.2250  0.7243 -0.3263
  952SOL    HW1 8871   3.730   1.588   0.804 -0.5921  1.4802 -0.8568
  952SOL    HW2 8872   3.710   1.475   0.688  0.2571 -0.0387  0.4328
  953SOL     OW 8873   4.920   1.538   6.207 -0.1224  0.1722 -0.0224
  953SOL    HW1 8874   4.826   1.563   6.181  0.6505  2.0393 -1.1906
  953SOL    HW2 8875   4.956   1.473   6.141 -0.8496 -1.2611  0.9282
  954SOL     OW 8876   4.703   3.840   0.645 -0.4532 -0.2119 -0.8463
  954SOL    HW1 8877   4.699   3.799   0.735 -0.2022  0.7937 -0.3610
  954SOL    HW2 8878   4.669   3.775   0.577  0.3468 -1.3674 -0.1827
  955SOL     OW 8879   6.092   0.345   6.090  0.1960 -0.4190 -0.1690
  955SOL    HW1 8880   6.132   0.404   6.020 -1.5073  0.7514 -0.2209
  955SOL    HW2 8881   6.126   0.372   6.180  0.4407 -0.2377 -0.3147
  956SOL     OW 8882   0.452   0.359   0.631  0.6509 -0.0033  0.0478
  956SOL    HW1 8883   0.363   0.326   0.602  0.7281 -1.3567  1.2415
  956SOL    HW2 8884   0.455   0.458   0.625 -1.3753  0.1672  1.1667
  957SOL     OW 8885   2.751   5.092   6.656  0.2677  0.0678  0.4027
  957SOL    HW1 8886   2.830   5.142   6.695 -0.5250  1.2500  0.5543
  957SOL    HW2 8887   2.684   5.158   6.621 -0.7496 -0.9120  0.4525
  958SOL     OW 8888   1.795   6.021   0.320 -0.5585 -0.4756  0.2812
  958SOL    HW1 8889   1.775   6.020   0.222  0.6692 -1.0694  0.0156
  958SOL    HW2 8890   1.763   5.935   0.362  1.3410 -1.4628 -0.1595
  959SOL     OW 8891   4.530   3.160   0.404  0.7855  0.2280  0.3587
  959SOL    HW1 8892   4.560   3.204   0.320 -0.2781  2.3291  1.0169
  959SOL    HW2 8893   4.605   3.158   0.470  0.8581  1.0151  0.3000
  960SOL     OW 8894   0.337   1.770   0.195 -0.4514 -0.7179  0.5548
  960SOL    HW1 8895   0.380   1.680   0.196 -0.3467 -0.6799 -0.1651
  960SOL    HW2 8896   0.406   1.840   0.213  0.1205 -0.5388 -2.0099
  961SOL     OW 8897   1.084   2.449   6.391  0.2009 -0.4315 -0.0422
  961SOL    HW1 8898   1.018   2.455   6.316 -0.7215  2.1849  0.8694
  961SOL    HW2 8899   1.175   2.468   6.356 -0.1019 -0.0660 -0.6531
  962SOL     OW 8900   3.208   3.966   5.676 -0.3416  0.2139  0.3932
  962SOL    HW1 8901   3.289   4.013   5.642 -0.9302  0.9648 -0.0057
  962SOL    HW2 8902   3.236   3.893   5.738  0.6068  1.2965  1.3085
  963SOL     OW 8903   4.815   3.235   0.570 -0.2483 -0.2388 -0.0256
  963SOL    HW1 8904   4.775   3.326   0.559 -2.8313 -1.5618 -3.2047
  963SOL    HW2 8905   4.907   3.235   0.531 -0.0970  1.0435  0.2730
  964SOL     OW 8906   0.635   0.020   6.670 -0.5174 -0.3590 -0.0472
  964SOL    HW1 8907   0.725   0.064   6.669 -0.7723  0.1720 -1.1642
  964SOL    HW2 8908   0.617  -0.016   6.762 -0.9488  3.2648  1.4606
  965SOL     OW 8909   0.476   0.164   5.824 -0.5157  0.1723 -0.0799
  965SOL    HW1 8910   0.438   0.099   5.757  1.5696 -0.9089 -0.2802
  965SOL    HW2 8911   0.400   0.208   5.872 -2.0500 -2.1781 -0.1395
  966SOL     OW 8912   3.532   1.410   1.022 -0.4253  0.0802 -0.2120
  966SOL    HW1 8913   3.600   1.353   1.069 -1.1634  0.6970  1.7255
  966SOL    HW2 8914   3.440   1.377   1.044 -0.7947  0.1325 -1.6205
  967SOL     OW 8915   1.341   5.261   0.632 -0.1650 -0.5054 -0.3406
  967SOL    HW1 8916   1.277   5.222   0.566  0.4185 -1.7632 -0.1910
  967SOL    HW2 8917   1.317   5.229   0.724  0.1413 -0.2604 -0.1727
  968SOL     OW 8918   5.057   2.297   5.940 -0.0875 -0.3098  0.2064
  968SOL    HW1 8919   4.967   2.286   5.984  0.0552  0.2645  0.6453
  968SOL    HW2 8920   5.125   2.242   5.989 -0.1967 -0.7553 -0.1343
  969SOL     OW 8921   4.786   5.723   0.538  0.1843  0.1531  0.6840
  969SOL    HW1 8922   4.702   5.670   0.525  0.4721  0.2981 -2.5803
  969SOL    HW2 8923   4.767   5.820   0.522  0.7700  0.3298  1.0180
  970SOL     OW 8924   2.903   3.367   0.165  0.4367 -0.3416  0.4012
  970SOL    HW1 8925   2.831   3.433   0.144  0.1035 -0.6653  0.5113
  970SOL    HW2 8926   2.866   3.274   0.159  0.8212 -0.5080  0.5519
  971SOL     OW 8927   3.566   4.451   0.059 -0.3263  0.2297 -0.1590
  971SOL    HW1 8928   3.567   4.522  -0.011 -0.5631  0.7926  0.4023
  971SOL    HW2 8929   3.659   4.436   0.093 -0.6036  2.3649  1.7862
  972SOL     OW 8930   0.409   4.120   0.415 -0.0697 -0.3958 -0.1713
  972SOL    HW1 8931   0.339   4.060   0.454 -0.0658  0.8717  1.9991
  972SOL    HW2 8932   0.396   4.213   0.451 -0.0149  0.9452 -3.2921
  973SOL     OW 8933   5.944   3.926   1.151  0.4954  0.2012  0.1414
  973SOL    HW1 8934   5.910   3.834   1.170 -0.3794  0.6474  0.8302
  973SOL    HW2 8935   5.883   3.971   1.086 -1.0954  1.4768  2.3833
  974SOL     OW 8936   5.068   1.159   6.663 -0.8524 -0.3723  0.0534
  974SOL    HW1 8937   4.973   1.127   6.673 -0.7740 -0.5087  0.3821
  974SOL    HW2 8938   5.118   1.140   6.747 -0.7364  0.4056  0.1658
  975SOL     OW 8939   3.173   2.852   6.135  0.1995  0.4253  0.1502
  975SOL    HW1 8940   3.172   2.769   6.080 -0.0483  0.7534 -0.3452
  975SOL    HW2 8941   3.168   2.828   6.232 -0.7747 -0.0977 -0.0250
  976SOL     OW 8942   5.205   3.605   6.223  0.0351 -0.1197  0.0849
  976SOL    HW1 8943   5.106   3.604   6.215 -0.0841 -2.4666  1.0224
  976SOL    HW2 8944   5.236   3.697   6.248 -1.9209  0.5485  0.2140
  977SOL     OW 8945   0.509   5.434   6.434  0.0828 -0.5581  0.1247
  977SOL    HW1 8946   0.449   5.419   6.355  0.9835 -2.8177 -0.2092
  977SOL    HW2 8947   0.474   5.511   6.487 -1.1707  0.3473 -1.8582
  978SOL     OW 8948   3.317   5.247   0.918  0.4875  0.1152 -0.3660
  978SOL    HW1 8949   3.348   5.172   0.859  0.7464 -0.3318  0.3223
  978SOL    HW2 8950   3.259   5.210   0.990 -0.2498  0.7283 -0.6343
  979SOL     OW 8951   1.152   4.051   5.315 -0.2170 -0.3787  0.2318
  979SOL    HW1 8952   1.117   4.101   5.236 -0.8054 -0.0541  0.6870
  979SOL    HW2 8953   1.244   4.084   5.337 -0.0884 -0.4078 -0.2616
  980SOL     OW 8954   5.988   1.903   6.681  0.0366  0.3381 -0.2307
  980SOL    HW1 8955   5.964   1.845   6.603  2.0869  0.2921 -0.8995
  980SOL    HW2 8956   5.966   1.998   6.661 -5.1029 -0.1775  1.5831
  981SOL     OW 8957   4.480   3.859   6.537 -0.8312 -0.3457  0.1882
  981SOL    HW1 8958   4.472   3.932   6.605 -0.2931  1.1990 -1.3430
  981SOL    HW2 8959   4.554   3.881   6.474 -1.0836 -1.9231 -0.6991
  982SOL     OW 8960   0.059   6.229   1.152 -0.1642  0.9311  0.3026
  982SOL    HW1 8961   0.136   6.292   1.156  0.9030 -0.3287  0.0867
  982SOL    HW2 8962   0.066   6.162   1.226 -0.8391  0.5698  0.0473
  983SOL     OW 8963   0.487   5.943   1.121  0.3190  0.1224  0.6079
  983SOL    HW1 8964   0.573   5.911   1.161 -0.0104  1.2029  2.2844
  983SOL    HW2 8965   0.482   6.042   1.130 -1.3324  0.0262  1.0232
  984SOL     OW 8966   5.314   5.631   6.230  0.2278  0.1022 -0.9344
  984SOL    HW1 8967   5.391   5.654   6.288 -0.1413  0.4187 -0.5707
  984SOL    HW2 8968   5.323   5.536   6.199 -0.4906 -0.6948  1.1175
  985SOL     OW 8969   3.745   3.419   0.865 -0.3284  0.2482  0.2993
  985SOL    HW1 8970   3.691   3.499   0.838  0.0987  0.4337 -0.0368
  985SOL    HW2 8971   3.749   3.354   0.789  1.2872  0.9938 -0.3219
  986SOL     OW 8972   1.604   1.692   5.645  0.2253 -0.2227 -0.2101
  986SOL    HW1 8973   1.691   1.725   5.682  0.1408  0.0625 -0.2611
  986SOL    HW2 8974   1.574   1.612   5.696  0.6254 -0.4546 -0.3319
  987SOL     OW 8975   2.604   5.763   0.629  0.0975 -0.3346 -0.4698
  987SOL    HW1 8976   2.589   5.664   0.632 -2.3541 -0.0113  0.1936
  987SOL    HW2 8977   2.547   5.803   0.558  0.6802  0.6780 -0.3853
  988SOL     OW 8978   0.234   1.516   0.402 -0.3007 -0.2934  0.5734
  988SOL    HW1 8979   0.231   1.440   0.338 -3.7980 -1.0481  1.4409
  988SOL    HW2 8980   0.281   1.593   0.360 -0.8416 -1.3638 -2.1977
  989SOL     OW 8981   1.260   4.642   5.605 -0.0467  0.7677 -0.2544
  989SOL    HW1 8982   1.279   4.652   5.703  1.0827  1.6380 -0.5350
  989SOL    HW2 8983   1.346   4.626   5.556 -0.8755 -3.2779 -0.7633
  990SOL     OW 8984   4.855   1.830   0.241 -0.9232 -0.2725 -0.3617
  990SOL    HW1 8985   4.798   1.766   0.293  1.3070 -0.7386  1.7039
  990SOL    HW2 8986   4.877   1.909   0.299 -0.5214  0.5152 -1.5585
  991SOL     OW 8987   0.912   6.225   1.584 -0.4996 -0.3341 -0.0424
  991SOL    HW1 8988   1.011   6.217   1.593 -0.4782 -0.1220 -0.0863
  991SOL    HW2 8989   0.881   6.311   1.626 -0.5811 -0.0664 -0.6331
  992SOL     OW 8990   0.413   0.984   6.241 -0.8034 -0.1956 -0.4098
  992SOL    HW1 8991   0.319   0.986   6.276 -1.4914  1.3155 -2.1743
  992SOL    HW2 8992   0.423   0.910   6.175 -0.4077 -1.0542  0.5882
  993SOL     OW 8993   2.160   3.126   1.462 -0.2793 -0.2168  0.1749
  993SOL    HW1 8994   2.244   3.156   1.417 -0.4210 -1.2873 -0.8407
  993SOL    HW2 8995   2.087   3.193   1.443  0.2364  0.5358  0.7783
  994SOL     OW 8996   5.462   3.897   0.985  0.5902  0.2059  1.2069
  994SOL    HW1 8997   5.490   3.871   0.893  0.7614 -0.6457  1.4955
  994SOL    HW2 8998   5.529   3.961   1.024 -0.5262  2.2415 -0.0158
  995SOL     OW 8999   6.206   5.652   5.557 -0.3780 -0.4912  0.5358
  995SOL    HW1 9000   6.168   5.743   5.540 -1.6480 -0.4613  3.0691
  995SOL    HW2 9001   6.147   5.584   5.513 -0.7439 -0.2074  0.5765
  996SOL     OW 9002   4.368   2.873   0.839 -0.2289 -0.2947 -0.2135
  996SOL    HW1 9003   4.407   2.947   0.785 -0.2908  0.0044  0.1458
  996SOL    HW2 9004   4.287   2.905   0.888 -0.4783 -0.7033 -0.3485
  997SOL     OW 9005   3.564   0.522   6.593  0.1027 -0.6182 -0.0331
  997SOL    HW1 9006   3.536   0.431   6.562  1.2982 -0.7088 -0.9454
  997SOL    HW2 9007   3.657   0.541   6.559 -0.1121  0.9252  0.1815
  998SOL     OW 9008   4.279   1.424   0.535  0.1951 -0.1969 -0.8008
  998SOL    HW1 9009   4.282   1.411   0.634 -1.8710  0.1066 -0.6624
  998SOL    HW2 9010   4.318   1.344   0.490 -1.2630 -1.5618  0.2464
  999SOL     OW 9011   0.311   3.611   0.522 -0.5513 -0.5244  0.3976
  999SOL    HW1 9012   0.373   3.644   0.451  0.7247 -1.8272  0.8560
  999SOL    HW2 9013   0.273   3.688   0.572  0.0055  0.3354 -0.4694
 1000SOL     OW 9014   2.187   4.042   0.169  0.1439  0.2817 -0.0483
 1000SOL    HW1 9015   2.218   4.018   0.261  0.5271  1.1755  0.0728
 1000SOL    HW2 9016   2.226   3.979   0.103  0.6921  0.2499  0.2994
 1001SOL     OW 9017   1.531   3.176   1.397  0.2559  0.4400  0.2050
 1001SOL    HW1 9018   1.521   3.078   1.377  0.1593  0.5725 -0.3903
 1001SOL    HW2 9019   1.478   3.198   1.479 -0.2264  0.1201 -0.0152
 1002SOL     OW 9020   3.714   2.745   0.317 -0.3098 -0.1129 -0.4074
 1002SOL    HW1 9021   3.672   2.725   0.406  0.2875  0.0901 -0.0766
 1002SOL    HW2 9022   3.780   2.673   0.295 -0.1555  0.0552 -0.4948
 1003SOL     OW 9023   3.926   0.749   0.336  0.3387 -0.3222 -0.0685
 1003SOL    HW1 9024   3.888   0.732   0.427 -1.0664  3.3135  0.1811
 1003SOL    HW2 9025   3.852   0.744   0.268  1.2733 -2.4082 -1.0255
 1004SOL     OW 9026   1.154   4.258   1.298  0.4424 -0.4098  0.1947
 1004SOL    HW1 9027   1.226   4.252   1.367  1.3289 -3.2601 -0.8254
 1004SOL    HW2 9028   1.089   4.182   1.311 -0.5380  0.2133 -0.8820
 1005SOL     OW 9029   6.242   3.116   5.510 -0.2043  0.2548  0.3241
 1005SOL    HW1 9030   6.341   3.128   5.509 -0.3948  2.2088 -1.5323
 1005SOL    HW2 9031   6.214   3.061   5.432 -0.6539  0.3078  0.4458
 1006SOL     OW 9032   3.342   2.776   0.133  0.2264 -0.2701 -0.1926
 1006SOL    HW1 9033   3.305   2.745   0.221  0.1330 -0.2714 -0.2318
 1006SOL    HW2 9034   3.270   2.770   0.063  0.5786 -1.2106 -0.4855
 1007SOL     OW 9035   4.655   5.522   5.291 -0.4937 -0.6953  0.3162
 1007SOL    HW1 9036   4.619   5.585   5.222  1.0723  1.0812  1.0346
 1007SOL    HW2 9037   4.720   5.459   5.248  2.3152  1.9225  0.3957
 1008SOL     OW 9038   5.316   2.400   1.096 -0.6130  0.0561  0.2028
 1008SOL    HW1 9039   5.402   2.423   1.142 -0.8334 -0.7586  1.0585
 1008SOL    HW2 9040   5.287   2.308   1.123 -1.2752 -0.0500 -0.8087
 1009SOL     OW 9041   5.924   0.313   6.461  0.4588 -0.4912 -0.1319
 1009SOL    HW1 9042   5.942   0.247   6.388 -0.7665 -0.7239 -0.2346
 1009SOL    HW2 9043   5.830   0.303   6.494  0.7842  0.0622  1.0261
 1010SOL     OW 9044   6.022   6.151   6.160  0.0962 -0.2723  0.2986
 1010SOL    HW1 9045   6.039   6.094   6.079 -1.4036  2.3314 -2.0612
 1010SOL    HW2 9046   6.108   6.166   6.209  1.1425 -1.6944 -0.9908
 1011SOL     OW 9047   2.016   3.987   5.246  0.0731  0.3141  0.3603
 1011SOL    HW1 9048   1.973   4.075   5.266 -0.3022  0.4733 -1.0582
 1011SOL    HW2 9049   2.113   3.990   5.270  0.3680  1.5578 -0.8899
 1012SOL     OW 9050   2.389   2.167   5.754  1.0593  0.2948  0.2905
 1012SOL    HW1 9051   2.406   2.225   5.834 -0.8845  0.5275  0.6006
 1012SOL    HW2 9052   2.296   2.129   5.760  0.9066  0.2173 -1.7902
 1013SOL     OW 9053   0.730   0.444   5.207 -0.1003  0.1078  0.4689
 1013SOL    HW1 9054   0.783   0.388   5.143  1.0798 -1.5267  2.7336
 1013SOL    HW2 9055   0.638   0.457   5.171  0.7552 -0.0155 -1.9212
 1014SOL     OW 9056   3.807   1.000   0.912 -0.0041  0.4719  0.1948
 1014SOL    HW1 9057   3.898   1.038   0.891  0.3835 -0.2446  0.5615
 1014SOL    HW2 9058   3.738   1.050   0.859  0.6697  0.5839 -0.6081
 1015SOL     OW 9059   1.785   3.099   1.344  0.1907 -0.2826  0.7466
 1015SOL    HW1 9060   1.842   3.175   1.311  1.2190 -0.5933  1.7199
 1015SOL    HW2 9061   1.703   3.136   1.388  0.3352  0.2373  0.5930
 1016SOL     OW 9062   3.294   6.053   5.441 -0.3092  0.3411  0.1077
 1016SOL    HW1 9063   3.370   6.107   5.476 -1.3507  2.3225 -0.5655
 1016SOL    HW2 9064   3.318   5.956   5.444  1.8261  0.8458  0.8608
 1017SOL     OW 9065   2.963   1.452   1.072 -0.4858  0.1474 -0.1323
 1017SOL    HW1 9066   2.880   1.472   1.124 -0.8226  0.6949 -0.8655
 1017SOL    HW2 9067   3.035   1.422   1.134 -0.0447  3.2780  1.0133
 1018SOL     OW 9068   6.069   5.488   0.221  0.2154 -0.3343 -0.1376
 1018SOL    HW1 9069   6.100   5.452   0.309  1.2073 -0.5716 -0.5771
 1018SOL    HW2 9070   6.042   5.584   0.232  1.4633 -0.0089  0.1825
 1019SOL     OW 9071   2.557   5.269   6.536  0.1636  0.2525  0.6276
 1019SOL    HW1 9072   2.490   5.277   6.463 -1.7125 -0.2265  2.2168
 1019SOL    HW2 9073   2.601   5.357   6.552 -0.4559  0.7007 -0.1107
 1020SOL     OW 9074   2.077   2.576   0.530  0.8398  0.6163 -0.4435
 1020SOL    HW1 9075   2.061   2.619   0.618  1.5974  0.6356 -0.3099
 1020SOL    HW2 9076   2.162   2.522   0.533 -0.1455 -1.0110 -0.5563
 1021SOL     OW 9077   2.464   1.346   1.021 -0.3990 -0.2952  0.3774
 1021SOL    HW1 9078   2.535   1.345   1.091 -0.6286  1.2117  0.6523
 1021SOL    HW2 9079   2.502   1.314   0.935  0.5070  0.1012  0.6168
 1022SOL     OW 9080   6.156   6.191   0.434 -0.4227 -0.5437  0.1883
 1022SOL    HW1 9081   6.073   6.184   0.379 -0.2818 -1.3082  0.0493
 1022SOL    HW2 9082   6.214   6.111   0.416  0.2813 -0.0787  0.3780
 1023SOL     OW 9083   2.159   5.040   4.536 -0.3650  0.3226  0.4991
 1023SOL    HW1 9084   2.239   5.099   4.526  1.2548 -1.8483 -0.1884
 1023SOL    HW2 9085   2.132   5.006   4.446  1.4647 -3.2724  1.1294
 1024SOL     OW 9086   3.027   0.813   5.526 -0.1532 -0.3573  0.3008
 1024SOL    HW1 9087   3.012   0.808   5.625  1.1209 -1.2694  0.4872
 1024SOL    HW2 9088   2.959   0.757   5.479 -1.3602  0.8481  0.5756
 1025SOL     OW 9089   2.544   3.908   6.643  0.4076  0.4705  0.0607
 1025SOL    HW1 9090   2.536   3.972   6.567  0.5561 -0.7749 -1.0359
 1025SOL    HW2 9091   2.640   3.901   6.670  0.4796  0.2012 -0.2661
 1026SOL     OW 9092   3.059   1.165   6.279 -0.2581 -0.1712  0.1330
 1026SOL    HW1 9093   2.984   1.179   6.344 -1.5679  0.0792 -1.3495
 1026SOL    HW2 9094   3.086   1.069   6.279 -1.0969 -0.4158  0.1846
 1027SOL     OW 9095   3.169   0.673   5.265 -0.6576 -0.1117 -0.3781
 1027SOL    HW1 9096   3.243   0.673   5.332 -0.5752 -1.3769 -0.4345
 1027SOL    HW2 9097   3.169   0.758   5.214  1.6200 -0.6014 -1.2919
 1028SOL     OW 9098   6.154   0.792   0.676 -0.2153  0.3192 -0.1070
 1028SOL    HW1 9099   6.064   0.762   0.709  0.9841 -2.5282  0.8895
 1028SOL    HW2 9100   6.171   0.886   0.705 -2.7198  0.8373 -0.0943
 1029SOL     OW 9101   2.461   6.238   4.990  0.4763  0.0262  0.3602
 1029SOL    HW1 9102   2.517   6.210   4.911  0.9242  0.6432  0.4538
 1029SOL    HW2 9103   2.378   6.283   4.958  0.7110  0.3769  0.2342
 1030SOL     OW 9104   2.787   1.620   5.465  0.1399 -0.3017  0.7922
 1030SOL    HW1 9105   2.809   1.716   5.485  1.2362 -0.3192 -0.1837
 1030SOL    HW2 9106   2.706   1.616   5.407  2.1148  0.3195 -2.2046
 1031SOL     OW 9107   5.286   4.741   0.810  0.5445  0.4088  0.3955
 1031SOL    HW1 9108   5.207   4.681   0.815  0.5245  0.3368 -0.6224
 1031SOL    HW2 9109   5.315   4.765   0.902  0.6300 -1.2585  0.8371
 1032SOL     OW 9110   2.174   4.362   1.549  0.4682 -0.2717  0.0915
 1032SOL    HW1 9111   2.253   4.363   1.489 -0.7138 -0.0149 -1.5107
 1032SOL    HW2 9112   2.182   4.436   1.617  1.3643  0.0414 -0.3524
 1033SOL     OW 9113   2.036   0.896   4.570 -0.4296  0.2160 -0.0473
 1033SOL    HW1 9114   2.004   0.889   4.475 -1.5876  2.6591  0.1028
 1033SOL    HW2 9115   2.135   0.912   4.571 -0.3349 -0.2827 -0.8075
 1034SOL     OW 9116   3.174   0.911   6.250 -0.1583  0.3547  0.2003
 1034SOL    HW1 9117   3.230   0.894   6.331  1.3589  1.7379 -0.5040
 1034SOL    HW2 9118   3.210   0.860   6.172 -0.0953  0.9439 -0.1655
 1035SOL     OW 9119   4.991   3.914   6.302  0.1473  0.1093  0.2338
 1035SOL    HW1 9120   4.899   3.907   6.339 -0.0565 -2.2682 -0.5323
 1035SOL    HW2 9121   4.994   3.870   6.212  1.9994  0.2299  0.1993
 1036SOL     OW 9122   5.335   4.703   5.965  0.5294 -0.3789  0.5137
 1036SOL    HW1 9123   5.309   4.613   5.930  1.6852 -0.2228 -0.8401
 1036SOL    HW2 9124   5.428   4.699   6.000  0.7673  0.4018 -0.0081
 1037SOL     OW 9125   2.024   0.918   0.810 -0.0852  0.2314 -0.3593
 1037SOL    HW1 9126   1.969   1.001   0.821 -0.7929 -0.3113  0.3340
 1037SOL    HW2 9127   2.043   0.878   0.899  0.4453 -0.2289 -0.6707
 1038SOL     OW 9128   2.670   0.491   5.994  0.0194  0.1434 -0.0896
 1038SOL    HW1 9129   2.611   0.566   5.962  0.6651  1.1173  0.9012
 1038SOL    HW2 9130   2.615   0.409   6.006 -1.2611  1.1383  1.2336
 1039SOL     OW 9131   0.034   3.741   1.646 -0.5594  0.4963 -0.8736
 1039SOL    HW1 9132   0.087   3.783   1.720 -2.1463 -0.9880  1.2527
 1039SOL    HW2 9133   0.080   3.657   1.616 -0.1248  0.8725 -1.2538
 1040SOL     OW 9134   4.393   5.201   0.357  0.0040  0.2973 -0.5975
 1040SOL    HW1 9135   4.340   5.283   0.334 -1.4242 -0.2237  0.6722
 1040SOL    HW2 9136   4.408   5.198   0.456  0.3445 -0.8032 -0.6755
 1041SOL     OW 9137   3.359   0.227   1.266  0.0493 -0.6988  0.0586
 1041SOL    HW1 9138   3.383   0.208   1.362 -0.2108 -0.0624  0.2580
 1041SOL    HW2 9139   3.319   0.145   1.225  0.5136 -1.0942  0.3811
 1042SOL     OW 9140   4.645   4.879   0.946 -0.8657 -0.3414 -0.2325
 1042SOL    HW1 9141   4.587   4.942   0.998  0.3686 -0.5029  1.4207
 1042SOL    HW2 9142   4.592   4.797   0.922 -1.0361 -1.1536  2.5132
 1043SOL     OW 9143   2.529   5.658   4.367  0.5024  0.2638 -0.4971
 1043SOL    HW1 9144   2.508   5.576   4.420 -0.7487 -0.1456 -1.5654
 1043SOL    HW2 9145   2.446   5.692   4.323  0.8962  2.4008  0.2917
 1044SOL     OW 9146   4.479   2.044   1.801 -0.0788  0.3408 -0.1166
 1044SOL    HW1 9147   4.412   1.997   1.858 -0.5142  1.3310  0.1999
 1044SOL    HW2 9148   4.566   1.993   1.804 -0.2998 -0.0139  0.8509
 1045SOL     OW 9149   3.873   3.177   5.143 -0.0386 -0.2806 -0.6394
 1045SOL    HW1 9150   3.928   3.260   5.145 -2.2714  1.3357 -1.9590
 1045SOL    HW2 9151   3.931   3.098   5.164  2.4176  1.4428 -0.5446
 1046SOL     OW 9152   5.456   5.493   1.224  0.2904 -0.2891 -0.1973
 1046SOL    HW1 9153   5.444   5.486   1.323 -0.1975  2.1158 -0.0323
 1046SOL    HW2 9154   5.398   5.426   1.179  0.5256 -1.4283  1.1328
 1047SOL     OW 9155   0.190   2.415   1.015 -0.1710 -0.4008  0.6117
 1047SOL    HW1 9156   0.281   2.380   1.038  0.1854  1.5262  2.4855
 1047SOL    HW2 9157   0.198   2.479   0.939  0.4022  1.0277  1.8025
 1048SOL     OW 9158   6.179   4.819   6.518  0.2404 -0.9823  0.1516
 1048SOL    HW1 9159   6.223   4.908   6.510 -3.2078  0.7792 -1.8019
 1048SOL    HW2 9160   6.087   4.831   6.556 -0.0234 -3.8624  0.6282
 1049SOL     OW 9161   3.639   5.277   0.148 -0.4346  0.2083 -0.0924
 1049SOL    HW1 9162   3.544   5.304   0.134 -0.1435  0.9783 -0.6732
 1049SOL    HW2 9163   3.669   5.218   0.073 -0.2639  0.5096 -0.2653
 1050SOL     OW 9164   5.604   0.239   5.749 -0.8217 -0.1303 -0.1547
 1050SOL    HW1 9165   5.549   0.294   5.687 -0.7208  0.3304  0.1602
 1050SOL    HW2 9166   5.545   0.172   5.795 -0.8819 -0.5182 -0.7903
 1051SOL     OW 9167   1.990   5.573   6.379 -0.2988 -0.3564 -0.1920
 1051SOL    HW1 9168   1.897   5.538   6.391  0.6474 -2.2600  2.6670
 1051SOL    HW2 9169   2.023   5.612   6.465  1.2810  1.0583 -1.3759
 1052SOL     OW 9170   5.938   5.325   6.238 -0.4844 -0.5012  0.1406
 1052SOL    HW1 9171   6.037   5.329   6.227 -0.3118 -0.0780  1.6085
 1052SOL    HW2 9172   5.894   5.335   6.149  0.7150  2.5660 -0.2173
 1053SOL     OW 9173   5.389   3.539   0.832  0.6115 -0.4186  0.3674
 1053SOL    HW1 9174   5.415   3.464   0.771  1.8877 -1.3865  2.0395
 1053SOL    HW2 9175   5.417   3.626   0.792 -0.8208 -0.7697 -1.5679
 1054SOL     OW 9176   3.475   1.100   6.661 -0.0552 -0.7489 -0.4213
 1054SOL    HW1 9177   3.419   1.182   6.672  0.3353 -0.3908 -1.0389
 1054SOL    HW2 9178   3.562   1.112   6.710 -0.3126 -1.1043  0.1258
 1055SOL     OW 9179   3.933   0.009   0.981 -0.2122 -0.3479 -0.1387
 1055SOL    HW1 9180   3.973  -0.025   1.066 -0.0116 -0.8712 -0.4390
 1055SOL    HW2 9181   3.924  -0.066   0.916  1.6593  0.3908 -1.3572
 1056SOL     OW 9182   5.218   5.403   1.061  0.6076 -0.0900 -0.0798
 1056SOL    HW1 9183   5.161   5.486   1.056 -1.6187 -1.5303  0.0071
 1056SOL    HW2 9184   5.225   5.363   0.969  0.0366 -0.8288  0.1920
 1057SOL     OW 9185   5.627   1.231   6.111  0.2305  0.5223  0.3559
 1057SOL    HW1 9186   5.676   1.298   6.055 -2.4701  0.1450 -2.7786
 1057SOL    HW2 9187   5.596   1.274   6.195  1.5154  2.1516  0.0568
 1058SOL     OW 9188   4.036   4.483   6.051 -0.1029 -0.0823 -0.7517
 1058SOL    HW1 9189   4.093   4.407   6.020  0.6990 -0.0848  0.6237
 1058SOL    HW2 9190   4.012   4.468   6.147  1.2966  2.0855  0.0092
 1059SOL     OW 9191   4.797   3.931   1.815 -0.3434 -0.6589  0.4312
 1059SOL    HW1 9192   4.815   3.850   1.871  0.8228 -1.7722 -1.4526
 1059SOL    HW2 9193   4.838   4.011   1.858  0.8657 -1.5547  1.0027
 1060SOL     OW 9194   4.192   6.123   0.075 -0.6112 -0.1318  0.1890
 1060SOL    HW1 9195   4.146   6.212   0.081 -0.3359 -0.0647  1.4874
 1060SOL    HW2 9196   4.195   6.094  -0.021 -1.7425  0.7008 -0.1222
 1061SOL     OW 9197   1.079   3.296   5.865  0.4926  0.8263 -0.0300
 1061SOL    HW1 9198   0.989   3.323   5.833 -0.0636 -0.7893  0.0860
 1061SOL    HW2 9199   1.145   3.368   5.845 -0.9110  2.2767  0.3845
 1062SOL     OW 9200   3.017   1.279   0.250 -0.1778 -0.2970  0.1828
 1062SOL    HW1 9201   3.006   1.186   0.284  1.5005 -0.3764  0.5716
 1062SOL    HW2 9202   3.100   1.319   0.288 -0.8744  1.3726  0.0314
 1063SOL     OW 9203   4.841   5.847   6.526 -0.0886  0.4286  0.6906
 1063SOL    HW1 9204   4.746   5.868   6.547 -0.4791  0.4822 -0.9889
 1063SOL    HW2 9205   4.894   5.932   6.524 -0.2699  0.5382  0.4574
 1064SOL     OW 9206   5.348   4.644   1.429 -0.8575 -0.3802 -0.6051
 1064SOL    HW1 9207   5.401   4.697   1.495  1.3351 -0.4663 -2.2068
 1064SOL    HW2 9208   5.318   4.558   1.472  2.5819 -1.5660 -0.3244
 1065SOL     OW 9209   4.228   1.437   5.544  0.0074  0.4490 -0.6419
 1065SOL    HW1 9210   4.134   1.450   5.575  0.4771  1.6514  0.3794
 1065SOL    HW2 9211   4.266   1.354   5.585 -0.6890 -0.2089 -1.3017
 1066SOL     OW 9212   5.459   0.550   1.487  0.3605 -0.4891  0.5462
 1066SOL    HW1 9213   5.458   0.457   1.451  1.1213 -1.1304  2.0648
 1066SOL    HW2 9214   5.410   0.552   1.574 -0.5462  0.7765  0.0342
 1067SOL     OW 9215   0.218   1.101   1.225 -0.1209  0.2572  0.3327
 1067SOL    HW1 9216   0.275   1.106   1.143 -0.4643 -0.7418  0.0293
 1067SOL    HW2 9217   0.269   1.055   1.298 -0.1335  0.3673  0.4113
 1068SOL     OW 9218   2.531   0.115   4.764 -0.4181 -0.7424  0.2298
 1068SOL    HW1 9219   2.592   0.082   4.692  0.4675  0.7823  0.2341
 1068SOL    HW2 9220   2.442   0.071   4.755  0.7570 -3.3412  0.4731
 1069SOL     OW 9221   1.904   0.894   0.004  0.0422 -0.4073 -0.7475
 1069SOL    HW1 9222   1.859   0.920   0.089  0.7740  0.7003 -0.6780
 1069SOL    HW2 9223   1.912   0.974  -0.056  2.9451 -0.2286 -0.2634
 1070SOL     OW 9224   0.656   4.341   0.956 -0.1713  0.4549 -0.2734
 1070SOL    HW1 9225   0.663   4.393   0.870  1.6991 -0.1133 -0.5021
 1070SOL    HW2 9226   0.747   4.311   0.985 -0.9839 -1.0361  0.8917
 1071SOL     OW 9227   2.313   0.313   0.183 -0.3868 -0.0918  0.3499
 1071SOL    HW1 9228   2.236   0.324   0.121 -1.1743 -2.1987  0.8645
 1071SOL    HW2 9229   2.374   0.242   0.148 -0.0725 -0.2790  1.2487
 1072SOL     OW 9230   3.069   1.463   6.432 -0.0917  0.3873 -0.3004
 1072SOL    HW1 9231   2.980   1.452   6.389 -0.4609 -0.7993  0.7110
 1072SOL    HW2 9232   3.138   1.482   6.361 -0.9851  0.4577 -1.1771
 1073SOL     OW 9233   1.659   2.686   0.471 -0.1671 -0.7607  0.1257
 1073SOL    HW1 9234   1.664   2.599   0.422 -0.6181  0.3517 -2.0151
 1073SOL    HW2 9235   1.620   2.756   0.411  2.2168  1.4641  0.9507
 1074SOL     OW 9236   1.294   1.418   5.848 -0.4913 -0.1560  0.3669
 1074SOL    HW1 9237   1.295   1.319   5.855  1.3962 -0.0618  2.0990
 1074SOL    HW2 9238   1.225   1.455   5.910  1.0334 -0.3102  2.2546
 1075SOL     OW 9239   5.074   1.043   5.864  0.1651 -0.4219  0.0208
 1075SOL    HW1 9240   5.099   1.107   5.791  2.1034 -1.0962  0.0353
 1075SOL    HW2 9241   5.152   1.030   5.925 -0.5033 -2.0424  0.5828
 1076SOL     OW 9242   2.785   0.840   5.898  0.0470 -0.1513 -0.7375
 1076SOL    HW1 9243   2.804   0.775   5.824 -0.6762 -0.8957 -0.2851
 1076SOL    HW2 9244   2.871   0.873   5.936  0.4619 -1.5824 -0.3574
 1077SOL     OW 9245   5.991   3.116   1.000  0.1709  0.0853  0.2474
 1077SOL    HW1 9246   5.936   3.165   1.068 -0.2804  0.7174 -0.5637
 1077SOL    HW2 9247   6.068   3.071   1.046  0.4054  1.2652  1.0488
 1078SOL     OW 9248   5.685   3.164   1.123 -0.4879 -0.0447 -0.1583
 1078SOL    HW1 9249   5.691   3.257   1.160  1.3733 -0.0182 -0.4353
 1078SOL    HW2 9250   5.649   3.103   1.194 -1.1826  0.7696  0.2176
 1079SOL     OW 9251   0.845   4.738   0.941  0.5905  0.3522 -0.1781
 1079SOL    HW1 9252   0.815   4.783   1.025 -1.1102 -3.4671  1.5464
 1079SOL    HW2 9253   0.927   4.683   0.961 -0.8714 -2.0457 -0.3431
 1080SOL     OW 9254   5.288   0.499   0.779 -0.0440  0.5660  0.4373
 1080SOL    HW1 9255   5.268   0.559   0.857 -0.2336 -1.0723  1.6945
 1080SOL    HW2 9256   5.281   0.404   0.808  3.2651 -0.1534 -0.7036
 1081SOL     OW 9257   1.523   3.513   6.003 -0.3577 -0.1863 -0.0866
 1081SOL    HW1 9258   1.519   3.449   6.080  2.3003  0.2266  0.4921
 1081SOL    HW2 9259   1.525   3.607   6.038 -2.5895  0.2001 -0.8628
 1082SOL     OW 9260   1.838   4.031   5.611 -0.4033  0.1347  0.3629
 1082SOL    HW1 9261   1.878   3.955   5.663 -0.6689  0.1827  0.6435
 1082SOL    HW2 9262   1.838   4.113   5.668  0.0215  0.3854  0.0082
 1083SOL     OW 9263   1.915   4.442   0.941  0.0484  0.0275  0.1182
 1083SOL    HW1 9264   1.992   4.382   0.921 -0.0170  0.6915 -2.4450
 1083SOL    HW2 9265   1.839   4.420   0.880 -1.3746  0.2568  1.7102
 1084SOL     OW 9266   0.317   3.279   5.964 -0.4246 -0.0280 -0.0528
 1084SOL    HW1 9267   0.356   3.234   5.884  0.4444  0.1964  0.2327
 1084SOL    HW2 9268   0.336   3.224   6.046  2.2997  1.6641  0.5847
 1085SOL     OW 9269   0.763   5.385   6.081  0.0269  0.3017 -0.1153
 1085SOL    HW1 9270   0.765   5.482   6.103 -2.2121  0.3153  0.2336
 1085SOL    HW2 9271   0.694   5.368   6.011  0.0964 -1.1016  0.1230
 1086SOL     OW 9272   4.722   0.287   6.025 -0.8463 -0.1849  0.8556
 1086SOL    HW1 9273   4.807   0.340   6.024 -0.2753 -1.0786  0.9391
 1086SOL    HW2 9274   4.657   0.327   6.090 -0.1965  0.0576  1.3584
 1087SOL     OW 9275   6.201   5.389   6.190 -0.5603 -0.1171  0.8000
 1087SOL    HW1 9276   6.268   5.436   6.248 -1.5564  1.8406  0.4216
 1087SOL    HW2 9277   6.249   5.337   6.120  0.6148 -0.9744  2.1666
 1088SOL     OW 9278   2.572   3.353   6.564 -0.0921  0.5939  0.5115
 1088SOL    HW1 9279   2.615   3.269   6.594  0.5498  1.3281  1.7361
 1088SOL    HW2 9280   2.482   3.362   6.608  0.8362  1.6555  2.3236
 1089SOL     OW 9281   5.647   6.135   5.459 -0.4164 -0.7593  0.0830
 1089SOL    HW1 9282   5.618   6.115   5.365  1.0782  0.1156 -0.6068
 1089SOL    HW2 9283   5.701   6.220   5.460  1.4388 -1.8702  1.3638
 1090SOL     OW 9284   1.310   1.695   1.133  0.0213 -0.0651 -0.1694
 1090SOL    HW1 9285   1.212   1.683   1.117  0.1572 -0.5558 -0.6971
 1090SOL    HW2 9286   1.325   1.735   1.223 -0.7620  2.0104 -0.9054
 1091SOL     OW 9287   4.560   0.633   0.451 -0.1842 -0.0104 -0.5407
 1091SOL    HW1 9288   4.628   0.704   0.436  1.1521 -0.6609  2.0405
 1091SOL    HW2 9289   4.603   0.553   0.493 -2.3279 -0.8980  0.1130
 1092SOL     OW 9290   4.649   4.350   6.401 -0.1870  0.6783  0.6322
 1092SOL    HW1 9291   4.635   4.307   6.490  0.9506 -0.5166  0.2524
 1092SOL    HW2 9292   4.747   4.363   6.386 -0.4209  1.7122 -0.0695
 1093SOL     OW 9293   5.906   0.321   0.284 -0.4079 -0.4570 -0.5181
 1093SOL    HW1 9294   5.832   0.377   0.323 -1.0930 -1.5842 -0.1556
 1093SOL    HW2 9295   5.980   0.314   0.351 -0.4275 -0.1877 -0.4661
 1094SOL     OW 9296   4.739   5.916   5.324 -0.4151  0.6480 -0.2544
 1094SOL    HW1 9297   4.720   5.850   5.252  0.6111  0.7833 -0.6611
 1094SOL    HW2 9298   4.799   5.875   5.392  0.8722  1.3853 -0.9145
 1095SOL     OW 9299   4.979   3.167   0.797 -0.3164  0.2270 -0.2588
 1095SOL    HW1 9300   4.889   3.184   0.759 -0.2343 -0.2014 -0.6609
 1095SOL    HW2 9301   4.971   3.151   0.896 -0.6259  0.5985 -0.2244
 1096SOL     OW 9302   5.087   0.947   0.586 -0.2091 -0.3432 -0.2176
 1096SOL    HW1 9303   4.997   0.919   0.553 -0.1682 -0.9829  0.1962
 1096SOL    HW2 9304   5.156   0.881   0.555  0.3823  0.9761 -1.8973
 1097SOL     OW 9305   4.892   1.011   5.544 -0.5966 -0.6530  0.4291
 1097SOL    HW1 9306   4.905   1.082   5.475  0.6744  0.3247  1.6034
 1097SOL    HW2 9307   4.977   0.959   5.555 -0.2141  0.3067  2.3906
 1098SOL     OW 9308   2.118   5.829   6.185 -0.2634  0.1185  0.2652
 1098SOL    HW1 9309   2.051   5.757   6.205 -1.0566  1.2050  1.6453
 1098SOL    HW2 9310   2.196   5.820   6.247  0.5740 -0.6896 -0.8489
 1099SOL     OW 9311   1.527   4.141   4.834 -0.2458 -0.0358 -0.0592
 1099SOL    HW1 9312   1.603   4.095   4.881 -0.0527  0.4261  0.0826
 1099SOL    HW2 9313   1.549   4.150   4.737 -1.4902 -2.8259 -0.7185
 1100SOL     OW 9314   5.749   1.373   5.890  0.2722  0.3195 -0.1527
 1100SOL    HW1 9315   5.711   1.297   5.839 -0.2325  1.0698 -0.9198
 1100SOL    HW2 9316   5.765   1.450   5.828 -0.4005  1.2689  0.8265
 1101SOL     OW 9317   4.761   3.773   1.593  0.0395 -0.4222 -0.1088
 1101SOL    HW1 9318   4.839   3.710   1.590 -1.3588 -2.2686  0.4450
 1101SOL    HW2 9319   4.764   3.825   1.678 -0.6046 -2.2770  1.1083
 1102SOL     OW 9320   2.996   1.638   6.001 -0.1882 -0.3497 -0.2068
 1102SOL    HW1 9321   2.988   1.720   6.057 -0.7904 -0.5259 -0.0291
 1102SOL    HW2 9322   3.080   1.643   5.947 -0.3556  0.5050 -0.4014
 1103SOL     OW 9323   2.274   5.885   5.676  0.3245  0.2295 -0.6758
 1103SOL    HW1 9324   2.249   5.951   5.605  1.0890 -0.6809 -1.8270
 1103SOL    HW2 9325   2.339   5.819   5.639  0.8508 -0.2034  0.9211
 1104SOL     OW 9326   5.932   4.902   6.621  0.3276 -0.2397 -0.3683
 1104SOL    HW1 9327   5.876   4.826   6.653  0.6101 -0.3066 -0.0231
 1104SOL    HW2 9328   5.972   4.949   6.700 -0.0380  0.4120 -0.5680
 1105SOL     OW 9329   1.490   0.536   5.498  0.0080  0.3460 -0.7140
 1105SOL    HW1 9330   1.519   0.475   5.424 -1.9517 -0.3790 -0.9716
 1105SOL    HW2 9331   1.531   0.626   5.486  0.8686 -0.1768 -1.8598
 1106SOL     OW 9332   5.210   3.411   6.415 -0.1386  0.0867 -0.6235
 1106SOL    HW1 9333   5.115   3.398   6.445 -0.1059 -1.8324 -1.2037
 1106SOL    HW2 9334   5.212   3.464   6.331 -0.4869  2.2134  0.6312
 1107SOL     OW 9335   0.429   5.649   5.670  0.4323  0.1003 -0.6554
 1107SOL    HW1 9336   0.472   5.698   5.594 -1.3410  0.6616 -1.3434
 1107SOL    HW2 9337   0.347   5.601   5.638  0.6725 -1.1967  0.5433
 1108SOL     OW 9338   3.812   2.435   0.292  0.4202  0.6668  0.5146
 1108SOL    HW1 9339   3.884   2.494   0.256  0.1025  0.0291 -1.2736
 1108SOL    HW2 9340   3.793   2.362   0.226  0.8303 -1.4954  2.6323
 1109SOL     OW 9341   4.177   5.623   1.262 -0.1437  0.2340  0.9289
 1109SOL    HW1 9342   4.252   5.558   1.255 -0.1510  0.3373 -0.2985
 1109SOL    HW2 9343   4.115   5.612   1.184  0.4032  2.3719  0.1224
 1110SOL     OW 9344   0.014   4.153   6.189 -0.5833  0.0379 -0.1088
 1110SOL    HW1 9345  -0.028   4.087   6.252  1.8895 -0.9754  0.6026
 1110SOL    HW2 9346   0.055   4.104   6.112  1.1648  0.7183  0.3526
 1111SOL     OW 9347   0.617   4.295   6.578  0.0786  0.1435  0.0123
 1111SOL    HW1 9348   0.614   4.268   6.675  0.9507 -1.2457 -0.3139
 1111SOL    HW2 9349   0.579   4.387   6.568  3.5810  2.1162  2.3307
 1112SOL     OW 9350   4.200   4.145   6.400  0.3543  0.1705 -0.2820
 1112SOL    HW1 9351   4.125   4.199   6.440 -1.0750 -1.4089 -0.7099
 1112SOL    HW2 9352   4.223   4.182   6.310 -0.6627  0.0586 -0.6026
 1113SOL     OW 9353   1.205   1.550   6.105 -0.0871  0.0065 -0.2570
 1113SOL    HW1 9354   1.134   1.520   6.169 -1.2795  0.3914 -1.3541
 1113SOL    HW2 9355   1.218   1.649   6.113  2.1827 -0.3576  1.7136
 1114SOL     OW 9356   1.975   6.120   0.045 -0.5202 -0.1695 -0.4330
 1114SOL    HW1 9357   2.015   6.162   0.127  0.6329 -0.8680 -0.6156
 1114SOL    HW2 9358   2.048   6.091  -0.016 -1.3474 -0.7886 -1.1442
 1115SOL     OW 9359   5.518   2.971   0.511  0.3009 -0.5142 -0.0642
 1115SOL    HW1 9360   5.575   2.954   0.430  0.4334  1.1917 -0.3623
 1115SOL    HW2 9361   5.575   3.005   0.585 -0.3744  1.9625 -0.6078
 1116SOL     OW 9362   5.450   1.339   6.320  0.8082 -0.1497  0.7065
 1116SOL    HW1 9363   5.393   1.391   6.384  0.9273  1.5049 -0.4786
 1116SOL    HW2 9364   5.417   1.245   6.315 -0.9418  0.4101  1.1039
 1117SOL     OW 9365   2.382   4.579   1.534 -0.2126 -0.3668  0.0822
 1117SOL    HW1 9366   2.341   4.546   1.619 -0.1952 -0.4744  0.0487
 1117SOL    HW2 9367   2.480   4.595   1.548 -0.0623 -1.0716 -0.1129
 1118SOL     OW 9368   4.770   2.138   1.193  0.0713  0.1552  0.5630
 1118SOL    HW1 9369   4.759   2.235   1.171  3.0382  0.1247 -1.7296
 1118SOL    HW2 9370   4.847   2.127   1.255 -0.8105 -0.7122  1.5310
 1119SOL     OW 9371   1.614   3.232   0.193 -0.8306  0.6206  0.3046
 1119SOL    HW1 9372   1.527   3.266   0.229 -1.5902 -2.0490  1.1715
 1119SOL    HW2 9373   1.596   3.167   0.119  0.3952 -0.2736  0.7693
 1120SOL     OW 9374   2.784   6.119   5.563 -0.1153 -0.3461  0.1041
 1120SOL    HW1 9375   2.745   6.139   5.653 -2.0076  1.5433 -1.0454
 1120SOL    HW2 9376   2.717   6.069   5.509  0.3860 -0.0449 -0.8037
 1121SOL     OW 9377   5.882   0.800   0.708 -0.1325  0.0632 -0.2717
 1121SOL    HW1 9378   5.845   0.745   0.783 -0.7137  0.4127 -0.3012
 1121SOL    HW2 9379   5.823   0.878   0.691  0.1474  0.1441 -0.9104
 1122SOL     OW 9380   0.537   2.131   5.264 -0.6419  0.0700 -0.1928
 1122SOL    HW1 9381   0.482   2.210   5.236 -2.4502 -0.7031  0.9871
 1122SOL    HW2 9382   0.633   2.148   5.243 -1.3071  1.3970 -2.5767
 1123SOL     OW 9383   1.908   0.510   0.934  0.7033  0.6010  0.4670
 1123SOL    HW1 9384   1.924   0.598   0.978 -1.1777  1.9496 -1.3340
 1123SOL    HW2 9385   1.882   0.525   0.839  2.2003 -2.0455 -0.4535
 1124SOL     OW 9386   0.712   2.402   6.537  0.6893 -0.0440  0.0894
 1124SOL    HW1 9387   0.679   2.489   6.500  0.1622  0.0740  0.8148
 1124SOL    HW2 9388   0.754   2.348   6.464  0.4221  0.5377 -0.4999
 1125SOL     OW 9389   2.023   3.152   1.020  0.9527 -0.1421  0.5967
 1125SOL    HW1 9390   1.949   3.218   1.035  2.2523  0.9929  2.3616
 1125SOL    HW2 9391   2.110   3.191   1.050  2.4819 -1.1150 -2.1878
 1126SOL     OW 9392   0.231   1.273   0.225 -0.2426 -0.1613 -0.3237
 1126SOL    HW1 9393   0.224   1.205   0.298 -0.9543 -2.5070 -2.4454
 1126SOL    HW2 9394   0.325   1.274   0.189 -0.9027 -2.3457 -2.2970
 1127SOL     OW 9395   1.659   3.173   5.364 -0.4343  0.6983 -0.2307
 1127SOL    HW1 9396   1.715   3.096   5.334 -2.9595 -1.2065 -0.3616
 1127SOL    HW2 9397   1.665   3.248   5.298  1.7542  0.5094 -0.3025
 1128SOL     OW 9398   2.822   0.851   0.018 -0.2970  0.0411  0.1857
 1128SOL    HW1 9399   2.784   0.876   0.108 -2.0958 -1.0739 -0.2233
 1128SOL    HW2 9400   2.848   0.754   0.019 -0.4073  0.0027 -0.5155
 1129SOL     OW 9401   3.825   3.144   6.510 -0.2477  0.2555 -0.8582
 1129SOL    HW1 9402   3.908   3.090   6.525  0.4200  1.0410 -1.6341
 1129SOL    HW2 9403   3.786   3.122   6.420  1.5032  2.8796 -2.3742
 1130SOL     OW 9404   3.454   4.267   0.240  0.3200 -0.4073  0.0365
 1130SOL    HW1 9405   3.499   4.329   0.175  1.3643 -1.1652  0.0107
 1130SOL    HW2 9406   3.358   4.255   0.213  0.5074 -0.0247 -0.8565
 1131SOL     OW 9407   5.413   0.123   5.930  1.0535  0.1740  0.3143
 1131SOL    HW1 9408   5.461   0.081   6.007 -1.3816 -1.7923  0.8899
 1131SOL    HW2 9409   5.334   0.174   5.963 -0.8689 -1.8518 -0.8016
 1132SOL     OW 9410   2.974   2.448   5.458  0.1376  0.5411  0.0775
 1132SOL    HW1 9411   2.904   2.378   5.473  1.9632 -1.6949 -1.2578
 1132SOL    HW2 9412   2.951   2.500   5.376 -0.6593  0.7889  0.4472
 1133SOL     OW 9413   4.494   3.335   6.254  0.2033 -0.0793  0.0721
 1133SOL    HW1 9414   4.573   3.332   6.193 -0.3834  2.7502 -0.9639
 1133SOL    HW2 9415   4.480   3.245   6.295  2.0653 -1.4548 -2.1047
 1134SOL     OW 9416   3.471   1.640   5.281  0.0596  0.1810  1.0594
 1134SOL    HW1 9417   3.494   1.718   5.223 -0.5015  0.7159  1.5478
 1134SOL    HW2 9418   3.395   1.590   5.240  0.4010 -0.1007  0.7605
 1135SOL     OW 9419   4.638   6.236   0.168 -0.0099 -0.1951 -0.0881
 1135SOL    HW1 9420   4.595   6.325   0.149  1.1557  0.3645 -0.1792
 1135SOL    HW2 9421   4.567   6.170   0.192 -0.9143  0.7221 -0.1427
 1136SOL     OW 9422   2.108   4.463   4.708 -0.1369 -0.2685  0.2203
 1136SOL    HW1 9423   2.203   4.478   4.679 -0.8299  0.4477 -1.9093
 1136SOL    HW2 9424   2.090   4.515   4.791  1.1906 -0.0300  0.3903
 1137SOL     OW 9425   1.853   3.760   0.287 -0.2069  0.1753  0.3930
 1137SOL    HW1 9426   1.846   3.662   0.271 -0.7753 -0.1124  2.1689
 1137SOL    HW2 9427   1.945   3.783   0.319  0.0355  0.3003 -0.3623
 1138SOL     OW 9428   0.783   2.404   0.119 -0.0417  0.5412  0.0039
 1138SOL    HW1 9429   0.700   2.394   0.174 -1.7028  3.0231 -1.8058
 1138SOL    HW2 9430   0.760   2.397   0.022  1.9017  1.1984 -0.5512
 1139SOL     OW 9431   3.691   4.174   6.640 -0.1406 -0.0802  0.8837
 1139SOL    HW1 9432   3.640   4.122   6.708 -0.9390 -0.1442  0.2529
 1139SOL    HW2 9433   3.697   4.121   6.555 -0.4586  0.5969  0.4258
 1140SOL     OW 9434   4.735   5.970   0.419 -0.0748  0.0047 -0.1457
 1140SOL    HW1 9435   4.761   6.048   0.476  0.1127  0.1401 -0.4172
 1140SOL    HW2 9436   4.640   5.946   0.439  0.3224 -0.6595  1.0375
 1141SOL     OW 9437   2.020   5.042   0.056 -0.2657 -0.5490  0.1800
 1141SOL    HW1 9438   1.990   5.003   0.143  0.0679 -0.8238  0.1753
 1141SOL    HW2 9439   2.087   4.981   0.014  0.0135 -0.1328  0.0115
 1142SOL     OW 9440   4.456   5.925   0.495 -0.5427 -0.2951  0.3507
 1142SOL    HW1 9441   4.391   6.001   0.495 -1.0127 -0.6857  0.6946
 1142SOL    HW2 9442   4.422   5.853   0.434 -0.2585 -0.3569  0.2666
 1143SOL     OW 9443   5.561   2.487   6.480 -0.3303  0.1977  0.0829
 1143SOL    HW1 9444   5.499   2.565   6.489  0.6915  0.8161  2.6070
 1143SOL    HW2 9445   5.579   2.449   6.570 -1.7212 -3.7987 -1.0914
 1144SOL     OW 9446   2.090   3.663   6.044 -0.0223  0.6978 -0.0785
 1144SOL    HW1 9447   2.067   3.755   6.076 -2.0009  0.6352 -1.1937
 1144SOL    HW2 9448   2.184   3.664   6.007 -0.4979  2.6738 -1.4194
 1145SOL     OW 9449   0.056   0.057   0.377  0.4817  0.2977 -0.8424
 1145SOL    HW1 9450  -0.011  -0.007   0.338 -0.6089  0.6492  0.3715
 1145SOL    HW2 9451   0.041   0.064   0.475  1.5961  1.2475 -0.7285
 1146SOL     OW 9452   1.424   5.015   6.177  0.3184  0.3864 -1.0238
 1146SOL    HW1 9453   1.390   4.927   6.208 -0.7713  1.0268 -0.3273
 1146SOL    HW2 9454   1.520   5.025   6.205 -0.0116  0.0622  0.3177
 1147SOL     OW 9455   6.141   0.696   1.360  0.0763 -0.7404  0.3560
 1147SOL    HW1 9456   6.062   0.646   1.326 -0.2254 -0.9594  1.3632
 1147SOL    HW2 9457   6.192   0.639   1.425  0.5836 -0.2924  0.3599
 1148SOL     OW 9458   1.838   6.319   0.884  0.0791  0.1600  0.0916
 1148SOL    HW1 9459   1.890   6.376   0.820  0.3271  0.3747  0.4861
 1148SOL    HW2 9460   1.889   6.308   0.969 -0.7425  0.8326  0.6941
 1149SOL     OW 9461   5.633   3.515   0.132  0.1334  0.3110 -0.3131
 1149SOL    HW1 9462   5.640   3.446   0.060  0.4330 -0.7241  0.6586
 1149SOL    HW2 9463   5.554   3.574   0.115 -0.9415 -1.1172 -0.5017
 1150SOL     OW 9464   2.365   0.168   0.843 -0.0739 -0.3962 -0.6482
 1150SOL    HW1 9465   2.327   0.081   0.809 -1.4120 -0.6902  1.4028
 1150SOL    HW2 9466   2.384   0.159   0.941  2.7839  0.6728 -1.0351
 1151SOL     OW 9467   1.560   1.031   0.776  0.2927  0.0397 -0.0564
 1151SOL    HW1 9468   1.632   0.962   0.770  0.1046 -0.0235 -2.6863
 1151SOL    HW2 9469   1.483   0.996   0.830  0.6380 -1.3832 -0.4697
 1152SOL     OW 9470   2.204   0.830   0.107  0.4458 -0.3652 -0.6828
 1152SOL    HW1 9471   2.199   0.768   0.028 -1.7050 -0.1412 -0.7684
 1152SOL    HW2 9472   2.158   0.788   0.185  0.5855  0.3576 -0.2035
 1153SOL     OW 9473   5.089   1.718   5.168 -0.5181 -0.3094 -0.3034
 1153SOL    HW1 9474   5.174   1.715   5.116  0.7705  0.7780  1.6353
 1153SOL    HW2 9475   5.097   1.784   5.243 -1.5219 -3.0981  2.5256
 1154SOL     OW 9476   3.778   0.980   0.544 -0.4214  0.0002  0.3819
 1154SOL    HW1 9477   3.751   0.981   0.448  0.7752  0.5496  0.0387
 1154SOL    HW2 9478   3.777   0.886   0.578  0.5522 -0.3805 -0.5809
 1155SOL     OW 9479   0.091   5.696   0.261 -0.4534 -0.0092  0.4500
 1155SOL    HW1 9480   0.040   5.681   0.346  0.8392 -1.9859  0.9647
 1155SOL    HW2 9481   0.076   5.789   0.228 -2.6125  0.1478  1.7196
 1156SOL     OW 9482   1.794   3.039   5.977  0.4630 -0.4621 -0.3396
 1156SOL    HW1 9483   1.777   2.949   6.017  2.7027 -0.5747  0.4934
 1156SOL    HW2 9484   1.835   3.029   5.887 -0.9834 -0.2166 -1.0615
 1157SOL     OW 9485   5.607   4.345   0.767  0.5990 -0.7860  0.0808
 1157SOL    HW1 9486   5.525   4.309   0.812  0.1377 -0.2742 -0.3437
 1157SOL    HW2 9487   5.683   4.282   0.783  1.4083  0.9702  4.6041
 1158SOL     OW 9488   2.674   0.808   1.050  0.7986 -0.0075 -0.2963
 1158SOL    HW1 9489   2.606   0.762   0.993  1.3211 -0.9286 -0.1944
 1158SOL    HW2 9490   2.663   0.907   1.041 -0.2173 -0.1396 -0.6725
 1159SOL     OW 9491   4.625   2.793   0.431 -0.4632  0.1793  0.3849
 1159SOL    HW1 9492   4.688   2.810   0.507 -2.0597  0.3482  1.7280
 1159SOL    HW2 9493   4.631   2.697   0.403 -0.0313  0.0602  0.8749
 1160SOL     OW 9494   4.754   1.341   1.521 -0.1425  0.3027  0.0058
 1160SOL    HW1 9495   4.721   1.424   1.477 -0.8718  0.2196  0.3805
 1160SOL    HW2 9496   4.712   1.332   1.611  0.8822  0.1710  0.4889
 1161SOL     OW 9497   0.226   2.216   6.226 -0.0922  0.0276  0.1320
 1161SOL    HW1 9498   0.169   2.149   6.178  0.4170 -0.5602  0.3295
 1161SOL    HW2 9499   0.266   2.279   6.160 -0.1198 -0.2145 -0.1196
 1162SOL     OW 9500   5.901   5.415   0.665 -0.1239  0.3020  0.2178
 1162SOL    HW1 9501   5.886   5.514   0.663  1.0570  0.5271  1.4062
 1162SOL    HW2 9502   5.825   5.369   0.618 -0.1512  1.8128 -1.3294
 1163SOL     OW 9503   6.049   2.915   0.083 -0.1958 -0.2204 -0.2529
 1163SOL    HW1 9504   6.019   3.009   0.101  0.0073 -0.6394  2.6634
 1163SOL    HW2 9505   6.148   2.910   0.092 -0.4123 -1.1581  2.2684
 1164SOL     OW 9506   5.826   5.433   0.022  0.3275 -0.1162  0.2524
 1164SOL    HW1 9507   5.875   5.458  -0.061  0.0634 -0.9018 -0.1502
 1164SOL    HW2 9508   5.886   5.445   0.102  0.7950  0.0148 -0.1163
 1165SOL     OW 9509   6.094   2.242   0.597 -0.0719  0.2450  0.4180
 1165SOL    HW1 9510   6.037   2.272   0.521  1.6647 -1.4594 -1.6696
 1165SOL    HW2 9511   6.040   2.184   0.658 -0.9128 -0.2783 -0.7849
 1166SOL     OW 9512   2.273   4.562   6.624 -0.1592  0.5620  0.0524
 1166SOL    HW1 9513   2.213   4.585   6.701  0.2181 -2.7592  1.5342
 1166SOL    HW2 9514   2.220   4.520   6.551  0.1278 -1.2085  0.8261
 1167SOL     OW 9515   0.447   0.639   0.704 -0.6198  0.7692  0.9849
 1167SOL    HW1 9516   0.541   0.664   0.727  0.9827 -2.9997 -0.6774
 1167SOL    HW2 9517   0.417   0.693   0.625  1.8382 -0.7064 -1.1225
 1168SOL     OW 9518   0.186   2.600   5.313 -0.0464 -0.2643  0.0951
 1168SOL    HW1 9519   0.108   2.661   5.299 -0.6407 -0.9741  0.2341
 1168SOL    HW2 9520   0.204   2.549   5.229 -0.7572 -1.2546  0.5167
 1169SOL     OW 9521   4.946   0.911   6.444  0.0401 -0.0031  0.3516
 1169SOL    HW1 9522   4.895   0.993   6.470 -1.1429  0.2634 -2.4716
 1169SOL    HW2 9523   4.956   0.908   6.344  2.4584 -1.9297  0.5483
 1170SOL     OW 9524   0.602   3.120   0.971  0.1128 -0.0851  0.1688
 1170SOL    HW1 9525   0.696   3.153   0.979 -0.1155  0.5565  0.2200
 1170SOL    HW2 9526   0.602   3.035   0.918  0.5880  0.5732 -0.9376
 1171SOL     OW 9527   2.556   4.097   1.930  0.4830  0.6751  0.6706
 1171SOL    HW1 9528   2.462   4.075   1.956 -0.3423  2.2677 -0.7708
 1171SOL    HW2 9529   2.582   4.186   1.967  1.7916 -0.1429  1.8232
 1172SOL     OW 9530   1.287   1.106   5.258 -0.0553  0.0400  0.4967
 1172SOL    HW1 9531   1.204   1.081   5.308 -0.3417 -0.1682 -0.0776
 1172SOL    HW2 9532   1.324   1.025   5.211 -0.6142  0.5262 -0.8245
 1173SOL     OW 9533   5.066   1.637   5.523  0.1017  0.8230 -0.0852
 1173SOL    HW1 9534   5.041   1.567   5.456  2.1477 -0.5951  0.5295
 1173SOL    HW2 9535   5.087   1.723   5.475  0.3839  0.1731 -1.1530
 1174SOL     OW 9536   4.381   5.792   6.205 -0.1186 -0.2719 -0.0217
 1174SOL    HW1 9537   4.362   5.715   6.144  0.8683 -0.0248 -0.6713
 1174SOL    HW2 9538   4.461   5.841   6.172 -0.9525  1.2699  0.1761
 1175SOL     OW 9539   2.620   4.400   0.537  0.4956 -0.1517  0.2239
 1175SOL    HW1 9540   2.559   4.473   0.508 -0.6638 -1.4464 -0.7356
 1175SOL    HW2 9541   2.715   4.432   0.532  0.0405  1.1382 -0.5883
 1176SOL     OW 9542   2.939   4.698   5.766 -0.3327 -0.7466  0.6940
 1176SOL    HW1 9543   2.871   4.636   5.726 -2.2990  1.4997  0.3350
 1176SOL    HW2 9544   2.949   4.778   5.707  1.4667 -0.2682  1.5954
 1177SOL     OW 9545   6.180   2.766   5.904 -0.3061 -0.1259 -0.1552
 1177SOL    HW1 9546   6.249   2.824   5.947  0.0193 -1.4761  1.2085
 1177SOL    HW2 9547   6.140   2.705   5.972 -1.7769 -0.4194 -1.2402
 1178SOL     OW 9548   0.529   5.021   1.558 -0.2773  0.2966  0.4538
 1178SOL    HW1 9549   0.569   5.069   1.480  2.2294 -0.9989  0.8375
 1178SOL    HW2 9550   0.476   5.086   1.613 -0.7645  1.5777 -1.4231
 1179SOL     OW 9551   1.761   1.361   6.388 -0.0519  0.4563 -0.3740
 1179SOL    HW1 9552   1.817   1.343   6.307  2.3445 -0.0834  1.2762
 1179SOL    HW2 9553   1.700   1.283   6.405 -0.3188  0.4211 -1.4271
 1180SOL     OW 9554   1.895   1.368   6.066  0.2782  0.1751 -0.0913
 1180SOL    HW1 9555   1.942   1.380   6.154 -1.4781 -1.4246  1.1402
 1180SOL    HW2 9556   1.963   1.361   5.993  1.9292 -1.0952  1.4718
 1181SOL     OW 9557   0.254   5.083   0.306  0.1139 -0.1932  0.2929
 1181SOL    HW1 9558   0.309   5.164   0.328 -0.7513  0.5400 -0.1788
 1181SOL    HW2 9559   0.224   5.088   0.211  0.3686 -1.2741  0.1407
 1182SOL     OW 9560   4.867   6.036   6.264 -0.0672 -0.1876  0.4148
 1182SOL    HW1 9561   4.875   6.076   6.356  2.1075 -0.7983  0.5555
 1182SOL    HW2 9562   4.912   5.947   6.263  0.1679 -0.0750 -1.3195
 1183SOL     OW 9563   0.557   2.183   0.907 -0.0853 -0.2725 -0.0918
 1183SOL    HW1 9564   0.521   2.245   0.977 -0.1242 -0.8297  0.3959
 1183SOL    HW2 9565   0.638   2.137   0.942 -1.9284 -3.0048  0.9051
 1184SOL     OW 9566   5.662   4.008   6.198  0.5452 -0.1269 -0.3523
 1184SOL    HW1 9567   5.621   3.939   6.138 -0.9880  0.4864 -0.0560
 1184SOL    HW2 9568   5.762   4.001   6.194  0.4452 -2.7083  0.1032
 1185SOL     OW 9569   2.006   5.299   5.967 -0.0951 -0.3809  0.6606
 1185SOL    HW1 9570   2.059   5.218   5.945 -0.5633 -0.5027 -0.0892
 1185SOL    HW2 9571   1.909   5.283   5.944  0.1111  1.1204 -1.7259
 1186SOL     OW 9572   5.415   4.431   1.889  0.6658 -0.6325 -1.1313
 1186SOL    HW1 9573   5.408   4.351   1.948  1.4962 -1.3756 -2.0250
 1186SOL    HW2 9574   5.325   4.475   1.883  0.1112 -1.7034 -0.9228
 1187SOL     OW 9575   2.939   4.188   5.026  0.0737 -0.1955  0.0154
 1187SOL    HW1 9576   2.854   4.136   5.038  0.3790 -0.6836  0.1146
 1187SOL    HW2 9577   2.928   4.253   4.951 -1.2230  1.5393  1.6249
 1188SOL     OW 9578   4.810   1.116   6.547  0.5313 -0.1390 -0.5001
 1188SOL    HW1 9579   4.718   1.090   6.575  0.7769 -0.6055 -0.1177
 1188SOL    HW2 9580   4.806   1.200   6.492 -0.2235 -0.7555 -1.4068
 1189SOL     OW 9581   4.270   4.626   1.026 -0.5827  0.0754 -0.1070
 1189SOL    HW1 9582   4.253   4.554   1.092  0.0177 -0.0719 -0.1091
 1189SOL    HW2 9583   4.192   4.688   1.023 -1.5600 -1.1492 -0.8537
 1190SOL     OW 9584   3.350   3.029   1.772  0.0741 -0.1096 -0.4557
 1190SOL    HW1 9585   3.433   2.979   1.795  0.1011 -0.5016 -1.3672
 1190SOL    HW2 9586   3.295   2.975   1.707 -0.4471  0.5379 -0.5641
 1191SOL     OW 9587   2.756   0.147   6.006  0.1811  0.5742 -0.0943
 1191SOL    HW1 9588   2.812   0.066   6.021  0.4723  1.0323  1.4649
 1191SOL    HW2 9589   2.784   0.192   5.920  1.9415  0.5672  0.4364
 1192SOL     OW 9590   6.056   6.239   6.567 -0.2095 -0.1755 -0.4263
 1192SOL    HW1 9591   6.008   6.176   6.506 -0.5212  0.5184 -0.9216
 1192SOL    HW2 9592   5.990   6.289   6.622  0.0827 -0.8967  0.5891
 1193SOL     OW 9593   5.330   1.157   0.924  0.0940 -0.5631 -0.4800
 1193SOL    HW1 9594   5.258   1.138   0.857 -0.7374 -0.1911  0.2984
 1193SOL    HW2 9595   5.305   1.118   1.012  0.6345 -0.0192 -0.0797
 1194SOL     OW 9596   5.067   3.218   0.452  0.0936  0.5573 -0.2553
 1194SOL    HW1 9597   5.132   3.143   0.437 -0.3102  0.3494 -0.9648
 1194SOL    HW2 9598   5.118   3.302   0.471  0.5984  0.5241 -1.3886
 1195SOL     OW 9599   0.252   4.776   0.310  0.2347 -0.5218  0.2066
 1195SOL    HW1 9600   0.153   4.785   0.307  0.4006  1.3699 -1.9230
 1195SOL    HW2 9601   0.294   4.865   0.326  1.6272 -0.7825 -1.6425
 1196SOL     OW 9602   1.872   3.837   0.771  0.3032 -0.2239 -0.1057
 1196SOL    HW1 9603   1.947   3.828   0.836 -0.5610 -1.4165  0.7766
 1196SOL    HW2 9604   1.857   3.749   0.726  1.4307  0.7673 -2.6096
 1197SOL     OW 9605   4.547   5.591   0.524 -0.5626 -0.0158  0.1733
 1197SOL    HW1 9606   4.537   5.537   0.441  0.5409 -0.5351  0.3564
 1197SOL    HW2 9607   4.471   5.571   0.587 -1.3670  0.3399 -0.6703
 1198SOL     OW 9608   5.193   5.994   5.698 -0.0635 -0.2795 -0.3403
 1198SOL    HW1 9609   5.181   5.900   5.668  0.7992 -1.0013  1.4224
 1198SOL    HW2 9610   5.137   6.011   5.779  0.9083  0.2496  0.2421
 1199SOL     OW 9611   3.678   0.856   5.302 -0.8654  0.1065 -0.3685
 1199SOL    HW1 9612   3.744   0.867   5.228  0.9817  0.8168  1.2927
 1199SOL    HW2 9613   3.636   0.945   5.323 -2.7639 -0.4079 -1.6894
 1200SOL     OW 9614   3.641   4.389   6.160 -0.5704 -0.0693 -0.2679
 1200SOL    HW1 9615   3.672   4.483   6.146  0.7254 -0.6139 -1.3145
 1200SOL    HW2 9616   3.598   4.355   6.077 -0.3740 -0.6418 -0.1384
 1201SOL     OW 9617   1.244   0.664   6.157 -0.3402 -0.4634 -0.5433
 1201SOL    HW1 9618   1.333   0.684   6.117 -0.7211  0.9700 -0.7471
 1201SOL    HW2 9619   1.240   0.703   6.249 -0.3513 -1.5405 -0.0835
 1202SOL     OW 9620   1.262   0.177   1.248 -0.1214  0.0196  0.3413
 1202SOL    HW1 9621   1.227   0.173   1.342 -0.1611  1.0893  0.3794
 1202SOL    HW2 9622   1.234   0.263   1.205 -0.9459 -0.8851 -1.0012
 1203SOL     OW 9623   0.196   4.546   0.417  0.0566  0.2488 -0.2622
 1203SOL    HW1 9624   0.232   4.632   0.379  1.8827 -1.0913 -1.7996
 1203SOL    HW2 9625   0.099   4.537   0.394  0.2772  1.0992 -1.6415
 1204SOL     OW 9626   5.971   1.967   6.247 -0.6202 -0.0885 -0.3817
 1204SOL    HW1 9627   5.962   2.031   6.171 -0.1231  1.6394  0.9566
 1204SOL    HW2 9628   5.882   1.957   6.292 -0.2663  1.3937  0.7133
 1205SOL     OW 9629   3.013   3.024   6.385 -0.1455  0.8787  0.6077
 1205SOL    HW1 9630   3.101   2.978   6.392  0.1989  1.2712 -0.7692
 1205SOL    HW2 9631   3.013   3.104   6.445  0.1679  0.5000  1.1299
 1206SOL     OW 9632   2.903   5.302   6.498  0.0290  0.6389 -0.2692
 1206SOL    HW1 9633   2.837   5.377   6.496 -2.1225 -0.9725  2.9670
 1206SOL    HW2 9634   2.866   5.223   6.450  1.4364  0.9254 -1.9314
 1207SOL     OW 9635   2.363   1.151   0.040 -0.1331  0.1563  0.6983
 1207SOL    HW1 9636   2.437   1.120   0.098 -1.3290  0.0098  2.2112
 1207SOL    HW2 9637   2.283   1.092   0.052 -0.7923  0.8198 -0.2104
 1208SOL     OW 9638   3.325   4.570   0.577  0.0506 -0.4450  0.0801
 1208SOL    HW1 9639   3.384   4.645   0.606  0.1411 -0.4691 -0.0391
 1208SOL    HW2 9640   3.353   4.539   0.486  0.7414 -1.3863  0.5922
 1209SOL     OW 9641   5.939   3.695   5.519  0.9592 -0.4835  0.4082
 1209SOL    HW1 9642   5.985   3.735   5.439  1.7382  0.0954  1.1212
 1209SOL    HW2 9643   5.868   3.758   5.551 -0.7553 -1.6161 -1.0134
 1210SOL     OW 9644   1.834   2.670   5.896  0.2090 -0.3785 -0.8591
 1210SOL    HW1 9645   1.903   2.680   5.825  1.1585 -0.2648  0.0400
 1210SOL    HW2 9646   1.812   2.573   5.908  0.2537 -0.4210 -1.1171
 1211SOL     OW 9647   1.367   1.778   5.882 -0.4630  0.3737  0.2852
 1211SOL    HW1 9648   1.391   1.823   5.796 -0.3608  2.2360  1.2406
 1211SOL    HW2 9649   1.405   1.686   5.884  0.7798  0.8401 -1.0523
 1212SOL     OW 9650   1.477   3.929   0.797  0.0730  0.1477 -0.1221
 1212SOL    HW1 9651   1.451   3.914   0.892  0.7173  2.6716  0.5481
 1212SOL    HW2 9652   1.435   3.860   0.739 -1.7798 -0.4311  1.7823
 1213SOL     OW 9653   1.072   2.664   5.585 -0.0127 -0.1695 -0.3078
 1213SOL    HW1 9654   0.989   2.622   5.622  0.5703  0.5161  1.9183
 1213SOL    HW2 9655   1.075   2.650   5.486 -1.4509 -2.4968 -0.0955
 1214SOL     OW 9656   2.009   4.803   0.699 -0.7068 -0.7016 -0.0976
 1214SOL    HW1 9657   2.080   4.744   0.737 -0.4756 -0.8094 -0.6845
 1214SOL    HW2 9658   1.930   4.748   0.671 -0.6057 -0.7037 -0.3836
 1215SOL     OW 9659   6.249   4.968   0.238 -0.3043 -0.7294  0.0739
 1215SOL    HW1 9660   6.257   5.011   0.328 -2.9001 -0.1408  0.1138
 1215SOL    HW2 9661   6.309   5.015   0.173 -0.0325  0.2772  1.0170
 1216SOL     OW 9662   0.490   5.857   5.145 -0.1406  0.4933 -0.2671
 1216SOL    HW1 9663   0.477   5.758   5.139 -2.1949  0.7596 -1.3763
 1216SOL    HW2 9664   0.522   5.891   5.056  1.9360  0.6873  0.5239
 1217SOL     OW 9665   0.649   3.092   5.577  0.2705 -0.1481 -0.3362
 1217SOL    HW1 9666   0.736   3.129   5.610  0.2677 -0.6721  0.2799
 1217SOL    HW2 9667   0.577   3.113   5.643 -0.3623  1.4395 -1.4556
 1218SOL     OW 9668   3.005   0.329   6.264  0.0764 -0.3786 -0.1777
 1218SOL    HW1 9669   3.056   0.264   6.207  0.4720 -2.0812  1.9824
 1218SOL    HW2 9670   2.972   0.404   6.207  2.2667 -0.8471 -2.2381
 1219SOL     OW 9671   2.311   4.276   0.191  0.0598  0.2910 -0.4667
 1219SOL    HW1 9672   2.242   4.207   0.170  2.1472 -2.1252  0.0895
 1219SOL    HW2 9673   2.368   4.291   0.110  0.2762  0.5469 -0.2685
 1220SOL     OW 9674   6.098   6.076   0.954  0.0643  0.3850  0.4927
 1220SOL    HW1 9675   6.077   6.093   1.050 -1.5654 -0.4517  0.3114
 1220SOL    HW2 9676   6.092   6.161   0.903  3.0695  1.2915  1.4319
 1221SOL     OW 9677   4.827   0.032   5.825 -0.0633  0.1900  0.0253
 1221SOL    HW1 9678   4.780  -0.031   5.887 -1.0164  0.7406 -0.1089
 1221SOL    HW2 9679   4.780   0.031   5.736 -0.2857  1.3127  0.1179
 1222SOL     OW 9680   3.273   6.118   0.751 -0.0016  0.1164 -0.2124
 1222SOL    HW1 9681   3.208   6.193   0.769  1.7124  1.2927  1.5005
 1222SOL    HW2 9682   3.228   6.048   0.695 -2.6027  1.0441  0.5488
 1223SOL     OW 9683   1.224   5.550   4.943 -1.0709 -0.3722 -0.0814
 1223SOL    HW1 9684   1.284   5.532   4.866 -1.0170 -2.6485  0.4240
 1223SOL    HW2 9685   1.129   5.553   4.911 -1.0820 -1.6673 -0.2148
 1224SOL     OW 9686   3.727   4.970   0.256 -0.2143  0.1562  0.5788
 1224SOL    HW1 9687   3.749   4.873   0.269 -0.3948  0.2365  1.5990
 1224SOL    HW2 9688   3.727   4.992   0.158 -1.4134 -1.1713  0.2512
 1225SOL     OW 9689   4.690   5.918   5.643  0.3789 -0.7358  0.3156
 1225SOL    HW1 9690   4.602   5.887   5.608  0.4738 -0.7012  0.0445
 1225SOL    HW2 9691   4.759   5.912   5.571 -0.5093  4.4280 -1.4198
 1226SOL     OW 9692   2.115   2.669   6.224 -0.6681  0.1326 -0.0902
 1226SOL    HW1 9693   2.175   2.702   6.152 -4.2288  1.1646 -2.8689
 1226SOL    HW2 9694   2.086   2.576   6.204 -2.0068  0.5653 -0.2658
 1227SOL     OW 9695   4.282   2.550   1.100 -0.2945  0.3432  0.1457
 1227SOL    HW1 9696   4.291   2.451   1.089 -0.8596  0.1488  1.2885
 1227SOL    HW2 9697   4.194   2.580   1.064 -0.0215  0.4786 -0.4245
 1228SOL     OW 9698   0.663   0.395   6.512  0.6569  0.7739 -0.3838
 1228SOL    HW1 9699   0.598   0.349   6.572  2.9971  0.2150  1.8974
 1228SOL    HW2 9700   0.693   0.332   6.441 -0.1776  0.5802 -0.5780
 1229SOL     OW 9701   4.389   1.523   6.636 -0.2576 -0.7817 -0.3702
 1229SOL    HW1 9702   4.370   1.464   6.558 -0.1652 -1.2988 -0.0071
 1229SOL    HW2 9703   4.467   1.486   6.687  0.0965 -0.0929 -0.3981
 1230SOL     OW 9704   1.477   6.114   6.414  0.4135 -0.2569 -0.2508
 1230SOL    HW1 9705   1.382   6.115   6.445 -0.0956 -2.4914 -1.5613
 1230SOL    HW2 9706   1.522   6.199   6.443 -1.5811  0.2820  1.5308
 1231SOL     OW 9707   1.579   1.260   0.942 -0.3726 -0.3163  0.4843
 1231SOL    HW1 9708   1.612   1.217   1.026  0.7084 -1.9428 -0.7086
 1231SOL    HW2 9709   1.569   1.191   0.871 -1.0879  1.0424 -0.7984
 1232SOL     OW 9710   2.364   5.393   5.787 -0.0330  0.2427  0.5833
 1232SOL    HW1 9711   2.420   5.363   5.864  2.3626 -1.3726 -1.6170
 1232SOL    HW2 9712   2.289   5.450   5.820  2.3380  1.7697  3.8310
 1233SOL     OW 9713   5.297   5.122   5.807  0.5737 -0.0537  0.2209
 1233SOL    HW1 9714   5.265   5.135   5.713 -0.5572 -0.1369  0.5839
 1233SOL    HW2 9715   5.256   5.040   5.846 -1.9064  1.8568  1.9814
 1234SOL     OW 9716   5.195   3.934   5.788  0.0061 -0.1420 -0.3875
 1234SOL    HW1 9717   5.282   3.912   5.832 -0.2791 -0.3145  0.0929
 1234SOL    HW2 9718   5.176   4.031   5.799  0.2960 -0.0378 -0.7800
 1235SOL     OW 9719   2.529   1.246   6.087 -0.1156  0.3594 -0.9592
 1235SOL    HW1 9720   2.483   1.228   6.174 -1.7355  1.9248 -1.4249
 1235SOL    HW2 9721   2.616   1.197   6.084 -0.4736 -0.4971  1.1213
 1236SOL     OW 9722   3.185   0.203   6.066 -0.1917  0.2811  0.2178
 1236SOL    HW1 9723   3.265   0.255   6.095  2.4253 -1.5145 -3.1295
 1236SOL    HW2 9724   3.154   0.236   5.977 -1.1679 -1.1309  0.0071
 1237SOL     OW 9725   2.699   1.934   6.571 -0.8858 -0.2348  0.3570
 1237SOL    HW1 9726   2.662   2.010   6.519 -0.5417 -0.1517  0.2346
 1237SOL    HW2 9727   2.682   1.848   6.522  0.3943 -0.0563 -0.4286
 1238SOL     OW 9728   0.856   3.673   1.828  0.0673  0.5753 -0.5900
 1238SOL    HW1 9729   0.922   3.611   1.872 -0.2131 -1.0285 -2.3139
 1238SOL    HW2 9730   0.784   3.619   1.786 -1.2510  2.2229 -0.5137
 1239SOL     OW 9731   1.730   5.862   5.162 -0.5866  0.2096 -0.8116
 1239SOL    HW1 9732   1.800   5.931   5.179  2.4782 -2.7345 -0.4769
 1239SOL    HW2 9733   1.732   5.835   5.066 -0.2467 -0.8615 -0.5146
 1240SOL     OW 9734   3.759   0.259   0.295  0.0128  0.5085  0.1898
 1240SOL    HW1 9735   3.803   0.284   0.381 -0.1673 -0.4361  0.5594
 1240SOL    HW2 9736   3.663   0.287   0.297 -0.1962 -0.2375  0.6145
 1241SOL     OW 9737   0.445   4.926   0.067 -0.0463 -0.3114 -0.3784
 1241SOL    HW1 9738   0.472   4.851   0.126  0.5553  0.0679 -0.1675
 1241SOL    HW2 9739   0.484   4.913  -0.024  0.7018  0.1389 -0.1267
 1242SOL     OW 9740   1.301   5.168   6.531 -0.9983 -0.1516  0.3999
 1242SOL    HW1 9741   1.220   5.129   6.488 -1.3079 -0.0638  0.8912
 1242SOL    HW2 9742   1.372   5.183   6.462 -1.4467 -0.0984 -0.0541
 1243SOL     OW 9743   2.477   0.450   5.475  0.6293 -0.2410  0.1230
 1243SOL    HW1 9744   2.462   0.443   5.376 -0.3221 -1.5516  0.3406
 1243SOL    HW2 9745   2.444   0.539   5.507  0.2623 -0.0963 -0.6286
 1244SOL     OW 9746   3.606   2.683   0.895  0.5224  0.0327  0.1016
 1244SOL    HW1 9747   3.690   2.717   0.937  0.9904  0.5608 -1.2090
 1244SOL    HW2 9748   3.628   2.609   0.831 -0.2920 -1.5143  1.5270
 1245SOL     OW 9749   1.048   1.648   5.494  0.4858  0.2442  0.6627
 1245SOL    HW1 9750   0.984   1.703   5.548 -0.0706 -1.3420  1.6843
 1245SOL    HW2 9751   1.089   1.578   5.553  0.5930 -0.9188 -0.7382
 1246SOL     OW 9752   0.418   2.795   6.089  0.1356  0.0234  0.2487
 1246SOL    HW1 9753   0.456   2.804   5.997 -0.8296 -0.4975 -0.2132
 1246SOL    HW2 9754   0.492   2.801   6.157  1.1734 -1.8387 -0.6555
 1247SOL     OW 9755   3.147   4.912   1.073  0.4735  0.1271  0.1962
 1247SOL    HW1 9756   3.116   4.817   1.078  0.6279  0.1248  1.3312
 1247SOL    HW2 9757   3.213   4.930   1.146  1.0920  0.8819 -0.5242
 1248SOL     OW 9758   0.123   1.821   5.423 -0.0951  0.2562 -0.2534
 1248SOL    HW1 9759   0.051   1.802   5.356  0.2699  1.4722 -1.0307
 1248SOL    HW2 9760   0.194   1.878   5.380  0.7071  0.1212  0.8555
 1249SOL     OW 9761   3.068   1.892   1.108  0.2420  0.6259 -1.0941
 1249SOL    HW1 9762   3.108   1.813   1.153  0.1478  0.5769 -1.0944
 1249SOL    HW2 9763   3.031   1.864   1.019  2.1023  1.1017 -2.0551
 1250SOL     OW 9764   0.965   5.671   6.163  0.0563 -0.4561 -0.2828
 1250SOL    HW1 9765   1.021   5.592   6.187 -0.3913 -0.0906  2.3118
 1250SOL    HW2 9766   1.021   5.737   6.112  1.2699 -1.1877  0.0484
 1251SOL     OW 9767   0.181   2.658   6.004 -0.3705 -0.0210 -0.3513
 1251SOL    HW1 9768   0.166   2.685   5.909 -1.8321 -1.4592 -0.5736
 1251SOL    HW2 9769   0.253   2.715   6.044  2.0691 -0.9616 -3.0188
 1252SOL     OW 9770   4.946   2.209   5.704 -0.1109 -0.3420 -0.2043
 1252SOL    HW1 9771   4.996   2.224   5.619  0.2743  2.8768  0.4970
 1252SOL    HW2 9772   4.996   2.248   5.781 -2.3326  0.4865  0.9175
 1253SOL     OW 9773   2.950   2.659   1.871 -0.3395 -0.5956  0.6217
 1253SOL    HW1 9774   3.031   2.648   1.928  0.8018  0.0837 -0.8087
 1253SOL    HW2 9775   2.951   2.749   1.828 -0.6220 -1.4384 -1.2543
 1254SOL     OW 9776   3.048   0.977   6.596 -0.3964 -0.5301 -0.1514
 1254SOL    HW1 9777   2.969   0.928   6.635 -1.0785  0.9730  0.4168
 1254SOL    HW2 9778   3.047   1.072   6.627 -0.7231  0.6572 -3.4571
 1255SOL     OW 9779   2.741   4.974   5.674 -0.2772  0.3038 -0.1315
 1255SOL    HW1 9780   2.823   4.941   5.627 -0.1155  2.2126 -1.3062
 1255SOL    HW2 9781   2.675   4.900   5.683  0.7529 -0.7520 -1.0400
 1256SOL     OW 9782   0.548   5.946   0.288  0.2278 -0.6703  0.0975
 1256SOL    HW1 9783   0.551   6.033   0.239 -0.5228 -0.1517  0.9437
 1256SOL    HW2 9784   0.465   5.941   0.344  0.0023 -2.1503 -0.3199
 1257SOL     OW 9785   1.877   2.894   0.326 -0.2291 -0.2581 -0.8386
 1257SOL    HW1 9786   1.790   2.846   0.309  0.0281 -0.6023 -1.2260
 1257SOL    HW2 9787   1.863   2.992   0.316 -0.7164 -0.2599 -0.2595
 1258SOL     OW 9788   4.190   3.031   0.975  0.7285 -0.0275 -0.2133
 1258SOL    HW1 9789   4.125   2.996   0.908  1.3934 -1.1810 -0.2873
 1258SOL    HW2 9790   4.143   3.046   1.062  0.1559  0.1386 -0.5427
 1259SOL     OW 9791   2.690   1.077   0.998 -0.5454  0.1548 -0.3451
 1259SOL    HW1 9792   2.655   1.132   0.922  1.8306  0.5464 -1.2573
 1259SOL    HW2 9793   2.711   1.136   1.075 -3.8978 -0.3646  1.0983
 1260SOL     OW 9794   4.595   5.031   6.635  0.1695  0.9049 -0.1025
 1260SOL    HW1 9795   4.526   5.015   6.706  1.2743 -0.0234  0.8086
 1260SOL    HW2 9796   4.676   5.073   6.676  0.6747  0.7125 -0.8797
 1261SOL     OW 9797   1.747   3.442   1.445  0.1290  0.6356  0.3520
 1261SOL    HW1 9798   1.769   3.539   1.438  0.8419  0.6680  2.4028
 1261SOL    HW2 9799   1.666   3.431   1.502 -1.3329  0.1021 -1.7050
 1262SOL     OW 9800   3.372   4.573   6.178  0.1392 -0.2935  0.1218
 1262SOL    HW1 9801   3.351   4.579   6.080  0.4507  0.6891  0.1038
 1262SOL    HW2 9802   3.461   4.616   6.196 -1.0180  1.8125  1.1812
 1263SOL     OW 9803   4.077   1.009   1.195 -0.2031 -0.1050 -0.1980
 1263SOL    HW1 9804   4.143   1.054   1.255 -1.1389  0.3411  0.5352
 1263SOL    HW2 9805   3.984   1.031   1.226 -0.7064 -2.0086 -0.2031
 1264SOL     OW 9806   2.589   4.815   4.126  0.4082  1.1431  0.1390
 1264SOL    HW1 9807   2.591   4.766   4.039  1.0694  1.0338  0.2167
 1264SOL    HW2 9808   2.592   4.750   4.202  1.5304  1.3027  0.2424
 1265SOL     OW 9809   0.227   1.474   6.584  0.5681 -0.1773 -0.5789
 1265SOL    HW1 9810   0.190   1.490   6.492  0.3642  0.0412 -0.4616
 1265SOL    HW2 9811   0.178   1.532   6.649 -0.1558 -1.2367 -0.1458
 1266SOL     OW 9812   2.541   5.761   5.142 -0.5236 -0.2036 -0.0238
 1266SOL    HW1 9813   2.626   5.717   5.114 -1.4379 -0.7354 -2.1051
 1266SOL    HW2 9814   2.552   5.860   5.141 -0.3868 -0.2000 -2.0203
 1267SOL     OW 9815   3.495   3.352   6.358 -0.7169 -0.4628 -0.1477
 1267SOL    HW1 9816   3.462   3.408   6.282 -0.2860  0.4838  0.3353
 1267SOL    HW2 9817   3.480   3.255   6.338  0.9917 -0.3649 -2.2335
 1268SOL     OW 9818   2.592   1.247   5.467  0.0328  0.1535  0.2389
 1268SOL    HW1 9819   2.524   1.216   5.399 -0.3348 -0.8461  1.0293
 1268SOL    HW2 9820   2.668   1.182   5.470  0.1967  0.3585  0.5652
 1269SOL     OW 9821   6.247   1.072   6.525 -0.0960  0.1191 -0.1837
 1269SOL    HW1 9822   6.290   1.046   6.612  0.9857  0.4450 -0.6063
 1269SOL    HW2 9823   6.291   1.023   6.450  0.2685  1.2663 -0.7407
 1270SOL     OW 9824   0.383   3.290   0.875 -0.2625 -0.1668  0.7726
 1270SOL    HW1 9825   0.289   3.256   0.884  0.1584 -1.5491  0.2271
 1270SOL    HW2 9826   0.446   3.223   0.915  0.6367 -0.2648 -0.7338
 1271SOL     OW 9827   1.763   0.794   0.759 -0.2692 -0.0777 -0.1148
 1271SOL    HW1 9828   1.843   0.854   0.763  0.6979 -1.3617  1.0751
 1271SOL    HW2 9829   1.789   0.707   0.716 -1.3273 -0.1047 -0.7301
 1272SOL     OW 9830   5.794   6.297   6.023 -0.3232  0.1602  0.7981
 1272SOL    HW1 9831   5.707   6.305   6.072 -0.0226  0.0206  1.3677
 1272SOL    HW2 9832   5.853   6.233   6.072  0.1901  0.4365  0.5447
 1273SOL     OW 9833   5.015   5.723   0.377 -0.5962  0.1927  0.4973
 1273SOL    HW1 9834   4.997   5.772   0.292  1.3913  1.0163  0.4943
 1273SOL    HW2 9835   4.944   5.746   0.445 -1.7101  0.1986 -0.6359
 1274SOL     OW 9836   2.449   2.876   0.933  0.2180  0.1032 -0.9323
 1274SOL    HW1 9837   2.416   2.784   0.914 -0.2315  0.3250 -1.2692
 1274SOL    HW2 9838   2.548   2.880   0.922  0.3575 -0.5498 -0.0375
 1275SOL     OW 9839   2.922   0.639   5.358  0.0494 -0.5214 -0.7609
 1275SOL    HW1 9840   3.013   0.628   5.318 -0.7669 -1.7692 -2.3686
 1275SOL    HW2 9841   2.859   0.671   5.288 -1.0273 -0.9320  0.0036
 1276SOL     OW 9842   3.289   6.293   4.702 -0.3619 -1.0758 -0.5208
 1276SOL    HW1 9843   3.202   6.291   4.653 -0.4406 -2.0014 -0.3623
 1276SOL    HW2 9844   3.364   6.306   4.636 -0.6226 -0.1115 -0.6389
 1277SOL     OW 9845   0.641   5.570   0.814 -0.0551  0.0249 -0.2906
 1277SOL    HW1 9846   0.664   5.641   0.881  0.8225 -2.1404  1.8742
 1277SOL    HW2 9847   0.725   5.539   0.769 -0.3542  0.0624 -0.8703
 1278SOL     OW 9848   2.056   4.260   6.526 -0.6651  0.3456 -0.4813
 1278SOL    HW1 9849   1.984   4.191   6.533  0.2589 -0.4415  2.9637
 1278SOL    HW2 9850   2.038   4.334   6.590  0.6916  1.0044 -0.8231
 1279SOL     OW 9851   0.698   1.476   0.353  0.3685 -1.3583  0.2819
 1279SOL    HW1 9852   0.688   1.565   0.398  1.6091 -0.9413 -0.2126
 1279SOL    HW2 9853   0.768   1.423   0.400  0.1473 -1.7805  0.1348
 1280SOL     OW 9854   6.059   4.533   5.674 -0.4973  0.1948  0.2935
 1280SOL    HW1 9855   5.981   4.492   5.626 -0.4416  0.1726  0.2231
 1280SOL    HW2 9856   6.048   4.520   5.773 -0.6931  0.3838  0.2963
 1281SOL     OW 9857   0.251   0.610   5.891  0.2741  0.1236  0.2288
 1281SOL    HW1 9858   0.161   0.593   5.850  1.6363 -1.6956 -2.3213
 1281SOL    HW2 9859   0.292   0.691   5.849 -0.4728  1.4986  2.0498
 1282SOL     OW 9860   1.411   0.394   0.191  0.1686  0.6398 -0.4331
 1282SOL    HW1 9861   1.429   0.329   0.266  0.4546 -0.1296 -1.1559
 1282SOL    HW2 9862   1.449   0.358   0.106 -2.0584  0.4210 -1.4144
 1283SOL     OW 9863   0.514   1.942   0.279  0.0219  0.5564  0.1265
 1283SOL    HW1 9864   0.507   1.974   0.185 -0.6957  0.1657  0.0370
 1283SOL    HW2 9865   0.476   2.012   0.340 -1.0002  0.1520 -0.0197
 1284SOL     OW 9866   2.448   4.440   5.296 -0.1413 -0.1805  0.5116
 1284SOL    HW1 9867   2.401   4.399   5.218  0.2260  0.6026 -0.1297
 1284SOL    HW2 9868   2.477   4.533   5.273  1.2088 -0.4389  1.0806
 1285SOL     OW 9869   1.574   4.315   5.300  0.2534 -0.1546 -0.4038
 1285SOL    HW1 9870   1.579   4.415   5.313  0.3996 -0.0081 -1.5288
 1285SOL    HW2 9871   1.512   4.294   5.225  0.0567 -0.9399 -0.0361
 1286SOL     OW 9872   3.662   5.327   6.111 -0.0514  0.0590 -0.0193
 1286SOL    HW1 9873   3.586   5.376   6.069  1.4712  3.4241  0.8720
 1286SOL    HW2 9874   3.695   5.257   6.047 -1.2313  1.3640 -2.1734
 1287SOL     OW 9875   4.831   5.482   1.736  0.0323  0.2223  0.5542
 1287SOL    HW1 9876   4.922   5.471   1.696  1.0329  0.2203  2.6803
 1287SOL    HW2 9877   4.788   5.392   1.745  0.8029 -0.0621  1.6182
 1288SOL     OW 9878   6.194   3.441   5.939  0.1949  0.1220 -0.4179
 1288SOL    HW1 9879   6.118   3.425   6.002  0.9946  1.3525  0.9088
 1288SOL    HW2 9880   6.158   3.479   5.853 -0.6633  1.1504  0.3717
 1289SOL     OW 9881   1.557   0.257   0.007 -0.5232 -0.4721 -0.0513
 1289SOL    HW1 9882   1.578   0.228  -0.086  0.8880 -0.9181  0.3737
 1289SOL    HW2 9883   1.527   0.178   0.061 -1.3254 -0.2178 -0.1128
 1290SOL     OW 9884   0.386   2.116   0.705  0.1898  0.4641  0.3098
 1290SOL    HW1 9885   0.463   2.125   0.768 -0.4671  0.3723  1.1506
 1290SOL    HW2 9886   0.320   2.051   0.742  1.2443 -2.0762 -1.9840
 1291SOL     OW 9887   6.120   3.520   4.950  0.0879 -0.0130  0.1547
 1291SOL    HW1 9888   6.172   3.434   4.946 -0.8794 -0.6087 -3.7761
 1291SOL    HW2 9889   6.129   3.568   4.863 -1.1601  2.8640  1.5043
 1292SOL     OW 9890   1.445   1.897   1.059  0.9344 -0.1763  0.1454
 1292SOL    HW1 9891   1.394   1.811   1.065  0.4738  0.2009  2.6543
 1292SOL    HW2 9892   1.542   1.877   1.045  1.0258 -1.2031  1.9793
 1293SOL     OW 9893   4.625   1.660   0.870  0.1666 -0.0493 -0.1872
 1293SOL    HW1 9894   4.624   1.584   0.805  1.7937 -1.0255  0.8642
 1293SOL    HW2 9895   4.696   1.725   0.843  2.0247 -1.2879  1.4214
 1294SOL     OW 9896   1.428   5.311   6.029  0.2270 -0.2668 -0.0304
 1294SOL    HW1 9897   1.413   5.230   6.085  0.1847 -0.1940  0.0629
 1294SOL    HW2 9898   1.391   5.295   5.937 -0.4596 -0.0699  0.2086
 1295SOL     OW 9899   0.048   5.961   1.281  0.0582  0.3355 -0.0431
 1295SOL    HW1 9900   0.144   5.964   1.309 -0.6141  1.6939  2.4826
 1295SOL    HW2 9901  -0.009   5.945   1.361 -1.8494 -0.9216 -1.5637
 1296SOL     OW 9902   2.218   5.662   5.853  0.3342  0.0828 -0.2970
 1296SOL    HW1 9903   2.140   5.602   5.835 -0.2978  0.2018  1.8076
 1296SOL    HW2 9904   2.210   5.744   5.796 -0.4207 -0.4467 -0.9844
 1297SOL     OW 9905   4.331   4.423   6.584  0.2538  0.0635  0.5876
 1297SOL    HW1 9906   4.249   4.371   6.608 -0.2284  0.8039  0.5665
 1297SOL    HW2 9907   4.348   4.416   6.486  0.5554 -0.5734  0.6818
 1298SOL     OW 9908   0.180   4.099   5.737 -0.4424 -0.2390  0.1968
 1298SOL    HW1 9909   0.217   4.184   5.774 -0.1279 -0.1066 -0.4125
 1298SOL    HW2 9910   0.168   4.108   5.638 -0.0114 -1.0433  0.0648
 1299SOL     OW 9911   0.315   5.947   1.336  0.2640 -0.2047 -0.0892
 1299SOL    HW1 9912   0.366   5.920   1.254 -1.2260  1.1882 -1.5383
 1299SOL    HW2 9913   0.349   6.035   1.370  0.8273 -0.7409  0.7835
 1300SOL     OW 9914   2.562   4.468   6.295  0.0976 -0.2390 -0.2442
 1300SOL    HW1 9915   2.640   4.455   6.356 -0.0633  3.1467  0.8862
 1300SOL    HW2 9916   2.493   4.399   6.315  1.6915 -1.6896  0.5633
 1301SOL     OW 9917   4.514   1.093   6.353  0.6219  0.1383 -0.1175
 1301SOL    HW1 9918   4.596   1.107   6.298  0.3823  0.4765 -0.3926
 1301SOL    HW2 9919   4.436   1.138   6.309  0.0043 -1.3355 -0.5783
 1302SOL     OW 9920   3.238   3.718   1.882 -0.0226  0.3770  0.3582
 1302SOL    HW1 9921   3.138   3.713   1.886  0.0465 -0.8642  1.2001
 1302SOL    HW2 9922   3.272   3.638   1.833  0.4877  1.9413 -2.0083
 1303SOL     OW 9923   2.464   0.189   5.079  0.2821 -0.3412  0.2950
 1303SOL    HW1 9924   2.550   0.153   5.043 -0.8460 -0.4133 -2.6493
 1303SOL    HW2 9925   2.388   0.146   5.031 -1.3097  1.7026  0.8612
 1304SOL     OW 9926   3.474   6.173   6.376  0.6675  0.2784  0.0224
 1304SOL    HW1 9927   3.438   6.094   6.425  1.1826 -0.7145 -1.1470
 1304SOL    HW2 9928   3.415   6.252   6.393  0.1109 -0.3595  1.1700
 1305SOL     OW 9929   2.467   3.396   5.550  0.3560  0.5250 -0.5407
 1305SOL    HW1 9930   2.407   3.450   5.609  2.3594  2.6548 -0.2947
 1305SOL    HW2 9931   2.454   3.423   5.455  0.1784  0.2230 -0.6022
 1306SOL     OW 9932   3.864   1.116   5.769 -0.6169 -0.1752 -0.3054
 1306SOL    HW1 9933   3.853   1.134   5.671 -0.9480  0.6458 -0.1228
 1306SOL    HW2 9934   3.960   1.100   5.789 -0.5255 -0.2040 -0.7404
 1307SOL     OW 9935   1.055   4.552   0.990 -0.2543 -0.0218 -0.7931
 1307SOL    HW1 9936   1.151   4.570   0.969 -0.3475 -0.2582 -1.4509
 1307SOL    HW2 9937   1.039   4.569   1.087  0.0585  1.7140 -1.0085
 1308SOL     OW 9938   5.017   4.988   1.580 -0.0184  0.0874  0.0515
 1308SOL    HW1 9939   5.108   5.020   1.553 -0.0552 -0.7550 -1.1582
 1308SOL    HW2 9940   5.022   4.891   1.604 -1.1649 -1.0057 -3.5408
 1309SOL     OW 9941   1.899   2.937   5.479 -0.1207 -0.1126 -0.3596
 1309SOL    HW1 9942   1.931   2.843   5.493  0.9547  0.6264  3.0965
 1309SOL    HW2 9943   1.958   2.982   5.412  0.9639 -1.1882 -0.1648
 1310SOL     OW 9944   1.199   4.227   5.058  0.4046 -0.2724  0.4894
 1310SOL    HW1 9945   1.136   4.247   4.983 -0.1867  0.5259  1.1780
 1310SOL    HW2 9946   1.286   4.272   5.042 -0.2143  1.1762  0.9823
 1311SOL     OW 9947   5.808   2.678   5.307  0.2615  0.0467 -0.2717
 1311SOL    HW1 9948   5.838   2.746   5.240 -0.4572  0.0060 -0.6420
 1311SOL    HW2 9949   5.713   2.654   5.290  0.1114 -0.0743  0.6798
 1312SOL     OW 9950   2.802   4.882   5.944  0.4608 -0.2726 -0.2289
 1312SOL    HW1 9951   2.808   4.927   5.854 -0.8470  0.1028 -0.1502
 1312SOL    HW2 9952   2.886   4.831   5.961  1.5946  1.3255 -0.7632
 1313SOL     OW 9953   3.754   5.439   0.459  0.1778  0.4585 -0.0856
 1313SOL    HW1 9954   3.763   5.357   0.514 -0.4852 -0.0600 -0.7308
 1313SOL    HW2 9955   3.809   5.429   0.376 -0.7109  0.2312 -0.6541
 1314SOL     OW 9956   0.882   3.546   5.682 -0.1402  0.2956 -0.7359
 1314SOL    HW1 9957   0.874   3.589   5.772 -0.2512 -0.4434 -0.3829
 1314SOL    HW2 9958   0.947   3.597   5.626  1.7057 -0.5412  0.5602
 1315SOL     OW 9959   4.345   1.775   1.103  0.1741 -0.2139  0.5336
 1315SOL    HW1 9960   4.445   1.776   1.098  0.1204 -1.4662 -1.5414
 1315SOL    HW2 9961   4.315   1.703   1.166  0.5530 -0.5809  0.2916
 1316SOL     OW 9962   1.099   3.564   1.485 -0.1641 -0.2566  0.1866
 1316SOL    HW1 9963   1.133   3.603   1.570  1.2536  0.1492 -0.5321
 1316SOL    HW2 9964   1.017   3.511   1.503 -1.2131  1.6836  1.4659
 1317SOL     OW 9965   1.134   1.941   5.842  0.1104  0.5738 -0.3015
 1317SOL    HW1 9966   1.208   1.875   5.832 -2.3351 -2.3235 -0.5259
 1317SOL    HW2 9967   1.126   1.968   5.938  0.3692 -0.4232  0.0099
 1318SOL     OW 9968   0.023   2.114   0.766  0.6933 -0.1889 -0.3663
 1318SOL    HW1 9969  -0.050   2.148   0.707  1.4556  1.1171 -0.5896
 1318SOL    HW2 9970   0.074   2.191   0.804  2.1046 -1.0790 -0.3906
 1319SOL     OW 9971   0.994   5.639   1.386 -0.3932  0.1826 -0.6845
 1319SOL    HW1 9972   0.910   5.691   1.403  0.2661  1.2100 -0.5148
 1319SOL    HW2 9973   1.010   5.632   1.288 -1.4248 -1.2642 -0.7838
 1320SOL     OW 9974   4.491   4.662   0.868  0.5728 -0.1108  0.7128
 1320SOL    HW1 9975   4.495   4.612   0.782  1.9507 -1.5073  1.5283
 1320SOL    HW2 9976   4.412   4.630   0.922  1.4402 -1.4724  1.2255
 1321SOL     OW 9977   2.909   4.732   0.888  0.1446  0.1972 -0.2069
 1321SOL    HW1 9978   2.947   4.713   0.978  1.0937  0.0248 -0.6285
 1321SOL    HW2 9979   2.883   4.829   0.883  0.7807  0.3893  0.0195
 1322SOL     OW 9980   2.962   5.166   0.752 -0.2931 -0.1830 -0.3032
 1322SOL    HW1 9981   2.957   5.262   0.779 -0.3993 -0.2340 -0.1359
 1322SOL    HW2 9982   2.905   5.150   0.671 -0.7088 -0.2110 -0.0114
 1323SOL     OW 9983   6.222   6.221   5.752 -0.0856 -0.4377  0.4957
 1323SOL    HW1 9984   6.312   6.244   5.788  0.0834 -1.6948  0.9231
 1323SOL    HW2 9985   6.232   6.189   5.657  0.4043 -3.5523  1.4726
 1324SOL     OW 9986   3.755   2.270   0.786  0.2162  0.3986 -0.2510
 1324SOL    HW1 9987   3.828   2.271   0.855  0.2710 -0.5271 -0.2760
 1324SOL    HW2 9988   3.759   2.183   0.736 -1.9348 -0.3966  0.8707
 1325SOL     OW 9989   1.161   3.978   6.673 -0.1658 -0.2162  0.4287
 1325SOL    HW1 9990   1.107   3.981   6.588  0.5645  1.5017 -0.0211
 1325SOL    HW2 9991   1.242   3.922   6.658 -0.0868  0.0022  0.0251
 1326SOL     OW 9992   3.105   1.195   5.810 -0.0059  0.4039 -0.3822
 1326SOL    HW1 9993   3.107   1.276   5.752 -0.1721  0.7213  0.0524
 1326SOL    HW2 9994   3.162   1.209   5.891 -0.7297  0.4298  0.1357
 1327SOL     OW 9995   4.611   1.433   0.095  0.1968  0.7163  0.8678
 1327SOL    HW1 9996   4.651   1.513   0.050  0.7118 -0.2706 -0.5084
 1327SOL    HW2 9997   4.610   1.447   0.194  0.4513  2.3313  0.6685
 1328SOL     OW 9998   3.944   1.600   6.282  0.3915 -0.2977  0.4483
 1328SOL    HW1 9999   3.960   1.571   6.377  0.7192  1.5903  1.0166
 1328SOL    HW210000   4.000   1.680   6.262 -1.9220  1.2400 -0.3109
 1329SOL     OW10001   1.346   5.559   5.844  0.0787 -0.0116 -0.1298
 1329SOL    HW110002   1.350   5.461   5.824 -1.4356 -0.3647  1.0566
 1329SOL    HW210003   1.351   5.611   5.759 -0.2679 -1.1701 -0.8797
 1330SOL     OW10004   0.872   3.180   6.187 -0.2953 -0.3074 -0.5682
 1330SOL    HW110005   0.839   3.246   6.254 -0.5982 -1.6964  0.7134
 1330SOL    HW210006   0.839   3.088   6.211  0.0066 -0.9358 -2.3476
 1331SOL     OW10007   5.783   3.476   5.498  0.0872  0.7332 -0.1534
 1331SOL    HW110008   5.849   3.551   5.496  0.1859  0.6466 -0.1474
 1331SOL    HW210009   5.826   3.395   5.536  0.3442  0.3248 -1.2760
 1332SOL     OW10010   4.716   5.656   0.201  0.0975 -0.2006  0.3770
 1332SOL    HW110011   4.739   5.573   0.150 -0.7337 -0.9186  1.1243
 1332SOL    HW210012   4.740   5.644   0.297  1.7083  1.1664  0.1814
 1333SOL     OW10013   5.109   0.015   6.195 -0.1275  0.1133 -0.4014
 1333SOL    HW110014   5.169  -0.062   6.175 -0.2583 -0.6021  1.7229
 1333SOL    HW210015   5.110   0.079   6.119  2.6231 -0.3313 -0.8179
 1334SOL     OW10016   4.939   5.842   0.133  0.0191 -0.6124  0.2747
 1334SOL    HW110017   4.968   5.796   0.050 -1.8010  0.9922 -1.3585
 1334SOL    HW210018   4.839   5.852   0.133  0.1852  1.7327  1.3644
 1335SOL     OW10019   1.789   5.023   4.759  0.1160  0.2622  0.0642
 1335SOL    HW110020   1.740   4.992   4.677  1.1335  0.4613 -0.6389
 1335SOL    HW210021   1.883   4.989   4.756  0.5781  1.4621  0.4504
 1336SOL     OW10022   4.846   4.069   1.019 -0.0429  0.2665 -0.4272
 1336SOL    HW110023   4.752   4.062   1.054 -0.1363  2.6495 -0.0495
 1336SOL    HW210024   4.900   4.127   1.080  1.2108  0.3421 -1.5628
 1337SOL     OW10025   0.218   3.107   6.379  0.5638  0.1970  0.2646
 1337SOL    HW110026   0.273   3.168   6.435 -0.3042  0.5608  0.7324
 1337SOL    HW210027   0.222   3.014   6.417 -1.6638  0.8065  2.2272
 1338SOL     OW10028   3.902   5.763   0.918  0.1661  0.0394 -0.1458
 1338SOL    HW110029   3.961   5.836   0.883 -0.6688 -0.2410 -2.2740
 1338SOL    HW210030   3.959   5.685   0.945  0.8582  0.2484 -0.9497
 1339SOL     OW10031   0.061   1.647   6.233  0.4546 -0.1508 -0.2105
 1339SOL    HW110032   0.137   1.585   6.252  1.8315  1.2424 -0.9478
 1339SOL    HW210033   0.028   1.686   6.318  0.6496 -0.6521  0.1010
 1340SOL     OW10034   1.141   1.848   5.326  0.1647 -0.1530 -0.2007
 1340SOL    HW110035   1.079   1.856   5.248 -0.5918  1.1034  0.4930
 1340SOL    HW210036   1.120   1.763   5.376 -0.6266 -0.0191 -0.2959
 1341SOL     OW10037   2.732   0.117   5.008  0.1750 -0.3412  0.1195
 1341SOL    HW110038   2.730   0.197   5.068 -1.5326  0.9667 -1.5586
 1341SOL    HW210039   2.748   0.147   4.914 -4.1077 -1.4735 -1.1480
 1342SOL     OW10040   1.028   1.253   6.451  0.0519  0.0900 -0.1218
 1342SOL    HW110041   0.982   1.320   6.393  1.5631  2.0763  0.8303
 1342SOL    HW210042   0.964   1.219   6.520 -0.9831 -0.1529 -1.1686
 1343SOL     OW10043   3.143   3.618   0.802 -0.0314  0.2493 -0.5305
 1343SOL    HW110044   3.164   3.676   0.724  0.5640  1.2702  0.3568
 1343SOL    HW210045   3.184   3.527   0.788 -0.3369  0.2673 -1.5959
 1344SOL     OW10046   1.182   1.351   0.486 -0.2168  0.0914  0.5329
 1344SOL    HW110047   1.232   1.400   0.558  1.3146 -1.0709  0.2965
 1344SOL    HW210048   1.242   1.285   0.442 -1.6585 -0.5371 -0.5782
 1345SOL     OW10049   6.241   3.183   6.354  0.1878 -0.1369  0.1435
 1345SOL    HW110050   6.337   3.177   6.327 -0.1578 -1.6659 -0.8461
 1345SOL    HW210051   6.198   3.093   6.346 -1.7903  0.8580 -1.1993
 1346SOL     OW10052   0.801   5.873   6.623  0.3447  0.3793 -0.8105
 1346SOL    HW110053   0.741   5.796   6.599  0.9643 -0.4220  0.1266
 1346SOL    HW210054   0.889   5.863   6.577  1.2272 -0.7023  0.9915
 1347SOL     OW10055   5.477   0.771   6.388 -0.3451  0.3597 -0.3213
 1347SOL    HW110056   5.515   0.837   6.324 -0.1014 -0.7544 -1.3807
 1347SOL    HW210057   5.532   0.687   6.386 -1.3794 -0.3513  0.0051
 1348SOL     OW10058   0.555   5.333   0.307 -0.2554  0.3082 -0.0992
 1348SOL    HW110059   0.512   5.421   0.286 -1.9689 -0.4726 -0.0481
 1348SOL    HW210060   0.539   5.269   0.232  1.9942  0.3375 -0.6779
 1349SOL     OW10061   4.899   6.265   1.263  0.4785 -0.2133 -0.0193
 1349SOL    HW110062   4.928   6.350   1.218  1.9848 -0.5293  0.2859
 1349SOL    HW210063   4.967   6.240   1.332 -1.0770 -0.4776  1.4782
 1350SOL     OW10064   4.766   4.725   6.635  0.0484  0.2023  0.1380
 1350SOL    HW110065   4.786   4.630   6.610 -0.7468  0.7240 -2.7735
 1350SOL    HW210066   4.768   4.782   6.554 -0.8606  2.4758  1.6252
 1351SOL     OW10067   5.903   4.593   6.382  0.1073 -0.1707  0.6396
 1351SOL    HW110068   5.991   4.552   6.405 -0.7030 -2.3326  0.0795
 1351SOL    HW210069   5.829   4.540   6.424 -1.0591 -0.1522 -1.2794
 1352SOL     OW10070   2.158   5.896   0.186 -0.4022 -0.5736  0.0261
 1352SOL    HW110071   2.085   5.865   0.125 -0.0465  1.2649 -1.4246
 1352SOL    HW210072   2.240   5.917   0.133  0.0301  0.7893  1.1776
 1353SOL     OW10073   0.651   2.523   0.866  0.2252  0.2240 -0.3651
 1353SOL    HW110074   0.696   2.472   0.939  0.7140  1.2984  0.1003
 1353SOL    HW210075   0.573   2.470   0.831  1.3148 -1.2671 -0.5972
 1354SOL     OW10076   4.075   3.053   1.212 -0.4974  0.0404 -0.5921
 1354SOL    HW110077   3.980   3.023   1.216 -0.9238  1.3604  2.0347
 1354SOL    HW210078   4.091   3.122   1.283  2.2981  0.3017 -1.3323
 1355SOL     OW10079   0.746   3.798   6.156  0.6281  0.4585 -0.2571
 1355SOL    HW110080   0.650   3.770   6.148  1.2042 -1.7533 -0.0972
 1355SOL    HW210081   0.752   3.898   6.150 -1.5274  0.5817 -1.6300
 1356SOL     OW10082   4.041   4.533   6.397  0.1026  0.5214 -0.3747
 1356SOL    HW110083   4.132   4.575   6.390  0.2562  0.1445 -0.7030
 1356SOL    HW210084   3.986   4.583   6.464  0.4352  0.9604 -0.4266
 1357SOL     OW10085   2.872   6.241   6.063 -0.0523  0.5041  0.3908
 1357SOL    HW110086   2.860   6.153   6.017  1.2177  1.0987 -1.2042
 1357SOL    HW210087   2.962   6.244   6.108 -0.1894  0.8900  0.6454
 1358SOL     OW10088   2.984   1.017   0.322 -0.2495  0.1689 -0.2251
 1358SOL    HW110089   3.071   0.980   0.288  1.3221  2.5632  0.9161
 1358SOL    HW210090   2.973   0.992   0.418  0.6590  2.1900  0.4571
 1359SOL     OW10091   5.716   2.815   0.676  0.3293  0.5798 -0.0532
 1359SOL    HW110092   5.753   2.883   0.740 -0.3199  1.9349 -1.0584
 1359SOL    HW210093   5.634   2.774   0.715  1.8051 -1.1427  1.4171
 1360SOL     OW10094   2.635   4.010   1.693  0.4307 -0.2547 -0.2644
 1360SOL    HW110095   2.655   3.915   1.715  4.1205  0.3270 -0.5183
 1360SOL    HW210096   2.597   4.056   1.774 -1.1805 -1.7893 -0.0810
 1361SOL     OW10097   5.616   2.269   6.065  0.0869  0.9922  0.1948
 1361SOL    HW110098   5.533   2.270   6.120 -0.2141  2.8931 -0.1986
 1361SOL    HW210099   5.625   2.181   6.019  0.6797 -0.9037  3.6455
 1362SOL     OW10100   5.351   4.233   0.862  0.5597 -0.0249  0.1496
 1362SOL    HW110101   5.292   4.311   0.885  1.0758  0.8532 -1.3743
 1362SOL    HW210102   5.295   4.158   0.829  0.0721 -0.2509  1.4395
 1363SOL     OW10103   1.779   5.299   0.413 -0.0095  0.2459  0.3827
 1363SOL    HW110104   1.744   5.349   0.334 -0.0896 -0.4932 -0.0589
 1363SOL    HW210105   1.748   5.343   0.497 -2.3293 -0.5817  0.0122
 1364SOL     OW10106   3.895   2.056   0.617 -0.4680  0.0386  0.2190
 1364SOL    HW110107   3.889   1.964   0.656 -1.1379  0.3962  0.9964
 1364SOL    HW210108   3.981   2.098   0.644 -0.7280  0.1125  0.9441
 1365SOL     OW10109   3.388   5.139   5.507  0.2006  0.6617  0.2511
 1365SOL    HW110110   3.383   5.198   5.426  0.0321  2.0019  1.2010
 1365SOL    HW210111   3.326   5.061   5.495 -0.1486  1.0710 -0.7224
 1366SOL     OW10112   1.201   4.222   0.057 -0.7481  0.7307 -0.4624
 1366SOL    HW110113   1.118   4.237   0.110  1.1165  0.4991  2.7286
 1366SOL    HW210114   1.202   4.128   0.022 -1.3161  0.3598  0.4803
 1367SOL     OW10115   0.926   1.122   0.024 -0.0767  0.2316 -0.3672
 1367SOL    HW110116   0.869   1.068   0.087 -1.1100  2.7565  1.0205
 1367SOL    HW210117   0.979   1.189   0.077 -0.3707  1.9123 -2.1124
 1368SOL     OW10118   4.078   5.027   6.538 -0.2743 -0.1248 -1.1454
 1368SOL    HW110119   4.145   4.953   6.526 -0.7714 -0.7274 -0.2799
 1368SOL    HW210120   3.993   5.004   6.491 -0.2544  0.1398 -1.3151
 1369SOL     OW10121   0.819   2.923   6.223 -0.4814 -0.0894  0.0296
 1369SOL    HW110122   0.911   2.893   6.251 -1.0113 -0.9601  0.8929
 1369SOL    HW210123   0.754   2.849   6.239 -1.1082 -0.0003 -1.9529
 1370SOL     OW10124   0.744   4.894   1.453 -0.7008  0.0295 -0.0478
 1370SOL    HW110125   0.806   4.833   1.503 -1.2381 -0.7616 -0.3227
 1370SOL    HW210126   0.665   4.916   1.512 -0.1633  1.0533  0.3115
 1371SOL     OW10127   2.993   2.700   5.312 -0.3609  0.0980  0.1522
 1371SOL    HW110128   3.035   2.747   5.390 -2.1468  1.5945  0.2830
 1371SOL    HW210129   3.065   2.667   5.251  1.0215  1.0278  1.2106
 1372SOL     OW10130   2.920   2.434   6.432 -0.1009 -0.1664 -0.0295
 1372SOL    HW110131   2.868   2.519   6.423  2.0875  1.5357  2.1404
 1372SOL    HW210132   3.010   2.445   6.389 -0.4102 -2.0620 -1.2730
 1373SOL     OW10133   6.144   3.808   6.556 -0.3100  0.0258 -0.0941
 1373SOL    HW110134   6.199   3.842   6.632  0.5053  1.1362 -1.1401
 1373SOL    HW210135   6.075   3.744   6.591  0.1913  0.3156  1.5302
 1374SOL     OW10136   1.842   5.763   0.805  0.2648  0.4481  0.2680
 1374SOL    HW110137   1.851   5.714   0.719  2.5002  1.5466 -0.1949
 1374SOL    HW210138   1.833   5.697   0.880 -1.8276 -0.5136 -0.7514
 1375SOL     OW10139   0.459   2.597   0.433 -0.0749  0.2214  0.3034
 1375SOL    HW110140   0.409   2.683   0.437  0.7371  0.7663 -0.8096
 1375SOL    HW210141   0.553   2.612   0.464  0.2650 -0.1063 -0.5442
 1376SOL     OW10142   0.462   5.731   6.231  0.5050 -0.6454 -0.4272
 1376SOL    HW110143   0.463   5.811   6.292 -0.9889  0.0275 -1.2288
 1376SOL    HW210144   0.542   5.734   6.171 -0.1927  0.9898 -1.3330
 1377SOL     OW10145   2.393   2.978   1.636  0.2674  0.1440  0.8397
 1377SOL    HW110146   2.396   2.997   1.734 -0.8508  0.2149  0.8757
 1377SOL    HW210147   2.434   3.055   1.586 -0.8375  0.9831  1.1755
 1378SOL     OW10148   1.480   4.349   5.933 -0.1015  0.6619  0.9053
 1378SOL    HW110149   1.459   4.323   6.027  0.5996  0.0832  0.9142
 1378SOL    HW210150   1.481   4.448   5.925  1.8550  0.7887  2.0169
 1379SOL     OW10151   3.254   4.802   1.355  0.5375  0.1404  0.1426
 1379SOL    HW110152   3.328   4.867   1.370  0.5961  0.2021 -0.4014
 1379SOL    HW210153   3.280   4.713   1.392  0.8359  0.1924  0.0576
 1380SOL     OW10154   2.099   3.128   6.241  0.4679 -0.4803  0.9166
 1380SOL    HW110155   2.009   3.156   6.205  1.1535  1.5436  0.6326
 1380SOL    HW210156   2.143   3.066   6.177  0.8903  1.6319 -0.9831
 1381SOL     OW10157   5.630   1.037   0.713  0.3088 -0.0892 -0.2075
 1381SOL    HW110158   5.647   1.125   0.757  1.1559 -0.0606 -0.5675
 1381SOL    HW210159   5.675   1.035   0.624 -0.6973 -0.4497 -0.7220
 1382SOL     OW10160   0.502   2.418   0.249  0.5445 -0.2507  0.7293
 1382SOL    HW110161   0.489   2.475   0.330 -2.9069 -0.3281  0.3707
 1382SOL    HW210162   0.469   2.325   0.268  0.9883 -0.6343 -0.3345
 1383SOL     OW10163   2.470   6.182   6.019 -0.0298  0.7835 -0.2588
 1383SOL    HW110164   2.417   6.109   5.975  0.3682  0.9596 -1.0447
 1383SOL    HW210165   2.419   6.216   6.098  0.1508 -0.8963  0.6229
 1384SOL     OW10166   3.064   6.154   6.520  0.6110  0.1567  0.0299
 1384SOL    HW110167   3.162   6.141   6.535  0.7879  1.5436  0.1373
 1384SOL    HW210168   3.026   6.214   6.589 -0.3286 -0.3430 -0.0266
 1385SOL     OW10169   1.187   2.037   1.589 -0.4285 -0.3174 -0.4119
 1385SOL    HW110170   1.173   1.946   1.629 -0.9863 -0.9920 -2.0442
 1385SOL    HW210171   1.231   2.097   1.656  0.3521 -1.9109  0.5582
 1386SOL     OW10172   1.848   6.317   1.188  0.1463  0.3352  0.3540
 1386SOL    HW110173   1.838   6.243   1.256 -1.7783 -0.2074 -0.4366
 1386SOL    HW210174   1.787   6.393   1.213 -1.4852 -0.3415 -1.2862
 1387SOL     OW10175   4.932   6.085   6.527  0.2068  0.3628  0.0103
 1387SOL    HW110176   5.019   6.085   6.577  0.9365 -1.2481 -1.1466
 1387SOL    HW210177   4.872   6.156   6.563  2.3838  2.2458  0.1701
 1388SOL     OW10178   0.070   2.961   1.035 -0.5496 -0.2891 -0.4822
 1388SOL    HW110179   0.087   3.023   1.112 -4.5727  0.8903 -0.3062
 1388SOL    HW210180   0.075   2.867   1.068 -1.8493  0.1787  1.2588
 1389SOL     OW10181   1.479   4.557   6.282 -0.1852 -0.6592 -0.2109
 1389SOL    HW110182   1.439   4.482   6.229  1.3371 -1.3695 -0.4251
 1389SOL    HW210183   1.562   4.589   6.236 -0.6012  0.9288  0.0807
 1390SOL     OW10184   5.639   3.433   1.248  0.4575  0.2170 -0.0666
 1390SOL    HW110185   5.664   3.436   1.345  0.6270 -0.5358 -0.0754
 1390SOL    HW210186   5.557   3.487   1.233  0.3887  0.2806  0.5167
 1391SOL     OW10187   1.899   2.073   5.293 -0.5488 -0.5280  0.1557
 1391SOL    HW110188   1.987   2.039   5.326  0.3693  0.3814 -1.2239
 1391SOL    HW210189   1.875   2.026   5.208 -1.4832 -0.8646  0.5911
 1392SOL     OW10190   5.745   3.627   6.509  0.2223 -0.4177 -0.5760
 1392SOL    HW110191   5.821   3.596   6.567 -0.4309  1.1735  1.2733
 1392SOL    HW210192   5.670   3.561   6.514  0.5297 -0.7542 -0.3461
 1393SOL     OW10193   4.550   0.887   6.124  0.5104  0.2567  0.2562
 1393SOL    HW110194   4.556   0.800   6.075 -1.1038 -0.2397  0.8890
 1393SOL    HW210195   4.532   0.870   6.221 -1.6393  1.2834  0.0860
 1394SOL     OW10196   5.030   4.737   1.685 -0.4693  0.2572 -0.5280
 1394SOL    HW110197   5.099   4.671   1.715 -0.5629 -0.0472 -0.9731
 1394SOL    HW210198   4.939   4.698   1.699 -0.5472  0.5842 -0.1139
 1395SOL     OW10199   2.034   4.795   5.783  0.5515 -0.4937 -0.0691
 1395SOL    HW110200   2.065   4.784   5.877 -1.1523 -0.7179  0.4985
 1395SOL    HW210201   1.970   4.722   5.759  0.8149 -0.3381 -1.3448
 1396SOL     OW10202   0.302   4.850   5.245  0.4515  0.3284  0.1792
 1396SOL    HW110203   0.350   4.840   5.157 -0.6557  2.2183 -0.7064
 1396SOL    HW210204   0.266   4.943   5.252  2.5282  1.0224  3.7267
 1397SOL     OW10205   1.596   0.575   0.008  0.1924  0.4646 -0.5493
 1397SOL    HW110206   1.628   0.481   0.022  1.8388  1.1177  0.3372
 1397SOL    HW210207   1.672   0.632  -0.022 -0.7644  1.5580 -0.9704
 1398SOL     OW10208   2.465   3.529   1.064 -0.2527  0.3601 -0.0295
 1398SOL    HW110209   2.521   3.446   1.071  0.6786  0.7168 -2.2555
 1398SOL    HW210210   2.516   3.606   1.101 -0.3404  0.2611  0.3010
 1399SOL     OW10211   3.692   1.443   5.528  0.9062  0.2992 -0.2768
 1399SOL    HW110212   3.638   1.526   5.534 -0.0632 -0.3049 -0.5078
 1399SOL    HW210213   3.776   1.461   5.476 -0.3353  0.6175 -2.2354
 1400SOL     OW10214   4.769   2.882   0.898  0.3863 -0.2879  0.1398
 1400SOL    HW110215   4.797   2.851   0.989 -0.4699 -1.0673  0.1507
 1400SOL    HW210216   4.725   2.806   0.850 -0.6627  0.5862 -0.2986
 1401SOL     OW10217   2.510   0.550   6.656  0.4088  0.3733  0.1144
 1401SOL    HW110218   2.546   0.631   6.610  1.1108  0.1692  0.3032
 1401SOL    HW210219   2.415   0.568   6.685 -0.1836  0.3870 -1.7025
 1402SOL     OW10220   3.594   4.646   6.537  0.6500 -0.1784 -0.1724
 1402SOL    HW110221   3.557   4.565   6.491  0.1877  0.1794 -0.4398
 1402SOL    HW210222   3.531   4.722   6.526  0.3469 -0.1750  1.3717
 1403SOL     OW10223   4.879   2.057   0.468 -0.6321  0.0099  0.3721
 1403SOL    HW110224   4.795   2.006   0.487 -0.2833 -1.0176 -0.6843
 1403SOL    HW210225   4.902   2.114   0.546 -1.7963 -0.4097  1.0500
 1404SOL     OW10226   1.624   4.597   5.267  0.2035  0.0401 -0.2367
 1404SOL    HW110227   1.721   4.572   5.267  0.0551 -0.5416  0.0574
 1404SOL    HW210228   1.584   4.577   5.177  0.2944  0.0537 -0.2805
 1405SOL     OW10229   6.058   1.713   0.189 -0.6106 -0.0624  0.1694
 1405SOL    HW110230   6.007   1.781   0.137 -0.0549  0.6546  0.5454
 1405SOL    HW210231   6.145   1.694   0.143 -1.1157 -1.1285 -0.3643
 1406SOL     OW10232   3.063   6.289   0.824  0.0119  0.9754 -0.3529
 1406SOL    HW110233   2.993   6.303   0.894  1.1115  0.9288  0.7832
 1406SOL    HW210234   3.019   6.258   0.740 -1.1537 -0.9246  0.8858
 1407SOL     OW10235   5.792   1.385   5.529 -0.2348 -0.1704  0.2688
 1407SOL    HW110236   5.791   1.460   5.595  0.4546  0.0939 -0.0151
 1407SOL    HW210237   5.808   1.421   5.437  1.7673 -0.7850  0.3307
 1408SOL     OW10238   5.595   4.754   0.441  0.5806  0.2981 -0.3175
 1408SOL    HW110239   5.514   4.784   0.492  0.6295 -2.1949  1.3891
 1408SOL    HW210240   5.570   4.679   0.380  1.6975 -0.9516  0.7247
 1409SOL     OW10241   4.132   5.433   0.584  0.4388  0.2900  0.0663
 1409SOL    HW110242   4.102   5.372   0.511  0.0060 -1.0091  1.2930
 1409SOL    HW210243   4.075   5.516   0.584 -0.3563 -0.2506 -0.3099
 1410SOL     OW10244   0.985   6.272   0.940 -0.6562  0.5654  0.4537
 1410SOL    HW110245   0.894   6.266   0.898  0.0183  1.9472 -1.2960
 1410SOL    HW210246   0.980   6.239   1.034 -3.0241  0.8334  0.4754
 1411SOL     OW10247   0.360   5.511   6.029  0.6858 -0.3883 -0.4192
 1411SOL    HW110248   0.432   5.454   5.989 -0.2070 -2.1668  0.3795
 1411SOL    HW210249   0.394   5.553   6.113  1.6696  1.1114 -1.5194
 1412SOL     OW10250   0.888   1.716   5.151  0.4334 -0.4108  0.1351
 1412SOL    HW110251   0.930   1.648   5.210  0.6886 -0.1762  0.2283
 1412SOL    HW210252   0.959   1.775   5.112  0.1540  0.3194  0.7103
 1413SOL     OW10253   5.453   5.863   5.153  0.3383 -0.2420 -0.0672
 1413SOL    HW110254   5.369   5.883   5.102  1.1658  0.5847 -1.1737
 1413SOL    HW210255   5.481   5.768   5.135 -0.8293 -0.8279  1.0530
 1414SOL     OW10256   1.619   5.584   6.456 -0.1347  0.1651  0.0214
 1414SOL    HW110257   1.620   5.565   6.358 -1.2529 -0.7492  0.1687
 1414SOL    HW210258   1.528   5.564   6.493  0.2085  0.7095  1.2065
 1415SOL     OW10259   3.293   4.821   5.678 -0.5486  0.4800  0.1887
 1415SOL    HW110260   3.284   4.859   5.585 -1.6766 -0.5312 -0.1470
 1415SOL    HW210261   3.238   4.738   5.685 -0.7672  0.7302  1.8848
 1416SOL     OW10262   6.079   6.056   1.564  0.1389  0.5278  0.0340
 1416SOL    HW110263   6.054   6.054   1.661  0.1991 -1.1044  0.0517
 1416SOL    HW210264   6.171   6.018   1.553  0.1889  0.8393 -0.6464
 1417SOL     OW10265   0.893   6.204   1.233 -0.0429  0.2606  0.2828
 1417SOL    HW110266   0.832   6.256   1.292  1.1538  1.4504  0.5388
 1417SOL    HW210267   0.885   6.107   1.252 -0.3020  0.5667  1.7964
 1418SOL     OW10268   5.961   3.663   6.111 -0.6192 -0.4821 -0.2094
 1418SOL    HW110269   5.953   3.674   6.012  0.4497 -0.7010 -0.3353
 1418SOL    HW210270   5.870   3.647   6.150 -1.5895  3.0149 -0.6950
 1419SOL     OW10271   1.364   5.771   5.061  0.5503  0.4781  0.0107
 1419SOL    HW110272   1.439   5.782   4.996 -0.5636 -0.2315 -1.4466
 1419SOL    HW210273   1.299   5.704   5.026 -0.7044  0.9751  1.3045
 1420SOL     OW10274   1.093   0.223   0.661 -0.5271  0.1798  0.6303
 1420SOL    HW110275   1.110   0.150   0.596  1.6686 -0.1310  1.4661
 1420SOL    HW210276   1.108   0.190   0.754  0.0422  1.5407  1.0581
 1421SOL     OW10277   2.251   4.850   5.607  0.2005  0.5965 -0.0016
 1421SOL    HW110278   2.335   4.837   5.660  0.2295 -1.3753 -0.4478
 1421SOL    HW210279   2.172   4.827   5.663  0.2382 -1.6503 -0.7588
 1422SOL     OW10280   4.551   0.662   6.000 -0.4414  0.1563 -0.1229
 1422SOL    HW110281   4.611   0.616   5.935  0.3318 -0.7517  1.2116
 1422SOL    HW210282   4.456   0.638   5.978 -0.1318 -1.0505 -0.2432
 1423SOL     OW10283   5.952   5.380   5.954 -0.4751  0.0907  0.7033
 1423SOL    HW110284   6.013   5.459   5.952  0.9080 -0.9381 -0.8122
 1423SOL    HW210285   5.925   5.357   5.861 -0.8172 -1.2238  1.1108
 1424SOL     OW10286   2.677   2.321   5.866 -0.2972  0.5393 -0.3646
 1424SOL    HW110287   2.636   2.235   5.836  1.4082 -0.2236 -0.6164
 1424SOL    HW210288   2.670   2.328   5.965 -3.0693  1.5472 -0.5564
 1425SOL     OW10289   4.290   4.403   1.547 -0.8905  0.7901  0.0803
 1425SOL    HW110290   4.213   4.360   1.594 -0.0310 -0.0759  0.7323
 1425SOL    HW210291   4.336   4.466   1.610  1.4118 -1.7754  1.1359
 1426SOL     OW10292   1.063   3.614   0.411 -0.0343 -0.3127 -0.4273
 1426SOL    HW110293   1.008   3.627   0.493  1.4744  1.6349  0.3461
 1426SOL    HW210294   1.038   3.528   0.367 -2.2564 -0.4428  0.9650
 1427SOL     OW10295   1.412   3.627   0.244 -0.1151 -0.0631  0.2517
 1427SOL    HW110296   1.429   3.725   0.237 -1.2797  0.1682  0.5323
 1427SOL    HW210297   1.488   3.577   0.202  0.9593  0.9248  0.9696
 1428SOL     OW10298   0.739   3.213   0.069  0.0485 -0.6368  0.1331
 1428SOL    HW110299   0.811   3.282   0.069  1.2129 -1.7834 -0.9554
 1428SOL    HW210300   0.752   3.151   0.147  1.3283 -1.8444 -0.9700
 1429SOL     OW10301   2.102   2.817   5.666 -0.3009  0.0263  0.0937
 1429SOL    HW110302   2.202   2.819   5.663 -0.2501 -0.7160  0.8074
 1429SOL    HW210303   2.069   2.884   5.732 -0.1959 -0.7040  0.8994
 1430SOL     OW10304   2.576   2.056   0.946  1.0560  0.7452 -0.5531
 1430SOL    HW110305   2.634   2.118   0.999 -1.7806  2.1063  1.1982
 1430SOL    HW210306   2.598   1.961   0.970  1.5463  1.2728  1.2707
 1431SOL     OW10307   2.873   5.791   5.405 -0.4912 -0.2427 -0.1140
 1431SOL    HW110308   2.870   5.854   5.327 -0.9252 -0.2734 -0.1220
 1431SOL    HW210309   2.953   5.813   5.461  0.2751 -0.7241 -0.9835
 1432SOL     OW10310   5.711   1.142   6.650 -0.2242  0.1237 -0.4922
 1432SOL    HW110311   5.719   1.229   6.603  0.3897  0.5616  0.4044
 1432SOL    HW210312   5.799   1.096   6.650 -0.3219 -0.0681 -0.1422
 1433SOL     OW10313   3.903   0.396   1.393  0.1051 -0.0280  0.4772
 1433SOL    HW110314   3.933   0.468   1.331 -1.7422 -1.3730 -2.1833
 1433SOL    HW210315   3.982   0.357   1.440  1.3894  2.0823  0.1884
 1434SOL     OW10316   1.607   3.008   1.154  0.1751 -0.5654  0.2364
 1434SOL    HW110317   1.538   2.961   1.209 -0.2515 -1.1213 -0.7604
 1434SOL    HW210318   1.692   3.015   1.207 -0.0790 -1.5159  0.7922
 1435SOL     OW10319   4.918   3.023   0.314 -0.2591  0.4605 -0.2311
 1435SOL    HW110320   4.859   2.973   0.378 -2.0235  0.5691 -1.7094
 1435SOL    HW210321   4.933   3.116   0.349  0.4294 -0.0682  0.9584
 1436SOL     OW10322   5.036   4.260   6.075 -0.2885  0.3170  0.1300
 1436SOL    HW110323   5.094   4.187   6.109  0.1349 -0.8566 -2.7924
 1436SOL    HW210324   4.947   4.222   6.048 -0.7582  1.2426  0.3231
 1437SOL     OW10325   1.862   3.302   6.221  0.1819  0.0096 -0.2436
 1437SOL    HW110326   1.870   3.332   6.126  1.1946  0.2698 -0.0867
 1437SOL    HW210327   1.915   3.362   6.280 -1.6901  0.7986  0.7161
 1438SOL     OW10328   6.052   1.506   0.373  0.7738 -0.6036  0.0894
 1438SOL    HW110329   6.052   1.591   0.320  0.4273 -0.7348 -0.1242
 1438SOL    HW210330   5.990   1.440   0.331  1.7922 -1.3298 -0.3253
 1439SOL     OW10331   5.253   2.363   0.587 -0.4345  0.7953  0.2257
 1439SOL    HW110332   5.222   2.399   0.675 -0.5718  0.2216  0.4137
 1439SOL    HW210333   5.343   2.400   0.565  0.6919 -0.8685  1.7332
 1440SOL     OW10334   5.972   2.070   0.759 -0.4191  0.4586 -0.0707
 1440SOL    HW110335   5.960   2.075   0.858  2.8387 -1.0745  0.5405
 1440SOL    HW210336   5.987   1.975   0.733  0.6240  1.0469 -1.7460
 1441SOL     OW10337   2.199   2.159   5.434  0.1661  0.6507  0.3306
 1441SOL    HW110338   2.267   2.131   5.366  0.1946  1.0591  0.1841
 1441SOL    HW210339   2.172   2.080   5.489  0.5402  0.4269  0.1974
 1442SOL     OW10340   5.705   4.306   0.254 -0.5045  0.0499  0.1469
 1442SOL    HW110341   5.650   4.226   0.230 -0.5803  0.1035  0.1373
 1442SOL    HW210342   5.795   4.299   0.211 -0.2265 -0.4062  0.7876
 1443SOL     OW10343   0.405   4.906   5.862 -0.0731  0.3668 -0.8083
 1443SOL    HW110344   0.380   4.926   5.768  0.1038  1.7168 -0.6010
 1443SOL    HW210345   0.443   4.814   5.869  0.7916  0.5903 -2.2238
 1444SOL     OW10346   2.307   2.655   6.675 -0.2554  0.1400 -0.4582
 1444SOL    HW110347   2.214   2.686   6.657  0.3259  1.2298 -1.7354
 1444SOL    HW210348   2.327   2.575   6.618 -0.6244 -0.5142  0.3191
 1445SOL     OW10349   1.837   1.941   6.489  0.3489  0.1628  0.4980
 1445SOL    HW110350   1.787   2.023   6.458  1.5866  0.5387 -0.6412
 1445SOL    HW210351   1.787   1.897   6.562 -0.5327  1.7638  0.9148
 1446SOL     OW10352   5.337   0.816   0.190  0.1024 -0.8004 -0.1085
 1446SOL    HW110353   5.408   0.851   0.128  1.8338 -1.6911  1.2695
 1446SOL    HW210354   5.371   0.733   0.235 -1.6953 -1.0358  0.8891
 1447SOL     OW10355   0.197   3.555   1.544 -0.1130 -0.9147 -0.2995
 1447SOL    HW110356   0.282   3.580   1.590 -0.2765 -2.8136  1.1768
 1447SOL    HW210357   0.217   3.512   1.456  0.4155 -0.6887 -0.2880
 1448SOL     OW10358   2.270   4.116   6.473 -0.2053  0.5078  0.1042
 1448SOL    HW110359   2.232   4.024   6.472 -2.1890  1.2187  2.1155
 1448SOL    HW210360   2.197   4.183   6.481  1.1834  2.3236 -1.3607
 1449SOL     OW10361   5.178   3.467   5.811  1.0679 -0.2321 -0.3921
 1449SOL    HW110362   5.139   3.552   5.846 -0.7800 -1.3457  0.4275
 1449SOL    HW210363   5.214   3.482   5.719 -0.0248  1.2212 -0.6173
 1450SOL     OW10364   1.070   4.383   5.940 -0.3292  0.2035 -0.0692
 1450SOL    HW110365   1.156   4.332   5.938 -0.2418  0.3623 -0.8344
 1450SOL    HW210366   1.001   4.333   5.888 -1.3862 -1.0621  2.3992
 1451SOL     OW10367   4.807   2.784   1.141  0.4077 -0.0776 -1.1685
 1451SOL    HW110368   4.832   2.815   1.233 -4.3691 -1.3775  0.8986
 1451SOL    HW210369   4.849   2.695   1.124  1.5585  0.2835 -0.3788
 1452SOL     OW10370   6.108   5.007   6.105 -0.6134  0.0541 -0.0100
 1452SOL    HW110371   6.174   4.933   6.115  0.0005  0.2674 -2.0697
 1452SOL    HW210372   6.016   4.972   6.123 -0.1117 -0.5649  1.5451
 1453SOL     OW10373   0.326   2.103   0.110 -0.4131 -0.2000  0.1541
 1453SOL    HW110374   0.387   2.155   0.051 -1.0087  1.5082  0.9862
 1453SOL    HW210375   0.275   2.036   0.056  1.3174 -0.8597 -0.7275
 1454SOL     OW10376   3.016   4.366   5.576 -0.3308 -0.5711 -0.2118
 1454SOL    HW110377   3.064   4.293   5.527 -0.7989 -0.9039 -0.1851
 1454SOL    HW210378   2.926   4.333   5.604 -1.9107  1.0233 -3.0142
 1455SOL     OW10379   2.291   5.983   5.944  0.4560  0.0201 -0.3782
 1455SOL    HW110380   2.306   5.986   5.845  0.4208  0.9590 -0.3707
 1455SOL    HW210381   2.203   5.941   5.963  0.7009 -0.6622 -0.7139
 1456SOL     OW10382   3.481   3.472   5.761 -0.2575  0.1669  0.0466
 1456SOL    HW110383   3.495   3.542   5.691  0.5045 -0.3501 -0.3290
 1456SOL    HW210384   3.413   3.505   5.827  0.6248  1.5808  0.3067
 1457SOL     OW10385   2.130   3.896   6.459 -0.4277 -0.6470 -0.0446
 1457SOL    HW110386   2.112   3.798   6.459 -1.1378 -0.5774 -2.2592
 1457SOL    HW210387   2.077   3.940   6.532  0.5025 -1.9645  1.4737
 1458SOL     OW10388   4.089   1.441   1.275  0.2838 -0.3126 -0.3086
 1458SOL    HW110389   4.125   1.349   1.258  0.0536 -0.4621  0.0030
 1458SOL    HW210390   4.009   1.435   1.334 -0.0605  0.0477 -0.7366
 1459SOL     OW10391   2.579   2.341   4.621  0.1927 -0.1109 -1.0022
 1459SOL    HW110392   2.574   2.257   4.566 -1.8860 -0.1743 -0.7827
 1459SOL    HW210393   2.501   2.400   4.599  0.1393  0.5338  0.8079
 1460SOL     OW10394   0.337   5.559   0.802 -0.0275  0.8288 -0.3080
 1460SOL    HW110395   0.412   5.621   0.827  0.3146  0.3122 -0.0438
 1460SOL    HW210396   0.371   5.489   0.739 -0.3841  0.8316 -0.5050
 1461SOL     OW10397   2.470   3.213   5.247 -0.0555  0.3828 -0.1401
 1461SOL    HW110398   2.398   3.270   5.288  1.0024  0.5646  1.5680
 1461SOL    HW210399   2.479   3.235   5.150  1.4305  4.4355  0.7274
 1462SOL     OW10400   3.871   1.607   0.472 -0.1703  0.2008  0.3089
 1462SOL    HW110401   3.870   1.700   0.435  0.7634  0.6816  1.4347
 1462SOL    HW210402   3.835   1.607   0.565 -3.5467 -1.1754 -0.8483
 1463SOL     OW10403   5.380   4.442   6.187 -0.1022  0.2142  0.5040
 1463SOL    HW110404   5.294   4.468   6.142 -0.6878 -0.9363  0.9190
 1463SOL    HW210405   5.396   4.344   6.174  1.2790  0.4527  0.2384
 1464SOL     OW10406   4.660   3.688   0.059  0.9521 -0.3661 -0.8168
 1464SOL    HW110407   4.606   3.744  -0.003  0.2987  0.6476  0.6068
 1464SOL    HW210408   4.609   3.605   0.083  0.5307 -0.0054 -0.4403
 1465SOL     OW10409   4.926   3.605   6.203  0.0314  0.2607 -0.2760
 1465SOL    HW110410   4.834   3.593   6.240  0.3730 -1.7267  0.0572
 1465SOL    HW210411   4.926   3.580   6.106 -0.1972  2.3823 -0.8662
 1466SOL     OW10412   5.413   0.255   1.564 -0.4466 -0.0950  0.0674
 1466SOL    HW110413   5.403   0.304   1.651 -0.1284  0.3143 -0.1257
 1466SOL    HW210414   5.477   0.179   1.577  0.3663  0.5561 -0.0445
 1467SOL     OW10415   0.826   1.037   0.459  0.1043 -0.1622  0.6104
 1467SOL    HW110416   0.923   1.017   0.467 -0.0712 -1.4611 -0.1838
 1467SOL    HW210417   0.798   1.099   0.533  1.5618  0.4115  0.7077
 1468SOL     OW10418   5.189   1.238   5.732  0.6783  0.0744  0.3556
 1468SOL    HW110419   5.216   1.241   5.828  1.0517  0.9293  0.2359
 1468SOL    HW210420   5.136   1.320   5.709  0.5625 -0.1365 -0.1561
 1469SOL     OW10421   2.817   5.532   0.573  0.6117 -0.2819 -0.9786
 1469SOL    HW110422   2.837   5.616   0.523  0.3025  0.1271 -0.4318
 1469SOL    HW210423   2.780   5.464   0.510  0.1769  0.2400 -1.3003
 1470SOL     OW10424   0.184   4.511   1.623 -0.0554 -0.7719 -1.3258
 1470SOL    HW110425   0.230   4.433   1.582  0.1284 -1.3113 -0.1509
 1470SOL    HW210426   0.134   4.481   1.705  1.1161  0.5283 -0.0711
 1471SOL     OW10427   4.053   2.588   5.658  0.1104 -0.0242 -0.5103
 1471SOL    HW110428   3.968   2.636   5.680  0.4002  1.1459 -1.7870
 1471SOL    HW210429   4.087   2.619   5.570  1.4912 -1.0160 -0.3669
 1472SOL     OW10430   1.860   1.702   6.325  0.1401 -0.3169 -0.5860
 1472SOL    HW110431   1.778   1.679   6.273 -1.0335 -1.8331  1.7265
 1472SOL    HW210432   1.834   1.759   6.404  1.9082  2.3095 -1.7615
 1473SOL     OW10433   1.844   5.237   1.567  0.5792  0.0408  0.3950
 1473SOL    HW110434   1.849   5.260   1.470 -2.2435  1.9535  0.5742
 1473SOL    HW210435   1.926   5.270   1.614  0.0695  3.1973 -0.6724
 1474SOL     OW10436   2.304   1.104   0.991  0.2440  0.4291 -0.1915
 1474SOL    HW110437   2.357   1.189   0.994  2.8667 -1.1239  1.9040
 1474SOL    HW210438   2.281   1.076   1.084 -0.3604 -1.2776 -0.8216
 1475SOL     OW10439   5.862   3.301   0.405 -0.2343  0.0759 -0.4412
 1475SOL    HW110440   5.953   3.282   0.368 -0.5164 -0.2236 -0.9950
 1475SOL    HW210441   5.796   3.238   0.364 -0.3746 -1.1147  1.4694
 1476SOL     OW10442   1.201   2.160   0.409  0.0479  0.1403 -0.5426
 1476SOL    HW110443   1.250   2.215   0.341  2.6821 -2.1111 -0.6375
 1476SOL    HW210444   1.217   2.198   0.500 -1.3448  1.6611 -0.8870
 1477SOL     OW10445   2.785   4.289   5.666  0.0374  0.3208 -0.2996
 1477SOL    HW110446   2.750   4.209   5.714 -0.5275  1.5455  1.4541
 1477SOL    HW210447   2.713   4.328   5.608 -0.1940  0.4429  0.0655
 1478SOL     OW10448   6.240   2.945   0.704 -0.7017  0.4425  0.0317
 1478SOL    HW110449   6.192   2.858   0.717  1.1299 -0.7770 -0.8962
 1478SOL    HW210450   6.314   2.952   0.771 -1.5513  1.8994  0.8849
 1479SOL     OW10451   0.705   6.318   0.359 -0.2399  0.1972 -0.1906
 1479SOL    HW110452   0.761   6.238   0.379 -1.6164 -0.5869  0.6989
 1479SOL    HW210453   0.645   6.338   0.437  0.0965  2.1431 -0.3670
 1480SOL     OW10454   2.753   1.079   0.593  0.6417 -0.2518 -0.3019
 1480SOL    HW110455   2.825   1.045   0.655  0.3283 -0.7687 -0.2161
 1480SOL    HW210456   2.767   1.040   0.502  1.3883  0.8889 -0.6954
 1481SOL     OW10457   1.499   5.931   0.588  0.7039 -0.7750  0.9198
 1481SOL    HW110458   1.530   6.026   0.596  1.5407 -1.0383  0.8593
 1481SOL    HW210459   1.440   5.909   0.666 -0.6622  0.2136  0.2131
 1482SOL     OW10460   1.312   3.249   0.137 -0.1973  0.1356  0.6385
 1482SOL    HW110461   1.313   3.200   0.050 -1.4151 -0.8585  1.1530
 1482SOL    HW210462   1.273   3.340   0.124  0.2937  0.2617  0.0240
 1483SOL     OW10463   2.644   2.464   0.195  0.2464  0.4536  0.0077
 1483SOL    HW110464   2.670   2.386   0.139  1.7229  0.7566  0.2270
 1483SOL    HW210465   2.651   2.548   0.141  1.2115  0.6956  0.4860
 1484SOL     OW10466   3.949   3.300   1.061  0.5316 -0.8135 -0.0677
 1484SOL    HW110467   4.023   3.351   1.103  0.9161 -1.8158  0.5004
 1484SOL    HW210468   3.890   3.362   1.009  2.2364 -0.1126 -1.2208
 1485SOL     OW10469   2.933   5.953   5.204  0.2565 -0.0907  0.5053
 1485SOL    HW110470   2.978   5.914   5.123 -0.0302  1.3032 -0.3681
 1485SOL    HW210471   2.853   6.005   5.175 -0.3849 -0.3303  1.7956
 1486SOL     OW10472   5.829   3.700   1.255  0.7588 -0.4121  0.0390
 1486SOL    HW110473   5.732   3.725   1.261  0.4089  0.0541 -4.4531
 1486SOL    HW210474   5.852   3.637   1.329 -3.2223 -1.3853  0.6471
 1487SOL     OW10475   5.234   0.024   0.821 -0.3401  0.0121  0.5951
 1487SOL    HW110476   5.204   0.115   0.849 -0.8016  0.3836 -1.0270
 1487SOL    HW210477   5.162  -0.020   0.768  0.9086 -0.1774 -1.0201
 1488SOL     OW10478   1.860   1.126   0.778  0.0147 -0.3067 -0.1309
 1488SOL    HW110479   1.858   1.212   0.830 -1.1750 -0.3419 -0.0961
 1488SOL    HW210480   1.788   1.127   0.709 -0.7503 -1.7103  0.5918
 1489SOL     OW10481   2.398   4.454   5.017  0.4330 -0.2159  0.6959
 1489SOL    HW110482   2.374   4.486   4.925 -0.3958 -0.4032  0.8429
 1489SOL    HW210483   2.480   4.398   5.012  0.1652 -0.5582  0.0141
 1490SOL     OW10484   1.905   4.645   1.606  0.2371  0.0641 -0.0019
 1490SOL    HW110485   1.819   4.696   1.604  0.1587  0.0149  1.1717
 1490SOL    HW210486   1.944   4.648   1.698  0.5587 -1.4339 -0.0474
 1491SOL     OW10487   3.965   5.706   6.617 -0.5358  0.0795  0.1589
 1491SOL    HW110488   3.875   5.675   6.586 -0.6616  1.1118 -0.5605
 1491SOL    HW210489   3.965   5.715   6.717 -0.5240 -2.0479  0.3859
 1492SOL     OW10490   5.001   3.266   5.862 -0.0733  0.6251  0.4251
 1492SOL    HW110491   5.079   3.312   5.819 -0.2972  0.8928  0.3014
 1492SOL    HW210492   5.007   3.167   5.845 -0.4810  0.7833 -0.7639
 1493SOL     OW10493   5.662   4.308   6.194 -0.5035 -0.2283 -0.0207
 1493SOL    HW110494   5.670   4.220   6.148 -1.4221  0.3444 -1.3331
 1493SOL    HW210495   5.567   4.338   6.192  0.0617  1.6647 -1.2883
 1494SOL     OW10496   5.131   0.365   5.807 -0.2458  0.3558  0.1559
 1494SOL    HW110497   5.138   0.346   5.709 -1.3095  0.2126  0.0919
 1494SOL    HW210498   5.094   0.284   5.854 -1.2155  0.9517  0.4445
 1495SOL     OW10499   0.560   3.597   5.412 -0.5243 -0.2983  0.3944
 1495SOL    HW110500   0.581   3.505   5.379 -0.0167 -0.6309  1.5564
 1495SOL    HW210501   0.588   3.664   5.344  0.6807 -0.9361  0.2242
 1496SOL     OW10502   0.980   4.033   5.950  0.2644  0.2187 -0.4400
 1496SOL    HW110503   0.919   4.066   6.022  0.3297 -0.0673 -0.2485
 1496SOL    HW210504   1.074   4.057   5.973  0.7178 -2.6246  1.2617
 1497SOL     OW10505   3.847   4.462   5.226 -0.2636  0.2317 -0.1062
 1497SOL    HW110506   3.795   4.388   5.184  0.8566 -0.0594 -1.0355
 1497SOL    HW210507   3.936   4.470   5.181  0.0368  1.4829  0.6530
 1498SOL     OW10508   5.307   2.573   1.436  0.2092  0.4787 -0.2843
 1498SOL    HW110509   5.379   2.640   1.414  0.2358  0.5573  0.0434
 1498SOL    HW210510   5.349   2.492   1.476  0.2022  0.1617 -0.8962
 1499SOL     OW10511   4.951   1.215   5.345  0.2364  0.2819  0.2102
 1499SOL    HW110512   4.971   1.311   5.362  0.0127  0.4551 -0.4817
 1499SOL    HW210513   4.926   1.202   5.249  2.0157 -0.7680 -0.1549
 1500SOL     OW10514   1.825   5.164   5.689  0.1613 -0.0044 -0.4305
 1500SOL    HW110515   1.902   5.209   5.645 -0.1340  0.3351 -0.6069
 1500SOL    HW210516   1.803   5.211   5.774  0.9615 -0.8790  0.2751
 1501SOL     OW10517   5.507   4.016   0.548  0.3445 -0.2160 -0.4377
 1501SOL    HW110518   5.460   4.095   0.509  2.8295  0.7229 -1.6680
 1501SOL    HW210519   5.604   4.018   0.525  0.6500 -3.2951  0.0529
 1502SOL     OW10520   3.501   0.657   5.159 -0.2837  0.6147  0.2433
 1502SOL    HW110521   3.578   0.715   5.185  0.7148 -0.5021 -0.1708
 1502SOL    HW210522   3.492   0.656   5.060 -0.1057 -0.1763  0.2325
 1503SOL     OW10523   4.415   0.469   1.025  0.0051  0.4712  0.1201
 1503SOL    HW110524   4.436   0.381   1.067  1.5053 -0.2101 -1.9253
 1503SOL    HW210525   4.467   0.541   1.072 -1.7144  0.4325  2.2166
 1504SOL     OW10526   0.964   0.942   5.153 -0.7425 -0.2198 -0.0596
 1504SOL    HW110527   1.017   1.000   5.091  0.0305 -2.0723 -1.1817
 1504SOL    HW210528   0.879   0.915   5.109 -1.1582  0.1257  0.5140
 1505SOL     OW10529   2.116   3.448   0.829  0.0465  0.0498 -0.1469
 1505SOL    HW110530   2.132   3.367   0.886 -0.8687 -0.8732 -1.1396
 1505SOL    HW210531   2.113   3.421   0.733 -1.6952  0.9964 -0.4168
 1506SOL     OW10532   3.719   1.387   5.872  0.2641 -0.8315  0.6619
 1506SOL    HW110533   3.733   1.295   5.835  2.3092  0.3941 -1.9410
 1506SOL    HW210534   3.800   1.415   5.923  0.1581 -0.0381  0.4110
 1507SOL     OW10535   4.485   5.827   0.139  0.1078  0.0140 -0.1722
 1507SOL    HW110536   4.561   5.763   0.150  0.8086  0.5242 -1.7773
 1507SOL    HW210537   4.414   5.806   0.206  2.1879  0.3360  2.3009
 1508SOL     OW10538   2.481   4.386   6.676 -0.9275  0.2346  0.2061
 1508SOL    HW110539   2.419   4.455   6.640 -0.6757 -0.0086 -0.7356
 1508SOL    HW210540   2.551   4.365   6.607 -0.2119  0.0102  0.9852
 1509SOL     OW10541   2.805   6.222   5.120  0.0637  0.5476 -0.1650
 1509SOL    HW110542   2.819   6.258   5.212  0.5830 -1.3231  0.5359
 1509SOL    HW210543   2.769   6.294   5.061  1.2570  2.2459  1.0685
 1510SOL     OW10544   2.733   1.894   5.473 -0.2805 -0.6418 -0.1313
 1510SOL    HW110545   2.806   1.958   5.498  0.9335 -1.5295 -1.2522
 1510SOL    HW210546   2.665   1.890   5.546  1.1009 -0.2115  1.2132
 1511SOL     OW10547   1.580   4.073   6.188 -0.1787  0.4909  0.3606
 1511SOL    HW110548   1.562   4.039   6.281  1.1888 -0.6335  0.2446
 1511SOL    HW210549   1.589   3.995   6.126 -0.6422  1.2268 -0.6379
 1512SOL     OW10550   0.859   2.194   5.998 -0.1797 -0.2200 -0.0868
 1512SOL    HW110551   0.803   2.235   5.927 -0.1765  0.0154  0.0469
 1512SOL    HW210552   0.951   2.234   5.997  0.2892 -1.2635 -0.9184
 1513SOL     OW10553   5.261   4.434   5.330 -0.0358  0.1408 -0.4558
 1513SOL    HW110554   5.174   4.401   5.367  0.5560  0.8409  1.7188
 1513SOL    HW210555   5.268   4.409   5.234 -2.0766 -1.0317 -0.3552
 1514SOL     OW10556   3.359   0.085   0.954  0.3642 -0.7053 -0.2572
 1514SOL    HW110557   3.342   0.178   0.921  0.6605 -0.4347  0.3363
 1514SOL    HW210558   3.272   0.043   0.979  0.3760  0.2494  1.6370
 1515SOL     OW10559   5.504   3.113   6.270 -0.0290  0.4148  0.2148
 1515SOL    HW110560   5.474   3.169   6.347  0.5771  1.2273 -0.1277
 1515SOL    HW210561   5.550   3.171   6.202  0.6424 -0.5011 -0.1332
 1516SOL     OW10562   1.074   2.893   4.978  0.2046 -0.3514 -0.0530
 1516SOL    HW110563   1.131   2.821   5.018  2.4165  1.8515  1.0865
 1516SOL    HW210564   1.090   2.896   4.879 -0.6333 -1.9589 -0.2699
 1517SOL     OW10565   5.997   5.103   0.139  0.5203  0.2481 -0.1819
 1517SOL    HW110566   6.054   5.159   0.079  0.6373 -0.3004 -0.5919
 1517SOL    HW210567   6.056   5.060   0.208  0.6894 -0.6886 -0.8888
 1518SOL     OW10568   1.527   4.763   0.912 -0.4652  0.1988  0.0961
 1518SOL    HW110569   1.561   4.842   0.962  0.5319 -0.4360  0.4588
 1518SOL    HW210570   1.525   4.684   0.973 -3.6777  0.4190  0.4039
 1519SOL     OW10571   5.941   0.141   0.683 -0.4910  0.0963  0.2443
 1519SOL    HW110572   5.950   0.241   0.676  2.6523 -0.0016  1.3821
 1519SOL    HW210573   5.852   0.119   0.725 -1.8568  2.2869 -1.2541
 1520SOL     OW10574   5.089   4.375   1.706  0.1551 -0.2595  0.5920
 1520SOL    HW110575   4.997   4.344   1.732  0.2121 -0.8751  0.1134
 1520SOL    HW210576   5.133   4.419   1.784 -0.1521 -0.9040  1.1443
 1521SOL     OW10577   1.772   3.554   5.825 -0.0092 -0.2802 -0.2949
 1521SOL    HW110578   1.677   3.535   5.852 -0.1389 -0.6294 -0.9835
 1521SOL    HW210579   1.778   3.559   5.726  0.2127  2.2635 -0.2352
 1522SOL     OW10580   2.196   1.560   5.491 -0.2041  0.3651 -0.6154
 1522SOL    HW110581   2.098   1.580   5.494  0.1207  2.1309 -0.5970
 1522SOL    HW210582   2.228   1.569   5.396 -0.0742 -0.3162 -0.6386
 1523SOL     OW10583   0.145   4.091   1.192 -0.4639  0.1211 -0.2496
 1523SOL    HW110584   0.098   4.096   1.280 -1.0701  2.3464 -0.6329
 1523SOL    HW210585   0.165   3.995   1.170  1.3411 -0.4101  3.1054
 1524SOL     OW10586   3.646   4.656   6.196 -0.3206  0.1946 -0.5963
 1524SOL    HW110587   3.725   4.706   6.160  1.2996 -0.7873  1.4008
 1524SOL    HW210588   3.639   4.672   6.294 -2.5596  0.1221 -0.6939
 1525SOL     OW10589   2.081   6.226   5.873  0.2741  0.5711 -0.3842
 1525SOL    HW110590   2.168   6.261   5.839 -0.0729  1.3602 -0.4692
 1525SOL    HW210591   2.095   6.135   5.913  0.9243  0.1815 -1.4495
 1526SOL     OW10592   2.880   0.667   0.947  0.1651  0.2406 -0.3760
 1526SOL    HW110593   2.863   0.573   0.917  0.6150 -0.5798  1.7760
 1526SOL    HW210594   2.795   0.707   0.982  0.5949 -0.5507  1.6951
 1527SOL     OW10595   4.406   6.298   5.463 -0.1537 -0.6104  0.4988
 1527SOL    HW110596   4.414   6.242   5.381  3.1861  0.8707 -0.3736
 1527SOL    HW210597   4.490   6.290   5.517  1.0565  4.1231 -0.2376
 1528SOL     OW10598   0.676   2.978   5.290 -0.0538  0.1186 -0.4130
 1528SOL    HW110599   0.592   2.997   5.238 -1.9510 -3.3631  1.0560
 1528SOL    HW210600   0.667   3.014   5.383  0.2445  0.0446 -0.3533
 1529SOL     OW10601   4.493   2.990   6.129 -0.1076  0.3992  0.0860
 1529SOL    HW110602   4.511   2.967   6.224 -0.3183 -1.3286 -0.2561
 1529SOL    HW210603   4.395   2.987   6.111 -0.0047 -0.4102 -0.4229
 1530SOL     OW10604   2.799   3.346   0.764 -0.2718  0.3483 -0.2238
 1530SOL    HW110605   2.822   3.435   0.804 -0.3201  0.5301 -0.5950
 1530SOL    HW210606   2.819   3.347   0.666  0.2308 -0.2288 -0.1327
 1531SOL     OW10607   3.810   6.070   5.639  0.3022  0.2624 -0.0519
 1531SOL    HW110608   3.799   6.138   5.712 -0.6529 -0.2715  0.3174
 1531SOL    HW210609   3.723   6.026   5.622  0.9904 -1.1515 -0.0136
 1532SOL     OW10610   6.108   3.301   0.237 -0.2757  0.1768  0.4708
 1532SOL    HW110611   6.141   3.383   0.285 -0.5244  0.7743 -0.3495
 1532SOL    HW210612   6.180   3.232   0.236  0.3012  0.7702  0.2963
 1533SOL     OW10613   0.133   6.172   0.884 -0.0012 -0.9757  0.1035
 1533SOL    HW110614   0.102   6.202   0.975 -0.2002 -0.9826  0.0382
 1533SOL    HW210615   0.073   6.211   0.814  0.9105  0.0800 -0.1182
 1534SOL     OW10616   1.465   4.137   0.466 -0.5356 -0.0711 -0.6223
 1534SOL    HW110617   1.560   4.167   0.480 -0.9124 -0.0759  2.9255
 1534SOL    HW210618   1.433   4.169   0.377  2.5606  0.4906 -1.6623
 1535SOL     OW10619   0.330   0.798   0.144 -0.1406  0.0536  0.2943
 1535SOL    HW110620   0.301   0.788   0.239  1.5789  0.4393  0.8909
 1535SOL    HW210621   0.429   0.788   0.138 -0.1236  0.8415 -1.3407
 1536SOL     OW10622   2.205   4.728   6.256 -0.0440 -0.2844  0.1047
 1536SOL    HW110623   2.160   4.670   6.324 -0.2335  1.1704  1.2754
 1536SOL    HW210624   2.305   4.717   6.263 -0.0840 -0.5893  0.1995
 1537SOL     OW10625   1.829   3.811   5.914 -0.4815 -0.6626 -0.7301
 1537SOL    HW110626   1.893   3.869   5.864 -0.6322 -0.5646 -0.8111
 1537SOL    HW210627   1.850   3.715   5.898 -0.0052 -0.6328 -0.3057
 1538SOL     OW10628   1.554   5.809   4.864 -0.2013  0.4286  0.6537
 1538SOL    HW110629   1.647   5.847   4.859 -0.2105  0.4229  0.4514
 1538SOL    HW210630   1.513   5.810   4.773  0.0118 -0.6007  0.5338
 1539SOL     OW10631   5.169   2.393   0.190 -0.7623 -0.1690  0.8473
 1539SOL    HW110632   5.120   2.321   0.239 -1.1975 -1.1629 -0.9671
 1539SOL    HW210633   5.233   2.352   0.125 -0.8634  1.0694 -0.0714
 1540SOL     OW10634   0.419   2.837   5.494  0.1709 -0.5746 -0.4556
 1540SOL    HW110635   0.372   2.867   5.411 -1.1967 -1.7520 -0.1511
 1540SOL    HW210636   0.379   2.751   5.526  0.5732 -0.1032  1.4916
 1541SOL     OW10637   4.740   6.274   1.007 -0.3550 -0.0285 -0.0998
 1541SOL    HW110638   4.760   6.259   1.104 -0.1710  1.4576  0.1132
 1541SOL    HW210639   4.660   6.333   0.999 -0.5327 -0.3680 -0.8658
 1542SOL     OW10640   1.335   2.340   5.845  0.3047  0.2326  0.2486
 1542SOL    HW110641   1.334   2.439   5.833 -1.5202  0.2777  0.4498
 1542SOL    HW210642   1.356   2.318   5.940 -0.0255  0.4720  0.3807
 1543SOL     OW10643   1.809   5.563   1.076  0.3757 -0.2510  0.3937
 1543SOL    HW110644   1.763   5.475   1.081 -1.7917  0.8522  1.3769
 1543SOL    HW210645   1.904   5.554   1.107 -0.0579 -2.0538  1.2787
 1544SOL     OW10646   2.934   1.265   1.455  0.5985  0.3736  0.1609
 1544SOL    HW110647   2.990   1.285   1.375  1.0429  1.7781  0.7845
 1544SOL    HW210648   2.982   1.296   1.538 -0.5173  0.3731  0.8266
 1545SOL     OW10649   4.627   5.477   6.088  0.4281 -0.3560 -0.1238
 1545SOL    HW110650   4.715   5.486   6.136  0.4044 -0.7688  0.0022
 1545SOL    HW210651   4.574   5.403   6.130 -0.3713  0.4967  0.3950
 1546SOL     OW10652   4.533   3.662   0.524 -0.9987 -0.1835  0.8012
 1546SOL    HW110653   4.464   3.633   0.457  0.7905 -0.4234 -1.0506
 1546SOL    HW210654   4.610   3.598   0.522 -0.8418 -0.1587  3.1145
 1547SOL     OW10655   5.429   3.212   6.521 -0.1069 -0.2278  0.2217
 1547SOL    HW110656   5.354   3.274   6.495  1.2185  0.8234 -1.2880
 1547SOL    HW210657   5.401   3.158   6.600 -3.0513 -1.0020 -1.1885
 1548SOL     OW10658   0.923   4.896   5.190  0.3367  0.2939  0.1820
 1548SOL    HW110659   0.921   4.996   5.188  1.6527  0.3975  1.7371
 1548SOL    HW210660   0.971   4.862   5.109  1.5484  1.0318  0.5636
 1549SOL     OW10661   3.252   1.625   0.286  0.6027 -0.2304 -0.1725
 1549SOL    HW110662   3.204   1.558   0.342  0.6866  0.0149  0.2009
 1549SOL    HW210663   3.217   1.716   0.307  1.5939  0.0158  0.5137
 1550SOL     OW10664   0.900   3.662   6.660  0.5024  0.2000 -0.5915
 1550SOL    HW110665   0.837   3.723   6.709 -1.2771 -1.1656 -1.1048
 1550SOL    HW210666   0.905   3.689   6.564  1.0885  0.5930 -0.4557
 1551SOL     OW10667   3.996   3.722   5.452  0.1668 -0.0943 -0.3451
 1551SOL    HW110668   4.094   3.727   5.434 -0.0971  0.3121 -1.7499
 1551SOL    HW210669   3.958   3.814   5.456 -0.4072 -0.2768 -1.3083
 1552SOL     OW10670   6.257   3.840   0.110 -0.1583  0.2784 -0.7756
 1552SOL    HW110671   6.297   3.749   0.119  0.6839  0.5935 -1.2435
 1552SOL    HW210672   6.189   3.854   0.182  1.1821  0.0351  0.5924
 1553SOL     OW10673   5.060   4.831   1.101  0.6282  0.3571  0.3765
 1553SOL    HW110674   5.070   4.928   1.075  0.5895  0.2757  0.0527
 1553SOL    HW210675   5.003   4.785   1.033 -0.1951  0.3330  1.0624
 1554SOL     OW10676   3.115   5.692   1.418 -0.8225 -0.1024  0.5181
 1554SOL    HW110677   3.019   5.687   1.448 -0.3240 -1.0993  2.0374
 1554SOL    HW210678   3.171   5.632   1.475  0.4154 -1.0542 -1.5765
 1555SOL     OW10679   4.664   2.489   1.336  0.0459  0.1110 -0.1882
 1555SOL    HW110680   4.600   2.497   1.412 -0.9911  1.0511 -1.1224
 1555SOL    HW210681   4.757   2.503   1.369 -0.3917  0.6243  0.8802
 1556SOL     OW10682   0.451   6.173   1.443 -0.1219 -0.2725  0.0405
 1556SOL    HW110683   0.396   6.251   1.411  0.9610  0.1907 -0.7351
 1556SOL    HW210684   0.533   6.207   1.488 -0.3209 -0.9663  0.9397
 1557SOL     OW10685   3.931   0.113   5.767 -0.0479 -0.1773  0.2724
 1557SOL    HW110686   3.962   0.029   5.724  0.1054  0.8265 -1.7015
 1557SOL    HW210687   4.009   0.175   5.778 -0.4789  0.4444 -0.1116
 1558SOL     OW10688   1.464   3.884   0.228 -0.0927 -0.3649 -0.7589
 1558SOL    HW110689   1.487   3.980   0.210  0.3287 -0.2142  0.4591
 1558SOL    HW210690   1.378   3.879   0.279 -0.6562 -0.7095 -1.7091
 1559SOL     OW10691   3.695   0.292   6.222 -0.0945  0.0389 -0.3104
 1559SOL    HW110692   3.738   0.310   6.134  0.7458 -0.5342 -0.0320
 1559SOL    HW210693   3.596   0.285   6.211  0.0517 -0.6480 -1.3067
 1560SOL     OW10694   5.754   4.835   1.718 -0.2287  0.3783  0.2331
 1560SOL    HW110695   5.677   4.894   1.695 -1.1717 -1.2459 -1.0032
 1560SOL    HW210696   5.720   4.743   1.740  1.2503  0.0259  1.2466
 1561SOL     OW10697   0.011   0.732   5.641  0.6592 -0.3614  0.4295
 1561SOL    HW110698   0.017   0.792   5.562  0.2725  0.3745  0.9513
 1561SOL    HW210699  -0.016   0.785   5.722 -1.2489 -1.4890  0.5826
 1562SOL     OW10700   0.727   1.396   6.567  0.3367  0.0176  0.1897
 1562SOL    HW110701   0.784   1.438   6.638 -0.6496 -1.0315  1.6801
 1562SOL    HW210702   0.649   1.351   6.610 -0.1943 -0.8366 -1.5741
 1563SOL     OW10703   6.286   3.537   0.606  0.5598 -0.0239  0.3611
 1563SOL    HW110704   6.217   3.501   0.543 -0.1350 -0.9763  1.6167
 1563SOL    HW210705   6.367   3.565   0.555  0.4393 -1.7677 -0.8535
 1564SOL     OW10706   2.802   4.938   0.272 -0.1695  0.3259  0.2235
 1564SOL    HW110707   2.749   4.958   0.190 -0.0195  0.5007  0.1711
 1564SOL    HW210708   2.899   4.940   0.251 -0.1107  0.9982  0.5503
 1565SOL     OW10709   4.675   2.431   6.349  0.5861 -0.1681 -0.6211
 1565SOL    HW110710   4.591   2.445   6.296 -0.8934 -1.1544  1.3237
 1565SOL    HW210711   4.750   2.408   6.287 -0.7781 -0.1986 -2.3506
 1566SOL     OW10712   3.699   4.284   5.093 -0.1550 -0.0161  0.0043
 1566SOL    HW110713   3.785   4.242   5.065  0.2386  1.0105 -0.3916
 1566SOL    HW210714   3.622   4.236   5.051  0.2011 -1.0674  0.5231
 1567SOL     OW10715   3.393   4.573   1.419 -0.2373 -0.2930  0.0607
 1567SOL    HW110716   3.477   4.625   1.424  0.3314 -1.0241 -1.3163
 1567SOL    HW210717   3.376   4.528   1.506  2.0123 -1.9238 -0.2502
 1568SOL     OW10718   5.715   0.084   1.356 -0.6175 -0.2118 -0.2722
 1568SOL    HW110719   5.726   0.071   1.455  3.8015  1.1993 -0.3621
 1568SOL    HW210720   5.686   0.178   1.338  0.7735  0.2382 -0.2889
 1569SOL     OW10721   3.830   3.703   5.211  0.6572  0.0760 -0.9011
 1569SOL    HW110722   3.861   3.749   5.294 -1.6727 -2.1818  1.4217
 1569SOL    HW210723   3.786   3.769   5.150  2.5039  1.7983 -0.4633
 1570SOL     OW10724   0.294   3.053   6.118 -0.1678 -0.0309 -0.4663
 1570SOL    HW110725   0.328   2.960   6.125  0.5689  0.3676  3.6888
 1570SOL    HW210726   0.281   3.092   6.210 -0.8436  3.8432 -1.9769
 1571SOL     OW10727   2.317   3.812   0.060  0.1547 -0.1229 -0.2511
 1571SOL    HW110728   2.392   3.859   0.012 -0.5587  1.3523  0.0198
 1571SOL    HW210729   2.349   3.782   0.150 -0.0190  2.1798  0.6650
 1572SOL     OW10730   4.280   3.867   6.163 -0.0705 -0.3544 -0.4878
 1572SOL    HW110731   4.275   3.822   6.252  1.0102 -0.8402 -0.6667
 1572SOL    HW210732   4.357   3.832   6.112  0.3603  1.1640 -0.9364
 1573SOL     OW10733   4.157   0.280   5.776  0.2512  0.1393  0.0830
 1573SOL    HW110734   4.186   0.251   5.685  1.4671  1.0418  0.1632
 1573SOL    HW210735   4.237   0.306   5.830 -0.6594  2.4477  0.4228
 1574SOL     OW10736   4.251   1.637   1.314  0.1547  0.0406  0.1406
 1574SOL    HW110737   4.282   1.643   1.409  0.8893 -0.0758 -0.0858
 1574SOL    HW210738   4.189   1.559   1.304  0.0893  0.0434  0.5181
 1575SOL     OW10739   2.116   1.329   5.875 -0.3022  0.8770  0.1808
 1575SOL    HW110740   2.181   1.253   5.875 -1.5188 -0.2347 -1.5526
 1575SOL    HW210741   2.165   1.414   5.892  1.7812  0.1838 -1.8370
 1576SOL     OW10742   5.774   0.976   0.470  0.4080 -0.3383 -0.0338
 1576SOL    HW110743   5.737   1.023   0.390  1.8849  2.4802  0.8007
 1576SOL    HW210744   5.874   0.979   0.467  0.5170 -1.8590  1.0168
 1577SOL     OW10745   3.188   4.518   5.970  0.4753 -0.1572 -0.2782
 1577SOL    HW110746   3.212   4.514   5.872 -0.0447 -1.9009 -0.3646
 1577SOL    HW210747   3.118   4.450   5.990 -0.9986  1.6362  0.9223
 1578SOL     OW10748   4.731   4.429   6.023  0.8088  0.3591 -0.3229
 1578SOL    HW110749   4.740   4.354   6.089  1.0558  2.5206  2.2585
 1578SOL    HW210750   4.819   4.474   6.011  0.2218  1.6111 -0.0629
 1579SOL     OW10751   6.020   5.075   5.826  0.0199 -0.4747  0.2621
 1579SOL    HW110752   6.051   5.084   5.920  2.9390 -0.3052 -0.6137
 1579SOL    HW210753   6.011   4.978   5.802 -0.3768 -0.5218  0.5975
 1580SOL     OW10754   3.414   2.479   0.060  0.3646 -0.4429 -0.0410
 1580SOL    HW110755   3.480   2.422   0.010 -0.2702  0.5548 -2.1077
 1580SOL    HW210756   3.421   2.574   0.028 -0.2148  0.2063  1.6683
 1581SOL     OW10757   4.898   0.366   0.916  0.1006  0.3238 -0.8377
 1581SOL    HW110758   4.851   0.290   0.871 -2.8200  1.7376 -0.4460
 1581SOL    HW210759   4.848   0.451   0.899  2.3255  1.9363  0.0867
 1582SOL     OW10760   6.266   4.289   0.574  0.1903  0.3285  0.0357
 1582SOL    HW110761   6.243   4.333   0.487  0.1149 -0.6454 -0.4574
 1582SOL    HW210762   6.315   4.204   0.556  1.8730  1.0342  0.9971
 1583SOL     OW10763   2.400   1.864   5.411  0.3344  0.5774 -0.7422
 1583SOL    HW110764   2.312   1.835   5.374  0.5627  0.1797 -0.9835
 1583SOL    HW210765   2.440   1.935   5.352  0.8457 -0.2834 -1.4491
 1584SOL     OW10766   2.800   1.804   5.798 -0.4662  0.0405 -0.7322
 1584SOL    HW110767   2.792   1.721   5.854 -1.6796  0.9175  0.4793
 1584SOL    HW210768   2.744   1.793   5.715 -0.7645 -0.2991 -0.4932
 1585SOL     OW10769   1.390   5.729   6.216  0.4028 -0.7794 -0.2725
 1585SOL    HW110770   1.458   5.656   6.213  1.9407  0.4443  1.9292
 1585SOL    HW210771   1.437   5.818   6.216 -1.2872  0.1453 -0.2743
 1586SOL     OW10772   4.224   3.733   6.499  0.0414  0.2316  0.1226
 1586SOL    HW110773   4.169   3.806   6.539  0.3379  0.0486  0.8834
 1586SOL    HW210774   4.321   3.750   6.518  0.0261 -1.1968  1.7963
 1587SOL     OW10775   0.656   4.756   5.254  0.4095 -0.0630  0.2327
 1587SOL    HW110776   0.649   4.836   5.195  2.0757 -0.5509 -0.6627
 1587SOL    HW210777   0.749   4.721   5.252 -0.3342 -2.1522  0.4649
 1588SOL     OW10778   0.118   0.572   0.060  0.3029  0.3734  0.0817
 1588SOL    HW110779   0.034   0.525   0.035  0.4814  0.4850 -0.7703
 1588SOL    HW210780   0.193   0.505   0.065  0.3730  0.4290 -0.2138
 1589SOL     OW10781   3.003   3.155   5.776  0.4818 -0.4338 -0.1048
 1589SOL    HW110782   3.004   3.110   5.866  0.6956 -0.3329 -0.0561
 1589SOL    HW210783   2.953   3.098   5.711  1.4719 -1.1617 -0.2609
 1590SOL     OW10784   2.413   5.281   5.244 -0.0533 -0.0903 -0.0293
 1590SOL    HW110785   2.417   5.294   5.343  1.6223 -1.8851  0.1982
 1590SOL    HW210786   2.484   5.337   5.200 -0.5847  0.4547 -0.2182
 1591SOL     OW10787   2.779   5.568   4.335 -0.1985 -0.2454  0.0125
 1591SOL    HW110788   2.823   5.655   4.356 -0.2576 -0.3869  0.7423
 1591SOL    HW210789   2.685   5.585   4.305 -0.3638 -0.0853  0.6141
 1592SOL     OW10790   2.826   4.985   0.919 -0.2194 -0.3131 -0.3391
 1592SOL    HW110791   2.901   5.043   0.888  0.1492  1.3791  3.2880
 1592SOL    HW210792   2.749   5.042   0.947 -0.4782 -1.5961  1.7596
 1593SOL     OW10793   1.862   3.798   5.446 -0.6543  0.1322  0.0751
 1593SOL    HW110794   1.882   3.789   5.348  1.2079 -0.4165  0.4750
 1593SOL    HW210795   1.876   3.892   5.474 -1.6495  0.3941 -0.2586
 1594SOL     OW10796   3.673   4.088   6.387  0.5898 -0.2014 -0.3982
 1594SOL    HW110797   3.708   4.169   6.339  0.7778  0.9882  1.6336
 1594SOL    HW210798   3.574   4.082   6.375  0.2658  1.4968  0.9695
 1595SOL     OW10799   3.965   1.542   6.541  0.6305  0.0852 -0.3563
 1595SOL    HW110800   4.006   1.500   6.622 -1.3825 -1.6419 -0.1656
 1595SOL    HW210801   3.935   1.635   6.563 -1.3512 -0.9111  1.4146
 1596SOL     OW10802   2.475   2.872   6.355 -0.3323 -0.1643 -0.5067
 1596SOL    HW110803   2.392   2.923   6.378 -1.0964 -2.3219  2.0123
 1596SOL    HW210804   2.555   2.924   6.385 -1.0183  0.1561  0.8652
 1597SOL     OW10805   5.197   4.019   0.769 -0.0121 -0.0207 -0.4688
 1597SOL    HW110806   5.104   4.004   0.736  0.3165 -1.2592 -0.8846
 1597SOL    HW210807   5.200   4.005   0.868 -0.7564  2.5245 -0.0369
 1598SOL     OW10808   4.271   2.574   0.271 -0.1341  0.3928 -0.0735
 1598SOL    HW110809   4.343   2.627   0.226  1.9611 -0.8084  1.6517
 1598SOL    HW210810   4.307   2.484   0.298 -2.8231 -0.9926 -0.6614
 1599SOL     OW10811   1.836   3.662   6.393  0.3994 -0.0647  0.2357
 1599SOL    HW110812   1.911   3.599   6.412  0.2854 -0.3164 -0.1339
 1599SOL    HW210813   1.863   3.727   6.321 -0.5750 -1.7775 -1.7988
 1600SOL     OW10814   5.946   4.319   0.074 -0.4479 -0.3662 -0.8215
 1600SOL    HW110815   5.990   4.298  -0.014  0.2963 -0.3636 -0.4554
 1600SOL    HW210816   5.969   4.412   0.102  0.3303 -0.7904 -0.0278
 1601SOL     OW10817   0.457   5.369   0.625 -0.3773  0.0656 -0.9580
 1601SOL    HW110818   0.555   5.363   0.604 -0.4117  1.0701 -1.4661
 1601SOL    HW210819   0.435   5.304   0.698  1.0578  1.1133  0.5010
 1602SOL     OW10820   1.439   4.917   5.177  0.2169 -0.9994 -0.5525
 1602SOL    HW110821   1.495   4.995   5.206 -1.4962  0.1373 -0.0939
 1602SOL    HW210822   1.492   4.858   5.117  1.2278  1.1662 -1.9211
 1603SOL     OW10823   1.099   1.623   0.834 -0.0025 -0.7463  0.0687
 1603SOL    HW110824   1.091   1.624   0.933 -0.5050 -1.5640  0.0460
 1603SOL    HW210825   1.192   1.599   0.808  0.5039  0.8053  0.3277
 1604SOL     OW10826   0.858   4.205   6.470  0.4156 -0.6293 -0.2170
 1604SOL    HW110827   0.773   4.251   6.497  0.4262 -1.4031  1.2181
 1604SOL    HW210828   0.922   4.273   6.434 -0.5773  0.0521 -0.7424
 1605SOL     OW10829   3.924   5.223   5.452  0.1868  0.2865 -0.1329
 1605SOL    HW110830   3.825   5.212   5.462  0.1626 -1.4260 -1.7356
 1605SOL    HW210831   3.954   5.300   5.508 -1.8662  0.1621  1.2673
 1606SOL     OW10832   0.724   3.568   1.183  0.1320  0.1650 -0.0637
 1606SOL    HW110833   0.633   3.533   1.161 -1.2095  1.6817  2.5799
 1606SOL    HW210834   0.783   3.492   1.213 -1.0225 -0.5300  0.4989
 1607SOL     OW10835   1.109   3.226   6.399 -0.3450  1.2052  0.1306
 1607SOL    HW110836   1.136   3.199   6.306  0.5971 -1.2676  1.0200
 1607SOL    HW210837   1.109   3.326   6.407  1.2444  1.4438 -2.0557
 1608SOL     OW10838   1.986   0.555   6.177  0.1343 -0.1294  0.5241
 1608SOL    HW110839   2.031   0.540   6.089  0.6423  1.0897  0.5517
 1608SOL    HW210840   1.887   0.557   6.164  0.2187  2.2667 -0.4744
 1609SOL     OW10841   4.889   2.683   6.329  1.0746  0.3494 -0.3321
 1609SOL    HW110842   4.898   2.589   6.362  1.7416  0.0304 -1.3841
 1609SOL    HW210843   4.926   2.689   6.237  3.6080  2.2391  0.7034
 1610SOL     OW10844   2.556   3.195   6.212  0.6104 -0.1052 -0.0756
 1610SOL    HW110845   2.618   3.183   6.135  1.2259  0.6054  0.3013
 1610SOL    HW210846   2.533   3.292   6.223  0.8979 -0.1386  0.9144
 1611SOL     OW10847   3.527   2.489   1.080  0.4324 -0.0366  0.2795
 1611SOL    HW110848   3.611   2.451   1.119 -0.0110 -0.6022  0.7107
 1611SOL    HW210849   3.550   2.558   1.012  1.2532 -0.7256 -0.1610
 1612SOL     OW10850   4.677   4.878   6.070 -0.2476  0.7060 -0.4623
 1612SOL    HW110851   4.633   4.881   6.160 -0.0095 -0.6241 -0.2883
 1612SOL    HW210852   4.763   4.827   6.077 -0.9813 -0.7796 -1.7623
 1613SOL     OW10853   2.062   4.678   6.023  0.6051  0.4331  0.8078
 1613SOL    HW110854   1.967   4.652   6.040  0.8556 -0.5167  0.8158
 1613SOL    HW210855   2.105   4.702   6.110  0.7753 -0.5547  1.0008
 1614SOL     OW10856   4.034   1.584   1.032  0.3188 -0.2631  0.7004
 1614SOL    HW110857   4.060   1.544   1.120  0.3129  1.2970  1.4440
 1614SOL    HW210858   3.996   1.675   1.047 -2.9297 -1.2704 -0.6088
 1615SOL     OW10859   0.709   1.783   6.263 -0.1394  0.1860 -0.0886
 1615SOL    HW110860   0.753   1.868   6.293  2.6228 -1.8087  1.9853
 1615SOL    HW210861   0.759   1.746   6.184 -1.8342  0.8013 -1.5215
 1616SOL     OW10862   0.338   5.897   0.504  0.4547  0.3087  0.6793
 1616SOL    HW110863   0.368   5.813   0.548 -1.6354  0.3201  2.2751
 1616SOL    HW210864   0.351   5.974   0.567  0.3589  0.8493  0.0498
 1617SOL     OW10865   0.555   4.676   5.866 -0.9293 -0.1387 -0.3634
 1617SOL    HW110866   0.608   4.656   5.948 -1.0691 -0.3124 -0.3147
 1617SOL    HW210867   0.472   4.620   5.865 -0.4577 -0.8555 -1.0936
 1618SOL     OW10868   0.510   5.886   0.032 -0.0052  0.9179 -0.0767
 1618SOL    HW110869   0.514   5.874   0.132 -0.4410 -0.2831 -0.1853
 1618SOL    HW210870   0.603   5.889  -0.005  0.1545  1.0848  0.3329
 1619SOL     OW10871   0.726   6.293   0.852  0.7630 -0.9240  0.1481
 1619SOL    HW110872   0.690   6.348   0.777  0.1678 -0.1668  0.9691
 1619SOL    HW210873   0.651   6.265   0.912  1.5306  1.6169  2.5255
 1620SOL     OW10874   1.936   3.438   5.296  1.0229  0.1886  0.5571
 1620SOL    HW110875   1.978   3.368   5.237  1.4662 -0.4023  1.5522
 1620SOL    HW210876   1.837   3.436   5.284  0.8907 -1.5949  1.5902
 1621SOL     OW10877   3.243   3.314   1.008 -0.3691 -0.0300 -0.6167
 1621SOL    HW110878   3.340   3.335   1.002 -0.2460 -0.1272  0.8746
 1621SOL    HW210879   3.202   3.363   1.085 -1.8053  1.0811 -2.0169
 1622SOL     OW10880   3.390   0.891   4.942 -0.1253 -0.1491  0.8468
 1622SOL    HW110881   3.471   0.942   4.913 -0.1149 -1.7480 -2.3251
 1622SOL    HW210882   3.406   0.793   4.928 -1.7625 -0.6987  2.4902
 1623SOL     OW10883   3.273   0.618   1.606  0.7760  0.2742  0.1186
 1623SOL    HW110884   3.302   0.709   1.574  0.1710  0.8382  1.1326
 1623SOL    HW210885   3.240   0.625   1.700 -0.6839 -0.7275 -0.2844
 1624SOL     OW10886   3.469   5.816   6.426  0.0145 -0.1450  0.3464
 1624SOL    HW110887   3.486   5.790   6.331 -0.3157  0.7229  0.0443
 1624SOL    HW210888   3.371   5.811   6.445 -0.7275  4.4658 -0.8938
 1625SOL     OW10889   5.473   0.616   1.212 -0.0184  0.3366 -0.1175
 1625SOL    HW110890   5.454   0.609   1.310  0.8917 -1.2525 -0.0058
 1625SOL    HW210891   5.456   0.709   1.180 -1.6264  0.5487  1.2550
 1626SOL     OW10892   3.487   5.757   0.169 -0.4425  0.2074 -0.4110
 1626SOL    HW110893   3.517   5.746   0.074  1.4576  1.2877  0.0163
 1626SOL    HW210894   3.566   5.755   0.230 -1.5858 -0.0225  1.1278
 1627SOL     OW10895   4.854   0.333   0.294  1.5231  0.2931  0.7143
 1627SOL    HW110896   4.804   0.248   0.276  1.6537  0.3525  0.0456
 1627SOL    HW210897   4.900   0.363   0.211  2.3129  0.4824  1.2102
 1628SOL     OW10898   3.416   5.990   1.438  0.1319 -0.2399 -0.3149
 1628SOL    HW110899   3.448   6.067   1.493  0.1128 -0.7625  0.4457
 1628SOL    HW210900   3.467   5.987   1.352  0.3719  0.4142 -0.2008
 1629SOL     OW10901   2.385   6.208   1.552 -0.9867  0.3028  0.7178
 1629SOL    HW110902   2.444   6.280   1.589  0.3213 -0.2116 -0.2876
 1629SOL    HW210903   2.289   6.231   1.570 -0.5570  1.8180  1.2292
 1630SOL     OW10904   3.987   4.213   5.468  0.0264  0.0091 -0.5347
 1630SOL    HW110905   4.005   4.310   5.451  0.0425  0.0131 -0.4937
 1630SOL    HW210906   3.987   4.164   5.381 -1.6307  0.3171 -0.7426
 1631SOL     OW10907   5.668   2.905   5.715  0.2433  0.4722 -0.3339
 1631SOL    HW110908   5.636   2.813   5.692 -0.5814  0.5944  0.2568
 1631SOL    HW210909   5.596   2.953   5.765  0.8764  1.2461 -0.1503
 1632SOL     OW10910   0.341   4.087   1.903  0.3015  0.0504 -0.2012
 1632SOL    HW110911   0.435   4.082   1.869  0.5576 -0.5683  0.5628
 1632SOL    HW210912   0.319   4.181   1.927  0.2484  0.4430 -1.6519
 1633SOL     OW10913   2.244   3.063   5.809 -0.4893 -0.1972 -0.0580
 1633SOL    HW110914   2.200   3.150   5.789  1.9582  1.2887  0.6029
 1633SOL    HW210915   2.341   3.068   5.784 -0.1303 -2.5224  0.6136
 1634SOL     OW10916   5.861   0.605   0.917  0.4937 -0.3912 -0.0152
 1634SOL    HW110917   5.794   0.532   0.904  0.2193 -0.5042  1.8197
 1634SOL    HW210918   5.943   0.568   0.962  0.2871  0.4324  1.0729
 1635SOL     OW10919   6.269   5.194   6.007  0.0675 -0.1052 -0.2873
 1635SOL    HW110920   6.214   5.122   6.049  1.3008 -2.2366 -2.1365
 1635SOL    HW210921   6.364   5.162   5.997  1.1880  2.5864  0.7037
 1636SOL     OW10922   1.376   5.484   6.542 -0.1969 -0.3236 -0.0092
 1636SOL    HW110923   1.381   5.386   6.558 -3.5936 -1.1656 -2.9486
 1636SOL    HW210924   1.313   5.525   6.608 -0.0754 -0.3771  0.1432
 1637SOL     OW10925   1.620   6.273   0.444 -0.4655 -0.0338 -0.0595
 1637SOL    HW110926   1.690   6.233   0.385 -0.1178  0.0472  0.2990
 1637SOL    HW210927   1.540   6.297   0.389 -0.2985 -0.3267 -0.4339
 1638SOL     OW10928   0.625   3.694   0.603 -0.1818 -0.1117 -0.0894
 1638SOL    HW110929   0.595   3.611   0.651 -0.9986 -0.1124 -0.5823
 1638SOL    HW210930   0.665   3.670   0.515 -2.9573  0.1183 -1.5236
 1639SOL     OW10931   3.681   4.294   5.874 -0.1849  0.2130  0.1284
 1639SOL    HW110932   3.583   4.274   5.881 -0.1137  0.3828  1.9545
 1639SOL    HW210933   3.731   4.209   5.856 -0.7002  0.2477 -1.7522
 1640SOL     OW10934   4.884   4.745   6.157  0.4254  0.3147  0.3347
 1640SOL    HW110935   4.922   4.725   6.248 -1.1711 -2.1923  0.5471
 1640SOL    HW210936   4.900   4.667   6.097  2.8322  2.5257 -2.1208
 1641SOL     OW10937   0.503   6.319   0.544  0.2707  0.2564  0.6413
 1641SOL    HW110938   0.470   6.281   0.458  1.6500 -3.4178  1.5267
 1641SOL    HW210939   0.429   6.317   0.611  0.0661 -0.0415  0.4104
 1642SOL     OW10940   5.989   5.393   0.998  0.2928 -0.3528 -0.3734
 1642SOL    HW110941   5.891   5.389   0.978 -0.2330  1.0783  1.5980
 1642SOL    HW210942   6.017   5.310   1.046 -0.6475  0.4401  1.6327
 1643SOL     OW10943   2.043   3.944   5.811  0.5152 -0.5781 -0.0362
 1643SOL    HW110944   2.082   3.900   5.730  0.8551 -0.6985  0.1937
 1643SOL    HW210945   2.114   3.956   5.881  0.8928  2.0213 -0.7691
 1644SOL     OW10946   5.448   2.777   6.511 -0.5034 -0.4211  0.0118
 1644SOL    HW110947   5.434   2.758   6.414  0.9059 -1.1194 -0.0710
 1644SOL    HW210948   5.502   2.860   6.521  0.1377 -0.8569  0.1766
 1645SOL     OW10949   5.346   5.275   5.325  0.4606  0.0523 -0.6398
 1645SOL    HW110950   5.411   5.201   5.345 -0.4361 -0.5847  0.0089
 1645SOL    HW210951   5.370   5.318   5.239  0.5084 -1.5795 -1.4879
 1646SOL     OW10952   0.286   3.356   6.508  0.1456  0.2499  0.1120
 1646SOL    HW110953   0.248   3.409   6.432  0.3300  1.2627  0.7054
 1646SOL    HW210954   0.383   3.379   6.518  0.2535 -0.2931  0.3094
 1647SOL     OW10955   2.455   4.473   0.895 -0.7991 -0.2324  0.3395
 1647SOL    HW110956   2.553   4.460   0.877 -0.9804  0.3727 -1.2375
 1647SOL    HW210957   2.418   4.538   0.828 -2.6123 -1.6055 -0.0384
 1648SOL     OW10958   2.536   2.604   6.334  0.6459  0.1732  0.0785
 1648SOL    HW110959   2.504   2.689   6.375 -0.2730  0.0354 -0.3270
 1648SOL    HW210960   2.496   2.526   6.382 -0.9909  0.0088 -1.4214
 1649SOL     OW10961   1.448   6.158   5.568 -0.2390  0.2133 -0.4955
 1649SOL    HW110962   1.400   6.143   5.655 -1.2070  2.6230 -0.5562
 1649SOL    HW210963   1.439   6.076   5.511  1.0224 -1.7134  1.8708
 1650SOL     OW10964   1.951   0.817   4.321 -0.0058  0.2138  0.5266
 1650SOL    HW110965   1.928   0.895   4.263 -1.6537 -0.8793 -0.3668
 1650SOL    HW210966   1.885   0.744   4.307  1.5150 -1.3976  1.2892
 1651SOL     OW10967   2.507   0.930   5.344  0.1743 -0.1903  0.2323
 1651SOL    HW110968   2.601   0.958   5.361  0.6805  0.0124 -2.3544
 1651SOL    HW210969   2.459   1.003   5.295 -1.2783 -0.3721  1.3228
 1652SOL     OW10970   3.050   4.119   6.400  0.1824 -0.3898 -0.3925
 1652SOL    HW110971   3.093   4.137   6.312  1.1982 -2.0939 -0.3045
 1652SOL    HW210972   3.059   4.199   6.459 -1.0400  1.0086 -1.9806
 1653SOL     OW10973   0.521   2.976   0.258 -0.2929  0.4749  0.0311
 1653SOL    HW110974   0.494   3.070   0.278 -2.0404 -0.0432  0.2341
 1653SOL    HW210975   0.540   2.928   0.344  1.9102  0.9706 -0.1235
 1654SOL     OW10976   0.856   5.332   0.947  0.1097  0.6882 -0.2001
 1654SOL    HW110977   0.800   5.325   1.030  1.5742 -0.1392  0.7529
 1654SOL    HW210978   0.799   5.364   0.871 -1.3305  1.1769  1.0433
 1655SOL     OW10979   4.710   6.238   6.589  0.0559  0.7009 -0.3554
 1655SOL    HW110980   4.688   6.207   6.682 -0.4687 -2.0988 -1.3174
 1655SOL    HW210981   4.632   6.288   6.552 -1.4028 -1.6960 -0.6733
 1656SOL     OW10982   1.661   1.970   5.765 -0.5633  0.3308  0.8766
 1656SOL    HW110983   1.719   2.023   5.702 -0.6029  0.1377  0.6756
 1656SOL    HW210984   1.565   1.988   5.745 -0.5908 -0.4917  0.2156
 1657SOL     OW10985   4.255   0.117   0.821  0.5164  0.2159 -0.0122
 1657SOL    HW110986   4.165   0.140   0.784 -0.9491 -1.4897  2.1615
 1657SOL    HW210987   4.279   0.024   0.792  1.1883  0.3566  0.0938
 1658SOL     OW10988   4.068   4.110   5.771 -0.3619 -0.3303  0.0505
 1658SOL    HW110989   4.166   4.111   5.787 -0.5528  1.0736  1.3404
 1658SOL    HW210990   4.040   4.193   5.721 -0.9736 -0.3972  0.2651
 1659SOL     OW10991   3.153   6.265   6.114  0.8521 -0.2940 -0.5111
 1659SOL    HW110992   3.142   6.240   6.017 -0.1851 -0.8175 -0.2763
 1659SOL    HW210993   3.146   6.364   6.123  0.2007 -0.2931 -0.8960
 1660SOL     OW10994   0.270   1.188   6.478  0.4440 -0.3330 -0.2153
 1660SOL    HW110995   0.322   1.142   6.550  0.6933 -0.2678 -0.3568
 1660SOL    HW210996   0.230   1.272   6.515  2.5001  0.9398 -0.7656
 1661SOL     OW10997   3.509   0.478   0.783  0.1614  0.1444  0.3647
 1661SOL    HW110998   3.529   0.532   0.701 -1.9765  1.0885  0.3875
 1661SOL    HW210999   3.569   0.507   0.857 -1.1392  2.9200  0.4921
 1662SOL     OW11000   0.092   1.830   0.719 -0.0789  0.3589  0.1322
 1662SOL    HW111001   0.088   1.930   0.713 -0.1216  0.2493 -3.4372
 1662SOL    HW211002   0.187   1.801   0.729  0.3423  0.7438 -2.2297
 1663SOL     OW11003   4.815   1.096   1.094 -0.0884 -0.1428  0.8390
 1663SOL    HW111004   4.867   1.033   1.037  2.5876  0.8766  1.9711
 1663SOL    HW211005   4.772   1.166   1.037  1.6060  0.2130 -0.0538
 1664SOL     OW11006   2.947   3.138   4.771 -0.8821  0.5334 -0.1560
 1664SOL    HW111007   2.927   3.185   4.685 -1.5509  0.8947  0.1860
 1664SOL    HW211008   3.046   3.131   4.783 -0.7808  1.1588 -0.5854
 1665SOL     OW11009   1.912   1.614   0.338  0.0728 -0.2480 -0.4706
 1665SOL    HW111010   1.818   1.617   0.306  0.2277  0.5322 -0.8885
 1665SOL    HW211011   1.918   1.560   0.422 -1.0390  1.1429  0.5428
 1666SOL     OW11012   2.605   0.472   6.321  0.1397  0.6366  0.5165
 1666SOL    HW111013   2.592   0.383   6.365  1.1919  1.0899  1.8252
 1666SOL    HW211014   2.622   0.458   6.223  0.0822 -0.5912  0.6596
 1667SOL     OW11015   3.630   3.516   0.521 -0.0263  0.2397 -0.3382
 1667SOL    HW111016   3.565   3.562   0.581 -0.6379 -0.5001 -0.4122
 1667SOL    HW211017   3.584   3.485   0.438  0.2365 -0.9133 -0.0824
 1668SOL     OW11018   5.559   4.715   6.092  0.1850 -0.4376  0.4852
 1668SOL    HW111019   5.569   4.811   6.117  1.7777  0.7411 -3.7617
 1668SOL    HW211020   5.631   4.662   6.137  0.8590  0.8234  0.9632
 1669SOL     OW11021   4.107   2.043   1.441  0.3673  0.4098  0.0042
 1669SOL    HW111022   4.060   1.991   1.369  2.1771 -3.7229  1.5147
 1669SOL    HW211023   4.041   2.071   1.510 -0.6061 -0.7570 -0.4036
 1670SOL     OW11024   2.996   3.304   6.115  0.2651 -0.3321 -0.0344
 1670SOL    HW111025   3.014   3.387   6.064 -2.1327 -0.4384 -1.1991
 1670SOL    HW211026   2.986   3.326   6.212  0.0315  0.6921 -0.2810
 1671SOL     OW11027   4.970   1.612   5.941  0.6616 -0.3675 -0.0208
 1671SOL    HW111028   4.927   1.631   6.029 -1.9521  0.3520 -1.3634
 1671SOL    HW211029   5.022   1.692   5.912 -2.1442  1.2064 -1.0833
 1672SOL     OW11030   1.825   4.194   5.349 -0.9428 -0.5219 -0.8304
 1672SOL    HW111031   1.739   4.241   5.330 -1.7437 -1.5180  0.1883
 1672SOL    HW211032   1.808   4.116   5.409  0.8122 -0.1474  0.2391
 1673SOL     OW11033   2.178   0.662   6.586  0.3622  0.1728  0.2748
 1673SOL    HW111034   2.132   0.697   6.505  1.9419  0.5850 -0.4782
 1673SOL    HW211035   2.156   0.564   6.596 -0.5901  0.3330 -0.0889
 1674SOL     OW11036   4.377   1.248   5.670  0.5717  0.0171  0.1314
 1674SOL    HW111037   4.429   1.240   5.755 -0.1082  0.2236  0.5657
 1674SOL    HW211038   4.336   1.160   5.647 -1.5121  0.5815  1.4772
 1675SOL     OW11039   2.397   5.507   6.079 -0.2372 -0.3682  0.7056
 1675SOL    HW111040   2.434   5.589   6.036  0.0361 -0.4017  0.8768
 1675SOL    HW211041   2.297   5.514   6.083 -0.1447  0.5323  1.8786
 1676SOL     OW11042   5.531   1.061   5.922  0.2133  0.0621 -0.4470
 1676SOL    HW111043   5.570   1.123   5.990  0.7206 -0.7721  0.0503
 1676SOL    HW211044   5.545   1.098   5.830  1.6017  0.1009 -0.2367
 1677SOL     OW11045   1.632   0.321   6.399 -0.2019 -0.4410  0.0372
 1677SOL    HW111046   1.727   0.349   6.384  0.3543 -2.5670 -0.7504
 1677SOL    HW211047   1.571   0.385   6.352  0.8081  0.9331  0.5204
 1678SOL     OW11048   5.208   3.745   0.526 -0.8372 -0.4609  0.5988
 1678SOL    HW111049   5.218   3.809   0.450 -0.4726 -0.0474  0.9885
 1678SOL    HW211050   5.293   3.743   0.579 -0.8740 -1.2091  0.6386
 1679SOL     OW11051   2.273   4.824   1.527 -0.4804 -0.6413  0.3361
 1679SOL    HW111052   2.341   4.860   1.591  2.4793 -1.6124 -2.0510
 1679SOL    HW211053   2.288   4.726   1.515 -0.7097 -0.4360 -2.0251
 1680SOL     OW11054   1.055   3.363   0.597 -0.7200  0.0235  0.3402
 1680SOL    HW111055   1.108   3.440   0.633  1.1939 -1.1170  0.0919
 1680SOL    HW211056   1.048   3.372   0.498 -0.0087 -0.3936  0.2467
 1681SOL     OW11057   3.336   5.357   0.134 -0.4609 -0.6494 -0.4596
 1681SOL    HW111058   3.264   5.309   0.085  0.0453 -1.2096 -0.6694
 1681SOL    HW211059   3.297   5.433   0.186 -1.1271 -0.6514 -0.9565
 1682SOL     OW11060   0.924   1.307   0.841  0.8021  0.2070 -0.4719
 1682SOL    HW111061   0.982   1.250   0.783  2.1430  0.5147  0.5032
 1682SOL    HW211062   0.909   1.396   0.797  1.2901  0.2157 -0.6247
 1683SOL     OW11063   1.413   5.507   0.585 -0.2349 -0.0343 -0.1764
 1683SOL    HW111064   1.356   5.427   0.601  1.9581 -1.6767 -0.0705
 1683SOL    HW211065   1.387   5.551   0.500 -1.3103 -1.0158 -0.3727
 1684SOL     OW11066   2.267   3.925   5.972  0.1206  0.4752 -0.4731
 1684SOL    HW111067   2.222   3.937   6.060  0.4073  0.7826 -0.3664
 1684SOL    HW211068   2.366   3.930   5.984  0.2149 -0.8312 -0.6072
 1685SOL     OW11069   5.840   2.605   0.832 -0.1703 -0.5176  0.2681
 1685SOL    HW111070   5.856   2.696   0.794 -1.1753 -0.5878 -0.3534
 1685SOL    HW211071   5.912   2.543   0.800  1.0288  0.2182  1.3882
 1686SOL     OW11072   0.403   1.539   5.891  0.2089 -0.0304  0.8298
 1686SOL    HW111073   0.381   1.470   5.822 -0.3581 -1.2403  2.1634
 1686SOL    HW211074   0.318   1.582   5.923  0.1403 -1.4187  2.6783
 1687SOL     OW11075   0.690   5.713   0.320  0.0410  0.5777  0.1912
 1687SOL    HW111076   0.647   5.803   0.313 -0.1628  0.5865  1.3817
 1687SOL    HW211077   0.784   5.717   0.286  0.7876  1.7875  2.2191
 1688SOL     OW11078   2.921   3.811   0.547  0.3591  0.9684  0.9853
 1688SOL    HW111079   2.985   3.886   0.568  0.3613  1.6815 -1.3596
 1688SOL    HW211080   2.970   3.736   0.503  0.0429  0.3073  1.7339
 1689SOL     OW11081   5.742   0.267   1.048 -0.1976 -0.3869 -0.5234
 1689SOL    HW111082   5.731   0.215   0.963 -1.1320 -0.9305 -0.0924
 1689SOL    HW211083   5.657   0.261   1.102 -0.0542  0.9504 -0.1010
 1690SOL     OW11084   0.019   1.862   5.003  0.1566 -0.1870  0.2549
 1690SOL    HW111085  -0.025   1.920   4.935 -0.6185  0.3159  1.1592
 1690SOL    HW211086   0.087   1.803   4.959 -0.2214  0.2385 -0.9129
 1691SOL     OW11087   1.213   3.515   0.071  0.2806 -0.5231 -0.0492
 1691SOL    HW111088   1.269   3.577   0.126  0.2315  0.1404 -0.7254
 1691SOL    HW211089   1.118   3.547   0.071  0.1022 -1.0453  0.2342
 1692SOL     OW11090   4.920   5.132   5.642  0.2564 -0.3121  0.0708
 1692SOL    HW111091   4.867   5.115   5.725  1.3118 -0.7175  0.6736
 1692SOL    HW211092   4.869   5.096   5.563 -0.6837 -0.0575  0.5438
 1693SOL     OW11093   0.821   4.666   6.385 -0.1193 -0.0026 -0.1517
 1693SOL    HW111094   0.762   4.610   6.442  0.5194 -0.4364  0.0858
 1693SOL    HW211095   0.861   4.610   6.313  0.2917  0.2167 -0.0942
 1694SOL     OW11096   3.038   5.289   4.921  0.1889  0.5881 -0.1756
 1694SOL    HW111097   3.093   5.325   4.845 -0.6281 -1.1336 -1.6475
 1694SOL    HW211098   2.942   5.314   4.906 -0.1398 -0.7401 -0.3460
 1695SOL     OW11099   4.080   4.740   0.739 -0.1270  0.2676 -0.0331
 1695SOL    HW111100   4.014   4.713   0.668 -1.0846  0.3518  0.7995
 1695SOL    HW211101   4.124   4.825   0.713 -0.9938  0.6704 -0.2125
 1696SOL     OW11102   0.197   4.639   0.057 -0.4105  0.5382  0.3538
 1696SOL    HW111103   0.192   4.682   0.147  1.3690  1.8061 -0.0894
 1696SOL    HW211104   0.122   4.674  -0.000 -1.5876 -0.3261  1.3313
 1697SOL     OW11105   0.888   3.988   5.371 -0.5064 -0.5883  0.0873
 1697SOL    HW111106   0.984   3.973   5.349 -0.2878  0.2170  0.4495
 1697SOL    HW211107   0.844   3.901   5.392  0.2043 -0.9327  0.1620
 1698SOL     OW11108   1.049   5.414   1.121 -0.1131 -0.4871 -0.0230
 1698SOL    HW111109   1.053   5.514   1.120 -1.6637 -0.3349 -3.3613
 1698SOL    HW211110   0.960   5.384   1.089  0.2692 -2.9868  1.0748
 1699SOL     OW11111   5.600   0.268   6.545 -0.2538  0.0152  0.3501
 1699SOL    HW111112   5.606   0.326   6.627 -0.9529 -0.1667  0.5384
 1699SOL    HW211113   5.540   0.190   6.564 -1.7428  0.8178 -0.8079
 1700SOL     OW11114   0.243   5.384   0.468  0.0745 -0.9752  0.3353
 1700SOL    HW111115   0.333   5.370   0.508  0.3468  0.6553  0.3628
 1700SOL    HW211116   0.229   5.482   0.450 -1.4123 -1.2761 -0.3163
 1701SOL     OW11117   0.574   6.176   6.438  0.4877 -0.6514 -0.0188
 1701SOL    HW111118   0.632   6.201   6.360  0.7278 -3.2825 -0.7901
 1701SOL    HW211119   0.607   6.224   6.519  1.1534  1.0505 -1.2104
 1702SOL     OW11120   4.606   1.784   1.115  0.6263  0.3412  0.1351
 1702SOL    HW111121   4.611   1.717   1.041 -1.8383 -1.9032  1.7875
 1702SOL    HW211122   4.678   1.765   1.182 -0.2412 -0.9716  0.7455
 1703SOL     OW11123   4.702   5.040   0.541 -0.1710 -0.0747  0.4449
 1703SOL    HW111124   4.647   5.109   0.587 -1.4322 -0.6090 -0.2078
 1703SOL    HW211125   4.751   5.082   0.464  0.6578  0.4779  1.2482
 1704SOL     OW11126   5.559   3.567   6.006  0.2841  0.3675  0.7804
 1704SOL    HW111127   5.633   3.500   6.002 -0.1959 -0.1174 -0.9115
 1704SOL    HW211128   5.471   3.519   6.001 -0.0568  1.0908 -1.5288
 1705SOL     OW11129   5.475   5.724   6.426  0.5898  0.6408 -0.2699
 1705SOL    HW111130   5.511   5.813   6.453  1.2685  0.0681  0.7904
 1705SOL    HW211131   5.458   5.669   6.508  0.0524 -0.1585 -0.9030
 1706SOL     OW11132   1.470   5.984   6.160  0.5626 -0.0645  0.2975
 1706SOL    HW111133   1.524   6.033   6.228  2.1174 -0.8535 -0.3266
 1706SOL    HW211134   1.513   5.992   6.070  0.6533 -2.1896  0.0931
 1707SOL     OW11135   4.611   2.010   0.559  0.0468 -0.1530 -0.1134
 1707SOL    HW111136   4.659   2.086   0.601  0.4914 -0.6389  0.2782
 1707SOL    HW211137   4.563   1.957   0.629 -0.0362 -0.3896 -0.3436
 1708SOL     OW11138   4.594   1.465   1.214  0.0785 -0.0415  0.2061
 1708SOL    HW111139   4.536   1.384   1.208  1.2108 -0.9853  1.5742
 1708SOL    HW211140   4.598   1.497   1.309  0.3320  1.1334 -0.1750
 1709SOL     OW11141   1.031   5.851   6.492  0.2782 -0.1090  0.1720
 1709SOL    HW111142   1.089   5.930   6.513 -0.6133  1.0754 -1.5289
 1709SOL    HW211143   1.084   5.783   6.441  0.0942  1.3538 -2.1699
 1710SOL     OW11144   2.237   0.065   4.974  0.3269 -0.6207  0.0814
 1710SOL    HW111145   2.159   0.022   5.018 -0.3209  1.2815  0.9245
 1710SOL    HW211146   2.213   0.089   4.880 -0.5644  0.9443  0.6618
 1711SOL     OW11147   2.141   5.799   5.274 -0.5597 -0.5997 -0.2599
 1711SOL    HW111148   2.157   5.793   5.175  0.5885 -0.0418 -0.1254
 1711SOL    HW211149   2.052   5.760   5.296 -0.4394 -1.5690 -1.4034
 1712SOL     OW11150   6.132   5.629   0.915  0.0396  0.0580  0.8485
 1712SOL    HW111151   6.203   5.681   0.962  0.5258  2.1967 -1.9941
 1712SOL    HW211152   6.147   5.531   0.929  3.0274  0.4590  1.0694
 1713SOL     OW11153   2.006   5.510   1.243 -0.3383 -0.5356 -0.1767
 1713SOL    HW111154   1.968   5.592   1.285 -2.0594 -0.8446 -1.0062
 1713SOL    HW211155   2.102   5.524   1.221  0.5966 -0.2341  3.4557
 1714SOL     OW11156   5.492   0.866   1.119 -0.3018  0.0294 -0.1401
 1714SOL    HW111157   5.502   0.867   1.020 -1.9013  0.4274 -0.3226
 1714SOL    HW211158   5.413   0.922   1.145 -0.4477 -0.8023  1.2954
 1715SOL     OW11159   6.000   4.965   5.482  0.4770 -0.1380 -0.0441
 1715SOL    HW111160   5.996   5.065   5.472  0.9851 -0.2638 -1.7733
 1715SOL    HW211161   5.995   4.922   5.392  1.3516 -1.6398  0.5884
 1716SOL     OW11162   0.492   5.319   5.926  0.0558 -0.8063  0.6383
 1716SOL    HW111163   0.450   5.231   5.951  0.6583 -0.6422  2.3113
 1716SOL    HW211164   0.545   5.307   5.842 -0.1028 -1.9734  0.6814
 1717SOL     OW11165   5.032   0.555   1.263  0.0292  0.2483  0.2040
 1717SOL    HW111166   5.030   0.654   1.255 -0.9769  0.1408 -1.4016
 1717SOL    HW211167   4.938   0.520   1.270  0.1022 -0.7644 -2.6063
 1718SOL     OW11168   2.984   3.057   6.039 -0.3772  0.4585  0.5100
 1718SOL    HW111169   2.993   3.146   6.083  3.3994  0.3812  0.1976
 1718SOL    HW211170   3.060   2.998   6.065 -0.7496 -1.3882 -2.1035
 1719SOL     OW11171   0.777   3.001   6.581  0.1210  0.5994 -0.1656
 1719SOL    HW111172   0.783   3.059   6.663  0.3590  0.5309 -0.1362
 1719SOL    HW211173   0.703   3.035   6.522 -0.3777  0.3503  0.3109
 1720SOL     OW11174   1.459   6.038   5.128 -0.5047 -0.2559  0.2961
 1720SOL    HW111175   1.433   5.970   5.059 -0.6250  0.9760 -0.8952
 1720SOL    HW211176   1.477   6.126   5.084 -0.9713  0.6695  1.8881
 1721SOL     OW11177   2.115   0.095   6.564 -0.3402 -0.3273 -0.1290
 1721SOL    HW111178   2.038   0.098   6.627 -0.3786  1.3286 -0.1974
 1721SOL    HW211179   2.089   0.045   6.481 -1.4419  0.4414 -0.2646
 1722SOL     OW11180   0.622   1.780   6.593 -0.2575 -0.0532 -0.2866
 1722SOL    HW111181   0.713   1.753   6.563  1.4633  1.3079  3.1360
 1722SOL    HW211182   0.558   1.705   6.576  1.3523 -0.9485 -3.0458
 1723SOL     OW11183   1.718   5.504   1.815  0.0010  0.3930 -0.2051
 1723SOL    HW111184   1.789   5.450   1.860 -0.4468 -0.4854 -0.5305
 1723SOL    HW211185   1.628   5.480   1.852 -0.1088  1.8835  0.5861
 1724SOL     OW11186   4.924   4.494   5.248 -0.3424  0.0665 -0.0321
 1724SOL    HW111187   4.902   4.588   5.274  1.1870  0.6360 -0.7180
 1724SOL    HW211188   4.921   4.486   5.148 -0.2710 -0.5712  0.0158
 1725SOL     OW11189   0.965   1.548   6.231 -0.7481  0.1251  0.1945
 1725SOL    HW111190   0.893   1.479   6.228 -0.9031  0.2889  0.1107
 1725SOL    HW211191   0.952   1.607   6.311 -1.4850  0.9825 -0.5314
 1726SOL     OW11192   0.166   0.954   6.376 -0.0698  0.3359  0.5336
 1726SOL    HW111193   0.207   1.031   6.425  1.9128 -0.3722  0.0856
 1726SOL    HW211194   0.202   0.868   6.411  1.2623 -0.2039 -1.9148
 1727SOL     OW11195   1.683   2.092   0.916 -1.0488 -0.0113 -0.6999
 1727SOL    HW111196   1.628   2.075   0.835 -1.5671 -1.3884 -0.0877
 1727SOL    HW211197   1.668   2.019   0.983 -1.9494  1.8977  1.3441
 1728SOL     OW11198   3.245   4.774   1.770  0.2809  0.2353  0.9361
 1728SOL    HW111199   3.163   4.803   1.820 -0.9378  0.4777 -1.0636
 1728SOL    HW211200   3.226   4.688   1.723  1.5615 -0.2617  1.2927
 1729SOL     OW11201   0.717   2.725   1.564  0.8476 -0.1055 -0.5191
 1729SOL    HW111202   0.717   2.817   1.604  1.1340 -0.5533  0.5428
 1729SOL    HW211203   0.680   2.660   1.630  0.3102 -0.7088 -1.3973
 1730SOL     OW11204   3.805   5.765   5.876 -0.6174 -0.0922  0.2071
 1730SOL    HW111205   3.859   5.789   5.795 -0.2821 -0.2537  0.3783
 1730SOL    HW211206   3.817   5.668   5.895 -1.0410 -0.1455  0.1963
 1731SOL     OW11207   2.509   4.684   5.208 -0.0045 -0.2386 -0.0206
 1731SOL    HW111208   2.492   4.754   5.278  0.0902 -1.0206  0.7963
 1731SOL    HW211209   2.523   4.728   5.119 -1.6778  0.7039  0.1417
 1732SOL     OW11210   5.815   3.901   0.831 -0.3377 -0.1753  0.2859
 1732SOL    HW111211   5.814   3.869   0.736 -3.1717 -1.2681  0.6098
 1732SOL    HW211212   5.852   3.829   0.890 -1.0962 -0.5601  0.3039
 1733SOL     OW11213   1.810   4.561   6.445  0.5074 -0.4829  0.5679
 1733SOL    HW111214   1.842   4.528   6.356  3.0437  0.0490  1.1875
 1733SOL    HW211215   1.787   4.658   6.439  1.7271 -0.1681  0.6856
 1734SOL     OW11216   3.662   5.998   6.308  0.5953 -0.0329 -0.1585
 1734SOL    HW111217   3.617   6.086   6.327 -1.8252 -1.2294  0.0178
 1734SOL    HW211218   3.613   5.925   6.355  1.6567 -1.6870 -1.5019
 1735SOL     OW11219   5.684   0.487   0.378 -0.2007 -0.2388 -0.3500
 1735SOL    HW111220   5.600   0.541   0.387 -1.3662 -2.1643  1.1839
 1735SOL    HW211221   5.758   0.531   0.429 -0.9972  0.1303  0.5104
 1736SOL     OW11222   1.783   3.826   0.018  0.3172  0.5967  0.8862
 1736SOL    HW111223   1.768   3.813   0.116 -1.0613 -0.7580  0.5392
 1736SOL    HW211224   1.704   3.790  -0.033  1.1034  1.0625 -0.7326
 1737SOL     OW11225   5.746   2.170   6.315  0.8116 -0.0612  0.0376
 1737SOL    HW111226   5.712   2.116   6.392  1.5983  0.9685  1.1442
 1737SOL    HW211227   5.668   2.204   6.262  0.2722 -1.1382  0.1034
 1738SOL     OW11228   1.345   5.281   5.776 -0.2213 -0.2947 -0.2257
 1738SOL    HW111229   1.411   5.263   5.704  1.5450  0.2709  1.1799
 1738SOL    HW211230   1.252   5.264   5.742  0.6109 -0.8949 -2.3146
 1739SOL     OW11231   2.409   2.511   5.831 -0.1345  0.6680  0.0138
 1739SOL    HW111232   2.479   2.469   5.772 -0.8222 -1.8047  0.8158
 1739SOL    HW211233   2.453   2.548   5.913  0.2823 -1.0443  0.6092
 1740SOL     OW11234   0.989   0.333   1.353  0.3739  0.4338  0.0805
 1740SOL    HW111235   1.044   0.251   1.366 -1.9102 -1.3325 -0.8051
 1740SOL    HW211236   0.912   0.333   1.417  0.7666  2.3471  0.6251
 1741SOL     OW11237   4.063   4.323   6.582 -0.0779 -0.1509  0.1449
 1741SOL    HW111238   4.053   4.391   6.509 -0.4963 -0.6711 -0.2930
 1741SOL    HW211239   3.992   4.338   6.651 -0.4076 -0.3689 -0.1408
 1742SOL     OW11240   2.550   1.315   6.579  0.3456  0.2057 -0.2569
 1742SOL    HW111241   2.532   1.354   6.488 -1.6379 -0.2668 -0.1143
 1742SOL    HW211242   2.481   1.246   6.599  0.7981  0.2563  1.5993
 1743SOL     OW11243   3.796   5.534   0.127 -0.0976 -0.7599 -0.4982
 1743SOL    HW111244   3.776   5.441   0.159 -1.5772 -0.3425 -0.1675
 1743SOL    HW211245   3.751   5.548   0.038  2.3893 -1.2589 -1.9359
 1744SOL     OW11246   6.297   4.734   5.946  0.0947  0.6452 -0.4776
 1744SOL    HW111247   6.339   4.723   6.036  2.6127  1.1502 -1.5087
 1744SOL    HW211248   6.338   4.670   5.882 -0.6809  1.2300 -1.5946
 1745SOL     OW11249   4.551   5.978   1.069 -0.5683 -0.1024 -0.2993
 1745SOL    HW111250   4.644   5.973   1.106 -0.3587 -1.1929 -0.9406
 1745SOL    HW211251   4.512   6.068   1.088 -0.5145 -0.6087  2.7016
 1746SOL     OW11252   5.678   1.504   0.830  0.2260 -0.4530  0.5228
 1746SOL    HW111253   5.656   1.591   0.874 -0.1601 -0.8121  1.0511
 1746SOL    HW211254   5.641   1.429   0.884  0.2475 -0.9322 -0.1143
 1747SOL     OW11255   4.294   1.271   6.209  0.7018  0.2869  0.5244
 1747SOL    HW111256   4.198   1.251   6.191  0.9847  0.9647 -2.1287
 1747SOL    HW211257   4.338   1.304   6.125  2.8050  1.8233  2.1299
 1748SOL     OW11258   5.422   4.179   6.160 -0.3055  0.0816  0.5749
 1748SOL    HW111259   5.483   4.100   6.150 -1.0644 -0.5553  0.8705
 1748SOL    HW211260   5.337   4.150   6.203  0.1282  1.4358  2.4492
 1749SOL     OW11261   4.620   1.908   6.352  0.3359  0.3545 -0.1130
 1749SOL    HW111262   4.607   1.992   6.404 -0.5470  0.4344 -0.4423
 1749SOL    HW211263   4.539   1.851   6.360 -0.6714  1.2313 -2.9192
 1750SOL     OW11264   3.968   2.908   0.869  0.5908  0.0442 -0.3910
 1750SOL    HW111265   3.889   2.951   0.825 -0.2663  0.7111  1.6808
 1750SOL    HW211266   3.936   2.840   0.935  1.7779 -0.2390 -0.0896
 1751SOL     OW11267   0.335   3.571   5.593  0.5302  0.4018 -0.5315
 1751SOL    HW111268   0.375   3.603   5.507 -0.1082 -0.0120 -1.0004
 1751SOL    HW211269   0.374   3.482   5.617  2.3019  1.4896  0.7689
 1752SOL     OW11270   2.168   2.423   5.427  0.1394 -0.2180 -0.2883
 1752SOL    HW111271   2.181   2.331   5.465  1.9340 -0.9297 -2.4449
 1752SOL    HW211272   2.242   2.483   5.456 -0.1364  0.0912 -0.2137
 1753SOL     OW11273   2.670   4.649   0.327  0.6429  0.1710  0.1852
 1753SOL    HW111274   2.727   4.609   0.256 -0.4291 -0.3837 -0.3836
 1753SOL    HW211275   2.706   4.739   0.351  1.1196  0.3054 -0.9550
 1754SOL     OW11276   4.878   4.729   0.918 -0.1644  0.1768  0.2920
 1754SOL    HW111277   4.848   4.655   0.858  0.5858  1.9958 -2.5418
 1754SOL    HW211278   4.802   4.794   0.931  0.3714  1.0359 -0.7703
 1755SOL     OW11279   0.429   2.604   0.051  0.2589 -0.1635 -0.1335
 1755SOL    HW111280   0.357   2.535   0.054  0.4012 -0.3468 -0.8086
 1755SOL    HW211281   0.484   2.598   0.135 -2.5209  2.2183  2.0624
 1756SOL     OW11282   2.404   2.267   0.014 -0.0038 -0.9178  0.2036
 1756SOL    HW111283   2.375   2.276   0.110 -1.3533  2.1292 -0.3750
 1756SOL    HW211284   2.459   2.184   0.004 -0.3906 -1.7214  3.4467
 1757SOL     OW11285   1.992   3.566   1.235  0.5452  0.4171 -0.8739
 1757SOL    HW111286   1.924   3.626   1.277  0.5000 -0.4656  0.3653
 1757SOL    HW211287   1.977   3.564   1.136  0.4998  2.3609 -0.9501
 1758SOL     OW11288   0.138   0.039   5.511  0.0286  0.4376  0.8158
 1758SOL    HW111289   0.105  -0.025   5.442 -2.7856  0.4399  2.0363
 1758SOL    HW211290   0.226   0.077   5.481 -0.2507 -0.7942 -1.9172
 1759SOL     OW11291   5.056   4.793   5.440 -0.0958 -0.4381  0.0685
 1759SOL    HW111292   4.964   4.785   5.403  0.3484  1.1681 -1.5614
 1759SOL    HW211293   5.123   4.771   5.369  0.7699  0.9269  0.4074
 1760SOL     OW11294   1.881   4.908   2.253  0.1306  1.1298 -0.1317
 1760SOL    HW111295   1.882   4.860   2.340  1.6005 -0.2414 -0.8351
 1760SOL    HW211296   1.829   4.854   2.186  2.5183 -0.0546 -1.1572
 1761SOL     OW11297   5.141   4.503   6.053  0.1376  0.5145 -0.0644
 1761SOL    HW111298   5.095   4.513   6.142 -0.5190  1.1219 -0.4682
 1761SOL    HW211299   5.140   4.407   6.027 -0.2496  0.4192  0.2815
 1762SOL     OW11300   0.730   4.374   0.560 -0.4434  0.2534 -0.7228
 1762SOL    HW111301   0.700   4.302   0.498 -1.4414 -0.3754  0.4451
 1762SOL    HW211302   0.815   4.347   0.605  0.3302  0.7493 -1.8497
 1763SOL     OW11303   2.941   2.624   0.434  0.5150  0.1717  0.2675
 1763SOL    HW111304   2.922   2.707   0.382 -1.3526 -0.5781 -0.3172
 1763SOL    HW211305   3.040   2.607   0.434  0.6280 -0.3037 -3.9244
 1764SOL     OW11306   4.973   3.179   1.072  0.1959  0.5426 -0.2061
 1764SOL    HW111307   4.883   3.194   1.113 -0.1125 -1.7423  0.0826
 1764SOL    HW211308   5.042   3.228   1.124 -0.5387 -0.0162  1.3717
 1765SOL     OW11309   1.844   1.312   0.146  0.2553  0.1201 -0.1627
 1765SOL    HW111310   1.885   1.347   0.230 -0.9681 -0.6522  0.7868
 1765SOL    HW211311   1.838   1.385   0.079  0.0501  1.1004  0.8924
 1766SOL     OW11312   0.364   3.343   0.525 -0.5027 -0.4722 -0.0852
 1766SOL    HW111313   0.291   3.298   0.576 -1.8087  1.9619  0.3484
 1766SOL    HW211314   0.349   3.442   0.525  1.4485 -0.0886 -2.1604
 1767SOL     OW11315   0.744   4.649   6.066 -0.3262 -0.1056 -0.6353
 1767SOL    HW111316   0.786   4.738   6.084 -0.4713  0.1219 -1.3959
 1767SOL    HW211317   0.816   4.582   6.048 -0.2145 -0.1615 -0.0139
 1768SOL     OW11318   2.416   3.331   6.010 -0.2787 -0.2330  0.4309
 1768SOL    HW111319   2.487   3.377   5.958 -0.8167  0.9829  0.7263
 1768SOL    HW211320   2.411   3.235   5.983  1.6322 -0.4148  0.5859
 1769SOL     OW11321   4.179   6.085   5.279  0.2680  0.0794  0.2483
 1769SOL    HW111322   4.127   6.132   5.350 -0.4127  0.0451 -0.2174
 1769SOL    HW211323   4.116   6.038   5.217  0.7401  1.1948 -1.1410
 1770SOL     OW11324   1.757   5.407   5.386 -0.5186  0.0967 -0.0224
 1770SOL    HW111325   1.690   5.409   5.312  2.7540  0.5799 -3.2515
 1770SOL    HW211326   1.763   5.314   5.423 -2.0040 -0.2357 -0.5146
 1771SOL     OW11327   2.676   0.457   1.137  0.0359 -0.2347  0.2899
 1771SOL    HW111328   2.638   0.513   1.211  1.9204 -1.0043  1.9306
 1771SOL    HW211329   2.772   0.479   1.124 -0.2563 -0.1093 -2.0077
 1772SOL     OW11330   6.241   5.627   0.487  0.1424 -0.1438 -0.2547
 1772SOL    HW111331   6.165   5.563   0.497  0.1408 -0.1396 -0.2426
 1772SOL    HW211332   6.303   5.617   0.565  0.2417 -0.2633 -0.3493
 1773SOL     OW11333   3.446   3.664   0.264  0.0538 -0.0651  0.1543
 1773SOL    HW111334   3.420   3.582   0.314 -0.3961  0.1495  0.2820
 1773SOL    HW211335   3.545   3.670   0.257  0.1124 -0.1834  0.8785
 1774SOL     OW11336   3.704   4.980   6.668 -0.4539  0.3695  0.1459
 1774SOL    HW111337   3.731   4.955   6.575  0.7349 -0.8390  0.7693
 1774SOL    HW211338   3.610   4.950   6.685 -0.2191 -0.6225 -0.2436
 1775SOL     OW11339   3.711   2.197   5.487 -0.1744  0.0671  0.5498
 1775SOL    HW111340   3.742   2.240   5.402 -0.6233  0.5343  0.6153
 1775SOL    HW211341   3.622   2.235   5.513 -0.9950 -1.5086  0.1661
 1776SOL     OW11342   6.094   4.237   5.820 -0.6801 -0.0324  0.0116
 1776SOL    HW111343   6.047   4.292   5.751  0.3132 -0.9931 -1.4914
 1776SOL    HW211344   6.079   4.140   5.802  1.2840 -0.3517 -0.1199
 1777SOL     OW11345   2.496   5.224   5.549 -0.2873 -0.9567 -0.0349
 1777SOL    HW111346   2.449   5.291   5.606 -1.6276 -0.2707 -1.8554
 1777SOL    HW211347   2.595   5.229   5.565 -0.2786  1.8859 -0.5291
 1778SOL     OW11348   2.403   3.555   1.618  0.0382  0.2349  0.2859
 1778SOL    HW111349   2.438   3.641   1.579  1.7956 -0.5863 -0.0633
 1778SOL    HW211350   2.480   3.502   1.654 -0.9490 -1.4449 -0.0044
 1779SOL     OW11351   5.352   1.844   5.907 -0.2901  0.0438 -0.0837
 1779SOL    HW111352   5.255   1.859   5.888 -0.1709  0.2875 -0.5062
 1779SOL    HW211353   5.366   1.749   5.935 -0.5777 -0.1301 -0.5188
 1780SOL     OW11354   2.726   3.145   6.023  0.2684  0.2429  0.4747
 1780SOL    HW111355   2.818   3.112   6.003  0.0169 -0.1394 -0.0565
 1780SOL    HW211356   2.726   3.245   6.020  0.5145  0.2310 -0.2466
 1781SOL     OW11357   1.515   0.989   0.037  0.4602 -0.8598 -0.8253
 1781SOL    HW111358   1.554   0.987   0.129  0.1379  0.4697 -0.6287
 1781SOL    HW211359   1.448   0.916   0.027  0.9617 -1.4101 -0.2230
 1782SOL     OW11360   4.407   6.102   6.538 -0.2901  0.6366 -1.0983
 1782SOL    HW111361   4.419   6.201   6.530 -0.9538  0.6844 -1.5804
 1782SOL    HW211362   4.325   6.074   6.487 -0.1698 -0.1447 -0.8748
 1783SOL     OW11363   2.680   4.706   5.582 -0.1847  0.1995 -0.0668
 1783SOL    HW111364   2.637   4.651   5.653 -0.0528 -2.3260 -1.8164
 1783SOL    HW211365   2.610   4.761   5.535 -0.8848 -0.8723 -0.3104
 1784SOL     OW11366   4.625   0.257   6.420  0.6083  0.0962  0.6200
 1784SOL    HW111367   4.704   0.213   6.376 -0.2421 -0.4755 -0.3816
 1784SOL    HW211368   4.597   0.336   6.366 -1.4919 -1.5720 -0.9507
 1785SOL     OW11369   1.294   4.415   1.129 -0.6282  0.1286 -0.1702
 1785SOL    HW111370   1.270   4.510   1.146 -0.9247  0.0522 -0.1538
 1785SOL    HW211371   1.247   4.356   1.195  0.8516  0.0962  0.9021
 1786SOL     OW11372   4.356   4.136   5.185 -0.3537  0.2778  0.0392
 1786SOL    HW111373   4.379   4.233   5.186 -0.6888  0.3648 -0.5081
 1786SOL    HW211374   4.438   4.082   5.164 -0.0834  0.4070  0.7169
 1787SOL     OW11375   0.642   2.861   0.462  0.0426 -0.6735 -0.0629
 1787SOL    HW111376   0.719   2.907   0.419  1.0340 -0.6989  1.5895
 1787SOL    HW211377   0.660   2.763   0.466 -0.9939 -0.9523 -1.4285
 1788SOL     OW11378   4.766   2.463   0.015  0.0298 -0.1143 -0.0128
 1788SOL    HW111379   4.697   2.404   0.056 -0.9929  1.5030  0.7083
 1788SOL    HW211380   4.724   2.549  -0.014  1.6610  0.7606  0.0514
 1789SOL     OW11381   4.695   4.096   6.569  0.0126  0.6063  0.0708
 1789SOL    HW111382   4.730   4.041   6.645 -1.4971 -1.8554 -0.8812
 1789SOL    HW211383   4.608   4.138   6.596  0.2855  1.0611  0.2343
 1790SOL     OW11384   3.197   3.297   6.613  0.3080  0.0090  0.2936
 1790SOL    HW111385   3.119   3.248   6.575  0.5780  0.0933 -0.3796
 1790SOL    HW211386   3.191   3.297   6.713 -1.5633  1.6368  0.2412
 1791SOL     OW11387   5.619   0.896   6.194 -0.0860 -0.7959 -0.2126
 1791SOL    HW111388   5.715   0.882   6.172  0.8277  2.6793  0.8728
 1791SOL    HW211389   5.597   0.993   6.187 -3.4436 -1.4172  0.0090
 1792SOL     OW11390   3.873   4.233   0.314 -0.0692  0.5853  0.2539
 1792SOL    HW111391   3.870   4.133   0.310  0.3426  0.5765  0.1344
 1792SOL    HW211392   3.864   4.263   0.409  2.2418  0.3313  0.6169
 1793SOL     OW11393   5.904   3.037   5.911 -0.2614 -0.8596  1.0859
 1793SOL    HW111394   5.891   2.938   5.921  1.2097 -1.0320  1.5794
 1793SOL    HW211395   5.984   3.054   5.853 -0.6294  0.0455  0.8286
 1794SOL     OW11396   1.530   2.515   5.961 -0.6946  0.3577 -0.6648
 1794SOL    HW111397   1.526   2.613   5.981 -0.3550  0.9295 -3.0909
 1794SOL    HW211398   1.586   2.470   6.031  0.3634  2.1254 -0.2771
 1795SOL     OW11399   3.839   3.932   5.434 -0.2272 -0.0783  0.2484
 1795SOL    HW111400   3.882   4.021   5.421  0.3138  0.1227  2.8228
 1795SOL    HW211401   3.742   3.944   5.452 -0.2915 -0.0624 -0.1146
 1796SOL     OW11402   2.639   4.153   6.203  0.2257 -0.6811 -0.6827
 1796SOL    HW111403   2.710   4.091   6.170  1.8535  0.3762  0.6372
 1796SOL    HW211404   2.670   4.248   6.191 -0.4071 -0.2121  1.0786
 1797SOL     OW11405   4.007   1.418   5.714 -0.7033 -0.6035  0.0538
 1797SOL    HW111406   3.907   1.423   5.708 -0.8016 -2.2447 -0.2275
 1797SOL    HW211407   4.033   1.385   5.805 -0.4606 -0.9513 -0.1401
 1798SOL     OW11408   2.596   3.878   0.414 -0.1539 -0.4900 -0.4482
 1798SOL    HW111409   2.600   3.834   0.504  0.7500  0.3061 -0.0783
 1798SOL    HW211410   2.575   3.975   0.426  0.7918 -0.1996 -1.0293
 1799SOL     OW11411   0.134   4.595   0.719 -0.1610  0.0773  0.2018
 1799SOL    HW111412   0.132   4.554   0.627  1.4821  0.3089  0.0252
 1799SOL    HW211413   0.155   4.692   0.711  0.6881 -0.0443  0.8478
 1800SOL     OW11414   4.139   5.201   0.749  0.0927  0.7004  0.0687
 1800SOL    HW111415   4.118   5.286   0.700 -0.0884  1.1575  0.9180
 1800SOL    HW211416   4.183   5.223   0.836 -0.6182 -0.0484  0.6343
 1801SOL     OW11417   0.372   5.064   0.572 -0.2061 -0.1364  0.0625
 1801SOL    HW111418   0.292   5.073   0.512 -0.3071  0.7590  0.3131
 1801SOL    HW211419   0.372   5.138   0.639  0.6598 -0.3205  0.2828
 1802SOL     OW11420   1.720   3.601   5.558 -0.2289  0.1775  0.1234
 1802SOL    HW111421   1.774   3.684   5.544  1.1040 -0.7102 -0.2684
 1802SOL    HW211422   1.730   3.541   5.478 -0.2927 -0.8207  0.8513
 1803SOL     OW11423   5.635   3.972   5.060 -0.2692 -0.6056  0.2793
 1803SOL    HW111424   5.535   3.969   5.067 -0.2329  0.0968  1.2779
 1803SOL    HW211425   5.661   4.012   4.972 -0.8683 -0.5408  0.1267
 1804SOL     OW11426   0.215   6.051   5.810  0.5411 -0.4793 -0.1649
 1804SOL    HW111427   0.142   6.007   5.758 -1.8189  1.6737  1.0643
 1804SOL    HW211428   0.284   5.984   5.835 -0.2981 -2.3714 -2.5039
 1805SOL     OW11429   1.240   6.267   6.590 -0.8091  0.1990 -0.0913
 1805SOL    HW111430   1.217   6.349   6.538  1.1321  1.1947  0.5390
 1805SOL    HW211431   1.254   6.291   6.686  0.3536 -0.7468  0.0034
 1806SOL     OW11432   4.389   2.359   0.670 -0.5534 -0.1338 -0.6218
 1806SOL    HW111433   4.472   2.354   0.725 -0.3745  2.1220 -0.5821
 1806SOL    HW211434   4.315   2.311   0.716 -0.0593  0.5630  0.9425
 1807SOL     OW11435   5.134   3.288   1.272 -0.1400  0.1825  0.2025
 1807SOL    HW111436   5.084   3.225   1.331  2.5723 -1.8581  0.5227
 1807SOL    HW211437   5.173   3.362   1.327  0.7870 -0.6606  0.7137
 1808SOL     OW11438   5.758   3.581   5.758  0.1147  0.1595 -0.2482
 1808SOL    HW111439   5.678   3.622   5.802 -0.1953 -0.8720  0.1820
 1808SOL    HW211440   5.732   3.545   5.669  0.2343  0.3323 -0.3521
 1809SOL     OW11441   4.358   1.333   6.451 -0.3374  0.3739 -0.2419
 1809SOL    HW111442   4.295   1.275   6.504  0.6122 -0.0506  0.4396
 1809SOL    HW211443   4.332   1.330   6.355 -0.6504 -0.7465 -0.1365
 1810SOL     OW11444   4.209   1.450   5.942  0.1420 -0.0064  0.1799
 1810SOL    HW111445   4.286   1.397   5.908 -1.3420 -2.6704  0.6994
 1810SOL    HW211446   4.237   1.500   6.025  1.3757 -0.6139  0.1533
 1811SOL     OW11447   5.147   4.671   6.282 -0.0527  0.2663  0.3131
 1811SOL    HW111448   5.182   4.692   6.374 -0.3709  1.8907  0.1010
 1811SOL    HW211449   5.215   4.698   6.214 -0.6952  1.1366 -0.0015
 1812SOL     OW11450   0.137   4.821   5.487  0.3175 -0.1786 -0.2753
 1812SOL    HW111451   0.143   4.822   5.387  1.2058  1.3220 -0.2467
 1812SOL    HW211452   0.041   4.811   5.515 -0.2914  1.9517 -1.3514
 1813SOL     OW11453   3.115   2.631   0.915  0.8080 -0.0548  0.5292
 1813SOL    HW111454   3.171   2.661   0.838  0.4766 -0.3856  0.1555
 1813SOL    HW211455   3.168   2.569   0.973  0.3631 -1.6326 -0.6787
 1814SOL     OW11456   5.529   0.455   0.049 -0.1741  0.3205  0.5472
 1814SOL    HW111457   5.544   0.443   0.147  1.7855  1.9554  0.5246
 1814SOL    HW211458   5.576   0.538   0.018  1.9476 -1.7020 -2.3189
 1815SOL     OW11459   0.721   0.783   0.382 -0.4883 -0.7989 -0.1467
 1815SOL    HW111460   0.745   0.862   0.439 -1.8545 -1.2016  1.0580
 1815SOL    HW211461   0.783   0.707   0.403 -0.5107 -0.7100  0.2446
 1816SOL     OW11462   5.633   5.151   6.380 -0.0963  0.0783 -0.4441
 1816SOL    HW111463   5.725   5.135   6.415 -0.2203 -0.1510 -0.2213
 1816SOL    HW211464   5.610   5.248   6.390 -0.0310  0.0634 -0.1315
 1817SOL     OW11465   6.047   2.301   5.743  0.0581 -0.2120  0.3478
 1817SOL    HW111466   6.116   2.230   5.731  0.5958  0.4798 -0.8083
 1817SOL    HW211467   6.084   2.374   5.800  0.3320  0.2037 -0.3496
 1818SOL     OW11468   4.114   1.529   0.339 -0.2013  0.3153  0.0316
 1818SOL    HW111469   4.163   1.468   0.401 -0.6348 -0.6597 -0.5595
 1818SOL    HW211470   4.016   1.527   0.358 -0.2760  0.4353 -0.3176
 1819SOL     OW11471   2.592   2.010   6.214  0.0648 -0.1395  0.1565
 1819SOL    HW111472   2.662   1.989   6.146  0.0340 -0.2554  0.1606
 1819SOL    HW211473   2.538   1.928   6.233 -0.5858  0.1395 -0.4384
 1820SOL     OW11474   5.260   5.934   0.627  0.3586 -0.7208  0.0846
 1820SOL    HW111475   5.295   5.924   0.534 -0.4632 -0.4439 -0.2706
 1820SOL    HW211476   5.327   5.983   0.683  0.6518 -0.4369 -0.5017
 1821SOL     OW11477   1.592   0.625   5.122 -0.8514 -0.0825  0.8146
 1821SOL    HW111478   1.530   0.672   5.059 -1.1477 -0.8029  0.5613
 1821SOL    HW211479   1.667   0.584   5.070 -0.5301  0.2070  1.0471
 1822SOL     OW11480   0.356   1.786   0.804  0.2953  0.3934 -0.0161
 1822SOL    HW111481   0.441   1.761   0.757  1.2874  2.3217  0.6400
 1822SOL    HW211482   0.366   1.769   0.902 -0.0475  0.7416  0.0800
 1823SOL     OW11483   1.403   0.171   0.722  0.3962  0.3201  0.4792
 1823SOL    HW111484   1.464   0.203   0.795 -1.1451  3.0519  0.7163
 1823SOL    HW211485   1.310   0.161   0.759  0.0042 -0.3336 -0.6516
 1824SOL     OW11486   1.625   3.080   0.891 -0.1163  0.3499 -0.4486
 1824SOL    HW111487   1.623   3.034   0.979 -0.2017  1.6744  0.2796
 1824SOL    HW211488   1.535   3.073   0.847 -0.1472 -0.1048 -0.3094
 1825SOL     OW11489   3.671   0.354   4.262 -0.2472  0.1744  0.7734
 1825SOL    HW111490   3.626   0.436   4.225 -1.7013 -1.1800 -0.5951
 1825SOL    HW211491   3.613   0.313   4.332  0.4244  0.2207  1.3671
 1826SOL     OW11492   4.739   3.103   5.921  0.0428 -0.4676 -0.1960
 1826SOL    HW111493   4.675   3.125   5.848  1.1081  0.2905 -0.9438
 1826SOL    HW211494   4.689   3.077   6.004 -1.2763  2.2420 -0.0665
 1827SOL     OW11495   2.863   3.333   5.301 -0.1405  0.4708 -0.9836
 1827SOL    HW111496   2.823   3.414   5.257 -0.1859  1.1196  0.1994
 1827SOL    HW211497   2.944   3.361   5.353 -0.6588 -0.0761  0.1609
 1828SOL     OW11498   4.233   3.279   6.055 -0.0607  0.3527  0.4357
 1828SOL    HW111499   4.318   3.328   6.076  0.9392 -0.7547 -0.7722
 1828SOL    HW211500   4.220   3.279   5.956 -1.7655  0.9232  0.6359
 1829SOL     OW11501   4.127   3.244   0.822 -0.1061 -0.2491 -0.3750
 1829SOL    HW111502   4.043   3.266   0.871  0.5900  1.3001  0.1657
 1829SOL    HW211503   4.190   3.197   0.884  0.4188  0.8918 -0.0336
 1830SOL     OW11504   3.030   2.871   1.026 -0.6496  0.6173 -0.0793
 1830SOL    HW111505   3.073   2.947   0.976 -0.2007  1.1428  1.0791
 1830SOL    HW211506   3.066   2.784   0.991  0.3195  1.0031 -0.0726
 1831SOL     OW11507   4.506   5.086   1.092 -0.0039  0.4756 -0.3155
 1831SOL    HW111508   4.547   5.153   1.154  1.0109  1.2650 -1.7693
 1831SOL    HW211509   4.428   5.042   1.137 -0.2160  2.0633  0.9696
 1832SOL     OW11510   1.718   4.263   6.050 -0.6619 -0.1754 -0.1758
 1832SOL    HW111511   1.648   4.306   5.994 -0.6711 -0.7483 -0.6156
 1832SOL    HW211512   1.676   4.193   6.108 -0.4052 -0.8109 -0.7422
 1833SOL     OW11513   5.176   5.148   5.557  0.5020  0.2570  0.0193
 1833SOL    HW111514   5.080   5.145   5.587  0.2359 -1.0784 -0.8722
 1833SOL    HW211515   5.179   5.173   5.461  0.8693 -1.8591 -0.5535
 1834SOL     OW11516   0.801   6.042   0.458  0.3089 -0.6429 -0.2901
 1834SOL    HW111517   0.818   5.963   0.517 -1.9436  0.2455  1.7194
 1834SOL    HW211518   0.774   6.011   0.367  1.4101 -2.1176 -0.1419
 1835SOL     OW11519   1.546   3.892   5.212  0.1663  0.0099 -0.6672
 1835SOL    HW111520   1.483   3.855   5.145  0.0501 -0.4845 -0.2913
 1835SOL    HW211521   1.608   3.820   5.244 -1.3184 -0.4062  1.5125
 1836SOL     OW11522   3.006   4.044   1.110  0.0298 -0.1225  0.6968
 1836SOL    HW111523   3.011   3.956   1.062 -1.9076 -0.0267  0.2171
 1836SOL    HW211524   2.977   4.028   1.205  0.5571 -0.0686  0.8662
 1837SOL     OW11525   0.908   0.583   0.390 -0.0355 -0.5697 -0.0617
 1837SOL    HW111526   0.912   0.551   0.295 -2.7205 -0.7341 -0.2002
 1837SOL    HW211527   0.882   0.508   0.450 -2.4074  0.3417  0.1722
 1838SOL     OW11528   0.898   3.516   5.378  0.5129  0.0001  0.0977
 1838SOL    HW111529   0.987   3.488   5.413  0.6180 -0.8314 -0.7961
 1838SOL    HW211530   0.830   3.512   5.452  1.0959  0.0863  0.6416
 1839SOL     OW11531   1.161   4.846   0.953 -0.1699  0.1088 -0.1089
 1839SOL    HW111532   1.229   4.866   0.882  0.4596  0.9529  0.6963
 1839SOL    HW211533   1.080   4.902   0.938 -0.4364 -0.4385 -0.7176
 1840SOL     OW11534   5.886   2.137   5.348  0.2215 -0.2471  0.1884
 1840SOL    HW111535   5.817   2.203   5.378  1.6801  1.3236  0.2189
 1840SOL    HW211536   5.855   2.092   5.264 -1.1878 -0.1967  0.6562
 1841SOL     OW11537   1.327   2.575   6.682  0.1139  0.0098  0.4847
 1841SOL    HW111538   1.230   2.555   6.692 -0.2639  0.3883 -1.8731
 1841SOL    HW211539   1.371   2.501   6.629  0.5401  1.0683 -0.6827
 1842SOL     OW11540   3.195   5.449   5.227 -0.6401 -0.2521  0.4836
 1842SOL    HW111541   3.103   5.487   5.215  0.0230  2.0316  2.0356
 1842SOL    HW211542   3.263   5.520   5.207  0.7809 -1.6131  0.3074
 1843SOL     OW11543   5.107   3.504   0.533 -0.2570  0.0220  0.0802
 1843SOL    HW111544   5.136   3.599   0.520 -2.4154  0.6616 -0.4888
 1843SOL    HW211545   5.049   3.498   0.615  0.9365 -1.0916  0.8782
 1844SOL     OW11546   3.548   0.135   5.431 -0.1577  0.4165  0.1896
 1844SOL    HW111547   3.555   0.173   5.523 -0.7352 -1.4392  1.0464
 1844SOL    HW211548   3.469   0.175   5.385  0.2998  1.5656  0.3804
 1845SOL     OW11549   0.485   0.614   6.457  0.6079  0.1388 -0.2718
 1845SOL    HW111550   0.454   0.605   6.362 -0.3217  1.4406 -0.1247
 1845SOL    HW211551   0.532   0.531   6.485  1.4020 -0.0492 -2.0513
 1846SOL     OW11552   1.052   1.033   5.405 -0.8170 -0.6962 -0.4832
 1846SOL    HW111553   1.007   1.122   5.401 -0.5112 -0.5430 -0.5322
 1846SOL    HW211554   1.008   0.970   5.340 -2.2358 -1.1462  0.8643
 1847SOL     OW11555   6.261   5.048   0.498 -0.4335  0.3280 -0.6211
 1847SOL    HW111556   6.216   4.997   0.571  1.5334 -1.3734 -0.5447
 1847SOL    HW211557   6.289   5.138   0.532 -1.9873  0.6678 -0.1420
 1848SOL     OW11558   4.491   0.109   0.984 -0.0553  0.2359  0.6027
 1848SOL    HW111559   4.488   0.174   1.060 -1.6636  0.4611  0.3813
 1848SOL    HW211560   4.407   0.116   0.930  0.8048 -0.3043 -0.8923
 1849SOL     OW11561   2.168   2.398   5.824  0.5808  0.4285 -0.3046
 1849SOL    HW111562   2.117   2.449   5.755 -0.6973 -1.0246 -0.4683
 1849SOL    HW211563   2.257   2.441   5.837  1.0908  0.4735 -3.2389
 1850SOL     OW11564   2.907   2.074   5.703  0.5470  0.0943  0.0376
 1850SOL    HW111565   2.867   2.046   5.790  1.9941  1.5227  1.2152
 1850SOL    HW211566   3.003   2.048   5.700  0.9434  1.4898 -0.4085
 1851SOL     OW11567   0.190   1.954   6.603  0.9586  0.4012 -0.4251
 1851SOL    HW111568   0.265   1.937   6.539  2.0595 -0.9750  1.1280
 1851SOL    HW211569   0.183   1.878   6.667  1.6349  2.7690  2.7390
 1852SOL     OW11570   0.486   3.714   6.069  0.2181 -0.4552  0.3404
 1852SOL    HW111571   0.390   3.740   6.060  0.1963 -0.3244  0.9309
 1852SOL    HW211572   0.499   3.622   6.033 -0.0950 -0.4077  0.1034
 1853SOL     OW11573   4.763   3.506   0.547 -0.8632 -1.1842 -0.0137
 1853SOL    HW111574   4.833   3.531   0.614 -1.0109 -0.3044 -0.1746
 1853SOL    HW211575   4.791   3.538   0.456 -1.5533 -0.6479 -0.0475
 1854SOL     OW11576   5.079   4.205   5.732  0.5279 -0.2173 -0.0572
 1854SOL    HW111577   5.058   4.259   5.650 -1.7624  0.4111  0.8648
 1854SOL    HW211578   5.148   4.253   5.786 -0.0193  0.8131 -0.2378
 1855SOL     OW11579   2.817   4.450   6.074 -0.1345 -0.1793 -0.2548
 1855SOL    HW111580   2.737   4.443   6.133  0.5647 -0.9435  0.6394
 1855SOL    HW211581   2.841   4.546   6.061  1.5960  0.0294  3.3998
 1856SOL     OW11582   5.376   1.744   6.682  0.3021 -0.5111 -0.3603
 1856SOL    HW111583   5.352   1.702   6.594 -0.7645  0.1425 -0.3943
 1856SOL    HW211584   5.295   1.784   6.723  1.4079  2.3745 -0.7791
 1857SOL     OW11585   1.935   6.001   6.421  0.6465  0.1358 -0.1105
 1857SOL    HW111586   1.895   6.060   6.350  2.2369  1.2391 -0.1349
 1857SOL    HW211587   1.868   5.931   6.448 -0.9404  1.3268 -0.8027
 1858SOL     OW11588   4.921   2.345   6.242 -0.1268  0.6822  0.1221
 1858SOL    HW111589   5.012   2.308   6.264 -0.3064  0.6322  0.8054
 1858SOL    HW211590   4.919   2.371   6.146  1.0170  1.8417  0.3862
 1859SOL     OW11591   4.394   6.267   0.432  0.5316 -0.1249  0.3870
 1859SOL    HW111592   4.397   6.222   0.343  0.7950  0.0368  0.3134
 1859SOL    HW211593   4.331   6.218   0.492  0.8868 -0.6498  0.3373
 1860SOL     OW11594   3.801   3.008   0.341 -0.5513  0.6204  0.3705
 1860SOL    HW111595   3.747   2.927   0.320  1.3941 -0.9872  1.2843
 1860SOL    HW211596   3.897   2.984   0.347  0.0028  2.8230  1.6531
 1861SOL     OW11597   5.403   5.528   6.622  0.8323 -0.3335 -0.2837
 1861SOL    HW111598   5.435   5.540   6.716  0.3014 -1.5281  0.0581
 1861SOL    HW211599   5.304   5.523   6.621  0.7834  0.5103 -1.0212
 1862SOL     OW11600   0.921   1.914   6.061  0.7063 -0.7045  0.0305
 1862SOL    HW111601   0.981   1.940   6.137  0.8194  0.6015 -0.4886
 1862SOL    HW211602   0.874   1.995   6.026 -1.1653 -1.6469  0.2292
 1863SOL     OW11603   2.943   3.821   6.172 -0.1496 -0.2883 -0.2563
 1863SOL    HW111604   3.021   3.759   6.181 -0.6353 -0.9379 -0.3648
 1863SOL    HW211605   2.898   3.831   6.261 -1.3387 -1.8315 -0.6361
 1864SOL     OW11606   2.541   2.837   5.469  0.0037  0.8083 -0.8050
 1864SOL    HW111607   2.484   2.831   5.551  0.4304 -0.3310 -0.5660
 1864SOL    HW211608   2.488   2.873   5.393 -2.6160 -4.3754 -1.9103
 1865SOL     OW11609   4.119   0.408   0.991  0.1774  0.0326  0.5175
 1865SOL    HW111610   4.211   0.447   0.980  0.3848 -0.8063 -1.0457
 1865SOL    HW211611   4.059   0.476   1.033  0.4120  2.2278 -2.3736
 1866SOL     OW11612   4.532   1.731   0.395 -0.2605 -0.8896 -0.6335
 1866SOL    HW111613   4.453   1.716   0.455  0.3060 -0.8835  0.1287
 1866SOL    HW211614   4.507   1.795   0.322 -0.9620 -0.9043 -0.4167
 1867SOL     OW11615   0.205   5.594   5.540  0.6672 -0.2483  0.4424
 1867SOL    HW111616   0.234   5.664   5.475  0.0131  0.0938  0.5146
 1867SOL    HW211617   0.113   5.615   5.574  0.9648 -0.4659  1.4172
 1868SOL     OW11618   6.167   5.275   6.683  0.7436  0.1047  0.2526
 1868SOL    HW111619   6.250   5.250   6.733  0.7048  1.4677  1.0567
 1868SOL    HW211620   6.119   5.347   6.733 -0.8291 -0.5189 -0.3039
 1869SOL     OW11621   2.103   0.615   1.716  0.4245  0.0398  0.4438
 1869SOL    HW111622   2.015   0.637   1.673  0.2326  0.5722  1.0924
 1869SOL    HW211623   2.090   0.601   1.814  1.1691  0.8377  0.6658
 1870SOL     OW11624   5.556   5.560   0.820  0.4671  0.0858  0.3572
 1870SOL    HW111625   5.490   5.521   0.756 -0.0859  0.3288  0.7658
 1870SOL    HW211626   5.509   5.582   0.906  1.5034 -1.7521  1.4553
 1871SOL     OW11627   5.694   3.203   5.660 -0.0378  0.3887  0.4806
 1871SOL    HW111628   5.730   3.164   5.744  0.0671 -1.0358 -0.2029
 1871SOL    HW211629   5.594   3.208   5.665 -0.0464  0.1038  0.6017
 1872SOL     OW11630   4.208   0.689   5.721  0.3295  0.1378 -0.4717
 1872SOL    HW111631   4.175   0.690   5.815  0.7382 -0.6079 -0.3140
 1872SOL    HW211632   4.303   0.658   5.719  1.1794  2.5490 -0.8939
 1873SOL     OW11633   1.629   4.890   1.175  0.4374  0.4796 -0.1583
 1873SOL    HW111634   1.556   4.850   1.231  0.2136  0.3239 -0.5557
 1873SOL    HW211635   1.708   4.911   1.232 -0.3360  1.7080  0.4999
 1874SOL     OW11636   0.429   5.584   5.157 -0.6695  0.6034  0.0943
 1874SOL    HW111637   0.402   5.506   5.101 -1.1871  1.9038 -1.5511
 1874SOL    HW211638   0.440   5.555   5.252 -2.5565 -1.1074 -0.1469
 1875SOL     OW11639   4.534   4.783   0.535  0.6990  0.8436 -0.3145
 1875SOL    HW111640   4.563   4.764   0.441 -1.4013  1.0294 -1.0444
 1875SOL    HW211641   4.568   4.873   0.563 -1.1759  2.1834 -2.0583
 1876SOL     OW11642   5.254   1.046   5.358  0.4199  0.5565 -0.0861
 1876SOL    HW111643   5.221   0.979   5.424  0.6302  0.4923 -0.0442
 1876SOL    HW211644   5.177   1.086   5.309  0.2512  0.7132  0.3059
 1877SOL     OW11645   2.075   4.931   1.352  0.0094 -0.0820  0.7780
 1877SOL    HW111646   2.132   4.900   1.428 -1.2900 -2.7254  0.7947
 1877SOL    HW211647   1.979   4.933   1.381 -0.5034 -1.0382 -0.7180
 1878SOL     OW11648   2.610   3.078   1.157 -0.1474 -0.3345  0.0991
 1878SOL    HW111649   2.699   3.082   1.204 -0.2461  0.2092  0.2372
 1878SOL    HW211650   2.617   3.016   1.079  0.6518  0.5208 -0.5235
 1879SOL     OW11651   2.270   2.826   0.514  0.3425 -0.3423 -0.1652
 1879SOL    HW111652   2.269   2.832   0.414 -1.5485  0.4492 -0.1391
 1879SOL    HW211653   2.316   2.906   0.551  2.0083 -1.1567 -0.3894
 1880SOL     OW11654   3.000   4.919   5.585  0.1446 -0.7916 -0.0311
 1880SOL    HW111655   3.031   4.996   5.640  1.1000 -0.8373 -0.4750
 1880SOL    HW211656   3.066   4.902   5.512 -0.7214 -1.2007 -0.7364
 1881SOL     OW11657   4.598   2.654   6.534  0.1763  0.3536  0.4180
 1881SOL    HW111658   4.590   2.737   6.478  0.2380 -0.7577 -1.3052
 1881SOL    HW211659   4.648   2.584   6.484 -1.0341 -1.2085  1.2811
 1882SOL     OW11660   4.444   5.284   6.170  0.0014 -0.5909  0.4676
 1882SOL    HW111661   4.437   5.226   6.089 -1.0697  0.1947 -0.0296
 1882SOL    HW211662   4.481   5.231   6.247  2.3988 -0.9891 -0.8737
 1883SOL     OW11663   6.128   3.001   1.230 -0.5380 -0.1890  0.4270
 1883SOL    HW111664   6.223   3.017   1.253 -0.2828 -2.1028  0.9427
 1883SOL    HW211665   6.069   3.055   1.290  0.1871  1.7358 -0.5317
 1884SOL     OW11666   6.014   5.737   0.380 -0.0162  0.3731  0.2907
 1884SOL    HW111667   5.954   5.804   0.424  0.2106 -0.1061  1.3668
 1884SOL    HW211668   6.085   5.708   0.445 -0.6345 -1.5699  0.1742
 1885SOL     OW11669   1.082   4.801   4.981  0.3151  0.4144 -0.3843
 1885SOL    HW111670   1.141   4.752   5.045 -1.9169 -1.4882  0.4043
 1885SOL    HW211671   1.120   4.795   4.888  0.0624 -3.3083 -0.4153
 1886SOL     OW11672   0.257   2.053   5.732  0.0001 -0.0260  0.2294
 1886SOL    HW111673   0.315   1.977   5.701 -1.5700 -0.4262 -2.0120
 1886SOL    HW211674   0.248   2.050   5.831  2.1574 -1.1192  0.4589
 1887SOL     OW11675   0.659   5.599   5.865 -0.7911 -0.4214  0.3971
 1887SOL    HW111676   0.574   5.608   5.814 -0.1725 -1.5960 -0.9018
 1887SOL    HW211677   0.733   5.574   5.802  0.3413 -0.2550  1.6249
 1888SOL     OW11678   6.177   4.756   5.540  0.2053  0.0632  0.0271
 1888SOL    HW111679   6.126   4.681   5.581  0.9825 -0.6212 -0.2210
 1888SOL    HW211680   6.114   4.828   5.510 -0.5550 -0.5220  0.2026
 1889SOL     OW11681   5.023   6.255   0.647  0.0571  0.2485  0.0475
 1889SOL    HW111682   4.982   6.165   0.661 -0.3654  0.2742 -0.9589
 1889SOL    HW211683   5.018   6.280   0.550  1.0637  0.9281  0.1519
 1890SOL     OW11684   3.101   2.486   6.210  0.3154 -0.2239 -0.5599
 1890SOL    HW111685   3.093   2.386   6.208 -4.2710 -0.0432 -1.3741
 1890SOL    HW211686   3.085   2.523   6.118  0.1615  1.3176  0.0557
 1891SOL     OW11687   0.222   4.343   5.892  0.8846  0.3228  0.0619
 1891SOL    HW111688   0.139   4.395   5.871  1.6846  1.3588 -0.6769
 1891SOL    HW211689   0.284   4.400   5.946  1.2051 -0.3645  0.4300
 1892SOL     OW11690   1.675   3.052   6.466  0.1365  0.3065 -0.0510
 1892SOL    HW111691   1.750   2.997   6.429  0.6981  0.7644  0.3974
 1892SOL    HW211692   1.655   3.128   6.404 -0.7289 -0.4507 -0.7382
 1893SOL     OW11693   1.294   2.165   6.111 -0.4836  0.1378  0.1255
 1893SOL    HW111694   1.355   2.096   6.070 -0.4281 -0.6182  1.4033
 1893SOL    HW211695   1.246   2.124   6.188 -3.4745  0.3794 -1.4642
 1894SOL     OW11696   6.071   1.808   5.662 -0.4815  0.5917  0.2245
 1894SOL    HW111697   6.040   1.778   5.752 -0.5541 -0.6258 -0.1756
 1894SOL    HW211698   6.171   1.810   5.660 -0.4629  0.0116  0.1678
 1895SOL     OW11699   5.683   0.873   5.321  0.3035  0.1677 -0.4312
 1895SOL    HW111700   5.600   0.831   5.356  0.6480  0.5162  0.8719
 1895SOL    HW211701   5.712   0.946   5.382  2.8372 -1.4561  0.5018
 1896SOL     OW11702   2.437   2.764   1.291 -0.0995  0.1215  0.2286
 1896SOL    HW111703   2.469   2.686   1.236 -0.7014 -0.9506  1.3472
 1896SOL    HW211704   2.393   2.730   1.374  0.8641  1.7009  1.4373
 1897SOL     OW11705   5.309   4.906   6.257  0.5257  0.9422  0.1483
 1897SOL    HW111706   5.216   4.927   6.226  0.0005 -1.7478 -0.3770
 1897SOL    HW211707   5.322   4.939   6.350 -2.1218 -1.3594  1.4698
 1898SOL     OW11708   4.762   1.773   5.618  0.1878 -0.3827  0.8195
 1898SOL    HW111709   4.826   1.698   5.631  0.7651  0.2272  1.5807
 1898SOL    HW211710   4.765   1.834   5.697 -0.1053  0.5727  0.1219
 1899SOL     OW11711   6.157   0.030   1.017  0.3459 -0.2210 -0.3573
 1899SOL    HW111712   6.068   0.030   1.062  0.1163 -0.9257 -0.8006
 1899SOL    HW211713   6.221  -0.026   1.070  1.0344  1.6408  0.8966
 1900SOL     OW11714   0.140   1.718   5.975 -0.1654 -0.1386  0.1053
 1900SOL    HW111715   0.179   1.810   5.976  0.9308 -0.5800 -0.1842
 1900SOL    HW211716   0.120   1.689   6.069 -0.9592  0.5677  0.1612
 1901SOL     OW11717   0.188   1.986   6.000 -0.3618 -0.3568  0.1912
 1901SOL    HW111718   0.104   2.007   6.051 -1.1388 -1.8664 -0.4045
 1901SOL    HW211719   0.265   1.981   6.064 -0.7947  0.5721  0.8154
 1902SOL     OW11720   1.470   0.080   0.218  0.5996 -0.0269  0.3657
 1902SOL    HW111721   1.540   0.013   0.194  0.6899  0.3458 -0.4528
 1902SOL    HW211722   1.380   0.039   0.209  0.6230  0.1485 -0.8142
 1903SOL     OW11723   4.510   3.818   5.890  0.1776  0.5352  0.3055
 1903SOL    HW111724   4.468   3.773   5.811 -0.4130 -1.6430  1.7596
 1903SOL    HW211725   4.557   3.750   5.946  0.1365  1.9069  2.1139
 1904SOL     OW11726   3.542   5.070   1.218  0.4557 -0.2449 -0.0615
 1904SOL    HW111727   3.582   5.161   1.207  1.5382 -0.4619  1.6993
 1904SOL    HW211728   3.615   5.001   1.208 -0.2073 -0.8933 -0.5642
 1905SOL     OW11729   3.109   3.452   5.195  0.2439 -0.0199  0.0071
 1905SOL    HW111730   3.137   3.373   5.251 -0.5680 -0.7444 -0.5862
 1905SOL    HW211731   3.052   3.421   5.120 -1.3610  1.2905  0.6163
 1906SOL     OW11732   0.424   1.928   6.461 -0.3353  0.1458 -0.0900
 1906SOL    HW111733   0.465   1.853   6.513 -0.6287 -0.7989 -1.1678
 1906SOL    HW211734   0.470   2.014   6.484  2.5216 -0.8895 -1.4549
 1907SOL     OW11735   1.117   3.589   6.006  0.4713  0.1748 -0.3703
 1907SOL    HW111736   1.061   3.657   5.959  0.2821  0.3426  0.0901
 1907SOL    HW211737   1.199   3.570   5.952  1.9830  2.8982  0.7913
 1908SOL     OW11738   0.266   3.798   6.419 -0.3356  0.6478 -0.0387
 1908SOL    HW111739   0.331   3.865   6.382  1.4014  0.1082  1.8502
 1908SOL    HW211740   0.284   3.708   6.378  0.4275  0.4130  0.7806
 1909SOL     OW11741   0.717   2.573   0.537 -0.2058  0.2719 -0.3617
 1909SOL    HW111742   0.799   2.532   0.498 -0.2175  0.5386 -0.6756
 1909SOL    HW211743   0.723   2.572   0.637  0.0851  0.1076 -0.3799
 1910SOL     OW11744   4.046   5.238   6.264  0.2027 -0.9417  0.5007
 1910SOL    HW111745   4.059   5.299   6.186  1.3914  0.1147  1.4748
 1910SOL    HW211746   3.989   5.161   6.237  0.6572 -0.6541 -1.4228
 1911SOL     OW11747   0.602   0.596   6.170 -0.7458 -0.3891 -0.9727
 1911SOL    HW111748   0.625   0.630   6.078 -1.0181 -0.3648 -1.0318
 1911SOL    HW211749   0.505   0.609   6.187 -1.1558 -2.3267 -1.5175
 1912SOL     OW11750   2.609   0.188   5.319 -0.2131 -0.1769  0.2655
 1912SOL    HW111751   2.554   0.207   5.400 -1.2328  0.3960 -0.5442
 1912SOL    HW211752   2.555   0.206   5.237  2.1670  3.7739 -0.6815
 1913SOL     OW11753   3.609   1.777   0.077  0.5234  0.0703 -0.1522
 1913SOL    HW111754   3.516   1.746   0.056  1.1053 -1.2736 -0.8543
 1913SOL    HW211755   3.657   1.705   0.127  1.0258  0.9855  0.7299
 1914SOL     OW11756   4.531   1.053   6.618  0.5583  0.4944  0.2714
 1914SOL    HW111757   4.567   0.960   6.622 -1.4738 -0.2921  1.4787
 1914SOL    HW211758   4.481   1.067   6.533  0.7318  0.4545  0.1609
 1915SOL     OW11759   3.485   4.422   0.790  0.3298  0.2474  0.0188
 1915SOL    HW111760   3.439   4.490   0.734  0.5712  0.1784 -0.2680
 1915SOL    HW211761   3.417   4.367   0.839 -0.2490 -2.8583 -3.8038
 1916SOL     OW11762   4.315   2.348   6.682  0.0005  0.3721  0.4438
 1916SOL    HW111763   4.276   2.440   6.675  1.0141  0.8204  0.5768
 1916SOL    HW211764   4.250   2.288   6.730 -0.2241  1.2821  1.3036
 1917SOL     OW11765   5.708   4.227   1.727  0.1761  1.1278 -0.2121
 1917SOL    HW111766   5.750   4.230   1.818 -0.3554  0.0613  0.0832
 1917SOL    HW211767   5.762   4.283   1.664  1.0068  1.2393  0.5751
 1918SOL     OW11768   4.773   3.225   1.280 -0.0894 -0.4970 -0.1002
 1918SOL    HW111769   4.810   3.287   1.349 -0.3911 -0.3992 -0.0264
 1918SOL    HW211770   4.674   3.216   1.292  0.2461 -2.9052  1.4349
 1919SOL     OW11771   5.219   0.943   6.546  0.0620 -0.2904 -0.0419
 1919SOL    HW111772   5.165   0.890   6.480  0.8915 -0.9014 -0.2429
 1919SOL    HW211773   5.162   1.015   6.584 -1.3241 -1.7368  0.7486
 1920SOL     OW11774   2.867   3.340   0.491  0.3686 -0.2479 -0.1204
 1920SOL    HW111775   2.910   3.415   0.441  1.0995 -0.7290 -0.2249
 1920SOL    HW211776   2.776   3.322   0.453  0.2970  0.4144 -0.2597
 1921SOL     OW11777   1.600   4.513   0.496 -0.1275  0.1711  0.0574
 1921SOL    HW111778   1.647   4.425   0.493 -0.5638 -0.0570 -0.2724
 1921SOL    HW211779   1.504   4.500   0.471  0.0159  0.8732 -0.9214
 1922SOL     OW11780   3.304   4.605   6.442  0.0605 -0.3460  0.2542
 1922SOL    HW111781   3.332   4.522   6.490  0.7788 -1.2255 -1.5814
 1922SOL    HW211782   3.316   4.592   6.343 -0.2124  1.8027 -0.1092
 1923SOL     OW11783   4.589   1.940   5.496  0.2608  0.1413  0.1282
 1923SOL    HW111784   4.556   1.892   5.415 -1.8957 -0.2977  1.1963
 1923SOL    HW211785   4.639   1.876   5.555  0.8051  0.1833 -0.2771
 1924SOL     OW11786   3.029   3.600   0.413  0.7155 -0.0230 -0.0025
 1924SOL    HW111787   3.088   3.554   0.479  0.8272 -0.9422 -0.7175
 1924SOL    HW211788   3.086   3.648   0.346  0.6032  0.8299  0.4934
 1925SOL     OW11789   3.094   0.229   5.816  0.0966  0.1899 -0.3358
 1925SOL    HW111790   3.105   0.129   5.820 -0.1571  0.1820  0.1766
 1925SOL    HW211791   3.075   0.256   5.722 -0.5157 -0.3173 -0.3632
 1926SOL     OW11792   2.912   5.894   1.912  0.3494 -0.0646  0.4093
 1926SOL    HW111793   2.904   5.990   1.938 -1.3874 -0.5041  1.6372
 1926SOL    HW211794   2.821   5.853   1.906  0.9227 -1.1916 -1.9426
 1927SOL     OW11795   4.678   3.691   0.893  0.0317  0.2391 -0.8164
 1927SOL    HW111796   4.672   3.725   0.987  1.7668 -0.1675 -0.5114
 1927SOL    HW211797   4.694   3.592   0.894  0.0196  0.2232 -1.5312
 1928SOL     OW11798   1.903   4.208   5.868  0.2948  0.9774 -0.3097
 1928SOL    HW111799   1.824   4.243   5.918 -0.6177  0.4737 -1.3655
 1928SOL    HW211800   1.938   4.126   5.912 -1.3271 -0.2375 -1.1808
 1929SOL     OW11801   4.266   4.977   1.483  0.4936  0.0700 -0.0769
 1929SOL    HW111802   4.195   5.046   1.478  1.0277  0.7279  1.0425
 1929SOL    HW211803   4.250   4.918   1.563 -1.0730 -2.4154 -2.0635
 1930SOL     OW11804   2.764   2.237   5.511 -0.3528 -0.0505 -0.1725
 1930SOL    HW111805   2.684   2.283   5.549  0.3286 -0.0603  1.3077
 1930SOL    HW211806   2.810   2.185   5.582  2.0301  1.4264 -0.5434
 1931SOL     OW11807   3.914   2.087   6.581  0.5156 -0.1011  0.1731
 1931SOL    HW111808   3.980   2.037   6.525  0.5008  0.7661 -0.6305
 1931SOL    HW211809   3.825   2.042   6.576  0.4388  0.1315 -0.7555
 1932SOL     OW11810   1.897   5.655   5.315 -0.2996 -0.7973  0.2053
 1932SOL    HW111811   1.883   5.556   5.315 -0.7432 -0.8066 -2.3601
 1932SOL    HW211812   1.811   5.700   5.292  0.5523 -0.0347 -1.7009
 1933SOL     OW11813   4.340   4.332   0.745 -0.2199 -0.5400 -0.0001
 1933SOL    HW111814   4.378   4.412   0.698 -3.1806  3.0449  2.9875
 1933SOL    HW211815   4.271   4.289   0.686  0.4263 -0.0405 -1.1620
 1934SOL     OW11816   3.788   0.351   6.497 -0.3859 -0.3154  0.0040
 1934SOL    HW111817   3.841   0.434   6.514  2.1439 -1.9806  0.8789
 1934SOL    HW211818   3.756   0.350   6.403 -0.1945  1.5036 -0.1051
 1935SOL     OW11819   5.259   4.286   5.109  0.4423 -0.5495  0.1651
 1935SOL    HW111820   5.345   4.312   5.066  1.6653 -1.5115  1.8999
 1935SOL    HW211821   5.190   4.268   5.038  2.5149 -2.6946 -1.4529
 1936SOL     OW11822   1.610   0.214   0.559  0.2331 -0.7101  0.3980
 1936SOL    HW111823   1.650   0.143   0.501 -0.9743 -0.0254 -1.3637
 1936SOL    HW211824   1.543   0.173   0.621  0.5637 -1.2922  0.3727
 1937SOL     OW11825   3.692   3.056   6.285  0.1199 -0.6863 -0.0586
 1937SOL    HW111826   3.696   3.070   6.186  1.2027 -1.1951 -0.1083
 1937SOL    HW211827   3.600   3.076   6.318  0.0595  0.6773 -0.9708
 1938SOL     OW11828   4.332   1.943   5.731  0.9409  0.2186 -0.0141
 1938SOL    HW111829   4.343   1.943   5.830 -2.2023  0.3956  0.4320
 1938SOL    HW211830   4.420   1.960   5.688  2.7559 -1.6716  2.6516
 1939SOL     OW11831   4.798   1.363   5.633  0.7401 -0.0886  0.0137
 1939SOL    HW111832   4.890   1.372   5.672  1.0816  0.9359 -0.9860
 1939SOL    HW211833   4.785   1.430   5.560 -0.6659 -0.4915 -0.1493
 1940SOL     OW11834   2.796   1.131   6.091 -0.3992  0.3914 -0.1245
 1940SOL    HW111835   2.865   1.152   6.160 -0.3462 -0.2100  0.0144
 1940SOL    HW211836   2.802   1.197   6.016 -0.8410  1.4084  0.7112
 1941SOL     OW11837   2.408   2.550   5.430  0.2871 -0.1536 -0.0178
 1941SOL    HW111838   2.385   2.554   5.333  1.6737  0.3049 -0.3638
 1941SOL    HW211839   2.488   2.608   5.448 -0.5479  0.5629  1.5938
 1942SOL     OW11840   1.527   5.702   5.279 -0.4575  0.1370 -0.3784
 1942SOL    HW111841   1.597   5.758   5.235 -0.7735  1.1734  0.4060
 1942SOL    HW211842   1.441   5.710   5.228 -0.6603  0.8477  0.0672
 1943SOL     OW11843   5.880   5.703   0.911  0.0050 -0.4567  0.0578
 1943SOL    HW111844   5.822   5.679   0.833 -0.8495  0.5671  0.3645
 1943SOL    HW211845   5.972   5.666   0.896  0.1951  0.7114 -1.9953
 1944SOL     OW11846   4.448   5.883   5.897  0.1938  0.5722 -0.3072
 1944SOL    HW111847   4.506   5.907   5.975 -2.7548  0.2318  2.2110
 1944SOL    HW211848   4.383   5.957   5.880  0.2916  0.2990 -1.9647
 1945SOL     OW11849   5.489   6.248   0.816 -0.0259 -0.4961  0.3799
 1945SOL    HW111850   5.397   6.280   0.792  0.8069  0.1096 -2.4261
 1945SOL    HW211851   5.494   6.149   0.800 -0.2966 -0.6005  0.9318
 1946SOL     OW11852   0.946   6.320   0.132  0.4307  0.0816  0.2716
 1946SOL    HW111853   0.979   6.349   0.042  0.6616 -0.2361  0.2520
 1946SOL    HW211854   0.880   6.245   0.120 -0.5942  0.9551  0.2850
 1947SOL     OW11855   2.932   5.738   6.050  0.4598  0.0897 -0.6131
 1947SOL    HW111856   3.025   5.767   6.029  0.3760  1.1776  0.4586
 1947SOL    HW211857   2.930   5.692   6.139  0.1940 -1.2287 -1.2612
 1948SOL     OW11858   4.714   0.280   5.735  0.0783  0.1747  0.1791
 1948SOL    HW111859   4.618   0.254   5.743  0.2057 -0.7311 -0.9168
 1948SOL    HW211860   4.771   0.207   5.774  0.3830 -0.5350 -1.4802
 1949SOL     OW11861   4.658   3.520   1.335  0.1364  0.0039  0.8587
 1949SOL    HW111862   4.741   3.508   1.389  0.9348 -1.3875 -0.5656
 1949SOL    HW211863   4.590   3.451   1.363 -0.9492  1.7102  2.6446
 1950SOL     OW11864   1.517   0.399   5.269  0.4081 -0.7376  0.5351
 1950SOL    HW111865   1.418   0.387   5.278  0.5106 -2.7771 -0.5204
 1950SOL    HW211866   1.535   0.485   5.221 -0.8963 -0.7552 -0.0535
 1951SOL     OW11867   0.194   4.189   5.463 -0.3059  0.7354 -0.1060
 1951SOL    HW111868   0.267   4.256   5.477  0.4969 -0.2704  0.6752
 1951SOL    HW211869   0.228   4.113   5.408 -0.4524 -0.2002  1.0624
 1952SOL     OW11870   1.468   4.633   0.002  0.6350 -0.5787 -0.3957
 1952SOL    HW111871   1.391   4.576   0.031  1.4811 -1.1195  0.8875
 1952SOL    HW211872   1.526   4.581  -0.060  0.0710 -0.2359 -1.2151
 1953SOL     OW11873   0.635   0.916   1.020 -0.1177 -0.4452  0.4483
 1953SOL    HW111874   0.724   0.934   1.063  0.2047 -1.0435  0.0462
 1953SOL    HW211875   0.618   0.817   1.019  0.3195 -0.5390 -1.6277
 1954SOL     OW11876   3.526   5.775   5.815  0.5556  0.5196 -0.3019
 1954SOL    HW111877   3.617   5.755   5.852  1.2789 -1.8001 -2.9334
 1954SOL    HW211878   3.481   5.842   5.873  3.3821  0.7619  1.8862
 1955SOL     OW11879   1.893   5.125   6.491 -0.2671 -0.2167 -0.5488
 1955SOL    HW111880   1.849   5.212   6.514 -1.9605 -1.3623  0.7218
 1955SOL    HW211881   1.929   5.083   6.575  2.2295  0.0721 -1.3776
 1956SOL     OW11882   2.527   2.948   6.072 -0.8179  0.0422  0.2935
 1956SOL    HW111883   2.585   3.027   6.051 -1.3199  0.5214  0.6868
 1956SOL    HW211884   2.548   2.913   6.163 -1.3375  0.3941  0.5524
 1957SOL     OW11885   0.399   4.331   5.502  0.0412 -0.5920 -0.2197
 1957SOL    HW111886   0.446   4.383   5.430 -0.3710  0.2768  0.1334
 1957SOL    HW211887   0.463   4.264   5.541  0.1080 -1.4775 -1.7689
 1958SOL     OW11888   3.426   4.671   0.293  0.3306 -0.2178 -0.2853
 1958SOL    HW111889   3.513   4.621   0.285  0.8134  0.0763  2.2071
 1958SOL    HW211890   3.443   4.759   0.336 -1.2793 -0.4730  0.9728
 1959SOL     OW11891   1.619   3.105   5.699  0.2279 -0.1094 -0.3069
 1959SOL    HW111892   1.713   3.082   5.726  0.0014 -0.7508 -0.0538
 1959SOL    HW211893   1.620   3.145   5.607  0.6722 -0.8804 -0.6516
 1960SOL     OW11894   5.248   0.709   0.598  0.2401 -0.2186 -0.5109
 1960SOL    HW111895   5.246   0.630   0.660  0.8182  0.9393  1.0387
 1960SOL    HW211896   5.206   0.684   0.511  3.1329 -3.1996 -1.2444
 1961SOL     OW11897   2.055   2.454   0.100 -0.1571  0.2672 -0.0493
 1961SOL    HW111898   2.125   2.394   0.138 -0.7775  0.0908  0.8609
 1961SOL    HW211899   2.036   2.528   0.164  1.8051  2.5057 -1.8671
 1962SOL     OW11900   4.428   6.077   0.227 -0.3822 -0.0849  0.4462
 1962SOL    HW111901   4.341   6.073   0.179 -1.1687  0.6629  1.7572
 1962SOL    HW211902   4.479   5.992   0.212 -0.1517  0.4903 -2.4701
 1963SOL     OW11903   4.200   0.334   6.175 -0.3515  0.0118 -0.1282
 1963SOL    HW111904   4.102   0.327   6.156 -0.2498  1.8640 -1.6252
 1963SOL    HW211905   4.232   0.250   6.219 -2.8284 -0.1472  1.5394
 1964SOL     OW11906   1.967   3.443   5.976  0.2340 -0.3687 -0.7120
 1964SOL    HW111907   1.888   3.472   5.922 -0.6826  0.3276  0.9269
 1964SOL    HW211908   2.015   3.523   6.010  2.0825 -0.7734 -2.2138
 1965SOL     OW11909   1.051   5.122   0.081  0.4235 -0.2486  0.0495
 1965SOL    HW111910   0.964   5.125   0.130  1.1121  2.2040  1.2696
 1965SOL    HW211911   1.125   5.099   0.145  1.2582  2.4168  0.1398
 1966SOL     OW11912   4.946   1.429   6.456 -0.0212  0.4469  0.0150
 1966SOL    HW111913   4.957   1.465   6.363  0.7918 -2.0982 -0.9495
 1966SOL    HW211914   4.849   1.430   6.481 -0.4024  0.0396 -1.3668
 1967SOL     OW11915   0.913   3.373   1.581 -0.6513  0.3662  0.8790
 1967SOL    HW111916   0.831   3.416   1.618 -0.4272  0.5011  1.2134
 1967SOL    HW211917   0.889   3.281   1.549 -1.4205  1.1538 -0.9981
 1968SOL     OW11918   5.181   4.453   0.948 -0.3398 -0.2052  0.1001
 1968SOL    HW111919   5.206   4.512   1.025 -1.1496  0.3150 -0.0231
 1968SOL    HW211920   5.147   4.510   0.872  0.2305 -0.7264 -0.5586
 1969SOL     OW11921   3.531   3.230   0.931  0.0742 -0.3728  0.5200
 1969SOL    HW111922   3.615   3.184   0.960 -1.0093 -2.2351  0.8987
 1969SOL    HW211923   3.554   3.315   0.883  2.1724 -1.0720  0.1771
 1970SOL     OW11924   0.168   4.256   0.938 -0.6611  0.2624 -0.2585
 1970SOL    HW111925   0.267   4.253   0.931 -0.6310  0.7931 -0.0750
 1970SOL    HW211926   0.139   4.226   1.028 -0.6200  0.8418 -0.0466
 1971SOL     OW11927   3.867   4.720   6.560 -0.2859 -0.1928 -0.3180
 1971SOL    HW111928   3.857   4.799   6.499 -1.7353 -2.1650 -2.8193
 1971SOL    HW211929   3.784   4.666   6.559  1.6111 -3.3479 -1.0594
 1972SOL     OW11930   4.591   4.979   5.596  0.2080 -0.3475  0.0539
 1972SOL    HW111931   4.581   4.900   5.535 -2.7797  0.0027 -0.0464
 1972SOL    HW211932   4.626   5.057   5.544 -1.0023 -0.4255 -0.9121
 1973SOL     OW11933   1.770   1.760   5.925 -0.4008 -0.0409  0.5228
 1973SOL    HW111934   1.734   1.849   5.899  0.7275  0.8385  1.7847
 1973SOL    HW211935   1.828   1.724   5.852  2.1517  2.0380  1.3606
 1974SOL     OW11936   5.058   5.657   6.374  0.7685  0.7556 -0.3232
 1974SOL    HW111937   5.045   5.722   6.449  0.0117 -1.3615  1.4914
 1974SOL    HW211938   5.156   5.644   6.359  1.0352 -0.4933  1.9774
 1975SOL     OW11939   2.245   0.906   4.880  0.3396  0.1339  0.1878
 1975SOL    HW111940   2.173   0.936   4.819  0.7791 -1.4291 -1.1739
 1975SOL    HW211941   2.331   0.950   4.855  0.5328 -0.5542 -0.3783
 1976SOL     OW11942   4.600   3.677   5.363  0.7319 -0.0957  0.2899
 1976SOL    HW111943   4.656   3.756   5.340  2.5965 -2.1627 -3.0328
 1976SOL    HW211944   4.508   3.689   5.326  1.2183  0.2379 -0.8446
 1977SOL     OW11945   5.916   2.684   0.183  0.7611  0.5239  0.8777
 1977SOL    HW111946   5.857   2.726   0.253  0.4337  0.8655  0.3989
 1977SOL    HW211947   5.965   2.755   0.133  2.1726  0.2222  1.7575
 1978SOL     OW11948   0.617   4.231   0.153 -0.0533 -0.4511  0.5311
 1978SOL    HW111949   0.558   4.293   0.206  0.3624  1.0011 -0.6412
 1978SOL    HW211950   0.616   4.140   0.195 -1.9747 -0.0891  1.3614
 1979SOL     OW11951   2.454   2.485   1.542 -0.2510  0.0537  0.1409
 1979SOL    HW111952   2.443   2.420   1.617 -1.1610 -0.5057 -0.4608
 1979SOL    HW211953   2.530   2.455   1.484  0.0015  0.1039  0.4412
 1980SOL     OW11954   4.096   4.488   0.464 -0.2290 -0.2881 -0.3277
 1980SOL    HW111955   4.087   4.405   0.409  1.9714 -1.0189  0.3116
 1980SOL    HW211956   4.058   4.472   0.555  1.1488 -0.9983  0.1456
 1981SOL     OW11957   3.959   5.936   6.427  0.3561  0.7945 -0.5039
 1981SOL    HW111958   3.862   5.954   6.412 -0.1906 -1.9735 -0.9395
 1981SOL    HW211959   3.970   5.881   6.511  1.4551  0.4945 -0.8275
 1982SOL     OW11960   4.623   0.003   1.336  0.3825 -0.2016  0.7592
 1982SOL    HW111961   4.719  -0.023   1.321 -0.0506 -1.0318 -0.8401
 1982SOL    HW211962   4.597  -0.017   1.431  1.4883 -0.9672  0.9177
 1983SOL     OW11963   4.617   4.340   5.229  0.6049 -0.5965 -0.1459
 1983SOL    HW111964   4.699   4.349   5.172  2.1882  1.6486  2.2435
 1983SOL    HW211965   4.539   4.380   5.181  1.6676  0.3321 -1.1670
 1984SOL     OW11966   2.250   2.263   0.272 -0.1918  0.8663  0.4395
 1984SOL    HW111967   2.216   2.177   0.309 -1.6534  1.7625  1.3058
 1984SOL    HW211968   2.269   2.326   0.347 -0.3037  1.6972 -0.2090
 1985SOL     OW11969   1.006   6.212   6.335  0.3871 -0.5313 -0.4477
 1985SOL    HW111970   0.914   6.185   6.304 -0.1772  1.7466 -0.9551
 1985SOL    HW211971   1.055   6.131   6.366 -1.8539 -1.8065  0.0296
 1986SOL     OW11972   1.923   2.031   0.101  0.0354  0.2978  0.2012
 1986SOL    HW111973   1.976   2.037   0.016  2.0696  1.4902  1.4871
 1986SOL    HW211974   1.948   1.948   0.150 -0.8440 -0.1865 -0.1548
 1987SOL     OW11975   3.368   3.873   5.996 -0.0966 -0.5736 -0.0182
 1987SOL    HW111976   3.460   3.889   5.960 -0.3054  1.8403  0.3175
 1987SOL    HW211977   3.361   3.914   6.087 -1.2304 -1.6348  0.4032
 1988SOL     OW11978   2.345   4.970   6.426 -0.3086 -0.1269  0.3128
 1988SOL    HW111979   2.399   4.911   6.367  0.0657  0.6828 -0.1725
 1988SOL    HW211980   2.378   5.064   6.419  0.8376 -0.2274  3.0298
 1989SOL     OW11981   2.174   1.350   6.485 -0.1380 -0.2503  0.0724
 1989SOL    HW111982   2.166   1.392   6.576 -0.7861 -0.1860 -0.0076
 1989SOL    HW211983   2.142   1.416   6.416  2.8582  0.7646 -0.5031
 1990SOL     OW11984   3.281   1.528   5.101 -0.0980  0.1861  0.0481
 1990SOL    HW111985   3.292   1.447   5.043  0.9271  1.4828 -1.7190
 1990SOL    HW211986   3.205   1.583   5.067  0.8673  1.2445 -0.5179
 1991SOL     OW11987   3.840   3.885   0.807 -0.2995 -0.3462 -0.1748
 1991SOL    HW111988   3.802   3.841   0.726  0.2746  0.9674 -1.2089
 1991SOL    HW211989   3.774   3.879   0.882 -1.3499 -0.5783 -1.0838
 1992SOL     OW11990   3.532   0.259   6.549  0.1612  0.0474 -0.8593
 1992SOL    HW111991   3.498   0.186   6.490 -0.7664  1.1433 -1.7204
 1992SOL    HW211992   3.629   0.243   6.569 -0.2399 -1.8983 -0.2387
 1993SOL     OW11993   2.336   1.121   0.369  0.2704  0.0919 -0.2331
 1993SOL    HW111994   2.260   1.179   0.341  0.2857 -0.1494 -0.7984
 1993SOL    HW211995   2.420   1.174   0.370  0.0690  0.4222  0.6322
 1994SOL     OW11996   2.397   0.108   6.268 -0.3989  0.7754 -0.2851
 1994SOL    HW111997   2.371   0.198   6.303  0.3549  0.6821  0.5621
 1994SOL    HW211998   2.494   0.092   6.286 -0.3575  0.0683 -1.0471
 1995SOL     OW11999   4.976   2.558   1.108  0.1092  0.3610  0.3169
 1995SOL    HW112000   5.035   2.514   1.176 -1.3741 -0.0612  1.3702
 1995SOL    HW212001   4.895   2.502   1.093 -0.1775  1.0659 -0.9108
 1996SOL     OW12002   4.952   4.110   1.950 -0.6391  0.3992 -0.1105
 1996SOL    HW112003   4.914   4.183   1.894 -0.8319 -0.3246 -0.9547
 1996SOL    HW212004   4.928   4.126   2.046 -0.9333  1.2720 -0.3185
 1997SOL     OW12005   1.794   5.721   1.635  0.0800  0.2900  0.6142
 1997SOL    HW112006   1.830   5.794   1.695 -2.2899  1.3099  0.9197
 1997SOL    HW212007   1.751   5.651   1.692  1.4391 -0.8671  0.2565
 1998SOL     OW12008   1.510   3.700   1.226 -0.4746  0.0762 -0.5116
 1998SOL    HW112009   1.570   3.767   1.268 -1.2484  1.1417 -1.0394
 1998SOL    HW212010   1.478   3.635   1.295  1.7205 -0.9001 -0.3287
 1999SOL     OW12011   5.578   1.905   6.623 -0.2384  0.4803 -0.0704
 1999SOL    HW112012   5.536   1.992   6.598 -1.3731  0.2910  1.0431
 1999SOL    HW212013   5.507   1.840   6.649  0.7005  0.2349  2.1596
 2000SOL     OW12014   1.647   1.856   5.433  0.1360 -0.1286 -0.0365
 2000SOL    HW112015   1.564   1.874   5.381 -0.6490 -0.3921  1.0930
 2000SOL    HW212016   1.627   1.792   5.507  0.8496  1.3674  1.5177
 2001SOL     OW12017   0.944   5.705   0.253  0.2892 -0.3737  0.2220
 2001SOL    HW112018   0.968   5.671   0.163  0.5083  0.6212 -0.1077
 2001SOL    HW212019   0.973   5.639   0.323  0.0178 -1.1924 -0.4312
 2002SOL     OW12020   1.541   5.769   4.572  0.3634  0.1983  0.1959
 2002SOL    HW112021   1.452   5.744   4.533  0.7649 -2.0386  0.5437
 2002SOL    HW212022   1.604   5.692   4.561  1.4512  0.7109  2.3779
 2003SOL     OW12023   0.148   3.493   6.058 -0.2779  0.1631 -0.0316
 2003SOL    HW112024   0.055   3.489   6.021 -0.6774  2.3521  0.5899
 2003SOL    HW212025   0.202   3.418   6.020 -1.9702 -0.4865 -1.2908
 2004SOL     OW12026   5.347   3.154   6.004 -0.2512 -0.2695 -0.1646
 2004SOL    HW112027   5.309   3.086   6.068 -1.0589 -0.3979 -0.7742
 2004SOL    HW212028   5.359   3.241   6.052  1.2076 -0.9375  0.7473
 2005SOL     OW12029   1.951   4.031   6.661  0.0703  0.0422 -0.1217
 2005SOL    HW112030   1.893   3.954   6.686  2.3664 -1.9007 -0.4369
 2005SOL    HW212031   2.013   4.052   6.737  0.9717  0.0713 -0.8457
 2006SOL     OW12032   4.814   5.998   1.199  0.1664 -0.3062  0.3502
 2006SOL    HW112033   4.875   6.061   1.247 -2.0127  0.2634  2.5534
 2006SOL    HW212034   4.833   5.904   1.227 -0.5684 -0.0427  1.7901
 2007SOL     OW12035   1.157   0.360   6.611 -0.0575  0.6670 -0.1791
 2007SOL    HW112036   1.074   0.362   6.554 -0.8722 -1.0652  0.8676
 2007SOL    HW212037   1.133   0.332   6.704  1.8014 -0.6482 -0.0442
 2008SOL     OW12038   1.235   2.476   0.618 -0.1420 -0.5253 -0.1609
 2008SOL    HW112039   1.208   2.517   0.531 -1.4146  1.4466  1.0666
 2008SOL    HW212040   1.320   2.519   0.649  0.0125 -0.8269 -0.1668
 2009SOL     OW12041   2.136   5.835   0.753 -0.1727  0.0089  0.2648
 2009SOL    HW112042   2.047   5.834   0.798 -0.9010 -0.8450 -1.1242
 2009SOL    HW212043   2.160   5.742   0.724  0.4782  0.4576 -0.6991
 2010SOL     OW12044   3.071   6.086   5.625  0.2575 -0.4308 -0.5716
 2010SOL    HW112045   2.991   6.114   5.572  0.5752 -0.0518 -0.8486
 2010SOL    HW212046   3.153   6.096   5.569  0.4596 -1.2276 -0.4381
 2011SOL     OW12047   4.059   1.201   6.122  0.5565 -0.4180  0.0202
 2011SOL    HW112048   3.996   1.272   6.093  0.2280 -0.5050  0.4928
 2011SOL    HW212049   4.087   1.147   6.043  0.8572  0.2703 -0.3487
 2012SOL     OW12050   4.868   1.156   0.308  0.1078  0.0776 -0.3701
 2012SOL    HW112051   4.880   1.062   0.278 -1.5034  0.0554 -1.0384
 2012SOL    HW212052   4.865   1.217   0.229 -0.3088  0.5000 -0.0402
 2013SOL     OW12053   4.953   3.524   0.756 -0.1200 -0.5206  0.2099
 2013SOL    HW112054   4.915   3.450   0.811 -1.6808  0.4659  0.5474
 2013SOL    HW212055   4.989   3.595   0.816 -0.5265 -0.0809 -0.0578
 2014SOL     OW12056   2.096   6.277   1.600  0.2073  0.2752 -0.2111
 2014SOL    HW112057   2.027   6.205   1.593  1.0036 -0.5488  0.1288
 2014SOL    HW212058   2.053   6.361   1.633 -0.3342 -0.7474  1.8962
 2015SOL     OW12059   0.539   1.378   6.185 -0.0493  0.0939 -1.0793
 2015SOL    HW112060   0.522   1.476   6.197  0.0424  0.0472 -0.5704
 2015SOL    HW212061   0.453   1.328   6.197 -0.1217  0.1194 -1.4679
 2016SOL     OW12062   4.065   5.368   0.075  0.4669  0.4405 -0.2266
 2016SOL    HW112063   4.097   5.274   0.086  0.1835  0.3305 -0.3418
 2016SOL    HW212064   4.076   5.396  -0.021 -1.4860 -0.2368 -0.7031
 2017SOL     OW12065   4.623   4.101   0.587 -0.3255  0.9111 -0.2576
 2017SOL    HW112066   4.625   4.145   0.677  0.0974  0.7273 -0.1731
 2017SOL    HW212067   4.667   4.012   0.593 -0.1086  0.9866 -0.6921
 2018SOL     OW12068   5.904   4.980   1.904 -0.4857 -0.6395 -0.3686
 2018SOL    HW112069   5.854   4.906   1.859 -0.9281 -1.9153  2.0399
 2018SOL    HW212070   5.888   4.976   2.003  1.0584  1.5135  0.0499
 2019SOL     OW12071   0.615   1.643   5.562  0.1505 -0.2716  0.2202
 2019SOL    HW112072   0.711   1.661   5.588  0.8022 -2.0793 -0.8005
 2019SOL    HW212073   0.579   1.569   5.618  0.1038 -1.1443 -0.9366
 2020SOL     OW12074   0.391   4.801   4.948 -0.4164  0.0323  0.1054
 2020SOL    HW112075   0.330   4.834   4.875 -0.4614 -0.1807  0.0432
 2020SOL    HW212076   0.477   4.850   4.945 -0.0584 -0.6203 -0.6991
 2021SOL     OW12077   2.250   2.972   6.075 -0.0998  0.1930  0.1540
 2021SOL    HW112078   2.229   2.988   5.979  0.8037  2.4150  0.2625
 2021SOL    HW212079   2.349   2.961   6.087 -0.2511 -0.6033  0.7717
 2022SOL     OW12080   2.676   4.705   6.648 -0.2621  0.6195 -0.0032
 2022SOL    HW112081   2.580   4.733   6.644 -0.5547 -0.4490 -1.8979
 2022SOL    HW212082   2.685   4.624   6.706 -1.3608 -1.9823 -3.1684
 2023SOL     OW12083   3.091   5.001   0.543 -0.6267  0.3901  0.1997
 2023SOL    HW112084   3.142   4.977   0.626  0.6826  0.3739 -0.5758
 2023SOL    HW212085   3.047   5.090   0.555  0.1636  0.7291  0.6631
 2024SOL     OW12086   0.407   2.760   1.424  0.0615 -0.3686  0.0077
 2024SOL    HW112087   0.431   2.683   1.365  1.2437  0.0778 -0.1136
 2024SOL    HW212088   0.337   2.731   1.490  1.0450 -1.7761  0.4859
 2025SOL     OW12089   0.817   3.446   6.346  0.1753  0.0394  0.0492
 2025SOL    HW112090   0.786   3.485   6.433  0.9776 -1.0683  0.8627
 2025SOL    HW212091   0.912   3.474   6.329 -0.2535  0.9537 -0.9177
 2026SOL     OW12092   5.540   1.577   0.108 -0.1875  0.2326  0.0001
 2026SOL    HW112093   5.552   1.609   0.203 -1.3837 -1.2428  0.6829
 2026SOL    HW212094   5.487   1.645   0.058 -0.2142  0.6740  0.6029
 2027SOL     OW12095   2.127   5.505   6.128  0.3698  0.2091 -0.4703
 2027SOL    HW112096   2.098   5.502   6.223 -3.1661  1.4859 -1.3727
 2027SOL    HW212097   2.060   5.457   6.071  0.0372  3.0966 -2.7321
 2028SOL     OW12098   1.514   4.901   6.682  0.0253  0.4496 -0.1236
 2028SOL    HW112099   1.508   4.801   6.683 -0.6598  0.4393 -1.9118
 2028SOL    HW212100   1.571   4.931   6.759  0.6151 -1.3246  0.1991
 2029SOL     OW12101   4.979   2.795   6.559 -0.2646  0.1946 -0.3867
 2029SOL    HW112102   4.930   2.754   6.482 -2.0226  1.3196  0.0950
 2029SOL    HW212103   5.022   2.722   6.613 -1.1727 -0.8073 -0.9827
 2030SOL     OW12104   3.055   2.874   5.528  0.4654 -0.0397 -0.4316
 2030SOL    HW112105   2.996   2.937   5.578 -1.7383 -1.7040 -0.7957
 2030SOL    HW212106   3.125   2.925   5.479 -1.0253  2.0859 -0.4646
 2031SOL     OW12107   3.596   1.977   0.674  0.1444  0.1215  0.5350
 2031SOL    HW112108   3.568   1.915   0.600  0.4708 -1.0190  1.3468
 2031SOL    HW212109   3.625   2.064   0.635 -1.9347  0.3947 -0.5274
 2032SOL     OW12110   2.650   6.164   4.817 -0.0061  0.5687  0.3724
 2032SOL    HW112111   2.738   6.117   4.819 -0.3723 -0.2971 -1.4775
 2032SOL    HW212112   2.658   6.245   4.758 -0.5944  0.1383 -0.3045
 2033SOL     OW12113   1.209   5.661   6.403 -0.6017 -0.1999 -0.3219
 2033SOL    HW112114   1.210   5.561   6.411  0.2298 -0.2513 -0.9807
 2033SOL    HW212115   1.268   5.690   6.327 -1.2512  0.7659 -0.4873
 2034SOL     OW12116   2.060   5.083   1.155 -0.4999 -0.1388  0.2383
 2034SOL    HW112117   2.006   5.045   1.081 -0.3083 -0.3426  0.2034
 2034SOL    HW212118   2.075   5.013   1.225 -0.7813  0.0863  0.5263
 2035SOL     OW12119   1.265   2.410   1.198  0.0653  0.0540  0.0078
 2035SOL    HW112120   1.186   2.463   1.167  0.2285 -1.2031 -2.8806
 2035SOL    HW212121   1.244   2.312   1.193  1.0245 -0.2614  1.5296
 2036SOL     OW12122   0.508   3.461   1.082  0.0626  0.0532  0.2175
 2036SOL    HW112123   0.414   3.477   1.111  0.1271  1.7712 -0.4288
 2036SOL    HW212124   0.508   3.418   0.992 -0.1285  1.9909 -0.7399
 2037SOL     OW12125   0.544   3.209   5.117 -0.2441 -0.3404 -0.1544
 2037SOL    HW112126   0.469   3.151   5.149 -2.0814  1.3964 -1.0849
 2037SOL    HW212127   0.529   3.234   5.022  0.9649  0.9314 -0.0473
 2038SOL     OW12128   4.127   0.245   0.572  0.3605 -0.1164  0.0721
 2038SOL    HW112129   4.182   0.211   0.496  0.0813  1.9665 -1.1236
 2038SOL    HW212130   4.176   0.318   0.619 -0.2730 -0.0823  0.6943
 2039SOL     OW12131   1.572   2.355   0.692 -0.2870  0.7750  0.0610
 2039SOL    HW112132   1.561   2.453   0.675 -3.3224  0.6687  0.8812
 2039SOL    HW212133   1.552   2.335   0.788  0.6202 -0.6459 -0.0110
 2040SOL     OW12134   4.136   0.512   1.760  0.0636 -0.3857 -0.1080
 2040SOL    HW112135   4.222   0.538   1.805 -1.2765  1.4374  1.6087
 2040SOL    HW212136   4.120   0.414   1.772  1.9256 -0.7752 -0.5640
 2041SOL     OW12137   2.003   0.726   1.354  0.6274 -0.5593 -0.0814
 2041SOL    HW112138   1.971   0.719   1.449  1.7718 -0.8921  0.2984
 2041SOL    HW212139   2.053   0.811   1.342 -1.2522  0.4972 -0.9701
 2042SOL     OW12140   1.276   5.759   1.158 -0.4337  0.0648  0.0306
 2042SOL    HW112141   1.350   5.800   1.105  0.1458 -0.3947  0.4821
 2042SOL    HW212142   1.242   5.824   1.226 -1.4248  0.7935 -1.1157
 2043SOL     OW12143   3.538   0.423   1.188  0.3105  0.1431  0.1181
 2043SOL    HW112144   3.626   0.395   1.150 -0.3613 -0.5076 -1.0272
 2043SOL    HW212145   3.490   0.342   1.223  0.1255  0.4771  0.6478
 2044SOL     OW12146   5.116   1.860   0.622  0.3134  0.2773 -0.7163
 2044SOL    HW112147   5.115   1.814   0.711 -0.3801  1.1729 -0.2369
 2044SOL    HW212148   5.025   1.854   0.581  0.2829  0.9887 -0.7630
 2045SOL     OW12149   0.369   1.412   5.630 -0.2169  0.3215  0.3952
 2045SOL    HW112150   0.273   1.432   5.614 -0.4569  0.1960  1.6146
 2045SOL    HW212151   0.392   1.324   5.587 -0.5990  0.4355 -0.0456
 2046SOL     OW12152   2.699   3.523   5.191  0.1480 -0.2456  0.5034
 2046SOL    HW112153   2.617   3.466   5.190  0.7621 -1.1887  1.7760
 2046SOL    HW212154   2.732   3.535   5.097 -1.1814 -0.2032  0.0140
 2047SOL     OW12155   3.242   5.162   5.994  0.0115  0.2017  0.0486
 2047SOL    HW112156   3.254   5.062   5.990  2.5417  0.3806  1.5407
 2047SOL    HW212157   3.211   5.188   6.085  2.2505  0.9835  0.6240
 2048SOL     OW12158   1.122   2.740   5.989 -0.2781 -0.6851 -0.6860
 2048SOL    HW112159   1.112   2.748   6.089 -2.6628 -1.6190 -0.7836
 2048SOL    HW212160   1.134   2.831   5.950  0.4184 -0.2728  0.4331
 2049SOL     OW12161   3.188   5.510   6.435 -0.2552 -0.0015  0.1738
 2049SOL    HW112162   3.164   5.526   6.530  0.9046  0.8460  0.3418
 2049SOL    HW212163   3.105   5.513   6.378 -0.9461 -0.4600  1.1260
 2050SOL     OW12164   0.456   2.865   6.385 -0.4860 -0.1541 -0.2049
 2050SOL    HW112165   0.487   2.771   6.372 -1.1260 -0.6033  1.2886
 2050SOL    HW212166   0.360   2.865   6.411 -1.1449  1.0835 -2.3718
 2051SOL     OW12167   0.550   5.339   5.391  0.6573 -0.7192  0.1443
 2051SOL    HW112168   0.605   5.257   5.376  2.1354  0.1791  0.4628
 2051SOL    HW212169   0.606   5.421   5.376 -0.4982  0.2457  0.8400
 2052SOL     OW12170   6.053   1.050   0.470 -0.3057 -0.0681  0.3395
 2052SOL    HW112171   6.132   0.992   0.451  1.1616  1.5844  1.1469
 2052SOL    HW212172   6.041   1.116   0.396 -1.5677 -0.9406 -0.2623
 2053SOL     OW12173   1.134   3.135   0.746  0.6584  0.1784  0.0661
 2053SOL    HW112174   1.117   3.168   0.653  0.5526 -0.5054 -0.1651
 2053SOL    HW212175   1.075   3.056   0.765  1.5599 -0.4694  0.2611
 2054SOL     OW12176   4.234   2.804   0.080 -0.6573  0.5581 -0.3303
 2054SOL    HW112177   4.312   2.742   0.078 -0.7786  0.4013 -0.2309
 2054SOL    HW212178   4.264   2.896   0.052  0.1562  1.1268  2.1176
 2055SOL     OW12179   1.693   5.442   0.192 -0.2463  0.0048  0.1009
 2055SOL    HW112180   1.618   5.508   0.187 -0.1269  0.0447 -2.9959
 2055SOL    HW212181   1.777   5.484   0.158  0.1660 -1.3192 -0.5949
 2056SOL     OW12182   1.973   3.310   1.350 -0.6607  0.1352 -0.0010
 2056SOL    HW112183   1.897   3.356   1.395 -0.2003  0.7805  0.1237
 2056SOL    HW212184   2.015   3.372   1.284 -0.4562 -0.3336 -0.3143
 2057SOL     OW12185   4.880   1.293   0.764 -0.1097  0.4522  0.0440
 2057SOL    HW112186   4.905   1.389   0.773  0.5778  0.3302 -0.4870
 2057SOL    HW212187   4.801   1.274   0.823 -0.3596  1.3726  0.0306
 2058SOL     OW12188   5.993   1.525   6.590 -0.0050  0.1325  0.9900
 2058SOL    HW112189   6.063   1.456   6.571  0.0359  0.8530 -1.9944
 2058SOL    HW212190   5.915   1.481   6.635  1.4013 -1.1160  2.3287
 2059SOL     OW12191   5.150   2.507   5.651 -0.5644 -0.4406 -0.3250
 2059SOL    HW112192   5.102   2.435   5.602 -1.3038 -1.2920  1.5534
 2059SOL    HW212193   5.091   2.544   5.723  0.5931  0.5009  0.1770
 2060SOL     OW12194   2.743   3.311   1.504 -0.0644  0.0704 -0.4216
 2060SOL    HW112195   2.802   3.365   1.444  2.4906 -0.2870  1.5643
 2060SOL    HW212196   2.728   3.360   1.589  0.0528 -1.1893  0.3558
 2061SOL     OW12197   0.516   2.462   5.417  0.2566 -0.2781 -0.1143
 2061SOL    HW112198   0.502   2.410   5.333  0.1000  1.1999 -1.0250
 2061SOL    HW212199   0.610   2.448   5.449 -0.5228 -3.2938  1.2314
 2062SOL     OW12200   2.763   2.322   6.639 -0.8124 -0.5835 -0.2585
 2062SOL    HW112201   2.843   2.347   6.583 -1.0202  1.5055  0.3035
 2062SOL    HW212202   2.685   2.304   6.579 -0.6830  0.3167 -0.7120
 2063SOL     OW12203   0.822   0.226   5.375  0.1957 -0.0598 -0.4596
 2063SOL    HW112204   0.739   0.197   5.424  0.2191  0.9437  0.1908
 2063SOL    HW212205   0.797   0.262   5.285 -0.0843  0.2925 -0.2425
 2064SOL     OW12206   2.252   0.785   1.548 -0.0001 -0.6681  0.3648
 2064SOL    HW112207   2.203   0.713   1.597 -1.4152  0.4242  0.6222
 2064SOL    HW212208   2.186   0.844   1.501  1.0625  0.8353  0.6834
 2065SOL     OW12209   5.342   5.131   1.204 -0.1637  0.2733  0.1750
 2065SOL    HW112210   5.304   5.042   1.230 -0.3554  0.4694  0.5791
 2065SOL    HW212211   5.324   5.197   1.277  0.9986  0.3589  0.3995
 2066SOL     OW12212   2.343   3.618   6.561 -0.2124 -0.3859 -0.0666
 2066SOL    HW112213   2.325   3.683   6.634  1.4051  0.9534 -0.8025
 2066SOL    HW212214   2.305   3.529   6.586 -1.7719  0.6088  1.3149
 2067SOL     OW12215   4.898   0.764   6.647 -0.4598  0.3363 -0.2552
 2067SOL    HW112216   4.800   0.784   6.649 -0.5877 -0.1324 -1.2557
 2067SOL    HW212217   4.943   0.827   6.583  0.0690  1.2103  0.9385
 2068SOL     OW12218   0.235   0.731   6.557  0.0328  0.4042  0.5339
 2068SOL    HW112219   0.218   0.727   6.656 -0.1016 -1.3195  0.4570
 2068SOL    HW212220   0.320   0.684   6.535  0.6259  1.6973 -0.0837
 2069SOL     OW12221   1.874   5.632   0.560 -0.1414  0.0545 -0.2114
 2069SOL    HW112222   1.961   5.677   0.541  0.0633  0.1770  0.9755
 2069SOL    HW212223   1.888   5.534   0.570 -0.1971  0.0335 -0.3286
 2070SOL     OW12224   4.708   5.295   0.933 -0.1807 -0.1027 -0.3993
 2070SOL    HW112225   4.627   5.236   0.937  1.3230 -2.1827  2.4756
 2070SOL    HW212226   4.680   5.390   0.947 -2.1482 -0.7332  0.3091
 2071SOL     OW12227   1.601   3.580   0.053  0.1634  0.2295 -0.2496
 2071SOL    HW112228   1.603   3.519  -0.025  0.7639 -0.1492  0.0561
 2071SOL    HW212229   1.675   3.556   0.116 -0.8548 -0.0457  0.8699
 2072SOL     OW12230   1.433   3.101   5.010 -0.5171  0.2553  0.2399
 2072SOL    HW112231   1.482   3.183   5.040 -1.4489  1.5931 -1.7165
 2072SOL    HW212232   1.486   3.020   5.036  0.5914  1.4541  1.9381
 2073SOL     OW12233   5.449   3.302   0.694  0.1495  0.3278 -0.1034
 2073SOL    HW112234   5.539   3.266   0.669 -0.6850 -0.3634 -2.3657
 2073SOL    HW212235   5.387   3.225   0.711 -0.6143  0.7485 -0.9336
 2074SOL     OW12236   4.604   6.220   5.649 -0.0336 -0.6301  0.7798
 2074SOL    HW112237   4.554   6.164   5.716  1.8190 -0.6127  2.2410
 2074SOL    HW212238   4.687   6.172   5.621  1.3205  1.1257  1.6575
 2075SOL     OW12239   0.562   3.332   6.235  0.2095  0.0837  0.4965
 2075SOL    HW112240   0.623   3.399   6.275 -1.5753  0.6457  2.4305
 2075SOL    HW212241   0.590   3.314   6.140  1.6306  2.4100  0.3971
 2076SOL     OW12242   3.421   5.556   5.702  0.2348 -0.1304 -0.2100
 2076SOL    HW112243   3.321   5.554   5.698  0.2273 -0.9459  0.1541
 2076SOL    HW212244   3.449   5.625   5.769 -0.1407 -0.9686  0.8458
 2077SOL     OW12245   0.879   0.217   0.293  0.2055 -0.1227  0.4377
 2077SOL    HW112246   0.872   0.141   0.228 -1.5738 -1.1376  1.6932
 2077SOL    HW212247   0.878   0.180   0.386  0.6944  1.3836  1.0620
 2078SOL     OW12248   0.882   3.937   5.655 -0.3938  0.3674 -0.5727
 2078SOL    HW112249   0.861   3.987   5.571 -0.8187 -0.3167 -0.8802
 2078SOL    HW212250   0.980   3.919   5.659 -0.4175  0.1050 -1.0968
 2079SOL     OW12251   4.596   1.819   5.226  0.6737  1.0112 -0.5143
 2079SOL    HW112252   4.555   1.790   5.139  0.0417  0.6449 -0.0968
 2079SOL    HW212253   4.684   1.773   5.238  0.4962  0.6274 -0.6867
 2080SOL     OW12254   2.796   6.308   0.347  0.1088  0.1725  0.5443
 2080SOL    HW112255   2.732   6.376   0.312 -0.8015 -0.0636  1.6949
 2080SOL    HW212256   2.881   6.312   0.294 -0.5907  0.9527 -0.5701
 2081SOL     OW12257   1.202   0.944   6.000 -0.2860  0.3265 -0.3128
 2081SOL    HW112258   1.119   0.950   6.057 -0.2339 -0.3775 -0.1558
 2081SOL    HW212259   1.270   0.889   6.047  0.2146  0.7546 -0.5268
 2082SOL     OW12260   1.624   5.545   5.856 -0.8826 -0.5499  0.1590
 2082SOL    HW112261   1.524   5.543   5.866 -0.9276 -0.7637 -0.3095
 2082SOL    HW212262   1.654   5.638   5.836 -0.9192 -0.3573  0.9844
 2083SOL     OW12263   4.338   1.679   5.623  0.0610 -0.2790  0.1073
 2083SOL    HW112264   4.342   1.750   5.553 -2.0252  1.2794  1.4857
 2083SOL    HW212265   4.308   1.593   5.582 -0.8106  0.5269 -0.9832
 2084SOL     OW12266   3.890   5.018   0.692  0.9406 -0.2680 -0.8340
 2084SOL    HW112267   3.960   5.071   0.740  1.0560 -0.7960 -0.4136
 2084SOL    HW212268   3.832   4.972   0.758  0.4628 -0.1854 -1.1893
 2085SOL     OW12269   1.488   5.097   0.372  0.3167 -0.1802 -0.2648
 2085SOL    HW112270   1.555   5.085   0.298  0.2435 -1.1196 -0.1895
 2085SOL    HW212271   1.536   5.101   0.459  0.3060 -0.4572 -0.2454
 2086SOL     OW12272   6.198   0.440   5.737  1.1548  0.1372 -0.1020
 2086SOL    HW112273   6.165   0.350   5.765  0.9458  0.5988  1.2199
 2086SOL    HW212274   6.220   0.439   5.639 -0.3056 -0.9074 -0.4475
 2087SOL     OW12275   3.681   4.543   0.589  0.0872  0.1732  0.0076
 2087SOL    HW112276   3.726   4.454   0.587 -0.3976 -0.0755 -0.0290
 2087SOL    HW212277   3.749   4.615   0.573  0.3847 -0.2248 -0.5516
 2088SOL     OW12278   5.592   5.104   5.421  0.1110  0.1873  0.7826
 2088SOL    HW112279   5.516   5.043   5.441  2.1470 -1.9873  2.4773
 2088SOL    HW212280   5.665   5.053   5.377  1.0753  1.9315  0.2529
 2089SOL     OW12281   2.196   0.513   0.870 -0.2517  0.1574 -0.1611
 2089SOL    HW112282   2.248   0.549   0.947  0.1986  0.2714 -0.5174
 2089SOL    HW212283   2.100   0.503   0.897  0.0457 -0.5578  0.6672
 2090SOL     OW12284   5.361   4.957   5.464 -0.4748 -0.3604  0.5990
 2090SOL    HW112285   5.326   4.896   5.393 -1.0551  1.2408 -0.5439
 2090SOL    HW212286   5.287   5.015   5.497 -0.1361 -0.8242  2.3094
 2091SOL     OW12287   0.804   3.646   0.937  0.4046 -0.5622  0.1081
 2091SOL    HW112288   0.789   3.606   1.027  0.1700  0.4561  0.5311
 2091SOL    HW212289   0.717   3.679   0.899  0.5926 -0.4233 -0.2141
 2092SOL     OW12290   4.120   2.561   6.334 -0.6792  0.2393 -0.3287
 2092SOL    HW112291   4.075   2.473   6.321  0.1761 -0.3370  0.4087
 2092SOL    HW212292   4.122   2.612   6.248 -1.5252 -0.2965 -0.6697
 2093SOL     OW12293   2.193   0.640   0.340 -0.0381 -0.1380  0.2662
 2093SOL    HW112294   2.249   0.566   0.378 -1.4039 -0.4581  1.7565
 2093SOL    HW212295   2.183   0.712   0.408 -0.4639  0.4596 -0.4176
 2094SOL     OW12296   0.093   1.848   0.268 -0.6106  0.1700  0.0948
 2094SOL    HW112297   0.084   1.941   0.305 -0.9291  0.4636 -0.7137
 2094SOL    HW212298   0.189   1.830   0.248 -0.7081  0.8419 -1.0437
 2095SOL     OW12299   3.157   5.614   5.719  1.1445 -0.0963 -0.1286
 2095SOL    HW112300   3.151   5.696   5.662 -0.3726  0.7794  1.1991
 2095SOL    HW212301   3.107   5.539   5.676  1.4930  0.0262 -0.7578
 2096SOL     OW12302   1.565   1.934   4.958  0.7044 -0.0175  0.6609
 2096SOL    HW112303   1.561   1.972   5.050  0.6933  2.4034 -0.2481
 2096SOL    HW212304   1.508   1.990   4.897  0.9847 -1.3479 -0.8802
 2097SOL     OW12305   5.459   0.052   6.499 -0.4643 -0.6157 -1.1261
 2097SOL    HW112306   5.538  -0.010   6.497  0.0416  0.0160 -1.1405
 2097SOL    HW212307   5.375  -0.001   6.488  0.0067 -1.2168 -2.0020
 2098SOL     OW12308   6.158   1.790   6.128 -0.2790 -0.4401  0.3213
 2098SOL    HW112309   6.103   1.851   6.185  1.8292  1.9386  0.0018
 2098SOL    HW212310   6.241   1.764   6.178  1.1290  0.8937 -1.2037
 2099SOL     OW12311   4.464   0.578   5.664 -0.6651 -0.3270 -0.2057
 2099SOL    HW112312   4.488   0.505   5.601 -0.8644 -2.4392  2.0282
 2099SOL    HW212313   4.545   0.606   5.716 -0.8062  0.3063 -0.3146
 2100SOL     OW12314   4.007   3.603   6.271 -0.1753 -0.4822 -0.0849
 2100SOL    HW112315   3.909   3.602   6.286 -0.1834  1.4171  0.1644
 2100SOL    HW212316   4.052   3.650   6.347  1.1165 -2.7450  0.6425
 2101SOL     OW12317   3.024   4.387   1.104  0.4691 -0.4474  0.0787
 2101SOL    HW112318   2.966   4.330   1.046 -2.3688  1.7394  0.5694
 2101SOL    HW212319   2.996   4.379   1.199  0.6059  1.0337  0.2730
 2102SOL     OW12320   3.549   1.301   6.136 -0.6254 -0.3335  0.3886
 2102SOL    HW112321   3.612   1.319   6.211 -1.7246  1.6778  0.8920
 2102SOL    HW212322   3.533   1.385   6.084  1.3562 -1.9423 -3.2085
 2103SOL     OW12323   5.356   3.679   6.613  0.1082 -0.3534 -0.1793
 2103SOL    HW112324   5.271   3.703   6.565 -0.1109 -0.8449 -0.0441
 2103SOL    HW212325   5.364   3.579   6.619  0.2600 -0.3049  0.5761
 2104SOL     OW12326   0.644   4.161   5.288 -0.6825  0.0743  0.2259
 2104SOL    HW112327   0.564   4.103   5.303 -1.0189  0.4765  0.0304
 2104SOL    HW212328   0.727   4.110   5.308 -0.7282 -1.6060 -3.2138
 2105SOL     OW12329   5.685   4.796   6.432 -0.2986  0.4072  0.4154
 2105SOL    HW112330   5.661   4.816   6.337 -1.5480 -2.1538  0.1282
 2105SOL    HW212331   5.771   4.745   6.434  0.4587  1.6353  0.8219
 2106SOL     OW12332   6.177   6.291   0.686  0.1696  0.1889  0.2756
 2106SOL    HW112333   6.111   6.366   0.682  0.1671  0.1630 -0.1801
 2106SOL    HW212334   6.165   6.231   0.607 -2.0236 -2.1641  2.2100
 2107SOL     OW12335   3.600   3.582   5.978  0.3428 -0.2020  0.6044
 2107SOL    HW112336   3.666   3.529   6.031  1.7483 -0.5786 -1.3945
 2107SOL    HW212337   3.578   3.533   5.894  0.7272  1.7905 -0.7197
 2108SOL     OW12338   4.590   2.916   0.157 -0.5266 -0.4545 -0.2336
 2108SOL    HW112339   4.633   2.893   0.244 -0.2146 -1.8342 -0.7151
 2108SOL    HW212340   4.654   2.970   0.102 -0.4267 -0.2395  0.0925
 2109SOL     OW12341   3.554   2.731   5.886  0.6023  0.3868 -0.7179
 2109SOL    HW112342   3.480   2.697   5.828  0.5025 -0.5379 -0.0760
 2109SOL    HW212343   3.530   2.717   5.982  2.6732 -2.3878 -0.4908
 2110SOL     OW12344   0.405   2.552   4.820 -0.1596 -0.0358 -0.3781
 2110SOL    HW112345   0.307   2.537   4.804 -0.1285 -1.0833  0.3125
 2110SOL    HW212346   0.439   2.620   4.755 -2.0354  2.8579  1.4112
 2111SOL     OW12347   1.288   2.070   0.918 -0.2703  0.0172 -0.1087
 2111SOL    HW112348   1.354   2.012   0.966  1.2048 -1.0836 -3.1683
 2111SOL    HW212349   1.201   2.022   0.910  0.0374 -0.5518 -0.1089
 2112SOL     OW12350   1.052   0.113   6.211 -0.0877 -0.6072  0.2872
 2112SOL    HW112351   0.987   0.137   6.138  0.0727 -1.7379 -0.2444
 2112SOL    HW212352   1.032   0.021   6.244  0.5567 -0.5316  0.9059
 2113SOL     OW12353   2.265   2.448   1.333  0.3259 -0.3053 -0.2849
 2113SOL    HW112354   2.233   2.357   1.360 -1.1127  0.1089 -0.5265
 2113SOL    HW212355   2.326   2.484   1.404 -0.8718 -0.5435  0.9091
 2114SOL     OW12356   3.428   3.572   6.200  0.4102 -0.1672  0.2891
 2114SOL    HW112357   3.500   3.586   6.132  0.2448 -1.3285 -0.1470
 2114SOL    HW212358   3.456   3.614   6.287  0.5026  1.5698 -0.5452
 2115SOL     OW12359   4.916   0.416   6.545 -0.0655 -0.4474  0.8646
 2115SOL    HW112360   4.965   0.438   6.629 -0.0897 -3.7755  1.9149
 2115SOL    HW212361   4.827   0.375   6.568 -2.2993  2.9026 -0.9591
 2116SOL     OW12362   1.320   4.012   1.517 -0.1675  0.2217 -0.7669
 2116SOL    HW112363   1.318   4.103   1.476 -1.9840  0.5100 -0.1233
 2116SOL    HW212364   1.378   4.013   1.598 -0.7248  1.0055 -0.3642
 2117SOL     OW12365   0.696   0.002   1.422 -0.3651 -0.5738  0.2128
 2117SOL    HW112366   0.772   0.001   1.487  0.0838 -0.9739 -0.2961
 2117SOL    HW212367   0.678   0.096   1.392 -1.4842 -0.2082  1.9216
 2118SOL     OW12368   5.125   5.668   0.021 -0.1776  0.2108 -0.2236
 2118SOL    HW112369   5.086   5.590  -0.029  0.2102 -1.2953  1.7302
 2118SOL    HW212370   5.161   5.637   0.108  1.2350  2.3870  0.0270
 2119SOL     OW12371   3.060   2.082   0.195 -0.3682 -0.6131  0.4567
 2119SOL    HW112372   2.981   2.105   0.138 -0.3603  0.1272  0.7430
 2119SOL    HW212373   3.028   2.037   0.279 -0.4648 -0.6056  0.4245
 2120SOL     OW12374   0.558   4.746   0.284 -0.1451 -0.3955 -0.4086
 2120SOL    HW112375   0.559   4.771   0.381 -1.2604  1.2339 -0.7719
 2120SOL    HW212376   0.533   4.650   0.275 -1.8205 -0.1459  0.8986
 2121SOL     OW12377   4.479   3.094   0.725  0.0484  0.2825 -0.3456
 2121SOL    HW112378   4.460   3.060   0.633 -2.5708  1.4704 -0.3290
 2121SOL    HW212379   4.475   3.194   0.725  1.9110  0.4110  0.7340
 2122SOL     OW12380   3.604   2.484   0.436  0.6048 -0.0789 -0.9656
 2122SOL    HW112381   3.521   2.446   0.395  0.9442  0.0150 -1.7546
 2122SOL    HW212382   3.681   2.468   0.375  0.9599  0.8688 -0.7793
 2123SOL     OW12383   0.727   1.938   1.085 -0.0171 -0.6940  0.0898
 2123SOL    HW112384   0.791   2.008   1.055  0.0624 -1.4724 -1.6698
 2123SOL    HW212385   0.776   1.853   1.103 -0.3422 -0.8264  0.3736
 2124SOL     OW12386   4.058   3.036   5.754 -0.4116 -0.6160 -0.1656
 2124SOL    HW112387   3.967   3.033   5.713 -1.0652 -1.0073  1.2302
 2124SOL    HW212388   4.091   3.130   5.758 -0.6407 -0.5003 -0.8926
 2125SOL     OW12389   5.482   3.510   6.362 -1.0573  0.4248 -0.0307
 2125SOL    HW112390   5.533   3.440   6.312 -0.8901 -0.0122  0.7461
 2125SOL    HW212391   5.394   3.473   6.392 -2.0369  1.2754 -1.6564
 2126SOL     OW12392   5.618   1.972   5.297 -0.0017  0.4066 -0.2734
 2126SOL    HW112393   5.631   1.948   5.393  0.3876  0.0709 -0.4056
 2126SOL    HW212394   5.696   1.940   5.244  0.9050  2.6233 -0.3630
 2127SOL     OW12395   3.568   1.830   6.130 -0.3653 -0.0119  0.1985
 2127SOL    HW112396   3.640   1.841   6.198  0.6192 -3.4587 -0.0605
 2127SOL    HW212397   3.488   1.789   6.173 -1.7924  2.6273  0.2213
 2128SOL     OW12398   3.736   3.671   6.608 -0.1657 -0.0807 -0.4421
 2128SOL    HW112399   3.713   3.615   6.688 -0.3176  0.8471  0.1845
 2128SOL    HW212400   3.784   3.615   6.540  0.9165 -0.6385  0.7436
 2129SOL     OW12401   0.431   1.831   5.677  0.0552 -1.0941  0.1548
 2129SOL    HW112402   0.514   1.805   5.627  1.1419 -2.2423  2.4153
 2129SOL    HW212403   0.359   1.765   5.658  0.3303 -1.3063 -0.1735
 2130SOL     OW12404   4.035   0.709   5.969 -0.8323 -0.1193  0.2934
 2130SOL    HW112405   3.940   0.680   5.980 -1.0541  0.7276  0.6643
 2130SOL    HW212406   4.087   0.682   6.051 -0.8719 -0.1127  0.3208
 2131SOL     OW12407   3.151   2.924   1.627  0.6712 -0.2993 -0.2899
 2131SOL    HW112408   3.114   2.847   1.575  0.8754  0.6081 -1.8734
 2131SOL    HW212409   3.097   2.938   1.710  0.9907 -2.4740  0.3405
 2132SOL     OW12410   5.285   4.312   0.051 -0.3908  0.4087 -0.2920
 2132SOL    HW112411   5.207   4.357   0.095 -0.0931  0.3935  0.2640
 2132SOL    HW212412   5.353   4.380   0.025  0.3935  0.2479  1.2164
 2133SOL     OW12413   2.904   0.689   5.046 -0.1704  0.1533 -0.8654
 2133SOL    HW112414   2.914   0.612   4.983 -0.6102 -0.2433 -0.4540
 2133SOL    HW212415   2.834   0.752   5.012  0.8323  0.8608 -1.6787
 2134SOL     OW12416   3.430   4.865   1.582  0.5179 -0.1975 -1.0564
 2134SOL    HW112417   3.511   4.809   1.562 -0.2252 -1.6775 -0.0541
 2134SOL    HW212418   3.370   4.816   1.645 -0.4108  1.5502 -0.5227
 2135SOL     OW12419   3.189   4.559   0.152  0.3628  0.1016  0.1489
 2135SOL    HW112420   3.194   4.602   0.062 -1.3221 -0.0259 -0.0232
 2135SOL    HW212421   3.267   4.590   0.207  1.9996 -0.6108 -1.6508
 2136SOL     OW12422   1.263   2.600   5.801 -1.0420 -0.2335 -0.1599
 2136SOL    HW112423   1.241   2.660   5.878 -0.7856  0.3541 -0.5367
 2136SOL    HW212424   1.180   2.581   5.748 -1.0010  0.3645 -0.4423
 2137SOL     OW12425   5.967   1.320   0.649 -0.0729 -0.4770  0.1445
 2137SOL    HW112426   5.881   1.344   0.603 -0.2649  0.3532  0.8955
 2137SOL    HW212427   6.043   1.346   0.590 -0.3275 -0.8178 -0.3450
 2138SOL     OW12428   2.866   4.513   0.548 -0.2870 -0.1893  0.8447
 2138SOL    HW112429   2.947   4.552   0.592  1.1018 -1.0364 -0.8265
 2138SOL    HW212430   2.864   4.541   0.452 -1.4601 -0.9589  0.6358
 2139SOL     OW12431   2.399   0.747   5.154  0.1464  1.3188 -0.2409
 2139SOL    HW112432   2.373   0.818   5.089 -1.5342  1.7952  0.8807
 2139SOL    HW212433   2.420   0.790   5.242 -1.0857  0.4387  0.5108
 2140SOL     OW12434   4.251   4.785   6.452  0.0984  0.1007  0.0609
 2140SOL    HW112435   4.272   4.865   6.395  3.7506 -1.0739 -0.4897
 2140SOL    HW212436   4.336   4.739   6.477 -1.7128 -2.1802  2.5600
 2141SOL     OW12437   0.235   4.955   6.561  0.3965 -0.2187  0.5849
 2141SOL    HW112438   0.151   5.003   6.586  0.5663  0.1771  0.3922
 2141SOL    HW212439   0.294   4.947   6.641 -0.6896 -2.3176  1.2702
 2142SOL     OW12440   2.956   1.885   0.788 -0.0845 -0.2187  0.4360
 2142SOL    HW112441   2.866   1.879   0.745 -0.7140  0.1311  1.6702
 2142SOL    HW212442   2.993   1.977   0.776 -0.1552 -0.1869  0.4670
 2143SOL     OW12443   3.202   0.400   1.830  0.4735 -0.3459  0.1294
 2143SOL    HW112444   3.163   0.492   1.838  0.0584 -0.4471 -0.6666
 2143SOL    HW212445   3.157   0.339   1.895  0.6470 -0.0298  0.5568
 2144SOL     OW12446   0.992   5.707   5.575 -0.6433  0.6064  0.2319
 2144SOL    HW112447   1.049   5.678   5.498  0.0977 -0.1400  1.0386
 2144SOL    HW212448   1.037   5.781   5.624 -1.4365  1.5507 -0.4378
 2145SOL     OW12449   2.845   4.070   6.039  0.1384 -0.0565  0.0785
 2145SOL    HW112450   2.896   4.134   5.981 -0.3879 -0.4446 -0.8289
 2145SOL    HW212451   2.886   3.979   6.032  0.5592  0.0524  0.9555
 2146SOL     OW12452   1.855   1.372   0.906 -0.1280  0.1337  0.9745
 2146SOL    HW112453   1.862   1.472   0.907  1.5983  0.0331  1.4749
 2146SOL    HW212454   1.764   1.345   0.939 -0.3488  1.5114  1.5749
 2147SOL     OW12455   5.406   4.205   1.729 -0.0540 -0.0153 -0.1672
 2147SOL    HW112456   5.412   4.223   1.827  0.2531  0.1698 -0.2192
 2147SOL    HW212457   5.498   4.198   1.690 -0.1468  1.3210 -0.7037
 2148SOL     OW12458   1.807   5.003   1.359 -0.3720 -0.4083 -0.1892
 2148SOL    HW112459   1.815   5.099   1.333  1.0721  0.2029  2.2274
 2148SOL    HW212460   1.746   4.994   1.437 -0.7976 -1.5312 -0.6299
 2149SOL     OW12461   5.374   5.037   6.521  0.6843  0.3102  0.3252
 2149SOL    HW112462   5.369   5.040   6.621  0.0003  0.5041  0.2940
 2149SOL    HW212463   5.455   5.086   6.490  1.2862 -0.3569  0.8131
 2150SOL     OW12464   2.409   1.433   5.566  0.3342  0.0549  0.0592
 2150SOL    HW112465   2.444   1.359   5.509  1.0690  0.0194  0.5485
 2150SOL    HW212466   2.330   1.475   5.522  0.3093 -0.5983 -0.5259
 2151SOL     OW12467   3.372   5.956   0.340 -0.1847  1.0496  0.2601
 2151SOL    HW112468   3.423   5.940   0.425  0.2565 -1.5487 -0.3872
 2151SOL    HW212469   3.409   5.897   0.268 -1.5051  2.0998 -1.3428
 2152SOL     OW12470   2.127   4.687   5.388  0.5195 -0.4269 -0.5829
 2152SOL    HW112471   2.179   4.661   5.469  0.9158 -0.1630 -0.7469
 2152SOL    HW212472   2.047   4.741   5.415  1.5775  1.1336 -0.4697
 2153SOL     OW12473   0.832   5.094   6.133 -0.1386 -0.6458  0.6450
 2153SOL    HW112474   0.779   5.094   6.218 -0.2593  2.0058  0.6660
 2153SOL    HW212475   0.832   5.186   6.094  2.5126 -1.0915 -0.6202
 2154SOL     OW12476   2.288   1.131   5.911  0.0798 -0.1352  0.6377
 2154SOL    HW112477   2.359   1.160   5.974 -0.9900  1.5041  1.1575
 2154SOL    HW212478   2.329   1.101   5.825  1.4749 -1.1114  1.6104
 2155SOL     OW12479   4.747   2.428   1.060 -0.5255  0.1061  0.3002
 2155SOL    HW112480   4.697   2.476   1.132 -1.1132  0.7247 -0.5036
 2155SOL    HW212481   4.684   2.405   0.986 -0.3150 -2.0940  0.7222
 2156SOL     OW12482   0.101   2.503   5.710 -0.5070  0.5538  0.3694
 2156SOL    HW112483   0.036   2.520   5.635 -0.2216 -3.6511 -1.0740
 2156SOL    HW212484   0.194   2.517   5.677 -0.3982 -0.9286 -0.0074
 2157SOL     OW12485   4.952   2.037   6.400 -0.3028  0.2182  0.1346
 2157SOL    HW112486   4.963   1.939   6.417  0.4161  0.2192 -0.2565
 2157SOL    HW212487   4.908   2.080   6.479  0.9440 -0.1377  1.0629
 2158SOL     OW12488   5.526   6.129   5.699  0.0332 -0.5766 -0.1990
 2158SOL    HW112489   5.566   6.133   5.607 -0.8077  1.4200 -0.5357
 2158SOL    HW212490   5.571   6.196   5.758 -1.3306  0.2035  0.0056
 2159SOL     OW12491   1.069   0.627   0.697 -0.2989  0.5344  0.0911
 2159SOL    HW112492   1.132   0.566   0.649  1.0827  2.1375 -0.2330
 2159SOL    HW212493   0.975   0.597   0.682  0.3365 -1.7570  0.3491
 2160SOL     OW12494   4.068   0.578   0.204  0.1654  0.4312 -0.0082
 2160SOL    HW112495   4.148   0.555   0.260 -0.6661 -1.1118  0.5962
 2160SOL    HW212496   4.001   0.625   0.260  0.5187  1.5049 -0.4577
 2161SOL     OW12497   2.523   2.361   5.596  0.2830 -0.0988 -0.3958
 2161SOL    HW112498   2.474   2.425   5.537 -0.6056  0.6187  1.0570
 2161SOL    HW212499   2.457   2.305   5.646  0.8250  1.3294  2.1082
 2162SOL     OW12500   5.222   3.925   0.041 -0.2086  0.4975  0.0169
 2162SOL    HW112501   5.246   3.987  -0.033  0.8450 -1.2589 -1.2027
 2162SOL    HW212502   5.258   3.834   0.021 -1.8352 -0.5784  1.6250
 2163SOL     OW12503   4.360   4.984   5.791 -0.7517 -0.2535  0.3530
 2163SOL    HW112504   4.434   5.014   5.730  1.4535  0.4200  3.0861
 2163SOL    HW212505   4.283   5.048   5.785  0.9121  1.9361  0.8041
 2164SOL     OW12506   0.800   4.467   0.189 -0.0166 -0.3078  0.4184
 2164SOL    HW112507   0.867   4.408   0.233 -0.3887 -0.1813  1.1782
 2164SOL    HW212508   0.718   4.415   0.167 -0.0503 -0.2468  0.3979
 2165SOL     OW12509   2.537   1.768   5.631 -0.4290  0.4871  0.3772
 2165SOL    HW112510   2.466   1.717   5.680 -0.0538 -1.2613 -0.7856
 2165SOL    HW212511   2.498   1.803   5.545  0.1741 -0.8696 -0.4846
 2166SOL     OW12512   5.665   3.147   0.262 -0.2118  0.4144  0.2853
 2166SOL    HW112513   5.619   3.061   0.244 -1.1964  0.4898  2.1905
 2166SOL    HW212514   5.604   3.223   0.239  0.1733  0.6012 -0.1563
 2167SOL     OW12515   1.541   3.717   6.401 -0.3333  0.4540  0.3340
 2167SOL    HW112516   1.633   3.679   6.386 -0.7813 -0.3114 -0.5620
 2167SOL    HW212517   1.500   3.739   6.313 -1.1396  0.5045  0.7204
 2168SOL     OW12518   5.878   3.122   6.510  0.2302  0.1777 -0.4381
 2168SOL    HW112519   5.905   3.125   6.606  0.7383 -0.5916 -0.5512
 2168SOL    HW212520   5.910   3.037   6.469  0.0501  0.5182 -1.3014
 2169SOL     OW12521   2.096   1.529   6.265 -0.3793  0.1607  0.3020
 2169SOL    HW112522   2.017   1.586   6.287 -0.8378  0.1630 -1.2685
 2169SOL    HW212523   2.152   1.574   6.195 -0.5482 -1.1126 -0.6903
 2170SOL     OW12524   4.681   3.641   6.324  0.0479 -0.2302  0.5655
 2170SOL    HW112525   4.694   3.729   6.368 -0.5098  0.4704 -0.6081
 2170SOL    HW212526   4.654   3.573   6.392  1.9381  0.1336  1.7231
 2171SOL     OW12527   4.772   5.902   5.914 -0.1377  0.3614  0.0147
 2171SOL    HW112528   4.855   5.955   5.900  0.8691 -1.2946 -0.5302
 2171SOL    HW212529   4.719   5.900   5.829 -0.0019  0.2060 -0.0664
 2172SOL     OW12530   3.023   1.283   6.637 -0.0081  0.6264 -0.2004
 2172SOL    HW112531   3.055   1.369   6.598  2.8594  0.1022  0.7955
 2172SOL    HW212532   3.019   1.291   6.736 -3.4239  0.7125 -0.2406
 2173SOL     OW12533   3.808   0.332   1.140  0.1430  0.2173  0.0601
 2173SOL    HW112534   3.823   0.254   1.080 -0.9607  0.4294 -0.4977
 2173SOL    HW212535   3.844   0.311   1.231 -0.8139 -1.2423  0.1310
 2174SOL     OW12536   0.062   4.170   6.583 -0.4663 -0.4989  0.1494
 2174SOL    HW112537   0.067   4.212   6.492  2.0702 -0.9659 -0.0118
 2174SOL    HW212538   0.034   4.075   6.575  2.5964 -1.4678 -0.6199
 2175SOL     OW12539   4.370   3.356   1.014  0.0402 -0.3558 -0.0214
 2175SOL    HW112540   4.463   3.372   1.046  0.0784 -0.7158  0.0496
 2175SOL    HW212541   4.305   3.379   1.087  0.1461 -1.6039  0.4916
 2176SOL     OW12542   1.221   5.548   0.229  0.2199  0.5902  0.0051
 2176SOL    HW112543   1.167   5.572   0.148  0.9228 -0.1500 -0.6928
 2176SOL    HW212544   1.254   5.454   0.222  1.7257  1.0553  0.3362
 2177SOL     OW12545   5.938   0.990   1.005  0.4672 -0.2032  0.1372
 2177SOL    HW112546   5.918   1.083   1.036  0.5142  0.2837 -1.2253
 2177SOL    HW212547   5.979   0.993   0.915  0.4643 -1.5632  0.0649
 2178SOL     OW12548   4.828   5.744   0.797 -0.3223 -0.3041 -0.3058
 2178SOL    HW112549   4.866   5.836   0.812  1.8314 -1.2291  0.2852
 2178SOL    HW212550   4.818   5.728   0.698 -1.4934  0.8183 -0.4016
 2179SOL     OW12551   2.007   3.197   5.125  0.6473  0.2292  0.1983
 2179SOL    HW112552   2.019   3.191   5.026 -0.1131  0.3158  0.0964
 2179SOL    HW212553   1.921   3.154   5.151  1.2315 -0.5108  0.9217
 2180SOL     OW12554   6.048   0.269   0.039 -0.5344 -0.2677  0.2098
 2180SOL    HW112555   6.011   0.256  -0.053  0.3238  1.7164 -0.4789
 2180SOL    HW212556   5.989   0.224   0.105 -2.3462  0.0169 -1.1282
 2181SOL     OW12557   1.962   3.128   0.092  0.3614  0.7206 -0.0637
 2181SOL    HW112558   1.879   3.125   0.037 -0.1330  2.3173  0.5222
 2181SOL    HW212559   1.938   3.135   0.189  1.1931  0.4722  0.1761
 2182SOL     OW12560   4.132   1.932   0.407 -0.7213  0.2284  0.0858
 2182SOL    HW112561   4.221   1.977   0.418 -0.3703 -0.6643  1.0569
 2182SOL    HW212562   4.060   2.001   0.406  0.0757  1.1212 -2.5646
 2183SOL     OW12563   6.277   5.608   6.484 -0.1514 -1.0717  0.1182
 2183SOL    HW112564   6.356   5.614   6.424 -1.3603  1.9193 -1.4063
 2183SOL    HW212565   6.305   5.576   6.574  2.5697 -1.0477 -0.6385
 2184SOL     OW12566   5.633   2.690   4.878 -0.2364  0.5790 -0.1552
 2184SOL    HW112567   5.676   2.629   4.945 -1.1253  0.7101  0.5520
 2184SOL    HW212568   5.699   2.759   4.849  0.1287  0.5862  0.6687
 2185SOL     OW12569   5.736   3.848   5.614  0.6131  0.2970  0.5246
 2185SOL    HW112570   5.660   3.791   5.646 -0.5415  1.7435  0.4785
 2185SOL    HW212571   5.738   3.933   5.666  1.4826  0.7802 -0.2711
 2186SOL     OW12572   2.909   0.749   6.277  0.0797 -0.0680  0.0654
 2186SOL    HW112573   2.981   0.817   6.295  0.4406 -0.8764  1.8757
 2186SOL    HW212574   2.828   0.795   6.240  0.8349  1.1228 -0.1764
 2187SOL     OW12575   2.826   1.219   6.437  0.2333 -0.1899  0.6617
 2187SOL    HW112576   2.895   1.211   6.508 -0.2029 -2.2191  0.9296
 2187SOL    HW212577   2.745   1.166   6.463 -0.5110  0.2307 -0.6850
 2188SOL     OW12578   4.742   3.912   6.381 -0.2585  0.0599 -0.0790
 2188SOL    HW112579   4.732   4.000   6.429  0.6963  0.6428 -0.9316
 2188SOL    HW212580   4.730   3.926   6.283 -0.3197 -0.8141 -0.2007
 2189SOL     OW12581   6.196   4.369   6.038  0.1505 -0.3809 -0.4247
 2189SOL    HW112582   6.222   4.291   6.094 -2.5573 -0.4156  0.9476
 2189SOL    HW212583   6.177   4.339   5.944  1.1143 -0.9733 -0.4389
 2190SOL     OW12584   4.636   3.277   1.600  0.0997 -0.0960 -0.3508
 2190SOL    HW112585   4.631   3.318   1.691  3.0949 -0.5581  0.1286
 2190SOL    HW212586   4.688   3.191   1.605 -1.2872 -1.1186 -2.2260
 2191SOL     OW12587   4.957   0.621   0.719  0.6916 -0.2441  0.0357
 2191SOL    HW112588   5.012   0.631   0.802  0.3714  0.8542  0.1352
 2191SOL    HW212589   4.992   0.546   0.664  2.6083  0.7287 -0.1386
 2192SOL     OW12590   0.058   2.687   5.003 -0.1017 -0.0570  0.3600
 2192SOL    HW112591   0.116   2.610   5.031  3.6080  2.1362 -0.7082
 2192SOL    HW212592   0.077   2.710   4.908 -2.8928  0.7847 -0.0852
 2193SOL     OW12593   2.036   5.813   6.636  0.1335  0.0643  0.6525
 2193SOL    HW112594   2.035   5.894   6.577 -0.4289 -0.8402 -0.6252
 2193SOL    HW212595   1.948   5.806   6.683  0.5226  0.6945  1.5000
 2194SOL     OW12596   0.227   1.453   6.297  0.4747 -0.0420 -0.1082
 2194SOL    HW112597   0.257   1.358   6.283 -0.1277 -0.2948  0.2841
 2194SOL    HW212598   0.304   1.514   6.282  0.7781 -0.5666 -0.7594
 2195SOL     OW12599   6.152   0.258   0.870  0.3260 -0.2811 -0.1547
 2195SOL    HW112600   6.081   0.276   0.802  0.1289  1.7907  0.5249
 2195SOL    HW212601   6.172   0.161   0.872 -0.7470 -0.5998 -2.0854
 2196SOL     OW12602   5.951   3.321   6.331  0.6302  0.5335  0.4684
 2196SOL    HW112603   5.928   3.261   6.408  1.5134  2.5616  2.4156
 2196SOL    HW212604   6.049   3.338   6.329  0.4985  1.3117 -0.5248
 2197SOL     OW12605   5.682   2.499   0.419  0.4329  0.3183 -0.0329
 2197SOL    HW112606   5.599   2.509   0.365 -0.3280  1.1205  1.2243
 2197SOL    HW212607   5.734   2.585   0.416 -1.4620  1.7908  3.3458
 2198SOL     OW12608   2.611   5.551   1.122 -0.4513 -0.1584  0.1999
 2198SOL    HW112609   2.552   5.525   1.199  0.3684  0.6554  1.1260
 2198SOL    HW212610   2.574   5.513   1.037 -1.8697 -0.3088  0.8647
 2199SOL     OW12611   0.261   3.526   1.215  0.1900 -0.7715 -0.4170
 2199SOL    HW112612   0.299   3.614   1.184  0.9950 -0.7968  0.4367
 2199SOL    HW212613   0.169   3.515   1.180  0.2972  0.1584 -1.0206
 2200SOL     OW12614   4.771   1.707   0.554  0.0964  0.3459  0.3759
 2200SOL    HW112615   4.748   1.783   0.615 -0.8504 -0.6582  1.3174
 2200SOL    HW212616   4.697   1.694   0.488 -0.4060 -0.6085  1.1015
 2201SOL     OW12617   5.533   1.633   0.484 -0.1499 -0.3309 -0.0350
 2201SOL    HW112618   5.611   1.574   0.506  1.0848  1.1070 -0.3609
 2201SOL    HW212619   5.452   1.600   0.532  0.8305 -1.4274  0.9417
 2202SOL     OW12620   1.373   2.525   6.328  0.3025 -0.4602 -0.6469
 2202SOL    HW112621   1.442   2.596   6.311 -1.1884  1.3813  0.6035
 2202SOL    HW212622   1.407   2.437   6.295  2.3347  0.7615 -2.0239
 2203SOL     OW12623   5.422   3.288   0.234  0.2465 -0.0839 -0.3965
 2203SOL    HW112624   5.382   3.197   0.242  0.3784 -0.0358  0.8899
 2203SOL    HW212625   5.393   3.345   0.311  0.1749  0.9726 -1.1691
 2204SOL     OW12626   0.037   1.813   5.684 -0.4579  0.2946  0.4711
 2204SOL    HW112627   0.075   1.802   5.592 -2.1953 -0.2885 -0.2094
 2204SOL    HW212628   0.089   1.756   5.748  0.2045  0.0108 -0.2998
 2205SOL     OW12629   3.031   2.709   5.013  0.4162  0.0496  0.0576
 2205SOL    HW112630   3.105   2.652   5.048 -0.7838 -1.1376  0.7530
 2205SOL    HW212631   3.050   2.733   4.918  0.2545 -2.8080 -0.7639
 2206SOL     OW12632   1.572   3.350   6.215  0.5762 -0.4382 -0.1604
 2206SOL    HW112633   1.670   3.367   6.209  0.7008 -1.2763 -0.8810
 2206SOL    HW212634   1.556   3.251   6.215 -0.1545 -0.3756  2.3609
 2207SOL     OW12635   6.268   2.963   1.525  0.2668 -0.3085  0.2949
 2207SOL    HW112636   6.180   2.915   1.522  0.3319 -0.3992 -0.1370
 2207SOL    HW212637   6.284   2.995   1.618  0.3636 -1.4009  0.6760
 2208SOL     OW12638   2.955   3.224   6.541  0.3721  0.7494 -0.0819
 2208SOL    HW112639   2.912   3.297   6.489 -2.4248 -0.6697  0.0305
 2208SOL    HW212640   2.912   3.217   6.632  0.3622 -1.1302 -0.1744
 2209SOL     OW12641   0.742   0.713   5.944 -0.4408  0.5971 -0.2335
 2209SOL    HW112642   0.787   0.707   5.855 -0.7058  0.4442 -0.3579
 2209SOL    HW212643   0.803   0.757   6.009 -0.1277  0.4281 -0.4125
 2210SOL     OW12644   1.967   4.934   0.928 -0.1361  0.3695 -0.3534
 2210SOL    HW112645   1.944   4.845   0.966 -0.6917  0.1422 -1.1979
 2210SOL    HW212646   2.010   4.922   0.838  0.6986  0.9177 -0.0477
 2211SOL     OW12647   3.904   6.154   1.665 -0.2374 -0.7374  0.6050
 2211SOL    HW112648   3.862   6.131   1.753  0.1776 -0.5393  0.8580
 2211SOL    HW212649   4.001   6.174   1.679 -0.3267 -0.0010  0.2117
 2212SOL     OW12650   2.844   5.883   0.228  0.1827  0.0541 -0.0485
 2212SOL    HW112651   2.747   5.908   0.231  0.3592  0.9827 -1.3712
 2212SOL    HW212652   2.852   5.783   0.228 -0.9138 -0.0993 -2.2924
 2213SOL     OW12653   2.674   2.533   0.927  0.0533  0.3830 -0.2380
 2213SOL    HW112654   2.717   2.446   0.903  0.3871  0.7638 -1.0816
 2213SOL    HW212655   2.577   2.528   0.906  0.1657  0.3777 -0.7985
 2214SOL     OW12656   1.448   2.145   1.199  0.3358  0.1857 -0.1234
 2214SOL    HW112657   1.542   2.122   1.225  0.3641  0.6677  0.2031
 2214SOL    HW212658   1.427   2.101   1.112  0.6009 -0.5645  0.1780
 2215SOL     OW12659   3.327   3.725   5.769  0.5081  0.0897 -0.1730
 2215SOL    HW112660   3.335   3.764   5.861  2.5718  1.7770 -0.9724
 2215SOL    HW212661   3.410   3.747   5.717 -0.1743 -1.7036 -2.1249
 2216SOL     OW12662   3.050   6.254   4.572  0.0083  0.0873 -0.3704
 2216SOL    HW112663   2.987   6.321   4.531  0.3457 -0.4194 -1.7874
 2216SOL    HW212664   3.023   6.162   4.544  0.4520 -0.2539  0.3065
 2217SOL     OW12665   2.278   2.246   6.266 -0.0480 -0.5409  0.4085
 2217SOL    HW112666   2.209   2.177   6.290 -1.2198  0.4047 -0.1520
 2217SOL    HW212667   2.324   2.218   6.181 -1.3439 -0.0958 -0.4776
 2218SOL     OW12668   5.775   5.963   0.872 -0.9481 -0.8956 -0.8038
 2218SOL    HW112669   5.841   6.025   0.830 -0.2819 -0.5954  0.6168
 2218SOL    HW212670   5.824   5.885   0.913 -1.4846 -0.8135  0.0144
 2219SOL     OW12671   5.799   5.887   0.498  0.6396  0.1087 -0.4361
 2219SOL    HW112672   5.713   5.937   0.496  0.5378 -0.0691 -0.5806
 2219SOL    HW212673   5.873   5.948   0.527  0.1560 -0.2077  1.6455
 2220SOL     OW12674   5.055   2.430   1.345 -0.2261  0.4321  0.2980
 2220SOL    HW112675   4.993   2.492   1.392  0.3430  1.5075 -0.3265
 2220SOL    HW212676   5.148   2.465   1.351  0.6267 -1.8842  2.4824
 2221SOL     OW12677   2.699   3.245   5.525 -0.0710 -0.4381 -0.8164
 2221SOL    HW112678   2.753   3.277   5.447 -0.5288 -0.2647 -1.0712
 2221SOL    HW212679   2.618   3.304   5.535 -1.3232 -1.9257 -1.7422
 2222SOL     OW12680   5.572   3.033   5.963  0.5467 -0.5934 -0.1181
 2222SOL    HW112681   5.482   3.077   5.968  0.0664 -1.2613 -2.0774
 2222SOL    HW212682   5.643   3.101   5.981 -0.2943  0.3074 -0.1312
 2223SOL     OW12683   0.577   3.458   0.766 -0.2877  0.7047  0.4530
 2223SOL    HW112684   0.495   3.400   0.772 -1.2896  1.9909 -0.3794
 2223SOL    HW212685   0.658   3.399   0.766 -1.2760 -0.7391 -0.7637
 2224SOL     OW12686   2.498   2.649   6.029  0.1207  0.4750  0.3997
 2224SOL    HW112687   2.513   2.748   6.032  4.4424  0.0508 -0.7499
 2224SOL    HW212688   2.498   2.612   6.122  2.1283  1.2407  0.7504
 2225SOL     OW12689   3.694   0.760   6.129  0.3829  0.3530  1.0579
 2225SOL    HW112690   3.703   0.688   6.060  0.0779  0.7570  0.5887
 2225SOL    HW212691   3.721   0.848   6.088  1.2635  0.4266  1.7759
 2226SOL     OW12692   3.685   2.520   0.694  0.6139 -0.3290 -0.4175
 2226SOL    HW112693   3.689   2.428   0.732 -1.9360 -0.5923 -0.6578
 2226SOL    HW212694   3.652   2.516   0.600  0.9573  0.8073 -0.6086
 2227SOL     OW12695   4.318   5.553   0.983 -0.2635  0.3857  0.7488
 2227SOL    HW112696   4.331   5.652   0.976  2.3294  0.2097  1.9063
 2227SOL    HW212697   4.350   5.521   1.072  2.6190 -1.9000 -0.9016
 2228SOL     OW12698   5.242   4.899   1.285  0.0674  0.4707  0.1888
 2228SOL    HW112699   5.176   4.849   1.229 -1.0749  1.1344  0.8849
 2228SOL    HW212700   5.281   4.838   1.353  0.4414 -0.0130 -0.4489
 2229SOL     OW12701   3.643   4.932   5.331  0.4304  0.1342  0.1204
 2229SOL    HW112702   3.655   4.990   5.251  1.8532  1.1917  1.0501
 2229SOL    HW212703   3.688   4.844   5.316  2.7630  1.1821  0.5874
 2230SOL     OW12704   5.759   4.048   0.493 -0.6297 -0.4823  0.1605
 2230SOL    HW112705   5.821   4.061   0.416 -1.6069  2.2675 -0.2838
 2230SOL    HW212706   5.779   4.117   0.564 -1.7831 -0.9390  0.9584
 2231SOL     OW12707   2.712   4.864   6.212 -0.5857  0.2411 -0.4871
 2231SOL    HW112708   2.769   4.865   6.129  0.0494  2.2260 -0.0851
 2231SOL    HW212709   2.765   4.829   6.289  0.0508  1.8308 -0.1722
 2232SOL     OW12710   2.692   0.911   6.211  0.1780 -0.1265  0.1902
 2232SOL    HW112711   2.605   0.926   6.256 -0.4842  0.6960 -1.3026
 2232SOL    HW212712   2.729   0.998   6.177  0.8762 -0.6384 -0.4306
 2233SOL     OW12713   2.421   5.038   0.404 -0.1353 -0.1227 -0.0375
 2233SOL    HW112714   2.447   5.106   0.335  1.0434  0.8197  1.2950
 2233SOL    HW212715   2.502   4.988   0.435 -0.8094 -1.2968 -0.0877
 2234SOL     OW12716   1.165   2.202   6.552  0.0961 -0.1887 -0.0734
 2234SOL    HW112717   1.249   2.250   6.579 -0.9796  0.7872  1.7597
 2234SOL    HW212718   1.110   2.262   6.493  0.2779 -0.4851 -0.5471
 2235SOL     OW12719   4.512   0.866   5.119 -0.0889  0.6216 -0.2358
 2235SOL    HW112720   4.606   0.898   5.133  0.3971 -0.5105 -0.8493
 2235SOL    HW212721   4.485   0.880   5.024  1.1610 -3.2384 -1.3302
 2236SOL     OW12722   5.876   5.228   1.229  0.1918  0.4065  0.5551
 2236SOL    HW112723   5.887   5.294   1.304  0.1316  0.6461  0.3544
 2236SOL    HW212724   5.965   5.186   1.210 -0.3122 -1.9904  2.8548
 2237SOL     OW12725   6.006   5.567   6.517 -0.4474 -0.0477  0.4954
 2237SOL    HW112726   5.995   5.664   6.542 -0.9133  0.4701 -1.4967
 2237SOL    HW212727   6.100   5.551   6.487 -0.8180  0.3058 -0.9791
 2238SOL     OW12728   4.084   0.741   1.604 -0.1330  0.3863  0.1417
 2238SOL    HW112729   4.105   0.655   1.650 -1.1525 -0.1056 -0.2995
 2238SOL    HW212730   4.044   0.805   1.669 -0.0995  0.2530  0.2937
 2239SOL     OW12731   5.596   5.099   0.372 -0.1789  0.1910 -0.0319
 2239SOL    HW112732   5.650   5.095   0.456 -1.4328  0.2209  0.8080
 2239SOL    HW212733   5.650   5.064   0.296 -0.2890 -3.7833  1.4734
 2240SOL     OW12734   4.765   4.656   1.698  0.2285 -0.1692 -0.3435
 2240SOL    HW112735   4.740   4.560   1.683  0.0384  0.0270 -1.2924
 2240SOL    HW212736   4.684   4.713   1.685  0.3098  0.1130  0.3654
 2241SOL     OW12737   2.301   3.963   5.299  0.0176 -0.0957 -0.3657
 2241SOL    HW112738   2.322   3.872   5.262 -0.8375 -0.5012  0.0997
 2241SOL    HW212739   2.365   4.030   5.262  2.9133 -1.3977  1.8447
 2242SOL     OW12740   2.078   2.063   6.326 -0.3477 -0.2599 -0.2040
 2242SOL    HW112741   2.098   2.016   6.240  1.0331  0.9453 -0.5862
 2242SOL    HW212742   2.003   2.016   6.373 -1.5330 -0.6026 -2.3252
 2243SOL     OW12743   0.958   5.166   5.137  0.1474 -0.7304 -0.1106
 2243SOL    HW112744   0.985   5.245   5.193 -2.6280  0.3617 -0.1679
 2243SOL    HW212745   0.971   5.188   5.040 -1.1425 -0.0613 -0.1567
 2244SOL     OW12746   4.809   1.081   5.926  0.2114  0.6793  0.0721
 2244SOL    HW112747   4.898   1.035   5.924 -0.7922 -1.3276 -1.2651
 2244SOL    HW212748   4.818   1.173   5.888  1.7314  0.5914  0.1520
 2245SOL     OW12749   4.495   2.523   1.583  0.6199  0.0326  0.0440
 2245SOL    HW112750   4.543   2.608   1.604 -0.8358  1.1128 -0.8531
 2245SOL    HW212751   4.401   2.527   1.619  0.4006 -1.0340 -0.3541
 2246SOL     OW12752   0.203   2.862   6.511 -0.1264  0.0783  0.0508
 2246SOL    HW112753   0.125   2.809   6.477 -0.4269 -0.1483  1.0618
 2246SOL    HW212754   0.219   2.841   6.607  1.0798  0.2592 -0.0868
 2247SOL     OW12755   1.086   5.585   0.469  0.7736 -0.2076  0.1754
 2247SOL    HW112756   1.124   5.668   0.508 -0.3962  1.7315 -2.5363
 2247SOL    HW212757   1.134   5.563   0.384 -2.0952  0.7052 -1.8292
 2248SOL     OW12758   0.863   3.212   1.004  0.1889  0.6229 -0.1841
 2248SOL    HW112759   0.910   3.124   0.993  0.8756  0.9398  0.0927
 2248SOL    HW212760   0.872   3.265   0.920  2.9413  1.8793  0.7764
 2249SOL     OW12761   4.322   0.237   6.677  0.8536 -0.4046  0.7060
 2249SOL    HW112762   4.331   0.327   6.633 -1.5191  1.0500  2.9630
 2249SOL    HW212763   4.231   0.228   6.718  1.6551 -3.1355  2.1381
 2250SOL     OW12764   4.965   4.814   5.711  0.3745  0.2769 -0.3281
 2250SOL    HW112765   5.010   4.888   5.760  2.4557 -1.3718  0.4123
 2250SOL    HW212766   4.997   4.811   5.616 -1.1938  1.4595 -0.9423
 2251SOL     OW12767   2.096   4.299   5.327  0.0495 -0.8674 -0.1623
 2251SOL    HW112768   1.996   4.289   5.324  0.0280 -1.7905  1.8729
 2251SOL    HW212769   2.124   4.373   5.266 -1.9808  0.0060 -0.1166
 2252SOL     OW12770   3.963   4.884   5.819 -0.2805 -0.0561  0.2426
 2252SOL    HW112771   4.024   4.807   5.838  2.1361  1.3912 -1.0544
 2252SOL    HW212772   3.970   4.951   5.894  0.4997  0.5292 -0.3323
 2253SOL     OW12773   4.586   6.314   1.909 -0.3784  0.3928  0.1052
 2253SOL    HW112774   4.490   6.338   1.924 -0.6554  1.4631 -2.7322
 2253SOL    HW212775   4.636   6.395   1.879  0.8628 -0.6524 -0.7619
 2254SOL     OW12776   6.286   2.114   1.212  0.2955 -0.2789  0.3220
 2254SOL    HW112777   6.260   2.179   1.283  1.5019  0.0033  0.5245
 2254SOL    HW212778   6.235   2.029   1.224 -1.8533  0.8190 -0.3683
 2255SOL     OW12779   1.898   2.363   5.448 -0.8385 -0.1467 -0.4806
 2255SOL    HW112780   1.995   2.385   5.433 -0.8207  0.9333  0.9592
 2255SOL    HW212781   1.873   2.284   5.393  1.0523 -0.8745 -0.3851
 2256SOL     OW12782   4.787   5.343   0.485 -0.0081 -0.0153 -0.9538
 2256SOL    HW112783   4.866   5.399   0.509 -0.9620  0.4359  1.3759
 2256SOL    HW212784   4.762   5.361   0.390  1.1084  1.7676 -0.9678
 2257SOL     OW12785   4.143   2.616   5.406  0.3562 -0.3008  0.2175
 2257SOL    HW112786   4.188   2.536   5.367 -1.4268 -1.9230  1.3175
 2257SOL    HW212787   4.193   2.698   5.380  2.9553 -1.8387  0.0384
 2258SOL     OW12788   0.582   2.516   5.797  0.1005  0.6352  0.0849
 2258SOL    HW112789   0.581   2.611   5.766 -0.4632 -0.2429 -2.8524
 2258SOL    HW212790   0.537   2.458   5.730  0.7745 -1.8057  1.6067
 2259SOL     OW12791   4.428   6.189   1.126  0.3064 -0.0566 -0.0156
 2259SOL    HW112792   4.449   6.205   1.222  0.7658  1.0361 -0.2864
 2259SOL    HW212793   4.419   6.277   1.079  1.3051 -0.5749 -1.2231
 2260SOL     OW12794   5.140   3.037   6.439  0.2862  0.1400  0.4170
 2260SOL    HW112795   5.167   2.990   6.355  1.0202 -2.3804  1.9525
 2260SOL    HW212796   5.073   2.981   6.488 -0.8538  2.0122  1.0937
 2261SOL     OW12797   3.565   6.023   1.755 -0.3853  0.2049 -1.3316
 2261SOL    HW112798   3.554   6.094   1.685  0.0709 -0.5598 -2.1938
 2261SOL    HW212799   3.624   6.058   1.828 -1.0252  1.0805 -1.2146
 2262SOL     OW12800   4.968   4.218   6.469  0.4150  0.0687 -0.1873
 2262SOL    HW112801   5.020   4.160   6.407 -1.5794 -2.3070  0.2085
 2262SOL    HW212802   4.955   4.170   6.556  0.9698  2.2750  1.1853
 2263SOL     OW12803   2.454   1.479   6.362  0.2618 -0.2447  0.0733
 2263SOL    HW112804   2.418   1.388   6.341  0.4147 -0.3917  0.4586
 2263SOL    HW212805   2.400   1.548   6.313  0.9525 -0.6142 -1.2827
 2264SOL     OW12806   3.978   5.986   5.105  0.2339  0.1027  0.4371
 2264SOL    HW112807   3.909   5.919   5.132 -0.0607  0.0108 -0.5149
 2264SOL    HW212808   3.984   5.990   5.005  2.7058 -1.0355  0.4390
 2265SOL     OW12809   5.970   2.321   6.291  0.5813  0.0035  0.3985
 2265SOL    HW112810   5.894   2.257   6.298  2.3347 -2.2447 -0.1941
 2265SOL    HW212811   5.935   2.415   6.300 -2.0039 -0.9938  1.7349
 2266SOL     OW12812   4.656   4.230   5.472 -0.2852  0.1778 -0.0623
 2266SOL    HW112813   4.642   4.259   5.377 -1.4565  0.1467  0.0843
 2266SOL    HW212814   4.695   4.138   5.473 -0.4508  0.0984 -0.5255
 2267SOL     OW12815   5.601   2.468   1.226 -0.9915  0.2193  0.0743
 2267SOL    HW112816   5.570   2.465   1.321  0.6380  1.1213  0.6729
 2267SOL    HW212817   5.653   2.552   1.210  0.9264 -1.0734 -0.8948
 2268SOL     OW12818   5.635   5.643   0.294  0.5332  0.0007 -0.0831
 2268SOL    HW112819   5.671   5.551   0.312 -0.7018 -0.7178 -1.0871
 2268SOL    HW212820   5.710   5.709   0.298  2.0718 -1.4442 -2.1922
 2269SOL     OW12821   2.511   0.715   5.962  0.4085  0.5408 -0.4845
 2269SOL    HW112822   2.573   0.790   5.938  1.3725 -0.4202 -1.1117
 2269SOL    HW212823   2.473   0.731   6.053 -1.4158  3.0611 -1.5810
 2270SOL     OW12824   5.502   6.251   0.335 -0.3174 -0.1704  0.6376
 2270SOL    HW112825   5.545   6.225   0.248  2.4860 -0.1559  1.9111
 2270SOL    HW212826   5.408   6.217   0.337  0.1792 -1.9323 -1.5655
 2271SOL     OW12827   5.601   5.148   1.340 -0.2481 -0.5443 -0.1331
 2271SOL    HW112828   5.503   5.144   1.325 -0.4511  0.9004  0.5992
 2271SOL    HW212829   5.644   5.203   1.268 -0.3089  0.7108  0.7520
 2272SOL     OW12830   0.534   6.214   1.078 -0.5835 -0.1782 -0.2275
 2272SOL    HW112831   0.600   6.244   1.146  0.2790 -1.1915 -0.5937
 2272SOL    HW212832   0.448   6.264   1.090  0.6392  2.1108 -0.5565
 2273SOL     OW12833   0.069   4.483   6.231  0.0897  0.0698  0.3278
 2273SOL    HW112834   0.163   4.451   6.241 -0.3873 -1.0599  1.4023
 2273SOL    HW212835   0.028   4.443   6.150  0.6953  1.0297 -0.4795
 2274SOL     OW12836   4.760   2.890   5.730  0.6684  0.2894  0.3450
 2274SOL    HW112837   4.738   2.973   5.782 -0.2602 -0.3928  1.0832
 2274SOL    HW212838   4.722   2.897   5.638 -1.6090 -0.2930  1.1679
 2275SOL     OW12839   2.234   5.647   6.545 -0.1983  0.5447  0.8246
 2275SOL    HW112840   2.202   5.738   6.571 -0.9490  0.2432  0.9742
 2275SOL    HW212841   2.276   5.650   6.454 -1.5324  0.7579  0.2031
 2276SOL     OW12842   1.701   2.106   6.143 -0.0092 -0.5122  0.3282
 2276SOL    HW112843   1.770   2.048   6.101  0.2570 -1.1135  1.5640
 2276SOL    HW212844   1.610   2.071   6.121  0.0665  0.0935 -1.0313
 2277SOL     OW12845   3.294   0.340   5.556  0.4323  0.5232 -0.3625
 2277SOL    HW112846   3.306   0.412   5.489 -0.2079  0.4266 -0.5912
 2277SOL    HW212847   3.200   0.306   5.552  0.8501 -0.6621 -0.5964
 2278SOL     OW12848   2.550   5.050   4.280  0.2479  0.1433 -0.0227
 2278SOL    HW112849   2.483   5.110   4.235  0.7613  0.7609  0.0228
 2278SOL    HW212850   2.571   4.973   4.221 -0.1335  0.2052 -0.2460
 2279SOL     OW12851   4.433   1.849   0.732 -0.4739 -0.4048  0.5045
 2279SOL    HW112852   4.464   1.771   0.786  0.8460 -0.6219 -0.5089
 2279SOL    HW212853   4.391   1.817   0.647  0.5598 -0.0371 -0.1687
 2280SOL     OW12854   1.276   2.179   1.820 -0.3135  0.1444  0.3436
 2280SOL    HW112855   1.355   2.232   1.852 -0.6078 -0.1913  1.6531
 2280SOL    HW212856   1.194   2.235   1.825 -0.6770 -0.4721  2.0121
 2281SOL     OW12857   2.515   1.975   1.696  0.0822  0.5011 -0.5977
 2281SOL    HW112858   2.462   2.056   1.671 -0.3735  0.1305 -0.8498
 2281SOL    HW212859   2.459   1.915   1.754  1.4040  1.7698  2.1670
 2282SOL     OW12860   0.937   0.101   6.536  0.0427  0.0555 -0.6888
 2282SOL    HW112861   0.936   0.024   6.471 -0.2405 -1.0017  0.5270
 2282SOL    HW212862   0.965   0.184   6.488 -0.6977 -0.5694 -2.2902
 2283SOL     OW12863   0.241   3.799   6.047 -0.6340 -0.0704  0.2883
 2283SOL    HW112864   0.200   3.888   6.024 -0.6954 -0.5300 -1.5601
 2283SOL    HW212865   0.168   3.735   6.073 -0.9696 -0.4001 -1.3309
 2284SOL     OW12866   4.470   5.653   6.481 -0.3864  0.2981 -0.0635
 2284SOL    HW112867   4.510   5.730   6.532 -0.5129  0.1870  0.2038
 2284SOL    HW212868   4.434   5.687   6.394 -1.1897  0.6958  0.4105
 2285SOL     OW12869   5.085   4.475   0.263  1.0455  0.2773 -0.4513
 2285SOL    HW112870   5.004   4.527   0.236  0.3890  1.1442  2.7749
 2285SOL    HW212871   5.166   4.535   0.260  0.7911  0.6824  0.4427
 2286SOL     OW12872   5.376   1.362   6.682 -0.0241  0.6029 -0.2833
 2286SOL    HW112873   5.393   1.304   6.761  1.0661 -0.1303 -1.0206
 2286SOL    HW212874   5.440   1.439   6.683  0.1958  0.4277 -0.6006
 2287SOL     OW12875   4.392   2.927   0.439  0.0061 -0.3682 -0.2905
 2287SOL    HW112876   4.434   3.007   0.397  1.4598 -1.8862 -1.8992
 2287SOL    HW212877   4.453   2.848   0.429 -1.1799 -1.6030  1.6214
 2288SOL     OW12878   5.460   2.198   0.119  0.1950  0.1436 -0.6791
 2288SOL    HW112879   5.438   2.149   0.203 -0.1343 -0.4160 -1.0838
 2288SOL    HW212880   5.513   2.280   0.141  0.6166 -0.3076  0.0273
 2289SOL     OW12881   1.037   2.536   0.019  0.1687  0.8148  0.2195
 2289SOL    HW112882   0.991   2.464   0.072 -1.4575  2.5680  1.3225
 2289SOL    HW212883   1.034   2.512  -0.078  1.3257 -1.4519  0.6651
 2290SOL     OW12884   2.501   4.157   0.436  0.3276 -0.0311 -0.4867
 2290SOL    HW112885   2.555   4.215   0.497 -0.1564 -1.8567  1.8368
 2290SOL    HW212886   2.439   4.214   0.382  0.6300  1.6634  0.8735
 2291SOL     OW12887   3.522   5.159   0.400 -0.3679 -0.0081  1.0839
 2291SOL    HW112888   3.590   5.205   0.343 -0.6877 -0.7038  0.1281
 2291SOL    HW212889   3.564   5.135   0.488  0.9425 -1.2492  0.1782
 2292SOL     OW12890   6.060   1.077   0.742 -0.4000 -0.3294 -0.0089
 2292SOL    HW112891   6.053   1.036   0.651  1.9459 -1.6128  0.3103
 2292SOL    HW212892   6.028   1.171   0.739 -0.4070 -0.3617 -2.1495
 2293SOL     OW12893   2.570   5.774   0.891  0.0107  0.8655 -0.2684
 2293SOL    HW112894   2.561   5.677   0.916  0.6714  1.2247  1.5275
 2293SOL    HW212895   2.580   5.782   0.792  1.0917 -1.0027 -0.3575
 2294SOL     OW12896   3.383   5.989   5.884 -1.1031  0.5766  0.3962
 2294SOL    HW112897   3.369   6.057   5.813  1.7292  0.7039 -0.1411
 2294SOL    HW212898   3.377   6.032   5.974 -3.4695  0.6499  0.2588
 2295SOL     OW12899   2.292   2.677   0.768 -0.4325  0.0864 -0.1842
 2295SOL    HW112900   2.341   2.736   0.704  0.0387  0.4369  0.4929
 2295SOL    HW212901   2.194   2.701   0.767 -0.1085  1.6074  0.8342
 2296SOL     OW12902   2.880   4.196   0.937 -0.4370 -0.4001 -0.0155
 2296SOL    HW112903   2.933   4.131   0.991  0.7831  0.2332 -0.4049
 2296SOL    HW212904   2.904   4.187   0.841  0.9526  1.6346  0.0702
 2297SOL     OW12905   5.489   6.091   6.239  0.1789  0.1732  0.4041
 2297SOL    HW112906   5.538   6.030   6.176 -2.2262 -1.6472  0.1355
 2297SOL    HW212907   5.391   6.077   6.229 -0.3885  2.2459  2.2762
 2298SOL     OW12908   4.791   5.646   1.942 -0.0468  0.3805 -0.2909
 2298SOL    HW112909   4.807   5.601   2.030 -3.3092  2.1492  1.3796
 2298SOL    HW212910   4.783   5.577   1.870 -0.2828 -1.3412  1.3195
 2299SOL     OW12911   3.008   5.566   6.251 -0.2279 -0.1960 -0.2908
 2299SOL    HW112912   2.959   5.480   6.235  0.9257 -0.6050 -1.9160
 2299SOL    HW212913   3.093   5.566   6.198 -1.3415  2.9329 -2.3903
 2300SOL     OW12914   4.439   2.093   0.010  0.1912  0.5831  0.4929
 2300SOL    HW112915   4.412   2.179   0.051  0.0419  1.3775 -1.1963
 2300SOL    HW212916   4.505   2.110  -0.063  0.0269 -0.7085  0.0107
 2301SOL     OW12917   4.709   2.957   5.440  0.0571  0.1255 -0.9497
 2301SOL    HW112918   4.613   2.935   5.459  0.8002 -2.8904 -0.1439
 2301SOL    HW212919   4.716   2.997   5.348 -2.0058  1.2013 -0.7122
 2302SOL     OW12920   3.885   5.620   0.640  0.3800  0.2763  0.3634
 2302SOL    HW112921   3.868   5.593   0.734 -0.0692 -2.2910 -0.3690
 2302SOL    HW212922   3.833   5.560   0.578  1.9049  0.8400 -1.5674
 2303SOL     OW12923   2.229   4.861   0.321  0.1702 -0.8002 -0.3514
 2303SOL    HW112924   2.254   4.785   0.381 -2.5631  0.1294  2.2306
 2303SOL    HW212925   2.298   4.933   0.327  0.1346 -0.8596  1.5918
 2304SOL     OW12926   1.674   5.893   6.493  0.1097 -0.6402  0.4297
 2304SOL    HW112927   1.592   5.948   6.479  1.5473  0.9868 -2.7646
 2304SOL    HW212928   1.650   5.796   6.492 -1.9589 -0.2259  1.8489
 2305SOL     OW12929   2.438   0.810   1.347 -0.1340  0.2414 -0.0377
 2305SOL    HW112930   2.360   0.808   1.409 -2.7355  0.0123 -3.0802
 2305SOL    HW212931   2.479   0.719   1.342  0.1009  0.2558  1.2392
 2306SOL     OW12932   3.992   1.364   0.712  0.0314 -0.0670  0.2199
 2306SOL    HW112933   4.088   1.359   0.742  0.6960  0.4935 -1.6571
 2306SOL    HW212934   3.956   1.455   0.730  1.4378  1.3508 -3.2367
 2307SOL     OW12935   4.670   3.760   1.171  0.8451 -0.3603  0.1315
 2307SOL    HW112936   4.732   3.826   1.214  1.2428 -1.4504  1.2710
 2307SOL    HW212937   4.669   3.675   1.224 -1.6866 -0.3625  0.2305
 2308SOL     OW12938   6.167   3.579   6.323  0.2133  0.5821 -0.1402
 2308SOL    HW112939   6.075   3.601   6.291 -0.3986 -1.4164  0.1162
 2308SOL    HW212940   6.163   3.547   6.417  1.4296  2.1152  0.4725
 2309SOL     OW12941   1.347   0.468   5.953  0.1813 -0.1281 -0.4192
 2309SOL    HW112942   1.385   0.450   5.862  2.6996 -2.9844  1.0054
 2309SOL    HW212943   1.250   0.445   5.954 -0.5777  2.4550 -2.9311
 2310SOL     OW12944   0.575   2.648   6.487  0.7185 -0.2292 -0.2471
 2310SOL    HW112945   0.512   2.604   6.552  0.3204 -1.0739 -1.1687
 2310SOL    HW212946   0.610   2.732   6.527 -1.0968  0.3402  0.2561
 2311SOL     OW12947   2.434   5.632   5.607 -0.0354  0.1017  0.0141
 2311SOL    HW112948   2.419   5.547   5.657  1.1682 -0.1059  0.0568
 2311SOL    HW212949   2.523   5.670   5.632 -0.3943  1.1743 -0.2987
 2312SOL     OW12950   6.106   6.013   5.921 -1.1857 -0.2200 -0.1216
 2312SOL    HW112951   6.133   6.103   5.886 -1.1275 -0.5692 -1.0109
 2312SOL    HW212952   6.182   5.949   5.909 -0.8298 -0.1442  1.5127
 2313SOL     OW12953   2.462   6.231   5.583  0.0532 -0.4644 -0.7999
 2313SOL    HW112954   2.424   6.308   5.634 -2.4747 -2.6826  0.9694
 2313SOL    HW212955   2.476   6.257   5.488  0.0048  2.3303 -0.1257
 2314SOL     OW12956   5.424   3.685   0.288  0.6471 -0.4125 -0.4384
 2314SOL    HW112957   5.333   3.724   0.297  0.7118 -0.4445  0.5338
 2314SOL    HW212958   5.429   3.599   0.339  1.2083 -0.4263 -0.5067
 2315SOL     OW12959   1.280   0.915   0.672 -0.0187  0.0150  0.0179
 2315SOL    HW112960   1.346   0.841   0.662 -0.4372 -0.3275 -0.2338
 2315SOL    HW212961   1.221   0.919   0.591  0.5281  1.1468 -0.3488
 2316SOL     OW12962   1.506   5.642   0.133  0.5868 -0.2552 -0.3744
 2316SOL    HW112963   1.436   5.618   0.201  1.3150 -1.4360 -0.0058
 2316SOL    HW212964   1.476   5.721   0.081  0.5268  1.4993  2.1460
 2317SOL     OW12965   6.093   4.466   1.032 -0.2864 -0.3452 -0.4189
 2317SOL    HW112966   6.146   4.412   0.968  1.3212 -1.7467  1.9519
 2317SOL    HW212967   5.996   4.466   1.005  0.2957 -1.0702 -2.6254
 2318SOL     OW12968   6.130   4.875   4.858 -0.1409  0.4869  0.2224
 2318SOL    HW112969   6.199   4.944   4.837  0.6499  0.2213  1.7439
 2318SOL    HW212970   6.168   4.784   4.843 -0.1097  0.3360  1.1073
 2319SOL     OW12971   4.879   4.475   6.581 -0.4050 -0.5657  0.0399
 2319SOL    HW112972   4.895   4.376   6.583 -1.1952 -0.6925  1.1844
 2319SOL    HW212973   4.966   4.523   6.570  0.1990 -1.3572  1.1506
 2320SOL     OW12974   1.762   6.259   6.338  0.0790  0.0396  0.4810
 2320SOL    HW112975   1.669   6.280   6.305  0.2447  0.4462  0.2651
 2320SOL    HW212976   1.782   6.314   6.419  0.9609  1.6669 -0.7877
 2321SOL     OW12977   0.840   0.592   6.284  0.2620 -0.4182 -0.4139
 2321SOL    HW112978   0.743   0.599   6.263 -0.3356 -1.6736  1.6906
 2321SOL    HW212979   0.864   0.658   6.356  0.7721 -0.7007 -0.3217
 2322SOL     OW12980   4.459   0.175   5.841  0.5415  0.2342 -0.2521
 2322SOL    HW112981   4.462   0.116   5.760  1.9018 -0.9931  0.6540
 2322SOL    HW212982   4.478   0.121   5.922  0.3605  1.6743  0.7816
 2323SOL     OW12983   1.112   5.648   5.315 -0.9749  0.2507  0.2474
 2323SOL    HW112984   1.029   5.632   5.261 -0.4744  1.6450 -1.0130
 2323SOL    HW212985   1.188   5.598   5.274 -0.8439  0.3591  0.3569
 2324SOL     OW12986   5.410   2.656   5.773 -0.3794  0.1258  0.3296
 2324SOL    HW112987   5.471   2.675   5.695 -0.1226  2.5847  1.0333
 2324SOL    HW212988   5.336   2.723   5.774 -1.5654 -1.1514  1.0564
 2325SOL     OW12989   1.588   5.609   5.511  0.0467  0.2744  0.2850
 2325SOL    HW112990   1.675   5.561   5.497  0.2816  0.9168 -0.5249
 2325SOL    HW212991   1.564   5.659   5.428 -1.6020 -0.6833  0.1305
 2326SOL     OW12992   4.499   0.268   5.558  1.1155 -0.1744  0.9705
 2326SOL    HW112993   4.416   0.305   5.516  0.4773 -0.2879  2.0884
 2326SOL    HW212994   4.537   0.197   5.499  1.6073  1.2865 -0.5563
 2327SOL     OW12995   3.256   3.554   4.913  0.3711  0.4692 -0.2627
 2327SOL    HW112996   3.314   3.618   4.965  1.7396 -0.5016 -0.5456
 2327SOL    HW212997   3.311   3.477   4.882 -1.3924 -1.2763  0.7272
 2328SOL     OW12998   1.299   0.188   0.459 -0.7053 -0.3686 -0.3353
 2328SOL    HW112999   1.323   0.151   0.369 -1.5234 -0.7734 -0.3973
 2328SOL    HW213000   1.330   0.125   0.530 -2.9590 -1.7449 -0.4737
 2329SOL     OW13001   5.080   0.135   5.927 -0.4992 -0.3901 -0.2100
 2329SOL    HW113002   4.987   0.115   5.898 -0.1861 -0.5091 -1.1998
 2329SOL    HW213003   5.141   0.061   5.897 -0.2226 -0.7899  1.2617
 2330SOL     OW13004   4.314   2.340   6.372 -0.2165 -0.1528  0.0062
 2330SOL    HW113005   4.227   2.388   6.360 -0.2059 -0.1178  0.0665
 2330SOL    HW213006   4.351   2.362   6.463  0.5671  0.9672 -0.5580
 2331SOL     OW13007   5.180   1.046   0.235 -0.1411  0.2148 -0.1407
 2331SOL    HW113008   5.241   0.970   0.214  0.0992 -0.2483  1.9813
 2331SOL    HW213009   5.093   1.010   0.269 -1.3395  0.8774 -2.3277
 2332SOL     OW13010   3.608   2.191   0.511 -0.4927  0.5068 -0.4805
 2332SOL    HW113011   3.527   2.215   0.457  0.5791  0.9996 -1.9177
 2332SOL    HW213012   3.685   2.247   0.482 -0.2102  1.9419  2.6845
 2333SOL     OW13013   0.169   3.527   6.324 -0.5005  0.3455  0.4467
 2333SOL    HW113014   0.184   3.510   6.227  0.3154  1.0029  0.4479
 2333SOL    HW213015   0.072   3.547   6.340 -0.6039  0.4165 -0.2611
 2334SOL     OW13016   4.334   5.810   0.993 -0.2773 -0.7538 -0.0889
 2334SOL    HW113017   4.255   5.858   1.028  0.7026  0.7974  0.0793
 2334SOL    HW213018   4.415   5.868   1.001  0.3794 -1.0898 -2.9942
 2335SOL     OW13019   1.175   5.973   5.658 -0.2203 -0.3033 -0.4158
 2335SOL    HW113020   1.255   6.029   5.678  0.0136 -0.7694 -0.0102
 2335SOL    HW213021   1.101   5.997   5.721 -0.1208 -0.4507 -0.2431
 2336SOL     OW13022   5.893   2.127   0.198  0.6343  0.0639 -0.5188
 2336SOL    HW113023   5.837   2.110   0.117 -0.4201  0.5790  0.0753
 2336SOL    HW213024   5.940   2.043   0.225 -0.2529 -0.5123 -0.7403
 2337SOL     OW13025   2.349   0.077   1.094  0.6232 -0.4231 -0.3338
 2337SOL    HW113026   2.426   0.028   1.135  1.3601  2.2597  1.7400
 2337SOL    HW213027   2.266   0.021   1.102  1.2654 -1.1142  2.5585
 2338SOL     OW13028   6.001   1.753   6.445  0.4979  0.3474  0.0349
 2338SOL    HW113029   5.986   1.678   6.509 -0.7774  1.5342  1.1773
 2338SOL    HW213030   6.099   1.771   6.437  0.7868 -1.0394  0.1777
 2339SOL     OW13031   1.919   1.004   4.807 -0.1175  0.1898 -0.1180
 2339SOL    HW113032   1.987   1.077   4.818 -0.4805  0.5937 -0.5026
 2339SOL    HW213033   1.941   0.951   4.725  0.4682 -0.4997  0.4647
 2340SOL     OW13034   5.685   3.156   0.631 -0.2490  0.5969 -0.2417
 2340SOL    HW113035   5.733   3.126   0.714 -1.6054 -0.6080  0.1444
 2340SOL    HW213036   5.752   3.189   0.565  0.9413  0.7554  0.9900
 2341SOL     OW13037   4.050   0.026   0.132  0.2596  0.5021  0.3960
 2341SOL    HW113038   4.018   0.118   0.111 -0.1269  0.2848 -0.0129
 2341SOL    HW213039   4.063   0.016   0.230 -0.8421  0.6450  0.5764
 2342SOL     OW13040   3.238   4.944   0.775 -0.4723 -0.8677 -0.2442
 2342SOL    HW113041   3.173   4.948   0.851  0.2880 -1.2514  0.4390
 2342SOL    HW213042   3.320   4.894   0.804  0.6735  0.6893 -0.6943
 2343SOL     OW13043   5.472   2.304   6.305  0.0433 -0.3562 -0.5321
 2343SOL    HW113044   5.448   2.228   6.365 -0.7773 -0.3799 -0.8699
 2343SOL    HW213045   5.508   2.380   6.359  2.7022 -1.6577 -0.3732
 2344SOL     OW13046   1.739   0.656   4.244 -0.0922  0.3482  0.5160
 2344SOL    HW113047   1.723   0.607   4.330 -1.9689  2.3031  1.3877
 2344SOL    HW213048   1.671   0.628   4.176  1.2712 -1.0550 -0.3279
 2345SOL     OW13049   4.262   5.000   1.216  0.2353 -0.1463 -0.2840
 2345SOL    HW113050   4.270   4.977   1.313  0.4197 -0.8204 -0.4560
 2345SOL    HW213051   4.167   5.023   1.196  0.2367  0.2211  0.0994
 2346SOL     OW13052   5.761   5.123   0.570  0.5326  0.2949  0.3682
 2346SOL    HW113053   5.846   5.158   0.531 -0.1390  1.8418  0.2144
 2346SOL    HW213054   5.779   5.035   0.615  1.8588 -0.2454 -1.0936
 2347SOL     OW13055   3.233   5.485   1.538 -0.2426 -0.1281 -0.1506
 2347SOL    HW113056   3.225   5.426   1.458  0.0673 -1.3557  0.6847
 2347SOL    HW213057   3.233   5.429   1.621 -0.4910  1.1023  0.7170
 2348SOL     OW13058   4.228   1.119   6.571 -0.2887  0.6017 -0.7282
 2348SOL    HW113059   4.170   1.149   6.646 -0.7976  0.1639 -0.9401
 2348SOL    HW213060   4.187   1.039   6.527  1.5855 -1.1622  0.5407
 2349SOL     OW13061   2.409   2.185   5.072  0.3069  1.0398  0.8611
 2349SOL    HW113062   2.453   2.132   5.145  0.2731 -0.9360 -0.4877
 2349SOL    HW213063   2.443   2.279   5.074  1.3254  0.6789  2.5485
 2350SOL     OW13064   0.778   0.114   1.689 -0.0065  0.0145 -0.0244
 2350SOL    HW113065   0.795   0.199   1.640 -2.3160  0.2446 -0.5780
 2350SOL    HW213066   0.708   0.129   1.759  0.4315 -1.1653  0.6880
 2351SOL     OW13067   6.085   5.887   0.698 -0.2210  0.0816 -0.6488
 2351SOL    HW113068   6.172   5.903   0.745  0.4895 -0.2613 -1.7986
 2351SOL    HW213069   6.055   5.793   0.715 -0.6469  0.3605  0.1758
 2352SOL     OW13070   2.610   3.748   1.124 -0.8957 -0.2820 -0.2566
 2352SOL    HW113071   2.692   3.785   1.168  0.8188 -2.3311 -1.5686
 2352SOL    HW213072   2.538   3.818   1.124  1.0856  1.8650  0.2332
 2353SOL     OW13073   0.654   5.066   6.335  0.0211 -0.2242 -0.2686
 2353SOL    HW113074   0.726   5.044   6.401 -1.5762  1.1601  2.1010
 2353SOL    HW213075   0.631   5.163   6.343 -0.6521 -0.1424 -2.5359
 2354SOL     OW13076   1.915   5.258   1.283 -0.8611  0.0661 -0.0394
 2354SOL    HW113077   1.965   5.192   1.227 -2.0822 -0.2558 -0.7967
 2354SOL    HW213078   1.962   5.347   1.280  1.1257 -0.8757  1.4740
 2355SOL     OW13079   3.308   6.102   6.640  0.1028 -0.0435 -0.0790
 2355SOL    HW113080   3.406   6.088   6.653 -0.2292 -1.9242  0.7061
 2355SOL    HW213081   3.258   6.059   6.715 -1.3451  0.4770 -0.7180
 2356SOL     OW13082   5.336   1.667   0.949 -0.1745  0.3581  0.1080
 2356SOL    HW113083   5.368   1.672   1.044  2.1554  0.1333 -0.6183
 2356SOL    HW213084   5.344   1.574   0.915 -1.2824  0.3764 -0.2407
 2357SOL     OW13085   2.914   0.152   0.604  0.3008 -0.1111  0.1216
 2357SOL    HW113086   2.926   0.055   0.581 -0.3011  0.3469 -2.5049
 2357SOL    HW213087   2.860   0.196   0.532  2.1621  2.5732  0.2363
 2358SOL     OW13088   5.275   4.311   5.890  0.0903  0.3221 -0.1441
 2358SOL    HW113089   5.336   4.268   5.956  0.8577  1.8810  0.2115
 2358SOL    HW213090   5.327   4.375   5.833 -0.6878 -0.4470 -1.8031
 2359SOL     OW13091   4.118   1.132   0.273  0.9593  0.1227  0.0734
 2359SOL    HW113092   4.204   1.088   0.248  0.4065 -0.6334 -0.5295
 2359SOL    HW213093   4.095   1.109   0.368  0.4440 -1.2916 -0.3786
 2360SOL     OW13094   5.721   4.472   6.521 -0.1212 -0.1294  0.2191
 2360SOL    HW113095   5.640   4.481   6.462  0.5321 -1.3956 -0.9356
 2360SOL    HW213096   5.724   4.378   6.557 -0.1537  0.4441  1.7732
 2361SOL     OW13097   4.614   5.933   6.135  0.1757 -0.2569  0.0183
 2361SOL    HW113098   4.669   5.966   6.211  1.1584 -0.5627 -0.5366
 2361SOL    HW213099   4.674   5.903   6.061 -0.7522 -0.2763 -0.7493
 2362SOL     OW13100   2.360   3.500   5.337 -0.1325  0.0860  0.5353
 2362SOL    HW113101   2.313   3.558   5.403  0.3643  1.2673 -0.1287
 2362SOL    HW213102   2.299   3.481   5.260  0.3170  1.2828 -0.1323
 2363SOL     OW13103   2.480   2.629   0.400 -0.2841  0.4838  0.4408
 2363SOL    HW113104   2.549   2.577   0.349  1.6592  0.1909  3.1798
 2363SOL    HW213105   2.416   2.670   0.335  0.9678 -1.2671 -2.1072
 2364SOL     OW13106   0.483   5.151   4.639  0.0115 -0.1041  1.1892
 2364SOL    HW113107   0.414   5.080   4.645 -2.6647  2.2469  0.5079
 2364SOL    HW213108   0.522   5.153   4.547 -2.7033  1.5744 -0.0462
 2365SOL     OW13109   4.973   5.267   6.172  0.6591  0.3097 -0.1578
 2365SOL    HW113110   5.000   5.172   6.187  0.0419 -0.0652 -1.3182
 2365SOL    HW213111   4.972   5.287   6.074 -2.8402  0.3744 -0.2525
 2366SOL     OW13112   3.785   3.556   5.487 -0.4664 -0.4116  0.4685
 2366SOL    HW113113   3.869   3.607   5.469  0.6066 -2.3349 -0.1885
 2366SOL    HW213114   3.807   3.462   5.511 -2.4567 -1.4631 -1.4743
 2367SOL     OW13115   4.455   4.499   5.996 -0.3515  0.2331 -0.6085
 2367SOL    HW113116   4.546   4.461   6.012 -0.1539  0.1061 -1.9387
 2367SOL    HW213117   4.446   4.585   6.046  1.3846  1.4874 -2.3246
 2368SOL     OW13118   0.774   2.927   5.931 -0.5361 -0.4048 -0.0759
 2368SOL    HW113119   0.805   2.982   6.009  1.0813 -0.2501 -0.7751
 2368SOL    HW213120   0.781   2.830   5.954  0.4604 -0.3722 -0.1811
 2369SOL     OW13121   3.937   0.235   0.839 -0.0579 -0.5586  0.9355
 2369SOL    HW113122   4.003   0.283   0.896 -0.2129 -0.5105  1.0750
 2369SOL    HW213123   3.894   0.161   0.892  2.1628 -2.7077 -0.0270
 2370SOL     OW13124   5.635   2.970   6.511  0.2074  0.1418  0.2043
 2370SOL    HW113125   5.723   3.018   6.514 -0.7831  2.0901 -0.1621
 2370SOL    HW213126   5.567   3.028   6.466 -1.1306 -1.5905 -0.1326
 2371SOL     OW13127   2.179   6.083   6.497  0.5688 -0.1791  0.4463
 2371SOL    HW113128   2.094   6.035   6.475 -2.9952  5.0844  0.8373
 2371SOL    HW213129   2.203   6.144   6.422  2.9149 -0.0918  1.2000
 2372SOL     OW13130   2.472   4.069   5.594 -0.0329 -0.8632  0.4995
 2372SOL    HW113131   2.397   4.131   5.568  0.2095  0.7265  3.1549
 2372SOL    HW213132   2.434   3.981   5.622 -0.4122 -1.9679 -3.0529
 2373SOL     OW13133   0.942   0.372   6.450  0.4968 -0.1165 -0.2508
 2373SOL    HW113134   0.860   0.374   6.507  0.2095 -0.7678 -0.6277
 2373SOL    HW213135   0.938   0.444   6.382  0.9954  0.8809  0.7506
 2374SOL     OW13136   2.498   3.140   0.064 -0.0276  0.4860 -0.3260
 2374SOL    HW113137   2.505   3.050   0.020 -0.6478  0.2905 -0.0379
 2374SOL    HW213138   2.405   3.152   0.099  0.3998  0.7241  0.7532
 2375SOL     OW13139   3.064   1.794   5.704 -0.2034  0.3159 -0.2829
 2375SOL    HW113140   3.114   1.712   5.731 -1.1050 -0.8213 -1.8652
 2375SOL    HW213141   2.977   1.798   5.754 -0.0550  0.4465 -0.0325
 2376SOL     OW13142   3.718   1.256   1.155 -0.2372  0.4157 -0.6573
 2376SOL    HW113143   3.720   1.156   1.161  1.2437  0.4656  0.3155
 2376SOL    HW213144   3.800   1.288   1.110 -0.6725  1.2129 -0.8990
 2377SOL     OW13145   5.514   1.841   5.577  0.8294  0.1309  0.0920
 2377SOL    HW113146   5.465   1.832   5.490  2.7774 -1.6872 -0.9183
 2377SOL    HW213147   5.452   1.822   5.653 -0.7326  0.9977 -0.9175
 2378SOL     OW13148   2.698   2.854   5.780 -0.4579 -0.1467 -0.9749
 2378SOL    HW113149   2.706   2.824   5.875  1.3246  1.2194 -0.6515
 2378SOL    HW213150   2.703   2.774   5.720  1.4374 -0.8175 -0.0189
 2379SOL     OW13151   2.664   1.056   5.783  0.0378  0.3436 -0.0523
 2379SOL    HW113152   2.685   1.148   5.817 -0.0400  0.0040  0.9524
 2379SOL    HW213153   2.714   0.988   5.836  1.0417 -0.1547 -1.5801
 2380SOL     OW13154   2.105   4.197   6.252  0.3092 -0.1508 -0.7083
 2380SOL    HW113155   2.074   4.220   6.345 -1.2401  0.2787 -1.3028
 2380SOL    HW213156   2.194   4.240   6.236 -0.0867  1.0186  0.0767
 2381SOL     OW13157   6.108   0.547   6.652  0.0129  0.0836 -0.1681
 2381SOL    HW113158   6.091   0.450   6.632  0.9437 -0.5665  1.9637
 2381SOL    HW213159   6.154   0.589   6.573  0.0217 -1.3089 -0.9425
 2382SOL     OW13160   3.963   2.152   6.043  0.5403  0.2095  0.4657
 2382SOL    HW113161   3.879   2.157   6.096  0.5515 -0.1596  0.5196
 2382SOL    HW213162   3.977   2.058   6.011  0.9582  0.2558  0.5051
 2383SOL     OW13163   3.008   6.173   5.351  0.1182 -0.3611  0.2478
 2383SOL    HW113164   2.920   6.212   5.378  0.3996  0.3168  0.2082
 2383SOL    HW213165   2.993   6.096   5.290 -0.4466 -0.1509  0.1181
 2384SOL     OW13166   5.093   4.582   0.671 -0.0156  0.3090 -0.2781
 2384SOL    HW113167   5.008   4.592   0.620 -0.1845 -0.3669 -0.1325
 2384SOL    HW213168   5.155   4.521   0.622 -0.1612 -0.3110  0.2850
 2385SOL     OW13169   4.894   3.515   5.961 -0.1165 -0.1842 -0.3575
 2385SOL    HW113170   4.932   3.425   5.941 -1.3372 -0.6714 -0.6147
 2385SOL    HW213171   4.932   3.582   5.897 -0.3281 -0.8190 -1.1724
 2386SOL     OW13172   1.803   4.645   6.020 -0.4237 -0.5933  0.0409
 2386SOL    HW113173   1.802   4.740   6.051  2.6951  0.1274 -1.6484
 2386SOL    HW213174   1.746   4.635   5.939 -3.3399 -1.0276  1.9755
 2387SOL     OW13175   2.007   2.692   0.808  0.1978  0.1407  0.3796
 2387SOL    HW113176   2.007   2.791   0.823 -0.5023  0.0157  1.2569
 2387SOL    HW213177   1.917   2.655   0.832  0.5430 -0.7546  0.3156
 2388SOL     OW13178   5.196   3.913   0.311 -1.1825  0.3096 -0.4495
 2388SOL    HW113179   5.229   3.955   0.227  0.7578 -2.1091 -1.0263
 2388SOL    HW213180   5.183   3.983   0.381  1.9506  1.8848 -1.2769
 2389SOL     OW13181   5.375   5.828   1.234 -0.2902 -0.4799  0.4798
 2389SOL    HW113182   5.417   5.833   1.324 -0.2251 -0.1852  0.4329
 2389SOL    HW213183   5.280   5.796   1.244 -0.2322 -0.6065  0.6355
 2390SOL     OW13184   5.904   6.123   0.682  0.1138  0.2284  0.1218
 2390SOL    HW113185   5.972   6.055   0.713 -0.7064  0.2590  2.1434
 2390SOL    HW213186   5.946   6.214   0.684  0.3984  0.1007  0.1076
 2391SOL     OW13187   0.581   3.336   6.571 -0.8339 -0.0795  0.3814
 2391SOL    HW113188   0.621   3.292   6.652 -1.2388  0.7462  1.0426
 2391SOL    HW213189   0.581   3.271   6.495 -0.3618 -0.8427  1.0139
 2392SOL     OW13190   2.358   3.604   6.009 -0.2836 -1.0296 -0.2572
 2392SOL    HW113191   2.364   3.504   6.001 -0.7249 -1.0263 -0.7200
 2392SOL    HW213192   2.397   3.634   6.096 -1.2567 -1.7135  0.4265
 2393SOL     OW13193   4.514   1.647   5.839 -0.1777  0.0874 -0.3806
 2393SOL    HW113194   4.464   1.661   5.754 -0.1601  2.3380 -0.0568
 2393SOL    HW213195   4.451   1.649   5.917 -0.1419 -1.6002 -0.2597
 2394SOL     OW13196   2.794   3.323   2.009  0.6036 -0.9125 -0.4801
 2394SOL    HW113197   2.697   3.303   2.000  0.4145  0.2331 -1.1951
 2394SOL    HW213198   2.848   3.243   1.982 -0.1255 -1.8801  0.8303
 2395SOL     OW13199   3.643   1.362   6.526  0.5021 -0.6595  0.1394
 2395SOL    HW113200   3.561   1.363   6.469  0.9155 -1.1619 -0.4830
 2395SOL    HW213201   3.685   1.453   6.525 -0.6014 -0.1189  1.2993
 2396SOL     OW13202   3.282   3.343   0.717 -0.0820 -0.3317  0.0516
 2396SOL    HW113203   3.323   3.289   0.643 -3.1245 -1.5917 -0.8702
 2396SOL    HW213204   3.283   3.289   0.801 -0.5054 -0.6617 -0.1522
 2397SOL     OW13205   3.209   0.018   5.437  0.2832 -0.5821 -0.1473
 2397SOL    HW113206   3.152  -0.053   5.396  0.5435 -1.0197  0.2442
 2397SOL    HW213207   3.275  -0.023   5.499  1.4862 -0.1662 -1.0968
 2398SOL     OW13208   5.102   2.263   5.505  0.3560  0.9713  0.1612
 2398SOL    HW113209   5.163   2.184   5.505  2.3488  2.4303 -0.0543
 2398SOL    HW213210   5.105   2.308   5.416 -2.0603  0.3981 -0.2816
 2399SOL     OW13211   2.003   3.274   5.532  0.0598  0.2862  0.5589
 2399SOL    HW113212   1.989   3.345   5.463  1.0102  0.8858  0.9631
 2399SOL    HW213213   2.028   3.188   5.488  1.4217  0.8604  0.1751
 2400SOL     OW13214   2.443   0.482   5.194 -0.2612  0.0230  0.2730
 2400SOL    HW113215   2.425   0.580   5.182 -0.2106  0.0979  0.8037
 2400SOL    HW213216   2.357   0.432   5.190 -0.0747 -0.2436 -2.8746
 2401SOL     OW13217   1.135   4.740   4.692  0.2702  0.3163  0.9068
 2401SOL    HW113218   1.102   4.795   4.616  2.3827  0.6449  0.1420
 2401SOL    HW213219   1.081   4.656   4.700 -1.3420  1.2778  0.4440
 2402SOL     OW13220   3.282   0.385   0.820  0.1698 -0.6586 -0.7018
 2402SOL    HW113221   3.372   0.420   0.793 -0.2663  0.1735 -1.1254
 2402SOL    HW213222   3.246   0.327   0.746 -0.4216  0.4886 -1.3283
 2403SOL     OW13223   5.055   3.732   0.883 -0.0065 -0.2453  0.8710
 2403SOL    HW113224   5.058   3.802   0.812 -0.3973 -0.0227  1.0675
 2403SOL    HW213225   4.985   3.756   0.951  0.1628 -0.5984  1.1783
 2404SOL     OW13226   4.112   1.001   5.915  0.4397  0.0814  0.2314
 2404SOL    HW113227   4.180   0.995   5.841  2.4224 -1.3006  2.0277
 2404SOL    HW213228   4.084   0.908   5.941 -0.2522  0.5476  1.1909
 2405SOL     OW13229   0.478   4.152   6.126 -0.6563  0.0548 -0.0583
 2405SOL    HW113230   0.536   4.217   6.175 -1.1220 -0.1077  0.7191
 2405SOL    HW213231   0.462   4.186   6.033 -0.4727  0.7910  0.1704
 2406SOL     OW13232   1.700   5.315   1.136  0.6002 -0.0194 -0.5515
 2406SOL    HW113233   1.628   5.299   1.204  0.7501 -0.2500 -0.4453
 2406SOL    HW213234   1.789   5.291   1.176  0.6365 -0.6224 -0.9905
 2407SOL     OW13235   3.151   3.240   5.346 -0.0503 -0.0459  0.6503
 2407SOL    HW113236   3.189   3.148   5.355  0.0705 -0.0803 -0.1714
 2407SOL    HW213237   3.094   3.260   5.426 -0.5695 -1.0741  0.5563
 2408SOL     OW13238   4.290   0.477   0.309 -0.0949  0.1646  0.2708
 2408SOL    HW113239   4.260   0.392   0.354 -2.1329  0.9310  0.4851
 2408SOL    HW213240   4.352   0.526   0.369  0.3059 -0.6897  0.5722
 2409SOL     OW13241   0.357   4.546   6.022  0.3043  0.3891 -0.0010
 2409SOL    HW113242   0.428   4.543   6.092 -0.1328 -0.8822  0.4293
 2409SOL    HW213243   0.288   4.614   6.047  0.0942 -0.1298  0.9010
 2410SOL     OW13244   2.735   1.435   5.651  0.4115  0.0404 -0.5183
 2410SOL    HW113245   2.652   1.392   5.617  0.6704  0.1519 -1.3178
 2410SOL    HW213246   2.770   1.498   5.582  0.7056  0.6182  0.1444
 2411SOL     OW13247   0.507   3.495   5.929  0.3221 -0.2285  0.2032
 2411SOL    HW113248   0.591   3.454   5.964  0.0687 -3.1518 -2.1667
 2411SOL    HW213249   0.434   3.426   5.930 -2.4807  2.4189  3.0084
 2412SOL     OW13250   2.824   1.262   5.839  0.2275 -0.1917 -0.2623
 2412SOL    HW113251   2.921   1.245   5.825  0.8532  2.0775  0.7479
 2412SOL    HW213252   2.789   1.321   5.766  0.3547  1.2382  0.7703
 2413SOL     OW13253   4.243   1.024   5.588 -0.0329 -0.3374  0.0711
 2413SOL    HW113254   4.154   1.047   5.548  0.0931  0.3813  0.1756
 2413SOL    HW213255   4.270   0.932   5.560  0.3207  0.3357 -1.9948
 2414SOL     OW13256   5.934   3.754   5.839 -0.2688 -0.1649  0.0486
 2414SOL    HW113257   5.918   3.834   5.781 -0.7629 -0.1798  0.1574
 2414SOL    HW213258   5.866   3.684   5.817 -0.8741  0.0812  1.0911
 2415SOL     OW13259   5.825   1.053   5.513  0.1698 -0.5763 -0.1278
 2415SOL    HW113260   5.907   1.031   5.566 -0.2218 -0.9322  0.3419
 2415SOL    HW213261   5.852   1.091   5.425  0.8610 -1.5999 -0.3884
 2416SOL     OW13262   3.422   4.026   6.308 -0.4008 -0.3320  0.0036
 2416SOL    HW113263   3.386   3.961   6.374 -1.0566  1.2574  1.2882
 2416SOL    HW213264   3.348   4.088   6.279  0.1711 -0.1956 -1.2489
 2417SOL     OW13265   2.743   2.649   5.385  0.0551 -0.4954  0.7309
 2417SOL    HW113266   2.840   2.659   5.363 -0.4551 -1.3071 -2.2491
 2417SOL    HW213267   2.711   2.731   5.432  1.7755  0.5342  0.1868
 2418SOL     OW13268   5.502   2.481   0.621 -0.0217 -0.0620  0.4342
 2418SOL    HW113269   5.538   2.454   0.710 -0.4852  1.7148  1.1940
 2418SOL    HW213270   5.576   2.482   0.554  0.2182 -2.0250  0.5991
 2419SOL     OW13271   2.111   4.736   0.089 -0.2936  0.3192  0.2725
 2419SOL    HW113272   2.133   4.789   0.170  0.4789  0.7848 -0.2229
 2419SOL    HW213273   2.127   4.792   0.007  1.6983 -1.0079 -0.3317
 2420SOL     OW13274   1.238   6.088   0.745  0.0526 -0.0951  0.1114
 2420SOL    HW113275   1.227   6.093   0.844  1.5751 -3.9416  0.6382
 2420SOL    HW213276   1.321   6.136   0.718 -0.8641  1.8024  0.4528
 2421SOL     OW13277   5.991   4.011   6.444 -0.5795 -0.2000  0.3329
 2421SOL    HW113278   6.059   3.948   6.482 -0.1610  0.3012  0.4287
 2421SOL    HW213279   5.903   3.996   6.489 -0.5568 -0.9130  0.1448
 2422SOL     OW13280   4.573   2.404   5.775 -0.3915 -0.2662 -0.4970
 2422SOL    HW113281   4.630   2.486   5.780 -0.8365 -0.0290  2.2358
 2422SOL    HW213282   4.608   2.343   5.704  1.0147  1.4854 -1.3807
 2423SOL     OW13283   6.205   5.092   6.465 -0.2971  0.4861 -0.3833
 2423SOL    HW113284   6.164   5.152   6.533  0.1111  0.2269  0.0992
 2423SOL    HW213285   6.253   5.146   6.396 -2.5112  0.8875 -1.7109
 2424SOL     OW13286   1.777   4.637   5.730  0.4476 -0.0069 -0.0434
 2424SOL    HW113287   1.725   4.686   5.660 -0.2913  0.5765  0.8995
 2424SOL    HW213288   1.795   4.544   5.698 -0.2722  0.1033 -0.8254
 2425SOL     OW13289   5.500   5.200   5.999  0.3337 -0.3353  0.4284
 2425SOL    HW113290   5.421   5.170   5.945 -1.0859  1.5670  1.2956
 2425SOL    HW213291   5.533   5.124   6.054  0.3197 -1.6788 -1.3229
 2426SOL     OW13292   0.942   4.458   1.508 -0.0308 -0.6692  0.1950
 2426SOL    HW113293   0.944   4.557   1.518 -0.0825 -0.7101  0.6134
 2426SOL    HW213294   0.947   4.415   1.598 -0.1245 -1.0456  0.0233
 2427SOL     OW13295   5.051   5.096   0.404 -0.2194 -0.2858 -0.2163
 2427SOL    HW113296   4.958   5.119   0.375 -0.7137  0.0013  1.4960
 2427SOL    HW213297   5.048   5.018   0.466  0.6310  0.0541  0.2630
 2428SOL     OW13298   4.589   2.184   5.579 -0.2908 -0.2025  0.4608
 2428SOL    HW113299   4.648   2.225   5.510 -1.1808 -1.0211 -0.8468
 2428SOL    HW213300   4.581   2.086   5.562  1.3688 -0.9303  3.1994
 2429SOL     OW13301   5.992   2.931   0.519 -0.1659 -0.1376 -0.0624
 2429SOL    HW113302   6.008   2.876   0.602 -0.0604  0.0623  0.0497
 2429SOL    HW213303   6.038   3.019   0.528  1.5529 -0.8588 -1.1668
 2430SOL     OW13304   4.620   2.300   0.820  0.1883  0.3991  0.0363
 2430SOL    HW113305   4.704   2.291   0.767  1.1499  0.7565  1.4396
 2430SOL    HW213306   4.619   2.229   0.891 -0.2009  1.0248  0.6639
 2431SOL     OW13307   2.762   2.751   0.744 -0.3671 -0.2399  0.7096
 2431SOL    HW113308   2.759   2.750   0.844 -1.9562 -1.6090  0.6971
 2431SOL    HW213309   2.812   2.672   0.710  3.2161  1.9586  0.3599
 2432SOL     OW13310   4.879   6.163   1.605  0.1959 -0.3999  0.3006
 2432SOL    HW113311   4.877   6.207   1.695 -2.2174  0.8265 -0.2472
 2432SOL    HW213312   4.802   6.197   1.550  1.6664 -0.9884 -2.2977
 2433SOL     OW13313   1.493   2.608   0.716 -0.3947 -0.3196 -0.4403
 2433SOL    HW113314   1.523   2.672   0.645 -1.9950 -0.1299 -0.9811
 2433SOL    HW213315   1.472   2.659   0.800  0.3545 -0.4095 -0.1852
 2434SOL     OW13316   3.946   0.900   1.817  0.2476  0.1417 -0.1933
 2434SOL    HW113317   3.922   0.847   1.899  0.3035 -3.5621 -2.3309
 2434SOL    HW213318   3.879   0.972   1.803 -1.3751 -0.9081  1.6456
 2435SOL     OW13319   2.272   4.506   5.602  0.1749  0.1885 -0.2853
 2435SOL    HW113320   2.274   4.433   5.534  0.0202  0.0590 -0.1516
 2435SOL    HW213321   2.213   4.479   5.678 -0.3833  0.7106 -0.5282
 2436SOL     OW13322   5.226   1.946   6.265  0.0683  0.5337 -0.0088
 2436SOL    HW113323   5.217   1.847   6.260 -0.6790  0.6479 -1.5893
 2436SOL    HW213324   5.233   1.974   6.361 -0.2034 -0.9912  0.4864
 2437SOL     OW13325   4.822   2.957   0.029  0.1432 -0.6304  0.1916
 2437SOL    HW113326   4.882   2.998   0.098  0.4636 -1.1139  0.2084
 2437SOL    HW213327   4.868   2.878  -0.012 -0.1574 -0.5090 -0.3797
 2438SOL     OW13328   2.724   2.319   6.152 -0.0980 -0.8512 -0.1042
 2438SOL    HW113329   2.765   2.228   6.145  1.7582 -0.0897  0.5023
 2438SOL    HW213330   2.751   2.361   6.239 -1.4332  0.0603 -0.1016
 2439SOL     OW13331   2.573   4.361   5.513  0.4931  0.2936  0.3272
 2439SOL    HW113332   2.500   4.313   5.561  1.1027  0.1233  1.1094
 2439SOL    HW213333   2.539   4.397   5.426 -0.7999  1.1306  1.1522
 2440SOL     OW13334   4.315   0.072   6.270 -0.6163 -0.2323  0.1324
 2440SOL    HW113335   4.244   0.013   6.233 -0.5342 -0.8297  0.9152
 2440SOL    HW213336   4.340   0.042   6.362  0.1524  0.3962  0.1460
 2441SOL     OW13337   4.131   0.848   5.378 -0.2442 -0.2595 -0.0633
 2441SOL    HW113338   4.111   0.945   5.396  2.9532  0.9526 -2.1252
 2441SOL    HW213339   4.096   0.824   5.287  0.0772 -0.6581 -0.0825
 2442SOL     OW13340   3.495   4.715   0.984  0.5616 -0.2313 -0.1612
 2442SOL    HW113341   3.417   4.700   1.046  1.4170  0.0461  1.0205
 2442SOL    HW213342   3.479   4.666   0.898 -0.3151 -1.2688  0.5581
 2443SOL     OW13343   5.902   2.014   1.029  0.0522  0.3617  0.3853
 2443SOL    HW113344   5.978   2.018   1.094  0.1788  2.0999  0.1863
 2443SOL    HW213345   5.816   2.028   1.078  0.0452  0.4797  0.3396
 2444SOL     OW13346   3.961   0.261   6.082 -0.2925 -0.0354 -0.5372
 2444SOL    HW113347   3.984   0.163   6.079  0.5285  0.1536 -0.7479
 2444SOL    HW213348   3.924   0.289   5.994 -0.8349 -0.2207 -0.3738
 2445SOL     OW13349   5.503   4.327   0.497  0.7367 -0.0648  0.0561
 2445SOL    HW113350   5.538   4.344   0.590  1.1721  1.1520 -0.3096
 2445SOL    HW213351   5.576   4.292   0.440  0.0618 -2.4516  0.5673
 2446SOL     OW13352   1.280   5.703   5.623  0.3166  0.2696 -0.0875
 2446SOL    HW113353   1.260   5.691   5.526  0.2705  2.1353 -0.3466
 2446SOL    HW213354   1.275   5.800   5.646  1.9978  0.0566  1.4084
 2447SOL     OW13355   0.858   4.121   5.060 -0.3177  0.3120  0.6859
 2447SOL    HW113356   0.774   4.175   5.054 -1.2449 -1.0832  0.6111
 2447SOL    HW213357   0.923   4.150   4.989 -1.2068  0.6105 -0.0159
 2448SOL     OW13358   0.250   0.303   5.928  0.0246  0.0120  0.0405
 2448SOL    HW113359   0.267   0.401   5.938  1.1204 -0.1482 -0.0921
 2448SOL    HW213360   0.226   0.264   6.017  1.0510  0.1534  0.4009
 2449SOL     OW13361   3.122   4.155   5.443 -0.4319  0.0655 -0.1234
 2449SOL    HW113362   3.205   4.122   5.489  0.7065  3.0197  0.1385
 2449SOL    HW213363   3.095   4.090   5.372  0.5418 -2.2497  1.5127
 2450SOL     OW13364   1.676   5.488   4.832 -0.0587 -0.3321 -0.1647
 2450SOL    HW113365   1.699   5.478   4.735  0.0107  0.4105 -0.2317
 2450SOL    HW213366   1.747   5.542   4.877  0.3918 -1.4370  0.5099
 2451SOL     OW13367   4.173   0.922   2.029  0.6006  0.2596 -0.3729
 2451SOL    HW113368   4.208   0.994   1.969  1.1789  0.1627 -0.1563
 2451SOL    HW213369   4.075   0.910   2.013  0.5361  0.9672 -0.5437
 2452SOL     OW13370   2.713   5.493   6.416 -0.5381  0.3167 -0.5677
 2452SOL    HW113371   2.633   5.550   6.436 -0.4138  0.5869 -0.8329
 2452SOL    HW213372   2.796   5.544   6.437 -0.3934  0.7356 -2.0383
 2453SOL     OW13373   2.877   5.475   5.611 -0.1242  0.1560 -0.0178
 2453SOL    HW113374   2.802   5.484   5.547 -1.8416 -1.1143  1.7044
 2453SOL    HW213375   2.859   5.531   5.692  1.7101  1.2575 -0.2963
 2454SOL     OW13376   0.273   3.794   1.155  0.4684  0.2018  0.5813
 2454SOL    HW113377   0.229   3.808   1.244  0.6205  0.1902  0.6577
 2454SOL    HW213378   0.203   3.791   1.083  0.4587  2.1011  0.4557
 2455SOL     OW13379   2.908   3.660   5.831  0.0427  0.2609 -0.2408
 2455SOL    HW113380   2.931   3.754   5.806  0.0523  0.7897  1.5824
 2455SOL    HW213381   2.814   3.657   5.867  0.8933  0.1296  2.1691
 2456SOL     OW13382   5.853   6.048   1.416 -0.0636  0.2875 -0.2122
 2456SOL    HW113383   5.933   6.059   1.475  0.8480  0.4703 -1.4272
 2456SOL    HW213384   5.770   6.058   1.470  0.7301  0.8203  0.9583
 2457SOL     OW13385   1.523   0.772   6.125 -0.0814 -0.6781 -0.3071
 2457SOL    HW113386   1.579   0.831   6.067 -0.4594  0.6983  0.6912
 2457SOL    HW213387   1.491   0.823   6.205 -2.1789 -1.6181 -0.4776
 2458SOL     OW13388   0.108   5.652   0.693 -0.4415  0.0046 -0.4992
 2458SOL    HW113389   0.077   5.742   0.725 -0.8801  0.3059 -1.7225
 2458SOL    HW213390   0.194   5.629   0.738 -0.6053  0.7769  0.2477
 2459SOL     OW13391   2.465   1.492   6.008 -0.0064 -0.0294 -0.2372
 2459SOL    HW113392   2.550   1.535   5.978 -0.1084 -0.1285 -0.6839
 2459SOL    HW213393   2.484   1.399   6.040 -0.0146 -0.2348 -0.8181
 2460SOL     OW13394   2.633   3.574   0.370  0.4032  0.7707 -0.2005
 2460SOL    HW113395   2.693   3.598   0.446 -1.1219  1.1995  0.9230
 2460SOL    HW213396   2.607   3.478   0.377  1.7695  0.2900 -1.3041
 2461SOL     OW13397   3.966   0.992   0.076  0.6001  0.0165 -0.7127
 2461SOL    HW113398   3.937   1.059   0.008 -1.3982 -0.0160  0.0346
 2461SOL    HW213399   3.992   1.039   0.160 -3.0462 -0.0861  0.6352
 2462SOL     OW13400   5.087   3.637   0.250  0.1739 -0.6962 -0.2245
 2462SOL    HW113401   5.086   3.572   0.327 -0.9555 -0.7270 -0.2487
 2462SOL    HW213402   5.098   3.730   0.285  0.0702 -0.7474 -0.0511
 2463SOL     OW13403   4.237   3.813   0.137  0.0066 -0.0888 -0.4978
 2463SOL    HW113404   4.310   3.860   0.087  0.6326 -1.2346 -0.7173
 2463SOL    HW213405   4.168   3.879   0.167  0.4069  0.8308 -1.5350
 2464SOL     OW13406   1.198   1.537   0.054  0.2204 -0.0722 -0.1710
 2464SOL    HW113407   1.162   1.624   0.087  0.6805 -0.0759  0.3457
 2464SOL    HW213408   1.256   1.553  -0.026 -1.0269 -0.0817 -1.1231
 2465SOL     OW13409   1.406   4.089   5.766  0.2810  0.5506  0.3057
 2465SOL    HW113410   1.383   4.010   5.709  1.1766 -1.3756  2.4405
 2465SOL    HW213411   1.463   4.152   5.715 -0.8800  0.1259 -1.6378
 2466SOL     OW13412   1.345   0.943   0.948 -0.0489 -0.0833 -0.0589
 2466SOL    HW113413   1.262   0.925   1.001  0.8963 -2.3742  0.8065
 2466SOL    HW213414   1.321   0.959   0.853 -1.6049  1.5423  0.5426
 2467SOL     OW13415   5.086   5.078   1.022 -0.0317 -0.9304  0.6191
 2467SOL    HW113416   5.025   5.132   0.964  1.6383  0.4439  0.0990
 2467SOL    HW213417   5.180   5.106   1.007  0.5338 -1.1046  3.4213
 2468SOL     OW13418   2.141   5.905   1.269 -0.2174 -0.2145 -0.2221
 2468SOL    HW113419   2.061   5.883   1.212  0.1867 -1.2275 -0.4275
 2468SOL    HW213420   2.217   5.932   1.211 -0.8952  2.5315  0.0618
 2469SOL     OW13421   5.112   5.630   5.824 -0.6286  0.0824 -0.1005
 2469SOL    HW113422   5.134   5.639   5.726  0.7401  0.4391  0.2145
 2469SOL    HW213423   5.164   5.553   5.862 -2.3975 -1.1057  0.0235
 2470SOL     OW13424   2.969   1.850   6.404 -0.3136  0.0198 -0.2637
 2470SOL    HW113425   2.880   1.806   6.408  0.0092 -0.5822  1.0795
 2470SOL    HW213426   3.014   1.841   6.493  1.2834 -0.1309 -1.0428
 2471SOL     OW13427   4.217   3.013   6.098 -0.1661 -0.4528  0.0573
 2471SOL    HW113428   4.220   3.110   6.074  2.0543 -0.5695 -0.3386
 2471SOL    HW213429   4.122   2.982   6.099 -0.7943  1.1373 -2.1711
 2472SOL     OW13430   4.569   5.878   6.578 -0.1893  0.8593  0.2038
 2472SOL    HW113431   4.517   5.959   6.548 -1.1728  0.9208  1.9798
 2472SOL    HW213432   4.544   5.855   6.672  0.1997 -1.4330 -0.2033
 2473SOL     OW13433   0.038   2.614   6.576 -0.3547  0.0438 -0.6108
 2473SOL    HW113434  -0.022   2.554   6.524 -1.7737  0.2567  0.7038
 2473SOL    HW213435   0.102   2.559   6.630  1.3525 -0.1788 -2.7000
 2474SOL     OW13436   2.920   5.463   0.828  0.1754  0.6901 -0.1519
 2474SOL    HW113437   2.855   5.465   0.752  0.7314  1.4697 -0.6263
 2474SOL    HW213438   2.960   5.554   0.840  0.2841  0.5087  0.9139
 2475SOL     OW13439   4.637   0.688   0.828  0.1661  0.2078 -0.1841
 2475SOL    HW113440   4.670   0.660   0.918  2.7524 -0.6333 -1.2860
 2475SOL    HW213441   4.616   0.607   0.773  1.6244  0.5614 -1.3263
 2476SOL     OW13442   4.009   5.578   5.501  0.3086  0.3746 -0.0465
 2476SOL    HW113443   3.979   5.610   5.590  2.6950 -0.4470  1.1484
 2476SOL    HW213444   4.103   5.609   5.484  0.9015 -1.7260 -1.0311
 2477SOL     OW13445   5.361   0.358   0.334  0.7725 -0.1657  0.9186
 2477SOL    HW113446   5.349   0.321   0.426  0.9604 -1.0404  0.6065
 2477SOL    HW213447   5.349   0.285   0.267 -3.0588  1.0830 -0.0123
 2478SOL     OW13448   1.689   4.707   0.261  0.0319 -0.0863 -0.1936
 2478SOL    HW113449   1.653   4.642   0.327  1.5195  0.1245  0.8617
 2478SOL    HW213450   1.689   4.799   0.301 -0.0320  0.2235 -0.8828
 2479SOL     OW13451   5.035   3.285   5.160 -0.0431 -0.0475 -0.5232
 2479SOL    HW113452   5.074   3.337   5.236 -0.4646 -0.6734  0.1379
 2479SOL    HW213453   5.101   3.281   5.085  0.0955  1.2016 -0.4886
 2480SOL     OW13454   1.943   5.732   5.706  0.9231 -0.1549  0.2176
 2480SOL    HW113455   1.990   5.644   5.719  0.6550 -0.3925 -0.3747
 2480SOL    HW213456   2.009   5.802   5.680  0.9918 -0.4346 -0.3841
 2481SOL     OW13457   1.966   4.526   0.002  0.2045 -0.3576 -0.2166
 2481SOL    HW113458   1.888   4.565  -0.047 -0.2090 -1.1579 -0.2045
 2481SOL    HW213459   2.017   4.599   0.047 -1.8814 -0.0123  1.7677
 2482SOL     OW13460   3.204   5.786   6.440  0.6875 -0.1314 -0.1126
 2482SOL    HW113461   3.206   5.826   6.349  0.4187 -0.9769 -0.4926
 2482SOL    HW213462   3.179   5.689   6.435  1.7824 -0.4868  0.7521
 2483SOL     OW13463   5.933   3.348   1.160 -0.2223  0.0818  0.1120
 2483SOL    HW113464   5.878   3.312   1.236  0.9922  1.7511  1.8907
 2483SOL    HW213465   5.919   3.447   1.153  0.7529  0.1635 -0.9594
 2484SOL     OW13466   1.595   0.227   0.898 -0.1599 -0.1166 -0.1687
 2484SOL    HW113467   1.579   0.206   0.995 -0.1345  1.8154  0.3082
 2484SOL    HW213468   1.690   0.206   0.875  0.1525  0.4402  0.5525
 2485SOL     OW13469   4.191   0.778   1.065 -0.7013  0.8664 -0.2448
 2485SOL    HW113470   4.177   0.873   1.093 -2.0697  1.6393 -3.2273
 2485SOL    HW213471   4.238   0.776   0.977  1.4321 -1.3641  0.8125
 2486SOL     OW13472   4.372   0.408   5.253  0.3484  0.1831  0.4523
 2486SOL    HW113473   4.338   0.462   5.330  0.0245 -0.7528  0.9814
 2486SOL    HW213474   4.308   0.334   5.234  1.1434 -0.4537  0.2071
 2487SOL     OW13475   2.094   3.298   5.787 -0.1156 -0.6446  0.2832
 2487SOL    HW113476   2.033   3.321   5.863 -0.1183 -0.6603  0.2858
 2487SOL    HW213477   2.049   3.320   5.701  0.1309 -0.0437  0.3050
 2488SOL     OW13478   1.016   1.515   5.265 -0.1328 -0.0148  0.2721
 2488SOL    HW113479   0.977   1.424   5.278  0.9227 -0.4867  0.2015
 2488SOL    HW213480   1.012   1.566   5.351 -2.0478  0.4284 -0.0273
 2489SOL     OW13481   5.522   3.836   6.051  0.1030  0.5788  0.0401
 2489SOL    HW113482   5.560   3.750   6.018 -0.9466  0.2379 -0.3001
 2489SOL    HW213483   5.482   3.822   6.142 -1.5208  0.2869 -0.6845
 2490SOL     OW13484   3.385   6.209   5.718 -0.2418  0.3381  0.4614
 2490SOL    HW113485   3.477   6.212   5.678 -0.3995  0.8879  0.1412
 2490SOL    HW213486   3.377   6.280   5.788 -0.5726  0.5896  0.1684
 2491SOL     OW13487   3.623   2.378   5.912  0.0863 -0.0104  0.9215
 2491SOL    HW113488   3.694   2.446   5.927  0.3708  0.4906 -2.0827
 2491SOL    HW213489   3.656   2.307   5.850 -2.1206  0.5970 -1.1410
 2492SOL     OW13490   2.694   4.049   5.753 -0.0674  0.7196  0.5677
 2492SOL    HW113491   2.614   4.050   5.694  0.0228 -1.1199  0.3483
 2492SOL    HW213492   2.667   4.023   5.846  0.5355 -3.3064 -0.1788
 2493SOL     OW13493   2.070   3.835   1.024 -0.2119  0.5429 -0.5369
 2493SOL    HW113494   2.085   3.759   0.961 -2.6469 -0.2781 -0.2474
 2493SOL    HW213495   2.127   3.823   1.105 -0.9439 -1.3396 -0.2446
 2494SOL     OW13496   2.213   0.115   5.326 -0.7012 -0.0409 -0.1468
 2494SOL    HW113497   2.134   0.074   5.371 -1.3033  0.2330 -0.9263
 2494SOL    HW213498   2.271   0.042   5.288 -1.4853 -0.2092 -1.0605
 2495SOL     OW13499   3.190   1.785   0.774  0.0807  0.0812  0.1079
 2495SOL    HW113500   3.211   1.720   0.846  0.0763  2.3588  2.3194
 2495SOL    HW213501   3.093   1.808   0.776  0.2093  0.6806 -0.1490
 2496SOL     OW13502   5.560   3.703   1.377 -0.0559 -0.4148 -0.3050
 2496SOL    HW113503   5.626   3.655   1.435 -1.3314 -0.7343  0.9567
 2496SOL    HW213504   5.483   3.642   1.357 -1.0134  0.6123  0.1286
 2497SOL     OW13505   2.077   0.447   5.903 -0.2755  0.2865 -0.1274
 2497SOL    HW113506   2.126   0.503   5.836 -0.7422 -0.5545 -1.2214
 2497SOL    HW213507   2.003   0.397   5.856 -0.9349  0.0527  1.1231
 2498SOL     OW13508   3.922   0.764   1.010 -0.2589  0.3280 -0.3797
 2498SOL    HW113509   3.885   0.852   0.981 -0.4695  0.2893 -0.2280
 2498SOL    HW213510   4.022   0.770   1.016 -0.2398  0.4278 -0.7994
 2499SOL     OW13511   0.688   1.770   0.701 -0.6036  0.7592 -0.0322
 2499SOL    HW113512   0.645   1.770   0.791 -4.0357 -0.5606 -1.4696
 2499SOL    HW213513   0.751   1.692   0.694 -2.7464 -1.1262  0.3391
 2500SOL     OW13514   1.425   5.346   5.495  0.0413  0.0592  0.4483
 2500SOL    HW113515   1.332   5.379   5.480 -1.4562 -2.6959  2.8524
 2500SOL    HW213516   1.482   5.422   5.528 -1.6528  1.5335  0.1179
 2501SOL     OW13517   2.532   5.055   5.960 -0.4098  0.3924 -0.2506
 2501SOL    HW113518   2.607   5.020   6.016 -0.8056 -0.6363 -0.3558
 2501SOL    HW213519   2.547   5.153   5.942  0.0559  0.5911  1.1007
 2502SOL     OW13520   0.045   3.653   5.583 -0.3553  0.9093 -0.2876
 2502SOL    HW113521   0.127   3.618   5.628  0.3184  1.5794 -0.9760
 2502SOL    HW213522  -0.036   3.625   5.635  0.1425 -1.5644 -0.7175
 2503SOL     OW13523   0.951   4.731   1.625  0.0686  0.1706  0.8086
 2503SOL    HW113524   1.022   4.776   1.680 -0.0893  0.9357  0.4081
 2503SOL    HW213525   0.875   4.706   1.684  0.0666  0.6333  1.0108
 2504SOL     OW13526   1.636   1.795   0.253  0.3234 -0.5201 -0.4927
 2504SOL    HW113527   1.613   1.729   0.182  0.5413 -1.3511  0.1884
 2504SOL    HW213528   1.600   1.885   0.229  3.0903  0.0273 -3.2632
 2505SOL     OW13529   1.503   3.647   0.734  0.3335 -0.1217  0.3806
 2505SOL    HW113530   1.558   3.625   0.814 -0.3144 -2.2393  0.2954
 2505SOL    HW213531   1.563   3.669   0.657  0.9966  0.1112  0.9623
 2506SOL     OW13532   6.197   5.757   4.779  0.2283  0.4434 -0.0294
 2506SOL    HW113533   6.247   5.839   4.806  0.3279  0.7818 -1.1898
 2506SOL    HW213534   6.120   5.783   4.720 -0.9813 -0.1200  1.2510
 2507SOL     OW13535   3.736   3.964   0.341 -0.2954  0.2857  0.0958
 2507SOL    HW113536   3.692   3.998   0.258 -0.7187 -0.8371 -0.1566
 2507SOL    HW213537   3.726   3.864   0.346  1.9614  0.0007  0.1683
 2508SOL     OW13538   2.758   5.120   6.316  0.2718  0.4569  0.3339
 2508SOL    HW113539   2.776   5.021   6.317  0.8706  0.4750  3.5503
 2508SOL    HW213540   2.662   5.136   6.293  0.1429 -0.8859 -0.1630
 2509SOL     OW13541   1.405   3.292   0.379 -0.4013  0.3829 -0.0553
 2509SOL    HW113542   1.357   3.263   0.296 -0.5859  1.0121 -0.1712
 2509SOL    HW213543   1.404   3.392   0.385  0.9341  0.4147 -0.0884
 2510SOL     OW13544   1.612   6.169   0.928  0.3530  0.1385 -0.4752
 2510SOL    HW113545   1.618   6.153   1.026  0.8737 -0.5122 -0.6082
 2510SOL    HW213546   1.691   6.223   0.898 -0.2257  1.0405 -0.4067
 2511SOL     OW13547   6.190   1.338   6.566  0.1024 -0.4853  0.1631
 2511SOL    HW113548   6.246   1.386   6.633  2.8630 -0.7334 -1.7779
 2511SOL    HW213549   6.233   1.251   6.542 -0.2437 -0.0094 -2.5385
 2512SOL     OW13550   1.941   4.521   0.463  0.4338 -0.1187 -0.0487
 2512SOL    HW113551   1.918   4.440   0.410 -0.9676  1.2058 -1.5826
 2512SOL    HW213552   1.858   4.576   0.477  1.1885  0.6588  1.6624
 2513SOL     OW13553   5.869   1.149   6.253 -0.3480 -0.5650 -0.0455
 2513SOL    HW113554   5.792   1.184   6.200 -3.0573 -1.6944  2.8625
 2513SOL    HW213555   5.909   1.071   6.205 -1.7799 -0.7178 -1.0569
 2514SOL     OW13556   0.076   1.021   0.079  0.4278  0.6387  0.1044
 2514SOL    HW113557   0.037   0.932   0.103  0.2937  0.6877  0.0707
 2514SOL    HW213558   0.114   1.064   0.161 -0.7374  1.1562  0.3930
 2515SOL     OW13559   4.689   3.407   0.951  0.1394  0.0791  0.5711
 2515SOL    HW113560   4.749   3.419   1.030  1.6016  0.3002 -0.5346
 2515SOL    HW213561   4.651   3.314   0.952  0.1848  0.0605  1.4777
 2516SOL     OW13562   4.356   1.565   6.147  0.1804 -0.1377 -0.1111
 2516SOL    HW113563   4.404   1.478   6.135  0.7074 -0.1826  1.9303
 2516SOL    HW213564   4.350   1.586   6.244 -2.9884  0.4399 -0.3332
 2517SOL     OW13565   3.654   5.286   5.600  0.2677 -0.3925 -0.0370
 2517SOL    HW113566   3.559   5.275   5.629 -0.2366 -0.4324 -1.5928
 2517SOL    HW213567   3.670   5.382   5.575  0.4160 -0.5330 -0.4894
 2518SOL     OW13568   0.974   5.315   6.409  0.2749  0.5391  0.2022
 2518SOL    HW113569   1.022   5.228   6.399 -0.1148  0.4203 -0.7389
 2518SOL    HW213570   0.986   5.369   6.325 -0.6710  0.7833  0.2152
 2519SOL     OW13571   1.468   6.056   0.117  0.0750 -0.0341  0.2891
 2519SOL    HW113572   1.568   6.058   0.116  0.0602  0.6693 -1.0890
 2519SOL    HW213573   1.434   6.000   0.042 -0.5818  0.7999 -0.0560
 2520SOL     OW13574   1.006   4.231   5.557  0.6080 -0.1121  0.4426
 2520SOL    HW113575   0.979   4.228   5.461 -0.4516 -0.8212  0.7426
 2520SOL    HW213576   1.100   4.265   5.565  0.9302 -0.6527 -0.8806
 2521SOL     OW13577   1.033   4.602   0.507  0.0234  0.0826 -0.5335
 2521SOL    HW113578   1.002   4.689   0.544  0.6309  0.3637 -0.6681
 2521SOL    HW213579   0.955   4.542   0.492 -0.3733  0.5143 -0.2074
 2522SOL     OW13580   0.986   3.397   0.306  0.6989 -0.3341 -0.1784
 2522SOL    HW113581   0.916   3.334   0.340  1.5280 -0.9992  0.3371
 2522SOL    HW213582   1.000   3.380   0.208 -1.0752  0.9968 -0.7189
 2523SOL     OW13583   5.417   5.217   0.699 -0.0293 -0.0304 -0.4178
 2523SOL    HW113584   5.430   5.134   0.644 -1.6382 -0.4957 -0.1445
 2523SOL    HW213585   5.453   5.203   0.791 -2.6373 -1.4756  0.4894
 2524SOL     OW13586   6.199   0.181   5.440  0.4017 -0.5711 -0.1035
 2524SOL    HW113587   6.298   0.172   5.444  0.4923  0.4196  0.1103
 2524SOL    HW213588   6.159   0.144   5.524  0.7125  0.3807  0.4849
 2525SOL     OW13589   4.278   4.991   6.302  0.4317  0.0403 -0.0408
 2525SOL    HW113590   4.225   5.076   6.308  0.5581  0.2033 -1.0724
 2525SOL    HW213591   4.354   5.004   6.238  2.1583  0.0259  1.9056
 2526SOL     OW13592   4.610   0.193   0.658  0.0065  0.2170  0.1356
 2526SOL    HW113593   4.563   0.109   0.685  1.1883 -0.2601  0.7951
 2526SOL    HW213594   4.709   0.183   0.672  0.1487  1.8440  0.6038
 2527SOL     OW13595   3.590   3.672   5.592  0.4715  0.4395  0.1300
 2527SOL    HW113596   3.669   3.629   5.548  0.7680  1.6787 -0.5816
 2527SOL    HW213597   3.580   3.766   5.560 -0.8631  0.5479  0.7713
 2528SOL     OW13598   5.902   0.031   0.171  0.0563  0.2609  0.1250
 2528SOL    HW113599   5.896   0.117   0.221 -1.0702  0.7550 -0.8338
 2528SOL    HW213600   5.915  -0.045   0.236  1.6861  1.1769  0.9423
 2529SOL     OW13601   4.421   1.026   5.910 -0.6403  0.8932  0.2047
 2529SOL    HW113602   4.441   0.961   5.984 -1.0271  1.3704  0.7361
 2529SOL    HW213603   4.475   1.003   5.830 -0.9568 -0.2585  0.2978
 2530SOL     OW13604   2.650   3.339   1.036  0.0781 -0.0468 -0.0009
 2530SOL    HW113605   2.644   3.243   1.062 -0.9349  0.1766  0.6801
 2530SOL    HW213606   2.718   3.351   0.963  1.2391 -1.0567  0.8821
 2531SOL     OW13607   1.256   2.889   5.611  0.1180  0.1150  0.6653
 2531SOL    HW113608   1.192   2.966   5.617  1.0149  0.8399  1.1509
 2531SOL    HW213609   1.206   2.804   5.628 -1.0853  0.4637 -0.8780
 2532SOL     OW13610   1.061   0.901   0.454 -0.1149  0.0334 -0.0612
 2532SOL    HW113611   0.998   0.832   0.419  0.1202 -0.1239 -0.1803
 2532SOL    HW213612   1.140   0.907   0.393 -0.3833  0.7923 -0.3523
 2533SOL     OW13613   3.010   1.312   0.838  0.1615  0.3094  0.0547
 2533SOL    HW113614   3.019   1.347   0.931  2.1002  0.8626 -0.2870
 2533SOL    HW213615   2.952   1.375   0.785  0.7327  1.1195  0.3661
 2534SOL     OW13616   2.298   3.798   1.802 -0.2826 -0.6970  0.1476
 2534SOL    HW113617   2.313   3.759   1.711  0.1812 -0.4757  0.1277
 2534SOL    HW213618   2.269   3.894   1.794  0.8462 -0.3348  0.2569
 2535SOL     OW13619   2.846   0.361   1.936 -0.1095  0.0856  0.2910
 2535SOL    HW113620   2.760   0.389   1.979 -0.2094 -0.5386  0.5008
 2535SOL    HW213621   2.861   0.263   1.951  0.9313  0.3035  0.7679
 2536SOL     OW13622   0.715   3.922   0.983  0.5045  0.4637 -0.0153
 2536SOL    HW113623   0.638   3.859   0.983 -0.3219  1.3864  1.7511
 2536SOL    HW213624   0.767   3.911   1.069  1.2390  1.1363 -0.3604
 2537SOL     OW13625   6.295   5.876   6.254  0.1227  0.3341 -0.7391
 2537SOL    HW113626   6.297   5.858   6.156 -0.9878  0.7334 -0.8479
 2537SOL    HW213627   6.238   5.808   6.300  0.4167  0.3087 -0.4101
 2538SOL     OW13628   4.687   4.402   0.152  0.0477 -0.1981  0.4953
 2538SOL    HW113629   4.643   4.388   0.241 -0.5647 -0.1227  0.2063
 2538SOL    HW213630   4.748   4.482   0.157 -0.9263  0.5553  0.5054
 2539SOL     OW13631   2.775   5.230   5.571  0.4456  0.1214 -0.0333
 2539SOL    HW113632   2.812   5.156   5.626 -0.3020  0.5871  1.1383
 2539SOL    HW213633   2.828   5.313   5.587 -0.0838  0.3848  0.4048
 2540SOL     OW13634   5.037   5.005   6.226 -0.0003  0.3488 -0.2290
 2540SOL    HW113635   4.948   4.967   6.201 -0.5537  1.8536 -0.6316
 2540SOL    HW213636   5.046   5.002   6.326  0.0844 -1.0155 -0.2466
 2541SOL     OW13637   0.329   0.166   6.229  0.1094  0.4735 -0.0596
 2541SOL    HW113638   0.291   0.123   6.147 -1.8294  3.0107 -0.6526
 2541SOL    HW213639   0.404   0.227   6.204  1.7111 -1.1776  0.5450
 2542SOL     OW13640   1.634   4.945   5.488  0.2632  0.6950 -0.4498
 2542SOL    HW113641   1.682   4.998   5.419 -0.8613  2.1393 -0.1771
 2542SOL    HW213642   1.546   4.988   5.507 -0.8547 -1.4489 -0.4315
 2543SOL     OW13643   1.584   1.075   5.021 -0.1459 -0.0616  0.4927
 2543SOL    HW113644   1.493   1.033   5.021 -0.7581  1.2200  1.0494
 2543SOL    HW213645   1.649   1.012   4.978 -1.3233 -0.9065 -0.1273
 2544SOL     OW13646   3.773   2.197   5.787  0.3157  0.2153 -0.1183
 2544SOL    HW113647   3.763   2.109   5.834  0.4914  0.2673  0.0168
 2544SOL    HW213648   3.783   2.181   5.689  0.1463  0.0952 -0.1168
 2545SOL     OW13649   4.531   0.078   6.078 -0.1968  0.7797  0.4875
 2545SOL    HW113650   4.467   0.096   6.152 -0.3098  0.2507  0.5214
 2545SOL    HW213651   4.594   0.155   6.069 -2.8182  2.8607 -1.6644
 2546SOL     OW13652   4.496   3.320   1.393 -0.4076  0.2469 -0.2931
 2546SOL    HW113653   4.541   3.297   1.479 -0.3465 -1.1703 -0.6859
 2546SOL    HW213654   4.396   3.317   1.405 -0.4379  2.3229  0.2965
 2547SOL     OW13655   5.040   5.977   1.031  0.1987  0.2755 -0.2260
 2547SOL    HW113656   4.948   5.983   1.071  0.5277 -0.5685  0.7189
 2547SOL    HW213657   5.100   5.929   1.095  1.5353  1.6198 -0.4391
 2548SOL     OW13658   2.697   1.864   0.698  0.0149  0.9034 -0.3934
 2548SOL    HW113659   2.675   1.943   0.640 -0.1610  1.2340  0.1190
 2548SOL    HW213660   2.623   1.798   0.692  0.3749  0.5529 -1.1921
 2549SOL     OW13661   1.327   2.356   0.253  0.0826 -0.1781 -0.0841
 2549SOL    HW113662   1.364   2.378   0.163 -1.2201 -0.0373 -0.6022
 2549SOL    HW213663   1.391   2.387   0.324  0.6653  0.5962 -0.9301
 2550SOL     OW13664   5.864   1.885   5.184 -0.0440 -0.2820  0.1737
 2550SOL    HW113665   5.903   1.924   5.101  2.0813  1.2702  1.7951
 2550SOL    HW213666   5.911   1.799   5.205  0.0303 -0.2192  0.2610
 2551SOL     OW13667   4.144   5.403   6.056 -0.0457  0.1248  0.3089
 2551SOL    HW113668   4.132   5.474   5.987 -0.6913  0.7450  1.0401
 2551SOL    HW213669   4.214   5.431   6.121  1.2246 -0.8611 -0.5749
 2552SOL     OW13670   5.446   0.380   1.813  0.5538 -0.5333 -0.7847
 2552SOL    HW113671   5.539   0.407   1.837  0.4198 -0.0371 -0.8219
 2552SOL    HW213672   5.399   0.456   1.767  0.6951 -1.3379 -2.3256
 2553SOL     OW13673   3.280   1.906   0.569  0.0484 -0.7583  0.0056
 2553SOL    HW113674   3.242   1.842   0.635 -0.2236 -0.8561 -0.2446
 2553SOL    HW213675   3.366   1.871   0.533 -1.0681 -1.9686 -1.6312
 2554SOL     OW13676   2.712   3.650   0.641 -0.7797  0.4437 -0.3446
 2554SOL    HW113677   2.762   3.632   0.726 -1.2662  2.5921  0.4817
 2554SOL    HW213678   2.759   3.721   0.589 -1.5908  0.6684 -0.7970
 2555SOL     OW13679   1.792   0.532   0.669  1.0029 -0.0049  0.3867
 2555SOL    HW113680   1.709   0.476   0.664  0.4044  0.6932  1.8104
 2555SOL    HW213681   1.834   0.539   0.579 -0.0782 -0.9868 -0.2095
 2556SOL     OW13682   4.678   6.164   5.374 -0.5988 -0.2286 -0.3188
 2556SOL    HW113683   4.720   6.073   5.379 -0.3061 -0.0787  0.0513
 2556SOL    HW213684   4.594   6.159   5.321 -2.2239 -1.3505  2.1502
 2557SOL     OW13685   4.314   3.620   0.335 -0.3854 -0.1298 -0.5275
 2557SOL    HW113686   4.290   3.542   0.392 -0.4264  0.5515  0.4048
 2557SOL    HW213687   4.231   3.672   0.314 -0.1393  0.6535  0.3573
 2558SOL     OW13688   0.337   0.861   5.778  0.7153  0.6105 -0.3772
 2558SOL    HW113689   0.247   0.900   5.761  1.0363  1.1758 -0.8471
 2558SOL    HW213690   0.383   0.846   5.690  0.1316 -2.0157 -0.3032
 2559SOL     OW13691   5.183   4.128   0.503  0.0508  0.7443 -0.3355
 2559SOL    HW113692   5.212   4.224   0.501  3.1790  0.0524  2.6914
 2559SOL    HW213693   5.193   4.092   0.596 -0.1745 -2.7455 -1.5176
 2560SOL     OW13694   2.246   5.263   0.087  0.8077 -0.8139  0.4222
 2560SOL    HW113695   2.309   5.187   0.105  0.0068 -1.4801  0.4517
 2560SOL    HW213696   2.161   5.247   0.137  0.7266  0.2338  0.6257
 2561SOL     OW13697   5.589   2.679   5.568 -0.3195  0.6757 -0.3132
 2561SOL    HW113698   5.684   2.647   5.564 -0.3243  0.3390  1.4461
 2561SOL    HW213699   5.557   2.700   5.475  0.5398 -1.9166 -1.2913
 2562SOL     OW13700   4.773   1.199   6.186  0.5737 -0.1187  0.4437
 2562SOL    HW113701   4.745   1.158   6.099 -2.9820  2.7162  0.0187
 2562SOL    HW213702   4.842   1.269   6.169  1.9332 -1.4023  0.3837
 2563SOL     OW13703   1.366   1.611   6.545 -0.0033 -0.1508 -0.3109
 2563SOL    HW113704   1.409   1.569   6.464 -1.5661  3.5735 -3.3855
 2563SOL    HW213705   1.434   1.621   6.617  1.7143 -2.8713 -1.3861
 2564SOL     OW13706   5.478   1.869   0.373  0.0736 -0.3079  0.4952
 2564SOL    HW113707   5.494   1.782   0.420 -1.9747  0.2096  2.3301
 2564SOL    HW213708   5.380   1.885   0.365  0.4046  1.1863 -1.1158
 2565SOL     OW13709   2.293   4.421   1.123  0.6225 -0.7226  0.1414
 2565SOL    HW113710   2.356   4.432   1.046 -0.1260  2.1091 -0.1756
 2565SOL    HW213711   2.340   4.373   1.197  2.8365  0.2991 -0.5016
 2566SOL     OW13712   0.627   5.302   5.664  0.0098  0.0987  0.5561
 2566SOL    HW113713   0.604   5.324   5.569  1.7953  1.5408  0.4154
 2566SOL    HW213714   0.714   5.345   5.689 -0.0772 -0.8078  2.6515
 2567SOL     OW13715   2.485   5.480   0.623 -0.2399 -0.1994 -0.1187
 2567SOL    HW113716   2.455   5.509   0.532  0.6769 -0.6777 -0.5866
 2567SOL    HW213717   2.511   5.383   0.621 -0.0996 -0.1872  0.6245
 2568SOL     OW13718   0.419   1.674   6.296  0.6685  0.8342  0.1866
 2568SOL    HW113719   0.368   1.745   6.248 -0.1926  1.5748  2.0637
 2568SOL    HW213720   0.504   1.713   6.332  0.4773  0.7641  0.7233
 2569SOL     OW13721   0.794   1.361   6.320  0.1353 -0.7447  0.0440
 2569SOL    HW113722   0.773   1.381   6.416 -1.8280 -0.8601 -0.3304
 2569SOL    HW213723   0.711   1.367   6.265  1.3078 -0.2217 -1.7593
 2570SOL     OW13724   5.212   1.936   0.369  0.1664  0.0860  0.3356
 2570SOL    HW113725   5.244   2.031   0.366 -0.8248  0.4112 -0.8553
 2570SOL    HW213726   5.180   1.915   0.462 -1.5655  1.6298  0.1614
 2571SOL     OW13727   4.088   3.327   0.113  0.3922 -0.5322  0.2903
 2571SOL    HW113728   4.012   3.265   0.133  1.2790 -1.3150  1.3851
 2571SOL    HW213729   4.057   3.400   0.052 -1.1260 -1.0477  0.4081
 2572SOL     OW13730   4.559   6.041   1.814 -0.2649 -0.0333 -0.0113
 2572SOL    HW113731   4.526   6.099   1.889 -0.7991 -1.2222  0.6850
 2572SOL    HW213732   4.626   5.976   1.850  2.1682  1.6425 -1.2056
 2573SOL     OW13733   4.834   1.351   0.486 -0.6002  0.3099  0.1761
 2573SOL    HW113734   4.856   1.300   0.569  1.0171 -1.6037 -1.3245
 2573SOL    HW213735   4.839   1.289   0.407  1.0755  2.6777 -1.7199
 2574SOL     OW13736   6.218   2.172   6.644 -0.4535 -0.6947  0.8333
 2574SOL    HW113737   6.290   2.213   6.699  0.0996  2.1723 -1.7056
 2574SOL    HW213738   6.128   2.195   6.682 -0.0960  1.5842  0.4259
 2575SOL     OW13739   1.768   3.291   0.997 -0.1471 -0.4271  0.0401
 2575SOL    HW113740   1.735   3.212   0.947 -0.9492  0.9681 -1.7543
 2575SOL    HW213741   1.701   3.318   1.066 -0.2646 -0.8149  0.0755
 2576SOL     OW13742   2.665   0.430   0.729  0.1199  0.2553 -0.1141
 2576SOL    HW113743   2.577   0.383   0.730  0.6600 -0.8468 -1.3154
 2576SOL    HW213744   2.674   0.483   0.644  1.0551 -0.5407 -0.5219
 2577SOL     OW13745   3.855   0.624   6.518  0.4239  0.6727  0.1043
 2577SOL    HW113746   3.772   0.669   6.485  0.2522  0.4049  0.1724
 2577SOL    HW213747   3.915   0.692   6.560 -0.8779  0.5041  2.3989
 2578SOL     OW13748   1.490   4.065   5.405  0.5363  0.1004  0.0454
 2578SOL    HW113749   1.509   4.157   5.371 -1.0043 -0.2007 -1.8339
 2578SOL    HW213750   1.487   4.001   5.327  1.5266 -1.5477  1.2996
 2579SOL     OW13751   1.557   1.368   5.645 -0.1234 -0.4060 -0.5995
 2579SOL    HW113752   1.537   1.403   5.736 -3.7405 -1.1209 -0.9539
 2579SOL    HW213753   1.471   1.348   5.597  1.6373 -2.7819 -3.1134
 2580SOL     OW13754   0.444   0.727   0.434 -0.2251  0.2712 -0.5096
 2580SOL    HW113755   0.402   0.811   0.401 -0.1631 -0.0592 -1.4710
 2580SOL    HW213756   0.540   0.743   0.456 -0.5686  0.7858  0.7277
 2581SOL     OW13757   2.370   0.379   0.706  0.3090  0.4659  0.7542
 2581SOL    HW113758   2.357   0.292   0.753 -0.5510 -0.9369 -1.8478
 2581SOL    HW213759   2.308   0.447   0.744 -1.5962 -1.0682  0.5614
 2582SOL     OW13760   0.702   5.111   5.363  0.0305  0.0947  0.1414
 2582SOL    HW113761   0.670   5.031   5.413  1.5033 -0.3966  0.3564
 2582SOL    HW213762   0.705   5.090   5.265 -1.1726  0.4719  0.0034
 2583SOL     OW13763   0.422   3.966   0.163  0.2246 -0.2199  0.1619
 2583SOL    HW113764   0.416   3.998   0.257 -2.9827  1.5082 -0.4849
 2583SOL    HW213765   0.357   3.892   0.148 -0.3378  0.4664 -0.9859
 2584SOL     OW13766   2.373   6.032   1.141  0.4372 -0.3679  0.2022
 2584SOL    HW113767   2.431   6.098   1.189 -0.2501  0.8873 -0.6416
 2584SOL    HW213768   2.377   6.050   1.043 -0.0841 -1.3374 -0.0043
 2585SOL     OW13769   6.256   4.132   1.765 -0.8066  0.4941 -0.6020
 2585SOL    HW113770   6.255   4.173   1.674 -0.9761  0.5488 -0.5757
 2585SOL    HW213771   6.279   4.203   1.833 -0.5498  0.4252 -0.6154
 2586SOL     OW13772   0.348   5.121   1.239 -0.7628  0.4127 -0.2507
 2586SOL    HW113773   0.315   5.043   1.292  0.6899 -0.3417 -0.4055
 2586SOL    HW213774   0.404   5.180   1.297 -1.9953  1.4707 -0.0892
 2587SOL     OW13775   0.666   2.529   1.733 -0.3961  0.2353 -0.5953
 2587SOL    HW113776   0.749   2.533   1.788 -0.6960  2.7147 -0.2375
 2587SOL    HW213777   0.596   2.477   1.783  0.2549 -0.0388  0.0507
 2588SOL     OW13778   1.769   1.156   5.930 -0.3469  0.6662 -0.2229
 2588SOL    HW113779   1.816   1.190   5.849 -0.1345  1.4176  0.2030
 2588SOL    HW213780   1.776   1.224   6.003  0.4565 -0.4637  0.8012
 2589SOL     OW13781   3.505   4.394   6.453 -0.4144 -0.8616  0.1618
 2589SOL    HW113782   3.547   4.391   6.362 -1.3214 -2.5725 -0.2613
 2589SOL    HW213783   3.528   4.310   6.503 -1.5898 -0.8761  0.7121
 2590SOL     OW13784   4.389   4.431   6.333 -0.3432 -0.0506  0.4028
 2590SOL    HW113785   4.340   4.390   6.256 -0.4173 -0.2986  0.5774
 2590SOL    HW213786   4.483   4.397   6.335  0.3539  1.6761 -0.8950
 2591SOL     OW13787   3.079   3.522   5.999  0.3849 -0.3846  0.3318
 2591SOL    HW113788   3.096   3.591   6.070 -3.1149 -0.7339  1.7051
 2591SOL    HW213789   3.020   3.561   5.929  0.3961 -1.2948 -0.1993
 2592SOL     OW13790   1.901   0.423   6.428  0.0610  0.0809  0.0324
 2592SOL    HW113791   1.886   0.511   6.474  1.7945  1.5515 -2.0143
 2592SOL    HW213792   1.955   0.437   6.345 -0.9940 -2.7348 -1.2707
 2593SOL     OW13793   2.282   4.241   5.529  0.0022  0.3142  0.4719
 2593SOL    HW113794   2.215   4.236   5.455  0.0952 -1.0564  0.4486
 2593SOL    HW213795   2.236   4.254   5.616 -0.2565  0.0795  0.3731
 2594SOL     OW13796   5.620   2.439   0.851 -0.3147  0.2887  0.5373
 2594SOL    HW113797   5.633   2.382   0.932 -0.3888 -0.2784  0.1625
 2594SOL    HW213798   5.704   2.489   0.832  0.0280 -0.3134  0.4168
 2595SOL     OW13799   1.364   3.044   0.514 -0.4559  0.1224  0.1665
 2595SOL    HW113800   1.357   3.021   0.611  1.3695 -1.7247 -0.0646
 2595SOL    HW213801   1.428   3.120   0.502 -2.5137  2.0244  0.5195
 2596SOL     OW13802   5.358   3.453   0.448 -0.0126 -0.6227 -0.1847
 2596SOL    HW113803   5.431   3.424   0.510  0.7224 -0.9147 -1.1641
 2596SOL    HW213804   5.280   3.485   0.502  1.2278  0.7512  0.8872
 2597SOL     OW13805   1.863   4.483   5.176  0.0978  0.4263  0.3660
 2597SOL    HW113806   1.962   4.489   5.163  0.2594 -1.9068  0.1376
 2597SOL    HW213807   1.823   4.429   5.102 -1.2061  0.3853  1.0764
 2598SOL     OW13808   5.047   4.894   0.114 -0.0815  0.6800 -0.2546
 2598SOL    HW113809   5.037   4.805   0.160  1.8220  0.3638 -0.3731
 2598SOL    HW213810   5.117   4.948   0.161 -0.0017  1.4371 -1.2117
 2599SOL     OW13811   5.925   5.069   6.361 -0.2533 -0.3772 -0.6762
 2599SOL    HW113812   5.974   5.156   6.354 -0.2943 -0.3289 -0.3870
 2599SOL    HW213813   5.960   5.018   6.440  2.2242 -2.1745 -2.7574
 2600SOL     OW13814   4.478   3.124   6.407 -0.0824  0.2435 -0.4014
 2600SOL    HW113815   4.391   3.129   6.456  0.7145  0.8393  1.0010
 2600SOL    HW213816   4.554   3.138   6.471  1.0701 -0.4997 -1.5484
 2601SOL     OW13817   4.547   1.433   0.688  0.1286  0.1830 -0.2093
 2601SOL    HW113818   4.485   1.360   0.716 -1.0510 -0.0425 -3.0145
 2601SOL    HW213819   4.630   1.394   0.648 -0.2025  0.3470 -1.0890
 2602SOL     OW13820   3.793   2.214   0.138 -0.7068  0.0424  0.0337
 2602SOL    HW113821   3.834   2.171   0.057  0.3027 -1.3925  1.2479
 2602SOL    HW213822   3.710   2.164   0.163  0.0494 -0.7828  0.9960
 2603SOL     OW13823   6.155   3.173   5.815 -0.0490  0.2528  0.6153
 2603SOL    HW113824   6.213   3.189   5.735 -0.7982  0.0270  0.0169
 2603SOL    HW213825   6.163   3.251   5.878  0.3958  0.5168  0.2400
 2604SOL     OW13826   1.731   0.538   6.082  0.1502  0.0993 -0.3377
 2604SOL    HW113827   1.669   0.617   6.092  0.2253 -0.0801  2.3948
 2604SOL    HW213828   1.677   0.458   6.056 -0.8364  0.0072  1.7332
 2605SOL     OW13829   0.675   6.050   5.691  0.0344 -0.5823  0.0441
 2605SOL    HW113830   0.679   6.146   5.665  0.2860 -0.7232 -0.4621
 2605SOL    HW213831   0.582   6.025   5.716  0.2339  0.1674  1.6715
 2606SOL     OW13832   1.923   1.138   6.568 -0.0809 -0.2495 -0.1464
 2606SOL    HW113833   1.855   1.207   6.593 -1.8522 -2.1414  0.5471
 2606SOL    HW213834   2.012   1.162   6.608 -0.5024  1.8475 -0.3621
 2607SOL     OW13835   0.967   0.424   0.169  0.7444 -0.5333  0.2505
 2607SOL    HW113836   0.898   0.462   0.107  0.9812  0.5003  0.5992
 2607SOL    HW213837   0.934   0.338   0.207  2.0760 -3.3619 -4.1847
 2608SOL     OW13838   2.331   1.722   6.549  0.6229  0.0579  0.5960
 2608SOL    HW113839   2.307   1.812   6.588  2.5537  0.4341  0.9957
 2608SOL    HW213840   2.371   1.665   6.620 -0.0567 -0.9311  0.2007
 2609SOL     OW13841   1.225   2.201   0.680  0.9096 -0.2422  0.1190
 2609SOL    HW113842   1.218   2.301   0.676  1.4728 -0.1986  0.1623
 2609SOL    HW213843   1.270   2.174   0.765  0.8826 -0.5260  0.0439
 2610SOL     OW13844   3.874   1.785   6.638  0.5900 -0.7525  0.0479
 2610SOL    HW113845   3.934   1.781   6.718 -0.5784 -0.0854  0.9888
 2610SOL    HW213846   3.784   1.818   6.665 -0.0463 -1.1705 -1.4374
 2611SOL     OW13847   1.765   5.103   5.322 -0.1163 -0.4323  0.1327
 2611SOL    HW113848   1.863   5.117   5.336 -0.0312 -0.4566 -0.4170
 2611SOL    HW213849   1.744   5.108   5.224 -0.7930  0.3544  0.3072
 2612SOL     OW13850   2.105   6.294   0.217 -0.1791  0.3191  0.0663
 2612SOL    HW113851   2.202   6.269   0.220  0.5102  2.2037 -2.5330
 2612SOL    HW213852   2.081   6.345   0.299  0.8257 -0.7382  1.0487
 2613SOL     OW13853   4.884   0.778   0.519  0.0173  0.1608 -0.0140
 2613SOL    HW113854   4.854   0.722   0.442 -1.3393  0.6151  0.1609
 2613SOL    HW213855   4.920   0.719   0.592 -0.9107 -0.4413 -0.0336
 2614SOL     OW13856   3.704   0.972   0.278  0.0001  0.0587  0.3697
 2614SOL    HW113857   3.763   1.045   0.244 -1.8977  1.2952 -0.4534
 2614SOL    HW213858   3.730   0.885   0.236  1.1285  0.5887 -0.0647
 2615SOL     OW13859   0.271   6.316   6.422 -0.1332  0.0625  0.4283
 2615SOL    HW113860   0.290   6.222   6.395 -1.7208 -0.3766  0.7466
 2615SOL    HW213861   0.273   6.375   6.342  3.0798  0.2242  0.4829
 2616SOL     OW13862   2.751   2.890   0.987  0.8685  0.2844  0.2644
 2616SOL    HW113863   2.728   2.968   0.929  0.3281  0.8086  1.1475
 2616SOL    HW213864   2.850   2.876   0.988  0.8578 -0.0919 -1.2042
 2617SOL     OW13865   2.711   4.698   0.681  0.0132 -0.3933  0.0011
 2617SOL    HW113866   2.768   4.703   0.763  0.9733  0.1981 -0.6792
 2617SOL    HW213867   2.730   4.612   0.634 -0.1594 -0.5044  0.1359
 2618SOL     OW13868   6.008   6.146   1.228  0.1360  0.2535  0.1086
 2618SOL    HW113869   5.959   6.101   1.302 -0.4931  0.3437 -0.2480
 2618SOL    HW213870   5.959   6.228   1.200  1.3767  1.2978  0.8910
 2619SOL     OW13871   1.090   5.392   6.633 -0.2766 -0.0301 -0.4217
 2619SOL    HW113872   1.043   5.359   6.551  0.7414 -1.4234 -0.4792
 2619SOL    HW213873   1.117   5.315   6.690  2.2848  0.6492 -0.5858
 2620SOL     OW13874   2.901   5.542   1.200  0.1616 -0.3513 -0.6946
 2620SOL    HW113875   2.823   5.587   1.156 -0.0238  0.1270  0.0858
 2620SOL    HW213876   2.891   5.550   1.299  1.2019 -0.2898 -0.5848
 2621SOL     OW13877   1.201   0.987   6.640 -0.1661 -0.6214 -0.8164
 2621SOL    HW113878   1.285   1.036   6.615 -0.0055 -0.2309  0.4347
 2621SOL    HW213879   1.127   1.053   6.654 -0.4037 -0.8817 -0.8407
 2622SOL     OW13880   0.415   1.062   1.044  0.2970  0.6487  0.6284
 2622SOL    HW113881   0.360   1.027   0.968  0.6342 -1.1122  1.1584
 2622SOL    HW213882   0.507   1.023   1.039  0.4941  0.9519  1.6258
 2623SOL     OW13883   5.991   3.595   6.664 -0.0773 -0.4499  1.0639
 2623SOL    HW113884   6.064   3.533   6.634  1.0577  0.5651  1.6709
 2623SOL    HW213885   5.967   3.575   6.759  0.0084 -0.2194  1.1340
 2624SOL     OW13886   0.558   5.019   5.137  0.1587 -0.6392 -0.1443
 2624SOL    HW113887   0.589   5.061   5.052 -0.4313 -0.1909 -0.1377
 2624SOL    HW213888   0.482   5.071   5.176  0.5327 -0.7295  0.7549
 2625SOL     OW13889   6.101   5.381   0.491  0.1581 -0.0741  0.3353
 2625SOL    HW113890   6.021   5.378   0.551  1.1876  0.3450  1.7845
 2625SOL    HW213891   6.180   5.344   0.540  0.7771 -0.8815 -1.2205
 2626SOL     OW13892   2.128   2.151   6.566 -0.3068  0.1206 -0.5142
 2626SOL    HW113893   2.065   2.223   6.592  1.4116  1.9933 -1.2805
 2626SOL    HW213894   2.115   2.128   6.470  0.3645  0.7207 -0.7513
 2627SOL     OW13895   3.850   3.141   6.018 -0.4047 -0.4485 -0.4605
 2627SOL    HW113896   3.815   3.184   5.935 -2.5925  2.6374  1.8229
 2627SOL    HW213897   3.900   3.208   6.072  0.3645 -2.1749  1.0650
 2628SOL     OW13898   3.319   5.424   0.714 -0.0218  0.0612  0.1256
 2628SOL    HW113899   3.329   5.355   0.785  2.8678  0.8419  0.6106
 2628SOL    HW213900   3.286   5.382   0.630 -0.1055 -1.5394  0.9273
 2629SOL     OW13901   5.916   1.240   1.110 -0.5649  0.2600  0.0903
 2629SOL    HW113902   5.990   1.261   1.175 -0.4240 -2.6551  1.0298
 2629SOL    HW213903   5.832   1.284   1.140 -0.1154  0.3071  1.3334
 2630SOL     OW13904   4.434   2.360   0.389  0.2267  0.0964 -0.9744
 2630SOL    HW113905   4.427   2.380   0.487  0.0175  0.4909 -1.0653
 2630SOL    HW213906   4.422   2.262   0.374 -1.4832  0.2354 -0.7516
 2631SOL     OW13907   3.382   0.665   0.043  0.0241 -0.4196 -0.2794
 2631SOL    HW113908   3.460   0.625  -0.005 -0.0164 -2.3109  1.0917
 2631SOL    HW213909   3.411   0.698   0.133 -0.4971  0.1651 -0.3147
 2632SOL     OW13910   3.769   5.984   6.651  0.3649  0.6710 -0.2978
 2632SOL    HW113911   3.781   5.900   6.704  2.9814  0.9620 -0.3114
 2632SOL    HW213912   3.700   6.042   6.695 -1.3185 -1.3261 -0.1556
 2633SOL     OW13913   1.765   4.711   0.577  0.7439  0.3678 -0.3622
 2633SOL    HW113914   1.759   4.802   0.537 -0.9529  0.3918 -0.1155
 2633SOL    HW213915   1.690   4.654   0.543  0.1819 -0.0959  1.5281
 2634SOL     OW13916   0.872   0.182   5.993 -0.9144  0.0040  0.2177
 2634SOL    HW113917   0.891   0.235   5.911 -0.5545  0.0001  0.2990
 2634SOL    HW213918   0.786   0.132   5.981 -0.9140  0.0837 -0.1154
 2635SOL     OW13919   0.487   1.565   6.576  0.3955 -0.7058 -0.0604
 2635SOL    HW113920   0.546   1.520   6.509  0.9282 -2.1730  1.3153
 2635SOL    HW213921   0.394   1.530   6.565 -0.2225  1.3130 -1.9667
 2636SOL     OW13922   4.571   2.179   6.454 -0.4740 -0.0552  0.0872
 2636SOL    HW113923   4.626   2.242   6.508  1.5354 -0.7750 -1.0248
 2636SOL    HW213924   4.510   2.231   6.394 -0.4877  0.7639  0.7947
 2637SOL     OW13925   0.874   2.184   0.734 -0.5657 -0.6915 -0.5173
 2637SOL    HW113926   0.810   2.180   0.658 -1.5171  0.0048  0.2271
 2637SOL    HW213927   0.934   2.264   0.723 -0.9239 -0.3991 -0.3773
 2638SOL     OW13928   3.473   0.299   0.315 -0.1280  0.5961 -0.4890
 2638SOL    HW113929   3.410   0.228   0.282  0.9282 -0.2658 -0.7304
 2638SOL    HW213930   3.429   0.388   0.311 -1.2479  0.0367 -0.8657
 2639SOL     OW13931   1.778   2.339   0.950  0.4266 -0.3515  0.1171
 2639SOL    HW113932   1.751   2.244   0.966 -1.1715 -0.5903 -3.1506
 2639SOL    HW213933   1.701   2.399   0.969  1.2031  0.2660  1.4422
 2640SOL     OW13934   1.055   1.936   0.882 -0.0465  0.0201 -0.1781
 2640SOL    HW113935   1.008   1.985   0.809  0.2002  0.7991  0.1778
 2640SOL    HW213936   1.081   1.845   0.850  2.4085  1.2429 -1.9750
 2641SOL     OW13937   3.536   3.982   1.479  0.1799 -0.4689 -0.5131
 2641SOL    HW113938   3.542   4.075   1.441  0.1734 -1.2278 -2.4661
 2641SOL    HW213939   3.618   3.963   1.533  0.3114  0.5606 -0.3148
 2642SOL     OW13940   3.810   3.108   1.448  0.2354  0.3114 -0.9042
 2642SOL    HW113941   3.908   3.123   1.446  0.4563 -0.8595 -0.1439
 2642SOL    HW213942   3.775   3.125   1.540  0.0037 -0.7198 -0.7835
 2643SOL     OW13943   1.237   6.096   1.027 -0.4285 -0.3600  0.1635
 2643SOL    HW113944   1.279   6.187   1.037 -2.2359  0.3530  2.1944
 2643SOL    HW213945   1.309   6.027   1.019  1.1785  0.8769  2.4854
 2644SOL     OW13946   3.652   2.070   4.989  0.4555  0.3391  0.6457
 2644SOL    HW113947   3.648   2.101   4.894 -1.4422 -0.9683  0.2212
 2644SOL    HW213948   3.734   2.106   5.033  3.7357 -2.3218 -2.6348
 2645SOL     OW13949   5.881   0.877   6.155  0.4757  0.0658  0.1033
 2645SOL    HW113950   5.858   0.792   6.107 -0.5185  0.3957 -0.0326
 2645SOL    HW213951   5.948   0.858   6.226  0.6926 -0.7326 -0.3034
 2646SOL     OW13952   3.149   0.630   0.740 -0.6408  0.5957  0.0696
 2646SOL    HW113953   3.166   0.531   0.744 -3.0562  0.1512  0.8733
 2646SOL    HW213954   3.081   0.655   0.808  1.7793  3.3175  1.7156
 2647SOL     OW13955   2.023   0.503   0.126 -0.0288 -0.2399  0.8478
 2647SOL    HW113956   1.994   0.423   0.177  0.2629 -0.8121  0.1257
 2647SOL    HW213957   2.087   0.557   0.181 -0.9838  0.0336  1.7199
 2648SOL     OW13958   1.508   3.881   4.524 -0.2720 -0.0557  0.3555
 2648SOL    HW113959   1.567   3.960   4.544  0.2977  0.0668 -1.5942
 2648SOL    HW213960   1.450   3.902   4.445 -0.0345 -1.6168 -0.2717
 2649SOL     OW13961   6.217   0.436   5.466  0.4147 -0.2657  0.2184
 2649SOL    HW113962   6.203   0.490   5.383 -1.9162 -0.6778  0.2849
 2649SOL    HW213963   6.203   0.339   5.446  1.8729 -0.5975  0.6868
 2650SOL     OW13964   2.255   1.622   5.211  0.7934 -0.3541  0.5695
 2650SOL    HW113965   2.160   1.605   5.238  0.6219  2.4035  2.0235
 2650SOL    HW213966   2.269   1.590   5.117 -0.6307 -3.6926  1.3432
 2651SOL     OW13967   2.499   4.727   6.255  0.1620 -0.1787 -0.0700
 2651SOL    HW113968   2.508   4.628   6.260  0.0488 -0.1738  0.2440
 2651SOL    HW213969   2.577   4.765   6.203 -0.8193 -0.5956 -1.9381
 2652SOL     OW13970   2.860   5.251   1.165  0.1471 -0.1739 -0.3943
 2652SOL    HW113971   2.870   5.350   1.160 -1.1978 -0.0261 -0.5007
 2652SOL    HW213972   2.773   5.228   1.208 -0.3420 -1.2928 -1.8682
 2653SOL     OW13973   2.569   1.873   2.082 -0.0258 -0.1605 -0.1949
 2653SOL    HW113974   2.601   1.783   2.052  0.0017 -0.1651 -0.1514
 2653SOL    HW213975   2.476   1.865   2.118  0.0712 -0.2174  0.0481
 2654SOL     OW13976   3.554   3.004   0.498  0.3749  0.2552 -0.4855
 2654SOL    HW113977   3.612   3.045   0.428  0.5238  2.1810  0.6961
 2654SOL    HW213978   3.596   3.015   0.588 -0.4232 -1.0130  0.0842
 2655SOL     OW13979   0.048   2.980   6.033 -0.2281 -0.4478 -0.4215
 2655SOL    HW113980   0.144   2.994   6.056  0.1612 -1.0415 -1.5879
 2655SOL    HW213981   0.014   3.058   5.980  0.4416 -1.4296 -2.4048
 2656SOL     OW13982   5.754   5.897   5.650  0.1432 -0.0500 -0.3922
 2656SOL    HW113983   5.802   5.922   5.734  3.1210 -1.9090 -1.3908
 2656SOL    HW213984   5.770   5.967   5.580  1.7549 -0.7510 -0.7827
 2657SOL     OW13985   2.236   3.114   0.147 -0.0954 -0.2822 -0.1361
 2657SOL    HW113986   2.233   3.155   0.238  2.4970 -1.3933  0.5442
 2657SOL    HW213987   2.143   3.104   0.112 -1.0132  3.0574  0.9947
 2658SOL     OW13988   3.959   4.997   1.229 -0.2278  0.0826 -0.1336
 2658SOL    HW113989   3.879   4.940   1.247  0.4013 -0.8465 -0.2076
 2658SOL    HW213990   3.984   5.046   1.312 -0.4116 -0.2146  0.1007
 2659SOL     OW13991   4.706   0.869   1.217  0.3747  0.0694 -0.3841
 2659SOL    HW113992   4.744   0.857   1.309  0.4333  2.9285  0.0811
 2659SOL    HW213993   4.750   0.949   1.174  0.3457 -1.1826 -2.9248
 2660SOL     OW13994   2.904   0.049   6.654  0.0349 -0.5581 -0.1350
 2660SOL    HW113995   2.974   0.034   6.724 -1.0663 -1.4299  0.8447
 2660SOL    HW213996   2.817   0.010   6.686 -1.0071  0.8541 -1.1232
 2661SOL     OW13997   1.439   4.777   1.377 -0.3437  0.6889 -0.3970
 2661SOL    HW113998   1.502   4.849   1.408  0.3392 -0.5110  1.1830
 2661SOL    HW213999   1.457   4.693   1.429 -1.3921 -0.5173 -1.8977
 2662SOL     OW14000   1.918   0.115   0.108 -0.3022 -0.5526 -0.1062
 2662SOL    HW114001   1.990   0.049   0.129 -0.1679 -0.8352 -1.4121
 2662SOL    HW214002   1.916   0.185   0.180  0.5562 -1.1289  0.5017
 2663SOL     OW14003   3.701   3.652   0.243 -0.0542 -0.2693  0.1906
 2663SOL    HW114004   3.757   3.649   0.326 -1.0359 -1.3429  0.8598
 2663SOL    HW214005   3.715   3.568   0.191  1.2141  0.7687 -1.2274
 2664SOL     OW14006   2.835   5.146   0.493 -0.4132  0.4884 -0.2199
 2664SOL    HW114007   2.830   5.066   0.433  1.2402  2.2851 -2.9950
 2664SOL    HW214008   2.781   5.220   0.454 -2.2209  0.7166  2.4967
 2665SOL     OW14009   0.739   3.685   0.355 -0.1510 -0.0350 -0.2759
 2665SOL    HW114010   0.758   3.745   0.277  2.3895 -1.2038 -0.6526
 2665SOL    HW214011   0.825   3.661   0.401 -1.3002 -1.6684  1.1648
 2666SOL     OW14012   0.663   0.277   1.333 -0.0229 -0.6018 -0.2037
 2666SOL    HW114013   0.743   0.289   1.391  1.6083 -2.2967 -1.9717
 2666SOL    HW214014   0.618   0.366   1.320  0.9580  0.2186  1.5861
 2667SOL     OW14015   4.524   4.258   6.675  0.6666  0.0148  0.3287
 2667SOL    HW114016   4.586   4.315   6.729  0.4484  0.6816 -0.1127
 2667SOL    HW214017   4.468   4.316   6.616  0.7788 -0.6920 -0.4905
 2668SOL     OW14018   0.869   5.946   1.274  0.1797 -0.3295  0.2092
 2668SOL    HW114019   0.817   5.877   1.223 -2.0531  1.1558  0.3212
 2668SOL    HW214020   0.877   5.917   1.370  0.4159 -1.0454 -0.0254
 2669SOL     OW14021   3.956   5.897   1.906 -0.2896  0.4524 -0.0162
 2669SOL    HW114022   4.030   5.896   1.973 -0.3435  1.5000  0.0692
 2669SOL    HW214023   3.893   5.972   1.926 -0.5510  0.4988 -0.9649
 2670SOL     OW14024   2.213   2.028   4.939  0.0060  0.7276  0.5139
 2670SOL    HW114025   2.169   2.090   4.873  0.5554  2.3014  1.5471
 2670SOL    HW214026   2.293   2.074   4.979  1.6214 -1.4366 -0.1069
 2671SOL     OW14027   3.737   3.274   0.621  0.4014 -0.0041  0.3367
 2671SOL    HW114028   3.832   3.250   0.599  0.1306 -0.3734 -0.4729
 2671SOL    HW214029   3.705   3.343   0.556  0.1053  0.0950  0.5893
 2672SOL     OW14030   3.761   4.930   6.406 -0.0380 -0.1063 -0.2326
 2672SOL    HW114031   3.747   5.027   6.427  1.9447 -0.0118  0.8553
 2672SOL    HW214032   3.751   4.916   6.307 -0.8824  1.0737 -0.3436
 2673SOL     OW14033   3.607   5.897   0.987 -0.5008  0.6439 -0.0623
 2673SOL    HW114034   3.629   5.935   1.077  0.9304  2.2589 -1.0552
 2673SOL    HW214035   3.670   5.823   0.966  1.7474  2.7693 -1.2825
 2674SOL     OW14036   1.120   1.936   0.568  0.4821 -0.7473  0.0858
 2674SOL    HW114037   1.171   1.936   0.482  1.1805  0.1287  0.4874
 2674SOL    HW214038   1.137   2.021   0.618 -2.6076  0.2794 -0.4465
 2675SOL     OW14039   2.052   4.138   0.993  0.7020  0.0838 -0.6533
 2675SOL    HW114040   2.141   4.174   1.023  0.0276  0.6667  0.7237
 2675SOL    HW214041   2.047   4.040   1.014  0.9795  0.0760 -0.6194
 2676SOL     OW14042   1.372   2.991   5.804 -0.5390  0.3666 -0.3032
 2676SOL    HW114043   1.326   2.949   5.726  0.8547 -1.2085 -0.3206
 2676SOL    HW214044   1.453   3.039   5.772 -1.2916  1.8567 -0.0847
 2677SOL     OW14045   0.091   5.904   0.781  0.8494  0.0717 -0.0269
 2677SOL    HW114046   0.067   5.973   0.850 -0.3656  1.4462 -1.7265
 2677SOL    HW214047   0.187   5.913   0.756  0.2011  2.9617 -2.0013
 2678SOL     OW14048   5.740   3.833   5.277  0.3663  0.4759 -0.3314
 2678SOL    HW114049   5.713   3.862   5.185  0.3074 -2.0231 -1.1672
 2678SOL    HW214050   5.839   3.819   5.281  0.4753  1.3002  0.2415
 2679SOL     OW14051   6.009   0.755   5.142  0.3278  0.2162  0.0202
 2679SOL    HW114052   6.011   0.851   5.114  1.7254 -0.1640 -1.3107
 2679SOL    HW214053   5.961   0.700   5.074  0.1527 -0.1530  0.4288
 2680SOL     OW14054   0.571   3.214   4.761  0.0334 -0.4752  0.8187
 2680SOL    HW114055   0.527   3.298   4.794  1.7527  0.1633  1.6111
 2680SOL    HW214056   0.501   3.152   4.725 -1.3473  1.0674  0.6797
 2681SOL     OW14057   0.105   0.287   0.778 -0.4143 -0.8637 -0.4563
 2681SOL    HW114058   0.013   0.288   0.819  0.0119 -0.2227  0.5232
 2681SOL    HW214059   0.173   0.286   0.851  0.3752 -0.3931 -1.1768
 2682SOL     OW14060   0.188   2.501   0.762  0.2175  0.6177  0.7674
 2682SOL    HW114061   0.117   2.458   0.706  0.0416  0.7731  0.8705
 2682SOL    HW214062   0.278   2.480   0.723  0.1220  0.3256  0.7033
 2683SOL     OW14063   3.291   0.649   5.813 -0.2271 -0.7144  0.0968
 2683SOL    HW114064   3.206   0.597   5.822 -0.5903 -0.0327  0.7229
 2683SOL    HW214065   3.312   0.694   5.900 -1.0039  1.8020 -0.9085
 2684SOL     OW14066   5.133   4.578   6.565 -0.3893 -0.5185 -0.2707
 2684SOL    HW114067   5.197   4.636   6.616 -1.0867 -1.3708  1.6980
 2684SOL    HW214068   5.183   4.520   6.502  0.7362 -0.7213  0.7714
 2685SOL     OW14069   4.042   0.826   0.709  0.3773  0.7162  0.0435
 2685SOL    HW114070   4.058   0.890   0.635  1.0273  0.8749  0.3113
 2685SOL    HW214071   4.123   0.823   0.769 -0.7572  1.8903  1.7277
 2686SOL     OW14072   5.681   2.268   1.059  0.4072  0.0636 -0.0982
 2686SOL    HW114073   5.647   2.349   1.106  1.7851  0.2536  0.6010
 2686SOL    HW214074   5.720   2.204   1.125  0.1077 -0.8002 -0.7303
 2687SOL     OW14075   4.837   6.196   1.857 -0.1898  0.3727  0.4396
 2687SOL    HW114076   4.744   6.213   1.890  0.0055  0.3318  1.0126
 2687SOL    HW214077   4.844   6.103   1.821 -0.5109  0.5524 -0.1001
 2688SOL     OW14078   5.928   2.348   0.380  0.0580  0.8207 -0.3467
 2688SOL    HW114079   5.838   2.391   0.378 -0.5227  0.0239  2.9150
 2688SOL    HW214080   5.927   2.265   0.323 -1.0206  1.1772 -0.8829
 2689SOL     OW14081   1.261   5.023   0.282  0.1482 -0.4255 -0.1412
 2689SOL    HW114082   1.338   5.055   0.336  0.0289 -0.2378 -0.0802
 2689SOL    HW214083   1.268   4.924   0.268 -1.3075 -1.0302  2.6454
 2690SOL     OW14084   0.669   4.269   5.578 -0.3520 -0.1693 -0.9877
 2690SOL    HW114085   0.690   4.261   5.480 -0.5124 -1.9059 -0.9227
 2690SOL    HW214086   0.752   4.254   5.631 -0.7270 -1.9532 -0.8367
 2691SOL     OW14087   1.481   6.196   0.682  0.4622 -0.5178  0.4665
 2691SOL    HW114088   1.505   6.202   0.779 -0.8095 -0.8805  0.8258
 2691SOL    HW214089   1.530   6.266   0.631 -0.8543  1.4754  1.7923
 2692SOL     OW14090   0.673   1.580   5.822 -0.4724 -0.1039 -0.2142
 2692SOL    HW114091   0.577   1.580   5.848 -0.4232 -0.8805 -0.0123
 2692SOL    HW214092   0.730   1.598   5.902 -0.3152 -2.6176  0.3205
 2693SOL     OW14093   0.470   4.503   6.268 -0.6301  0.1482 -0.5112
 2693SOL    HW114094   0.462   4.574   6.339  0.4093 -0.2754  0.0426
 2693SOL    HW214095   0.397   4.436   6.280 -1.2857  0.8118 -0.6953
 2694SOL     OW14096   5.812   2.644   6.202  0.0800  0.4560 -0.2182
 2694SOL    HW114097   5.842   2.726   6.153  1.2704 -0.8281 -1.7702
 2694SOL    HW214098   5.728   2.609   6.160 -0.6061  1.0279  0.6455
 2695SOL     OW14099   4.008   3.532   6.626  0.5357 -0.4648 -0.0214
 2695SOL    HW114100   3.957   3.603   6.675  0.0984  0.3501 -1.5675
 2695SOL    HW214101   4.081   3.575   6.572  0.0746 -1.1344 -1.2182
 2696SOL     OW14102   0.599   5.008   0.703  0.1274  0.1333 -0.2391
 2696SOL    HW114103   0.522   5.017   0.639 -0.6946  0.4379  0.7629
 2696SOL    HW214104   0.594   4.920   0.749  0.5108  0.0678 -0.3191
 2697SOL     OW14105   0.409   0.970   0.393 -0.0638 -0.3168  0.1583
 2697SOL    HW114106   0.324   1.009   0.429 -1.1826 -1.0906 -1.5192
 2697SOL    HW214107   0.473   1.044   0.371 -0.6184  0.3311  0.6706
 2698SOL     OW14108   3.115   5.816   5.537  0.7455 -0.5429 -0.0732
 2698SOL    HW114109   3.197   5.804   5.481  1.5080  0.3090  0.8151
 2698SOL    HW214110   3.114   5.909   5.574  0.1125 -1.0041  1.0935
 2699SOL     OW14111   2.388   2.784   5.708  0.1329  0.1686 -0.3085
 2699SOL    HW114112   2.418   2.691   5.728  0.0130  0.2189  0.1178
 2699SOL    HW214113   2.393   2.839   5.792  2.3426  1.1359 -0.9972
 2700SOL     OW14114   0.662   0.807   0.713 -0.1787  0.1792 -0.0690
 2700SOL    HW114115   0.749   0.849   0.740  0.0352 -1.2488  1.5894
 2700SOL    HW214116   0.587   0.870   0.733  0.1519 -0.0724  2.1425
 2701SOL     OW14117   3.521   1.344   0.238  0.4222 -0.2914 -0.2343
 2701SOL    HW114118   3.494   1.362   0.332  1.7246 -0.5809  0.2088
 2701SOL    HW214119   3.446   1.301   0.189  0.1545 -1.2911  1.0178
 2702SOL     OW14120   0.167   5.652   5.889  0.0761  0.3646  0.6634
 2702SOL    HW114121   0.238   5.593   5.927  0.2297 -1.3379 -1.9729
 2702SOL    HW214122   0.210   5.729   5.842  0.3327 -0.8219 -1.1881
 2703SOL     OW14123   5.730   4.928   5.263  0.1728 -0.7151 -0.1648
 2703SOL    HW114124   5.818   4.882   5.249  0.6448  0.3975 -1.0047
 2703SOL    HW214125   5.708   4.982   5.182 -1.4282 -1.1838 -0.0736
 2704SOL     OW14126   2.240   3.355   6.248 -0.1328 -0.1716  0.1035
 2704SOL    HW114127   2.277   3.350   6.155 -0.6655  2.5107 -0.3342
 2704SOL    HW214128   2.185   3.273   6.266 -0.8943 -0.2947 -2.3596
 2705SOL     OW14129   4.097   0.764   0.004  0.4321  0.2961  0.3372
 2705SOL    HW114130   4.090   0.692   0.073  0.2415  0.4980  0.5333
 2705SOL    HW214131   4.050   0.846   0.037  0.0247  0.2782 -0.1867
 2706SOL     OW14132   0.509   5.930   5.415 -0.2629 -0.2190  0.0190
 2706SOL    HW114133   0.471   6.022   5.413  0.9564  0.3098 -0.5411
 2706SOL    HW214134   0.500   5.888   5.324 -0.0751 -0.3176  0.0436
 2707SOL     OW14135   5.221   1.582   6.072 -0.0428  0.3788 -0.2444
 2707SOL    HW114136   5.206   1.627   6.160  1.5261  0.6028 -0.0661
 2707SOL    HW214137   5.133   1.556   6.033 -1.0013  2.9610 -0.0197
 2708SOL     OW14138   6.093   3.544   5.707 -0.1805 -0.5746 -0.2193
 2708SOL    HW114139   6.067   3.454   5.670  0.2909 -0.5634 -0.5981
 2708SOL    HW214140   6.033   3.614   5.668  0.1743 -0.5899 -0.8170
 2709SOL     OW14141   2.678   1.722   6.396  0.3755 -0.4765 -0.0512
 2709SOL    HW114142   2.581   1.739   6.377  0.5061 -0.2599 -0.5240
 2709SOL    HW214143   2.703   1.631   6.364  0.2429 -0.6704  0.3908
 2710SOL     OW14144   2.824   2.741   6.002  0.3681  0.5499  0.2380
 2710SOL    HW114145   2.919   2.712   5.985 -0.0069 -1.6707  1.4957
 2710SOL    HW214146   2.775   2.667   6.049 -2.4755  0.9845 -1.7903
 2711SOL     OW14147   0.277   0.339   0.061 -0.3479  0.8529  0.5775
 2711SOL    HW114148   0.315   0.281  -0.011 -2.4743 -0.8720  0.7524
 2711SOL    HW214149   0.350   0.366   0.124  1.2302  0.9041 -1.1848
 2712SOL     OW14150   1.054   2.996   5.790  0.8821 -0.5617  0.3055
 2712SOL    HW114151   1.074   3.089   5.822  1.9122 -0.9689  0.8924
 2712SOL    HW214152   0.973   2.961   5.838  0.0736  0.2497 -0.4028
 2713SOL     OW14153   1.819   1.466   5.547 -0.2473  0.1272  0.1519
 2713SOL    HW114154   1.814   1.426   5.456  0.1436 -1.8739  0.9367
 2713SOL    HW214155   1.729   1.461   5.591  0.2724 -2.4017  1.1571
 2714SOL     OW14156   2.490   6.233   1.305  0.1118  0.0105  0.2245
 2714SOL    HW114157   2.564   6.299   1.318  0.5109 -0.0882 -1.2949
 2714SOL    HW214158   2.444   6.216   1.392  1.1466  0.9320  0.9768
 2715SOL     OW14159   1.227   5.761   5.997 -0.3374  0.0195 -0.3008
 2715SOL    HW114160   1.268   5.753   6.088 -1.3521 -2.8571  0.0186
 2715SOL    HW214161   1.257   5.684   5.940 -0.6177  1.1472 -2.0510
 2716SOL     OW14162   1.619   3.366   1.211 -0.2611  0.2746  0.0730
 2716SOL    HW114163   1.671   3.437   1.257  1.9020 -1.0871 -0.0872
 2716SOL    HW214164   1.593   3.295   1.277  0.4445 -0.3333 -0.2782
 2717SOL     OW14165   3.995   3.359   6.135  0.7461  0.3550  0.4033
 2717SOL    HW114166   4.082   3.329   6.095  1.1875 -0.7211  2.0497
 2717SOL    HW214167   4.011   3.438   6.195  0.4637  0.6083  0.1485
 2718SOL     OW14168   0.870   2.163   1.006  0.1646 -0.0402 -0.0139
 2718SOL    HW114169   0.968   2.149   1.020 -0.0152 -2.3900 -0.6914
 2718SOL    HW214170   0.849   2.158   0.909 -0.8675 -1.6836  0.2555
 2719SOL     OW14171   2.020   1.786   0.164  0.1420  0.4943 -0.6410
 2719SOL    HW114172   1.965   1.728   0.224 -0.0397  0.7245 -0.5806
 2719SOL    HW214173   2.055   1.732   0.088 -0.9321  0.5289 -1.1857
 2720SOL     OW14174   4.938   2.585   0.207 -0.2079 -0.4777  0.6659
 2720SOL    HW114175   4.897   2.529   0.135  0.8360  0.0303 -0.3626
 2720SOL    HW214176   4.995   2.527   0.264  0.5630 -0.5663 -0.1630
 2721SOL     OW14177   4.166   4.193   0.613 -0.0026  0.8303  0.0092
 2721SOL    HW114178   4.119   4.126   0.670  1.6826 -0.1539  0.3051
 2721SOL    HW214179   4.199   4.148   0.530  0.7610  1.4029 -0.0041
 2722SOL     OW14180   0.950   2.913   0.387 -0.0345  1.0902  0.3123
 2722SOL    HW114181   0.906   2.884   0.302 -0.0144 -0.6566  0.8452
 2722SOL    HW214182   1.036   2.960   0.366  1.2098 -1.4083 -0.6576
 2723SOL     OW14183   1.218   0.568   0.193  0.0361 -0.5847  0.2666
 2723SOL    HW114184   1.299   0.510   0.189 -0.6350 -1.6482  1.4494
 2723SOL    HW214185   1.137   0.511   0.178 -0.5680  0.2374  0.4050
 2724SOL     OW14186   4.650   2.161   4.857  0.3365  0.4936  0.3246
 2724SOL    HW114187   4.607   2.245   4.889  1.1746  1.2414 -0.4348
 2724SOL    HW214188   4.604   2.129   4.774 -0.4080 -0.1892  0.9848
 2725SOL     OW14189   6.060   0.849   6.358  0.3615 -0.0818  0.0319
 2725SOL    HW114190   6.025   0.901   6.436 -1.4398 -0.9015 -0.1918
 2725SOL    HW214191   6.132   0.788   6.390  1.5383  1.4890  0.5432
 2726SOL     OW14192   3.404   3.096   6.366 -0.2309 -0.5132  0.2823
 2726SOL    HW114193   3.344   3.023   6.335  2.2179 -1.7143 -2.0992
 2726SOL    HW214194   3.416   3.091   6.465 -1.9005 -1.8751  0.4445
 2727SOL     OW14195   4.188   6.078   0.515 -0.1480 -0.0157 -0.0532
 2727SOL    HW114196   4.114   6.141   0.538 -0.6587 -0.3200 -0.8148
 2727SOL    HW214197   4.155   6.010   0.449  0.0642 -1.7333  1.5086
 2728SOL     OW14198   2.395   4.461   4.713 -0.4072  0.1268  0.5269
 2728SOL    HW114199   2.402   4.547   4.662 -1.0187 -0.4612 -0.5901
 2728SOL    HW214200   2.445   4.389   4.664 -1.3260 -0.5421  0.5509
 2729SOL     OW14201   2.091   5.057   0.530  0.1351  0.3384 -0.2500
 2729SOL    HW114202   2.176   5.015   0.497 -0.6279 -0.3737 -1.3378
 2729SOL    HW214203   2.042   4.992   0.589  0.1974  0.6457  0.1450
 2730SOL     OW14204   4.459   0.254   0.429  0.7230  0.0075  0.2820
 2730SOL    HW114205   4.545   0.232   0.475  0.8768  1.4017  0.7141
 2730SOL    HW214206   4.403   0.313   0.489  0.7244  1.4753 -1.0849
 2731SOL     OW14207   5.999   0.136   6.279  0.5052 -0.0730  0.0909
 2731SOL    HW114208   5.981   0.038   6.266 -1.5806  0.2309  0.2446
 2731SOL    HW214209   6.057   0.169   6.205 -0.0567 -1.1320 -0.8637
 2732SOL     OW14210   3.820   0.683   0.630 -0.7773  0.0676  0.2246
 2732SOL    HW114211   3.892   0.730   0.680 -0.5826 -0.3782  0.3694
 2732SOL    HW214212   3.836   0.584   0.632 -0.9321  0.0178 -0.4585
 2733SOL     OW14213   6.220   2.311   1.401 -0.0472 -0.0370  0.6610
 2733SOL    HW114214   6.145   2.261   1.443  0.0506 -0.1616  0.6883
 2733SOL    HW214215   6.279   2.349   1.472  1.0243 -1.6083  0.6526
 2734SOL     OW14216   2.175   4.840   5.148 -0.1014 -0.1893  0.4028
 2734SOL    HW114217   2.244   4.911   5.133  0.3636 -0.8401 -0.5863
 2734SOL    HW214218   2.181   4.808   5.243 -0.5242  1.2898  0.9584
 2735SOL     OW14219   2.372   1.229   6.328 -0.1626 -0.4803  0.0561
 2735SOL    HW114220   2.398   1.133   6.343 -1.6797 -1.2462 -1.8631
 2735SOL    HW214221   2.299   1.253   6.392  1.4186 -0.0002  1.7568
 2736SOL     OW14222   4.513   4.688   6.480  0.6593 -0.1994 -0.3193
 2736SOL    HW114223   4.539   4.723   6.570 -1.1091 -0.2897  0.2753
 2736SOL    HW214224   4.475   4.596   6.490 -0.3151  0.1116 -1.0308
 2737SOL     OW14225   6.228   2.341   6.174 -0.2125 -0.6277 -0.4886
 2737SOL    HW114226   6.270   2.254   6.149  0.4366 -0.1643 -1.0527
 2737SOL    HW214227   6.132   2.327   6.194 -0.0183 -1.5451 -0.1649
 2738SOL     OW14228   3.414   0.063   5.936  0.6937 -0.2594  0.3505
 2738SOL    HW114229   3.347   0.112   5.993  0.6801 -0.7758  0.7956
 2738SOL    HW214230   3.456  -0.010   5.991  0.3117 -1.1009 -0.4415
 2739SOL     OW14231   4.612   4.223   0.837 -0.0170  0.2277 -0.1620
 2739SOL    HW114232   4.515   4.244   0.849 -0.7963 -2.2069 -1.5419
 2739SOL    HW214233   4.644   4.171   0.917  1.1268  3.6188  1.8241
 2740SOL     OW14234   5.347   5.089   0.453 -0.5392  0.0964 -0.5158
 2740SOL    HW114235   5.259   5.113   0.413  0.0279 -1.5925 -2.9673
 2740SOL    HW214236   5.421   5.113   0.390  0.6369 -0.1528  0.7093
 2741SOL     OW14237   2.625   4.405   1.433 -0.2128  0.6139 -0.1397
 2741SOL    HW114238   2.635   4.409   1.533 -1.5701 -1.7905  0.1687
 2741SOL    HW214239   2.637   4.497   1.395 -0.1580  1.6940  2.2633
 2742SOL     OW14240   5.493   5.457   6.019 -0.3240  0.1587 -0.3452
 2742SOL    HW114241   5.513   5.364   5.989  0.8835  0.0359  0.7695
 2742SOL    HW214242   5.508   5.464   6.117  0.9103  1.8624 -0.6133
 2743SOL     OW14243   3.784   5.482   5.415 -0.5443  0.1167  0.8579
 2743SOL    HW114244   3.776   5.468   5.316 -3.2089 -0.4933  1.0833
 2743SOL    HW214245   3.879   5.504   5.438  0.1533  0.2504 -1.8078
 2744SOL     OW14246   0.140   5.538   0.005  0.1977  0.1464  0.4192
 2744SOL    HW114247   0.094   5.547   0.093  0.2349 -0.1966  0.4751
 2744SOL    HW214248   0.224   5.592   0.005 -0.3073  0.9680  0.2370
 2745SOL     OW14249   5.005   1.823   1.189 -0.7328 -0.1646  0.4923
 2745SOL    HW114250   4.916   1.818   1.233 -0.5817 -1.4122  0.7086
 2745SOL    HW214251   5.071   1.867   1.250 -1.2062  0.8219  0.3010
 2746SOL     OW14252   3.519   0.421   5.746  0.3396 -0.1825  0.0896
 2746SOL    HW114253   3.453   0.365   5.695 -0.0308  1.4432 -1.2902
 2746SOL    HW214254   3.473   0.502   5.783  1.3372  0.4201  0.0408
 2747SOL     OW14255   5.310   4.630   0.287 -0.4799 -0.6478  0.2395
 2747SOL    HW114256   5.321   4.701   0.357  0.9162  1.9233 -2.3572
 2747SOL    HW214257   5.399   4.590   0.265 -1.0443 -2.1775  0.5668
 2748SOL     OW14258   2.693   5.706   5.626 -0.4131 -0.1882 -0.1913
 2748SOL    HW114259   2.712   5.726   5.722  0.8811  0.0370 -0.4693
 2748SOL    HW214260   2.764   5.747   5.569 -1.1238 -0.3802 -1.2433
 2749SOL     OW14261   5.511   3.698   5.704  0.1423 -0.6459 -0.6807
 2749SOL    HW114262   5.466   3.663   5.622  0.1728  0.4119 -1.1617
 2749SOL    HW214263   5.477   3.789   5.725  1.6678 -0.0297 -0.7525
 2750SOL     OW14264   1.149   2.577   0.327 -0.0787  0.2123 -0.7875
 2750SOL    HW114265   1.181   2.506   0.264  0.1521  1.2331 -1.8589
 2750SOL    HW214266   1.206   2.659   0.316 -0.6278  0.7256  0.0978
 2751SOL     OW14267   5.217   3.560   1.048 -0.5957 -0.3244 -0.3828
 2751SOL    HW114268   5.272   3.534   0.969 -1.4057  0.5181 -1.2607
 2751SOL    HW214269   5.171   3.647   1.028 -1.2060 -0.3612  0.8251
 2752SOL     OW14270   4.870   5.262   6.445  0.2948 -0.1468 -0.1645
 2752SOL    HW114271   4.924   5.249   6.361 -1.4014  0.2412 -1.3719
 2752SOL    HW214272   4.773   5.265   6.422 -0.3140 -1.2455  1.9879
 2753SOL     OW14273   5.915   4.833   6.225  0.3287 -0.2890  0.0074
 2753SOL    HW114274   5.984   4.784   6.279  0.5226 -0.9850 -0.8411
 2753SOL    HW214275   5.891   4.918   6.271 -0.1487 -1.2514  1.6175
 2754SOL     OW14276   2.428   4.828   2.100 -0.3500  0.1808 -0.7932
 2754SOL    HW114277   2.366   4.777   2.039  1.4784 -1.9700 -1.0097
 2754SOL    HW214278   2.432   4.783   2.189 -2.1440  2.6692  0.6515
 2755SOL     OW14279   5.258   5.820   0.342 -0.2008  0.7320 -0.2158
 2755SOL    HW114280   5.165   5.805   0.373  0.2658  0.4879  1.1408
 2755SOL    HW214281   5.301   5.732   0.319  0.2228  0.6625  0.7937
 2756SOL     OW14282   3.167   3.326   0.197  0.8203 -0.0343 -0.0526
 2756SOL    HW114283   3.168   3.235   0.238  0.2805 -0.2841 -0.5853
 2756SOL    HW214284   3.073   3.356   0.182  1.0033  0.2853 -0.5985
 2757SOL     OW14285   4.296   0.696   1.920 -0.0518  0.6051  0.2538
 2757SOL    HW114286   4.383   0.666   1.959  0.5575  1.2391 -0.5599
 2757SOL    HW214287   4.255   0.766   1.980  0.5410  1.0856  0.1118
 2758SOL     OW14288   3.093   1.582   1.496 -0.0890  0.5592 -0.3553
 2758SOL    HW114289   3.003   1.615   1.469 -0.5927 -1.2004 -0.9185
 2758SOL    HW214290   3.084   1.506   1.559  0.9372 -0.7185 -1.6729
 2759SOL     OW14291   3.814   5.150   0.431  0.4768  0.1275 -0.1993
 2759SOL    HW114292   3.830   5.101   0.517 -0.0776  0.2564 -0.0233
 2759SOL    HW214293   3.793   5.085   0.358  1.0917  0.0072 -0.2740
 2760SOL     OW14294   0.005   5.199   0.862  0.1563  0.1756 -0.1833
 2760SOL    HW114295   0.037   5.144   0.939  2.1679  0.5294 -0.7228
 2760SOL    HW214296  -0.095   5.200   0.862  0.0903 -1.3228  1.3408
 2761SOL     OW14297   3.730   0.548   0.944 -0.2179 -0.3345  0.3039
 2761SOL    HW114298   3.779   0.635   0.935 -1.2321  0.1498 -0.7420
 2761SOL    HW214299   3.772   0.494   1.017  2.1686 -0.1404 -0.8228
 2762SOL     OW14300   3.174   2.101   6.116 -0.4588 -0.3461 -0.0067
 2762SOL    HW114301   3.109   2.141   6.052 -0.0125  1.4237  0.5924
 2762SOL    HW214302   3.262   2.088   6.072 -0.7552 -1.2117 -0.3581
 2763SOL     OW14303   1.262   3.975   0.606  0.1515 -0.1811  0.2244
 2763SOL    HW114304   1.252   3.963   0.704 -2.1608  0.7818  0.1725
 2763SOL    HW214305   1.342   4.033   0.587 -0.2458  0.8797  1.6504
 2764SOL     OW14306   6.234   2.323   1.001  0.3827 -0.3029  0.5563
 2764SOL    HW114307   6.207   2.262   1.077  3.1878 -0.1409  1.8167
 2764SOL    HW214308   6.325   2.360   1.020 -0.1720  2.2950 -1.4335
 2765SOL     OW14309   5.502   1.371   5.701 -0.4690 -0.2747 -0.4602
 2765SOL    HW114310   5.458   1.296   5.651 -1.4073 -1.2914  1.7325
 2765SOL    HW214311   5.451   1.455   5.688 -3.4053 -1.4557  2.1734
 2766SOL     OW14312   0.097   4.014   5.962 -0.1748 -0.0079 -0.0375
 2766SOL    HW114313   0.021   3.951   5.943  0.8516 -0.6542 -2.2454
 2766SOL    HW214314   0.120   4.065   5.879  1.1319  0.9411  0.8715
 2767SOL     OW14315   3.127   5.867   5.007 -0.7033 -0.0244 -0.4795
 2767SOL    HW114316   3.211   5.838   5.054  1.2061  0.5941 -3.3053
 2767SOL    HW214317   3.083   5.788   4.965 -0.2165 -0.0283 -0.9859
 2768SOL     OW14318   2.757   3.842   1.456  0.1721  0.3837  0.0356
 2768SOL    HW114319   2.814   3.794   1.523 -0.7037 -1.3563 -0.4307
 2768SOL    HW214320   2.660   3.825   1.476 -0.1058  0.0832 -1.4723
 2769SOL     OW14321   1.681   2.244   5.278  0.0707  0.1147  0.0151
 2769SOL    HW114322   1.608   2.205   5.222  0.2709 -0.6056  0.2416
 2769SOL    HW214323   1.765   2.190   5.266  1.0179  1.7859 -1.4000
 2770SOL     OW14324   6.248   4.367   0.308  0.0942 -0.1373 -0.5012
 2770SOL    HW114325   6.306   4.354   0.228 -0.2025  1.3815 -0.9796
 2770SOL    HW214326   6.190   4.447   0.295  0.9714  0.9513  1.7453
 2771SOL     OW14327   3.646   6.026   5.309  0.0993  0.0552  0.1634
 2771SOL    HW114328   3.602   5.979   5.386 -1.8658 -1.5175 -1.8032
 2771SOL    HW214329   3.727   5.974   5.281 -2.0990 -2.5281 -2.0471
 2772SOL     OW14330   4.275   4.681   5.628 -0.6067  0.7266  0.4011
 2772SOL    HW114331   4.299   4.749   5.697 -1.1969  0.4028  0.9301
 2772SOL    HW214332   4.214   4.613   5.668  0.9143 -0.8113  0.2242
 2773SOL     OW14333   4.128   2.207   0.137 -0.1233 -0.2494  0.0152
 2773SOL    HW114334   4.057   2.183   0.071 -1.5174  2.8070  0.2619
 2773SOL    HW214335   4.094   2.193   0.230 -0.4884  1.3495  0.1377
 2774SOL     OW14336   6.037   4.016   5.668 -0.3251  0.5257  0.5341
 2774SOL    HW114337   6.032   4.000   5.570  2.3691  0.3617  0.3648
 2774SOL    HW214338   6.103   3.953   5.709  1.3500  2.9985  1.8371
 2775SOL     OW14339   1.314   5.134   0.869 -0.4079  0.0344 -0.3419
 2775SOL    HW114340   1.396   5.136   0.927 -0.6782  3.0850  0.1161
 2775SOL    HW214341   1.319   5.056   0.808  1.7548 -1.1375  1.1715
 2776SOL     OW14342   2.703   4.687   1.423 -0.3878 -0.1720 -0.0055
 2776SOL    HW114343   2.692   4.749   1.501  2.4063  1.0273 -0.4355
 2776SOL    HW214344   2.794   4.699   1.384 -0.9774 -2.2007 -2.2359
 2777SOL     OW14345   3.432   1.819   4.786 -0.5955  0.1807  0.3805
 2777SOL    HW114346   3.446   1.899   4.728  0.4414 -0.3238 -0.0902
 2777SOL    HW214347   3.458   1.736   4.736 -0.6061 -0.3522  1.2322
 2778SOL     OW14348   3.426   1.147   5.089  0.1048  0.3766  0.0283
 2778SOL    HW114349   3.392   1.203   5.014 -0.3894  1.2067  0.8460
 2778SOL    HW214350   3.473   1.066   5.053  0.1422  0.9175 -1.1585
 2779SOL     OW14351   3.509   3.615   0.767 -0.1243  0.5974 -0.1136
 2779SOL    HW114352   3.447   3.562   0.825  2.2898 -0.6964  1.4698
 2779SOL    HW214353   3.511   3.710   0.797  0.1847  0.1944  1.1714
 2780SOL     OW14354   5.555   1.733   6.411  0.1033 -0.2036 -0.3885
 2780SOL    HW114355   5.629   1.696   6.354 -0.1407  2.1245 -2.3919
 2780SOL    HW214356   5.594   1.776   6.493  0.9655  0.5295 -1.1560
 2781SOL     OW14357   3.783   1.271   0.317  0.1867  0.3230 -0.3724
 2781SOL    HW114358   3.683   1.274   0.309  0.2759  0.7218 -1.4724
 2781SOL    HW214359   3.809   1.297   0.410 -0.6560  2.3229 -0.6406
 2782SOL     OW14360   3.792   2.950   1.235 -0.5513  0.6443  0.1579
 2782SOL    HW114361   3.788   3.006   1.317  0.8744  0.1498  0.5922
 2782SOL    HW214362   3.740   2.865   1.249  0.9808 -0.1683  1.1687
 2783SOL     OW14363   0.311   3.554   0.910 -0.3926  0.1177 -0.2683
 2783SOL    HW114364   0.365   3.487   0.859 -0.1558 -0.7729  1.1236
 2783SOL    HW214365   0.215   3.525   0.912 -0.8467  1.2948 -2.0546
 2784SOL     OW14366   2.666   4.400   0.171 -0.2409 -0.1891  0.0952
 2784SOL    HW114367   2.590   4.357   0.122 -0.2802 -0.7255  0.6145
 2784SOL    HW214368   2.631   4.443   0.254 -0.3110  1.4741 -0.7683
 2785SOL     OW14369   2.045   4.904   4.748 -0.8343 -0.0894 -0.3509
 2785SOL    HW114370   2.103   4.827   4.775 -0.3550 -0.0613 -1.2628
 2785SOL    HW214371   2.085   4.950   4.669 -1.2479  0.9544  0.0297
 2786SOL     OW14372   6.043   3.301   5.473 -0.5381  0.3094  0.6881
 2786SOL    HW114373   6.105   3.237   5.518  1.4287  2.2098  0.8317
 2786SOL    HW214374   5.999   3.257   5.395  1.8333 -0.8309 -0.0792
 2787SOL     OW14375   4.706   0.112   5.434  0.3100 -0.1852  0.3461
 2787SOL    HW114376   4.780   0.108   5.501  1.1858 -0.9364 -0.6420
 2787SOL    HW214377   4.696   0.023   5.389 -1.2561 -0.1244  0.5084
 2788SOL     OW14378   2.312   4.754   4.854 -0.4192  0.0941  0.1825
 2788SOL    HW114379   2.233   4.756   4.914 -0.0240 -0.9941  0.7660
 2788SOL    HW214380   2.391   4.794   4.900 -0.7429  1.7790 -0.6306
 2789SOL     OW14381   2.643   5.965   5.382 -0.4000  0.0708  0.0940
 2789SOL    HW114382   2.623   6.005   5.292  1.0017 -0.3122 -0.4187
 2789SOL    HW214383   2.670   5.870   5.371  1.1209  0.3976  0.7564
 2790SOL     OW14384   2.295   3.307   0.995  0.2683  0.0723 -0.2596
 2790SOL    HW114385   2.334   3.241   0.930 -0.8768  1.0129 -1.9810
 2790SOL    HW214386   2.364   3.374   1.021  0.7479 -0.3264 -0.4962
 2791SOL     OW14387   0.862   1.949   0.507  0.1600 -0.1757  0.9962
 2791SOL    HW114388   0.959   1.925   0.514  0.4454  1.1075  1.8164
 2791SOL    HW214389   0.813   1.912   0.586 -0.1081 -1.2127  0.3462
 2792SOL     OW14390   5.037   5.281   5.887  0.1779  1.0724 -0.0535
 2792SOL    HW114391   5.089   5.366   5.880  2.2733 -0.0230  1.1184
 2792SOL    HW214392   5.093   5.205   5.851 -1.7342  0.1788 -1.3153
 2793SOL     OW14393   5.813   4.684   0.047 -0.1517 -0.0767  0.1403
 2793SOL    HW114394   5.835   4.652   0.139 -1.7047  2.2757  1.4471
 2793SOL    HW214395   5.757   4.616   0.000  0.0627 -1.0101  1.2045
 2794SOL     OW14396   4.931   3.638   0.006  0.0193 -0.4426  0.0535
 2794SOL    HW114397   4.834   3.657   0.020  0.1833 -0.3628  1.1124
 2794SOL    HW214398   4.978   3.636   0.094  0.1562 -4.9679  0.1073
 2795SOL     OW14399   3.263   1.932   6.331 -0.0919 -0.3843  0.1780
 2795SOL    HW114400   3.307   1.979   6.406 -2.4595  0.3161  1.2294
 2795SOL    HW214401   3.232   1.998   6.263 -0.4680 -0.7385 -0.0019
 2796SOL     OW14402   2.108   2.135   5.876 -0.0404 -0.4700  0.2937
 2796SOL    HW114403   2.151   2.218   5.840 -0.1822  0.1562  1.5180
 2796SOL    HW214404   2.014   2.155   5.902 -0.7136 -1.5257 -1.2269
 2797SOL     OW14405   3.919   0.131   1.794 -0.7044  0.7223 -0.2887
 2797SOL    HW114406   3.895   0.129   1.697  0.7735  0.8776 -0.6860
 2797SOL    HW214407   4.016   0.154   1.804 -1.0876  1.8412  1.2728
 2798SOL     OW14408   3.246   6.208   0.385 -0.1150  0.2528 -0.0384
 2798SOL    HW114409   3.342   6.236   0.374 -0.1955  0.2652 -0.7868
 2798SOL    HW214410   3.235   6.116   0.347 -0.3370  0.1270  0.3313
 2799SOL     OW14411   4.809   3.077   5.202 -0.3615  0.4750 -0.1617
 2799SOL    HW114412   4.737   3.066   5.134 -1.0554  2.2256  0.2189
 2799SOL    HW214413   4.859   3.162   5.184  1.8194 -0.8288 -0.5633
 2800SOL     OW14414   1.733   2.152   1.276  0.3072 -0.1172 -0.2194
 2800SOL    HW114415   1.811   2.208   1.303  1.2986 -1.3858 -0.3597
 2800SOL    HW214416   1.715   2.084   1.346 -0.3231 -0.1911 -0.4456
 2801SOL     OW14417   5.002   2.151   0.237 -0.1528  0.0583 -0.4651
 2801SOL    HW114418   5.044   2.099   0.162 -1.0729  0.9941 -1.6534
 2801SOL    HW214419   4.990   2.091   0.316  3.2168 -0.3251 -0.0907
 2802SOL     OW14420   3.932   4.432   5.783  0.1924  0.8611 -0.1505
 2802SOL    HW114421   4.001   4.458   5.850  1.1678 -1.5104 -0.1235
 2802SOL    HW214422   3.844   4.418   5.829  0.2529  1.6310  0.2050
 2803SOL     OW14423   1.478   1.947   6.076 -0.8848  0.4694  0.3961
 2803SOL    HW114424   1.446   1.915   6.166  0.3021 -1.7589  0.0986
 2803SOL    HW214425   1.470   1.873   6.010  0.5675  1.3016 -0.7571
 2804SOL     OW14426   5.211   4.494   1.219  0.2560  0.9676  0.5202
 2804SOL    HW114427   5.166   4.462   1.303 -1.2589  0.6780 -0.3692
 2804SOL    HW214428   5.259   4.579   1.238 -0.2793  1.0422  1.6373
 2805SOL     OW14429   1.868   3.752   5.179 -0.1697  0.7723 -0.2496
 2805SOL    HW114430   1.896   3.692   5.104  1.7694  0.3053  0.7703
 2805SOL    HW214431   1.917   3.839   5.172 -2.2468  1.9454 -1.1736
 2806SOL     OW14432   1.953   6.067   0.999 -0.5792  0.4736 -0.0702
 2806SOL    HW114433   1.913   5.981   1.032 -0.3650 -0.1824 -1.4290
 2806SOL    HW214434   1.928   6.080   0.903 -1.6935  2.6196  0.4548
 2807SOL     OW14435   4.692   4.343   0.465 -0.2249  0.5052  0.1754
 2807SOL    HW114436   4.662   4.259   0.511 -0.4554  0.3077 -0.3244
 2807SOL    HW214437   4.789   4.335   0.441 -0.2706  0.3339  0.0390
 2808SOL     OW14438   2.897   0.567   0.343 -0.4527  0.5717 -0.0380
 2808SOL    HW114439   2.830   0.616   0.288 -1.2784  0.1444  0.5536
 2808SOL    HW214440   2.902   0.472   0.312 -1.3992  0.1576  0.9916
 2809SOL     OW14441   1.155   5.408   5.518 -0.2652  0.4670  0.4786
 2809SOL    HW114442   1.084   5.391   5.587  0.3776  0.1131  1.0611
 2809SOL    HW214443   1.118   5.388   5.427 -1.0828  0.8216  0.7181
 2810SOL     OW14444   4.169   2.258   1.239  0.5275  0.0591  0.2255
 2810SOL    HW114445   4.179   2.172   1.190  0.4929 -0.0916  0.4778
 2810SOL    HW214446   4.137   2.239   1.332  0.0325  0.3752  0.1221
 2811SOL     OW14447   1.609   0.258   5.827 -0.3636  0.7491  0.0766
 2811SOL    HW114448   1.542   0.307   5.770 -0.4015  0.3662 -0.2091
 2811SOL    HW214449   1.612   0.162   5.800 -0.4525  0.5421  0.7935
 2812SOL     OW14450   0.050   3.264   0.636 -0.5259 -0.0262  0.1830
 2812SOL    HW114451   0.039   3.232   0.730 -0.3198  0.4965  0.3866
 2812SOL    HW214452   0.012   3.356   0.627 -2.1631 -0.7317 -0.6734
 2813SOL     OW14453   3.998   4.121   0.855  0.5930 -1.1501 -0.1805
 2813SOL    HW114454   3.993   4.143   0.953 -2.2384 -0.0022 -0.5260
 2813SOL    HW214455   3.937   4.044   0.835 -0.9536  0.3312 -1.4342
 2814SOL     OW14456   6.011   5.889   5.530  0.0812 -0.0529  0.2538
 2814SOL    HW114457   5.934   5.875   5.467 -0.2611  0.5955  0.5103
 2814SOL    HW214458   5.992   5.969   5.587  1.7012  1.2133 -0.8554
 2815SOL     OW14459   1.978   4.215   0.759  0.0237  0.2046  0.3231
 2815SOL    HW114460   2.013   4.186   0.848  1.1136 -0.1535 -0.1907
 2815SOL    HW214461   1.920   4.143   0.721 -2.6029  1.4131  1.8329
 2816SOL     OW14462   2.350   5.661   6.312  0.0704  0.1188 -0.4557
 2816SOL    HW114463   2.365   5.757   6.289 -2.1250  0.2758 -1.5140
 2816SOL    HW214464   2.364   5.605   6.231  0.5613 -0.3756 -0.0362
 2817SOL     OW14465   4.729   2.610   0.790  0.4272 -0.6600 -0.0916
 2817SOL    HW114466   4.654   2.620   0.855  0.3981 -0.1957 -0.1893
 2817SOL    HW214467   4.720   2.523   0.741 -0.3957 -0.3374 -0.5400
 2818SOL     OW14468   0.087   3.781   1.351  0.0107  0.0053  0.7921
 2818SOL    HW114469   0.004   3.836   1.338 -0.4044 -0.9423 -0.7914
 2818SOL    HW214470   0.095   3.757   1.448 -0.3580  1.9264  1.3563
 2819SOL     OW14471   0.193   4.554   5.575 -0.0925  0.0625  0.0971
 2819SOL    HW114472   0.190   4.645   5.534 -0.5349 -0.0136 -0.0475
 2819SOL    HW214473   0.282   4.513   5.560 -0.5049 -0.3009 -1.5321
 2820SOL     OW14474   2.494   3.764   1.453  0.4138  0.5847  0.3714
 2820SOL    HW114475   2.503   3.731   1.359  0.4316 -0.7098  0.8040
 2820SOL    HW214476   2.477   3.862   1.452 -1.0769  0.3634 -1.0483
 2821SOL     OW14477   2.257   3.653   0.923 -0.1878  0.4308  0.3778
 2821SOL    HW114478   2.204   3.576   0.887  0.9990 -0.4483  0.4664
 2821SOL    HW214479   2.321   3.621   0.992  0.7863  1.3896 -0.0445
 2822SOL     OW14480   1.650   2.473   4.905  0.5478 -0.1830 -0.3268
 2822SOL    HW114481   1.677   2.531   4.828 -0.3862 -0.2722 -0.7357
 2822SOL    HW214482   1.573   2.514   4.953 -0.6558 -1.4415 -1.1036
 2823SOL     OW14483   3.407   4.208   5.845  0.6400  0.3958  0.4547
 2823SOL    HW114484   3.333   4.179   5.906 -1.6049  2.3637 -1.1618
 2823SOL    HW214485   3.379   4.196   5.750  0.8378  4.4037 -0.2782
 2824SOL     OW14486   1.388   5.764   0.761 -0.0329 -0.0418 -0.5791
 2824SOL    HW114487   1.415   5.678   0.718 -1.2296 -1.8149  1.9641
 2824SOL    HW214488   1.288   5.771   0.761  0.0080  0.7552  0.2862
 2825SOL     OW14489   4.822   5.595   6.246  0.1057  0.1044 -0.3575
 2825SOL    HW114490   4.904   5.591   6.304  0.0307  1.1381 -0.1523
 2825SOL    HW214491   4.819   5.684   6.199 -1.8209  0.8723  1.0700
 2826SOL     OW14492   2.384   5.916   6.265  0.5268 -0.0540  0.0946
 2826SOL    HW114493   2.477   5.938   6.295 -0.0893  2.8650  0.1342
 2826SOL    HW214494   2.339   5.999   6.233 -2.2979 -1.2765  0.6343
 2827SOL     OW14495   2.350   4.178   0.865  0.0257  0.3586 -1.1313
 2827SOL    HW114496   2.324   4.234   0.786  0.6279 -0.3611 -1.8501
 2827SOL    HW214497   2.439   4.207   0.898 -1.3213  2.4220  0.9609
 2828SOL     OW14498   2.923   4.320   1.375 -1.0780  0.6700  0.5034
 2828SOL    HW114499   2.830   4.351   1.394 -0.7569  1.9173  0.0804
 2828SOL    HW214500   2.978   4.327   1.459 -1.8035 -1.8623  1.2806
 2829SOL     OW14501   0.801   2.049   6.390  0.0932 -0.0369  0.1346
 2829SOL    HW114502   0.722   2.026   6.447 -0.0607  0.9020  0.3059
 2829SOL    HW214503   0.771   2.104   6.313  0.3725 -0.9140 -0.6251
 2830SOL     OW14504   4.096   6.200   6.358 -0.2732 -0.3400  0.1308
 2830SOL    HW114505   4.014   6.176   6.409 -1.1028 -0.9881 -1.4324
 2830SOL    HW214506   4.144   6.117   6.329  1.6057  0.0156  1.9543
 2831SOL     OW14507   1.413   2.348   6.571  0.6822 -0.3259  0.0829
 2831SOL    HW114508   1.469   2.289   6.629  0.5050 -0.3287  0.2520
 2831SOL    HW214509   1.473   2.405   6.515  1.0056  2.5425  3.0538
 2832SOL     OW14510   5.028   4.507   1.449  0.3159  0.5683  0.8786
 2832SOL    HW114511   4.983   4.594   1.470 -1.8489 -0.4901  0.8783
 2832SOL    HW214512   5.034   4.452   1.533  0.0314  0.0142  0.5399
 2833SOL     OW14513   3.440   0.402   5.272 -0.0612 -0.3015  0.2971
 2833SOL    HW114514   3.446   0.497   5.243 -2.3418 -0.7848 -2.1565
 2833SOL    HW214515   3.509   0.348   5.224  1.4961  0.0902  1.9823
 2834SOL     OW14516   4.635   3.432   6.514  0.6011 -0.1264  0.7319
 2834SOL    HW114517   4.559   3.372   6.488 -0.0034  0.0385  2.0282
 2834SOL    HW214518   4.622   3.463   6.608  2.0058  0.3448  0.7959
 2835SOL     OW14519   1.378   3.495   1.406  0.5950  0.1600  0.1156
 2835SOL    HW114520   1.428   3.431   1.464  1.8143 -0.0075 -1.0597
 2835SOL    HW214521   1.317   3.550   1.462 -0.7181 -2.2032  1.1550
 2836SOL     OW14522   2.024   5.485   5.764  0.1305  0.3623 -0.0698
 2836SOL    HW114523   2.007   5.439   5.677  0.4054 -1.6364  0.8681
 2836SOL    HW214524   2.038   5.416   5.836  4.8087  1.7626  0.6957
 2837SOL     OW14525   4.648   0.932   0.336 -0.0018  0.8843 -0.4619
 2837SOL    HW114526   4.550   0.922   0.324  0.1318  0.9816 -1.8648
 2837SOL    HW214527   4.668   1.018   0.382 -0.6065  0.3476  0.8469
 2838SOL     OW14528   2.489   2.873   6.630  0.9168 -0.7408 -0.5328
 2838SOL    HW114529   2.491   2.900   6.533 -1.0577  1.2169 -0.1027
 2838SOL    HW214530   2.417   2.806   6.644  1.3665 -1.2112 -0.4337
 2839SOL     OW14531   2.291   6.251   0.739  0.8036  0.1356  0.2391
 2839SOL    HW114532   2.238   6.200   0.671 -0.1799  1.1034  0.2511
 2839SOL    HW214533   2.344   6.187   0.795  1.7369 -0.6845 -1.4966
 2840SOL     OW14534   1.141   1.966   1.319  0.5673 -0.2589 -0.1988
 2840SOL    HW114535   1.188   1.879   1.335  0.9194 -0.1989 -0.8798
 2840SOL    HW214536   1.144   2.021   1.403  0.5408 -0.8038  0.1675
 2841SOL     OW14537   5.618   4.409   1.182  0.0439  0.6587  0.6919
 2841SOL    HW114538   5.521   4.390   1.168  0.2564 -0.0883  0.1516
 2841SOL    HW214539   5.639   4.406   1.280 -0.3969  0.3945  0.7813
 2842SOL     OW14540   3.714   5.580   0.958 -0.0507 -0.0997  0.3711
 2842SOL    HW114541   3.770   5.661   0.939 -0.1957  0.0616  0.6216
 2842SOL    HW214542   3.747   5.535   1.040  0.3209 -0.5650 -0.0295
 2843SOL     OW14543   4.333   1.845   5.347 -0.0228  0.6702  0.1302
 2843SOL    HW114544   4.269   1.904   5.298  0.9279  2.9691  1.5116
 2843SOL    HW214545   4.418   1.837   5.294 -0.1943  0.4023 -0.1112
 2844SOL     OW14546   2.219   3.412   5.108  0.6113  0.1062 -0.0331
 2844SOL    HW114547   2.244   3.463   5.025  1.0118 -0.4925 -0.2842
 2844SOL    HW214548   2.166   3.332   5.083  0.4592  0.0932  0.3210
 2845SOL     OW14549   2.459   2.474   1.162 -0.1529  0.2801 -0.3388
 2845SOL    HW114550   2.440   2.498   1.067 -0.5008  3.0748  0.3403
 2845SOL    HW214551   2.376   2.434   1.203  0.1360 -1.3758 -1.2579
 2846SOL     OW14552   0.371   4.454   0.782 -0.2411  0.0381  0.1404
 2846SOL    HW114553   0.276   4.482   0.798  0.1056  1.5575 -0.3273
 2846SOL    HW214554   0.427   4.481   0.860 -0.3593 -1.9506  0.9844
 2847SOL     OW14555   5.032   5.579   0.920  0.2958 -0.1864 -0.0096
 2847SOL    HW114556   5.114   5.606   0.871  0.2043 -0.7376 -0.4802
 2847SOL    HW214557   4.954   5.631   0.887  0.7738  1.9472  1.9450
 2848SOL     OW14558   1.962   0.040   5.696  0.1941  0.0146  0.0601
 2848SOL    HW114559   1.957  -0.020   5.616  0.1634  1.5746 -1.1644
 2848SOL    HW214560   2.025   0.001   5.763  0.1369 -1.3887 -0.6702
 2849SOL     OW14561   2.411   1.072   5.680  0.0994 -0.2698  0.3119
 2849SOL    HW114562   2.404   0.992   5.621 -0.9167  0.3619 -0.4490
 2849SOL    HW214563   2.506   1.081   5.712  0.8225 -0.3178 -1.6523
 2850SOL     OW14564   5.868   0.217   5.872 -0.3218  0.4077  0.3590
 2850SOL    HW114565   5.774   0.246   5.852  0.1828  1.4113 -0.6738
 2850SOL    HW214566   5.868   0.156   5.951 -2.2345 -2.1410 -1.4202
 2851SOL     OW14567   2.319   4.446   0.402  0.6297  0.1660 -0.3126
 2851SOL    HW114568   2.315   4.388   0.320  0.6256 -0.3463  0.0444
 2851SOL    HW214569   2.252   4.412   0.469  1.1458  0.1340  0.1887
 2852SOL     OW14570   5.682   0.121   0.809  0.6804  0.5137  0.2628
 2852SOL    HW114571   5.664   0.204   0.756  1.4136  0.2028 -0.4877
 2852SOL    HW214572   5.599   0.066   0.813  1.2376 -0.7397 -2.8708
 2853SOL     OW14573   3.020   3.050   0.179 -0.6141 -0.0237 -0.5404
 2853SOL    HW114574   2.930   3.076   0.145 -0.6775 -1.4571 -1.6023
 2853SOL    HW214575   3.010   2.982   0.252 -0.4174 -0.5695 -1.0060
 2854SOL     OW14576   6.226   0.898   5.931  0.2279 -0.3812 -0.2210
 2854SOL    HW114577   6.307   0.938   5.887 -0.7711  1.5789 -0.3622
 2854SOL    HW214578   6.228   0.919   6.029 -1.5257  2.3477 -0.6662
 2855SOL     OW14579   0.826   2.701   1.024  0.3303  0.1471 -0.2432
 2855SOL    HW114580   0.812   2.664   0.932  0.2467  0.5647 -0.4025
 2855SOL    HW214581   0.740   2.741   1.056  0.7987  1.6096 -0.7182
 2856SOL     OW14582   2.584   5.226   0.655 -0.1708 -0.2908  0.2279
 2856SOL    HW114583   2.676   5.194   0.633  0.9160  2.2401  0.7023
 2856SOL    HW214584   2.522   5.148   0.663  2.0784 -2.1362  0.6669
 2857SOL     OW14585   2.934   2.532   0.737 -0.3433  0.7310 -0.4537
 2857SOL    HW114586   2.998   2.516   0.662  0.2550  1.4243 -0.1047
 2857SOL    HW214587   2.984   2.562   0.818 -1.0885  1.1036 -0.1169
 2858SOL     OW14588   6.033   3.511   1.448  0.3104  0.4716 -0.1536
 2858SOL    HW114589   6.098   3.535   1.376  0.1259 -1.2096 -0.9296
 2858SOL    HW214590   6.051   3.418   1.480 -1.5492  0.0457 -0.2257
 2859SOL     OW14591   5.429   6.284   5.016  0.1674 -0.1482  0.0208
 2859SOL    HW114592   5.446   6.230   4.934 -2.9115 -0.7068 -0.3787
 2859SOL    HW214593   5.375   6.365   4.992  0.1977  0.2821  1.3459
 2860SOL     OW14594   1.416   0.804   5.771 -0.2847  0.2858 -0.0863
 2860SOL    HW114595   1.431   0.891   5.819 -2.1348 -0.1544  1.3958
 2860SOL    HW214596   1.318   0.790   5.758  0.0882  0.1344 -3.6912
 2861SOL     OW14597   5.509   0.926   6.664 -0.3017 -0.1995  0.3685
 2861SOL    HW114598   5.561   1.008   6.642  1.0813 -1.3708 -1.0627
 2861SOL    HW214599   5.433   0.916   6.599 -1.1884  0.5076  1.2618
 2862SOL     OW14600   1.155   4.700   5.982  0.3027 -0.4491 -0.3869
 2862SOL    HW114601   1.190   4.760   5.910 -0.0253  0.5279  0.2527
 2862SOL    HW214602   1.230   4.672   6.041  0.2132  0.7530  0.3314
 2863SOL     OW14603   2.489   5.744   5.962 -0.0159  0.8610  0.3981
 2863SOL    HW114604   2.461   5.832   5.999  2.2131  2.3094 -1.0974
 2863SOL    HW214605   2.416   5.706   5.905 -0.2750  2.7685 -0.6024
 2864SOL     OW14606   4.952   0.629   6.380  0.1566 -0.3285 -0.2210
 2864SOL    HW114607   4.964   0.552   6.442 -2.3205 -0.2065  0.4847
 2864SOL    HW214608   4.980   0.713   6.426 -0.7529 -0.3547  0.3875
 2865SOL     OW14609   2.490   4.854   5.779  0.2617  0.1401 -0.4130
 2865SOL    HW114610   2.512   4.935   5.832 -1.5018  0.0032  0.5859
 2865SOL    HW214611   2.509   4.772   5.833 -3.0010  0.0151  0.7547
 2866SOL     OW14612   6.198   2.856   6.289 -0.5924 -0.3907 -0.2295
 2866SOL    HW114613   6.216   2.759   6.272  0.2434 -0.4093  0.6277
 2866SOL    HW214614   6.205   2.907   6.204 -2.0578 -1.2064 -0.8852
 2867SOL     OW14615   0.072   5.983   0.419  0.4116 -0.7406 -0.4692
 2867SOL    HW114616   0.156   5.942   0.456  1.7844  0.1800 -2.3505
 2867SOL    HW214617   0.059   5.953   0.324 -1.1869 -0.5566 -0.3310
 2868SOL     OW14618   2.394   5.249   6.327  0.0426 -0.2274 -0.4873
 2868SOL    HW114619   2.310   5.261   6.379  0.2127 -1.0929  0.0061
 2868SOL    HW214620   2.383   5.288   6.236 -0.1013  1.7363  0.3310
 2869SOL     OW14621   4.950   2.654   6.056 -0.0199  0.0899  0.2014
 2869SOL    HW114622   5.038   2.647   6.009 -0.2540 -3.0914  0.0282
 2869SOL    HW214623   4.876   2.629   5.994 -0.7352 -0.2132  1.1394
 2870SOL     OW14624   0.630   3.734   6.509 -0.2624 -0.1794  0.3316
 2870SOL    HW114625   0.592   3.805   6.568 -0.8878 -0.4740  0.2817
 2870SOL    HW214626   0.557   3.679   6.470  0.2235 -1.0635  0.6215
 2871SOL     OW14627   2.304   3.360   6.656 -0.2918  0.2353  0.0953
 2871SOL    HW114628   2.297   3.383   6.754 -3.0598  2.2356 -0.4316
 2871SOL    HW214629   2.246   3.281   6.636 -1.1501  0.9186 -0.1759
 2872SOL     OW14630   0.922   1.334   0.429 -0.2577 -0.4131 -0.1052
 2872SOL    HW114631   1.021   1.327   0.445 -0.3529  2.0462  2.3077
 2872SOL    HW214632   0.882   1.242   0.428  1.5574 -1.3811  2.7875
 2873SOL     OW14633   1.588   4.373   6.549  0.2885 -0.0808  0.3380
 2873SOL    HW114634   1.637   4.454   6.518 -0.2269 -0.0239 -0.3652
 2873SOL    HW214635   1.616   4.294   6.494 -0.8725  0.0856 -0.5333
 2874SOL     OW14636   3.756   1.250   0.577  0.1098 -0.2191 -0.7487
 2874SOL    HW114637   3.734   1.152   0.583 -0.3415 -0.0782  0.0284
 2874SOL    HW214638   3.840   1.268   0.628 -0.6573  0.0446  0.4634
 2875SOL     OW14639   3.996   0.037   1.255  0.8777  0.2266 -0.4250
 2875SOL    HW114640   3.897   0.049   1.243  0.9883  0.0548 -1.6066
 2875SOL    HW214641   4.013  -0.030   1.326  0.1705  1.4334  0.9456
 2876SOL     OW14642   4.840   4.568   0.553 -0.1474  0.2989  0.2348
 2876SOL    HW114643   4.777   4.524   0.489  0.4386  0.9178 -0.7984
 2876SOL    HW214644   4.806   4.557   0.646 -0.1931 -2.0796  0.0116
 2877SOL     OW14645   2.993   0.617   0.027  0.4452  0.1444  0.1950
 2877SOL    HW114646   3.079   0.634   0.075  1.4328 -1.1828 -1.0073
 2877SOL    HW214647   2.980   0.518   0.017 -2.7093  0.1166  2.9163
 2878SOL     OW14648   5.236   0.810   6.269 -0.4188 -0.6285  0.3597
 2878SOL    HW114649   5.203   0.732   6.217  0.3851 -1.0088  0.4146
 2878SOL    HW214650   5.300   0.779   6.340 -1.0319 -0.0545  1.1821
 2879SOL     OW14651   1.005   4.592   1.267 -0.4270  0.6465  0.4851
 2879SOL    HW114652   1.103   4.604   1.250 -0.5806  1.2520  0.0168
 2879SOL    HW214653   0.992   4.524   1.339  0.3051 -0.4210 -0.3590
 2880SOL     OW14654   0.505   3.163   5.798  0.0214  0.0084 -0.1333
 2880SOL    HW114655   0.460   3.076   5.815  2.1259 -1.5969 -2.1768
 2880SOL    HW214656   0.585   3.171   5.858  0.2698  0.1682 -0.4810
 2881SOL     OW14657   6.226   3.525   0.339  0.0441  0.2819  0.6916
 2881SOL    HW114658   6.292   3.531   0.265 -0.3524 -0.4149  0.2717
 2881SOL    HW214659   6.181   3.614   0.350  1.4310  0.9333  1.3662
 2882SOL     OW14660   1.275   4.482   0.100  0.1924  0.1126  0.5465
 2882SOL    HW114661   1.256   4.386   0.078  0.3264  0.4494 -1.2351
 2882SOL    HW214662   1.203   4.540   0.062 -0.5601  0.6701  2.6938
 2883SOL     OW14663   5.369   2.180   0.373 -0.7827  0.1368  1.2239
 2883SOL    HW114664   5.465   2.170   0.400 -0.0049  0.8821 -0.9772
 2883SOL    HW214665   5.331   2.263   0.412  0.5653  1.6483 -0.4819
 2884SOL     OW14666   1.856   2.179   5.883 -0.3087 -0.0459 -0.2288
 2884SOL    HW114667   1.868   2.163   5.785  0.2268  4.1180 -1.0537
 2884SOL    HW214668   1.758   2.189   5.903 -0.5328 -2.2003  0.0391
 2885SOL     OW14669   5.409   2.139   6.543  0.1310 -0.5954 -0.3062
 2885SOL    HW114670   5.430   2.171   6.636 -0.8583  1.0883 -0.6264
 2885SOL    HW214671   5.311   2.125   6.534  0.2549 -1.0490 -1.0320
 2886SOL     OW14672   5.877   2.476   5.862  0.2380 -0.1736  0.1852
 2886SOL    HW114673   5.913   2.422   5.786 -0.1287  0.1649 -0.2319
 2886SOL    HW214674   5.953   2.502   5.923  0.9227  1.4771 -1.2710
 2887SOL     OW14675   0.784   5.191   0.098  0.5110  0.3613 -0.1231
 2887SOL    HW114676   0.788   5.269   0.036 -0.4623 -0.3338 -1.1020
 2887SOL    HW214677   0.689   5.177   0.128  1.0461  1.0228  1.9901
 2888SOL     OW14678   5.287   1.678   6.322 -0.1253  0.0187  0.4323
 2888SOL    HW114679   5.379   1.716   6.310 -0.4120  1.5379  2.5317
 2888SOL    HW214680   5.292   1.593   6.374  0.0776  0.0256  0.4263
 2889SOL     OW14681   5.558   4.563   0.249 -0.3374 -0.1083  0.1922
 2889SOL    HW114682   5.592   4.469   0.257 -1.6295 -0.5625  0.4785
 2889SOL    HW214683   5.614   4.613   0.182  1.4393 -0.5595  1.2715
 2890SOL     OW14684   1.172   0.466   1.221 -0.6943  0.1058 -0.7530
 2890SOL    HW114685   1.151   0.529   1.146 -1.0444  0.5498 -0.2901
 2890SOL    HW214686   1.087   0.428   1.257 -0.4646 -0.9662 -1.2969
 2891SOL     OW14687   2.311   2.724   1.530  0.0278 -0.2601  0.2906
 2891SOL    HW114688   2.356   2.657   1.588  2.4906  1.4169  0.4976
 2891SOL    HW214689   2.314   2.814   1.574  0.0817  0.6544 -1.4556
 2892SOL     OW14690   3.067   4.914   0.215  0.4964 -0.1824  0.8402
 2892SOL    HW114691   3.079   4.823   0.254  1.2086  0.4928  2.2862
 2892SOL    HW214692   3.152   4.966   0.225  0.4026  0.3551 -0.8084
 2893SOL     OW14693   3.277   4.265   6.274  0.6679  0.4989  0.5362
 2893SOL    HW114694   3.238   4.310   6.353  3.7919  0.3879  2.3172
 2893SOL    HW214695   3.316   4.333   6.212 -0.0978  0.4989  0.0489
 2894SOL     OW14696   3.231   2.863   6.426  0.7455 -0.0200  0.1482
 2894SOL    HW114697   3.299   2.791   6.440 -0.8987 -1.5417  0.5819
 2894SOL    HW214698   3.198   2.895   6.515  1.7855  1.6749 -0.0112
 2895SOL     OW14699   2.011   1.190   6.280  0.6982 -0.4746  0.4089
 2895SOL    HW114700   2.099   1.169   6.240  0.5269 -0.9725  0.2860
 2895SOL    HW214701   2.024   1.233   6.369  1.0590 -1.2859  0.7550
 2896SOL     OW14702   1.400   1.027   6.338  0.3929  0.4453 -0.1523
 2896SOL    HW114703   1.386   0.933   6.370  0.3519  0.0792 -1.1924
 2896SOL    HW214704   1.484   1.064   6.376  1.7583 -0.9259 -1.6809
 2897SOL     OW14705   0.549   0.333   6.109 -0.3753 -0.2810 -0.0671
 2897SOL    HW114706   0.591   0.330   6.018 -0.6698  0.9736 -0.2586
 2897SOL    HW214707   0.563   0.423   6.150 -0.9605 -0.5619  0.7906
 2898SOL     OW14708   0.802   5.998   6.186 -0.1607 -0.1114 -0.2065
 2898SOL    HW114709   0.764   5.933   6.251 -2.2351 -1.5390 -2.6367
 2898SOL    HW214710   0.866   5.951   6.126 -0.2904  0.5115 -0.8487
 2899SOL     OW14711   0.770   2.903   0.186 -0.1102 -0.3013 -0.1221
 2899SOL    HW114712   0.677   2.937   0.205 -0.4464 -0.0139 -2.1336
 2899SOL    HW214713   0.780   2.884   0.089  1.7104 -1.1329  0.1808
 2900SOL     OW14714   5.535   3.841   0.085 -0.5110 -0.0967 -0.1209
 2900SOL    HW114715   5.555   3.778   0.160  2.2118 -0.2335 -0.8450
 2900SOL    HW214716   5.505   3.789   0.005  1.6341 -0.5833 -0.6871
 2901SOL     OW14717   1.312   5.295   0.114 -0.2894 -0.3781  0.2531
 2901SOL    HW114718   1.308   5.244   0.027 -2.1200 -0.4861  0.3652
 2901SOL    HW214719   1.309   5.231   0.190 -1.0269 -0.1924  0.3894
 2902SOL     OW14720   3.319   3.584   0.004 -0.0235  0.3589 -0.4374
 2902SOL    HW114721   3.363   3.609   0.090  1.2595  0.5156 -1.1209
 2902SOL    HW214722   3.307   3.485  -0.000  0.9931  0.2356 -0.5760
 2903SOL     OW14723   5.083   0.618   6.135 -0.2095 -0.0030 -0.4436
 2903SOL    HW114724   5.021   0.665   6.072  0.1336  0.5332 -0.3848
 2903SOL    HW214725   5.031   0.588   6.215 -0.5160 -0.0939 -0.6773
 2904SOL     OW14726   0.420   2.851   0.920 -0.4810 -0.1175  0.3824
 2904SOL    HW114727   0.332   2.827   0.959 -0.6401 -0.2297 -0.0424
 2904SOL    HW214728   0.493   2.832   0.986 -0.7107 -0.6832  0.4758
 2905SOL     OW14729   2.500   3.072   5.750  0.1806  0.2279 -0.1962
 2905SOL    HW114730   2.558   2.998   5.784  0.8290  0.8899  0.1474
 2905SOL    HW214731   2.548   3.122   5.678 -1.5474 -1.8201 -2.9738
 2906SOL     OW14732   5.859   5.072   0.973  0.0316  0.1901  0.0419
 2906SOL    HW114733   5.857   5.126   1.057 -1.1963 -0.0403  0.1744
 2906SOL    HW214734   5.766   5.044   0.949  0.6028 -1.7034 -0.1265
 2907SOL     OW14735   3.486   4.848   0.031  0.2917 -0.9829  0.0375
 2907SOL    HW114736   3.390   4.822   0.042  0.6330 -3.0465 -1.3424
 2907SOL    HW214737   3.543   4.766   0.033  1.7640 -0.0596 -1.7250
 2908SOL     OW14738   0.810   3.283   5.709  0.6726 -0.5574  0.5300
 2908SOL    HW114739   0.873   3.230   5.652  0.5289  0.4445 -0.5950
 2908SOL    HW214740   0.826   3.381   5.695 -0.9835 -0.2757  0.3931
 2909SOL     OW14741   1.513   2.396   1.054 -0.5700 -0.4528 -0.0933
 2909SOL    HW114742   1.420   2.378   1.085  0.2233 -1.4508  1.8533
 2909SOL    HW214743   1.573   2.322   1.083  1.1891  1.0637  0.3142
 2910SOL     OW14744   6.224   5.779   5.991 -0.7990 -0.0798  0.1261
 2910SOL    HW114745   6.305   5.733   5.956 -0.0649 -0.8803  2.6695
 2910SOL    HW214746   6.143   5.722   5.975 -0.3869 -0.7311  0.3382
 2911SOL     OW14747   6.017   4.879   5.217 -0.6664 -0.1695 -0.0872
 2911SOL    HW114748   6.054   4.794   5.178  1.8376  0.7298  0.1701
 2911SOL    HW214749   6.046   4.957   5.161  1.2684  0.9455  2.2626
 2912SOL     OW14750   1.694   2.381   6.153  0.9175  0.4462  0.8314
 2912SOL    HW114751   1.677   2.284   6.138  3.4098  0.3444 -2.4294
 2912SOL    HW214752   1.736   2.394   6.243 -1.2906 -1.1157  2.1966
 2913SOL     OW14753   0.390   1.919   6.185  0.9215  0.0836 -0.4760
 2913SOL    HW114754   0.480   1.932   6.143  1.0381 -0.7224 -0.4804
 2913SOL    HW214755   0.385   1.973   6.270  1.4228  0.0944 -0.4522
 2914SOL     OW14756   4.061   4.459   0.760  0.7614 -0.0815  0.2677
 2914SOL    HW114757   4.078   4.556   0.777 -0.0543 -0.2551  2.3822
 2914SOL    HW214758   4.148   4.410   0.758  1.1806  0.6731 -0.8399
 2915SOL     OW14759   2.781   0.356   5.156  0.1282  0.2577  0.4788
 2915SOL    HW114760   2.713   0.351   5.229 -1.8022 -0.2400 -1.2602
 2915SOL    HW214761   2.831   0.443   5.163 -0.9000  0.7857  1.6192
 2916SOL     OW14762   5.385   1.171   5.551 -0.1222  0.0542  0.2023
 2916SOL    HW114763   5.367   1.125   5.464 -1.6070 -0.1099  0.5857
 2916SOL    HW214764   5.300   1.182   5.602  0.7454  0.0433  1.7084
 2917SOL     OW14765   3.549   1.796   5.820 -0.2091 -0.3109 -0.0638
 2917SOL    HW114766   3.534   1.742   5.903 -1.5129 -0.8816 -0.6416
 2917SOL    HW214767   3.539   1.738   5.740 -1.2823  0.6868 -0.6863
 2918SOL     OW14768   0.475   3.582   6.334  0.1600 -0.3985  0.1002
 2918SOL    HW114769   0.414   3.506   6.310  1.4133 -1.5724  0.5185
 2918SOL    HW214770   0.499   3.633   6.251  0.3705 -1.2705 -0.3817
 2919SOL     OW14771   3.348   3.167   0.522 -0.1269  0.1096  0.4304
 2919SOL    HW114772   3.253   3.141   0.501  0.0404 -1.1889  1.1934
 2919SOL    HW214773   3.406   3.086   0.520  0.7745  0.7210  1.0881
 2920SOL     OW14774   6.200   3.412   6.518 -0.7169  0.5112 -1.0124
 2920SOL    HW114775   6.263   3.407   6.596 -1.7259  0.6911 -0.1702
 2920SOL    HW214776   6.183   3.321   6.483 -2.2495  0.1034  0.6338
 2921SOL     OW14777   1.037   3.240   1.929 -0.1916  0.4436 -0.5442
 2921SOL    HW114778   0.995   3.187   1.855  0.2718  1.3339 -1.4711
 2921SOL    HW214779   1.021   3.193   2.016 -1.2704 -0.3222 -1.1175
 2922SOL     OW14780   2.644   2.445   1.345  0.7822 -0.0724  0.2722
 2922SOL    HW114781   2.719   2.393   1.305 -0.0383 -1.9150  1.0388
 2922SOL    HW214782   2.574   2.461   1.276  0.9453 -0.1658  0.0829
 2923SOL     OW14783   0.301   1.248   6.105 -0.8971 -0.0598 -0.7262
 2923SOL    HW114784   0.291   1.261   6.006 -4.3339  1.9268 -0.2561
 2923SOL    HW214785   0.312   1.150   6.124 -0.6070 -0.5311 -3.0239
 2924SOL     OW14786   1.652   3.617   0.979  0.0712  0.0235  0.3812
 2924SOL    HW114787   1.616   3.633   1.071 -0.5337  1.1997 -0.0383
 2924SOL    HW214788   1.751   3.603   0.983 -0.1170 -1.2740  1.3397
 2925SOL     OW14789   0.801   4.110   0.353  0.4036  0.4392  0.0116
 2925SOL    HW114790   0.737   4.066   0.415  0.3051 -0.5325 -0.7522
 2925SOL    HW214791   0.878   4.049   0.334  2.9398  2.4495  2.8391
 2926SOL     OW14792   1.393   5.524   4.717 -0.3556 -0.2197  0.5208
 2926SOL    HW114793   1.399   5.535   4.618 -0.3881  0.6814  0.6079
 2926SOL    HW214794   1.481   5.495   4.754  0.1654  1.1345  0.4141
 2927SOL     OW14795   5.627   0.692   6.683  1.1234 -0.0982 -0.4375
 2927SOL    HW114796   5.585   0.782   6.670  0.3492 -0.5575 -1.1863
 2927SOL    HW214797   5.697   0.678   6.614  1.5265  0.0797 -0.0734
 2928SOL     OW14798   3.178   3.581   5.585  0.5291 -0.0515  0.0036
 2928SOL    HW114799   3.245   3.573   5.511 -0.5623  0.8632 -1.1154
 2928SOL    HW214800   3.218   3.634   5.660  1.5528 -0.7619 -0.0034
 2929SOL     OW14801   5.248   5.686   0.787  0.5849 -0.2113 -0.0447
 2929SOL    HW114802   5.267   5.764   0.728 -0.0507 -0.6272 -0.8215
 2929SOL    HW214803   5.308   5.689   0.867  1.7067  0.1827 -0.8692
 2930SOL     OW14804   0.318   0.041   0.763  0.0740  0.5258 -0.1021
 2930SOL    HW114805   0.250  -0.013   0.814  1.3367  1.3501  2.6398
 2930SOL    HW214806   0.313   0.137   0.792  1.5615  0.8389 -0.7987
 2931SOL     OW14807   2.247   1.550   4.955  0.0936 -0.2980 -0.0732
 2931SOL    HW114808   2.305   1.566   4.875 -1.6713 -0.2978 -1.4078
 2931SOL    HW214809   2.180   1.625   4.963  1.0644  0.4159  2.2180
 2932SOL     OW14810   5.468   1.604   5.962  0.2685 -0.1682  0.3581
 2932SOL    HW114811   5.493   1.534   5.896  1.3952  0.3665  0.1939
 2932SOL    HW214812   5.387   1.575   6.013 -0.8905 -0.3786 -1.5486
 2933SOL     OW14813   2.399   0.179   5.519 -0.1871 -0.1223  0.2876
 2933SOL    HW114814   2.330   0.131   5.465 -2.2159  1.1999  1.5650
 2933SOL    HW214815   2.374   0.276   5.526  1.1673  0.1479  1.7866
 2934SOL     OW14816   0.383   1.021   6.647  0.1487  0.1057  0.0455
 2934SOL    HW114817   0.441   0.943   6.626 -0.6385 -0.6351  0.5291
 2934SOL    HW214818   0.314   0.994   6.714 -0.8324  0.9100 -0.5988
 2935SOL     OW14819   4.660   5.559   0.935  0.7627 -0.2841  0.3051
 2935SOL    HW114820   4.707   5.618   0.869  1.1511 -1.9021 -0.9058
 2935SOL    HW214821   4.561   5.577   0.931  0.7128 -0.7908 -1.1785
 2936SOL     OW14822   4.468   6.167   5.225 -0.0203 -0.3784  0.2129
 2936SOL    HW114823   4.449   6.250   5.173  1.3164  0.7620  1.4365
 2936SOL    HW214824   4.395   6.100   5.209 -1.0638  0.9587 -0.9235
 2937SOL     OW14825   4.622   0.796   6.668  0.3978 -0.1508  0.0686
 2937SOL    HW114826   4.563   0.786   6.748 -0.0532 -1.2280 -0.3787
 2937SOL    HW214827   4.603   0.722   6.603  0.3842  0.9875 -1.2787
 2938SOL     OW14828   4.721   2.428   0.584 -0.2552  0.2995 -0.4503
 2938SOL    HW114829   4.819   2.406   0.589 -0.4735 -0.4855  0.5861
 2938SOL    HW214830   4.702   2.472   0.496  1.2283  1.5243 -0.2190
 2939SOL     OW14831   1.900   4.880   5.070  0.3353  0.0362  0.2947
 2939SOL    HW114832   1.859   4.814   5.007  0.9339  1.7823 -2.0651
 2939SOL    HW214833   2.000   4.867   5.071  0.6430  1.8457 -1.4679
 2940SOL     OW14834   1.510   4.530   1.041 -0.8144 -0.1260  0.7493
 2940SOL    HW114835   1.423   4.496   1.076 -1.6728  1.5279  0.3101
 2940SOL    HW214836   1.576   4.536   1.116 -1.4995 -0.0885  1.3558
 2941SOL     OW14837   0.608   1.504   0.798 -0.4138 -0.0221 -0.1748
 2941SOL    HW114838   0.699   1.506   0.757 -0.1712  0.4687  0.3657
 2941SOL    HW214839   0.539   1.498   0.727  0.0230  0.1672 -0.6180
 2942SOL     OW14840   3.138   4.428   0.733 -0.2875 -0.2017 -0.2168
 2942SOL    HW114841   3.196   4.354   0.766  0.8218 -0.9564 -3.4955
 2942SOL    HW214842   3.187   4.481   0.663 -2.5200  1.0135 -0.9747
 2943SOL     OW14843   5.623   1.215   0.939  0.1430 -0.5162  0.1347
 2943SOL    HW114844   5.688   1.172   1.001  0.8677 -2.9339 -2.0844
 2943SOL    HW214845   5.530   1.198   0.971  0.5200 -0.0086  1.5440
 2944SOL     OW14846   2.854   3.397   6.356 -0.7145 -0.0552 -0.5671
 2944SOL    HW114847   2.811   3.376   6.268 -3.1128  0.4385  0.4087
 2944SOL    HW214848   2.806   3.473   6.399 -0.1594 -0.8447  1.5704
 2945SOL     OW14849   1.109   0.626   0.963 -0.2232  0.0714 -0.2845
 2945SOL    HW114850   1.105   0.620   0.863  2.3593  0.7929 -0.5124
 2945SOL    HW214851   1.125   0.721   0.990  0.4240 -0.3073  0.7164
 2946SOL     OW14852   1.066   2.774   6.271  0.4549 -0.9305 -0.1100
 2946SOL    HW114853   1.009   2.696   6.245 -3.5577  2.1182 -1.5163
 2946SOL    HW214854   1.048   2.799   6.366  0.3126 -0.6861 -0.1983
 2947SOL     OW14855   3.312   0.750   6.048 -0.0467 -0.2089  0.3234
 2947SOL    HW114856   3.371   0.831   6.055 -0.7260  0.1967  1.8937
 2947SOL    HW214857   3.358   0.672   6.091  0.7879 -0.8190 -1.5597
 2948SOL     OW14858   2.654   6.082   0.435  0.0688  0.4272  0.6780
 2948SOL    HW114859   2.583   6.034   0.383  1.0256 -0.1999 -0.0854
 2948SOL    HW214860   2.679   6.166   0.387  2.5203 -1.2105 -1.2016
 2949SOL     OW14861   0.029   2.323   0.187  0.7787  0.6519 -0.2573
 2949SOL    HW114862  -0.039   2.385   0.227  1.2652  1.6877 -1.0119
 2949SOL    HW214863   0.050   2.251   0.253  0.9080  1.8187  1.0360
 2950SOL     OW14864   6.275   4.058   0.759  0.3161  0.3396  0.0053
 2950SOL    HW114865   6.372   4.061   0.780  0.0408  1.9156  1.2667
 2950SOL    HW214866   6.227   4.128   0.812 -1.9086 -2.0976  1.4546
 2951SOL     OW14867   5.519   5.892   5.477 -0.3153 -0.3414  0.1942
 2951SOL    HW114868   5.607   5.927   5.509 -1.3374  2.2354  0.4499
 2951SOL    HW214869   5.528   5.862   5.382  0.7372  0.3972  0.0362
 2952SOL     OW14870   4.657   1.408   5.873 -0.2235 -0.0628  0.1345
 2952SOL    HW114871   4.670   1.369   5.782 -1.2751 -0.5180  0.1561
 2952SOL    HW214872   4.629   1.503   5.865  0.1117  0.0270  0.0020
 2953SOL     OW14873   1.863   4.465   6.201  0.3168 -0.1727 -0.4237
 2953SOL    HW114874   1.867   4.372   6.165  2.9357  0.6896 -2.7543
 2953SOL    HW214875   1.810   4.522   6.138  0.7685  0.3903 -0.2964
 2954SOL     OW14876   3.346   5.071   1.753  0.1352  0.0752 -0.3126
 2954SOL    HW114877   3.300   5.000   1.806  0.6980 -0.6867 -0.8101
 2954SOL    HW214878   3.395   5.029   1.677 -0.0625  1.0735 -1.0121
 2955SOL     OW14879   5.588   3.620   5.391  0.0314 -0.8551 -0.4969
 2955SOL    HW114880   5.629   3.695   5.339 -0.4985 -1.8398 -2.4072
 2955SOL    HW214881   5.660   3.560   5.426  0.3550 -0.9177 -1.2562
 2956SOL     OW14882   2.868   3.230   4.526  0.3363 -0.1017 -0.1658
 2956SOL    HW114883   2.826   3.146   4.491 -1.2424 -1.2942  4.0146
 2956SOL    HW214884   2.798   3.301   4.533  0.4532 -0.0803  0.9664
 2957SOL     OW14885   3.419   2.760   0.507 -0.5070 -0.6000  0.2751
 2957SOL    HW114886   3.504   2.806   0.482 -1.7828  1.5948 -0.3139
 2957SOL    HW214887   3.414   2.750   0.607 -0.1457  0.5346  0.4209
 2958SOL     OW14888   1.471   0.445   6.214 -0.0131 -0.1652 -0.1809
 2958SOL    HW114889   1.401   0.476   6.278  0.3739  0.5423 -0.0846
 2958SOL    HW214890   1.429   0.431   6.124 -1.0476 -3.3578  0.6641
 2959SOL     OW14891   4.861   1.756   6.422 -0.5731 -0.1908  0.4657
 2959SOL    HW114892   4.774   1.800   6.405 -0.1831  0.7729  0.8732
 2959SOL    HW214893   4.888   1.702   6.342 -0.6949  0.9452 -0.3590
 2960SOL     OW14894   0.842   3.337   1.261  0.0415 -0.2613 -0.5295
 2960SOL    HW114895   0.832   3.294   1.171 -0.0165  0.9534 -1.1257
 2960SOL    HW214896   0.929   3.308   1.301  0.8445  0.4294 -1.7035
 2961SOL     OW14897   4.100   4.696   1.314 -0.7617 -0.2507  0.0188
 2961SOL    HW114898   4.082   4.748   1.231 -0.1950 -0.4520 -0.2358
 2961SOL    HW214899   4.021   4.701   1.374 -2.2882 -2.2795 -1.6578
 2962SOL     OW14900   3.819   0.334   4.535  0.1668  0.3392  0.1897
 2962SOL    HW114901   3.761   0.320   4.454 -3.4129  1.0264  2.3824
 2962SOL    HW214902   3.875   0.415   4.523 -0.7852  0.8054 -1.3419
 2963SOL     OW14903   5.483   0.893   5.615 -0.2760 -0.2767  0.6532
 2963SOL    HW114904   5.469   0.992   5.609  0.9746 -0.2022 -2.8966
 2963SOL    HW214905   5.569   0.875   5.664  1.5574  0.6938 -2.0147
 2964SOL     OW14906   2.586   2.073   0.561 -0.4468 -0.2382  0.1538
 2964SOL    HW114907   2.512   2.017   0.596  0.3939 -1.7830 -0.4303
 2964SOL    HW214908   2.567   2.099   0.466  0.0076 -1.1351 -0.1924
 2965SOL     OW14909   5.300   3.429   0.049  0.8649  0.1577  0.2680
 2965SOL    HW114910   5.233   3.478   0.104  0.2388 -0.5039  0.1099
 2965SOL    HW214911   5.362   3.378   0.109  0.4656 -0.1997  0.3796
 2966SOL     OW14912   1.120   0.130   5.657  0.4638 -0.3490  0.3191
 2966SOL    HW114913   1.125   0.100   5.752 -1.6220 -1.7905  0.0421
 2966SOL    HW214914   1.209   0.120   5.614  1.0944 -1.0888  1.7103
 2967SOL     OW14915   1.891   3.047   5.720  0.0970  0.5221  0.6401
 2967SOL    HW114916   1.889   3.011   5.626  0.8222  1.1007  0.3885
 2967SOL    HW214917   1.957   3.122   5.725 -2.2795  2.7132  0.8304
 2968SOL     OW14918   3.466   4.915   6.291 -0.2367  0.1386  0.2767
 2968SOL    HW114919   3.471   4.891   6.194 -2.0016 -0.1440  0.2150
 2968SOL    HW214920   3.439   5.011   6.299  1.3135  0.5763  0.5158
 2969SOL     OW14921   1.059   2.364   5.668  0.1427  0.0410  0.2002
 2969SOL    HW114922   1.096   2.295   5.730  0.7065 -0.7185 -0.9390
 2969SOL    HW214923   1.056   2.326   5.575  0.9835  1.7228 -0.5519
 2970SOL     OW14924   1.906   2.381   4.659  0.6622 -0.0620  0.4584
 2970SOL    HW114925   1.980   2.440   4.628  0.2981 -0.3690 -1.0464
 2970SOL    HW214926   1.819   2.432   4.656  0.6325 -0.0605  1.1150
 2971SOL     OW14927   6.111   2.504   0.260 -0.5958  0.0354  0.6835
 2971SOL    HW114928   6.038   2.456   0.309 -0.6703 -2.4747 -1.7051
 2971SOL    HW214929   6.073   2.585   0.216 -1.3754  0.0971  1.4355
 2972SOL     OW14930   3.260   1.246   6.095 -0.1427 -0.0750  0.2810
 2972SOL    HW114931   3.202   1.218   6.171  1.3345 -0.9697  1.1292
 2972SOL    HW214932   3.330   1.176   6.078  0.8145  1.0370 -0.5747
 2973SOL     OW14933   1.155   5.847   0.601 -0.1776  0.4640  0.1576
 2973SOL    HW114934   1.179   5.939   0.631 -0.6244  0.3960  0.7519
 2973SOL    HW214935   1.057   5.831   0.618  0.0821 -0.4370  0.9255
 2974SOL     OW14936   2.592   6.030   5.105 -0.4799  0.0134 -0.0494
 2974SOL    HW114937   2.675   6.082   5.083  0.2937 -0.0272  2.4657
 2974SOL    HW214938   2.512   6.079   5.072  0.4834  0.2649 -2.1719
 2975SOL     OW14939   5.245   0.849   0.852  0.3197 -0.5679  0.1516
 2975SOL    HW114940   5.203   0.818   0.767  0.4655 -0.2400 -0.0442
 2975SOL    HW214941   5.345   0.841   0.845  0.4289  0.8544 -0.2886
 2976SOL     OW14942   4.329   4.686   6.182  0.5221  0.4583 -0.0806
 2976SOL    HW114943   4.385   4.631   6.244  0.1197 -0.8698 -0.8632
 2976SOL    HW214944   4.316   4.777   6.221  2.2528  0.4293  0.6505
 2977SOL     OW14945   4.992   0.803   5.938 -0.3655  0.0124 -0.2886
 2977SOL    HW114946   5.004   0.727   5.875  2.5610  0.6563 -0.6662
 2977SOL    HW214947   5.043   0.882   5.905 -0.8845  1.2045  1.5810
 2978SOL     OW14948   5.413   3.213   5.657 -0.1452  0.5790 -0.1807
 2978SOL    HW114949   5.356   3.270   5.716 -0.8537 -1.1949  0.9439
 2978SOL    HW214950   5.391   3.231   5.561 -0.5036  1.9896  0.1432
 2979SOL     OW14951   1.679   5.810   5.720 -0.6942 -0.0303 -0.6443
 2979SOL    HW114952   1.775   5.783   5.730 -0.3456  1.6511  1.1590
 2979SOL    HW214953   1.639   5.762   5.642  0.9433 -2.5213 -0.0681
 2980SOL     OW14954   3.839   4.330   0.595 -0.1408  0.0033  0.4430
 2980SOL    HW114955   3.831   4.232   0.610  2.0339 -0.6813 -2.1117
 2980SOL    HW214956   3.922   4.364   0.638  0.6998  0.0421 -1.1136
 2981SOL     OW14957   1.835   1.064   5.550  0.0962  0.0921  0.1919
 2981SOL    HW114958   1.852   1.130   5.623  0.4933  0.3098 -0.0906
 2981SOL    HW214959   1.743   1.076   5.514  1.1814  2.7871 -2.1013
 2982SOL     OW14960   0.111   3.386   0.020  0.2519  0.4457 -0.4294
 2982SOL    HW114961   0.086   3.305   0.074 -1.8133 -0.1257 -2.1119
 2982SOL    HW214962   0.186   3.363  -0.041 -0.2526 -0.2157 -0.8234
 2983SOL     OW14963   3.223   5.549   6.108 -0.5564  0.1656  0.9064
 2983SOL    HW114964   3.303   5.498   6.077 -0.8694 -0.4719  1.1389
 2983SOL    HW214965   3.215   5.634   6.056  0.3416  0.2969  0.9635
 2984SOL     OW14966   3.034   6.293   0.196  0.7570 -0.8436 -0.2037
 2984SOL    HW114967   3.090   6.368   0.229  0.3415 -1.6055  2.4034
 2984SOL    HW214968   3.083   6.206   0.207  0.0829 -1.2514 -0.3437
 2985SOL     OW14969   5.421   1.212   0.602 -0.6205  0.3849 -0.2019
 2985SOL    HW114970   5.469   1.128   0.628  1.3340  1.1828 -1.0553
 2985SOL    HW214971   5.333   1.216   0.650  0.1302 -1.1506  1.4280
 2986SOL     OW14972   0.818   4.071   6.157 -0.0111 -0.8273  0.3431
 2986SOL    HW114973   0.856   4.088   6.248 -0.0994  0.0154  0.2295
 2986SOL    HW214974   0.748   4.139   6.137  0.5353 -0.5439 -0.6593
 2987SOL     OW14975   4.502   0.157   0.169 -0.1314  0.1072 -0.0213
 2987SOL    HW114976   4.436   0.199   0.106 -1.2633 -0.1014  0.9847
 2987SOL    HW214977   4.489   0.194   0.261 -0.7228 -1.9078  0.7676
 2988SOL     OW14978   1.342   3.724   5.685 -0.7194  0.0911 -0.5279
 2988SOL    HW114979   1.437   3.745   5.662 -0.3924  0.8275  1.3624
 2988SOL    HW214980   1.289   3.809   5.688 -1.5286 -0.3349 -1.7925
 2989SOL     OW14981   2.219   4.093   0.501  0.8331  0.4731 -0.5008
 2989SOL    HW114982   2.313   4.128   0.503  1.2580 -0.6171 -0.8023
 2989SOL    HW214983   2.218   3.999   0.536  0.0785 -0.0120 -1.7824
 2990SOL     OW14984   1.526   4.301   5.637 -0.3700 -0.4354  0.3164
 2990SOL    HW114985   1.554   4.376   5.578  0.8750 -0.8620  0.3393
 2990SOL    HW214986   1.524   4.333   5.732 -2.5079  0.2889  0.0861
 2991SOL     OW14987   4.809   4.052   0.248 -0.7501  0.0014  0.4259
 2991SOL    HW114988   4.851   4.092   0.329  0.5433 -2.7314  1.2256
 2991SOL    HW214989   4.710   4.047   0.260 -0.5178 -0.9684  2.1768
 2992SOL     OW14990   5.447   5.467   0.573 -0.8697 -0.1247  0.3924
 2992SOL    HW114991   5.350   5.483   0.552 -0.7157  1.1562  0.6074
 2992SOL    HW214992   5.457   5.375   0.612 -1.7863 -0.8213 -0.9174
 2993SOL     OW14993   3.040   3.363   5.574  0.0596 -0.6151 -0.6888
 2993SOL    HW114994   3.026   3.312   5.658 -1.4606 -1.3084 -1.3207
 2993SOL    HW214995   3.085   3.450   5.595 -1.5636 -0.1290  1.0527
 2994SOL     OW14996   1.792   1.927   0.483 -0.1291  0.4384 -0.6098
 2994SOL    HW114997   1.744   1.848   0.446  0.3686 -0.6744  1.0125
 2994SOL    HW214998   1.735   2.009   0.472 -1.0763 -0.3031 -1.4074
 2995SOL     OW14999   5.822   1.582   5.709  0.2205  0.4169  0.3979
 2995SOL    HW115000   5.795   1.636   5.629  0.5567 -0.7458 -0.5241
 2995SOL    HW215001   5.885   1.635   5.764 -0.4806  1.4697  0.2218
 2996SOL     OW15002   2.601   3.063   0.319 -0.8256  0.2262 -0.3180
 2996SOL    HW115003   2.600   2.986   0.383  2.4434 -0.4099 -0.8286
 2996SOL    HW215004   2.562   3.034   0.231  0.2976 -0.8693 -0.4772
 2997SOL     OW15005   3.043   0.231   5.563  0.4703  0.2349 -0.3105
 2997SOL    HW115006   3.092   0.154   5.522 -1.0172  0.1430 -2.0580
 2997SOL    HW215007   2.956   0.199   5.601  0.6305  0.7858  0.5562
 2998SOL     OW15008   6.177   4.557   6.418 -0.5491  0.0060  0.3904
 2998SOL    HW115009   6.176   4.655   6.437  0.1707  0.1759 -0.3831
 2998SOL    HW215010   6.250   4.536   6.353 -0.5982 -1.0676  0.6591
 2999SOL     OW15011   2.119   2.850   6.667  0.0804  0.0953 -0.2034
 2999SOL    HW115012   2.078   2.928   6.714  0.2241  0.0059  0.0705
 2999SOL    HW215013   2.131   2.872   6.570  1.1001  0.8139  0.0706
 3000SOL     OW15014   0.760   5.790   0.925 -0.1961 -0.1837  0.3399
 3000SOL    HW115015   0.849   5.836   0.925  0.7333 -1.8876  1.0062
 3000SOL    HW215016   0.705   5.822   1.003 -0.3864  1.2079 -0.3327
 3001SOL     OW15017   5.775   0.536   6.488  0.8377  0.3321  0.1715
 3001SOL    HW115018   5.866   0.494   6.489  0.2740 -1.0975 -2.0558
 3001SOL    HW215019   5.709   0.472   6.449 -0.9027  1.8061  0.5651
 3002SOL     OW15020   0.403   5.603   0.271  0.0455 -0.3285  0.0550
 3002SOL    HW115021   0.453   5.673   0.322 -0.1634 -0.6187  0.6752
 3002SOL    HW215022   0.306   5.628   0.268 -0.1039 -0.8052  0.6702
 3003SOL     OW15023   5.433   4.551   6.429  0.0252 -0.3164  0.9034
 3003SOL    HW115024   5.401   4.520   6.339  1.9355 -0.7577  0.3246
 3003SOL    HW215025   5.475   4.641   6.421 -1.2561  0.3721  1.6908
 3004SOL     OW15026   4.595   6.179   0.775 -0.1161  0.1392  0.1783
 3004SOL    HW115027   4.643   6.202   0.691  1.1579 -1.7681  0.3141
 3004SOL    HW215028   4.659   6.177   0.851 -0.6279 -1.1833  0.6103
 3005SOL     OW15029   5.229   0.323   6.270  0.5052 -0.2340  0.7625
 3005SOL    HW115030   5.213   0.407   6.323 -0.8278 -0.0010  0.0360
 3005SOL    HW215031   5.148   0.264   6.278  0.2225 -0.1368 -1.0954
 3006SOL     OW15032   4.679   2.841   6.335 -0.0523 -0.5094  0.4910
 3006SOL    HW115033   4.750   2.776   6.309  1.1971  0.6436  0.9585
 3006SOL    HW215034   4.720   2.922   6.376 -1.4795  1.1822 -1.2391
 3007SOL     OW15035   3.753   1.102   1.708  1.0384  0.0960  0.2296
 3007SOL    HW115036   3.672   1.044   1.701  1.0415 -0.1050  1.5157
 3007SOL    HW215037   3.730   1.195   1.678  0.8382 -0.3787 -1.1370
 3008SOL     OW15038   4.287   1.713   0.550  0.5933  0.5486 -0.0364
 3008SOL    HW115039   4.245   1.625   0.574  1.7798 -0.0412 -0.0730
 3008SOL    HW215040   4.217   1.772   0.509 -0.0994 -0.5915 -0.5727
 3009SOL     OW15041   1.060   3.727   5.494 -0.0107  0.0088 -0.0951
 3009SOL    HW115042   1.089   3.737   5.399 -2.6427 -0.1618 -1.0143
 3009SOL    HW215043   1.127   3.768   5.555  1.5907  0.4083 -2.0406
 3010SOL     OW15044   5.069   1.899   5.900  0.9309 -0.0551 -0.3565
 3010SOL    HW115045   5.036   1.931   5.989  0.7275 -0.1163 -0.4095
 3010SOL    HW215046   5.003   1.923   5.829  1.6804  1.1244 -0.6830
 3011SOL     OW15047   2.550   0.267   6.570  0.4780  0.2121 -0.0746
 3011SOL    HW115048   2.548   0.362   6.602  0.3260  1.0343 -2.3792
 3011SOL    HW215049   2.642   0.244   6.540  0.5979 -0.5254  0.7991
 3012SOL     OW15050   4.141   2.993   0.374 -0.0855  0.1972  0.0461
 3012SOL    HW115051   4.153   3.038   0.285  1.3720  0.0725  0.1613
 3012SOL    HW215052   4.224   2.941   0.397 -1.5624 -2.3472  0.0519
 3013SOL     OW15053   5.930   3.417   0.642 -0.2446  0.0775  0.0263
 3013SOL    HW115054   5.908   3.403   0.546  1.0618 -0.0622 -0.2684
 3013SOL    HW215055   5.962   3.331   0.682  0.0192  0.3311  0.3637
 3014SOL     OW15056   3.700   2.812   6.530  0.0674  0.0971 -0.3114
 3014SOL    HW115057   3.655   2.853   6.609  1.7722  0.8324  0.3128
 3014SOL    HW215058   3.797   2.835   6.531  0.1492  0.0292 -2.5769
 3015SOL     OW15059   2.455   3.269   4.969  0.3173  0.2181 -0.0577
 3015SOL    HW115060   2.529   3.268   4.902 -0.6047 -1.3218 -1.1165
 3015SOL    HW215061   2.409   3.357   4.967  0.7733  0.4463 -0.9076
 3016SOL     OW15062   2.364   6.214   5.267 -0.0888  0.2153  0.3057
 3016SOL    HW115063   2.423   6.263   5.203 -0.7674  0.5533 -0.0742
 3016SOL    HW215064   2.324   6.134   5.222  0.4819 -0.3065  0.7188
 3017SOL     OW15065   0.649   0.442   5.864 -0.5385 -0.4222  0.0937
 3017SOL    HW115066   0.683   0.526   5.905 -0.5904  0.2587 -1.2218
 3017SOL    HW215067   0.723   0.396   5.814 -1.2441  0.6032 -2.0167
 3018SOL     OW15068   0.987   1.989   6.633  0.4038 -0.4633  1.2405
 3018SOL    HW115069   0.893   2.004   6.664 -0.1462 -0.6975 -0.2562
 3018SOL    HW215070   1.029   2.076   6.606  0.3001 -0.4801  1.0272
 3019SOL     OW15071   4.969   4.035   0.015 -0.0940 -0.1389 -0.0468
 3019SOL    HW115072   4.938   4.010   0.107  1.0129 -0.9935  0.1070
 3019SOL    HW215073   5.062   4.003   0.001  0.5015  1.7810 -0.7510
 3020SOL     OW15074   4.646   0.545   0.095 -0.0048 -0.4306 -0.2836
 3020SOL    HW115075   4.555   0.582   0.076  0.1886 -0.2593 -0.9153
 3020SOL    HW215076   4.670   0.478   0.025 -0.0592 -1.2347  0.4556
 3021SOL     OW15077   5.773   5.525   6.364  0.8329  0.7363  0.9746
 3021SOL    HW115078   5.830   5.469   6.304 -0.5404 -1.3985  1.5515
 3021SOL    HW215079   5.826   5.553   6.444  1.6287  0.5353  0.5306
 3022SOL     OW15080   1.458   2.187   5.117 -0.8247 -0.3038 -0.2888
 3022SOL    HW115081   1.464   2.187   5.017 -0.3762  1.6198 -0.2942
 3022SOL    HW215082   1.372   2.230   5.145 -0.3363  0.3856  0.1641
 3023SOL     OW15083   1.492   2.707   0.994  0.1770  0.1870 -0.3226
 3023SOL    HW115084   1.454   2.621   1.029 -0.5562 -0.2286 -2.0538
 3023SOL    HW215085   1.447   2.784   1.040 -0.3384 -0.3413  0.0734
 3024SOL     OW15086   3.469   0.914   6.475 -0.1524 -0.0057 -0.2007
 3024SOL    HW115087   3.377   0.875   6.477 -0.1101 -0.1894 -1.2540
 3024SOL    HW215088   3.472   0.996   6.532 -0.5377 -0.8873  1.1203
 3025SOL     OW15089   5.108   0.652   0.954  0.1946  0.2466 -0.3682
 3025SOL    HW115090   5.168   0.731   0.943 -0.1811  0.4913 -0.6820
 3025SOL    HW215091   5.043   0.670   1.028 -1.0979  1.0032 -1.6400
 3026SOL     OW15092   6.245   6.259   6.324 -0.5537  0.3957  0.2030
 3026SOL    HW115093   6.210   6.255   6.418  0.9712 -1.2285  0.7620
 3026SOL    HW215094   6.307   6.337   6.315 -1.1003  0.8559  0.3941
 3027SOL     OW15095   4.251   5.245   6.497  0.1302  0.4135 -0.2979
 3027SOL    HW115096   4.181   5.175   6.516 -0.5564  0.4888 -2.2708
 3027SOL    HW215097   4.211   5.317   6.441  1.1658  1.7841  0.6742
 3028SOL     OW15098   2.389   2.206   0.754 -0.2430 -0.1442  0.5491
 3028SOL    HW115099   2.458   2.152   0.802 -0.0402  0.0936  0.5208
 3028SOL    HW215100   2.340   2.146   0.690  1.3136  0.1098 -0.9444
 3029SOL     OW15101   4.438   4.122   5.582 -0.4270  0.1802  0.4098
 3029SOL    HW115102   4.515   4.174   5.546 -0.2541 -0.3192  0.0409
 3029SOL    HW215103   4.395   4.070   5.507 -1.4517  0.8661  0.5040
 3030SOL     OW15104   2.722   1.456   6.301 -0.3235  0.2361 -0.6127
 3030SOL    HW115105   2.747   1.373   6.350 -0.3062  1.0468  0.8248
 3030SOL    HW215106   2.623   1.466   6.299 -0.3295  0.1326 -0.8802
 3031SOL     OW15107   5.442   5.840   0.056 -0.0696 -0.0821  0.3919
 3031SOL    HW115108   5.483   5.782   0.127 -1.2085 -0.9953  0.3276
 3031SOL    HW215109   5.354   5.875   0.088  1.1155  2.7091  0.9415
 3032SOL     OW15110   2.024   0.743   1.047  0.2802 -0.8872 -0.3957
 3032SOL    HW115111   1.986   0.791   1.126  0.3714 -1.3785 -0.0467
 3032SOL    HW215112   2.118   0.715   1.067  0.3924 -0.7887 -0.7759
 3033SOL     OW15113   0.911   2.431   0.368 -0.0952  0.3201  0.1015
 3033SOL    HW115114   0.990   2.490   0.349  0.6962 -0.6723  0.2324
 3033SOL    HW215115   0.856   2.422   0.285  0.2776  0.5136 -0.1716
 3034SOL     OW15116   1.125   2.725   5.303 -0.2200 -0.3897  0.0673
 3034SOL    HW115117   1.081   2.815   5.303  0.3400 -0.0888 -1.3584
 3034SOL    HW215118   1.153   2.701   5.210  0.2383 -1.7518  0.5260
 3035SOL     OW15119   2.642   6.251   0.016 -0.0195 -1.0186  0.6555
 3035SOL    HW115120   2.592   6.311  -0.046  0.5848 -1.3339 -0.1548
 3035SOL    HW215121   2.581   6.181   0.051 -0.7031 -0.0101  1.5244
 3036SOL     OW15122   5.577   2.940   0.107 -0.1330  0.3423  0.4613
 3036SOL    HW115123   5.489   2.894   0.114  0.3858 -0.5674  1.3687
 3036SOL    HW215124   5.633   2.895   0.037 -0.7777  1.6234 -0.9149
 3037SOL     OW15125   1.466   4.757   1.766  0.4535  0.0455  0.7286
 3037SOL    HW115126   1.477   4.825   1.838 -0.5731 -1.5947  2.5398
 3037SOL    HW215127   1.378   4.710   1.778  0.4625 -0.5747 -1.3486
 3038SOL     OW15128   1.338   0.889   5.065 -0.2207  0.2609 -0.1789
 3038SOL    HW115129   1.275   0.948   5.014 -2.4805 -1.3613  0.5827
 3038SOL    HW215130   1.322   0.794   5.040  1.2032 -0.2937  0.8718
 3039SOL     OW15131   1.396   5.812   6.627 -0.2537 -0.0886 -0.6535
 3039SOL    HW115132   1.408   5.776   6.534 -0.1624 -1.4634 -0.1193
 3039SOL    HW215133   1.310   5.862   6.632 -0.4069 -0.2647 -1.4017
 3040SOL     OW15134   0.170   5.891   6.596 -0.4616 -0.0544 -0.1953
 3040SOL    HW115135   0.251   5.833   6.606 -0.5330 -0.5663 -2.2648
 3040SOL    HW215136   0.183   5.956   6.521 -0.8944  1.8031  1.2481
 3041SOL     OW15137   4.627   1.992   6.048  0.8573 -0.0483 -0.0239
 3041SOL    HW115138   4.573   2.071   6.022 -0.9806 -1.1141  0.3606
 3041SOL    HW215139   4.622   1.979   6.147  1.4612 -0.4318 -0.0326
 3042SOL     OW15140   5.491   0.261   6.298  0.9250 -0.0552  0.4659
 3042SOL    HW115141   5.531   0.246   6.388 -1.4778 -2.1071  1.3233
 3042SOL    HW215142   5.393   0.278   6.307  0.8393  0.9768 -1.7093
 3043SOL     OW15143   2.449   5.070   0.088  0.0252 -0.0682  0.1320
 3043SOL    HW115144   2.496   5.095   0.003  0.2432  0.9072  0.5211
 3043SOL    HW215145   2.438   4.971   0.093  0.7371 -0.1920 -0.6520
 3044SOL     OW15146   3.796   1.186   5.484 -0.2364  0.1556  0.0330
 3044SOL    HW115147   3.767   1.281   5.488 -1.4838 -0.0242 -2.6004
 3044SOL    HW215148   3.719   1.129   5.455  0.4505 -1.7061  1.6693
 3045SOL     OW15149   3.445   3.739   1.425 -0.3090 -0.1633  0.5003
 3045SOL    HW115150   3.462   3.835   1.446  0.6327 -0.4556  1.1095
 3045SOL    HW215151   3.455   3.684   1.507 -1.6225 -0.7034  0.3226
 3046SOL     OW15152   1.729   5.306   5.929 -0.1753  0.3709 -0.1440
 3046SOL    HW115153   1.700   5.395   5.893  1.4873  1.3944  0.9011
 3046SOL    HW215154   1.648   5.253   5.955 -1.2066  1.5515 -0.7966
 3047SOL     OW15155   4.105   4.954   0.371  0.0803  0.1863 -0.0380
 3047SOL    HW115156   4.113   5.001   0.459 -0.5852  0.6158 -0.2035
 3047SOL    HW215157   4.155   4.867   0.375  0.8516  0.6450  0.4511
 3048SOL     OW15158   2.297   1.670   6.103  0.4228  0.0609 -0.0456
 3048SOL    HW115159   2.344   1.593   6.059  0.1334  0.2403 -0.6752
 3048SOL    HW215160   2.243   1.720   6.035  1.3738  1.4073  0.1364
 3049SOL     OW15161   2.811   6.073   1.143  0.5033  0.4002  0.0340
 3049SOL    HW115162   2.794   6.071   1.242  0.6113  0.2834  0.0497
 3049SOL    HW215163   2.831   5.981   1.111 -3.1583 -0.2905 -0.7167
 3050SOL     OW15164   2.811   0.019   5.366 -0.2435 -0.0736 -0.3170
 3050SOL    HW115165   2.745   0.073   5.313 -1.7048 -0.8634  0.6282
 3050SOL    HW215166   2.787   0.024   5.463  1.5753  0.2378  0.1544
 3051SOL     OW15167   3.298   2.288   1.410  0.3996 -0.0453 -0.7542
 3051SOL    HW115168   3.366   2.348   1.452  0.5023 -0.2646 -0.6085
 3051SOL    HW215169   3.218   2.342   1.385  0.2119  0.0352 -0.0031
 3052SOL     OW15170   0.923   4.229   0.926  0.2727  0.0574  0.2440
 3052SOL    HW115171   0.887   4.165   0.858  0.2518 -1.3967  1.5694
 3052SOL    HW215172   0.962   4.308   0.879  0.3050 -0.9021 -1.4538
 3053SOL     OW15173   0.394   5.827   0.850  0.0812 -0.5181 -0.2733
 3053SOL    HW115174   0.423   5.883   0.772 -0.4310 -1.5229 -1.2068
 3053SOL    HW215175   0.415   5.876   0.935  1.0837  0.3932 -1.0102
 3054SOL     OW15176   3.336   5.783   5.415  0.6080 -0.4087  0.2576
 3054SOL    HW115177   3.408   5.733   5.463 -0.8822 -1.1220  1.8930
 3054SOL    HW215178   3.330   5.750   5.321  1.6275 -1.1927  0.4485
 3055SOL     OW15179   2.844   1.499   0.262 -0.6286  0.6919 -0.0762
 3055SOL    HW115180   2.866   1.558   0.185 -1.1970  0.8891 -0.0913
 3055SOL    HW215181   2.899   1.415   0.256  1.1460  1.7360  0.6433
 3056SOL     OW15182   2.889   0.307   0.281 -0.4844 -0.3024  0.0146
 3056SOL    HW115183   2.898   0.313   0.181 -0.4141 -0.4188  0.0134
 3056SOL    HW215184   2.792   0.305   0.306 -0.5649  2.1147  0.0969
 3057SOL     OW15185   3.458   3.915   6.624  0.5820 -0.2941 -0.6260
 3057SOL    HW115186   3.490   3.849   6.556 -0.0223  0.4263 -1.6400
 3057SOL    HW215187   3.359   3.926   6.614 -0.0264 -2.1865  2.1715
 3058SOL     OW15188   3.226   0.183   0.195 -0.0190  0.1686  0.6366
 3058SOL    HW115189   3.133   0.219   0.203 -0.1130  0.1552 -0.2732
 3058SOL    HW215190   3.264   0.208   0.106  0.0953 -1.5424  0.1573
 3059SOL     OW15191   1.151   4.004   1.138 -0.6355  0.6615  0.7716
 3059SOL    HW115192   1.063   3.957   1.140 -0.6774  0.6180 -0.6496
 3059SOL    HW215193   1.136   4.103   1.129 -0.5378  0.6883  0.9057
 3060SOL     OW15194   4.293   5.242   0.995 -0.0037 -0.2676 -0.7749
 3060SOL    HW115195   4.303   5.339   1.015  1.9344 -0.4230 -0.7927
 3060SOL    HW215196   4.355   5.189   1.052 -0.7366 -1.4735 -1.0539
 3061SOL     OW15197   6.023   2.874   1.611  0.1253 -0.1029 -0.1281
 3061SOL    HW115198   5.987   2.885   1.703  1.5491  0.9754  0.3250
 3061SOL    HW215199   5.987   2.946   1.552  2.5061  1.8795  0.6741
 3062SOL     OW15200   5.633   3.973   1.253  0.3466 -0.0524 -1.0030
 3062SOL    HW115201   5.584   3.887   1.241 -1.3681  0.6956  0.2994
 3062SOL    HW215202   5.573   4.040   1.295  0.9397  2.4859 -3.8485
 3063SOL     OW15203   1.926   4.633   1.310 -0.1525 -0.1250 -0.5358
 3063SOL    HW115204   1.993   4.561   1.291  1.0412  1.4322 -2.5439
 3063SOL    HW215205   1.922   4.649   1.409  2.4131 -0.3156 -0.3351
 3064SOL     OW15206   6.004   2.083   6.007 -0.4826  0.1241 -0.4262
 3064SOL    HW115207   6.020   2.027   5.925 -1.2335  1.3105 -1.4088
 3064SOL    HW215208   5.925   2.142   5.993  0.6311  1.9018  0.3227
 3065SOL     OW15209   2.685   2.043   1.896  0.0738  0.0980 -0.0573
 3065SOL    HW115210   2.625   2.004   1.825 -2.1645  1.9704  0.6829
 3065SOL    HW215211   2.683   1.984   1.977  0.2363 -0.4986 -0.4797
 3066SOL     OW15212   1.294   4.407   5.256 -0.6806  0.3995  0.2193
 3066SOL    HW115213   1.195   4.403   5.244 -0.7755 -2.4184  1.2290
 3066SOL    HW215214   1.338   4.354   5.184  0.0088  0.4077  0.6252
 3067SOL     OW15215   1.878   0.320   5.749 -0.0784  0.5272 -0.1263
 3067SOL    HW115216   1.890   0.222   5.730 -1.9608  0.3258 -0.4791
 3067SOL    HW215217   1.784   0.337   5.776 -0.4108  2.5710 -2.2313
 3068SOL     OW15218   4.450   5.377   5.409 -0.4099  0.5123  0.1251
 3068SOL    HW115219   4.480   5.282   5.420  1.5334  1.2121  1.4100
 3068SOL    HW215220   4.517   5.427   5.355 -1.1097  1.3127 -0.0258
 3069SOL     OW15221   1.103   1.009   6.275 -0.2157  0.2431  0.6241
 3069SOL    HW115222   1.201   1.014   6.294  0.0056  0.6008 -0.5016
 3069SOL    HW215223   1.055   1.077   6.330  0.6569  2.8070 -1.5714
 3070SOL     OW15224   1.629   3.695   0.484 -0.3042  0.4213  0.3030
 3070SOL    HW115225   1.665   3.759   0.416 -1.0365  2.6013  1.8350
 3070SOL    HW215226   1.529   3.691   0.477 -0.3123 -0.0399  0.6347
 3071SOL     OW15227   5.778   2.758   0.418  0.4703  0.3233  0.3789
 3071SOL    HW115228   5.737   2.753   0.509 -1.3515  2.9969 -0.1900
 3071SOL    HW215229   5.850   2.828   0.417  1.3926 -0.5932  0.0216
 3072SOL     OW15230   1.338   3.143   6.567  0.3414  0.3618 -0.3793
 3072SOL    HW115231   1.346   3.044   6.582 -0.2933  0.6108  1.9726
 3072SOL    HW215232   1.265   3.161   6.501 -0.7072 -0.6832  0.4592
 3073SOL     OW15233   1.584   3.666   4.696  0.6891 -1.0494 -0.2516
 3073SOL    HW115234   1.513   3.602   4.725 -0.0786  0.5714  1.6733
 3073SOL    HW215235   1.542   3.744   4.649  0.9464  0.5528  2.0206
 3074SOL     OW15236   0.706   5.303   0.521 -0.1355  0.6316  0.1086
 3074SOL    HW115237   0.759   5.223   0.547 -0.5042  0.1154 -0.6794
 3074SOL    HW215238   0.668   5.289   0.429  0.7345  2.1578 -0.5345
 3075SOL     OW15239   3.736   3.437   6.152  0.0141 -0.3487 -0.1567
 3075SOL    HW115240   3.821   3.385   6.148  1.0112  1.0333  1.5749
 3075SOL    HW215241   3.694   3.426   6.241 -1.1080 -0.2230 -0.6599
 3076SOL     OW15242   5.484   3.765   0.677 -0.5680 -0.0668 -0.3243
 3076SOL    HW115243   5.558   3.705   0.645  0.4215  0.2968  1.2211
 3076SOL    HW215244   5.495   3.856   0.636 -0.8352 -0.3131 -0.9713
 3077SOL     OW15245   5.482   2.935   0.853 -0.7168  0.1220  0.3173
 3077SOL    HW115246   5.449   2.857   0.799  0.6910 -0.4969  0.3127
 3077SOL    HW215247   5.482   3.017   0.797 -2.2538  0.1598  0.3323
 3078SOL     OW15248   2.487   0.212   5.979  0.2209  0.1096 -0.4618
 3078SOL    HW115249   2.577   0.176   6.001  0.3573  0.0793 -1.0571
 3078SOL    HW215250   2.433   0.222   6.064  1.4982  2.1713  0.1808
 3079SOL     OW15251   0.211   0.352   0.521  0.2632 -0.2568 -0.5342
 3079SOL    HW115252   0.140   0.391   0.463 -1.7440 -2.4224  0.2739
 3079SOL    HW215253   0.170   0.314   0.604  2.3140 -1.8582 -0.1441
 3080SOL     OW15254   2.196   3.801   0.592  0.1922 -0.0549  0.4799
 3080SOL    HW115255   2.273   3.823   0.652 -0.0992  2.4505  0.0560
 3080SOL    HW215256   2.111   3.810   0.643  0.0460 -0.0723  0.2393
 3081SOL     OW15257   5.766   3.018   0.843 -0.2042 -0.4805 -0.0818
 3081SOL    HW115258   5.683   3.024   0.899 -0.0537 -1.4271  0.2576
 3081SOL    HW215259   5.843   3.057   0.893  0.0454 -1.8429  0.6168
 3082SOL     OW15260   5.595   4.597   1.747  0.4028  0.6719  0.3769
 3082SOL    HW115261   5.549   4.534   1.810  0.0428 -0.3482 -0.8616
 3082SOL    HW215262   5.528   4.655   1.703  0.3253 -0.3998 -0.9773
 3083SOL     OW15263   0.739   6.319   5.648 -0.2199  0.1810 -0.3857
 3083SOL    HW115264   0.771   6.387   5.714 -0.1918 -0.0260 -0.1838
 3083SOL    HW215265   0.692   6.365   5.573  1.0494  0.5512 -0.9858
 3084SOL     OW15266   6.164   0.430   0.372 -0.7623  0.2994  0.0381
 3084SOL    HW115267   6.109   0.490   0.313 -2.8929 -1.3476  0.2022
 3084SOL    HW215268   6.245   0.400   0.322 -0.9675  1.2844 -0.9496
 3085SOL     OW15269   2.918   3.698   1.607 -0.5606  0.1620 -0.1988
 3085SOL    HW115270   2.956   3.608   1.587 -1.5858 -0.3225 -0.0437
 3085SOL    HW215271   2.871   3.696   1.695  0.6780  1.2633  0.5131
 3086SOL     OW15272   1.990   0.861   5.634 -0.9578 -0.8268 -0.5716
 3086SOL    HW115273   1.939   0.775   5.630 -0.1460 -1.3774  0.4530
 3086SOL    HW215274   1.935   0.934   5.593 -1.4081 -1.9308 -2.0380
 3087SOL     OW15275   3.985   0.777   5.605  0.1369 -0.6134 -0.6293
 3087SOL    HW115276   4.040   0.736   5.677 -0.0313  0.3864  0.0882
 3087SOL    HW215277   4.043   0.797   5.526  0.2347 -2.1080 -0.9605
 3088SOL     OW15278   0.075   0.306   0.250  0.0327  0.0442  0.2993
 3088SOL    HW115279   0.049   0.210   0.253  1.1612 -0.3120 -0.6381
 3088SOL    HW215280   0.166   0.315   0.209  0.3306  1.4396  1.1764
 3089SOL     OW15281   5.710   1.412   6.386 -0.1806  0.1560  0.5081
 3089SOL    HW115282   5.616   1.392   6.358  0.3092  0.3447 -1.3477
 3089SOL    HW215283   5.742   1.494   6.340  1.0762 -0.2015  0.7162
 3090SOL     OW15284   5.167   2.389   0.850 -0.0091 -0.0185  0.2737
 3090SOL    HW115285   5.234   2.404   0.923  0.3631  0.1518 -0.0972
 3090SOL    HW215286   5.111   2.309   0.872  0.7960 -0.6030  0.2473
 3091SOL     OW15287   3.831   3.858   6.433 -0.3517  0.0586  0.0732
 3091SOL    HW115288   3.787   3.800   6.502 -0.4499 -2.2702 -1.8027
 3091SOL    HW215289   3.770   3.933   6.409 -0.8602  0.1572  1.5667
 3092SOL     OW15290   0.498   4.757   0.849 -0.6077  0.3365  0.7403
 3092SOL    HW115291   0.548   4.683   0.803 -1.0404  0.4855  0.0115
 3092SOL    HW215292   0.476   4.729   0.942  0.0733 -0.0690  0.7899
 3093SOL     OW15293   3.593   3.959   5.854 -0.1153  0.6131 -0.0644
 3093SOL    HW115294   3.684   3.969   5.895  0.7449 -0.1392 -1.6439
 3093SOL    HW215295   3.564   4.046   5.815 -0.3441  0.9959  0.9310
 3094SOL     OW15296   1.456   3.753   4.948  0.3406 -0.1753  0.5364
 3094SOL    HW115297   1.496   3.682   5.005  1.6301 -0.3875 -0.5660
 3094SOL    HW215298   1.507   3.759   4.862 -0.5233  1.2340  0.0840
 3095SOL     OW15299   3.239   1.574   5.882 -0.3249 -0.0843 -1.0059
 3095SOL    HW115300   3.250   1.498   5.819  0.6711  1.1680 -2.4130
 3095SOL    HW215301   3.321   1.582   5.939 -1.2610 -1.2718  0.5682
 3096SOL     OW15302   1.904   3.546   0.976 -0.1849 -0.9932  0.4203
 3096SOL    HW115303   1.979   3.532   0.912 -1.5938  0.6496 -1.7423
 3096SOL    HW215304   1.854   3.460   0.988  0.3454 -1.4284 -0.3703
 3097SOL     OW15305   5.449   5.564   5.177  0.0066 -0.3677  0.1022
 3097SOL    HW115306   5.439   5.475   5.134 -0.7376 -0.2020 -0.0782
 3097SOL    HW215307   5.546   5.584   5.190  0.2221 -0.6361 -1.0412
 3098SOL     OW15308   2.191   6.047   0.580  0.0895  0.2650 -0.3528
 3098SOL    HW115309   2.180   5.979   0.652  1.5249 -1.3327 -1.5644
 3098SOL    HW215310   2.110   6.106   0.578 -1.2942 -1.4806  0.6715
 3099SOL     OW15311   1.043   4.810   6.324  0.2813  0.3676  0.0934
 3099SOL    HW115312   0.978   4.754   6.376  0.9079  0.0391  0.5373
 3099SOL    HW215313   1.004   4.831   6.234 -0.5025  0.3103  0.4085
 3100SOL     OW15314   2.514   4.526   5.752 -0.4816 -0.3036  0.2548
 3100SOL    HW115315   2.433   4.556   5.702 -0.1387  0.1321 -0.0496
 3100SOL    HW215316   2.556   4.449   5.703 -0.2145  0.0450 -0.0716
 3101SOL     OW15317   4.871   0.880   6.173 -0.4681 -0.4840 -0.0431
 3101SOL    HW115318   4.776   0.884   6.141  0.0672  2.5150 -1.6752
 3101SOL    HW215319   4.930   0.855   6.097  0.2264 -0.3977  0.4632
 3102SOL     OW15320   4.229   4.448   1.265  0.1099 -0.1702 -0.9293
 3102SOL    HW115321   4.168   4.521   1.292 -0.1931 -0.2612 -1.3560
 3102SOL    HW215322   4.252   4.392   1.345 -1.3901 -0.9067 -0.9728
 3103SOL     OW15323   1.580   1.091   5.485 -0.1458 -0.1798  0.1530
 3103SOL    HW115324   1.627   1.109   5.398 -2.2081  0.0489 -0.9733
 3103SOL    HW215325   1.522   1.169   5.508  0.2480 -0.3078  1.6947
 3104SOL     OW15326   5.298   3.483   1.892  0.6015  0.0408  0.7994
 3104SOL    HW115327   5.332   3.561   1.841  0.6566  0.0894  0.9095
 3104SOL    HW215328   5.204   3.501   1.923  0.3688 -0.2087  0.2515
 3105SOL     OW15329   2.409   1.820   6.312  0.6174 -0.1750 -0.1891
 3105SOL    HW115330   2.366   1.764   6.241  1.7579 -3.0248  1.1985
 3105SOL    HW215331   2.375   1.793   6.402  3.0336 -0.5038  0.7213
 3106SOL     OW15332   1.730   4.930   5.807 -1.1441 -0.6182  0.2035
 3106SOL    HW115333   1.769   4.999   5.745 -1.4188  0.4795  1.2256
 3106SOL    HW215334   1.799   4.860   5.825 -1.1205 -1.0863 -1.4835
 3107SOL     OW15335   3.187   6.168   1.348 -0.2617 -0.1791 -0.4725
 3107SOL    HW115336   3.267   6.112   1.368  0.1344  0.8837  1.1108
 3107SOL    HW215337   3.119   6.155   1.421 -0.3986  0.9447 -0.3867
 3108SOL     OW15338   1.243   3.106   4.813  0.1039  0.2041 -0.7017
 3108SOL    HW115339   1.311   3.107   4.886  0.0213 -1.1678 -0.5645
 3108SOL    HW215340   1.264   3.031   4.749 -0.5887  0.5251 -1.3248
 3109SOL     OW15341   4.411   1.224   0.147 -1.3515  0.0655 -0.5488
 3109SOL    HW115342   4.461   1.311   0.156  1.3387 -1.4205  0.0050
 3109SOL    HW215343   4.437   1.180   0.061  1.7298 -2.6083  1.4930
 3110SOL     OW15344   2.124   3.612   5.463  0.1159  0.0634  0.5866
 3110SOL    HW115345   2.138   3.558   5.546  1.8611 -1.1121 -0.4026
 3110SOL    HW215346   2.040   3.583   5.418  0.9075 -1.7542  0.1927
 3111SOL     OW15347   0.750   6.258   6.218  0.0272 -0.2324 -0.3934
 3111SOL    HW115348   0.757   6.161   6.195 -2.6649 -0.9904  1.4991
 3111SOL    HW215349   0.709   6.307   6.141 -2.3084 -1.4087  0.0051
 3112SOL     OW15350   0.597   1.696   0.983 -0.0774  0.1300  0.3097
 3112SOL    HW115351   0.598   1.606   0.940 -1.6672 -0.4297  1.3566
 3112SOL    HW215352   0.674   1.702   1.048 -0.7300 -1.0260  1.2456
 3113SOL     OW15353   2.272   5.647   0.402  0.6158  0.3469 -0.1291
 3113SOL    HW115354   2.185   5.673   0.444  0.9116 -0.1577  0.8324
 3113SOL    HW215355   2.259   5.634   0.304 -0.4527  0.0425  0.0409
 3114SOL     OW15356   2.922   4.042   1.362 -0.2530 -0.2825 -0.1167
 3114SOL    HW115357   2.917   4.141   1.368  0.8393 -0.3140  3.0483
 3114SOL    HW215358   2.834   4.002   1.388  0.0695 -0.1150  1.3491
 3115SOL     OW15359   4.501   0.910   0.973  0.0601  0.7007 -0.0832
 3115SOL    HW115360   4.534   0.821   0.941 -2.4367 -1.8186  3.4610
 3115SOL    HW215361   4.573   0.956   1.024  1.0351  0.1376 -0.9114
 3116SOL     OW15362   1.316   4.789   6.281  0.5761 -0.0283  0.1507
 3116SOL    HW115363   1.223   4.792   6.318  1.8140  3.1474  3.5976
 3116SOL    HW215364   1.370   4.722   6.333  0.1814 -2.5226 -2.4156
 3117SOL     OW15365   4.979   2.389   0.532 -0.0875 -0.5131 -0.2916
 3117SOL    HW115366   5.066   2.345   0.513  0.4310 -0.5887  2.0476
 3117SOL    HW215367   4.988   2.488   0.519  0.3216 -0.5283 -0.1328
 3118SOL     OW15368   0.675   0.197   0.675 -0.2371  0.2102 -0.1771
 3118SOL    HW115369   0.646   0.125   0.612 -0.9986  2.4787 -2.6126
 3118SOL    HW215370   0.603   0.267   0.681  0.6202  0.9995  1.7920
 3119SOL     OW15371   0.144   5.186   0.085  0.1391 -0.0165 -0.0064
 3119SOL    HW115372   0.113   5.245   0.160  3.4237  0.5027  1.1290
 3119SOL    HW215373   0.195   5.241   0.018  2.9774 -1.3447  0.8906
 3120SOL     OW15374   0.704   5.735   5.536  0.5449  0.2960 -0.4806
 3120SOL    HW115375   0.787   5.755   5.588  1.7515  1.0646 -2.5749
 3120SOL    HW215376   0.653   5.819   5.521  0.5421  0.1920 -1.0738
 3121SOL     OW15377   3.089   1.240   5.443  0.1607 -0.1311  0.2935
 3121SOL    HW115378   3.028   1.213   5.367  0.0220  0.4870  0.1797
 3121SOL    HW215379   3.146   1.162   5.468 -2.3094 -1.5417  2.0091
 3122SOL     OW15380   4.739   3.308   6.120 -0.2235 -0.1333 -0.0861
 3122SOL    HW115381   4.757   3.245   6.045  0.3308 -1.8266  1.3903
 3122SOL    HW215382   4.821   3.319   6.175 -1.1400 -0.5217  1.4113
 3123SOL     OW15383   1.909   2.409   5.712  0.3233  0.0311 -0.0171
 3123SOL    HW115384   1.868   2.400   5.621 -0.6880  0.8619  0.3367
 3123SOL    HW215385   1.842   2.382   5.781  0.2623  1.6142  0.5888
 3124SOL     OW15386   1.090   4.777   0.081  0.2637 -0.3827 -0.4447
 3124SOL    HW115387   1.000   4.777   0.123 -0.0048 -0.2424 -1.0085
 3124SOL    HW215388   1.095   4.851   0.013  1.4614  0.9145  0.9895
 3125SOL     OW15389   5.286   2.170   6.044 -0.1156  0.2857 -0.4228
 3125SOL    HW115390   5.252   2.169   6.138  2.3972  1.2007  0.5647
 3125SOL    HW215391   5.300   2.076   6.013  0.2536 -0.0096  0.5952
 3126SOL     OW15392   3.445   3.075   6.625  0.5490 -0.3178 -0.7279
 3126SOL    HW115393   3.466   3.157   6.678  1.8540 -1.3739  0.4568
 3126SOL    HW215394   3.494   2.996   6.664 -0.6886 -1.6766 -1.8032
 3127SOL     OW15395   3.028   0.897   0.614 -1.3278  0.2180 -0.1817
 3127SOL    HW115396   3.116   0.849   0.605 -1.3845  0.3301 -1.7323
 3127SOL    HW215397   3.023   0.941   0.703  0.0739 -0.0466  0.0590
 3128SOL     OW15398   0.785   4.998   6.594  1.0926  0.2781  0.0477
 3128SOL    HW115399   0.802   5.067   6.664 -1.6876  2.3533 -1.1608
 3128SOL    HW215400   0.750   4.914   6.636 -0.0165  1.2920  1.1879
 3129SOL     OW15401   0.695   1.076   6.189 -0.2485 -0.1243  0.4131
 3129SOL    HW115402   0.681   1.165   6.232  0.0012 -0.6405  1.5969
 3129SOL    HW215403   0.610   1.024   6.189 -0.2023 -0.2007  0.4531
 3130SOL     OW15404   2.766   1.035   5.468  0.2965  0.1732 -0.9858
 3130SOL    HW115405   2.766   1.027   5.567  1.1934 -0.2807 -1.0135
 3130SOL    HW215406   2.860   1.037   5.434  0.0486 -1.8283 -1.9788
 3131SOL     OW15407   2.108   1.968   5.635 -0.2252 -0.5060  0.1039
 3131SOL    HW115408   2.093   1.987   5.732 -0.0960 -3.9793  0.9452
 3131SOL    HW215409   2.024   1.931   5.596  0.0689 -0.2070 -0.8176
 3132SOL     OW15410   4.314   0.949   0.179 -0.5102 -0.7471  0.0490
 3132SOL    HW115411   4.288   0.901   0.095 -0.4046 -1.5241  0.4496
 3132SOL    HW215412   4.372   1.027   0.156  0.7811 -1.8327 -0.5038
 3133SOL     OW15413   0.347   2.909   5.790  0.1367  0.2214 -0.1530
 3133SOL    HW115414   0.251   2.924   5.766 -0.3891 -1.6428  0.6099
 3133SOL    HW215415   0.383   2.834   5.735  0.4693 -0.5877  1.1474
 3134SOL     OW15416   2.168   3.861   5.567  0.1989  0.4898  0.4047
 3134SOL    HW115417   2.133   3.773   5.535  1.3468  0.1791 -0.0390
 3134SOL    HW215418   2.187   3.920   5.489  2.9386 -0.2411  0.4271
 3135SOL     OW15419   5.488   5.565   1.514 -0.0675 -0.8385 -0.0248
 3135SOL    HW115420   5.455   5.513   1.593 -1.6878 -0.9029 -0.6964
 3135SOL    HW215421   5.469   5.662   1.528 -0.5575 -0.8727 -0.4088
 3136SOL     OW15422   2.996   2.516   4.560 -0.9219  0.3152  0.1664
 3136SOL    HW115423   2.924   2.568   4.514  0.3620  0.9250 -1.2516
 3136SOL    HW215424   3.052   2.578   4.615 -0.5848  0.1189  0.0515
 3137SOL     OW15425   3.160   2.264   0.362 -0.1660  0.2100 -0.9229
 3137SOL    HW115426   3.082   2.322   0.384  0.5558  0.8233  0.1344
 3137SOL    HW215427   3.129   2.182   0.314 -1.4609  0.4060 -0.4527
 3138SOL     OW15428   0.683   4.335   6.201 -0.0651  0.1212  0.3739
 3138SOL    HW115429   0.768   4.386   6.187 -0.9958  1.8367  0.6434
 3138SOL    HW215430   0.607   4.400   6.212 -1.7051 -1.3538 -1.4927
 3139SOL     OW15431   1.092   3.967   0.817 -0.1262 -0.1640 -0.0408
 3139SOL    HW115432   1.031   4.012   0.753  0.9555 -0.6096 -1.4389
 3139SOL    HW215433   1.117   4.031   0.890  0.8054  1.3166 -1.5754
 3140SOL     OW15434   2.113   4.871   6.515  0.6627 -0.1015 -0.7671
 3140SOL    HW115435   2.027   4.885   6.465  1.1105 -0.5688 -1.6924
 3140SOL    HW215436   2.189   4.912   6.463  1.0853 -0.2636 -0.2813
 3141SOL     OW15437   3.322   2.159   0.705 -0.2679  0.6235  0.6743
 3141SOL    HW115438   3.400   2.207   0.665 -0.7495 -0.4440 -1.7219
 3141SOL    HW215439   3.311   2.070   0.660 -3.2818  1.0229  0.4273
 3142SOL     OW15440   2.812   0.108   5.682  0.1707 -0.4969  0.1279
 3142SOL    HW115441   2.772   0.017   5.698  1.0019 -1.0542 -0.8448
 3142SOL    HW215442   2.740   0.176   5.678 -0.8277 -1.5717 -2.3239
 3143SOL     OW15443   0.624   3.978   0.555 -0.2942  0.0276  0.1051
 3143SOL    HW115444   0.581   3.902   0.605 -0.7230  0.6535  0.6936
 3143SOL    HW215445   0.562   4.010   0.483 -0.0650 -0.2496 -0.2199
 3144SOL     OW15446   0.603   3.335   5.359 -1.2418  0.5325  0.6642
 3144SOL    HW115447   0.683   3.281   5.386 -0.9155  1.1328  0.9470
 3144SOL    HW215448   0.560   3.295   5.279  2.2959  2.8360 -2.7868
 3145SOL     OW15449   2.805   0.733   0.554 -0.0464  0.0344  0.4632
 3145SOL    HW115450   2.885   0.780   0.592  0.4954  0.3400 -1.0054
 3145SOL    HW215451   2.835   0.667   0.485 -0.9786 -0.8149  0.8430
 3146SOL     OW15452   3.810   2.582   6.420  0.5033  0.2145  0.9048
 3146SOL    HW115453   3.897   2.609   6.378  0.1692 -1.0457 -0.7043
 3146SOL    HW215454   3.757   2.664   6.443  0.0706  1.0880 -2.5799
 3147SOL     OW15455   5.381   1.667   1.239  0.1311  0.3045  0.4390
 3147SOL    HW115456   5.380   1.766   1.223 -0.2887  0.2834  0.3290
 3147SOL    HW215457   5.385   1.649   1.337  1.1459  0.4284  0.4332
 3148SOL     OW15458   4.499   0.676   1.213  0.4448 -0.2081  0.1516
 3148SOL    HW115459   4.429   0.743   1.238  1.6685  1.0730  0.2646
 3148SOL    HW215460   4.589   0.708   1.244  1.2261 -1.3061 -0.8888
 3149SOL     OW15461   0.317   2.577   5.559 -0.5049  0.0272 -0.2526
 3149SOL    HW115462   0.410   2.550   5.536  0.0130  0.4589  1.1612
 3149SOL    HW215463   0.261   2.580   5.477  1.0462  0.9641 -1.3420
 3150SOL     OW15464   5.209   0.331   1.174  0.4446  0.3215 -0.1239
 3150SOL    HW115465   5.136   0.263   1.183 -1.3093  1.9564 -1.2521
 3150SOL    HW215466   5.175   0.420   1.203  2.2261  1.0372 -0.0816
 3151SOL     OW15467   4.286   3.433   6.398  0.2965 -0.3942  1.1312
 3151SOL    HW115468   4.357   3.399   6.336  0.2971  1.0793  0.2890
 3151SOL    HW215469   4.264   3.528   6.376 -0.8260 -0.3215  2.3997
 3152SOL     OW15470   5.443   0.326   5.543  0.3055  0.4537  0.0855
 3152SOL    HW115471   5.465   0.267   5.465  0.4548 -1.1328  1.2758
 3152SOL    HW215472   5.347   0.314   5.567  0.4128  0.4534  0.5221
 3153SOL     OW15473   5.244   2.656   6.250  0.0126 -0.0487 -0.0617
 3153SOL    HW115474   5.236   2.755   6.259 -0.0419  0.0647 -1.3025
 3153SOL    HW215475   5.252   2.631   6.154 -2.6318 -1.4322 -0.0333
 3154SOL     OW15476   0.070   0.546   6.200  0.0772 -0.4542 -0.4656
 3154SOL    HW115477   0.030   0.555   6.108  1.6555 -1.1768 -1.2664
 3154SOL    HW215478   0.013   0.484   6.254 -2.0478  1.6025 -0.1916
 3155SOL     OW15479   4.801   2.623   5.832 -0.3801 -0.0305 -0.7150
 3155SOL    HW115480   4.806   2.580   5.742 -0.0743 -1.7850  0.1127
 3155SOL    HW215481   4.762   2.715   5.822 -0.0046 -0.0343 -2.6711
 3156SOL     OW15482   3.262   5.330   1.742 -0.0317 -0.1472 -0.1856
 3156SOL    HW115483   3.293   5.235   1.743 -0.4239 -0.2779 -0.0543
 3156SOL    HW215484   3.327   5.387   1.793 -0.3270 -0.5207  0.6297
 3157SOL     OW15485   4.503   2.689   0.948  0.2035  0.5071  0.0816
 3157SOL    HW115486   4.454   2.763   0.903 -0.9756  0.8589  1.8542
 3157SOL    HW215487   4.437   2.624   0.986  1.1662 -0.1501  0.6707
 3158SOL     OW15488   3.656   6.088   0.517  0.5303  0.3461  0.1324
 3158SOL    HW115489   3.607   6.169   0.486 -2.5431 -1.7243 -0.9542
 3158SOL    HW215490   3.649   6.081   0.617 -0.3792  0.7283  0.1076
 3159SOL     OW15491   2.095   4.543   6.410 -0.1506  0.2118  0.6597
 3159SOL    HW115492   2.071   4.504   6.321 -1.2724 -1.5471  1.6793
 3159SOL    HW215493   2.024   4.519   6.477  1.7674 -0.4100  2.5506
 3160SOL     OW15494   2.922   2.119   6.271 -0.9297 -0.2316  0.2144
 3160SOL    HW115495   2.953   2.194   6.329 -0.6421  0.5138 -0.8745
 3160SOL    HW215496   2.892   2.042   6.329 -2.5807  1.2278  1.4102
 3161SOL     OW15497   2.960   3.528   2.015 -0.6058 -0.2840  0.2982
 3161SOL    HW115498   3.052   3.492   2.002 -0.6389 -1.0751  2.0101
 3161SOL    HW215499   2.897   3.454   2.037 -0.9937  0.5647  2.3258
 3162SOL     OW15500   2.510   0.870   0.134  0.8709  0.3360  0.0214
 3162SOL    HW115501   2.414   0.847   0.150  0.2908  1.5110 -1.4731
 3162SOL    HW215502   2.569   0.798   0.171 -0.6661 -1.5855 -1.1169
 3163SOL     OW15503   4.811   3.641   0.308 -0.1637  0.2561  0.4417
 3163SOL    HW115504   4.749   3.666   0.234  1.5963  0.2787 -1.1198
 3163SOL    HW215505   4.902   3.677   0.288  1.0024 -2.0233  1.2310
 3164SOL     OW15506   4.093   5.749   6.034  0.3396 -0.3425 -0.7857
 3164SOL    HW115507   4.189   5.722   6.025  0.0462 -0.7077 -3.8490
 3164SOL    HW215508   4.083   5.846   6.013 -0.0844 -0.5939 -1.8271
 3165SOL     OW15509   5.979   1.061   0.169  0.7061  0.4205 -0.1559
 3165SOL    HW115510   5.915   0.985   0.178  0.1856  0.9945  1.3993
 3165SOL    HW215511   6.050   1.038   0.102  1.9681 -2.4478  1.9622
 3166SOL     OW15512   4.950   1.551   0.735 -0.0804 -0.4851 -0.0278
 3166SOL    HW115513   4.878   1.611   0.700  0.4557  1.0988  1.4421
 3166SOL    HW215514   5.031   1.559   0.677  0.5479  1.5371  1.0524
 3167SOL     OW15515   4.304   0.443   0.612  0.6924 -0.4297  0.7847
 3167SOL    HW115516   4.269   0.535   0.593  0.8333 -0.3421  0.9455
 3167SOL    HW215517   4.385   0.450   0.670  1.8595 -0.5438 -0.7673
 3168SOL     OW15518   5.328   1.478   0.573  0.2214  0.0405 -0.1729
 3168SOL    HW115519   5.238   1.468   0.532  0.7052  0.6546 -1.4086
 3168SOL    HW215520   5.373   1.388   0.577 -0.3615 -0.2408  0.3033
 3169SOL     OW15521   3.286   4.612   1.134 -0.1417  0.4660 -0.3527
 3169SOL    HW115522   3.306   4.541   1.201  0.6867  0.2499 -0.8026
 3169SOL    HW215523   3.190   4.606   1.106  0.1842 -1.3300 -1.3192
 3170SOL     OW15524   3.419   0.300   6.239  0.3127  0.0129  0.4545
 3170SOL    HW115525   3.369   0.248   6.308 -0.3273  1.3231  1.0133
 3170SOL    HW215526   3.433   0.393   6.272  1.3653  0.2257 -0.5511
 3171SOL     OW15527   3.799   0.034   6.279  0.2347  0.6089 -0.2845
 3171SOL    HW115528   3.767   0.127   6.263  1.5807  1.7901  2.9414
 3171SOL    HW215529   3.777   0.007   6.373  0.0273 -2.3267 -1.0815
 3172SOL     OW15530   3.155   0.536   6.455  0.7708  0.1063 -0.4396
 3172SOL    HW115531   3.058   0.512   6.447  1.1546 -1.3666 -0.9156
 3172SOL    HW215532   3.163   0.635   6.470 -0.8563  0.0965  0.9395
 3173SOL     OW15533   3.712   5.157   5.850  0.1710  0.0496 -0.5929
 3173SOL    HW115534   3.613   5.144   5.849 -0.1369  2.0918 -1.2351
 3173SOL    HW215535   3.750   5.130   5.761  0.0103  0.4986 -0.7971
 3174SOL     OW15536   5.331   4.810   0.518 -0.0616  0.4767 -0.2350
 3174SOL    HW115537   5.319   4.909   0.508 -2.0220  0.1527 -1.3566
 3174SOL    HW215538   5.317   4.785   0.614  0.1379  1.2404  0.0006
 3175SOL     OW15539   3.843   0.119   1.529  0.0176 -0.3118  0.0836
 3175SOL    HW115540   3.898   0.036   1.541  0.9573  0.3477  0.4829
 3175SOL    HW215541   3.820   0.131   1.432  1.4462 -0.0836 -0.2508
 3176SOL     OW15542   0.574   0.883   6.499 -0.2965 -0.4205  0.0567
 3176SOL    HW115543   0.564   0.787   6.477  0.3820 -0.5930  0.4395
 3176SOL    HW215544   0.500   0.936   6.458 -2.0399 -1.3969  1.7748
 3177SOL     OW15545   1.586   5.541   6.165  0.4682  0.4847  0.5538
 3177SOL    HW115546   1.532   5.459   6.149 -0.5147  1.0766  0.7309
 3177SOL    HW215547   1.641   5.562   6.084  2.5886 -1.6561  1.3309
 3178SOL     OW15548   0.453   1.534   0.167 -0.0995  0.6378  0.1275
 3178SOL    HW115549   0.454   1.540   0.067 -0.7762  0.7036  0.1192
 3178SOL    HW215550   0.536   1.488   0.198 -0.0240  0.3434 -0.4861
 3179SOL     OW15551   3.764   4.909   0.991 -0.2171 -0.1952  0.2109
 3179SOL    HW115552   3.753   4.886   1.088  1.4933 -0.9572  0.2558
 3179SOL    HW215553   3.758   5.008   0.979 -2.0371 -0.1929  0.8402
 3180SOL     OW15554   0.369   1.975   5.422 -0.2447  0.2477  0.3604
 3180SOL    HW115555   0.438   2.029   5.372 -0.5936  0.3589 -0.0063
 3180SOL    HW215556   0.384   1.986   5.520  0.2224  0.3235  0.2858
 3181SOL     OW15557   0.383   3.205   0.278  0.5751  0.0371 -0.0025
 3181SOL    HW115558   0.291   3.217   0.241  0.7004  0.5652 -0.1462
 3181SOL    HW215559   0.394   3.262   0.359  0.6354 -0.3529  0.2665
 3182SOL     OW15560   1.306   0.452   1.439 -0.3943 -0.1392 -0.3427
 3182SOL    HW115561   1.398   0.414   1.438  0.0449  0.8545  0.4179
 3182SOL    HW215562   1.266   0.447   1.348  0.1066 -1.2716 -0.5177
 3183SOL     OW15563   3.492   2.729   6.162 -0.2308 -0.7786  0.3177
 3183SOL    HW115564   3.502   2.800   6.232 -0.8203 -2.0237  1.7315
 3183SOL    HW215565   3.458   2.645   6.205  0.8433 -2.0605 -1.2298
 3184SOL     OW15566   4.289   1.673   0.154  0.6113  0.1899  0.5382
 3184SOL    HW115567   4.243   1.630   0.232 -1.8201  1.7232  0.0526
 3184SOL    HW215568   4.320   1.602   0.091 -0.8223 -0.9725  1.0727
 3185SOL     OW15569   3.329   1.074   5.511 -0.3018  0.5553 -0.5493
 3185SOL    HW115570   3.356   1.127   5.592 -0.3155  1.8932 -1.4033
 3185SOL    HW215571   3.312   0.979   5.538 -0.9371  1.1094  1.1445
 3186SOL     OW15572   2.851   1.521   0.709 -0.5539 -0.1417 -0.7593
 3186SOL    HW115573   2.817   1.562   0.794  2.1922  1.8012 -0.4643
 3186SOL    HW215574   2.830   1.581   0.632 -0.1324 -0.2345 -0.9498
 3187SOL     OW15575   3.582   0.134   5.716 -0.3941 -0.1312 -0.0357
 3187SOL    HW115576   3.658   0.074   5.743 -0.5931 -1.5759 -2.4153
 3187SOL    HW215577   3.514   0.136   5.789  0.8504 -0.6540  1.1906
 3188SOL     OW15578   3.738   0.338   5.903  0.5875 -0.4853 -0.4086
 3188SOL    HW115579   3.652   0.362   5.858  1.1483  0.5383 -0.9742
 3188SOL    HW215580   3.780   0.261   5.856  0.6492 -0.0931 -1.0114
 3189SOL     OW15581   5.101   5.334   0.612 -0.0059 -0.5508 -0.1172
 3189SOL    HW115582   5.018   5.315   0.663  0.1244 -0.1741  0.2377
 3189SOL    HW215583   5.171   5.266   0.635 -0.5347 -1.4988 -1.1941
 3190SOL     OW15584   4.471   0.835   6.367  0.3741  0.0163  0.0597
 3190SOL    HW115585   4.373   0.815   6.361 -0.1486  2.2174  0.3719
 3190SOL    HW215586   4.484   0.933   6.385  2.6229 -0.3516  0.7544
 3191SOL     OW15587   5.549   4.110   0.172  0.4498 -0.5734 -0.0597
 3191SOL    HW115588   5.533   4.022   0.130 -0.0543 -0.2029 -0.6555
 3191SOL    HW215589   5.464   4.162   0.176 -0.1749 -1.5650  3.7740
 3192SOL     OW15590   2.329   1.621   1.007 -0.1085 -0.4399 -0.1437
 3192SOL    HW115591   2.355   1.524   1.011 -2.4916 -1.1283  1.5478
 3192SOL    HW215592   2.258   1.633   0.938  0.5934  0.2305 -0.7542
 3193SOL     OW15593   1.855   5.838   1.113  0.2942 -0.4454  0.6877
 3193SOL    HW115594   1.783   5.906   1.104 -0.9162 -1.4698  2.0761
 3193SOL    HW215595   1.822   5.750   1.079  0.9187 -0.9019  1.2202
 3194SOL     OW15596   4.148   2.675   6.086  0.0546  0.3991  0.2364
 3194SOL    HW115597   4.107   2.591   6.049 -1.5610  0.4285  1.8465
 3194SOL    HW215598   4.098   2.754   6.052 -0.0852  0.5442  0.7670
 3195SOL     OW15599   0.233   6.324   6.035 -0.5024 -0.4165  0.2454
 3195SOL    HW115600   0.182   6.345   5.952  1.0067  1.4171 -0.2786
 3195SOL    HW215601   0.260   6.227   6.034  1.3630  0.0462 -2.4943
 3196SOL     OW15602   0.475   0.461   5.059  0.2306  0.0186 -0.3428
 3196SOL    HW115603   0.420   0.420   4.986  0.2824  0.5026 -0.6581
 3196SOL    HW215604   0.521   0.542   5.024 -2.4157  2.2842  1.1079
 3197SOL     OW15605   1.104   1.295   0.156  0.5319 -0.0292 -0.8081
 3197SOL    HW115606   1.123   1.390   0.134  0.3654  0.6421  1.6926
 3197SOL    HW215607   1.180   1.257   0.209  0.1205 -0.9815 -0.8673
 3198SOL     OW15608   0.504   4.909   5.411 -0.4664 -0.5785 -0.7198
 3198SOL    HW115609   0.418   4.901   5.360 -0.6366 -1.2386 -0.3498
 3198SOL    HW215610   0.572   4.847   5.370 -0.4304 -0.6869 -0.4980
 3199SOL     OW15611   4.444   5.003   0.191  0.2273 -0.0641 -0.3164
 3199SOL    HW115612   4.405   5.064   0.259  1.1530 -0.6038  0.7238
 3199SOL    HW215613   4.375   4.937   0.161 -1.0486  1.9391 -2.0786
 3200SOL     OW15614   2.750   3.524   4.939 -0.3666  0.0793  0.3700
 3200SOL    HW115615   2.754   3.575   4.853 -1.7084  0.7102  0.6645
 3200SOL    HW215616   2.826   3.458   4.942 -0.6678 -0.4274 -1.5927
 3201SOL     OW15617   1.792   0.678   5.848  0.2773 -0.3788 -0.2602
 3201SOL    HW115618   1.801   0.608   5.919 -1.3014 -1.0059 -0.6323
 3201SOL    HW215619   1.695   0.700   5.836  0.3556 -1.1752 -3.0418
 3202SOL     OW15620   5.505   5.148   0.952  0.1340  0.0862  0.6230
 3202SOL    HW115621   5.537   5.056   0.927  1.1116  0.2893  1.0976
 3202SOL    HW215622   5.437   5.141   1.024 -0.6248 -0.3251 -0.1070
 3203SOL     OW15623   0.861   5.096   0.678  0.2538 -0.2162  0.3621
 3203SOL    HW115624   0.923   5.090   0.756  0.3624 -0.0916  0.2849
 3203SOL    HW215625   0.769   5.071   0.707  0.3167 -0.2812  0.5043
 3204SOL     OW15626   5.855   4.173   5.963  0.1874  0.0837  0.0791
 3204SOL    HW115627   5.934   4.233   5.948  0.7702 -1.2853 -3.2121
 3204SOL    HW215628   5.877   4.105   6.033  0.6815  1.6502  1.5105
 3205SOL     OW15629   4.847   0.778   1.446 -0.2036 -0.0232 -0.3710
 3205SOL    HW115630   4.911   0.704   1.431 -0.3230 -0.0113 -0.9464
 3205SOL    HW215631   4.842   0.799   1.544 -0.7895 -1.3285 -0.1077
 3206SOL     OW15632   6.202   2.469   5.935 -0.1807  0.0408  0.1130
 3206SOL    HW115633   6.207   2.437   6.030  0.2873  0.3521  0.1922
 3206SOL    HW215634   6.288   2.512   5.909 -0.5454  0.5702 -0.2360
 3207SOL     OW15635   1.913   0.881   0.403  0.0396  0.0915  0.0777
 3207SOL    HW115636   1.985   0.929   0.454  1.6768 -0.1596 -1.8453
 3207SOL    HW215637   1.881   0.941   0.329  0.6728 -0.9962 -1.1114
 3208SOL     OW15638   3.012   1.114   5.185  0.4388 -0.1648  0.0080
 3208SOL    HW115639   3.053   1.186   5.129  2.3619 -1.1505  0.0623
 3208SOL    HW215640   3.065   1.029   5.175 -2.0471 -1.7584 -0.4506
 3209SOL     OW15641   0.618   2.778   5.716  0.2638  0.0683  0.3246
 3209SOL    HW115642   0.579   2.800   5.627  1.5431 -1.3863 -0.6543
 3209SOL    HW215643   0.679   2.851   5.745 -1.6645  1.4913  1.0029
 3210SOL     OW15644   4.341   5.612   6.003 -0.1770  0.0328  0.2210
 3210SOL    HW115645   4.357   5.669   5.923  0.3998  1.3027  1.2134
 3210SOL    HW215646   4.422   5.556   6.021  1.0602  2.2039  1.8320
 3211SOL     OW15647   3.525   3.594   1.636 -0.3937 -0.1970  0.3903
 3211SOL    HW115648   3.437   3.575   1.681  0.2209 -2.9151  0.6086
 3211SOL    HW215649   3.591   3.523   1.662  0.7048 -0.5330 -2.9340
 3212SOL     OW15650   2.543   1.171   0.770 -0.0932 -0.1171  0.1562
 3212SOL    HW115651   2.447   1.149   0.749 -0.4566 -0.3504  1.9256
 3212SOL    HW215652   2.602   1.134   0.698 -1.3491  0.4487 -1.2238
 3213SOL     OW15653   0.692   0.175   6.328 -0.1461  0.3340 -0.3261
 3213SOL    HW115654   0.626   0.211   6.261 -1.5792 -0.5416  0.5550
 3213SOL    HW215655   0.719   0.083   6.301 -3.4163 -1.5191  1.8890
 3214SOL     OW15656   2.292   1.971   0.314  0.0317  0.0837  0.5293
 3214SOL    HW115657   2.389   1.997   0.311  0.4668 -1.5002 -1.1278
 3214SOL    HW215658   2.252   1.981   0.222 -0.9261 -0.8258  0.8209
 3215SOL     OW15659   4.538   3.132   5.728 -0.5187 -0.1172 -0.3885
 3215SOL    HW115660   4.476   3.055   5.746  0.6638 -1.0124 -0.0068
 3215SOL    HW215661   4.485   3.214   5.710 -1.8400 -1.1949 -1.6368
 3216SOL     OW15662   5.506   2.728   5.307  0.0067  0.1893  0.0307
 3216SOL    HW115663   5.473   2.637   5.279 -0.3554  0.4628 -0.4527
 3216SOL    HW215664   5.480   2.795   5.237  1.2984  0.4751 -0.1910
 3217SOL     OW15665   1.897   1.792   5.417 -0.2507 -0.2921 -0.1114
 3217SOL    HW115666   1.923   1.757   5.327 -0.9191  1.2713 -0.9500
 3217SOL    HW215667   1.807   1.836   5.411  0.8070  2.1226  0.7127
 3218SOL     OW15668   5.120   3.221   6.631  0.0540  0.1371  0.9823
 3218SOL    HW115669   5.143   3.162   6.554 -1.8313  0.8174 -0.1593
 3218SOL    HW215670   5.172   3.306   6.624 -2.5136  1.6869 -1.6045
 3219SOL     OW15671   0.463   5.060   1.012  0.4720  0.5076 -0.1397
 3219SOL    HW115672   0.496   4.966   1.017  0.0456  0.4181  1.4907
 3219SOL    HW215673   0.416   5.084   1.097  0.7593  2.2674 -0.4343
 3220SOL     OW15674   4.620   5.435   6.458 -0.4041  0.2088  0.0694
 3220SOL    HW115675   4.701   5.469   6.409 -0.6097 -0.3252 -0.6550
 3220SOL    HW215676   4.557   5.511   6.473 -1.8771 -0.0926 -3.4938
 3221SOL     OW15677   5.645   4.127   5.811  0.0569 -0.1856 -0.1717
 3221SOL    HW115678   5.640   4.203   5.746  1.8766  0.7968  0.7575
 3221SOL    HW215679   5.727   4.137   5.867 -0.2879 -2.2228  0.7771
 3222SOL     OW15680   1.334   2.833   6.350 -0.2868  0.1875  0.1647
 3222SOL    HW115681   1.306   2.739   6.370 -1.3153  0.9422  2.7864
 3222SOL    HW215682   1.264   2.878   6.294  0.6756 -0.8276 -1.9438
 3223SOL     OW15683   1.911   1.266   5.705  0.3707 -0.5257  0.1236
 3223SOL    HW115684   1.887   1.334   5.636 -0.6733 -1.2231 -0.2294
 3223SOL    HW215685   1.992   1.296   5.756  1.5753 -0.3036 -1.8401
 3224SOL     OW15686   5.220   6.075   6.175  0.0622  0.3451 -0.5649
 3224SOL    HW115687   5.160   6.048   6.251  1.3136 -0.5895  0.1302
 3224SOL    HW215688   5.236   5.996   6.115 -4.0271  1.8737 -4.1751
 3225SOL     OW15689   5.836   4.892   0.657  0.8051 -0.1901 -0.0187
 3225SOL    HW115690   5.934   4.900   0.642  1.1283 -1.2389  1.2710
 3225SOL    HW215691   5.799   4.818   0.600  1.3955 -1.9171  1.7366
 3226SOL     OW15692   0.700   5.727   1.221 -0.4419 -0.0620  0.0761
 3226SOL    HW115693   0.742   5.641   1.191 -1.0221 -0.6341  0.8602
 3226SOL    HW215694   0.699   5.731   1.321 -1.0482  0.5402  0.0558
 3227SOL     OW15695   2.147   4.509   5.158  0.1585 -0.4299 -0.3512
 3227SOL    HW115696   2.149   4.590   5.216 -0.5812  0.3633 -1.3907
 3227SOL    HW215697   2.213   4.519   5.083 -0.3249 -0.5373 -0.7966
 3228SOL     OW15698   3.475   0.648   0.330  0.0796  0.1586 -0.0485
 3228SOL    HW115699   3.388   0.600   0.337  1.2259 -2.0156  0.0526
 3228SOL    HW215700   3.521   0.648   0.419  0.8588 -0.0606 -0.4423
 3229SOL     OW15701   3.954   2.275   0.965 -0.1319 -0.9776 -0.6758
 3229SOL    HW115702   4.028   2.238   1.020  0.2890 -1.0498 -1.2742
 3229SOL    HW215703   3.903   2.343   1.018 -1.8791 -3.4513  0.9968
 3230SOL     OW15704   4.142   1.616   5.366  0.1732  0.3023  0.0821
 3230SOL    HW115705   4.184   1.540   5.415  0.6385 -1.2118 -2.5128
 3230SOL    HW215706   4.210   1.660   5.308 -1.2372 -0.9675 -2.7269
 3231SOL     OW15707   5.826   4.173   0.793 -0.2201 -0.6180 -0.4356
 3231SOL    HW115708   5.862   4.215   0.877 -1.7430 -1.6420  0.7792
 3231SOL    HW215709   5.814   4.075   0.807  0.4348 -0.9894 -2.2182
 3232SOL     OW15710   3.185   0.257   0.565  0.8344  0.0539  0.3555
 3232SOL    HW115711   3.100   0.206   0.576  0.2909  1.2653  2.4107
 3232SOL    HW215712   3.262   0.201   0.596  0.5437 -0.3324  0.3879
 3233SOL     OW15713   4.204   2.003   1.139 -0.6158  0.4646 -0.3038
 3233SOL    HW115714   4.257   1.922   1.115 -0.3868  1.0290 -1.8230
 3233SOL    HW215715   4.126   1.976   1.196  0.6290 -0.5214  1.0138
 3234SOL     OW15716   0.985   0.593   6.043 -0.1500  0.3877  0.3117
 3234SOL    HW115717   1.078   0.618   6.072  1.5630 -3.0092 -1.6886
 3234SOL    HW215718   0.934   0.557   6.122  1.4879 -0.9558  0.8153
 3235SOL     OW15719   3.465   6.279   1.168 -0.0103  0.2597 -0.4178
 3235SOL    HW115720   3.439   6.194   1.121  1.4692  0.4999 -1.7877
 3235SOL    HW215721   3.439   6.357   1.111  0.1758  0.6492  0.0281
 3236SOL     OW15722   2.128   1.959   6.079  0.2304 -0.1687  0.1085
 3236SOL    HW115723   2.150   2.029   6.011 -0.3523  1.1006  1.1857
 3236SOL    HW215724   2.124   1.870   6.035 -0.1448  0.6199 -1.5200
 3237SOL     OW15725   0.729   1.167   0.707  0.3574  0.0695 -0.0534
 3237SOL    HW115726   0.777   1.103   0.767 -3.1728 -1.8954  1.0088
 3237SOL    HW215727   0.738   1.260   0.743  1.1182 -0.5997  1.5849
 3238SOL     OW15728   0.347   4.888   6.321  0.0444 -0.0417  0.1117
 3238SOL    HW115729   0.304   4.922   6.405  0.2002 -1.8130  0.9461
 3238SOL    HW215730   0.350   4.962   6.253  0.1955  1.5220  1.7502
 3239SOL     OW15731   3.505   3.666   6.474  0.0747  0.2128  0.2332
 3239SOL    HW115732   3.590   3.659   6.527  1.0547  1.3694 -1.0963
 3239SOL    HW215733   3.429   3.630   6.527  1.3200 -0.4072  1.6558
 3240SOL     OW15734   2.936   5.523   5.316 -0.0968 -0.1687 -0.0179
 3240SOL    HW115735   2.981   5.597   5.365 -0.2291 -0.0605 -0.0584
 3240SOL    HW215736   2.849   5.502   5.360  1.0018 -1.9405  1.4639
 3241SOL     OW15737   0.058   3.069   0.462 -0.0651 -0.7051 -0.4173
 3241SOL    HW115738   0.028   2.995   0.523 -3.4445 -0.1036 -1.1450
 3241SOL    HW215739   0.064   3.154   0.514 -0.5702 -0.6610 -0.4226
 3242SOL     OW15740   5.000   6.060   5.912 -0.1484 -0.7065  0.1989
 3242SOL    HW115741   5.059   6.138   5.894 -1.0279 -0.1031 -0.1732
 3242SOL    HW215742   4.945   6.078   5.994  0.5375 -1.4849  0.8510
 3243SOL     OW15743   4.455   1.225   0.424 -0.4591  0.2195 -0.2352
 3243SOL    HW115744   4.403   1.198   0.342 -0.9124  1.6421 -0.4378
 3243SOL    HW215745   4.520   1.297   0.400 -2.9029  3.1125  1.1883
 3244SOL     OW15746   2.159   1.338   0.723 -0.5871 -0.7353  0.5442
 3244SOL    HW115747   2.144   1.243   0.751 -1.7527 -0.6195  0.3796
 3244SOL    HW215748   2.237   1.343   0.662  1.0967 -1.2110  2.5580
 3245SOL     OW15749   1.935   0.546   0.425 -0.3748 -0.2849 -0.1789
 3245SOL    HW115750   2.031   0.568   0.404 -0.1478 -2.2244 -1.4129
 3245SOL    HW215751   1.875   0.608   0.374  0.2179  0.0712 -0.4584
 3246SOL     OW15752   0.392   4.508   0.216 -0.6850 -0.1266 -0.2242
 3246SOL    HW115753   0.329   4.559   0.157 -1.7502 -1.2838 -0.1404
 3246SOL    HW215754   0.348   4.493   0.305  0.2681  0.2151  0.3120
 3247SOL     OW15755   1.398   0.500   6.522 -0.0067 -0.5668  0.3007
 3247SOL    HW115756   1.326   0.455   6.576 -0.9137  0.7188  0.1987
 3247SOL    HW215757   1.474   0.524   6.583 -0.8800  0.5735  0.9846
 3248SOL     OW15758   3.588   5.402   0.735 -0.6036 -0.3799 -0.2094
 3248SOL    HW115759   3.628   5.449   0.814  1.3086 -1.1962 -0.6285
 3248SOL    HW215760   3.491   5.426   0.728 -0.6760  0.2309  1.9750
 3249SOL     OW15761   4.926   3.983   0.765  0.1298  0.0832  0.7618
 3249SOL    HW115762   4.880   4.009   0.850  0.0682 -0.4867  0.9116
 3249SOL    HW215763   4.858   3.948   0.700 -0.0232  1.8161 -0.0572
 3250SOL     OW15764   0.888   3.839   5.081  0.4677  0.2089  0.3864
 3250SOL    HW115765   0.807   3.818   5.026 -0.0319 -0.1097  1.2145
 3250SOL    HW215766   0.894   3.937   5.096  2.2021  0.6467 -2.5959
 3251SOL     OW15767   1.713   1.984   1.481 -0.0086  0.2817 -0.5435
 3251SOL    HW115768   1.783   1.967   1.550 -0.0081  0.4859 -0.4941
 3251SOL    HW215769   1.646   1.909   1.483 -1.0608  1.1937  0.9741
 3252SOL     OW15770   1.276   4.676   1.170 -0.4621  0.3126 -0.3297
 3252SOL    HW115771   1.320   4.699   1.257 -0.2183 -0.3947 -0.2682
 3252SOL    HW215772   1.275   4.757   1.112  3.6348 -0.3006 -1.5496
 3253SOL     OW15773   2.955   4.277   5.893 -0.0297 -0.0373  0.0212
 3253SOL    HW115774   2.938   4.344   5.965  0.1435 -0.6562  0.6493
 3253SOL    HW215775   2.917   4.310   5.807  0.6000  1.1540  0.1737
 3254SOL     OW15776   2.464   3.459   0.686  0.2046 -0.1873 -0.6751
 3254SOL    HW115777   2.542   3.518   0.664  1.6771 -1.7255  0.1892
 3254SOL    HW215778   2.400   3.510   0.744  0.8288  0.9294 -0.9195
 3255SOL     OW15779   5.088   2.663   4.950  0.2211 -0.1401 -0.0010
 3255SOL    HW115780   5.137   2.586   4.907  0.4437 -1.0529  1.7738
 3255SOL    HW215781   5.143   2.746   4.942  0.0612 -0.1650 -1.8000
 3256SOL     OW15782   5.958   5.832   6.566  0.3737 -0.3493  0.5287
 3256SOL    HW115783   6.050   5.849   6.600  1.3969 -0.6858 -1.8122
 3256SOL    HW215784   5.929   5.909   6.510  0.1510 -1.1500 -0.4924
 3257SOL     OW15785   1.395   1.348   6.124 -0.0296  0.0282 -0.2290
 3257SOL    HW115786   1.323   1.417   6.133  0.2618  0.4523 -1.0624
 3257SOL    HW215787   1.359   1.269   6.074 -0.4660 -0.5868  1.0330
 3258SOL     OW15788   1.797   6.204   5.941  0.3266  0.0327  0.8348
 3258SOL    HW115789   1.763   6.296   5.961  1.4629  0.5895  0.2781
 3258SOL    HW215790   1.895   6.208   5.920  0.2020 -1.1843 -0.1010
 3259SOL     OW15791   0.040   5.325   0.292  0.2815 -0.4951 -0.1980
 3259SOL    HW115792  -0.053   5.341   0.323  0.8599  0.0218  1.3600
 3259SOL    HW215793   0.105   5.354   0.363  1.6161 -1.2897 -1.0392
 3260SOL     OW15794   2.606   3.304   0.434 -0.8253 -0.2214 -0.3280
 3260SOL    HW115795   2.595   3.218   0.385 -0.8991 -0.3779 -0.0344
 3260SOL    HW215796   2.545   3.306   0.513  0.3689 -0.5880  0.6229
 3261SOL     OW15797   0.394   6.255   5.699 -0.0943  0.0571  0.7410
 3261SOL    HW115798   0.342   6.256   5.613  1.3973 -2.1265 -0.2716
 3261SOL    HW215799   0.336   6.218   5.772 -1.8427  3.2007  1.1380
 3262SOL     OW15800   2.944   2.402   1.690  0.2245 -0.3310 -0.2063
 3262SOL    HW115801   2.848   2.388   1.713  0.0784  0.0814 -0.5389
 3262SOL    HW215802   2.989   2.453   1.764  0.0246  0.0445 -0.3400
 3263SOL     OW15803   3.765   4.703   0.151  0.1663  0.1580 -0.3043
 3263SOL    HW115804   3.774   4.749   0.063  1.2260 -0.8835 -0.7625
 3263SOL    HW215805   3.846   4.647   0.168  0.2400  0.8028  1.6121
 3264SOL     OW15806   2.992   2.683   5.721  0.2772  0.4664  0.8188
 3264SOL    HW115807   2.909   2.636   5.692  1.1602 -0.7784  0.2168
 3264SOL    HW215808   3.027   2.739   5.647  0.6303  0.0169  0.6356
 3265SOL     OW15809   2.021   1.320   1.208 -0.0248  0.1584  0.5091
 3265SOL    HW115810   1.990   1.338   1.115  1.6591 -0.0118 -0.1136
 3265SOL    HW215811   1.998   1.226   1.233  1.4199 -0.5169 -0.5707
 3266SOL     OW15812   5.797   0.659   5.978 -0.5451  0.6997  0.4688
 3266SOL    HW115813   5.838   0.582   6.028  0.2897  0.8722  0.0746
 3266SOL    HW215814   5.699   0.662   5.996 -0.4979 -0.1236  0.9308
 3267SOL     OW15815   2.650   3.691   5.950 -0.8166 -0.1154 -0.3507
 3267SOL    HW115816   2.643   3.712   6.047 -1.0693  0.5255 -0.5039
 3267SOL    HW215817   2.567   3.722   5.903 -0.3828  0.2440 -0.8858
 3268SOL     OW15818   3.856   1.333   1.381  0.0366  0.1277  0.2331
 3268SOL    HW115819   3.785   1.329   1.451 -0.8254  0.7102 -0.5895
 3268SOL    HW215820   3.832   1.273   1.304 -0.3249  1.4270 -0.7043
 3269SOL     OW15821   1.130   0.821   5.756 -0.0989  0.1520 -0.5083
 3269SOL    HW115822   1.050   0.764   5.745  0.9459 -1.5290  0.1915
 3269SOL    HW215823   1.126   0.867   5.845 -0.2863  0.0835 -0.4808
 3270SOL     OW15824   5.223   1.200   5.048 -0.2808  0.6695 -0.5810
 3270SOL    HW115825   5.229   1.289   5.002 -0.7438  0.8969 -0.2174
 3270SOL    HW215826   5.127   1.178   5.066 -0.1506  0.2491 -0.3751
 3271SOL     OW15827   0.297   4.913   1.436 -0.8723 -0.5825 -0.0036
 3271SOL    HW115828   0.230   4.874   1.500 -0.7800  0.9643  1.0910
 3271SOL    HW215829   0.370   4.957   1.487 -0.6617  0.4856 -1.1799
 3272SOL     OW15830   3.964   5.272   5.863  0.2099  0.5789  0.3766
 3272SOL    HW115831   3.984   5.369   5.860  2.0870  0.2848  1.3488
 3272SOL    HW215832   3.867   5.258   5.883 -0.0775  2.2381  0.2535
 3273SOL     OW15833   0.731   4.317   1.354 -0.1756  0.0369 -0.3162
 3273SOL    HW115834   0.783   4.379   1.413  0.5573 -0.4259 -0.4757
 3273SOL    HW215835   0.634   4.322   1.378 -0.1448  1.3034 -0.3699
 3274SOL     OW15836   0.612   3.237   0.570 -0.3741  0.4167 -0.6329
 3274SOL    HW115837   0.581   3.167   0.635  1.2153 -2.0076 -2.3141
 3274SOL    HW215838   0.534   3.292   0.541 -1.8769 -1.1940  0.1392
 3275SOL     OW15839   6.025   1.896   1.332  0.2012 -0.3490  0.1266
 3275SOL    HW115840   5.951   1.844   1.290 -0.2449  0.9485 -0.7478
 3275SOL    HW215841   5.990   1.945   1.412 -0.0190  0.5998 -0.5308
 3276SOL     OW15842   6.030   2.018   5.002  0.0069  0.2733  0.2294
 3276SOL    HW115843   6.116   2.028   4.952  0.3946  1.6014  1.1044
 3276SOL    HW215844   5.968   2.091   4.976 -0.5714 -0.2297  0.1760
 3277SOL     OW15845   3.380   2.761   0.785  0.0823 -0.1635 -0.1352
 3277SOL    HW115846   3.456   2.706   0.822  0.3847 -0.6261 -1.4132
 3277SOL    HW215847   3.377   2.848   0.834  1.4587 -0.1233 -0.0650
 3278SOL     OW15848   2.413   4.313   1.675  0.0074 -0.1122  0.0509
 3278SOL    HW115849   2.346   4.382   1.704 -0.1730 -0.6251  0.8969
 3278SOL    HW215850   2.504   4.354   1.672 -0.2931  0.5174 -0.8348
 3279SOL     OW15851   2.018   4.103   1.380  0.2445 -0.1923  0.6114
 3279SOL    HW115852   2.103   4.089   1.430  0.6022 -3.5700 -0.6842
 3279SOL    HW215853   1.945   4.050   1.424  0.1398 -1.7116 -1.3020
 3280SOL     OW15854   4.702   4.014   5.731  0.3025 -0.0385  0.8111
 3280SOL    HW115855   4.706   4.034   5.634 -1.2581 -1.6090  0.3730
 3280SOL    HW215856   4.626   3.952   5.750  0.2662  0.6048  3.1134
 3281SOL     OW15857   0.127   1.106   0.428 -0.8921  0.2502  0.0585
 3281SOL    HW115858   0.057   1.034   0.432  0.7742 -1.3792  1.2267
 3281SOL    HW215859   0.121   1.162   0.510 -0.1001 -0.6352  0.7394
 3282SOL     OW15860   2.830   3.939   6.427  0.2747  0.0745  1.0036
 3282SOL    HW115861   2.904   4.006   6.424 -0.0754  0.4384 -1.6125
 3282SOL    HW215862   2.750   3.976   6.381 -1.3257 -0.6253  3.0948
 3283SOL     OW15863   3.519   4.743   0.677 -0.1093 -0.3249 -0.3790
 3283SOL    HW115864   3.503   4.815   0.609 -0.0796 -0.0392 -0.0883
 3283SOL    HW215865   3.590   4.681   0.645 -0.7499 -0.7317 -1.0186
 3284SOL     OW15866   3.545   6.204   5.481 -0.2032  0.1230 -0.0411
 3284SOL    HW115867   3.552   6.303   5.469  1.9639 -0.0166 -0.4653
 3284SOL    HW215868   3.599   6.158   5.410 -1.5700 -1.3890 -0.1539
 3285SOL     OW15869   1.716   1.574   6.117 -0.4295 -0.4399  0.0705
 3285SOL    HW115870   1.741   1.646   6.053 -1.2105  0.3776  0.6637
 3285SOL    HW215871   1.776   1.495   6.104 -0.4803 -0.2486 -1.5805
 3286SOL     OW15872   2.824   0.644   5.698 -0.2542 -0.3655 -0.0438
 3286SOL    HW115873   2.817   0.614   5.603 -1.2308  0.9124 -0.4056
 3286SOL    HW215874   2.892   0.588   5.745 -0.6689 -1.8682 -1.1356
 3287SOL     OW15875   3.936   0.734   1.374 -0.1823  0.5890 -0.5150
 3287SOL    HW115876   3.996   0.769   1.446  0.2838 -0.9530 -0.1311
 3287SOL    HW215877   3.989   0.720   1.291 -0.2060  0.0722 -0.4423
 3288SOL     OW15878   5.608   2.013   5.939 -0.4118 -0.0271 -0.1043
 3288SOL    HW115879   5.549   1.939   5.970  1.6843 -0.9756  1.9411
 3288SOL    HW215880   5.669   1.979   5.868  1.4475 -0.7580  1.7450
 3289SOL     OW15881   2.752   2.551   5.668  0.0561 -0.4546  0.3146
 3289SOL    HW115882   2.726   2.467   5.716 -0.5245 -1.1415 -1.1535
 3289SOL    HW215883   2.753   2.534   5.570  3.2274  0.3266  0.0815
 3290SOL     OW15884   5.094   1.795   0.899 -0.3967  0.5192  0.1872
 3290SOL    HW115885   5.059   1.819   0.989  2.3272 -0.3381  1.5835
 3290SOL    HW215886   5.182   1.748   0.908 -0.2140  0.0147 -2.9162
 3291SOL     OW15887   3.234   3.462   1.269 -0.2991  0.1859 -0.6289
 3291SOL    HW115888   3.264   3.430   1.359 -0.4678 -2.6197 -1.4657
 3291SOL    HW215889   3.311   3.501   1.220 -0.5246  3.2886  1.2309
 3292SOL     OW15890   1.144   1.831   6.494 -0.1111  0.0590  0.4906
 3292SOL    HW115891   1.202   1.764   6.541  0.6282  0.3696  0.0372
 3292SOL    HW215892   1.109   1.897   6.559  1.6393  1.0233  0.5080
 3293SOL     OW15893   1.197   4.915   5.317  0.3660  0.2108 -0.8358
 3293SOL    HW115894   1.274   4.877   5.265 -0.5863  0.2932 -2.3584
 3293SOL    HW215895   1.111   4.891   5.272 -0.5402 -0.0144  0.9228
 3294SOL     OW15896   5.081   2.850   0.180  0.0589 -0.1596 -0.7153
 3294SOL    HW115897   5.015   2.782   0.149 -1.2191  0.8726 -0.3775
 3294SOL    HW215898   5.033   2.923   0.229  1.3965  0.9277 -0.9554
 3295SOL     OW15899   2.784   2.024   5.972  0.0871 -0.0842 -0.0710
 3295SOL    HW115900   2.789   1.934   5.929  0.1666 -0.2412  0.2603
 3295SOL    HW215901   2.864   2.037   6.031  0.2186  0.3175 -0.3327
 3296SOL     OW15902   0.795   4.066   0.750 -0.5710  0.0321 -0.1202
 3296SOL    HW115903   0.768   4.037   0.658 -1.3157 -0.4763  0.2445
 3296SOL    HW215904   0.763   3.998   0.817 -0.9555  0.9044  0.6052
 3297SOL     OW15905   1.629   5.462   5.140  0.0837 -0.2464  0.3523
 3297SOL    HW115906   1.596   5.545   5.186  1.5308 -0.4181  1.8017
 3297SOL    HW215907   1.647   5.482   5.044  1.9416  1.6110  1.0120
 3298SOL     OW15908   1.424   3.271   5.801  0.2324  0.2269  0.4108
 3298SOL    HW115909   1.497   3.240   5.739  1.1789  1.6646  0.7447
 3298SOL    HW215910   1.434   3.225   5.890  0.8362  0.5242  0.5013
 3299SOL     OW15911   1.204   3.869   0.379 -0.5688 -0.2673 -0.0201
 3299SOL    HW115912   1.220   3.773   0.401  0.1461 -0.0393  0.4990
 3299SOL    HW215913   1.196   3.922   0.464 -1.5979  0.0415 -0.2895
 3300SOL     OW15914   4.057   2.401   5.969  0.2470 -0.3875  0.7938
 3300SOL    HW115915   4.146   2.400   5.924 -0.1463 -1.1170  0.0045
 3300SOL    HW215916   4.021   2.308   5.975 -0.8270 -0.0130  0.3522
 3301SOL     OW15917   5.060   5.386   6.642  0.2325 -0.0461  0.3247
 3301SOL    HW115918   5.013   5.355   6.560  0.1319  2.4072 -0.6301
 3301SOL    HW215919   5.081   5.308   6.700  1.1464 -2.0046 -2.4357
 3302SOL     OW15920   5.388   1.356   1.401 -0.5495  0.1290 -0.5949
 3302SOL    HW115921   5.370   1.443   1.448 -1.7172 -0.0938 -0.5926
 3302SOL    HW215922   5.407   1.285   1.469 -0.7921  0.1237 -0.5318
 3303SOL     OW15923   3.172   4.123   5.948 -0.2673  0.0622 -0.0224
 3303SOL    HW115924   3.091   4.151   5.896  1.4940 -0.0565 -3.0427
 3303SOL    HW215925   3.164   4.026   5.973 -0.8016 -0.1059 -0.8111
 3304SOL     OW15926   0.592   3.986   6.631 -0.2147  0.9432 -0.6584
 3304SOL    HW115927   0.618   4.079   6.605  1.2595  1.0982  1.1637
 3304SOL    HW215928   0.520   3.990   6.700 -0.6668  0.6905 -1.1060
 3305SOL     OW15929   0.574   2.744   1.123  0.5233 -0.8546  0.3994
 3305SOL    HW115930   0.501   2.676   1.132  1.1669 -1.4012  1.5957
 3305SOL    HW215931   0.628   2.746   1.206  0.9398  0.6504  0.1168
 3306SOL     OW15932   2.216   5.367   6.512 -0.9518 -0.1504  0.0117
 3306SOL    HW115933   2.183   5.461   6.514 -0.4079  0.0331  0.9304
 3306SOL    HW215934   2.209   5.327   6.603  1.4602 -0.0392  0.3076
 3307SOL     OW15935   4.202   3.414   1.212 -0.3304 -0.1268  0.5182
 3307SOL    HW115936   4.188   3.365   1.298  1.6329  0.7709  1.4128
 3307SOL    HW215937   4.157   3.503   1.216 -0.3686 -0.1473  0.5455
 3308SOL     OW15938   0.524   1.896   1.517  0.1538  0.5183  0.2699
 3308SOL    HW115939   0.459   1.866   1.587 -0.1113 -1.9618 -0.9209
 3308SOL    HW215940   0.604   1.937   1.561 -0.1009 -0.7492  2.0053
 3309SOL     OW15941   2.735   4.453   0.916  0.1418  0.4526  0.4805
 3309SOL    HW115942   2.801   4.521   0.883 -0.0130 -0.5917 -2.2286
 3309SOL    HW215943   2.765   4.362   0.887 -2.9453  0.0181 -1.8031
 3310SOL     OW15944   0.230   2.438   0.012  0.1624  0.3076 -0.1292
 3310SOL    HW115945   0.184   2.389   0.087 -0.6113 -1.0711 -1.4599
 3310SOL    HW215946   0.235   2.379  -0.068  0.4631  1.9612 -1.3639
 3311SOL     OW15947   2.817   3.030   5.613 -0.0337  0.1671  0.9892
 3311SOL    HW115948   2.770   2.962   5.670  0.8799  1.0302  2.8578
 3311SOL    HW215949   2.754   3.105   5.593 -0.6028 -0.5151  0.1536
 3312SOL     OW15950   0.783   3.753   5.331 -0.1925  0.4235  0.5396
 3312SOL    HW115951   0.829   3.666   5.342 -0.4062  0.5222  2.5953
 3312SOL    HW215952   0.800   3.789   5.239  2.7629 -0.1284  0.7763
 3313SOL     OW15953   2.117   6.269   1.086  0.0345  0.2936 -0.1500
 3313SOL    HW115954   2.100   6.181   1.041  1.1711  0.2128 -0.4526
 3313SOL    HW215955   2.037   6.295   1.140 -0.7093 -0.4116 -0.8996
 3314SOL     OW15956   4.229   0.196   5.487  0.1025 -0.3075  0.1020
 3314SOL    HW115957   4.209   0.210   5.390  1.3209 -1.5201 -0.3519
 3314SOL    HW215958   4.289   0.117   5.498  0.3276  0.0611  1.8191
 3315SOL     OW15959   2.201   1.967   0.046 -0.4659  0.2037 -0.8693
 3315SOL    HW115960   2.169   2.044  -0.008  0.2481  0.8218 -0.4322
 3315SOL    HW215961   2.123   1.909   0.072 -1.4873  2.3692  1.2805
 3316SOL     OW15962   3.990   2.883   6.014  0.3449 -0.1755  0.0312
 3316SOL    HW115963   3.898   2.904   6.046  0.7535  0.1414  1.0496
 3316SOL    HW215964   4.013   2.944   5.938  0.3857  1.0626  0.9860
 3317SOL     OW15965   3.189   2.032   5.703 -0.6522 -0.0115  0.4208
 3317SOL    HW115966   3.150   1.940   5.712 -2.7395  0.8307  0.5085
 3317SOL    HW215967   3.280   2.026   5.662 -1.6207 -1.9751 -1.6281
 3318SOL     OW15968   3.364   5.061   1.428 -0.7025 -0.5829  0.7671
 3318SOL    HW115969   3.394   4.996   1.497 -1.2610 -0.5452  1.0521
 3318SOL    HW215970   3.434   5.068   1.356 -0.9963 -2.1087  0.2943
 3319SOL     OW15971   4.787   2.360   5.993  0.1353  0.0617 -0.2856
 3319SOL    HW115972   4.724   2.310   5.935 -2.1810  2.4273  0.0262
 3319SOL    HW215973   4.798   2.453   5.959  0.8176  0.7242  1.5847
 3320SOL     OW15974   1.633   6.320   5.703  0.2289  0.1003 -0.0258
 3320SOL    HW115975   1.708   6.277   5.752 -1.2310 -2.4732  0.1418
 3320SOL    HW215976   1.598   6.257   5.634 -2.3361  0.8163  0.5038
 3321SOL     OW15977   1.005   5.348   5.908  0.0983 -0.3522 -1.1268
 3321SOL    HW115978   0.926   5.333   5.968  1.0107 -0.6868  0.0369
 3321SOL    HW215979   1.016   5.269   5.848 -0.1997 -0.4964 -0.9981
 3322SOL     OW15980   4.224   5.956   6.376  0.0035  0.2222 -0.6231
 3322SOL    HW115981   4.126   5.936   6.380  0.2474 -0.9099  0.3388
 3322SOL    HW215982   4.269   5.889   6.316  0.7117 -1.8147  1.9924
 3323SOL     OW15983   2.599   2.130   6.441 -0.2898 -0.2959  0.1351
 3323SOL    HW115984   2.513   2.181   6.445  0.4084  1.1367 -1.5360
 3323SOL    HW215985   2.608   2.086   6.352  1.7366  1.6663 -0.7472
 3324SOL     OW15986   2.342   5.020   5.097 -1.4264  0.5165  0.4262
 3324SOL    HW115987   2.422   4.985   5.050 -0.4080  1.0840  1.6687
 3324SOL    HW215988   2.365   5.105   5.145 -3.6133  2.5900 -1.8618
 3325SOL     OW15989   1.879   0.602   5.563 -0.3793 -0.3162  0.1057
 3325SOL    HW115990   1.955   0.560   5.513 -0.6459 -1.2180  0.4336
 3325SOL    HW215991   1.891   0.587   5.661 -0.9717 -0.4546  0.1624
 3326SOL     OW15992   5.902   4.561   0.299  0.5327 -0.2730 -0.5816
 3326SOL    HW115993   5.960   4.625   0.349 -0.7359  0.9277 -0.5710
 3326SOL    HW215994   5.837   4.519   0.363  0.2636 -0.2946 -0.8654
 3327SOL     OW15995   2.386   0.087   6.649  0.2937  0.0333  0.4201
 3327SOL    HW115996   2.428   0.174   6.625  0.5131  0.3359  1.8190
 3327SOL    HW215997   2.311   0.067   6.585  0.6369  0.9330 -0.2810
 3328SOL     OW15998   0.170   3.821   0.356 -0.4145 -0.3162  0.0374
 3328SOL    HW115999   0.121   3.781   0.279 -1.0573 -1.0561  0.8108
 3328SOL    HW216000   0.261   3.779   0.362 -1.0940 -1.7554  0.8652
 3329SOL     OW16001   1.292   1.167   5.910  0.3957  0.2938 -0.0220
 3329SOL    HW116002   1.383   1.143   5.875  0.5512  0.3884  0.3145
 3329SOL    HW216003   1.245   1.085   5.940 -0.9086 -0.2478 -3.1220
 3330SOL     OW16004   2.495   5.441   0.890  0.1113  0.1058  0.6349
 3330SOL    HW116005   2.422   5.380   0.921  1.2244 -1.3755  0.4654
 3330SOL    HW216006   2.503   5.434   0.790  1.5833 -1.0774  0.8098
 3331SOL     OW16007   4.547   4.006   0.339 -0.4039  0.5538 -0.2940
 3331SOL    HW116008   4.559   4.091   0.389  1.9835 -0.6299  1.3188
 3331SOL    HW216009   4.553   3.928   0.402 -0.8887 -0.8895 -1.9380
 3332SOL     OW16010   6.284   0.703   6.443 -0.4066 -0.1154 -0.4564
 3332SOL    HW116011   6.365   0.704   6.501 -1.5779  1.4859  1.2437
 3332SOL    HW216012   6.297   0.637   6.369  1.7835 -1.0455  0.6801
 3333SOL     OW16013   6.076   3.784   0.314  0.2028  0.2337 -0.3182
 3333SOL    HW116014   5.979   3.763   0.314  0.4243 -1.1717  2.1206
 3333SOL    HW216015   6.096   3.851   0.385  1.0787 -0.0152 -0.3120
 3334SOL     OW16016   4.196   0.589   1.246 -0.0016  0.1404  0.2866
 3334SOL    HW116017   4.225   0.507   1.198 -0.2324  0.2337 -0.0106
 3334SOL    HW216018   4.205   0.668   1.186  1.5960  0.5618  1.0255
 3335SOL     OW16019   1.034   5.072   5.756  0.3793 -0.1186 -0.6119
 3335SOL    HW116020   1.103   5.006   5.787  1.8895  0.5815 -2.2979
 3335SOL    HW216021   1.027   5.068   5.656 -3.8421 -1.8556 -0.4460
 3336SOL     OW16022   4.937   6.086   0.246 -0.0696  0.3937 -0.1267
 3336SOL    HW116023   4.959   6.001   0.199 -0.8153 -0.8143  1.6067
 3336SOL    HW216024   4.839   6.104   0.238 -0.1441  0.3678  0.5895
 3337SOL     OW16025   1.010   5.913   0.895  0.0033 -0.2444  0.4631
 3337SOL    HW116026   1.040   5.934   0.803  0.7390 -0.5585  0.6243
 3337SOL    HW216027   1.047   5.981   0.959 -0.6390  0.0685  0.5106
 3338SOL     OW16028   3.249   2.462   1.068  0.0241 -0.0262  0.0630
 3338SOL    HW116029   3.349   2.462   1.062  0.1832 -2.6008  1.4139
 3338SOL    HW216030   3.222   2.467   1.164 -1.0695 -1.4476 -0.1441
 3339SOL     OW16031   6.244   0.968   6.179 -0.2828  0.1934 -0.1738
 3339SOL    HW116032   6.166   0.942   6.236  0.9479 -1.2099  0.9721
 3339SOL    HW216033   6.329   0.959   6.232  0.7564  0.6987 -1.6726
 3340SOL     OW16034   3.647   5.727   6.144  0.1420 -0.6663 -0.4592
 3340SOL    HW116035   3.733   5.686   6.113 -0.8359 -1.7959 -1.8023
 3340SOL    HW216036   3.625   5.805   6.087  1.0390  0.6411  0.8999
 3341SOL     OW16037   4.874   1.346   0.116 -0.2121 -0.0534  0.8082
 3341SOL    HW116038   4.893   1.286   0.039  0.2926 -0.3156  1.1275
 3341SOL    HW216039   4.794   1.403   0.096  0.9807  1.2002 -0.6649
 3342SOL     OW16040   1.058   2.028   6.292 -0.3692 -0.2567  0.1046
 3342SOL    HW116041   0.975   1.990   6.335 -0.7846  1.3384  0.8030
 3342SOL    HW216042   1.139   1.989   6.336 -0.7822 -0.0950  1.0326
 3343SOL     OW16043   4.478   2.478   6.167 -0.3841  0.1781 -0.3338
 3343SOL    HW116044   4.461   2.576   6.160  0.1417  0.2938  0.0006
 3343SOL    HW216045   4.402   2.435   6.217  0.1646  0.6635  0.9569
 3344SOL     OW16046   1.925   2.368   6.358  0.0153  0.2114  0.1958
 3344SOL    HW116047   1.968   2.378   6.268  1.4973  0.1105  0.8697
 3344SOL    HW216048   1.916   2.458   6.400 -0.0192  0.1856  0.2435
 3345SOL     OW16049   2.985   3.382   4.958 -0.1325 -0.0248 -0.3412
 3345SOL    HW116050   2.995   3.322   4.878  0.0757  1.8201 -1.7703
 3345SOL    HW216051   3.055   3.453   4.955 -2.2628  2.2068 -0.5036
 3346SOL     OW16052   4.819   0.381   1.263 -0.3821  0.0671 -0.3547
 3346SOL    HW116053   4.761   0.416   1.336  0.5286  0.0115  0.4181
 3346SOL    HW216054   4.764   0.327   1.199 -0.8580 -1.6732  1.4395
 3347SOL     OW16055   3.121   1.832   0.039 -0.6191  0.0104 -0.4775
 3347SOL    HW116056   3.024   1.810   0.041 -1.3088  2.6555  1.4189
 3347SOL    HW216057   3.132   1.931   0.039  2.0846 -0.2162  0.7330
 3348SOL     OW16058   1.410   3.743   6.137  0.4899 -0.4427  0.2104
 3348SOL    HW116059   1.318   3.717   6.110 -0.4174  1.9332  0.7096
 3348SOL    HW216060   1.455   3.789   6.060  0.1822  0.8488  0.7640
 3349SOL     OW16061   4.771   1.972   5.791  0.3188  0.0124 -0.1820
 3349SOL    HW116062   4.713   1.984   5.872  0.1006  0.4247 -0.3951
 3349SOL    HW216063   4.795   2.062   5.754  0.9069 -0.1600 -0.2305
 3350SOL     OW16064   3.702   3.425   0.122  0.1358  0.2765  0.0070
 3350SOL    HW116065   3.621   3.393   0.074  1.6810  1.5717 -3.8592
 3350SOL    HW216066   3.765   3.348   0.135 -0.3238 -0.1074 -0.0197
 3351SOL     OW16067   5.343   1.090   6.306  0.3737 -0.4574  0.3535
 3351SOL    HW116068   5.368   1.000   6.341  2.2798  0.0300  0.3078
 3351SOL    HW216069   5.246   1.106   6.324  0.0609 -2.3863  0.6195
 3352SOL     OW16070   1.021   5.073   5.487  0.0994 -0.1713  0.2071
 3352SOL    HW116071   0.987   5.147   5.429  1.0866  0.2510  0.1454
 3352SOL    HW216072   1.086   5.018   5.436 -0.2296 -0.7713  0.4240
 3353SOL     OW16073   2.073   5.202   5.274  0.7189  0.1769 -0.0659
 3353SOL    HW116074   2.111   5.294   5.265  1.8265 -0.3712 -1.3318
 3353SOL    HW216075   2.144   5.139   5.306  0.5122 -0.6047 -1.1023
 3354SOL     OW16076   3.977   6.033   5.969  0.1052 -0.2252  0.2924
 3354SOL    HW116077   3.947   5.969   5.898  0.2795  4.1033 -4.3120
 3354SOL    HW216078   3.897   6.075   6.011 -0.0351 -0.8950  0.7071
 3355SOL     OW16079   3.427   2.236   6.204  0.3702 -0.1920 -0.3427
 3355SOL    HW116080   3.448   2.179   6.125  0.3666  0.8328 -1.0981
 3355SOL    HW216081   3.511   2.269   6.246  0.3608  0.9536 -1.1844
 3356SOL     OW16082   4.400   1.912   0.224 -0.0826  0.5551  0.0667
 3356SOL    HW116083   4.374   1.820   0.196 -0.1123  0.2718  0.9991
 3356SOL    HW216084   4.408   1.971   0.144 -1.3859  0.0797 -0.4221
 3357SOL     OW16085   3.166   0.029   1.154 -0.2233  0.0311  0.1254
 3357SOL    HW116086   3.175  -0.034   1.231 -2.0245  1.2427  1.4011
 3357SOL    HW216087   3.071   0.030   1.123  0.1993  0.5891 -1.2342
 3358SOL     OW16088   4.435   3.996   0.079  0.6870 -0.5008 -0.2323
 3358SOL    HW116089   4.466   4.091   0.067  2.8672 -1.3406 -1.6899
 3358SOL    HW216090   4.456   3.966   0.172 -0.2582  0.4707  0.3326
 3359SOL     OW16091   2.087   0.189   4.789  0.1714 -0.3034  0.4962
 3359SOL    HW116092   2.015   0.202   4.720  0.6078 -3.2618 -0.6966
 3359SOL    HW216093   2.061   0.236   4.873 -2.1192  0.5165 -0.5742
 3360SOL     OW16094   1.593   5.998   5.930 -0.1623  0.3933  0.4838
 3360SOL    HW116095   1.662   6.071   5.935  0.0910  0.1375  0.7957
 3360SOL    HW216096   1.619   5.933   5.858 -1.7158  1.9428 -1.6019
 3361SOL     OW16097   4.764   1.655   0.030 -0.2010  0.1879 -0.1030
 3361SOL    HW116098   4.798   1.687  -0.059 -1.7622  0.4510 -0.6352
 3361SOL    HW216099   4.819   1.697   0.103 -0.0039  1.3556 -0.8947
 3362SOL     OW16100   1.295   4.765   0.503  0.2787 -0.0779 -0.2613
 3362SOL    HW116101   1.212   4.719   0.536  1.1197  0.1236  2.3406
 3362SOL    HW216102   1.295   4.766   0.403 -2.5374 -0.6327 -0.3451
 3363SOL     OW16103   6.228   1.191   0.972  0.0689  0.8960  0.4534
 3363SOL    HW116104   6.245   1.162   1.066  1.5477  0.0072 -0.0574
 3363SOL    HW216105   6.149   1.140   0.935  0.0658  0.5621  0.9123
 3364SOL     OW16106   0.750   5.409   6.604 -0.5698 -1.0201 -0.2223
 3364SOL    HW116107   0.829   5.422   6.543  1.8358 -0.6698  2.7247
 3364SOL    HW216108   0.668   5.393   6.549  1.8163 -3.4143 -3.5050
 3365SOL     OW16109   1.472   1.545   6.288 -0.1227 -0.2276 -0.5265
 3365SOL    HW116110   1.443   1.450   6.271  0.1767 -0.6419  1.0816
 3365SOL    HW216111   1.553   1.566   6.233 -0.9966 -0.4470 -1.9133
 3366SOL     OW16112   6.278   0.783   0.145 -0.2192  0.3093 -0.0561
 3366SOL    HW116113   6.187   0.748   0.168 -0.8835  0.8353 -1.7045
 3366SOL    HW216114   6.341   0.707   0.131 -0.6881 -0.1043  0.0556
 3367SOL     OW16115   5.309   3.421   6.039 -0.2425  0.3430  0.4105
 3367SOL    HW116116   5.284   3.471   6.122 -3.0596  1.2610 -0.8728
 3367SOL    HW216117   5.240   3.438   5.968  1.6485 -1.0341 -1.8825
 3368SOL     OW16118   5.972   4.147   0.305 -0.0346  0.4046  0.0965
 3368SOL    HW116119   6.072   4.149   0.307 -0.0418  0.6175  1.9393
 3368SOL    HW216120   5.941   4.174   0.214  1.5732  0.3448 -0.5162
 3369SOL     OW16121   0.158   2.554   0.365 -0.0471  0.6297 -0.6810
 3369SOL    HW116122   0.253   2.529   0.346  0.5439  1.9254  0.4618
 3369SOL    HW216123   0.116   2.591   0.283  0.0395 -1.0243 -1.5228
 3370SOL     OW16124   5.733   3.555   1.516  0.3994  0.5100  0.4742
 3370SOL    HW116125   5.807   3.489   1.502 -0.2390 -0.3158  0.9267
 3370SOL    HW216126   5.713   3.563   1.614 -0.0178  0.8399  0.3646
 3371SOL     OW16127   0.857   1.597   0.037 -0.7011  0.3301 -0.3330
 3371SOL    HW116128   0.952   1.567   0.041 -0.5443  0.9353  1.1901
 3371SOL    HW216129   0.849   1.688   0.078 -1.8270  0.5868 -1.0830
 3372SOL     OW16130   3.849   5.558   6.049  0.3191 -0.5295  0.0153
 3372SOL    HW116131   3.947   5.560   6.070  1.5442 -0.8604 -4.5141
 3372SOL    HW216132   3.810   5.471   6.079  1.5586 -0.6709  1.3079
 3373SOL     OW16133   0.985   2.717   0.578  0.0277  0.1217 -0.0211
 3373SOL    HW116134   0.986   2.802   0.526  0.5940 -0.1560 -0.4730
 3373SOL    HW216135   0.990   2.639   0.515 -2.2566 -0.3333  0.2506
 3374SOL     OW16136   4.238   4.359   5.909 -0.3168  0.2399 -0.2013
 3374SOL    HW116137   4.231   4.361   5.809 -0.8097  1.1765 -0.1634
 3374SOL    HW216138   4.323   4.405   5.936 -0.3954  0.3745 -0.1796
 3375SOL     OW16139   2.330   2.814   0.223  0.2738  0.4269 -0.3596
 3375SOL    HW116140   2.315   2.745   0.152  0.6025  1.7844 -1.8094
 3375SOL    HW216141   2.290   2.901   0.193 -0.7541  0.7407  1.7229
 3376SOL     OW16142   3.377   3.389   0.357 -0.3809 -0.0143  0.2099
 3376SOL    HW116143   3.294   3.402   0.302 -0.8116  0.3803  0.9325
 3376SOL    HW216144   3.371   3.301   0.404 -0.4448  0.0643  0.3497
 3377SOL     OW16145   2.124   4.392   0.612 -0.3223  0.3196  0.4406
 3377SOL    HW116146   2.057   4.432   0.549 -0.0262 -1.9487 -1.4444
 3377SOL    HW216147   2.079   4.322   0.668  0.4694 -1.4958 -1.1109
 3378SOL     OW16148   2.282   1.814   1.829 -0.3702  0.1360 -0.2319
 3378SOL    HW116149   2.196   1.778   1.794 -0.0801 -1.8698  0.9349
 3378SOL    HW216150   2.265   1.868   1.911 -0.6586  1.3689 -1.0776
 3379SOL     OW16151   1.185   3.073   5.139 -0.3264  0.2157  0.1935
 3379SOL    HW116152   1.268   3.106   5.094  0.1811 -0.8354  0.3359
 3379SOL    HW216153   1.132   3.017   5.075 -0.7467  0.5766  0.2194
 3380SOL     OW16154   4.860   0.132   0.533  0.2756 -0.1433  0.2370
 3380SOL    HW116155   4.903   0.084   0.456 -1.3105  0.2147 -0.9224
 3380SOL    HW216156   4.852   0.229   0.512 -1.0305 -0.1882  0.4314
 3381SOL     OW16157   4.905   2.476   5.062  0.1920  0.1406  0.0914
 3381SOL    HW116158   4.951   2.557   5.026  0.5851 -0.5023 -0.8829
 3381SOL    HW216159   4.881   2.492   5.158 -0.7341  1.8319 -0.3730
 3382SOL     OW16160   1.785   5.749   0.166 -0.4691  0.1514  0.0637
 3382SOL    HW116161   1.778   5.789   0.258  0.2933  0.6263 -0.0702
 3382SOL    HW216162   1.694   5.736   0.128 -0.9526 -2.3797  1.8588
 3383SOL     OW16163   1.398   0.760   0.083  0.3002  0.6297 -0.3053
 3383SOL    HW116164   1.333   0.701   0.130 -0.4842  1.7105  0.0214
 3383SOL    HW216165   1.484   0.711   0.067 -0.1537 -0.4122  0.3953
 3384SOL     OW16166   3.063   4.010   5.190 -0.1915 -0.3910  0.8595
 3384SOL    HW116167   3.061   4.069   5.109  1.4110  0.2282  1.2368
 3384SOL    HW216168   3.055   3.915   5.162  0.5276 -0.1957 -0.0589
 3385SOL     OW16169   4.747   3.103   6.504  1.0179  0.1056  0.6039
 3385SOL    HW116170   4.791   3.192   6.517 -0.0033  0.5626  1.0478
 3385SOL    HW216171   4.767   3.045   6.584  0.0697  0.6429  1.2521
 3386SOL     OW16172   5.735   4.551   0.540  0.1412 -0.5095  0.2317
 3386SOL    HW116173   5.655   4.493   0.552  1.0011 -1.8566 -0.2630
 3386SOL    HW216174   5.708   4.639   0.503 -1.2595 -0.4131  1.4363
 3387SOL     OW16175   4.033   4.764   1.005 -0.2171  0.1153  0.1087
 3387SOL    HW116176   3.955   4.827   1.010 -1.1381 -0.8697 -1.1013
 3387SOL    HW216177   4.052   4.741   0.910  1.6131  0.3578  0.3873
 3388SOL     OW16178   0.637   1.741   0.414  0.2712  0.8170 -0.7488
 3388SOL    HW116179   0.648   1.760   0.512 -0.2014 -0.8347 -0.3496
 3388SOL    HW216180   0.571   1.805   0.375 -1.4618 -0.0667  0.5901
 3389SOL     OW16181   4.678   5.195   5.432  0.2366 -0.1427  0.3143
 3389SOL    HW116182   4.683   5.109   5.382 -0.2583  0.7821 -1.4297
 3389SOL    HW216183   4.724   5.267   5.379 -1.4500  1.1612  0.5175
 3390SOL     OW16184   5.148   1.197   0.698  0.3277 -0.6094  0.1741
 3390SOL    HW116185   5.063   1.246   0.718  0.9205  1.4550 -1.9664
 3390SOL    HW216186   5.125   1.108   0.656 -0.7887 -0.0776 -0.4014
 3391SOL     OW16187   3.584   2.759   1.267 -0.7946 -0.0234  0.4238
 3391SOL    HW116188   3.608   2.664   1.287 -1.2732 -0.7303 -1.9877
 3391SOL    HW216189   3.488   2.763   1.239 -0.6562  1.0998  0.0691
 3392SOL     OW16190   0.017   5.888   5.693  0.4156 -0.1811 -0.2757
 3392SOL    HW116191  -0.008   5.922   5.602 -3.1094  0.7321  0.8890
 3392SOL    HW216192  -0.008   5.792   5.701 -0.0355 -0.0447 -0.0245
 3393SOL     OW16193   3.837   2.543   5.986  0.2010  0.0962  0.2238
 3393SOL    HW116194   3.908   2.474   5.991 -0.9027 -1.0840  0.1056
 3393SOL    HW216195   3.874   2.627   5.948  1.0648 -1.1178 -1.7274
 3394SOL     OW16196   3.166   2.967   6.659 -0.4846 -0.2208 -0.2175
 3394SOL    HW116197   3.245   3.029   6.658 -0.1102 -0.6937 -0.9986
 3394SOL    HW216198   3.110   2.986   6.740  0.8911 -0.4543  0.8351
 3395SOL     OW16199   0.840   6.060   0.144  0.2173  0.1954 -0.3261
 3395SOL    HW116200   0.840   6.004   0.061  0.3275  1.2819 -1.0799
 3395SOL    HW216201   0.911   6.028   0.206  1.7492  0.8262 -1.6904
 3396SOL     OW16202   3.242   3.756   0.590 -0.5215  0.1763 -0.3309
 3396SOL    HW116203   3.335   3.771   0.624 -0.6499  1.8861 -0.6449
 3396SOL    HW216204   3.221   3.824   0.520 -1.8867 -0.4290 -0.5363
 3397SOL     OW16205   3.792   0.265   4.788  0.2004 -0.0661  0.2513
 3397SOL    HW116206   3.828   0.272   4.695 -0.0587 -0.8730  0.0834
 3397SOL    HW216207   3.720   0.333   4.802 -0.1447 -0.3041 -0.3255
 3398SOL     OW16208   4.760   0.606   1.048 -0.0506 -0.1739  0.0934
 3398SOL    HW116209   4.822   0.544   1.096 -2.4204 -0.6311  2.8218
 3398SOL    HW216210   4.742   0.686   1.105 -0.9739  0.5545 -1.1717
 3399SOL     OW16211   1.357   3.403   4.745 -0.2122  0.1916  0.4022
 3399SOL    HW116212   1.296   3.330   4.777  1.7843 -0.5860  2.7586
 3399SOL    HW216213   1.395   3.378   4.655 -1.4049 -0.4793  0.0658
 3400SOL     OW16214   4.247   4.714   0.361 -0.0594 -0.3098 -0.7819
 3400SOL    HW116215   4.208   4.638   0.414 -1.4194  1.5187  0.9965
 3400SOL    HW216216   4.323   4.754   0.412 -1.3625  1.4533 -0.1220
 3401SOL     OW16217   0.420   5.944   6.382  0.1511 -0.6746  0.1222
 3401SOL    HW116218   0.338   5.989   6.346  0.4579 -1.9944 -2.5242
 3401SOL    HW216219   0.476   6.010   6.431 -1.9274  0.5132  1.0050
 3402SOL     OW16220   5.809   5.844   0.133  0.0387 -0.0067  0.1442
 3402SOL    HW116221   5.821   5.824   0.036  1.4238  0.2514  0.2267
 3402SOL    HW216222   5.894   5.822   0.182 -0.6367 -0.1349  1.2963
 3403SOL     OW16223   2.050   0.751   6.350  0.2832 -0.2390 -0.4788
 3403SOL    HW116224   1.980   0.823   6.352  0.9750  0.4927 -1.6363
 3403SOL    HW216225   2.022   0.680   6.285  0.8531  0.3458 -1.3968
 3404SOL     OW16226   1.554   5.116   1.016  0.3213 -0.3427 -0.0814
 3404SOL    HW116227   1.605   5.193   1.055  2.3558 -0.9512 -1.3896
 3404SOL    HW216228   1.560   5.038   1.079 -0.4834  0.0927  0.5557
 3405SOL     OW16229   2.530   5.402   0.171  0.2179  0.0989 -0.0665
 3405SOL    HW116230   2.505   5.337   0.099 -0.1177 -0.9859  0.9947
 3405SOL    HW216231   2.470   5.482   0.165 -1.2350 -0.9226  0.2842
 3406SOL     OW16232   2.029   1.807   0.603  0.2796 -0.4033  0.0711
 3406SOL    HW116233   1.951   1.858   0.566 -0.0632  0.6050  2.0667
 3406SOL    HW216234   2.082   1.769   0.527 -0.5057  1.3393 -1.4398
 3407SOL     OW16235   1.490   0.475   0.550  0.0724 -0.1668  0.1243
 3407SOL    HW116236   1.535   0.387   0.569  0.9734 -0.7611 -3.8430
 3407SOL    HW216237   1.392   0.466   0.567  0.5022 -0.8629  2.7662
 3408SOL     OW16238   2.387   2.432   0.884  0.6490  0.0297 -0.8288
 3408SOL    HW116239   2.386   2.345   0.837  1.5680 -0.1031 -0.6213
 3408SOL    HW216240   2.336   2.500   0.831  0.6588 -0.4134 -1.4079
 3409SOL     OW16241   5.281   0.465   6.503  0.0312  0.5220 -0.2013
 3409SOL    HW116242   5.366   0.519   6.502  1.4226 -1.4542  1.8039
 3409SOL    HW216243   5.239   0.471   6.593  1.2800 -3.1063  0.7936
 3410SOL     OW16244   1.880   2.108   5.597  0.0009 -0.9639  0.0694
 3410SOL    HW116245   1.905   2.204   5.591 -1.2699 -0.4747  1.7625
 3410SOL    HW216246   1.849   2.076   5.507 -2.5867  1.1418  0.0891
 3411SOL     OW16247   1.522   2.043   0.204  0.5249 -0.8261  0.0988
 3411SOL    HW116248   1.536   2.109   0.131 -0.9390 -1.6287 -0.9689
 3411SOL    HW216249   1.547   2.084   0.292 -0.1800  1.0863 -0.5494
 3412SOL     OW16250   1.319   1.478   0.678 -0.4170 -0.4113 -0.3811
 3412SOL    HW116251   1.301   1.564   0.630 -2.1475  0.1985  1.2531
 3412SOL    HW216252   1.410   1.481   0.720  0.1877 -0.0638 -1.6532
 3413SOL     OW16253   1.907   4.559   4.535  0.4183  0.4283  0.1128
 3413SOL    HW116254   1.841   4.485   4.526  0.5656  0.4214 -1.0499
 3413SOL    HW216255   1.961   4.546   4.619  0.4520 -0.7837 -0.0765
 3414SOL     OW16256   3.401   3.915   0.346  0.7768  0.0330 -0.8158
 3414SOL    HW116257   3.459   3.967   0.284 -1.5723  1.1305 -2.2323
 3414SOL    HW216258   3.397   3.820   0.315 -0.6537  0.6299 -2.7228
 3415SOL     OW16259   5.778   0.991   5.097  0.5828  0.0261 -0.0386
 3415SOL    HW116260   5.744   0.928   5.167  2.9098 -2.5879 -1.0876
 3415SOL    HW216261   5.876   1.002   5.108  1.3527 -1.8054 -3.7324
 3416SOL     OW16262   5.159   6.121   0.021  0.5234 -0.1252  0.1955
 3416SOL    HW116263   5.195   6.163  -0.063 -1.6793 -0.1596 -0.8451
 3416SOL    HW216264   5.175   6.182   0.098 -0.5552  1.6318 -0.8881
 3417SOL     OW16265   5.839   4.521   0.914  0.0770 -0.0484  0.2754
 3417SOL    HW116266   5.868   4.480   0.828  1.3250 -4.3818  2.4807
 3417SOL    HW216267   5.749   4.564   0.902  0.7483  0.6833 -3.3477
 3418SOL     OW16268   0.113   4.082   0.437  0.4491  0.1716 -0.2382
 3418SOL    HW116269   0.106   3.996   0.386 -0.9883 -0.1898  0.5104
 3418SOL    HW216270   0.107   4.159   0.373 -4.6027 -0.1749 -0.6043
 3419SOL     OW16271   0.887   5.494   5.720 -0.3303 -0.8324 -0.0028
 3419SOL    HW116272   0.919   5.580   5.682 -1.3683 -1.0511 -1.4703
 3419SOL    HW216273   0.941   5.471   5.801 -0.5183  1.5440  0.8768
 3420SOL     OW16274   1.837   3.160   0.324  0.4936  0.0253 -0.2856
 3420SOL    HW116275   1.759   3.200   0.275  0.2076 -1.7024 -1.3169
 3420SOL    HW216276   1.817   3.156   0.421 -1.1653 -1.3271 -0.6448
 3421SOL     OW16277   4.878   0.883   1.706 -0.2657 -0.0822  0.3985
 3421SOL    HW116278   4.895   0.980   1.688 -2.3442  0.4711  1.1612
 3421SOL    HW216279   4.960   0.842   1.745  0.0927  1.8335  1.8224
 3422SOL     OW16280   3.323   1.326   6.660 -0.3626 -0.9336  0.0678
 3422SOL    HW116281   3.389   1.401   6.650  0.1450 -1.2852  0.7043
 3422SOL    HW216282   3.246   1.341   6.597 -1.5399  1.4737  1.8708
 3423SOL     OW16283   3.257   6.098   5.167  0.0119 -0.0720 -0.3744
 3423SOL    HW116284   3.235   6.006   5.135  0.7213 -0.5856  0.5711
 3423SOL    HW216285   3.277   6.096   5.265 -1.9852  1.4511  0.1286
 3424SOL     OW16286   4.042   1.109   5.392 -0.3330 -0.3783  0.2506
 3424SOL    HW116287   4.069   1.164   5.313 -0.6275 -1.8310 -0.8971
 3424SOL    HW216288   3.968   1.155   5.441 -1.4080 -0.2980 -1.3830
 3425SOL     OW16289   1.087   0.721   6.665  0.1791  0.5434  0.1273
 3425SOL    HW116290   1.127   0.675   6.744 -1.2254  1.0750  1.1748
 3425SOL    HW216291   1.100   0.819   6.672 -0.1011  0.6104 -0.2177
 3426SOL     OW16292   0.657   2.687   6.232 -0.0977  0.1983  0.2859
 3426SOL    HW116293   0.675   2.600   6.187 -0.0625  0.4576 -0.2025
 3426SOL    HW216294   0.650   2.673   6.331  1.9096 -0.0436  0.4270
 3427SOL     OW16295   2.414   3.737   0.289 -0.2756 -0.3083 -0.3242
 3427SOL    HW116296   2.459   3.803   0.350 -0.0593 -0.2716 -0.5205
 3427SOL    HW216297   2.471   3.656   0.280  0.0699  0.0094 -1.0917
 3428SOL     OW16298   3.379   1.713   6.271 -0.1660 -0.0485 -0.4403
 3428SOL    HW116299   3.324   1.629   6.266  0.2131 -0.5526  2.4060
 3428SOL    HW216300   3.318   1.792   6.273 -0.7650 -0.5113  0.9259
 3429SOL     OW16301   0.015   3.105   0.205 -0.3927  0.0613 -0.0500
 3429SOL    HW116302   0.012   3.106   0.305 -0.7271 -0.2654 -0.0559
 3429SOL    HW216303  -0.022   3.019   0.171 -0.8560  0.4206 -0.4748
 3430SOL     OW16304   0.582   0.272   0.311  0.0024  0.2738  0.0836
 3430SOL    HW116305   0.526   0.238   0.387 -0.5216  1.8876  0.4632
 3430SOL    HW216306   0.675   0.236   0.319  0.6084  2.0743  2.8286
 3431SOL     OW16307   5.564   0.005   6.172  0.1726  0.3384  0.1537
 3431SOL    HW116308   5.540  -0.087   6.201  0.1984  0.1833 -0.3149
 3431SOL    HW216309   5.515   0.072   6.228 -2.1728  0.0413 -1.4333
 3432SOL     OW16310   5.893   2.584   5.591  0.1139 -0.1826  0.3819
 3432SOL    HW116311   5.882   2.616   5.497 -1.1632 -0.6175  0.3624
 3432SOL    HW216312   5.989   2.592   5.618  0.8400 -1.6342 -1.5230
 3433SOL     OW16313   3.994   0.307   0.066 -0.8051  0.3730  0.3569
 3433SOL    HW116314   4.003   0.398   0.107  0.3741 -0.2640  1.5922
 3433SOL    HW216315   3.924   0.309  -0.006  0.6172  2.7504 -1.0925
 3434SOL     OW16316   0.341   3.724   0.029  0.1752  0.1798 -0.1442
 3434SOL    HW116317   0.316   3.752  -0.064 -0.7797 -0.4225 -0.0904
 3434SOL    HW216318   0.380   3.632   0.026 -0.3487 -0.0524  0.1081
 3435SOL     OW16319   2.322   3.109   6.421 -0.1266 -0.2948  0.7075
 3435SOL    HW116320   2.358   3.195   6.384 -0.6332  0.5837  2.1645
 3435SOL    HW216321   2.233   3.089   6.379 -0.4961  0.4558  1.1108
 3436SOL     OW16322   3.369   0.098   0.660 -0.0242 -0.6971  0.2242
 3436SOL    HW116323   3.364  -0.002   0.666 -1.0375 -0.7631 -1.1969
 3436SOL    HW216324   3.425   0.133   0.735  0.6420 -2.3513  0.5434
 3437SOL     OW16325   0.566   1.635   1.447  0.0929 -0.5808 -0.5807
 3437SOL    HW116326   0.598   1.591   1.530 -0.9135 -0.6073 -0.1858
 3437SOL    HW216327   0.571   1.735   1.458 -0.5615 -0.5783 -0.2657
 3438SOL     OW16328   6.284   2.058   6.142 -0.8107  0.7915  0.1015
 3438SOL    HW116329   6.202   2.071   6.086 -1.2041  0.7418  0.6557
 3438SOL    HW216330   6.257   2.026   6.233 -0.0919 -0.5613 -0.1360
 3439SOL     OW16331   4.879   2.168   0.723 -0.1464  0.3929 -0.3760
 3439SOL    HW116332   4.935   2.158   0.805 -0.3284 -0.0406 -0.3008
 3439SOL    HW216333   4.877   2.264   0.696 -0.4964  0.6257  0.4241
 3440SOL     OW16334   2.766   3.510   5.620  0.6884 -0.0829 -0.4474
 3440SOL    HW116335   2.824   3.577   5.666  0.8815 -0.2406 -0.4619
 3440SOL    HW216336   2.821   3.433   5.590  0.3249 -0.6565  0.3349
 3441SOL     OW16337   5.227   4.203   1.202 -0.2556 -0.3715 -0.1547
 3441SOL    HW116338   5.216   4.119   1.149 -1.4374  0.2672 -0.9758
 3441SOL    HW216339   5.260   4.276   1.143  3.0822 -0.7597  1.0382
 3442SOL     OW16340   3.872   0.167   5.034 -0.3096  0.5133 -0.2528
 3442SOL    HW116341   3.852   0.192   4.939 -1.7852  0.9331  0.1333
 3442SOL    HW216342   3.954   0.110   5.038 -0.3389  0.3365 -1.7864
 3443SOL     OW16343   3.686   2.935   0.731  0.4258  0.1408 -0.4356
 3443SOL    HW116344   3.653   2.847   0.765  1.0795  0.1613  0.2648
 3443SOL    HW216345   3.694   2.999   0.807 -3.3721  1.9448 -1.2938
 3444SOL     OW16346   4.735   1.731   6.116 -0.1126  0.1700 -0.0128
 3444SOL    HW116347   4.670   1.723   6.040  0.9054 -1.1063 -0.7959
 3444SOL    HW216348   4.744   1.826   6.143  0.4537  0.8520 -2.3774
 3445SOL     OW16349   0.887   0.708   6.513  0.5964 -0.3331 -0.2455
 3445SOL    HW116350   0.980   0.720   6.549 -0.4011  0.4251  2.3184
 3445SOL    HW216351   0.836   0.793   6.525 -0.4092 -0.6843 -1.7758
 3446SOL     OW16352   4.666   2.550   0.321  0.1331  0.9080  0.1210
 3446SOL    HW116353   4.759   2.573   0.292  0.6591 -2.5258 -1.2846
 3446SOL    HW216354   4.607   2.542   0.242 -0.8319  0.8394  0.8307
 3447SOL     OW16355   1.247   5.140   5.110  0.1639 -0.1608  0.0124
 3447SOL    HW116356   1.197   5.072   5.164  2.8865 -2.8150 -0.5304
 3447SOL    HW216357   1.335   5.159   5.154  0.8948  0.4026 -1.6320
 3448SOL     OW16358   2.561   1.766   1.048 -0.1889 -0.1498  0.5501
 3448SOL    HW116359   2.601   1.750   1.138 -0.4268  2.3504  1.1638
 3448SOL    HW216360   2.474   1.718   1.040  0.3278 -1.2299  1.2413
 3449SOL     OW16361   0.803   0.444   5.531 -0.1778 -0.2053 -0.1528
 3449SOL    HW116362   0.759   0.531   5.507 -0.2569  0.1501  1.2103
 3449SOL    HW216363   0.808   0.386   5.449 -1.4639  0.4883 -0.7654
 3450SOL     OW16364   3.007   1.866   6.135 -0.1068 -0.0069 -0.3905
 3450SOL    HW116365   2.961   1.863   6.224 -0.2629  0.0926 -0.4660
 3450SOL    HW216366   3.084   1.930   6.139  0.1910 -0.3747 -0.1871
 3451SOL     OW16367   5.819   5.677   6.066 -0.8341 -0.0937 -0.5929
 3451SOL    HW116368   5.827   5.634   6.156 -0.7905  1.4912  0.1927
 3451SOL    HW216369   5.743   5.742   6.067  0.4311  1.4681 -1.0122
 3452SOL     OW16370   4.550   4.907   6.298  0.3776 -0.7298 -0.1797
 3452SOL    HW116371   4.566   4.989   6.352  4.5613 -0.4538 -1.4659
 3452SOL    HW216372   4.555   4.827   6.358  2.1019 -0.2819  0.3469
 3453SOL     OW16373   0.036   3.714   4.902  0.0493  0.3581  0.3710
 3453SOL    HW116374  -0.032   3.705   4.829  0.5688 -0.1534 -0.0599
 3453SOL    HW216375  -0.009   3.742   4.987 -1.2379 -3.0233  0.9483
 3454SOL     OW16376   1.338   1.224   0.291 -0.0392 -0.4233 -0.3314
 3454SOL    HW116377   1.304   1.143   0.243 -1.0545  0.1024 -0.5317
 3454SOL    HW216378   1.359   1.295   0.224 -1.1354  0.1915 -0.0543
 3455SOL     OW16379   4.025   5.544   1.056  0.6019 -0.1223  0.1430
 3455SOL    HW116380   3.952   5.498   1.106  2.1426 -0.6618  2.0371
 3455SOL    HW216381   4.087   5.476   1.017  1.5473  0.2764  0.8779
 3456SOL     OW16382   1.483   3.069   6.252  0.1673 -0.5490  0.1333
 3456SOL    HW116383   1.404   3.051   6.194 -0.6761 -0.1362  1.1343
 3456SOL    HW216384   1.480   3.011   6.333 -0.1624  0.7867  1.1240
 3457SOL     OW16385   3.671   1.929   5.422  0.4700 -0.3925  0.5804
 3457SOL    HW116386   3.683   2.027   5.441 -2.9320 -0.0901  1.9127
 3457SOL    HW216387   3.733   1.902   5.348  1.9309  2.5940  0.5333
 3458SOL     OW16388   5.845   2.969   5.229  0.3824  0.1982 -0.0287
 3458SOL    HW116389   5.796   2.976   5.316 -0.2119 -0.5940 -0.2921
 3458SOL    HW216390   5.780   2.965   5.154  0.9059  1.8379 -0.6087
 3459SOL     OW16391   6.007   1.291   5.678 -0.0152 -0.0434 -0.2744
 3459SOL    HW116392   5.929   1.315   5.620 -1.2752  0.3367  1.4915
 3459SOL    HW216393   6.017   1.192   5.679 -0.5283 -0.1053 -0.4650
 3460SOL     OW16394   3.070   3.148   0.502  0.7348  0.0078  0.2043
 3460SOL    HW116395   3.029   3.061   0.531  0.0963 -0.4498 -1.9034
 3460SOL    HW216396   3.004   3.222   0.517  0.1684 -0.3176 -0.5665
 3461SOL     OW16397   5.441   2.763   6.048 -0.2152 -0.0622 -0.5182
 3461SOL    HW116398   5.492   2.681   6.072 -0.2251  0.1066  0.1035
 3461SOL    HW216399   5.495   2.819   5.985  1.8323  1.6432  2.4504
 3462SOL     OW16400   5.274   0.505   0.091 -0.2494 -0.1223 -0.0011
 3462SOL    HW116401   5.368   0.481   0.066  0.3200  0.6847  1.2736
 3462SOL    HW216402   5.249   0.458   0.176 -1.1831 -0.6943 -0.5702
 3463SOL     OW16403   4.823   3.936   1.336 -0.0239  0.0492 -0.4880
 3463SOL    HW116404   4.794   3.885   1.417  1.4418  0.9491  0.6389
 3463SOL    HW216405   4.820   4.034   1.355  0.4232  0.2714 -1.5004
 3464SOL     OW16406   0.451   3.992   6.348  0.1748  0.2681 -0.3013
 3464SOL    HW116407   0.489   4.034   6.266  1.8176 -0.7514 -0.1139
 3464SOL    HW216408   0.525   3.959   6.406 -0.9782  0.0417  1.1081
 3465SOL     OW16409   0.226   1.035   0.826 -0.2439  0.0158 -0.5262
 3465SOL    HW116410   0.149   1.073   0.775 -0.7587  1.5125  1.2428
 3465SOL    HW216411   0.311   1.069   0.787 -0.4840 -0.8362 -1.8661
 3466SOL     OW16412   5.911   6.113   0.312  0.0383 -0.4381 -0.4398
 3466SOL    HW116413   5.925   6.022   0.274  1.3366 -0.1369 -0.7453
 3466SOL    HW216414   5.816   6.124   0.340 -0.6197 -1.1704 -2.2627
 3467SOL     OW16415   1.813   3.168   0.606 -0.0384 -0.2999 -0.0782
 3467SOL    HW116416   1.896   3.114   0.616  0.0670  0.0612  1.1785
 3467SOL    HW216417   1.786   3.204   0.696  0.8793  3.1785 -1.0378
 3468SOL     OW16418   3.124   5.135   5.708  0.1803 -0.2114 -0.4618
 3468SOL    HW116419   3.141   5.153   5.804 -2.9339  1.5501 -0.1061
 3468SOL    HW216420   3.167   5.205   5.652  0.8571 -0.4668 -0.2693
 3469SOL     OW16421   1.962   2.600   6.547  0.0820  0.0351 -0.3623
 3469SOL    HW116422   1.991   2.695   6.533 -0.5481  0.1250 -1.1404
 3469SOL    HW216423   2.009   2.562   6.627  0.4313  0.9623 -0.1134
 3470SOL     OW16424   1.790   3.826   4.833  0.3855 -0.3445  0.4366
 3470SOL    HW116425   1.863   3.760   4.848  0.2795 -0.0039  2.8428
 3470SOL    HW216426   1.710   3.779   4.796  1.7272 -0.7210 -2.2117
 3471SOL     OW16427   3.711   5.208   6.361  0.0536  0.0699  0.2885
 3471SOL    HW116428   3.682   5.269   6.434 -0.1199 -1.3168  1.4145
 3471SOL    HW216429   3.697   5.253   6.273 -2.0300  0.8640  0.9700
 3472SOL     OW16430   4.642   0.598   6.486  0.8364 -0.1149 -0.2433
 3472SOL    HW116431   4.738   0.580   6.507  0.6717 -0.3747  0.3287
 3472SOL    HW216432   4.635   0.668   6.415  1.4446 -0.0082 -0.2015
 3473SOL     OW16433   6.198   0.399   6.349 -0.4568 -0.1921  0.0877
 3473SOL    HW116434   6.105   0.363   6.359  0.2848 -1.8897  1.4468
 3473SOL    HW216435   6.263   0.323   6.349  0.8001  0.5849 -4.3504
 3474SOL     OW16436   6.039   2.429   0.792  0.4058  0.2859  0.1847
 3474SOL    HW116437   6.079   2.389   0.709 -2.0409 -1.9681 -0.0157
 3474SOL    HW216438   6.086   2.394   0.872  0.8937  0.1970 -0.1367
 3475SOL     OW16439   0.019   3.932   6.391 -0.1945  0.2647  0.5373
 3475SOL    HW116440  -0.050   3.890   6.450  0.3428  0.2750  1.1802
 3475SOL    HW216441   0.103   3.877   6.393 -0.5347 -0.3944 -1.1432
 3476SOL     OW16442   3.188   1.591   0.974 -0.1209  0.4169 -0.4201
 3476SOL    HW116443   3.217   1.637   1.058 -0.9458  0.9127 -0.3913
 3476SOL    HW216444   3.093   1.561   0.983 -0.2421  0.5378 -1.1906
 3477SOL     OW16445   2.707   1.257   1.207 -0.2100 -0.1068  0.8709
 3477SOL    HW116446   2.662   1.223   1.290 -0.0608  0.0896  1.0306
 3477SOL    HW216447   2.758   1.340   1.228 -1.6797  1.0030  0.2074
 3478SOL     OW16448   0.418   1.447   0.609 -0.1963  0.6039 -0.0347
 3478SOL    HW116449   0.389   1.453   0.513  0.9148 -1.5656 -0.5827
 3478SOL    HW216450   0.341   1.471   0.669 -0.9693  1.7986 -1.4446
 3479SOL     OW16451   2.311   5.545   0.115  0.2453 -0.2584  0.1763
 3479SOL    HW116452   2.277   5.451   0.123 -1.0353  0.2248  0.6792
 3479SOL    HW216453   2.289   5.579   0.023 -0.9368  0.1396  0.5817
 3480SOL     OW16454   5.194   4.094   6.259  0.3656 -0.1317  0.5247
 3480SOL    HW116455   5.223   4.086   6.355  3.0176 -0.8967 -0.2559
 3480SOL    HW216456   5.124   4.025   6.240  0.8536 -0.9453  1.5710
 3481SOL     OW16457   1.086   1.784   0.132 -0.5403  0.8861 -0.6203
 3481SOL    HW116458   1.144   1.824   0.204 -1.6290 -2.4380  2.4599
 3481SOL    HW216459   1.023   1.853   0.098 -2.7065  2.0579  4.6604
 3482SOL     OW16460   4.747   6.188   6.017  0.1255  0.4008 -0.1817
 3482SOL    HW116461   4.661   6.236   6.033  1.0188  1.9028  0.2204
 3482SOL    HW216462   4.769   6.131   6.096 -0.9740 -0.7970 -0.6940
 3483SOL     OW16463   1.372   0.115   5.511  0.3233  0.4204 -0.3365
 3483SOL    HW116464   1.356   0.104   5.413 -1.3011  1.2543 -0.2049
 3483SOL    HW216465   1.419   0.034   5.547 -0.0114 -0.3632 -1.6090
 3484SOL     OW16466   3.737   6.132   1.461  0.0987  0.6831  0.1865
 3484SOL    HW116467   3.818   6.134   1.519  1.0836  1.2462 -1.1586
 3484SOL    HW216468   3.661   6.178   1.508  0.0514 -1.2204  2.1155
 3485SOL     OW16469   5.325   4.387   1.538  0.6056 -0.1273 -0.6520
 3485SOL    HW116470   5.240   4.399   1.589 -0.5246 -1.9068 -1.9823
 3485SOL    HW216471   5.390   4.335   1.594  0.5013  0.4816  0.0480
 3486SOL     OW16472   1.130   4.874   1.768 -0.0773 -0.1503 -0.1187
 3486SOL    HW116473   1.184   4.808   1.821 -1.2408 -0.5265  0.6267
 3486SOL    HW216474   1.141   4.965   1.808 -0.7257 -0.3854  0.6223
 3487SOL     OW16475   0.368   5.674   6.664 -0.0250 -0.0363  0.1208
 3487SOL    HW116476   0.415   5.761   6.651  0.3542 -0.4769 -1.6586
 3487SOL    HW216477   0.422   5.615   6.724 -0.2468  0.8869  1.2764
 3488SOL     OW16478   0.819   3.328   0.751 -0.2871 -0.6186 -0.4489
 3488SOL    HW116479   0.900   3.370   0.710 -0.5032 -0.3269 -0.5744
 3488SOL    HW216480   0.777   3.266   0.685 -1.2699  0.6796 -1.0774
 3489SOL     OW16481   2.550   0.821   0.589 -0.0110  1.0354  0.3852
 3489SOL    HW116482   2.544   0.826   0.689  2.2093  0.3238  0.5950
 3489SOL    HW216483   2.644   0.805   0.562 -0.4310  2.0558 -1.8955
 3490SOL     OW16484   0.184   4.737   6.158 -0.3045  0.4318  0.5071
 3490SOL    HW116485   0.228   4.783   6.235  1.0279 -2.3803  1.6048
 3490SOL    HW216486   0.153   4.646   6.188 -2.0992  0.2431 -1.6637
 3491SOL     OW16487   3.763   3.343   1.306  0.2770 -0.2220  0.2110
 3491SOL    HW116488   3.802   3.257   1.339  0.9264  0.3517  0.9879
 3491SOL    HW216489   3.819   3.419   1.338 -0.0807  0.4761 -0.7807
 3492SOL     OW16490   2.951   5.632   0.139 -0.0378 -0.4930 -0.2708
 3492SOL    HW116491   3.036   5.667   0.178 -0.4912  0.6787 -0.2898
 3492SOL    HW216492   2.935   5.540   0.173  1.0208 -0.5719  0.0661
 3493SOL     OW16493   2.219   6.020   5.458  0.1919  0.3866  0.4985
 3493SOL    HW116494   2.200   5.932   5.415 -1.1850  1.4599 -1.2515
 3493SOL    HW216495   2.296   6.064   5.410 -1.0164  1.3627 -0.6258
 3494SOL     OW16496   4.357   5.311   0.054  0.0557 -0.0773 -0.6004
 3494SOL    HW116497   4.306   5.232   0.088  1.0749 -0.3948  0.2245
 3494SOL    HW216498   4.339   5.323  -0.044 -0.4288 -1.0762 -0.6413
 3495SOL     OW16499   3.541   1.111   5.344  1.4856  0.5200  0.0771
 3495SOL    HW116500   3.468   1.116   5.412  0.8716  3.1553 -0.6538
 3495SOL    HW216501   3.503   1.121   5.252  2.4779 -1.3313 -0.5801
 3496SOL     OW16502   0.881   4.217   5.781 -0.3678 -0.6774 -0.4672
 3496SOL    HW116503   0.901   4.133   5.832 -0.3958 -0.6489 -0.4088
 3496SOL    HW216504   0.915   4.208   5.688  1.0774 -0.1330 -0.0165
 3497SOL     OW16505   4.573   0.452   6.201  0.2452  0.5358 -0.0110
 3497SOL    HW116506   4.479   0.444   6.234  0.4997 -0.1447  0.5835
 3497SOL    HW216507   4.579   0.526   6.134 -0.9352 -0.1188 -0.8635
 3498SOL     OW16508   5.655   6.000   6.678 -0.0056 -0.3090  0.1380
 3498SOL    HW116509   5.725   5.973   6.744  0.1343 -0.4362 -0.0628
 3498SOL    HW216510   5.577   5.938   6.685 -0.8710  0.8679  1.5944
 3499SOL     OW16511   6.063   3.177   0.755 -0.4423 -0.1010 -0.3705
 3499SOL    HW116512   6.043   3.155   0.850 -2.1729 -0.9414 -0.8850
 3499SOL    HW216513   6.158   3.154   0.735 -0.2091 -0.4132  1.0153
 3500SOL     OW16514   5.329   4.725   0.002  0.0096 -0.0013 -0.0818
 3500SOL    HW116515   5.320   4.697   0.097 -0.9467 -0.6731 -0.3558
 3500SOL    HW216516   5.420   4.763  -0.013  0.1915  0.0521  1.0795
 3501SOL     OW16517   3.934   1.812   0.763  0.2415  0.0563  0.4262
 3501SOL    HW116518   3.903   1.804   0.858 -2.3359 -1.1063 -0.4296
 3501SOL    HW216519   3.911   1.729   0.713  0.1981  1.2067 -1.5798
 3502SOL     OW16520   3.387   3.024   0.819  0.2816 -0.2224  0.1402
 3502SOL    HW116521   3.331   3.062   0.745 -0.1136  0.8179  0.9493
 3502SOL    HW216522   3.437   3.097   0.864 -0.5852 -0.6076  1.8234
 3503SOL     OW16523   1.284   2.871   1.090 -0.4005 -0.5881  0.4180
 3503SOL    HW116524   1.274   2.842   1.186 -0.9106 -2.4668 -0.1621
 3503SOL    HW216525   1.203   2.924   1.063 -0.4739 -0.4520  0.8912
 3504SOL     OW16526   5.481   1.169   1.235  0.2671 -0.0484 -0.0818
 3504SOL    HW116527   5.452   1.241   1.298 -0.1494  2.8047 -3.3036
 3504SOL    HW216528   5.416   1.093   1.241 -0.0146  0.2789  2.5079
 3505SOL     OW16529   2.124   4.606   0.824  0.4998 -0.0981  0.1724
 3505SOL    HW116530   2.159   4.522   0.783 -1.6572 -0.9874  0.0061
 3505SOL    HW216531   2.063   4.583   0.900  1.0344  1.3865  1.0890
 3506SOL     OW16532   1.102   2.366   6.001 -0.2600 -0.2101  0.0902
 3506SOL    HW116533   1.146   2.405   5.921 -1.1646  0.1607 -0.2354
 3506SOL    HW216534   1.167   2.307   6.049  1.6866  2.8064  1.4703
 3507SOL     OW16535   0.957   2.516   6.150 -0.0786 -0.2117 -0.2877
 3507SOL    HW116536   0.900   2.574   6.092 -0.2469  0.2178  0.3003
 3507SOL    HW216537   1.026   2.471   6.094 -0.6434 -0.3010 -0.9188
 3508SOL     OW16538   5.566   4.832   0.020  0.2465  0.0756  0.0073
 3508SOL    HW116539   5.589   4.830  -0.078  0.9334 -0.4707  0.1678
 3508SOL    HW216540   5.632   4.891   0.068 -1.8953  2.9202 -0.2670
 3509SOL     OW16541   3.106   3.665   6.510 -0.0933 -0.5030  0.0230
 3509SOL    HW116542   3.172   3.636   6.580 -0.5672  0.2047  0.7875
 3509SOL    HW216543   3.026   3.605   6.512  1.2590 -2.5425 -2.1729
 3510SOL     OW16544   3.600   4.174   0.814 -0.4182 -0.1467 -0.5623
 3510SOL    HW116545   3.547   4.257   0.796 -3.3871 -1.8693 -0.4212
 3510SOL    HW216546   3.611   4.122   0.730 -1.8856 -1.3547 -0.0580
 3511SOL     OW16547   4.898   3.513   1.124  0.5092 -1.1163  0.4197
 3511SOL    HW116548   4.870   3.493   1.218  0.2304  0.1439  0.6341
 3511SOL    HW216549   4.986   3.470   1.105  1.4774  0.0926  1.9063
 3512SOL     OW16550   4.543   5.264   0.613 -0.5511  0.0756 -0.5846
 3512SOL    HW116551   4.485   5.336   0.650 -0.6816 -1.3397  2.1795
 3512SOL    HW216552   4.626   5.305   0.574 -2.6070  2.0151 -3.3808
 3513SOL     OW16553   1.043   5.049   6.427  0.2650 -0.0569 -0.3967
 3513SOL    HW116554   0.989   5.051   6.511 -0.5498 -0.0005 -0.9188
 3513SOL    HW216555   1.052   4.954   6.396 -1.0739  0.0885 -1.2854
 3514SOL     OW16556   2.043   6.246   5.424 -0.5738 -0.0893  0.0659
 3514SOL    HW116557   1.960   6.193   5.409 -0.3607 -0.3927 -0.0359
 3514SOL    HW216558   2.122   6.185   5.432 -0.2672  0.2308 -0.4458
 3515SOL     OW16559   2.858   2.168   1.004 -0.1763 -0.4459 -0.1702
 3515SOL    HW116560   2.814   2.203   0.921 -2.5011 -4.2289 -0.8070
 3515SOL    HW216561   2.950   2.135   0.983 -0.1501  0.0673 -0.8603
 3516SOL     OW16562   3.559   3.849   0.910 -0.3611 -0.2545 -0.2442
 3516SOL    HW116563   3.587   3.843   1.006 -2.2549 -2.2753  0.2655
 3516SOL    HW216564   3.494   3.924   0.898  2.6797  2.5283 -0.8474
 3517SOL     OW16565   1.718   4.020   0.669  0.6205 -0.7470  0.3687
 3517SOL    HW116566   1.769   3.937   0.692  1.0340 -0.0920  1.9644
 3517SOL    HW216567   1.628   4.018   0.713  0.8896 -0.0674  0.9700
 3518SOL     OW16568   4.711   0.544   5.830  0.6747  0.6338 -0.2353
 3518SOL    HW116569   4.692   0.449   5.804 -0.6828  1.1270 -1.1685
 3518SOL    HW216570   4.810   0.555   5.843  0.7343 -1.2586  1.4792
 3519SOL     OW16571   0.777   2.811   1.306 -0.0966  0.4320  0.0603
 3519SOL    HW116572   0.748   2.782   1.397 -0.5537 -1.4002 -0.6220
 3519SOL    HW216573   0.876   2.796   1.297 -0.3255 -1.0901 -0.2891
 3520SOL     OW16574   3.777   0.616   5.925 -0.4093 -0.1779  0.3475
 3520SOL    HW116575   3.750   0.520   5.935 -2.0690  0.3677  1.6798
 3520SOL    HW216576   3.755   0.648   5.833  0.5247 -1.1578 -0.2345
 3521SOL     OW16577   3.057   3.704   5.117  0.3473  0.3536 -0.6476
 3521SOL    HW116578   3.139   3.711   5.059  0.6481  0.2060 -0.2486
 3521SOL    HW216579   3.058   3.617   5.166  1.1406  1.2960  1.1056
 3522SOL     OW16580   3.465   1.306   5.668  0.2813 -0.1480  0.2380
 3522SOL    HW116581   3.532   1.364   5.622 -1.6263  1.9566 -0.0617
 3522SOL    HW216582   3.480   1.308   5.767 -0.1317  1.4100  0.2834
 3523SOL     OW16583   0.235   2.244   6.502 -0.3181 -0.1018  0.0627
 3523SOL    HW116584   0.231   2.245   6.402  0.3139  0.0773  0.0294
 3523SOL    HW216585   0.188   2.164   6.537 -0.9382  0.0690 -0.3560
 3524SOL     OW16586   3.024   3.163   0.908  0.2397 -0.0079 -0.4027
 3524SOL    HW116587   2.976   3.201   0.830  0.8907  2.0820  0.1618
 3524SOL    HW216588   3.088   3.231   0.945 -1.1016 -0.3251  2.8627
 3525SOL     OW16589   5.957   0.406   0.614  0.2828 -0.4129 -0.1083
 3525SOL    HW116590   5.917   0.498   0.613 -2.5501 -1.5466  0.3146
 3525SOL    HW216591   6.052   0.411   0.581  0.8135  2.8554  1.4861
 3526SOL     OW16592   3.599   4.981   5.591 -0.0135 -0.6221  0.2148
 3526SOL    HW116593   3.636   4.975   5.498 -0.4832 -1.9425  0.0911
 3526SOL    HW216594   3.513   5.034   5.589  0.3058 -0.1013  0.0135
 3527SOL     OW16595   4.163   4.056   1.709  0.2236 -0.0217 -0.3573
 3527SOL    HW116596   4.099   3.982   1.730 -0.0143 -0.1958 -1.6284
 3527SOL    HW216597   4.114   4.143   1.712  0.6396  0.1866  1.7616
 3528SOL     OW16598   2.606   4.204   1.021  0.6331 -0.4229 -0.0552
 3528SOL    HW116599   2.695   4.172   0.988  1.0918  0.6785  0.0823
 3528SOL    HW216600   2.600   4.304   1.012 -0.0947 -0.3369  1.1171
 3529SOL     OW16601   1.115   2.147   1.126 -1.0191 -0.1674 -0.4843
 3529SOL    HW116602   1.080   2.068   1.176  0.6058  1.5511  3.8149
 3529SOL    HW216603   1.189   2.117   1.066 -1.0412 -2.0397  0.3408
 3530SOL     OW16604   2.330   1.988   0.601  0.1097  0.4117  0.4384
 3530SOL    HW116605   2.359   1.896   0.626  0.8737  1.0945  2.2150
 3530SOL    HW216606   2.262   1.982   0.528  1.0762 -1.4736 -0.3981
 3531SOL     OW16607   0.364   2.387   6.011 -0.0077 -0.0244 -0.4209
 3531SOL    HW116608   0.427   2.348   5.944 -1.0875 -0.9608 -0.9085
 3531SOL    HW216609   0.302   2.451   5.966 -1.1032 -1.0762 -0.4445
 3532SOL     OW16610   3.761   0.005   0.225 -0.0811  0.0116 -0.0751
 3532SOL    HW116611   3.850  -0.039   0.213 -0.3086 -1.2815  2.3704
 3532SOL    HW216612   3.769   0.102   0.199  1.1075 -0.7515 -3.0485
 3533SOL     OW16613   4.660   0.952   5.691  0.6972 -0.7377  0.4773
 3533SOL    HW116614   4.741   0.952   5.633  1.3981 -1.0207  1.4334
 3533SOL    HW216615   4.688   0.959   5.787 -0.4599  0.5599  0.7557
 3534SOL     OW16616   1.760   2.677   0.892 -0.2520  0.3653  0.2984
 3534SOL    HW116617   1.752   2.746   0.820 -0.2820 -1.0383 -1.1054
 3534SOL    HW216618   1.673   2.670   0.940 -0.2082  1.3745  0.5625
 3535SOL     OW16619   4.851   4.120   5.917 -0.4072 -0.6066 -0.0879
 3535SOL    HW116620   4.935   4.140   5.865  0.0557  2.8890  1.7047
 3535SOL    HW216621   4.791   4.063   5.862  1.8624 -0.7570 -2.6466
 3536SOL     OW16622   4.264   1.628   6.416 -0.0280 -0.3259 -0.0903
 3536SOL    HW116623   4.176   1.582   6.421  1.0065 -2.4785 -0.5291
 3536SOL    HW216624   4.308   1.627   6.506 -0.5130  0.9620  0.1859
 3537SOL     OW16625   4.005   5.429   1.368  0.1781  0.0750  0.7274
 3537SOL    HW116626   3.919   5.445   1.319 -0.2267 -1.3787  0.9187
 3537SOL    HW216627   4.074   5.492   1.334  0.2090 -1.4692 -2.4884
 3538SOL     OW16628   4.315   2.419   5.885  0.2762 -0.0535  0.4868
 3538SOL    HW116629   4.306   2.507   5.931  0.7683  1.3439 -1.8980
 3538SOL    HW216630   4.402   2.416   5.836 -1.0286 -0.5280 -1.9844
 3539SOL     OW16631   4.190   5.552   6.534  0.0759 -0.3050 -0.3815
 3539SOL    HW116632   4.127   5.623   6.565  0.6958 -0.3259  0.9795
 3539SOL    HW216633   4.282   5.589   6.528  0.4522 -1.0326  0.5825
 3540SOL     OW16634   0.399   5.877   5.850  0.2204 -0.2376 -0.4413
 3540SOL    HW116635   0.401   5.789   5.801 -1.8407 -1.1112  0.8735
 3540SOL    HW216636   0.472   5.879   5.918  0.3493 -0.8906 -0.5540
 3541SOL     OW16637   1.027   4.402   6.417  0.5545 -0.5988 -0.7000
 3541SOL    HW116638   0.996   4.443   6.503  1.2447  0.7064 -1.0459
 3541SOL    HW216639   1.124   4.379   6.423  0.6583 -0.3067 -1.1965
 3542SOL     OW16640   5.735   3.642   6.248  0.3236  0.3352 -0.2002
 3542SOL    HW116641   5.729   3.659   6.346 -0.6568  0.4998 -0.2821
 3542SOL    HW216642   5.644   3.621   6.212  0.6263  0.5823 -1.1288
 3543SOL     OW16643   5.439   0.605   0.364  0.8457  0.1599  0.0148
 3543SOL    HW116644   5.432   0.629   0.461  1.6316 -0.8919  0.3480
 3543SOL    HW216645   5.405   0.512   0.350 -0.8253  0.8838 -1.0178
 3544SOL     OW16646   4.476   0.072   6.534 -0.3711  0.4815 -0.0324
 3544SOL    HW116647   4.416   0.119   6.599  0.4647  0.5570  0.6985
 3544SOL    HW216648   4.525   0.140   6.479  0.7045  0.4955  0.9037
 3545SOL     OW16649   1.830   1.818   5.043 -0.1381 -0.6329 -0.0638
 3545SOL    HW116650   1.741   1.859   5.023  0.2194  1.0724  1.6095
 3545SOL    HW216651   1.817   1.737   5.101 -0.5412  0.8165  1.9654
 3546SOL     OW16652   5.246   4.102   6.526  0.5747  0.1453 -0.5403
 3546SOL    HW116653   5.228   4.187   6.576 -0.2914 -1.0060  1.1946
 3546SOL    HW216654   5.342   4.099   6.499  1.0950  0.7914  1.1305
 3547SOL     OW16655   3.030   1.964   0.460 -0.5853  0.4498  0.7096
 3547SOL    HW116656   3.114   1.934   0.505  0.0781  0.3212 -0.5742
 3547SOL    HW216657   2.978   2.022   0.522  0.6101  0.8047  1.4046
 3548SOL     OW16658   2.115   1.713   5.856 -0.0698  0.4502  0.5184
 3548SOL    HW116659   2.200   1.702   5.805 -0.3969 -0.2305  0.1109
 3548SOL    HW216660   2.038   1.707   5.793 -0.4005  1.8577  0.7624
 3549SOL     OW16661   3.686   0.957   5.917 -0.1246 -0.0965  0.2875
 3549SOL    HW116662   3.686   0.893   5.840  0.9192 -0.6644  0.7425
 3549SOL    HW216663   3.748   1.033   5.897 -2.6947  1.7968 -1.0265
 3550SOL     OW16664   5.775   4.168   1.106 -0.4531 -0.8035  0.2510
 3550SOL    HW116665   5.725   4.098   1.156 -0.7204 -0.9172 -0.1677
 3550SOL    HW216666   5.737   4.258   1.129 -0.9669 -0.9023 -0.1919
 3551SOL     OW16667   4.522   4.772   1.611  0.4747  0.0963 -0.0299
 3551SOL    HW116668   4.483   4.864   1.605  3.0624  1.4263  1.5081
 3551SOL    HW216669   4.459   4.712   1.660  0.1554  2.0183  2.0456
 3552SOL     OW16670   4.366   4.063   5.850 -0.2776  0.5143  0.4694
 3552SOL    HW116671   4.445   4.062   5.912 -1.0673 -0.9068  1.5320
 3552SOL    HW216672   4.397   4.055   5.756  0.8167 -1.7695  0.9628
 3553SOL     OW16673   0.006   4.839   0.895 -0.8464  0.3476  0.1042
 3553SOL    HW116674   0.022   4.916   0.957  1.3920 -0.0260  0.0541
 3553SOL    HW216675   0.073   4.841   0.821  0.0565 -2.2804  0.7459
 3554SOL     OW16676   1.595   2.649   0.091  0.2849 -0.5958 -0.1267
 3554SOL    HW116677   1.498   2.628   0.105  0.6082 -1.3882  1.1099
 3554SOL    HW216678   1.615   2.649  -0.007 -1.0714  0.1639 -0.4394
 3555SOL     OW16679   3.437   1.543   6.523 -0.5194 -0.4671  0.0407
 3555SOL    HW116680   3.416   1.598   6.604  0.3021  0.7409 -0.5426
 3555SOL    HW216681   3.412   1.594   6.441  0.8330 -0.7058 -0.5348
 3556SOL     OW16682   0.478   1.059   0.679 -0.0594  0.4459 -0.3471
 3556SOL    HW116683   0.484   1.084   0.583  0.1173  0.8224 -0.2400
 3556SOL    HW216684   0.554   1.100   0.729 -2.2112  3.5626  0.6822
 3557SOL     OW16685   4.639   3.122   0.962  0.4635  0.1269  0.3890
 3557SOL    HW116686   4.571   3.107   0.890  1.2385 -0.6688 -0.1802
 3557SOL    HW216687   4.694   3.040   0.974  0.9151  0.5508  1.2974
 3558SOL     OW16688   4.256   5.777   0.699 -0.4680 -0.1546 -0.8021
 3558SOL    HW116689   4.322   5.759   0.627 -0.4226 -0.6649 -0.6343
 3558SOL    HW216690   4.303   5.813   0.780 -0.4576 -0.0425 -0.8579
 3559SOL     OW16691   4.562   1.131   0.709 -0.7567  0.0683  0.4782
 3559SOL    HW116692   4.622   1.058   0.740  1.1151  1.8255  1.2414
 3559SOL    HW216693   4.555   1.129   0.609 -0.6083 -1.0366  0.4857
 3560SOL     OW16694   5.726   3.018   5.461  0.1678 -0.6021  0.2908
 3560SOL    HW116695   5.775   2.949   5.515  0.1735 -1.3508 -0.6538
 3560SOL    HW216696   5.707   3.097   5.519  2.5136 -0.2621  0.6923
 3561SOL     OW16697   1.968   2.622   0.290  0.0897 -0.0564 -0.4573
 3561SOL    HW116698   2.003   2.597   0.380  1.3877 -1.1124 -1.2143
 3561SOL    HW216699   1.934   2.717   0.292  1.6894  0.5296  0.7193
 3562SOL     OW16700   5.762   2.385   5.417  0.0548 -0.4251 -0.9470
 3562SOL    HW116701   5.802   2.401   5.327  1.9676 -3.1049 -0.6844
 3562SOL    HW216702   5.810   2.441   5.485  0.2833 -0.2507 -1.2475
 3563SOL     OW16703   3.669   1.624   0.960  0.2406 -0.6209 -0.2867
 3563SOL    HW116704   3.728   1.639   1.040  0.4695  0.3614 -0.6288
 3563SOL    HW216705   3.606   1.549   0.979  1.5643 -1.6657  0.1008
 3564SOL     OW16706   1.793   6.114   5.427  0.2190 -0.0025 -0.2462
 3564SOL    HW116707   1.712   6.061   5.453 -0.0510 -0.2373 -1.4923
 3564SOL    HW216708   1.837   6.070   5.349  2.5456 -0.8213  1.4305
 3565SOL     OW16709   6.219   0.243   1.216  0.1376  0.5768  0.3136
 3565SOL    HW116710   6.133   0.284   1.250 -0.6265 -0.3878 -0.4125
 3565SOL    HW216711   6.200   0.186   1.137  1.6958  1.5918 -0.8497
 3566SOL     OW16712   1.175   5.394   5.165 -0.3504  0.2174 -0.0683
 3566SOL    HW116713   1.204   5.462   5.097  0.9078  0.8285  1.0443
 3566SOL    HW216714   1.190   5.302   5.128  0.2244  0.5381 -0.6698
 3567SOL     OW16715   3.410   5.402   6.553  0.5821  0.1730 -0.3200
 3567SOL    HW116716   3.381   5.411   6.648  0.3386 -1.8885 -0.1611
 3567SOL    HW216717   3.357   5.464   6.496 -0.6003  0.0694  0.6293
 3568SOL     OW16718   0.933   0.634   5.771  0.1917  0.4887 -0.0084
 3568SOL    HW116719   0.957   0.597   5.861  4.9229 -0.0932 -1.2367
 3568SOL    HW216720   0.944   0.562   5.702 -1.6140  1.3836 -1.2942
 3569SOL     OW16721   5.870   1.748   5.471  0.0477  0.3736 -0.1395
 3569SOL    HW116722   5.947   1.775   5.529 -0.3204 -0.2327  0.6523
 3569SOL    HW216723   5.905   1.705   5.388  0.5583 -0.4323  0.4831
 3570SOL     OW16724   3.722   0.704   0.168  0.2633  0.0472 -0.0331
 3570SOL    HW116725   3.739   0.637   0.096 -2.6684  0.6288 -1.4163
 3570SOL    HW216726   3.645   0.673   0.224  0.5365  1.0584  0.9328
 3571SOL     OW16727   4.669   2.794   1.638 -0.7661 -0.4283  0.1422
 3571SOL    HW116728   4.615   2.811   1.720 -1.1932 -0.3645 -0.1485
 3571SOL    HW216729   4.722   2.876   1.615 -3.3259  0.8761 -1.6359
 3572SOL     OW16730   5.587   0.544   0.921 -0.5089  0.3483  0.5615
 3572SOL    HW116731   5.564   0.468   0.982  1.0559 -0.5549  0.0834
 3572SOL    HW216732   5.521   0.618   0.934 -1.6393 -0.7807  1.5801
 3573SOL     OW16733   3.732   1.051   6.339  0.0807 -0.0984  0.1254
 3573SOL    HW116734   3.719   1.133   6.395 -0.2494  0.0975 -0.2294
 3573SOL    HW216735   3.646   1.000   6.335  0.3695 -0.6307  0.6018
 3574SOL     OW16736   3.497   1.820   0.418  0.2040  0.6101  0.1604
 3574SOL    HW116737   3.580   1.844   0.369  0.3966  0.1443  0.2605
 3574SOL    HW216738   3.478   1.723   0.407 -0.4020  0.7383  0.0266
 3575SOL     OW16739   3.274   0.100   6.384 -0.6292  0.1055 -0.2648
 3575SOL    HW116740   3.193   0.049   6.357 -1.9815  2.3950 -0.7854
 3575SOL    HW216741   3.253   0.158   6.462  1.2860 -1.1470  1.2963
 3576SOL     OW16742   4.254   5.430   5.592  0.2889  0.3842  0.0793
 3576SOL    HW116743   4.262   5.519   5.636  0.5264  0.8346 -0.8593
 3576SOL    HW216744   4.320   5.423   5.517 -0.6102 -0.0840 -0.6935
 3577SOL     OW16745   1.542   4.671   5.535  0.1819  0.3505  0.1759
 3577SOL    HW116746   1.546   4.627   5.445  0.9259  1.5125 -0.3804
 3577SOL    HW216747   1.578   4.764   5.528  2.9740 -0.4274  2.2002
 3578SOL     OW16748   3.089   0.881   5.845  0.2738  0.2029  0.4443
 3578SOL    HW116749   3.144   0.822   5.904  0.9759  1.5742  1.1854
 3578SOL    HW216750   3.121   0.975   5.851 -1.3560  0.8347 -0.0641
 3579SOL     OW16751   4.270   0.822   0.829  0.6115 -0.7536 -0.2405
 3579SOL    HW116752   4.310   0.788   0.744 -0.1320 -0.0361 -0.8881
 3579SOL    HW216753   4.340   0.872   0.881  0.9875 -0.9396 -0.5609
 3580SOL     OW16754   1.131   2.145   5.473 -0.0402 -0.0037  0.1766
 3580SOL    HW116755   1.125   2.231   5.422  2.1862  0.5809  0.7858
 3580SOL    HW216756   1.127   2.068   5.409  0.6353  0.6516 -0.6927
 3581SOL     OW16757   0.077   1.235   0.671  0.4117 -0.5961  0.1468
 3581SOL    HW116758   0.024   1.302   0.619 -0.1111 -1.3907 -0.3654
 3581SOL    HW216759   0.121   1.281   0.748  1.7126  0.7408 -1.3185
 3582SOL     OW16760   5.722   5.094   0.125  0.6370 -0.9287 -0.9111
 3582SOL    HW116761   5.688   5.185   0.102  1.9422 -0.2639 -0.3216
 3582SOL    HW216762   5.822   5.093   0.117  0.7045 -2.0915 -0.1399
 3583SOL     OW16763   3.953   2.121   0.347  0.0833  0.5967 -0.6990
 3583SOL    HW116764   3.882   2.153   0.284 -0.8165  2.6745  1.2316
 3583SOL    HW216765   3.914   2.112   0.439  1.6861 -0.9703 -0.1155
 3584SOL     OW16766   3.100   5.273   0.001 -0.0999  0.4016 -0.2794
 3584SOL    HW116767   3.123   5.178  -0.023 -0.6889  0.1711  0.0410
 3584SOL    HW216768   3.037   5.310  -0.068  0.1800  0.5829 -0.4387
 3585SOL     OW16769   3.273   5.247   0.493 -0.0969 -0.2148  0.0258
 3585SOL    HW116770   3.373   5.243   0.487 -0.1742 -1.5004 -0.8851
 3585SOL    HW216771   3.235   5.159   0.465 -1.4386 -0.2404  1.7822
 3586SOL     OW16772   2.536   1.621   5.259  0.5523  0.3912 -0.2096
 3586SOL    HW116773   2.444   1.629   5.221 -0.5116 -0.9603  1.8638
 3586SOL    HW216774   2.551   1.692   5.328  1.7944  1.7237 -1.7679
 3587SOL     OW16775   0.467   5.196   0.076  0.2902  0.0538 -0.6063
 3587SOL    HW116776   0.405   5.236   0.008 -0.3731  0.9947  0.5051
 3587SOL    HW216777   0.462   5.097   0.072 -1.0086  0.1140 -0.7958
 3588SOL     OW16778   2.268   4.470   5.933 -0.0926 -0.3361 -0.0487
 3588SOL    HW116779   2.332   4.518   5.871 -1.2235  0.5443 -0.5774
 3588SOL    HW216780   2.190   4.530   5.952 -0.6695 -1.3214  0.7356
 3589SOL     OW16781   2.604   2.611   1.901  0.3803  0.0102  0.2676
 3589SOL    HW116782   2.530   2.545   1.899  0.6810 -0.3782  1.4991
 3589SOL    HW216783   2.689   2.566   1.930  0.6622  0.8483  0.7922
 3590SOL     OW16784   5.026   2.163   0.955  0.1989 -0.3542 -0.6851
 3590SOL    HW116785   4.961   2.134   1.025  0.5848 -0.3005 -0.2955
 3590SOL    HW216786   5.119   2.158   0.992  0.6083 -2.2552 -1.8243
 3591SOL     OW16787   5.032   3.708   5.769 -0.1118  0.3848 -0.2016
 3591SOL    HW116788   5.118   3.747   5.737  0.9352 -1.6698 -0.0040
 3591SOL    HW216789   4.956   3.753   5.722  1.0733  1.8001 -0.8362
 3592SOL     OW16790   4.285   0.567   6.329  0.3604  0.9446  0.0019
 3592SOL    HW116791   4.217   0.635   6.355 -1.1316 -0.9764  1.3801
 3592SOL    HW216792   4.249   0.512   6.254  0.7068  0.4177  0.2195
 3593SOL     OW16793   2.156   5.559   0.726 -0.0985 -0.0020 -0.0070
 3593SOL    HW116794   2.088   5.491   0.701  0.9808 -0.8562 -0.7507
 3593SOL    HW216795   2.242   5.514   0.749 -0.0518  0.9899  1.9586
 3594SOL     OW16796   4.062   4.136   5.184 -0.6279  0.5878  0.5960
 3594SOL    HW116797   4.023   4.143   5.092  1.2540  0.2117 -0.2678
 3594SOL    HW216798   4.161   4.146   5.180 -0.3132 -1.0492  2.3597
 3595SOL     OW16799   2.347   0.424   0.426 -0.0950 -0.3864  0.3715
 3595SOL    HW116800   2.339   0.383   0.335 -0.1579 -0.8671  0.5930
 3595SOL    HW216801   2.336   0.353   0.496  1.4811 -0.3047  0.7371
 3596SOL     OW16802   5.470   3.928   5.808  0.0940 -1.0513  0.0518
 3596SOL    HW116803   5.483   3.888   5.899  0.3599 -3.2818 -0.8860
 3596SOL    HW216804   5.542   3.995   5.790  1.5692 -2.4280  0.5625
 3597SOL     OW16805   3.789   3.431   6.485 -0.1373  0.1505 -0.2069
 3597SOL    HW116806   3.764   3.336   6.501  0.3557 -0.1594 -1.2364
 3597SOL    HW216807   3.877   3.451   6.529 -0.0888  0.0510 -0.2603
 3598SOL     OW16808   5.900   0.062   1.162  0.2377 -0.0124  0.1063
 3598SOL    HW116809   5.835   0.037   1.233  0.0937 -0.8173 -0.2977
 3598SOL    HW216810   5.883   0.157   1.133  0.6133  0.5011  1.4645
 3599SOL     OW16811   0.581   5.953   4.862 -0.0947  0.0084  0.0481
 3599SOL    HW116812   0.668   5.920   4.897 -0.1160 -0.0376  0.0572
 3599SOL    HW216813   0.574   6.052   4.877 -0.4865 -0.1551  1.0072
 3600SOL     OW16814   2.548   2.119   0.286 -0.0697 -0.6510  0.1048
 3600SOL    HW116815   2.506   2.200   0.247 -0.0085 -0.2029  0.9424
 3600SOL    HW216816   2.638   2.105   0.245  1.5670  1.8671  2.5038
 3601SOL     OW16817   0.662   0.020   5.941  0.2255 -0.1458  0.6143
 3601SOL    HW116818   0.686  -0.056   5.881 -0.1077 -0.1707  0.5102
 3601SOL    HW216819   0.572   0.056   5.916  0.3703  0.2714  0.6746
 3602SOL     OW16820   1.504   0.740   0.646 -0.2062 -0.1133  0.4955
 3602SOL    HW116821   1.592   0.747   0.693  0.8196 -0.7992 -1.2123
 3602SOL    HW216822   1.500   0.653   0.598  0.1508  1.7030 -3.1571
 3603SOL     OW16823   2.859   5.949   6.570 -0.0421 -0.0802  0.8115
 3603SOL    HW116824   2.860   5.918   6.664 -2.2360  1.1975  1.3169
 3603SOL    HW216825   2.906   6.037   6.563  0.6134 -0.4391  0.5785
 3604SOL     OW16826   4.349   0.440   5.964 -0.2235  0.0045  0.1577
 3604SOL    HW116827   4.413   0.368   5.937  0.7319  0.3969  1.2959
 3604SOL    HW216828   4.280   0.402   6.026 -1.0439 -0.3880 -0.9615
 3605SOL     OW16829   2.430   5.781   1.147  0.1177  0.3842  0.8038
 3605SOL    HW116830   2.419   5.877   1.122  0.1215  0.4833  1.1750
 3605SOL    HW216831   2.515   5.747   1.108 -1.0573 -0.1737 -1.4167
 3606SOL     OW16832   1.490   4.962   5.900 -0.7835 -0.5224  0.2148
 3606SOL    HW116833   1.492   5.014   5.985  0.4643  3.2631 -1.8730
 3606SOL    HW216834   1.583   4.949   5.866 -1.3161  0.3581 -1.7599
 3607SOL     OW16835   0.856   4.116   1.184  0.3568 -0.3326  0.1298
 3607SOL    HW116836   0.886   4.152   1.096  0.0223 -0.7702 -0.1663
 3607SOL    HW216837   0.838   4.193   1.246  0.1142 -0.0010 -0.3411
 3608SOL     OW16838   5.332   1.420   0.855 -0.8498 -0.6791 -0.4132
 3608SOL    HW116839   5.328   1.441   0.758 -2.2889 -1.9673 -0.6778
 3608SOL    HW216840   5.357   1.324   0.867 -0.9780 -0.6129  0.4722
 3609SOL     OW16841   3.317   6.076   1.037 -0.4994 -0.4925  0.6822
 3609SOL    HW116842   3.335   6.059   0.940  1.8605  0.8143  0.8121
 3609SOL    HW216843   3.251   6.150   1.046 -0.3457 -0.2730  0.0617
 3610SOL     OW16844   2.447   0.960   6.336  0.0212  0.2173 -0.2985
 3610SOL    HW116845   2.441   0.897   6.414 -0.6535 -0.2424 -0.7129
 3610SOL    HW216846   2.368   0.947   6.276 -0.3857  1.7884 -0.1518
 3611SOL     OW16847   3.458   3.341   6.658 -0.5682 -0.6224 -0.2470
 3611SOL    HW116848   3.365   3.314   6.633 -0.5342 -1.1288  0.1652
 3611SOL    HW216849   3.510   3.362   6.575 -1.5280  1.2920 -0.4134
 3612SOL     OW16850   4.778   5.139   0.254  0.8510  0.2508  0.1532
 3612SOL    HW116851   4.714   5.216   0.245  1.7292  1.0690  0.6542
 3612SOL    HW216852   4.807   5.109   0.163 -0.0764  0.0119 -0.0689
 3613SOL     OW16853   0.345   5.289   6.205  0.4569 -0.1923 -0.0562
 3613SOL    HW116854   0.304   5.354   6.141  1.1194 -1.8330 -2.2649
 3613SOL    HW216855   0.392   5.217   6.154  0.2180 -2.1338  2.2935
 3614SOL     OW16856   0.946   2.938   5.244 -0.0859  0.3100  0.0589
 3614SOL    HW116857   0.981   3.019   5.198 -1.9825  0.9239 -0.3853
 3614SOL    HW216858   0.846   2.942   5.247 -0.2534 -2.1703 -0.2790
 3615SOL     OW16859   3.920   1.447   5.351 -0.8157 -0.0216  0.1022
 3615SOL    HW116860   3.952   1.359   5.315 -1.0942 -0.4092  0.7893
 3615SOL    HW216861   3.992   1.516   5.340 -0.1939 -0.5914  0.5208
 3616SOL     OW16862   1.994   3.649   4.872  0.2818 -0.0451  0.0332
 3616SOL    HW116863   1.985   3.562   4.823 -1.2401 -0.5580  1.1488
 3616SOL    HW216864   2.090   3.665   4.895  0.8643 -0.4051 -1.9626
 3617SOL     OW16865   0.514   3.029   0.692 -0.4629  0.7247 -0.1696
 3617SOL    HW116866   0.561   2.956   0.641 -0.0826  1.2166 -0.5333
 3617SOL    HW216867   0.435   2.991   0.739  1.0087 -0.4155  1.5248
 3618SOL     OW16868   5.064   0.449   0.537 -0.0849  0.4732  0.4267
 3618SOL    HW116869   5.137   0.397   0.580 -0.3598  1.2669  1.9514
 3618SOL    HW216870   5.093   0.480   0.447  1.8016  1.4643  1.3190
 3619SOL     OW16871   0.312   2.815   0.435  0.5535 -0.0863 -0.7962
 3619SOL    HW116872   0.307   2.915   0.430  1.0682 -0.0070 -0.0282
 3619SOL    HW216873   0.263   2.783   0.517  1.1170 -0.3788 -0.5642
 3620SOL     OW16874   2.158   5.461   5.252 -0.6563  0.0223 -0.5890
 3620SOL    HW116875   2.248   5.448   5.294 -0.9542  0.3343  0.1615
 3620SOL    HW216876   2.132   5.557   5.258 -1.3827 -0.2017 -0.0839
 3621SOL     OW16877   2.844   2.375   0.367 -0.2888  0.6588 -0.5678
 3621SOL    HW116878   2.872   2.468   0.390 -1.5964  0.6209  1.5335
 3621SOL    HW216879   2.778   2.377   0.293  0.9393  1.2241 -1.6807
 3622SOL     OW16880   3.992   5.850   5.712 -0.5991 -0.5146 -0.5664
 3622SOL    HW116881   3.933   5.913   5.662 -1.8136 -0.9547  0.2596
 3622SOL    HW216882   4.088   5.873   5.695 -0.9994  0.4100 -1.6998
 3623SOL     OW16883   1.812   1.064   0.213 -0.0025  0.2237  0.3394
 3623SOL    HW116884   1.830   1.160   0.191  0.7466  0.1536  0.6338
 3623SOL    HW216885   1.727   1.058   0.265 -0.5564  0.6260 -0.4774
 3624SOL     OW16886   1.027   3.976   6.431  0.2630 -0.1090 -0.3397
 3624SOL    HW116887   0.973   3.892   6.428  0.4339 -0.3160  1.3728
 3624SOL    HW216888   0.965   4.055   6.435  0.0704 -0.3085  0.9024
 3625SOL     OW16889   2.080   1.628   6.631  0.3797 -0.2964 -0.4195
 3625SOL    HW116890   2.149   1.668   6.570  1.1577  0.5587  0.9759
 3625SOL    HW216891   2.114   1.541   6.666  0.8557  0.2001  0.3929
 3626SOL     OW16892   6.233   5.866   1.054 -0.2156  0.0144 -0.2818
 3626SOL    HW116893   6.284   5.902   1.132  1.4839 -0.7400 -0.9968
 3626SOL    HW216894   6.171   5.936   1.020  0.4587  1.0396  0.5203
 3627SOL     OW16895   2.699   0.154   1.068 -0.4159  0.3955  0.2889
 3627SOL    HW116896   2.706   0.248   1.037  2.1280 -0.0756 -0.8252
 3627SOL    HW216897   2.675   0.152   1.165  0.5055  2.2361  0.5921
 3628SOL     OW16898   5.731   3.632   0.635  0.0599  0.0770  0.2385
 3628SOL    HW116899   5.801   3.692   0.596 -1.1148  2.3486  1.3975
 3628SOL    HW216900   5.775   3.550   0.672  2.1933  1.5599  1.2358
 3629SOL     OW16901   1.688   0.879   4.877 -0.2873  0.0097  0.4420
 3629SOL    HW116902   1.655   0.828   4.798  0.1209 -1.1900  1.0314
 3629SOL    HW216903   1.771   0.930   4.852 -0.1449 -0.3839  0.1104
 3630SOL     OW16904   4.554   0.631   4.887  0.5858  0.2506  0.3777
 3630SOL    HW116905   4.510   0.721   4.888  1.6123  0.8569 -2.1253
 3630SOL    HW216906   4.635   0.634   4.828 -0.1195 -2.6553 -0.8847
 3631SOL     OW16907   5.383   5.584   0.226 -0.2036  0.0256 -0.0501
 3631SOL    HW116908   5.481   5.602   0.217 -0.1027 -0.3762  0.2347
 3631SOL    HW216909   5.363   5.546   0.316 -0.3937 -1.3252 -0.6368
 3632SOL     OW16910   1.361   3.024   0.789 -0.0492  0.0724 -0.3818
 3632SOL    HW116911   1.356   2.962   0.868 -0.8824 -0.9699 -1.2163
 3632SOL    HW216912   1.275   3.075   0.782 -0.1685 -0.1949 -0.8874
 3633SOL     OW16913   0.696   5.748   6.077  0.0140 -0.5314  0.1630
 3633SOL    HW116914   0.696   5.691   5.994  1.5117  0.5648 -0.6577
 3633SOL    HW216915   0.791   5.759   6.109 -0.1871  1.6284  0.1662
 3634SOL     OW16916   6.192   3.240   4.928 -0.0133  0.4329 -0.0453
 3634SOL    HW116917   6.119   3.172   4.933  0.3787 -0.0637 -0.7704
 3634SOL    HW216918   6.231   3.239   4.836  0.3664  1.2611  0.1009
 3635SOL     OW16919   6.293   2.851   0.080 -0.0074 -0.5157  0.0800
 3635SOL    HW116920   6.385   2.890   0.080 -0.2552  0.1804 -1.5528
 3635SOL    HW216921   6.293   2.765   0.029  0.3914 -2.4567  3.0760
 3636SOL     OW16922   3.620   2.050   6.542 -0.0952  0.3972  0.1602
 3636SOL    HW116923   3.656   2.142   6.523  0.0955  0.7708  2.1295
 3636SOL    HW216924   3.552   2.055   6.615 -2.7946 -0.5959 -2.0999
 3637SOL     OW16925   4.997   2.975   5.859 -0.2324  0.5331  0.3483
 3637SOL    HW116926   4.943   2.918   5.797 -0.5175  0.7643  0.3854
 3637SOL    HW216927   4.937   3.033   5.913  0.1027  1.7581 -0.5364
 3638SOL     OW16928   5.092   1.471   0.438  0.5242  0.1713 -0.3501
 3638SOL    HW116929   5.075   1.529   0.358 -0.2317  1.3799  0.6520
 3638SOL    HW216930   5.020   1.402   0.445  0.3019  0.3927 -0.4349
 3639SOL     OW16931   4.324   3.082   0.064 -0.5518  0.1463 -0.8319
 3639SOL    HW116932   4.406   3.066   0.120  1.0536  1.1253 -2.7494
 3639SOL    HW216933   4.335   3.167   0.013 -2.0459 -0.5624 -2.4275
 3640SOL     OW16934   5.411   3.101   5.280 -0.3914 -1.1145  0.2083
 3640SOL    HW116935   5.485   3.066   5.338 -1.0623 -0.8785  1.2300
 3640SOL    HW216936   5.395   3.197   5.301 -0.5136 -0.9791 -0.5080
 3641SOL     OW16937   0.190   2.709   1.092 -0.3491 -0.4289  0.7482
 3641SOL    HW116938   0.166   2.753   1.178  0.0918 -0.5700  0.9484
 3641SOL    HW216939   0.214   2.614   1.108 -2.7795 -1.2217  0.1100
 3642SOL     OW16940   1.952   2.657   5.514  1.0738 -0.1422  0.2034
 3642SOL    HW116941   2.016   2.701   5.577  0.2803 -0.6207  1.3651
 3642SOL    HW216942   1.960   2.557   5.524  0.1548 -0.2036  0.3486
 3643SOL     OW16943   2.323   0.672   1.075 -0.2521 -0.7681 -0.0045
 3643SOL    HW116944   2.331   0.765   1.109  0.5318 -0.9063  0.2257
 3643SOL    HW216945   2.402   0.652   1.016 -1.0466 -0.8803 -1.0548
 3644SOL     OW16946   5.538   0.313   1.213 -0.0515 -0.2773 -0.4600
 3644SOL    HW116947   5.594   0.374   1.270 -1.1870 -0.9725  1.4970
 3644SOL    HW216948   5.459   0.364   1.178 -0.9095 -0.5419  1.0323
 3645SOL     OW16949   3.441   1.989   5.646 -0.3318  0.6438  0.0720
 3645SOL    HW116950   3.479   1.917   5.703  0.4351  0.8526 -0.1646
 3645SOL    HW216951   3.514   2.051   5.617 -0.6743  0.4509 -1.2660
 3646SOL     OW16952   4.010   5.352   0.357 -0.4056 -1.0290  0.3576
 3646SOL    HW116953   3.955   5.278   0.397 -2.9348  0.9391  0.7878
 3646SOL    HW216954   4.003   5.348   0.257  0.5908 -2.1358  0.3171
 3647SOL     OW16955   0.239   5.631   6.382 -0.1164  0.2401  0.4723
 3647SOL    HW116956   0.262   5.678   6.467 -2.2747  2.2061  0.1008
 3647SOL    HW216957   0.297   5.666   6.308 -0.5327  1.0936  0.5333
 3648SOL     OW16958   5.990   2.226   1.520 -0.4245  0.1054  0.3308
 3648SOL    HW116959   5.939   2.150   1.560  1.0301 -2.1948 -1.8396
 3648SOL    HW216960   5.934   2.309   1.521 -2.2522 -1.0597  2.4116
 3649SOL     OW16961   5.035   1.292   6.108 -0.3938 -0.1376 -0.5191
 3649SOL    HW116962   5.080   1.244   6.032  2.3379 -0.8577  1.4045
 3649SOL    HW216963   5.064   1.252   6.195 -1.1325  2.4875  1.0394
 3650SOL     OW16964   6.013   0.982   5.676  0.2201  0.0258  0.6489
 3650SOL    HW116965   6.091   0.959   5.734  1.6589  1.6643 -0.5225
 3650SOL    HW216966   5.928   0.951   5.719  1.2502  0.7268  3.3474
 3651SOL     OW16967   2.807   5.808   0.999  0.0126 -0.1195 -0.4442
 3651SOL    HW116968   2.818   5.765   1.089 -0.4571 -3.6541 -1.9330
 3651SOL    HW216969   2.714   5.790   0.965  1.5675 -3.2815 -3.6232
 3652SOL     OW16970   4.919   3.438   6.463  0.1772  0.3157  0.2896
 3652SOL    HW116971   4.826   3.444   6.428  0.4770  1.5500 -0.3539
 3652SOL    HW216972   4.933   3.509   6.532 -0.4293 -2.1134  3.1055
 3653SOL     OW16973   0.461   5.060   6.098 -0.8875 -0.4410  0.4043
 3653SOL    HW116974   0.444   5.014   6.011 -2.4861  0.0680  0.4162
 3653SOL    HW216975   0.550   5.031   6.134  1.1565  1.3591 -2.6703
 3654SOL     OW16976   2.381   3.789   6.309 -0.1074  0.6919  0.0668
 3654SOL    HW116977   2.344   3.713   6.362 -1.6680  0.4520 -1.2877
 3654SOL    HW216978   2.401   3.866   6.369 -0.1534 -0.1738  1.2192
 3655SOL     OW16979   4.256   1.348   0.787  0.1808 -0.0062 -0.5538
 3655SOL    HW116980   4.263   1.267   0.845 -2.3299 -0.5728 -0.9213
 3655SOL    HW216981   4.288   1.428   0.838  1.1477 -0.9641  0.3997
 3656SOL     OW16982   3.299   3.613   5.345  0.2624 -0.1605 -0.3439
 3656SOL    HW116983   3.233   3.565   5.288  0.7703 -1.5802  0.2356
 3656SOL    HW216984   3.345   3.683   5.290 -0.1702 -0.6221 -1.3198
 3657SOL     OW16985   5.565   4.972   6.186  0.0583 -0.7133  0.3649
 3657SOL    HW116986   5.617   5.050   6.222 -0.6672  0.3498 -0.8023
 3657SOL    HW216987   5.472   4.974   6.223  0.5306 -2.0749  1.7184
 3658SOL     OW16988   1.870   0.647   6.606 -0.3784  0.8339 -0.9105
 3658SOL    HW116989   1.915   0.587   6.672 -0.4544 -0.3725 -1.9133
 3658SOL    HW216990   1.899   0.742   6.622  0.1324  0.4783  0.3934
 3659SOL     OW16991   4.469   3.368   0.750 -0.2908  0.1956  0.2667
 3659SOL    HW116992   4.555   3.399   0.788 -0.6577  0.1356  1.1730
 3659SOL    HW216993   4.403   3.353   0.824 -0.8551 -0.4445 -0.3458
 3660SOL     OW16994   1.716   2.193   6.410 -0.7533 -0.3026 -0.2770
 3660SOL    HW116995   1.686   2.149   6.325  1.4379 -3.5500  0.4681
 3660SOL    HW216996   1.803   2.240   6.393 -0.7872 -0.1442 -0.0138
 3661SOL     OW16997   3.211   2.598   0.406 -0.8499 -0.6536 -0.8332
 3661SOL    HW116998   3.281   2.665   0.432 -0.1196 -0.5685 -2.8631
 3661SOL    HW216999   3.246   2.540   0.333 -2.8431 -0.7415 -1.7756
 3662SOL     OW17000   5.405   1.217   0.239 -0.6477 -0.4927 -0.5049
 3662SOL    HW117001   5.329   1.154   0.220 -0.0963 -1.1387 -0.6289
 3662SOL    HW217002   5.387   1.266   0.324 -1.6630  0.1017 -1.0381
 3663SOL     OW17003   1.834   0.976   6.266 -0.6977 -0.2948 -0.0250
 3663SOL    HW117004   1.884   1.062   6.260 -0.3843 -0.3575  1.3077
 3663SOL    HW217005   1.831   0.933   6.176  0.0760  0.5887 -0.4935
 3664SOL     OW17006   5.205   2.373   6.261  0.3484 -0.2050  0.4792
 3664SOL    HW117007   5.189   2.470   6.276  1.2479  0.3254 -1.6900
 3664SOL    HW217008   5.303   2.353   6.266  0.2615 -0.8176 -0.0696
 3665SOL     OW17009   2.549   1.399   0.334 -0.3172  0.0340  0.4191
 3665SOL    HW117010   2.604   1.395   0.418  0.9494  0.3211 -0.3720
 3665SOL    HW217011   2.608   1.418   0.256 -1.4130 -0.7040 -0.6248
 3666SOL     OW17012   2.795   5.366   6.191 -0.3898 -0.1924 -0.2246
 3666SOL    HW117013   2.766   5.435   6.258  3.2831  1.0694  0.3001
 3666SOL    HW217014   2.810   5.279   6.237 -1.3085 -0.3057 -0.1293
 3667SOL     OW17015   1.569   1.046   0.318  0.2262  0.0158  0.1057
 3667SOL    HW117016   1.504   1.118   0.343  0.7343 -0.1115  1.9554
 3667SOL    HW217017   1.526   0.957   0.333 -0.5681 -0.1452 -2.6233
 3668SOL     OW17018   3.824   4.732   5.224  0.9086 -0.4019  0.0369
 3668SOL    HW117019   3.835   4.755   5.127 -0.5131 -0.5980 -0.1876
 3668SOL    HW217020   3.817   4.633   5.234  2.5303 -0.4887  0.5212
 3669SOL     OW17021   0.023   4.516   5.784  0.7087  0.0648  0.1004
 3669SOL    HW117022  -0.068   4.535   5.747 -0.0046 -0.5638  1.4539
 3669SOL    HW217023   0.091   4.524   5.711 -0.3959  0.7565 -0.8923
 3670SOL     OW17024   5.988   1.856   0.596  0.5248 -0.7408 -0.1052
 3670SOL    HW117025   6.068   1.807   0.562  0.0455 -1.8488  0.3044
 3670SOL    HW217026   5.935   1.893   0.519  0.8561 -0.9387 -0.4281
 3671SOL     OW17027   0.741   2.266   5.668  0.0568 -0.4131  0.0477
 3671SOL    HW117028   0.752   2.307   5.578 -1.2912  0.5675  0.2899
 3671SOL    HW217029   0.802   2.187   5.677  2.3737  1.1753 -0.6440
 3672SOL     OW17030   4.972   4.412   6.278 -0.0230 -0.1438  0.5938
 3672SOL    HW117031   4.989   4.352   6.200  0.1463  0.5085  0.1261
 3672SOL    HW217032   4.963   4.356   6.361 -2.4276 -1.0481 -0.1873
 3673SOL     OW17033   5.259   0.790   5.810 -0.3612 -0.0313 -0.3345
 3673SOL    HW117034   5.294   0.874   5.851  0.2372  0.8796 -2.5713
 3673SOL    HW217035   5.278   0.713   5.871  0.4057  1.2378  1.0971
 3674SOL     OW17036   3.706   5.537   6.430  0.1534  0.5768 -0.1588
 3674SOL    HW117037   3.698   5.599   6.352  0.5666  0.1294 -0.5640
 3674SOL    HW217038   3.798   5.497   6.431 -0.6405 -1.4051 -0.9666
 3675SOL     OW17039   3.205   0.414   1.072 -0.2861  1.0825  0.4141
 3675SOL    HW117040   3.233   0.399   0.977 -1.9811 -1.7866  0.2637
 3675SOL    HW217041   3.265   0.362   1.133 -1.8445 -0.7080  0.4989
 3676SOL     OW17042   2.708   2.719   0.082  0.0020  0.3185  0.0490
 3676SOL    HW117043   2.629   2.745   0.028  0.5139 -1.3576 -1.6141
 3676SOL    HW217044   2.791   2.752   0.038  0.3259  0.9027  1.0624
 3677SOL     OW17045   5.195   3.972   1.061  0.3345 -0.2034  0.1076
 3677SOL    HW117046   5.263   3.900   1.046 -0.4024 -0.5902 -1.7515
 3677SOL    HW217047   5.113   3.931   1.101  0.4016 -0.1556  0.2917
 3678SOL     OW17048   2.628   0.214   0.366  0.2899 -0.2878  0.1182
 3678SOL    HW117049   2.539   0.252   0.341  0.0658 -1.4360 -0.9309
 3678SOL    HW217050   2.616   0.146   0.438  0.0125 -1.8723 -1.3626
 3679SOL     OW17051   5.525   4.012   6.437  0.2715 -0.1972 -0.0931
 3679SOL    HW117052   5.600   3.982   6.496  2.0501 -1.1671 -2.6419
 3679SOL    HW217053   5.563   4.051   6.353 -2.1291  0.2799 -1.0307
 3680SOL     OW17054   0.253   5.785   5.317 -0.2643  0.2710 -0.2441
 3680SOL    HW117055   0.297   5.834   5.242  0.0348  0.1284 -0.1638
 3680SOL    HW217056   0.182   5.843   5.358 -0.0249  0.5758 -0.2554
 3681SOL     OW17057   0.936   2.061   5.685 -0.2194  0.4729 -0.4059
 3681SOL    HW117058   0.997   2.074   5.607  1.3603 -1.9539  0.3111
 3681SOL    HW217059   0.984   2.011   5.757 -3.0470 -1.5800  0.2239
 3682SOL     OW17060   4.432   2.910   5.469  0.4151  0.2956 -0.5408
 3682SOL    HW117061   4.372   2.890   5.547  2.3994 -3.6203  0.2402
 3682SOL    HW217062   4.379   2.907   5.384 -1.1611  1.2349  0.3441
 3683SOL     OW17063   1.589   3.015   0.016 -0.2388  0.7002 -0.6704
 3683SOL    HW117064   1.505   2.963  -0.002 -1.1115  2.2813 -1.3440
 3683SOL    HW217065   1.636   3.034  -0.070 -0.3927  1.7655 -0.5290
 3684SOL     OW17066   5.654   3.347   6.593 -0.2194 -0.5004  0.2543
 3684SOL    HW117067   5.725   3.283   6.566 -1.1565 -1.4787  0.0596
 3684SOL    HW217068   5.567   3.321   6.551 -0.5641  1.0835 -0.0875
 3685SOL     OW17069   3.375   5.251   5.229  0.7846  0.5206 -0.4239
 3685SOL    HW117070   3.415   5.215   5.144 -2.9616 -0.1720 -2.0947
 3685SOL    HW217071   3.324   5.334   5.210 -2.9249 -1.3730  0.2596
 3686SOL     OW17072   4.401   0.849   5.377  0.3637 -0.0874 -0.1097
 3686SOL    HW117073   4.302   0.850   5.387  0.5730 -0.4962  2.7033
 3686SOL    HW217074   4.425   0.861   5.280 -2.4228 -1.2937 -1.0445
 3687SOL     OW17075   4.903   5.175   0.760 -0.0159  0.2526  0.2162
 3687SOL    HW117076   4.826   5.220   0.806 -1.1312 -0.6324 -0.7271
 3687SOL    HW217077   4.873   5.086   0.724  1.0590  0.5261 -1.4314
 3688SOL     OW17078   4.686   0.289   6.670 -0.5012  0.3610 -0.3762
 3688SOL    HW117079   4.663   0.264   6.576  0.8847 -1.5090 -0.2901
 3688SOL    HW217080   4.650   0.219   6.732  1.3683 -0.2225  0.1350
 3689SOL     OW17081   0.265   4.297   6.246  0.0046 -0.0428 -0.5179
 3689SOL    HW117082   0.174   4.256   6.247 -0.2737  0.5488 -0.9570
 3689SOL    HW217083   0.331   4.230   6.213 -0.0204 -0.9405  1.1424
 3690SOL     OW17084   0.140   1.342   0.899 -0.3201 -0.1736  0.1640
 3690SOL    HW117085   0.064   1.289   0.938 -1.9361  2.8126  1.5085
 3690SOL    HW217086   0.195   1.380   0.974 -0.5293  1.7041 -0.5736
 3691SOL     OW17087   0.329   4.968   5.606 -0.2749  0.1564 -0.0697
 3691SOL    HW117088   0.257   4.908   5.571 -0.8357  2.2199 -2.7635
 3691SOL    HW217089   0.414   4.952   5.555  0.1478  0.2690  0.5844
 3692SOL     OW17090   0.198   6.084   6.325  0.0101 -0.5811  0.2967
 3692SOL    HW117091   0.154   5.998   6.298  0.7092 -0.4903 -1.2236
 3692SOL    HW217092   0.133   6.159   6.316  0.5111 -0.3520 -2.5464
 3693SOL     OW17093   1.514   0.078   6.434  0.6887 -0.2101  0.1412
 3693SOL    HW117094   1.563   0.165   6.423  0.4744 -0.0390  0.5386
 3693SOL    HW217095   1.415   0.095   6.432  0.6449 -0.4653  0.0783
 3694SOL     OW17096   1.678   4.549   1.233 -0.0393 -0.8627  0.1962
 3694SOL    HW117097   1.627   4.595   1.306 -1.3152 -1.5728 -0.2095
 3694SOL    HW217098   1.774   4.575   1.238 -0.4154  0.4969  1.0186
 3695SOL     OW17099   2.520   4.000   1.198  0.2859  0.2271  0.2006
 3695SOL    HW117100   2.533   4.064   1.273  1.1788  0.7692 -0.3952
 3695SOL    HW217101   2.550   4.042   1.112  0.7847 -0.9308 -0.2212
 3696SOL     OW17102   3.708   2.142   6.171  0.1446 -0.1308 -0.7638
 3696SOL    HW117103   3.693   2.086   6.090 -0.6595 -0.2898 -0.5149
 3696SOL    HW217104   3.699   2.239   6.147 -2.0348 -0.2215 -0.5165
 3697SOL     OW17105   5.987   1.156   5.336 -0.1173  0.2796  0.2052
 3697SOL    HW117106   6.013   1.107   5.253  1.2960  0.5448  0.4730
 3697SOL    HW217107   6.012   1.252   5.327 -0.2512  0.3726  0.8123
 3698SOL     OW17108   2.592   5.337   5.993 -0.0779 -0.6383  0.3544
 3698SOL    HW117109   2.519   5.384   6.044 -0.3321 -0.2406 -0.3621
 3698SOL    HW217110   2.675   5.335   6.049  0.0710  1.0802  0.2524
 3699SOL     OW17111   1.226   4.153   5.992 -0.2936 -0.4504 -0.1247
 3699SOL    HW117112   1.262   4.124   6.080 -1.0478  0.3648  0.4646
 3699SOL    HW217113   1.294   4.135   5.921 -0.2473 -2.4943  0.3769
 3700SOL     OW17114   4.321   3.377   0.523 -0.0502  0.0331 -0.4833
 3700SOL    HW117115   4.369   3.380   0.611 -1.7526 -1.3688  0.5577
 3700SOL    HW217116   4.363   3.308   0.465 -0.2737 -0.6293  0.1191
 3701SOL     OW17117   2.556   5.678   6.618  0.1581  0.3188  0.9404
 3701SOL    HW117118   2.490   5.746   6.586 -1.0177 -0.2081  2.1239
 3701SOL    HW217119   2.522   5.636   6.702  0.2078 -2.6275 -0.3718
 3702SOL     OW17120   5.018   4.339   5.441 -0.6590  0.4230  0.4621
 3702SOL    HW117121   4.973   4.393   5.370  2.6105  1.4519 -1.0353
 3702SOL    HW217122   4.993   4.243   5.431 -1.3828  0.7444 -1.1943
 3703SOL     OW17123   1.092   3.851   1.392 -0.0931  0.3850 -0.5480
 3703SOL    HW117124   1.104   3.762   1.436 -1.0497  1.4261  2.0344
 3703SOL    HW217125   1.176   3.903   1.398 -0.7867  1.3402  2.2106
 3704SOL     OW17126   2.920   4.510   6.494 -0.1269  0.3574 -0.0527
 3704SOL    HW117127   2.974   4.562   6.427 -1.8399  0.8848 -1.0730
 3704SOL    HW217128   2.862   4.572   6.546 -0.9108 -0.3362 -0.0773
 3705SOL     OW17129   0.862   1.774   5.662  0.3860  0.3412  0.8235
 3705SOL    HW117130   0.809   1.732   5.737  0.0536 -0.0400  0.3846
 3705SOL    HW217131   0.882   1.869   5.685  2.1809 -0.3378  2.3841
 3706SOL     OW17132   5.128   1.931   0.122  0.4035  0.6850  0.3727
 3706SOL    HW117133   5.055   1.869   0.093  0.2544  1.0989 -0.1729
 3706SOL    HW217134   5.163   1.903   0.211  0.2489 -0.1010  0.1951
 3707SOL     OW17135   3.932   3.740   0.401  0.1435 -0.4893  0.3846
 3707SOL    HW117136   3.875   3.784   0.470  0.6840 -2.9503  2.5956
 3707SOL    HW217137   3.972   3.657   0.440  3.3777 -0.1405 -1.7926
 3708SOL     OW17138   5.637   6.268   0.092 -0.4770 -0.2728  0.0592
 3708SOL    HW117139   5.715   6.328   0.105 -1.3613  0.6211  1.5646
 3708SOL    HW217140   5.659   6.198   0.024  0.4276  1.9995 -2.1364
 3709SOL     OW17141   1.316   4.769   0.212  0.0036 -0.4936  0.0236
 3709SOL    HW117142   1.393   4.747   0.151 -0.8046 -0.6044 -0.9804
 3709SOL    HW217143   1.230   4.742   0.169 -0.8610  2.2261 -0.1543
 3710SOL     OW17144   3.953   6.144   5.420 -0.1572 -0.7639 -0.1765
 3710SOL    HW117145   3.912   6.116   5.507 -0.0001  2.8464  1.2434
 3710SOL    HW217146   3.888   6.128   5.346 -0.8315 -2.6712  0.7530
 3711SOL     OW17147   2.457   2.243   6.074 -0.2345 -0.1847  0.2044
 3711SOL    HW117148   2.490   2.333   6.103 -2.6649  0.1246  2.3095
 3711SOL    HW217149   2.533   2.177   6.079  0.8271  1.0752  1.8497
 3712SOL     OW17150   0.865   5.811   0.644  0.1566 -0.3995  0.6153
 3712SOL    HW117151   0.868   5.799   0.743  0.6976 -1.9331  0.4361
 3712SOL    HW217152   0.867   5.722   0.599  1.5461  0.2961 -0.8126
 3713SOL     OW17153   5.049   1.727   6.654 -0.2273  0.1354  0.2889
 3713SOL    HW117154   5.053   1.632   6.683  2.3427 -0.0320 -0.4358
 3713SOL    HW217155   5.003   1.733   6.565 -0.2659 -0.4401  0.2705
 3714SOL     OW17156   5.254   6.233   5.864  0.3488 -0.3898 -0.0848
 3714SOL    HW117157   5.289   6.152   5.817 -1.2433  0.2161 -2.4832
 3714SOL    HW217158   5.328   6.298   5.878  1.5046 -1.9148  1.2432
 3715SOL     OW17159   1.555   1.535   5.875  0.2545 -0.3699 -0.4176
 3715SOL    HW117160   1.483   1.480   5.917  0.4688 -0.1139  0.3056
 3715SOL    HW217161   1.612   1.577   5.946 -0.7107  1.8896 -0.8657
 3716SOL     OW17162   0.037   3.205   0.909 -0.4292  0.5986  0.4778
 3716SOL    HW117163   0.036   3.109   0.937  0.1652  0.1683 -0.8813
 3716SOL    HW217164  -0.011   3.260   0.977 -1.3544 -0.7508  0.9678
 3717SOL     OW17165   4.371   1.544   5.153  0.3793  0.1641  0.2444
 3717SOL    HW117166   4.411   1.616   5.095  0.3977  0.5245  0.6988
 3717SOL    HW217167   4.326   1.476   5.095  1.4104 -0.1066 -0.2586
 3718SOL     OW17168   3.114   5.182   1.115 -0.3687  0.4321 -0.1146
 3718SOL    HW117169   3.106   5.086   1.087 -0.8058  0.1755  0.8497
 3718SOL    HW217170   3.023   5.219   1.135 -0.3877  1.5738 -2.1115
 3719SOL     OW17171   3.985   2.323   6.294 -0.7033 -0.3699  0.2143
 3719SOL    HW117172   3.917   2.254   6.319 -0.8563 -0.0419  0.7092
 3719SOL    HW217173   3.990   2.330   6.194 -1.2411 -0.5489  0.1721
 3720SOL     OW17174   1.597   2.416   0.377 -0.1085 -0.3388  0.5933
 3720SOL    HW117175   1.650   2.376   0.303 -0.3816  1.2682 -0.5166
 3720SOL    HW217176   1.596   2.353   0.455 -1.5177 -3.0103 -1.4215
 3721SOL     OW17177   2.625   3.424   5.890  0.0352 -0.3482 -0.6238
 3721SOL    HW117178   2.678   3.509   5.898  0.5179 -0.6468 -0.5974
 3721SOL    HW217179   2.624   3.395   5.794 -3.5900  1.8622 -1.4629
 3722SOL     OW17180   2.240   0.892   6.195 -0.3547 -0.2228  0.1560
 3722SOL    HW117181   2.231   0.877   6.097 -0.1928  0.8656 -0.0434
 3722SOL    HW217182   2.193   0.820   6.245 -2.1732  0.2853 -0.7518
 3723SOL     OW17183   2.387   0.710   5.480  0.2615  0.1453  0.4490
 3723SOL    HW117184   2.441   0.785   5.442 -1.2078  0.3710 -1.3365
 3723SOL    HW217185   2.343   0.740   5.564  1.8843  0.3424  1.2760
 3724SOL     OW17186   1.282   4.323   0.870  0.4492 -0.4900  0.4239
 3724SOL    HW117187   1.302   4.325   0.968  1.8877 -1.1424  0.1607
 3724SOL    HW217188   1.325   4.402   0.826  0.2975 -0.5171  0.2259
 3725SOL     OW17189   4.753   5.451   0.010 -0.4286 -0.4666  0.2163
 3725SOL    HW117190   4.845   5.412  -0.004 -0.5979 -0.7870 -0.0190
 3725SOL    HW217191   4.703   5.448  -0.077 -0.4917  0.1522  0.2299
 3726SOL     OW17192   4.695   6.234   0.539  0.1928 -0.0382  0.5930
 3726SOL    HW117193   4.738   6.316   0.501 -0.6150 -0.1689 -0.6327
 3726SOL    HW217194   4.605   6.221   0.499  0.0273 -1.1670  1.2768
 3727SOL     OW17195   4.877   0.091   0.813 -0.2831 -0.3850 -0.5807
 3727SOL    HW117196   4.947   0.049   0.755  1.0346  1.3663 -0.3721
 3727SOL    HW217197   4.841   0.024   0.877  2.6237 -0.9608  0.5919
 3728SOL     OW17198   1.266   3.479   5.814 -0.2729  0.3395 -0.0372
 3728SOL    HW117199   1.329   3.402   5.806  0.6909  0.9715  1.1618
 3728SOL    HW217200   1.294   3.553   5.752 -0.4654  0.2151 -0.2748
 3729SOL     OW17201   5.222   5.440   6.015  0.6391  0.1630  0.4701
 3729SOL    HW117202   5.321   5.434   6.028  0.6775 -0.5911 -0.0914
 3729SOL    HW217203   5.177   5.439   6.104  1.0677 -1.0996  0.7001
 3730SOL     OW17204   4.359   4.281   1.017 -0.1399  0.1122  0.5823
 3730SOL    HW117205   4.283   4.313   1.074  0.7847  0.7290  1.4919
 3730SOL    HW217206   4.343   4.309   0.922 -2.2929 -1.9689  0.2431
 3731SOL     OW17207   3.646   1.562   6.241  0.0420  0.5367  0.1234
 3731SOL    HW117208   3.587   1.616   6.301  0.3308  0.7284  0.2348
 3731SOL    HW217209   3.740   1.597   6.245  0.8256 -1.4672  2.1566
 3732SOL     OW17210   1.041   5.671   1.111 -0.0489 -0.0230 -0.4925
 3732SOL    HW117211   1.006   5.729   1.037  1.0928  0.7310 -0.4782
 3732SOL    HW217212   1.140   5.686   1.120  0.7618 -3.4917 -1.8913
 3733SOL     OW17213   2.836   2.363   1.207 -0.2481 -0.0347  0.3154
 3733SOL    HW117214   2.846   2.456   1.172 -2.7045 -0.2962 -1.3231
 3733SOL    HW217215   2.858   2.298   1.134 -1.3780 -0.6717  0.5223
 3734SOL     OW17216   4.642   0.487   1.437 -0.5162 -0.3266 -0.6742
 3734SOL    HW117217   4.543   0.476   1.430 -0.6270  1.0607 -1.7831
 3734SOL    HW217218   4.675   0.441   1.520 -2.3731  0.9024  0.8466
 3735SOL     OW17219   5.113   2.543   6.625 -0.0181 -0.0962 -0.1874
 3735SOL    HW117220   5.119   2.510   6.719 -1.7751 -2.7863 -0.9099
 3735SOL    HW217221   5.138   2.470   6.562 -2.8449  0.2342 -1.8823
 3736SOL     OW17222   3.916   6.193   6.574 -0.1402  0.3105  0.1347
 3736SOL    HW117223   3.877   6.112   6.618 -0.1866 -0.0873 -0.6188
 3736SOL    HW217224   3.957   6.253   6.643  1.6230 -1.2724  0.5172
 3737SOL     OW17225   3.169   3.752   0.240 -0.2576  0.3297 -0.7491
 3737SOL    HW117226   3.254   3.707   0.213  1.5829  3.6215 -0.8663
 3737SOL    HW217227   3.131   3.801   0.162 -0.0326  2.1529  0.2336
 3738SOL     OW17228   2.423   6.244   0.230 -0.7317  0.8300  0.3475
 3738SOL    HW117229   2.417   6.327   0.175  2.1142  2.1679  1.8027
 3738SOL    HW217230   2.444   6.269   0.325  0.8155 -1.5606  0.7141
 3739SOL     OW17231   1.726   6.004   0.043 -0.4373  0.4837  0.1976
 3739SOL    HW117232   1.697   5.952  -0.038 -1.6156  2.2583 -0.5928
 3739SOL    HW217233   1.822   6.027   0.035 -0.1309 -0.7423  0.1137
 3740SOL     OW17234   2.911   3.691   1.236 -0.9466 -0.2098  0.2020
 3740SOL    HW117235   2.873   3.752   1.305  2.2952  0.2080  1.7894
 3740SOL    HW217236   2.900   3.596   1.265  0.4707 -0.0336  1.4319
 3741SOL     OW17237   2.832   4.887   6.488  0.4001  0.3156 -0.6910
 3741SOL    HW117238   2.777   4.820   6.538 -2.0842  1.6807 -1.3705
 3741SOL    HW217239   2.818   4.977   6.528 -0.7186  1.2598 -2.9664
 3742SOL     OW17240   1.039   2.549   1.143 -0.0803 -0.2491 -0.2824
 3742SOL    HW117241   1.046   2.591   1.233  0.4370 -1.1385  0.1100
 3742SOL    HW217242   0.978   2.603   1.085 -0.6812  0.1559  0.7025
 3743SOL     OW17243   0.861   5.510   0.622 -0.1871 -0.7810 -0.1006
 3743SOL    HW117244   0.948   5.522   0.574 -0.5322 -0.6246 -0.7042
 3743SOL    HW217245   0.815   5.428   0.587 -0.5723 -0.5070 -0.2518
 3744SOL     OW17246   1.148   5.433   1.485 -0.4394 -0.2324 -0.2137
 3744SOL    HW117247   1.117   5.392   1.571  0.7018 -1.6404 -0.4246
 3744SOL    HW217248   1.079   5.497   1.452 -1.6523 -0.8979  0.9063
 3745SOL     OW17249   2.795   5.683   5.116 -0.5897 -0.2809  0.4938
 3745SOL    HW117250   2.850   5.684   5.032 -0.8541 -0.0010  0.3240
 3745SOL    HW217251   2.837   5.621   5.182  1.2392  1.6330  1.2340
 3746SOL     OW17252   4.117   1.818   6.257  0.2043 -0.0175 -0.0272
 3746SOL    HW117253   4.112   1.917   6.270 -0.2816  0.0561 -0.7453
 3746SOL    HW217254   4.195   1.782   6.309 -0.0674  0.6305  0.8581
 3747SOL     OW17255   5.704   5.396   0.980 -0.3754  0.0422 -0.1644
 3747SOL    HW117256   5.635   5.326   0.998 -1.1611  0.9315  0.3722
 3747SOL    HW217257   5.674   5.455   0.905 -0.3950  0.6533  0.3065
 3748SOL     OW17258   1.988   4.219   0.409  0.2759  0.1081 -0.5737
 3748SOL    HW117259   2.065   4.166   0.445  0.4574 -0.4926 -1.7919
 3748SOL    HW217260   1.983   4.208   0.310 -1.7821 -0.3980 -0.4581
 3749SOL     OW17261   5.222   2.830   5.822  0.3639  0.2383 -0.1440
 3749SOL    HW117262   5.148   2.890   5.854  0.4722  1.6169 -2.2515
 3749SOL    HW217263   5.235   2.755   5.887 -0.8384  1.6280  1.8217
 3750SOL     OW17264   1.998   2.203   4.823  0.5038 -0.1277 -0.8442
 3750SOL    HW117265   1.915   2.159   4.859  0.6974  0.8998  0.9894
 3750SOL    HW217266   1.973   2.277   4.761  0.0318  0.1849 -0.2926
 3751SOL     OW17267   0.925   4.778   0.697  0.0787 -0.9188 -0.1235
 3751SOL    HW117268   0.880   4.863   0.669 -0.1340 -1.3252 -1.0264
 3751SOL    HW217269   0.894   4.754   0.789 -0.4340 -0.4153 -0.1559
 3752SOL     OW17270   1.917   4.866   0.284 -0.1428  0.3506 -0.2369
 3752SOL    HW117271   2.006   4.873   0.328 -0.2004  0.2073 -0.0956
 3752SOL    HW217272   1.896   4.771   0.266 -0.4864  0.3380  0.1932
 3753SOL     OW17273   6.190   2.395   6.483  0.3021  0.1109 -0.7302
 3753SOL    HW117274   6.186   2.386   6.384 -2.9103  0.1382 -0.7097
 3753SOL    HW217275   6.195   2.305   6.525 -0.3449 -0.0202 -0.9212
 3754SOL     OW17276   1.449   5.891   0.996  0.4360  0.6814  0.6778
 3754SOL    HW117277   1.442   5.864   0.900 -4.1346  0.9580  0.7474
 3754SOL    HW217278   1.535   5.940   1.010  3.0843 -2.5817 -2.2873
 3755SOL     OW17279   5.297   4.583   5.543 -0.5865 -0.3484 -0.2682
 3755SOL    HW117280   5.234   4.661   5.540 -1.0662 -0.7009  0.2785
 3755SOL    HW217281   5.275   4.519   5.470 -0.7499 -0.3809 -0.1915
 3756SOL     OW17282   4.170   5.203   5.725 -0.6071  0.0163  0.5170
 3756SOL    HW117283   4.087   5.223   5.778 -2.1832  0.5172 -1.9709
 3756SOL    HW217284   4.199   5.285   5.676  1.1243 -0.2916  0.9458
 3757SOL     OW17285   2.670   0.110   1.390 -0.0618 -0.1866  0.3568
 3757SOL    HW117286   2.749   0.064   1.432 -0.5804 -0.9623  0.5107
 3757SOL    HW217287   2.667   0.205   1.420 -0.7213 -0.8282  2.5415
 3758SOL     OW17288   1.351   3.848   1.034  0.0208  0.6414 -0.1548
 3758SOL    HW117289   1.388   3.794   1.110 -0.9351 -1.0345 -0.8044
 3758SOL    HW217290   1.280   3.909   1.069  1.0135  1.4165  0.5807
 3759SOL     OW17291   4.142   2.090   6.341 -0.7388  0.6705  0.5483
 3759SOL    HW117292   4.115   2.187   6.345  0.7225  1.1552 -0.3930
 3759SOL    HW217293   4.184   2.063   6.428 -2.3219  0.4784  1.2894
 3760SOL     OW17294   2.110   3.929   6.184  0.4356  0.2318  0.1248
 3760SOL    HW117295   2.144   3.898   6.273 -1.3836  0.9137  1.0912
 3760SOL    HW217296   2.084   4.025   6.190  1.7293  0.7351 -1.5952
 3761SOL     OW17297   2.394   2.393   6.466  0.3998  0.5666  0.5689
 3761SOL    HW117298   2.347   2.349   6.389  0.1987  0.3506  0.8150
 3761SOL    HW217299   2.377   2.341   6.550  0.3953  0.9586  0.8106
 3762SOL     OW17300   2.102   3.619   1.495  0.4042  0.4852 -0.6710
 3762SOL    HW117301   2.199   3.599   1.479  0.3668  0.2627 -0.6237
 3762SOL    HW217302   2.052   3.611   1.408  0.4623  0.8030 -0.7345
 3763SOL     OW17303   5.203   5.512   0.435  0.2047  0.4636 -0.3536
 3763SOL    HW117304   5.144   5.584   0.398 -1.4863 -1.4717 -1.6723
 3763SOL    HW217305   5.154   5.461   0.505  0.5964 -0.6547 -0.8673
 3764SOL     OW17306   5.136   0.218   6.558  0.7868 -0.3941 -0.5175
 3764SOL    HW117307   5.234   0.238   6.563  0.5645  0.5346  0.4114
 3764SOL    HW217308   5.086   0.301   6.535 -0.0433 -0.0789  2.1180
 3765SOL     OW17309   2.368   4.299   1.361 -0.1145 -0.1021 -0.4750
 3765SOL    HW117310   2.373   4.206   1.398 -1.8569 -0.1791 -0.3520
 3765SOL    HW217311   2.447   4.351   1.393  0.4977 -1.3180  0.0766
 3766SOL     OW17312   1.587   5.212   6.406  0.3417 -0.1190 -0.6802
 3766SOL    HW117313   1.611   5.197   6.502  0.7014  1.8760 -0.4214
 3766SOL    HW217314   1.670   5.235   6.354 -0.1595  1.0137 -0.9945
 3767SOL     OW17315   1.505   2.271   5.500  0.2288 -0.0053  0.7428
 3767SOL    HW117316   1.578   2.230   5.445  0.2852  0.6216  0.3374
 3767SOL    HW217317   1.420   2.220   5.486  0.8456 -1.5021  2.1709
 3768SOL     OW17318   5.559   4.628   0.813 -0.3538 -0.1935  0.1427
 3768SOL    HW117319   5.565   4.530   0.793 -2.0495 -0.4809  0.8598
 3768SOL    HW217320   5.468   4.661   0.788 -0.6505  0.6422  2.1696
 3769SOL     OW17321   3.670   1.567   0.256 -0.2351 -0.2062  0.3408
 3769SOL    HW117322   3.605   1.493   0.238 -1.5113  0.8588  0.3747
 3769SOL    HW217323   3.719   1.548   0.341  0.0682 -1.3976 -0.0766
 3770SOL     OW17324   0.540   5.670   0.562 -0.0756 -0.4420  0.0591
 3770SOL    HW117325   0.577   5.649   0.653  0.6135 -2.0267 -0.5609
 3770SOL    HW217326   0.607   5.645   0.492  0.9176  3.8719 -0.8661
 3771SOL     OW17327   3.643   1.018   4.948  0.4985  0.1933  0.1200
 3771SOL    HW117328   3.701   1.017   4.867 -0.5332 -1.1538 -0.6360
 3771SOL    HW217329   3.695   0.985   5.027  0.9908 -0.1858 -0.3605
 3772SOL     OW17330   1.165   3.076   0.327  0.2973 -0.2578 -0.2596
 3772SOL    HW117331   1.179   3.110   0.234  0.9868 -0.5213 -0.2603
 3772SOL    HW217332   1.235   3.115   0.387 -0.3323  0.1543  0.2154
 3773SOL     OW17333   5.311   2.960   6.173  0.4019 -0.7505  0.4247
 3773SOL    HW117334   5.390   3.008   6.210  0.3590  1.2827 -1.8726
 3773SOL    HW217335   5.341   2.893   6.106  0.2317  0.4153 -0.8672
 3774SOL     OW17336   1.445   4.194   0.177 -0.6808 -0.2440  0.0441
 3774SOL    HW117337   1.365   4.205   0.118 -0.3505 -0.0370 -0.3662
 3774SOL    HW217338   1.525   4.237   0.134 -0.3302 -0.5219  0.4127
 3775SOL     OW17339   0.333   6.296   0.325 -0.0361 -0.1657  0.9276
 3775SOL    HW117340   0.239   6.295   0.360 -0.0888 -0.5896  0.7864
 3775SOL    HW217341   0.332   6.275   0.227  0.1715  0.2790  0.8302
 3776SOL     OW17342   0.400   6.075   0.708  0.0100  0.3646  0.1703
 3776SOL    HW117343   0.365   6.128   0.786  0.8695  0.8488  0.2412
 3776SOL    HW217344   0.458   6.134   0.651 -0.0120 -0.1838 -0.4320
 3777SOL     OW17345   5.755   4.210   5.160 -0.5854  0.0745  0.0125
 3777SOL    HW117346   5.759   4.298   5.114 -1.3809  0.7332  1.1551
 3777SOL    HW217347   5.709   4.144   5.100 -1.1790  0.7819 -0.3319
 3778SOL     OW17348   1.897   4.840   5.424  0.9631  0.3436 -0.3475
 3778SOL    HW117349   1.820   4.884   5.469  0.8856 -0.3864  0.2516
 3778SOL    HW217350   1.878   4.831   5.327  0.6096  0.8256 -0.3275
 3779SOL     OW17351   5.596   2.437   0.060  0.0118 -0.2003 -0.3203
 3779SOL    HW117352   5.578   2.500   0.135  0.9111  2.4123 -2.1538
 3779SOL    HW217353   5.695   2.422   0.052 -0.0854 -0.6131 -0.8666
 3780SOL     OW17354   3.383   4.270   1.218  0.0750  0.1381 -0.2041
 3780SOL    HW117355   3.470   4.269   1.267 -0.2169  1.7851  0.4144
 3780SOL    HW217356   3.327   4.193   1.248  0.0396  0.9083  1.8496
 3781SOL     OW17357   2.901   4.261   0.271 -0.0909  0.1817  0.7533
 3781SOL    HW117358   2.829   4.304   0.217  0.6012  0.1863 -0.1869
 3781SOL    HW217359   2.861   4.217   0.352 -1.3046 -0.8752 -0.3815
 3782SOL     OW17360   5.638   2.527   6.018  0.0826 -0.1950 -0.2503
 3782SOL    HW117361   5.603   2.436   6.036  0.4922 -0.1709  0.7563
 3782SOL    HW217362   5.717   2.521   5.957 -0.8926 -0.3552 -1.5171
 3783SOL     OW17363   2.061   2.353   6.130  0.0004 -0.0901 -0.4199
 3783SOL    HW117364   2.076   2.349   6.031  2.2996 -2.8495 -0.0742
 3783SOL    HW217365   2.144   2.325   6.178 -1.1104  0.9690  2.3446
   6.30037   6.32501   6.68472
