CNT in water
17365
    1DPPC    C1    1   2.468   4.988   1.135 -0.0737 -0.5750  0.5682
    1DPPC    C2    2   2.392   4.833   1.307 -0.3387  0.1872  0.3463
    1DPPC    C3    3   2.261   4.875   1.113 -0.5808 -0.0009 -0.2334
    1DPPC    N4    4   2.353   4.936   1.211 -0.6154 -0.2660 -0.0332
    1DPPC    C5    5   2.283   5.047   1.277 -0.2080 -0.2911  0.4428
    1DPPC    C6    6   2.354   5.125   1.388  0.3407  0.3519 -0.3509
    1DPPC    O7    7   2.291   5.236   1.453  0.0305  0.1210 -0.2526
    1DPPC    P8    8   2.394   5.322   1.543 -0.0842  0.0598 -0.0629
    1DPPC    O9    9   2.525   5.290   1.483  0.0709  0.7002 -0.0722
    1DPPC   O10   10   2.329   5.451   1.512  0.2615  0.2629  0.0575
    1DPPC   O11   11   2.349   5.245   1.677  0.0590 -0.5689 -0.3712
    1DPPC   C12   12   2.228   5.304   1.725  0.0625 -0.5815 -0.3470
    1DPPC   C13   13   2.182   5.224   1.847  0.2176  0.1075  0.1654
    1DPPC   O14   14   2.075   5.289   1.917  0.4544 -0.0313  0.6606
    1DPPC   C15   15   1.955   5.226   1.928  0.4853 -0.1496  0.3200
    1DPPC   O16   16   1.951   5.107   1.894 -0.5855 -0.1107  0.2828
    1DPPC   C17   17   1.870   5.300   2.031 -0.1703  0.2065 -0.4598
    1DPPC   C18   18   1.883   5.451   2.017 -0.1665  0.2608  0.1053
    1DPPC   C19   19   1.796   5.520   2.123 -0.1738  0.0523  0.2353
    1DPPC   C20   20   1.835   5.662   2.166  0.6104 -0.2390  0.5037
    1DPPC   C21   21   1.716   5.755   2.189  0.4323 -0.2720 -0.2670
    1DPPC   C22   22   1.757   5.884   2.260  0.3191 -0.1506 -0.4221
    1DPPC   C23   23   1.645   5.963   2.329  0.4066 -0.4050  0.0169
    1DPPC   C24   24   1.571   5.901   2.447 -0.3660 -0.1653 -0.3345
    1DPPC   C25   25   1.450   5.980   2.498  0.0760  0.2170  0.1247
    1DPPC   C26   26   1.411   5.905   2.626  0.0943 -0.4771 -0.2703
    1DPPC   C27   27   1.274   5.943   2.684  0.1935 -0.3461 -0.1233
    1DPPC   C28   28   1.261   5.862   2.813 -0.3151 -0.1622 -0.0589
    1DPPC   C29   29   1.121   5.878   2.872 -0.2398  0.2170  0.0172
    1DPPC   C30   30   1.109   5.834   3.018  0.2034  0.4224  0.1195
    1DPPC   C31   31   0.965   5.829   3.072  0.2150  0.2447  0.1355
    1DPPC   C32   32   2.310   5.212   1.931 -0.2136  0.2998  0.8564
    1DPPC   O33   33   2.301   5.129   2.047  0.0136 -0.2699  0.4725
    1DPPC   C34   34   2.424   5.115   2.102  0.2357  0.8848  0.2976
    1DPPC   O35   35   2.532   5.129   2.045 -0.0100  0.5241 -0.2575
    1DPPC   C36   36   2.439   5.044   2.237  0.0068  0.2372 -0.0142
    1DPPC   C37   37   2.488   5.130   2.353 -0.0248  0.0960  0.1048
    1DPPC   C38   38   2.480   5.053   2.485  0.3879 -0.3403 -0.1228
    1DPPC   C39   39   2.477   5.139   2.611 -0.5472  0.0713 -0.4150
    1DPPC   C40   40   2.463   5.060   2.742  0.1355 -0.4991 -0.6786
    1DPPC   C41   41   2.558   4.942   2.761  0.0242 -0.4679  0.0900
    1DPPC   C42   42   2.530   4.856   2.884 -0.2988 -0.5327 -0.0274
    1DPPC   C43   43   2.653   4.770   2.916  0.1863  0.1355 -0.0675
    1DPPC   C44   44   2.777   4.860   2.925 -0.1785  0.6871 -0.4562
    1DPPC   C45   45   2.787   4.927   3.062  0.4115 -0.6764  0.1958
    1DPPC   C46   46   2.908   5.020   3.049  0.0612 -0.1477  0.6676
    1DPPC   C47   47   2.875   5.164   3.091 -0.0927  0.0074  0.0301
    1DPPC   C48   48   2.768   5.218   2.996 -0.0738 -0.0651 -0.0329
    1DPPC   C49   49   2.740   5.359   3.048 -0.0332 -0.2391  0.4739
    1DPPC   C50   50   2.662   5.452   2.954 -0.2449 -0.4563  0.4322
    2DPPC    C1   51   2.465   1.515   1.630  0.8182  0.0848  0.0246
    2DPPC    C2   52   2.438   1.698   1.768 -1.0816  0.2765 -0.4807
    2DPPC    C3   53   2.333   1.675   1.547  0.2636 -0.2635 -0.4752
    2DPPC    N4   54   2.457   1.662   1.626  0.1656  0.0416 -0.2702
    2DPPC    C5   55   2.584   1.705   1.567  0.5369 -0.0524  0.4521
    2DPPC    C6   56   2.594   1.857   1.549 -0.2963 -0.0547 -0.0620
    2DPPC    O7   57   2.518   1.923   1.447 -0.4252  0.1749  0.1815
    2DPPC    P8   58   2.549   2.081   1.455 -0.3685  0.1643  0.1733
    2DPPC    O9   59   2.697   2.089   1.449 -0.3814  0.3711  0.1377
    2DPPC   O10   60   2.444   2.126   1.362 -0.5358 -0.4763  0.0495
    2DPPC   O11   61   2.487   2.092   1.603 -0.1963  0.2077  0.2424
    2DPPC   C12   62   2.344   2.085   1.601 -0.1475 -0.7644  0.0746
    2DPPC   C13   63   2.290   2.113   1.741 -0.0166  0.0165 -0.0273
    2DPPC   O14   64   2.147   2.107   1.731 -0.0200 -0.4219  0.2473
    2DPPC   C15   65   2.080   2.000   1.781 -0.2869 -0.4452 -0.1563
    2DPPC   O16   66   2.144   1.895   1.781  0.2633 -0.1138  0.1350
    2DPPC   C17   67   1.932   2.014   1.818 -0.1282 -0.3899  0.4590
    2DPPC   C18   68   1.907   2.005   1.969 -0.4151  0.3977  0.4642
    2DPPC   C19   69   1.975   2.124   2.038  0.5983 -0.0378  0.2371
    2DPPC   C20   70   1.889   2.184   2.150 -0.0352 -0.6290  0.0803
    2DPPC   C21   71   1.772   2.274   2.110  0.3584  0.2127  0.7800
    2DPPC   C22   72   1.694   2.341   2.223 -0.5691  0.4318  0.0259
    2DPPC   C23   73   1.585   2.252   2.282 -0.5250  0.2192 -0.2097
    2DPPC   C24   74   1.547   2.322   2.413  0.6636  1.2414 -0.3886
    2DPPC   C25   75   1.643   2.302   2.530 -0.3237  0.4203  0.2988
    2DPPC   C26   76   1.590   2.381   2.650 -0.5458  0.0579  0.4423
    2DPPC   C27   77   1.464   2.322   2.714 -0.6918 -0.0445  0.0630
    2DPPC   C28   78   1.400   2.435   2.794  0.0608  0.2582  0.2513
    2DPPC   C29   79   1.255   2.414   2.840  0.0107 -0.0366 -0.0376
    2DPPC   C30   80   1.208   2.550   2.893 -0.0263 -0.0248 -0.1012
    2DPPC   C31   81   1.074   2.537   2.966  0.1223 -0.9159  0.0181
    2DPPC   C32   82   2.339   2.248   1.794  0.4326 -0.0722 -0.2100
    2DPPC   O33   83   2.335   2.261   1.936  0.0814 -0.6197 -0.1668
    2DPPC   C34   84   2.437   2.339   1.981 -0.3951 -0.0778 -0.0215
    2DPPC   O35   85   2.492   2.417   1.903 -0.3661  0.4588  0.5275
    2DPPC   C36   86   2.458   2.345   2.132  0.0898 -0.2023 -0.0811
    2DPPC   C37   87   2.432   2.488   2.182  0.2105 -0.0701 -0.3938
    2DPPC   C38   88   2.561   2.566   2.157  0.3407  0.0387  0.5839
    2DPPC   C39   89   2.574   2.680   2.258  0.7190  0.8563 -0.3709
    2DPPC   C40   90   2.450   2.770   2.255  0.0663 -0.0359 -0.3271
    2DPPC   C41   91   2.445   2.876   2.364  0.1826 -0.2505 -0.1116
    2DPPC   C42   92   2.326   2.973   2.354 -0.1605 -0.6309  0.2190
    2DPPC   C43   93   2.297   3.060   2.477 -0.5549 -0.4424 -0.0062
    2DPPC   C44   94   2.159   3.124   2.471 -0.5671 -0.5101 -0.4818
    2DPPC   C45   95   2.174   3.231   2.362 -0.0198 -0.3850 -0.2866
    2DPPC   C46   96   2.276   3.341   2.389 -1.1119  0.5751  0.0410
    2DPPC   C47   97   2.301   3.443   2.278 -0.2454  0.1926 -0.1229
    2DPPC   C48   98   2.409   3.547   2.310 -0.7351  0.5544  0.3600
    2DPPC   C49   99   2.431   3.655   2.204  0.5391  0.0902  0.1340
    2DPPC   C50  100   2.305   3.733   2.165  0.5854  0.0137 -0.1740
    3DPPC    C1  101   2.007   2.649   1.089  0.1113 -0.0346  0.3592
    3DPPC    C2  102   2.202   2.595   1.171 -0.5461  0.2740 -0.0096
    3DPPC    C3  103   2.176   2.551   0.944  0.1754  0.1868  0.0078
    3DPPC    N4  104   2.106   2.542   1.073 -0.1281 -0.1771 -0.1821
    3DPPC    C5  105   2.048   2.407   1.080  0.3943 -0.3915  0.0478
    3DPPC    C6  106   2.034   2.357   1.224  0.2038  0.0841  0.1972
    3DPPC    O7  107   1.982   2.229   1.261 -0.5335  0.2590 -0.2259
    3DPPC    P8  108   2.019   2.204   1.415  0.0118 -0.0087 -0.3971
    3DPPC    O9  109   2.005   2.057   1.414  0.2480 -0.0320 -0.4740
    3DPPC   O10  110   2.142   2.281   1.448 -0.1741  0.1362 -0.0311
    3DPPC   O11  111   1.891   2.276   1.481  0.3967  0.2827  0.0482
    3DPPC   C12  112   1.947   2.365   1.577  0.7059  0.6077 -0.4289
    3DPPC   C13  113   1.844   2.416   1.677  0.4671 -0.1705 -0.2726
    3DPPC   O14  114   1.898   2.476   1.796  0.1639 -0.6180  0.0944
    3DPPC   C15  115   1.962   2.596   1.802  0.1119 -0.5888  0.0696
    3DPPC   O16  116   2.014   2.637   1.698  0.1634  0.1905  0.4022
    3DPPC   C17  117   2.018   2.641   1.937 -0.5924  0.0195  0.1646
    3DPPC   C18  118   1.917   2.624   2.051  0.1533 -0.1738  0.8062
    3DPPC   C19  119   1.978   2.688   2.176  0.2626  0.7898  0.2690
    3DPPC   C20  120   1.879   2.664   2.290  0.1754 -0.1235  0.0086
    3DPPC   C21  121   1.928   2.728   2.420  0.3895 -0.0595 -0.1030
    3DPPC   C22  122   1.820   2.727   2.528 -0.0846 -0.6267 -0.5775
    3DPPC   C23  123   1.883   2.722   2.667 -0.3017 -0.7922 -0.4837
    3DPPC   C24  124   1.771   2.723   2.771 -0.2627 -0.8892 -0.4396
    3DPPC   C25  125   1.798   2.671   2.912 -0.7171  0.3525  0.1250
    3DPPC   C26  126   1.679   2.627   2.997 -0.3694  0.2104  0.5413
    3DPPC   C27  127   1.703   2.540   3.120  0.3147  0.3107  0.4809
    3DPPC   C28  128   1.566   2.547   3.187  0.0410  0.5290 -0.0955
    3DPPC   C29  129   1.554   2.408   3.250 -0.2772  0.5065 -0.2030
    3DPPC   C30  130   1.412   2.374   3.294 -0.2036  0.6477  0.1503
    3DPPC   C31  131   1.411   2.229   3.344  0.3358  0.5758 -0.0430
    3DPPC   C32  132   1.747   2.303   1.713 -0.6849  0.6262 -0.7901
    3DPPC   O33  133   1.614   2.334   1.755 -0.3473  0.5093  0.4099
    3DPPC   C34  134   1.536   2.226   1.784  0.0754  0.0122 -0.2868
    3DPPC   O35  135   1.580   2.112   1.763 -0.0813 -0.1021  0.0076
    3DPPC   C36  136   1.400   2.246   1.850  0.2545  0.1363  0.0485
    3DPPC   C37  137   1.382   2.371   1.936  0.0092  0.0034  0.1916
    3DPPC   C38  138   1.282   2.340   2.047  0.1674  0.1786  0.3824
    3DPPC   C39  139   1.259   2.463   2.135  0.4213 -0.0939  0.8342
    3DPPC   C40  140   1.167   2.434   2.254 -0.3610  0.1329  0.2879
    3DPPC   C41  141   1.127   2.560   2.330 -1.1497  0.5188 -0.7303
    3DPPC   C42  142   1.022   2.519   2.434  0.1100 -0.1919  0.2894
    3DPPC   C43  143   0.977   2.640   2.515 -0.1848 -0.1723  0.0959
    3DPPC   C44  144   0.893   2.606   2.638 -0.0965 -0.0011  0.2049
    3DPPC   C45  145   0.833   2.742   2.672 -0.3004  0.0053 -0.1746
    3DPPC   C46  146   0.727   2.746   2.782  0.0882  0.4482  0.1901
    3DPPC   C47  147   0.705   2.896   2.803  0.5191  0.4355  0.7767
    3DPPC   C48  148   0.594   2.924   2.904  0.0613 -0.3257  0.4978
    3DPPC   C49  149   0.568   3.075   2.903 -0.2187 -0.3758 -0.1194
    3DPPC   C50  150   0.703   3.133   2.944 -0.3530 -0.4529  0.4436
    4DPPC    C1  151   1.969   4.774   1.786 -1.0298  0.6824  0.3347
    4DPPC    C2  152   1.907   4.688   2.006  0.0355  0.4422  0.1706
    4DPPC    C3  153   2.071   4.852   1.985  0.6268 -0.0403 -0.3479
    4DPPC    N4  154   2.017   4.733   1.919 -0.1025  0.1745 -0.1445
    4DPPC    C5  155   2.134   4.645   1.927  0.0180  0.3957  0.5234
    4DPPC    C6  156   2.124   4.510   1.856  0.2130  0.2372  0.7946
    4DPPC    O7  157   2.246   4.437   1.877  0.2088 -0.0579 -0.1814
    4DPPC    P8  158   2.240   4.327   1.760 -0.0074 -0.2661  0.0252
    4DPPC    O9  159   2.195   4.402   1.641  0.4492 -0.1342 -0.0636
    4DPPC   O10  160   2.365   4.248   1.769 -0.2530 -0.7354 -0.6155
    4DPPC   O11  161   2.114   4.241   1.813 -0.2459  0.2205  0.2573
    4DPPC   C12  162   2.176   4.129   1.878 -0.0585 -0.2521 -0.7044
    4DPPC   C13  163   2.064   4.045   1.940  0.3373 -0.1666  0.1476
    4DPPC   O14  164   1.980   3.973   1.848 -0.0224  0.1848  0.2038
    4DPPC   C15  165   2.024   3.850   1.813 -0.0655  0.2069  0.0719
    4DPPC   O16  166   2.144   3.823   1.823 -0.0151  0.1828 -0.5691
    4DPPC   C17  167   1.934   3.766   1.722  0.6874 -0.4320 -0.1001
    4DPPC   C18  168   1.863   3.663   1.811  0.2703 -0.0213  0.0487
    4DPPC   C19  169   1.961   3.549   1.839  0.3101 -0.0768 -0.3114
    4DPPC   C20  170   1.903   3.488   1.967 -0.3694  0.2136 -0.4736
    4DPPC   C21  171   1.952   3.560   2.093 -0.3425 -0.4518 -0.1005
    4DPPC   C22  172   1.860   3.529   2.211 -0.6237 -0.1496 -0.2410
    4DPPC   C23  173   1.918   3.588   2.339 -0.7221  0.0286 -0.2778
    4DPPC   C24  174   1.820   3.570   2.456 -0.3867 -0.6646 -0.0917
    4DPPC   C25  175   1.866   3.651   2.577 -0.5543 -0.5855 -0.0799
    4DPPC   C26  176   2.012   3.612   2.601 -0.5966 -0.2979  0.6685
    4DPPC   C27  177   2.066   3.655   2.738  0.2873 -0.0115  0.2324
    4DPPC   C28  178   2.205   3.601   2.771  0.3780 -0.0450 -0.1945
    4DPPC   C29  179   2.190   3.451   2.799 -0.0827 -0.0483 -0.4560
    4DPPC   C30  180   2.310   3.363   2.832 -0.3942 -0.1166  0.5380
    4DPPC   C31  181   2.253   3.222   2.844  0.3435 -0.4507  0.2121
    4DPPC   C32  182   2.003   4.149   2.033  0.3084  0.1845 -0.2597
    4DPPC   O33  183   2.071   4.149   2.158  0.2385 -0.1247 -0.2204
    4DPPC   C34  184   2.029   4.244   2.246  0.4027  0.1056 -0.3925
    4DPPC   O35  185   1.960   4.342   2.220  0.4957  0.5232  0.9097
    4DPPC   C36  186   2.103   4.246   2.380 -0.2808 -0.3901 -0.0046
    4DPPC   C37  187   2.005   4.226   2.495  0.2352 -0.4116  0.4314
    4DPPC   C38  188   1.919   4.101   2.480 -0.0291 -0.2269  0.4118
    4DPPC   C39  189   1.806   4.119   2.583  0.0160  0.5005  0.3326
    4DPPC   C40  190   1.715   3.998   2.597 -0.1562  0.5575 -0.2659
    4DPPC   C41  191   1.617   4.026   2.711  0.0408 -0.4731  0.1692
    4DPPC   C42  192   1.572   4.171   2.695  0.1490 -0.4376  0.1837
    4DPPC   C43  193   1.488   4.218   2.813  0.3168  0.4231 -0.0309
    4DPPC   C44  194   1.406   4.347   2.803 -0.1501  0.0909 -0.4800
    4DPPC   C45  195   1.507   4.458   2.777  0.0628  0.0221  0.0514
    4DPPC   C46  196   1.579   4.501   2.905 -0.0144 -0.2703  0.1935
    4DPPC   C47  197   1.488   4.534   3.024 -0.3634  0.5314 -0.2864
    4DPPC   C48  198   1.587   4.538   3.141 -0.6288 -0.0035 -0.0394
    4DPPC   C49  199   1.531   4.592   3.273  0.3660  0.0328  0.3747
    4DPPC   C50  200   1.506   4.741   3.252  0.6197  0.0691  0.3163
    5DPPC    C1  201   3.209   1.674   1.581 -0.5079 -0.2688  0.0032
    5DPPC    C2  202   3.243   1.458   1.676 -0.0181  0.4573  0.2665
    5DPPC    C3  203   3.354   1.512   1.475  0.0134  0.6394  0.0326
    5DPPC    N4  204   3.229   1.531   1.549 -0.2005 -0.2038 -0.0983
    5DPPC    C5  205   3.117   1.477   1.471 -0.3458 -0.0798  0.0218
    5DPPC    C6  206   2.969   1.509   1.485 -0.4332 -0.3720 -0.1998
    5DPPC    O7  207   2.916   1.462   1.610 -0.0246  0.1161  0.1630
    5DPPC    P8  208   2.809   1.344   1.587 -0.0666  0.1570  0.1484
    5DPPC    O9  209   2.725   1.401   1.480  0.3457  0.2155 -0.1467
    5DPPC   O10  210   2.888   1.219   1.574 -0.3260 -0.0404  0.4384
    5DPPC   O11  211   2.742   1.361   1.733 -0.0169  0.1836  0.1680
    5DPPC   C12  212   2.784   1.256   1.821 -0.1124 -0.3857 -0.4531
    5DPPC   C13  213   2.692   1.204   1.932  0.0770  0.0723 -0.0750
    5DPPC   O14  214   2.604   1.099   1.889  0.1290 -0.1470  0.3539
    5DPPC   C15  215   2.648   0.972   1.868 -0.1777 -0.1543 -0.2688
    5DPPC   O16  216   2.762   0.947   1.829  0.2474 -0.4177  1.0987
    5DPPC   C17  217   2.549   0.860   1.900  0.6920 -0.8692 -0.0311
    5DPPC   C18  218   2.448   0.861   1.785  0.1259 -0.0714  0.4606
    5DPPC   C19  219   2.325   0.776   1.819 -0.6101  0.5534 -0.5634
    5DPPC   C20  220   2.270   0.827   1.952 -0.6891 -0.3218 -0.2507
    5DPPC   C21  221   2.209   0.706   2.023 -0.0788 -0.2000  0.4962
    5DPPC   C22  222   2.139   0.746   2.153  0.0928 -0.3020  0.6197
    5DPPC   C23  223   2.009   0.821   2.126  0.1988 -0.2476  0.2576
    5DPPC   C24  224   1.948   0.884   2.251 -0.1388  0.3141 -0.1838
    5DPPC   C25  225   1.798   0.904   2.232 -0.2785 -0.1827  0.3801
    5DPPC   C26  226   1.735   0.765   2.251 -0.5172 -0.1187  0.0670
    5DPPC   C27  227   1.761   0.727   2.397 -0.2908 -0.0349  0.0503
    5DPPC   C28  228   1.713   0.587   2.435 -0.4262  0.2208  0.8346
    5DPPC   C29  229   1.777   0.547   2.569 -0.7537  0.3935  1.0419
    5DPPC   C30  230   1.742   0.402   2.603 -0.1152  0.0596  0.2922
    5DPPC   C31  231   1.817   0.364   2.730 -0.2687  0.0859  0.3910
    5DPPC   C32  232   2.626   1.323   2.001 -0.1355  0.0550 -0.2455
    5DPPC   O33  233   2.715   1.398   2.085 -0.5322 -0.2302  0.4301
    5DPPC   C34  234   2.683   1.530   2.085 -0.0690 -0.1151 -0.2906
    5DPPC   O35  235   2.579   1.565   2.030 -0.4397 -0.0856  0.4168
    5DPPC   C36  236   2.782   1.630   2.144 -0.8118  0.4068  0.0917
    5DPPC   C37  237   2.733   1.662   2.286 -0.2327 -0.1059  0.4138
    5DPPC   C38  238   2.855   1.693   2.373  0.2054 -0.3053 -0.1190
    5DPPC   C39  239   2.802   1.760   2.500  0.1717 -0.2122 -0.1818
    5DPPC   C40  240   2.908   1.806   2.600 -0.2658  0.2679  0.0703
    5DPPC   C41  241   2.854   1.895   2.712  0.0021  0.0172  0.4020
    5DPPC   C42  242   2.758   1.827   2.810 -0.2764 -0.0952  0.0562
    5DPPC   C43  243   2.701   1.913   2.923 -0.4069  0.0930 -0.1513
    5DPPC   C44  244   2.635   2.045   2.882  0.2570  0.4940  0.0546
    5DPPC   C45  245   2.587   2.108   3.013  0.1100  0.3048  0.0932
    5DPPC   C46  246   2.511   2.241   3.009 -0.0790  0.1801 -0.6093
    5DPPC   C47  247   2.508   2.295   3.152 -0.3621  0.2529 -0.6425
    5DPPC   C48  248   2.391   2.219   3.217  0.3698 -0.0362  0.3561
    5DPPC   C49  249   2.382   2.248   3.367 -0.1350 -0.1091  0.3397
    5DPPC   C50  250   2.311   2.380   3.399  0.4334  0.1588  0.5089
    6DPPC    C1  251   2.516   2.751   1.780 -0.5347 -0.5927  0.3028
    6DPPC    C2  252   2.352   2.622   1.682  0.0838 -0.3286 -0.5316
    6DPPC    C3  253   2.341   2.876   1.672  0.2066 -0.0546 -0.0131
    6DPPC    N4  254   2.420   2.752   1.668 -0.0480 -0.2152 -0.1160
    6DPPC    C5  255   2.498   2.761   1.544 -0.0129 -0.2330 -0.0957
    6DPPC    C6  256   2.573   2.641   1.487 -0.1087 -0.2004 -0.2930
    6DPPC    O7  257   2.678   2.593   1.571 -0.2770  0.2078  0.1535
    6DPPC    P8  258   2.705   2.447   1.509 -0.0958  0.2005  0.2490
    6DPPC    O9  259   2.581   2.368   1.522 -0.3663  0.5718 -0.0424
    6DPPC   O10  260   2.754   2.486   1.374  0.0780  0.6060  0.4277
    6DPPC   O11  261   2.803   2.400   1.628  0.1403 -0.3281 -0.1506
    6DPPC   C12  262   2.749   2.296   1.709 -0.4973  0.1013 -0.0196
    6DPPC   C13  263   2.820   2.283   1.843 -0.0513  0.2178 -0.2438
    6DPPC   O14  264   2.746   2.208   1.940  0.5249 -0.1823 -0.1029
    6DPPC   C15  265   2.743   2.072   1.938 -0.7842 -0.1675 -0.1545
    6DPPC   O16  266   2.830   2.016   1.872 -1.0985 -0.4673 -0.3200
    6DPPC   C17  267   2.655   2.011   2.047 -0.2974 -0.0123  0.3279
    6DPPC   C18  268   2.509   1.984   2.011 -0.3545  0.2779  0.3396
    6DPPC   C19  269   2.436   1.966   2.144 -0.6409  0.4570  0.2053
    6DPPC   C20  270   2.310   1.895   2.092 -0.2171 -0.2250  0.1046
    6DPPC   C21  271   2.253   1.808   2.204 -0.3425 -0.3734 -0.0750
    6DPPC   C22  272   2.115   1.748   2.173 -0.3269 -0.0236 -0.8591
    6DPPC   C23  273   2.025   1.712   2.291  0.3207  0.3197 -0.2496
    6DPPC   C24  274   1.994   1.834   2.378 -0.4445  0.1197 -0.2346
    6DPPC   C25  275   1.898   1.798   2.492  0.1304 -0.2645  0.1348
    6DPPC   C26  276   1.855   1.913   2.583  0.1000  0.0005 -0.2152
    6DPPC   C27  277   1.757   1.871   2.692  0.1195  0.4984 -0.0004
    6DPPC   C28  278   1.696   1.985   2.774 -0.2747  0.1730  0.1663
    6DPPC   C29  279   1.761   1.985   2.912 -0.2729 -0.3459  0.1694
    6DPPC   C30  280   1.696   2.086   3.009  0.6178  0.3863  0.0171
    6DPPC   C31  281   1.742   2.072   3.154 -0.1417  0.4652  0.2664
    6DPPC   C32  282   2.846   2.429   1.879 -0.1873  0.2317 -0.2018
    6DPPC   O33  283   2.910   2.431   2.008 -0.1009 -0.1234 -0.2389
    6DPPC   C34  284   2.935   2.554   2.058 -0.3783 -0.2179  0.1326
    6DPPC   O35  285   2.961   2.652   1.987 -0.1995 -0.0182  0.4683
    6DPPC   C36  286   2.998   2.552   2.198  0.2901 -0.5498 -0.1708
    6DPPC   C37  287   3.144   2.510   2.209  0.2193 -0.7004  0.2322
    6DPPC   C38  288   3.180   2.498   2.357 -0.1769  0.3220  0.4187
    6DPPC   C39  289   3.325   2.450   2.359 -0.3582 -0.2645 -0.2614
    6DPPC   C40  290   3.399   2.554   2.274 -0.4963 -0.5272 -0.7088
    6DPPC   C41  291   3.548   2.518   2.281 -0.3619  0.0849 -0.3931
    6DPPC   C42  292   3.649   2.621   2.229 -0.1282 -0.0253 -0.1598
    6DPPC   C43  293   3.701   2.695   2.353 -0.1128  0.0787 -0.2283
    6DPPC   C44  294   3.812   2.793   2.312 -0.0662 -0.0270 -0.3591
    6DPPC   C45  295   3.851   2.887   2.427 -0.4203 -0.0230 -0.2408
    6DPPC   C46  296   3.905   2.814   2.550  0.2595  0.2375 -0.3858
    6DPPC   C47  297   3.945   2.930   2.641  0.1148 -0.0661  0.0675
    6DPPC   C48  298   3.996   2.899   2.782  0.2480 -0.4383 -0.0633
    6DPPC   C49  299   3.913   2.802   2.866 -0.3987  0.1627 -0.0061
    6DPPC   C50  300   3.988   2.742   2.985 -0.3773 -0.7951 -0.4971
    7DPPC    C1  301   2.188   3.427   1.450 -0.3438  0.3739  0.4499
    7DPPC    C2  302   2.394   3.468   1.548  0.8062 -0.7495 -0.8193
    7DPPC    C3  303   2.257   3.322   1.657 -0.1092  0.2078 -0.0071
    7DPPC    N4  304   2.298   3.360   1.521 -0.2201 -0.0304 -0.1092
    7DPPC    C5  305   2.351   3.253   1.436  0.4781 -0.0258  0.3094
    7DPPC    C6  306   2.476   3.176   1.479  0.6396 -0.1074 -0.2947
    7DPPC    O7  307   2.481   3.143   1.618  0.3780 -0.0872 -0.2800
    7DPPC    P8  308   2.634   3.128   1.665  0.2436 -0.3917  0.0647
    7DPPC    O9  309   2.676   3.010   1.587  0.6500  0.0282 -0.3558
    7DPPC   O10  310   2.686   3.265   1.650 -0.3162 -0.1621  0.1925
    7DPPC   O11  311   2.590   3.097   1.817 -0.1680 -0.0772  0.0118
    7DPPC   C12  312   2.561   3.225   1.874 -0.1215 -0.0557 -0.0131
    7DPPC   C13  313   2.536   3.236   2.024 -0.1635 -0.1403 -0.0140
    7DPPC   O14  314   2.646   3.210   2.113  0.0922  0.2264 -0.2218
    7DPPC   C15  315   2.712   3.323   2.151 -0.1649  0.4189 -0.3466
    7DPPC   O16  316   2.720   3.417   2.072 -0.6785  0.6945 -0.0714
    7DPPC   C17  317   2.809   3.304   2.267 -0.3632  0.8662 -0.1051
    7DPPC   C18  318   2.743   3.286   2.404 -0.1188  0.1820 -0.0717
    7DPPC   C19  319   2.848   3.250   2.509  0.2081 -0.6723 -0.6845
    7DPPC   C20  320   2.924   3.368   2.567  0.7552 -1.3413 -0.0237
    7DPPC   C21  321   2.997   3.331   2.697 -0.2036 -0.9586  0.6309
    7DPPC   C22  322   3.116   3.241   2.666  0.2261 -0.0970 -0.2935
    7DPPC   C23  323   3.160   3.176   2.797 -0.2464  0.2321  0.0337
    7DPPC   C24  324   3.056   3.072   2.839  0.1316 -0.1261  0.0929
    7DPPC   C25  325   3.083   3.038   2.986  0.2838 -0.1176  0.0672
    7DPPC   C26  326   2.963   2.966   3.046 -0.2917  0.4625 -0.3702
    7DPPC   C27  327   2.974   2.943   3.197  0.2749  0.4398 -0.4148
    7DPPC   C28  328   3.083   2.845   3.240 -0.3288 -0.0811 -0.0518
    7DPPC   C29  329   3.057   2.819   3.389  0.1398 -0.2399  0.0042
    7DPPC   C30  330   3.157   2.720   3.450  0.3335 -0.0390  0.0111
    7DPPC   C31  331   3.141   2.706   3.602  0.0727 -0.5320 -0.0623
    7DPPC   C32  332   2.433   3.123   2.035 -0.1515 -0.0706  0.8886
    7DPPC   O33  333   2.296   3.161   2.031 -0.1699 -0.1607  0.6936
    7DPPC   C34  334   2.207   3.058   2.026 -0.3470  0.0052  0.3400
    7DPPC   O35  335   2.256   2.954   1.985  0.2115  0.4140 -0.0462
    7DPPC   C36  336   2.061   3.104   2.031 -0.2915  0.1936  0.2201
    7DPPC   C37  337   1.960   2.995   1.994 -0.2415 -0.0196  0.7114
    7DPPC   C38  338   1.819   3.053   1.995  0.0177  0.6641 -0.4025
    7DPPC   C39  339   1.791   3.123   2.128  0.5593 -0.0044  0.0685
    7DPPC   C40  340   1.642   3.149   2.152  0.5102 -0.3005  0.0960
    7DPPC   C41  341   1.629   3.182   2.301 -0.1334 -0.3043  0.0414
    7DPPC   C42  342   1.698   3.075   2.385  0.5665  0.0853 -0.0326
    7DPPC   C43  343   1.665   3.097   2.533 -0.4265  0.0971 -0.2494
    7DPPC   C44  344   1.701   3.240   2.572 -0.9776 -0.0021  0.6688
    7DPPC   C45  345   1.655   3.277   2.713 -0.0711  0.0421  0.9607
    7DPPC   C46  346   1.725   3.169   2.796  0.0514 -0.3125  0.3978
    7DPPC   C47  347   1.716   3.189   2.947  0.2290 -0.0474  0.3731
    7DPPC   C48  348   1.742   3.336   2.980  0.1093  0.0042  0.2421
    7DPPC   C49  349   1.752   3.341   3.132 -0.2566  0.0259  0.2642
    7DPPC   C50  350   1.862   3.247   3.180 -0.1737 -0.1740 -0.3106
    8DPPC    C1  351   3.136   3.904   1.529 -0.2407  0.1244  0.0716
    8DPPC    C2  352   3.175   3.783   1.734 -0.3127  0.1626 -0.0342
    8DPPC    C3  353   3.353   3.900   1.639 -0.3236  0.4097 -0.0047
    8DPPC    N4  354   3.207   3.905   1.658 -0.3138  0.2529  0.1115
    8DPPC    C5  355   3.181   4.025   1.738  0.2653  0.4808 -0.0428
    8DPPC    C6  356   3.222   4.156   1.670 -0.1438  0.1852 -0.8600
    8DPPC    O7  357   3.164   4.272   1.731 -0.0599 -0.3299  0.2120
    8DPPC    P8  358   3.015   4.288   1.674  0.0723 -0.1683 -0.0894
    8DPPC    O9  359   2.992   4.435   1.673  0.3909 -0.1173  0.0799
    8DPPC   O10  360   2.994   4.203   1.555 -0.1428 -0.4852  0.1723
    8DPPC   O11  361   2.945   4.219   1.802  0.7993 -0.3821  0.1936
    8DPPC   C12  362   2.965   4.296   1.921 -0.2407  0.1796  0.0152
    8DPPC   C13  363   2.887   4.207   2.018 -0.1501 -0.5492 -0.5695
    8DPPC   O14  364   2.866   4.286   2.136  0.4908 -0.5101 -0.4783
    8DPPC   C15  365   2.741   4.339   2.148  1.2537  1.2551 -0.0037
    8DPPC   O16  366   2.654   4.329   2.062  0.8231 -0.9668  0.6229
    8DPPC   C17  367   2.699   4.355   2.295 -0.2631 -0.4022 -0.2235
    8DPPC   C18  368   2.598   4.256   2.353 -0.1161  0.0258  0.7714
    8DPPC   C19  369   2.656   4.121   2.396 -0.1680 -0.1590  0.2636
    8DPPC   C20  370   2.543   4.021   2.421  0.1888 -0.5977  0.1328
    8DPPC   C21  371   2.458   4.078   2.534  0.1645 -0.3166 -0.0264
    8DPPC   C22  372   2.329   4.003   2.571 -0.0647  0.3086  0.4742
    8DPPC   C23  373   2.287   4.062   2.705  0.1940  0.7776  0.3507
    8DPPC   C24  374   2.162   3.995   2.761  0.1214  0.0205 -0.6899
    8DPPC   C25  375   2.146   4.036   2.908  0.0973  0.0073 -0.6886
    8DPPC   C26  376   2.010   3.993   2.963  0.4659 -0.3268 -0.0140
    8DPPC   C27  377   2.008   4.034   3.110 -0.1223 -0.1129 -0.0773
    8DPPC   C28  378   2.007   4.186   3.127 -0.0507 -0.1254  0.0405
    8DPPC   C29  379   2.027   4.236   3.270 -0.8397  0.1332  0.0650
    8DPPC   C30  380   2.036   4.388   3.284 -0.4045  0.0738  0.4462
    8DPPC   C31  381   2.123   4.415   3.407 -0.0521  0.6102  0.0820
    8DPPC   C32  382   2.974   4.086   2.051  0.2640 -0.1214 -0.0810
    8DPPC   O33  383   2.921   3.973   2.121 -0.0163  0.3167  0.4205
    8DPPC   C34  384   3.011   3.871   2.115 -0.3258  0.0842 -0.3807
    8DPPC   O35  385   3.122   3.897   2.069 -0.2882  0.0900 -0.2853
    8DPPC   C36  386   2.968   3.733   2.164  0.5226 -0.1180 -0.1847
    8DPPC   C37  387   2.986   3.751   2.314  0.0888  0.0117 -0.1472
    8DPPC   C38  388   2.864   3.714   2.399 -0.1283  0.2680 -0.3450
    8DPPC   C39  389   2.869   3.762   2.544  0.4070  0.0997 -0.3050
    8DPPC   C40  390   2.742   3.715   2.617  0.4017  0.3866 -0.1260
    8DPPC   C41  391   2.756   3.747   2.765  0.2206  0.1467 -0.0559
    8DPPC   C42  392   2.609   3.752   2.810  0.2229  0.1299 -0.0464
    8DPPC   C43  393   2.610   3.794   2.957  0.1999  0.1853 -0.0621
    8DPPC   C44  394   2.473   3.773   3.023  0.2202  0.0660 -0.0570
    8DPPC   C45  395   2.489   3.806   3.172 -0.1160 -0.2794  0.0549
    8DPPC   C46  396   2.359   3.777   3.247 -0.2632  0.1908 -0.0178
    8DPPC   C47  397   2.379   3.829   3.390 -0.1776  0.4095 -0.1094
    8DPPC   C48  398   2.268   3.787   3.486  0.1022  0.0230  0.0485
    8DPPC   C49  399   2.301   3.824   3.631 -0.4847  0.2090  0.1421
    8DPPC   C50  400   2.228   3.737   3.733 -0.1628  0.5214  0.6425
    9DPPC    C1  401   3.467   2.304   1.663 -1.0381  0.1221 -0.0325
    9DPPC    C2  402   3.364   2.383   1.464 -0.2142 -0.3120  0.1523
    9DPPC    C3  403   3.435   2.160   1.467  0.4025 -0.5128  0.8630
    9DPPC    N4  404   3.469   2.294   1.516  0.0549 -0.0973 -0.0136
    9DPPC    C5  405   3.591   2.352   1.459  0.0252 -0.2555 -0.2360
    9DPPC    C6  406   3.726   2.312   1.517 -0.1524 -0.2314  0.1958
    9DPPC    O7  407   3.752   2.172   1.499 -0.2516 -0.2448  0.1605
    9DPPC    P8  408   3.911   2.163   1.522 -0.2412 -0.0682  0.1613
    9DPPC    O9  409   3.932   2.060   1.418 -0.5202 -0.4157  0.4478
    9DPPC   O10  410   3.970   2.296   1.494  0.1355 -0.2988 -0.1428
    9DPPC   O11  411   3.904   2.106   1.672 -0.8081 -0.0083  0.1615
    9DPPC   C12  412   3.844   1.976   1.671  0.8023 -0.7706 -0.6072
    9DPPC   C13  413   3.831   1.906   1.807 -0.2081  0.1580 -0.2175
    9DPPC   O14  414   3.764   1.975   1.913 -0.0098  0.0412 -0.0149
    9DPPC   C15  415   3.629   1.984   1.893 -0.1673 -0.5941  0.7294
    9DPPC   O16  416   3.566   1.930   1.803 -0.1575  0.2131  0.2276
    9DPPC   C17  417   3.557   2.073   1.994  0.3670  0.4666  0.1915
    9DPPC   C18  418   3.416   2.018   2.016  0.5343  0.1110  0.3914
    9DPPC   C19  419   3.333   2.113   2.101 -0.2594 -0.2937  0.0798
    9DPPC   C20  420   3.208   2.038   2.148 -0.5687  0.3845  0.3598
    9DPPC   C21  421   3.122   2.144   2.218 -0.4363  0.5594  0.2592
    9DPPC   C22  422   2.987   2.088   2.264 -0.1643  0.1492  0.5643
    9DPPC   C23  423   2.902   2.191   2.340 -0.4448  0.2571  0.1077
    9DPPC   C24  424   2.775   2.125   2.393 -0.0680  0.0268  0.7369
    9DPPC   C25  425   2.704   2.240   2.465 -0.5610  0.0500  0.2219
    9DPPC   C26  426   2.564   2.190   2.498 -0.4103 -0.4073  0.1675
    9DPPC   C27  427   2.470   2.308   2.521  0.1085  0.0050  0.1974
    9DPPC   C28  428   2.331   2.275   2.578 -0.0270  0.5115  0.1607
    9DPPC   C29  429   2.253   2.211   2.463  0.2860  0.5267 -0.0618
    9DPPC   C30  430   2.103   2.235   2.480  0.2579  0.4051 -0.1419
    9DPPC   C31  431   2.039   2.374   2.485 -0.0105  0.2885 -0.3252
    9DPPC   C32  432   3.978   1.879   1.839 -0.3907 -0.2343  0.2992
    9DPPC   O33  433   4.029   1.762   1.775 -0.0509  0.4480 -0.6984
    9DPPC   C34  434   4.164   1.746   1.781 -0.1476 -0.1942 -0.0935
    9DPPC   O35  435   4.227   1.816   1.859 -0.0599 -0.1440 -0.2081
    9DPPC   C36  436   4.220   1.622   1.710 -0.4244 -0.3365 -0.0640
    9DPPC   C37  437   4.271   1.510   1.802  0.6554  0.5665  0.4616
    9DPPC   C38  438   4.347   1.410   1.715  0.5134  0.8652 -0.0178
    9DPPC   C39  439   4.366   1.276   1.788 -0.0478  0.2872 -0.9166
    9DPPC   C40  440   4.474   1.308   1.891 -0.5817 -0.4701 -0.1096
    9DPPC   C41  441   4.492   1.202   2.000 -0.3072 -0.1323  0.1770
    9DPPC   C42  442   4.594   1.262   2.097  0.0268 -0.0921 -0.1949
    9DPPC   C43  443   4.578   1.180   2.225 -0.1582  0.3599  0.0725
    9DPPC   C44  444   4.668   1.224   2.340 -0.1372  0.3457  0.0612
    9DPPC   C45  445   4.591   1.213   2.472 -0.1204  0.3857  0.0744
    9DPPC   C46  446   4.661   1.285   2.587 -0.3803  0.0023  0.4782
    9DPPC   C47  447   4.574   1.304   2.711 -0.6604  0.6883  0.1786
    9DPPC   C48  448   4.505   1.174   2.753  0.1068  0.0811 -0.4265
    9DPPC   C49  449   4.442   1.187   2.891  0.4916 -0.2279 -0.2196
    9DPPC   C50  450   4.381   1.050   2.921 -0.5850  0.3013  0.0620
   10DPPC    C1  451   2.968   2.933   1.542  0.9480  0.0966 -0.5674
   10DPPC    C2  452   3.006   2.706   1.639 -0.0682 -0.5185  0.6103
   10DPPC    C3  453   3.032   2.762   1.405  0.0470  0.2767 -0.0024
   10DPPC    N4  454   3.048   2.810   1.543 -0.2307 -0.6783  0.3648
   10DPPC    C5  455   3.180   2.869   1.570 -0.4922  0.2198 -0.2978
   10DPPC    C6  456   3.303   2.795   1.519 -0.0903  0.2491  0.6230
   10DPPC    O7  457   3.433   2.836   1.564  0.0774 -0.1899  0.5433
   10DPPC    P8  458   3.539   2.747   1.482 -0.0338  0.2877 -0.1293
   10DPPC    O9  459   3.457   2.670   1.385  0.3069  0.0982 -0.2702
   10DPPC   O10  460   3.659   2.824   1.443 -0.2710  0.6910 -0.0667
   10DPPC   O11  461   3.585   2.663   1.611  0.1315  0.1607 -0.2689
   10DPPC   C12  462   3.670   2.741   1.694  0.1755  0.1092 -0.2660
   10DPPC   C13  463   3.660   2.677   1.833  0.1487  0.0196 -0.3097
   10DPPC   O14  464   3.721   2.548   1.845  0.1892  0.0130 -0.5749
   10DPPC   C15  465   3.855   2.544   1.871  0.1882  0.3536 -0.5159
   10DPPC   O16  466   3.922   2.647   1.877 -0.1769  0.5453  0.3190
   10DPPC   C17  467   3.910   2.402   1.860  0.0510  0.2465  0.1783
   10DPPC   C18  468   4.061   2.402   1.883  0.0992  0.2180 -0.1329
   10DPPC   C19  469   4.105   2.270   1.947  0.2133 -0.0486 -0.7523
   10DPPC   C20  470   4.253   2.304   1.933  0.4407 -0.6109  0.1638
   10DPPC   C21  471   4.337   2.184   1.977  0.0563 -1.0357 -0.2581
   10DPPC   C22  472   4.304   2.148   2.122  0.3496 -0.2573  0.0061
   10DPPC   C23  473   4.352   2.009   2.162  0.3216 -0.2908 -0.0760
   10DPPC   C24  474   4.252   1.960   2.268 -0.0513 -0.5007 -0.5196
   10DPPC   C25  475   4.111   1.966   2.208  0.0097  0.3087 -0.5974
   10DPPC   C26  476   4.009   1.924   2.314  0.5390 -0.0966 -0.2429
   10DPPC   C27  477   3.880   1.902   2.234  0.4184 -0.3041  0.0054
   10DPPC   C28  478   3.771   1.855   2.330 -0.1176 -0.0008 -0.4530
   10DPPC   C29  479   3.645   1.845   2.243 -0.5868  0.1412  0.1990
   10DPPC   C30  480   3.540   1.756   2.309 -0.3438 -0.0156  0.3782
   10DPPC   C31  481   3.413   1.750   2.223 -0.2175 -0.1086  0.1982
   10DPPC   C32  482   3.509   2.684   1.857  0.1740  0.0146 -0.1467
   10DPPC   O33  483   3.478   2.808   1.922  0.6355 -0.2331  0.5493
   10DPPC   C34  484   3.359   2.834   1.982  0.2063  0.1447 -0.4518
   10DPPC   O35  485   3.272   2.747   1.991  0.0316  0.3937  0.2919
   10DPPC   C36  486   3.344   2.970   2.050  0.3205  0.0521 -0.2426
   10DPPC   C37  487   3.365   2.938   2.199 -0.0768  0.4914 -0.0897
   10DPPC   C38  488   3.342   3.064   2.282  0.0537  0.5446 -0.1343
   10DPPC   C39  489   3.411   3.035   2.415 -0.5451 -0.1457  0.0326
   10DPPC   C40  490   3.363   2.897   2.460 -0.0863 -0.4362 -0.3597
   10DPPC   C41  491   3.427   2.859   2.594 -0.3350  0.5694  0.0500
   10DPPC   C42  492   3.332   2.753   2.650  0.3836  0.0702  0.3337
   10DPPC   C43  493   3.360   2.735   2.799  0.0818 -1.1264  0.2476
   10DPPC   C44  494   3.241   2.669   2.870  0.0590 -0.2635  1.0315
   10DPPC   C45  495   3.244   2.517   2.851  0.0687 -0.1717  0.2399
   10DPPC   C46  496   3.124   2.445   2.912 -0.3732  0.0194 -0.4016
   10DPPC   C47  497   2.984   2.486   2.864 -0.4182  0.3814  0.0314
   10DPPC   C48  498   2.884   2.436   2.968 -0.3064  0.3498  0.1237
   10DPPC   C49  499   2.911   2.501   3.104  0.2206 -0.2872  0.3296
   10DPPC   C50  500   2.799   2.601   3.136  0.3162 -0.1191  0.1364
   11DPPC    C1  501   3.699   3.097   1.602  0.2309  0.1838 -0.4799
   11DPPC    C2  502   3.677   3.317   1.714  0.0685 -0.3209  0.1942
   11DPPC    C3  503   3.529   3.143   1.755 -0.3079 -0.1706 -0.7244
   11DPPC    N4  504   3.609   3.204   1.648  0.0687 -0.0078 -0.3498
   11DPPC    C5  505   3.515   3.222   1.536  0.2060  0.1903 -0.4345
   11DPPC    C6  506   3.391   3.310   1.547  0.1394  0.0265  0.1572
   11DPPC    O7  507   3.293   3.268   1.451  0.4985 -0.0634 -0.1681
   11DPPC    P8  508   3.178   3.379   1.468  0.3833 -0.2121  0.0270
   11DPPC    O9  509   3.214   3.509   1.407  0.2597 -0.1407  0.1061
   11DPPC   O10  510   3.057   3.308   1.423  0.3167  0.0679 -0.2385
   11DPPC   O11  511   3.166   3.404   1.627  0.3999 -0.1095  0.0127
   11DPPC   C12  512   3.068   3.322   1.691  0.1027  0.0309 -0.2555
   11DPPC   C13  513   3.082   3.320   1.844  0.0585 -0.1178 -0.2531
   11DPPC   O14  514   2.993   3.231   1.914  0.0055  0.0271 -0.1378
   11DPPC   C15  515   3.008   3.096   1.910 -0.1399  0.0024  0.1209
   11DPPC   O16  516   3.079   3.048   1.821 -0.0689 -0.0010  0.1793
   11DPPC   C17  517   2.906   3.016   1.991 -0.8104  0.5512 -0.1698
   11DPPC   C18  518   2.968   2.988   2.128 -0.3722  0.6430 -0.3476
   11DPPC   C19  519   2.860   2.951   2.230  0.3300 -0.1121  0.1339
   11DPPC   C20  520   2.920   2.918   2.367 -0.0911  0.3141  0.4240
   11DPPC   C21  521   2.817   2.867   2.468 -0.5560 -0.3165 -0.3604
   11DPPC   C22  522   2.890   2.800   2.584  0.0608 -0.1384 -0.6397
   11DPPC   C23  523   2.780   2.750   2.678  0.0548  0.4473 -0.3312
   11DPPC   C24  524   2.678   2.856   2.720  0.2452  0.5555 -0.1436
   11DPPC   C25  525   2.600   2.814   2.844  0.4552  0.1213 -0.1588
   11DPPC   C26  526   2.549   2.671   2.825  0.2514  0.2124 -0.2868
   11DPPC   C27  527   2.455   2.641   2.942  0.1772  0.9274 -0.1560
   11DPPC   C28  528   2.346   2.748   2.950 -0.8648 -0.1391  0.1531
   11DPPC   C29  529   2.264   2.720   3.076  0.8477 -0.0762  1.3073
   11DPPC   C30  530   2.166   2.830   3.117  0.1650 -0.0314 -0.3954
   11DPPC   C31  531   2.232   2.968   3.110  0.2700 -0.0779 -0.3221
   11DPPC   C32  532   3.100   3.467   1.881 -0.6772 -0.1807  0.3829
   11DPPC   O33  533   3.155   3.480   2.012  0.1435  0.5009 -0.0146
   11DPPC   C34  534   3.284   3.457   2.049 -0.2408 -1.0834  0.4294
   11DPPC   O35  535   3.365   3.428   1.961  0.0522 -0.5825  0.5340
   11DPPC   C36  536   3.317   3.465   2.198 -0.0428 -0.3952  0.3499
   11DPPC   C37  537   3.391   3.588   2.251 -0.5663  0.1795 -0.2408
   11DPPC   C38  538   3.397   3.593   2.403 -0.3100 -0.0073 -0.2439
   11DPPC   C39  539   3.452   3.723   2.461 -0.1913 -0.2854  0.2742
   11DPPC   C40  540   3.428   3.721   2.613  0.2224  0.1974  0.3491
   11DPPC   C41  541   3.281   3.711   2.654  0.1714  0.3408  0.2053
   11DPPC   C42  542   3.268   3.716   2.806 -0.1297  0.4900  0.1731
   11DPPC   C43  543   3.121   3.693   2.845 -0.2404  0.3067 -0.3528
   11DPPC   C44  544   3.100   3.697   2.996  0.0951  0.1743 -0.3023
   11DPPC   C45  545   2.957   3.685   3.049  0.0603  0.8706 -0.2269
   11DPPC   C46  546   2.948   3.715   3.199  0.1848 -0.1165 -0.0114
   11DPPC   C47  547   2.844   3.618   3.255 -0.2049 -0.0768 -0.6563
   11DPPC   C48  548   2.827   3.623   3.407 -0.0535  0.0700 -0.6445
   11DPPC   C49  549   2.783   3.763   3.447 -0.2775 -0.0864 -0.3467
   11DPPC   C50  550   2.729   3.758   3.591  0.0876 -0.2778 -0.2161
   12DPPC    C1  551   3.853   1.084   1.532  0.4287  0.3773 -0.1982
   12DPPC    C2  552   4.056   1.110   1.629 -0.1765 -0.6124  1.2281
   12DPPC    C3  553   3.918   0.965   1.742  0.0992 -0.6781  0.1081
   12DPPC    N4  554   3.915   1.090   1.665 -0.4307 -0.5974  0.2598
   12DPPC    C5  555   3.850   1.205   1.731 -0.4571 -0.2863 -0.2995
   12DPPC    C6  556   3.698   1.216   1.719 -0.4354 -0.1806 -0.4858
   12DPPC    O7  557   3.631   1.106   1.783  0.0472 -0.1764  0.0426
   12DPPC    P8  558   3.487   1.121   1.711  0.1620  0.2812 -0.0936
   12DPPC    O9  559   3.476   1.202   1.587 -0.1481  0.2439 -0.0909
   12DPPC   O10  560   3.422   0.989   1.724  0.6965 -0.0208 -0.4416
   12DPPC   O11  561   3.419   1.209   1.827 -0.3168 -0.1534 -0.0446
   12DPPC   C12  562   3.414   1.119   1.938  0.8038  0.0181  0.1563
   12DPPC   C13  563   3.387   1.187   2.072  0.1204 -0.7004  0.3938
   12DPPC   O14  564   3.253   1.168   2.120 -0.0682 -0.3388  0.0169
   12DPPC   C15  565   3.149   1.240   2.072 -0.0951 -0.2629  0.1907
   12DPPC   O16  566   3.153   1.334   1.993  0.3588 -0.4381  0.0075
   12DPPC   C17  567   3.019   1.185   2.131 -0.0458 -0.3121  0.2533
   12DPPC   C18  568   3.032   1.164   2.282 -0.1399  0.5004  0.3796
   12DPPC   C19  569   2.895   1.111   2.327  0.0138  0.2010  0.5007
   12DPPC   C20  570   2.811   1.232   2.368 -0.7229 -0.2459  0.3322
   12DPPC   C21  571   2.881   1.329   2.464 -0.6140 -0.2781  0.2854
   12DPPC   C22  572   2.894   1.265   2.603  0.4551 -0.2193  0.2197
   12DPPC   C23  573   2.947   1.348   2.720  0.3129 -0.2004  0.2699
   12DPPC   C24  574   3.075   1.414   2.670 -0.0114  0.0511 -0.2429
   12DPPC   C25  575   3.184   1.311   2.640 -0.1739 -0.1752 -0.0600
   12DPPC   C26  576   3.308   1.382   2.584 -0.0943 -0.2599  0.0089
   12DPPC   C27  577   3.418   1.276   2.588 -0.0967 -0.2585  0.1016
   12DPPC   C28  578   3.420   1.187   2.464 -0.4620  0.2284 -0.2531
   12DPPC   C29  579   3.560   1.125   2.471 -0.5193  0.1846  0.5735
   12DPPC   C30  580   3.675   1.224   2.459 -0.0214 -0.4401  0.1200
   12DPPC   C31  581   3.804   1.141   2.463  0.5812  0.4475 -0.4167
   12DPPC   C32  582   3.440   1.330   2.056 -0.3321 -0.5154  0.5281
   12DPPC   O33  583   3.579   1.332   2.089 -0.1035 -0.2028 -0.4216
   12DPPC   C34  584   3.648   1.446   2.062 -0.3866  0.0806  0.0446
   12DPPC   O35  585   3.607   1.524   1.976  0.0207  0.2740  0.0256
   12DPPC   C36  586   3.783   1.460   2.131 -0.2369  0.1478 -0.2587
   12DPPC   C37  587   3.884   1.524   2.036 -0.1855  0.5575  0.0662
   12DPPC   C38  588   4.027   1.510   2.089 -0.0784  0.3704 -0.2710
   12DPPC   C39  589   4.061   1.586   2.217 -0.1563 -0.2877  0.1428
   12DPPC   C40  590   4.198   1.544   2.270 -0.0910 -0.2831 -0.0226
   12DPPC   C41  591   4.224   1.578   2.417  0.6872  0.0743 -0.2376
   12DPPC   C42  592   4.130   1.511   2.516  0.2673  0.2408 -0.5231
   12DPPC   C43  593   4.165   1.545   2.661  0.0144 -0.0935 -0.3818
   12DPPC   C44  594   4.061   1.490   2.760 -0.0462 -0.0174 -0.4035
   12DPPC   C45  595   4.073   1.343   2.800  0.1179  0.2813  0.6747
   12DPPC   C46  596   3.988   1.314   2.923  0.0052 -0.4963  0.4214
   12DPPC   C47  597   4.019   1.169   2.962  0.4111 -0.3846  0.5159
   12DPPC   C48  598   3.939   1.118   3.082 -0.4270 -0.3040  0.0034
   12DPPC   C49  599   3.986   0.980   3.128  0.0390 -0.1714 -0.0694
   12DPPC   C50  600   4.128   0.991   3.185  0.0828  0.1387 -0.2359
   13DPPC    C1  601   5.027   2.157   1.073  0.0504  0.3613 -0.2316
   13DPPC    C2  602   4.877   2.321   1.155  0.2748  0.5903 -0.0944
   13DPPC    C3  603   4.863   2.242   0.920  0.3044  0.1362 -0.1902
   13DPPC    N4  604   4.891   2.210   1.061  0.1021  0.5370 -0.0568
   13DPPC    C5  605   4.795   2.115   1.120  0.7899 -0.0608  0.1066
   13DPPC    C6  606   4.644   2.133   1.105  0.7309 -0.1022  0.6200
   13DPPC    O7  607   4.582   2.255   1.145  0.1260  0.0865 -0.8320
   13DPPC    P8  608   4.423   2.232   1.162  0.2042  0.2192  0.1610
   13DPPC    O9  609   4.389   2.295   1.032  0.3563  0.1240  0.0743
   13DPPC   O10  610   4.391   2.088   1.179 -0.3618  0.3003 -0.1695
   13DPPC   O11  611   4.412   2.328   1.291 -0.4311 -0.0064  0.2794
   13DPPC   C12  612   4.445   2.261   1.413 -0.0335 -0.3820 -0.0254
   13DPPC   C13  613   4.503   2.354   1.520  0.1116 -0.3340 -0.1454
   13DPPC   O14  614   4.549   2.278   1.633  0.1162 -0.9998 -0.5935
   13DPPC   C15  615   4.678   2.236   1.644  0.2635 -0.3436  0.3031
   13DPPC   O16  616   4.763   2.268   1.561 -0.0787 -0.5024 -0.1172
   13DPPC   C17  617   4.700   2.122   1.743 -0.6595 -0.8205 -0.0189
   13DPPC   C18  618   4.738   2.175   1.882  0.5191 -0.6842 -0.3813
   13DPPC   C19  619   4.774   2.050   1.962 -0.0007 -0.5032  0.1446
   13DPPC   C20  620   4.780   2.093   2.108  0.2880  0.2385 -0.0831
   13DPPC   C21  621   4.815   1.975   2.199  0.1590  0.2556 -0.0107
   13DPPC   C22  622   4.814   2.017   2.346  0.0841  0.0129  0.0578
   13DPPC   C23  623   4.684   2.082   2.392  0.0830  0.3300 -0.3918
   13DPPC   C24  624   4.704   2.136   2.534 -0.0680  0.4031 -0.3987
   13DPPC   C25  625   4.573   2.190   2.592  0.4225  0.0889  1.0410
   13DPPC   C26  626   4.476   2.072   2.603  0.4190  0.0164  0.3102
   13DPPC   C27  627   4.333   2.128   2.604  0.4309  0.0565 -0.1668
   13DPPC   C28  628   4.245   2.008   2.639 -0.0711  0.4336 -0.1140
   13DPPC   C29  629   4.105   2.057   2.674 -0.5466 -0.6676 -0.4240
   13DPPC   C30  630   4.026   1.963   2.765 -0.6168 -0.1752  0.0273
   13DPPC   C31  631   4.067   1.983   2.911 -0.5049  0.5037 -0.0956
   13DPPC   C32  632   4.384   2.443   1.559  0.2005 -0.1261 -0.3476
   13DPPC   O33  633   4.405   2.544   1.657 -0.2792 -0.2275 -0.1386
   13DPPC   C34  634   4.293   2.620   1.671 -0.2011 -0.1331 -0.0196
   13DPPC   O35  635   4.201   2.602   1.591 -0.0698 -0.6694 -0.0488
   13DPPC   C36  636   4.312   2.745   1.757 -0.2506 -0.1030 -0.0522
   13DPPC   C37  637   4.254   2.733   1.898  0.0813 -0.3990  0.0616
   13DPPC   C38  638   4.320   2.859   1.956 -0.4204  0.1437 -0.5276
   13DPPC   C39  639   4.273   2.883   2.100  0.2580  0.0877 -0.2962
   13DPPC   C40  640   4.372   2.964   2.184 -0.3089  0.5561 -0.0786
   13DPPC   C41  641   4.317   2.995   2.324 -0.3196 -0.3357  0.1198
   13DPPC   C42  642   4.410   3.076   2.414 -0.6488 -0.5389  0.6456
   13DPPC   C43  643   4.464   3.200   2.343  0.1853 -1.2616  0.0010
   13DPPC   C44  644   4.545   3.276   2.448 -0.1016 -0.5401 -0.2960
   13DPPC   C45  645   4.458   3.299   2.571  0.1105  0.4391 -0.3185
   13DPPC   C46  646   4.543   3.347   2.689 -0.4174 -0.4110  0.4193
   13DPPC   C47  647   4.651   3.245   2.723 -0.0069 -0.3349 -0.6232
   13DPPC   C48  648   4.725   3.318   2.836 -0.0991 -0.4037 -0.5169
   13DPPC   C49  649   4.855   3.254   2.883  0.0527  0.3376  0.0946
   13DPPC   C50  650   4.919   3.351   2.982  0.0323  0.2274  0.2163
   14DPPC    C1  651   4.639   2.896   1.451  0.2151  0.5805  0.0382
   14DPPC    C2  652   4.831   2.906   1.332  0.3262  0.1981  0.0714
   14DPPC    C3  653   4.855   2.965   1.566  0.1093 -0.3963  0.0155
   14DPPC    N4  654   4.766   2.969   1.449  0.2817  0.4592 -0.0934
   14DPPC    C5  655   4.728   3.104   1.406  0.2957  0.3637 -0.4093
   14DPPC    C6  656   4.664   3.197   1.509 -0.2793  0.1231 -0.5507
   14DPPC    O7  657   4.536   3.163   1.565  0.1381  0.2448  0.4932
   14DPPC    P8  658   4.510   3.252   1.696 -0.0775  0.4543  0.3087
   14DPPC    O9  659   4.542   3.388   1.647  0.4619  0.4503  0.6344
   14DPPC   O10  660   4.375   3.200   1.727 -0.1120  0.3720  0.0163
   14DPPC   O11  661   4.634   3.182   1.772 -0.3061 -0.0194  0.2515
   14DPPC   C12  662   4.589   3.153   1.904 -0.0063 -0.0974  0.3355
   14DPPC   C13  663   4.694   3.100   2.003  0.3629 -0.1530 -0.0833
   14DPPC   O14  664   4.764   3.207   2.068  0.3776 -0.3220  0.1791
   14DPPC   C15  665   4.836   3.301   2.001  0.1252 -0.4318 -0.2517
   14DPPC   O16  666   4.892   3.280   1.893  0.2590  0.4965 -0.3663
   14DPPC   C17  667   4.865   3.428   2.082  0.2056 -0.6228  0.0206
   14DPPC   C18  668   4.880   3.395   2.231 -0.2039 -0.1744  0.1613
   14DPPC   C19  669   4.914   3.518   2.316  0.1816 -0.1654 -0.0001
   14DPPC   C20  670   4.912   3.491   2.467 -0.4810 -0.1070  0.0060
   14DPPC   C21  671   5.009   3.380   2.508  0.0659  0.1808 -0.4822
   14DPPC   C22  672   5.151   3.426   2.474 -0.0496  0.4151 -0.6538
   14DPPC   C23  673   5.197   3.542   2.563 -0.2850 -0.2553  0.3632
   14DPPC   C24  674   5.202   3.506   2.712  0.2700 -0.8141  0.2145
   14DPPC   C25  675   5.250   3.624   2.796 -0.2517 -0.3680 -0.1074
   14DPPC   C26  676   5.249   3.573   2.940 -0.4830 -0.4157 -0.1251
   14DPPC   C27  677   5.298   3.687   3.030  0.4769 -0.6207 -0.3748
   14DPPC   C28  678   5.288   3.659   3.181  0.3084  0.0753 -0.2516
   14DPPC   C29  679   5.144   3.634   3.227  0.1692  1.0427 -0.1506
   14DPPC   C30  680   5.119   3.603   3.375 -0.3091  1.0120 -0.2388
   14DPPC   C31  681   5.196   3.686   3.478 -0.0790  0.6673 -0.1337
   14DPPC   C32  682   4.777   2.997   1.927 -0.1357 -0.2573 -0.4930
   14DPPC   O33  683   4.714   2.870   1.906 -0.6637 -0.1791  0.6134
   14DPPC   C34  684   4.787   2.773   1.846 -0.6059  0.1002  0.2285
   14DPPC   O35  685   4.900   2.795   1.803 -0.7130 -0.0924 -0.1610
   14DPPC   C36  686   4.703   2.651   1.806 -0.4380  0.0815 -0.0700
   14DPPC   C37  687   4.671   2.551   1.918 -0.1602  0.7131  0.5827
   14DPPC   C38  688   4.594   2.612   2.035 -0.6858  0.6430  0.2790
   14DPPC   C39  689   4.544   2.514   2.141 -0.2169  0.0766 -0.0234
   14DPPC   C40  690   4.497   2.584   2.268  0.0849  0.0968  0.0762
   14DPPC   C41  691   4.426   2.493   2.369 -0.7080  0.0437 -0.5276
   14DPPC   C42  692   4.291   2.437   2.324 -0.6155 -0.2984 -0.3748
   14DPPC   C43  693   4.192   2.553   2.320 -0.2014  0.0543 -0.3925
   14DPPC   C44  694   4.058   2.494   2.276 -0.2282 -0.2423  0.0903
   14DPPC   C45  695   4.006   2.389   2.375  0.2152 -0.7070 -0.1669
   14DPPC   C46  696   3.966   2.451   2.509  0.3701 -0.4027 -0.2610
   14DPPC   C47  697   3.888   2.357   2.601  0.2979 -0.3336 -0.2519
   14DPPC   C48  698   3.767   2.306   2.522  0.2439 -0.3137 -0.1816
   14DPPC   C49  699   3.682   2.210   2.606 -0.0727  0.0691 -0.0587
   14DPPC   C50  700   3.545   2.177   2.548  0.1021 -0.8850  0.0632
   15DPPC    C1  701   4.657   3.648   1.577  0.1484 -0.2404  0.4376
   15DPPC    C2  702   4.670   3.636   1.809 -0.1338 -0.5003 -0.1274
   15DPPC    C3  703   4.732   3.827   1.688 -0.2283 -0.3209 -0.7390
   15DPPC    N4  704   4.627   3.724   1.699 -0.3270 -0.1217  0.2492
   15DPPC    C5  705   4.489   3.773   1.716 -0.2693  0.4249 -0.8030
   15DPPC    C6  706   4.389   3.661   1.687 -0.2702  0.2292 -0.0528
   15DPPC    O7  707   4.257   3.717   1.693 -0.0566  0.7356 -0.0247
   15DPPC    P8  708   4.151   3.648   1.593  0.3085 -0.2649  0.2615
   15DPPC    O9  709   4.026   3.725   1.612  0.4505 -0.0110  0.1804
   15DPPC   O10  710   4.198   3.604   1.460  0.0042 -0.1500  0.1137
   15DPPC   O11  711   4.143   3.513   1.681 -0.0707 -0.4419 -0.0406
   15DPPC   C12  712   4.062   3.523   1.798 -0.0911 -0.1751 -0.0768
   15DPPC   C13  713   4.063   3.392   1.876  0.2137 -0.0860  0.0724
   15DPPC   O14  714   3.945   3.366   1.953  0.5313  0.0269  0.6048
   15DPPC   C15  715   3.910   3.237   1.979 -0.0535  0.0300 -0.1397
   15DPPC   O16  716   3.971   3.144   1.927 -0.2137 -0.1389 -0.0311
   15DPPC   C17  717   3.801   3.214   2.085  0.2206  0.1627  0.1723
   15DPPC   C18  718   3.842   3.300   2.204 -0.1978 -0.0900  0.5001
   15DPPC   C19  719   3.721   3.317   2.296 -0.2688  0.0746  0.3770
   15DPPC   C20  720   3.763   3.402   2.415  0.0175 -0.5751  0.7430
   15DPPC   C21  721   3.894   3.352   2.479  0.4862 -0.0254  0.2244
   15DPPC   C22  722   3.893   3.384   2.628 -0.4575 -0.0017  0.2202
   15DPPC   C23  723   4.037   3.347   2.661 -0.3748  0.3873  0.3045
   15DPPC   C24  724   4.066   3.347   2.811  0.1828 -0.0077  0.2034
   15DPPC   C25  725   4.208   3.306   2.848  0.2324 -0.0136  0.0024
   15DPPC   C26  726   4.211   3.183   2.939 -0.0466 -0.3190 -0.3925
   15DPPC   C27  727   4.354   3.143   2.975  0.0850  0.2685 -0.2418
   15DPPC   C28  728   4.339   3.009   3.048  0.3259  0.6445  0.5123
   15DPPC   C29  729   4.481   2.954   3.034  0.0244 -0.0452  0.1224
   15DPPC   C30  730   4.493   2.806   3.071  0.2932 -0.1225 -0.2674
   15DPPC   C31  731   4.638   2.756   3.073  0.3292 -0.0074  0.0773
   15DPPC   C32  732   4.203   3.382   1.937  0.2402 -0.1082  0.0083
   15DPPC   O33  733   4.248   3.504   1.997  0.0947 -0.2745  0.4642
   15DPPC   C34  734   4.380   3.500   2.033  0.1158 -0.3665  0.3768
   15DPPC   O35  735   4.456   3.414   1.990  0.1061 -0.2260  0.0726
   15DPPC   C36  736   4.434   3.621   2.109 -0.2893  0.1941 -0.2159
   15DPPC   C37  737   4.459   3.594   2.257  0.3023  0.3681 -0.2828
   15DPPC   C38  738   4.529   3.707   2.333  0.2608  0.1437  0.0953
   15DPPC   C39  739   4.527   3.670   2.481 -0.4932  0.2003  0.1038
   15DPPC   C40  740   4.615   3.766   2.560 -0.8735  0.3042  0.4025
   15DPPC   C41  741   4.583   3.753   2.709  0.3488 -0.1657  0.6380
   15DPPC   C42  742   4.436   3.779   2.747  0.2774  0.4367 -0.0333
   15DPPC   C43  743   4.426   3.753   2.897  1.0361  0.1073 -0.0338
   15DPPC   C44  744   4.463   3.608   2.925  0.4786  0.0618  0.4829
   15DPPC   C45  745   4.437   3.569   3.071  0.2683  0.7882  0.6430
   15DPPC   C46  746   4.288   3.591   3.098  0.1868  0.5044  0.4351
   15DPPC   C47  747   4.269   3.569   3.248 -0.3739 -0.3652  0.2423
   15DPPC   C48  748   4.157   3.656   3.304  0.0047 -0.0127  0.4621
   15DPPC   C49  749   4.149   3.642   3.456 -0.0518 -0.0158  0.4589
   15DPPC   C50  750   4.121   3.498   3.502 -0.5335  0.1502  0.7001
   16DPPC    C1  751   0.864   1.409   0.999  0.2593 -0.5088  0.3444
   16DPPC    C2  752   0.867   1.601   1.159 -0.7646 -0.2081  0.5701
   16DPPC    C3  753   0.735   1.437   1.181 -0.0151  0.2812  0.7978
   16DPPC    N4  754   0.874   1.456   1.138 -0.1264 -0.1315  0.2494
   16DPPC    C5  755   0.962   1.370   1.219 -0.1233 -0.2549  0.1170
   16DPPC    C6  756   1.112   1.364   1.191 -0.0813 -0.2824  0.3474
   16DPPC    O7  757   1.197   1.474   1.222  0.2722 -0.6049  0.5409
   16DPPC    P8  758   1.355   1.443   1.218  0.4368  0.2164  0.3827
   16DPPC    O9  759   1.366   1.319   1.138 -0.4569  0.0710  0.4766
   16DPPC   O10  760   1.433   1.567   1.202  0.2329  0.3177  0.1604
   16DPPC   O11  761   1.353   1.376   1.364 -0.9788 -0.0676  0.2536
   16DPPC   C12  762   1.386   1.477   1.459  0.1119  0.2185 -0.4079
   16DPPC   C13  763   1.272   1.568   1.507 -0.0111 -0.0624 -0.1675
   16DPPC   O14  764   1.322   1.688   1.567  0.2643 -0.2086 -0.1012
   16DPPC   C15  765   1.232   1.783   1.605 -0.0917 -0.6666  0.2034
   16DPPC   O16  766   1.125   1.784   1.545  0.0142  0.0170  0.0264
   16DPPC   C17  767   1.266   1.888   1.711 -0.2458  0.0658 -0.4699
   16DPPC   C18  768   1.153   1.948   1.794  0.2626 -0.0602  0.3180
   16DPPC   C19  769   1.088   1.829   1.867 -0.4108 -0.2202 -0.5314
   16DPPC   C20  770   0.987   1.896   1.960 -0.3333  0.2430 -0.7746
   16DPPC   C21  771   1.052   2.009   2.039 -0.2425 -0.1828 -0.2369
   16DPPC   C22  772   0.940   2.070   2.125  0.4605  0.1547  0.4498
   16DPPC   C23  773   0.871   1.979   2.226  0.2964  0.2212  0.3979
   16DPPC   C24  774   0.746   2.055   2.273  0.1116  0.1653 -0.0029
   16DPPC   C25  775   0.689   1.986   2.397  0.4816  0.0485  0.1044
   16DPPC   C26  776   0.587   2.071   2.472  0.6298  0.0559  0.2980
   16DPPC   C27  777   0.540   2.001   2.600  0.0529 -0.2626 -0.0821
   16DPPC   C28  778   0.432   2.082   2.671 -0.1490 -0.2290 -0.4284
   16DPPC   C29  779   0.378   2.006   2.792  0.2857  0.0400 -0.0628
   16DPPC   C30  780   0.302   2.105   2.880 -0.3412 -0.3790 -0.1266
   16DPPC   C31  781   0.257   2.028   3.005  0.7740  0.0619  0.5594
   16DPPC   C32  782   1.206   1.473   1.607 -0.2042  0.1525 -0.0895
   16DPPC   O33  783   1.271   1.441   1.731 -0.3299 -0.3919 -0.1603
   16DPPC   C34  784   1.210   1.367   1.827 -0.4346  0.1656  0.2034
   16DPPC   O35  785   1.112   1.295   1.809  0.0904 -0.3305 -0.7217
   16DPPC   C36  786   1.302   1.338   1.946  0.1914  0.4560 -0.2038
   16DPPC   C37  787   1.258   1.399   2.079 -0.6431 -0.5432 -0.0075
   16DPPC   C38  788   1.271   1.551   2.074 -0.5730 -0.5664 -0.5029
   16DPPC   C39  789   1.201   1.621   2.190 -0.5792  0.3701 -1.0538
   16DPPC   C40  790   1.069   1.544   2.203 -0.2300 -0.1172 -0.2905
   16DPPC   C41  791   0.988   1.596   2.322 -0.2901  0.2861 -0.5067
   16DPPC   C42  792   0.849   1.532   2.337 -0.1728  0.0589 -0.3896
   16DPPC   C43  793   0.783   1.607   2.452 -0.6950 -0.4188 -0.3776
   16DPPC   C44  794   0.832   1.567   2.592 -0.3034  0.3084 -0.3034
   16DPPC   C45  795   0.727   1.594   2.699 -0.5644  0.0389 -0.4921
   16DPPC   C46  796   0.790   1.594   2.838  0.2284  0.2651 -0.8458
   16DPPC   C47  797   0.680   1.663   2.920  0.9443  0.5149 -0.0834
   16DPPC   C48  798   0.710   1.632   3.067 -0.2658  0.1131  0.0933
   16DPPC   C49  799   0.603   1.693   3.157 -0.0658  0.1572  0.3033
   16DPPC   C50  800   0.647   1.694   3.303 -0.5258  0.5636  0.4421
   17DPPC    C1  801   1.857   1.477   1.038 -0.2742 -0.2305 -0.1479
   17DPPC    C2  802   1.867   1.717   0.974  0.0847 -0.1313  0.3358
   17DPPC    C3  803   1.904   1.557   0.817 -0.2415 -0.2216  0.0135
   17DPPC    N4  804   1.924   1.582   0.960 -0.1557 -0.1980 -0.0025
   17DPPC    C5  805   2.066   1.609   0.989 -0.2258  0.0878  0.0773
   17DPPC    C6  806   2.154   1.508   1.062  0.4343  0.5334 -0.0985
   17DPPC    O7  807   2.132   1.515   1.203 -0.1821 -0.4641 -0.1385
   17DPPC    P8  808   2.231   1.412   1.277  0.2604 -0.1802 -0.3300
   17DPPC    O9  809   2.193   1.280   1.220 -0.0995 -0.0736 -0.3407
   17DPPC   O10  810   2.360   1.484   1.277  0.0655  0.1703 -0.1095
   17DPPC   O11  811   2.157   1.421   1.420  0.2555 -0.1703 -0.3332
   17DPPC   C12  812   2.033   1.351   1.437  0.3845 -0.1990  0.4942
   17DPPC   C13  813   1.982   1.364   1.581 -0.1268  0.6058  0.2459
   17DPPC   O14  814   1.917   1.486   1.618 -0.0029  0.6724  0.2436
   17DPPC   C15  815   1.787   1.497   1.581  0.1565  0.0465 -0.5267
   17DPPC   O16  816   1.732   1.408   1.517  0.2484 -0.0689 -0.4448
   17DPPC   C17  817   1.716   1.623   1.631  0.4230 -0.0108 -0.0002
   17DPPC   C18  818   1.679   1.631   1.779 -0.2793 -0.1401 -0.1632
   17DPPC   C19  819   1.598   1.758   1.804  0.0537  0.0684 -0.1329
   17DPPC   C20  820   1.565   1.756   1.953 -0.8090 -0.5128 -0.3221
   17DPPC   C21  821   1.507   1.889   2.002  0.3916 -0.0156 -0.2253
   17DPPC   C22  822   1.489   1.885   2.154 -0.4473 -0.4217 -0.3314
   17DPPC   C23  823   1.370   1.967   2.205  0.0127  0.0811 -0.0515
   17DPPC   C24  824   1.340   1.940   2.353 -0.0667 -0.0576 -0.0928
   17DPPC   C25  825   1.227   2.021   2.418  0.3508  0.1960  0.3210
   17DPPC   C26  826   1.194   1.956   2.552  0.0436 -0.2725  0.0252
   17DPPC   C27  827   1.072   2.016   2.622  0.0121 -0.0533 -0.2160
   17DPPC   C28  828   1.099   2.155   2.679 -0.4770  0.0599 -0.2515
   17DPPC   C29  829   0.985   2.182   2.777 -0.3395 -0.3121  0.0144
   17DPPC   C30  830   0.874   2.247   2.694 -0.1276 -0.1756 -0.1619
   17DPPC   C31  831   0.751   2.283   2.777 -0.1965 -0.1202 -0.2873
   17DPPC   C32  832   2.118   1.327   1.642 -0.1704 -0.3109 -0.1999
   17DPPC   O33  833   2.102   1.276   1.775 -0.2150 -0.2912 -0.1976
   17DPPC   C34  834   2.227   1.243   1.818 -0.3220 -0.6587 -0.1680
   17DPPC   O35  835   2.318   1.218   1.739  0.1497  0.0303  0.1436
   17DPPC   C36  836   2.232   1.189   1.961  0.0469 -0.1770  0.0043
   17DPPC   C37  837   2.234   1.290   2.076  0.1604  0.2082 -0.3354
   17DPPC   C38  838   2.315   1.225   2.188 -0.3355 -0.2398 -0.2340
   17DPPC   C39  839   2.272   1.276   2.326  0.6193 -0.1459  0.0336
   17DPPC   C40  840   2.331   1.412   2.364  0.1850 -0.0474  0.3598
   17DPPC   C41  841   2.302   1.433   2.512 -0.0215 -0.0740  0.3237
   17DPPC   C42  842   2.359   1.567   2.558  0.4802 -0.1181 -0.1730
   17DPPC   C43  843   2.314   1.574   2.704 -0.3200  0.4309 -0.4423
   17DPPC   C44  844   2.350   1.716   2.748  0.0640  0.3035 -0.3381
   17DPPC   C45  845   2.220   1.798   2.747 -0.1640 -0.0271  0.5034
   17DPPC   C46  846   2.249   1.915   2.841 -0.7068  0.4313  0.1044
   17DPPC   C47  847   2.121   1.999   2.846 -0.9498  0.0729 -0.0269
   17DPPC   C48  848   2.126   2.138   2.911 -0.7026 -0.1174  0.3661
   17DPPC   C49  849   2.014   2.225   2.852  0.2391  0.6032 -0.3978
   17DPPC   C50  850   2.016   2.372   2.896  0.0546  0.4070  0.2892
   18DPPC    C1  851   2.100   5.807   1.985  0.0178 -0.2926  0.3790
   18DPPC    C2  852   2.187   5.591   1.956 -0.4634  0.1774 -0.3052
   18DPPC    C3  853   2.306   5.759   2.092  0.0515  0.1552 -0.2408
   18DPPC    N4  854   2.226   5.732   1.972  0.1332  0.0115 -0.2635
   18DPPC    C5  855   2.300   5.768   1.850  0.2010 -0.1335 -0.2664
   18DPPC    C6  856   2.446   5.725   1.835  0.3681  0.5368 -0.6139
   18DPPC    O7  857   2.467   5.584   1.836 -0.0815  0.4676 -0.6184
   18DPPC    P8  858   2.620   5.541   1.812 -0.1047  0.0437 -0.0222
   18DPPC    O9  859   2.623   5.399   1.771  0.9620 -0.0950  0.4802
   18DPPC   O10  860   2.681   5.643   1.723  0.2107 -0.2282 -0.1220
   18DPPC   O11  861   2.667   5.565   1.964  0.6669  0.1474 -0.2711
   18DPPC   C12  862   2.615   5.460   2.046  0.4997  0.0388 -0.5158
   18DPPC   C13  863   2.655   5.456   2.194 -0.0350 -0.2537 -0.3765
   18DPPC   O14  864   2.571   5.533   2.281  0.6609 -0.1140  0.1770
   18DPPC   C15  865   2.438   5.506   2.292  0.6998 -0.2944  0.2020
   18DPPC   O16  866   2.369   5.457   2.202  0.2789 -0.1958  0.4709
   18DPPC   C17  867   2.371   5.560   2.418  0.2930 -0.0541 -0.1128
   18DPPC   C18  868   2.264   5.473   2.484  0.1765 -0.0788 -0.3333
   18DPPC   C19  869   2.126   5.516   2.435  0.0562  0.6818  0.6334
   18DPPC   C20  870   2.032   5.463   2.543 -0.2922 -0.0491 -0.0168
   18DPPC   C21  871   1.896   5.534   2.546 -0.4184 -0.2719 -0.4369
   18DPPC   C22  872   1.816   5.462   2.654 -0.0628  0.2372  0.1693
   18DPPC   C23  873   1.669   5.504   2.647 -0.1357 -0.0334  0.0526
   18DPPC   C24  874   1.590   5.495   2.778  0.2445 -0.5986  0.2455
   18DPPC   C25  875   1.623   5.618   2.863 -0.6424  0.2016 -0.5503
   18DPPC   C26  876   1.543   5.613   2.994 -0.5539 -0.1633 -0.5084
   18DPPC   C27  877   1.582   5.724   3.092  0.1994 -0.2495 -0.6965
   18DPPC   C28  878   1.532   5.860   3.043  0.1352 -0.1936 -0.4780
   18DPPC   C29  879   1.551   5.953   3.163 -0.0248 -0.2520 -0.4066
   18DPPC   C30  880   1.476   6.086   3.144  0.0405 -0.1921 -0.2426
   18DPPC   C31  881   1.480   6.171   3.272  0.2978 -0.5123 -0.0336
   18DPPC   C32  882   2.802   5.495   2.207 -0.0622 -0.2267 -0.1469
   18DPPC   O33  883   2.886   5.408   2.130 -0.1585 -0.1699 -0.3160
   18DPPC   C34  884   3.016   5.446   2.146 -0.2957  0.3605 -0.4320
   18DPPC   O35  885   3.044   5.565   2.158  0.2984  0.1791 -0.0093
   18DPPC   C36  886   3.118   5.333   2.130  0.1347  0.6139  0.4642
   18DPPC   C37  887   3.200   5.304   2.256  0.4702 -0.3194  0.0392
   18DPPC   C38  888   3.321   5.217   2.219  0.6294  0.1526 -0.5748
   18DPPC   C39  889   3.393   5.162   2.342  0.1037  0.4060 -0.1505
   18DPPC   C40  890   3.433   5.272   2.441 -0.1435  0.1886  0.1966
   18DPPC   C41  891   3.503   5.223   2.568  0.1818  0.3187  0.0687
   18DPPC   C42  892   3.644   5.169   2.541 -0.2308 -0.6692 -0.1711
   18DPPC   C43  893   3.706   5.134   2.676 -0.2272  0.2022  0.0644
   18DPPC   C44  894   3.841   5.063   2.662 -0.3995 -0.0832 -0.1568
   18DPPC   C45  895   3.878   5.018   2.804  0.3584 -0.1353 -0.3648
   18DPPC   C46  896   4.021   4.964   2.795  0.3606 -0.1138 -0.4714
   18DPPC   C47  897   4.073   4.893   2.920 -0.3826 -0.1523 -0.1747
   18DPPC   C48  898   4.208   4.821   2.909 -0.1028  0.3488 -0.0551
   18DPPC   C49  899   4.240   4.743   3.037  0.2727 -0.7697 -0.8157
   18DPPC   C50  900   4.126   4.655   3.085  0.2971 -0.3812 -0.0313
   19DPPC    C1  901   2.417   0.210   1.515  0.4817 -0.2184  0.0970
   19DPPC    C2  902   2.495   0.121   1.731 -0.1118  0.1599  0.6194
   19DPPC    C3  903   2.584   0.028   1.551  0.2604 -0.1590  0.2568
   19DPPC    N4  904   2.458   0.091   1.591  0.4282  0.0228  0.5029
   19DPPC    C5  905   2.366  -0.024   1.592 -0.0560  0.4002 -0.0546
   19DPPC    C6  906   2.230  -0.026   1.661 -0.2809 -0.6627 -0.5053
   19DPPC    O7  907   2.140   0.055   1.586  0.1138 -0.0455 -0.3226
   19DPPC    P8  908   2.000  -0.014   1.544  0.0578 -0.1820  0.0815
   19DPPC    O9  909   1.909   0.098   1.511  0.3405 -0.1024 -0.4509
   19DPPC   O10  910   2.045  -0.113   1.444  0.2862 -0.0956  0.0968
   19DPPC   O11  911   1.967  -0.069   1.691  0.3418  0.0316  0.2272
   19DPPC   C12  912   1.885   0.029   1.756 -0.2150 -0.2827  0.0082
   19DPPC   C13  913   1.864  -0.012   1.902 -0.1029  0.3173  0.1964
   19DPPC   O14  914   1.949   0.053   1.997  0.3949  0.2631 -0.2070
   19DPPC   C15  915   2.084   0.053   2.011  0.3212 -0.2730  0.5492
   19DPPC   O16  916   2.136  -0.057   1.991 -0.3176 -0.4917  0.0792
   19DPPC   C17  917   2.146   0.149   2.113 -0.1813 -0.3386  0.9195
   19DPPC   C18  918   2.052   0.259   2.164 -0.3673 -0.0515 -0.0143
   19DPPC   C19  919   2.110   0.318   2.293 -0.4071 -0.0045 -0.0182
   19DPPC   C20  920   2.159   0.205   2.383 -0.0553 -0.0453 -0.2581
   19DPPC   C21  921   2.066   0.162   2.498 -0.1683 -0.5362 -0.5309
   19DPPC   C22  922   2.131   0.089   2.616  0.7396  0.1030 -0.6216
   19DPPC   C23  923   2.236   0.173   2.689  0.8499 -0.4490 -0.1404
   19DPPC   C24  924   2.253   0.150   2.839 -0.0162 -0.8673 -0.0968
   19DPPC   C25  925   2.375   0.232   2.882 -0.6205  0.0316 -0.0785
   19DPPC   C26  926   2.383   0.265   3.031  0.2444 -0.1476 -0.0802
   19DPPC   C27  927   2.378   0.137   3.115  0.2516 -0.0261  0.1065
   19DPPC   C28  928   2.366   0.168   3.264  0.0282  0.0405  0.0750
   19DPPC   C29  929   2.316   0.043   3.336  0.4144 -0.1693 -0.0202
   19DPPC   C30  930   2.407  -0.079   3.322  0.3673 -0.1931 -0.1203
   19DPPC   C31  931   2.354  -0.210   3.382  0.0467 -0.1034 -0.2051
   19DPPC   C32  932   1.828  -0.161   1.911  0.2777  0.2468  0.5726
   19DPPC   O33  933   1.693  -0.198   1.880  0.5444 -0.0886 -0.2029
   19DPPC   C34  934   1.661  -0.328   1.861 -0.3580  0.1264 -0.1811
   19DPPC   O35  935   1.756  -0.404   1.879 -0.3063  0.1046 -0.5286
   19DPPC   C36  936   1.512  -0.365   1.864 -0.2042 -0.4923  0.1077
   19DPPC   C37  937   1.460  -0.311   1.997 -0.0342  0.4285 -0.1881
   19DPPC   C38  938   1.334  -0.390   2.031  0.1400  0.1231 -0.2449
   19DPPC   C39  939   1.267  -0.337   2.158 -0.1894 -0.2329 -0.2677
   19DPPC   C40  940   1.161  -0.234   2.118  0.1418  0.2548  0.1023
   19DPPC   C41  941   1.100  -0.162   2.238  0.2695  0.4972  0.0223
   19DPPC   C42  942   1.215  -0.079   2.297  0.3484  0.3039  0.1406
   19DPPC   C43  943   1.163   0.015   2.405 -0.2015  0.0986  0.0577
   19DPPC   C44  944   1.279   0.099   2.461 -0.2915  0.2456  0.0252
   19DPPC   C45  945   1.230   0.237   2.504 -0.1944  0.4286 -0.4446
   19DPPC   C46  946   1.331   0.348   2.536  0.1306  0.0208 -0.0455
   19DPPC   C47  947   1.261   0.472   2.590  0.0452 -0.3205  0.6321
   19DPPC   C48  948   1.359   0.575   2.646 -0.2142  0.2737  0.0137
   19DPPC   C49  949   1.291   0.699   2.704  0.1245  0.4080  0.1229
   19DPPC   C50  950   1.223   0.658   2.834  0.3205 -0.1245  0.0594
   20DPPC    C1  951   2.053   0.353   1.333  0.9424 -0.3164  0.5797
   20DPPC    C2  952   2.159   0.477   1.501  0.2013  0.0588 -0.1908
   20DPPC    C3  953   1.933   0.421   1.526  0.0587  0.5699  1.0053
   20DPPC    N4  954   2.033   0.464   1.427 -0.1156 -0.3554  0.4143
   20DPPC    C5  955   1.990   0.586   1.356 -0.4072 -0.6656  0.0487
   20DPPC    C6  956   1.944   0.706   1.439  0.1055 -0.4089 -0.0355
   20DPPC    O7  957   2.053   0.782   1.493  0.1369 -0.5652  0.1193
   20DPPC    P8  958   2.022   0.940   1.491 -0.0383 -0.5965  0.2728
   20DPPC    O9  959   2.134   1.021   1.544 -0.2089 -0.4424  0.3975
   20DPPC   O10  960   1.983   0.963   1.350 -0.3106  0.1828  0.4712
   20DPPC   O11  961   1.896   0.949   1.591 -0.0159 -0.0961  0.2589
   20DPPC   C12  962   1.947   0.918   1.721  0.3115  0.0109  0.1565
   20DPPC   C13  963   1.831   0.897   1.818  0.2634  0.2342  0.1478
   20DPPC   O14  964   1.752   0.778   1.808 -0.2273  0.5466  0.2828
   20DPPC   C15  965   1.805   0.654   1.829 -0.0497  0.6622  0.5161
   20DPPC   O16  966   1.925   0.626   1.825 -0.1707  0.2037 -0.0802
   20DPPC   C17  967   1.709   0.535   1.826  0.4097  0.2925  0.2936
   20DPPC   C18  968   1.696   0.480   1.968  0.2584  0.6317  0.4128
   20DPPC   C19  969   1.635   0.341   1.983  0.4892  0.4404 -0.3948
   20DPPC   C20  970   1.665   0.286   2.122 -0.7886  0.3522 -0.1399
   20DPPC   C21  971   1.643   0.138   2.151 -0.1766  0.4170  0.7029
   20DPPC   C22  972   1.688   0.102   2.293  0.2035  0.1750  0.5244
   20DPPC   C23  973   1.699  -0.050   2.301  0.8970  0.1989  0.1350
   20DPPC   C24  974   1.760  -0.098   2.433  0.0122  0.0581  0.5064
   20DPPC   C25  975   1.665  -0.062   2.547 -0.0429 -0.0851  0.5057
   20DPPC   C26  976   1.730  -0.098   2.681  0.1029 -1.0987  0.1656
   20DPPC   C27  977   1.650  -0.085   2.811  0.7808  0.4199  0.4530
   20DPPC   C28  978   1.573   0.047   2.819  0.6709  0.3870 -0.0330
   20DPPC   C29  979   1.517   0.051   2.961  0.1540 -0.1596 -0.2153
   20DPPC   C30  980   1.441   0.183   2.982 -0.2128 -0.3709 -0.2074
   20DPPC   C31  981   1.351   0.154   3.102  0.1935  0.2625  0.2538
   20DPPC   C32  982   1.759   1.032   1.825 -1.1315 -0.5320  0.9551
   20DPPC   O33  983   1.809   1.102   1.939  0.4585  0.1550 -0.1324
   20DPPC   C34  984   1.754   1.227   1.946  0.2135  0.0518 -0.2059
   20DPPC   O35  985   1.665   1.264   1.870 -0.7611 -0.3914  0.6961
   20DPPC   C36  986   1.824   1.324   2.041  0.3301 -0.1098 -0.1264
   20DPPC   C37  987   1.736   1.343   2.165  0.4438 -0.3658 -0.0039
   20DPPC   C38  988   1.815   1.380   2.290 -0.0199  0.8053 -0.0441
   20DPPC   C39  989   1.714   1.380   2.405  0.3474  0.8448  0.2821
   20DPPC   C40  990   1.616   1.489   2.363 -0.0980  0.2388 -0.2883
   20DPPC   C41  991   1.500   1.497   2.463  0.2161  0.0883  0.0885
   20DPPC   C42  992   1.550   1.558   2.595  0.0844  1.0290 -0.2915
   20DPPC   C43  993   1.433   1.566   2.693  0.3094 -0.1901  0.0916
   20DPPC   C44  994   1.470   1.672   2.796 -0.1889  0.2335 -0.1572
   20DPPC   C45  995   1.372   1.666   2.913 -0.1170 -0.1657 -0.1171
   20DPPC   C46  996   1.422   1.775   3.008 -0.1472 -0.5893  0.3924
   20DPPC   C47  997   1.321   1.818   3.114 -0.3029  0.1497 -0.0483
   20DPPC   C48  998   1.256   1.697   3.182 -0.2012 -0.0752 -0.3463
   20DPPC   C49  999   1.127   1.727   3.259 -0.0033  0.2054 -0.1241
   20DPPC   C50 1000   1.158   1.799   3.390  0.3686  0.0173 -0.1082
   21DPPC    C1 1001   2.898   4.961   1.779  0.2757  0.1811  0.4863
   21DPPC    C2 1002   2.930   5.208   1.715  0.2017  0.2721 -0.7031
   21DPPC    C3 1003   2.826   5.134   1.910 -0.4638  0.0417 -0.4402
   21DPPC    N4 1004   2.847   5.099   1.769  0.5095  0.2110 -0.3441
   21DPPC    C5 1005   2.725   5.109   1.687 -0.0793  0.6361  0.5738
   21DPPC    C6 1006   2.596   5.036   1.727  0.1980 -0.4343 -0.4279
   21DPPC    O7 1007   2.590   4.895   1.705  0.1692 -0.4950 -0.0384
   21DPPC    P8 1008   2.459   4.831   1.774 -0.0337 -0.2304 -0.1776
   21DPPC    O9 1009   2.349   4.922   1.732  0.2723  0.0723 -0.3307
   21DPPC   O10 1010   2.459   4.687   1.742  0.0760 -0.1834 -0.3928
   21DPPC   O11 1011   2.509   4.841   1.927  0.6722 -0.1115 -0.4117
   21DPPC   C12 1012   2.622   4.755   1.944  0.1308 -0.7944 -0.1628
   21DPPC   C13 1013   2.651   4.746   2.094  0.5778  0.6314 -0.1426
   21DPPC   O14 1014   2.760   4.657   2.122 -0.0043 -0.0119  0.1071
   21DPPC   C15 1015   2.884   4.715   2.119 -0.1752  0.3439 -0.1078
   21DPPC   O16 1016   2.903   4.826   2.070  0.3765  0.2517 -0.0979
   21DPPC   C17 1017   3.008   4.633   2.157 -0.1037  0.2283 -0.5776
   21DPPC   C18 1018   3.107   4.723   2.232 -0.4162  0.2404 -0.1755
   21DPPC   C19 1019   3.240   4.655   2.265 -0.3479  0.7069  0.5341
   21DPPC   C20 1020   3.330   4.724   2.367 -0.2560  0.3643  0.6864
   21DPPC   C21 1021   3.250   4.744   2.496  0.1057  0.2215  0.9342
   21DPPC   C22 1022   3.327   4.841   2.586  0.3896  0.5553  0.3313
   21DPPC   C23 1023   3.241   4.868   2.709 -0.3210 -0.2835  0.0307
   21DPPC   C24 1024   3.330   4.934   2.815  0.1151 -0.3904 -0.2659
   21DPPC   C25 1025   3.295   5.083   2.816  0.5695 -0.2802  0.6744
   21DPPC   C26 1026   3.328   5.160   2.944  0.1925  0.0812  0.5593
   21DPPC   C27 1027   3.244   5.286   2.922 -0.3623 -0.3663  0.0747
   21DPPC   C28 1028   3.246   5.383   3.040 -0.3412 -0.3536  0.0639
   21DPPC   C29 1029   3.157   5.507   3.026  0.1716  0.0252  0.1513
   21DPPC   C30 1030   3.167   5.596   3.150 -0.0794 -0.4970  0.5513
   21DPPC   C31 1031   3.040   5.680   3.169  0.1901 -0.0048  0.1952
   21DPPC   C32 1032   2.517   4.696   2.148  0.8881  0.1661  0.2109
   21DPPC   O33 1033   2.478   4.707   2.285 -0.1513  0.2559 -0.0807
   21DPPC   C34 1034   2.348   4.677   2.311 -0.1633  0.1904 -0.2177
   21DPPC   O35 1035   2.260   4.673   2.225 -0.3826 -0.0692  0.0148
   21DPPC   C36 1036   2.322   4.637   2.456  0.4800  0.0596 -0.1352
   21DPPC   C37 1037   2.435   4.552   2.516 -0.0884 -0.9084 -0.4164
   21DPPC   C38 1038   2.394   4.489   2.649 -0.0949 -0.0004  0.0225
   21DPPC   C39 1039   2.490   4.398   2.726  0.4618  0.6693  0.1251
   21DPPC   C40 1040   2.442   4.382   2.871  0.5193  0.0143  0.0752
   21DPPC   C41 1041   2.552   4.327   2.962  0.1128 -0.4414  0.2924
   21DPPC   C42 1042   2.499   4.286   3.099 -0.0790 -0.2086  0.2890
   21DPPC   C43 1043   2.602   4.215   3.187  0.2566  0.0312  0.0896
   21DPPC   C44 1044   2.543   4.183   3.325  0.5735 -0.3882  0.1308
   21DPPC   C45 1045   2.634   4.095   3.411 -0.2311 -0.5010  0.8840
   21DPPC   C46 1046   2.749   4.176   3.472  0.1221  0.0257 -0.4242
   21DPPC   C47 1047   2.843   4.099   3.566  0.2060  0.1477 -0.4090
   21DPPC   C48 1048   2.944   4.204   3.615  0.2573 -0.2063  0.2508
   21DPPC   C49 1049   3.076   4.138   3.655  0.1900 -0.8756 -0.6051
   21DPPC   C50 1050   3.068   4.110   3.805  0.2870 -0.0772 -0.4495
   22DPPC    C1 1051   3.544   5.839   1.219 -0.0546 -0.3520  0.0227
   22DPPC    C2 1052   3.336   5.759   1.258 -0.2289  0.2337 -0.0519
   22DPPC    C3 1053   3.480   5.614   1.138  0.2244 -0.4394 -0.3074
   22DPPC    N4 1054   3.475   5.712   1.248 -0.4270 -0.2666 -0.4839
   22DPPC    C5 1055   3.521   5.674   1.382  0.0953 -0.0417 -0.5964
   22DPPC    C6 1056   3.540   5.525   1.414  0.1988  0.0423 -0.2673
   22DPPC    O7 1057   3.556   5.516   1.556  0.2614  0.2966 -0.2570
   22DPPC    P8 1058   3.625   5.377   1.598 -0.1664  0.2194  0.1974
   22DPPC    O9 1059   3.519   5.276   1.576  0.0165  0.1973 -0.6050
   22DPPC   O10 1060   3.744   5.385   1.510  0.1001  0.1716  0.5500
   22DPPC   O11 1061   3.668   5.388   1.753 -0.1900  0.1415  0.2097
   22DPPC   C12 1062   3.547   5.355   1.823 -0.1246 -0.4803  0.0374
   22DPPC   C13 1063   3.551   5.354   1.976  0.3266  0.3901  0.0424
   22DPPC   O14 1064   3.569   5.480   2.041  0.1837  0.4479 -0.0295
   22DPPC   C15 1065   3.465   5.568   2.043 -0.5083 -0.3589 -0.0048
   22DPPC   O16 1066   3.359   5.560   1.981 -0.4454 -0.0039 -0.1608
   22DPPC   C17 1067   3.494   5.693   2.127 -0.3566 -0.0220 -0.5557
   22DPPC   C18 1068   3.430   5.686   2.266  0.4881 -0.3885 -0.1808
   22DPPC   C19 1069   3.287   5.741   2.274  0.6178 -0.0377 -0.2586
   22DPPC   C20 1070   3.235   5.714   2.415  0.0301  0.0618 -0.4551
   22DPPC   C21 1071   3.101   5.781   2.445  0.2343  0.4661 -0.4358
   22DPPC   C22 1072   3.048   5.720   2.575  0.0589  0.0218 -0.7111
   22DPPC   C23 1073   3.038   5.568   2.560  0.4270 -0.0888  0.0964
   22DPPC   C24 1074   2.945   5.525   2.673 -0.2177 -0.0251 -0.4035
   22DPPC   C25 1075   2.932   5.373   2.679  0.5231 -0.0790 -0.0553
   22DPPC   C26 1076   2.903   5.318   2.539  0.3382 -0.3249  0.0771
   22DPPC   C27 1077   2.882   5.167   2.555  0.0481 -0.2342  0.5725
   22DPPC   C28 1078   2.881   5.109   2.413  0.2298  0.4775  0.2753
   22DPPC   C29 1079   2.919   4.962   2.431 -0.5380  0.1972 -0.3634
   22DPPC   C30 1080   2.814   4.887   2.512 -0.2739  0.1827 -0.0346
   22DPPC   C31 1081   2.838   4.737   2.532  0.5239  0.2730 -0.2721
   22DPPC   C32 1082   3.650   5.241   2.006  0.1749  0.2507  0.0219
   22DPPC   O33 1083   3.596   5.109   2.020  0.1968  0.2074 -0.2946
   22DPPC   C34 1084   3.694   5.016   2.026  0.2274  0.2900  0.7783
   22DPPC   O35 1085   3.804   5.043   1.979 -0.1464  0.4344 -0.0349
   22DPPC   C36 1086   3.651   4.870   2.048  0.8417  0.0363  0.3407
   22DPPC   C37 1087   3.652   4.840   2.198 -0.1657  0.3942  0.4314
   22DPPC   C38 1088   3.790   4.788   2.239 -0.0340  0.2471 -0.1827
   22DPPC   C39 1089   3.810   4.769   2.389 -0.3827 -0.0986 -0.1788
   22DPPC   C40 1090   3.743   4.644   2.447 -0.3457  0.0185  0.1160
   22DPPC   C41 1091   3.776   4.638   2.597  0.0943 -0.5430 -0.0043
   22DPPC   C42 1092   3.663   4.584   2.684 -0.1055 -0.4740 -0.2183
   22DPPC   C43 1093   3.703   4.617   2.828  0.4658 -0.8107 -0.2927
   22DPPC   C44 1094   3.601   4.549   2.920  0.2475  0.2114  0.2341
   22DPPC   C45 1095   3.457   4.603   2.914  0.1303 -0.1042  0.2105
   22DPPC   C46 1096   3.399   4.552   3.046 -0.3420 -0.3699 -0.0976
   22DPPC   C47 1097   3.247   4.569   3.054 -0.2310  0.5633  0.1446
   22DPPC   C48 1098   3.189   4.519   3.187  0.5976 -0.1148  0.2578
   22DPPC   C49 1099   3.040   4.554   3.188  0.5437 -0.3472  0.3295
   22DPPC   C50 1100   2.981   4.526   3.327  0.0173  0.5371  0.2892
   23DPPC    C1 1101   3.018   5.931   2.029  0.0404 -0.0837  0.2227
   23DPPC    C2 1102   2.998   5.775   1.852 -0.2449  0.1568 -0.5948
   23DPPC    C3 1103   2.809   5.888   1.929  0.0812  0.1641  0.0650
   23DPPC    N4 1104   2.952   5.906   1.900  0.1197  0.0189  0.1619
   23DPPC    C5 1105   2.968   5.998   1.786 -0.1297 -0.0362  0.0800
   23DPPC    C6 1106   2.895   6.132   1.784  0.2975  0.1955 -0.1559
   23DPPC    O7 1107   2.919   6.219   1.895 -0.3833 -0.1866  0.2937
   23DPPC    P8 1108   2.790   6.314   1.910 -0.2350  0.0121  0.3097
   23DPPC    O9 1109   2.826   6.452   1.951 -0.6759  0.0561  0.5516
   23DPPC   O10 1110   2.701   6.291   1.795 -0.0010 -0.5879  0.2461
   23DPPC   O11 1111   2.745   6.229   2.040 -1.0060  0.2038  0.1707
   23DPPC   C12 1112   2.782   6.300   2.158  0.1096 -0.2863  0.1299
   23DPPC   C13 1113   2.822   6.214   2.278  0.3827  0.1261  0.3371
   23DPPC   O14 1114   2.955   6.160   2.273  0.3361  0.0630 -0.2944
   23DPPC   C15 1115   3.065   6.238   2.288  0.4039 -0.0684 -0.1114
   23DPPC   O16 1116   3.054   6.361   2.279 -0.1758 -0.1140 -0.0562
   23DPPC   C17 1117   3.201   6.169   2.293  0.3765 -0.0897  0.5038
   23DPPC   C18 1118   3.288   6.255   2.384  0.7714  0.3595 -0.2819
   23DPPC   C19 1119   3.436   6.215   2.391  0.5042 -0.6103 -0.0963
   23DPPC   C20 1120   3.491   6.286   2.514  0.1397 -0.3362 -0.0906
   23DPPC   C21 1121   3.633   6.233   2.530  0.3358  0.1546 -0.1799
   23DPPC   C22 1122   3.699   6.311   2.643 -0.3156  0.2761  0.1212
   23DPPC   C23 1123   3.723   6.461   2.623  0.0112  0.1473 -0.4653
   23DPPC   C24 1124   3.805   6.512   2.741 -0.1123 -0.0551 -0.2915
   23DPPC   C25 1125   3.796   6.665   2.744 -0.1814 -0.0625 -0.0886
   23DPPC   C26 1126   3.889   6.725   2.849 -0.3125 -0.0403  0.0149
   23DPPC   C27 1127   3.829   6.859   2.892  0.0096  0.1737 -0.2002
   23DPPC   C28 1128   3.877   6.901   3.031 -0.2226  0.4546 -0.2046
   23DPPC   C29 1129   3.776   7.004   3.082 -0.6132  0.3167 -0.6900
   23DPPC   C30 1130   3.817   7.047   3.223 -0.5902 -0.3431 -0.4909
   23DPPC   C31 1131   3.714   7.130   3.300  0.5703 -0.1838  0.9341
   23DPPC   C32 1132   2.702   6.121   2.298 -0.0383  0.4087 -0.7616
   23DPPC   O33 1133   2.583   6.198   2.316 -0.0969  0.2324 -0.3682
   23DPPC   C34 1134   2.468   6.126   2.328 -0.0761  0.2024 -0.3520
   23DPPC   O35 1135   2.481   6.004   2.326 -1.0112  0.0950 -0.2516
   23DPPC   C36 1136   2.333   6.197   2.318  0.0759  0.6564  0.6328
   23DPPC   C37 1137   2.214   6.121   2.376 -0.1235  0.5839  0.1330
   23DPPC   C38 1138   2.195   6.129   2.527 -0.0360 -0.0059  0.1743
   23DPPC   C39 1139   2.067   6.057   2.571  0.2841 -0.5369  0.2460
   23DPPC   C40 1140   2.041   6.094   2.718 -0.1262 -0.6468  0.2020
   23DPPC   C41 1141   2.171   6.053   2.787 -0.0059 -0.1225  0.2858
   23DPPC   C42 1142   2.160   6.099   2.933  0.1938 -0.3368  0.3701
   23DPPC   C43 1143   2.066   6.011   3.016 -0.0550 -0.6784 -0.2606
   23DPPC   C44 1144   2.069   6.057   3.162 -0.4996  0.0922 -0.4889
   23DPPC   C45 1145   2.022   6.198   3.198  0.2487  0.0690  0.6215
   23DPPC   C46 1146   1.870   6.210   3.189  0.2897 -0.2117 -0.4993
   23DPPC   C47 1147   1.834   6.353   3.230  0.7059 -0.1811 -0.2355
   23DPPC   C48 1148   1.903   6.459   3.143  0.1324  0.3486 -0.0479
   23DPPC   C49 1149   1.898   6.598   3.207  0.3021  0.2025  0.2855
   23DPPC   C50 1150   1.984   6.685   3.114  0.1929  0.3246  0.2983
   24DPPC    C1 1151   3.073   0.825   1.985  0.1700 -0.3485  0.2690
   24DPPC    C2 1152   3.133   0.882   1.765 -0.3955  0.3978  0.6927
   24DPPC    C3 1153   3.280   0.756   1.904  0.6058 -0.5157 -0.5626
   24DPPC    N4 1154   3.140   0.774   1.864  0.4391  0.0408  0.2515
   24DPPC    C5 1155   3.085   0.645   1.822 -0.3155  0.3138  0.3882
   24DPPC    C6 1156   2.942   0.633   1.768 -0.4938 -0.3830  0.9900
   24DPPC    O7 1157   2.913   0.498   1.733  0.2434 -0.2148 -0.3390
   24DPPC    P8 1158   2.756   0.479   1.701  0.1758 -0.1325 -0.0573
   24DPPC    O9 1159   2.713   0.598   1.624 -0.5725 -0.1861  0.2706
   24DPPC   O10 1160   2.716   0.350   1.640 -0.1260 -0.0119 -0.1161
   24DPPC   O11 1161   2.706   0.492   1.854 -0.3358  0.6919 -0.2851
   24DPPC   C12 1162   2.705   0.372   1.932  0.8490  0.6856 -0.2631
   24DPPC   C13 1163   2.698   0.395   2.083 -0.2937 -0.1215 -0.1818
   24DPPC   O14 1164   2.679   0.272   2.154  0.3381 -0.0963  0.0418
   24DPPC   C15 1165   2.555   0.217   2.172  0.2135  0.1556 -0.0393
   24DPPC   O16 1166   2.473   0.232   2.082 -0.2709 -0.0351  0.3676
   24DPPC   C17 1167   2.527   0.130   2.294 -0.8698  0.5268 -0.0171
   24DPPC   C18 1168   2.516   0.205   2.427 -0.2282 -0.1168  0.4075
   24DPPC   C19 1169   2.650   0.246   2.489  0.0152 -0.4567  0.1139
   24DPPC   C20 1170   2.721   0.116   2.525  0.1736 -0.4471 -0.1663
   24DPPC   C21 1171   2.843   0.138   2.615  0.1269  0.2854 -0.2784
   24DPPC   C22 1172   2.910   0.010   2.665 -0.1514  0.2808  0.0865
   24DPPC   C23 1173   3.039   0.072   2.720  0.0377  0.2340 -0.2980
   24DPPC   C24 1174   3.113  -0.034   2.802 -0.1356  0.3382 -0.0065
   24DPPC   C25 1175   3.148  -0.166   2.734 -0.3640  0.0046  0.5234
   24DPPC   C26 1176   3.204  -0.253   2.847  0.5588  0.1304  0.1700
   24DPPC   C27 1177   3.257  -0.383   2.787 -0.6752 -0.2859 -0.0617
   24DPPC   C28 1178   3.301  -0.474   2.902 -0.6553  0.1864  0.3039
   24DPPC   C29 1179   3.390  -0.384   2.988  0.2277 -0.2982 -0.0841
   24DPPC   C30 1180   3.466  -0.454   3.101  0.2593  0.0121  0.0892
   24DPPC   C31 1181   3.543  -0.356   3.190  0.5687  0.6659 -0.8829
   24DPPC   C32 1182   2.593   0.506   2.097 -0.2085 -0.0268 -0.2840
   24DPPC   O33 1183   2.569   0.571   2.222  0.6906 -0.2058 -0.0110
   24DPPC   C34 1184   2.654   0.665   2.273  0.1803  0.3713 -0.2113
   24DPPC   O35 1185   2.771   0.676   2.236  0.2019  0.1945 -0.1995
   24DPPC   C36 1186   2.603   0.726   2.403  0.2559  0.0759 -0.0423
   24DPPC   C37 1187   2.498   0.837   2.393  0.0804 -0.0781  0.0742
   24DPPC   C38 1188   2.505   0.910   2.527  0.2020  0.1810 -0.0726
   24DPPC   C39 1189   2.377   0.994   2.531  0.0717 -0.0194 -0.0065
   24DPPC   C40 1190   2.243   0.923   2.513  0.1587  0.0285 -0.8753
   24DPPC   C41 1191   2.132   1.026   2.536  0.0769 -0.1480 -0.4705
   24DPPC   C42 1192   2.147   1.088   2.675 -0.4679 -0.2786 -0.3516
   24DPPC   C43 1193   2.063   1.215   2.685 -0.1293 -0.0887  0.1328
   24DPPC   C44 1194   2.099   1.281   2.818 -0.1940  0.3288 -0.0543
   24DPPC   C45 1195   1.981   1.368   2.859 -0.5355 -0.1578  0.0067
   24DPPC   C46 1196   2.000   1.420   3.002  0.2037  0.4263 -0.2932
   24DPPC   C47 1197   1.884   1.517   3.028  0.1383  0.2116  0.2362
   24DPPC   C48 1198   1.857   1.536   3.177 -0.1981  0.0225  0.1992
   24DPPC   C49 1199   1.775   1.663   3.196 -0.7258 -0.3225  0.2587
   24DPPC   C50 1200   1.745   1.705   3.340  0.3346 -0.5576  0.5527
   25DPPC    C1 1201   3.237   4.644   1.301  0.0865 -0.3573 -0.8504
   25DPPC    C2 1202   3.444   4.570   1.246 -0.3675  0.2323 -0.3167
   25DPPC    C3 1203   3.269   4.419   1.269 -0.1680  0.0201 -0.4406
   25DPPC    N4 1204   3.331   4.536   1.334 -0.0468 -0.2421 -0.0835
   25DPPC    C5 1205   3.348   4.515   1.479  0.7171 -0.1780 -0.1600
   25DPPC    C6 1206   3.425   4.607   1.574 -0.4080  0.0641  0.5328
   25DPPC    O7 1207   3.568   4.610   1.570 -0.4047 -0.2908  0.3378
   25DPPC    P8 1208   3.639   4.739   1.634 -0.3246 -0.1450 -0.0461
   25DPPC    O9 1209   3.681   4.829   1.524  0.0446 -0.4866 -0.1846
   25DPPC   O10 1210   3.546   4.806   1.728 -0.7142 -0.4928 -0.1783
   25DPPC   O11 1211   3.772   4.677   1.698 -0.1507 -0.1030 -0.3629
   25DPPC   C12 1212   3.750   4.629   1.831  0.7235  0.3093 -0.0595
   25DPPC   C13 1213   3.870   4.542   1.870  0.3645 -0.1818 -0.0299
   25DPPC   O14 1214   3.852   4.457   1.984  0.1652 -0.2601 -0.1198
   25DPPC   C15 1215   3.921   4.341   1.996  0.4826 -0.0553  0.0355
   25DPPC   O16 1216   4.025   4.317   1.934  0.5100  0.1309  0.0097
   25DPPC   C17 1217   3.867   4.245   2.102  0.2752 -0.1366 -0.1440
   25DPPC   C18 1218   3.760   4.317   2.185  0.5912  0.3236 -0.1290
   25DPPC   C19 1219   3.704   4.234   2.301  0.3756  0.2020 -0.3182
   25DPPC   C20 1220   3.811   4.181   2.398 -0.3930 -0.4259  0.1996
   25DPPC   C21 1221   3.753   4.079   2.496 -0.1868 -0.3000  0.4519
   25DPPC   C22 1222   3.635   4.152   2.561  0.0154 -0.1257  0.6247
   25DPPC   C23 1223   3.602   4.086   2.695  0.2556  0.0643  0.7777
   25DPPC   C24 1224   3.488   4.166   2.759  0.1546  0.5706 -0.0237
   25DPPC   C25 1225   3.424   4.098   2.879  0.5369 -0.0129 -0.1472
   25DPPC   C26 1226   3.525   4.070   2.990  0.2759  0.6738  0.2720
   25DPPC   C27 1227   3.482   3.974   3.102  0.3526  0.0686 -0.2110
   25DPPC   C28 1228   3.587   3.985   3.213  0.0030  0.0882  0.1203
   25DPPC   C29 1229   3.540   3.892   3.325  0.0043  0.2390  0.2466
   25DPPC   C30 1230   3.638   3.912   3.440  0.2952 -0.1848  0.0771
   25DPPC   C31 1231   3.625   3.815   3.558  0.0139  0.0698  0.2568
   25DPPC   C32 1232   3.987   4.641   1.875  0.1105  0.1326 -0.2410
   25DPPC   O33 1233   3.973   4.756   1.960  0.3583 -0.2223  0.2887
   25DPPC   C34 1234   4.091   4.825   1.968  0.0247  0.4110 -0.1578
   25DPPC   O35 1235   4.180   4.791   1.890  0.0094  0.2954 -0.1265
   25DPPC   C36 1236   4.105   4.937   2.070  0.1589 -0.1806  0.4813
   25DPPC   C37 1237   4.163   4.879   2.199 -0.3612 -0.3601  0.6395
   25DPPC   C38 1238   4.143   4.989   2.304  0.3938  0.3634  0.0402
   25DPPC   C39 1239   4.207   4.967   2.441 -0.1989  0.4340  0.3308
   25DPPC   C40 1240   4.359   4.972   2.426 -0.2450  0.2110 -0.2421
   25DPPC   C41 1241   4.431   4.944   2.558 -0.0455  0.1340 -0.3680
   25DPPC   C42 1242   4.511   4.816   2.530  0.7148  0.6277 -0.4847
   25DPPC   C43 1243   4.583   4.778   2.660  0.4426  0.0078 -0.5151
   25DPPC   C44 1244   4.678   4.664   2.624  0.5975 -0.0216 -0.0134
   25DPPC   C45 1245   4.752   4.608   2.746 -0.5970  0.1605  0.8111
   25DPPC   C46 1246   4.874   4.695   2.780  0.2379 -0.7238  0.1358
   25DPPC   C47 1247   4.882   4.735   2.927 -0.3798  0.2043 -0.0725
   25DPPC   C48 1248   4.755   4.804   2.978 -0.2965  0.6026 -0.4001
   25DPPC   C49 1249   4.758   4.857   3.121 -0.8046 -0.2422 -0.0605
   25DPPC   C50 1250   4.631   4.939   3.143 -0.6677 -0.2532  0.7924
   26DPPC    C1 1251   3.269   0.154   2.106  0.3155  0.2721 -0.2471
   26DPPC    C2 1252   3.113   0.243   1.942 -0.3048 -0.1472 -0.8252
   26DPPC    C3 1253   3.336   0.196   1.881 -0.1135  0.0168  0.1565
   26DPPC    N4 1254   3.225   0.151   1.966 -0.2931  0.0615 -0.0530
   26DPPC    C5 1255   3.167   0.022   1.927  0.3437 -0.1760 -0.2100
   26DPPC    C6 1256   3.252  -0.101   1.960 -0.2129 -0.6358 -0.4683
   26DPPC    O7 1257   3.387  -0.101   1.911 -0.3066  0.1821 -0.7448
   26DPPC    P8 1258   3.417  -0.258   1.892  0.2777  0.1589  0.3104
   26DPPC    O9 1259   3.353  -0.335   2.002 -0.5637 -0.1601 -0.3881
   26DPPC   O10 1260   3.392  -0.311   1.756  0.4592  0.4034  0.1818
   26DPPC   O11 1261   3.574  -0.251   1.926  0.3348 -0.2198  0.1285
   26DPPC   C12 1262   3.615  -0.277   2.061 -0.2030  0.0302  0.3388
   26DPPC   C13 1263   3.764  -0.254   2.081 -0.1241 -0.0985 -0.0864
   26DPPC   O14 1264   3.799  -0.281   2.218 -0.6268 -0.2604  0.0089
   26DPPC   C15 1265   3.823  -0.409   2.257 -0.1912 -0.3071 -0.4025
   26DPPC   O16 1266   3.870  -0.490   2.177 -0.4012 -0.0090 -0.8300
   26DPPC   C17 1267   3.825  -0.450   2.405 -0.0780 -0.2553 -0.3896
   26DPPC   C18 1268   3.702  -0.526   2.454 -0.3098  0.4034  0.0670
   26DPPC   C19 1269   3.722  -0.582   2.595 -0.4809  0.1689  0.0007
   26DPPC   C20 1270   3.586  -0.634   2.641 -0.4743  0.4518  0.3420
   26DPPC   C21 1271   3.597  -0.723   2.764 -0.0226 -0.2650 -0.2089
   26DPPC   C22 1272   3.685  -0.847   2.749  0.2446 -0.1498  0.3365
   26DPPC   C23 1273   3.719  -0.907   2.885  0.6119 -1.0970 -0.1567
   26DPPC   C24 1274   3.584  -0.927   2.955  0.4001 -0.7764 -0.4704
   26DPPC   C25 1275   3.610  -0.985   3.094  0.1690  0.2011 -0.0090
   26DPPC   C26 1276   3.674  -0.879   3.184  0.2798  0.5145 -0.4531
   26DPPC   C27 1277   3.709  -0.937   3.321 -0.6192 -0.0282 -0.4387
   26DPPC   C28 1278   3.814  -0.846   3.385 -0.3479 -0.5387 -0.1483
   26DPPC   C29 1279   3.944  -0.859   3.304 -0.4543  0.6869 -0.5378
   26DPPC   C30 1280   4.036  -0.753   3.368  0.0393 -0.1468  0.1550
   26DPPC   C31 1281   4.166  -0.733   3.291 -0.4353 -0.0414 -0.6339
   26DPPC   C32 1282   3.778  -0.108   2.038 -0.3169  0.0144  0.2305
   26DPPC   O33 1283   3.707  -0.016   2.122 -0.6249  0.0157 -0.0336
   26DPPC   C34 1284   3.713   0.114   2.083 -0.1034 -0.0638 -0.2324
   26DPPC   O35 1285   3.734   0.135   1.963 -0.1420 -0.6180 -0.3381
   26DPPC   C36 1286   3.657   0.223   2.175  0.1165  0.2265 -0.4398
   26DPPC   C37 1287   3.774   0.317   2.203  0.0317  0.3543 -0.5142
   26DPPC   C38 1288   3.734   0.435   2.292 -0.2677  0.2322 -0.4864
   26DPPC   C39 1289   3.854   0.524   2.326  0.0155 -0.2353 -0.2434
   26DPPC   C40 1290   3.804   0.652   2.393 -0.0272 -0.2335 -0.2779
   26DPPC   C41 1291   3.746   0.639   2.534 -0.2842 -0.3425 -0.3949
   26DPPC   C42 1292   3.681   0.774   2.566 -1.0679 -0.6326 -0.7123
   26DPPC   C43 1293   3.625   0.758   2.708  0.0923 -0.1138 -0.1739
   26DPPC   C44 1294   3.528   0.868   2.753 -0.7405 -0.5664 -0.8135
   26DPPC   C45 1295   3.498   0.852   2.902 -0.1607  0.2687 -0.5998
   26DPPC   C46 1296   3.363   0.912   2.945 -0.2341 -0.5816  0.4205
   26DPPC   C47 1297   3.332   0.887   3.092  0.2310 -0.8781  0.4721
   26DPPC   C48 1298   3.191   0.946   3.102  0.4617 -0.3134  0.4074
   26DPPC   C49 1299   3.132   0.938   3.243  0.2319  0.0972  0.3381
   26DPPC   C50 1300   3.005   1.021   3.261  0.4924  0.6845 -0.4697
   27DPPC    C1 1301   3.706   0.311   1.639 -0.3054 -0.4258 -0.2731
   27DPPC    C2 1302   3.833   0.331   1.440  0.2647  0.4185  0.4670
   27DPPC    C3 1303   3.924   0.210   1.613  0.0919  0.2473 -0.2252
   27DPPC    N4 1304   3.843   0.329   1.587 -0.1022  0.2768  0.4919
   27DPPC    C5 1305   3.899   0.456   1.635  0.2628  0.4089 -0.2600
   27DPPC    C6 1306   3.822   0.587   1.615  0.1839  0.4044  0.0061
   27DPPC    O7 1307   3.795   0.657   1.737 -0.0272 -0.1316  0.2689
   27DPPC    P8 1308   3.652   0.730   1.746  0.0102 -0.0488  0.1944
   27DPPC    O9 1309   3.640   0.805   1.620 -0.3417 -0.3346  0.0541
   27DPPC   O10 1310   3.551   0.628   1.784 -0.2359  0.1028 -0.0505
   27DPPC   O11 1311   3.683   0.824   1.872 -0.6205 -0.0758  0.3760
   27DPPC   C12 1312   3.703   0.755   1.996 -0.4345 -0.3295  0.2046
   27DPPC   C13 1313   3.690   0.857   2.110 -0.0031 -0.0515  0.0090
   27DPPC   O14 1314   3.560   0.889   2.162  0.3403  0.1612  0.7297
   27DPPC   C15 1315   3.475   0.793   2.206  0.2468  0.0948  0.4040
   27DPPC   O16 1316   3.467   0.680   2.159  0.3398  0.3147 -0.1397
   27DPPC   C17 1317   3.362   0.852   2.290 -0.0303  0.4432 -0.2081
   27DPPC   C18 1318   3.298   0.753   2.388  0.3595  0.4824  0.0860
   27DPPC   C19 1319   3.176   0.821   2.450  0.3656  0.1148  0.5061
   27DPPC   C20 1320   3.131   0.750   2.578  0.1197 -1.1381 -0.2619
   27DPPC   C21 1321   2.985   0.763   2.622  0.2060 -0.2431 -0.2306
   27DPPC   C22 1322   2.953   0.664   2.734  0.2279 -0.3154 -0.2885
   27DPPC   C23 1323   2.813   0.674   2.795  0.5310  0.2882  0.3109
   27DPPC   C24 1324   2.801   0.599   2.928  0.5704  0.1504  0.2361
   27DPPC   C25 1325   2.665   0.629   2.991  0.3458 -0.4923  0.0677
   27DPPC   C26 1326   2.644   0.598   3.139 -0.3801  0.3291  0.1459
   27DPPC   C27 1327   2.752   0.663   3.226 -0.1270 -0.2709  0.2864
   27DPPC   C28 1328   2.695   0.689   3.366 -0.5564  0.1902  0.0288
   27DPPC   C29 1329   2.808   0.734   3.459 -0.1269  0.0839 -0.4348
   27DPPC   C30 1330   2.753   0.740   3.602 -0.0979 -0.0042 -0.4196
   27DPPC   C31 1331   2.867   0.787   3.692  0.1088  0.2323 -0.7997
   27DPPC   C32 1332   3.776   0.979   2.079  0.0073 -0.1061 -0.1819
   27DPPC   O33 1333   3.913   0.965   2.117  0.0055 -0.3130 -0.2537
   27DPPC   C34 1334   3.993   1.068   2.078 -0.3851  0.2472  0.4006
   27DPPC   O35 1335   3.944   1.171   2.034 -0.3842  0.1319  0.1262
   27DPPC   C36 1336   4.145   1.066   2.098 -0.3230 -0.2776 -0.0891
   27DPPC   C37 1337   4.183   1.110   2.239 -0.3740  0.2928 -0.2521
   27DPPC   C38 1338   4.137   1.012   2.347  0.1347  0.1221 -0.1869
   27DPPC   C39 1339   4.170   1.082   2.478 -0.6544 -0.3690  0.2802
   27DPPC   C40 1340   4.125   0.997   2.598  0.0601 -0.4086  0.5254
   27DPPC   C41 1341   4.188   0.858   2.592  0.1838 -0.3164 -0.4576
   27DPPC   C42 1342   4.104   0.769   2.683  0.3137 -0.3975 -0.4173
   27DPPC   C43 1343   4.197   0.662   2.740 -0.2239 -0.3321  0.6051
   27DPPC   C44 1344   4.257   0.560   2.643 -1.0786 -0.1464 -0.1264
   27DPPC   C45 1345   4.322   0.438   2.710  0.4160  0.4306 -0.4917
   27DPPC   C46 1346   4.324   0.329   2.603  0.1549 -0.1373  0.0789
   27DPPC   C47 1347   4.180   0.282   2.581  0.0681  0.0537  0.2340
   27DPPC   C48 1348   4.190   0.156   2.495 -0.0730  0.3966 -0.2864
   27DPPC   C49 1349   4.059   0.077   2.487 -0.3575  0.7981  0.3797
   27DPPC   C50 1350   4.006   0.080   2.344  0.0462  0.0520  0.2067
   28DPPC    C1 1351   4.063   3.821   1.249  0.5803  0.1311 -0.2820
   28DPPC    C2 1352   3.844   3.815   1.164 -0.4430  0.5839 -0.0249
   28DPPC    C3 1353   3.984   4.006   1.104 -0.1938 -0.0152  0.0852
   28DPPC    N4 1354   3.951   3.906   1.207  0.2052 -0.1984  0.0374
   28DPPC    C5 1355   3.898   3.972   1.327  0.2580  0.0049 -0.0507
   28DPPC    C6 1356   3.980   4.076   1.404  0.2993 -0.0296 -0.0482
   28DPPC    O7 1357   3.884   4.147   1.483  0.2590 -0.1498  0.0130
   28DPPC    P8 1358   3.964   4.226   1.598  0.0596 -0.3469  0.2876
   28DPPC    O9 1359   4.072   4.293   1.522 -0.2477  0.1544  0.2880
   28DPPC   O10 1360   3.858   4.312   1.655 -0.0064  0.0506 -0.4213
   28DPPC   O11 1361   3.992   4.086   1.672 -0.0066 -0.4403  0.1364
   28DPPC   C12 1362   3.890   4.066   1.771 -0.1107 -0.2294  0.0728
   28DPPC   C13 1363   3.892   3.929   1.839  0.2073 -0.0564  0.4160
   28DPPC   O14 1364   3.790   3.924   1.940  0.2014  0.1683  0.4198
   28DPPC   C15 1365   3.683   3.841   1.943  0.0739  0.3207  0.1289
   28DPPC   O16 1366   3.666   3.752   1.859  0.3974  0.0908  0.3080
   28DPPC   C17 1367   3.593   3.845   2.066 -0.2005  0.0321 -0.0620
   28DPPC   C18 1368   3.503   3.969   2.058  0.0788  0.2540  0.2151
   28DPPC   C19 1369   3.405   3.958   2.175 -0.7625 -0.4556 -0.5353
   28DPPC   C20 1370   3.355   4.099   2.207  0.2553 -0.1728 -0.1438
   28DPPC   C21 1371   3.293   4.121   2.345 -0.0376 -0.0425 -0.2955
   28DPPC   C22 1372   3.235   4.261   2.363 -0.0781 -0.1451  0.4266
   28DPPC   C23 1373   3.127   4.258   2.471 -0.5432  0.1163 -0.0244
   28DPPC   C24 1374   3.049   4.389   2.472 -0.8940 -0.0914  0.0192
   28DPPC   C25 1375   2.976   4.418   2.604 -0.3641 -0.0998  0.3175
   28DPPC   C26 1376   3.074   4.426   2.722 -0.0647 -0.4815  0.0982
   28DPPC   C27 1377   3.000   4.419   2.855  0.0648 -0.2059  0.1850
   28DPPC   C28 1378   2.965   4.274   2.892  0.1223 -0.2615  0.0207
   28DPPC   C29 1379   3.076   4.194   2.960  0.0164 -0.2336  0.2306
   28DPPC   C30 1380   3.019   4.157   3.097  0.2095 -0.1397  0.3367
   28DPPC   C31 1381   3.119   4.076   3.180  0.5408  0.4374  0.5062
   28DPPC   C32 1382   4.038   3.902   1.877  0.0887 -0.2500  0.7369
   28DPPC   O33 1383   4.076   3.987   1.986 -0.0457  0.0196  0.5771
   28DPPC   C34 1384   4.207   3.990   2.021  0.1905  0.0780 -0.2882
   28DPPC   O35 1385   4.295   3.947   1.946  0.7666  0.7557 -0.0191
   28DPPC   C36 1386   4.248   4.078   2.139 -0.4757 -0.0367  0.0310
   28DPPC   C37 1387   4.279   4.009   2.272  0.6511 -0.3919 -0.4094
   28DPPC   C38 1388   4.156   3.951   2.341  0.5724  0.0629 -0.1609
   28DPPC   C39 1389   4.188   3.905   2.483  0.0415  0.7242  0.1809
   28DPPC   C40 1390   4.087   3.810   2.549  0.3349 -0.0115 -0.4077
   28DPPC   C41 1391   4.052   3.860   2.689  0.3812 -0.3180 -0.2882
   28DPPC   C42 1392   3.940   3.778   2.754 -0.0539  0.5951  0.1340
   28DPPC   C43 1393   3.898   3.856   2.878 -0.4144  0.0896  0.3358
   28DPPC   C44 1394   3.807   3.763   2.958 -0.1651 -0.4864 -0.0428
   28DPPC   C45 1395   3.883   3.644   3.017  0.0862 -0.4182 -0.2278
   28DPPC   C46 1396   3.791   3.573   3.117  0.1814 -0.4215 -0.1432
   28DPPC   C47 1397   3.842   3.444   3.183  0.2577 -0.2791  0.0783
   28DPPC   C48 1398   3.737   3.374   3.270 -0.3446  0.2022 -0.2557
   28DPPC   C49 1399   3.786   3.244   3.334  0.0209  0.3203 -0.2923
   28DPPC   C50 1400   3.687   3.217   3.447 -0.1902  0.7460 -0.3733
   29DPPC    C1 1401   4.489   6.091   1.760 -0.0405  0.6572 -0.0962
   29DPPC    C2 1402   4.373   6.013   1.574  0.6731  0.3279 -0.2857
   29DPPC    C3 1403   4.598   5.936   1.625  0.2072 -0.2112  0.6380
   29DPPC    N4 1404   4.466   5.970   1.680  0.1802  0.4242  0.1904
   29DPPC    C5 1405   4.402   5.860   1.754  0.0280  0.1497 -0.3434
   29DPPC    C6 1406   4.370   5.731   1.677 -0.2522  0.0672 -0.0897
   29DPPC    O7 1407   4.263   5.739   1.583 -0.5299  0.0710  0.2235
   29DPPC    P8 1408   4.215   5.598   1.522  0.0773 -0.1307  0.2031
   29DPPC    O9 1409   4.090   5.639   1.453  0.1398 -0.3910 -0.0634
   29DPPC   O10 1410   4.346   5.562   1.463 -0.2581 -0.8157 -0.1380
   29DPPC   O11 1411   4.194   5.529   1.665 -0.5110 -0.1407  0.1149
   29DPPC   C12 1412   4.266   5.406   1.653 -0.1154  0.0803  0.1991
   29DPPC   C13 1413   4.288   5.353   1.795  0.5186  0.0201  0.0800
   29DPPC   O14 1414   4.337   5.218   1.797  0.1188 -0.1354 -0.3924
   29DPPC   C15 1415   4.463   5.192   1.841  0.0559  0.1397 -0.0473
   29DPPC   O16 1416   4.554   5.275   1.841  0.3161 -0.1469  0.4114
   29DPPC   C17 1417   4.499   5.044   1.852  0.1306  0.1522 -0.1205
   29DPPC   C18 1418   4.518   5.005   1.999 -0.1073  0.0710 -0.1100
   29DPPC   C19 1419   4.591   4.870   2.000  0.4431  0.3648  0.0005
   29DPPC   C20 1420   4.651   4.839   2.137  0.0895  0.3597  0.1568
   29DPPC   C21 1421   4.782   4.919   2.135  0.2575  0.0844 -0.1136
   29DPPC   C22 1422   4.852   4.901   2.270 -0.0821 -0.2744  0.0171
   29DPPC   C23 1423   4.999   4.871   2.242  0.0754  0.3665  0.1417
   29DPPC   C24 1424   5.074   4.858   2.375 -0.3322  0.3678  0.3720
   29DPPC   C25 1425   5.044   4.978   2.465 -0.2709  0.4716  0.2546
   29DPPC   C26 1426   5.122   4.947   2.593 -0.2012 -0.4433 -0.0040
   29DPPC   C27 1427   5.069   5.029   2.710 -0.0774  0.2404 -0.4169
   29DPPC   C28 1428   5.142   4.977   2.834 -0.8739 -0.4664 -0.2309
   29DPPC   C29 1429   5.108   5.054   2.962 -0.6156 -0.0918 -0.3864
   29DPPC   C30 1430   5.214   5.015   3.066 -0.5628  0.3400 -0.2752
   29DPPC   C31 1431   5.172   4.892   3.147 -0.2550  0.2693 -0.2227
   29DPPC   C32 1432   4.163   5.372   1.882  0.6684 -0.4783  0.4086
   29DPPC   O33 1433   4.169   5.367   2.025  0.4121  0.5346  0.4636
   29DPPC   C34 1434   4.053   5.394   2.091  0.2241  0.2621  0.2473
   29DPPC   O35 1435   3.958   5.402   2.014  0.6668 -0.0046 -0.3392
   29DPPC   C36 1436   4.048   5.401   2.244  0.3397  0.4126  0.2443
   29DPPC   C37 1437   4.000   5.541   2.283  0.2383  0.3650  0.2896
   29DPPC   C38 1438   3.973   5.536   2.434 -0.3020  0.2122  0.1909
   29DPPC   C39 1439   4.100   5.496   2.508 -0.4659 -0.3236  0.1877
   29DPPC   C40 1440   4.072   5.484   2.658  0.2407 -0.0278  0.3513
   29DPPC   C41 1441   4.192   5.411   2.718  0.6639  0.4568  0.1024
   29DPPC   C42 1442   4.184   5.365   2.864 -0.3042  0.1412 -0.0421
   29DPPC   C43 1443   4.324   5.328   2.913 -0.2404  0.3098 -0.0969
   29DPPC   C44 1444   4.332   5.300   3.063  0.7690 -0.3191 -0.2609
   29DPPC   C45 1445   4.223   5.204   3.110  0.3658  0.4549  0.4068
   29DPPC   C46 1446   4.224   5.175   3.260 -0.0056  0.3597  0.3917
   29DPPC   C47 1447   4.125   5.068   3.309  0.3341 -0.1375  0.0096
   29DPPC   C48 1448   3.988   5.098   3.249  0.3196 -0.4292 -0.1030
   29DPPC   C49 1449   3.908   4.968   3.238 -0.4185  0.0427 -0.4050
   29DPPC   C50 1450   3.767   4.997   3.187 -0.4270  0.8937  0.0930
   30DPPC    C1 1451   3.868   5.668   1.875  0.6240 -0.3925  0.0012
   30DPPC    C2 1452   3.718   5.825   1.795 -0.5266 -0.6980  0.0093
   30DPPC    C3 1453   3.819   5.672   1.649 -0.7177  0.2882  0.1342
   30DPPC    N4 1454   3.847   5.760   1.763 -0.1611 -0.1469  0.3443
   30DPPC    C5 1455   3.960   5.848   1.732 -0.6377  0.4283  0.2107
   30DPPC    C6 1456   4.022   5.931   1.845  0.0072 -0.1749  0.3051
   30DPPC    O7 1457   4.114   6.028   1.794 -0.5083 -0.0823 -0.4644
   30DPPC    P8 1458   4.055   6.177   1.784 -0.0345  0.1122 -0.3583
   30DPPC    O9 1459   4.146   6.264   1.706  0.0747  0.1653 -0.1746
   30DPPC   O10 1460   3.911   6.168   1.752 -0.1138  0.0106  0.0172
   30DPPC   O11 1461   4.062   6.226   1.938 -0.3256 -0.1000 -0.2759
   30DPPC   C12 1462   4.184   6.299   1.956 -0.4293 -0.0958  0.4381
   30DPPC   C13 1463   4.205   6.340   2.101 -0.2498  0.0397  0.3740
   30DPPC   O14 1464   4.295   6.453   2.107  0.0273 -0.1662  0.0949
   30DPPC   C15 1465   4.281   6.582   2.066  0.2026 -0.2242 -0.1502
   30DPPC   O16 1466   4.176   6.598   2.005 -0.0303  0.7452  0.4750
   30DPPC   C17 1467   4.376   6.688   2.123  0.1172 -0.4380  0.3933
   30DPPC   C18 1468   4.480   6.645   2.226  0.2201 -0.0671  0.4441
   30DPPC   C19 1469   4.602   6.576   2.164  0.0716  0.3684 -0.3328
   30DPPC   C20 1470   4.687   6.522   2.278 -0.0558 -0.0517 -0.4304
   30DPPC   C21 1471   4.586   6.433   2.350  0.2329 -0.0261  0.0158
   30DPPC   C22 1472   4.656   6.386   2.478  0.2721 -0.0286 -0.0066
   30DPPC   C23 1473   4.553   6.347   2.584  0.1218 -0.2241 -0.2200
   30DPPC   C24 1474   4.453   6.248   2.526 -0.3474  0.1404 -0.0461
   30DPPC   C25 1475   4.341   6.227   2.627  0.0209 -0.4363  0.2453
   30DPPC   C26 1476   4.232   6.142   2.562  0.0081 -0.0225 -0.2780
   30DPPC   C27 1477   4.104   6.138   2.647  0.3106 -0.2523  0.1707
   30DPPC   C28 1478   4.114   6.001   2.714 -0.0378 -0.5970 -0.4779
   30DPPC   C29 1479   4.013   5.997   2.828  0.4515 -0.0163 -0.0210
   30DPPC   C30 1480   4.009   5.860   2.895  0.1343  0.1644  0.3365
   30DPPC   C31 1481   4.148   5.825   2.948  0.3892  0.6573  0.0003
   30DPPC   C32 1482   4.251   6.212   2.171 -0.1470 -0.2294 -0.1846
   30DPPC   O33 1483   4.372   6.151   2.124  0.1128  0.3044 -0.2170
   30DPPC   C34 1484   4.408   6.035   2.183 -0.2457 -0.5954 -1.7134
   30DPPC   O35 1485   4.324   5.961   2.236  0.1380  0.3777  0.3565
   30DPPC   C36 1486   4.553   5.992   2.161  0.4079  0.4826  0.2996
   30DPPC   C37 1487   4.679   6.058   2.218  0.4361  0.5968  0.1067
   30DPPC   C38 1488   4.801   5.984   2.164  0.1137  0.0642  0.1090
   30DPPC   C39 1489   4.826   5.882   2.276  0.2914  0.2049  0.1991
   30DPPC   C40 1490   4.958   5.806   2.269  0.3649  0.3525 -0.0412
   30DPPC   C41 1491   4.991   5.718   2.391  0.0456  0.3331  0.0306
   30DPPC   C42 1492   5.015   5.802   2.517  0.8106 -0.1218  0.1921
   30DPPC   C43 1493   5.023   5.718   2.645  0.4616  0.0434  0.3247
   30DPPC   C44 1494   5.006   5.799   2.774  0.4295  0.7915 -0.1430
   30DPPC   C45 1495   4.900   5.737   2.865  0.2702  0.0151 -0.8410
   30DPPC   C46 1496   4.769   5.721   2.787  0.2836 -0.2818 -0.8040
   30DPPC   C47 1497   4.684   5.848   2.795 -0.3073 -0.7342  0.3043
   30DPPC   C48 1498   4.557   5.810   2.720 -0.3357 -0.5881  0.2781
   30DPPC   C49 1499   4.603   5.768   2.580  0.3101  0.0975  0.2769
   30DPPC   C50 1500   4.476   5.748   2.496  0.3458  0.1289  0.2149
   31DPPC    C1 1501   4.527   0.622   1.242 -0.0123 -0.4550  0.0622
   31DPPC    C2 1502   4.530   0.504   1.033  0.4433 -0.1733  0.1479
   31DPPC    C3 1503   4.370   0.434   1.190  0.1255 -0.1833  0.6670
   31DPPC    N4 1504   4.444   0.552   1.142  0.0748 -0.4282 -0.0283
   31DPPC    C5 1505   4.366   0.663   1.087  0.4061  0.0874  0.5242
   31DPPC    C6 1506   4.244   0.733   1.147  0.4269  0.4584  0.1397
   31DPPC    O7 1507   4.259   0.787   1.278 -0.2111 -0.0591  0.4350
   31DPPC    P8 1508   4.121   0.798   1.360 -0.5585 -0.2171 -0.1235
   31DPPC    O9 1509   4.031   0.886   1.283 -0.5427  0.0075  0.1093
   31DPPC   O10 1510   4.085   0.663   1.410 -0.6229 -0.1743 -0.0543
   31DPPC   O11 1511   4.179   0.874   1.490 -0.1667 -0.5964 -0.0751
   31DPPC   C12 1512   4.253   0.772   1.559  0.2853 -0.3416 -0.1799
   31DPPC   C13 1513   4.323   0.811   1.689  0.0910 -0.6096  0.0063
   31DPPC   O14 1514   4.239   0.815   1.805  0.0058  0.0741 -0.0741
   31DPPC   C15 1515   4.200   0.695   1.856 -0.0294 -0.1437 -0.6128
   31DPPC   O16 1516   4.228   0.588   1.802  0.0990 -0.5551  0.2460
   31DPPC   C17 1517   4.116   0.687   1.984  0.0253  0.3978 -0.5429
   31DPPC   C18 1518   4.190   0.635   2.107 -0.4155  0.7266 -0.1393
   31DPPC   C19 1519   4.309   0.730   2.129 -0.2296  0.4667 -0.0214
   31DPPC   C20 1520   4.370   0.701   2.266  0.0044  0.2569 -0.1692
   31DPPC   C21 1521   4.461   0.812   2.319 -0.9760  0.6847  0.6479
   31DPPC   C22 1522   4.530   0.766   2.448  0.2394 -0.3878 -0.3684
   31DPPC   C23 1523   4.619   0.863   2.526  0.0098 -0.4081 -0.0787
   31DPPC   C24 1524   4.673   0.792   2.650  0.1157 -0.2148 -0.0140
   31DPPC   C25 1525   4.784   0.867   2.723 -0.5432  0.4703  0.3038
   31DPPC   C26 1526   4.884   0.779   2.800  0.1552  0.3260 -0.7452
   31DPPC   C27 1527   5.016   0.850   2.834  0.2207 -0.2581  0.2576
   31DPPC   C28 1528   5.112   0.739   2.879  0.8685 -0.0493 -0.5878
   31DPPC   C29 1529   5.252   0.781   2.924  0.5414  0.3007  0.1222
   31DPPC   C30 1530   5.338   0.666   2.977  0.2502  0.0514  0.0609
   31DPPC   C31 1531   5.468   0.688   2.899  0.1761 -0.5173 -0.2302
   31DPPC   C32 1532   4.414   0.930   1.661  0.0136 -0.4801  0.3014
   31DPPC   O33 1533   4.520   0.895   1.572 -0.3460  0.2304 -0.4167
   31DPPC   C34 1534   4.585   0.996   1.507 -0.4859  0.4053 -0.2869
   31DPPC   O35 1535   4.530   1.105   1.498 -0.6902  0.3590  0.3852
   31DPPC   C36 1536   4.723   0.958   1.452 -0.3554  0.3111  0.0986
   31DPPC   C37 1537   4.836   1.028   1.528 -0.0692 -0.0521  0.0106
   31DPPC   C38 1538   4.843   0.998   1.677  0.2223 -0.2844 -0.0498
   31DPPC   C39 1539   4.971   1.063   1.730  0.0732 -0.4212  0.4891
   31DPPC   C40 1540   4.947   1.184   1.819  0.5634 -0.4121  0.6142
   31DPPC   C41 1541   5.080   1.254   1.847  0.2690  0.4716 -0.1356
   31DPPC   C42 1542   5.039   1.348   1.960  0.1864  0.4857 -0.1772
   31DPPC   C43 1543   5.138   1.348   2.076 -0.2317  0.1518  0.1811
   31DPPC   C44 1544   5.076   1.435   2.186  0.1733  0.7717 -0.0757
   31DPPC   C45 1545   5.081   1.586   2.161 -0.0526  0.8221  0.1825
   31DPPC   C46 1546   5.064   1.663   2.292  0.3490  0.3033  0.5418
   31DPPC   C47 1547   5.198   1.697   2.359  0.7440 -0.1469 -0.0037
   31DPPC   C48 1548   5.167   1.750   2.500 -0.1711 -0.4432 -0.0838
   31DPPC   C49 1549   5.302   1.796   2.555 -0.6144  0.2924  0.4007
   31DPPC   C50 1550   5.282   1.844   2.699 -0.3872 -0.3585  0.6522
   32DPPC    C1 1551   1.959   4.094   1.153  0.3386 -0.2130  0.4221
   32DPPC    C2 1552   2.185   4.069   1.089  0.2588  0.6785  0.1898
   32DPPC    C3 1553   2.048   4.200   0.959 -0.0776 -0.1697  0.3120
   32DPPC    N4 1554   2.075   4.165   1.100 -0.0039  0.3546  0.4288
   32DPPC    C5 1555   2.110   4.279   1.186  0.3014  0.7567 -0.2211
   32DPPC    C6 1556   2.012   4.389   1.227  0.3008  0.5760  0.2632
   32DPPC    O7 1557   1.954   4.461   1.118 -0.4805 -0.2070  0.1478
   32DPPC    P8 1558   1.905   4.594   1.196  0.0162 -0.0325  0.1699
   32DPPC    O9 1559   2.030   4.643   1.257  0.2159  0.2072 -0.4244
   32DPPC   O10 1560   1.838   4.664   1.084  0.1899  0.1070  0.1541
   32DPPC   O11 1561   1.798   4.545   1.306  0.1488 -0.0001  0.3130
   32DPPC   C12 1562   1.660   4.526   1.274  0.2726  0.0485 -0.2627
   32DPPC   C13 1563   1.577   4.461   1.385  0.2059  0.5363 -0.0275
   32DPPC   O14 1564   1.435   4.478   1.375  0.1489  0.1159  0.0813
   32DPPC   C15 1565   1.379   4.591   1.426 -0.4068 -0.2042  0.2023
   32DPPC   O16 1566   1.448   4.693   1.425 -0.4970 -0.1442 -0.0406
   32DPPC   C17 1567   1.230   4.585   1.458 -0.4238 -0.0626  0.1530
   32DPPC   C18 1568   1.166   4.709   1.520 -0.4733  0.0254 -0.0732
   32DPPC   C19 1569   1.032   4.681   1.588 -0.0968 -0.6914  0.3814
   32DPPC   C20 1570   1.008   4.780   1.702 -0.4462 -0.4564  0.1072
   32DPPC   C21 1571   0.958   4.715   1.831 -0.0414 -0.4247  0.2833
   32DPPC   C22 1572   0.924   4.809   1.946 -0.5756 -0.0868 -0.1455
   32DPPC   C23 1573   0.898   4.736   2.078  0.2275  0.2104  0.1871
   32DPPC   C24 1574   0.854   4.833   2.188 -0.4252 -0.0212  0.1370
   32DPPC   C25 1575   0.781   4.758   2.299 -0.4847 -0.3628 -0.1337
   32DPPC   C26 1576   0.757   4.857   2.413  0.1754 -0.0494 -0.2598
   32DPPC   C27 1577   0.706   4.800   2.546  0.3268  0.2224 -0.0856
   32DPPC   C28 1578   0.701   4.907   2.655 -0.1961  0.2986 -0.1805
   32DPPC   C29 1579   0.647   4.843   2.784  0.2569 -0.5832 -0.4239
   32DPPC   C30 1580   0.502   4.797   2.767  0.3082 -0.5460 -1.0114
   32DPPC   C31 1581   0.466   4.685   2.865  0.1509  0.5135  0.1704
   32DPPC   C32 1582   1.647   4.494   1.517  0.4427 -0.1149  0.0101
   32DPPC   O33 1583   1.597   4.414   1.624 -0.0566 -0.2999 -0.3590
   32DPPC   C34 1584   1.682   4.405   1.730 -0.1323 -0.3644 -0.3035
   32DPPC   O35 1585   1.784   4.473   1.723 -0.1781 -0.2295  0.3415
   32DPPC   C36 1586   1.661   4.285   1.822  0.1691 -0.0668  0.1543
   32DPPC   C37 1587   1.586   4.342   1.943 -0.1978  0.4157 -0.3003
   32DPPC   C38 1588   1.584   4.235   2.052  0.1631  0.5890 -0.1240
   32DPPC   C39 1589   1.526   4.308   2.174 -0.0663 -0.0535  0.1534
   32DPPC   C40 1590   1.605   4.432   2.215 -0.1894  0.1668 -0.2678
   32DPPC   C41 1591   1.547   4.487   2.346  0.9803  0.1460  0.2697
   32DPPC   C42 1592   1.606   4.622   2.386  0.3087  0.3865  0.4583
   32DPPC   C43 1593   1.745   4.597   2.445  0.7047  0.0984 -0.5692
   32DPPC   C44 1594   1.831   4.722   2.468  0.6067  0.1168 -0.2930
   32DPPC   C45 1595   1.899   4.718   2.604 -0.3092  0.4167  0.1849
   32DPPC   C46 1596   2.027   4.801   2.617 -0.1760  0.2025  0.2468
   32DPPC   C47 1597   2.004   4.938   2.554 -0.1652 -0.0051 -0.2147
   32DPPC   C48 1598   2.074   4.939   2.418 -0.0179 -0.1792 -0.1404
   32DPPC   C49 1599   2.053   5.078   2.357 -0.7187 -0.1968  0.0461
   32DPPC   C50 1600   1.903   5.102   2.347 -0.6899  0.0096  0.1149
   33DPPC    C1 1601   5.518   5.288   1.579  0.1735  0.1203 -0.0789
   33DPPC    C2 1602   5.536   5.244   1.801 -0.3720  0.2887  0.3746
   33DPPC    C3 1603   5.723   5.206   1.649 -0.4055  0.0449 -0.5934
   33DPPC    N4 1604   5.579   5.191   1.671 -0.2880  0.2808  0.4051
   33DPPC    C5 1605   5.552   5.051   1.636  0.0909  0.2190  0.3590
   33DPPC    C6 1606   5.410   4.996   1.647  0.1836 -0.0875  0.0354
   33DPPC    O7 1607   5.405   4.853   1.640 -0.0540 -0.0555 -0.5282
   33DPPC    P8 1608   5.264   4.797   1.587 -0.1877 -0.3605  0.1382
   33DPPC    O9 1609   5.204   4.876   1.477  0.3216 -0.4038 -0.1737
   33DPPC   O10 1610   5.288   4.653   1.566 -0.8149 -0.4467 -0.0256
   33DPPC   O11 1611   5.203   4.817   1.735 -0.2406  0.2883  0.0335
   33DPPC   C12 1612   5.268   4.719   1.816 -0.4649  0.2609  0.1802
   33DPPC   C13 1613   5.214   4.719   1.960  0.1744 -0.1701  0.4271
   33DPPC   O14 1614   5.075   4.690   1.984  0.1134  0.3531  0.7242
   33DPPC   C15 1615   5.048   4.559   2.006  0.2179  0.2539  0.2718
   33DPPC   O16 1616   5.117   4.475   1.948 -0.0311 -0.1012  0.4876
   33DPPC   C17 1617   4.905   4.525   2.047  0.2444  0.1376  0.2675
   33DPPC   C18 1618   4.896   4.470   2.190 -0.0020 -0.3128  0.0817
   33DPPC   C19 1619   4.756   4.425   2.233 -0.0438  0.2616  0.5609
   33DPPC   C20 1620   4.740   4.298   2.317 -0.2611  0.2213  0.4584
   33DPPC   C21 1621   4.600   4.274   2.375 -0.2620  0.2861  0.4829
   33DPPC   C22 1622   4.592   4.143   2.453 -0.4787 -0.1698 -0.2877
   33DPPC   C23 1623   4.482   4.151   2.559 -0.0453  0.4933  0.1243
   33DPPC   C24 1624   4.523   4.268   2.649  0.6625  0.1304  0.2829
   33DPPC   C25 1625   4.451   4.250   2.783 -0.3681  0.6082 -0.1956
   33DPPC   C26 1626   4.498   4.349   2.889  0.3791 -0.2126  0.2515
   33DPPC   C27 1627   4.424   4.320   3.020  0.2927 -0.2544  0.1922
   33DPPC   C28 1628   4.468   4.421   3.125  0.2473  0.1991 -0.2218
   33DPPC   C29 1629   4.618   4.412   3.151  0.2770 -0.3739 -0.5744
   33DPPC   C30 1630   4.648   4.524   3.251 -0.3375 -0.6065 -0.1277
   33DPPC   C31 1631   4.796   4.514   3.286 -0.3333  0.1786  0.0999
   33DPPC   C32 1632   5.239   4.864   2.003 -0.1804  0.0646 -0.1274
   33DPPC   O33 1633   5.369   4.882   2.060 -0.0005 -0.6327 -0.3057
   33DPPC   C34 1634   5.399   5.002   2.118 -0.0386 -0.7306 -0.0845
   33DPPC   O35 1635   5.319   5.094   2.104 -0.0985 -0.7299  0.2507
   33DPPC   C36 1636   5.534   5.032   2.182 -0.2930  0.1613  0.0451
   33DPPC   C37 1637   5.536   5.132   2.297  0.1382  0.6312 -0.3646
   33DPPC   C38 1638   5.646   5.113   2.402 -0.2136  0.4138 -0.0343
   33DPPC   C39 1639   5.619   4.983   2.478  0.7083  0.2917  0.0994
   33DPPC   C40 1640   5.726   4.956   2.584 -0.2207 -0.3259  0.9010
   33DPPC   C41 1641   5.686   4.832   2.663 -0.1207 -0.9876 -0.0772
   33DPPC   C42 1642   5.751   4.840   2.801 -0.0134 -0.2764 -0.1681
   33DPPC   C43 1643   5.694   4.726   2.886  0.1565 -0.0510  0.2563
   33DPPC   C44 1644   5.760   4.725   3.023  0.3383 -0.0142  0.1693
   33DPPC   C45 1645   5.699   4.624   3.120  0.4074 -0.1023  0.1216
   33DPPC   C46 1646   5.737   4.662   3.264 -1.4652  0.3758  0.5280
   33DPPC   C47 1647   5.697   4.555   3.366  0.2331 -0.3625  0.4681
   33DPPC   C48 1648   5.744   4.593   3.507  0.5602 -0.1748  0.3095
   33DPPC   C49 1649   5.694   4.490   3.607  0.2555 -0.2954  0.0357
   33DPPC   C50 1650   5.698   4.534   3.754 -0.0522  0.4478 -0.1765
   34DPPC    C1 1651   5.410   2.926   0.944  0.0955  0.1117  0.3814
   34DPPC    C2 1652   5.642   2.959   0.943 -0.4000  0.0196 -0.1503
   34DPPC    C3 1653   5.533   2.836   0.768  0.0947  0.3985  0.2554
   34DPPC    N4 1654   5.537   2.859   0.913 -0.1644 -0.3938  0.3932
   34DPPC    C5 1655   5.573   2.751   1.006  0.2872  0.0434  0.7353
   34DPPC    C6 1656   5.521   2.611   0.973 -0.0346  0.3744 -0.1833
   34DPPC    O7 1657   5.380   2.602   0.990 -0.0101  0.4455  0.0531
   34DPPC    P8 1658   5.344   2.445   0.991  0.1789  0.4018 -0.0791
   34DPPC    O9 1659   5.198   2.438   1.013  0.1430  0.1310 -0.4114
   34DPPC   O10 1660   5.396   2.378   0.870  0.3247 -0.1392  0.2796
   34DPPC   O11 1661   5.416   2.396   1.127 -0.0343  0.6477  0.1248
   34DPPC   C12 1662   5.337   2.431   1.241 -0.5400 -0.1644  0.0326
   34DPPC   C13 1663   5.358   2.332   1.356 -0.1119  0.3705  0.4183
   34DPPC   O14 1664   5.268   2.347   1.466  0.1214  0.3929  0.6062
   34DPPC   C15 1665   5.170   2.256   1.491  0.0894  0.1820 -0.2726
   34DPPC   O16 1666   5.173   2.148   1.433 -0.4510 -0.0016  0.0326
   34DPPC   C17 1667   5.081   2.291   1.610 -0.2509  0.0538 -0.4862
   34DPPC   C18 1668   5.149   2.377   1.717  0.4040 -0.7566 -0.2444
   34DPPC   C19 1669   5.066   2.364   1.845  0.4541  0.0378 -0.1258
   34DPPC   C20 1670   5.094   2.476   1.946 -0.5451  0.0019  0.1962
   34DPPC   C21 1671   5.007   2.455   2.070 -0.2585 -0.7530  0.2765
   34DPPC   C22 1672   5.039   2.545   2.189 -0.8732  0.2151 -0.2766
   34DPPC   C23 1673   4.995   2.484   2.322 -0.4865  0.0540 -0.2205
   34DPPC   C24 1674   5.005   2.572   2.447 -0.0090 -0.3756  0.0487
   34DPPC   C25 1675   4.942   2.499   2.566 -0.2873  0.2044  0.2637
   34DPPC   C26 1676   4.966   2.569   2.700  0.4605 -0.0884  0.2868
   34DPPC   C27 1677   4.936   2.476   2.817  0.2413 -0.2830  0.0767
   34DPPC   C28 1678   5.010   2.343   2.806  0.1710 -0.3141 -0.0203
   34DPPC   C29 1679   4.978   2.256   2.928  0.4441  0.0380  0.3045
   34DPPC   C30 1680   4.826   2.241   2.937  0.4924 -0.6449  0.0378
   34DPPC   C31 1681   4.786   2.122   3.024 -0.2823 -0.5236 -0.1498
   34DPPC   C32 1682   5.504   2.367   1.385  0.0667 -0.0855  0.0893
   34DPPC   O33 1683   5.529   2.491   1.452 -0.2639  0.0076  0.0393
   34DPPC   C34 1684   5.650   2.553   1.464 -0.2092 -0.0271 -0.3377
   34DPPC   O35 1685   5.747   2.518   1.398  0.0791 -0.4077  0.2752
   34DPPC   C36 1686   5.657   2.668   1.564 -0.5181 -0.5560  0.3001
   34DPPC   C37 1687   5.705   2.625   1.703 -0.0372 -0.3215  0.2103
   34DPPC   C38 1688   5.728   2.748   1.791  0.1263 -0.0538 -0.2037
   34DPPC   C39 1689   5.763   2.694   1.930  0.0396 -0.4248 -0.3259
   34DPPC   C40 1690   5.759   2.802   2.038 -0.5190 -0.5693 -0.1965
   34DPPC   C41 1691   5.804   2.728   2.164  0.0338  0.1820  0.0542
   34DPPC   C42 1692   5.779   2.830   2.276  0.4900  0.2491  0.0961
   34DPPC   C43 1693   5.788   2.744   2.402 -0.0355 -0.0572 -0.0713
   34DPPC   C44 1694   5.770   2.823   2.532  0.3497 -0.2911  0.1270
   34DPPC   C45 1695   5.792   2.746   2.662 -0.3348 -0.1940  0.3056
   34DPPC   C46 1696   5.765   2.814   2.796 -0.3084  0.0280  0.1980
   34DPPC   C47 1697   5.762   2.700   2.898  0.6086  0.1194  0.3320
   34DPPC   C48 1698   5.723   2.764   3.032  0.1828  0.3213  0.1128
   34DPPC   C49 1699   5.675   2.668   3.140  0.0410  0.6351  0.3307
   34DPPC   C50 1700   5.649   2.748   3.267 -0.2498  0.0826  0.6265
   35DPPC    C1 1701   5.242   3.970   1.289 -0.2165 -0.6037  0.0766
   35DPPC    C2 1702   5.423   4.096   1.413  0.0950 -0.1605 -0.6096
   35DPPC    C3 1703   5.453   3.947   1.240 -0.3192 -0.3886 -0.6395
   35DPPC    N4 1704   5.371   3.970   1.360  0.0560 -0.2277 -0.4122
   35DPPC    C5 1705   5.364   3.871   1.469 -0.0079 -0.2489 -0.4352
   35DPPC    C6 1706   5.398   3.727   1.430  0.1134 -0.4755  0.4922
   35DPPC    O7 1707   5.280   3.654   1.398 -0.0094 -0.1346  0.1604
   35DPPC    P8 1708   5.322   3.502   1.362  0.4120 -0.0715  0.3773
   35DPPC    O9 1709   5.195   3.434   1.329  0.3390 -0.1950  0.9077
   35DPPC   O10 1710   5.435   3.517   1.267  0.0310 -0.1160 -0.0861
   35DPPC   O11 1711   5.380   3.442   1.499  0.3079  0.3494  0.6087
   35DPPC   C12 1712   5.276   3.460   1.596 -0.2308 -0.1573  0.1334
   35DPPC   C13 1713   5.316   3.416   1.737 -0.3244 -0.3493  0.1001
   35DPPC   O14 1714   5.391   3.515   1.808  0.0596 -0.0938 -0.6488
   35DPPC   C15 1715   5.317   3.617   1.860 -0.1486 -0.6248  0.1172
   35DPPC   O16 1716   5.195   3.620   1.845 -0.1596  0.0159  0.3374
   35DPPC   C17 1717   5.399   3.717   1.941  0.0433 -0.4461 -0.2955
   35DPPC   C18 1718   5.415   3.656   2.080  0.4897  0.6777  0.1585
   35DPPC   C19 1719   5.527   3.706   2.172  0.5274  0.5495  0.1826
   35DPPC   C20 1720   5.548   3.618   2.295  0.0167 -0.2142 -0.2684
   35DPPC   C21 1721   5.643   3.687   2.393  0.0592 -0.4186 -0.1665
   35DPPC   C22 1722   5.646   3.613   2.527 -0.0060  0.1298  0.1408
   35DPPC   C23 1723   5.720   3.686   2.639  0.3486 -0.3842  0.2467
   35DPPC   C24 1724   5.697   3.612   2.771 -0.4704  0.2827  0.4843
   35DPPC   C25 1725   5.756   3.682   2.893  0.1578  0.6044 -0.0023
   35DPPC   C26 1726   5.733   3.597   3.018 -0.3512  0.3358 -0.2769
   35DPPC   C27 1727   5.809   3.676   3.125 -1.0237  0.3565  0.1878
   35DPPC   C28 1728   5.810   3.604   3.260 -0.0679  0.1996  0.1040
   35DPPC   C29 1729   5.689   3.630   3.350 -0.0699 -0.5879  0.3374
   35DPPC   C30 1730   5.715   3.571   3.488  0.4220 -0.3841  0.3313
   35DPPC   C31 1731   5.611   3.599   3.597 -0.3920 -0.6642 -0.3619
   35DPPC   C32 1732   5.393   3.284   1.727  0.4575  0.0879  0.2891
   35DPPC   O33 1733   5.318   3.164   1.751  0.5054 -0.0063 -0.0286
   35DPPC   C34 1734   5.389   3.049   1.767 -0.1510 -0.4491 -0.2627
   35DPPC   O35 1735   5.508   3.052   1.735 -0.1969  0.0098 -0.4001
   35DPPC   C36 1736   5.327   2.918   1.814  0.0698 -0.4184  0.1146
   35DPPC   C37 1737   5.284   2.931   1.960  0.1181  0.0581  0.0856
   35DPPC   C38 1738   5.136   2.970   1.962 -0.0381 -0.5175 -0.0985
   35DPPC   C39 1739   5.094   2.966   2.109 -0.4949 -0.0695 -0.2126
   35DPPC   C40 1740   5.163   3.067   2.201 -0.5812 -0.4371  0.2590
   35DPPC   C41 1741   5.131   3.032   2.347 -0.2491 -0.3791  0.3480
   35DPPC   C42 1742   4.978   3.033   2.360 -0.3353 -0.8638 -0.5446
   35DPPC   C43 1743   4.925   2.979   2.493 -0.0804  0.1800 -0.0066
   35DPPC   C44 1744   4.783   2.929   2.464 -0.1005  0.1021  0.2269
   35DPPC   C45 1745   4.733   2.851   2.586 -0.0390  0.2705  0.3602
   35DPPC   C46 1746   4.593   2.791   2.570  0.1307 -0.0826  0.1797
   35DPPC   C47 1747   4.551   2.708   2.691 -0.4884  0.1526  0.1295
   35DPPC   C48 1748   4.403   2.670   2.686 -0.3328 -0.4674  0.1852
   35DPPC   C49 1749   4.360   2.592   2.811  0.0677  0.0558  0.6564
   35DPPC   C50 1750   4.461   2.480   2.838  0.3973  0.2765  0.3576
   36DPPC    C1 1751   6.215   4.750   1.240  0.3920 -0.0247  0.4562
   36DPPC    C2 1752   5.982   4.790   1.196  0.2710 -0.4540 -0.4002
   36DPPC    C3 1753   6.140   4.954   1.138 -0.7866 -0.4795 -0.8624
   36DPPC    N4 1754   6.109   4.851   1.237  0.1659 -0.2747 -0.3419
   36DPPC    C5 1755   6.099   4.915   1.369 -0.1398  0.0619 -0.5247
   36DPPC    C6 1756   6.004   4.857   1.474  0.2811  0.0749 -0.1290
   36DPPC    O7 1757   6.052   4.731   1.520 -0.0512  0.0629  0.1924
   36DPPC    P8 1758   5.980   4.703   1.661  0.1026 -0.3958  0.1821
   36DPPC    O9 1759   5.850   4.772   1.651  0.1388 -0.3404  0.0962
   36DPPC   O10 1760   5.995   4.567   1.717  0.2442 -0.3560  0.2440
   36DPPC   O11 1761   6.097   4.786   1.735  0.1260 -0.1554 -0.1237
   36DPPC   C12 1762   6.173   4.692   1.812 -0.4202  0.0444  0.6687
   36DPPC   C13 1763   6.252   4.776   1.911 -0.3193  0.6505  0.0823
   36DPPC   O14 1764   6.357   4.715   1.988 -0.3856 -0.3319 -0.5901
   36DPPC   C15 1765   6.480   4.714   1.931 -0.0366 -0.5684  0.1485
   36DPPC   O16 1766   6.494   4.723   1.809 -0.4057  0.5349  0.1781
   36DPPC   C17 1767   6.598   4.677   2.020 -0.1563  0.3027  0.6793
   36DPPC   C18 1768   6.714   4.605   1.951 -0.4360  0.1122  0.4114
   36DPPC   C19 1769   6.816   4.553   2.052  0.2410  0.1052 -0.2653
   36DPPC   C20 1770   6.937   4.477   1.997  0.0875 -0.1269 -0.2797
   36DPPC   C21 1771   7.032   4.457   2.116 -0.1518  0.0525 -0.0554
   36DPPC   C22 1772   6.970   4.369   2.225  0.5576 -0.1031  0.2269
   36DPPC   C23 1773   7.071   4.382   2.339  0.3577  0.5825  0.3335
   36DPPC   C24 1774   7.053   4.283   2.455  0.2570  0.0954 -0.0971
   36DPPC   C25 1775   7.159   4.324   2.556 -0.2693 -0.0082  0.5042
   36DPPC   C26 1776   7.134   4.463   2.613  0.1377  0.0759  0.4872
   36DPPC   C27 1777   7.203   4.488   2.747  0.3487 -0.4530  0.4756
   36DPPC   C28 1778   7.144   4.416   2.869 -0.3539 -0.3496  0.1961
   36DPPC   C29 1779   7.237   4.442   2.988 -0.3481  0.0060  0.1165
   36DPPC   C30 1780   7.377   4.391   2.952 -0.4491 -0.2051  0.0158
   36DPPC   C31 1781   7.478   4.434   3.059  0.2087  0.3100 -0.8044
   36DPPC   C32 1782   6.127   4.817   1.989 -0.7540  0.3825 -0.4669
   36DPPC   O33 1783   6.046   4.710   2.037  0.3221 -0.1818  0.1457
   36DPPC   C34 1784   5.920   4.744   2.077  0.1615  0.1481 -0.6347
   36DPPC   O35 1785   5.876   4.859   2.086  0.2605  0.1069  0.4374
   36DPPC   C36 1786   5.834   4.641   2.150  0.0942  0.4298 -0.3138
   36DPPC   C37 1787   5.692   4.629   2.093 -0.1311 -0.1146  0.3566
   36DPPC   C38 1788   5.601   4.555   2.192 -0.4744  0.1011  0.2046
   36DPPC   C39 1789   5.601   4.611   2.335 -0.5923  0.4170  0.0823
   36DPPC   C40 1790   5.503   4.527   2.418  0.0449 -0.6872 -0.2639
   36DPPC   C41 1791   5.361   4.513   2.365  0.0621 -1.0606 -0.2150
   36DPPC   C42 1792   5.274   4.476   2.485 -0.0188 -0.0699  0.0422
   36DPPC   C43 1793   5.133   4.453   2.430 -0.0065  0.3989 -0.1869
   36DPPC   C44 1794   5.033   4.427   2.543  0.0637 -0.4870 -0.3215
   36DPPC   C45 1795   5.061   4.309   2.636  0.2671 -0.1543  0.0403
   36DPPC   C46 1796   4.937   4.274   2.719  0.1966 -0.4001 -0.1680
   36DPPC   C47 1797   4.977   4.168   2.822  0.2959 -0.6206 -0.4326
   36DPPC   C48 1798   4.847   4.112   2.879  0.1314  0.0555 -0.1272
   36DPPC   C49 1799   4.881   3.999   2.977 -0.3838  0.2015  0.2173
   36DPPC   C50 1800   4.954   3.880   2.916 -0.8437 -0.0591  0.1722
   37DPPC    C1 1801   5.592   1.605   0.807 -0.0001 -0.5608  0.5526
   37DPPC    C2 1802   5.605   1.833   0.798  0.6975 -0.3385  0.0516
   37DPPC    C3 1803   5.809   1.716   0.825  0.1854 -0.5297 -0.3660
   37DPPC    N4 1804   5.668   1.717   0.865  0.3112 -0.5267  0.0887
   37DPPC    C5 1805   5.630   1.730   1.006 -0.0527  0.3560 -0.0803
   37DPPC    C6 1806   5.626   1.865   1.078 -0.3161  0.3638 -0.1100
   37DPPC    O7 1807   5.749   1.929   1.115 -0.1603 -0.0126  0.0197
   37DPPC    P8 1808   5.711   2.065   1.191  0.1261  0.0826 -0.0079
   37DPPC    O9 1809   5.720   2.163   1.081  0.4777  0.6930  0.5578
   37DPPC   O10 1810   5.602   2.046   1.289 -0.0385 -0.5225 -0.3081
   37DPPC   O11 1811   5.848   2.048   1.273  0.3155 -0.7764 -0.4951
   37DPPC   C12 1812   5.835   1.931   1.355 -0.2550 -0.4356 -0.0967
   37DPPC   C13 1813   5.933   1.908   1.470 -0.2934 -0.4164 -0.0600
   37DPPC   O14 1814   5.932   1.774   1.521 -0.4985 -0.2835  0.2812
   37DPPC   C15 1815   6.047   1.704   1.502 -0.0618  0.5069 -0.0160
   37DPPC   O16 1816   6.123   1.729   1.409 -0.0883  0.3966 -0.0666
   37DPPC   C17 1817   6.080   1.614   1.622  0.4870  0.3596 -0.2749
   37DPPC   C18 1818   6.121   1.674   1.756 -0.2051  0.1511  0.0332
   37DPPC   C19 1819   6.132   1.562   1.860  0.1295  0.0841 -0.0729
   37DPPC   C20 1820   6.172   1.640   1.985  0.1816  0.0564 -0.0722
   37DPPC   C21 1821   6.180   1.572   2.122 -0.2981  0.2695  0.0634
   37DPPC   C22 1822   6.219   1.678   2.225  0.2991  0.1110  0.0021
   37DPPC   C23 1823   6.207   1.626   2.369 -0.2736 -0.3333 -0.2026
   37DPPC   C24 1824   6.102   1.704   2.449 -0.0619 -0.2157 -0.0366
   37DPPC   C25 1825   6.070   1.638   2.584 -0.2978 -0.1849 -0.0763
   37DPPC   C26 1826   5.974   1.734   2.654  0.1912  0.3351 -0.1127
   37DPPC   C27 1827   5.912   1.677   2.782  0.0354 -0.0294 -0.3520
   37DPPC   C28 1828   5.764   1.638   2.776  0.0146 -0.0123  0.0516
   37DPPC   C29 1829   5.738   1.504   2.707  0.8792  0.2182 -0.7403
   37DPPC   C30 1830   5.585   1.494   2.698  0.8300 -0.0389  0.3428
   37DPPC   C31 1831   5.523   1.500   2.838  0.3588  0.1909  0.1228
   37DPPC   C32 1832   5.914   2.023   1.568 -0.1920 -0.1269 -0.3783
   37DPPC   O33 1833   5.783   2.054   1.614 -0.1593 -0.4841 -0.0362
   37DPPC   C34 1834   5.746   2.150   1.703  0.0781  0.2454 -0.7092
   37DPPC   O35 1835   5.823   2.237   1.744 -0.1738  0.2753 -0.2930
   37DPPC   C36 1836   5.597   2.145   1.738  0.2602 -0.1773  0.0288
   37DPPC   C37 1837   5.569   2.158   1.888  0.8105 -0.5129  0.1654
   37DPPC   C38 1838   5.575   2.300   1.946 -0.0317 -0.2169 -0.4592
   37DPPC   C39 1839   5.532   2.304   2.093 -0.7284  0.2738 -0.6669
   37DPPC   C40 1840   5.495   2.447   2.134 -0.2210  0.3458 -0.4457
   37DPPC   C41 1841   5.438   2.461   2.275 -0.6605 -0.0833 -0.5752
   37DPPC   C42 1842   5.394   2.604   2.304 -0.0178 -0.0286  0.1680
   37DPPC   C43 1843   5.368   2.625   2.454  0.0434 -0.0442  0.1808
   37DPPC   C44 1844   5.359   2.776   2.479 -0.5259 -0.0281 -0.1144
   37DPPC   C45 1845   5.305   2.813   2.617  0.5363 -0.1040  0.3319
   37DPPC   C46 1846   5.384   2.736   2.723 -0.0590 -0.1702  0.7308
   37DPPC   C47 1847   5.366   2.809   2.857  0.2084  0.5248  0.3897
   37DPPC   C48 1848   5.218   2.791   2.893  0.1228  0.4213 -0.0037
   37DPPC   C49 1849   5.177   2.837   3.033  0.1562 -0.8409  0.4394
   37DPPC   C50 1850   5.029   2.819   3.066 -0.0387  0.2696  0.2090
   38DPPC    C1 1851   6.289   2.645   1.187  0.3159  0.4890 -0.0157
   38DPPC    C2 1852   6.326   2.519   0.994 -0.3996 -0.4764  0.4168
   38DPPC    C3 1853   6.137   2.473   1.078 -0.2481  0.4258 -0.1916
   38DPPC    N4 1854   6.222   2.592   1.067  0.0102  0.2823  0.2441
   38DPPC    C5 1855   6.161   2.694   0.980 -0.0082 -0.1842 -0.2901
   38DPPC    C6 1856   6.090   2.811   1.048 -0.1011 -0.1507 -0.4442
   38DPPC    O7 1857   5.969   2.769   1.113  0.5474 -0.1387  0.8081
   38DPPC    P8 1858   5.911   2.886   1.207  0.0353  0.2890 -0.0286
   38DPPC    O9 1859   5.911   3.015   1.135 -0.8240  0.1406 -0.3134
   38DPPC   O10 1860   5.786   2.836   1.268 -0.1395  0.6967 -0.0501
   38DPPC   O11 1861   6.022   2.892   1.324  0.2622 -0.7557 -0.1804
   38DPPC   C12 1862   6.003   2.786   1.418 -0.3861 -0.6635 -0.1991
   38DPPC   C13 1863   6.101   2.776   1.535  0.1710 -0.1306 -0.6126
   38DPPC   O14 1864   6.082   2.652   1.606 -0.0585 -0.1370 -0.6862
   38DPPC   C15 1865   6.150   2.545   1.558  0.4569 -0.1859  0.1544
   38DPPC   O16 1866   6.221   2.557   1.459 -0.0608  0.5136 -0.1389
   38DPPC   C17 1867   6.148   2.420   1.647 -0.0708 -0.6077 -0.4477
   38DPPC   C18 1868   6.089   2.438   1.787 -0.2692 -0.2518 -0.5752
   38DPPC   C19 1869   6.111   2.318   1.879 -0.5011  0.1812  0.0475
   38DPPC   C20 1870   6.049   2.328   2.019 -0.3246 -0.4680  0.1742
   38DPPC   C21 1871   6.064   2.197   2.098 -0.0173 -0.4548  0.1402
   38DPPC   C22 1872   6.031   2.225   2.245 -0.3990  0.7751 -0.1648
   38DPPC   C23 1873   5.897   2.285   2.288 -0.1999  0.8352  0.3787
   38DPPC   C24 1874   5.895   2.276   2.440 -0.2648  0.1842  0.3418
   38DPPC   C25 1875   5.754   2.319   2.483 -0.3067  0.6607 -0.2671
   38DPPC   C26 1876   5.721   2.300   2.631  0.1044 -0.1801 -0.2744
   38DPPC   C27 1877   5.589   2.368   2.669  0.1438  0.0255 -0.5007
   38DPPC   C28 1878   5.563   2.312   2.809 -0.1330  0.1290 -0.5106
   38DPPC   C29 1879   5.433   2.369   2.867 -0.1365 -0.1273 -0.2678
   38DPPC   C30 1880   5.432   2.325   3.014  0.1141  0.0656 -0.2069
   38DPPC   C31 1881   5.317   2.389   3.091  0.4160 -0.0858  0.3739
   38DPPC   C32 1882   6.068   2.906   1.608  0.3297 -0.2492 -0.3281
   38DPPC   O33 1883   6.138   2.926   1.731 -0.2848 -0.0723 -0.0026
   38DPPC   C34 1884   6.100   3.031   1.808 -0.3253 -0.3046  0.2968
   38DPPC   O35 1885   5.998   3.094   1.783 -0.0083  0.0743 -0.0539
   38DPPC   C36 1886   6.193   3.080   1.920  0.1152 -0.3999 -0.0227
   38DPPC   C37 1887   6.109   3.050   2.045 -0.3947  0.0336 -0.2553
   38DPPC   C38 1888   6.186   3.083   2.173 -0.4958  0.4049 -0.2891
   38DPPC   C39 1889   6.130   3.051   2.311  0.6225 -0.1223  0.0590
   38DPPC   C40 1890   6.199   3.103   2.437  0.3369  0.2160  0.0782
   38DPPC   C41 1891   6.102   3.117   2.555 -0.3375  0.4831 -0.4997
   38DPPC   C42 1892   6.022   3.247   2.557 -0.7098  0.2536 -0.5370
   38DPPC   C43 1893   5.943   3.241   2.688 -0.3890 -0.1646 -0.3629
   38DPPC   C44 1894   6.031   3.216   2.811  0.0110  0.0871 -0.5942
   38DPPC   C45 1895   5.942   3.223   2.936  0.4841  0.2632 -0.2656
   38DPPC   C46 1896   6.017   3.184   3.064  0.0751  0.1760 -0.0514
   38DPPC   C47 1897   5.941   3.195   3.196  0.3282 -0.3200  0.1374
   38DPPC   C48 1898   6.036   3.209   3.315  0.2316  0.3693  0.1366
   38DPPC   C49 1899   5.944   3.243   3.433  0.2738 -0.1596  0.3254
   38DPPC   C50 1900   5.998   3.183   3.562  0.2614  0.3061  0.5484
   39DPPC    C1 1901   5.847   3.401   1.245  0.3176 -0.5984 -0.0197
   39DPPC    C2 1902   5.849   3.497   1.476 -0.0031 -0.0400  0.2566
   39DPPC    C3 1903   5.702   3.329   1.433  0.0806 -0.2924 -0.3117
   39DPPC    N4 1904   5.833   3.379   1.390  0.0609  0.0920  0.0645
   39DPPC    C5 1905   5.930   3.279   1.439 -0.2579  0.0128  0.5384
   39DPPC    C6 1906   6.080   3.302   1.420 -0.3042  0.5780  0.8432
   39DPPC    O7 1907   6.139   3.185   1.475  0.0487  0.0425 -0.6186
   39DPPC    P8 1908   6.272   3.162   1.387  0.5803  0.1055  0.1498
   39DPPC    O9 1909   6.343   3.034   1.411  0.1208 -0.0706  0.5962
   39DPPC   O10 1910   6.240   3.203   1.248  0.3515 -0.5750 -0.0036
   39DPPC   O11 1911   6.356   3.279   1.458  0.1622  0.2961  0.3353
   39DPPC   C12 1912   6.397   3.221   1.582  0.5735 -0.6783 -0.2452
   39DPPC   C13 1913   6.455   3.325   1.678 -0.0478 -0.4299 -0.1348
   39DPPC   O14 1914   6.522   3.259   1.786  0.0270  0.1796  0.1936
   39DPPC   C15 1915   6.618   3.323   1.859  0.5685 -0.2815 -0.1071
   39DPPC   O16 1916   6.642   3.444   1.864  0.3575 -0.2294 -0.3325
   39DPPC   C17 1917   6.690   3.231   1.957 -0.2877 -0.7865  0.0624
   39DPPC   C18 1918   6.595   3.185   2.067 -0.5022 -0.9036 -0.1691
   39DPPC   C19 1919   6.583   3.294   2.175  0.4014 -0.5348 -0.4298
   39DPPC   C20 1920   6.706   3.316   2.262 -0.1431  0.2879  0.1444
   39DPPC   C21 1921   6.656   3.425   2.357  0.0630  0.4394  0.0790
   39DPPC   C22 1922   6.557   3.351   2.447  0.0530  0.4270  0.0577
   39DPPC   C23 1923   6.478   3.443   2.541  0.2249  0.1181  0.5050
   39DPPC   C24 1924   6.379   3.518   2.452  0.2560 -0.2087  0.1927
   39DPPC   C25 1925   6.274   3.612   2.510  0.4024  0.2364 -0.2494
   39DPPC   C26 1926   6.190   3.686   2.406 -0.0318 -0.3611 -0.3294
   39DPPC   C27 1927   6.305   3.736   2.319 -0.1495  0.1646 -0.1874
   39DPPC   C28 1928   6.264   3.816   2.195 -0.0904  0.1838 -0.1943
   39DPPC   C29 1929   6.399   3.851   2.131  0.0567 -0.1830 -0.0882
   39DPPC   C30 1930   6.457   3.725   2.067 -0.1533 -0.0764 -0.4939
   39DPPC   C31 1931   6.568   3.753   1.965 -0.1679  0.2017 -0.4348
   39DPPC   C32 1932   6.354   3.438   1.698  0.1507 -0.3219  0.2667
   39DPPC   O33 1933   6.229   3.392   1.752 -0.1285  0.2407  0.1138
   39DPPC   C34 1934   6.131   3.482   1.776  0.0182  0.5011 -0.2518
   39DPPC   O35 1935   6.140   3.604   1.769  0.5884  0.4700 -0.1088
   39DPPC   C36 1936   5.996   3.420   1.815  0.1189  0.2419 -0.3091
   39DPPC   C37 1937   5.960   3.464   1.958  0.4583 -0.5031  0.0117
   39DPPC   C38 1938   5.817   3.425   1.994 -0.0617  0.2419 -1.1690
   39DPPC   C39 1939   5.806   3.274   1.977  0.2781  0.0617  0.1038
   39DPPC   C40 1940   5.678   3.209   2.032  0.0199 -0.0477 -0.6079
   39DPPC   C41 1941   5.650   3.264   2.172  0.4355  0.0680 -0.5677
   39DPPC   C42 1942   5.522   3.192   2.215  0.6313  0.2326  0.3210
   39DPPC   C43 1943   5.475   3.246   2.350 -0.0152  0.5032 -0.0070
   39DPPC   C44 1944   5.558   3.195   2.468 -0.4489 -0.6136 -0.1728
   39DPPC   C45 1945   5.469   3.225   2.588  0.3009  0.0238  0.2314
   39DPPC   C46 1946   5.546   3.203   2.719  0.5451  0.7072  0.2100
   39DPPC   C47 1947   5.450   3.224   2.836 -0.0159 -0.1625 -0.0789
   39DPPC   C48 1948   5.539   3.229   2.961 -0.1240  0.4934 -0.0256
   39DPPC   C49 1949   5.441   3.187   3.070  0.0021  0.1445 -0.0454
   39DPPC   C50 1950   5.502   3.172   3.209 -0.0720  0.3706  0.0124
   40DPPC    C1 1951   0.173   3.361   1.055  0.0472 -0.4775  0.3284
   40DPPC    C2 1952   0.230   3.444   1.265  0.2752 -0.6710 -0.4742
   40DPPC    C3 1953   0.180   3.601   1.081  0.2627  0.2353 -0.2577
   40DPPC    N4 1954   0.148   3.473   1.146  0.3792  0.1607 -0.3452
   40DPPC    C5 1955   0.005   3.482   1.182  0.5822  0.0968  0.5001
   40DPPC    C6 1956  -0.043   3.585   1.284 -0.0890  0.5583 -0.2734
   40DPPC    O7 1957  -0.185   3.588   1.305  0.0347  0.3905  0.6416
   40DPPC    P8 1958  -0.247   3.712   1.223  0.0423 -0.1109 -0.1374
   40DPPC    O9 1959  -0.196   3.735   1.086 -0.0893 -0.6664 -0.2822
   40DPPC   O10 1960  -0.393   3.726   1.245  0.0905  0.1464  0.0145
   40DPPC   O11 1961  -0.196   3.837   1.311  0.2477 -0.1536 -0.1961
   40DPPC   C12 1962  -0.263   3.851   1.436  0.3708  0.5329 -0.2037
   40DPPC   C13 1963  -0.211   3.968   1.520  0.2125  0.4285  0.0430
   40DPPC   O14 1964  -0.252   3.968   1.657  0.6360  0.4264  0.1704
   40DPPC   C15 1965  -0.378   3.961   1.707  0.3839  1.0595 -0.3665
   40DPPC   O16 1966  -0.478   3.950   1.636  0.1815  0.3529  0.0189
   40DPPC   C17 1967  -0.390   3.980   1.859 -0.1472 -0.5172 -0.1961
   40DPPC   C18 1968  -0.470   3.868   1.925 -0.4035  0.0216  0.4124
   40DPPC   C19 1969  -0.496   3.917   2.068  0.1519  0.4113  0.3848
   40DPPC   C20 1970  -0.597   4.033   2.068  0.1677  0.4280 -0.2451
   40DPPC   C21 1971  -0.595   4.111   2.199 -0.3269  0.5645 -0.3194
   40DPPC   C22 1972  -0.474   4.203   2.215 -0.1004  0.1541  0.4005
   40DPPC   C23 1973  -0.439   4.218   2.363 -0.0583 -0.0569  0.4123
   40DPPC   C24 1974  -0.394   4.086   2.427  0.3395 -0.2202 -0.1948
   40DPPC   C25 1975  -0.370   4.095   2.578 -0.2523 -0.5606 -0.0804
   40DPPC   C26 1976  -0.315   3.969   2.644 -0.1170 -0.5645 -0.1995
   40DPPC   C27 1977  -0.359   3.973   2.791  1.3123 -0.6848  0.2428
   40DPPC   C28 1978  -0.306   4.098   2.860 -0.0694  0.3039 -0.4403
   40DPPC   C29 1979  -0.403   4.141   2.971 -0.1738 -0.0366 -0.3994
   40DPPC   C30 1980  -0.339   4.259   3.044 -0.6315  0.2435 -0.4492
   40DPPC   C31 1981  -0.432   4.312   3.153  0.3138  0.6950  0.1448
   40DPPC   C32 1982  -0.236   4.095   1.439 -0.4828  0.1832 -0.1346
   40DPPC   O33 1983  -0.221   4.211   1.521 -0.5348  0.1247 -0.0421
   40DPPC   C34 1984  -0.096   4.244   1.564 -0.2676 -0.9592  0.0329
   40DPPC   O35 1985  -0.001   4.209   1.494 -0.1162 -0.0543 -0.2168
   40DPPC   C36 1986  -0.084   4.334   1.687  0.3002 -0.5682 -0.3060
   40DPPC   C37 1987  -0.115   4.269   1.822  0.7723 -0.3094 -0.0703
   40DPPC   C38 1988  -0.081   4.361   1.940  0.2632 -0.4963  0.2271
   40DPPC   C39 1989  -0.074   4.269   2.061 -0.9315 -0.4982  0.3081
   40DPPC   C40 1990  -0.047   4.332   2.197  0.2005  0.2077 -0.2329
   40DPPC   C41 1991  -0.154   4.437   2.227  0.2805  0.1219  0.3731
   40DPPC   C42 1992  -0.110   4.508   2.355  0.5331  0.0578  0.3212
   40DPPC   C43 1993  -0.202   4.622   2.399  0.1763 -0.1705  0.1703
   40DPPC   C44 1994  -0.143   4.685   2.525 -0.3480 -0.2779  0.4702
   40DPPC   C45 1995  -0.123   4.578   2.632 -0.3240 -0.4468  0.2962
   40DPPC   C46 1996  -0.031   4.619   2.748 -0.6610  0.0835  0.3769
   40DPPC   C47 1997  -0.019   4.507   2.851  0.2664 -0.1553  0.0216
   40DPPC   C48 1998   0.097   4.541   2.945  0.4691  0.1711 -0.3467
   40DPPC   C49 1999   0.074   4.486   3.086  0.2082 -0.4348 -0.6202
   40DPPC   C50 2000   0.033   4.341   3.061  0.9175 -0.8512  0.5468
   41DPPC    C1 2001   0.836   2.386   1.255  0.1474  0.1827  0.1760
   41DPPC    C2 2002   1.018   2.237   1.280  0.1043 -0.2933 -1.4278
   41DPPC    C3 2003   0.919   2.257   1.069  0.1758 -0.7562 -0.2479
   41DPPC    N4 2004   0.888   2.255   1.213 -0.4037  0.1295 -0.3543
   41DPPC    C5 2005   0.807   2.141   1.259 -0.2344  0.0935 -0.1422
   41DPPC    C6 2006   0.671   2.111   1.195 -0.3029 -0.3123  0.1895
   41DPPC    O7 2007   0.581   2.221   1.210 -0.0571 -0.0491 -0.2250
   41DPPC    P8 2008   0.428   2.184   1.175 -0.1628  0.1055  0.0692
   41DPPC    O9 2009   0.333   2.296   1.164  0.1986  0.4978  0.8810
   41DPPC   O10 2010   0.441   2.074   1.076  0.3147  0.3703 -0.1652
   41DPPC   O11 2011   0.408   2.112   1.318 -0.4465  0.2468  0.1004
   41DPPC   C12 2012   0.377   2.221   1.406 -1.3055  0.2486 -0.1928
   41DPPC   C13 2013   0.367   2.176   1.551  0.1519 -0.1731 -0.2081
   41DPPC   O14 2014   0.327   2.287   1.634  0.3599 -0.4356  0.2485
   41DPPC   C15 2015   0.414   2.369   1.699  0.0036  0.1923 -0.0618
   41DPPC   O16 2016   0.523   2.392   1.646 -0.2499  0.3247 -0.5371
   41DPPC   C17 2017   0.355   2.466   1.801 -0.8483 -0.0621 -0.3003
   41DPPC   C18 2018   0.271   2.568   1.724 -0.2784  0.3232 -0.4282
   41DPPC   C19 2019   0.218   2.683   1.810 -0.1061  0.2426 -0.2154
   41DPPC   C20 2020   0.156   2.621   1.936  0.2762  0.6026  0.1530
   41DPPC   C21 2021   0.065   2.720   2.008  0.0983  0.3139  0.3295
   41DPPC   C22 2022  -0.042   2.650   2.091  0.1883 -0.2392 -0.0141
   41DPPC   C23 2023  -0.015   2.665   2.241  0.1394 -0.3311  0.0043
   41DPPC   C24 2024  -0.132   2.621   2.330  0.4577 -0.1747  0.5076
   41DPPC   C25 2025  -0.108   2.675   2.471 -0.5375  0.2383  0.5225
   41DPPC   C26 2026  -0.206   2.613   2.571 -0.7092  0.0266  0.2258
   41DPPC   C27 2027  -0.148   2.624   2.712  0.1046  0.3657 -0.1288
   41DPPC   C28 2028  -0.229   2.543   2.813  0.4718 -0.2663 -0.3332
   41DPPC   C29 2029  -0.177   2.548   2.957 -0.5032  0.0459  0.0157
   41DPPC   C30 2030  -0.068   2.442   2.967 -0.2892  0.2851  0.2351
   41DPPC   C31 2031  -0.005   2.447   3.107  0.3653 -0.7412 -0.0066
   41DPPC   C32 2032   0.493   2.093   1.578  0.4247  0.2380 -0.2034
   41DPPC   O33 2033   0.480   2.014   1.697  0.1464  0.2399 -0.2315
   41DPPC   C34 2034   0.597   1.991   1.762  0.0648  0.5523  0.0281
   41DPPC   O35 2035   0.700   1.993   1.694  0.0200  0.1927 -0.0500
   41DPPC   C36 2036   0.600   1.914   1.895 -0.1816 -0.1210 -0.3492
   41DPPC   C37 2037   0.470   1.852   1.945  0.1727 -0.1761  0.5111
   41DPPC   C38 2038   0.482   1.802   2.089  0.1074  0.0826  0.6063
   41DPPC   C39 2039   0.341   1.763   2.134 -0.2537  0.0499 -0.5276
   41DPPC   C40 2040   0.341   1.682   2.263 -0.0872  0.7417 -0.0854
   41DPPC   C41 2041   0.289   1.762   2.382 -0.3005 -0.0176  0.3425
   41DPPC   C42 2042   0.302   1.682   2.512  0.5851 -0.6127 -0.1109
   41DPPC   C43 2043   0.223   1.551   2.514 -0.4815  0.0206 -0.3190
   41DPPC   C44 2044   0.245   1.484   2.649  0.4745 -0.0071 -0.4841
   41DPPC   C45 2045   0.219   1.582   2.764 -0.5576  0.1456 -0.8415
   41DPPC   C46 2046   0.073   1.611   2.798 -0.3428  0.3174 -0.0589
   41DPPC   C47 2047   0.065   1.696   2.925 -0.5926 -0.3426  0.3711
   41DPPC   C48 2048   0.114   1.618   3.047  0.0021 -0.0758  0.3066
   41DPPC   C49 2049   0.111   1.715   3.166 -0.4507 -0.0338  0.2659
   41DPPC   C50 2050   0.161   1.639   3.289 -0.3117 -0.0378  0.2075
   42DPPC    C1 2051   0.713   2.915   1.246 -0.1572 -0.2608  0.1022
   42DPPC    C2 2052   0.698   2.959   1.480 -0.8278  0.6283 -0.2082
   42DPPC    C3 2053   0.858   3.061   1.329  0.0232  0.3614  0.2019
   42DPPC    N4 2054   0.717   3.021   1.348  0.0131  0.1391 -0.3192
   42DPPC    C5 2055   0.633   3.134   1.307  0.3184  0.3600 -0.3413
   42DPPC    C6 2056   0.628   3.271   1.374 -0.1473  0.1765  0.0024
   42DPPC    O7 2057   0.570   3.266   1.505 -0.2157  0.0731 -0.0317
   42DPPC    P8 2058   0.586   3.398   1.596  0.2426 -0.0002 -0.0042
   42DPPC    O9 2059   0.727   3.434   1.569  0.1112  0.0436 -0.6470
   42DPPC   O10 2060   0.471   3.482   1.556  0.2865  0.0390 -0.0496
   42DPPC   O11 2061   0.570   3.313   1.731 -0.2690 -0.2259 -0.2061
   42DPPC   C12 2062   0.698   3.258   1.763 -0.2763  0.1583  0.5050
   42DPPC   C13 2063   0.710   3.177   1.892 -0.5811 -0.2253  0.2945
   42DPPC   O14 2064   0.621   3.065   1.899 -0.5242 -0.2743  0.2329
   42DPPC   C15 2065   0.674   2.940   1.899  0.1242 -0.0021 -0.0500
   42DPPC   O16 2066   0.767   2.916   1.822  0.4877 -0.0304  0.3920
   42DPPC   C17 2067   0.581   2.835   1.960  0.0278  0.1601  0.0806
   42DPPC   C18 2068   0.517   2.866   2.095  1.1036 -0.4956  0.7556
   42DPPC   C19 2069   0.433   2.756   2.161  0.0787 -0.1313  0.0927
   42DPPC   C20 2070   0.357   2.789   2.289  0.1101  0.2792  0.0088
   42DPPC   C21 2071   0.452   2.851   2.391  0.3169 -0.2431  0.1360
   42DPPC   C22 2072   0.403   2.848   2.536 -0.4459 -0.0725 -0.1150
   42DPPC   C23 2073   0.296   2.955   2.558 -0.4937 -0.2170  0.3894
   42DPPC   C24 2074   0.216   2.947   2.688 -0.0340  0.3122  0.7087
   42DPPC   C25 2075   0.099   3.044   2.700 -0.0709  0.3783 -0.1217
   42DPPC   C26 2076   0.030   3.028   2.836  0.3350  0.0498  0.0457
   42DPPC   C27 2077   0.136   3.007   2.945  0.4641  0.4920  0.0082
   42DPPC   C28 2078   0.063   3.001   3.079 -0.1068  0.4350 -0.2980
   42DPPC   C29 2079   0.176   2.991   3.182 -0.5049 -0.3771  0.0590
   42DPPC   C30 2080   0.228   2.850   3.215  0.0962 -0.3783 -0.8828
   42DPPC   C31 2081   0.369   2.832   3.272 -0.0072  0.1983 -0.4334
   42DPPC   C32 2082   0.687   3.274   2.008  0.2937  0.2121  0.1150
   42DPPC   O33 2083   0.770   3.390   2.012  0.3976  0.1334  0.2581
   42DPPC   C34 2084   0.719   3.475   2.106 -0.0721 -0.5519  0.6348
   42DPPC   O35 2085   0.605   3.518   2.092  0.2326  0.3275  0.7957
   42DPPC   C36 2086   0.826   3.572   2.157 -0.0970 -0.2589  0.1407
   42DPPC   C37 2087   0.785   3.651   2.282 -0.4092 -0.0165 -0.1119
   42DPPC   C38 2088   0.901   3.708   2.364 -0.5023 -0.2818  0.2098
   42DPPC   C39 2089   0.842   3.723   2.504 -0.4099  0.2157  0.1967
   42DPPC   C40 2090   0.739   3.834   2.525 -0.3923  0.3110 -0.2131
   42DPPC   C41 2091   0.728   3.848   2.677  0.5422 -0.4801 -0.0625
   42DPPC   C42 2092   0.633   3.959   2.723 -0.2267 -0.9895 -0.3927
   42DPPC   C43 2093   0.608   3.938   2.873 -0.4108 -0.1661 -0.3034
   42DPPC   C44 2094   0.495   4.027   2.925  0.3195  0.5898  0.0051
   42DPPC   C45 2095   0.470   3.980   3.068 -0.1634  0.1225 -0.2302
   42DPPC   C46 2096   0.388   4.070   3.160  0.1907 -0.1228  0.3342
   42DPPC   C47 2097   0.386   4.021   3.305 -0.5564 -0.1986  0.3022
   42DPPC   C48 2098   0.378   4.129   3.413 -0.4308  0.0443  0.0674
   42DPPC   C49 2099   0.443   4.094   3.547  0.1470  0.3128 -0.1338
   42DPPC   C50 2100   0.386   4.182   3.659  0.2791 -0.0401  0.2153
   43DPPC    C1 2101   0.998   3.981   1.474 -0.2705  0.4678  0.0845
   43DPPC    C2 2102   0.767   3.923   1.456  0.1144  0.5002  0.0465
   43DPPC    C3 2103   0.945   3.787   1.363  1.0724 -0.0976  0.6998
   43DPPC    N4 2104   0.896   3.923   1.385  0.1510 -0.3258  0.1043
   43DPPC    C5 2105   0.878   3.980   1.251 -0.3274  0.2193  0.3919
   43DPPC    C6 2106   0.834   4.124   1.226 -0.1513  0.2119  0.0214
   43DPPC    O7 2107   0.920   4.233   1.260  0.0189  0.1664 -0.2634
   43DPPC    P8 2108   0.833   4.365   1.288 -0.3592 -0.1183 -0.0862
   43DPPC    O9 2109   0.940   4.466   1.305 -0.1819 -0.3630  0.2490
   43DPPC   O10 2110   0.740   4.370   1.173 -0.6303  0.3495  0.1495
   43DPPC   O11 2111   0.752   4.332   1.423 -0.3056 -0.1920 -0.0720
   43DPPC   C12 2112   0.834   4.336   1.540 -0.0105 -0.2829 -0.2728
   43DPPC   C13 2113   0.758   4.347   1.673  0.1365  0.0350 -0.2150
   43DPPC   O14 2114   0.708   4.230   1.740  0.1026  0.0183 -0.2695
   43DPPC   C15 2115   0.802   4.145   1.790  0.1918  0.2408 -0.0545
   43DPPC   O16 2116   0.921   4.140   1.760  0.1366  1.0854 -0.4556
   43DPPC   C17 2117   0.752   4.034   1.883 -0.0951  0.3360 -0.0931
   43DPPC   C18 2118   0.635   4.053   1.979  0.6688  0.0033  0.9291
   43DPPC   C19 2119   0.609   3.912   2.031 -0.6196 -0.3770 -0.6422
   43DPPC   C20 2120   0.488   3.892   2.122 -0.2765 -0.4088 -0.1883
   43DPPC   C21 2121   0.465   3.998   2.230 -0.0955 -0.3524 -0.2054
   43DPPC   C22 2122   0.333   3.985   2.306 -0.2057 -0.1849 -0.3672
   43DPPC   C23 2123   0.347   3.902   2.434 -0.4665  0.4270  0.0614
   43DPPC   C24 2124   0.219   3.880   2.516 -0.5251 -0.3676 -0.2400
   43DPPC   C25 2125   0.264   3.808   2.643 -0.6210 -0.4926 -0.2773
   43DPPC   C26 2126   0.149   3.789   2.742 -0.1183  0.1606  0.4413
   43DPPC   C27 2127   0.191   3.754   2.885  0.0448  0.2085  0.4049
   43DPPC   C28 2128   0.131   3.618   2.919 -0.0614  0.0585 -0.3743
   43DPPC   C29 2129   0.141   3.561   3.061 -0.9533  0.2593 -0.2288
   43DPPC   C30 2130   0.055   3.437   3.082 -0.4041 -0.1233 -0.2220
   43DPPC   C31 2131   0.047   3.378   3.224  0.3505 -0.0487 -0.1452
   43DPPC   C32 2132   0.641   4.443   1.654  0.0366  0.0247  0.3341
   43DPPC   O33 2133   0.681   4.579   1.637  0.2644 -0.0588  0.2046
   43DPPC   C34 2134   0.596   4.663   1.573 -0.0529 -0.2321  0.3917
   43DPPC   O35 2135   0.508   4.608   1.507 -0.1731 -0.2569  0.5727
   43DPPC   C36 2136   0.635   4.808   1.540 -0.3678 -0.2759 -0.1929
   43DPPC   C37 2137   0.529   4.911   1.581  0.2505  0.3211 -0.0779
   43DPPC   C38 2138   0.504   4.894   1.731  0.0509  0.5904 -0.0815
   43DPPC   C39 2139   0.400   4.996   1.779 -0.1760  0.1971  0.2675
   43DPPC   C40 2140   0.389   5.013   1.931  0.2311  0.1496  0.3053
   43DPPC   C41 2141   0.520   5.051   2.000  0.5434 -0.2534 -0.0620
   43DPPC   C42 2142   0.498   5.110   2.140 -0.5229  0.0223 -0.3352
   43DPPC   C43 2143   0.412   5.005   2.209  0.3120 -0.4211  0.0532
   43DPPC   C44 2144   0.389   5.054   2.352  0.5637  0.2175 -0.1197
   43DPPC   C45 2145   0.307   4.948   2.426  0.3724  0.3215 -0.1799
   43DPPC   C46 2146   0.369   4.809   2.404 -0.0376  0.0419  0.3889
   43DPPC   C47 2147   0.286   4.696   2.464 -0.3459  0.3509  0.5489
   43DPPC   C48 2148   0.366   4.566   2.464 -0.5163  0.2464  0.5019
   43DPPC   C49 2149   0.277   4.448   2.505 -0.7148  0.3968  0.5073
   43DPPC   C50 2150   0.346   4.359   2.608  0.1205  0.1042 -0.2818
   44DPPC    C1 2151   0.074   1.754   1.008 -0.5779 -0.5602  0.1719
   44DPPC    C2 2152  -0.003   1.874   1.196  0.7920 -0.0619  0.0070
   44DPPC    C3 2153   0.230   1.826   1.175  0.4081 -0.5159 -0.5296
   44DPPC    N4 2154   0.095   1.774   1.153  0.3200 -0.5436  0.0458
   44DPPC    C5 2155   0.058   1.654   1.230  0.3376 -0.4645  0.1769
   44DPPC    C6 2156   0.109   1.515   1.192 -0.1944 -0.4863 -0.4683
   44DPPC    O7 2157   0.240   1.489   1.242 -0.3040 -0.2764 -0.0663
   44DPPC    P8 2158   0.299   1.357   1.170 -0.0978 -0.3023  0.1493
   44DPPC    O9 2159   0.185   1.264   1.161  0.2848 -0.7400 -0.2447
   44DPPC   O10 2160   0.363   1.410   1.046  0.0366 -0.0875  0.3091
   44DPPC   O11 2161   0.421   1.314   1.266 -0.0102 -0.2692  0.0539
   44DPPC   C12 2162   0.366   1.252   1.382 -0.6901  0.1105 -0.0621
   44DPPC   C13 2163   0.476   1.235   1.486 -0.3118  1.1030 -0.2948
   44DPPC   O14 2164   0.438   1.172   1.609  0.4217  0.1859 -0.5237
   44DPPC   C15 2165   0.533   1.112   1.687  0.3530  1.0691  0.2628
   44DPPC   O16 2166   0.648   1.114   1.645  0.0891 -0.1315 -0.5848
   44DPPC   C17 2167   0.509   1.058   1.828 -0.1669  0.6944  0.0336
   44DPPC   C18 2168   0.457   0.914   1.834  0.2519  0.5537  0.3516
   44DPPC   C19 2169   0.443   0.844   1.969  0.3105 -0.4747 -0.1683
   44DPPC   C20 2170   0.371   0.926   2.075 -0.3378 -0.8140 -0.3418
   44DPPC   C21 2171   0.341   0.851   2.205 -0.0334 -0.3685 -0.0106
   44DPPC   C22 2172   0.272   0.957   2.291 -0.3543 -0.6249  0.0506
   44DPPC   C23 2173   0.218   0.893   2.419  0.1702 -0.2066  0.4875
   44DPPC   C24 2174   0.146   1.012   2.484 -0.0322 -0.2115  0.2767
   44DPPC   C25 2175   0.046   1.074   2.387  0.2008 -0.0204  0.1573
   44DPPC   C26 2176  -0.040   1.181   2.453 -0.0227  0.0133 -0.1860
   44DPPC   C27 2177  -0.079   1.137   2.594 -0.5239 -0.0983 -0.3570
   44DPPC   C28 2178  -0.166   1.241   2.664 -0.4016 -0.1236 -0.1670
   44DPPC   C29 2179  -0.183   1.198   2.810 -0.2530 -0.7215 -0.3245
   44DPPC   C30 2180  -0.232   1.307   2.905 -0.1865 -0.4901 -0.5537
   44DPPC   C31 2181  -0.209   1.275   3.053 -0.0212 -0.2069 -0.5162
   44DPPC   C32 2182   0.521   1.381   1.496  0.2076  0.9235  0.0751
   44DPPC   O33 2183   0.417   1.466   1.546 -0.1389  0.4775  0.1241
   44DPPC   C34 2184   0.440   1.598   1.573 -0.4605  0.6777 -0.5573
   44DPPC   O35 2185   0.539   1.656   1.529  0.2170 -0.3340 -0.4023
   44DPPC   C36 2186   0.313   1.671   1.616 -0.4929  0.0473  0.4591
   44DPPC   C37 2187   0.292   1.796   1.531 -0.2061 -0.0420  0.2594
   44DPPC   C38 2188   0.149   1.845   1.552 -0.3446 -0.3066 -0.0578
   44DPPC   C39 2189   0.121   1.877   1.699  0.5565 -0.1602  0.0909
   44DPPC   C40 2190   0.026   1.996   1.710 -0.2119 -0.6939 -0.5294
   44DPPC   C41 2191   0.005   2.027   1.859 -0.3207  0.2296 -0.7325
   44DPPC   C42 2192   0.131   2.068   1.934 -0.5823  0.5517 -0.4660
   44DPPC   C43 2193   0.091   2.133   2.067  0.5986 -0.4763  0.4143
   44DPPC   C44 2194   0.036   2.028   2.164 -0.8680 -0.0433  0.0755
   44DPPC   C45 2195   0.031   2.088   2.305  0.2806  0.1908  0.0283
   44DPPC   C46 2196  -0.043   2.007   2.412 -0.1039  0.2044 -0.2274
   44DPPC   C47 2197  -0.103   2.106   2.512 -0.2969  0.0081 -0.1482
   44DPPC   C48 2198  -0.168   2.024   2.624  0.6268 -0.2875  0.1799
   44DPPC   C49 2199  -0.183   2.122   2.741 -0.3081  0.4794 -0.5674
   44DPPC   C50 2200  -0.218   2.052   2.873  0.0082  0.1818 -0.6400
   45DPPC    C1 2201   1.644   2.027   1.475  0.2917  0.0331  0.1277
   45DPPC    C2 2202   1.726   1.944   1.262 -0.2102 -0.1530  0.3070
   45DPPC    C3 2203   1.554   1.840   1.372  0.5454 -0.0733 -0.0788
   45DPPC    N4 2204   1.607   1.974   1.343 -0.1995  0.2814  0.1631
   45DPPC    C5 2205   1.496   2.047   1.281 -0.1168  0.2734  0.0040
   45DPPC    C6 2206   1.535   2.193   1.261  0.3463  0.1556  0.0333
   45DPPC    O7 2207   1.471   2.267   1.365  0.6244  0.1277  0.2228
   45DPPC    P8 2208   1.443   2.419   1.322  0.1261 -0.0769 -0.1733
   45DPPC    O9 2209   1.568   2.466   1.259  0.1223  0.2492  0.0579
   45DPPC   O10 2210   1.329   2.398   1.229 -0.2419  0.0789  0.2352
   45DPPC   O11 2211   1.398   2.493   1.458 -0.1364  0.3245 -0.4752
   45DPPC   C12 2212   1.279   2.421   1.490 -0.0058  0.4179  0.2234
   45DPPC   C13 2213   1.225   2.462   1.628  0.2955 -0.3574  0.5766
   45DPPC   O14 2214   1.121   2.373   1.670 -0.4977  0.2865 -0.0054
   45DPPC   C15 2215   0.994   2.384   1.621 -0.3880  0.2104 -0.3112
   45DPPC   O16 2216   0.973   2.445   1.517 -0.1631  0.4086 -0.2426
   45DPPC   C17 2217   0.888   2.301   1.694 -0.0221 -0.1682 -0.2071
   45DPPC   C18 2218   0.818   2.372   1.810  0.0601 -0.2058 -0.1343
   45DPPC   C19 2219   0.885   2.367   1.948 -0.3389  0.1807  0.0744
   45DPPC   C20 2220   0.792   2.427   2.053 -0.5883  0.6097 -0.3874
   45DPPC   C21 2221   0.669   2.336   2.064  0.0654 -0.2317  0.0439
   45DPPC   C22 2222   0.591   2.373   2.190 -0.1832 -0.1210 -0.1406
   45DPPC   C23 2223   0.448   2.323   2.211 -0.4544  0.3715 -0.7778
   45DPPC   C24 2224   0.396   2.384   2.341 -0.1428 -0.1282 -0.4112
   45DPPC   C25 2225   0.250   2.367   2.383  0.0785 -0.0038  0.4133
   45DPPC   C26 2226   0.215   2.463   2.497  0.5376  0.7650 -0.0858
   45DPPC   C27 2227   0.313   2.435   2.611  0.1595  0.0084  0.0552
   45DPPC   C28 2228   0.307   2.520   2.738 -0.3663 -0.1385  0.1300
   45DPPC   C29 2229   0.404   2.459   2.840  0.2664  0.3137 -0.1928
   45DPPC   C30 2230   0.405   2.533   2.973 -0.0893  0.2351 -0.1452
   45DPPC   C31 2231   0.515   2.479   3.064 -0.1397  0.6830  0.1872
   45DPPC   C32 2232   1.199   2.612   1.624  0.2588 -0.3726  0.2104
   45DPPC   O33 2233   1.212   2.682   1.748 -0.3779  0.6240 -0.2654
   45DPPC   C34 2234   1.159   2.807   1.747  0.3495  0.9401 -0.2288
   45DPPC   O35 2235   1.123   2.856   1.640 -0.3932 -0.2897 -0.5676
   45DPPC   C36 2236   1.155   2.880   1.881  0.4359  0.5495 -0.0116
   45DPPC   C37 2237   1.050   2.832   1.982  0.1039  0.3987 -0.4266
   45DPPC   C38 2238   1.091   2.884   2.120  0.2980  0.1340 -0.3830
   45DPPC   C39 2239   0.971   2.925   2.206  0.5793 -0.4765  0.3066
   45DPPC   C40 2240   0.999   2.956   2.353  0.1499  0.1851  0.2512
   45DPPC   C41 2241   0.886   3.039   2.416  0.2789  0.2202  0.4379
   45DPPC   C42 2242   0.856   3.158   2.325  0.2094 -0.0635  0.0851
   45DPPC   C43 2243   0.737   3.234   2.383 -0.1539 -0.6419  0.1040
   45DPPC   C44 2244   0.753   3.288   2.525  0.0875  0.0954 -0.1947
   45DPPC   C45 2245   0.629   3.361   2.577  0.2529 -0.0176  0.3623
   45DPPC   C46 2246   0.651   3.422   2.716  0.0844 -0.0629  0.4094
   45DPPC   C47 2247   0.520   3.485   2.764 -0.0400 -0.5408  0.7031
   45DPPC   C48 2248   0.544   3.572   2.887  0.2463  0.2870  0.0747
   45DPPC   C49 2249   0.574   3.488   3.011 -0.2231  0.4677  0.3147
   45DPPC   C50 2250   0.593   3.579   3.133  0.4779  0.0942  0.4888
   46DPPC    C1 2251   1.375   2.511   0.920  0.5569  0.0840  0.5697
   46DPPC    C2 2252   1.276   2.723   0.869 -0.3815  0.3852  0.3174
   46DPPC    C3 2253   1.486   2.666   0.789  0.5901  0.4453  0.5005
   46DPPC    N4 2254   1.400   2.655   0.908 -0.3337  0.1864 -0.1795
   46DPPC    C5 2255   1.468   2.718   1.023 -0.2332 -0.5047  0.1427
   46DPPC    C6 2256   1.384   2.756   1.145 -0.2198 -0.1020  0.0269
   46DPPC    O7 2257   1.297   2.869   1.130 -0.1093 -0.0138  0.0517
   46DPPC    P8 2258   1.228   2.887   1.274  0.1098  0.1938  0.1320
   46DPPC    O9 2259   1.144   3.009   1.266  0.5489  0.4656 -0.3838
   46DPPC   O10 2260   1.162   2.756   1.293 -0.4543  0.4797  0.1821
   46DPPC   O11 2261   1.359   2.908   1.365  0.3863  0.2604 -0.2809
   46DPPC   C12 2262   1.347   3.036   1.428  0.1506  0.0569  0.0868
   46DPPC   C13 2263   1.479   3.050   1.504 -0.1029  0.5597  0.4385
   46DPPC   O14 2264   1.538   3.167   1.444  0.0067  0.2575 -0.0422
   46DPPC   C15 2265   1.640   3.236   1.501 -0.3658  0.0563  0.8841
   46DPPC   O16 2266   1.742   3.176   1.532 -0.2615 -0.1931  0.0846
   46DPPC   C17 2267   1.641   3.388   1.479  0.3762 -0.0154  0.4010
   46DPPC   C18 2268   1.548   3.444   1.587 -0.4567 -0.2143 -0.1963
   46DPPC   C19 2269   1.595   3.406   1.728 -0.5294 -0.2201 -0.1735
   46DPPC   C20 2270   1.481   3.425   1.827 -0.1078 -0.1045  0.2958
   46DPPC   C21 2271   1.376   3.318   1.795 -0.2029  0.0616  0.0517
   46DPPC   C22 2272   1.243   3.342   1.867 -0.2153 -0.3371  0.1599
   46DPPC   C23 2273   1.247   3.301   2.015  0.0285 -0.2411  0.1803
   46DPPC   C24 2274   1.137   3.372   2.094  0.3471 -0.2456  0.6346
   46DPPC   C25 2275   1.132   3.330   2.240 -0.4774 -0.0655  0.6643
   46DPPC   C26 2276   1.270   3.362   2.297 -0.1186 -0.3801 -0.0152
   46DPPC   C27 2277   1.280   3.321   2.444 -0.2688  0.3911  0.2174
   46DPPC   C28 2278   1.182   3.408   2.523  0.3146  0.7958  0.5031
   46DPPC   C29 2279   1.179   3.370   2.671  0.2737 -0.3662  0.2126
   46DPPC   C30 2280   1.061   3.452   2.723  0.7691  0.0061  0.7566
   46DPPC   C31 2281   1.027   3.420   2.869 -0.2056 -0.7496  0.3760
   46DPPC   C32 2282   1.550   2.916   1.524 -0.2469  0.4415  0.1649
   46DPPC   O33 2283   1.507   2.844   1.639  0.0475  0.4673  0.2913
   46DPPC   C34 2284   1.583   2.735   1.668  0.0107  0.4109  0.1730
   46DPPC   O35 2285   1.669   2.696   1.589 -0.3522 -0.7276  0.3147
   46DPPC   C36 2286   1.558   2.660   1.799 -0.3695 -0.1228 -0.1953
   46DPPC   C37 2287   1.537   2.755   1.918 -0.4829 -0.1217 -0.2171
   46DPPC   C38 2288   1.522   2.674   2.047 -0.4667  0.3860  0.1058
   46DPPC   C39 2289   1.478   2.778   2.149 -0.1424  0.2901  0.3445
   46DPPC   C40 2290   1.476   2.731   2.295  0.2578 -0.0681  0.2338
   46DPPC   C41 2291   1.414   2.835   2.388 -0.1776 -0.3887  0.3065
   46DPPC   C42 2292   1.425   2.795   2.536  0.1736 -0.5741  0.2321
   46DPPC   C43 2293   1.372   2.913   2.617 -0.0534 -0.4898 -0.0349
   46DPPC   C44 2294   1.390   2.876   2.765  0.1238 -0.0886  0.0475
   46DPPC   C45 2295   1.377   2.996   2.858 -0.2623 -0.1779  0.1100
   46DPPC   C46 2296   1.364   2.939   3.000 -0.6472 -0.1530  0.0863
   46DPPC   C47 2297   1.316   3.053   3.090 -0.5440 -0.0340 -0.0076
   46DPPC   C48 2298   1.295   3.001   3.233 -0.2159  0.2654  0.1503
   46DPPC   C49 2299   1.156   2.937   3.235 -0.2997  0.4527  0.4135
   46DPPC   C50 2300   1.135   2.889   3.379 -0.5035  0.1156  0.2719
   47DPPC    C1 2301   1.134   4.348   0.923 -0.3596  0.2947 -0.0942
   47DPPC    C2 2302   1.361   4.389   0.979 -0.0406  0.4652 -0.3092
   47DPPC    C3 2303   1.195   4.556   1.025  0.3289 -0.4928  0.7547
   47DPPC    N4 2304   1.222   4.412   1.021 -0.0615 -0.5555  0.1943
   47DPPC    C5 2305   1.186   4.360   1.154  0.0446 -0.1053  0.3994
   47DPPC    C6 2306   1.191   4.210   1.185 -0.1992 -0.1635  0.1594
   47DPPC    O7 2307   1.324   4.162   1.204 -0.1189 -0.1469 -0.3470
   47DPPC    P8 2308   1.311   4.018   1.274 -0.0409 -0.1095 -0.2547
   47DPPC    O9 2309   1.199   3.940   1.216 -0.0247  0.4345 -1.0358
   47DPPC   O10 2310   1.448   3.966   1.291 -0.0817 -0.0709  0.2110
   47DPPC   O11 2311   1.275   4.069   1.423  0.1732 -0.7502  0.0180
   47DPPC   C12 2312   1.396   4.110   1.488  0.1550  0.1536 -0.5069
   47DPPC   C13 2313   1.386   4.116   1.640  0.5372  0.2646 -0.4858
   47DPPC   O14 2314   1.380   3.995   1.717  0.7153  0.3691 -0.3031
   47DPPC   C15 2315   1.489   3.915   1.730  0.4088 -0.0099 -0.0553
   47DPPC   O16 2316   1.588   3.919   1.657  0.4117  0.2941 -0.0324
   47DPPC   C17 2317   1.471   3.808   1.839  0.4165  0.0819  0.0355
   47DPPC   C18 2318   1.527   3.850   1.976 -0.2530  0.0493  0.3210
   47DPPC   C19 2319   1.485   3.751   2.085 -0.2263  0.3159  0.5741
   47DPPC   C20 2320   1.515   3.793   2.229  0.1736  0.3348  0.4843
   47DPPC   C21 2321   1.442   3.700   2.326  0.4528 -0.3526  0.0499
   47DPPC   C22 2322   1.434   3.771   2.461  0.2405 -0.3864  0.0552
   47DPPC   C23 2323   1.410   3.661   2.566 -0.1417 -0.2365  0.1296
   47DPPC   C24 2324   1.428   3.721   2.706 -0.0815  0.2876 -0.0989
   47DPPC   C25 2325   1.404   3.614   2.812  0.1118  0.0164 -0.3248
   47DPPC   C26 2326   1.460   3.638   2.953  0.5894 -0.1179 -0.4901
   47DPPC   C27 2327   1.393   3.533   3.043  0.3171  0.1052 -0.4293
   47DPPC   C28 2328   1.443   3.559   3.185 -0.1410 -0.0788 -0.2334
   47DPPC   C29 2329   1.358   3.674   3.238  0.1552 -0.1023  0.3025
   47DPPC   C30 2330   1.394   3.698   3.384 -0.7844  0.0291  0.5200
   47DPPC   C31 2331   1.375   3.570   3.466 -0.1068  0.4054  1.2919
   47DPPC   C32 2332   1.269   4.207   1.676  0.2164 -0.3492  0.0546
   47DPPC   O33 2333   1.269   4.256   1.810  0.5992 -0.1732 -0.0069
   47DPPC   C34 2334   1.168   4.342   1.843  0.1256 -0.6481 -0.2078
   47DPPC   O35 2335   1.104   4.399   1.755  0.3823  0.4485  0.3029
   47DPPC   C36 2336   1.161   4.379   1.991  0.3959  0.0709 -0.3718
   47DPPC   C37 2337   1.080   4.275   2.069  0.0509  0.3956 -0.2978
   47DPPC   C38 2338   1.149   4.140   2.088 -0.1481  0.3387  0.0328
   47DPPC   C39 2339   1.054   4.027   2.126 -0.1874  0.1924 -0.4911
   47DPPC   C40 2340   1.002   4.046   2.269  0.3950 -0.4285 -0.1921
   47DPPC   C41 2341   1.118   4.050   2.368  0.2207 -0.0201 -0.0029
   47DPPC   C42 2342   1.077   4.079   2.513  0.0851  0.0094 -0.0474
   47DPPC   C43 2343   1.202   4.075   2.602 -0.0336 -0.5693  0.0921
   47DPPC   C44 2344   1.154   4.093   2.746  0.3533 -0.0402  0.1566
   47DPPC   C45 2345   1.075   3.970   2.793 -0.1371  0.1145 -0.2551
   47DPPC   C46 2346   1.025   3.991   2.936  0.7755 -0.1021  0.1064
   47DPPC   C47 2347   0.947   3.869   2.988  1.3521 -0.3330  0.4314
   47DPPC   C48 2348   0.927   3.896   3.137  0.6305  0.2620  0.2338
   47DPPC   C49 2349   0.860   4.033   3.149  0.0346 -0.0057  0.0058
   47DPPC   C50 2350   0.848   4.055   3.300  0.2998 -0.2193  0.0596
   48DPPC    C1 2351   4.234   1.579   0.815  0.7823  0.0792  0.0227
   48DPPC    C2 2352   4.096   1.663   0.986 -0.0596 -0.5762 -0.3118
   48DPPC    C3 2353   4.115   1.427   0.966  0.3668 -0.4137  0.1259
   48DPPC    N4 2354   4.188   1.553   0.953  0.2190 -0.3649 -0.2434
   48DPPC    C5 2355   4.299   1.561   1.048 -0.0819  0.1032  0.0746
   48DPPC    C6 2356   4.419   1.470   1.018 -0.3131 -0.1449 -0.0988
   48DPPC    O7 2357   4.509   1.466   1.129 -0.3162  0.2313 -0.0812
   48DPPC    P8 2358   4.616   1.357   1.079 -0.1253  0.2956  0.1867
   48DPPC    O9 2359   4.566   1.223   1.114 -0.8271  0.3890 -0.4427
   48DPPC   O10 2360   4.652   1.389   0.939 -0.5607 -0.2900 -0.0633
   48DPPC   O11 2361   4.723   1.391   1.195  0.0286  0.3079  0.0420
   48DPPC   C12 2362   4.675   1.361   1.326  0.0567  0.4241  0.0798
   48DPPC   C13 2363   4.777   1.359   1.440  0.1421 -0.9941 -0.0034
   48DPPC   O14 2364   4.717   1.434   1.547  0.7604  0.1380 -0.4348
   48DPPC   C15 2365   4.714   1.569   1.556  0.1854  0.0889  0.1464
   48DPPC   O16 2366   4.738   1.641   1.459 -0.0349  0.0784  0.0830
   48DPPC   C17 2367   4.656   1.621   1.688  0.3834  0.6459  0.0193
   48DPPC   C18 2368   4.767   1.594   1.791  0.3274 -0.0245 -0.0932
   48DPPC   C19 2369   4.730   1.678   1.913 -0.2128 -0.2225 -0.1165
   48DPPC   C20 2370   4.589   1.652   1.966 -0.5647  0.9729 -0.4367
   48DPPC   C21 2371   4.570   1.709   2.107 -0.2741 -0.1430  0.0593
   48DPPC   C22 2372   4.640   1.630   2.218  0.1309  0.1837  0.0392
   48DPPC   C23 2373   4.599   1.700   2.347 -0.6120 -0.3264  0.0848
   48DPPC   C24 2374   4.662   1.641   2.474 -0.0041 -0.3299 -0.2141
   48DPPC   C25 2375   4.748   1.730   2.564 -0.0129 -0.1479 -0.3835
   48DPPC   C26 2376   4.783   1.646   2.688 -0.4590 -0.0873 -0.2147
   48DPPC   C27 2377   4.854   1.728   2.796  0.0643 -0.3170 -0.3840
   48DPPC   C28 2378   4.846   1.636   2.918 -0.5109  0.0447 -0.1444
   48DPPC   C29 2379   4.902   1.707   3.042 -0.4096  0.2144 -0.2868
   48DPPC   C30 2380   5.045   1.759   3.026 -0.0333 -0.7662 -0.1807
   48DPPC   C31 2381   5.071   1.849   3.148 -0.9825  0.0337 -0.5606
   48DPPC   C32 2382   4.919   1.375   1.385  0.0214 -0.1478 -0.0788
   48DPPC   O33 2383   4.975   1.245   1.362 -0.4668 -0.3704 -0.0290
   48DPPC   C34 2384   5.108   1.246   1.332 -0.4236  0.0752  0.1695
   48DPPC   O35 2385   5.159   1.344   1.279 -0.1583 -0.4411 -0.5364
   48DPPC   C36 2386   5.182   1.115   1.355 -0.4502  0.0608  0.1738
   48DPPC   C37 2387   5.300   1.142   1.449 -0.2467  0.4530 -0.1901
   48DPPC   C38 2388   5.340   1.020   1.534 -0.3141  0.7673  0.2948
   48DPPC   C39 2389   5.468   1.049   1.612 -0.2007  0.6039  0.1692
   48DPPC   C40 2390   5.444   1.154   1.721 -0.3719 -0.2091  0.9278
   48DPPC   C41 2391   5.556   1.257   1.715  0.0012 -0.6746 -0.4336
   48DPPC   C42 2392   5.528   1.358   1.827 -0.0414 -0.4246 -0.6661
   48DPPC   C43 2393   5.635   1.466   1.813 -0.1798 -0.2422 -0.3044
   48DPPC   C44 2394   5.617   1.592   1.898  0.2902 -0.4148  0.0552
   48DPPC   C45 2395   5.730   1.693   1.875  0.2877 -0.1480  1.1540
   48DPPC   C46 2396   5.713   1.822   1.957 -0.5167  0.6271 -0.1947
   48DPPC   C47 2397   5.679   1.798   2.104 -0.2810  0.6251 -0.1408
   48DPPC   C48 2398   5.629   1.930   2.160 -0.4305  0.5614 -0.1241
   48DPPC   C49 2399   5.592   1.916   2.308  0.3359 -0.1460  0.0074
   48DPPC   C50 2400   5.724   1.922   2.385  0.3367 -0.6775  0.0500
   49DPPC    C1 2401   0.350   1.098   0.798  0.0839 -0.0363 -0.7611
   49DPPC    C2 2402   0.250   1.188   0.599 -0.4096  0.2428  0.4093
   49DPPC    C3 2403   0.426   1.301   0.720  0.6275  0.0147 -0.2631
   49DPPC    N4 2404   0.303   1.221   0.732  0.3326  0.5059  0.0525
   49DPPC    C5 2405   0.188   1.274   0.806  0.4298  0.1809  0.4423
   49DPPC    C6 2406   0.154   1.422   0.786 -0.1472 -0.0236 -0.1104
   49DPPC    O7 2407   0.037   1.469   0.854  0.0769  0.1059  0.1848
   49DPPC    P8 2408  -0.090   1.495   0.759  0.1606 -0.4296 -0.0741
   49DPPC    O9 2409  -0.148   1.630   0.776  0.4231 -0.3704  0.3700
   49DPPC   O10 2410  -0.064   1.439   0.624 -0.3563  0.2141 -0.4469
   49DPPC   O11 2411  -0.199   1.401   0.832 -0.1937  0.1514  0.1496
   49DPPC   C12 2412  -0.228   1.456   0.961 -0.2029  0.0098  0.2080
   49DPPC   C13 2413  -0.350   1.394   1.028 -0.1883 -0.1135  0.1215
   49DPPC   O14 2414  -0.409   1.484   1.123  0.2859  0.2264  0.0990
   49DPPC   C15 2415  -0.537   1.453   1.158  0.0999  0.2713 -0.5389
   49DPPC   O16 2416  -0.607   1.376   1.092  0.0526  0.0070 -0.1813
   49DPPC   C17 2417  -0.595   1.539   1.270 -0.3467 -0.0132 -0.5490
   49DPPC   C18 2418  -0.735   1.488   1.308 -0.2239 -0.0214 -0.0966
   49DPPC   C19 2419  -0.807   1.590   1.395 -0.1716 -0.0674  0.0006
   49DPPC   C20 2420  -0.930   1.526   1.460 -0.3397  0.1274 -0.1224
   49DPPC   C21 2421  -1.015   1.635   1.525  0.0835  0.4861 -0.1612
   49DPPC   C22 2422  -1.150   1.586   1.578  0.4203  0.1046  0.3669
   49DPPC   C23 2423  -1.227   1.700   1.646 -0.1372 -0.3853  0.5663
   49DPPC   C24 2424  -1.149   1.746   1.769  0.5512 -0.1291  0.0422
   49DPPC   C25 2425  -1.218   1.863   1.840  0.3483 -0.4880  0.4435
   49DPPC   C26 2426  -1.125   1.906   1.954  0.2792  0.4310  0.1586
   49DPPC   C27 2427  -1.197   2.008   2.043 -0.5083 -0.0479  0.0749
   49DPPC   C28 2428  -1.099   2.044   2.154 -0.0163 -0.0570 -0.3529
   49DPPC   C29 2429  -1.169   2.098   2.279  0.3095 -0.0071 -0.1885
   49DPPC   C30 2430  -1.078   2.128   2.398 -0.5323 -0.5976  0.6222
   49DPPC   C31 2431  -1.152   2.182   2.520 -0.3744  0.4869  0.2521
   49DPPC   C32 2432  -0.310   1.255   1.079 -0.3034 -0.2776 -0.2302
   49DPPC   O33 2433  -0.193   1.267   1.162 -0.4753  0.2315 -0.0548
   49DPPC   C34 2434  -0.166   1.157   1.237  0.0213  0.1175 -0.3982
   49DPPC   O35 2435  -0.227   1.050   1.228 -0.1814  0.1947  0.0737
   49DPPC   C36 2436  -0.059   1.182   1.343 -0.3197  0.1713 -0.0639
   49DPPC   C37 2437  -0.109   1.300   1.426 -0.3037 -0.0439  0.2535
   49DPPC   C38 2438  -0.031   1.315   1.557  0.4166 -0.2404 -0.1469
   49DPPC   C39 2439  -0.044   1.188   1.641 -0.0339 -0.1441 -0.0673
   49DPPC   C40 2440  -0.030   1.239   1.785 -0.1764  0.2635 -0.1964
   49DPPC   C41 2441  -0.022   1.124   1.885  1.0515  0.2125 -0.3387
   49DPPC   C42 2442   0.019   1.177   2.023  0.0474 -0.0531  0.0694
   49DPPC   C43 2443   0.154   1.248   2.009  0.0051  0.0007 -0.0730
   49DPPC   C44 2444   0.209   1.292   2.145  0.3178 -0.7448  0.0452
   49DPPC   C45 2445   0.362   1.295   2.145  0.3129 -0.3993 -0.0198
   49DPPC   C46 2446   0.408   1.377   2.024 -0.0932 -0.2677 -0.0839
   49DPPC   C47 2447   0.560   1.367   2.013 -0.0129  0.2506  0.4970
   49DPPC   C48 2448   0.605   1.445   1.889  0.2468 -0.2756  0.2582
   49DPPC   C49 2449   0.757   1.441   1.876  0.2485 -0.3856  0.3094
   49DPPC   C50 2450   0.795   1.464   1.730  0.7528 -0.3323  0.4452
   50DPPC    C1 2451   4.684   5.173   1.341 -0.5532 -0.2139  0.4414
   50DPPC    C2 2452   4.454   5.201   1.387  0.0718  0.9974 -0.3277
   50DPPC    C3 2453   4.551   5.373   1.267  0.6389  0.4874  0.2324
   50DPPC    N4 2454   4.581   5.274   1.371  0.3521  0.7038  0.5213
   50DPPC    C5 2455   4.612   5.334   1.502 -0.2380  0.8176  0.6096
   50DPPC    C6 2456   4.726   5.435   1.518  0.3506  0.3430 -0.4883
   50DPPC    O7 2457   4.703   5.562   1.457 -0.0069  0.2015 -0.6560
   50DPPC    P8 2458   4.845   5.638   1.450  0.0989  0.1129  0.3248
   50DPPC    O9 2459   4.933   5.524   1.416 -0.0839  0.1479 -0.2711
   50DPPC   O10 2460   4.790   5.734   1.352  0.4405 -0.1240 -0.1011
   50DPPC   O11 2461   4.861   5.690   1.602  0.3786 -0.0069  0.3361
   50DPPC   C12 2462   4.985   5.641   1.654  0.3272 -0.5367 -0.0223
   50DPPC   C13 2463   4.997   5.668   1.804 -0.6063  0.1130 -0.0592
   50DPPC   O14 2464   4.910   5.593   1.890  0.0713  0.2354  0.7475
   50DPPC   C15 2465   4.944   5.464   1.916 -0.5506 -0.1266 -0.1600
   50DPPC   O16 2466   5.053   5.417   1.883  0.1330  0.7568  0.7406
   50DPPC   C17 2467   4.844   5.400   2.012 -0.1267  0.1410  0.4709
   50DPPC   C18 2468   4.914   5.385   2.147 -0.0609 -0.4539  0.3740
   50DPPC   C19 2469   4.836   5.315   2.259 -0.3935 -0.1750  0.3172
   50DPPC   C20 2470   4.889   5.346   2.399  0.1220  0.4063 -0.0045
   50DPPC   C21 2471   4.801   5.293   2.511  0.2408  0.0941 -0.0582
   50DPPC   C22 2472   4.869   5.336   2.641  0.1662 -0.1748  0.0707
   50DPPC   C23 2473   4.792   5.311   2.771 -0.1961 -0.0037 -0.1112
   50DPPC   C24 2474   4.852   5.365   2.901 -0.2291 -0.7192  0.2033
   50DPPC   C25 2475   4.738   5.356   3.003 -0.3420 -0.0628  0.1373
   50DPPC   C26 2476   4.795   5.406   3.137 -0.2189  0.3415 -0.0633
   50DPPC   C27 2477   4.908   5.318   3.189  0.7112  1.1807 -0.6345
   50DPPC   C28 2478   4.976   5.361   3.320 -0.4285 -0.0620  0.3999
   50DPPC   C29 2479   5.116   5.300   3.321 -0.0612  0.7363 -0.2443
   50DPPC   C30 2480   5.195   5.341   3.446 -0.2997  0.3136  0.0490
   50DPPC   C31 2481   5.103   5.334   3.568 -0.3375  0.1480  0.0115
   50DPPC   C32 2482   4.985   5.821   1.814 -0.4198  0.0936  0.4888
   50DPPC   O33 2483   5.110   5.885   1.790 -0.5334 -0.1472 -0.7936
   50DPPC   C34 2484   5.121   6.017   1.822 -0.4452 -0.3620  0.0626
   50DPPC   O35 2485   5.015   6.069   1.857 -0.4930  0.1650 -0.8502
   50DPPC   C36 2486   5.252   6.087   1.786 -0.4688 -0.3210  0.0572
   50DPPC   C37 2487   5.342   6.092   1.910  0.0205 -0.9445 -0.2677
   50DPPC   C38 2488   5.486   6.129   1.872 -0.2301  0.5007  0.1333
   50DPPC   C39 2489   5.572   6.149   1.998  0.1806  0.6144 -0.1619
   50DPPC   C40 2490   5.561   6.037   2.101 -0.5106  0.9195  0.1044
   50DPPC   C41 2491   5.659   6.035   2.218 -0.1570  0.6183 -0.1948
   50DPPC   C42 2492   5.635   6.147   2.319 -0.1619  0.0957  0.3925
   50DPPC   C43 2493   5.761   6.156   2.406  0.2898  0.3656 -0.2803
   50DPPC   C44 2494   5.737   6.281   2.491 -0.8248  0.1105 -0.1999
   50DPPC   C45 2495   5.842   6.303   2.600 -0.8189  0.3241 -0.2491
   50DPPC   C46 2496   5.855   6.172   2.677  0.1437  0.2713 -0.4926
   50DPPC   C47 2497   5.955   6.174   2.793 -0.9057 -0.6934  0.4493
   50DPPC   C48 2498   5.910   6.232   2.928  0.4367  0.9335  0.2248
   50DPPC   C49 2499   6.018   6.208   3.034 -0.0288  0.2879  0.5578
   50DPPC   C50 2500   6.028   6.059   3.070 -0.3060  0.2123  0.3304
   51DPPC    C1 2501   5.361   0.135   1.470  0.3592 -0.1381  0.5081
   51DPPC    C2 2502   5.369  -0.097   1.417 -0.6383  0.0672 -0.3274
   51DPPC    C3 2503   5.554   0.029   1.367  0.2109  0.3169 -0.1155
   51DPPC    N4 2504   5.407   0.037   1.371  0.2028  0.0390  0.2598
   51DPPC    C5 2505   5.374   0.067   1.231  0.2367 -0.3295  0.1717
   51DPPC    C6 2506   5.230   0.034   1.191  0.1339  0.2054  0.1000
   51DPPC    O7 2507   5.143   0.148   1.201  0.0777  0.2018 -0.3110
   51DPPC    P8 2508   5.013   0.096   1.123  0.2715 -0.2244 -0.3563
   51DPPC    O9 2509   4.986   0.188   1.010 -0.2402  0.7442  0.5344
   51DPPC   O10 2510   4.994  -0.050   1.116  0.5699 -0.2721 -0.1586
   51DPPC   O11 2511   4.902   0.134   1.233  0.0088  0.3119 -0.8013
   51DPPC   C12 2512   4.892   0.274   1.264 -0.1318  0.1226  0.0319
   51DPPC   C13 2513   4.859   0.287   1.413  0.4841  0.5074  0.1369
   51DPPC   O14 2514   4.867   0.422   1.462  0.4541  0.5326  0.0725
   51DPPC   C15 2515   4.765   0.452   1.546  0.1999  0.0508 -0.0627
   51DPPC   O16 2516   4.665   0.380   1.548  0.0909  0.2062  0.0880
   51DPPC   C17 2517   4.774   0.597   1.595 -0.7190  0.1718 -0.2233
   51DPPC   C18 2518   4.803   0.627   1.742 -0.6662  0.0317 -0.2046
   51DPPC   C19 2519   4.677   0.608   1.828 -0.4947  0.3011  0.1107
   51DPPC   C20 2520   4.704   0.618   1.978  0.5518  0.1083 -0.0596
   51DPPC   C21 2521   4.789   0.505   2.037  0.7074  0.2702  0.0296
   51DPPC   C22 2522   4.825   0.544   2.180  0.3961  0.7040 -0.0093
   51DPPC   C23 2523   4.951   0.460   2.198 -0.4034 -0.4612  0.2289
   51DPPC   C24 2524   4.986   0.472   2.347  0.1085  0.0288  0.0699
   51DPPC   C25 2525   4.873   0.418   2.435 -0.3126  0.8258  0.0313
   51DPPC   C26 2526   4.920   0.427   2.580 -0.2468  0.3840  0.0387
   51DPPC   C27 2527   4.811   0.373   2.673 -0.4981 -0.7778 -0.9095
   51DPPC   C28 2528   4.876   0.358   2.811 -0.2983  0.2929 -0.8782
   51DPPC   C29 2529   4.763   0.311   2.903 -0.1269  0.5638 -0.5259
   51DPPC   C30 2530   4.718   0.170   2.864 -0.3514  0.4339  0.1840
   51DPPC   C31 2531   4.596   0.124   2.944 -0.2122  0.4258  0.3911
   51DPPC   C32 2532   4.936   0.186   1.497  0.2696  0.4306  0.2414
   51DPPC   O33 2533   4.897   0.153   1.631 -0.2677 -0.1636 -0.0574
   51DPPC   C34 2534   4.988   0.082   1.702 -0.2191 -0.2381 -0.1937
   51DPPC   O35 2535   5.086   0.032   1.647  0.3282  0.1738  0.4062
   51DPPC   C36 2536   4.962   0.064   1.852 -0.1832 -0.6154 -0.2299
   51DPPC   C37 2537   5.083   0.064   1.945 -0.4016  0.3255  0.0677
   51DPPC   C38 2538   5.032   0.059   2.089 -0.4051 -0.3768  0.0431
   51DPPC   C39 2539   5.137   0.072   2.199  0.0691  0.4723 -0.4918
   51DPPC   C40 2540   5.066   0.044   2.332  0.5063 -0.7514 -0.5050
   51DPPC   C41 2541   5.014  -0.098   2.354 -0.5040 -0.2252  0.6540
   51DPPC   C42 2542   5.131  -0.196   2.370  0.0813  0.2953 -0.3250
   51DPPC   C43 2543   5.217  -0.164   2.492  0.0814 -0.1424 -0.2094
   51DPPC   C44 2544   5.331  -0.264   2.510  0.4663  0.2468 -0.4699
   51DPPC   C45 2545   5.403  -0.225   2.639  0.0089 -0.5308  0.0233
   51DPPC   C46 2546   5.301  -0.246   2.752 -0.1427 -0.1885 -0.0480
   51DPPC   C47 2547   5.388  -0.218   2.874 -0.4711  0.3623  0.0603
   51DPPC   C48 2548   5.487  -0.325   2.919  0.0715  0.8810  0.1227
   51DPPC   C49 2549   5.566  -0.261   3.034  0.2365  0.7034  0.1093
   51DPPC   C50 2550   5.669  -0.347   3.106 -0.3531  0.0332  0.1729
   52DPPC    C1 2551   4.997   1.476   0.972  0.0014 -0.3102 -0.1391
   52DPPC    C2 2552   4.993   1.545   0.731  0.7345  0.3702  0.0974
   52DPPC    C3 2553   4.952   1.316   0.813 -0.4984 -0.0698  0.0292
   52DPPC    N4 2554   5.024   1.442   0.832 -0.1869 -0.2134 -0.1999
   52DPPC    C5 2555   5.168   1.412   0.841 -0.0486  0.5217  0.0902
   52DPPC    C6 2556   5.211   1.344   0.711 -0.4109 -0.8105  0.6585
   52DPPC    O7 2557   5.252   1.208   0.728  0.1481 -0.6942  0.2686
   52DPPC    P8 2558   5.291   1.158   0.580 -0.0112  0.2055 -0.0802
   52DPPC    O9 2559   5.161   1.130   0.513  0.0962  0.1097 -0.2494
   52DPPC   O10 2560   5.374   1.276   0.550  0.0309  0.4104  0.8003
   52DPPC   O11 2561   5.369   1.028   0.634 -0.3078  0.1290  0.1672
   52DPPC   C12 2562   5.287   0.932   0.701 -0.1266 -0.0241  0.1679
   52DPPC   C13 2563   5.366   0.810   0.750 -0.0250 -0.0761 -0.1213
   52DPPC   O14 2564   5.287   0.708   0.814  0.3477  0.3823  1.0971
   52DPPC   C15 2565   5.348   0.592   0.848  0.2166  0.0699  0.2954
   52DPPC   O16 2566   5.448   0.548   0.791 -0.0369 -0.0092 -0.0949
   52DPPC   C17 2567   5.270   0.520   0.958  0.0141  0.1728  0.2189
   52DPPC   C18 2568   5.277   0.596   1.091 -0.1239  0.5131  0.0332
   52DPPC   C19 2569   5.216   0.513   1.204  0.0278  0.1527 -0.1500
   52DPPC   C20 2570   5.221   0.584   1.339 -0.0829 -0.1419  0.0103
   52DPPC   C21 2571   5.205   0.494   1.462  0.1826 -0.0876  0.0867
   52DPPC   C22 2572   5.241   0.571   1.588  0.6225 -0.3629  0.1295
   52DPPC   C23 2573   5.213   0.494   1.718 -0.1865 -0.1046  0.1122
   52DPPC   C24 2574   5.263   0.565   1.844 -0.2723  0.1021  0.0311
   52DPPC   C25 2575   5.168   0.681   1.874 -0.1599  0.2209 -0.0758
   52DPPC   C26 2576   5.213   0.741   2.008  0.6024 -0.2853 -0.0993
   52DPPC   C27 2577   5.116   0.845   2.064  0.0395 -0.9831  0.2342
   52DPPC   C28 2578   5.150   0.900   2.202  0.2897  0.1632 -0.2762
   52DPPC   C29 2579   5.057   1.014   2.247 -0.3212 -0.5997  0.4252
   52DPPC   C30 2580   5.078   1.070   2.388 -0.6414 -0.3125  0.3586
   52DPPC   C31 2581   5.091   0.967   2.500  0.7807  0.2342  0.7095
   52DPPC   C32 2582   5.477   0.867   0.837 -0.3157  0.6217 -0.2037
   52DPPC   O33 2583   5.442   0.939   0.956  0.0219  0.1902  0.1597
   52DPPC   C34 2584   5.556   0.972   1.022  0.2443 -0.0468 -0.1007
   52DPPC   O35 2585   5.658   0.997   0.959 -0.0853  0.6501 -0.3641
   52DPPC   C36 2586   5.548   1.009   1.171  0.5381  0.0290 -0.1032
   52DPPC   C37 2587   5.683   0.983   1.237  0.4736 -0.2573 -0.0800
   52DPPC   C38 2588   5.740   1.094   1.326  0.0054 -0.5742  0.6220
   52DPPC   C39 2589   5.848   1.052   1.426  0.6776  0.2088  0.2327
   52DPPC   C40 2590   5.841   1.123   1.562  0.1521  0.2913  0.1634
   52DPPC   C41 2591   5.961   1.073   1.642  0.1495 -0.2478 -0.1620
   52DPPC   C42 2592   5.964   1.112   1.790  0.2175 -0.6053 -0.0684
   52DPPC   C43 2593   5.849   1.037   1.858 -0.7291  0.6176 -0.2851
   52DPPC   C44 2594   5.859   1.045   2.011 -0.0448  0.0458 -0.2976
   52DPPC   C45 2595   5.807   1.184   2.049 -0.7225 -0.2147 -0.2700
   52DPPC   C46 2596   5.829   1.228   2.194 -0.3742 -0.5373 -0.2248
   52DPPC   C47 2597   5.735   1.167   2.298 -0.0727 -0.2946  0.1929
   52DPPC   C48 2598   5.598   1.235   2.282 -0.0050 -0.2314 -0.1245
   52DPPC   C49 2599   5.622   1.383   2.313  0.3397 -0.3408  0.1429
   52DPPC   C50 2600   5.501   1.472   2.284 -0.1883 -0.9333  0.4905
   53DPPC    C1 2601   5.536   5.043   0.991  0.2892  0.2554  0.1226
   53DPPC    C2 2602   5.424   5.251   0.928 -0.1804  0.0140  0.2398
   53DPPC    C3 2603   5.646   5.230   0.911  0.4064 -0.0917 -0.5462
   53DPPC    N4 2604   5.536   5.190   1.001  0.3862  0.2926 -0.3964
   53DPPC    C5 2605   5.540   5.244   1.138 -0.1653 -0.1746 -0.1897
   53DPPC    C6 2606   5.676   5.241   1.209 -0.2158 -0.4529 -0.1068
   53DPPC    O7 2607   5.773   5.340   1.177 -0.1023 -0.4907  0.1158
   53DPPC    P8 2608   5.916   5.273   1.204  0.1677  0.1227  0.2277
   53DPPC    O9 2609   5.916   5.126   1.222  0.3593  0.0834 -0.0891
   53DPPC   O10 2610   6.016   5.330   1.111  0.2031 -0.5300 -0.1349
   53DPPC   O11 2611   5.920   5.353   1.344 -0.0255  0.3343  0.1133
   53DPPC   C12 2612   5.969   5.484   1.316  0.1083  0.1036 -0.7588
   53DPPC   C13 2613   6.036   5.564   1.429 -0.2212  0.3792 -0.7563
   53DPPC   O14 2614   6.174   5.545   1.463 -0.4381 -0.2602 -0.2241
   53DPPC   C15 2615   6.267   5.579   1.370  0.0564  0.7966  0.6352
   53DPPC   O16 2616   6.236   5.643   1.270 -0.2344 -0.0562  0.1637
   53DPPC   C17 2617   6.412   5.538   1.398  0.0459  0.0144 -0.3994
   53DPPC   C18 2618   6.459   5.605   1.527 -0.5507 -0.1369 -0.0989
   53DPPC   C19 2619   6.434   5.756   1.520 -0.0093 -0.0126  0.5379
   53DPPC   C20 2620   6.502   5.818   1.642 -0.4471 -0.2062  0.8792
   53DPPC   C21 2621   6.464   5.964   1.669 -0.1065  0.0199  0.1520
   53DPPC   C22 2622   6.518   5.996   1.808 -0.0500 -0.0123  0.1370
   53DPPC   C23 2623   6.667   5.966   1.827 -0.0889 -0.1709  0.1889
   53DPPC   C24 2624   6.696   6.034   1.961  0.7674 -0.1531  0.0007
   53DPPC   C25 2625   6.625   5.938   2.056 -0.5665  0.6296 -0.1839
   53DPPC   C26 2626   6.657   5.976   2.200  0.2064  0.1784 -0.2311
   53DPPC   C27 2627   6.603   5.866   2.292 -0.2454  0.4544 -0.1624
   53DPPC   C28 2628   6.612   5.908   2.439 -0.2720 -0.0585 -0.0150
   53DPPC   C29 2629   6.757   5.924   2.486 -0.2288  0.0684 -0.1922
   53DPPC   C30 2630   6.766   5.999   2.619 -0.3584  0.1286 -0.2169
   53DPPC   C31 2631   6.679   5.919   2.716 -0.4252  0.4520 -0.0075
   53DPPC   C32 2632   5.928   5.539   1.534  0.5867  0.3485  0.0760
   53DPPC   O33 2633   5.895   5.662   1.599  0.0485  0.1181  0.2441
   53DPPC   C34 2634   5.802   5.635   1.695 -0.4128  0.3642 -0.1361
   53DPPC   O35 2635   5.760   5.522   1.717 -0.4398  0.3129 -0.4358
   53DPPC   C36 2636   5.758   5.756   1.777 -0.1222  0.1502  0.3330
   53DPPC   C37 2637   5.837   5.751   1.909 -0.0455 -0.1507  0.2759
   53DPPC   C38 2638   5.988   5.759   1.887 -0.0745  0.9798  0.4176
   53DPPC   C39 2639   6.062   5.750   2.020 -0.0034  0.7455  0.3638
   53DPPC   C40 2640   6.206   5.800   2.018 -0.0197  0.7777 -0.3594
   53DPPC   C41 2641   6.251   5.796   2.165  0.5364 -0.0565 -0.5481
   53DPPC   C42 2642   6.236   5.665   2.243  0.4634  0.4434  0.2815
   53DPPC   C43 2643   6.270   5.695   2.390  1.4067 -0.1868  0.1994
   53DPPC   C44 2644   6.246   5.571   2.477 -0.3312 -0.0004  0.0134
   53DPPC   C45 2645   6.301   5.591   2.618 -0.1334  0.0886 -0.0768
   53DPPC   C46 2646   6.223   5.698   2.695  0.3829  0.3627  0.0773
   53DPPC   C47 2647   6.272   5.708   2.839  0.0865 -0.2046  0.2224
   53DPPC   C48 2648   6.258   5.573   2.910 -0.1279 -0.3484 -0.0884
   53DPPC   C49 2649   6.278   5.587   3.061 -0.5615 -0.4606 -0.0196
   53DPPC   C50 2650   6.167   5.672   3.124 -0.0277  0.3437 -0.1531
   54DPPC    C1 2651   5.183   5.844   0.904 -0.3942  0.6555  0.3600
   54DPPC    C2 2652   5.354   5.886   1.064  0.2245  0.6764  0.7772
   54DPPC    C3 2653   5.326   6.024   0.864  0.3237 -0.4905 -0.3867
   54DPPC    N4 2654   5.259   5.950   0.972  0.4741  0.1769  0.1655
   54DPPC    C5 2655   5.163   6.037   1.042 -0.1235  0.3866 -0.8934
   54DPPC    C6 2656   5.092   5.978   1.164  0.2684  1.1098 -0.3066
   54DPPC    O7 2657   5.170   6.019   1.276 -0.0008 -0.2091  0.3829
   54DPPC    P8 2658   5.110   5.972   1.418 -0.1631 -0.3052  0.2823
   54DPPC    O9 2659   4.995   6.050   1.468  0.3098  0.2109  0.5710
   54DPPC   O10 2660   5.102   5.826   1.395 -0.0580 -0.3226  0.3557
   54DPPC   O11 2661   5.248   5.975   1.501  0.3525  0.0175 -0.5800
   54DPPC   C12 2662   5.331   5.859   1.489  0.1683 -0.1146 -0.5633
   54DPPC   C13 2663   5.459   5.860   1.573  0.0467 -0.6243 -0.3664
   54DPPC   O14 2664   5.437   5.821   1.709 -0.1416  0.1842 -0.1612
   54DPPC   C15 2665   5.393   5.698   1.747 -0.7865  0.3258 -0.4335
   54DPPC   O16 2666   5.389   5.616   1.656  0.6080 -0.6086  0.3099
   54DPPC   C17 2667   5.344   5.667   1.889  0.0777 -0.0162 -0.2054
   54DPPC   C18 2668   5.458   5.706   1.983 -0.2367  0.9230 -0.2138
   54DPPC   C19 2669   5.410   5.674   2.124 -0.6388  0.4091 -0.4674
   54DPPC   C20 2670   5.347   5.534   2.129 -0.3083  0.2645 -0.3382
   54DPPC   C21 2671   5.264   5.507   2.254  0.8272 -0.3305  0.3069
   54DPPC   C22 2672   5.326   5.498   2.394  0.3265 -0.4074  0.5290
   54DPPC   C23 2673   5.238   5.425   2.495 -0.1896 -0.1866  0.2464
   54DPPC   C24 2674   5.304   5.439   2.633  0.1670 -0.1429  0.0715
   54DPPC   C25 2675   5.424   5.348   2.661  0.1936  0.0295  0.5142
   54DPPC   C26 2676   5.487   5.362   2.800  0.5672  0.3456  0.3161
   54DPPC   C27 2677   5.630   5.309   2.796  0.2280 -0.5700  0.0859
   54DPPC   C28 2678   5.692   5.326   2.935 -0.2603 -0.4381  0.2892
   54DPPC   C29 2679   5.833   5.267   2.931  0.1286  0.4941  0.0181
   54DPPC   C30 2680   5.902   5.265   3.068 -0.0200  0.4445  0.0923
   54DPPC   C31 2681   6.038   5.199   3.047 -0.2464  0.0128 -0.0424
   54DPPC   C32 2682   5.527   5.995   1.551 -0.0195 -0.4915  0.2163
   54DPPC   O33 2683   5.664   5.994   1.591  0.1222  0.0689 -0.2382
   54DPPC   C34 2684   5.724   6.116   1.594  0.1743  0.0260  0.8175
   54DPPC   O35 2685   5.658   6.220   1.582  0.2795  0.0071  0.0402
   54DPPC   C36 2686   5.876   6.103   1.605  0.1860 -0.0898  0.4981
   54DPPC   C37 2687   5.927   6.189   1.721 -0.0211  0.5628  0.1152
   54DPPC   C38 2688   6.079   6.188   1.736 -0.0319  0.7029  0.2306
   54DPPC   C39 2689   6.127   6.267   1.858  0.0639  0.1672  0.5421
   54DPPC   C40 2690   6.058   6.218   1.986  0.3728 -0.3301  0.5226
   54DPPC   C41 2691   6.149   6.261   2.101  0.6174  0.2220  0.1268
   54DPPC   C42 2692   6.070   6.269   2.232 -0.0623  0.3365 -0.2846
   54DPPC   C43 2693   6.159   6.304   2.352  0.2681 -0.1967 -0.3690
   54DPPC   C44 2694   6.231   6.175   2.392  0.4056 -0.0707 -0.2106
   54DPPC   C45 2695   6.336   6.204   2.500 -0.1024 -0.1794  0.3155
   54DPPC   C46 2696   6.272   6.299   2.601 -0.1166 -0.1987  0.3247
   54DPPC   C47 2697   6.348   6.335   2.728  0.5448  0.0895 -0.1481
   54DPPC   C48 2698   6.351   6.214   2.822 -0.3705  0.5548  0.5015
   54DPPC   C49 2699   6.398   6.255   2.962 -0.0438  0.1492  0.5135
   54DPPC   C50 2700   6.404   6.123   3.039  0.7298  0.3603  0.8218
   55DPPC    C1 2701   6.294   6.226   1.106 -0.0005 -0.3430 -0.2501
   55DPPC    C2 2702   6.301   6.433   0.992  0.1041 -0.3086 -0.3760
   55DPPC    C3 2703   6.390   6.248   0.886  0.6611 -0.1503  0.3951
   55DPPC    N4 2704   6.280   6.289   0.974  0.0727 -0.3197 -0.2468
   55DPPC    C5 2705   6.146   6.266   0.918  0.0396 -0.0696 -0.2689
   55DPPC    C6 2706   6.020   6.321   0.985 -0.1442  0.2167 -0.8358
   55DPPC    O7 2707   5.966   6.254   1.099  0.1092  0.4582 -0.5705
   55DPPC    P8 2708   5.839   6.336   1.154  0.0742 -0.0504  0.1312
   55DPPC    O9 2709   5.765   6.374   1.031  0.4421  0.2263 -0.0044
   55DPPC   O10 2710   5.789   6.233   1.247 -0.1059 -0.2609 -0.1944
   55DPPC   O11 2711   5.932   6.453   1.215 -0.0306 -0.0090  0.2117
   55DPPC   C12 2712   5.963   6.387   1.338  0.0954  0.1329  0.2559
   55DPPC   C13 2713   6.041   6.477   1.434  0.6604  0.5031 -0.5455
   55DPPC   O14 2714   6.143   6.419   1.516  0.0447  0.3391  0.1151
   55DPPC   C15 2715   6.271   6.421   1.470 -0.1603 -0.6485 -0.5384
   55DPPC   O16 2716   6.295   6.464   1.357 -0.1796  0.4405 -0.1405
   55DPPC   C17 2717   6.370   6.356   1.568 -0.1750  0.0092 -0.0823
   55DPPC   C18 2718   6.495   6.441   1.545 -0.4566  0.4167 -0.1252
   55DPPC   C19 2719   6.598   6.410   1.654 -0.5240 -0.1348 -0.2138
   55DPPC   C20 2720   6.519   6.425   1.784  0.1997  0.6416  0.1505
   55DPPC   C21 2721   6.625   6.415   1.894  0.2495 -0.1662  0.0366
   55DPPC   C22 2722   6.569   6.436   2.034  0.1296  0.0126 -0.0382
   55DPPC   C23 2723   6.676   6.438   2.143  0.2304 -0.2487 -0.1333
   55DPPC   C24 2724   6.625   6.434   2.287  0.3354 -0.5858 -0.1044
   55DPPC   C25 2725   6.747   6.458   2.376 -0.1950  0.3974  0.3763
   55DPPC   C26 2726   6.688   6.458   2.517 -0.3609  0.7554  0.3062
   55DPPC   C27 2727   6.780   6.481   2.637  0.0364 -0.0380  0.1604
   55DPPC   C28 2728   6.717   6.448   2.772 -0.9060  0.1447 -0.2265
   55DPPC   C29 2729   6.819   6.497   2.876 -0.7602 -0.1003 -0.2540
   55DPPC   C30 2730   6.772   6.539   3.015  0.5072 -0.1042  0.1869
   55DPPC   C31 2731   6.683   6.663   3.003  0.5072 -0.1656 -0.4725
   55DPPC   C32 2732   5.937   6.570   1.497 -0.0483 -0.4121 -0.3471
   55DPPC   O33 2733   5.838   6.513   1.583  0.1590  0.1187  0.2468
   55DPPC   C34 2734   5.763   6.587   1.669 -0.1983  0.3379 -0.2453
   55DPPC   O35 2735   5.782   6.709   1.674 -0.0441  0.3011  0.1194
   55DPPC   C36 2736   5.696   6.509   1.782 -0.0667  0.3779 -0.1384
   55DPPC   C37 2737   5.693   6.588   1.913 -0.2430 -0.2975  0.2693
   55DPPC   C38 2738   5.600   6.525   2.017 -0.0949 -0.7106  0.1549
   55DPPC   C39 2739   5.588   6.606   2.146  0.6465 -0.1490 -0.1194
   55DPPC   C40 2740   5.537   6.748   2.124  0.2007 -0.2620  0.1735
   55DPPC   C41 2741   5.520   6.809   2.264 -0.5691  0.3147 -0.1611
   55DPPC   C42 2742   5.436   6.722   2.358  0.0737 -0.7097 -0.5180
   55DPPC   C43 2743   5.424   6.773   2.501  0.3205 -0.6880 -0.5057
   55DPPC   C44 2744   5.322   6.684   2.571  0.1093  0.1196  0.2338
   55DPPC   C45 2745   5.319   6.719   2.720  0.8200  0.5696  0.1442
   55DPPC   C46 2746   5.248   6.622   2.814  0.2786  0.1753 -0.6692
   55DPPC   C47 2747   5.227   6.677   2.955  0.4803  0.2691 -0.6763
   55DPPC   C48 2748   5.113   6.607   3.029  0.6527  0.0606 -0.6104
   55DPPC   C49 2749   5.084   6.697   3.149 -0.0568 -0.6123 -0.2730
   55DPPC   C50 2750   4.966   6.648   3.234 -0.1334 -0.0221 -0.0380
   56DPPC    C1 2751   5.989   0.630   0.379  0.3559 -0.4618  0.3315
   56DPPC    C2 2752   6.224   0.651   0.438  0.4076 -0.1413 -0.0512
   56DPPC    C3 2753   6.051   0.827   0.458  0.8074  0.0196 -0.0354
   56DPPC    N4 2754   6.086   0.685   0.475  0.4437 -0.0664  0.0147
   56DPPC    C5 2755   6.055   0.646   0.613  0.5851  0.8959  0.3312
   56DPPC    C6 2756   6.062   0.499   0.654  0.1412  0.7224 -0.1989
   56DPPC    O7 2757   6.004   0.485   0.784  0.3928 -0.0093 -0.1589
   56DPPC    P8 2758   6.002   0.326   0.812 -0.1908 -0.0404 -0.3618
   56DPPC    O9 2759   5.862   0.291   0.778 -0.4693  0.1843  0.5088
   56DPPC   O10 2760   6.117   0.269   0.739 -0.3084 -0.2293 -0.4006
   56DPPC   O11 2761   6.031   0.327   0.971  0.0983  0.1203 -0.4151
   56DPPC   C12 2762   5.928   0.408   1.030  0.0259  0.0689 -0.4698
   56DPPC   C13 2763   5.937   0.389   1.182  0.0811 -0.1282 -0.4971
   56DPPC   O14 2764   5.813   0.426   1.245  0.2198 -0.0121 -0.2916
   56DPPC   C15 2765   5.785   0.555   1.276  0.2715 -0.1171  0.2034
   56DPPC   O16 2766   5.836   0.642   1.205 -0.0774 -0.1650 -0.1093
   56DPPC   C17 2767   5.684   0.582   1.387 -0.3567 -0.9065 -0.1687
   56DPPC   C18 2768   5.764   0.604   1.515 -0.3347  0.2389 -0.3665
   56DPPC   C19 2769   5.662   0.653   1.619 -0.3591 -0.0766 -0.2429
   56DPPC   C20 2770   5.733   0.660   1.755  0.1721 -0.4168 -0.4952
   56DPPC   C21 2771   5.626   0.686   1.861  0.6601  0.2690 -0.1680
   56DPPC   C22 2772   5.689   0.721   1.996  0.2690  0.1588  0.0459
   56DPPC   C23 2773   5.575   0.739   2.096 -0.1203 -0.1494 -0.3397
   56DPPC   C24 2774   5.630   0.775   2.235 -0.2053  0.7392 -0.5282
   56DPPC   C25 2775   5.520   0.807   2.336 -0.1603  0.4819 -0.3976
   56DPPC   C26 2776   5.560   0.781   2.481 -0.0791  0.1836 -0.4720
   56DPPC   C27 2777   5.457   0.837   2.579 -0.0067  0.1007 -0.3479
   56DPPC   C28 2778   5.488   0.983   2.614 -0.0716 -0.0183  0.2069
   56DPPC   C29 2779   5.620   0.999   2.690  0.1331 -0.0350 -0.1424
   56DPPC   C30 2780   5.645   1.143   2.734  0.0508  0.0148 -0.2591
   56DPPC   C31 2781   5.772   1.127   2.817 -0.0892 -0.0426 -0.0543
   56DPPC   C32 2782   6.067   0.450   1.233 -0.1395 -0.3120  0.3034
   56DPPC   O33 2783   6.099   0.432   1.371  0.0608 -0.2255  0.2694
   56DPPC   C34 2784   6.217   0.479   1.419  0.3290 -0.6846  0.0701
   56DPPC   O35 2785   6.305   0.511   1.339 -0.9220  0.4842 -0.8771
   56DPPC   C36 2786   6.248   0.437   1.563  0.4419  0.4157  0.3745
   56DPPC   C37 2787   6.141   0.470   1.668  0.3224 -0.0495  0.3989
   56DPPC   C38 2788   6.168   0.385   1.792 -0.0372  0.0367  0.5354
   56DPPC   C39 2789   6.063   0.410   1.901 -0.1698 -0.0367  0.4260
   56DPPC   C40 2790   6.062   0.290   1.996 -0.2948 -0.1967  0.2237
   56DPPC   C41 2791   5.976   0.317   2.120 -0.0129 -0.0152  0.3817
   56DPPC   C42 2792   6.001   0.222   2.237 -0.1896 -0.0386  0.4004
   56DPPC   C43 2793   5.915   0.230   2.363 -0.7317  0.1726  0.0186
   56DPPC   C44 2794   5.942   0.365   2.430  0.2134 -0.2532  0.5020
   56DPPC   C45 2795   5.838   0.396   2.537 -0.1429  0.6767 -0.1102
   56DPPC   C46 2796   5.839   0.304   2.659  0.0996  0.6878 -0.1034
   56DPPC   C47 2797   5.761   0.361   2.779 -0.1109  0.1070  0.0387
   56DPPC   C48 2798   5.746   0.276   2.905 -0.6981 -0.1302 -0.1905
   56DPPC   C49 2799   5.663   0.371   2.991 -0.0550  0.0473  0.2377
   56DPPC   C50 2800   5.639   0.289   3.118 -0.0872 -0.6526 -0.2127
   57DPPC    C1 2801   0.606   5.702   1.034 -0.1525  0.2699 -0.0562
   57DPPC    C2 2802   0.693   5.914   0.973  0.1893  0.5681 -0.4567
   57DPPC    C3 2803   0.525   5.806   0.840 -0.0120 -0.4720 -0.0965
   57DPPC    N4 2804   0.646   5.785   0.920  0.0156  0.4028  0.0971
   57DPPC    C5 2805   0.750   5.732   0.831  0.0603  0.0622  0.3522
   57DPPC    C6 2806   0.869   5.650   0.880  0.4113  0.4743  0.1979
   57DPPC    O7 2807   0.942   5.703   0.991  0.1766  0.3426  0.4173
   57DPPC    P8 2808   1.036   5.588   1.052 -0.1613 -0.0316  0.2301
   57DPPC    O9 2809   1.047   5.470   0.962 -0.0420 -0.0641  0.2871
   57DPPC   O10 2810   1.153   5.652   1.115  0.1061 -0.3330  0.0450
   57DPPC   O11 2811   0.935   5.555   1.173 -0.2535 -0.0100  0.1597
   57DPPC   C12 2812   0.930   5.659   1.271  0.4403  0.3559 -0.1820
   57DPPC   C13 2813   0.895   5.617   1.414 -0.0141 -0.0581 -0.4081
   57DPPC   O14 2814   0.882   5.736   1.494  0.2511 -0.0664 -0.3502
   57DPPC   C15 2815   0.985   5.822   1.518  0.3885 -0.5854  0.9921
   57DPPC   O16 2816   1.098   5.800   1.474  0.0814  0.2311 -0.2689
   57DPPC   C17 2817   0.955   5.944   1.605 -0.0588  0.0813 -0.0764
   57DPPC   C18 2818   0.851   5.893   1.704 -0.5107  0.1121 -0.5301
   57DPPC   C19 2819   0.813   5.984   1.821 -0.0095  0.1911 -0.4283
   57DPPC   C20 2820   0.722   5.908   1.917  0.5972 -0.3818 -0.2973
   57DPPC   C21 2821   0.769   5.769   1.959 -0.0008 -0.5157 -0.0540
   57DPPC   C22 2822   0.679   5.715   2.070  0.6912  0.1262  0.8370
   57DPPC   C23 2823   0.735   5.580   2.114  0.6923 -0.3260 -0.5034
   57DPPC   C24 2824   0.672   5.536   2.247 -0.1000  0.4186 -0.6220
   57DPPC   C25 2825   0.521   5.529   2.265 -0.0438  0.1327 -0.2466
   57DPPC   C26 2826   0.471   5.481   2.401  0.1641  0.6860  0.0264
   57DPPC   C27 2827   0.318   5.493   2.408  0.1014 -0.2273  0.2369
   57DPPC   C28 2828   0.297   5.465   2.557 -0.8035 -0.4249  0.0748
   57DPPC   C29 2829   0.351   5.332   2.610  0.2642 -0.0430 -0.0403
   57DPPC   C30 2830   0.273   5.272   2.728  0.0784 -0.1061 -0.1957
   57DPPC   C31 2831   0.125   5.267   2.689  0.0619 -0.0872 -0.1342
   57DPPC   C32 2832   0.995   5.508   1.454 -0.3126 -0.1919 -0.0152
   57DPPC   O33 2833   0.927   5.421   1.545 -0.6235 -0.1784 -0.2322
   57DPPC   C34 2834   0.972   5.297   1.580 -0.6355 -0.3194 -0.6954
   57DPPC   O35 2835   1.055   5.243   1.508 -0.0359  0.0134 -0.2572
   57DPPC   C36 2836   0.916   5.236   1.709  0.7178 -0.6121 -0.2324
   57DPPC   C37 2837   1.016   5.274   1.819  0.2273  0.1348 -0.0308
   57DPPC   C38 2838   0.951   5.263   1.957 -0.1772 -0.0364 -0.2318
   57DPPC   C39 2839   1.040   5.180   2.051  0.0832 -0.1393 -0.5661
   57DPPC   C40 2840   1.004   5.175   2.200  0.5394  0.3295 -0.4363
   57DPPC   C41 2841   1.004   5.308   2.274 -0.0529  0.2928 -0.3692
   57DPPC   C42 2842   0.931   5.291   2.408  0.4943 -0.8457 -0.2057
   57DPPC   C43 2843   1.016   5.215   2.510  0.4217  0.1659  0.6285
   57DPPC   C44 2844   0.927   5.194   2.632  0.1355  0.2001  0.4264
   57DPPC   C45 2845   0.868   5.330   2.670 -0.1836  0.3990 -0.7683
   57DPPC   C46 2846   0.767   5.317   2.784  0.3683  0.0184 -0.3208
   57DPPC   C47 2847   0.711   5.460   2.786  0.0604 -0.1061  0.7354
   57DPPC   C48 2848   0.578   5.483   2.857 -0.1816 -0.2196  0.3203
   57DPPC   C49 2849   0.582   5.440   3.003 -0.0237  0.0108  0.3837
   57DPPC   C50 2850   0.458   5.476   3.084 -0.3735 -0.6347  0.1444
   58DPPC    C1 2851   1.221   6.355   1.302  0.6821  0.2846 -0.3951
   58DPPC    C2 2852   1.209   6.189   1.148  0.0550  0.7505  0.0806
   58DPPC    C3 2853   1.065   6.171   1.327 -0.0907  0.3301  0.1997
   58DPPC    N4 2854   1.123   6.270   1.235  0.0315  0.4187  0.3697
   58DPPC    C5 2855   1.026   6.366   1.178  0.0777 -0.0369 -0.5026
   58DPPC    C6 2856   0.912   6.311   1.092 -0.0425  0.1750 -0.4785
   58DPPC    O7 2857   0.811   6.406   1.057  0.1092  0.4895 -0.0636
   58DPPC    P8 2858   0.663   6.357   1.017  0.4706 -0.7017  0.0292
   58DPPC    O9 2859   0.646   6.401   0.877  0.0630 -0.2923  0.2050
   58DPPC   O10 2860   0.655   6.218   1.067 -0.1658 -0.4590  0.6174
   58DPPC   O11 2861   0.588   6.456   1.120  0.8702 -0.0866 -0.2644
   58DPPC   C12 2862   0.644   6.426   1.248 -0.2589 -0.0344  0.2489
   58DPPC   C13 2863   0.627   6.515   1.372 -0.0544  0.4144 -0.0399
   58DPPC   O14 2864   0.655   6.440   1.491 -0.3458  0.3357 -0.0196
   58DPPC   C15 2865   0.596   6.324   1.531 -0.4614  0.3080 -0.2705
   58DPPC   O16 2866   0.531   6.250   1.458 -0.2325  0.1967 -0.3639
   58DPPC   C17 2867   0.644   6.277   1.668 -0.7515 -0.1237 -0.3146
   58DPPC   C18 2868   0.640   6.388   1.774 -0.0053 -0.3494 -0.0375
   58DPPC   C19 2869   0.687   6.349   1.914  0.0074 -0.5189 -0.0888
   58DPPC   C20 2870   0.667   6.460   2.017  0.2354 -0.2673 -0.3135
   58DPPC   C21 2871   0.742   6.429   2.147 -0.0854  0.7578  0.1336
   58DPPC   C22 2872   0.737   6.557   2.230 -0.6945  0.4481  0.5716
   58DPPC   C23 2873   0.818   6.543   2.359 -0.3375 -0.2042  0.2802
   58DPPC   C24 2874   0.792   6.660   2.454  0.0395  0.2311 -0.1493
   58DPPC   C25 2875   0.878   6.649   2.580 -0.1024 -0.1034 -0.0807
   58DPPC   C26 2876   0.865   6.516   2.654 -0.7701  0.3897  0.7149
   58DPPC   C27 2877   0.993   6.484   2.733 -0.5170 -0.2241  0.0711
   58DPPC   C28 2878   0.985   6.361   2.823  0.1707 -0.2042  0.1606
   58DPPC   C29 2879   1.123   6.360   2.891  0.3591 -0.2436 -0.2229
   58DPPC   C30 2880   1.149   6.246   2.990  0.4604 -0.0529 -0.0317
   58DPPC   C31 2881   1.045   6.247   3.102  0.5851 -0.0511  0.0848
   58DPPC   C32 2882   0.484   6.571   1.369 -0.3334 -0.2842 -0.0989
   58DPPC   O33 2883   0.469   6.684   1.455 -0.0648 -0.0920 -0.3013
   58DPPC   C34 2884   0.345   6.736   1.475 -0.0525 -0.1548 -0.0543
   58DPPC   O35 2885   0.255   6.718   1.393  0.1146 -0.2560 -0.2154
   58DPPC   C36 2886   0.336   6.832   1.594  0.1326  0.0623 -0.2136
   58DPPC   C37 2887   0.232   6.791   1.698  0.1331  0.6421  0.0165
   58DPPC   C38 2888   0.235   6.875   1.826  0.4247 -0.0567  0.4735
   58DPPC   C39 2889   0.147   6.810   1.934 -0.3203 -0.2431 -0.2368
   58DPPC   C40 2890   0.185   6.849   2.076 -0.4096  0.2091 -0.3354
   58DPPC   C41 2891   0.091   6.762   2.160  0.0139  0.4470  0.3943
   58DPPC   C42 2892   0.112   6.805   2.306  0.1172  0.6098  0.3320
   58DPPC   C43 2893   0.010   6.734   2.395 -0.2571  0.5031 -0.1767
   58DPPC   C44 2894   0.035   6.773   2.541  0.3006 -0.7822  0.0869
   58DPPC   C45 2895  -0.074   6.711   2.628  0.2833 -0.4821  0.2774
   58DPPC   C46 2896  -0.041   6.736   2.776 -0.1321  0.1172  0.2759
   58DPPC   C47 2897  -0.159   6.686   2.859 -0.0910 -0.5081 -0.0302
   58DPPC   C48 2898  -0.136   6.727   3.005  0.2323 -0.0323 -0.2103
   58DPPC   C49 2899  -0.275   6.711   3.067  0.2149 -0.1845 -0.2870
   58DPPC   C50 2900  -0.351   6.840   3.100 -0.1367 -0.5053  0.1772
   59DPPC    C1 2901   0.334   0.520   1.060  0.4386 -0.4381  0.4439
   59DPPC    C2 2902   0.417   0.510   0.836 -0.6343  0.0797  0.1015
   59DPPC    C3 2903   0.270   0.348   0.911  0.4232 -0.7260  0.1047
   59DPPC    N4 2904   0.383   0.430   0.955  0.0750 -0.2339  0.0970
   59DPPC    C5 2905   0.487   0.334   0.995  0.1258 -0.2671 -0.1147
   59DPPC    C6 2906   0.632   0.378   1.017  0.0315 -0.2168  0.3953
   59DPPC    O7 2907   0.642   0.418   1.154  0.2620  0.8994  0.0606
   59DPPC    P8 2908   0.770   0.514   1.172  0.7099  0.3157  0.0548
   59DPPC    O9 2909   0.892   0.431   1.165  0.6142  0.1292  0.5491
   59DPPC   O10 2910   0.736   0.611   1.065 -0.4928 -0.0418  0.0948
   59DPPC   O11 2911   0.742   0.580   1.317 -0.4457 -0.2020  0.0795
   59DPPC   C12 2912   0.611   0.633   1.331 -0.5321 -0.3899 -0.0045
   59DPPC   C13 2913   0.589   0.675   1.477  0.1757 -0.5003  0.1387
   59DPPC   O14 2914   0.461   0.737   1.502  0.0473 -0.2700 -1.0142
   59DPPC   C15 2915   0.424   0.855   1.446 -0.3796  0.0235 -0.1159
   59DPPC   O16 2916   0.475   0.918   1.354 -0.9524 -0.2479 -0.6286
   59DPPC   C17 2917   0.278   0.886   1.482 -0.2949  0.5103 -0.1829
   59DPPC   C18 2918   0.186   0.768   1.450  0.0785  0.1565  0.0340
   59DPPC   C19 2919   0.041   0.793   1.494 -0.2904 -0.7366 -0.6423
   59DPPC   C20 2920   0.046   0.777   1.646 -0.4441  0.9434 -0.4443
   59DPPC   C21 2921  -0.085   0.805   1.720 -0.4697  0.4390 -0.2976
   59DPPC   C22 2922  -0.081   0.774   1.870 -0.2450 -0.4717 -0.4873
   59DPPC   C23 2923  -0.210   0.774   1.952 -0.0631  0.0245 -0.1999
   59DPPC   C24 2924  -0.183   0.742   2.100  0.3646  0.6251 -0.1432
   59DPPC   C25 2925  -0.292   0.788   2.197 -0.1205 -0.4459 -0.1575
   59DPPC   C26 2926  -0.254   0.744   2.338  0.2705 -0.2149 -0.1870
   59DPPC   C27 2927  -0.354   0.794   2.443 -0.2852 -0.1274 -0.7513
   59DPPC   C28 2928  -0.305   0.733   2.574 -0.7569  0.3920 -0.3258
   59DPPC   C29 2929  -0.400   0.759   2.691 -0.1928 -0.2630  0.2888
   59DPPC   C30 2930  -0.331   0.747   2.827  0.1486 -0.9251  0.0641
   59DPPC   C31 2931  -0.428   0.791   2.936  0.2866 -0.5652  0.0432
   59DPPC   C32 2932   0.715   0.760   1.494  0.0295 -0.3475  0.4663
   59DPPC   O33 2933   0.733   0.807   1.628 -0.5310  0.3850  0.2909
   59DPPC   C34 2934   0.850   0.869   1.659 -0.0612 -0.2893 -0.0849
   59DPPC   O35 2935   0.940   0.884   1.577 -0.0418  0.0691 -0.0001
   59DPPC   C36 2936   0.869   0.890   1.809  0.2840  0.0051 -0.1688
   59DPPC   C37 2937   0.977   0.991   1.849  0.5035 -0.3321  0.0956
   59DPPC   C38 2938   0.977   0.987   2.002  0.4172  0.4226  0.1178
   59DPPC   C39 2939   0.857   1.066   2.056 -0.0916  0.0029 -0.3776
   59DPPC   C40 2940   0.830   1.038   2.204 -0.1026 -0.3747 -0.4507
   59DPPC   C41 2941   0.698   1.100   2.250  0.0157 -0.3651 -0.1258
   59DPPC   C42 2942   0.692   1.084   2.402 -0.2274 -0.0561 -0.1034
   59DPPC   C43 2943   0.557   1.126   2.462 -0.2103 -0.2999  0.1051
   59DPPC   C44 2944   0.565   1.139   2.614  0.0209  0.2017  0.0520
   59DPPC   C45 2945   0.438   1.169   2.695 -0.0383  0.0064  0.0332
   59DPPC   C46 2946   0.486   1.209   2.835 -0.6391 -0.0914  0.2696
   59DPPC   C47 2947   0.538   1.084   2.906 -0.6453 -0.2696 -0.0367
   59DPPC   C48 2948   0.562   1.100   3.056 -0.2881 -0.0003 -0.1190
   59DPPC   C49 2949   0.657   1.206   3.111 -0.3576  0.0068 -0.0107
   59DPPC   C50 2950   0.646   1.194   3.263 -0.3596 -0.1578 -0.0240
   60DPPC    C1 2951   0.439   4.519   1.207  0.5673  0.2563 -0.1110
   60DPPC    C2 2952   0.291   4.446   1.048 -0.6874  0.7679 -0.2013
   60DPPC    C3 2953   0.433   4.624   0.984  0.5213  0.1074  0.1764
   60DPPC    N4 2954   0.356   4.568   1.096  0.2971  0.1547  0.0467
   60DPPC    C5 2955   0.244   4.660   1.122  0.2891  0.1204  0.1351
   60DPPC    C6 2956   0.282   4.791   1.193 -0.2526  0.4096 -0.1027
   60DPPC    O7 2957   0.179   4.880   1.150 -0.0696  0.7193  0.0932
   60DPPC    P8 2958   0.243   5.013   1.087  0.5029  0.4612  0.1201
   60DPPC    O9 2959   0.359   4.958   1.014 -0.0353 -0.3935 -0.1011
   60DPPC   O10 2960   0.138   5.090   1.015 -0.2567 -0.5700  0.1073
   60DPPC   O11 2961   0.290   5.059   1.234 -0.1430  0.0694  0.4528
   60DPPC   C12 2962   0.171   5.074   1.311 -0.1224 -0.0269  0.5040
   60DPPC   C13 2963   0.179   5.138   1.450  0.8245 -0.4646  0.6590
   60DPPC   O14 2964   0.062   5.142   1.533  0.1234  0.2806 -0.3369
   60DPPC   C15 2965  -0.049   5.196   1.476 -0.1482 -0.1881 -0.2520
   60DPPC   O16 2966  -0.056   5.219   1.355  0.2697 -0.0602 -0.2534
   60DPPC   C17 2967  -0.169   5.227   1.566  0.0604 -0.0386 -0.0230
   60DPPC   C18 2968  -0.146   5.167   1.704  0.2432  0.1208  0.0156
   60DPPC   C19 2969  -0.270   5.161   1.794  0.0159  0.5551 -0.2693
   60DPPC   C20 2970  -0.319   5.301   1.833 -0.3478  0.3435  0.0315
   60DPPC   C21 2971  -0.431   5.285   1.936 -0.2015 -0.2426  0.1024
   60DPPC   C22 2972  -0.479   5.414   2.002  0.4371  0.0194  0.0521
   60DPPC   C23 2973  -0.596   5.388   2.097 -0.2438  0.6259 -0.6097
   60DPPC   C24 2974  -0.604   5.479   2.220  0.3463 -0.0608 -0.0541
   60DPPC   C25 2975  -0.493   5.447   2.321  0.0157 -0.3982  0.2069
   60DPPC   C26 2976  -0.498   5.534   2.446 -0.0623 -0.1477  0.0295
   60DPPC   C27 2977  -0.506   5.681   2.401  0.8023 -0.0994  0.0345
   60DPPC   C28 2978  -0.543   5.770   2.519 -0.4952  0.4837 -0.7991
   60DPPC   C29 2979  -0.659   5.708   2.597  0.2509 -0.2086 -0.2249
   60DPPC   C30 2980  -0.689   5.779   2.730  0.0528 -0.3710 -0.1809
   60DPPC   C31 2981  -0.558   5.780   2.809 -0.1621  0.5943  0.1875
   60DPPC   C32 2982   0.254   5.269   1.425  0.2471 -0.3566 -0.6097
   60DPPC   O33 2983   0.385   5.278   1.481 -0.1117  0.2126  0.1523
   60DPPC   C34 2984   0.437   5.403   1.468 -0.2657  0.1975 -0.6077
   60DPPC   O35 2985   0.397   5.480   1.381  0.3997  0.8064 -0.3887
   60DPPC   C36 2986   0.572   5.410   1.540 -0.7713  0.0242  0.3585
   60DPPC   C37 2987   0.561   5.439   1.690 -0.1239  0.2446  0.3666
   60DPPC   C38 2988   0.475   5.565   1.704  0.2198  0.5238 -0.0268
   60DPPC   C39 2989   0.412   5.561   1.843 -0.4051  0.2020 -0.3126
   60DPPC   C40 2990   0.320   5.438   1.845 -0.5166  0.2882  0.0616
   60DPPC   C41 2991   0.252   5.420   1.980 -0.8531  0.3660 -0.0954
   60DPPC   C42 2992   0.152   5.306   1.963  0.0006 -0.2625 -1.0335
   60DPPC   C43 2993   0.091   5.275   2.100  0.4673 -0.3387 -0.8409
   60DPPC   C44 2994  -0.022   5.172   2.105  0.1975 -0.0128  0.0072
   60DPPC   C45 2995  -0.057   5.174   2.254 -0.1562  0.3167 -0.0816
   60DPPC   C46 2996  -0.205   5.136   2.261 -0.3152  0.7583 -0.8500
   60DPPC   C47 2997  -0.249   5.163   2.405  0.1095  0.0684 -0.5861
   60DPPC   C48 2998  -0.203   5.050   2.498  0.0485  0.4373 -0.1038
   60DPPC   C49 2999  -0.247   5.092   2.639 -0.5045 -0.5841  0.0395
   60DPPC   C50 3000  -0.217   4.980   2.739 -0.1587 -0.3106  0.2451
   61DPPC    C1 3001   1.527   5.566   1.005 -0.4535  0.3069  0.3587
   61DPPC    C2 3002   1.395   5.375   1.027  0.0319  0.1442  0.4727
   61DPPC    C3 3003   1.632   5.376   1.087  0.1918  0.2948 -0.4010
   61DPPC    N4 3004   1.505   5.449   1.091  0.1259  0.1521  0.3027
   61DPPC    C5 3005   1.469   5.509   1.221 -0.2190  0.1057  0.2301
   61DPPC    C6 3006   1.391   5.428   1.324  0.2719 -0.0852  0.4564
   61DPPC    O7 3007   1.471   5.322   1.378  0.4997 -0.0395  0.2086
   61DPPC    P8 3008   1.395   5.180   1.372  0.1030  0.1912 -0.4012
   61DPPC    O9 3009   1.263   5.187   1.307 -0.0541 -0.2843 -0.1418
   61DPPC   O10 3010   1.496   5.089   1.312  0.8118  0.5863  0.1743
   61DPPC   O11 3011   1.375   5.156   1.530  0.2891 -0.7614 -0.5115
   61DPPC   C12 3012   1.373   5.016   1.555  0.7493 -0.7068 -0.1437
   61DPPC   C13 3013   1.399   4.984   1.702  0.2462  0.1031  0.1233
   61DPPC   O14 3014   1.381   4.845   1.732  0.5684 -0.0031 -0.1740
   61DPPC   C15 3015   1.435   4.784   1.841  0.0517 -0.1374  0.0093
   61DPPC   O16 3016   1.548   4.804   1.884  0.2218 -0.5635 -0.2334
   61DPPC   C17 3017   1.353   4.670   1.902  0.2973 -0.1318  0.3489
   61DPPC   C18 3018   1.331   4.669   2.054 -0.4995  0.6198  0.2493
   61DPPC   C19 3019   1.280   4.797   2.120 -0.3120  0.8106  0.0276
   61DPPC   C20 3020   1.275   4.788   2.273  0.5681 -0.1581  0.0132
   61DPPC   C21 3021   1.203   4.660   2.314 -0.2445  0.2219 -0.2080
   61DPPC   C22 3022   1.217   4.649   2.466 -0.0768  0.0544 -0.2357
   61DPPC   C23 3023   1.143   4.762   2.539 -0.4459 -0.5747  0.3708
   61DPPC   C24 3024   1.157   4.738   2.689 -0.5733 -0.5146  0.3919
   61DPPC   C25 3025   1.111   4.855   2.776 -0.2479 -0.0905 -0.0081
   61DPPC   C26 3026   1.089   4.822   2.923  0.4937 -0.1537  0.0937
   61DPPC   C27 3027   1.051   4.950   2.998  0.4172 -0.2625  0.2421
   61DPPC   C28 3028   1.157   5.059   2.975  0.5306 -0.3612  0.2934
   61DPPC   C29 3029   1.138   5.187   3.057  0.1550 -0.4812  0.4003
   61DPPC   C30 3030   1.225   5.293   2.988 -0.2510 -0.7237 -0.5021
   61DPPC   C31 3031   1.140   5.420   2.997  0.0635 -0.5337 -0.2004
   61DPPC   C32 3032   1.311   5.082   1.780 -0.1723 -0.0835 -0.1095
   61DPPC   O33 3033   1.352   5.104   1.916  0.0292 -0.2629 -0.1412
   61DPPC   C34 3034   1.435   5.210   1.932 -0.6343  0.2660 -0.1537
   61DPPC   O35 3035   1.489   5.267   1.838  0.1998 -0.0294  0.1249
   61DPPC   C36 3036   1.486   5.233   2.075 -0.3744 -0.0216 -0.1978
   61DPPC   C37 3037   1.387   5.314   2.159 -0.3787 -0.6351  0.3917
   61DPPC   C38 3038   1.418   5.306   2.309 -0.3508  0.2438  0.4367
   61DPPC   C39 3039   1.423   5.163   2.362 -0.3004  0.1626  0.2115
   61DPPC   C40 3040   1.435   5.153   2.514 -0.0108 -0.1316  0.1727
   61DPPC   C41 3041   1.461   5.007   2.549  0.4480 -0.0994 -0.0248
   61DPPC   C42 3042   1.469   5.001   2.702 -0.2132 -0.2057  0.0090
   61DPPC   C43 3043   1.613   5.047   2.727 -0.2856 -0.0447  0.1291
   61DPPC   C44 3044   1.641   5.074   2.875  0.1987 -0.2575  0.0763
   61DPPC   C45 3045   1.790   5.107   2.892  0.1057  0.1422  0.1263
   61DPPC   C46 3046   1.796   5.165   3.033  0.4987  0.2852  0.0512
   61DPPC   C47 3047   1.938   5.181   3.087  0.3955 -0.3432  0.5209
   61DPPC   C48 3048   2.018   5.265   2.987  0.0272 -0.0402  0.4786
   61DPPC   C49 3049   2.167   5.265   3.022  0.0649  0.1220  0.3198
   61DPPC   C50 3050   2.252   5.344   2.922 -0.1532 -0.3812 -0.2713
   62DPPC    C1 3051   1.986   5.269   1.467 -0.1572  0.2242  0.3569
   62DPPC    C2 3052   1.820   5.417   1.374 -0.5745 -0.1632 -0.8216
   62DPPC    C3 3053   2.050   5.412   1.299 -0.9583 -0.2445  0.3472
   62DPPC    N4 3054   1.960   5.404   1.415 -0.9037  0.1086  0.4131
   62DPPC    C5 3055   1.976   5.496   1.529 -0.5907 -0.2784  0.6821
   62DPPC    C6 3056   2.022   5.641   1.514 -0.5111 -0.3796 -0.0805
   62DPPC    O7 3057   2.006   5.715   1.635  0.2148 -0.0091 -0.2045
   62DPPC    P8 3058   2.047   5.863   1.587  0.3739 -0.0441 -0.1758
   62DPPC    O9 3059   2.066   5.955   1.701  0.0058  0.2865 -0.3802
   62DPPC   O10 3060   2.158   5.861   1.488  0.1564  0.2721 -0.4281
   62DPPC   O11 3061   1.918   5.892   1.496  0.4711  0.0101 -0.2980
   62DPPC   C12 3062   1.854   6.011   1.542 -0.0583 -0.3198 -0.1614
   62DPPC   C13 3063   1.730   6.044   1.460  0.4012  0.3259 -0.6099
   62DPPC   O14 3064   1.677   6.171   1.498 -0.3477 -0.1384 -0.0774
   62DPPC   C15 3065   1.564   6.227   1.446  0.4505  0.5764 -1.0624
   62DPPC   O16 3066   1.492   6.159   1.373  0.3313 -0.2813 -0.1718
   62DPPC   C17 3067   1.522   6.358   1.512  0.1149  0.1109 -0.3470
   62DPPC   C18 3068   1.492   6.363   1.662  0.4304  0.0923 -0.2829
   62DPPC   C19 3069   1.360   6.439   1.677 -0.2968 -1.2002  0.0315
   62DPPC   C20 3070   1.303   6.429   1.818  0.4566 -0.3951  0.4018
   62DPPC   C21 3071   1.161   6.485   1.831  0.4660 -0.1314 -0.6017
   62DPPC   C22 3072   1.155   6.638   1.841  0.2291 -0.1993  0.3233
   62DPPC   C23 3073   1.220   6.675   1.974  0.5142 -0.2050  0.1856
   62DPPC   C24 3074   1.204   6.817   2.030 -0.4456 -0.0772 -0.3973
   62DPPC   C25 3075   1.057   6.856   2.051 -0.3566 -0.1028  0.2698
   62DPPC   C26 3076   1.036   6.993   2.116  0.0705  0.3419 -0.5247
   62DPPC   C27 3077   1.026   6.982   2.268 -0.4424  0.4562 -0.5491
   62DPPC   C28 3078   0.951   7.100   2.331 -0.3304  0.2995 -0.1242
   62DPPC   C29 3079   0.969   7.082   2.482  0.1315 -0.2228 -0.2383
   62DPPC   C30 3080   0.875   7.184   2.546  0.3131 -0.1468 -0.0917
   62DPPC   C31 3081   0.874   7.179   2.699  0.3794 -0.4801 -0.1011
   62DPPC   C32 3082   1.648   5.915   1.468  0.4079  0.3751  0.2882
   62DPPC   O33 3083   1.604   5.873   1.598 -0.1045  0.2730  0.0848
   62DPPC   C34 3084   1.542   5.752   1.587 -0.1883  0.3324 -0.0969
   62DPPC   O35 3085   1.557   5.679   1.489 -0.1514 -0.8022  0.7396
   62DPPC   C36 3086   1.461   5.697   1.704 -0.3625  0.2516 -0.2542
   62DPPC   C37 3087   1.355   5.597   1.659 -0.2688 -0.0620  0.2152
   62DPPC   C38 3088   1.261   5.543   1.768  0.1137 -0.7214  0.2243
   62DPPC   C39 3089   1.146   5.642   1.785  0.5217 -0.1857 -0.0919
   62DPPC   C40 3090   1.099   5.616   1.928  0.7729  0.7224  0.1654
   62DPPC   C41 3091   1.201   5.667   2.030  0.6822 -0.0272  0.6405
   62DPPC   C42 3092   1.167   5.618   2.171  0.3505 -0.7885  0.3036
   62DPPC   C43 3093   1.244   5.710   2.266  0.2054 -0.7197  0.3555
   62DPPC   C44 3094   1.186   5.688   2.406  0.2575 -0.7826  0.3668
   62DPPC   C45 3095   1.035   5.711   2.404  0.3403 -0.1758  0.8289
   62DPPC   C46 3096   0.962   5.695   2.537 -0.4221  0.1549  0.4552
   62DPPC   C47 3097   0.853   5.802   2.547 -0.6473 -0.0362  0.0643
   62DPPC   C48 3098   0.908   5.944   2.536 -0.1087 -0.2866 -0.5015
   62DPPC   C49 3099   0.794   6.028   2.477  0.1039 -0.0251 -0.5436
   62DPPC   C50 3100   0.827   6.177   2.485  0.0707 -0.0293 -0.3118
   63DPPC    C1 3101   1.669   1.154   1.283 -0.0039 -0.0898  0.2361
   63DPPC    C2 3102   1.628   1.068   1.062 -0.1041  1.0808 -0.2920
   63DPPC    C3 3103   1.674   0.917   1.255  0.4390  0.0228  0.1196
   63DPPC    N4 3104   1.613   1.042   1.206  0.7354 -0.0314 -0.3972
   63DPPC    C5 3105   1.474   1.030   1.251  0.6620  0.1499 -0.5781
   63DPPC    C6 3106   1.396   0.919   1.180  0.0251  0.1092  0.1772
   63DPPC    O7 3107   1.269   0.915   1.246 -0.0500 -0.2976  0.0084
   63DPPC    P8 3108   1.169   0.796   1.204 -0.0436 -0.1939 -0.3092
   63DPPC    O9 3109   1.029   0.843   1.209 -0.1258 -0.4508 -0.1592
   63DPPC   O10 3110   1.227   0.717   1.092 -0.0541 -0.1705 -0.3310
   63DPPC   O11 3111   1.190   0.687   1.322  0.0937 -0.6387 -0.7401
   63DPPC   C12 3112   1.068   0.660   1.390  0.3676  0.3985  0.1828
   63DPPC   C13 3113   1.064   0.537   1.481  0.0076  0.6732  0.5464
   63DPPC   O14 3114   0.939   0.500   1.540 -0.0668  0.0355  0.0054
   63DPPC   C15 3115   0.907   0.371   1.568 -0.0602  0.0208 -0.0548
   63DPPC   O16 3116   0.984   0.284   1.529 -0.5133 -0.3549 -0.1224
   63DPPC   C17 3117   0.779   0.356   1.652 -0.1974  0.3274 -0.2085
   63DPPC   C18 3118   0.741   0.473   1.744  0.3028 -0.0094  0.4324
   63DPPC   C19 3119   0.636   0.437   1.848 -0.1632  0.0510 -0.0126
   63DPPC   C20 3120   0.666   0.510   1.979  0.1689  0.4505 -0.3081
   63DPPC   C21 3121   0.579   0.474   2.101  0.2563 -0.5610 -0.5389
   63DPPC   C22 3122   0.632   0.532   2.232 -0.3246  0.2842 -0.6773
   63DPPC   C23 3123   0.507   0.542   2.321  0.0853  0.3856 -0.1075
   63DPPC   C24 3124   0.559   0.599   2.453  0.1634 -0.0346  0.0443
   63DPPC   C25 3125   0.440   0.590   2.549  0.1332  0.2766  0.0349
   63DPPC   C26 3126   0.496   0.619   2.688  0.2992 -0.0187  0.0309
   63DPPC   C27 3127   0.387   0.603   2.794  0.2307 -0.2007 -0.0667
   63DPPC   C28 3128   0.292   0.722   2.786 -0.2716 -0.6272 -0.5624
   63DPPC   C29 3129   0.188   0.736   2.898 -0.1566 -0.4811 -0.4728
   63DPPC   C30 3130   0.088   0.851   2.879  0.2699 -0.0541 -0.1631
   63DPPC   C31 3131   0.024   0.873   3.016 -0.0640  0.0678 -0.3394
   63DPPC   C32 3132   1.188   0.543   1.571  0.7905 -0.0007 -0.4585
   63DPPC   O33 3133   1.180   0.643   1.673 -0.3487 -0.7286  0.1937
   63DPPC   C34 3134   1.286   0.645   1.758  0.1319  0.2075 -0.4144
   63DPPC   O35 3135   1.380   0.569   1.736 -0.2154 -0.3289 -0.0504
   63DPPC   C36 3136   1.303   0.767   1.850 -0.0892 -0.3877  0.4263
   63DPPC   C37 3137   1.372   0.736   1.984 -0.2045 -0.4766  0.4653
   63DPPC   C38 3138   1.406   0.863   2.063 -0.1148  0.3093 -0.8049
   63DPPC   C39 3139   1.326   0.875   2.192  0.3719  0.3257 -0.5011
   63DPPC   C40 3140   1.315   1.025   2.223 -0.3439  0.2167 -0.2043
   63DPPC   C41 3141   1.203   1.036   2.327 -0.2692 -0.1363 -0.0829
   63DPPC   C42 3142   1.192   1.170   2.401  0.2709 -0.4318  0.5363
   63DPPC   C43 3143   1.130   1.146   2.538  0.3298  0.2140  0.6769
   63DPPC   C44 3144   1.157   1.269   2.626  0.4855  0.4046  0.3618
   63DPPC   C45 3145   1.089   1.253   2.762 -0.1372  0.1755  0.0287
   63DPPC   C46 3146   1.149   1.343   2.870  0.1564  0.2720 -0.2127
   63DPPC   C47 3147   1.087   1.319   3.008 -0.3175 -0.4949 -0.5527
   63DPPC   C48 3148   1.118   1.175   3.049  0.3029 -0.1698  0.1455
   63DPPC   C49 3149   1.066   1.144   3.190 -0.7076  0.0947 -0.1606
   63DPPC   C50 3150   1.062   0.992   3.207 -0.0830  0.0524 -0.3648
   64DPPC    C1 3151   4.311   4.576   1.296 -0.6726 -0.3076 -0.3597
   64DPPC    C2 3152   4.431   4.378   1.218  0.3158 -0.0438 -0.0617
   64DPPC    C3 3153   4.537   4.559   1.343 -0.0546  0.4886 -0.0617
   64DPPC    N4 3154   4.416   4.477   1.325  0.0592  0.4190 -0.5183
   64DPPC    C5 3155   4.385   4.386   1.436  0.6135  0.5793 -0.2265
   64DPPC    C6 3156   4.491   4.349   1.540  0.1688  0.5314  0.2117
   64DPPC    O7 3157   4.601   4.277   1.485 -0.2436  0.2798 -0.2918
   64DPPC    P8 3158   4.722   4.300   1.589 -0.2774  0.1795 -0.2304
   64DPPC    O9 3159   4.831   4.248   1.504 -0.1577 -0.1127  0.1000
   64DPPC   O10 3160   4.703   4.443   1.622 -0.0340  0.1936 -0.1472
   64DPPC   O11 3161   4.673   4.205   1.710  0.2170 -0.0818 -0.2309
   64DPPC   C12 3162   4.670   4.280   1.832 -0.0071  0.4817 -0.5726
   64DPPC   C13 3163   4.541   4.247   1.906  0.4197  0.3424  0.1192
   64DPPC   O14 3164   4.499   4.333   2.014  0.0693 -0.2834  0.4890
   64DPPC   C15 3165   4.414   4.430   1.972  0.0446 -0.6110 -0.2383
   64DPPC   O16 3166   4.375   4.437   1.856  0.3147  0.2188 -0.2790
   64DPPC   C17 3167   4.361   4.514   2.088  0.3281 -0.8116  0.0401
   64DPPC   C18 3168   4.342   4.433   2.216 -0.5102 -0.6754  0.0085
   64DPPC   C19 3169   4.283   4.534   2.315 -0.0121 -0.3006 -0.0728
   64DPPC   C20 3170   4.249   4.469   2.449  0.5071  0.0725  0.2424
   64DPPC   C21 3171   4.178   4.558   2.551  0.3225 -0.0249  0.2000
   64DPPC   C22 3172   4.141   4.468   2.669 -0.1863 -0.2529 -0.1312
   64DPPC   C23 3173   4.053   4.353   2.619 -0.0128 -0.3850 -0.1336
   64DPPC   C24 3174   4.067   4.241   2.722 -0.2381  0.1364  0.4686
   64DPPC   C25 3175   3.979   4.297   2.834 -0.8836  0.1308 -0.0312
   64DPPC   C26 3176   3.995   4.215   2.962  0.1270  0.7144  0.2277
   64DPPC   C27 3177   3.916   4.271   3.081 -0.5221  0.2548  0.0148
   64DPPC   C28 3178   3.968   4.220   3.215  0.3262 -0.1679 -0.4697
   64DPPC   C29 3179   4.014   4.336   3.304 -0.1282 -0.4070  0.0817
   64DPPC   C30 3180   3.902   4.433   3.343  0.2811 -0.0551  0.3939
   64DPPC   C31 3181   3.947   4.542   3.440 -0.2764  0.4192  0.1270
   64DPPC   C32 3182   4.556   4.102   1.953  0.1602  0.3263  0.1573
   64DPPC   O33 3183   4.684   4.071   2.010 -0.1289 -0.3512  0.4400
   64DPPC   C34 3184   4.711   3.949   2.063 -0.1673 -0.4996  0.1192
   64DPPC   O35 3185   4.664   3.841   2.026 -0.2778 -0.3153 -0.2765
   64DPPC   C36 3186   4.832   3.967   2.155 -0.0303 -0.2657 -0.1077
   64DPPC   C37 3187   4.960   3.976   2.072  0.0746 -0.6859  0.0063
   64DPPC   C38 3188   5.065   4.008   2.178 -0.2553  0.0471  0.1163
   64DPPC   C39 3189   5.200   4.024   2.106 -0.1513  0.3298  0.3729
   64DPPC   C40 3190   5.306   4.068   2.207  0.3530 -0.1319  0.0445
   64DPPC   C41 3191   5.297   3.972   2.326 -0.4567 -0.1899 -0.0577
   64DPPC   C42 3192   5.355   4.033   2.454 -0.2649 -0.5733  0.0405
   64DPPC   C43 3193   5.367   3.930   2.566 -0.0915 -0.0928  0.4677
   64DPPC   C44 3194   5.426   4.009   2.683 -0.0728 -0.1239  0.4793
   64DPPC   C45 3195   5.457   3.931   2.811  0.0064 -0.2262  0.3992
   64DPPC   C46 3196   5.505   4.035   2.913  0.0700  0.1140  0.0254
   64DPPC   C47 3197   5.557   3.985   3.048 -0.0702 -0.2752 -0.0645
   64DPPC   C48 3198   5.582   4.096   3.150  0.2930 -0.2449 -0.1851
   64DPPC   C49 3199   5.645   4.026   3.270 -0.1745 -0.7200 -0.2110
   64DPPC   C50 3200   5.678   4.134   3.374  0.1685 -0.4922 -0.5572
   65DPPC    C1 3201   4.131   1.567   5.408 -0.0214 -0.0576 -0.3957
   65DPPC    C2 3202   4.027   1.457   5.236 -0.2962 -0.4998  0.1755
   65DPPC    C3 3203   4.136   1.326   5.400 -0.1205 -0.0559  0.0815
   65DPPC    N4 3204   4.147   1.449   5.321 -0.0285 -0.2239 -0.1713
   65DPPC    C5 3205   4.266   1.454   5.236 -0.0801  0.5921 -0.2081
   65DPPC    C6 3206   4.404   1.427   5.296 -0.2682 -0.1604 -0.0963
   65DPPC    O7 3207   4.514   1.443   5.206 -0.1919  0.6472  0.1294
   65DPPC    P8 3208   4.640   1.438   5.305  0.0580 -0.2388 -0.2206
   65DPPC    O9 3209   4.648   1.576   5.359  0.5267 -0.2915 -0.1459
   65DPPC   O10 3210   4.618   1.328   5.402  0.2805  0.1497  0.2806
   65DPPC   O11 3211   4.761   1.404   5.205  0.1179 -0.1647 -0.1733
   65DPPC   C12 3212   4.789   1.520   5.126  0.0056  0.2277  0.3592
   65DPPC   C13 3213   4.887   1.496   5.011 -0.5549  0.1668 -0.1101
   65DPPC   O14 3214   4.929   1.611   4.936 -0.2435 -0.0600 -0.2811
   65DPPC   C15 3215   5.029   1.603   4.844 -0.0237 -0.0224 -0.0457
   65DPPC   O16 3216   5.135   1.550   4.879  0.3169  0.8260  0.2544
   65DPPC   C17 3217   5.047   1.727   4.756  0.1072 -0.1019 -0.1316
   65DPPC   C18 3218   4.941   1.713   4.647  0.4794  0.1251 -0.5264
   65DPPC   C19 3219   4.978   1.774   4.512  0.4111 -0.0198 -0.6110
   65DPPC   C20 3220   4.863   1.781   4.411 -0.1580 -0.4890 -0.0014
   65DPPC   C21 3221   4.908   1.866   4.292 -0.3588 -0.5490 -0.1206
   65DPPC   C22 3222   4.831   1.835   4.163 -0.3822 -0.2739 -0.1725
   65DPPC   C23 3223   4.831   1.685   4.136 -0.2782 -0.3650  0.3249
   65DPPC   C24 3224   4.755   1.672   4.004  0.4700 -0.2839 -0.1195
   65DPPC   C25 3225   4.734   1.524   3.973  0.1741 -0.3451  0.3631
   65DPPC   C26 3226   4.633   1.521   3.857  0.4288  0.4770  0.1123
   65DPPC   C27 3227   4.614   1.375   3.814 -0.2105  0.6455 -0.1908
   65DPPC   C28 3228   4.523   1.343   3.696 -0.2174  0.0742 -0.0365
   65DPPC   C29 3229   4.565   1.423   3.572  0.2293 -0.1949 -0.0581
   65DPPC   C30 3230   4.471   1.387   3.457 -0.2896  0.3660  0.1871
   65DPPC   C31 3231   4.523   1.452   3.329 -0.0991  0.2212  0.1909
   65DPPC   C32 3232   4.830   1.387   4.920 -0.0985 -0.3682  0.2456
   65DPPC   O33 3233   4.698   1.427   4.882  0.1179  0.0924 -0.0269
   65DPPC   C34 3234   4.651   1.329   4.801 -0.0665  0.4021 -0.2934
   65DPPC   O35 3235   4.694   1.216   4.819  0.0861  0.4996 -0.0315
   65DPPC   C36 3236   4.530   1.358   4.711 -0.3350 -0.5073 -0.2323
   65DPPC   C37 3237   4.554   1.388   4.563 -0.1039 -0.8561 -0.2668
   65DPPC   C38 3238   4.423   1.428   4.495 -0.1162 -0.7705 -0.1918
   65DPPC   C39 3239   4.438   1.423   4.343 -0.2847  0.3689 -0.2524
   65DPPC   C40 3240   4.445   1.277   4.297  0.1036  0.3632 -0.1746
   65DPPC   C41 3241   4.420   1.270   4.147 -1.1836  0.0417  0.0443
   65DPPC   C42 3242   4.404   1.124   4.101  0.0633  0.2168 -1.0236
   65DPPC   C43 3243   4.539   1.054   4.110  0.0077  0.2040 -0.1517
   65DPPC   C44 3244   4.531   0.902   4.100 -0.4243  0.2372 -0.3260
   65DPPC   C45 3245   4.491   0.852   3.961  0.1728 -0.2820 -0.3156
   65DPPC   C46 3246   4.578   0.886   3.839  0.4859  0.1040  0.0134
   65DPPC   C47 3247   4.510   0.817   3.721 -0.0839  0.3802  0.1790
   65DPPC   C48 3248   4.543   0.883   3.587  0.2579 -0.8439 -0.3510
   65DPPC   C49 3249   4.422   0.955   3.526  0.3113 -0.2649  0.2149
   65DPPC   C50 3250   4.463   1.013   3.391  0.4153 -0.0545  0.3373
   66DPPC    C1 3251   1.610   1.708   5.032 -0.0474  0.2345 -0.1837
   66DPPC    C2 3252   1.745   1.703   5.225  0.4501 -0.6226 -0.5543
   66DPPC    C3 3253   1.832   1.823   5.063  0.1169  0.3853  0.3109
   66DPPC    N4 3254   1.699   1.789   5.116  0.1097 -0.1095 -0.0134
   66DPPC    C5 3255   1.632   1.902   5.181  0.4234  0.4076 -0.5773
   66DPPC    C6 3256   1.583   2.019   5.094  0.3470  0.5453 -0.3494
   66DPPC    O7 3257   1.539   2.134   5.167  0.1294  0.0944  0.2422
   66DPPC    P8 3258   1.583   2.265   5.085 -0.0301  0.0066  0.0152
   66DPPC    O9 3259   1.553   2.391   5.157 -0.1361  0.0411 -0.0880
   66DPPC   O10 3260   1.721   2.235   5.040 -0.0150  0.2400 -0.0984
   66DPPC   O11 3261   1.496   2.240   4.952 -0.3003  0.0558  0.1823
   66DPPC   C12 3262   1.564   2.283   4.833 -0.3867 -0.8197 -0.1891
   66DPPC   C13 3263   1.485   2.271   4.703 -0.8469 -0.0134  0.0114
   66DPPC   O14 3264   1.551   2.297   4.578  0.1908  0.5659  0.6710
   66DPPC   C15 3265   1.621   2.406   4.537 -0.5355  0.7577 -0.0828
   66DPPC   O16 3266   1.663   2.495   4.611 -0.1398  0.0937  0.4993
   66DPPC   C17 3267   1.648   2.403   4.387 -0.1997  0.0607 -0.0106
   66DPPC   C18 3268   1.570   2.514   4.317 -0.1779  0.0587 -0.0380
   66DPPC   C19 3269   1.417   2.516   4.325 -0.1847  0.0236 -0.1602
   66DPPC   C20 3270   1.351   2.409   4.239 -0.1098  0.1996 -0.4371
   66DPPC   C21 3271   1.199   2.404   4.257 -0.0736  0.3563 -0.0862
   66DPPC   C22 3272   1.139   2.288   4.177  0.2852  0.1698 -0.0860
   66DPPC   C23 3273   1.164   2.325   4.031  0.4380 -0.0613 -0.1193
   66DPPC   C24 3274   1.091   2.218   3.950  0.0478 -0.1944  0.4088
   66DPPC   C25 3275   1.080   2.241   3.800 -0.7122  0.1057  0.5057
   66DPPC   C26 3276   1.017   2.123   3.726 -0.5865  0.2388  0.1842
   66DPPC   C27 3277   1.017   2.170   3.580 -0.6859  0.1241  0.1472
   66DPPC   C28 3278   0.933   2.087   3.483  0.1269 -0.0242 -0.4387
   66DPPC   C29 3279   0.931   2.172   3.356  0.7411  0.3089 -0.2295
   66DPPC   C30 3280   0.832   2.118   3.253  0.0989  0.6973  0.1837
   66DPPC   C31 3281   0.846   2.205   3.128 -0.1071 -0.1606 -0.4474
   66DPPC   C32 3282   1.348   2.340   4.710 -0.6832  0.3694 -0.5094
   66DPPC   O33 3283   1.359   2.475   4.755 -0.1516  0.1409  0.0623
   66DPPC   C34 3284   1.252   2.557   4.735  0.0946  0.5091  0.2678
   66DPPC   O35 3285   1.142   2.504   4.738  0.3150 -0.0011 -0.4637
   66DPPC   C36 3286   1.287   2.701   4.776 -0.0197  0.5492  0.2237
   66DPPC   C37 3287   1.262   2.784   4.650  0.0718 -0.1705 -0.2755
   66DPPC   C38 3288   1.241   2.933   4.678 -0.2489 -0.3035  0.1904
   66DPPC   C39 3289   1.183   2.993   4.550  0.3243  0.2401  0.1846
   66DPPC   C40 3290   1.188   3.146   4.557 -0.0388  0.2552  0.1173
   66DPPC   C41 3291   1.088   3.190   4.449 -0.0067  0.1439  0.0421
   66DPPC   C42 3292   0.949   3.138   4.483  0.2247 -0.2387  0.4140
   66DPPC   C43 3293   0.852   3.143   4.365  0.4822  0.4693  0.2295
   66DPPC   C44 3294   0.902   3.072   4.239 -0.7239 -0.6440  0.3538
   66DPPC   C45 3295   0.818   3.122   4.122 -0.2482 -0.1513  0.2171
   66DPPC   C46 3296   0.672   3.077   4.125 -0.4008  0.3563  0.3060
   66DPPC   C47 3297   0.584   3.167   4.038  0.0461  0.2668 -0.2400
   66DPPC   C48 3298   0.622   3.167   3.889 -0.2718 -0.4062 -0.3239
   66DPPC   C49 3299   0.507   3.247   3.828 -0.0487  0.3939  0.2958
   66DPPC   C50 3300   0.530   3.270   3.679  0.0969 -0.9516  0.0998
   67DPPC    C1 3301   4.652   3.064   5.894  0.1730  0.3108  0.7333
   67DPPC    C2 3302   4.886   3.092   5.856 -0.1097 -0.4595  0.0281
   67DPPC    C3 3303   4.797   2.917   5.998  0.4730  0.0648  0.4784
   67DPPC    N4 3304   4.779   2.994   5.874 -0.2153 -0.2857  0.3556
   67DPPC    C5 3305   4.758   2.902   5.761 -0.5699 -0.6244  0.6908
   67DPPC    C6 3306   4.877   2.815   5.719 -0.3248  0.2984 -0.5792
   67DPPC    O7 3307   4.824   2.734   5.614  0.6441 -0.2947 -0.6196
   67DPPC    P8 3308   4.865   2.580   5.640 -0.0721 -0.3652  0.1440
   67DPPC    O9 3309   5.001   2.584   5.581 -0.1913  0.7769 -0.0766
   67DPPC   O10 3310   4.830   2.548   5.780  0.3933 -0.9179  0.1370
   67DPPC   O11 3311   4.759   2.518   5.537 -0.0192 -0.8285  0.3685
   67DPPC   C12 3312   4.808   2.498   5.405 -0.4401 -0.4629  0.1554
   67DPPC   C13 3313   4.695   2.448   5.315  0.1000  0.1957 -0.9118
   67DPPC   O14 3314   4.733   2.366   5.203  0.7154 -0.7751 -0.0173
   67DPPC   C15 3315   4.632   2.298   5.143  0.0812  0.0860  0.0506
   67DPPC   O16 3316   4.556   2.234   5.216 -0.1152  0.2222 -0.0338
   67DPPC   C17 3317   4.651   2.234   5.006  0.0741  0.3712 -0.0838
   67DPPC   C18 3318   4.794   2.248   4.953  0.2289  0.2226  0.2934
   67DPPC   C19 3319   4.789   2.240   4.800  0.7144 -0.4454  0.3121
   67DPPC   C20 3320   4.735   2.373   4.748  0.5186 -0.2798  0.9250
   67DPPC   C21 3321   4.716   2.391   4.597  0.2430 -0.0146  0.9922
   67DPPC   C22 3322   4.844   2.364   4.518 -0.6010 -0.6902 -0.1701
   67DPPC   C23 3323   4.855   2.421   4.376  0.9513  0.1015  0.2467
   67DPPC   C24 3324   4.884   2.315   4.269  0.3357 -0.3462  0.5200
   67DPPC   C25 3325   4.899   2.374   4.129  0.0536 -0.6243  0.3702
   67DPPC   C26 3326   4.955   2.267   4.035  0.4756  0.0966 -0.2090
   67DPPC   C27 3327   4.932   2.318   3.893 -0.5393 -0.2455 -0.1721
   67DPPC   C28 3328   5.026   2.256   3.789 -0.0181 -0.1231  0.2208
   67DPPC   C29 3329   4.981   2.309   3.653  0.2370 -0.3361  0.0532
   67DPPC   C30 3330   5.058   2.213   3.561  0.1747 -0.5384  0.2127
   67DPPC   C31 3331   5.062   2.246   3.412  0.2009 -0.3376  0.2570
   67DPPC   C32 3332   4.602   2.568   5.298 -0.2091 -0.0187 -0.7454
   67DPPC   O33 3333   4.669   2.692   5.273 -0.3313  0.1024 -0.4732
   67DPPC   C34 3334   4.589   2.802   5.277 -0.2085  0.1739  0.0082
   67DPPC   O35 3335   4.471   2.792   5.310 -0.2470 -0.4003 -0.3048
   67DPPC   C36 3336   4.662   2.926   5.224  0.1797  0.1588  0.4978
   67DPPC   C37 3337   4.643   2.962   5.077  0.7192 -0.5074  0.2588
   67DPPC   C38 3338   4.708   3.097   5.045 -0.2613 -0.0763  0.0199
   67DPPC   C39 3339   4.677   3.156   4.908 -0.3020  0.0592  0.0882
   67DPPC   C40 3340   4.797   3.118   4.820 -0.3213 -0.4451  0.2786
   67DPPC   C41 3341   4.765   3.171   4.680  0.4926  0.4363  0.4156
   67DPPC   C42 3342   4.853   3.110   4.570 -0.6552  0.1443 -0.3554
   67DPPC   C43 3343   4.848   3.190   4.440  0.0265  0.7643 -0.0015
   67DPPC   C44 3344   4.958   3.162   4.337 -0.0288  0.5212  0.0042
   67DPPC   C45 3345   4.937   3.257   4.219  0.4121  0.9189  0.2378
   67DPPC   C46 3346   5.055   3.247   4.122  0.0064 -0.3838 -0.1499
   67DPPC   C47 3347   5.048   3.359   4.018  0.7139 -0.1901  0.0055
   67DPPC   C48 3348   5.144   3.329   3.904 -0.0185 -0.4260 -0.5581
   67DPPC   C49 3349   5.125   3.443   3.803  0.0112  0.5158  0.4873
   67DPPC   C50 3350   5.030   3.399   3.691  0.1965 -0.1766  0.5969
   68DPPC    C1 3351   1.727   4.850   4.745 -0.1885  0.5400  0.1387
   68DPPC    C2 3352   1.844   4.654   4.798 -0.5391 -0.4852  0.3475
   68DPPC    C3 3353   1.877   4.824   4.954 -0.2265 -0.0847 -0.0404
   68DPPC    N4 3354   1.778   4.771   4.858 -0.1194  0.0522 -0.2276
   68DPPC    C5 3355   1.650   4.717   4.907 -0.1814 -0.3721 -0.8488
   68DPPC    C6 3356   1.652   4.631   5.033  0.4454  0.3311 -0.3647
   68DPPC    O7 3357   1.722   4.507   5.027  0.0028  0.0547  0.0583
   68DPPC    P8 3358   1.727   4.409   5.155 -0.1764 -0.1422 -0.0845
   68DPPC    O9 3359   1.833   4.309   5.130 -0.1390 -0.3231  0.7745
   68DPPC   O10 3360   1.720   4.490   5.279 -0.3208  0.1947 -0.3093
   68DPPC   O11 3361   1.581   4.347   5.127 -0.1608  0.1557 -0.8536
   68DPPC   C12 3362   1.600   4.246   5.028 -0.5230 -0.5049 -0.2526
   68DPPC   C13 3363   1.481   4.218   4.936 -0.4886 -0.2401 -0.3760
   68DPPC   O14 3364   1.485   4.092   4.867 -0.3525 -0.2213 -0.4038
   68DPPC   C15 3365   1.435   3.976   4.919  0.8254 -0.3949  0.3782
   68DPPC   O16 3366   1.391   3.954   5.032 -0.3406 -0.2118 -0.0294
   68DPPC   C17 3367   1.428   3.866   4.813  0.5098 -0.2807  0.2797
   68DPPC   C18 3368   1.295   3.793   4.833  0.4954 -0.2655  0.2398
   68DPPC   C19 3369   1.284   3.660   4.758  0.4544 -0.1690  0.0746
   68DPPC   C20 3370   1.289   3.680   4.606  0.2724  0.0721  0.1003
   68DPPC   C21 3371   1.230   3.564   4.526 -0.0504 -0.0110  0.4507
   68DPPC   C22 3372   1.261   3.575   4.376 -0.0990  0.2611  0.4617
   68DPPC   C23 3373   1.414   3.567   4.373 -0.1346 -0.4696  0.4119
   68DPPC   C24 3374   1.467   3.565   4.230 -0.2117 -0.0731  0.3751
   68DPPC   C25 3375   1.410   3.442   4.159  0.1253  0.0582 -0.1298
   68DPPC   C26 3376   1.443   3.460   4.010 -0.1967 -0.2495 -0.2393
   68DPPC   C27 3377   1.349   3.374   3.925 -0.4495 -0.3855  0.1731
   68DPPC   C28 3378   1.208   3.400   3.977 -0.3637  0.0012  0.2143
   68DPPC   C29 3379   1.119   3.281   3.941  0.3850 -0.3226 -0.5804
   68DPPC   C30 3380   1.112   3.272   3.788 -0.0671  0.3706 -0.6031
   68DPPC   C31 3381   1.069   3.129   3.753  0.2498  0.1135  0.0389
   68DPPC   C32 3382   1.503   4.334   4.838  0.2504 -0.0842 -0.0333
   68DPPC   O33 3383   1.392   4.385   4.764 -0.1455 -0.0994  0.5437
   68DPPC   C34 3384   1.411   4.500   4.694 -0.3504  0.3035  1.1367
   68DPPC   O35 3385   1.521   4.556   4.686 -0.1643 -0.2481 -0.8731
   68DPPC   C36 3386   1.287   4.566   4.633  0.1976  0.1934 -0.1342
   68DPPC   C37 3387   1.228   4.505   4.506  0.0127  0.0874  0.0031
   68DPPC   C38 3388   1.100   4.574   4.457 -0.3287 -0.4929  0.0614
   68DPPC   C39 3389   1.060   4.537   4.314 -0.3154 -0.2910  0.0052
   68DPPC   C40 3390   0.968   4.636   4.241 -0.0203 -0.0713 -0.0702
   68DPPC   C41 3391   0.945   4.576   4.102  0.9692  0.0015 -0.2766
   68DPPC   C42 3392   0.843   4.650   4.015  0.6692 -0.0118  0.0569
   68DPPC   C43 3393   0.872   4.637   3.865  0.2976  0.3690 -0.0487
   68DPPC   C44 3394   0.776   4.718   3.778 -0.2875  0.0021  0.2506
   68DPPC   C45 3395   0.634   4.662   3.794 -0.2283 -0.1334  0.2935
   68DPPC   C46 3396   0.548   4.730   3.688  0.1456  0.2549  0.2354
   68DPPC   C47 3397   0.411   4.664   3.707  0.4893 -0.7559 -0.7017
   68DPPC   C48 3398   0.303   4.729   3.620  0.2549  0.3316  0.3760
   68DPPC   C49 3399   0.327   4.695   3.473 -0.3025  0.4217  0.2624
   68DPPC   C50 3400   0.233   4.781   3.387 -0.4524  0.0301  0.0296
   69DPPC    C1 3401   3.467   1.431   4.526 -0.6065 -0.3563  0.3460
   69DPPC    C2 3402   3.400   1.350   4.737 -0.5327  1.0382  0.1982
   69DPPC    C3 3403   3.592   1.506   4.704 -0.5212  0.2600  0.1118
   69DPPC    N4 3404   3.517   1.389   4.657 -0.1212 -0.0565  0.2600
   69DPPC    C5 3405   3.598   1.271   4.620 -0.3028 -0.0135 -0.2734
   69DPPC    C6 3406   3.700   1.209   4.716  0.1885  0.0392 -0.7593
   69DPPC    O7 3407   3.812   1.283   4.765 -0.2416 -0.1098  0.4786
   69DPPC    P8 3408   3.891   1.211   4.885  0.0447 -0.0773  0.3115
   69DPPC    O9 3409   3.982   1.326   4.900 -0.0676  0.0193  0.2536
   69DPPC   O10 3410   3.774   1.169   4.966  0.2534 -0.6078  0.3390
   69DPPC   O11 3411   3.946   1.099   4.783 -0.0836  0.4602 -0.3558
   69DPPC   C12 3412   4.080   1.127   4.741  0.1876  0.3584  0.4244
   69DPPC   C13 3413   4.117   1.063   4.607  0.1860  0.5725  0.3212
   69DPPC   O14 3414   4.258   1.068   4.583  0.1223  0.0657 -0.1595
   69DPPC   C15 3415   4.321   0.966   4.647 -0.1736  0.1300  0.2349
   69DPPC   O16 3416   4.262   0.865   4.686 -0.2384  0.1068  0.0781
   69DPPC   C17 3417   4.474   0.974   4.653 -0.1299 -0.8279  0.6116
   69DPPC   C18 3418   4.541   0.895   4.540  0.1020  0.0001  0.1649
   69DPPC   C19 3419   4.678   0.854   4.592  0.1277  0.3366  0.3692
   69DPPC   C20 3420   4.763   0.802   4.475 -0.3136  0.0915  0.1566
   69DPPC   C21 3421   4.697   0.678   4.413  0.4296 -0.4018  0.3385
   69DPPC   C22 3422   4.780   0.599   4.313  0.4946 -0.3035  0.3145
   69DPPC   C23 3423   4.689   0.487   4.264  0.2894  0.3415 -0.8289
   69DPPC   C24 3424   4.565   0.548   4.199 -0.3287  0.0431  0.0398
   69DPPC   C25 3425   4.479   0.437   4.138  0.2820 -0.2113 -0.3675
   69DPPC   C26 3426   4.350   0.496   4.080  0.1239 -0.4193 -0.2252
   69DPPC   C27 3427   4.248   0.388   4.041 -0.1683 -0.4216  0.5326
   69DPPC   C28 3428   4.116   0.462   4.017  0.4573  0.2822 -0.8732
   69DPPC   C29 3429   4.027   0.363   3.942  0.1018  0.0313 -0.1371
   69DPPC   C30 3430   3.888   0.426   3.951  0.0158 -0.1155 -0.4133
   69DPPC   C31 3431   3.835   0.429   4.094  0.5094 -0.1601 -0.2276
   69DPPC   C32 3432   4.029   1.139   4.509 -0.0066 -0.4575 -0.3221
   69DPPC   O33 3433   4.059   1.279   4.498 -0.4652 -0.3434 -0.1807
   69DPPC   C34 3434   3.968   1.352   4.429  0.0064  0.2410 -0.1868
   69DPPC   O35 3435   3.860   1.303   4.398  0.2070 -0.0055 -0.5073
   69DPPC   C36 3436   3.974   1.504   4.448  0.2822  0.1460  0.5057
   69DPPC   C37 3437   4.059   1.585   4.349 -0.6007 -0.1732 -0.5348
   69DPPC   C38 3438   4.130   1.705   4.412 -0.1283 -0.4455 -0.5432
   69DPPC   C39 3439   4.218   1.776   4.309  0.0530 -0.1546 -0.1900
   69DPPC   C40 3440   4.129   1.826   4.195  0.0370  0.0046 -0.1072
   69DPPC   C41 3441   4.220   1.868   4.079  0.1391 -0.0817 -0.0594
   69DPPC   C42 3442   4.143   1.935   3.965  0.1681 -0.5386 -0.3485
   69DPPC   C43 3443   4.125   2.070   4.034 -0.7338 -0.4447 -0.7616
   69DPPC   C44 3444   4.056   2.173   3.944 -0.1856  0.1847 -0.4683
   69DPPC   C45 3445   4.133   2.203   3.816  0.3223  0.2039 -0.1606
   69DPPC   C46 3446   4.035   2.253   3.709 -0.1419  0.4111  0.3613
   69DPPC   C47 3447   4.116   2.290   3.585 -0.2154  0.3227  0.2871
   69DPPC   C48 3448   4.015   2.328   3.477 -0.2720  0.4084  0.3703
   69DPPC   C49 3449   4.088   2.384   3.354 -0.0923  0.1169  0.3426
   69DPPC   C50 3450   3.984   2.430   3.252 -0.2550  0.1522  0.5245
   70DPPC    C1 3451   3.191   2.151   5.219  0.2671 -0.0998  0.0751
   70DPPC    C2 3452   3.200   2.232   4.986  0.5411  0.1635  0.0203
   70DPPC    C3 3453   3.145   2.026   5.028 -0.1451  0.1147  0.1367
   70DPPC    N4 3454   3.238   2.127   5.081  0.0849 -0.0215 -0.0011
   70DPPC    C5 3455   3.374   2.076   5.058  0.1189  0.1933 -0.2794
   70DPPC    C6 3456   3.479   2.174   5.109 -0.0082  0.1600  0.0513
   70DPPC    O7 3457   3.497   2.286   5.022 -0.6603  0.0863 -0.1819
   70DPPC    P8 3458   3.546   2.407   5.117 -0.3082 -0.1183 -0.0989
   70DPPC    O9 3459   3.542   2.529   5.032 -0.6992 -0.1047 -0.0650
   70DPPC   O10 3460   3.439   2.391   5.218 -0.0193  0.4824  0.3044
   70DPPC   O11 3461   3.690   2.345   5.149 -0.2139 -0.0186 -0.3242
   70DPPC   C12 3462   3.786   2.398   5.057  0.2361 -0.2905 -0.0206
   70DPPC   C13 3463   3.901   2.303   5.023  0.3917 -0.1804  0.2004
   70DPPC   O14 3464   4.017   2.371   4.972 -0.3376  0.6772 -0.3358
   70DPPC   C15 3465   4.129   2.356   5.046 -0.1882 -0.2994 -0.7412
   70DPPC   O16 3466   4.134   2.293   5.152 -0.2300  0.2566 -0.4007
   70DPPC   C17 3467   4.251   2.436   4.999 -0.0254  0.0274  0.2166
   70DPPC   C18 3468   4.268   2.581   5.046  0.5271 -0.0752  0.3368
   70DPPC   C19 3469   4.395   2.651   4.996  0.1554  0.6826  0.4303
   70DPPC   C20 3470   4.401   2.622   4.846 -0.9094  0.4171  0.4331
   70DPPC   C21 3471   4.505   2.703   4.769 -0.7948 -0.2437 -0.1087
   70DPPC   C22 3472   4.487   2.694   4.617 -0.0241  0.2862 -0.2382
   70DPPC   C23 3473   4.597   2.766   4.539  0.1405  0.3683  0.0691
   70DPPC   C24 3474   4.580   2.757   4.387 -0.5494  0.0747  0.1595
   70DPPC   C25 3475   4.689   2.831   4.310 -0.5737  0.0725  0.1234
   70DPPC   C26 3476   4.705   2.789   4.163 -0.1015 -0.2642  0.2696
   70DPPC   C27 3477   4.829   2.858   4.105 -0.1933  0.0141  0.4013
   70DPPC   C28 3478   4.857   2.817   3.960  0.3429 -0.0502  0.5236
   70DPPC   C29 3479   4.964   2.912   3.905 -0.0035  0.0782  0.0709
   70DPPC   C30 3480   4.987   2.903   3.754  0.4155  0.0470  0.1368
   70DPPC   C31 3481   5.094   3.000   3.703  0.1881  0.1492 -0.1448
   70DPPC   C32 3482   3.842   2.208   4.919 -0.0058  0.2119  0.0631
   70DPPC   O33 3483   3.807   2.267   4.794 -0.0948  0.4513  0.2006
   70DPPC   C34 3484   3.750   2.181   4.706  0.4558  0.1490  0.1301
   70DPPC   O35 3485   3.720   2.070   4.749  1.0683  0.0821  0.3919
   70DPPC   C36 3486   3.718   2.219   4.561  0.2461 -0.0601  0.1189
   70DPPC   C37 3487   3.736   2.114   4.451  0.0714 -0.1206  0.1490
   70DPPC   C38 3488   3.692   2.171   4.316  0.0847  0.2540  0.3015
   70DPPC   C39 3489   3.788   2.279   4.265 -0.4914  0.6019 -0.0532
   70DPPC   C40 3490   3.754   2.320   4.122 -0.4972  0.4792 -0.0870
   70DPPC   C41 3491   3.818   2.452   4.078  0.6170  0.3953  1.2445
   70DPPC   C42 3492   3.789   2.473   3.929  0.7583 -0.3404  1.1097
   70DPPC   C43 3493   3.871   2.588   3.871 -0.5701 -0.0500 -0.2367
   70DPPC   C44 3494   3.858   2.618   3.721 -0.5600  0.3474 -0.1565
   70DPPC   C45 3495   3.968   2.718   3.685  0.1107 -0.3115  0.0421
   70DPPC   C46 3496   3.954   2.743   3.535  0.4017  0.3351  0.1158
   70DPPC   C47 3497   4.055   2.847   3.488  0.4979  0.2323  0.0936
   70DPPC   C48 3498   4.049   2.968   3.582 -0.1438 -0.0187  0.3796
   70DPPC   C49 3499   4.173   3.056   3.587 -0.2074  0.0712  0.3623
   70DPPC   C50 3500   4.162   3.166   3.693  0.2446  0.3061  0.1691
   71DPPC    C1 3501   3.518   2.821   5.131 -0.0978 -0.2659 -0.6468
   71DPPC    C2 3502   3.285   2.759   5.138  0.4273 -0.3913 -0.0828
   71DPPC    C3 3503   3.394   2.843   5.339  0.0487  0.3357  0.2738
   71DPPC    N4 3504   3.387   2.850   5.192  0.2695 -0.3952  0.2254
   71DPPC    C5 3505   3.344   2.983   5.146 -0.9343 -0.5712  0.8023
   71DPPC    C6 3506   3.410   3.107   5.207 -0.4109 -0.3441 -0.2009
   71DPPC    O7 3507   3.534   3.148   5.148 -0.4158  0.3271  0.2476
   71DPPC    P8 3508   3.615   3.258   5.233  0.1932  0.0300  0.0571
   71DPPC    O9 3509   3.662   3.367   5.145 -1.1089  0.0512 -0.6377
   71DPPC   O10 3510   3.535   3.287   5.354 -0.1587 -0.1718 -0.1261
   71DPPC   O11 3511   3.747   3.172   5.264  0.1984  0.0566  0.1092
   71DPPC   C12 3512   3.836   3.170   5.152  0.8899 -0.3959  0.6545
   71DPPC   C13 3513   3.970   3.098   5.168  0.8341 -0.6714 -0.0865
   71DPPC   O14 3514   4.052   3.157   5.067  0.2415  0.2956 -0.0137
   71DPPC   C15 3515   4.186   3.135   5.078  0.2155 -0.0333 -0.3339
   71DPPC   O16 3516   4.235   3.079   5.176  0.2046  0.7181  0.1041
   71DPPC   C17 3517   4.271   3.195   4.967 -0.1753  0.7619 -0.2076
   71DPPC   C18 3518   4.276   3.119   4.834  0.2832 -0.0107  0.2474
   71DPPC   C19 3519   4.379   3.167   4.731 -0.4805  0.3152 -0.3681
   71DPPC   C20 3520   4.348   3.099   4.597  0.3174 -0.2621 -0.2675
   71DPPC   C21 3521   4.430   3.172   4.489 -0.1024  0.5924 -0.0195
   71DPPC   C22 3522   4.398   3.083   4.369  0.2586 -0.0460  0.3465
   71DPPC   C23 3523   4.468   3.148   4.249 -0.1356  0.3839  0.3438
   71DPPC   C24 3524   4.476   3.066   4.120  0.8958  0.4277  0.3669
   71DPPC   C25 3525   4.543   3.144   4.008  0.7342 -0.2146 -0.1840
   71DPPC   C26 3526   4.520   3.082   3.870 -0.0199  0.1528 -0.2300
   71DPPC   C27 3527   4.605   3.156   3.766  0.5229 -0.1808 -0.0285
   71DPPC   C28 3528   4.580   3.113   3.622  0.7640 -0.3528 -0.0187
   71DPPC   C29 3529   4.608   3.233   3.531 -0.1103 -0.0721  0.0739
   71DPPC   C30 3530   4.757   3.232   3.496 -0.1075  0.1197  0.0806
   71DPPC   C31 3531   4.775   3.344   3.393  0.7736 -0.0639  0.0204
   71DPPC   C32 3532   3.951   2.946   5.168  0.1428 -0.5920  0.4426
   71DPPC   O33 3533   3.896   2.902   5.044 -0.2214 -0.2204  0.4724
   71DPPC   C34 3534   3.897   2.768   5.021 -0.3873 -0.1681  0.1607
   71DPPC   O35 3535   3.874   2.692   5.115 -0.6351  0.0799  0.3011
   71DPPC   C36 3536   3.871   2.723   4.877 -0.3883 -0.0579  0.1270
   71DPPC   C37 3537   3.992   2.701   4.785 -0.2712 -0.0267  0.2716
   71DPPC   C38 3538   4.035   2.837   4.728 -0.1570 -0.1464  0.0725
   71DPPC   C39 3539   3.943   2.870   4.610  0.1269  0.1713 -0.0601
   71DPPC   C40 3540   3.985   3.006   4.554 -0.1659  0.4183  0.3106
   71DPPC   C41 3541   3.865   3.081   4.496 -0.2116 -0.2186 -0.4432
   71DPPC   C42 3542   3.903   3.229   4.493 -0.3796 -0.1635 -0.0078
   71DPPC   C43 3543   3.771   3.307   4.491 -0.1492  0.2406  0.2768
   71DPPC   C44 3544   3.799   3.457   4.491  0.2327  0.1711  0.2848
   71DPPC   C45 3545   3.904   3.501   4.390  0.3054 -0.1749  0.2074
   71DPPC   C46 3546   3.928   3.651   4.412 -0.5659 -0.0512  0.3226
   71DPPC   C47 3547   4.055   3.706   4.348 -0.7981 -0.1944 -0.2673
   71DPPC   C48 3548   4.068   3.857   4.366 -0.0891 -0.2909  0.0679
   71DPPC   C49 3549   4.071   3.897   4.513  0.5603  0.3774 -0.1220
   71DPPC   C50 3550   4.079   4.049   4.532  0.0592  0.3174  0.6027
   72DPPC    C1 3551   4.048   4.483   5.133 -0.3564  0.1374 -0.1864
   72DPPC    C2 3552   3.815   4.504   5.147  0.4076  0.1634 -0.1599
   72DPPC    C3 3553   3.934   4.522   5.341 -0.4473 -0.1513  0.5034
   72DPPC    N4 3554   3.932   4.447   5.215  0.0536  0.0582  0.3673
   72DPPC    C5 3555   3.920   4.300   5.219  0.2063  0.0567  0.7414
   72DPPC    C6 3556   4.038   4.218   5.272  0.1937 -0.0156  0.6568
   72DPPC    O7 3557   4.019   4.076   5.266  0.1954  0.0095  0.0346
   72DPPC    P8 3558   4.157   4.005   5.309  0.1718 -0.0061  0.0834
   72DPPC    O9 3559   4.260   4.109   5.327  0.3318 -0.3023  0.9120
   72DPPC   O10 3560   4.110   3.918   5.419  0.0419 -0.5278 -0.3743
   72DPPC   O11 3561   4.191   3.917   5.178 -0.0749 -0.1682  0.1272
   72DPPC   C12 3562   4.306   3.973   5.114 -0.2540  0.0465 -0.0095
   72DPPC   C13 3563   4.346   3.885   4.996  0.0955 -0.0334  0.1671
   72DPPC   O14 3564   4.462   3.944   4.938 -0.2825 -0.0023 -0.5659
   72DPPC   C15 3565   4.550   3.856   4.883 -0.1149  0.0736 -0.4192
   72DPPC   O16 3566   4.552   3.737   4.913  0.4878 -0.0013 -0.7420
   72DPPC   C17 3567   4.649   3.913   4.781  0.0990 -0.0385 -0.2759
   72DPPC   C18 3568   4.583   3.921   4.643 -0.2078 -0.5764 -0.1626
   72DPPC   C19 3569   4.683   3.931   4.528  0.0313 -0.2138  0.0749
   72DPPC   C20 3570   4.626   3.988   4.399 -0.6377  0.1705  0.5350
   72DPPC   C21 3571   4.567   4.128   4.414 -0.4870  0.2268  0.5979
   72DPPC   C22 3572   4.451   4.160   4.319 -0.1687 -0.1189  0.0813
   72DPPC   C23 3573   4.489   4.168   4.171 -0.0666  0.1967  0.1228
   72DPPC   C24 3574   4.595   4.276   4.154  0.0288  0.0501 -0.2235
   72DPPC   C25 3575   4.637   4.319   4.013 -0.3586 -0.4627 -0.4954
   72DPPC   C26 3576   4.520   4.380   3.937 -0.0583  0.3634 -0.3029
   72DPPC   C27 3577   4.551   4.415   3.791  0.4749  0.1108 -0.2512
   72DPPC   C28 3578   4.430   4.482   3.725  0.3079  0.3114  0.2498
   72DPPC   C29 3579   4.477   4.559   3.601  0.0150  0.1818  0.0580
   72DPPC   C30 3580   4.361   4.653   3.566  0.0469  0.0164 -0.5153
   72DPPC   C31 3581   4.399   4.751   3.455  0.5340  0.9076  0.4099
   72DPPC   C32 3582   4.221   3.880   4.908 -0.1609  0.3722  0.5014
   72DPPC   O33 3583   4.214   3.803   4.787 -0.3285 -0.2671  0.9110
   72DPPC   C34 3584   4.227   3.668   4.793 -0.0813 -0.2918 -0.0883
   72DPPC   O35 3585   4.195   3.612   4.897 -0.0743  0.4737  0.3299
   72DPPC   C36 3586   4.254   3.591   4.663 -0.1435 -0.5514  0.0509
   72DPPC   C37 3587   4.400   3.583   4.616 -0.1128 -0.0981  0.0612
   72DPPC   C38 3588   4.401   3.546   4.468 -0.2846  0.2572 -0.0297
   72DPPC   C39 3589   4.534   3.567   4.395 -0.1038  0.0484  0.2428
   72DPPC   C40 3590   4.501   3.572   4.246  0.2760 -0.4059  0.1404
   72DPPC   C41 3591   4.629   3.589   4.164  0.5621 -1.2685  0.3963
   72DPPC   C42 3592   4.580   3.585   4.019 -0.0849 -0.6634  0.5938
   72DPPC   C43 3593   4.701   3.564   3.928 -0.2147 -0.2997  0.3309
   72DPPC   C44 3594   4.655   3.561   3.782  0.4483 -0.0423  0.1124
   72DPPC   C45 3595   4.588   3.691   3.737 -0.2190 -0.2744  0.4319
   72DPPC   C46 3596   4.560   3.698   3.586 -0.0904  0.1030  0.4249
   72DPPC   C47 3597   4.532   3.837   3.530 -0.3592 -0.1905 -0.1771
   72DPPC   C48 3598   4.570   3.854   3.383  0.5315  0.5214  0.1243
   72DPPC   C49 3599   4.540   3.991   3.321 -0.6517  0.3196  0.2254
   72DPPC   C50 3600   4.545   3.993   3.168  0.4386  0.0601  0.2478
   73DPPC    C1 3601   3.201   1.185   4.052  0.2964 -0.0262  0.1056
   73DPPC    C2 3602   3.036   1.007   4.026 -0.2886 -0.1799 -0.1798
   73DPPC    C3 3603   2.988   1.224   3.964  0.4586  0.0589  0.1798
   73DPPC    N4 3604   3.060   1.146   4.066  0.3641 -0.3273 -0.0489
   73DPPC    C5 3605   3.012   1.154   4.205 -0.5099 -0.4339 -0.3356
   73DPPC    C6 3606   2.975   1.293   4.258  0.3485 -0.0858 -0.6217
   73DPPC    O7 3607   3.068   1.401   4.266 -0.0356  0.1814  0.2551
   73DPPC    P8 3608   3.024   1.500   4.386 -0.0268  0.1957  0.2462
   73DPPC    O9 3609   2.878   1.481   4.397 -0.0470  0.0720 -0.2240
   73DPPC   O10 3610   3.121   1.455   4.489  0.3947 -0.1996 -0.3170
   73DPPC   O11 3611   3.077   1.642   4.332  0.1636 -0.0604 -0.2495
   73DPPC   C12 3612   3.218   1.629   4.313  0.2049 -0.1636  0.1258
   73DPPC   C13 3613   3.282   1.740   4.229 -0.0012  0.2992  0.5772
   73DPPC   O14 3614   3.405   1.707   4.164 -0.3825 -0.5400  0.2598
   73DPPC   C15 3615   3.516   1.691   4.242 -0.1947  0.0168  0.1117
   73DPPC   O16 3616   3.515   1.700   4.365 -0.1516 -0.1838  0.1275
   73DPPC   C17 3617   3.637   1.634   4.168  0.2108  0.6834  0.2546
   73DPPC   C18 3618   3.689   1.711   4.046 -0.2559 -0.1289 -0.4639
   73DPPC   C19 3619   3.688   1.863   4.060  0.0861 -0.1655 -0.0493
   73DPPC   C20 3620   3.656   1.931   3.927  0.0480  0.8323  0.4591
   73DPPC   C21 3621   3.782   1.968   3.849 -0.2799  0.8745 -0.0589
   73DPPC   C22 3622   3.760   1.939   3.701 -0.1330 -0.7582  0.2205
   73DPPC   C23 3623   3.884   1.948   3.611 -0.2239 -0.0179  0.1628
   73DPPC   C24 3624   3.838   1.913   3.470  0.0920  0.0660  0.0386
   73DPPC   C25 3625   3.928   1.931   3.348 -0.0861 -0.0931 -0.1179
   73DPPC   C26 3626   3.861   1.877   3.221  0.5343  0.2223 -0.5891
   73DPPC   C27 3627   3.836   1.726   3.224  0.6875  0.2069  0.3196
   73DPPC   C28 3628   3.810   1.647   3.095  0.1398  0.2537  0.3999
   73DPPC   C29 3629   3.662   1.628   3.062  0.2650 -0.0341  0.0049
   73DPPC   C30 3630   3.645   1.550   2.931  0.4399  0.0198 -0.0496
   73DPPC   C31 3631   3.696   1.615   2.803 -0.2521 -0.1532 -0.4172
   73DPPC   C32 3632   3.263   1.871   4.305  0.1470  0.7815 -0.2173
   73DPPC   O33 3633   3.285   1.988   4.224  0.9892  0.3443 -0.6315
   73DPPC   C34 3634   3.205   2.020   4.119  0.0162  0.1758  0.0483
   73DPPC   O35 3635   3.083   2.007   4.120  0.0062  0.2831  0.3182
   73DPPC   C36 3636   3.264   2.144   4.051 -0.2885  0.4529  0.2827
   73DPPC   C37 3637   3.326   2.106   3.917 -0.4175  0.1788  0.2988
   73DPPC   C38 3638   3.351   2.238   3.842  0.2388  0.1874  0.5225
   73DPPC   C39 3639   3.429   2.221   3.712 -0.1959  0.0127  0.2833
   73DPPC   C40 3640   3.456   2.354   3.641 -0.0117  0.0417  0.4094
   73DPPC   C41 3641   3.554   2.347   3.523 -0.1597  0.4649  0.2597
   73DPPC   C42 3642   3.598   2.486   3.479  0.4014  0.2040 -0.0058
   73DPPC   C43 3643   3.548   2.543   3.346  0.4447 -0.1161 -0.1597
   73DPPC   C44 3644   3.625   2.668   3.301 -0.2092  0.5854  0.6388
   73DPPC   C45 3645   3.545   2.755   3.204  0.5312  0.2598 -0.2807
   73DPPC   C46 3646   3.625   2.882   3.178  0.4413  0.4626  0.4016
   73DPPC   C47 3647   3.584   2.938   3.041  0.6517 -0.0922  0.1076
   73DPPC   C48 3648   3.621   3.086   3.027  0.3868 -0.0880 -0.5719
   73DPPC   C49 3649   3.598   3.120   2.880  0.0097  0.5376 -0.3731
   73DPPC   C50 3650   3.602   3.263   2.826  0.2657  0.3507 -0.8642
   74DPPC    C1 3651   2.983   2.746   4.733  1.0234 -1.1033  0.4724
   74DPPC    C2 3652   2.805   2.642   4.853 -0.7670 -0.3275 -0.4529
   74DPPC    C3 3653   2.993   2.514   4.783  0.0105 -0.3411  0.0323
   74DPPC    N4 3654   2.903   2.624   4.745 -0.1137 -0.4023  0.1461
   74DPPC    C5 3655   2.840   2.612   4.612  0.0843  0.6266 -0.0514
   74DPPC    C6 3656   2.773   2.478   4.582  0.3229  0.6504 -0.6998
   74DPPC    O7 3657   2.652   2.463   4.657  0.5894 -0.0380 -0.3994
   74DPPC    P8 3658   2.584   2.318   4.640  0.2891  0.0032  0.3828
   74DPPC    O9 3659   2.695   2.223   4.614  0.3527  0.1284  0.1886
   74DPPC   O10 3660   2.497   2.297   4.757 -0.1677 -0.4125 -0.0264
   74DPPC   O11 3661   2.490   2.339   4.511  0.7133  0.5624  0.1600
   74DPPC   C12 3662   2.525   2.229   4.426 -0.2771  0.2014  0.1992
   74DPPC   C13 3663   2.500   2.266   4.280  0.1189  0.5696  0.2195
   74DPPC   O14 3664   2.620   2.284   4.203 -0.1635  0.0266 -0.3620
   74DPPC   C15 3665   2.703   2.177   4.191  0.2628  0.2480  0.5119
   74DPPC   O16 3666   2.704   2.077   4.262  0.3415  0.0019  0.1654
   74DPPC   C17 3667   2.818   2.185   4.091 -0.2236 -0.2112 -0.0898
   74DPPC   C18 3668   2.779   2.265   3.966 -0.1626  0.1461  0.1195
   74DPPC   C19 3669   2.899   2.249   3.873  0.0001 -0.0804  0.3662
   74DPPC   C20 3670   2.920   2.100   3.842 -0.2286  0.0416 -0.3890
   74DPPC   C21 3671   3.018   2.088   3.725  0.3182  0.7231 -0.0033
   74DPPC   C22 3672   3.040   1.943   3.681  0.1381  0.5191  0.5662
   74DPPC   C23 3673   3.159   1.949   3.584 -0.0859 -0.1772  0.2444
   74DPPC   C24 3674   3.126   1.841   3.481  0.2117 -0.3586  0.3373
   74DPPC   C25 3675   3.217   1.869   3.362 -0.2086  0.1529  0.1297
   74DPPC   C26 3676   3.364   1.851   3.401 -0.2283 -0.6497 -0.1327
   74DPPC   C27 3677   3.465   1.888   3.292 -0.4204 -0.2653 -0.1831
   74DPPC   C28 3678   3.467   2.041   3.280 -0.3769 -0.2309  0.2480
   74DPPC   C29 3679   3.521   2.091   3.146  0.0782 -0.3742  0.3789
   74DPPC   C30 3680   3.537   2.243   3.158 -0.2106 -0.2943 -0.2347
   74DPPC   C31 3681   3.611   2.311   3.042  0.2467 -0.2872  0.0604
   74DPPC   C32 3682   2.397   2.379   4.276 -0.1465  0.3360  0.3734
   74DPPC   O33 3683   2.258   2.347   4.281 -0.1807  0.2768 -0.8282
   74DPPC   C34 3684   2.176   2.456   4.277 -0.4647  0.1402  0.7580
   74DPPC   O35 3685   2.208   2.556   4.340  0.1303  0.1808  0.4007
   74DPPC   C36 3686   2.035   2.443   4.217 -0.3476  0.4273  0.4180
   74DPPC   C37 3687   1.998   2.569   4.140  0.5148 -0.2320 -1.1204
   74DPPC   C38 3688   1.859   2.542   4.080  0.1973 -0.2096 -0.4071
   74DPPC   C39 3689   1.847   2.659   3.982  0.2551 -0.0534 -0.2268
   74DPPC   C40 3690   1.945   2.641   3.866  0.4752  0.0312 -0.0559
   74DPPC   C41 3691   1.916   2.744   3.757 -0.8528  0.0150  0.2673
   74DPPC   C42 3692   1.986   2.694   3.631 -0.3756  0.3184  0.4078
   74DPPC   C43 3693   1.952   2.768   3.501  0.2121 -0.4883 -0.2136
   74DPPC   C44 3694   1.800   2.787   3.488  0.2531  0.3856  0.5055
   74DPPC   C45 3695   1.775   2.875   3.365 -0.3081 -0.0553  0.3014
   74DPPC   C46 3696   1.632   2.926   3.355 -0.4167 -0.3718  0.2289
   74DPPC   C47 3697   1.591   2.986   3.490  0.3895  0.0972  0.2665
   74DPPC   C48 3698   1.638   3.129   3.518  0.0918  0.1539  0.4795
   74DPPC   C49 3699   1.582   3.188   3.647  0.6067  0.5457  0.5273
   74DPPC   C50 3700   1.591   3.097   3.770 -0.3958  0.3514  0.4687
   75DPPC    C1 3701   2.794   3.570   5.175  0.0744  0.5821 -0.1728
   75DPPC    C2 3702   2.824   3.463   4.984  0.0052 -0.2137 -0.0547
   75DPPC    C3 3703   2.610   3.449   5.088  0.3869  0.5417  0.3477
   75DPPC    N4 3704   2.755   3.443   5.112  0.3957  0.2765  0.2352
   75DPPC    C5 3705   2.816   3.331   5.184 -0.5514  0.1194  0.8139
   75DPPC    C6 3706   2.778   3.186   5.152 -0.8283  0.3063  0.2746
   75DPPC    O7 3707   2.774   3.147   5.015  0.1702 -0.0498  0.3375
   75DPPC    P8 3708   2.772   2.986   5.001  0.2481  0.0006 -0.2836
   75DPPC    O9 3709   2.909   2.954   5.048  0.0819 -0.5114 -0.1416
   75DPPC   O10 3710   2.656   2.927   5.069  0.5764  0.0770  0.3512
   75DPPC   O11 3711   2.757   2.991   4.841 -0.0278  0.3430 -0.2479
   75DPPC   C12 3712   2.616   2.996   4.818 -0.0317  0.2129 -0.2509
   75DPPC   C13 3713   2.589   3.037   4.673  0.4884  0.3304 -0.3167
   75DPPC   O14 3714   2.625   2.945   4.569 -0.9260 -0.1004 -0.4498
   75DPPC   C15 3715   2.540   2.841   4.549 -0.3882 -0.5915 -0.2301
   75DPPC   O16 3716   2.483   2.800   4.650  0.1020 -0.0416  0.2746
   75DPPC   C17 3717   2.560   2.761   4.420  0.1473 -0.8407  0.0045
   75DPPC   C18 3718   2.447   2.790   4.322  0.4545 -0.9071 -0.3727
   75DPPC   C19 3719   2.473   2.727   4.185  0.4224  0.4755 -1.0403
   75DPPC   C20 3720   2.352   2.766   4.101 -0.2177 -0.1717 -0.4353
   75DPPC   C21 3721   2.381   2.705   3.963 -0.0148 -0.0616 -0.4410
   75DPPC   C22 3722   2.401   2.553   3.970 -0.2580 -0.0674  0.1671
   75DPPC   C23 3723   2.489   2.514   3.852  0.0396  0.0104  0.3629
   75DPPC   C24 3724   2.625   2.584   3.842  0.1652 -0.2402  0.3191
   75DPPC   C25 3725   2.656   2.540   3.698 -0.2089  0.0384  0.1525
   75DPPC   C26 3726   2.788   2.602   3.653 -0.5049  0.3965 -0.2326
   75DPPC   C27 3727   2.832   2.523   3.529 -0.0257 -0.0733  0.2296
   75DPPC   C28 3728   2.823   2.371   3.544  0.0981 -0.0604  0.4398
   75DPPC   C29 3729   2.901   2.296   3.437  0.0747  0.2388  0.2114
   75DPPC   C30 3730   3.051   2.325   3.438  0.1582 -0.1819  0.1306
   75DPPC   C31 3731   3.146   2.255   3.341  0.3389  0.2348  0.0033
   75DPPC   C32 3732   2.666   3.167   4.649 -0.0354  0.7510  0.2422
   75DPPC   O33 3733   2.604   3.259   4.560 -0.0922  0.2581 -0.2351
   75DPPC   C34 3734   2.669   3.379   4.551 -0.0626  0.2392 -0.2713
   75DPPC   O35 3735   2.760   3.410   4.627  0.3082  0.1847 -0.6932
   75DPPC   C36 3736   2.647   3.465   4.427  0.2070  0.7762  0.0505
   75DPPC   C37 3737   2.745   3.418   4.320  0.2736 -0.1922  0.5219
   75DPPC   C38 3738   2.724   3.273   4.276  0.0912 -0.3571  1.1424
   75DPPC   C39 3739   2.813   3.264   4.152 -0.2159  0.1018  0.8842
   75DPPC   C40 3740   2.829   3.118   4.108 -0.0966  0.2426  0.4500
   75DPPC   C41 3741   2.924   3.112   3.989 -0.0692 -0.0975  0.4884
   75DPPC   C42 3742   2.935   2.969   3.935  0.1130  0.1502 -0.1377
   75DPPC   C43 3743   3.044   2.976   3.828 -0.3505 -0.2470 -0.6413
   75DPPC   C44 3744   3.177   3.035   3.875 -0.5174  0.0144 -0.4975
   75DPPC   C45 3745   3.274   3.038   3.756  0.0732  0.1572 -0.0182
   75DPPC   C46 3746   3.220   3.140   3.655 -0.3056 -0.0607 -0.0357
   75DPPC   C47 3747   3.301   3.136   3.526  0.2943  0.4629  0.3208
   75DPPC   C48 3748   3.263   3.244   3.424  0.5274  0.4817  0.2525
   75DPPC   C49 3749   3.314   3.219   3.282 -0.3843 -0.1788  0.0284
   75DPPC   C50 3750   3.278   3.338   3.193  0.4692  0.0377 -0.0368
   76DPPC    C1 3751   3.557   3.523   4.883  0.4572 -0.3054 -0.5096
   76DPPC    C2 3752   3.365   3.538   4.755 -0.7393 -0.4435  0.0251
   76DPPC    C3 3753   3.343   3.463   4.973  0.4860  0.6182  0.8231
   76DPPC    N4 3754   3.430   3.453   4.855 -0.1416  0.3982  0.3695
   76DPPC    C5 3755   3.475   3.322   4.805 -0.4976  0.4812 -0.1700
   76DPPC    C6 3756   3.369   3.212   4.796  0.2596 -0.2044 -0.8926
   76DPPC    O7 3757   3.417   3.080   4.769  0.0564 -0.4298 -0.1613
   76DPPC    P8 3758   3.302   2.972   4.736 -0.0181 -0.4327  0.1003
   76DPPC    O9 3759   3.347   2.846   4.800  0.2863 -0.1410  0.4615
   76DPPC   O10 3760   3.170   3.034   4.756  0.3869  0.4848 -0.0015
   76DPPC   O11 3761   3.335   2.966   4.578 -0.3673 -0.4588  0.0276
   76DPPC   C12 3762   3.460   2.901   4.553 -0.1002  0.0941 -0.0864
   76DPPC   C13 3763   3.521   2.931   4.416 -0.0919 -0.1313 -0.1322
   76DPPC   O14 3764   3.653   2.885   4.386  0.1287  0.2145  0.2948
   76DPPC   C15 3765   3.681   2.755   4.356  0.2093  0.2481  0.2262
   76DPPC   O16 3766   3.598   2.668   4.383  0.0811  0.3465  0.1459
   76DPPC   C17 3767   3.820   2.725   4.298  0.2786  0.0221  0.5098
   76DPPC   C18 3768   3.875   2.838   4.213 -0.5576 -0.3797 -0.5875
   76DPPC   C19 3769   4.010   2.808   4.147 -0.2483  0.6668 -0.4608
   76DPPC   C20 3770   4.056   2.919   4.052  0.2063  0.2750 -0.7056
   76DPPC   C21 3771   4.077   3.050   4.128  0.0895 -0.1517  0.0791
   76DPPC   C22 3772   4.105   3.160   4.025 -0.0688  0.0101  0.2086
   76DPPC   C23 3773   4.090   3.299   4.086  0.2891 -0.1068  0.5652
   76DPPC   C24 3774   4.129   3.400   3.978 -0.1578  0.2434  0.7278
   76DPPC   C25 3775   4.136   3.542   4.035 -0.5555  0.7158 -0.3791
   76DPPC   C26 3776   4.201   3.639   3.935  0.4865 -0.0939 -0.5058
   76DPPC   C27 3777   4.204   3.781   3.992  0.0121 -0.0527 -0.5733
   76DPPC   C28 3778   4.287   3.869   3.898  0.6143 -0.3357 -0.3124
   76DPPC   C29 3779   4.182   3.933   3.808  0.5448  0.0882  0.0639
   76DPPC   C30 3780   4.244   4.040   3.717  0.3354 -0.0957 -0.3000
   76DPPC   C31 3781   4.157   4.089   3.602  0.2178 -0.2983 -0.2984
   76DPPC   C32 3782   3.504   3.082   4.398  0.4147 -0.0945 -0.3047
   76DPPC   O33 3783   3.376   3.124   4.349  0.4887  0.2256 -0.2270
   76DPPC   C34 3784   3.353   3.253   4.384  0.0567  0.0717  0.0518
   76DPPC   O35 3785   3.392   3.307   4.487 -0.3721  0.6972 -0.1077
   76DPPC   C36 3786   3.211   3.290   4.338  0.1793 -0.3622 -0.6823
   76DPPC   C37 3787   3.200   3.419   4.257  0.0124 -0.0690 -0.1940
   76DPPC   C38 3788   3.142   3.542   4.328  0.1910 -0.2544  0.2755
   76DPPC   C39 3789   3.138   3.667   4.240  0.2787  0.0529  0.7064
   76DPPC   C40 3790   3.065   3.788   4.301 -0.5377 -0.0966  0.0476
   76DPPC   C41 3791   2.944   3.827   4.217  0.1225  0.3279 -0.7230
   76DPPC   C42 3792   2.886   3.960   4.266  0.3732  0.2724 -0.2780
   76DPPC   C43 3793   2.784   4.020   4.170 -0.0195 -0.3581 -0.2543
   76DPPC   C44 3794   2.652   3.943   4.174 -0.3386  0.1706 -0.4780
   76DPPC   C45 3795   2.542   4.023   4.104 -0.8239 -0.3129 -0.2793
   76DPPC   C46 3796   2.572   4.050   3.957  0.4300 -0.0981  0.0001
   76DPPC   C47 3797   2.485   4.171   3.922 -0.0255 -0.5017 -0.2911
   76DPPC   C48 3798   2.501   4.210   3.774  0.2127 -0.1926 -0.1859
   76DPPC   C49 3799   2.427   4.344   3.769  0.2497 -0.1667 -0.0469
   76DPPC   C50 3800   2.452   4.421   3.639 -0.5675  0.0647 -0.0772
   77DPPC    C1 3801   2.702   1.888   4.594 -0.1226 -0.4346 -0.0616
   77DPPC    C2 3802   2.673   1.737   4.414  0.2638  0.3144 -0.0611
   77DPPC    C3 3803   2.730   1.662   4.636  0.8587  0.7673  0.2331
   77DPPC    N4 3804   2.648   1.756   4.558 -0.2446 -0.3878 -0.0515
   77DPPC    C5 3805   2.504   1.755   4.584 -0.1996 -0.1244  0.2231
   77DPPC    C6 3806   2.436   1.621   4.615 -0.3129 -0.1309 -0.0426
   77DPPC    O7 3807   2.416   1.536   4.502  0.3944  0.1088 -0.3541
   77DPPC    P8 3808   2.320   1.409   4.527  0.4066  0.1374 -0.1593
   77DPPC    O9 3809   2.383   1.338   4.641  0.1739 -0.4991 -0.4252
   77DPPC   O10 3810   2.184   1.467   4.535  0.4119  0.0943  0.2580
   77DPPC   O11 3811   2.332   1.339   4.383  0.7204 -0.0497 -0.0447
   77DPPC   C12 3812   2.267   1.429   4.293  0.0456 -0.3433  0.1396
   77DPPC   C13 3813   2.275   1.401   4.143 -0.0657  0.0909  0.0512
   77DPPC   O14 3814   2.170   1.314   4.096  0.0321 -0.1030  0.1923
   77DPPC   C15 3815   2.162   1.182   4.127 -0.1082 -0.1769 -0.1489
   77DPPC   O16 3816   2.262   1.123   4.167 -0.1506 -0.3146 -0.2473
   77DPPC   C17 3817   2.033   1.106   4.097 -0.1357 -0.2651  0.1827
   77DPPC   C18 3818   2.012   1.102   3.945  0.3816  0.6161  0.0823
   77DPPC   C19 3819   2.110   1.010   3.872 -0.5713 -0.3268 -0.0216
   77DPPC   C20 3820   2.067   1.024   3.726  0.0506 -0.0707 -0.1818
   77DPPC   C21 3821   2.099   1.168   3.683  0.1104  0.1043  0.4410
   77DPPC   C22 3822   2.089   1.181   3.531  0.3027  0.1238  0.4298
   77DPPC   C23 3823   1.956   1.136   3.471  0.4664  0.1906  0.0142
   77DPPC   C24 3824   1.946   1.148   3.318  0.1432  0.4952  0.0566
   77DPPC   C25 3825   1.805   1.112   3.273  0.0642  0.8047  0.0528
   77DPPC   C26 3826   1.795   1.126   3.121 -0.6927 -0.2451 -0.0104
   77DPPC   C27 3827   1.650   1.096   3.083 -0.6222 -0.1464 -0.3644
   77DPPC   C28 3828   1.631   1.112   2.933  0.3494 -0.4248 -0.5244
   77DPPC   C29 3829   1.493   1.051   2.908 -0.2806  0.7554 -0.0190
   77DPPC   C30 3830   1.447   1.060   2.762  0.2883 -0.1286 -0.2597
   77DPPC   C31 3831   1.541   1.005   2.655  0.2019 -0.0323 -0.3849
   77DPPC   C32 3832   2.420   1.380   4.100 -0.0209 -0.2138  0.3518
   77DPPC   O33 3833   2.493   1.503   4.104 -0.6028  0.1552 -0.1836
   77DPPC   C34 3834   2.625   1.499   4.069 -0.2038 -0.1699  1.3026
   77DPPC   O35 3835   2.680   1.393   4.040  0.1726  0.3410  0.1193
   77DPPC   C36 3836   2.686   1.638   4.055 -0.3612 -0.1713  0.5619
   77DPPC   C37 3837   2.836   1.625   4.078 -0.1126  0.6682 -0.5192
   77DPPC   C38 3838   2.903   1.640   3.941 -0.3632  0.1080 -0.7078
   77DPPC   C39 3839   3.052   1.616   3.966 -0.6671 -0.7057  0.3745
   77DPPC   C40 3840   3.120   1.607   3.829 -0.3056 -0.3821  0.5302
   77DPPC   C41 3841   3.268   1.581   3.856 -0.1110  0.0942 -0.0646
   77DPPC   C42 3842   3.339   1.578   3.720  0.1529  0.3726  0.0668
   77DPPC   C43 3843   3.489   1.556   3.743  0.0755 -0.1860  0.0404
   77DPPC   C44 3844   3.562   1.574   3.610  0.7230  0.2117  0.4499
   77DPPC   C45 3845   3.703   1.543   3.660  0.6709  0.0284  0.4802
   77DPPC   C46 3846   3.790   1.526   3.535 -0.1470  0.1694 -0.1150
   77DPPC   C47 3847   3.931   1.471   3.561 -0.1740  0.1490 -0.0104
   77DPPC   C48 3848   3.991   1.445   3.423  0.4655  0.2823  0.2422
   77DPPC   C49 3849   4.130   1.382   3.434  0.3077 -0.2321 -0.5915
   77DPPC   C50 3850   4.111   1.251   3.509 -0.1658 -0.3064 -0.8380
   78DPPC    C1 3851   2.252   2.569   4.653  0.4430  0.3049  0.1275
   78DPPC    C2 3852   2.152   2.764   4.594  0.6712 -0.3626 -0.0493
   78DPPC    C3 3853   2.095   2.672   4.817 -0.0139 -0.0574 -0.3693
   78DPPC    N4 3854   2.128   2.645   4.676 -0.0899 -0.4050 -0.3204
   78DPPC    C5 3855   2.011   2.593   4.604 -0.2766 -0.0491 -0.2738
   78DPPC    C6 3856   1.970   2.453   4.647  0.6865 -0.3314 -0.2514
   78DPPC    O7 3857   2.044   2.352   4.577  0.7555 -0.3444 -0.1600
   78DPPC    P8 3858   2.016   2.200   4.624  0.0699 -0.2478 -0.2443
   78DPPC    O9 3859   2.138   2.160   4.697  0.0305  0.1192  0.0305
   78DPPC   O10 3860   1.888   2.180   4.695  0.3505 -0.2527  0.2629
   78DPPC   O11 3861   1.998   2.118   4.487  0.1120 -0.5650 -0.0598
   78DPPC   C12 3862   2.127   2.103   4.426  0.0769  0.1995 -0.3399
   78DPPC   C13 3863   2.137   1.969   4.352  0.3547  0.1467 -0.2093
   78DPPC   O14 3864   2.267   1.962   4.292  0.3015 -0.3171 -0.2680
   78DPPC   C15 3865   2.294   1.848   4.222 -0.0235 -0.4999 -0.1009
   78DPPC   O16 3866   2.226   1.752   4.257 -0.0037 -0.1771  0.8436
   78DPPC   C17 3867   2.385   1.837   4.099 -0.0139 -0.3744 -0.1050
   78DPPC   C18 3868   2.412   1.973   4.034  0.0529 -0.3555 -0.0374
   78DPPC   C19 3869   2.482   1.961   3.899 -0.5194  0.0084 -0.3696
   78DPPC   C20 3870   2.447   2.064   3.791 -0.0440  0.0582 -0.4791
   78DPPC   C21 3871   2.545   2.063   3.674  0.5543 -0.1582  0.0163
   78DPPC   C22 3872   2.550   1.926   3.605 -0.0089 -0.0172 -0.3110
   78DPPC   C23 3873   2.633   1.932   3.477  0.2021 -0.0284 -0.1735
   78DPPC   C24 3874   2.650   1.792   3.419 -0.3434 -0.2479  0.1973
   78DPPC   C25 3875   2.757   1.818   3.314 -0.0646  0.0185  0.5440
   78DPPC   C26 3876   2.796   1.694   3.233 -0.0902  0.2947  0.1072
   78DPPC   C27 3877   2.825   1.587   3.338 -0.1514 -0.2903 -0.4639
   78DPPC   C28 3878   2.897   1.464   3.281 -0.1071 -0.1912 -0.6229
   78DPPC   C29 3879   2.928   1.357   3.386 -0.2638  0.2416 -0.1298
   78DPPC   C30 3880   3.036   1.387   3.490 -0.4893  0.3851  0.0624
   78DPPC   C31 3881   3.045   1.289   3.607  0.5862  0.7443  0.2876
   78DPPC   C32 3882   2.028   1.986   4.246  0.0608 -0.1836  0.0412
   78DPPC   O33 3883   2.054   2.073   4.135 -0.0532 -0.5006 -0.2374
   78DPPC   C34 3884   1.953   2.061   4.044 -0.3521  0.3053 -0.0209
   78DPPC   O35 3885   1.860   1.982   4.057 -0.2458  0.2172  0.2187
   78DPPC   C36 3886   1.985   2.121   3.908  0.0411 -0.0780 -0.1008
   78DPPC   C37 3887   2.061   2.024   3.816 -0.2907  0.0874 -0.5530
   78DPPC   C38 3888   2.051   2.030   3.664 -0.0765 -0.5578 -0.5945
   78DPPC   C39 3889   2.139   1.926   3.594 -0.3517 -1.2582  0.0922
   78DPPC   C40 3890   2.119   1.935   3.442 -0.2324 -0.2923  0.1307
   78DPPC   C41 3891   2.243   1.873   3.378 -0.3757 -0.1853 -0.2512
   78DPPC   C42 3892   2.231   1.722   3.398  0.1347 -0.2365 -0.3121
   78DPPC   C43 3893   2.324   1.642   3.306 -0.0976 -0.4558 -0.3579
   78DPPC   C44 3894   2.327   1.492   3.335  0.2358 -0.2904  0.4728
   78DPPC   C45 3895   2.419   1.416   3.240 -0.0271 -0.4058  0.3110
   78DPPC   C46 3896   2.390   1.269   3.270 -0.7226 -0.3004  0.1579
   78DPPC   C47 3897   2.466   1.184   3.168 -0.4712 -0.2255  0.2829
   78DPPC   C48 3898   2.407   1.217   3.031  0.5029 -0.4086 -0.1882
   78DPPC   C49 3899   2.502   1.185   2.915  0.2159  0.0003 -0.5430
   78DPPC   C50 3900   2.541   1.038   2.933 -0.3867 -0.1045 -0.0733
   79DPPC    C1 3901   1.848   2.799   5.036  0.4194  0.1615  0.2781
   79DPPC    C2 3902   1.690   2.841   5.218  0.1419 -0.3356 -0.4493
   79DPPC    C3 3903   1.846   2.657   5.228  0.1184 -0.0230 -0.0499
   79DPPC    N4 3904   1.825   2.795   5.181  0.5157  0.1547  0.2928
   79DPPC    C5 3905   1.934   2.865   5.252  0.6640  0.3715 -0.1453
   79DPPC    C6 3906   1.951   3.017   5.248  0.7936  0.3723  0.3721
   79DPPC    O7 3907   1.952   3.064   5.113  0.7338  0.2961  0.3456
   79DPPC    P8 3908   1.950   3.224   5.129 -0.1965  0.3350 -0.0698
   79DPPC    O9 3909   1.814   3.251   5.181 -0.3709 -0.5485 -0.0558
   79DPPC   O10 3910   2.076   3.247   5.203 -0.3301 -0.0762  0.2939
   79DPPC   O11 3911   1.956   3.231   4.969  0.0699  0.1768 -0.0667
   79DPPC   C12 3912   1.867   3.148   4.895 -0.2134  0.0227  0.4426
   79DPPC   C13 3913   1.891   3.167   4.745  0.3206 -0.2288  0.4939
   79DPPC   O14 3914   1.798   3.094   4.663  0.9746 -0.2959 -0.2061
   79DPPC   C15 3915   1.811   2.963   4.630  1.1373 -0.3084 -0.0928
   79DPPC   O16 3916   1.849   2.878   4.710  0.4746 -0.3949  0.1327
   79DPPC   C17 3917   1.745   2.925   4.497  0.4829 -0.4802  0.2804
   79DPPC   C18 3918   1.829   2.870   4.382  0.2214 -0.3388  0.0202
   79DPPC   C19 3919   1.895   2.989   4.313  0.0849 -0.5112 -0.4080
   79DPPC   C20 3920   1.984   2.948   4.195 -0.1202 -0.4056 -0.6014
   79DPPC   C21 3921   2.053   3.067   4.128 -0.4446 -0.1288 -0.4485
   79DPPC   C22 3922   2.114   3.011   3.999 -0.0025 -0.4204 -0.1156
   79DPPC   C23 3923   2.181   3.120   3.914 -0.1740  0.0616  0.3631
   79DPPC   C24 3924   2.287   3.058   3.823 -0.6147  0.5483 -0.4817
   79DPPC   C25 3925   2.229   2.960   3.720  0.5210  0.1359 -0.7373
   79DPPC   C26 3926   2.318   2.951   3.596  0.4036 -0.3508 -0.7859
   79DPPC   C27 3927   2.463   2.933   3.642  0.1711  0.0013  0.1026
   79DPPC   C28 3928   2.550   2.926   3.517  0.2437  0.0167  0.1521
   79DPPC   C29 3929   2.514   3.047   3.431 -0.2074 -0.4118 -0.2687
   79DPPC   C30 3930   2.613   3.032   3.315  0.4819  0.6417  0.1704
   79DPPC   C31 3931   2.572   2.916   3.224  0.3825  0.4783  0.4226
   79DPPC   C32 3932   2.043   3.154   4.731  0.2938 -0.1252  0.0932
   79DPPC   O33 3933   2.088   3.159   4.595  0.3402  0.2667  0.1246
   79DPPC   C34 3934   2.224   3.160   4.584  0.3345 -0.2429  0.0258
   79DPPC   O35 3935   2.288   3.090   4.663 -0.2122 -0.1079  0.5909
   79DPPC   C36 3936   2.266   3.164   4.437 -0.9361 -0.1426 -0.3502
   79DPPC   C37 3937   2.286   3.312   4.408  0.5424 -0.3158 -0.3067
   79DPPC   C38 3938   2.290   3.328   4.255 -0.8307 -0.3643 -0.3560
   79DPPC   C39 3939   2.300   3.477   4.222 -1.0983 -0.2351  0.1243
   79DPPC   C40 3940   2.315   3.493   4.070 -0.3119 -0.4801  0.1733
   79DPPC   C41 3941   2.452   3.448   4.019 -0.1364  0.0685  0.1534
   79DPPC   C42 3942   2.456   3.437   3.866  0.3592  0.0190  0.1688
   79DPPC   C43 3943   2.592   3.410   3.803 -0.0825 -0.2247 -0.7021
   79DPPC   C44 3944   2.706   3.493   3.863 -0.2319 -0.2205 -0.4257
   79DPPC   C45 3945   2.843   3.461   3.804 -0.0821  0.5761 -0.5249
   79DPPC   C46 3946   2.954   3.552   3.856  0.3524 -0.2725  0.0576
   79DPPC   C47 3947   3.080   3.524   3.774  0.2331  0.5269 -0.4119
   79DPPC   C48 3948   3.182   3.638   3.776  0.6526  0.1459  0.0133
   79DPPC   C49 3949   3.296   3.615   3.676  0.5724 -0.1733 -0.0083
   79DPPC   C50 3950   3.250   3.662   3.538 -0.3940  0.8639  0.6485
   80DPPC    C1 3951   2.154   4.212   5.541  0.8144  0.8619  0.3853
   80DPPC    C2 3952   2.364   4.143   5.632  0.2122 -0.7922 -0.5461
   80DPPC    C3 3953   2.346   4.226   5.413  0.0696  0.6804  0.2745
   80DPPC    N4 3954   2.279   4.140   5.512  0.0562 -0.1570 -0.4534
   80DPPC    C5 3955   2.265   4.003   5.461 -0.1600 -0.2179 -0.2361
   80DPPC    C6 3956   2.383   3.905   5.458  0.2070  0.2028  0.2217
   80DPPC    O7 3957   2.503   3.963   5.406  0.2314 -0.1086 -0.0784
   80DPPC    P8 3958   2.636   3.873   5.395  0.4383  0.2052 -0.1798
   80DPPC    O9 3959   2.765   3.942   5.375  0.6096 -0.2535 -0.7039
   80DPPC   O10 3960   2.608   3.772   5.499 -0.2789  0.0220 -0.5411
   80DPPC   O11 3961   2.595   3.820   5.248 -0.0857 -0.0102  0.0411
   80DPPC   C12 3962   2.647   3.914   5.154  0.1903  0.1649  0.3661
   80DPPC   C13 3963   2.589   3.889   5.014 -0.1740  0.6731  0.4244
   80DPPC   O14 3964   2.656   3.966   4.913 -0.3618  0.2445 -0.0276
   80DPPC   C15 3965   2.765   3.912   4.853 -0.4379  0.2171 -0.1403
   80DPPC   O16 3966   2.810   3.802   4.885  0.6661  0.6593 -0.1354
   80DPPC   C17 3967   2.827   3.969   4.725 -0.2020 -0.2403 -0.2354
   80DPPC   C18 3968   2.789   4.116   4.703  0.3142  0.0095  0.4941
   80DPPC   C19 3969   2.799   4.164   4.558 -0.5699 -0.3360  0.3100
   80DPPC   C20 3970   2.766   4.313   4.559 -0.1266 -0.2332  0.0566
   80DPPC   C21 3971   2.881   4.387   4.627  0.0285 -0.3990 -0.0255
   80DPPC   C22 3972   2.854   4.538   4.619  0.5748 -0.3374 -0.8990
   80DPPC   C23 3973   2.969   4.622   4.675 -0.1743  0.1508 -0.0559
   80DPPC   C24 3974   2.969   4.770   4.636  0.3108 -0.0370 -0.8003
   80DPPC   C25 3975   3.114   4.816   4.656  0.2643 -0.0554 -0.4084
   80DPPC   C26 3976   3.212   4.755   4.556  0.5916 -0.0963 -0.0634
   80DPPC   C27 3977   3.354   4.809   4.577  0.5325 -0.1959  0.6251
   80DPPC   C28 3978   3.454   4.703   4.530  0.1221 -0.4189  0.2350
   80DPPC   C29 3979   3.597   4.751   4.561 -0.2261  0.5047  0.4530
   80DPPC   C30 3980   3.631   4.867   4.467  0.4110  0.1150  0.1991
   80DPPC   C31 3981   3.778   4.902   4.491  0.3659  0.4109  0.0461
   80DPPC   C32 3982   2.448   3.940   5.044 -0.4452 -0.0347  0.3483
   80DPPC   O33 3983   2.342   3.902   4.956  0.0551  0.2022 -0.3608
   80DPPC   C34 3984   2.217   3.944   4.989  0.1867  0.0219  0.3834
   80DPPC   O35 3985   2.208   4.028   5.078 -0.3629  0.3218  0.0503
   80DPPC   C36 3986   2.092   3.887   4.921  0.2659 -0.0415  0.2904
   80DPPC   C37 3987   2.078   3.945   4.780  0.2761 -0.0518  0.2849
   80DPPC   C38 3988   1.938   3.907   4.730  0.4183  0.0680 -0.2044
   80DPPC   C39 3989   1.915   3.961   4.589 -0.1637 -0.5868 -0.3649
   80DPPC   C40 3990   1.773   3.932   4.539 -0.4462 -0.0203  0.1108
   80DPPC   C41 3991   1.765   3.960   4.389 -0.2675 -0.3329  0.0436
   80DPPC   C42 3992   1.623   3.948   4.333 -0.3043  0.2164  0.0189
   80DPPC   C43 3993   1.595   4.004   4.193 -0.5444 -0.3906 -0.1783
   80DPPC   C44 3994   1.639   3.894   4.097 -0.5738 -0.2881 -0.3087
   80DPPC   C45 3995   1.627   3.953   3.956  0.0535  0.2806 -0.1302
   80DPPC   C46 3996   1.687   3.865   3.846  0.1689  0.2404 -0.0348
   80DPPC   C47 3997   1.690   3.936   3.711  0.4345  0.1317 -0.0870
   80DPPC   C48 3998   1.763   3.854   3.605 -0.2347 -0.1024 -0.3743
   80DPPC   C49 3999   1.755   3.923   3.469  0.2041  0.1584 -0.2694
   80DPPC   C50 4000   1.844   3.842   3.375  0.6883  0.5982 -0.1944
   81DPPC    C1 4001   4.643   4.824   5.454  0.6852 -0.0762 -0.0732
   81DPPC    C2 4002   4.625   4.910   5.685 -0.4719 -0.7096 -0.2525
   81DPPC    C3 4003   4.470   4.954   5.531  0.0181 -0.1017 -0.0003
   81DPPC    N4 4004   4.616   4.939   5.541  0.0251 -0.1516 -0.1723
   81DPPC    C5 4005   4.675   5.066   5.497 -0.0442  0.0542  0.3206
   81DPPC    C6 4006   4.820   5.064   5.451 -0.1421 -0.2403  0.0193
   81DPPC    O7 4007   4.848   4.994   5.329 -0.1921 -0.3889  0.0940
   81DPPC    P8 4008   4.928   5.088   5.227 -0.4328  0.1596  0.4051
   81DPPC    O9 4009   4.822   5.189   5.208 -0.3310  0.1197 -0.4267
   81DPPC   O10 4010   5.065   5.127   5.270 -0.1420 -0.5732  0.1587
   81DPPC   O11 4011   4.933   4.994   5.096 -0.4517  0.8835 -0.1227
   81DPPC   C12 4012   4.798   4.999   5.050 -0.5357  0.1809  0.0338
   81DPPC   C13 4013   4.773   4.904   4.932 -0.5666 -0.1740  0.3244
   81DPPC   O14 4014   4.874   4.914   4.831  0.0385 -0.1597  0.9216
   81DPPC   C15 4015   4.876   4.803   4.752  0.4974  0.2689  0.3170
   81DPPC   O16 4016   4.826   4.698   4.793  0.1746  0.2812 -0.0359
   81DPPC   C17 4017   4.949   4.814   4.618 -0.8206 -0.7670 -0.5142
   81DPPC   C18 4018   4.872   4.908   4.525 -0.2078 -0.4369 -0.6921
   81DPPC   C19 4019   4.945   4.914   4.391 -0.1176 -0.1168 -0.6303
   81DPPC   C20 4020   4.884   5.018   4.298 -0.2559  0.1744 -0.2175
   81DPPC   C21 4021   4.958   5.018   4.164  0.4783  0.1991  0.1858
   81DPPC   C22 4022   4.874   5.094   4.061  0.0165 -0.0766  0.3558
   81DPPC   C23 4023   4.848   5.242   4.086  0.2887  0.0293  0.0266
   81DPPC   C24 4024   4.772   5.294   3.963  0.2580 -0.6325 -0.2354
   81DPPC   C25 4025   4.758   5.446   3.969 -0.6188 -0.7369  0.6123
   81DPPC   C26 4026   4.684   5.498   3.845  0.5139 -0.2391  0.1252
   81DPPC   C27 4027   4.695   5.649   3.827  0.0638 -0.2265 -0.0613
   81DPPC   C28 4028   4.648   5.718   3.955  0.0322 -0.2633 -0.0531
   81DPPC   C29 4029   4.649   5.866   3.918 -0.0722 -0.2102  0.1581
   81DPPC   C30 4030   4.599   5.952   4.035  0.1209  0.7258 -0.4348
   81DPPC   C31 4031   4.451   5.919   4.059  0.2574 -0.2296 -0.8299
   81DPPC   C32 4032   4.637   4.953   4.882 -0.2698  0.4140  0.0772
   81DPPC   O33 4033   4.646   5.095   4.869 -0.0401  0.3811 -0.1252
   81DPPC   C34 4034   4.530   5.159   4.837 -0.1576  0.1213 -0.2224
   81DPPC   O35 4035   4.419   5.118   4.869  0.2634 -0.7127  0.2023
   81DPPC   C36 4036   4.560   5.280   4.748 -0.3209  0.2122 -0.1532
   81DPPC   C37 4037   4.695   5.297   4.679 -0.4938  0.3186 -0.4664
   81DPPC   C38 4038   4.670   5.289   4.528 -0.0810 -0.4801 -0.4950
   81DPPC   C39 4039   4.793   5.342   4.453  0.3018 -0.2892  0.2586
   81DPPC   C40 4040   4.866   5.463   4.513 -0.1190  0.1145 -0.0445
   81DPPC   C41 4041   4.987   5.492   4.425  0.5210  0.0947  0.8182
   81DPPC   C42 4042   4.948   5.526   4.281  0.3326 -0.1223  0.8187
   81DPPC   C43 4043   5.061   5.519   4.178 -0.4075  0.1557 -0.0253
   81DPPC   C44 4044   5.153   5.630   4.229 -0.5667  0.0139  0.5770
   81DPPC   C45 4045   5.276   5.632   4.138 -0.6362  0.5214  0.4945
   81DPPC   C46 4046   5.373   5.736   4.195 -0.2250  0.4842 -0.1193
   81DPPC   C47 4047   5.493   5.663   4.255  0.0678  0.4336 -0.7648
   81DPPC   C48 4048   5.572   5.772   4.327 -0.3464  0.2590 -0.0385
   81DPPC   C49 4049   5.714   5.720   4.351 -0.3854 -0.0180 -0.3959
   81DPPC   C50 4050   5.824   5.805   4.415 -0.2577 -0.5374  0.0749
   82DPPC    C1 4051   1.674   5.563   5.197  0.8421  0.2372  0.7840
   82DPPC    C2 4052   1.473   5.650   5.103  0.0865 -0.0198 -0.4914
   82DPPC    C3 4053   1.571   5.771   5.270 -0.2807 -0.0708 -0.4364
   82DPPC    N4 4054   1.605   5.686   5.155  0.0393 -0.4753 -0.0467
   82DPPC    C5 4055   1.662   5.771   5.049  0.1815 -0.5132 -0.0004
   82DPPC    C6 4056   1.783   5.863   5.065 -0.1382 -0.1031  0.0963
   82DPPC    O7 4057   1.805   5.891   4.926  0.4050 -0.0074  0.1985
   82DPPC    P8 4058   1.916   6.004   4.897 -0.0647  0.4218  0.0714
   82DPPC    O9 4059   1.861   6.131   4.951 -0.4865  0.4942 -0.5149
   82DPPC   O10 4060   2.039   5.945   4.954  0.0109  0.2735 -0.2470
   82DPPC   O11 4061   1.924   6.003   4.736  0.4733  0.4130  0.0982
   82DPPC   C12 4062   1.800   6.045   4.680  0.4266 -0.1268 -0.2066
   82DPPC   C13 4063   1.777   6.074   4.531 -0.0801  0.2801 -0.0536
   82DPPC   O14 4064   1.755   5.964   4.441  0.0324 -0.3125  0.6269
   82DPPC   C15 4065   1.645   5.885   4.455 -0.1170 -0.1789  0.2353
   82DPPC   O16 4066   1.557   5.915   4.535  0.1152 -0.3072  0.5433
   82DPPC   C17 4067   1.619   5.787   4.340 -0.1579 -0.1054  0.1818
   82DPPC   C18 4068   1.539   5.865   4.236  0.3359 -0.0142 -0.1291
   82DPPC   C19 4069   1.491   5.765   4.131  0.6446  0.1547 -0.4357
   82DPPC   C20 4070   1.605   5.668   4.098  0.5619 -0.1645  0.2156
   82DPPC   C21 4071   1.612   5.636   3.949 -0.1652 -0.3910  0.2263
   82DPPC   C22 4072   1.660   5.493   3.925  0.9796 -0.0046  0.1794
   82DPPC   C23 4073   1.664   5.463   3.775  0.2964 -0.0762  0.1748
   82DPPC   C24 4074   1.695   5.315   3.752 -0.2387 -0.0633 -0.6534
   82DPPC   C25 4075   1.720   5.295   3.602 -0.1943 -0.0714 -0.6448
   82DPPC   C26 4076   1.756   5.147   3.585  0.1500 -0.0889  0.1917
   82DPPC   C27 4077   1.876   5.108   3.672  0.3853  0.3345  0.0574
   82DPPC   C28 4078   1.948   4.983   3.622 -0.2518 -0.5111  1.2339
   82DPPC   C29 4079   2.063   4.924   3.705  0.3611 -0.1402  0.6528
   82DPPC   C30 4080   2.132   4.805   3.638 -0.0991 -0.1346  0.1635
   82DPPC   C31 4081   2.022   4.702   3.616 -0.2549  0.1475 -0.4175
   82DPPC   C32 4082   1.896   6.167   4.508  0.6806 -0.7193 -0.2530
   82DPPC   O33 4083   1.888   6.268   4.407  0.5708 -0.8175 -0.3424
   82DPPC   C34 4084   2.000   6.325   4.357  0.4141  0.0850  0.2998
   82DPPC   O35 4085   2.113   6.285   4.384  0.6014 -0.0509 -0.6355
   82DPPC   C36 4086   1.968   6.439   4.259  0.0627 -0.4013 -0.1595
   82DPPC   C37 4087   2.064   6.443   4.140 -0.3477 -0.3310 -0.4879
   82DPPC   C38 4088   2.031   6.559   4.046 -0.5808 -0.0019 -0.0061
   82DPPC   C39 4089   2.112   6.596   3.921  0.3734  0.0735  0.6284
   82DPPC   C40 4090   2.100   6.477   3.826 -0.5527  0.2389  0.5312
   82DPPC   C41 4091   1.952   6.447   3.801 -0.4149  0.7425 -0.9651
   82DPPC   C42 4092   1.940   6.307   3.738  0.6687  0.0341  0.3489
   82DPPC   C43 4093   2.013   6.291   3.605 -0.0580 -0.4092 -0.0012
   82DPPC   C44 4094   2.004   6.148   3.552 -0.1307 -0.0717 -0.9244
   82DPPC   C45 4095   1.857   6.112   3.577 -0.1889  0.4480 -0.4935
   82DPPC   C46 4096   1.842   5.965   3.535  0.1858  0.2902 -0.0769
   82DPPC   C47 4097   1.695   5.931   3.557  0.2371  0.0323 -0.1282
   82DPPC   C48 4098   1.669   5.781   3.549 -0.3332  0.1415 -0.3874
   82DPPC   C49 4099   1.522   5.764   3.589 -0.3023  0.5063 -0.1236
   82DPPC   C50 4100   1.432   5.730   3.470 -0.7393  0.2611  0.2731
   83DPPC    C1 4101   5.163   0.878   5.539 -0.0245  0.5189 -0.4458
   83DPPC    C2 4102   4.945   0.782   5.560 -0.1992  0.2639  0.2408
   83DPPC    C3 4103   4.962   1.001   5.531  0.4379  0.4743 -0.1879
   83DPPC    N4 4104   5.027   0.878   5.484 -0.2026  0.0655 -0.0153
   83DPPC    C5 4105   5.015   0.859   5.339 -0.3269 -0.0169  0.0058
   83DPPC    C6 4106   5.077   0.732   5.279 -0.4048 -0.0012 -0.1083
   83DPPC    O7 4107   5.005   0.610   5.297  0.0093 -0.1062  0.9085
   83DPPC    P8 4108   5.105   0.490   5.260 -0.4019 -0.2385  0.1983
   83DPPC    O9 4109   5.246   0.534   5.252 -0.1694 -0.9745  0.1320
   83DPPC   O10 4110   5.068   0.367   5.334  0.2438 -0.3424  0.3534
   83DPPC   O11 4111   5.054   0.464   5.110  0.2430 -0.1813 -0.0303
   83DPPC   C12 4112   5.088   0.328   5.080 -0.4608 -0.3406 -0.1143
   83DPPC   C13 4113   5.063   0.274   4.939  0.0574  0.2587 -0.4416
   83DPPC   O14 4114   5.169   0.299   4.846  0.7850  0.4355  0.4204
   83DPPC   C15 4115   5.261   0.201   4.828  0.6079  0.3555 -0.0574
   83DPPC   O16 4116   5.258   0.101   4.900  0.0960  0.0018 -0.5505
   83DPPC   C17 4117   5.370   0.204   4.721  0.3745 -0.4009 -0.3224
   83DPPC   C18 4118   5.431   0.344   4.722 -0.3412 -0.0823  0.3498
   83DPPC   C19 4119   5.549   0.349   4.623 -0.3181 -0.0204  0.3797
   83DPPC   C20 4120   5.503   0.337   4.478  0.3577 -0.2250  0.1824
   83DPPC   C21 4121   5.594   0.387   4.365  0.4705 -0.3943  0.1975
   83DPPC   C22 4122   5.522   0.354   4.234 -0.1314 -0.3760  0.5188
   83DPPC   C23 4123   5.622   0.356   4.118 -0.6943 -0.1346  0.0338
   83DPPC   C24 4124   5.567   0.301   3.986 -0.0589 -0.6257 -0.0339
   83DPPC   C25 4125   5.658   0.307   3.864  0.3574  0.0274  0.3014
   83DPPC   C26 4126   5.591   0.226   3.752 -0.1786  0.4136  0.3415
   83DPPC   C27 4127   5.572   0.316   3.630  0.3088  0.1356  0.0595
   83DPPC   C28 4128   5.494   0.252   3.514  0.2000  0.1706  0.1138
   83DPPC   C29 4129   5.456   0.362   3.414  0.0737 -0.1592 -0.1998
   83DPPC   C30 4130   5.348   0.449   3.480 -0.0633 -0.2568 -0.2943
   83DPPC   C31 4131   5.307   0.557   3.380  0.0311 -0.3713 -0.4581
   83DPPC   C32 4132   4.919   0.316   4.907 -0.0957 -0.1166 -0.2455
   83DPPC   O33 4133   4.864   0.271   4.784  0.4050  0.3023 -0.6263
   83DPPC   C34 4134   4.747   0.335   4.755 -0.0968 -0.0810  0.4966
   83DPPC   O35 4135   4.720   0.436   4.819  0.0770 -0.0518  0.5254
   83DPPC   C36 4136   4.670   0.280   4.635  0.7105 -0.0459 -0.0478
   83DPPC   C37 4137   4.679   0.130   4.604 -0.0296 -0.1420  0.1869
   83DPPC   C38 4138   4.579   0.086   4.497  0.0767  0.1104 -0.0153
   83DPPC   C39 4139   4.594  -0.063   4.467 -0.3045  0.1237 -0.2818
   83DPPC   C40 4140   4.534  -0.085   4.328 -0.2111  0.1576 -0.3281
   83DPPC   C41 4141   4.621   0.011   4.247 -0.2303  0.3907 -0.0713
   83DPPC   C42 4142   4.607   0.015   4.095 -0.0432 -0.8145 -0.1284
   83DPPC   C43 4143   4.675   0.131   4.023 -0.4500 -0.3154  0.2824
   83DPPC   C44 4144   4.673   0.130   3.870  0.4081 -0.2827  0.2650
   83DPPC   C45 4145   4.722   0.266   3.820  0.0896 -0.1907  0.2017
   83DPPC   C46 4146   4.698   0.272   3.669  0.1526 -0.1118  0.1952
   83DPPC   C47 4147   4.546   0.276   3.648  0.1773  0.1334  0.0603
   83DPPC   C48 4148   4.515   0.263   3.499  0.2759 -0.0442  0.0554
   83DPPC   C49 4149   4.571   0.126   3.457 -0.6747 -0.4632  0.1337
   83DPPC   C50 4150   4.550   0.096   3.308 -0.3207 -0.0986  0.0067
   84DPPC    C1 4151   1.624   1.547   4.196  0.0842  0.0755  0.0830
   84DPPC    C2 4152   1.864   1.503   4.172  0.5169 -0.4703  0.0815
   84DPPC    C3 4153   1.771   1.717   4.233 -0.1010 -0.3203 -0.3700
   84DPPC    N4 4154   1.759   1.572   4.249  0.3149 -0.3484 -0.2995
   84DPPC    C5 4155   1.766   1.549   4.394  0.0453 -0.5671 -0.3199
   84DPPC    C6 4156   1.831   1.423   4.454  0.0256 -0.2945  0.2789
   84DPPC    O7 4157   1.745   1.314   4.420  0.1178 -0.2239 -0.1918
   84DPPC    P8 4158   1.804   1.190   4.505 -0.0374 -0.0886  0.1186
   84DPPC    O9 4159   1.946   1.208   4.543 -0.0195  0.2248 -0.0853
   84DPPC   O10 4160   1.708   1.180   4.617  0.4464 -0.7795  0.4742
   84DPPC   O11 4161   1.792   1.080   4.388  0.0922 -0.3028  0.3085
   84DPPC   C12 4162   1.659   1.063   4.341  0.3986 -0.1122 -0.6487
   84DPPC   C13 4163   1.643   0.990   4.207 -0.1402 -0.4847 -0.3864
   84DPPC   O14 4164   1.509   0.952   4.172 -0.4164 -0.1780  0.3179
   84DPPC   C15 4165   1.429   1.050   4.120  0.1454  0.3265  0.3904
   84DPPC   O16 4166   1.477   1.162   4.101  0.6586  0.0699  0.1387
   84DPPC   C17 4167   1.290   1.010   4.072  0.4649 -0.7641  0.3419
   84DPPC   C18 4168   1.165   1.042   4.154  0.3474 -0.2044 -0.0509
   84DPPC   C19 4169   1.033   0.979   4.110  0.4315 -0.1622 -0.3678
   84DPPC   C20 4170   0.978   1.012   3.972 -0.2547 -0.0610 -0.0751
   84DPPC   C21 4171   0.934   1.156   3.943 -0.7299 -0.1802  0.0536
   84DPPC   C22 4172   0.907   1.176   3.794 -0.3246 -0.5562 -0.0735
   84DPPC   C23 4173   0.835   1.308   3.763  0.3029 -0.2360 -0.1824
   84DPPC   C24 4174   0.692   1.282   3.717  0.0985  0.4758  0.0340
   84DPPC   C25 4175   0.644   1.412   3.654 -0.1436  0.2223 -0.3060
   84DPPC   C26 4176   0.497   1.405   3.613 -0.2046  0.1757 -0.0800
   84DPPC   C27 4177   0.428   1.347   3.736 -0.2544 -0.6354 -0.4809
   84DPPC   C28 4178   0.278   1.331   3.708 -0.5656  0.3831  0.5031
   84DPPC   C29 4179   0.231   1.465   3.652  0.4034  0.0467 -1.1981
   84DPPC   C30 4180   0.079   1.482   3.656  0.3202 -0.8683  0.3024
   84DPPC   C31 4181   0.027   1.475   3.800  0.5796  0.7158  0.4889
   84DPPC   C32 4182   1.750   0.881   4.205 -0.0804 -0.4402  0.1114
   84DPPC   O33 4183   1.772   0.839   4.070  0.3987  0.7701 -0.2010
   84DPPC   C34 4184   1.849   0.728   4.052 -0.2163  0.3109 -0.0534
   84DPPC   O35 4185   1.899   0.674   4.150 -0.4675 -0.1261 -0.1617
   84DPPC   C36 4186   1.847   0.666   3.912 -0.2168  0.1586  0.0145
   84DPPC   C37 4187   1.869   0.515   3.916  0.6767  0.2751 -0.2243
   84DPPC   C38 4188   1.848   0.455   3.777 -0.1448  0.0756 -0.0185
   84DPPC   C39 4189   1.940   0.514   3.670 -0.1167  0.2598  0.1064
   84DPPC   C40 4190   1.894   0.465   3.533 -0.0907  0.3379  0.0698
   84DPPC   C41 4191   1.988   0.534   3.434 -0.3747  0.3538 -0.1931
   84DPPC   C42 4192   1.995   0.677   3.489 -0.2235  0.4175 -0.3762
   84DPPC   C43 4193   2.106   0.753   3.416  0.3677 -0.1676 -0.1026
   84DPPC   C44 4194   2.094   0.757   3.264 -0.0290 -0.6054 -0.0843
   84DPPC   C45 4195   2.226   0.806   3.204 -0.3382  0.6900  0.2661
   84DPPC   C46 4196   2.291   0.702   3.112 -0.2516  0.6801  0.3382
   84DPPC   C47 4197   2.194   0.644   3.009 -0.2348  0.5669  0.3864
   84DPPC   C48 4198   2.158   0.754   2.909  0.2488  0.2233 -0.1733
   84DPPC   C49 4199   2.068   0.702   2.797  0.8614  0.1159 -0.6237
   84DPPC   C50 4200   2.128   0.600   2.701  0.2563 -1.0833  0.2322
   85DPPC    C1 4201   4.004   5.117   5.168 -0.6261 -0.9311  0.0401
   85DPPC    C2 4202   4.100   5.222   4.968  0.9002 -0.5472  0.1302
   85DPPC    C3 4203   3.866   5.195   5.029 -0.0006 -0.1869  0.1056
   85DPPC    N4 4204   3.998   5.130   5.021  0.1945  0.2079  0.0918
   85DPPC    C5 4205   3.995   5.007   4.941  0.0187  0.3667 -0.1476
   85DPPC    C6 4206   4.110   4.912   4.975 -0.1286  0.3970  0.4448
   85DPPC    O7 4207   4.130   4.793   4.899  0.6771  0.8482 -0.0626
   85DPPC    P8 4208   4.253   4.692   4.923 -0.0515  0.0404  0.3620
   85DPPC    O9 4209   4.289   4.716   5.064  0.5594 -0.5553  0.3126
   85DPPC   O10 4210   4.197   4.567   4.867  0.4472 -0.1026  0.1733
   85DPPC   O11 4211   4.337   4.753   4.800 -0.5318  0.2799  0.1481
   85DPPC   C12 4212   4.270   4.704   4.683  0.1559  0.6684 -0.4205
   85DPPC   C13 4213   4.223   4.797   4.571 -0.2847  0.2455 -0.5882
   85DPPC   O14 4214   4.188   4.718   4.457  0.1912 -0.0049 -0.5652
   85DPPC   C15 4215   4.074   4.645   4.448  0.0289  0.1630  0.1234
   85DPPC   O16 4216   3.992   4.650   4.541 -0.2693  0.4155 -0.1509
   85DPPC   C17 4217   4.050   4.576   4.314 -0.2893  0.0573  0.2319
   85DPPC   C18 4218   4.176   4.561   4.228 -0.5818 -0.1462 -0.1629
   85DPPC   C19 4219   4.155   4.457   4.117 -0.1067 -0.1161 -0.2822
   85DPPC   C20 4220   4.050   4.502   4.016 -0.3447  0.2032  0.1071
   85DPPC   C21 4221   4.096   4.630   3.945  0.3445 -0.2998 -0.3568
   85DPPC   C22 4222   4.002   4.658   3.827  0.0218 -0.2620 -0.0928
   85DPPC   C23 4223   3.877   4.745   3.845 -0.0274 -0.1864 -0.7762
   85DPPC   C24 4224   3.814   4.752   3.706 -0.2701  0.0174 -0.6565
   85DPPC   C25 4225   3.726   4.874   3.677 -0.2647  0.0771 -0.4245
   85DPPC   C26 4226   3.659   4.867   3.540 -0.0471  0.0433 -0.5303
   85DPPC   C27 4227   3.560   4.983   3.536 -0.1688 -0.0574 -0.4459
   85DPPC   C28 4228   3.448   4.971   3.432  0.2155 -0.1952 -0.8475
   85DPPC   C29 4229   3.351   5.088   3.416 -0.2304 -0.3404  0.6405
   85DPPC   C30 4230   3.237   5.074   3.315  0.5372 -0.2653 -0.2395
   85DPPC   C31 4231   3.135   4.975   3.369  0.4452 -0.1372 -0.1788
   85DPPC   C32 4232   4.330   4.905   4.554  0.0380  0.1239  0.5744
   85DPPC   O33 4233   4.295   5.021   4.479 -0.0046 -0.1737  0.1288
   85DPPC   C34 4234   4.207   5.114   4.525 -0.1795  0.0187 -0.5793
   85DPPC   O35 4235   4.151   5.105   4.634 -0.5587  0.2096 -0.7567
   85DPPC   C36 4236   4.198   5.244   4.444  0.5172  0.2372 -0.3148
   85DPPC   C37 4237   4.304   5.265   4.335  0.3676 -0.1334 -0.5346
   85DPPC   C38 4238   4.263   5.375   4.238 -0.6624 -0.0053  0.0305
   85DPPC   C39 4239   4.378   5.389   4.138 -0.5421  0.2336  0.2015
   85DPPC   C40 4240   4.350   5.471   4.012  0.1286  0.1729  0.0060
   85DPPC   C41 4241   4.251   5.411   3.912  0.3416  0.1844 -0.2100
   85DPPC   C42 4242   4.216   5.523   3.813  0.4656  0.1161 -0.3324
   85DPPC   C43 4243   4.118   5.452   3.720  0.3588 -0.1708 -0.0020
   85DPPC   C44 4244   4.007   5.403   3.814  0.4257  0.0184  0.1772
   85DPPC   C45 4245   3.895   5.331   3.738  0.1704  0.1446  0.4300
   85DPPC   C46 4246   3.793   5.278   3.838 -0.2232 -0.5165 -0.3081
   85DPPC   C47 4247   3.869   5.171   3.917  0.3041 -0.2187 -0.4054
   85DPPC   C48 4248   3.780   5.093   4.014  0.0378  0.3210 -0.2082
   85DPPC   C49 4249   3.831   4.978   4.101 -0.3667  0.3848  0.1161
   85DPPC   C50 4250   3.929   5.027   4.208  0.3132 -0.3503 -0.1587
   86DPPC    C1 4251   3.595   6.085   5.062 -0.0454  0.6163  0.1106
   86DPPC    C2 4252   3.761   6.001   5.203  0.2866  0.5297 -0.1241
   86DPPC    C3 4253   3.821   6.098   4.991  0.5056 -0.1339  0.0652
   86DPPC    N4 4254   3.723   6.013   5.062 -0.1132  0.4946 -0.0216
   86DPPC    C5 4255   3.698   5.885   4.994  0.1625  0.4353 -0.0137
   86DPPC    C6 4256   3.796   5.769   5.014 -0.1552  0.1622 -0.0500
   86DPPC    O7 4257   3.933   5.808   5.002 -0.2397  0.6632  0.5353
   86DPPC    P8 4258   4.005   5.670   5.044 -0.3549  0.4415  0.0137
   86DPPC    O9 4259   4.143   5.713   5.072 -0.2875 -0.2604  0.8195
   86DPPC   O10 4260   3.919   5.607   5.147 -0.2025  0.3314  0.0729
   86DPPC   O11 4261   3.995   5.588   4.906  0.1638  0.2824  0.0674
   86DPPC   C12 4262   4.103   5.628   4.822  0.5912 -0.3369  0.3214
   86DPPC   C13 4263   4.124   5.558   4.687 -0.0917  0.0633  0.0003
   86DPPC   O14 4264   4.214   5.624   4.597 -0.4107 -0.4030 -0.6675
   86DPPC   C15 4265   4.346   5.635   4.625 -0.5519 -0.1590 -0.0698
   86DPPC   O16 4266   4.406   5.605   4.728 -0.3632 -0.0619 -0.1492
   86DPPC   C17 4267   4.433   5.667   4.502 -0.6808 -0.0641 -0.1366
   86DPPC   C18 4268   4.526   5.781   4.541 -0.5740 -0.0674 -0.3833
   86DPPC   C19 4269   4.589   5.849   4.418 -0.2473  0.3706  0.0204
   86DPPC   C20 4270   4.717   5.923   4.455 -0.0574  0.0330  0.0400
   86DPPC   C21 4271   4.793   5.999   4.346 -0.3318  0.1946 -0.0380
   86DPPC   C22 4272   4.938   5.952   4.350 -0.4018 -0.0138  0.0997
   86DPPC   C23 4273   5.001   6.008   4.222 -0.3614 -0.2529  0.0154
   86DPPC   C24 4274   4.980   5.933   4.090  0.1159 -0.6434  0.1552
   86DPPC   C25 4275   5.041   5.998   3.966  0.3947 -0.8068  0.2080
   86DPPC   C26 4276   5.046   5.893   3.854 -0.3381 -0.3829 -0.2289
   86DPPC   C27 4277   5.097   5.965   3.729 -0.3744  0.2819  0.1366
   86DPPC   C28 4278   5.075   5.879   3.605 -0.2284  0.2392  0.1395
   86DPPC   C29 4279   5.140   5.966   3.497  0.2603 -0.1324  0.1332
   86DPPC   C30 4280   5.178   5.886   3.372 -0.4500 -0.7303  0.2951
   86DPPC   C31 4281   5.053   5.820   3.313  0.0590 -0.5802 -0.9985
   86DPPC   C32 4282   3.981   5.540   4.637 -0.1011  0.2480 -0.0379
   86DPPC   O33 4283   3.958   5.481   4.509 -0.1968 -0.5490  0.3421
   86DPPC   C34 4284   3.863   5.385   4.522  0.2485 -1.0398  0.0499
   86DPPC   O35 4285   3.829   5.340   4.632 -0.2067  0.1294  0.4049
   86DPPC   C36 4286   3.809   5.319   4.395  0.5171 -0.0205 -0.6075
   86DPPC   C37 4287   3.695   5.407   4.344  0.1268 -0.1675 -0.0031
   86DPPC   C38 4288   3.589   5.346   4.251 -0.2288 -0.3466  0.5143
   86DPPC   C39 4289   3.490   5.454   4.206  0.1254 -0.0588  0.4173
   86DPPC   C40 4290   3.565   5.533   4.099  0.0371 -0.8925 -0.2757
   86DPPC   C41 4291   3.484   5.639   4.024  0.3102  0.1171  0.8219
   86DPPC   C42 4292   3.387   5.573   3.925  0.0128  0.2764  1.0065
   86DPPC   C43 4293   3.457   5.477   3.829 -0.3387  0.3066  0.7208
   86DPPC   C44 4294   3.360   5.449   3.714 -0.3020  0.3937  0.6683
   86DPPC   C45 4295   3.309   5.585   3.667 -0.8957  0.1002  0.4495
   86DPPC   C46 4296   3.222   5.572   3.542 -0.2207  0.1117 -0.0270
   86DPPC   C47 4297   3.100   5.497   3.595 -0.0583 -0.0754  0.0856
   86DPPC   C48 4298   2.996   5.458   3.490  0.1930 -0.5805  0.0228
   86DPPC   C49 4299   2.875   5.390   3.555 -0.6341  0.3907 -0.4688
   86DPPC   C50 4300   2.800   5.332   3.435  0.1768 -1.2817 -0.1908
   87DPPC    C1 4301   4.507   0.597   5.085 -0.2958  0.4844 -0.1171
   87DPPC    C2 4302   4.357   0.754   4.992  0.3228 -0.1177  0.4205
   87DPPC    C3 4303   4.537   0.695   4.872 -0.5477  0.0627 -0.8060
   87DPPC    N4 4304   4.437   0.634   4.961 -0.0806 -0.1713 -0.4371
   87DPPC    C5 4305   4.361   0.534   4.885 -0.1824 -0.3414 -0.1128
   87DPPC    C6 4306   4.243   0.455   4.943 -0.5454  0.4832  0.2998
   87DPPC    O7 4307   4.281   0.352   5.035  0.0767  0.3904 -0.0566
   87DPPC    P8 4308   4.148   0.293   5.103  0.4192 -0.0425  0.2460
   87DPPC    O9 4309   4.177   0.191   5.206 -0.5461 -0.2778  0.2951
   87DPPC   O10 4310   4.061   0.410   5.127  0.3489 -0.0061 -0.1947
   87DPPC   O11 4311   4.093   0.227   4.967 -0.3054  0.2082  0.4155
   87DPPC   C12 4312   4.139   0.093   4.948  0.4276  0.5079  0.0402
   87DPPC   C13 4313   4.108   0.048   4.806 -0.0961 -0.5446  0.4808
   87DPPC   O14 4314   4.160  -0.081   4.770 -0.1949 -0.6009  0.5377
   87DPPC   C15 4315   4.063  -0.157   4.714 -0.6592  0.0866  0.3982
   87DPPC   O16 4316   3.945  -0.122   4.702 -0.8554 -0.6146  0.2256
   87DPPC   C17 4317   4.094  -0.303   4.681  0.0078  0.2525  0.2860
   87DPPC   C18 4318   4.105  -0.311   4.529  0.2069 -0.3258  0.3259
   87DPPC   C19 4319   4.152  -0.446   4.474 -0.3416 -0.4585  0.1800
   87DPPC   C20 4320   4.090  -0.482   4.339 -0.3537  0.1545  0.0161
   87DPPC   C21 4321   4.170  -0.600   4.283  0.3633  0.8030 -0.3444
   87DPPC   C22 4322   4.103  -0.644   4.153  0.1812 -0.0273  0.0238
   87DPPC   C23 4323   3.960  -0.693   4.180  0.3995 -0.4866  0.3558
   87DPPC   C24 4324   3.882  -0.722   4.052 -0.7080  0.1760  0.8743
   87DPPC   C25 4325   3.871  -0.594   3.968 -0.0860 -0.5183 -0.3010
   87DPPC   C26 4326   3.825  -0.629   3.827 -0.1367 -0.1208 -0.3838
   87DPPC   C27 4327   3.829  -0.501   3.743  0.2514 -0.1104 -0.3491
   87DPPC   C28 4328   3.750  -0.537   3.617 -0.3980  0.1822 -0.0275
   87DPPC   C29 4329   3.764  -0.420   3.520  0.1272 -0.0712 -0.2589
   87DPPC   C30 4330   3.914  -0.402   3.493  0.1596  0.6227  0.3695
   87DPPC   C31 4331   3.939  -0.308   3.375  0.6121 -0.7458 -0.6514
   87DPPC   C32 4332   4.165   0.155   4.713 -0.2576 -0.8699  0.0028
   87DPPC   O33 4333   4.136   0.140   4.573  0.4123 -0.3455 -0.1982
   87DPPC   C34 4334   4.196   0.229   4.490  0.2957 -0.3192 -0.2548
   87DPPC   O35 4335   4.280   0.312   4.525 -0.0373 -0.1295  0.1032
   87DPPC   C36 4336   4.129   0.226   4.352 -0.4661  0.0832  0.1014
   87DPPC   C37 4337   4.133   0.091   4.281 -0.2354 -0.0253  0.3163
   87DPPC   C38 4338   4.013   0.051   4.195 -0.2827  0.1857  0.2821
   87DPPC   C39 4339   4.044  -0.066   4.101  0.3801 -0.0779  0.8193
   87DPPC   C40 4340   4.152  -0.015   4.005  0.3845 -0.3805  0.6626
   87DPPC   C41 4341   4.183  -0.113   3.892  0.4520 -0.5009  0.7843
   87DPPC   C42 4342   4.293  -0.086   3.788 -0.2464 -0.0118  0.1605
   87DPPC   C43 4343   4.279  -0.174   3.664 -0.0680  0.2205 -0.0232
   87DPPC   C44 4344   4.280  -0.321   3.705 -0.1496  0.2015 -0.0902
   87DPPC   C45 4345   4.310  -0.419   3.592  0.0577  0.0890  0.0615
   87DPPC   C46 4346   4.460  -0.427   3.561  0.0616  0.5158 -0.0357
   87DPPC   C47 4347   4.490  -0.530   3.452  0.1390  0.4035  0.0904
   87DPPC   C48 4348   4.641  -0.550   3.439  0.0163 -0.0310 -0.7401
   87DPPC   C49 4349   4.665  -0.682   3.365  1.0264 -0.2123 -0.1064
   87DPPC   C50 4350   4.596  -0.798   3.437  0.7173  0.1991  0.2653
   88DPPC    C1 4351   3.695   0.546   5.229 -0.8763  0.0795 -0.7525
   88DPPC    C2 4352   3.530   0.474   5.096 -0.4258 -0.0490  0.0333
   88DPPC    C3 4353   3.702   0.328   5.186  0.5681 -0.3692 -0.9179
   88DPPC    N4 4354   3.674   0.454   5.116 -0.3866 -0.3400 -0.5044
   88DPPC    C5 4355   3.757   0.464   4.995 -0.6247  0.0747 -0.6374
   88DPPC    C6 4356   3.774   0.605   4.940  0.2294  0.2951  0.1757
   88DPPC    O7 4357   3.658   0.669   4.886  0.0460 -0.2945 -0.1351
   88DPPC    P8 4358   3.687   0.827   4.890 -0.1531 -0.2573 -0.1299
   88DPPC    O9 4359   3.560   0.895   4.858 -0.3750 -0.6843 -0.1587
   88DPPC   O10 4360   3.740   0.835   5.028 -0.7784 -0.4379  0.1214
   88DPPC   O11 4361   3.798   0.808   4.774 -0.2081  0.4014 -0.2954
   88DPPC   C12 4362   3.733   0.860   4.658 -0.9195 -0.1503 -0.1570
   88DPPC   C13 4363   3.780   0.768   4.545  0.4366  0.2694  0.0438
   88DPPC   O14 4364   3.922   0.783   4.536  0.4846  0.2287  0.6987
   88DPPC   C15 4365   3.993   0.702   4.453  0.1944 -0.0930  0.7658
   88DPPC   O16 4366   3.978   0.580   4.457 -0.6120 -0.0361 -0.0611
   88DPPC   C17 4367   4.116   0.769   4.392 -0.2662  0.1756  0.1133
   88DPPC   C18 4368   4.096   0.794   4.242 -0.2391 -0.6929 -0.0399
   88DPPC   C19 4369   3.967   0.871   4.211 -0.1043 -0.5007 -0.1245
   88DPPC   C20 4370   3.965   0.908   4.063  0.3016 -0.1053 -0.0350
   88DPPC   C21 4371   4.089   0.978   4.007  0.1482  0.5185  0.3931
   88DPPC   C22 4372   4.078   0.995   3.856  0.0527 -0.1691  0.3167
   88DPPC   C23 4373   4.054   0.861   3.787 -0.5968  0.1204 -0.0332
   88DPPC   C24 4374   4.077   0.869   3.636  0.0285  0.2422  0.0654
   88DPPC   C25 4375   4.026   0.734   3.586  0.0519  0.0380  0.5859
   88DPPC   C26 4376   4.138   0.638   3.629  0.0813 -0.2432 -0.0969
   88DPPC   C27 4377   4.243   0.632   3.518  0.2676  0.4440  0.0361
   88DPPC   C28 4378   4.178   0.576   3.391  0.0456  0.8721 -0.0401
   88DPPC   C29 4379   4.290   0.532   3.296 -0.2909 -0.0753 -0.0009
   88DPPC   C30 4380   4.232   0.459   3.175  0.2674 -0.2685 -0.1517
   88DPPC   C31 4381   4.342   0.398   3.087  0.4294  0.0398 -0.1638
   88DPPC   C32 4382   3.709   0.794   4.411 -0.2942 -0.4061  0.2938
   88DPPC   O33 4383   3.681   0.934   4.404  0.3106 -0.3108 -0.3031
   88DPPC   C34 4384   3.621   0.964   4.285  0.1805 -0.1214 -0.1916
   88DPPC   O35 4385   3.569   0.872   4.221  0.3412 -0.4274  0.1114
   88DPPC   C36 4386   3.616   1.110   4.241 -0.9407  0.0479  0.4778
   88DPPC   C37 4387   3.588   1.125   4.091  0.0985  0.3475  0.3028
   88DPPC   C38 4388   3.662   1.251   4.047  0.0002  0.1808 -0.3507
   88DPPC   C39 4389   3.811   1.233   4.017  0.0911  0.3023  0.0236
   88DPPC   C40 4390   3.879   1.370   4.003  0.2794  0.2410  0.3196
   88DPPC   C41 4391   4.031   1.367   3.988  0.2315  0.2207 -0.1698
   88DPPC   C42 4392   4.079   1.476   3.891  0.0279 -0.5489 -1.1534
   88DPPC   C43 4393   4.232   1.466   3.904 -0.0021  0.0851 -0.2021
   88DPPC   C44 4394   4.291   1.595   3.847  0.4577 -0.2845 -0.5643
   88DPPC   C45 4395   4.245   1.619   3.703  0.5486 -0.0803 -0.5597
   88DPPC   C46 4396   4.253   1.770   3.678 -1.0780  0.2087  0.4697
   88DPPC   C47 4397   4.231   1.799   3.530 -0.1911  1.0813  0.4958
   88DPPC   C48 4398   4.363   1.809   3.453 -0.4448  0.3719 -0.0479
   88DPPC   C49 4399   4.326   1.838   3.307  0.0811 -0.4012 -0.3424
   88DPPC   C50 4400   4.445   1.881   3.222  0.1117 -0.1342 -0.1675
   89DPPC    C1 4401   3.720   3.667   5.389 -0.0378 -0.5666 -0.4866
   89DPPC    C2 4402   3.863   3.754   5.230 -0.3326 -0.3521 -0.1777
   89DPPC    C3 4403   3.731   3.899   5.366  0.0064 -0.0474  0.4930
   89DPPC    N4 4404   3.730   3.774   5.289 -0.0899  0.1152  0.2295
   89DPPC    C5 4405   3.620   3.748   5.195  0.3515 -0.6052 -0.1026
   89DPPC    C6 4406   3.586   3.857   5.092  0.3715 -0.1399  0.3771
   89DPPC    O7 4407   3.484   3.807   5.005  0.3091  0.7971 -0.1001
   89DPPC    P8 4408   3.364   3.913   4.988 -0.4602 -0.0727 -0.2288
   89DPPC    O9 4409   3.270   3.816   4.929 -0.4711 -0.6094  0.6523
   89DPPC   O10 4410   3.349   3.994   5.111 -0.2476 -0.5193  0.0959
   89DPPC   O11 4411   3.424   3.999   4.866  0.2748 -0.1238  0.0899
   89DPPC   C12 4412   3.413   3.906   4.758  0.4740  0.4725 -0.4550
   89DPPC   C13 4413   3.451   3.969   4.624 -0.1253  0.6742 -0.5313
   89DPPC   O14 4414   3.447   3.888   4.506  0.1288  0.1167 -0.1586
   89DPPC   C15 4415   3.510   3.768   4.496 -0.0285  0.0249 -0.0464
   89DPPC   O16 4416   3.573   3.719   4.590 -0.4241 -0.4799 -0.0370
   89DPPC   C17 4417   3.498   3.693   4.364 -0.1437 -0.0186 -0.0119
   89DPPC   C18 4418   3.595   3.753   4.262 -0.1432  0.4835  0.2815
   89DPPC   C19 4419   3.545   3.696   4.129 -0.0241 -0.1490  0.5038
   89DPPC   C20 4420   3.580   3.550   4.097  0.0693  0.1316 -0.7179
   89DPPC   C21 4421   3.515   3.509   3.965 -0.8979 -0.2999 -0.1147
   89DPPC   C22 4422   3.544   3.361   3.942 -0.1285 -0.2402  0.4493
   89DPPC   C23 4423   3.688   3.312   3.962 -0.0526 -0.3968 -0.4412
   89DPPC   C24 4424   3.693   3.163   3.929 -0.1468 -0.6345  0.6047
   89DPPC   C25 4425   3.587   3.093   4.015 -0.5981 -0.1849  0.4163
   89DPPC   C26 4426   3.593   2.953   3.953 -0.5802 -0.1328  0.3004
   89DPPC   C27 4427   3.534   2.831   4.023 -0.4844 -0.3164  0.0602
   89DPPC   C28 4428   3.514   2.721   3.918 -0.0442 -0.1316 -0.2159
   89DPPC   C29 4429   3.432   2.600   3.961 -0.3168  0.2046  0.2206
   89DPPC   C30 4430   3.299   2.656   4.010 -0.2608  0.1970  0.3845
   89DPPC   C31 4431   3.191   2.559   4.059  0.2392 -0.5855 -0.0513
   89DPPC   C32 4432   3.582   4.042   4.655  0.2304 -0.0792 -0.2288
   89DPPC   O33 4433   3.595   4.171   4.594 -0.0577  0.1099  0.1002
   89DPPC   C34 4434   3.718   4.230   4.598  0.1526 -0.2917 -0.3009
   89DPPC   O35 4435   3.784   4.192   4.695 -0.7750  0.3027  0.5850
   89DPPC   C36 4436   3.739   4.359   4.519  0.1666  0.0116  0.1940
   89DPPC   C37 4437   3.726   4.334   4.369  0.1092  0.0363  0.1951
   89DPPC   C38 4438   3.706   4.464   4.291  0.8927 -0.0303 -0.1250
   89DPPC   C39 4439   3.660   4.443   4.146 -0.4831 -0.1830  0.3173
   89DPPC   C40 4440   3.641   4.575   4.071  0.0548 -0.2153  0.1149
   89DPPC   C41 4441   3.542   4.660   4.152  0.3096  0.2303 -0.0418
   89DPPC   C42 4442   3.487   4.768   4.059  0.3900  0.5013  0.2240
   89DPPC   C43 4443   3.373   4.854   4.116 -0.2551 -0.2793  0.1301
   89DPPC   C44 4444   3.312   4.922   3.994  0.4498  0.1071 -0.0143
   89DPPC   C45 4445   3.272   5.065   4.032  0.0417  0.0575 -0.2511
   89DPPC   C46 4446   3.232   5.120   3.895  0.7303 -0.1620 -0.5478
   89DPPC   C47 4447   3.107   5.057   3.833  0.4388 -0.3780  0.2521
   89DPPC   C48 4448   2.983   5.056   3.923  0.0202  0.4618 -0.3121
   89DPPC   C49 4449   2.881   4.989   3.831  0.2133 -0.0791 -0.1306
   89DPPC   C50 4450   2.876   5.056   3.694  0.4454  0.6065  0.1942
   90DPPC    C1 4451   2.569   4.968   5.072  0.4399 -0.2431  0.5768
   90DPPC    C2 4452   2.605   4.749   5.009  0.3809  0.0761 -0.0504
   90DPPC    C3 4453   2.735   4.840   5.166 -0.0590  0.2030  0.2105
   90DPPC    N4 4454   2.677   4.875   5.036  0.4650  0.0323 -0.0714
   90DPPC    C5 4455   2.780   4.923   4.943  0.9210  0.0396  0.4390
   90DPPC    C6 4456   2.867   5.044   4.980  0.3553  0.5980 -0.0477
   90DPPC    O7 4457   3.006   5.019   4.959  0.0862 -0.2808 -0.8605
   90DPPC    P8 4458   3.080   5.162   4.957  0.0609 -0.2594 -0.3683
   90DPPC    O9 4459   3.003   5.240   5.056  0.3765  0.1603 -0.4493
   90DPPC   O10 4460   3.221   5.117   4.963  0.0409 -0.3023 -0.2224
   90DPPC   O11 4461   3.054   5.206   4.804  0.0346 -0.2952 -0.3739
   90DPPC   C12 4462   3.159   5.164   4.717  0.5992  0.2302  0.0434
   90DPPC   C13 4463   3.157   5.239   4.583  0.1581 -0.1410 -0.1585
   90DPPC   O14 4464   3.199   5.375   4.598 -0.2379 -0.1267  0.9948
   90DPPC   C15 4465   3.328   5.404   4.631 -0.0951 -0.3532  0.6482
   90DPPC   O16 4466   3.410   5.315   4.655  0.0385 -0.3990  0.0350
   90DPPC   C17 4467   3.362   5.550   4.660 -0.2576 -0.0125 -0.7942
   90DPPC   C18 4468   3.474   5.593   4.565  0.1830 -0.2928 -0.4104
   90DPPC   C19 4469   3.541   5.719   4.619  0.1000 -0.3797 -0.1065
   90DPPC   C20 4470   3.632   5.771   4.508  0.2173  0.1903  0.2489
   90DPPC   C21 4471   3.701   5.905   4.534 -0.0175  0.3194  0.2072
   90DPPC   C22 4472   3.739   5.967   4.399 -0.1409 -0.0295  0.0104
   90DPPC   C23 4473   3.625   5.952   4.299  0.1070 -0.3254 -0.2285
   90DPPC   C24 4474   3.654   5.997   4.155 -0.0109  0.6091  0.0386
   90DPPC   C25 4475   3.536   5.984   4.059  0.2515 -0.8519 -0.1029
   90DPPC   C26 4476   3.553   6.056   3.925 -0.3007 -0.2089  0.1660
   90DPPC   C27 4477   3.432   6.037   3.834  0.0656 -0.3811 -0.2932
   90DPPC   C28 4478   3.462   6.132   3.718  0.0826 -0.4367 -0.3341
   90DPPC   C29 4479   3.354   6.132   3.609 -0.3611  0.1482  0.0989
   90DPPC   C30 4480   3.321   5.992   3.556  0.2500 -0.0765  0.3032
   90DPPC   C31 4481   3.203   5.986   3.459 -0.0650  0.1002  0.6789
   90DPPC   C32 4482   3.014   5.223   4.531  0.1695  0.2594 -0.3126
   90DPPC   O33 4483   2.981   5.098   4.471  0.0831  0.2772 -0.3028
   90DPPC   C34 4484   2.856   5.104   4.417  0.2585  0.2693 -0.7153
   90DPPC   O35 4485   2.794   5.210   4.409 -0.5584 -0.1617 -0.2513
   90DPPC   C36 4486   2.802   4.967   4.374 -0.1548  0.1210  0.2410
   90DPPC   C37 4487   2.730   4.991   4.241 -0.5154  0.4062  0.4838
   90DPPC   C38 4488   2.682   4.850   4.203  0.5171  0.2031 -0.1022
   90DPPC   C39 4489   2.794   4.750   4.172 -0.0691 -0.2420 -0.8011
   90DPPC   C40 4490   2.737   4.609   4.154 -0.4931 -0.2673  0.6101
   90DPPC   C41 4491   2.863   4.529   4.120 -0.3541  0.2475 -0.1208
   90DPPC   C42 4492   2.851   4.501   3.970 -0.2937 -0.0733 -0.0657
   90DPPC   C43 4493   2.927   4.612   3.896  0.2592 -0.3014  0.1598
   90DPPC   C44 4494   2.944   4.579   3.748  0.0289  0.2130  0.0189
   90DPPC   C45 4495   3.036   4.675   3.674 -0.0489  0.4771  0.2616
   90DPPC   C46 4496   3.173   4.659   3.740  0.2211  0.5667 -0.2666
   90DPPC   C47 4497   3.262   4.562   3.663 -0.1735  0.1649 -0.2199
   90DPPC   C48 4498   3.299   4.615   3.524 -0.7647  0.4006 -0.2882
   90DPPC   C49 4499   3.406   4.516   3.476 -0.5225  0.3143  0.4089
   90DPPC   C50 4500   3.348   4.380   3.514  0.0075 -0.0203  0.0271
   91DPPC    C1 4501   3.429   0.121   4.397 -0.4421 -0.6985 -0.1264
   91DPPC    C2 4502   3.598   0.133   4.569 -0.1670 -0.4648  0.4193
   91DPPC    C3 4503   3.584  -0.040   4.401  0.1801 -0.2657  0.2211
   91DPPC    N4 4504   3.507   0.044   4.495 -0.0613 -0.1986 -0.0338
   91DPPC    C5 4505   3.420  -0.018   4.596 -0.1822  0.1662  0.0852
   91DPPC    C6 4506   3.396  -0.169   4.589  0.7929 -0.0056  0.3477
   91DPPC    O7 4507   3.301  -0.214   4.686  0.2062  0.0084 -0.2143
   91DPPC    P8 4508   3.333  -0.368   4.721  0.3364  0.1466  0.2763
   91DPPC    O9 4509   3.477  -0.357   4.754  0.3315 -0.4775  0.5206
   91DPPC   O10 4510   3.223  -0.416   4.807  0.5548 -0.3694  0.2708
   91DPPC   O11 4511   3.315  -0.416   4.569  0.5046 -0.0071  0.3051
   91DPPC   C12 4512   3.186  -0.472   4.546  0.5079  0.2014 -0.2574
   91DPPC   C13 4513   3.161  -0.508   4.400 -0.1788  0.0295 -0.1065
   91DPPC   O14 4514   3.191  -0.642   4.359  0.1652 -0.0564  0.4184
   91DPPC   C15 4515   3.103  -0.743   4.382  0.3012 -0.2552  0.0843
   91DPPC   O16 4516   2.997  -0.723   4.442  0.0725 -0.2846 -0.3118
   91DPPC   C17 4517   3.126  -0.874   4.307  0.1624 -0.0438 -0.3328
   91DPPC   C18 4518   3.018  -0.898   4.202 -0.3431 -0.6469  0.3132
   91DPPC   C19 4519   3.064  -0.990   4.089 -0.0791  0.0864 -0.1855
   91DPPC   C20 4520   2.986  -0.954   3.963 -0.4147 -0.7165 -0.2113
   91DPPC   C21 4521   2.834  -0.961   3.978 -0.3723 -0.1200  0.5143
   91DPPC   C22 4522   2.757  -0.879   3.873 -0.1409 -0.3916  0.1327
   91DPPC   C23 4523   2.608  -0.888   3.905 -0.2359 -0.1072 -0.2370
   91DPPC   C24 4524   2.542  -0.789   3.808  0.2012  0.3862 -0.0304
   91DPPC   C25 4525   2.580  -0.810   3.661 -0.6289 -0.3510 -0.1476
   91DPPC   C26 4526   2.503  -0.706   3.580  0.1057  0.2163 -0.1322
   91DPPC   C27 4527   2.528  -0.725   3.430 -0.0311  0.0623 -0.1348
   91DPPC   C28 4528   2.459  -0.601   3.374 -0.0546  0.0414 -0.1525
   91DPPC   C29 4529   2.444  -0.580   3.223 -0.3348 -0.7214 -0.2305
   91DPPC   C30 4530   2.370  -0.696   3.155 -0.1212 -0.7763 -0.3680
   91DPPC   C31 4531   2.337  -0.654   3.012 -0.1806 -0.2759 -0.2081
   91DPPC   C32 4532   3.224  -0.397   4.314  0.5370  0.0545  0.4354
   91DPPC   O33 4533   3.143  -0.290   4.264  0.3871 -0.1755  0.1821
   91DPPC   C34 4534   3.205  -0.181   4.212  0.7388 -0.1364  0.6818
   91DPPC   O35 4535   3.327  -0.162   4.210  0.7251 -0.0758  0.3963
   91DPPC   C36 4536   3.111  -0.078   4.152  0.7533 -0.7222 -0.3629
   91DPPC   C37 4537   3.051  -0.116   4.016 -1.1081 -0.1767  0.2691
   91DPPC   C38 4538   2.936  -0.028   3.966 -0.4603  0.4653 -0.1085
   91DPPC   C39 4539   2.926  -0.039   3.814  0.4825 -0.6911 -0.0954
   91DPPC   C40 4540   3.043   0.031   3.744 -0.3276 -0.0335 -0.8136
   91DPPC   C41 4541   3.057   0.001   3.595 -0.0207  0.3497 -0.8618
   91DPPC   C42 4542   3.173   0.086   3.542  0.6492  0.2188  0.3648
   91DPPC   C43 4543   3.222   0.037   3.406  0.1780 -0.0881  0.3049
   91DPPC   C44 4544   3.322   0.132   3.339 -0.3796 -0.0913 -0.5542
   91DPPC   C45 4545   3.451   0.132   3.421 -0.3324  0.3297 -0.6264
   91DPPC   C46 4546   3.564   0.230   3.384  0.0549  0.1474  0.0640
   91DPPC   C47 4547   3.588   0.207   3.235 -0.3517  0.3349 -0.0326
   91DPPC   C48 4548   3.656   0.072   3.208 -0.5783  0.2374 -0.1162
   91DPPC   C49 4549   3.652   0.046   3.057  0.2311  0.2145 -0.1356
   91DPPC   C50 4550   3.508   0.037   3.008 -0.1582  0.9610  0.8236
   92DPPC    C1 4551   2.920   0.319   4.604 -0.3372 -0.0523 -0.3916
   92DPPC    C2 4552   3.152   0.315   4.645  0.1930  0.9528  0.5670
   92DPPC    C3 4553   3.032   0.514   4.682  0.5079  0.0530 -0.4168
   92DPPC    N4 4554   3.043   0.398   4.592 -0.2634 -0.1454 -0.2602
   92DPPC    C5 4555   3.070   0.448   4.456 -0.2002  0.3320 -0.0722
   92DPPC    C6 4556   3.188   0.539   4.423  0.0499 -0.1986 -0.6545
   92DPPC    O7 4557   3.306   0.458   4.414  0.1590 -0.0846 -0.2629
   92DPPC    P8 4558   3.435   0.555   4.414 -0.0487  0.1965 -0.0104
   92DPPC    O9 4559   3.419   0.665   4.512 -0.2037 -0.2464  0.4646
   92DPPC   O10 4560   3.563   0.481   4.411 -0.2885 -0.2156 -0.1815
   92DPPC   O11 4561   3.406   0.604   4.263 -0.5493  0.2030  0.0834
   92DPPC   C12 4562   3.479   0.514   4.178 -0.8609 -0.0766  0.1080
   92DPPC   C13 4563   3.398   0.499   4.049 -1.1238 -0.0694  0.2725
   92DPPC   O14 4564   3.436   0.392   3.961 -0.2724  0.4354  0.0194
   92DPPC   C15 4565   3.388   0.269   3.993 -0.0093  0.2699 -0.2185
   92DPPC   O16 4566   3.351   0.236   4.105  0.8892  0.4532  0.1388
   92DPPC   C17 4567   3.405   0.161   3.886 -0.0191 -0.0981  0.1515
   92DPPC   C18 4568   3.533   0.080   3.908  0.1284  0.0838 -0.0317
   92DPPC   C19 4569   3.656   0.143   3.842  0.1277 -0.0047 -0.1190
   92DPPC   C20 4570   3.764   0.036   3.857 -0.0492 -0.1588  0.0707
   92DPPC   C21 4571   3.877   0.084   3.766 -0.4701  0.6476 -0.0377
   92DPPC   C22 4572   3.818   0.106   3.627 -0.3296  0.2683 -0.1579
   92DPPC   C23 4573   3.914   0.158   3.520 -0.4835 -0.4042 -0.6301
   92DPPC   C24 4574   4.010   0.054   3.462  0.3948  0.2949 -0.4479
   92DPPC   C25 4575   4.051   0.122   3.331  0.3495  0.7996 -0.2006
   92DPPC   C26 4576   4.121   0.013   3.250  0.2822  0.5900  0.0192
   92DPPC   C27 4577   4.133   0.066   3.107 -0.0988  0.0142 -0.2288
   92DPPC   C28 4578   4.176  -0.052   3.019  0.0015  0.0146 -0.1807
   92DPPC   C29 4579   4.303  -0.116   3.075 -0.1975 -0.4010 -0.2007
   92DPPC   C30 4580   4.346  -0.244   3.003  0.4987 -0.1220 -0.2836
   92DPPC   C31 4581   4.493  -0.271   3.037  0.5076 -0.0259 -0.2449
   92DPPC   C32 4582   3.405   0.638   3.985 -0.0516 -0.2592 -0.0476
   92DPPC   O33 4583   3.533   0.682   3.941 -0.1465  0.3356  0.2486
   92DPPC   C34 4584   3.517   0.807   3.890  0.0008 -0.0752 -0.8423
   92DPPC   O35 4585   3.409   0.864   3.902  0.0278 -0.2382  0.2940
   92DPPC   C36 4586   3.640   0.860   3.817  0.4298 -0.6748 -0.5684
   92DPPC   C37 4587   3.600   0.969   3.717 -0.0762  0.1060  0.4654
   92DPPC   C38 4588   3.728   1.036   3.667 -0.0362 -0.4097 -0.1328
   92DPPC   C39 4589   3.743   1.043   3.514 -0.0289 -0.1100 -0.1186
   92DPPC   C40 4590   3.630   1.123   3.449  0.1854  0.3603  0.0844
   92DPPC   C41 4591   3.653   1.153   3.301 -0.2133  0.3706  0.0240
   92DPPC   C42 4592   3.523   1.191   3.230 -0.3522  0.0410  0.0970
   92DPPC   C43 4593   3.491   1.341   3.238 -0.2261  0.0743 -0.0280
   92DPPC   C44 4594   3.352   1.360   3.177 -0.1972  0.0485 -0.1026
   92DPPC   C45 4595   3.329   1.499   3.116  0.1847  0.0810 -0.1750
   92DPPC   C46 4596   3.200   1.512   3.035 -0.1983 -0.0213  0.4131
   92DPPC   C47 4597   3.164   1.659   3.011  0.0566 -0.0196  0.0186
   92DPPC   C48 4598   3.274   1.727   2.930 -0.6549  0.2798 -0.7075
   92DPPC   C49 4599   3.224   1.867   2.895  0.1989  0.7328 -0.1295
   92DPPC   C50 4600   3.322   1.944   2.805  0.0510  0.1259 -0.8133
   93DPPC    C1 4601   2.913   3.947   5.684 -0.8077  0.5180 -0.0357
   93DPPC    C2 4602   3.116   4.007   5.797  0.2165 -0.0484 -0.1679
   93DPPC    C3 4603   3.122   3.935   5.576  0.0695  0.0167  0.1733
   93DPPC    N4 4604   3.042   4.015   5.669 -0.3347 -0.3292  0.1291
   93DPPC    C5 4605   3.011   4.156   5.643  0.4384 -0.1544  0.1439
   93DPPC    C6 4606   2.949   4.176   5.505  0.4711  0.4190  0.2095
   93DPPC    O7 4607   2.917   4.310   5.466  0.0929  0.2809  0.0448
   93DPPC    P8 4608   2.756   4.322   5.474  0.0601  0.0228 -0.2020
   93DPPC    O9 4609   2.713   4.231   5.582  0.1739  0.0903 -0.0996
   93DPPC   O10 4610   2.733   4.468   5.490  0.2150 -0.0221  0.4662
   93DPPC   O11 4611   2.720   4.265   5.328 -0.0631 -0.0396 -0.1469
   93DPPC   C12 4612   2.740   4.377   5.242  0.5512  0.1377  0.2215
   93DPPC   C13 4613   2.716   4.336   5.097  0.7241  0.2550  0.1588
   93DPPC   O14 4614   2.584   4.290   5.061  0.5063  0.5411  0.5814
   93DPPC   C15 4615   2.476   4.369   5.086 -0.0010  0.1915 -0.4468
   93DPPC   O16 4616   2.492   4.478   5.140 -0.3721  0.0223  0.0123
   93DPPC   C17 4617   2.343   4.326   5.025 -0.1731 -0.0941  0.1241
   93DPPC   C18 4618   2.350   4.366   4.878 -0.0698 -0.2866  0.0759
   93DPPC   C19 4619   2.207   4.333   4.833 -0.2890  0.2361  0.3809
   93DPPC   C20 4620   2.164   4.374   4.692  0.3103 -0.0016  0.1251
   93DPPC   C21 4621   2.022   4.333   4.653  0.4860 -0.3615 -0.1459
   93DPPC   C22 4622   1.966   4.378   4.518  0.3772 -0.0681 -0.0027
   93DPPC   C23 4623   1.813   4.382   4.531  0.3678  0.1870 -0.1790
   93DPPC   C24 4624   1.748   4.419   4.398  0.3338  0.5273 -0.0682
   93DPPC   C25 4625   1.597   4.395   4.382  0.2795  0.7803  0.0489
   93DPPC   C26 4626   1.537   4.474   4.266 -0.0450  0.1039 -0.2472
   93DPPC   C27 4627   1.402   4.415   4.223 -0.4546  0.9317 -0.1205
   93DPPC   C28 4628   1.423   4.340   4.092  0.0298  0.8831 -0.0189
   93DPPC   C29 4629   1.448   4.426   3.967  0.0497  0.2750 -0.4403
   93DPPC   C30 4630   1.343   4.537   3.959 -0.1388  0.0645 -0.9461
   93DPPC   C31 4631   1.344   4.611   3.825  0.3144  0.7511 -0.5735
   93DPPC   C32 4632   2.828   4.236   5.067 -0.0163 -0.5364 -0.0268
   93DPPC   O33 4633   2.950   4.302   5.032 -0.2123 -0.2674 -0.2113
   93DPPC   C34 4634   3.055   4.215   5.029 -0.1103 -0.1524 -0.0056
   93DPPC   O35 4635   3.035   4.098   5.062 -0.3199 -0.1363 -0.0735
   93DPPC   C36 4636   3.182   4.274   4.968 -0.2817  0.7889  0.5203
   93DPPC   C37 4637   3.187   4.296   4.816  0.0566  0.1466  0.4327
   93DPPC   C38 4638   3.320   4.358   4.775  0.0641  0.1136  0.4075
   93DPPC   C39 4639   3.315   4.393   4.626  0.3458 -0.1994  0.3215
   93DPPC   C40 4640   3.253   4.272   4.556  0.2908 -0.2061  0.3815
   93DPPC   C41 4641   3.263   4.267   4.404  0.1456 -0.2022  0.3715
   93DPPC   C42 4642   3.194   4.151   4.331  0.0010  0.2998 -0.3040
   93DPPC   C43 4643   3.256   4.127   4.193  0.0291 -0.1244 -0.2196
   93DPPC   C44 4644   3.407   4.107   4.202  0.0145 -0.2678 -0.3045
   93DPPC   C45 4645   3.458   4.104   4.058  0.0106 -0.5354 -0.3013
   93DPPC   C46 4646   3.603   4.054   4.066 -0.1670 -0.9748  0.2381
   93DPPC   C47 4647   3.664   4.063   3.926  0.4828  0.7838  0.6110
   93DPPC   C48 4648   3.653   4.204   3.867  0.0695  0.5996  0.2544
   93DPPC   C49 4649   3.735   4.212   3.737 -0.0577  0.0704  0.1390
   93DPPC   C50 4650   3.708   4.356   3.695  0.1724  0.0797  0.0264
   94DPPC    C1 4651   2.679   5.750   4.488  0.0181  0.1027 -0.3449
   94DPPC    C2 4652   2.704   5.523   4.432 -0.1529  0.2372 -0.1648
   94DPPC    C3 4653   2.578   5.651   4.290 -0.1613  0.1813  0.3481
   94DPPC    N4 4654   2.607   5.634   4.434 -0.4018  0.0146  0.3770
   94DPPC    C5 4655   2.492   5.586   4.511 -0.5931  0.2296  0.2294
   94DPPC    C6 4656   2.377   5.686   4.522 -0.2083  0.7556 -0.4731
   94DPPC    O7 4657   2.254   5.637   4.576  0.0949  0.1372 -0.3331
   94DPPC    P8 4658   2.158   5.765   4.598 -0.2538 -0.1930  0.0922
   94DPPC    O9 4659   2.033   5.725   4.665 -0.3620 -0.8525 -0.4845
   94DPPC   O10 4660   2.248   5.865   4.658 -0.4369  0.0116  0.0233
   94DPPC   O11 4661   2.116   5.802   4.447 -0.4750  0.3126  0.2766
   94DPPC   C12 4662   2.014   5.711   4.404 -0.5656  0.6176 -0.1561
   94DPPC   C13 4663   1.984   5.725   4.255 -0.4442  0.4133 -0.1982
   94DPPC   O14 4664   2.071   5.641   4.177  0.0894  0.0716  0.7404
   94DPPC   C15 4665   2.054   5.506   4.181 -0.1338  0.0583 -0.3198
   94DPPC   O16 4666   1.963   5.462   4.250 -0.2992  0.4116 -0.3089
   94DPPC   C17 4667   2.140   5.414   4.094  0.1973 -0.2630  0.3390
   94DPPC   C18 4668   2.060   5.351   3.979  0.3446 -0.0172  0.1027
   94DPPC   C19 4669   2.153   5.267   3.892  0.3811  0.1894 -0.0589
   94DPPC   C20 4670   2.191   5.349   3.768  0.0934 -0.0238 -0.2903
   94DPPC   C21 4671   2.288   5.262   3.688 -0.3431 -1.1004  0.3300
   94DPPC   C22 4672   2.347   5.323   3.560 -0.0023 -0.7552  0.6488
   94DPPC   C23 4673   2.388   5.204   3.474 -0.0965 -0.0730 -0.3523
   94DPPC   C24 4674   2.271   5.122   3.420  0.3122 -0.5176 -0.5740
   94DPPC   C25 4675   2.299   5.028   3.302  0.0979 -0.6722 -0.5048
   94DPPC   C26 4676   2.165   4.970   3.258 -0.3836  0.5197 -0.6451
   94DPPC   C27 4677   2.192   4.888   3.131 -0.0437  0.1521 -0.3374
   94DPPC   C28 4678   2.059   4.817   3.104 -0.2513  0.3462  0.1488
   94DPPC   C29 4679   2.095   4.708   3.003 -0.0435  0.6505 -0.1091
   94DPPC   C30 4680   1.974   4.625   2.960  0.2061 -0.1226  0.6530
   94DPPC   C31 4681   2.032   4.508   2.879 -0.4125 -0.0223  0.0572
   94DPPC   C32 4682   1.987   5.873   4.216 -0.0711  0.5417  0.3090
   94DPPC   O33 4683   1.902   5.908   4.107 -0.0872 -0.2470  0.0601
   94DPPC   C34 4684   1.887   6.040   4.078  0.3971 -0.2298 -0.1206
   94DPPC   O35 4685   1.978   6.122   4.085  0.1911  0.0121 -0.2547
   94DPPC   C36 4686   1.770   6.075   3.986 -0.2758 -0.7743  0.5147
   94DPPC   C37 4687   1.681   6.174   4.062 -0.0840 -0.1264 -0.0935
   94DPPC   C38 4688   1.589   6.238   3.958 -0.4190 -0.1992  0.1562
   94DPPC   C39 4689   1.479   6.149   3.901 -0.3522 -0.0471 -0.2121
   94DPPC   C40 4690   1.410   6.222   3.786 -0.0398  0.0740 -0.3235
   94DPPC   C41 4691   1.324   6.130   3.698 -0.2502 -0.0677  0.0298
   94DPPC   C42 4692   1.258   6.215   3.588 -0.4082 -0.1417  0.0676
   94DPPC   C43 4693   1.109   6.233   3.617 -0.2138  1.1470  0.3105
   94DPPC   C44 4694   1.049   6.322   3.508 -0.5659  0.1253 -0.3434
   94DPPC   C45 4695   0.901   6.320   3.549 -0.4137 -0.1958  0.1822
   94DPPC   C46 4696   0.808   6.381   3.445 -0.0644  0.1986  0.0992
   94DPPC   C47 4697   0.665   6.374   3.500  0.0543  0.5190  0.4578
   94DPPC   C48 4698   0.565   6.435   3.403  0.2517  0.3228  0.1283
   94DPPC   C49 4699   0.432   6.411   3.474  0.0356 -0.1907 -0.4418
   94DPPC   C50 4700   0.429   6.259   3.496  0.2198 -0.1759 -0.3164
   95DPPC    C1 4701   2.329   6.125   4.515 -0.2690  0.3955  0.4303
   95DPPC    C2 4702   2.417   6.329   4.603 -0.2381  0.1061  0.4395
   95DPPC    C3 4703   2.235   6.223   4.710  0.0002 -0.8944  0.5568
   95DPPC    N4 4704   2.361   6.198   4.639  0.1870 -0.0404  0.5742
   95DPPC    C5 4705   2.437   6.122   4.739  0.1270 -0.1391  0.5447
   95DPPC    C6 4706   2.571   6.055   4.706  0.1120  0.3032 -0.4389
   95DPPC    O7 4707   2.676   6.152   4.692  0.0080  0.4583 -0.1454
   95DPPC    P8 4708   2.802   6.086   4.618 -0.1577  0.2408 -0.2353
   95DPPC    O9 4709   2.897   6.199   4.629  0.0780  0.1025 -0.7996
   95DPPC   O10 4710   2.830   5.949   4.668 -0.2187  0.3712  0.1552
   95DPPC   O11 4711   2.723   6.091   4.477  0.5804 -0.1997 -0.6732
   95DPPC   C12 4712   2.771   6.202   4.401 -0.2937  1.1139  0.6328
   95DPPC   C13 4713   2.705   6.209   4.263  0.3776 -0.0860  0.2401
   95DPPC   O14 4714   2.574   6.265   4.250  0.6228  0.4252 -0.0534
   95DPPC   C15 4715   2.549   6.399   4.250 -0.2743  0.2662  0.3805
   95DPPC   O16 4716   2.640   6.467   4.298  0.5756 -0.5127 -0.0902
   95DPPC   C17 4717   2.437   6.459   4.165  0.0735 -0.1133 -0.3592
   95DPPC   C18 4718   2.482   6.565   4.065  0.0341 -0.0067 -0.2653
   95DPPC   C19 4719   2.562   6.496   3.954  0.1661  0.8646 -0.7193
   95DPPC   C20 4720   2.478   6.393   3.877  0.0676  0.4856 -0.1104
   95DPPC   C21 4721   2.566   6.271   3.851 -0.4412 -0.0047  0.4378
   95DPPC   C22 4722   2.483   6.166   3.779 -0.2320  0.1236  0.0065
   95DPPC   C23 4723   2.387   6.095   3.875 -0.1210  0.3204  0.2634
   95DPPC   C24 4724   2.307   5.988   3.800 -0.2481  0.3842  0.3071
   95DPPC   C25 4725   2.184   5.944   3.880 -0.8134  0.3100 -0.5925
   95DPPC   C26 4726   2.134   5.809   3.828  0.2166 -0.2445 -0.1616
   95DPPC   C27 4727   2.123   5.817   3.676  0.4302 -0.0735 -0.1685
   95DPPC   C28 4728   2.072   5.690   3.609  0.2990 -0.2979  0.3512
   95DPPC   C29 4729   2.057   5.706   3.457 -0.0849  0.5594  0.4735
   95DPPC   C30 4730   2.009   5.586   3.375 -0.4075  0.8639  0.2170
   95DPPC   C31 4731   1.979   5.628   3.231 -0.0153 -0.2104 -0.1884
   95DPPC   C32 4732   2.714   6.067   4.205 -0.4847  0.1617 -0.5199
   95DPPC   O33 4733   2.836   6.028   4.142 -0.6884  0.5505 -1.1662
   95DPPC   C34 4734   2.841   5.902   4.092  0.2199 -0.1138  0.5072
   95DPPC   O35 4735   2.733   5.844   4.080  0.1109  0.0553  0.6611
   95DPPC   C36 4736   2.962   5.843   4.019 -0.2382 -0.3043 -0.0999
   95DPPC   C37 4737   2.988   5.912   3.885 -0.4708  0.0974  0.0579
   95DPPC   C38 4738   2.867   5.923   3.792 -0.3487  0.7566 -0.0217
   95DPPC   C39 4739   2.921   6.001   3.672  0.1582  0.6803  0.1554
   95DPPC   C40 4740   2.815   6.035   3.567  0.0079  0.2088  0.1551
   95DPPC   C41 4741   2.879   6.096   3.442  0.0821 -0.1371  0.0213
   95DPPC   C42 4742   2.773   6.154   3.349 -0.1680 -1.3009 -0.4297
   95DPPC   C43 4743   2.837   6.194   3.216  0.2965  0.0843  0.1910
   95DPPC   C44 4744   2.734   6.240   3.112  0.4983  0.6962  0.2598
   95DPPC   C45 4745   2.717   6.123   3.015  0.1110  0.4342  0.6398
   95DPPC   C46 4746   2.598   6.112   2.919  0.7393  0.1008 -0.1096
   95DPPC   C47 4747   2.636   5.994   2.829  0.2555 -0.3375  0.2509
   95DPPC   C48 4748   2.529   5.983   2.721  0.7269 -0.1960 -0.2354
   95DPPC   C49 4749   2.555   5.847   2.657  0.1730 -0.4971  0.1711
   95DPPC   C50 4750   2.707   5.843   2.637  0.2599 -0.4838  0.8092
   96DPPC    C1 4751   2.152   0.850   4.318 -0.0934  0.1174  0.3738
   96DPPC    C2 4752   2.163   0.782   4.542  0.1617  0.1747  0.4150
   96DPPC    C3 4753   2.212   1.014   4.471  0.1458 -0.1820  0.1884
   96DPPC    N4 4754   2.227   0.870   4.443  0.2897 -0.1673  0.1904
   96DPPC    C5 4755   2.373   0.857   4.427  0.3415  0.0153  0.5067
   96DPPC    C6 4756   2.425   0.717   4.394  0.1593  0.1324 -0.3086
   96DPPC    O7 4757   2.563   0.711   4.433  0.2200 -0.1306 -0.5584
   96DPPC    P8 4758   2.603   0.558   4.402  0.0931 -0.3061  0.1244
   96DPPC    O9 4759   2.748   0.561   4.428  0.0414 -0.3529  0.4222
   96DPPC   O10 4760   2.514   0.456   4.462 -0.4087  0.0448 -0.0084
   96DPPC   O11 4761   2.588   0.565   4.242 -0.3474  0.4031  0.1901
   96DPPC   C12 4762   2.695   0.499   4.174 -0.2109  0.4564  0.3535
   96DPPC   C13 4763   2.727   0.553   4.034  0.3387 -0.4017  0.1360
   96DPPC   O14 4764   2.822   0.488   3.950  0.0249  0.0162 -0.5480
   96DPPC   C15 4765   2.953   0.457   3.971  0.1085  0.8083  0.1526
   96DPPC   O16 4766   3.014   0.474   4.076 -0.6039 -0.2150  0.7524
   96DPPC   C17 4767   3.026   0.383   3.858  0.0432  0.0981  0.5692
   96DPPC   C18 4768   3.132   0.481   3.805 -0.1180 -0.0972 -0.1110
   96DPPC   C19 4769   3.184   0.430   3.670  0.2124  0.1943 -0.0930
   96DPPC   C20 4770   3.324   0.479   3.633  0.2763 -0.0077 -0.1185
   96DPPC   C21 4771   3.319   0.624   3.586  0.1074  0.0276  0.0102
   96DPPC   C22 4772   3.238   0.632   3.457 -0.1940 -0.6100  0.1574
   96DPPC   C23 4773   3.299   0.537   3.353 -0.2913 -0.7866  0.2604
   96DPPC   C24 4774   3.222   0.564   3.223  0.0386  0.1304  0.2439
   96DPPC   C25 4775   3.250   0.466   3.108 -0.1240  0.3781 -0.0078
   96DPPC   C26 4776   3.385   0.502   3.047 -0.0590 -0.0371 -0.1116
   96DPPC   C27 4777   3.412   0.415   2.924  0.3356  0.0453 -0.0858
   96DPPC   C28 4778   3.341   0.466   2.798 -0.0696  0.2791  0.2329
   96DPPC   C29 4779   3.359   0.356   2.692 -0.5184  0.8297 -0.4225
   96DPPC   C30 4780   3.240   0.365   2.596 -0.4787  0.1611 -0.5392
   96DPPC   C31 4781   3.271   0.262   2.487  0.2853 -0.3502  0.1448
   96DPPC   C32 4782   2.746   0.704   4.053 -0.3419 -0.3126  0.1639
   96DPPC   O33 4783   2.633   0.789   4.033 -0.4379 -0.4254  0.2248
   96DPPC   C34 4784   2.650   0.921   4.060  0.3245 -0.3515 -0.5548
   96DPPC   O35 4785   2.752   0.972   4.105 -0.1180 -0.0163  0.1026
   96DPPC   C36 4786   2.531   1.002   4.008  0.4870  0.3437  0.1314
   96DPPC   C37 4787   2.505   0.978   3.859 -0.4823  0.7183  0.2287
   96DPPC   C38 4788   2.598   1.074   3.784 -0.0135 -0.2106 -0.4069
   96DPPC   C39 4789   2.561   1.068   3.635  0.0391  0.6995 -0.4620
   96DPPC   C40 4790   2.615   1.200   3.580  0.2898  0.5851 -0.4887
   96DPPC   C41 4791   2.575   1.303   3.686 -0.5307 -0.2392  0.0174
   96DPPC   C42 4792   2.605   1.444   3.634  0.5647 -0.2289  0.6533
   96DPPC   C43 4793   2.534   1.543   3.727 -0.4370 -0.7432  0.4496
   96DPPC   C44 4794   2.386   1.506   3.721 -0.4296 -0.6915 -0.0510
   96DPPC   C45 4795   2.288   1.598   3.794 -0.2152 -0.2648 -0.2949
   96DPPC   C46 4796   2.142   1.554   3.773 -0.0589 -1.0617  0.2559
   96DPPC   C47 4797   2.017   1.628   3.821  0.0091 -0.7514 -0.0421
   96DPPC   C48 4798   1.899   1.550   3.765 -0.2073 -0.8365  0.5228
   96DPPC   C49 4799   1.777   1.637   3.800  0.0631 -0.1603 -0.1752
   96DPPC   C50 4800   1.662   1.573   3.722 -0.0938 -0.2431  0.1214
   97DPPC    C1 4801   1.193   2.319   5.041 -0.4654 -0.4722  0.2241
   97DPPC    C2 4802   0.975   2.352   5.069  0.2495  0.2699  0.0582
   97DPPC    C3 4803   1.080   2.148   5.164 -0.2749 -0.8184  0.0616
   97DPPC    N4 4804   1.069   2.241   5.050 -0.4845 -0.4226  0.3991
   97DPPC    C5 4805   1.032   2.174   4.924 -0.2770  0.2719 -0.0322
   97DPPC    C6 4806   1.117   2.054   4.883 -0.0925  0.4481 -0.1713
   97DPPC    O7 4807   1.255   2.064   4.847 -0.1210  0.0534 -0.3896
   97DPPC    P8 4808   1.313   1.915   4.827  0.3239  0.1722 -0.0164
   97DPPC    O9 4809   1.460   1.917   4.809  0.2798 -0.5712 -0.5089
   97DPPC   O10 4810   1.243   1.868   4.949  0.0592 -0.0061 -0.2324
   97DPPC   O11 4811   1.240   1.906   4.684 -0.3178  0.4856  0.2894
   97DPPC   C12 4812   1.314   1.973   4.581  0.0016 -0.0049  0.1973
   97DPPC   C13 4813   1.247   1.967   4.444 -0.1127  0.0467  0.2504
   97DPPC   O14 4814   1.335   2.023   4.345 -0.2495 -0.1185  0.0343
   97DPPC   C15 4815   1.441   1.951   4.299 -0.3603 -0.2523 -0.0096
   97DPPC   O16 4816   1.456   1.837   4.343  0.1191 -0.1009  0.2249
   97DPPC   C17 4817   1.527   2.020   4.194 -0.1818 -0.3912  0.0444
   97DPPC   C18 4818   1.472   2.007   4.052 -0.5123 -0.4152  0.1728
   97DPPC   C19 4819   1.554   2.082   3.946 -0.0390 -0.3965  0.5477
   97DPPC   C20 4820   1.493   2.079   3.806  0.2939 -0.0749  0.3964
   97DPPC   C21 4821   1.570   2.180   3.720 -0.0179  0.3675  0.6344
   97DPPC   C22 4822   1.555   2.314   3.792 -0.2793  0.2911  0.7212
   97DPPC   C23 4823   1.572   2.412   3.676  0.5054  0.0266  0.6076
   97DPPC   C24 4824   1.563   2.558   3.722  0.5015  0.3043 -0.2492
   97DPPC   C25 4825   1.431   2.602   3.785  0.1333  0.4412 -1.1170
   97DPPC   C26 4826   1.451   2.730   3.867 -0.0757 -0.3759  0.2399
   97DPPC   C27 4827   1.317   2.796   3.898  0.0126 -0.0271 -0.1025
   97DPPC   C28 4828   1.330   2.910   4.000  0.5717 -0.1014 -0.0879
   97DPPC   C29 4829   1.362   2.843   4.134 -0.0873  0.0733  0.1569
   97DPPC   C30 4830   1.395   2.940   4.248  0.5909 -0.3551  0.3285
   97DPPC   C31 4831   1.492   3.050   4.205  0.3430 -0.2188  0.1116
   97DPPC   C32 4832   1.105   2.023   4.453  0.0714  0.6116 -0.2472
   97DPPC   O33 4833   1.104   2.154   4.510  0.1327  0.2027  0.7060
   97DPPC   C34 4834   0.978   2.202   4.527  0.2428  0.6499  0.2679
   97DPPC   O35 4835   0.879   2.130   4.514  0.4662  0.4349 -0.2343
   97DPPC   C36 4836   0.964   2.348   4.571  0.1071  0.5811  0.4556
   97DPPC   C37 4837   0.903   2.438   4.464 -0.3513  0.3143  0.4944
   97DPPC   C38 4838   0.844   2.570   4.512 -0.3850  0.4442  0.1046
   97DPPC   C39 4839   0.783   2.645   4.393 -0.6425  0.0437 -0.0162
   97DPPC   C40 4840   0.889   2.663   4.284 -0.8257  0.3691 -0.1396
   97DPPC   C41 4841   0.830   2.666   4.143 -0.1522  0.4201 -0.4249
   97DPPC   C42 4842   0.953   2.666   4.052  0.5702 -0.3111  0.5286
   97DPPC   C43 4843   0.910   2.682   3.906  0.2427 -0.1642  0.6384
   97DPPC   C44 4844   0.810   2.573   3.868 -0.0267  0.2431  0.1636
   97DPPC   C45 4845   0.773   2.590   3.721  0.1753 -0.4616  0.0296
   97DPPC   C46 4846   0.708   2.726   3.695  0.0891 -0.5154 -0.0386
   97DPPC   C47 4847   0.687   2.758   3.547 -0.4149  0.3477  0.2132
   97DPPC   C48 4848   0.820   2.793   3.479 -0.2115 -1.2323 -0.2423
   97DPPC   C49 4849   0.790   2.824   3.332 -0.1827 -0.2343 -0.0412
   97DPPC   C50 4850   0.778   2.701   3.243  0.2030 -0.0356 -0.3681
   98DPPC    C1 4851   3.669   2.311   5.485 -0.1381 -0.1232 -0.5227
   98DPPC    C2 4852   3.917   2.334   5.437  0.2517 -0.0108  0.2155
   98DPPC    C3 4853   3.825   2.214   5.624  0.1644  0.1632 -0.4465
   98DPPC    N4 4854   3.804   2.252   5.484 -0.0639  0.0450 -0.4444
   98DPPC    C5 4855   3.784   2.127   5.411 -0.3905 -0.1318 -0.0577
   98DPPC    C6 4856   3.897   2.053   5.337 -0.4172  0.6601 -0.9120
   98DPPC    O7 4857   3.839   1.932   5.286  0.1716  0.1259 -0.3212
   98DPPC    P8 4858   3.946   1.850   5.198  0.0556 -0.2296 -0.1328
   98DPPC    O9 4859   4.074   1.849   5.271 -0.0492 -0.2323  0.0516
   98DPPC   O10 4860   3.885   1.731   5.133 -0.3950  0.0233 -0.1784
   98DPPC   O11 4861   3.967   1.966   5.089 -0.1746 -0.3201 -0.2766
   98DPPC   C12 4862   4.107   1.972   5.060 -0.1012 -0.4103  0.0507
   98DPPC   C13 4863   4.168   1.871   4.962 -0.1333 -0.3944  0.0146
   98DPPC   O14 4864   4.308   1.841   4.968 -0.0331 -0.0317 -0.4787
   98DPPC   C15 4865   4.354   1.719   4.930 -0.1996 -0.4210  0.5325
   98DPPC   O16 4866   4.286   1.628   4.884 -0.1667 -0.1562 -0.0528
   98DPPC   C17 4867   4.506   1.710   4.912 -0.2697  0.1151 -0.4325
   98DPPC   C18 4868   4.580   1.828   4.849 -0.0566  0.0206 -0.3594
   98DPPC   C19 4869   4.524   1.842   4.707 -0.5268  0.1586 -0.1610
   98DPPC   C20 4870   4.576   1.968   4.638 -0.2463  0.5802  0.7967
   98DPPC   C21 4871   4.500   1.963   4.505  0.6381  0.7051  0.2799
   98DPPC   C22 4872   4.529   2.076   4.405  0.7157  0.3912 -0.0520
   98DPPC   C23 4873   4.488   2.045   4.261  0.5637  0.1897  0.0336
   98DPPC   C24 4874   4.561   2.139   4.166  0.3002  0.2229 -0.1365
   98DPPC   C25 4875   4.530   2.128   4.016 -0.3963 -0.2048  0.0379
   98DPPC   C26 4876   4.566   2.232   3.910 -0.2710 -0.0867  0.1960
   98DPPC   C27 4877   4.543   2.168   3.773 -0.8050 -0.2365  0.3541
   98DPPC   C28 4878   4.549   2.273   3.662  0.1389 -0.3472  0.2907
   98DPPC   C29 4879   4.540   2.204   3.525 -0.3793 -0.0106  0.1529
   98DPPC   C30 4880   4.545   2.313   3.418  0.1809 -0.1185  0.0644
   98DPPC   C31 4881   4.494   2.278   3.278 -0.2177  0.2981  0.1025
   98DPPC   C32 4882   4.113   1.918   4.827 -0.6411  0.1888  0.4187
   98DPPC   O33 4883   4.147   2.054   4.802  0.3759 -0.0660  0.3810
   98DPPC   C34 4884   4.130   2.095   4.673  0.2874 -0.6595  0.2042
   98DPPC   O35 4885   4.071   2.022   4.593 -0.4251  0.5177 -0.3749
   98DPPC   C36 4886   4.198   2.227   4.637  0.0095 -0.5640  0.0286
   98DPPC   C37 4887   4.100   2.344   4.634  0.7615  0.0657 -0.3623
   98DPPC   C38 4888   4.155   2.462   4.553  1.1443  0.1142 -0.0334
   98DPPC   C39 4889   4.160   2.428   4.404 -0.4341  0.0304 -0.0898
   98DPPC   C40 4890   4.227   2.530   4.312  0.1185 -0.1553  0.1030
   98DPPC   C41 4891   4.241   2.475   4.170  0.0863 -0.2816  0.1481
   98DPPC   C42 4892   4.285   2.591   4.080 -0.2861 -0.0569  0.2555
   98DPPC   C43 4893   4.290   2.556   3.931 -0.2287 -0.0561  0.2573
   98DPPC   C44 4894   4.356   2.664   3.845 -0.0024 -0.3816  0.0218
   98DPPC   C45 4895   4.451   2.630   3.730  0.2049 -0.0277  0.0881
   98DPPC   C46 4896   4.498   2.752   3.651 -0.0398 -0.1872 -0.3082
   98DPPC   C47 4897   4.579   2.717   3.525  0.0782  1.0364 -0.5841
   98DPPC   C48 4898   4.695   2.633   3.577 -0.2980  0.6629 -0.3370
   98DPPC   C49 4899   4.783   2.604   3.455 -0.4664  0.3958 -0.3941
   98DPPC   C50 4900   4.854   2.736   3.426  0.0474  0.2311  0.1053
   99DPPC    C1 4901   1.652   3.726   5.430  0.7373  0.4269 -0.2586
   99DPPC    C2 4902   1.587   3.534   5.524  0.5753  0.4026  0.0177
   99DPPC    C3 4903   1.586   3.531   5.292  0.3659  0.1898 -0.0349
   99DPPC    N4 4904   1.662   3.582   5.407  0.3718  0.3799 -0.1220
   99DPPC    C5 4905   1.794   3.518   5.401  0.2375  0.0669  0.1959
   99DPPC    C6 4906   1.898   3.596   5.321  0.1377  0.5725  0.5544
   99DPPC    O7 4907   2.025   3.530   5.316 -0.0646  0.2271 -0.0962
   99DPPC    P8 4908   2.132   3.634   5.255 -0.0388  0.1324 -0.2138
   99DPPC    O9 4909   2.075   3.757   5.315  0.0399  0.2037 -0.2859
   99DPPC   O10 4910   2.267   3.580   5.283 -0.0991  0.1019  0.0206
   99DPPC   O11 4911   2.086   3.608   5.103 -0.8278  0.3622 -0.0188
   99DPPC   C12 4912   2.173   3.516   5.038 -0.3870  0.8716 -0.1545
   99DPPC   C13 4913   2.166   3.513   4.885  0.8547 -0.0960 -0.2092
   99DPPC   O14 4914   2.262   3.602   4.825  0.3493  0.6510  0.0774
   99DPPC   C15 4915   2.371   3.541   4.771 -0.2966 -0.0838 -0.4224
   99DPPC   O16 4916   2.387   3.422   4.797 -0.3703 -0.1380 -0.6213
   99DPPC   C17 4917   2.468   3.628   4.692 -0.1912  0.0219 -0.1778
   99DPPC   C18 4918   2.406   3.758   4.639 -0.0784 -0.0260 -0.4280
   99DPPC   C19 4919   2.333   3.721   4.509  0.0637 -0.2730 -0.4393
   99DPPC   C20 4920   2.229   3.817   4.451  0.2713  0.1694 -0.0930
   99DPPC   C21 4921   2.301   3.946   4.411  0.2315  0.2078 -0.0401
   99DPPC   C22 4922   2.210   4.023   4.315  0.4744  0.0197 -0.4225
   99DPPC   C23 4923   2.148   3.934   4.206  0.2420  0.2057 -0.4450
   99DPPC   C24 4924   2.042   4.014   4.131  0.2564  0.1209 -0.5556
   99DPPC   C25 4925   2.104   4.123   4.045  0.0574  0.3947 -0.3555
   99DPPC   C26 4926   2.011   4.191   3.944 -0.1178  0.0118 -0.4549
   99DPPC   C27 4927   1.918   4.273   4.034  0.1492 -0.1723 -0.0024
   99DPPC   C28 4928   1.857   4.364   3.926  0.2031 -0.0974  0.0299
   99DPPC   C29 4929   1.789   4.300   3.805 -0.2060  0.3922  0.0012
   99DPPC   C30 4930   1.733   4.406   3.710 -0.7604  0.5047  0.4464
   99DPPC   C31 4931   1.657   4.339   3.595  0.2455  0.3526 -0.1447
   99DPPC   C32 4932   2.019   3.540   4.853  0.8393 -0.6773 -0.6411
   99DPPC   O33 4933   1.983   3.483   4.727 -0.3635 -0.5316 -0.3762
   99DPPC   C34 4934   1.869   3.533   4.672  0.0667  0.7589 -0.1180
   99DPPC   O35 4935   1.803   3.613   4.738  0.1891  0.6305  0.1650
   99DPPC   C36 4936   1.818   3.484   4.537  0.1472  0.3185  0.0103
   99DPPC   C37 4937   1.935   3.417   4.465 -0.1334 -0.3504  0.1731
   99DPPC   C38 4938   1.889   3.409   4.319 -0.4378  0.1979  0.2382
   99DPPC   C39 4939   1.891   3.549   4.257 -0.2069  0.0883 -0.0057
   99DPPC   C40 4940   1.832   3.560   4.116  0.3816  0.1268 -0.2506
   99DPPC   C41 4941   1.916   3.484   4.013  0.1329 -0.1664 -0.2373
   99DPPC   C42 4942   1.840   3.506   3.882  0.2172 -0.0571 -0.2675
   99DPPC   C43 4943   1.879   3.401   3.777  0.0921 -0.5632  0.1866
   99DPPC   C44 4944   2.015   3.445   3.722 -0.0370  0.3868  0.6005
   99DPPC   C45 4945   2.066   3.352   3.612  0.3324  0.9070  0.3282
   99DPPC   C46 4946   2.205   3.377   3.553  0.1137  0.3206 -0.4639
   99DPPC   C47 4947   2.213   3.343   3.404 -0.2929  0.4605 -0.5193
   99DPPC   C48 4948   2.363   3.360   3.379 -0.0583 -0.2744  0.3045
   99DPPC   C49 4949   2.384   3.378   3.228  0.2082  0.2271  0.4003
   99DPPC   C50 4950   2.530   3.415   3.202  0.0356  0.2681 -0.5467
  100DPPC    C1 4951   5.095   4.749   5.292  0.1864 -0.2449 -0.4191
  100DPPC    C2 4952   5.232   4.560   5.239  0.2846  0.3032 -0.0667
  100DPPC    C3 4953   5.325   4.760   5.343 -0.2895  0.0768  0.7068
  100DPPC    N4 4954   5.210   4.669   5.336 -0.0708 -0.1752  0.3979
  100DPPC    C5 4955   5.193   4.607   5.468 -0.3977  0.4666  0.6584
  100DPPC    C6 4956   5.090   4.497   5.492  0.1513 -0.2321 -0.1383
  100DPPC    O7 4957   4.956   4.537   5.464 -0.0605 -0.4216  0.5949
  100DPPC    P8 4958   4.839   4.439   5.516 -0.4752 -0.2357  0.0152
  100DPPC    O9 4959   4.895   4.385   5.641 -0.7443  0.0743  0.2722
  100DPPC   O10 4960   4.703   4.496   5.503 -0.7072 -0.7740  0.0227
  100DPPC   O11 4961   4.865   4.331   5.399  0.3809  0.0931 -0.1012
  100DPPC   C12 4962   4.802   4.375   5.278  0.4253  0.1337 -0.1092
  100DPPC   C13 4963   4.806   4.270   5.167 -0.2702  0.0442 -0.0525
  100DPPC   O14 4964   4.756   4.317   5.041 -0.0343  0.5068  0.0235
  100DPPC   C15 4965   4.632   4.318   4.984 -0.1283  0.1969  0.2190
  100DPPC   O16 4966   4.529   4.297   5.048  0.0123 -0.0393  0.3680
  100DPPC   C17 4967   4.625   4.322   4.831  0.2890  0.2710  0.1995
  100DPPC   C18 4968   4.600   4.461   4.773  0.5654  0.1170 -0.2875
  100DPPC   C19 4969   4.579   4.449   4.622 -0.1712 -0.1316 -0.1693
  100DPPC   C20 4970   4.607   4.581   4.550  0.0867 -0.4700 -0.7014
  100DPPC   C21 4971   4.562   4.581   4.404 -1.0196  0.2951 -0.3767
  100DPPC   C22 4972   4.580   4.719   4.340  0.1591  0.0930 -0.5149
  100DPPC   C23 4973   4.520   4.706   4.199 -0.3982 -0.0441 -0.2685
  100DPPC   C24 4974   4.540   4.840   4.127  0.0681 -0.0776 -0.2069
  100DPPC   C25 4975   4.439   4.861   4.014 -0.1413 -0.0082 -0.0086
  100DPPC   C26 4976   4.468   4.991   3.938 -0.0066  0.1887  0.3737
  100DPPC   C27 4977   4.344   5.024   3.855  0.0689 -0.2108  0.0970
  100DPPC   C28 4978   4.369   5.131   3.749 -0.3206 -0.2630 -0.0510
  100DPPC   C29 4979   4.502   5.119   3.673 -0.2749  0.1548 -0.0391
  100DPPC   C30 4980   4.532   5.246   3.593  0.2609 -0.1679 -0.3599
  100DPPC   C31 4981   4.670   5.247   3.528  0.6547  0.0035  0.4648
  100DPPC   C32 4982   4.737   4.152   5.235  0.5420 -0.0840  0.5663
  100DPPC   O33 4983   4.777   4.025   5.182  0.8990  0.2400  0.0560
  100DPPC   C34 4984   4.728   3.915   5.246  0.1586  0.3608 -0.3000
  100DPPC   O35 4985   4.671   3.934   5.353  0.1098 -0.2357 -0.2168
  100DPPC   C36 4986   4.756   3.774   5.194  0.0270  0.2904 -0.1799
  100DPPC   C37 4987   4.907   3.751   5.202 -0.0696 -0.2775  0.0376
  100DPPC   C38 4988   4.943   3.613   5.146 -0.1099 -0.1117 -0.4001
  100DPPC   C39 4989   4.915   3.617   4.996 -0.2057 -0.0361 -0.3802
  100DPPC   C40 4990   5.041   3.670   4.927 -0.0132  0.3688  0.2659
  100DPPC   C41 4991   5.021   3.704   4.779  0.4275  0.0755  0.1350
  100DPPC   C42 4992   4.985   3.567   4.722 -0.1550  0.2595  0.0519
  100DPPC   C43 4993   4.954   3.577   4.572 -0.0527 -0.4497 -0.0194
  100DPPC   C44 4994   5.067   3.647   4.497 -0.1061 -0.4673 -0.1173
  100DPPC   C45 4995   5.047   3.622   4.348 -0.1137 -0.0434 -0.1876
  100DPPC   C46 4996   5.163   3.682   4.269 -0.0478 -0.1679 -0.1855
  100DPPC   C47 4997   5.130   3.690   4.120 -0.4098 -0.0912 -0.1019
  100DPPC   C48 4998   5.236   3.765   4.039 -0.2667  0.0287  0.1971
  100DPPC   C49 4999   5.370   3.693   4.057 -0.2242  0.1317  0.2915
  100DPPC   C50 5000   5.481   3.773   3.988 -0.0437  0.1054  0.5476
  101DPPC    C1 5001   0.161   1.495   5.303  0.9072 -0.2939 -0.1054
  101DPPC    C2 5002   0.291   1.679   5.328  0.5016  0.1153  0.1641
  101DPPC    C3 5003   0.140   1.673   5.138 -0.1945 -0.3131 -0.1268
  101DPPC    N4 5004   0.231   1.596   5.223  0.1853  0.3972  0.1170
  101DPPC    C5 5005   0.334   1.518   5.151  0.0989 -0.1806  0.6100
  101DPPC    C6 5006   0.456   1.587   5.090 -0.4408  0.4919  0.2712
  101DPPC    O7 5007   0.559   1.488   5.089 -0.5674  0.3598  0.3280
  101DPPC    P8 5008   0.691   1.535   5.011 -0.6027 -0.0746  0.0004
  101DPPC    O9 5009   0.717   1.670   5.067 -0.6735  0.1800 -0.5677
  101DPPC   O10 5010   0.775   1.418   5.046 -0.0921  0.2276 -0.1885
  101DPPC   O11 5011   0.648   1.521   4.856 -0.3201  0.0683 -0.0919
  101DPPC   C12 5012   0.775   1.505   4.791 -0.2653  0.5471 -0.1026
  101DPPC   C13 5013   0.765   1.489   4.640  0.0951  0.0085 -0.0729
  101DPPC   O14 5014   0.888   1.498   4.567  0.0244  0.1663 -0.1724
  101DPPC   C15 5015   0.970   1.606   4.553  0.0560  0.1567 -0.0592
  101DPPC   O16 5016   0.960   1.696   4.636  0.0267 -0.0853  0.1998
  101DPPC   C17 5017   1.073   1.598   4.441 -0.0118 -0.2180 -0.0952
  101DPPC   C18 5018   1.025   1.653   4.306  0.0798  0.0480 -0.0184
  101DPPC   C19 5019   1.121   1.644   4.188 -0.0272  0.0387 -0.1043
  101DPPC   C20 5020   1.072   1.728   4.069 -0.4714 -0.2578 -0.1349
  101DPPC   C21 5021   1.106   1.638   3.951 -0.1964  0.0264 -0.2744
  101DPPC   C22 5022   1.258   1.619   3.941 -0.2104 -0.6121  0.6087
  101DPPC   C23 5023   1.288   1.512   3.836 -0.0563  0.2693 -0.2545
  101DPPC   C24 5024   1.231   1.530   3.695 -0.6384 -0.1175 -0.0693
  101DPPC   C25 5025   1.254   1.402   3.614 -0.0770  0.1104 -0.2699
  101DPPC   C26 5026   1.398   1.350   3.616 -0.2681 -0.4086  0.8600
  101DPPC   C27 5027   1.423   1.223   3.534 -0.2585  0.0445  0.1447
  101DPPC   C28 5028   1.387   1.101   3.618 -0.1855 -0.0360  0.0587
  101DPPC   C29 5029   1.474   1.079   3.742 -0.0026 -0.1603 -0.0907
  101DPPC   C30 5030   1.624   1.057   3.723  0.0341  0.0105 -0.0030
  101DPPC   C31 5031   1.639   0.921   3.655  0.4818 -0.0011  0.1198
  101DPPC   C32 5032   0.667   1.603   4.613 -0.1190 -0.1780 -0.0885
  101DPPC   O33 5033   0.641   1.649   4.479 -0.3325 -0.2166 -0.0606
  101DPPC   C34 5034   0.624   1.782   4.459  0.6416 -0.0699  0.0463
  101DPPC   O35 5035   0.642   1.865   4.548  0.0033  0.2181 -0.0889
  101DPPC   C36 5036   0.607   1.812   4.310  0.1169  0.1290  0.1427
  101DPPC   C37 5037   0.716   1.907   4.257  0.0291 -0.1249 -0.5043
  101DPPC   C38 5038   0.677   1.978   4.127  0.3997  0.2561 -0.4087
  101DPPC   C39 5039   0.681   1.883   4.007  0.0382 -0.2853  0.0017
  101DPPC   C40 5040   0.662   1.949   3.871  0.0500 -0.3453 -0.0286
  101DPPC   C41 5041   0.555   1.882   3.785 -0.2044  0.0727 -0.0406
  101DPPC   C42 5042   0.544   1.931   3.640  0.0228 -0.2096 -0.1544
  101DPPC   C43 5043   0.502   2.078   3.636 -0.1182 -0.2374  0.2643
  101DPPC   C44 5044   0.466   2.138   3.500 -0.1666 -0.3501  0.2273
  101DPPC   C45 5045   0.396   2.268   3.541  0.4294 -0.1496  0.6311
  101DPPC   C46 5046   0.364   2.360   3.423  0.5387 -0.0796  0.6560
  101DPPC   C47 5047   0.251   2.462   3.441  0.4247 -0.2668  1.0226
  101DPPC   C48 5048   0.114   2.400   3.465  0.1628 -0.2706 -0.3670
  101DPPC   C49 5049   0.014   2.511   3.499  0.0948 -0.3383 -0.3454
  101DPPC   C50 5050  -0.120   2.454   3.546 -0.2920  0.9767  0.1977
  102DPPC    C1 5051   0.773   3.300   5.347 -0.3353  0.0130 -0.0375
  102DPPC    C2 5052   0.929   3.150   5.362 -0.1860 -0.4511  0.3087
  102DPPC    C3 5053   0.881   3.232   5.146 -0.1725  0.3026  0.1888
  102DPPC    N4 5054   0.819   3.183   5.270  0.0538  0.0145  0.1907
  102DPPC    C5 5055   0.717   3.079   5.259  0.2740 -0.1375 -0.4281
  102DPPC    C6 5056   0.771   2.939   5.231  0.6410 -0.2503  0.7983
  102DPPC    O7 5057   0.872   2.915   5.132  0.2384 -0.0473  0.3348
  102DPPC    P8 5058   0.944   2.775   5.167  0.1383 -0.1451  0.1527
  102DPPC    O9 5059   1.075   2.785   5.097 -0.0885 -0.4795 -0.3239
  102DPPC   O10 5060   0.934   2.732   5.308  0.7256 -0.7921  0.0011
  102DPPC   O11 5061   0.834   2.699   5.078  0.2792  0.0837 -0.2216
  102DPPC   C12 5062   0.866   2.719   4.940  0.0693  0.3274 -0.2354
  102DPPC   C13 5063   0.750   2.720   4.840 -0.1098 -0.0213 -0.0373
  102DPPC   O14 5064   0.674   2.842   4.851  0.0612  0.0904 -0.0830
  102DPPC   C15 5065   0.728   2.962   4.818 -0.1872  0.2712  0.1680
  102DPPC   O16 5066   0.850   2.975   4.821 -0.0794 -0.4896 -0.5650
  102DPPC   C17 5067   0.628   3.078   4.813  0.1832  0.5933  0.2213
  102DPPC   C18 5068   0.612   3.142   4.675 -0.2729 -0.7566 -0.3628
  102DPPC   C19 5069   0.546   3.037   4.585 -0.1407 -0.3482 -0.9372
  102DPPC   C20 5070   0.411   3.000   4.646 -0.0284  0.5422 -0.1252
  102DPPC   C21 5071   0.332   2.907   4.554 -0.3727 -0.3566  1.0506
  102DPPC   C22 5072   0.406   2.774   4.539 -0.2185 -0.1556 -0.0512
  102DPPC   C23 5073   0.370   2.692   4.414 -0.3284  0.1301 -0.2082
  102DPPC   C24 5074   0.396   2.776   4.289  0.2419 -0.4576 -0.4891
  102DPPC   C25 5075   0.326   2.708   4.172  0.0636 -0.3655 -0.4355
  102DPPC   C26 5076   0.363   2.775   4.039  0.3819 -0.1578 -0.2443
  102DPPC   C27 5077   0.306   2.704   3.916  0.1324 -0.0136 -0.2136
  102DPPC   C28 5078   0.356   2.755   3.780  0.2029  0.0996 -0.1450
  102DPPC   C29 5079   0.275   2.868   3.717  0.0756 -0.3894 -0.8659
  102DPPC   C30 5080   0.133   2.816   3.692 -0.1396 -0.0381 -0.3903
  102DPPC   C31 5081   0.063   2.920   3.605 -0.2614  0.1721 -0.0419
  102DPPC   C32 5082   0.656   2.601   4.860  0.2721 -0.2870  0.1803
  102DPPC   O33 5083   0.695   2.475   4.805  0.0516 -0.3207  0.1021
  102DPPC   C34 5084   0.594   2.384   4.805  0.0823 -0.3552 -0.4704
  102DPPC   O35 5085   0.478   2.423   4.810  0.2571  0.0706  0.2597
  102DPPC   C36 5086   0.643   2.247   4.757  0.5456 -0.4403  0.2301
  102DPPC   C37 5087   0.563   2.174   4.648 -0.4378  0.3900  0.3840
  102DPPC   C38 5088   0.539   2.260   4.524 -0.5264  0.1212  0.2148
  102DPPC   C39 5089   0.473   2.175   4.415 -0.1799 -0.0019  0.0988
  102DPPC   C40 5090   0.433   2.253   4.289  0.1928  0.2377  0.1275
  102DPPC   C41 5091   0.550   2.331   4.228  0.1760  0.2872  0.1584
  102DPPC   C42 5092   0.486   2.373   4.096  0.0509  0.4716  0.2768
  102DPPC   C43 5093   0.426   2.252   4.024 -0.3083  0.6096  0.3397
  102DPPC   C44 5094   0.321   2.278   3.916  0.1708 -0.1015 -0.3070
  102DPPC   C45 5095   0.198   2.327   3.992  0.4722  0.2089 -0.0171
  102DPPC   C46 5096   0.091   2.384   3.899  0.0220  0.2108  0.5027
  102DPPC   C47 5097  -0.037   2.412   3.979  0.0677 -0.0870  0.6820
  102DPPC   C48 5098  -0.172   2.445   3.914  0.3715 -0.4787 -0.1656
  102DPPC   C49 5099  -0.287   2.454   4.015  0.2763  0.0305 -0.3158
  102DPPC   C50 5100  -0.251   2.514   4.151  0.2409  0.8564 -0.6664
  103DPPC    C1 5101   0.987   3.983   5.726 -0.4283 -0.0318 -0.1807
  103DPPC    C2 5102   0.887   4.187   5.621  0.0172  0.0835 -0.0145
  103DPPC    C3 5103   1.094   4.191   5.651 -0.1737  0.0788 -1.1607
  103DPPC    N4 5104   0.994   4.087   5.622 -0.1979 -0.1519 -0.2849
  103DPPC    C5 5105   1.028   4.023   5.494  0.4979  0.3090 -0.3398
  103DPPC    C6 5106   0.917   3.939   5.430  0.2691  0.4493 -0.1274
  103DPPC    O7 5107   0.809   4.009   5.367  0.0421 -0.2080 -0.4844
  103DPPC    P8 5108   0.712   3.912   5.284 -0.4530 -0.1168 -0.0229
  103DPPC    O9 5109   0.802   3.797   5.259  0.1442  0.2933  0.2113
  103DPPC   O10 5110   0.590   3.930   5.366 -0.2876 -0.5469  0.3218
  103DPPC   O11 5111   0.707   4.000   5.149  0.5180  0.1299  0.0902
  103DPPC   C12 5112   0.813   3.972   5.057  0.2723 -0.1204 -0.1234
  103DPPC   C13 5113   0.757   3.946   4.917  0.1797  0.2788 -0.1606
  103DPPC   O14 5114   0.847   3.869   4.836 -0.1754  0.1840 -0.4653
  103DPPC   C15 5115   0.825   3.736   4.818  0.5787 -0.0798  0.4952
  103DPPC   O16 5116   0.736   3.680   4.882  0.4464  0.2616  0.6099
  103DPPC   C17 5117   0.917   3.668   4.716  0.3028  0.8187 -0.3562
  103DPPC   C18 5118   0.860   3.660   4.574 -0.1655  0.3063 -0.1417
  103DPPC   C19 5119   0.842   3.799   4.512  0.9582  0.5228 -0.0137
  103DPPC   C20 5120   0.778   3.788   4.373  0.0726 -0.0457  0.4232
  103DPPC   C21 5121   0.887   3.741   4.276 -0.4125  0.1561 -0.2271
  103DPPC   C22 5122   0.853   3.760   4.128 -0.1869 -0.1555 -0.3207
  103DPPC   C23 5123   0.962   3.704   4.036 -0.3171 -0.5850 -0.2150
  103DPPC   C24 5124   0.932   3.712   3.886 -0.2116 -0.1799 -0.2148
  103DPPC   C25 5125   1.060   3.711   3.802  0.2935  0.8647  0.5158
  103DPPC   C26 5126   1.036   3.727   3.651  0.5670 -0.5043  0.3150
  103DPPC   C27 5127   0.960   3.605   3.600 -0.7586  0.3196  0.2644
  103DPPC   C28 5128   0.986   3.624   3.451  0.1056 -0.2439  0.3377
  103DPPC   C29 5129   0.986   3.497   3.366 -0.0725 -0.1879  0.2534
  103DPPC   C30 5130   0.853   3.422   3.350 -0.2801  0.1921  0.1916
  103DPPC   C31 5131   0.875   3.282   3.294 -0.7083 -0.0406  0.6045
  103DPPC   C32 5132   0.723   4.087   4.867  0.0601  0.3398  0.0890
  103DPPC   O33 5133   0.664   4.106   4.738  0.0702 -0.1122  0.0160
  103DPPC   C34 5134   0.643   4.232   4.693 -0.4502 -0.1180  0.2342
  103DPPC   O35 5135   0.657   4.331   4.765 -0.0753 -0.0344  0.0468
  103DPPC   C36 5136   0.627   4.239   4.541  0.5638 -0.2278  0.1121
  103DPPC   C37 5137   0.746   4.318   4.487 -0.1353  0.9027  0.1873
  103DPPC   C38 5138   0.717   4.351   4.340 -0.2204 -0.0328 -0.0082
  103DPPC   C39 5139   0.696   4.213   4.276 -0.7230 -0.3020  0.7273
  103DPPC   C40 5140   0.693   4.231   4.124  0.2431  0.0335  0.7413
  103DPPC   C41 5141   0.696   4.093   4.058  0.1433  0.3257  0.1225
  103DPPC   C42 5142   0.713   4.125   3.909 -0.3226 -0.2023 -0.0507
  103DPPC   C43 5143   0.842   4.206   3.888 -0.0436 -0.6881 -0.2134
  103DPPC   C44 5144   0.865   4.201   3.737  0.5858 -0.0075 -0.1459
  103DPPC   C45 5145   0.940   4.323   3.683 -0.1966  0.4786 -0.1526
  103DPPC   C46 5146   0.916   4.358   3.536  0.1268 -0.0150 -0.3266
  103DPPC   C47 5147   0.777   4.416   3.511  0.2150  0.7848  0.9281
  103DPPC   C48 5148   0.738   4.427   3.363  0.1023 -0.0879  0.8838
  103DPPC   C49 5149   0.588   4.447   3.340  0.3396  0.3076 -0.3799
  103DPPC   C50 5150   0.555   4.449   3.190 -0.3212  0.4574 -0.2352
  104DPPC    C1 5151   0.976   5.246   5.291  0.0519  0.2730 -0.9048
  104DPPC    C2 5152   0.989   5.065   5.440  0.4967  0.0252  0.0193
  104DPPC    C3 5153   1.187   5.138   5.327  0.0708 -0.0910  0.9062
  104DPPC    N4 5154   1.042   5.116   5.313  0.0754  0.4330  0.0055
  104DPPC    C5 5155   1.006   5.031   5.198  0.0820 -0.1690  0.4467
  104DPPC    C6 5156   1.099   4.920   5.149 -0.2293 -0.3001  0.1515
  104DPPC    O7 5157   1.131   4.822   5.248 -0.3190 -0.3216  0.1591
  104DPPC    P8 5158   1.210   4.709   5.164  0.2807  0.1831  0.0321
  104DPPC    O9 5159   1.328   4.774   5.103  0.1524  0.1952 -0.2060
  104DPPC   O10 5160   1.237   4.596   5.255  0.5552  0.3722  0.1846
  104DPPC   O11 5161   1.098   4.670   5.054  0.3564 -0.2303  0.1003
  104DPPC   C12 5162   1.049   4.537   5.072  0.3091 -0.1639  0.4726
  104DPPC   C13 5163   0.948   4.490   4.967  0.4811  0.1790  0.1493
  104DPPC   O14 5164   1.001   4.387   4.882 -0.1654 -0.2570  0.2626
  104DPPC   C15 5165   1.030   4.266   4.937  0.4208 -0.2350  0.0145
  104DPPC   O16 5166   0.980   4.217   5.038  0.1304 -0.5269 -0.2683
  104DPPC   C17 5167   1.112   4.170   4.851  0.1347 -0.2885 -0.2019
  104DPPC   C18 5168   1.057   4.189   4.709 -0.8076 -0.4305  0.1370
  104DPPC   C19 5169   1.140   4.103   4.613 -0.3081  0.1167  0.0732
  104DPPC   C20 5170   1.078   4.100   4.473  0.0221 -0.7660 -0.0568
  104DPPC   C21 5171   1.180   4.028   4.384 -0.1851 -0.3662 -0.6210
  104DPPC   C22 5172   1.135   4.064   4.242  0.1808  0.4151 -0.5463
  104DPPC   C23 5173   1.233   4.008   4.138  0.3808 -0.3355  0.0344
  104DPPC   C24 5174   1.166   4.019   4.001  0.3260 -0.0958  0.0796
  104DPPC   C25 5175   1.270   4.030   3.889 -0.0019  0.1206 -0.2063
  104DPPC   C26 5176   1.208   4.053   3.752 -0.2509  0.2487 -0.0725
  104DPPC   C27 5177   1.320   4.040   3.648  0.0949 -0.0632  0.3360
  104DPPC   C28 5178   1.264   4.070   3.509  0.1084 -0.4162  0.2545
  104DPPC   C29 5179   1.373   4.055   3.402 -0.0925  0.0330 -0.0146
  104DPPC   C30 5180   1.321   4.075   3.259  0.2357  0.2876 -0.1011
  104DPPC   C31 5181   1.444   4.078   3.169 -0.0721 -0.1979 -0.5484
  104DPPC   C32 5182   0.907   4.614   4.889 -0.2583 -0.4922 -0.5474
  104DPPC   O33 5183   0.768   4.646   4.905  0.0416  0.8016 -0.4237
  104DPPC   C34 5184   0.726   4.726   4.803 -0.3923  0.0072 -0.8722
  104DPPC   O35 5185   0.806   4.799   4.744 -0.1184  0.1387 -0.3437
  104DPPC   C36 5186   0.575   4.742   4.792 -0.4647  0.0812  0.2136
  104DPPC   C37 5187   0.526   4.626   4.706 -0.2943  0.3142 -0.2014
  104DPPC   C38 5188   0.373   4.625   4.707 -0.2956  0.2759  0.4640
  104DPPC   C39 5189   0.340   4.490   4.642  0.3571  0.4224 -0.1834
  104DPPC   C40 5190   0.188   4.477   4.647  0.3984 -0.0211 -0.0615
  104DPPC   C41 5191   0.141   4.358   4.563  0.0324  0.4167 -0.4857
  104DPPC   C42 5192  -0.010   4.358   4.586  0.0686  0.0539 -0.2350
  104DPPC   C43 5193  -0.075   4.251   4.497 -0.5735  0.4330 -0.2317
  104DPPC   C44 5194  -0.224   4.246   4.532 -0.5538  0.0507 -0.1947
  104DPPC   C45 5195  -0.282   4.169   4.413  0.3485 -0.1433 -0.5178
  104DPPC   C46 5196  -0.212   4.034   4.395  0.3951 -0.1937  0.0209
  104DPPC   C47 5197  -0.293   3.963   4.287  0.3752 -0.0532 -0.0571
  104DPPC   C48 5198  -0.441   3.962   4.327  0.4406  0.8442  0.2298
  104DPPC   C49 5199  -0.536   3.921   4.214  0.2152  0.1625  0.6587
  104DPPC   C50 5200  -0.487   3.781   4.175 -0.0222  0.3907 -0.4845
  105DPPC    C1 5201   0.015   2.808   5.255  0.0060  0.3788  0.0111
  105DPPC    C2 5202   0.066   2.589   5.335 -0.1149  0.2225  0.1008
  105DPPC    C3 5203   0.106   2.640   5.115 -0.7219  0.7185 -0.1766
  105DPPC    N4 5204   0.009   2.665   5.223 -0.3199  0.3313  0.2798
  105DPPC    C5 5205  -0.130   2.628   5.192 -0.2182  0.2444 -0.0804
  105DPPC    C6 5206  -0.175   2.484   5.164  0.6549 -0.1220  0.3499
  105DPPC    O7 5207  -0.119   2.434   5.042 -0.1611  0.2921 -0.2053
  105DPPC    P8 5208  -0.086   2.277   5.037 -0.3202  0.2596 -0.2307
  105DPPC    O9 5209   0.029   2.255   4.946  0.1351  0.2739  0.3319
  105DPPC   O10 5210  -0.052   2.256   5.179  0.2316 -0.3466 -0.4455
  105DPPC   O11 5211  -0.231   2.225   4.990 -0.4646  0.5978 -0.1568
  105DPPC   C12 5212  -0.249   2.253   4.851 -0.0782  0.1467 -0.2975
  105DPPC   C13 5213  -0.353   2.156   4.794  0.0353 -0.2426  0.1442
  105DPPC   O14 5214  -0.485   2.206   4.822 -0.1645 -0.2156 -0.8189
  105DPPC   C15 5215  -0.602   2.138   4.817  0.0186 -0.6578  0.6983
  105DPPC   O16 5216  -0.605   2.017   4.842  0.1520 -0.6471  0.7661
  105DPPC   C17 5217  -0.735   2.207   4.788  0.2576 -0.4797  0.0143
  105DPPC   C18 5218  -0.746   2.287   4.658  0.1836 -0.0872  0.2603
  105DPPC   C19 5219  -0.725   2.203   4.532 -0.4977  0.1328 -0.0050
  105DPPC   C20 5220  -0.716   2.299   4.413  0.2374 -0.1599 -0.1928
  105DPPC   C21 5221  -0.711   2.226   4.278  0.6408 -0.2056 -0.1558
  105DPPC   C22 5222  -0.703   2.322   4.159  0.7943  0.2115  0.1882
  105DPPC   C23 5223  -0.683   2.240   4.032 -0.0740 -0.3718  0.4155
  105DPPC   C24 5224  -0.651   2.325   3.908  0.2042 -0.2802  0.5496
  105DPPC   C25 5225  -0.664   2.258   3.772 -0.0815  0.3184  0.2804
  105DPPC   C26 5226  -0.590   2.337   3.663 -0.1469  0.4930  0.3616
  105DPPC   C27 5227  -0.612   2.264   3.530  0.1308  0.1498  0.5035
  105DPPC   C28 5228  -0.544   2.349   3.423  0.0738 -0.7243 -0.2370
  105DPPC   C29 5229  -0.565   2.290   3.283 -0.1719  0.1587 -0.5799
  105DPPC   C30 5230  -0.490   2.380   3.184 -0.3556  0.7742 -0.1645
  105DPPC   C31 5231  -0.505   2.317   3.046 -0.2552 -0.0042  0.1762
  105DPPC   C32 5232  -0.315   2.015   4.839 -0.3133 -0.5522 -0.5146
  105DPPC   O33 5233  -0.213   1.949   4.763  0.1924 -0.1198 -0.2205
  105DPPC   C34 5234  -0.100   1.902   4.823  0.3680 -0.1709 -0.5894
  105DPPC   O35 5235  -0.098   1.867   4.941  0.1951 -0.3087 -0.6260
  105DPPC   C36 5236   0.025   1.859   4.747  0.5372 -0.5874 -0.0824
  105DPPC   C37 5237   0.103   1.990   4.726 -0.0856 -0.0979  0.6179
  105DPPC   C38 5238   0.220   1.960   4.632 -0.0023 -0.0745  0.7141
  105DPPC   C39 5239   0.147   1.903   4.510  0.3533 -0.3131  0.6129
  105DPPC   C40 5240   0.234   1.859   4.393 -0.1872 -0.1195  0.1344
  105DPPC   C41 5241   0.156   1.773   4.292 -0.0209 -0.0916 -0.0193
  105DPPC   C42 5242   0.208   1.794   4.150  0.3622 -0.1518  0.1116
  105DPPC   C43 5243   0.095   1.869   4.080 -0.0067 -0.4623  0.3667
  105DPPC   C44 5244   0.129   1.880   3.931  0.0802 -0.1640  0.4083
  105DPPC   C45 5245   0.016   1.954   3.859 -0.2212 -0.8660  0.1580
  105DPPC   C46 5246   0.079   1.984   3.723 -0.2060  0.0909  0.3681
  105DPPC   C47 5247  -0.024   2.054   3.634 -0.2223  0.1371  0.4226
  105DPPC   C48 5248  -0.014   2.027   3.484 -0.1522  0.6899  0.3254
  105DPPC   C49 5249  -0.129   2.099   3.414 -0.0847 -0.0568 -0.5768
  105DPPC   C50 5250  -0.265   2.065   3.477  0.3375 -0.4338  0.1440
  106DPPC    C1 5251   6.081   2.052   5.256  0.3652 -0.1973  0.0096
  106DPPC    C2 5252   5.991   1.992   5.466  0.2120  0.0118  0.0998
  106DPPC    C3 5253   5.859   2.044   5.262  0.0804  0.8034 -0.0722
  106DPPC    N4 5254   5.971   2.081   5.350  0.3564 -0.1177 -0.0254
  106DPPC    C5 5255   5.976   2.224   5.381 -0.3704 -0.0377 -0.2450
  106DPPC    C6 5256   5.865   2.271   5.475 -0.4389  0.4501 -0.5656
  106DPPC    O7 5257   5.871   2.413   5.468 -0.3432  0.4368 -0.7534
  106DPPC    P8 5258   5.770   2.502   5.557 -0.0190 -0.0249  0.0846
  106DPPC    O9 5259   5.747   2.407   5.668  0.0292 -0.0621  0.0628
  106DPPC   O10 5260   5.847   2.624   5.588  0.0620  0.0606 -0.4378
  106DPPC   O11 5261   5.684   2.497   5.421  0.0601 -0.0698  0.0362
  106DPPC   C12 5262   5.706   2.617   5.346 -0.7230  0.1311  0.1259
  106DPPC   C13 5263   5.656   2.608   5.202 -0.0889 -0.9745 -0.0349
  106DPPC   O14 5264   5.711   2.709   5.116 -0.0543 -0.2911  0.7696
  106DPPC   C15 5265   5.842   2.691   5.084 -0.1003  0.0159  0.4006
  106DPPC   O16 5266   5.911   2.592   5.108 -0.4212 -0.1743  0.5273
  106DPPC   C17 5267   5.893   2.784   4.974 -0.4111 -0.1224  0.1386
  106DPPC   C18 5268   5.924   2.699   4.851  1.1087  0.0531  0.3769
  106DPPC   C19 5269   5.967   2.790   4.736  0.3113  0.1894  0.1777
  106DPPC   C20 5270   5.968   2.719   4.600 -0.1290 -0.2499  0.4008
  106DPPC   C21 5271   6.103   2.654   4.568  0.0211  0.3815 -0.2759
  106DPPC   C22 5272   6.225   2.744   4.585  0.3516 -0.0259 -0.4880
  106DPPC   C23 5273   6.353   2.662   4.562  0.2971 -0.2642  0.0315
  106DPPC   C24 5274   6.372   2.537   4.648  0.7476 -0.2714 -0.0783
  106DPPC   C25 5275   6.499   2.466   4.601  0.8635  0.3330 -0.6974
  106DPPC   C26 5276   6.453   2.411   4.466 -0.4730  0.0426 -0.1380
  106DPPC   C27 5277   6.335   2.318   4.495 -0.2964 -0.0312  0.3528
  106DPPC   C28 5278   6.270   2.231   4.386  0.4945 -0.2149  0.0236
  106DPPC   C29 5279   6.134   2.192   4.443  0.3330 -0.0787 -0.2694
  106DPPC   C30 5280   6.053   2.102   4.349  0.0005  0.2850 -0.3378
  106DPPC   C31 5281   6.128   1.970   4.329  0.0653  0.3045 -0.2240
  106DPPC   C32 5282   5.504   2.610   5.216 -0.0377 -0.1732  0.4664
  106DPPC   O33 5283   5.424   2.666   5.111  0.6008 -0.2623 -0.0733
  106DPPC   C34 5284   5.418   2.585   5.002 -0.6249 -0.4076  0.0840
  106DPPC   O35 5285   5.411   2.463   5.021  0.0624 -0.4755 -0.0750
  106DPPC   C36 5286   5.399   2.662   4.872  0.3703 -0.8112 -0.3127
  106DPPC   C37 5287   5.519   2.749   4.834 -0.1391 -0.0690 -0.2418
  106DPPC   C38 5288   5.522   2.798   4.689 -0.1204  0.3630 -0.0959
  106DPPC   C39 5289   5.569   2.682   4.602 -0.1826  0.3031 -0.0495
  106DPPC   C40 5290   5.618   2.742   4.470 -0.0444  0.3537  0.0246
  106DPPC   C41 5291   5.685   2.650   4.368 -0.1295  0.2525  0.0609
  106DPPC   C42 5292   5.723   2.727   4.242 -0.1647  0.3661  0.1197
  106DPPC   C43 5293   5.609   2.776   4.153 -0.1968  0.2303  0.0867
  106DPPC   C44 5294   5.669   2.851   4.034  0.1658  0.1162  0.1966
  106DPPC   C45 5295   5.752   2.756   3.948 -0.0595 -0.2209  0.3485
  106DPPC   C46 5296   5.813   2.823   3.825  0.3594 -0.5131  0.3944
  106DPPC   C47 5297   5.872   2.719   3.728  0.1536 -0.0170 -0.2729
  106DPPC   C48 5298   5.949   2.788   3.615  0.0342 -0.1870 -0.4574
  106DPPC   C49 5299   5.978   2.708   3.488  0.6938 -0.6016 -0.0474
  106DPPC   C50 5300   6.068   2.794   3.400  0.1189  0.5877  0.5096
  107DPPC    C1 5301   6.151   3.456   5.389 -0.0243 -0.1040  0.2532
  107DPPC    C2 5302   6.381   3.466   5.462 -0.0262 -0.2492 -0.5618
  107DPPC    C3 5303   6.332   3.580   5.274 -0.3764  0.5373  0.3669
  107DPPC    N4 5304   6.292   3.458   5.345 -0.2316  0.0220 -0.4260
  107DPPC    C5 5305   6.334   3.338   5.272  0.0426  0.0232 -0.2701
  107DPPC    C6 5306   6.272   3.317   5.133 -0.4544  0.1125 -0.0635
  107DPPC    O7 5307   6.314   3.206   5.055 -0.0872  0.1675  0.0519
  107DPPC    P8 5308   6.205   3.090   5.031 -0.1038  0.1880  0.0289
  107DPPC    O9 5309   6.272   2.964   4.992  0.4533  0.4246  0.2051
  107DPPC   O10 5310   6.107   3.096   5.142 -0.2566 -0.4378 -0.0695
  107DPPC   O11 5311   6.155   3.165   4.898  0.4916  0.7792  0.1327
  107DPPC   C12 5312   6.270   3.167   4.813  0.3870  0.7126 -0.0103
  107DPPC   C13 5313   6.236   3.228   4.677 -0.0201 -0.1718 -0.3115
  107DPPC   O14 5314   6.357   3.249   4.604  0.0886  0.3335  0.0146
  107DPPC   C15 5315   6.460   3.329   4.643 -0.1238  0.5923  0.0482
  107DPPC   O16 5316   6.468   3.390   4.750  0.0928 -0.1284  0.4484
  107DPPC   C17 5317   6.585   3.312   4.557  0.1002  0.1998  0.4438
  107DPPC   C18 5318   6.552   3.250   4.421  0.2811 -0.5875  0.7559
  107DPPC   C19 5319   6.668   3.242   4.322 -0.1163 -0.6061  0.2863
  107DPPC   C20 5320   6.619   3.218   4.179 -0.3189 -0.0596  0.2638
  107DPPC   C21 5321   6.533   3.339   4.139 -0.3741 -0.2237 -0.1082
  107DPPC   C22 5322   6.481   3.323   3.996 -0.4026 -0.7137 -0.0457
  107DPPC   C23 5323   6.379   3.435   3.970 -0.0217 -0.3442  0.0449
  107DPPC   C24 5324   6.337   3.428   3.824  0.1062  0.2003 -0.0198
  107DPPC   C25 5325   6.271   3.558   3.778 -0.3377  0.0834  0.2845
  107DPPC   C26 5326   6.270   3.562   3.625 -0.3284 -0.1352  0.2784
  107DPPC   C27 5327   6.236   3.704   3.579  0.7231  0.1047  0.2226
  107DPPC   C28 5328   6.259   3.730   3.430 -0.2072 -0.3726 -0.0165
  107DPPC   C29 5329   6.251   3.878   3.393 -0.0474 -0.3864 -0.1122
  107DPPC   C30 5330   6.250   3.903   3.242 -0.2392  0.3863  0.0102
  107DPPC   C31 5331   6.114   3.866   3.181 -0.1971 -0.0750  0.1923
  107DPPC   C32 5332   6.157   3.351   4.720 -0.7689 -0.9140  0.4796
  107DPPC   O33 5333   6.068   3.417   4.630 -0.0047 -0.3748  0.1076
  107DPPC   C34 5334   5.971   3.491   4.692 -0.2257 -0.6486  0.0926
  107DPPC   O35 5335   5.961   3.488   4.815  0.7204 -0.3704  0.1843
  107DPPC   C36 5336   5.881   3.583   4.609  0.3596 -0.1741 -0.0269
  107DPPC   C37 5337   5.791   3.493   4.523  0.0260 -0.4034  0.5562
  107DPPC   C38 5338   5.686   3.581   4.455 -0.0212 -0.5816  0.4010
  107DPPC   C39 5339   5.641   3.494   4.336  0.5340 -0.0597 -0.1972
  107DPPC   C40 5340   5.575   3.375   4.405  0.1310  0.5050  0.4076
  107DPPC   C41 5341   5.470   3.318   4.309  0.0827  0.3003  0.5799
  107DPPC   C42 5342   5.402   3.199   4.376 -0.0274  0.1798  0.2578
  107DPPC   C43 5343   5.347   3.240   4.513 -0.2953  0.4609  0.0668
  107DPPC   C44 5344   5.278   3.125   4.586  0.0192 -0.0054 -0.3548
  107DPPC   C45 5345   5.230   3.192   4.716 -0.1224 -0.3668 -0.2194
  107DPPC   C46 5346   5.185   3.099   4.829  0.5875 -0.3292  0.0965
  107DPPC   C47 5347   5.157   3.184   4.953  0.3146  0.0358 -0.2124
  107DPPC   C48 5348   5.149   3.099   5.080  0.1941  0.5074  0.0975
  107DPPC   C49 5349   5.103   3.181   5.200  0.0310  0.4140  0.0987
  107DPPC   C50 5350   4.983   3.267   5.156 -0.2863  0.3633  0.8551
  108DPPC    C1 5351   0.599   4.515   5.276  0.3908  0.0660 -0.0654
  108DPPC    C2 5352   0.557   4.305   5.170 -0.0477 -0.1584  0.2632
  108DPPC    C3 5353   0.512   4.495   5.042 -0.1305  0.1715 -0.0575
  108DPPC    N4 5354   0.512   4.444   5.180  0.4628  0.0342 -0.1083
  108DPPC    C5 5355   0.385   4.406   5.243 -0.0936  0.6685 -0.8201
  108DPPC    C6 5356   0.285   4.511   5.292 -0.0783  0.3714 -0.1338
  108DPPC    O7 5357   0.224   4.586   5.186 -0.1698  0.0892 -0.2828
  108DPPC    P8 5358   0.064   4.583   5.204 -0.1735  0.3120 -0.2759
  108DPPC    O9 5359   0.038   4.613   5.346 -0.5992  0.2282 -0.3325
  108DPPC   O10 5360   0.012   4.649   5.082 -0.2997  0.2154 -0.2753
  108DPPC   O11 5361   0.061   4.423   5.183  0.7974  0.1899  0.4998
  108DPPC   C12 5362   0.081   4.376   5.049  0.0942 -0.1828  0.5250
  108DPPC   C13 5363   0.058   4.227   5.024 -0.0456 -0.1315  0.3493
  108DPPC   O14 5364   0.124   4.159   4.916 -0.0871  0.6816 -0.2025
  108DPPC   C15 5365   0.259   4.145   4.929 -0.1958 -0.0977  0.1606
  108DPPC   O16 5366   0.306   4.151   5.043 -0.5774 -0.0538  0.3199
  108DPPC   C17 5367   0.334   4.085   4.810 -0.1425  0.5005 -0.1120
  108DPPC   C18 5368   0.320   3.934   4.830  0.4614  0.4393 -0.1205
  108DPPC   C19 5369   0.405   3.869   4.721 -0.0771  0.0232 -0.2973
  108DPPC   C20 5370   0.366   3.721   4.716  0.1249 -0.0491  0.1565
  108DPPC   C21 5371   0.432   3.649   4.598 -0.6597 -0.6792  0.0925
  108DPPC   C22 5372   0.398   3.713   4.464  0.3333 -0.2240  0.0457
  108DPPC   C23 5373   0.433   3.613   4.354  0.0311 -0.0160 -0.2433
  108DPPC   C24 5374   0.435   3.689   4.221 -0.5854  0.0919 -0.1952
  108DPPC   C25 5375   0.491   3.619   4.097  0.2676  0.3034  0.0624
  108DPPC   C26 5376   0.496   3.724   3.985 -0.8211 -0.2468 -0.5168
  108DPPC   C27 5377   0.537   3.650   3.858  0.1779 -0.1191 -0.2813
  108DPPC   C28 5378   0.518   3.746   3.740  0.0853  0.3005  0.0743
  108DPPC   C29 5379   0.500   3.666   3.611 -0.1110 -0.2127  0.4146
  108DPPC   C30 5380   0.358   3.614   3.591  0.1586 -0.7000 -0.2874
  108DPPC   C31 5381   0.341   3.539   3.459 -0.0511 -0.0221 -0.6473
  108DPPC   C32 5382  -0.094   4.208   5.036 -0.1495  0.4771  0.0491
  108DPPC   O33 5383  -0.180   4.308   4.981  0.0458  0.2969 -0.5996
  108DPPC   C34 5384  -0.313   4.313   5.011 -0.0363 -0.1702 -0.8741
  108DPPC   O35 5385  -0.364   4.266   5.113 -0.5169  0.3942 -0.8514
  108DPPC   C36 5386  -0.410   4.353   4.900 -1.0203  0.3663  0.1558
  108DPPC   C37 5387  -0.460   4.226   4.831  0.0509 -0.1026  0.2226
  108DPPC   C38 5388  -0.596   4.250   4.765  0.1716  0.0356  0.0221
  108DPPC   C39 5389  -0.569   4.257   4.615 -0.0452 -0.0440 -0.0200
  108DPPC   C40 5390  -0.700   4.250   4.536 -0.1134  0.0709  0.0824
  108DPPC   C41 5391  -0.684   4.259   4.384  0.1433 -0.8737  0.0460
  108DPPC   C42 5392  -0.821   4.263   4.316  0.2258 -0.0242 -0.0853
  108DPPC   C43 5393  -0.810   4.286   4.165 -0.2247  0.2238 -0.0823
  108DPPC   C44 5394  -0.943   4.300   4.091 -0.4164  0.1828  0.2516
  108DPPC   C45 5395  -0.921   4.325   3.942 -0.3159 -0.1007  0.2178
  108DPPC   C46 5396  -1.052   4.340   3.864  0.0169  0.8080 -0.1816
  108DPPC   C47 5397  -1.014   4.356   3.716  0.3523  0.6216 -0.1186
  108DPPC   C48 5398  -0.968   4.220   3.665  0.0447  0.4538  0.0491
  108DPPC   C49 5399  -1.072   4.110   3.688  0.5273 -0.0059  0.0397
  108DPPC   C50 5400  -1.014   3.970   3.670  0.2227 -0.1016 -0.2015
  109DPPC    C1 5401   5.441   1.900   5.223 -0.3853  0.3762 -0.6243
  109DPPC    C2 5402   5.219   1.813   5.257 -0.2084 -0.2866 -0.3787
  109DPPC    C3 5403   5.333   1.749   5.065  0.2327 -0.1866 -0.2157
  109DPPC    N4 5404   5.353   1.783   5.206 -0.0706  0.0818 -0.2354
  109DPPC    C5 5405   5.408   1.665   5.275 -1.0000 -0.7395 -0.8764
  109DPPC    C6 5406   5.531   1.598   5.216 -0.2561 -0.1356 -0.0384
  109DPPC    O7 5407   5.562   1.474   5.281 -0.0314 -0.4190 -0.6771
  109DPPC    P8 5408   5.701   1.405   5.239  0.1771 -0.3977 -0.0203
  109DPPC    O9 5409   5.789   1.523   5.254 -0.3790  0.0270 -0.0866
  109DPPC   O10 5410   5.699   1.294   5.337 -0.4491 -0.0997  0.3113
  109DPPC   O11 5411   5.650   1.378   5.089 -0.4074  0.7052 -0.0311
  109DPPC   C12 5412   5.577   1.255   5.086 -0.6337  0.8344  0.1118
  109DPPC   C13 5413   5.557   1.226   4.937  0.2349  0.6817  0.0178
  109DPPC   O14 5414   5.677   1.207   4.861 -0.1055  0.2155 -0.4070
  109DPPC   C15 5415   5.711   1.079   4.832 -0.2412  0.1697 -0.3621
  109DPPC   O16 5416   5.701   0.989   4.916  0.0925  0.3041 -0.1733
  109DPPC   C17 5417   5.775   1.065   4.694 -0.4156  0.5470 -0.4832
  109DPPC   C18 5418   5.906   1.141   4.674  0.2829 -0.5992 -0.3699
  109DPPC   C19 5419   5.911   1.156   4.522 -0.2319 -0.3106 -0.3591
  109DPPC   C20 5420   5.781   1.228   4.483 -0.2036 -0.1311 -0.1227
  109DPPC   C21 5421   5.790   1.248   4.332 -0.3970  0.3967 -0.0681
  109DPPC   C22 5422   5.660   1.318   4.292 -0.5518  0.5406  0.6861
  109DPPC   C23 5423   5.667   1.391   4.158 -0.1566 -0.1302  0.3360
  109DPPC   C24 5424   5.726   1.308   4.044 -0.3543  0.5623 -0.2805
  109DPPC   C25 5425   5.694   1.376   3.911 -0.2953  0.3372 -0.4097
  109DPPC   C26 5426   5.744   1.266   3.816 -0.6166 -0.0850 -0.0929
  109DPPC   C27 5427   5.706   1.309   3.674 -0.0521 -0.4252 -0.3491
  109DPPC   C28 5428   5.805   1.240   3.580 -0.0713 -0.4346 -0.3626
  109DPPC   C29 5429   5.794   1.282   3.433  0.0138  0.1509 -0.2037
  109DPPC   C30 5430   5.916   1.210   3.375 -0.0672  0.2283 -0.4712
  109DPPC   C31 5431   5.910   1.058   3.391  0.3196  0.2569 -0.0332
  109DPPC   C32 5432   5.460   1.336   4.895 -0.6977 -0.2357 -0.2704
  109DPPC   O33 5433   5.444   1.352   4.753  0.2102  0.0502 -0.3447
  109DPPC   C34 5434   5.477   1.477   4.711 -0.6842  0.4283  0.0571
  109DPPC   O35 5435   5.500   1.568   4.791 -0.4400  0.0301  0.4452
  109DPPC   C36 5436   5.465   1.486   4.559  1.0616  0.0849 -0.1230
  109DPPC   C37 5437   5.350   1.569   4.499  0.3703 -0.3457  0.5829
  109DPPC   C38 5438   5.352   1.521   4.354 -0.4673  0.0536  0.4366
  109DPPC   C39 5439   5.261   1.609   4.268 -0.1773 -0.3249 -0.2643
  109DPPC   C40 5440   5.262   1.546   4.128 -0.4771  0.0974 -0.4612
  109DPPC   C41 5441   5.379   1.621   4.062 -0.5757  0.7112  0.0493
  109DPPC   C42 5442   5.367   1.603   3.911 -0.1680  0.3188  0.0613
  109DPPC   C43 5443   5.374   1.462   3.852  0.3294  0.2873  0.1899
  109DPPC   C44 5444   5.297   1.459   3.719  0.0059 -0.4126  0.3888
  109DPPC   C45 5445   5.381   1.532   3.614 -0.6136 -0.0639  0.1358
  109DPPC   C46 5446   5.305   1.554   3.483 -0.1752 -0.2136 -0.1439
  109DPPC   C47 5447   5.384   1.630   3.375 -0.5934  0.1213 -0.2178
  109DPPC   C48 5448   5.481   1.541   3.297 -0.0893  0.2045  0.3120
  109DPPC   C49 5449   5.487   1.613   3.162 -1.1319 -0.1845  0.0495
  109DPPC   C50 5450   5.535   1.758   3.164  0.4473 -0.6882  0.7583
  110DPPC    C1 5451   4.701   1.954   5.675  0.9011  0.4846  0.2639
  110DPPC    C2 5452   4.703   2.195   5.744 -0.1445  0.5552 -0.5227
  110DPPC    C3 5453   4.520   2.081   5.614  0.1058  0.0636  0.2924
  110DPPC    N4 5454   4.663   2.093   5.645  0.2238  0.1858 -0.2952
  110DPPC    C5 5455   4.714   2.163   5.525 -0.1678  0.5764 -0.2357
  110DPPC    C6 5456   4.859   2.144   5.480 -0.0337  0.1532  0.3586
  110DPPC    O7 5457   4.951   2.223   5.555  0.1437  0.1335  0.1620
  110DPPC    P8 5458   5.108   2.215   5.521  0.0759 -0.2648 -0.0516
  110DPPC    O9 5459   5.183   2.269   5.637 -0.2036 -0.2776  0.1364
  110DPPC   O10 5460   5.120   2.072   5.485  0.2087 -0.2871  0.0796
  110DPPC   O11 5461   5.095   2.303   5.387  0.0908  0.0881  0.1795
  110DPPC   C12 5462   5.178   2.247   5.285 -0.1152  0.1717 -0.0351
  110DPPC   C13 5463   5.127   2.294   5.149  0.3753 -0.1591 -0.3353
  110DPPC   O14 5464   5.207   2.255   5.036  0.1513  0.2472 -0.6320
  110DPPC   C15 5465   5.163   2.143   4.973  0.1954 -0.0116 -0.1996
  110DPPC   O16 5466   5.085   2.067   5.031  0.1235  0.1772 -0.0462
  110DPPC   C17 5467   5.262   2.092   4.868  0.5362  0.3304 -0.0457
  110DPPC   C18 5468   5.192   2.102   4.732 -0.0156 -0.4447  0.1767
  110DPPC   C19 5469   5.296   2.066   4.626 -0.1217 -0.0998 -0.0494
  110DPPC   C20 5470   5.236   2.072   4.486 -0.1697 -0.0436 -0.0259
  110DPPC   C21 5471   5.327   2.025   4.372  0.1812 -0.2914  0.3519
  110DPPC   C22 5472   5.263   2.052   4.235 -0.0014 -0.3437  0.4261
  110DPPC   C23 5473   5.357   2.028   4.116 -0.1643 -0.8294  0.3928
  110DPPC   C24 5474   5.286   2.043   3.982  0.3470 -0.0911  0.1998
  110DPPC   C25 5475   5.167   1.947   3.987  0.3655 -0.1404 -0.2754
  110DPPC   C26 5476   5.133   1.916   3.841  0.2987  0.2329 -0.3395
  110DPPC   C27 5477   4.985   1.889   3.810  0.3314 -0.4717  0.1014
  110DPPC   C28 5478   4.964   1.824   3.673  0.2143  0.1471 -0.1775
  110DPPC   C29 5479   4.813   1.826   3.649  0.1588 -0.0172  0.1396
  110DPPC   C30 5480   4.768   1.824   3.502  0.3320 -0.6530  0.0934
  110DPPC   C31 5481   4.836   1.713   3.422  0.6417 -0.1986 -0.2838
  110DPPC   C32 5482   5.112   2.446   5.150 -0.1083 -0.2050 -0.0378
  110DPPC   O33 5483   5.010   2.502   5.067 -0.1490 -0.3122 -0.0606
  110DPPC   C34 5484   4.977   2.630   5.098 -0.2229 -0.4574  0.4642
  110DPPC   O35 5485   5.015   2.687   5.200  0.2111  0.4367 -0.1919
  110DPPC   C36 5486   4.874   2.694   5.005  0.3281  0.4067  0.4393
  110DPPC   C37 5487   4.944   2.771   4.893 -0.3444 -0.2315 -0.4330
  110DPPC   C38 5488   5.005   2.691   4.778  0.6150 -0.4435  0.2094
  110DPPC   C39 5489   5.048   2.781   4.662  0.0499 -0.4207  0.0169
  110DPPC   C40 5490   5.086   2.693   4.543 -0.2012 -0.1906 -0.2360
  110DPPC   C41 5491   5.129   2.768   4.417 -0.1970  0.0155 -0.1121
  110DPPC   C42 5492   5.143   2.664   4.306  0.3774  0.0289 -0.0562
  110DPPC   C43 5493   5.225   2.697   4.181  0.4410 -0.0842 -0.0452
  110DPPC   C44 5494   5.232   2.575   4.090  0.3531 -0.1489  0.0351
  110DPPC   C45 5495   5.274   2.613   3.948  0.8445  0.1483  0.2607
  110DPPC   C46 5496   5.315   2.479   3.887  0.5457 -0.1339  0.6779
  110DPPC   C47 5497   5.418   2.502   3.776 -0.4311  0.6172 -0.0820
  110DPPC   C48 5498   5.335   2.583   3.675 -0.0479  0.3813 -0.5884
  110DPPC   C49 5499   5.424   2.650   3.570  0.3922  0.1948 -0.3407
  110DPPC   C50 5500   5.325   2.722   3.478 -0.0857  0.0621  0.0599
  111DPPC    C1 5501   5.549   3.569   5.851  0.3309 -0.6425 -0.5163
  111DPPC    C2 5502   5.548   3.573   5.613  0.1854 -0.1024 -0.2343
  111DPPC    C3 5503   5.357   3.630   5.741 -0.0568 -0.0356 -0.2277
  111DPPC    N4 5504   5.503   3.644   5.733 -0.0248 -0.3270 -0.1799
  111DPPC    C5 5505   5.550   3.783   5.743  0.2955 -0.4293 -0.2513
  111DPPC    C6 5506   5.518   3.883   5.632 -0.3815  0.2885  0.5753
  111DPPC    O7 5507   5.378   3.907   5.615 -0.3121  0.1965 -0.1660
  111DPPC    P8 5508   5.365   4.028   5.510 -0.0849  0.2143 -0.1733
  111DPPC    O9 5509   5.222   4.063   5.515 -0.2192 -0.3513  0.0095
  111DPPC   O10 5510   5.488   4.098   5.553  0.0896 -0.4991  0.5105
  111DPPC   O11 5511   5.404   3.940   5.380  0.3043 -0.1442  0.1796
  111DPPC   C12 5512   5.297   3.848   5.355  0.4364 -0.2540  0.0200
  111DPPC   C13 5513   5.318   3.763   5.229  0.2216 -0.5165  0.1602
  111DPPC   O14 5514   5.418   3.660   5.226  0.5644 -0.1756 -0.2723
  111DPPC   C15 5515   5.398   3.545   5.296 -0.0884  0.3506  0.4220
  111DPPC   O16 5516   5.292   3.519   5.353 -0.0267 -0.4451  0.1745
  111DPPC   C17 5517   5.501   3.432   5.294 -0.5625 -0.0705 -0.2428
  111DPPC   C18 5518   5.614   3.444   5.192 -0.7378 -0.7171 -0.5162
  111DPPC   C19 5519   5.577   3.389   5.053 -0.4546 -0.3214 -0.7477
  111DPPC   C20 5520   5.703   3.341   4.981  0.1735  0.2226 -0.0423
  111DPPC   C21 5521   5.646   3.271   4.857 -0.1023 -0.0292  0.2240
  111DPPC   C22 5522   5.760   3.201   4.783 -0.2881  0.0870 -0.1775
  111DPPC   C23 5523   5.710   3.138   4.653 -0.1322 -0.4517  0.0241
  111DPPC   C24 5524   5.807   3.054   4.569 -0.8812 -0.4680 -0.8271
  111DPPC   C25 5525   5.900   3.154   4.500 -0.3222 -0.2561  0.2318
  111DPPC   C26 5526   5.984   3.095   4.387 -0.3378  0.0488  0.0601
  111DPPC   C27 5527   5.896   3.019   4.288  0.0318  0.3221 -0.4879
  111DPPC   C28 5528   5.999   2.951   4.198 -0.3625 -0.2055 -0.5442
  111DPPC   C29 5529   6.042   3.039   4.080  0.3366  0.4599  0.1981
  111DPPC   C30 5530   6.161   2.974   4.009 -0.2371 -0.2085 -0.1635
  111DPPC   C31 5531   6.180   3.056   3.881 -0.3772 -0.1025 -0.1168
  111DPPC   C32 5532   5.334   3.877   5.128 -0.2363 -0.3211  0.3033
  111DPPC   O33 5533   5.212   3.942   5.092  0.0979  0.5221  0.6730
  111DPPC   C34 5534   5.223   4.059   5.023 -0.3773 -0.0098 -0.3178
  111DPPC   O35 5535   5.331   4.116   5.016 -0.3885  0.0340 -0.1398
  111DPPC   C36 5536   5.100   4.116   4.952 -0.1448  0.4980 -0.3156
  111DPPC   C37 5537   5.137   4.203   4.831 -0.0815  0.2711 -0.4594
  111DPPC   C38 5538   5.012   4.266   4.770 -0.0683  0.3012 -0.4544
  111DPPC   C39 5539   5.059   4.391   4.696  0.6305  0.0919 -0.3651
  111DPPC   C40 5540   4.953   4.432   4.593  0.0299  0.1575  0.2742
  111DPPC   C41 5541   5.022   4.450   4.458 -0.3292  0.2982  0.1112
  111DPPC   C42 5542   4.924   4.510   4.356 -0.0653 -0.2258 -0.4573
  111DPPC   C43 5543   4.981   4.522   4.215  0.2390 -0.5366 -0.3632
  111DPPC   C44 5544   4.900   4.602   4.113  0.5509  0.5054  0.2019
  111DPPC   C45 5545   4.951   4.599   3.969  0.0459  0.3925  0.0238
  111DPPC   C46 5546   4.849   4.656   3.870  0.1928  0.4005 -0.1238
  111DPPC   C47 5547   4.887   4.657   3.722  0.4915  0.0945 -0.0498
  111DPPC   C48 5548   4.777   4.743   3.660  0.4260  0.1242  0.1068
  111DPPC   C49 5549   4.800   4.890   3.698  0.2056  0.1337  0.2077
  111DPPC   C50 5550   4.938   4.946   3.662  0.2962 -0.1121  0.1706
  112DPPC    C1 5551   5.864   4.371   5.422  0.2998 -0.2617 -0.2320
  112DPPC    C2 5552   5.965   4.405   5.631 -0.4773  0.2903 -0.3598
  112DPPC    C3 5553   6.050   4.520   5.443 -0.0085  0.5528 -0.3909
  112DPPC    N4 5554   5.994   4.392   5.487  0.1903  0.5127 -0.2517
  112DPPC    C5 5555   6.087   4.282   5.457  0.0196  0.4752 -0.6355
  112DPPC    C6 5556   6.028   4.143   5.480  0.3746  0.4239 -0.0294
  112DPPC    O7 5557   6.123   4.045   5.437 -0.3289 -0.1004 -0.4032
  112DPPC    P8 5558   6.087   3.893   5.476 -0.1062 -0.1347 -0.3268
  112DPPC    O9 5559   6.209   3.811   5.467 -0.2630 -0.4452  0.3298
  112DPPC   O10 5560   5.977   3.874   5.573  0.0793  0.0780 -0.0749
  112DPPC   O11 5561   6.015   3.845   5.340 -0.3776 -0.0998 -0.1972
  112DPPC   C12 5562   6.099   3.893   5.234 -0.2307  0.6422  0.2472
  112DPPC   C13 5563   6.033   3.868   5.098 -0.2735 -0.0085  0.3843
  112DPPC   O14 5564   6.116   3.920   4.993 -0.3992 -0.6969 -0.0618
  112DPPC   C15 5565   6.202   3.833   4.933 -0.3101 -0.3769 -0.4012
  112DPPC   O16 5566   6.225   3.725   4.988  0.3614 -0.0725 -0.0785
  112DPPC   C17 5567   6.273   3.870   4.803 -0.1968  0.4662 -0.1023
  112DPPC   C18 5568   6.267   3.758   4.700 -0.3203  0.3822 -0.0038
  112DPPC   C19 5569   6.363   3.785   4.584  0.0629 -0.1489  0.1831
  112DPPC   C20 5570   6.373   3.658   4.500  0.0751  0.0998 -0.1926
  112DPPC   C21 5571   6.228   3.631   4.456 -0.0522 -0.0757  0.3325
  112DPPC   C22 5572   6.233   3.542   4.332  0.2202 -0.2901  0.4948
  112DPPC   C23 5573   6.089   3.503   4.298  0.3074 -0.2165  0.0337
  112DPPC   C24 5574   6.076   3.445   4.157  0.0020  0.1378 -0.0858
  112DPPC   C25 5575   5.932   3.399   4.134  0.2834 -0.6861 -0.2062
  112DPPC   C26 5576   5.906   3.377   3.985  0.0554 -0.5259 -0.1898
  112DPPC   C27 5577   5.775   3.298   3.978 -0.0888 -0.3152  0.1344
  112DPPC   C28 5578   5.748   3.251   3.835  0.0109 -0.5780  0.2008
  112DPPC   C29 5579   5.610   3.187   3.819  0.1095 -0.8753  0.5453
  112DPPC   C30 5580   5.579   3.157   3.673  0.0881  0.0585  0.3563
  112DPPC   C31 5581   5.467   3.054   3.657  0.0297  0.1652  0.0461
  112DPPC   C32 5582   5.886   3.913   5.095 -0.3657 -0.3361 -0.0185
  112DPPC   O33 5583   5.818   3.866   4.978 -0.0661 -0.0740 -0.3001
  112DPPC   C34 5584   5.683   3.883   4.975 -0.1220 -0.3599  0.4278
  112DPPC   O35 5585   5.623   3.921   5.075 -0.1885 -0.1865  0.3218
  112DPPC   C36 5586   5.609   3.836   4.850  0.0686 -0.2410  0.2701
  112DPPC   C37 5587   5.507   3.931   4.786  0.2697 -0.3881 -0.2765
  112DPPC   C38 5588   5.428   3.841   4.690 -0.1643 -0.1065 -0.1835
  112DPPC   C39 5589   5.300   3.909   4.643 -0.8128 -0.9967  0.2683
  112DPPC   C40 5590   5.305   3.943   4.493 -0.9595  0.0291  0.4852
  112DPPC   C41 5591   5.192   4.038   4.454 -0.7989  0.2502  0.5556
  112DPPC   C42 5592   5.219   4.067   4.306  0.0478 -0.0380  0.6481
  112DPPC   C43 5593   5.114   4.163   4.249  0.0829 -0.0533  0.5568
  112DPPC   C44 5594   4.974   4.105   4.273 -0.0892  0.2055  0.1961
  112DPPC   C45 5595   4.931   4.017   4.155 -0.1312 -0.2164  0.5202
  112DPPC   C46 5596   4.936   4.095   4.023  0.1523 -0.4717  0.3801
  112DPPC   C47 5597   4.887   3.997   3.916 -1.1366  0.3554  0.1885
  112DPPC   C48 5598   4.899   4.055   3.775 -0.1115 -0.4797 -0.0797
  112DPPC   C49 5599   4.873   3.937   3.681 -0.3009 -0.3825 -0.1503
  112DPPC   C50 5600   4.898   3.970   3.534  0.5178 -0.8818 -0.1294
  113DPPC    C1 5601   2.711   5.427   5.384 -0.3319 -0.8875 -0.0894
  113DPPC    C2 5602   2.864   5.539   5.225 -0.3064 -0.3592  0.6732
  113DPPC    C3 5603   2.630   5.578   5.240 -0.1579 -0.2078 -0.3041
  113DPPC    N4 5604   2.734   5.474   5.246 -0.3813 -0.4150  0.0605
  113DPPC    C5 5605   2.696   5.363   5.157 -0.9363 -0.2472  0.0848
  113DPPC    C6 5606   2.697   5.397   5.008 -0.6039  0.2714  0.2022
  113DPPC    O7 5607   2.651   5.289   4.927 -0.2156 -0.1295  0.5097
  113DPPC    P8 5608   2.623   5.363   4.786  0.2665  0.2175  0.5943
  113DPPC    O9 5609   2.554   5.487   4.828  0.0405  0.3306 -0.1055
  113DPPC   O10 5610   2.751   5.337   4.717 -0.3302 -0.2161 -0.3648
  113DPPC   O11 5611   2.512   5.260   4.732  0.1079  0.3057  0.7507
  113DPPC   C12 5612   2.583   5.137   4.719 -0.1276  0.1253  1.1307
  113DPPC   C13 5613   2.496   5.025   4.661  0.5443  0.5208 -0.7194
  113DPPC   O14 5614   2.576   4.918   4.607  0.3940  0.2154 -0.3395
  113DPPC   C15 5615   2.521   4.795   4.623 -0.4803  0.5926 -0.3846
  113DPPC   O16 5616   2.462   4.763   4.725  0.3985  0.2410  0.0252
  113DPPC   C17 5617   2.535   4.695   4.508  0.2777 -0.1756  0.3621
  113DPPC   C18 5618   2.416   4.601   4.488  0.0511  0.1987 -0.0626
  113DPPC   C19 5619   2.435   4.516   4.363  0.4383 -0.2677  0.3094
  113DPPC   C20 5620   2.320   4.431   4.309  0.7182 -0.5006  0.0726
  113DPPC   C21 5621   2.317   4.460   4.159 -0.2729 -0.2351  0.1358
  113DPPC   C22 5622   2.225   4.582   4.145  0.3201  0.2104  0.0878
  113DPPC   C23 5623   2.237   4.637   4.003  0.2655 -0.7650 -0.3013
  113DPPC   C24 5624   2.382   4.682   3.985  0.0970 -0.3223 -0.5638
  113DPPC   C25 5625   2.400   4.763   3.856 -0.2106  0.7567  0.0589
  113DPPC   C26 5626   2.546   4.787   3.820 -0.1564  0.5895  0.1679
  113DPPC   C27 5627   2.579   4.840   3.680  0.3306  0.0042  0.0516
  113DPPC   C28 5628   2.559   4.741   3.566 -0.2463  0.4702 -0.2586
  113DPPC   C29 5629   2.629   4.795   3.441  0.3317 -0.3630 -0.3003
  113DPPC   C30 5630   2.666   4.682   3.344 -0.2113 -0.3309 -0.5452
  113DPPC   C31 5631   2.535   4.617   3.299 -0.3144 -0.3259 -0.2506
  113DPPC   C32 5632   2.420   5.091   4.546 -0.0731 -0.2898 -0.7816
  113DPPC   O33 5633   2.308   5.020   4.492 -0.1468 -0.6992 -0.1068
  113DPPC   C34 5634   2.263   5.076   4.376  0.0859 -0.4301 -0.0675
  113DPPC   O35 5635   2.336   5.143   4.304  0.3168 -0.6425 -0.0323
  113DPPC   C36 5636   2.136   5.011   4.321 -0.0320 -0.3766  0.1363
  113DPPC   C37 5637   2.002   5.080   4.344  0.4293  0.3521  0.6872
  113DPPC   C38 5638   1.886   4.984   4.314  0.6418  0.1547  0.4977
  113DPPC   C39 5639   1.892   4.938   4.168  0.1447 -0.0425  0.5398
  113DPPC   C40 5640   1.785   5.010   4.085  0.0573 -0.1469  0.5609
  113DPPC   C41 5641   1.649   4.991   4.152 -0.0442 -0.5552  0.2407
  113DPPC   C42 5642   1.550   5.006   4.036  0.1073 -0.7734  0.0841
  113DPPC   C43 5643   1.410   5.022   4.094 -0.0156 -0.3490 -0.3290
  113DPPC   C44 5644   1.346   4.888   4.130  0.3788 -0.4353  0.0520
  113DPPC   C45 5645   1.198   4.918   4.155  0.5823  0.4200  0.2640
  113DPPC   C46 5646   1.145   5.004   4.041 -0.1414 -0.5014 -0.1111
  113DPPC   C47 5647   0.993   5.024   4.047 -0.0736 -0.1399  0.5103
  113DPPC   C48 5648   0.947   5.116   3.934  0.2075 -0.7144 -0.0817
  113DPPC   C49 5649   0.803   5.167   3.945  0.4729  0.0521 -0.0456
  113DPPC   C50 5650   0.803   5.271   4.057  0.1207 -0.1615  0.1536
  114DPPC    C1 5651   4.549   6.028   5.377  0.5840 -0.1783  0.2125
  114DPPC    C2 5652   4.597   5.903   5.187 -0.1304 -0.1427  0.6666
  114DPPC    C3 5653   4.509   6.125   5.156  0.9887  0.7990 -0.3439
  114DPPC    N4 5654   4.597   6.040   5.238 -0.0078  0.0976  0.0304
  114DPPC    C5 5655   4.738   6.082   5.231  0.0398 -0.1257 -0.3698
  114DPPC    C6 5656   4.776   6.223   5.182 -0.2668  0.0471 -0.1144
  114DPPC    O7 5657   4.773   6.237   5.040 -0.2442  0.1986 -0.0999
  114DPPC    P8 5658   4.835   6.380   5.001 -0.0773  0.2010  0.1703
  114DPPC    O9 5659   4.720   6.473   5.012 -0.1251  0.1773 -0.1091
  114DPPC   O10 5660   4.955   6.411   5.081 -0.3417  0.4410  0.4737
  114DPPC   O11 5661   4.871   6.344   4.848 -0.3246 -0.2175  0.2080
  114DPPC   C12 5662   4.974   6.250   4.817 -0.3781 -0.2695  0.1882
  114DPPC   C13 5663   5.019   6.245   4.671 -0.2973  0.2154  0.1960
  114DPPC   O14 5664   5.144   6.179   4.653 -0.5587 -0.1591 -0.2740
  114DPPC   C15 5665   5.130   6.044   4.644  0.1011 -0.2398 -0.1448
  114DPPC   O16 5666   5.024   5.993   4.679 -0.2610  0.6325  0.0374
  114DPPC   C17 5667   5.269   5.978   4.639  0.2459  0.1152 -0.9344
  114DPPC   C18 5668   5.241   5.830   4.611 -0.1020  0.0002 -0.0221
  114DPPC   C19 5669   5.368   5.757   4.653 -0.0128 -0.0500 -0.3731
  114DPPC   C20 5670   5.359   5.612   4.606 -0.0725 -0.2757  0.3203
  114DPPC   C21 5671   5.483   5.536   4.653 -0.0598 -0.5261 -0.1097
  114DPPC   C22 5672   5.493   5.408   4.570 -0.4494 -0.3093 -0.4976
  114DPPC   C23 5673   5.375   5.320   4.612 -0.5597  0.0683 -0.0072
  114DPPC   C24 5674   5.359   5.191   4.530 -1.0781  0.0730  0.0850
  114DPPC   C25 5675   5.325   5.240   4.389 -0.2117 -0.2083 -0.2268
  114DPPC   C26 5676   5.331   5.130   4.283  0.0404 -0.4868  0.0731
  114DPPC   C27 5677   5.366   5.184   4.144  0.4435 -0.1184  0.3190
  114DPPC   C28 5678   5.501   5.256   4.148 -0.0652  0.8241  0.8660
  114DPPC   C29 5679   5.539   5.333   4.022  0.5883 -0.6564  0.1367
  114DPPC   C30 5680   5.656   5.426   4.058  0.0218  0.3133 -0.4766
  114DPPC   C31 5681   5.795   5.370   4.086 -0.3361 -0.4473 -0.1870
  114DPPC   C32 5682   5.014   6.383   4.606  0.2993  0.4043  0.5493
  114DPPC   O33 5683   5.009   6.388   4.463  0.2095  0.1836  0.5455
  114DPPC   C34 5684   5.011   6.513   4.409 -0.0627 -0.2610 -0.5299
  114DPPC   O35 5685   4.999   6.611   4.482 -0.0277 -0.3832 -0.3582
  114DPPC   C36 5686   5.000   6.511   4.257  0.5767 -0.4457 -0.5779
  114DPPC   C37 5687   5.135   6.494   4.185  0.6346 -0.2068 -0.5265
  114DPPC   C38 5688   5.096   6.493   4.037 -0.0432 -0.2657 -0.3548
  114DPPC   C39 5689   5.213   6.458   3.944  0.0823 -0.8017 -0.0033
  114DPPC   C40 5690   5.166   6.454   3.799  0.1516  0.1649 -0.0623
  114DPPC   C41 5691   5.045   6.362   3.777 -0.0155  0.2751  0.3841
  114DPPC   C42 5692   5.042   6.341   3.626  0.1807 -0.3369  0.4589
  114DPPC   C43 5693   4.920   6.261   3.581 -0.0484  0.1787  0.1556
  114DPPC   C44 5694   4.884   6.279   3.433 -0.5379  0.1287  0.2659
  114DPPC   C45 5695   4.792   6.165   3.390 -0.0531 -0.0420 -0.3305
  114DPPC   C46 5696   4.775   6.173   3.238 -0.0289  0.4461 -0.3085
  114DPPC   C47 5697   4.915   6.145   3.183 -0.1939 -0.4400 -0.2928
  114DPPC   C48 5698   4.935   6.139   3.031 -0.0008 -0.3258 -0.2726
  114DPPC   C49 5699   4.939   6.275   2.962  0.2676  0.3016  0.9510
  114DPPC   C50 5700   4.946   6.256   2.810 -0.1852  0.5521  0.8933
  115DPPC    C1 5701   2.286   6.221   5.160  0.4171 -0.5150  0.9871
  115DPPC    C2 5702   2.117   6.088   5.212 -0.1783 -0.1920 -0.3311
  115DPPC    C3 5703   2.136   6.290   5.335 -0.0546  0.0871 -0.1301
  115DPPC    N4 5704   2.145   6.232   5.200  0.1591 -0.2266  0.0177
  115DPPC    C5 5705   2.058   6.305   5.106 -0.1390 -0.1087  0.3811
  115DPPC    C6 5706   2.070   6.455   5.082  0.1783 -0.2218 -0.1771
  115DPPC    O7 5707   2.200   6.481   5.028 -0.0510 -0.0174 -0.6441
  115DPPC    P8 5708   2.200   6.636   4.986  0.4165  0.2092  0.1622
  115DPPC    O9 5709   2.141   6.709   5.101 -0.3141 -0.4459  0.2164
  115DPPC   O10 5710   2.334   6.661   4.929  0.3257 -0.1809 -0.2307
  115DPPC   O11 5711   2.081   6.627   4.877  0.2126 -0.1899  0.4158
  115DPPC   C12 5712   2.153   6.625   4.754 -0.0407  0.0629  0.2621
  115DPPC   C13 5713   2.055   6.615   4.637  0.0662 -0.3349  0.2024
  115DPPC   O14 5714   2.110   6.620   4.505 -0.0299 -0.5296  0.1556
  115DPPC   C15 5715   2.157   6.733   4.446 -0.5515 -0.2689  0.2325
  115DPPC   O16 5716   2.172   6.836   4.513  0.0496  0.1757 -0.5694
  115DPPC   C17 5717   2.215   6.736   4.305 -0.4034  0.3061  0.3021
  115DPPC   C18 5718   2.202   6.872   4.235 -0.2033  0.0306 -0.2774
  115DPPC   C19 5719   2.258   6.884   4.093  0.2082 -0.2764 -0.1450
  115DPPC   C20 5720   2.260   7.027   4.038 -0.1965 -0.0982  0.2865
  115DPPC   C21 5721   2.358   7.028   3.920  0.1323 -0.3576  0.5546
  115DPPC   C22 5722   2.286   6.962   3.802 -0.1211  0.8691  0.0089
  115DPPC   C23 5723   2.377   6.927   3.684  0.0274  0.0199  0.3709
  115DPPC   C24 5724   2.485   6.822   3.714 -0.1841 -0.1670  0.4761
  115DPPC   C25 5725   2.582   6.777   3.605 -0.5000  0.6727 -0.1548
  115DPPC   C26 5726   2.687   6.684   3.664 -0.1432  0.7154 -0.7140
  115DPPC   C27 5727   2.793   6.672   3.554  0.4333  0.3714 -0.1288
  115DPPC   C28 5728   2.728   6.628   3.423 -0.0202  0.3897  0.0888
  115DPPC   C29 5729   2.819   6.661   3.305 -0.3822  0.2194 -0.2423
  115DPPC   C30 5730   2.774   6.596   3.174 -0.4263  0.5082 -0.3723
  115DPPC   C31 5731   2.876   6.628   3.066  0.2039  0.8678  0.3216
  115DPPC   C32 5732   1.949   6.723   4.662  0.2507 -0.1766  0.3027
  115DPPC   O33 5733   1.833   6.732   4.579  0.4484 -0.4347  0.0004
  115DPPC   C34 5734   1.743   6.631   4.595 -0.3050  0.2656  0.2414
  115DPPC   O35 5735   1.749   6.568   4.701 -0.0389 -0.2267 -0.0630
  115DPPC   C36 5736   1.633   6.619   4.490  0.0247 -0.2725 -0.0467
  115DPPC   C37 5737   1.694   6.627   4.349 -0.1695  0.3125 -0.0992
  115DPPC   C38 5738   1.583   6.656   4.248 -0.5662 -0.6856  0.0332
  115DPPC   C39 5739   1.653   6.648   4.113  0.1190 -0.7047  0.3831
  115DPPC   C40 5740   1.536   6.658   4.014  0.3415 -0.1079  0.1769
  115DPPC   C41 5741   1.589   6.621   3.875  0.2262 -0.3676  0.2014
  115DPPC   C42 5742   1.474   6.638   3.776  0.4080  0.7438  0.1698
  115DPPC   C43 5743   1.527   6.589   3.641  0.0062  0.6816  0.0345
  115DPPC   C44 5744   1.406   6.603   3.547 -0.5009 -0.2316  0.5444
  115DPPC   C45 5745   1.343   6.742   3.546  0.4149  0.1893  0.3548
  115DPPC   C46 5746   1.446   6.849   3.511  0.3860  0.1082  0.0188
  115DPPC   C47 5747   1.505   6.844   3.370  1.1135  0.0953  0.3203
  115DPPC   C48 5748   1.592   6.969   3.352  0.6876  0.4279  0.5471
  115DPPC   C49 5749   1.625   6.980   3.203  0.1549  0.0122  0.3949
  115DPPC   C50 5750   1.719   7.097   3.173 -0.1878  0.1155 -0.3165
  116DPPC    C1 5751   5.291   0.670   4.956 -0.1020 -1.1653 -0.6435
  116DPPC    C2 5752   5.500   0.618   5.053  0.4596  0.9492  0.0129
  116DPPC    C3 5753   5.490   0.759   4.858 -0.2757  0.2890  0.2295
  116DPPC    N4 5754   5.425   0.724   4.984 -0.7165  0.0858 -0.0519
  116DPPC    C5 5755   5.426   0.829   5.088  0.4828  0.3507 -0.3227
  116DPPC    C6 5756   5.356   0.960   5.050 -0.4303  0.0139  0.1759
  116DPPC    O7 5757   5.215   0.957   5.072 -0.4692 -0.3278 -0.1168
  116DPPC    P8 5758   5.162   1.106   5.040  0.2130 -0.0470  0.0539
  116DPPC    O9 5759   5.018   1.113   5.072  0.0526 -0.7842 -0.4829
  116DPPC   O10 5760   5.265   1.198   5.094  0.5430 -0.6453  0.4629
  116DPPC   O11 5761   5.163   1.115   4.880  0.0636  0.0259  0.0574
  116DPPC   C12 5762   5.050   1.047   4.825  0.1781  0.1035 -0.2797
  116DPPC   C13 5763   5.048   1.066   4.673 -0.3841  0.2103 -0.2610
  116DPPC   O14 5764   5.090   0.953   4.597  0.0260 -0.0905  0.4039
  116DPPC   C15 5765   5.215   0.899   4.613  0.4576  0.7070 -0.2229
  116DPPC   O16 5766   5.292   0.935   4.702 -0.1362  0.2640  0.4837
  116DPPC   C17 5767   5.255   0.792   4.512  0.0863  0.4952 -0.1473
  116DPPC   C18 5768   5.166   0.788   4.387 -0.1938  0.1707  0.0611
  116DPPC   C19 5769   5.208   0.678   4.290 -0.5915 -0.2477  0.3567
  116DPPC   C20 5770   5.100   0.665   4.183 -0.1753 -0.4772 -0.0422
  116DPPC   C21 5771   5.147   0.591   4.058  0.0810  0.0155 -0.2389
  116DPPC   C22 5772   5.050   0.575   3.941  0.2765 -0.2744 -0.3616
  116DPPC   C23 5773   5.136   0.508   3.834  0.5490 -0.2655 -0.1491
  116DPPC   C24 5774   5.042   0.471   3.718  0.0575 -0.1710  0.2169
  116DPPC   C25 5775   4.994   0.605   3.662  0.4230 -0.0619  0.1590
  116DPPC   C26 5776   4.941   0.585   3.520 -0.0765  0.2896  0.2946
  116DPPC   C27 5777   4.887   0.714   3.457  0.4883  0.1047 -0.5853
  116DPPC   C28 5778   4.834   0.702   3.314 -0.1160  0.2533 -0.3761
  116DPPC   C29 5779   4.722   0.598   3.309  0.5677 -0.5534  0.5819
  116DPPC   C30 5780   4.690   0.561   3.164 -0.0189  0.5250  0.4246
  116DPPC   C31 5781   4.665   0.691   3.087  0.0259  0.2584 -0.0418
  116DPPC   C32 5782   5.117   1.200   4.645  0.0317  0.0262 -0.1302
  116DPPC   O33 5783   5.076   1.257   4.520  0.0235  0.2167 -0.0415
  116DPPC   C34 5784   4.949   1.304   4.514 -0.1642 -0.2884 -0.0915
  116DPPC   O35 5785   4.878   1.310   4.614 -0.2189 -0.0956 -0.1411
  116DPPC   C36 5786   4.926   1.381   4.384  0.7774  0.0620 -0.0576
  116DPPC   C37 5787   4.900   1.304   4.255  0.0078  0.3997 -0.1141
  116DPPC   C38 5788   4.987   1.183   4.220 -0.1106  0.3422 -0.2078
  116DPPC   C39 5789   4.950   1.132   4.080 -0.3734 -0.0214 -0.0080
  116DPPC   C40 5790   5.024   1.003   4.046 -0.8330 -0.3492  0.2231
  116DPPC   C41 5791   4.949   0.958   3.920 -0.0286 -0.2106 -0.3073
  116DPPC   C42 5792   4.973   1.062   3.810  0.7122 -0.0908 -0.0401
  116DPPC   C43 5793   4.898   1.021   3.683  0.2465 -0.2585  0.2898
  116DPPC   C44 5794   4.926   1.125   3.574  0.0722 -0.3630  0.1451
  116DPPC   C45 5795   4.843   1.092   3.450  0.7541 -0.3329 -0.3242
  116DPPC   C46 5796   4.875   1.179   3.328  0.1942  0.2463 -0.0656
  116DPPC   C47 5797   4.783   1.127   3.218 -0.1859  0.0659  0.3307
  116DPPC   C48 5798   4.815   1.194   3.084 -0.1282  0.5915  0.6034
  116DPPC   C49 5799   4.947   1.154   3.017 -0.4409 -0.0337  0.3499
  116DPPC   C50 5800   4.955   1.236   2.888  0.4081 -0.5040  0.1005
  117DPPC    C1 5801   0.737   5.605   4.592  0.1403 -0.3279  0.3563
  117DPPC    C2 5802   0.653   5.500   4.780 -0.4382  0.4922  0.5413
  117DPPC    C3 5803   0.556   5.696   4.699 -0.3711  0.3299 -0.1230
  117DPPC    N4 5804   0.686   5.633   4.727 -0.4233  0.2831  0.0180
  117DPPC    C5 5805   0.762   5.721   4.817  0.2233 -0.0778 -0.1678
  117DPPC    C6 5806   0.913   5.708   4.798  0.2268  0.4791 -0.5744
  117DPPC    O7 5807   0.966   5.577   4.822 -0.3639  0.2798 -0.3191
  117DPPC    P8 5808   1.117   5.576   4.765 -0.2242  0.2352  0.0503
  117DPPC    O9 5809   1.172   5.713   4.769 -0.1568  0.2035  0.2560
  117DPPC   O10 5810   1.178   5.464   4.840 -0.8314 -0.0775  0.0819
  117DPPC   O11 5811   1.082   5.523   4.617 -0.4367 -0.3224  0.2963
  117DPPC   C12 5812   1.093   5.381   4.615 -0.3202 -0.3143  0.3874
  117DPPC   C13 5813   1.099   5.325   4.473  0.6152 -0.1846  0.3662
  117DPPC   O14 5814   1.075   5.184   4.466 -0.4508  0.0088 -0.1646
  117DPPC   C15 5815   0.952   5.160   4.413 -0.5264 -0.1834  0.0975
  117DPPC   O16 5816   0.872   5.252   4.407 -0.2871  0.0774  0.8476
  117DPPC   C17 5817   0.915   5.012   4.402  0.1157 -0.2778 -0.9015
  117DPPC   C18 5818   0.771   4.995   4.352  0.0302 -0.8582 -0.4689
  117DPPC   C19 5819   0.710   4.857   4.373  0.1363 -0.7436  0.6591
  117DPPC   C20 5820   0.563   4.871   4.334  0.2211 -0.2219  0.5275
  117DPPC   C21 5821   0.485   4.741   4.310 -0.3119  0.3059 -0.7013
  117DPPC   C22 5822   0.336   4.755   4.280 -0.4009 -0.0927 -0.4560
  117DPPC   C23 5823   0.277   4.615   4.263 -0.8507  0.0495 -0.0657
  117DPPC   C24 5824   0.330   4.552   4.135  0.3339 -0.3766  0.6154
  117DPPC   C25 5825   0.295   4.403   4.123  0.1666 -0.2747 -0.2120
  117DPPC   C26 5826   0.145   4.392   4.149  0.0746  0.3621 -0.4358
  117DPPC   C27 5827   0.120   4.245   4.115 -0.0909  0.3180 -0.1362
  117DPPC   C28 5828   0.197   4.142   4.197 -0.2840  0.4565  0.2180
  117DPPC   C29 5829   0.146   4.003   4.160  0.3361  0.1945  0.3210
  117DPPC   C30 5830   0.156   3.987   4.008 -0.0515  0.1009  0.3033
  117DPPC   C31 5831   0.129   3.840   3.976 -0.2942  0.2138 -0.0113
  117DPPC   C32 5832   1.227   5.367   4.401  0.2424 -0.0347 -0.2277
  117DPPC   O33 5833   1.214   5.381   4.260 -0.0044  0.4961 -0.1538
  117DPPC   C34 5834   1.338   5.375   4.203 -0.1423 -0.2325 -0.3847
  117DPPC   O35 5835   1.441   5.371   4.269 -0.2565 -0.0785 -0.1963
  117DPPC   C36 5836   1.333   5.380   4.050  0.2798 -0.2684 -0.3993
  117DPPC   C37 5837   1.207   5.445   3.992  0.1068 -0.2079  0.0408
  117DPPC   C38 5838   1.232   5.481   3.845 -0.0105 -0.2373  0.0136
  117DPPC   C39 5839   1.271   5.354   3.769  0.3687  0.1921 -0.5147
  117DPPC   C40 5840   1.260   5.356   3.617 -0.2090  0.0519 -0.4758
  117DPPC   C41 5841   1.293   5.214   3.571  0.0131  0.2249 -0.8552
  117DPPC   C42 5842   1.194   5.115   3.632  0.7189 -0.1926 -0.3802
  117DPPC   C43 5843   1.214   4.971   3.584 -0.1506 -0.2703 -0.5238
  117DPPC   C44 5844   1.094   4.879   3.610 -0.1523 -0.1210  0.0187
  117DPPC   C45 5845   0.968   4.929   3.541 -0.1238 -0.2221 -0.1079
  117DPPC   C46 5846   0.981   4.931   3.388 -0.0114 -0.1726 -0.0974
  117DPPC   C47 5847   0.869   5.009   3.319 -0.1942 -0.1701  0.2005
  117DPPC   C48 5848   0.735   4.951   3.362 -0.1922  0.0797  0.5490
  117DPPC   C49 5849   0.628   5.054   3.324 -0.3058 -0.0918  0.4023
  117DPPC   C50 5850   0.631   5.079   3.174  0.1236  0.3153  0.4747
  118DPPC    C1 5851   1.201   0.166   5.012 -0.1352 -0.0064  0.0067
  118DPPC    C2 5852   1.167   0.124   4.776 -0.5292 -0.1952 -0.5569
  118DPPC    C3 5853   1.036   0.280   4.879 -0.1324 -0.2782 -0.2659
  118DPPC    N4 5854   1.101   0.151   4.905  0.1350 -0.1359 -0.2277
  118DPPC    C5 5855   0.985   0.070   4.943  0.1846 -0.1418 -0.0904
  118DPPC    C6 5856   0.998  -0.083   4.942  0.3663 -0.1247 -0.3485
  118DPPC    O7 5857   0.997  -0.148   4.815 -0.0976  0.1064 -0.4679
  118DPPC    P8 5858   0.995  -0.309   4.813 -0.2353  0.1055 -0.2316
  118DPPC    O9 5859   1.002  -0.354   4.954  0.0481 -0.5712 -0.4540
  118DPPC   O10 5860   0.890  -0.357   4.720 -0.2717  0.0411 -0.1576
  118DPPC   O11 5861   1.142  -0.335   4.751 -0.4580 -0.9803 -0.3301
  118DPPC   C12 5862   1.127  -0.295   4.615  0.2497  1.3526  0.2251
  118DPPC   C13 5863   1.254  -0.316   4.533  0.1195  0.2128  0.3038
  118DPPC   O14 5864   1.260  -0.226   4.422  0.0597 -0.3252 -0.1410
  118DPPC   C15 5865   1.311  -0.105   4.455  0.3348 -0.3630 -0.4239
  118DPPC   O16 5866   1.347  -0.092   4.572 -0.0459 -0.0696 -0.3392
  118DPPC   C17 5867   1.323  -0.001   4.343  0.4920 -0.6347 -0.6619
  118DPPC   C18 5868   1.199   0.000   4.253  0.0019  0.1140  0.0026
  118DPPC   C19 5869   1.215   0.095   4.134  0.3625 -0.3298 -0.3062
  118DPPC   C20 5870   1.099   0.069   4.037 -0.2447  0.2822  0.2487
  118DPPC   C21 5871   1.104   0.186   3.938  0.0399 -0.1630 -0.2664
  118DPPC   C22 5872   0.977   0.159   3.858 -0.0754  0.0463 -0.1549
  118DPPC   C23 5873   0.959   0.275   3.760 -0.0509  0.6864  0.5872
  118DPPC   C24 5874   0.820   0.268   3.697  0.1868 -0.8196  0.1873
  118DPPC   C25 5875   0.706   0.303   3.794 -0.1691 -0.0056 -0.5103
  118DPPC   C26 5876   0.566   0.301   3.732 -0.5398  0.5095  0.3039
  118DPPC   C27 5877   0.588   0.399   3.616  0.0366 -0.1259 -0.1317
  118DPPC   C28 5878   0.454   0.393   3.542  0.0180 -0.2743 -0.0856
  118DPPC   C29 5879   0.439   0.505   3.440 -0.3920 -0.2874 -0.0422
  118DPPC   C30 5880   0.304   0.501   3.368 -0.1579  0.1129 -0.5090
  118DPPC   C31 5881   0.308   0.592   3.245  0.1191 -0.4817 -0.9435
  118DPPC   C32 5882   1.248  -0.464   4.492 -0.0249  0.2426  0.2198
  118DPPC   O33 5883   1.134  -0.510   4.419  0.4542 -0.1418 -0.2864
  118DPPC   C34 5884   1.155  -0.639   4.381 -0.1305 -0.2258 -0.3293
  118DPPC   O35 5885   1.263  -0.696   4.391 -0.0755 -0.2265 -0.8737
  118DPPC   C36 5886   1.039  -0.699   4.300 -0.4106 -0.1854  0.0371
  118DPPC   C37 5887   1.048  -0.672   4.150 -0.5038 -0.0415  0.0570
  118DPPC   C38 5888   1.061  -0.523   4.115 -0.0168 -0.0080  0.3849
  118DPPC   C39 5889   1.048  -0.488   3.967  0.1617 -0.3282  0.2921
  118DPPC   C40 5890   0.909  -0.518   3.910 -0.0369  0.6077  0.2598
  118DPPC   C41 5891   0.912  -0.494   3.759  0.5070  0.3377  0.2237
  118DPPC   C42 5892   0.772  -0.521   3.705  0.3927  0.5215  0.4260
  118DPPC   C43 5893   0.764  -0.484   3.557  0.0788 -0.2335  0.2439
  118DPPC   C44 5894   0.631  -0.479   3.483  0.2977 -0.4073 -0.1667
  118DPPC   C45 5895   0.663  -0.439   3.340  0.2016  1.0806  0.2166
  118DPPC   C46 5896   0.536  -0.437   3.255  0.3144  0.1575  0.0193
  118DPPC   C47 5897   0.563  -0.378   3.116  0.1808 -0.0348 -0.0879
  118DPPC   C48 5898   0.630  -0.241   3.127 -0.4584  0.2675  0.1006
  118DPPC   C49 5899   0.644  -0.181   2.987 -0.4511  0.0370  0.0016
  118DPPC   C50 5900   0.723  -0.263   2.885 -0.0524  0.7102 -0.2396
  119DPPC    C1 5901   1.887   0.713   4.905 -0.3504 -0.2763 -0.3555
  119DPPC    C2 5902   1.755   0.792   5.063  0.6898  0.5814  0.2888
  119DPPC    C3 5903   1.813   0.953   4.909 -0.5457  0.3413  0.1343
  119DPPC    N4 5904   1.778   0.810   4.919  0.1113  0.1734  0.1433
  119DPPC    C5 5905   1.645   0.794   4.858  0.1678  0.3663 -0.0323
  119DPPC    C6 5906   1.614   0.651   4.814  0.0058  0.2652  0.4051
  119DPPC    O7 5907   1.493   0.613   4.880 -0.0791 -0.0432  0.0729
  119DPPC    P8 5908   1.463   0.463   4.828 -0.2451 -0.0240  0.1144
  119DPPC    O9 5909   1.582   0.378   4.846 -0.3520 -0.2785 -0.3689
  119DPPC   O10 5910   1.339   0.429   4.902 -0.4671  0.1657 -0.1687
  119DPPC   O11 5911   1.435   0.495   4.673 -0.4244 -0.6653  0.0124
  119DPPC   C12 5912   1.295   0.512   4.646 -0.3488  0.0803  0.0557
  119DPPC   C13 5913   1.261   0.577   4.512 -0.2471 -0.1469 -0.0824
  119DPPC   O14 5914   1.122   0.609   4.495 -0.3352 -0.4395  0.0825
  119DPPC   C15 5915   1.082   0.717   4.423  0.0181 -0.1736  0.2812
  119DPPC   O16 5916   1.142   0.824   4.434  0.7614 -0.5328 -0.2400
  119DPPC   C17 5917   0.933   0.717   4.386  0.1469  0.1007 -0.2436
  119DPPC   C18 5918   0.905   0.617   4.273  0.3855 -0.0731 -0.1492
  119DPPC   C19 5919   0.759   0.574   4.258  0.2526  0.1981  0.3264
  119DPPC   C20 5920   0.745   0.444   4.178  0.4854 -0.1027  0.7702
  119DPPC   C21 5921   0.602   0.390   4.184  0.2636  0.4370  0.4361
  119DPPC   C22 5922   0.516   0.484   4.100  0.0769 -0.4506 -0.3743
  119DPPC   C23 5923   0.380   0.436   4.048 -0.1154 -0.1103 -0.1852
  119DPPC   C24 5924   0.336   0.507   3.920 -1.0440  0.2845  0.3371
  119DPPC   C25 5925   0.199   0.449   3.883 -0.5121 -0.4197 -0.5784
  119DPPC   C26 5926   0.115   0.546   3.801 -0.2320 -0.1671 -0.5695
  119DPPC   C27 5927   0.077   0.676   3.873  0.6653  0.1712 -0.6886
  119DPPC   C28 5928   0.021   0.780   3.777  0.3987  0.5100 -0.1696
  119DPPC   C29 5929  -0.062   0.893   3.839 -0.2457  0.0609 -0.1954
  119DPPC   C30 5930  -0.118   0.978   3.724  0.4154  0.3080 -0.3414
  119DPPC   C31 5931  -0.202   1.103   3.749  0.1678  0.0185  0.2815
  119DPPC   C32 5932   1.318   0.477   4.412 -0.2645 -0.3360  0.0977
  119DPPC   O33 5933   1.312   0.503   4.272  0.6434  0.4473  0.1946
  119DPPC   C34 5934   1.405   0.591   4.225  0.2252  0.6876 -0.1904
  119DPPC   O35 5935   1.501   0.624   4.294  0.4830 -0.4802  0.0288
  119DPPC   C36 5936   1.381   0.647   4.085  0.1855  0.4011 -0.2998
  119DPPC   C37 5937   1.236   0.619   4.045  0.3517 -0.5935 -0.2345
  119DPPC   C38 5938   1.217   0.640   3.894  0.6856 -0.6756 -0.2875
  119DPPC   C39 5939   1.072   0.667   3.855  0.5477 -0.5870  0.2748
  119DPPC   C40 5940   1.063   0.671   3.702  0.0550 -0.4833  0.3037
  119DPPC   C41 5941   0.920   0.706   3.662  0.1201 -0.0818  0.4178
  119DPPC   C42 5942   0.919   0.719   3.509 -0.4351 -0.6493  0.3698
  119DPPC   C43 5943   0.780   0.754   3.457 -0.1356 -0.4823 -0.3255
  119DPPC   C44 5944   0.797   0.744   3.305 -0.4103 -0.2257 -0.3725
  119DPPC   C45 5945   0.659   0.759   3.239 -0.3027  0.1552 -0.5123
  119DPPC   C46 5946   0.673   0.717   3.093  0.4736  0.1906 -0.4549
  119DPPC   C47 5947   0.721   0.572   3.089  0.3758  0.1485 -0.0990
  119DPPC   C48 5948   0.771   0.519   2.954 -0.1828  0.1682 -0.3130
  119DPPC   C49 5949   0.848   0.388   2.968 -0.1819  0.1809 -0.1957
  119DPPC   C50 5950   0.960   0.404   3.071 -0.3700  0.0448  0.0328
  120DPPC    C1 5951   0.405   0.850   5.655 -0.2168 -0.2228  0.3551
  120DPPC    C2 5952   0.477   0.672   5.526  0.1570 -0.0051  0.3471
  120DPPC    C3 5953   0.604   0.870   5.506  0.0582 -0.6164 -0.4110
  120DPPC    N4 5954   0.467   0.818   5.526 -0.0650 -0.0187  0.3776
  120DPPC    C5 5955   0.378   0.854   5.414  0.2954  0.5018  0.2531
  120DPPC    C6 5956   0.380   1.001   5.372 -0.4325  0.3429 -0.3505
  120DPPC    O7 5957   0.380   1.010   5.229 -0.1752 -0.0676 -0.3807
  120DPPC    P8 5958   0.438   1.159   5.210  0.1068 -0.1001  0.2229
  120DPPC    O9 5959   0.369   1.245   5.310 -0.2772 -0.8099  0.5769
  120DPPC   O10 5960   0.582   1.128   5.224  0.3280  1.0916  0.7272
  120DPPC   O11 5961   0.393   1.193   5.059  0.0442 -0.4506  0.1631
  120DPPC   C12 5962   0.506   1.164   4.976 -0.0226 -0.7601  0.1785
  120DPPC   C13 5963   0.475   1.191   4.829 -0.2846 -0.5012  0.2806
  120DPPC   O14 5964   0.587   1.177   4.740 -0.3289 -0.1133  0.1603
  120DPPC   C15 5965   0.636   1.055   4.705  0.4025  0.2677 -0.1591
  120DPPC   O16 5966   0.672   0.970   4.785  0.0305 -0.1583 -0.4371
  120DPPC   C17 5967   0.702   1.046   4.567 -0.5036  0.8691 -0.6504
  120DPPC   C18 5968   0.694   1.172   4.481  0.0936  1.1279 -0.3399
  120DPPC   C19 5969   0.770   1.151   4.349 -0.1466 -0.1557 -0.2955
  120DPPC   C20 5970   0.745   1.275   4.263  0.0600  0.4275  0.4746
  120DPPC   C21 5971   0.594   1.280   4.236  0.1554  0.1033 -0.1247
  120DPPC   C22 5972   0.575   1.415   4.166  0.2247 -0.0662 -0.4726
  120DPPC   C23 5973   0.432   1.445   4.119 -0.0119  0.0993  0.3340
  120DPPC   C24 5974   0.332   1.450   4.235  0.1548  0.4881  0.4622
  120DPPC   C25 5975   0.191   1.413   4.188  0.3623  0.2131  0.0449
  120DPPC   C26 5976   0.176   1.274   4.127  0.2973  0.2392  0.0015
  120DPPC   C27 5977   0.030   1.234   4.108  0.2387  0.5183 -0.1364
  120DPPC   C28 5978  -0.040   1.213   4.242  0.1032  0.2416 -0.2489
  120DPPC   C29 5979  -0.156   1.114   4.238  0.3714 -0.0716 -0.2792
  120DPPC   C30 5980  -0.250   1.134   4.120  0.1833 -0.4401 -0.1924
  120DPPC   C31 5981  -0.356   1.023   4.123 -0.0621 -0.1965  0.2773
  120DPPC   C32 5982   0.419   1.333   4.824 -0.0402 -0.4261 -0.4631
  120DPPC   O33 5983   0.300   1.346   4.745  0.2844  0.3749 -0.8291
  120DPPC   C34 5984   0.261   1.476   4.730 -0.0353  0.4219  0.3418
  120DPPC   O35 5985   0.293   1.569   4.804 -0.5519  0.4561  0.5243
  120DPPC   C36 5986   0.149   1.485   4.625 -0.0931 -0.5836  0.3081
  120DPPC   C37 5987   0.015   1.493   4.699 -0.1680  0.7252  0.0481
  120DPPC   C38 5988  -0.096   1.460   4.599  0.8055 -0.5494 -0.6515
  120DPPC   C39 5989  -0.108   1.561   4.486 -0.1007 -0.2158 -0.2728
  120DPPC   C40 5990  -0.208   1.517   4.379 -0.6511 -0.0515  0.1721
  120DPPC   C41 5991  -0.192   1.607   4.256  0.6193 -0.6712 -0.1356
  120DPPC   C42 5992  -0.285   1.567   4.142  0.3510  0.6725 -0.4042
  120DPPC   C43 5993  -0.271   1.660   4.021  0.0595  1.2084 -0.0343
  120DPPC   C44 5994  -0.363   1.632   3.901  0.6690 -0.0814 -0.2261
  120DPPC   C45 5995  -0.322   1.719   3.782  0.0603  0.1549 -0.2665
  120DPPC   C46 5996  -0.390   1.662   3.658 -0.1622 -0.1654  0.0008
  120DPPC   C47 5997  -0.319   1.724   3.537  0.0095 -0.0981  0.1362
  120DPPC   C48 5998  -0.390   1.682   3.408  0.3130 -0.1404 -0.0176
  120DPPC   C49 5999  -0.300   1.710   3.288 -0.1077 -0.0132 -0.3052
  120DPPC   C50 6000  -0.366   1.641   3.169 -0.0182  0.1792 -0.4683
  121DPPC    C1 6001   5.171   5.446   5.169  0.2113 -0.2828 -0.4758
  121DPPC    C2 6002   5.376   5.538   5.077  0.2918  0.0055 -0.0403
  121DPPC    C3 6003   5.163   5.553   4.959 -0.6695 -0.3818 -0.6007
  121DPPC    N4 6004   5.249   5.472   5.046  0.0625  0.5959 -0.3959
  121DPPC    C5 6005   5.268   5.350   4.966  0.5506  0.5431 -0.1991
  121DPPC    C6 6006   5.290   5.216   5.037  0.1032  0.4645 -0.2083
  121DPPC    O7 6007   5.422   5.198   5.090 -0.0516  0.2050  0.0920
  121DPPC    P8 6008   5.444   5.039   5.099  0.0412  0.2224  0.1665
  121DPPC    O9 6009   5.549   4.981   5.186  0.2964 -0.1623 -0.3841
  121DPPC   O10 6010   5.306   4.987   5.106  0.1603 -0.1360 -0.1304
  121DPPC   O11 6011   5.487   4.998   4.949  0.5208 -0.0691  0.3801
  121DPPC   C12 6012   5.512   4.860   4.976  0.0972 -0.1969  0.1172
  121DPPC   C13 6013   5.542   4.771   4.855 -0.6066 -0.0994 -0.1352
  121DPPC   O14 6014   5.682   4.776   4.825 -0.4669  0.5117  0.5705
  121DPPC   C15 6015   5.754   4.663   4.847  0.0877  0.7838  0.1756
  121DPPC   O16 6016   5.722   4.575   4.927  0.5692  0.1119 -0.3564
  121DPPC   C17 6017   5.895   4.676   4.788  0.0684 -0.1437 -0.0960
  121DPPC   C18 6018   5.997   4.750   4.875 -0.0614 -0.0174 -0.0501
  121DPPC   C19 6019   6.137   4.737   4.813  0.0604 -0.3807  0.2948
  121DPPC   C20 6020   6.123   4.780   4.667  0.3926  0.1672  0.4210
  121DPPC   C21 6021   6.265   4.803   4.613  0.5010 -0.8113  0.2772
  121DPPC   C22 6022   6.269   4.804   4.460  0.1734  0.3037  0.2724
  121DPPC   C23 6023   6.213   4.673   4.406 -0.3292  0.6820 -0.1362
  121DPPC   C24 6024   6.225   4.657   4.254  0.2820 -0.1555 -0.0051
  121DPPC   C25 6025   6.161   4.531   4.194  0.5603 -0.2696 -0.0659
  121DPPC   C26 6026   6.009   4.542   4.185  0.4905 -0.8627  0.3842
  121DPPC   C27 6027   5.940   4.410   4.150 -0.6387 -0.0504 -0.5390
  121DPPC   C28 6028   5.987   4.372   4.009  0.5129 -0.4904 -0.0475
  121DPPC   C29 6029   5.928   4.239   3.962 -0.4375 -0.2093  0.3265
  121DPPC   C30 6030   5.940   4.201   3.815 -0.0658 -0.0352  0.3109
  121DPPC   C31 6031   5.883   4.069   3.763 -0.2323  0.0842  0.1873
  121DPPC   C32 6032   5.446   4.816   4.745 -0.1076  0.2505 -0.4312
  121DPPC   O33 6033   5.422   4.714   4.648  0.0213  0.1685 -0.3762
  121DPPC   C34 6034   5.361   4.768   4.539 -0.1912  0.2654 -0.2099
  121DPPC   O35 6035   5.300   4.874   4.547 -0.5918  0.0240  0.0197
  121DPPC   C36 6036   5.355   4.683   4.412 -0.0861  0.2849 -0.2276
  121DPPC   C37 6037   5.390   4.769   4.290  0.1434  0.3023 -0.1500
  121DPPC   C38 6038   5.362   4.685   4.165  0.0595 -0.5011  0.4069
  121DPPC   C39 6039   5.406   4.767   4.044  0.0607 -0.7834  0.2147
  121DPPC   C40 6040   5.387   4.691   3.913 -0.2814  0.0386 -0.2184
  121DPPC   C41 6041   5.376   4.786   3.793  0.5809 -0.1013 -0.4135
  121DPPC   C42 6042   5.337   4.705   3.669  0.2262 -0.5257 -0.0293
  121DPPC   C43 6043   5.264   4.798   3.571  0.4356  0.0433  0.3489
  121DPPC   C44 6044   5.242   4.716   3.444 -0.2241  0.1168  0.4130
  121DPPC   C45 6045   5.186   4.577   3.478  0.0822 -0.0811  0.1155
  121DPPC   C46 6046   5.174   4.483   3.358 -0.0461  0.1683 -0.0674
  121DPPC   C47 6047   5.320   4.471   3.314  0.0380  0.0153  0.2528
  121DPPC   C48 6048   5.336   4.385   3.188 -0.1228 -0.4264  0.5318
  121DPPC   C49 6049   5.271   4.448   3.064  0.2747 -0.2838  0.3956
  121DPPC   C50 6050   5.295   4.365   2.937  0.6726  0.5676 -0.0932
  122DPPC    C1 6051   0.266   4.923   5.379  0.2740 -0.1188 -0.3082
  122DPPC    C2 6052   0.089   5.068   5.445 -0.1314 -0.0161 -1.1884
  122DPPC    C3 6053   0.141   5.024   5.227 -0.1684  0.0615 -0.7137
  122DPPC    N4 6054   0.205   5.055   5.355  0.1483 -0.2633 -0.7908
  122DPPC    C5 6055   0.304   5.163   5.352 -0.1618  0.0511 -0.0721
  122DPPC    C6 6056   0.271   5.301   5.293  0.9503  0.2659 -0.2103
  122DPPC    O7 6057   0.271   5.292   5.151 -0.0082 -0.0562 -0.1947
  122DPPC    P8 6058   0.309   5.434   5.086 -0.0023  0.0409  0.0197
  122DPPC    O9 6059   0.271   5.529   5.193  0.2748  0.1290  0.0435
  122DPPC   O10 6060   0.449   5.443   5.036  0.0409 -0.3354  0.0709
  122DPPC   O11 6061   0.215   5.462   4.958  0.0770 -0.0452 -0.0572
  122DPPC   C12 6062   0.161   5.337   4.914 -0.6473  0.0847  0.4505
  122DPPC   C13 6063   0.080   5.354   4.785  0.1560 -0.2173 -0.1032
  122DPPC   O14 6064   0.070   5.230   4.714 -0.0374 -0.3840  0.2118
  122DPPC   C15 6065   0.167   5.176   4.635 -0.1566  0.0111 -0.2058
  122DPPC   O16 6066   0.279   5.163   4.685 -0.1443  0.0521 -0.2219
  122DPPC   C17 6067   0.126   5.079   4.524  0.1778 -0.1669 -0.1757
  122DPPC   C18 6068   0.218   5.096   4.404 -0.0941 -0.2106 -0.3912
  122DPPC   C19 6069   0.241   5.241   4.358  0.5165 -0.1112  0.2159
  122DPPC   C20 6070   0.340   5.232   4.241  0.1323  0.0421 -0.1212
  122DPPC   C21 6071   0.288   5.122   4.148  0.6586 -0.5632  0.2915
  122DPPC   C22 6072   0.387   5.082   4.039 -0.1418 -0.9518 -0.2976
  122DPPC   C23 6073   0.376   5.180   3.921 -1.1226 -0.1488  0.4365
  122DPPC   C24 6074   0.349   5.098   3.795  0.4074 -0.0405  0.0099
  122DPPC   C25 6075   0.283   5.198   3.700 -0.7106 -0.5879  0.1907
  122DPPC   C26 6076   0.269   5.139   3.559  0.1078 -0.1604 -0.0778
  122DPPC   C27 6077   0.233   5.236   3.446  0.4368  0.2023  0.1290
  122DPPC   C28 6078   0.223   5.181   3.304 -0.6648 -0.2010  0.3523
  122DPPC   C29 6079   0.137   5.266   3.211  0.1015 -0.0590 -0.2385
  122DPPC   C30 6080   0.144   5.207   3.070 -0.2470 -0.0819 -0.2469
  122DPPC   C31 6081   0.044   5.093   3.052 -0.6724  0.2662 -0.1324
  122DPPC   C32 6082   0.150   5.466   4.707 -0.0389  0.2126  0.3348
  122DPPC   O33 6083   0.111   5.493   4.573  0.1311  0.1457  0.2711
  122DPPC   C34 6084   0.157   5.617   4.540 -0.7718  0.5575  0.5200
  122DPPC   O35 6085   0.218   5.685   4.622  0.5017  0.0891 -0.0154
  122DPPC   C36 6086   0.127   5.674   4.401  0.2316  0.0723  0.0954
  122DPPC   C37 6087   0.102   5.562   4.299  0.9869 -0.1686  0.1673
  122DPPC   C38 6088   0.156   5.629   4.173 -0.2840  0.2656 -0.1568
  122DPPC   C39 6089   0.141   5.542   4.047  0.2499  0.1939 -0.1702
  122DPPC   C40 6090  -0.004   5.523   4.002  0.2795  0.1687 -0.2554
  122DPPC   C41 6091  -0.010   5.421   3.889  0.2882 -0.0536 -0.0570
  122DPPC   C42 6092  -0.157   5.403   3.849  0.3838  0.5521 -0.7170
  122DPPC   C43 6093  -0.167   5.324   3.718  0.0289 -0.1931 -0.2495
  122DPPC   C44 6094  -0.315   5.301   3.688  0.0173  0.0351 -0.3691
  122DPPC   C45 6095  -0.337   5.243   3.548  0.4020  0.0376 -0.4318
  122DPPC   C46 6096  -0.284   5.101   3.533  0.0985 -0.0784 -0.4186
  122DPPC   C47 6097  -0.290   5.049   3.388 -0.2525 -0.3316 -0.3156
  122DPPC   C48 6098  -0.239   4.906   3.375  0.4773 -0.1559  0.4624
  122DPPC   C49 6099  -0.281   4.842   3.242  0.7079  0.2148  0.2084
  122DPPC   C50 6100  -0.197   4.717   3.219 -0.0941 -0.3247  0.1774
  123DPPC    C1 6101   0.544   6.086   5.352 -0.0037 -0.0160 -0.1543
  123DPPC    C2 6102   0.489   6.144   5.127  0.2531 -0.1107 -0.1884
  123DPPC    C3 6103   0.716   6.170   5.224  0.2049  0.6651  0.2218
  123DPPC    N4 6104   0.571   6.182   5.243  0.1022 -0.0032 -0.1168
  123DPPC    C5 6105   0.539   6.316   5.294 -0.1008 -0.1200  0.0672
  123DPPC    C6 6106   0.600   6.446   5.242 -0.3622 -0.0427 -0.0469
  123DPPC    O7 6107   0.615   6.440   5.100 -0.4861 -0.1196 -0.0561
  123DPPC    P8 6108   0.586   6.583   5.033  0.1225  0.1895  0.3334
  123DPPC    O9 6109   0.478   6.663   5.095 -0.5045 -0.3403 -0.0567
  123DPPC   O10 6110   0.724   6.631   5.009  0.1869 -0.3017 -0.3193
  123DPPC   O11 6111   0.540   6.517   4.894  0.4513 -0.1088  0.3656
  123DPPC   C12 6112   0.655   6.507   4.810  0.0387 -0.4493 -0.1688
  123DPPC   C13 6113   0.624   6.405   4.700 -0.0000 -0.3218 -0.2775
  123DPPC   O14 6114   0.736   6.344   4.634  0.3022 -0.3998  0.3007
  123DPPC   C15 6115   0.812   6.410   4.543  0.2970 -0.1460  0.4782
  123DPPC   O16 6116   0.819   6.533   4.549 -0.6474  0.0088 -0.9801
  123DPPC   C17 6117   0.899   6.329   4.446  0.0774  0.5266 -0.2944
  123DPPC   C18 6118   0.815   6.287   4.325  0.0377  0.4593 -0.2432
  123DPPC   C19 6119   0.768   6.399   4.233 -0.0049  0.4828 -0.1927
  123DPPC   C20 6120   0.664   6.332   4.143 -0.1228  0.4805 -0.0555
  123DPPC   C21 6121   0.753   6.253   4.047 -0.3058  0.8810 -0.5558
  123DPPC   C22 6122   0.696   6.206   3.913 -0.6906  0.6336 -0.3048
  123DPPC   C23 6123   0.575   6.116   3.940 -0.0412 -0.0591  0.3252
  123DPPC   C24 6124   0.506   6.068   3.813  0.0774  0.3099  0.1191
  123DPPC   C25 6125   0.398   5.966   3.850 -0.0457  0.2888 -0.2928
  123DPPC   C26 6126   0.350   5.882   3.731  0.3107 -0.1465 -0.1313
  123DPPC   C27 6127   0.206   5.833   3.749  0.2578  0.0263 -0.0833
  123DPPC   C28 6128   0.165   5.738   3.637 -0.9367  0.2312  0.1645
  123DPPC   C29 6129   0.191   5.814   3.507  0.4516  0.1501  0.3811
  123DPPC   C30 6130   0.112   5.758   3.388  0.3991 -0.0606  0.5155
  123DPPC   C31 6131   0.151   5.816   3.252  0.0572 -0.3338  0.3010
  123DPPC   C32 6132   0.525   6.473   4.606 -0.3704 -0.1216  0.2493
  123DPPC   O33 6133   0.490   6.398   4.489  0.2976 -0.2928  0.1581
  123DPPC   C34 6134   0.412   6.471   4.406  0.9016 -0.1088 -0.2537
  123DPPC   O35 6135   0.406   6.594   4.410  0.1819 -0.1420 -0.1331
  123DPPC   C36 6136   0.334   6.381   4.310 -0.6109  0.3802  0.4786
  123DPPC   C37 6137   0.271   6.454   4.191  0.1462  0.2505 -0.0081
  123DPPC   C38 6138   0.218   6.342   4.101  0.5000 -0.0306  0.1296
  123DPPC   C39 6139   0.104   6.372   4.003  0.0846 -0.2459  0.5388
  123DPPC   C40 6140   0.153   6.477   3.902 -0.7145  0.0947  0.5007
  123DPPC   C41 6141   0.025   6.508   3.824 -0.0059  0.4016 -0.5495
  123DPPC   C42 6142  -0.069   6.558   3.933  0.2124  0.3983 -0.3592
  123DPPC   C43 6143  -0.200   6.590   3.861 -0.2846  0.0622  0.3735
  123DPPC   C44 6144  -0.180   6.696   3.752  0.6146 -0.9902 -0.5081
  123DPPC   C45 6145  -0.305   6.715   3.666  0.3641  0.0092  0.0674
  123DPPC   C46 6146  -0.285   6.778   3.527 -0.0754 -0.0163 -0.0084
  123DPPC   C47 6147  -0.213   6.911   3.549  0.1682 -0.0945 -0.3268
  123DPPC   C48 6148  -0.199   6.972   3.410  0.1730 -0.3580 -0.4417
  123DPPC   C49 6149  -0.164   7.121   3.419 -0.5724 -0.2136  0.1429
  123DPPC   C50 6150  -0.177   7.202   3.290 -0.1711 -0.0278  0.2194
  124DPPC    C1 6151   0.456   0.816   4.958  0.4478  0.4493 -0.0065
  124DPPC    C2 6152   0.527   0.601   4.864 -0.0824  0.1051  0.1966
  124DPPC    C3 6153   0.338   0.716   4.798  0.4291 -0.4362 -0.1188
  124DPPC    N4 6154   0.416   0.680   4.918  0.1962  0.4335  0.2965
  124DPPC    C5 6155   0.346   0.594   5.015 -0.1028  0.2349 -0.0894
  124DPPC    C6 6156   0.200   0.620   5.052 -0.0051 -0.1746  0.6023
  124DPPC    O7 6157   0.183   0.752   5.105 -0.1053  0.1236 -0.1613
  124DPPC    P8 6158   0.034   0.758   5.164 -0.0724 -0.0910 -0.0541
  124DPPC    O9 6159  -0.020   0.623   5.190  1.3737 -0.6570  0.0836
  124DPPC   O10 6160   0.025   0.861   5.271  0.9615 -0.0248 -0.0256
  124DPPC   O11 6161  -0.031   0.816   5.029 -0.0370  0.6466  0.2409
  124DPPC   C12 6162   0.017   0.951   5.027  0.1758  0.5649 -0.2859
  124DPPC   C13 6163  -0.014   1.029   4.899 -0.2327  0.5646 -0.1890
  124DPPC   O14 6164   0.074   0.993   4.791  0.0616  0.0390  0.2223
  124DPPC   C15 6165   0.043   1.047   4.670 -0.2797 -0.4186  0.1040
  124DPPC   O16 6166  -0.062   1.099   4.634  0.2521  0.2262 -0.5532
  124DPPC   C17 6167   0.162   1.045   4.574 -0.3572  0.1647 -0.0083
  124DPPC   C18 6168   0.170   0.933   4.470 -0.3602  0.0920  0.0701
  124DPPC   C19 6169   0.272   0.967   4.361 -0.3428 -0.3271 -0.0460
  124DPPC   C20 6170   0.322   0.834   4.304 -0.3668 -0.2459 -0.2591
  124DPPC   C21 6171   0.425   0.850   4.192  0.0057 -0.3316  0.0675
  124DPPC   C22 6172   0.366   0.927   4.074 -0.4798 -0.0426  0.4922
  124DPPC   C23 6173   0.459   0.914   3.953 -0.3579 -0.0108  0.5824
  124DPPC   C24 6174   0.416   0.979   3.821  0.6117  0.3727  0.4472
  124DPPC   C25 6175   0.499   0.951   3.695 -0.8037 -0.4155 -0.3437
  124DPPC   C26 6176   0.416   0.987   3.572 -0.3505  0.5267 -0.3844
  124DPPC   C27 6177   0.280   0.919   3.588  0.2787 -0.6082  0.2902
  124DPPC   C28 6178   0.203   0.944   3.458  1.0538  0.0813 -0.0426
  124DPPC   C29 6179   0.219   1.090   3.416 -0.0851  0.2162 -0.0241
  124DPPC   C30 6180   0.166   1.119   3.275  0.4243  0.0302 -0.2540
  124DPPC   C31 6181   0.175   1.270   3.248  0.2582  0.0591 -0.1497
  124DPPC   C32 6182  -0.018   1.177   4.938  0.4930  0.5704 -0.1245
  124DPPC   O33 6183  -0.122   1.204   5.032  0.0771 -0.1553 -0.3658
  124DPPC   C34 6184  -0.132   1.336   5.062 -0.0864 -0.2381 -0.0521
  124DPPC   O35 6185  -0.028   1.400   5.076 -0.4247  0.3677 -0.2256
  124DPPC   C36 6186  -0.261   1.398   5.116  0.1075  0.2169 -0.0996
  124DPPC   C37 6187  -0.367   1.410   5.007 -0.3553 -0.1083  0.3081
  124DPPC   C38 6188  -0.324   1.492   4.885  0.2223 -0.4369  0.2910
  124DPPC   C39 6189  -0.444   1.501   4.791  0.3484  0.0353  0.1707
  124DPPC   C40 6190  -0.428   1.598   4.674 -0.0950 -0.8725 -0.6658
  124DPPC   C41 6191  -0.561   1.648   4.618 -0.0210  0.6604  0.4556
  124DPPC   C42 6192  -0.541   1.756   4.511  0.2051 -0.2520 -0.4372
  124DPPC   C43 6193  -0.578   1.695   4.376  0.1950 -0.3040 -0.4108
  124DPPC   C44 6194  -0.583   1.798   4.263  0.2822 -0.1448 -0.2701
  124DPPC   C45 6195  -0.642   1.736   4.136  0.0656  0.3312 -0.4051
  124DPPC   C46 6196  -0.654   1.840   4.024  0.0083  0.1978 -0.5242
  124DPPC   C47 6197  -0.704   1.775   3.895 -0.5460 -0.6057  0.0860
  124DPPC   C48 6198  -0.726   1.879   3.786  0.3575 -0.2881  0.1987
  124DPPC   C49 6199  -0.769   1.813   3.655  0.2732  0.1665 -0.0058
  124DPPC   C50 6200  -0.822   1.919   3.558  0.7171  0.2290 -0.1844
  125DPPC    C1 6201   5.859   5.568   5.773 -0.3402 -0.4590  0.1604
  125DPPC    C2 6202   5.691   5.536   5.611  0.5841 -0.1728  0.1790
  125DPPC    C3 6203   5.839   5.729   5.592 -0.0087  0.0619  0.7389
  125DPPC    N4 6204   5.827   5.588   5.631  0.6320 -0.2150 -0.0290
  125DPPC    C5 6205   5.901   5.499   5.541  0.7573  0.1564 -0.2952
  125DPPC    C6 6206   6.051   5.522   5.517  0.6728  0.3530 -0.6366
  125DPPC    O7 6207   6.114   5.412   5.451  0.2771 -0.3494  0.1333
  125DPPC    P8 6208   6.234   5.458   5.354  0.0496  0.2358  0.1255
  125DPPC    O9 6209   6.293   5.580   5.414  0.4504  0.3982 -0.5806
  125DPPC   O10 6210   6.311   5.341   5.306 -0.5677 -0.2952  0.4148
  125DPPC   O11 6211   6.145   5.511   5.230 -0.0780  0.3688  0.2731
  125DPPC   C12 6212   6.066   5.403   5.180 -0.4161  0.5948  0.3169
  125DPPC   C13 6213   5.996   5.430   5.047 -0.5023 -0.2031  0.1960
  125DPPC   O14 6214   5.933   5.320   4.979 -0.1556 -0.2952  0.0247
  125DPPC   C15 6215   6.015   5.225   4.926 -0.2556 -0.3303 -0.0676
  125DPPC   O16 6216   6.114   5.184   4.986 -0.2764 -0.0999  0.1292
  125DPPC   C17 6217   5.950   5.154   4.807  0.1212 -0.8008  0.0051
  125DPPC   C18 6218   5.835   5.222   4.733 -0.2765 -0.2625  1.0899
  125DPPC   C19 6219   5.760   5.124   4.643  0.5629  0.0874 -0.0188
  125DPPC   C20 6220   5.830   5.053   4.527  0.4966 -0.3286  0.1969
  125DPPC   C21 6221   5.760   4.925   4.481  0.5849 -0.5140  0.5751
  125DPPC   C22 6222   5.814   4.868   4.349 -0.5522 -0.1240 -0.0673
  125DPPC   C23 6223   5.771   4.958   4.233  0.0840  0.6071  0.2532
  125DPPC   C24 6224   5.793   4.910   4.090 -0.8847  0.3701  0.1765
  125DPPC   C25 6225   5.722   4.995   3.984 -0.6511  0.1450 -0.1657
  125DPPC   C26 6226   5.740   4.933   3.846  0.1550 -0.0384  0.0159
  125DPPC   C27 6227   5.661   5.023   3.751 -0.3462 -0.5723 -0.0851
  125DPPC   C28 6228   5.691   4.993   3.604 -0.2181 -0.1437 -0.1480
  125DPPC   C29 6229   5.603   5.075   3.510 -0.4575 -0.2246  0.0072
  125DPPC   C30 6230   5.585   4.991   3.383 -0.0240 -0.0035 -0.2041
  125DPPC   C31 6231   5.500   5.081   3.293 -0.5660 -0.6706 -0.3659
  125DPPC   C32 6232   6.098   5.502   4.959 -0.6195 -0.2908 -0.0140
  125DPPC   O33 6233   6.059   5.521   4.823 -0.1110  0.4456 -0.0648
  125DPPC   C34 6234   6.155   5.576   4.745 -0.1196  0.3008 -0.1775
  125DPPC   O35 6235   6.257   5.622   4.796 -0.2089  0.0119  0.2701
  125DPPC   C36 6236   6.131   5.569   4.594  0.2664  0.2921 -0.2398
  125DPPC   C37 6237   6.136   5.421   4.556 -0.2590  0.2126 -0.0131
  125DPPC   C38 6238   6.090   5.390   4.413 -0.2222  0.3290 -0.0505
  125DPPC   C39 6239   6.168   5.262   4.381 -0.2594  0.3108 -0.0698
  125DPPC   C40 6240   6.145   5.216   4.237 -0.5420  0.3291 -0.0295
  125DPPC   C41 6241   6.223   5.090   4.201 -0.7250  0.2328 -0.0915
  125DPPC   C42 6242   6.175   5.048   4.061 -0.2131  0.0467 -0.2125
  125DPPC   C43 6243   6.271   4.960   3.980 -0.7208 -0.4393 -0.2871
  125DPPC   C44 6244   6.194   4.882   3.873 -0.0601 -0.2276 -0.9235
  125DPPC   C45 6245   6.287   4.782   3.804  0.6084 -0.2440 -0.0120
  125DPPC   C46 6246   6.224   4.696   3.694 -0.2607  0.2543  0.0898
  125DPPC   C47 6247   6.314   4.579   3.656 -0.6489  0.0485 -0.2114
  125DPPC   C48 6248   6.238   4.466   3.587 -0.6563 -0.2722  0.3161
  125DPPC   C49 6249   6.312   4.334   3.561 -0.0190  0.1187  0.1173
  125DPPC   C50 6250   6.329   4.262   3.694 -0.5535  0.1304  0.1938
  126DPPC    C1 6251   0.027   5.695   5.081 -0.2871  0.0809  0.3203
  126DPPC    C2 6252   0.125   5.828   4.916  0.5710  0.2485  0.3500
  126DPPC    C3 6253   0.146   5.903   5.144 -0.0867  0.5298 -0.1186
  126DPPC    N4 6254   0.059   5.834   5.047  0.0931 -0.0525  0.1278
  126DPPC    C5 6255  -0.062   5.910   5.012 -0.0868 -0.4673 -0.1706
  126DPPC    C6 6256  -0.178   5.924   5.111  0.3833  0.0647  0.3231
  126DPPC    O7 6257  -0.269   5.813   5.110  0.2684  0.1582 -0.2807
  126DPPC    P8 6258  -0.393   5.849   5.207  0.0908  0.0589 -0.4712
  126DPPC    O9 6259  -0.496   5.744   5.204  0.1174  0.0182  0.0709
  126DPPC   O10 6260  -0.329   5.886   5.335 -0.0787 -0.4650 -0.2341
  126DPPC   O11 6261  -0.445   5.977   5.124 -0.5681 -0.0000 -0.1504
  126DPPC   C12 6262  -0.503   5.936   5.000 -0.4085  0.0572 -0.2438
  126DPPC   C13 6263  -0.495   6.048   4.896  0.1981 -0.2166 -0.4969
  126DPPC   O14 6264  -0.366   6.070   4.836  0.3846  0.1894  0.0459
  126DPPC   C15 6265  -0.353   5.993   4.724 -0.4372  0.3104 -0.1449
  126DPPC   O16 6266  -0.448   5.923   4.692  0.1528 -0.6301  0.1205
  126DPPC   C17 6267  -0.218   5.988   4.652 -0.2909 -0.5614  0.1730
  126DPPC   C18 6268  -0.242   6.002   4.501 -0.6255 -0.1833  0.2615
  126DPPC   C19 6269  -0.104   6.014   4.437 -0.7396 -0.3184 -0.0103
  126DPPC   C20 6270  -0.107   6.017   4.284  0.4141  0.1368 -0.0343
  126DPPC   C21 6271  -0.200   5.909   4.228  0.4192  0.0964  0.0344
  126DPPC   C22 6272  -0.223   5.926   4.078 -0.0501 -0.4421  0.0425
  126DPPC   C23 6273  -0.314   5.817   4.022 -0.2263 -0.2290 -0.0857
  126DPPC   C24 6274  -0.307   5.814   3.869 -0.6264  0.1170 -0.1133
  126DPPC   C25 6275  -0.409   5.725   3.798 -0.2285 -0.4894  0.0678
  126DPPC   C26 6276  -0.407   5.720   3.645 -0.1394  0.7940  0.0202
  126DPPC   C27 6277  -0.533   5.653   3.590  0.3250 -0.0369 -0.0502
  126DPPC   C28 6278  -0.558   5.679   3.441  0.1348 -0.2183 -0.0504
  126DPPC   C29 6279  -0.688   5.618   3.389  0.2135 -0.8775  0.5088
  126DPPC   C30 6280  -0.712   5.670   3.247 -0.4255 -1.2828  0.4637
  126DPPC   C31 6281  -0.847   5.634   3.186 -0.4441 -0.9721  0.3152
  126DPPC   C32 6282  -0.556   6.174   4.957  1.1351  0.3101 -0.6210
  126DPPC   O33 6283  -0.607   6.283   4.880  0.2476  0.1853 -0.2210
  126DPPC   C34 6284  -0.702   6.247   4.788  0.4459 -0.2505 -0.2587
  126DPPC   O35 6285  -0.789   6.161   4.794  0.2584 -0.0620 -0.2641
  126DPPC   C36 6286  -0.681   6.331   4.662 -0.2969  0.1677 -0.1073
  126DPPC   C37 6287  -0.648   6.249   4.537 -0.4635 -0.1478  0.0539
  126DPPC   C38 6288  -0.777   6.215   4.460 -0.4573 -0.3924  0.1495
  126DPPC   C39 6289  -0.842   6.334   4.389 -0.2172 -0.0476  0.5026
  126DPPC   C40 6290  -0.935   6.275   4.284 -0.4096  0.8986  0.1267
  126DPPC   C41 6291  -0.863   6.204   4.168 -0.4760  0.1061  0.5619
  126DPPC   C42 6292  -0.942   6.172   4.041 -0.0475  0.1403  0.2846
  126DPPC   C43 6293  -0.865   6.083   3.943 -0.5310  0.2447 -0.1961
  126DPPC   C44 6294  -0.903   6.080   3.795 -0.6891  0.3380 -0.1582
  126DPPC   C45 6295  -0.809   5.998   3.707  0.0281  0.6439  0.3181
  126DPPC   C46 6296  -0.836   6.005   3.556 -0.4047  0.1708  0.3722
  126DPPC   C47 6297  -0.805   6.150   3.516  0.0178  0.0359  0.2104
  126DPPC   C48 6298  -0.660   6.193   3.539  0.0680 -0.2821  0.4982
  126DPPC   C49 6299  -0.642   6.335   3.486 -0.3903 -0.3397  0.1823
  126DPPC   C50 6300  -0.633   6.336   3.333  0.0453 -0.5629  0.2048
  127DPPC    C1 6301   6.001   0.092   4.876 -0.2450  0.7057 -0.1553
  127DPPC    C2 6302   6.189  -0.040   4.857 -0.4527  0.6743 -0.3838
  127DPPC    C3 6303   6.204   0.193   4.907  0.3515  0.3886  0.1485
  127DPPC    N4 6304   6.132   0.069   4.938 -0.2403  0.6408 -0.1899
  127DPPC    C5 6305   6.134   0.030   5.080  0.1065  1.0241 -0.0873
  127DPPC    C6 6306   6.259   0.068   5.160  0.1849  0.5265  0.0320
  127DPPC    O7 6307   6.371  -0.020   5.150  0.1392  0.5691 -0.9062
  127DPPC    P8 6308   6.514   0.036   5.197  0.0915  0.1494 -0.2497
  127DPPC    O9 6309   6.490   0.144   5.295  0.3101 -0.3413  0.3489
  127DPPC   O10 6310   6.584  -0.091   5.223  0.5741  0.4038 -0.3055
  127DPPC   O11 6311   6.559   0.087   5.051 -0.1543  0.0511 -0.3599
  127DPPC   C12 6312   6.625  -0.011   4.971  0.1575  0.0907 -0.1503
  127DPPC   C13 6313   6.567   0.012   4.831  0.2308  0.5309 -0.1091
  127DPPC   O14 6314   6.609  -0.080   4.730  0.0114  0.1632  0.1340
  127DPPC   C15 6315   6.540  -0.198   4.737  0.2135  0.0149 -0.3804
  127DPPC   O16 6316   6.453  -0.223   4.819  0.3672 -0.1254 -0.2618
  127DPPC   C17 6317   6.611  -0.312   4.664 -0.3962 -0.4206 -0.2960
  127DPPC   C18 6318   6.662  -0.294   4.521  0.1016  0.2521 -0.0430
  127DPPC   C19 6319   6.752  -0.410   4.478  0.3356  0.2415  0.4647
  127DPPC   C20 6320   6.804  -0.377   4.338 -0.4920  0.0714  0.1074
  127DPPC   C21 6321   6.909  -0.483   4.302 -0.2082  0.4414 -0.1720
  127DPPC   C22 6322   6.851  -0.623   4.283 -0.2562  0.4344  0.0138
  127DPPC   C23 6323   6.969  -0.714   4.248 -0.2714  0.3268  0.2420
  127DPPC   C24 6324   7.008  -0.710   4.100 -0.0298 -0.7667  0.2705
  127DPPC   C25 6325   6.945  -0.821   4.015  0.9180 -1.1261  0.0151
  127DPPC   C26 6326   6.983  -0.821   3.867  0.1085  0.5022 -0.2126
  127DPPC   C27 6327   6.888  -0.912   3.789  0.2082  0.2067  0.0100
  127DPPC   C28 6328   6.935  -0.910   3.644  0.3752  0.5023  0.0666
  127DPPC   C29 6329   7.082  -0.951   3.630  0.2611 -0.1796  0.8191
  127DPPC   C30 6330   7.120  -0.919   3.486 -0.3355 -0.5457  0.5766
  127DPPC   C31 6331   7.257  -0.979   3.456 -0.5302 -0.4592 -0.5389
  127DPPC   C32 6332   6.579   0.163   4.808 -0.0735  0.5260 -0.3037
  127DPPC   O33 6333   6.480   0.218   4.720 -0.3644  0.4438 -0.0290
  127DPPC   C34 6334   6.504   0.351   4.705 -0.5278  0.4293 -0.4308
  127DPPC   O35 6335   6.545   0.415   4.801  0.3501  0.0579 -0.5487
  127DPPC   C36 6336   6.442   0.415   4.580  0.1312  0.7999 -0.5719
  127DPPC   C37 6337   6.480   0.345   4.450  0.4066  0.0526 -0.1000
  127DPPC   C38 6338   6.420   0.422   4.332  0.0367 -0.8516 -0.5097
  127DPPC   C39 6339   6.267   0.425   4.330  0.0409 -0.0033  0.1630
  127DPPC   C40 6340   6.236   0.503   4.203 -0.2734 -0.5048 -0.0699
  127DPPC   C41 6341   6.103   0.578   4.196  0.1070  0.1690 -0.0922
  127DPPC   C42 6342   6.082   0.600   4.046  0.3386 -0.0364 -0.1555
  127DPPC   C43 6343   5.940   0.653   4.023  0.2343 -0.2701 -0.0471
  127DPPC   C44 6344   5.925   0.712   3.883 -0.1953 -0.2522  0.0063
  127DPPC   C45 6345   5.789   0.781   3.865 -0.0019  0.2398  0.3958
  127DPPC   C46 6346   5.778   0.830   3.720  0.2421 -0.4784  0.1255
  127DPPC   C47 6347   5.760   0.709   3.629 -0.0840  0.1797 -0.6937
  127DPPC   C48 6348   5.709   0.752   3.491 -0.0471  0.4503 -0.6241
  127DPPC   C49 6349   5.702   0.622   3.410  0.3649 -0.0722  0.1617
  127DPPC   C50 6350   5.697   0.652   3.260  0.0524  0.0867  0.2039
  128DPPC    C1 6351   5.955   0.971   5.123 -0.6331 -0.3407 -0.3751
  128DPPC    C2 6352   5.845   0.947   5.338  0.3109 -0.2772  0.3401
  128DPPC    C3 6353   6.056   0.857   5.311 -0.1582  0.2799  0.4789
  128DPPC    N4 6354   5.931   0.882   5.238  0.0562 -0.0712 -0.0141
  128DPPC    C5 6355   5.859   0.763   5.190 -0.2068 -0.0045  0.2134
  128DPPC    C6 6356   5.929   0.652   5.110 -0.1659 -0.0209  0.2702
  128DPPC    O7 6357   5.826   0.581   5.040  0.0211 -0.4393  0.4210
  128DPPC    P8 6358   5.891   0.438   5.003 -0.0506 -0.3391 -0.1072
  128DPPC    O9 6359   5.984   0.392   5.109  0.0556 -0.0320 -0.0643
  128DPPC   O10 6360   5.787   0.349   4.949 -0.0218 -0.2069 -0.3793
  128DPPC   O11 6361   5.956   0.492   4.866 -0.5479  0.0238 -0.2036
  128DPPC   C12 6362   5.855   0.520   4.769 -0.5867  0.2539 -0.0975
  128DPPC   C13 6363   5.916   0.564   4.637 -0.5199  0.0082 -0.1500
  128DPPC   O14 6364   5.824   0.626   4.545 -0.4306  0.7440  0.2459
  128DPPC   C15 6365   5.871   0.734   4.478  0.0642  0.0151 -0.6071
  128DPPC   O16 6366   5.984   0.779   4.492 -0.0840  0.1879  0.0565
  128DPPC   C17 6367   5.769   0.806   4.389  0.0038 -0.3698 -0.8505
  128DPPC   C18 6368   5.635   0.839   4.455  0.0820 -0.1868 -0.7844
  128DPPC   C19 6369   5.555   0.932   4.363  0.2728  1.0209  0.2461
  128DPPC   C20 6370   5.516   0.866   4.231  0.4490  0.2274  0.5825
  128DPPC   C21 6371   5.452   0.975   4.144  0.2261 -0.2766  0.1123
  128DPPC   C22 6372   5.402   0.936   4.005  0.1725  0.2436 -0.0145
  128DPPC   C23 6373   5.388   1.065   3.923 -0.6789  0.2351  0.1140
  128DPPC   C24 6374   5.321   1.022   3.792 -0.3780 -0.2337  0.1099
  128DPPC   C25 6375   5.413   0.944   3.697 -0.3683 -0.0333 -0.0457
  128DPPC   C26 6376   5.330   0.943   3.569 -0.2257 -0.4443 -0.1343
  128DPPC   C27 6377   5.294   1.090   3.544  0.3794 -0.3097 -0.2351
  128DPPC   C28 6378   5.257   1.100   3.396  0.3048 -0.3351 -0.2181
  128DPPC   C29 6379   5.306   1.225   3.322  0.2910 -0.0917  0.1800
  128DPPC   C30 6380   5.310   1.203   3.171  0.3783 -0.1187  0.1863
  128DPPC   C31 6381   5.403   1.082   3.160 -0.1093 -0.4935  0.1780
  128DPPC   C32 6382   6.004   0.453   4.580 -0.1481 -0.2344  0.8812
  128DPPC   O33 6383   5.936   0.334   4.538 -0.4227  0.2246 -0.0023
  128DPPC   C34 6384   6.010   0.222   4.515 -0.7358 -0.0851  0.4777
  128DPPC   O35 6385   6.119   0.205   4.571 -0.4267 -0.0887 -0.1138
  128DPPC   C36 6386   5.953   0.106   4.433  0.3138 -0.4850  0.2924
  128DPPC   C37 6387   5.991   0.122   4.286  0.1853  0.1243  0.3201
  128DPPC   C38 6388   5.895   0.022   4.220  0.6399  0.1534 -0.3961
  128DPPC   C39 6389   5.922  -0.011   4.073  0.6453 -0.0732 -0.3443
  128DPPC   C40 6390   5.846  -0.129   4.013 -0.0561  0.1168  0.1597
  128DPPC   C41 6391   5.882  -0.154   3.866  0.1877  0.3842  0.1741
  128DPPC   C42 6392   6.033  -0.173   3.854  0.0909 -0.0018 -0.4600
  128DPPC   C43 6393   6.083  -0.216   3.716  0.3330  1.1127 -0.7305
  128DPPC   C44 6394   6.234  -0.243   3.709  0.0870 -0.3710 -0.5457
  128DPPC   C45 6395   6.267  -0.300   3.571 -0.0764 -0.6513 -0.4701
  128DPPC   C46 6396   6.249  -0.193   3.463  0.4344 -0.2373 -0.1490
  128DPPC   C47 6397   6.321  -0.059   3.474 -0.3266  0.1270  0.4735
  128DPPC   C48 6398   6.264   0.036   3.368 -0.3927 -0.3389  0.0884
  128DPPC   C49 6399   6.345   0.163   3.341 -0.3616 -0.5047 -0.6013
  128DPPC   C50 6400   6.491   0.130   3.306  0.0316  0.0672  0.4443
  129SOL     OW 6401   0.300   2.483   6.245 -0.2228 -0.3106  0.3070
  129SOL    HW1 6402   0.237   2.458   6.172  0.9425  0.8079 -1.1263
  129SOL    HW2 6403   0.282   2.577   6.275  2.4180  1.1121 -2.0806
  130SOL     OW 6404   2.585   3.352   5.716  0.3606 -0.5962 -0.3578
  130SOL    HW1 6405   2.639   3.431   5.686  0.0733  0.0721  0.8359
  130SOL    HW2 6406   2.561   3.363   5.812  1.6803 -2.9096  0.3147
  131SOL     OW 6407   4.434   2.757   1.157  0.3476 -0.0869  0.1173
  131SOL    HW1 6408   4.363   2.784   1.222 -0.5991 -1.1815 -0.4330
  131SOL    HW2 6409   4.480   2.674   1.190  1.4178  0.6247  0.4825
  132SOL     OW 6410   1.502   1.116   5.241  0.9214  0.5991  0.5161
  132SOL    HW1 6411   1.534   1.021   5.235  1.8165  0.9311 -0.1393
  132SOL    HW2 6412   1.478   1.137   5.336 -1.0290 -0.8290  0.3956
  133SOL     OW 6413   4.650   1.697   0.797  0.2549  0.0279  0.1083
  133SOL    HW1 6414   4.679   1.749   0.716 -0.1080  1.4938  0.8910
  133SOL    HW2 6415   4.584   1.628   0.769 -0.9970  1.4712 -0.7008
  134SOL     OW 6416   3.262   1.999   0.635  0.0758  0.2279  0.1245
  134SOL    HW1 6417   3.286   1.926   0.571  0.8735  0.9258 -0.3939
  134SOL    HW2 6418   3.227   1.959   0.719  3.0182 -0.8976  0.9294
  135SOL     OW 6419   5.378   0.874   6.034 -0.1253 -0.2291 -0.2149
  135SOL    HW1 6420   5.438   0.945   6.071 -0.7264 -0.2546  0.8359
  135SOL    HW2 6421   5.339   0.820   6.108  1.0884 -2.3362 -1.0255
  136SOL     OW 6422   2.162   0.224   0.163  0.5081  0.0038  0.0377
  136SOL    HW1 6423   2.185   0.211   0.260  1.6692  1.7903  0.0460
  136SOL    HW2 6424   2.124   0.140   0.126 -0.1207 -0.6699  2.0935
  137SOL     OW 6425   0.595   3.964   6.300 -0.5705  0.1847  0.0482
  137SOL    HW1 6426   0.638   3.880   6.333  0.6834  0.7204 -0.1662
  137SOL    HW2 6427   0.648   4.043   6.331  0.0106  0.7599 -2.2126
  138SOL     OW 6428   2.393   2.670   6.045 -0.2806  0.4296  0.2467
  138SOL    HW1 6429   2.312   2.727   6.059  1.1130  1.8990  2.9656
  138SOL    HW2 6430   2.429   2.640   6.133  0.3719 -2.8979 -1.0089
  139SOL     OW 6431   2.740   2.950   1.263  0.5435  0.0282  0.0690
  139SOL    HW1 6432   2.720   2.963   1.360 -1.7453  0.4754 -0.3951
  139SOL    HW2 6433   2.753   2.852   1.245 -0.1891 -0.1935  0.6588
  140SOL     OW 6434   1.459   3.130   0.188 -0.0849 -0.0163  0.3123
  140SOL    HW1 6435   1.463   3.072   0.107  1.4528 -3.5120  2.6189
  140SOL    HW2 6436   1.533   3.197   0.185  1.6296 -1.8276 -0.0930
  141SOL     OW 6437   3.830   2.930   0.395 -0.6122 -0.0057  0.2023
  141SOL    HW1 6438   3.745   2.982   0.388 -1.4574 -1.4459 -0.7351
  141SOL    HW2 6439   3.843   2.877   0.312  0.7344 -0.5363  0.7273
  142SOL     OW 6440   1.333   1.334   6.083 -0.3499  0.2065 -0.3986
  142SOL    HW1 6441   1.250   1.371   6.040  0.8410  2.6706 -0.7739
  142SOL    HW2 6442   1.413   1.365   6.032  0.9527  0.3497  1.6160
  143SOL     OW 6443   2.768   4.563   6.395  0.5680 -0.1694 -0.0498
  143SOL    HW1 6444   2.793   4.607   6.309 -0.2079  0.1332 -0.1323
  143SOL    HW2 6445   2.698   4.618   6.441  1.3873 -0.0286  1.0611
  144SOL     OW 6446   5.671   3.172   6.374  0.4148 -0.0939  0.3211
  144SOL    HW1 6447   5.735   3.248   6.383  1.0055 -0.6470  0.8479
  144SOL    HW2 6448   5.646   3.161   6.277 -1.4771  2.2183  0.4769
  145SOL     OW 6449   3.530   5.072   4.699  0.9386  0.5144 -0.1663
  145SOL    HW1 6450   3.488   5.163   4.695  0.5136  0.2955 -0.7231
  145SOL    HW2 6451   3.589   5.059   4.619 -1.5725 -0.9393 -1.9193
  146SOL     OW 6452   0.507   0.156   0.390 -0.5785 -0.2358  0.1464
  146SOL    HW1 6453   0.559   0.161   0.475 -0.3912 -0.8597  0.0773
  146SOL    HW2 6454   0.543   0.223   0.325 -0.4934 -0.0009  0.4340
  147SOL     OW 6455   3.470   1.489   5.042  1.0418  0.4272  1.2341
  147SOL    HW1 6456   3.440   1.584   5.044 -0.8938 -0.1085  0.1841
  147SOL    HW2 6457   3.567   1.486   5.018  1.3868  2.1477  2.2223
  148SOL     OW 6458   0.036   0.432   6.107 -0.0217  0.3767  0.0544
  148SOL    HW1 6459  -0.009   0.516   6.138  1.0339  1.4382 -1.1806
  148SOL    HW2 6460   0.111   0.410   6.170  1.2947  1.8019 -0.9422
  149SOL     OW 6461   4.079   4.175   6.473 -0.2837 -0.3904 -0.2470
  149SOL    HW1 6462   4.103   4.185   6.376 -0.1645 -0.9824 -0.2865
  149SOL    HW2 6463   4.029   4.089   6.486 -0.8466 -0.0061  0.1193
  150SOL     OW 6464   3.540   0.550   0.951  0.3531  0.3113  0.0752
  150SOL    HW1 6465   3.458   0.493   0.953  0.4212  0.2089  1.6792
  150SOL    HW2 6466   3.513   0.646   0.938 -0.0517  0.2853  0.6508
  151SOL     OW 6467   4.366   4.931   6.505  0.3110  0.0758 -0.1620
  151SOL    HW1 6468   4.462   4.907   6.517  0.9063  2.0746 -0.6289
  151SOL    HW2 6469   4.334   4.895   6.417  1.1653  0.9202 -0.8335
  152SOL     OW 6470   3.871   1.784   5.908  0.2566  0.8829  0.0908
  152SOL    HW1 6471   3.880   1.860   5.973  0.5214  1.4154 -0.5495
  152SOL    HW2 6472   3.943   1.791   5.840 -0.3760  0.6886 -0.6077
  153SOL     OW 6473   1.844   3.023   1.326  0.7212  0.4698 -0.0604
  153SOL    HW1 6474   1.943   3.016   1.335  0.5354 -1.8219  0.9470
  153SOL    HW2 6475   1.808   3.073   1.405  0.9771  0.2401  0.2049
  154SOL     OW 6476   6.114   6.124   5.383  0.3499  0.2013  0.6233
  154SOL    HW1 6477   6.049   6.179   5.435  0.9955 -0.0715  1.7667
  154SOL    HW2 6478   6.078   6.031   5.375  0.5149  0.0878  1.1270
  155SOL     OW 6479   1.580   0.761   4.496  0.5475  0.3644  0.4440
  155SOL    HW1 6480   1.511   0.833   4.495 -1.5420 -1.4645  2.2205
  155SOL    HW2 6481   1.562   0.696   4.422  0.2312 -0.1783  0.9814
  156SOL     OW 6482   5.011   0.220   0.159 -0.0325 -0.3406 -0.0755
  156SOL    HW1 6483   5.004   0.155   0.084 -0.1044 -0.3542 -0.0572
  156SOL    HW2 6484   4.920   0.237   0.197 -0.5162  2.0264 -2.0192
  157SOL     OW 6485   4.630   3.490   4.859  0.0823  0.1245 -0.2883
  157SOL    HW1 6486   4.717   3.488   4.908 -0.9911 -0.7591  1.7251
  157SOL    HW2 6487   4.589   3.580   4.867  0.3844  0.2759 -0.4371
  158SOL     OW 6488   1.771   5.693   1.794  0.2962  0.9956 -0.2650
  158SOL    HW1 6489   1.858   5.724   1.756  1.0140  0.0973  0.5874
  158SOL    HW2 6490   1.728   5.768   1.845  2.2601  0.5911  2.2296
  159SOL     OW 6491   3.354   5.707   6.187 -0.1342 -0.3013  0.1566
  159SOL    HW1 6492   3.367   5.616   6.149 -0.9444  0.2210 -1.4542
  159SOL    HW2 6493   3.272   5.708   6.244  0.2555 -0.7307  0.7316
  160SOL     OW 6494   2.390   4.549   0.807 -0.0426 -0.1497  0.4247
  160SOL    HW1 6495   2.324   4.560   0.881 -0.1877  1.9857  0.0495
  160SOL    HW2 6496   2.342   4.554   0.719  0.4984  0.8470  0.1631
  161SOL     OW 6497   0.841   1.915   4.735 -0.2603 -0.1779 -0.4419
  161SOL    HW1 6498   0.817   1.958   4.648 -2.3677  0.0071  0.1774
  161SOL    HW2 6499   0.895   1.833   4.718 -0.3869  0.0177 -1.8982
  162SOL     OW 6500   1.675   0.088   0.643 -0.4506 -0.6412  0.4525
  162SOL    HW1 6501   1.625   0.122   0.563  1.0147 -0.1393 -0.2738
  162SOL    HW2 6502   1.656   0.147   0.722  0.3176  0.5563 -0.2437
  163SOL     OW 6503   5.412   2.370   5.516 -0.2891  0.1814 -0.0834
  163SOL    HW1 6504   5.448   2.449   5.567  0.1989 -0.4327  0.5385
  163SOL    HW2 6505   5.353   2.316   5.576 -0.6600  0.0960 -0.5229
  164SOL     OW 6506   6.017   5.360   6.165 -0.1685 -0.0018 -0.1977
  164SOL    HW1 6507   6.057   5.424   6.230 -0.4093 -0.5572  0.5143
  164SOL    HW2 6508   6.036   5.390   6.072 -0.4088  1.1754  0.1238
  165SOL     OW 6509   1.878   6.213   1.209  0.2874  0.0734  0.3747
  165SOL    HW1 6510   1.813   6.289   1.204  0.7082  0.4813  0.9052
  165SOL    HW2 6511   1.946   6.232   1.281  0.1340 -1.0086  0.8249
  166SOL     OW 6512   4.924   3.064   0.044 -0.6860 -0.1449  0.2623
  166SOL    HW1 6513   4.869   3.110  -0.025  0.3768  3.3684  1.5765
  166SOL    HW2 6514   4.868   2.995   0.090 -2.2057 -0.6479 -2.1510
  167SOL     OW 6515   0.510   3.594   5.180 -0.4618  0.3567  0.0596
  167SOL    HW1 6516   0.479   3.559   5.092  0.0888 -0.2909  0.1160
  167SOL    HW2 6517   0.609   3.580   5.189 -0.4898  0.5208  0.7318
  168SOL     OW 6518   4.154   0.333   6.232  0.2160 -0.2095  0.2391
  168SOL    HW1 6519   4.149   0.432   6.238  0.8386 -0.1140 -0.6243
  168SOL    HW2 6520   4.224   0.307   6.165  0.5004 -1.2372  0.9082
  169SOL     OW 6521   4.907   4.189   6.014  0.9112 -0.8574 -0.3612
  169SOL    HW1 6522   4.896   4.096   5.977  0.1137 -1.2363  0.7811
  169SOL    HW2 6523   4.905   4.185   6.114 -2.3585  0.7134 -0.2493
  170SOL     OW 6524   3.036   2.458   5.163  0.8294 -0.3988 -0.1144
  170SOL    HW1 6525   2.965   2.525   5.144  0.6434 -0.9619 -1.5245
  170SOL    HW2 6526   3.070   2.471   5.256 -0.2026  0.7070  0.1325
  171SOL     OW 6527   6.152   1.894   0.768 -0.0226 -0.3221 -0.5765
  171SOL    HW1 6528   6.078   1.906   0.835  0.2559  4.0219 -0.7540
  171SOL    HW2 6529   6.163   1.797   0.749 -2.3361 -1.5682  3.1335
  172SOL     OW 6530   3.527   5.514   5.540 -0.0472 -0.1226  0.2065
  172SOL    HW1 6531   3.475   5.487   5.459 -1.0829 -1.9655  1.4096
  172SOL    HW2 6532   3.624   5.500   5.523  0.0966  2.4348 -1.7266
  173SOL     OW 6533   0.317   4.396   5.731 -0.1235 -0.0729 -0.2439
  173SOL    HW1 6534   0.244   4.387   5.663 -1.0767 -1.8868  0.9621
  173SOL    HW2 6535   0.277   4.416   5.820  0.7360 -2.1427  0.6514
  174SOL     OW 6536   4.192   5.683   0.758 -0.2682  0.6219 -0.2130
  174SOL    HW1 6537   4.190   5.597   0.705 -0.0005 -0.0028  0.7679
  174SOL    HW2 6538   4.213   5.663   0.853 -0.0395  1.8110  0.0006
  175SOL     OW 6539   1.212   3.597   6.275  0.4618 -0.2175 -0.1456
  175SOL    HW1 6540   1.158   3.514   6.286  1.0892 -0.6912 -0.5070
  175SOL    HW2 6541   1.154   3.672   6.245 -0.4143 -0.0931  1.7535
  176SOL     OW 6542   1.270   4.336   6.435 -0.1343  0.1663 -0.2450
  176SOL    HW1 6543   1.338   4.401   6.403  0.3613  0.4903  1.4007
  176SOL    HW2 6544   1.261   4.343   6.534 -0.5681 -1.7853 -0.1078
  177SOL     OW 6545   3.415   5.319   0.979 -0.0873 -0.3093  0.0136
  177SOL    HW1 6546   3.331   5.323   1.034 -0.7543 -0.5326 -0.9611
  177SOL    HW2 6547   3.490   5.287   1.036 -0.8499 -0.9330  0.7040
  178SOL     OW 6548   3.533   2.809   0.406  0.1241  0.1667 -0.6283
  178SOL    HW1 6549   3.504   2.754   0.484 -1.4211 -0.2045 -1.4164
  178SOL    HW2 6550   3.526   2.906   0.428  0.5173  0.0688 -0.0463
  179SOL     OW 6551   1.403   6.047   0.911 -0.5023  0.5522 -0.2082
  179SOL    HW1 6552   1.443   6.025   1.000 -1.3586  0.1860  0.0907
  179SOL    HW2 6553   1.455   6.122   0.870  1.4686 -0.9330 -0.5432
  180SOL     OW 6554   5.067   2.918   6.326  0.4191 -0.1124  0.3569
  180SOL    HW1 6555   5.018   2.980   6.387 -0.5117 -0.5535  0.0885
  180SOL    HW2 6556   5.081   2.962   6.237 -2.5488 -1.0838 -0.7370
  181SOL     OW 6557   0.681   2.091   0.425  0.2569  1.0076 -0.0543
  181SOL    HW1 6558   0.761   2.036   0.449 -1.3602 -0.6670  1.7657
  181SOL    HW2 6559   0.598   2.035   0.432 -1.0776  2.4398 -2.7112
  182SOL     OW 6560   0.663   3.069   0.035  0.0372 -0.2514  0.3351
  182SOL    HW1 6561   0.649   3.006   0.111  1.2672 -0.8490  0.1025
  182SOL    HW2 6562   0.686   3.160   0.070  2.3178 -0.9137  0.7580
  183SOL     OW 6563   1.512   0.455   5.311 -0.2673  0.1831 -0.2048
  183SOL    HW1 6564   1.611   0.443   5.316 -0.3763 -0.1843  1.2457
  183SOL    HW2 6565   1.487   0.541   5.355 -0.4743  1.0009 -1.8437
  184SOL     OW 6566   4.497   5.526   0.145 -0.0209  0.4025 -0.2654
  184SOL    HW1 6567   4.504   5.625   0.135 -1.2062  0.3487 -2.2309
  184SOL    HW2 6568   4.400   5.500   0.150  0.2912 -0.6206  0.9516
  185SOL     OW 6569   5.952   5.158   6.329  0.1440 -0.1360  0.0755
  185SOL    HW1 6570   5.889   5.090   6.293 -0.7505  0.6638  0.0845
  185SOL    HW2 6571   5.973   5.226   6.258  4.2388 -2.5131 -1.3099
  186SOL     OW 6572   0.188   4.664   5.579  0.1911  0.0914 -0.2302
  186SOL    HW1 6573   0.167   4.612   5.662  3.5689 -2.1713 -0.5630
  186SOL    HW2 6574   0.119   4.645   5.509 -0.3553 -1.4943  0.6865
  187SOL     OW 6575   4.784   3.140   0.303 -0.2852 -0.3647  0.1930
  187SOL    HW1 6576   4.812   3.230   0.334 -1.2182 -0.1967  0.5842
  187SOL    HW2 6577   4.700   3.147   0.248  0.7269 -0.7797 -1.5008
  188SOL     OW 6578   2.839   0.778   5.598 -0.0384  0.6085  0.0197
  188SOL    HW1 6579   2.831   0.846   5.525 -1.6750  1.7538  1.1912
  188SOL    HW2 6580   2.868   0.823   5.683  0.6167 -0.4849  0.4025
  189SOL     OW 6581   3.498   2.887   0.139 -0.0812 -0.0369 -0.1075
  189SOL    HW1 6582   3.539   2.872   0.229  0.6913  0.2866 -0.3905
  189SOL    HW2 6583   3.430   2.817   0.120  0.3972 -0.6298  0.3514
  190SOL     OW 6584   5.798   3.464   6.076  0.0082 -0.3980 -0.2047
  190SOL    HW1 6585   5.889   3.470   6.035  0.1221  1.0472  0.1930
  190SOL    HW2 6586   5.782   3.545   6.133 -0.4017 -1.9828  2.0739
  191SOL     OW 6587   0.869   1.916   5.312 -0.2559  0.0918  0.2798
  191SOL    HW1 6588   0.784   1.918   5.364 -1.0500  2.1116 -0.9662
  191SOL    HW2 6589   0.858   1.857   5.231 -0.3725  0.1381  0.2626
  192SOL     OW 6590   1.150   4.837   6.019 -0.2982  0.0504 -0.3327
  192SOL    HW1 6591   1.077   4.852   6.086  0.1752  0.8489  0.0229
  192SOL    HW2 6592   1.184   4.744   6.028 -1.6598 -0.5222 -0.9048
  193SOL     OW 6593   2.846   1.696   0.315 -0.0098  0.0347  0.3747
  193SOL    HW1 6594   2.820   1.782   0.270 -0.2721  0.4838  1.3606
  193SOL    HW2 6595   2.763   1.642   0.333  0.0955 -0.1469  0.3123
  194SOL     OW 6596   4.547   2.115   0.587 -0.0465 -0.4467 -0.1043
  194SOL    HW1 6597   4.468   2.065   0.551 -1.0123  0.9565 -0.0222
  194SOL    HW2 6598   4.516   2.178   0.659  0.8203  1.5122 -1.3769
  195SOL     OW 6599   1.670   1.551   6.179  0.3093 -0.2277 -0.4818
  195SOL    HW1 6600   1.678   1.613   6.101  2.5350 -0.7158 -0.7278
  195SOL    HW2 6601   1.745   1.484   6.176  0.7941  0.0516  2.3434
  196SOL     OW 6602   3.086   4.378   0.117 -0.2583 -0.5297 -0.2447
  196SOL    HW1 6603   3.006   4.431   0.146  1.1298  1.1384  0.6924
  196SOL    HW2 6604   3.158   4.386   0.185  1.6139  0.0413 -2.1828
  197SOL     OW 6605   5.646   6.204   5.514  0.3761 -0.1510 -0.5543
  197SOL    HW1 6606   5.608   6.112   5.509 -1.3573  0.4465  0.5457
  197SOL    HW2 6607   5.572   6.271   5.509  1.6251  1.2128 -1.6523
  198SOL     OW 6608   6.330   1.030   6.308  0.6390 -1.0506 -0.0684
  198SOL    HW1 6609   6.397   0.960   6.334  0.0377 -0.5093  3.5049
  198SOL    HW2 6610   6.331   1.104   6.376 -1.6783  0.3367 -1.4146
  199SOL     OW 6611   1.645   2.309   0.744  0.9301  0.1495 -0.8833
  199SOL    HW1 6612   1.661   2.356   0.830  0.9961 -0.7436 -0.4022
  199SOL    HW2 6613   1.670   2.370   0.668 -1.7790  2.0483 -0.4188
  200SOL     OW 6614   3.421   3.778   5.503  0.9106 -0.1268 -0.2124
  200SOL    HW1 6615   3.413   3.807   5.599  1.5996 -0.5105 -0.0346
  200SOL    HW2 6616   3.380   3.848   5.444  1.2617  0.5352  0.3077
  201SOL     OW 6617   6.175   1.723   0.093 -0.4031 -0.1327 -0.3169
  201SOL    HW1 6618   6.114   1.651   0.124  0.4770 -0.8293 -0.1855
  201SOL    HW2 6619   6.122   1.807   0.077 -1.1399 -0.2330  1.3962
  202SOL     OW 6620   3.238   5.829   0.932 -0.2851  1.0703  0.3797
  202SOL    HW1 6621   3.261   5.743   0.887 -0.1142  2.1271 -1.6903
  202SOL    HW2 6622   3.147   5.823   0.971 -0.1239 -0.1629  0.6214
  203SOL     OW 6623   5.865   5.331   0.058  0.3498  0.4320 -0.4877
  203SOL    HW1 6624   5.915   5.298  -0.022 -1.7514 -1.3025 -1.1675
  203SOL    HW2 6625   5.911   5.300   0.141 -0.4191 -2.6370 -1.0965
  204SOL     OW 6626   3.229   6.263   5.326 -0.5991 -0.8019 -0.1706
  204SOL    HW1 6627   3.195   6.192   5.264 -1.1203 -0.6596 -0.0558
  204SOL    HW2 6628   3.278   6.333   5.274 -0.8482 -0.7946 -0.3956
  205SOL     OW 6629   3.126   4.168   0.547  0.1598 -0.5358 -0.3515
  205SOL    HW1 6630   3.073   4.182   0.464 -0.2682  0.5444  0.0914
  205SOL    HW2 6631   3.220   4.144   0.523  0.6132  1.8602 -1.1923
  206SOL     OW 6632   2.731   0.460   6.226  0.4438 -0.1724 -0.0575
  206SOL    HW1 6633   2.707   0.368   6.196  0.0651  0.3604 -1.4850
  206SOL    HW2 6634   2.829   0.475   6.213  0.3125 -0.0051 -0.9264
  207SOL     OW 6635   3.652   1.875   4.967 -0.8052 -0.5245 -0.7010
  207SOL    HW1 6636   3.734   1.817   4.969 -0.7727 -0.4620  0.4163
  207SOL    HW2 6637   3.660   1.942   4.893  1.4343  1.2942  1.0305
  208SOL     OW 6638   1.943   3.802   6.032 -0.2310 -0.5267 -0.3979
  208SOL    HW1 6639   2.018   3.796   6.098 -0.0012  0.4745 -0.5594
  208SOL    HW2 6640   1.957   3.734   5.960  1.1953  0.4682 -1.1046
  209SOL     OW 6641   1.984   3.244   6.021  0.2990  0.3455 -0.5539
  209SOL    HW1 6642   2.032   3.327   6.049  0.9947  0.0939 -0.9806
  209SOL    HW2 6643   1.903   3.269   5.969 -2.3231  0.9511  3.3612
  210SOL     OW 6644   6.181   3.459   0.810  0.0235  0.1644 -0.3180
  210SOL    HW1 6645   6.143   3.410   0.732 -1.1886  0.3075  0.1653
  210SOL    HW2 6646   6.146   3.420   0.895  0.0951  0.9927  0.1078
  211SOL     OW 6647   0.108   3.617   4.925  0.1377  0.1939 -0.8852
  211SOL    HW1 6648   0.096   3.558   4.845 -1.1961 -2.6216  1.2066
  211SOL    HW2 6649   0.022   3.665   4.944  0.5690  1.1648 -1.3276
  212SOL     OW 6650   1.203   3.022   0.488 -0.6607  0.1796  0.3349
  212SOL    HW1 6651   1.111   3.053   0.510  0.4939  1.9615  3.3197
  212SOL    HW2 6652   1.223   3.044   0.392 -2.5439  1.9072  0.2630
  213SOL     OW 6653   3.165   2.168   0.924  0.2471 -0.1796 -0.0337
  213SOL    HW1 6654   3.187   2.071   0.918 -0.2925 -0.2917 -0.2642
  213SOL    HW2 6655   3.245   2.219   0.955  0.8108 -0.5794 -0.8183
  214SOL     OW 6656   1.714   1.925   4.720 -0.2303 -0.0055  0.4186
  214SOL    HW1 6657   1.724   1.997   4.651  0.8461 -1.0110 -0.5321
  214SOL    HW2 6658   1.625   1.932   4.764 -1.5549 -0.1496 -2.0548
  215SOL     OW 6659   3.087   0.209   6.362 -0.4134  0.9061 -0.0886
  215SOL    HW1 6660   3.131   0.299   6.356 -1.1652  1.2391 -1.0110
  215SOL    HW2 6661   2.992   0.221   6.393 -0.3226  0.3608  0.4106
  216SOL     OW 6662   6.127   2.090   5.749  0.4995  0.1717  0.1508
  216SOL    HW1 6663   6.123   2.028   5.828 -1.6081 -0.9803 -0.7732
  216SOL    HW2 6664   6.065   2.167   5.764  1.8314  1.1983  0.5606
  217SOL     OW 6665   5.598   6.083   6.021 -0.2217  0.1481 -0.2078
  217SOL    HW1 6666   5.651   6.029   6.085  1.2338 -0.5395 -1.9232
  217SOL    HW2 6667   5.622   6.180   6.031  2.2938 -0.2406 -1.6848
  218SOL     OW 6668   5.362   5.512   1.394 -0.5418  0.5434  0.2743
  218SOL    HW1 6669   5.453   5.526   1.355 -0.4746 -1.7539 -0.5547
  218SOL    HW2 6670   5.352   5.569   1.476  1.5133  1.0757  0.2101
  219SOL     OW 6671   2.461   5.500   6.291  0.3255  0.3244  0.0985
  219SOL    HW1 6672   2.520   5.564   6.242  0.1645 -0.0119 -0.5382
  219SOL    HW2 6673   2.479   5.407   6.260  1.2911 -0.0827  1.7457
  220SOL     OW 6674   0.378   5.565   6.427  0.5132  0.2746 -0.9552
  220SOL    HW1 6675   0.391   5.468   6.447  0.2588  0.4483  0.1596
  220SOL    HW2 6676   0.467   5.610   6.421  0.6196  0.3806  0.8258
  221SOL     OW 6677   2.495   2.503   1.054 -0.1095 -0.1086  0.1305
  221SOL    HW1 6678   2.498   2.456   1.142  0.7303 -0.5061 -0.0955
  221SOL    HW2 6679   2.483   2.601   1.069 -1.5098 -0.3325  0.6220
  222SOL     OW 6680   3.560   0.041   0.165  0.6541 -0.3820 -0.1389
  222SOL    HW1 6681   3.617   0.073   0.089  0.2098 -1.1216 -0.8029
  222SOL    HW2 6682   3.477   0.097   0.170 -0.4346 -1.7476 -1.7106
  223SOL     OW 6683   0.766   0.058   6.237  0.5753  0.0911  0.1943
  223SOL    HW1 6684   0.762   0.157   6.224 -2.6646 -0.0424 -0.7977
  223SOL    HW2 6685   0.767   0.013   6.148  2.2866 -0.8103  0.6371
  224SOL     OW 6686   3.527   2.019   0.062 -0.3070  0.2291  0.1603
  224SOL    HW1 6687   3.601   2.078   0.095  1.7552 -1.0756 -1.8109
  224SOL    HW2 6688   3.505   1.951   0.131  0.9722  0.1163  0.4896
  225SOL     OW 6689   2.462   0.869   4.803  0.5456 -0.2069 -0.4369
  225SOL    HW1 6690   2.401   0.902   4.875  3.1962 -1.4568  2.6358
  225SOL    HW2 6691   2.513   0.946   4.765  2.3016  0.1455  2.3364
  226SOL     OW 6692   2.716   1.464   1.221 -0.1973 -0.0769 -0.0775
  226SOL    HW1 6693   2.655   1.541   1.205  0.2891  0.3926  0.2891
  226SOL    HW2 6694   2.715   1.440   1.317  0.3181  0.0463 -0.0369
  227SOL     OW 6695   3.803   4.885   5.678  0.7830  0.3354 -0.3804
  227SOL    HW1 6696   3.797   4.791   5.645 -0.5075  0.1156  0.4267
  227SOL    HW2 6697   3.879   4.893   5.742 -0.4280 -0.7323  1.2690
  228SOL     OW 6698   3.688   0.925   0.118 -0.3206 -0.5120 -0.0655
  228SOL    HW1 6699   3.725   0.999   0.061 -2.8614  1.4960  0.7355
  228SOL    HW2 6700   3.758   0.895   0.183  1.1534  0.3326 -1.1986
  229SOL     OW 6701   0.231   6.213   5.470 -0.0077  0.7250 -0.1575
  229SOL    HW1 6702   0.229   6.232   5.372 -1.3077 -0.6488 -0.4234
  229SOL    HW2 6703   0.139   6.189   5.502  0.0977  2.4803  1.6950
  230SOL     OW 6704   0.657   2.629   5.302  0.6434 -0.3875 -0.8550
  230SOL    HW1 6705   0.585   2.619   5.234  0.7258  1.4492 -1.2693
  230SOL    HW2 6706   0.745   2.639   5.256  0.7738  0.2730 -0.4816
  231SOL     OW 6707   3.153   4.945   0.160 -0.1067 -0.5935  0.2470
  231SOL    HW1 6708   3.235   4.991   0.195  0.5188 -1.4403 -0.0936
  231SOL    HW2 6709   3.082   5.013   0.142  1.9524  0.8272 -3.6721
  232SOL     OW 6710   2.800   0.257   6.409 -0.0847 -0.1274  0.7871
  232SOL    HW1 6711   2.811   0.178   6.348  0.0233 -0.3692  1.1122
  232SOL    HW2 6712   2.703   0.275   6.424 -0.1093 -0.3148  0.8562
  233SOL     OW 6713   0.986   5.555   5.616 -0.4216 -0.5037  0.0980
  233SOL    HW1 6714   0.991   5.645   5.572 -1.7885  0.0925  1.0795
  233SOL    HW2 6715   1.029   5.487   5.558 -2.5118  0.1576 -2.4222
  234SOL     OW 6716   3.272   6.157   1.324 -0.2182  0.3588  0.0230
  234SOL    HW1 6717   3.299   6.088   1.257  0.3304  1.2903 -0.7360
  234SOL    HW2 6718   3.347   6.222   1.337 -1.1686  1.5211 -0.1838
  235SOL     OW 6719   4.498   4.168   5.500 -0.0341  0.2559 -0.3246
  235SOL    HW1 6720   4.424   4.123   5.450  0.2852 -0.2449 -0.3508
  235SOL    HW2 6721   4.515   4.258   5.460 -1.6241  1.0101  0.5963
  236SOL     OW 6722   1.951   5.699   5.502 -0.3394  0.2197  0.3555
  236SOL    HW1 6723   1.867   5.647   5.490  0.2715 -0.6163 -0.3844
  236SOL    HW2 6724   1.999   5.665   5.583 -0.8430  0.8912  0.9473
  237SOL     OW 6725   1.322   0.587   6.313 -0.0289 -0.6445  0.0188
  237SOL    HW1 6726   1.334   0.546   6.222  1.0645 -0.6475  0.1570
  237SOL    HW2 6727   1.300   0.514   6.378  0.6970 -0.8604  0.0340
  238SOL     OW 6728   1.813   1.127   6.138 -0.2069  0.4578  0.0072
  238SOL    HW1 6729   1.859   1.123   6.050  1.8540  1.5043  0.9730
  238SOL    HW2 6730   1.825   1.219   6.177 -3.1833  0.8154  0.3307
  239SOL     OW 6731   2.890   1.776   1.345 -0.6101  0.3432  0.3059
  239SOL    HW1 6732   2.878   1.856   1.285  0.8799  0.3010 -0.0777
  239SOL    HW2 6733   2.911   1.807   1.437 -0.2886  0.4039  0.2143
  240SOL     OW 6734   0.088   4.358   5.544 -0.6796  0.4170  0.3776
  240SOL    HW1 6735   0.056   4.285   5.483 -0.2571  0.6251 -0.0954
  240SOL    HW2 6736   0.013   4.423   5.560 -0.2498  1.4730 -1.5559
  241SOL     OW 6737   0.870   3.499   6.242  0.2006 -0.5391  0.8294
  241SOL    HW1 6738   0.924   3.519   6.160 -0.7848  0.7524  0.4663
  241SOL    HW2 6739   0.828   3.409   6.233  0.4916 -0.6104  0.1224
  242SOL     OW 6740   5.720   4.849   5.337 -0.4057 -0.4121  0.4971
  242SOL    HW1 6741   5.696   4.752   5.337 -0.6125 -0.3954 -1.6054
  242SOL    HW2 6742   5.672   4.895   5.263 -0.9357  1.4872  1.9373
  243SOL     OW 6743   3.173   0.372   0.550 -0.2157  0.0271  0.1775
  243SOL    HW1 6744   3.135   0.430   0.622 -0.6768  0.1130 -0.1343
  243SOL    HW2 6745   3.135   0.399   0.462  0.1874 -0.2185 -0.0727
  244SOL     OW 6746   4.552   5.594   0.629 -0.1041 -0.2135  0.4477
  244SOL    HW1 6747   4.488   5.600   0.552  0.3910 -1.2631 -0.0615
  244SOL    HW2 6748   4.508   5.543   0.704 -0.7624  1.2132  1.0779
  245SOL     OW 6749   3.129   3.350   0.816  0.3823 -0.7686 -0.3006
  245SOL    HW1 6750   3.181   3.326   0.734  0.7766  1.7038 -0.8663
  245SOL    HW2 6751   3.037   3.377   0.790  0.4580 -0.1268  0.0819
  246SOL     OW 6752   2.268   6.020   5.958 -0.9480 -0.7502 -0.3956
  246SOL    HW1 6753   2.236   6.088   6.024 -0.4616 -0.1121 -0.8033
  246SOL    HW2 6754   2.344   5.968   5.997 -0.2338  0.0635 -0.6740
  247SOL     OW 6755   5.104   3.079   0.311  0.7597 -0.3545  0.2108
  247SOL    HW1 6756   5.004   3.079   0.308  0.7718 -1.0686 -0.6710
  247SOL    HW2 6757   5.139   3.117   0.226  1.2540  1.3014  1.1235
  248SOL     OW 6758   0.767   5.831   5.426 -0.0240  0.5324  0.3720
  248SOL    HW1 6759   0.782   5.787   5.338 -1.7188  1.3471 -0.3438
  248SOL    HW2 6760   0.856   5.851   5.468  0.8216  0.7353 -1.4354
  249SOL     OW 6761   1.804   1.628   0.271  0.0077 -0.1519 -0.7358
  249SOL    HW1 6762   1.794   1.700   0.203 -0.8496  1.5390  1.0649
  249SOL    HW2 6763   1.885   1.574   0.251  1.6688  2.3635 -1.2979
  250SOL     OW 6764   1.877   4.950   1.423  0.3019  0.3357  1.1497
  250SOL    HW1 6765   1.949   4.964   1.491 -0.3647  1.2381  1.6761
  250SOL    HW2 6766   1.795   4.914   1.468 -0.0195  0.5771  0.7573
  251SOL     OW 6767   1.451   1.454   4.683 -0.4717  0.0058  0.3174
  251SOL    HW1 6768   1.486   1.535   4.637 -0.0510 -0.0479  0.5398
  251SOL    HW2 6769   1.384   1.481   4.753 -1.0401  0.0920 -0.2543
  252SOL     OW 6770   4.297   5.401   1.043 -0.1252 -0.0740  0.5483
  252SOL    HW1 6771   4.274   5.346   0.962 -0.3220  1.2042 -0.2859
  252SOL    HW2 6772   4.230   5.384   1.115 -1.4831  0.7025 -0.4848
  253SOL     OW 6773   3.338   2.017   1.149  0.3832  0.0122 -0.6131
  253SOL    HW1 6774   3.277   2.045   1.223  2.2768  2.0632  0.2620
  253SOL    HW2 6775   3.378   1.928   1.171 -0.2236 -0.0922  0.0962
  254SOL     OW 6776   1.259   1.349   0.409  0.0254  0.4852  0.2141
  254SOL    HW1 6777   1.168   1.360   0.369 -0.4937  0.8489  1.4500
  254SOL    HW2 6778   1.323   1.322   0.337 -0.7655  1.5669 -0.9445
  255SOL     OW 6779   4.884   2.296   6.461  0.0247 -0.2490 -0.2975
  255SOL    HW1 6780   4.808   2.319   6.399  0.0855  1.5981  0.2582
  255SOL    HW2 6781   4.928   2.380   6.493  1.8948 -1.2647 -0.0644
  256SOL     OW 6782   5.338   6.238   4.934 -0.0744 -0.3139  0.4689
  256SOL    HW1 6783   5.381   6.212   4.848  0.5307  0.8695  0.3832
  256SOL    HW2 6784   5.322   6.337   4.934  1.2781 -0.0457  2.2726
  257SOL     OW 6785   3.351   0.434   5.625  0.1871  0.4673 -0.3847
  257SOL    HW1 6786   3.263   0.443   5.670 -1.7224  0.5303 -3.8052
  257SOL    HW2 6787   3.369   0.338   5.606  1.1182  0.4114  0.6869
  258SOL     OW 6788   0.851   4.692   0.648 -0.6307  0.1410  0.3753
  258SOL    HW1 6789   0.789   4.722   0.721 -1.8599 -1.3226 -0.0194
  258SOL    HW2 6790   0.909   4.769   0.620 -0.1852  0.7862  2.7955
  259SOL     OW 6791   3.283   5.771   5.861 -0.4229 -0.4244 -0.4898
  259SOL    HW1 6792   3.381   5.781   5.850 -0.1385 -1.1835  1.0459
  259SOL    HW2 6793   3.251   5.836   5.931 -1.0323 -0.1596 -1.0014
  260SOL     OW 6794   2.433   5.566   0.858  0.1610  0.3486  0.1643
  260SOL    HW1 6795   2.412   5.471   0.878  0.3207  0.3697  0.4463
  260SOL    HW2 6796   2.522   5.589   0.897  0.3279  0.4867 -0.2957
  261SOL     OW 6797   1.273   2.201   1.042  0.4198 -0.4236 -0.6916
  261SOL    HW1 6798   1.315   2.268   1.103 -0.0480  1.4365 -2.3275
  261SOL    HW2 6799   1.345   2.141   1.006  1.2455  0.6970 -0.9908
  262SOL     OW 6800   1.646   1.333   0.805  0.1665  0.0883 -0.1431
  262SOL    HW1 6801   1.679   1.239   0.806 -1.8161 -0.6489  0.4048
  262SOL    HW2 6802   1.602   1.352   0.717 -0.8562 -0.0427  0.3279
  263SOL     OW 6803   4.736   2.226   0.432 -0.7016  0.3184 -0.0339
  263SOL    HW1 6804   4.769   2.151   0.374  0.3732  0.3356  0.5238
  263SOL    HW2 6805   4.697   2.187   0.516  0.3647  0.3827  0.5076
  264SOL     OW 6806   0.353   4.993   6.321 -0.4721  0.0458  0.4248
  264SOL    HW1 6807   0.331   4.899   6.293 -0.2244 -0.0187  0.4410
  264SOL    HW2 6808   0.316   5.057   6.255 -0.2360 -0.0867  0.1621
  265SOL     OW 6809   1.500   0.160   5.197 -0.3211  0.0325 -0.1402
  265SOL    HW1 6810   1.526   0.251   5.228 -4.3272  1.5773 -0.7058
  265SOL    HW2 6811   1.522   0.150   5.100  0.0768  0.4015 -0.0892
  266SOL     OW 6812   4.916   0.343   5.587 -0.2952  0.3058 -0.2274
  266SOL    HW1 6813   4.944   0.368   5.495 -1.6180  3.0545  0.0183
  266SOL    HW2 6814   4.818   0.362   5.598 -0.8215 -2.5935  0.9426
  267SOL     OW 6815   3.690   3.132   0.040 -0.4361 -0.1209  0.7872
  267SOL    HW1 6816   3.597   3.099   0.025 -1.1631  1.3405  1.7934
  267SOL    HW2 6817   3.754   3.056   0.036 -1.6694 -1.1552  0.0922
  268SOL     OW 6818   1.103   5.111   0.158 -0.8576  0.1266 -0.4127
  268SOL    HW1 6819   1.176   5.169   0.193 -0.6617 -0.1422 -0.3711
  268SOL    HW2 6820   1.048   5.162   0.092 -0.3652  0.1981 -0.7773
  269SOL     OW 6821   1.330   1.140   6.379 -0.3707  0.2216  0.7459
  269SOL    HW1 6822   1.374   1.199   6.311 -0.7606  3.3832  2.9782
  269SOL    HW2 6823   1.401   1.094   6.433  0.0502  0.4739  0.4150
  270SOL     OW 6824   0.363   3.776   0.759  0.3865 -0.5865 -0.2152
  270SOL    HW1 6825   0.357   3.833   0.840  1.0304  1.2540 -1.3987
  270SOL    HW2 6826   0.335   3.683   0.781  1.0607 -0.2655  2.2145
  271SOL     OW 6827   2.304   5.968   0.130 -0.0864  0.1380 -0.1427
  271SOL    HW1 6828   2.298   5.869   0.114  0.1694  0.0754  0.1506
  271SOL    HW2 6829   2.291   5.987   0.227 -0.0256  0.3844 -0.1830
  272SOL     OW 6830   4.041   2.294   5.991 -0.0325  0.3451  0.5276
  272SOL    HW1 6831   4.095   2.334   6.065 -0.9439  0.5710  1.0879
  272SOL    HW2 6832   3.950   2.270   6.025  0.1406 -1.2674 -0.0510
  273SOL     OW 6833   1.436   0.028   0.399  0.2405 -0.8596 -0.0362
  273SOL    HW1 6834   1.487  -0.047   0.357 -0.9325 -1.9897  0.4659
  273SOL    HW2 6835   1.390   0.081   0.328  1.9351  0.0753 -0.4783
  274SOL     OW 6836   2.805   1.184   5.581  0.2225 -0.1950  0.7118
  274SOL    HW1 6837   2.716   1.230   5.583  0.1656 -0.3156  1.7242
  274SOL    HW2 6838   2.818   1.139   5.492  0.4262  2.0144 -0.4427
  275SOL     OW 6839   3.704   4.149   6.343 -0.2233 -0.1352  0.4000
  275SOL    HW1 6840   3.747   4.085   6.407 -0.5813 -1.6608 -0.8377
  275SOL    HW2 6841   3.709   4.242   6.381  0.7170 -0.8056  2.0292
  276SOL     OW 6842   1.930   2.820   0.040 -0.3915  0.4648 -0.0300
  276SOL    HW1 6843   1.881   2.840  -0.044 -1.5966 -0.1284  0.5032
  276SOL    HW2 6844   2.011   2.765   0.019 -1.4239 -0.8595 -0.6944
  277SOL     OW 6845   4.874   6.268   6.404 -0.8052  0.1913 -0.3445
  277SOL    HW1 6846   4.851   6.287   6.500  2.1344 -1.9048  0.9388
  277SOL    HW2 6847   4.817   6.193   6.371 -0.0440 -0.9162  0.7531
  278SOL     OW 6848   6.165   5.834   6.505  0.0762 -0.4319 -0.4729
  278SOL    HW1 6849   6.182   5.859   6.601 -3.0073  1.8292 -0.3541
  278SOL    HW2 6850   6.076   5.789   6.498  1.0084 -2.1506 -2.1353
  279SOL     OW 6851   2.940   1.327   5.121 -0.2284 -0.2290 -0.2366
  279SOL    HW1 6852   2.873   1.259   5.091 -2.5208  1.2616  1.1945
  279SOL    HW2 6853   2.970   1.306   5.214  0.0306  0.0021 -0.2666
  280SOL     OW 6854   3.802   2.951   1.901  0.1943  0.2052 -0.4707
  280SOL    HW1 6855   3.835   2.878   1.962  0.4868  1.0123  0.3493
  280SOL    HW2 6856   3.875   3.017   1.885 -0.6866  1.4841  0.5613
  281SOL     OW 6857   2.129   1.282   6.291 -0.3390 -0.2498  0.2502
  281SOL    HW1 6858   2.157   1.189   6.312 -1.1497 -0.4036  0.6792
  281SOL    HW2 6859   2.210   1.342   6.292  0.0826 -0.8110  0.7204
  282SOL     OW 6860   5.712   4.462   0.848  0.0300 -0.1909 -1.3664
  282SOL    HW1 6861   5.633   4.505   0.891 -0.0539 -0.6762 -1.0132
  282SOL    HW2 6862   5.753   4.397   0.913  1.5701  1.0757 -1.0255
  283SOL     OW 6863   0.506   2.806   6.350  0.0935  0.0890  0.3171
  283SOL    HW1 6864   0.408   2.790   6.362  0.4969 -1.2149  2.4741
  283SOL    HW2 6865   0.530   2.896   6.386 -0.4204  0.8415 -1.1398
  284SOL     OW 6866   6.340   0.985   0.393  0.3957 -0.4142 -0.8820
  284SOL    HW1 6867   6.306   1.037   0.471 -0.1358 -0.5977 -0.9871
  284SOL    HW2 6868   6.332   1.041   0.310  0.5975 -0.3618 -0.8668
  285SOL     OW 6869   5.110   2.226   5.897 -0.1654 -0.0023 -0.3681
  285SOL    HW1 6870   5.142   2.236   5.803  0.7127 -0.9882 -0.1998
  285SOL    HW2 6871   5.096   2.129   5.917  2.9561 -0.1967  1.5227
  286SOL     OW 6872   3.019   3.185   4.581  0.3351 -0.3879 -0.1223
  286SOL    HW1 6873   3.028   3.270   4.633  1.2838  0.0516 -0.9740
  286SOL    HW2 6874   3.069   3.112   4.629  1.1772  0.0043 -0.3863
  287SOL     OW 6875   3.009   6.221   6.435  0.3425  0.1797  0.5116
  287SOL    HW1 6876   3.068   6.285   6.387 -0.8149  0.2548 -0.8591
  287SOL    HW2 6877   2.915   6.255   6.435 -0.3192 -1.5501 -0.3336
  288SOL     OW 6878   4.894   5.641   1.098  0.0446  0.2964  0.0464
  288SOL    HW1 6879   4.834   5.679   1.169  0.2950 -0.1882  0.5201
  288SOL    HW2 6880   4.989   5.652   1.125  0.2097  1.4547 -0.9027
  289SOL     OW 6881   3.504   4.506   6.224 -0.3828  0.1589 -0.5466
  289SOL    HW1 6882   3.464   4.595   6.245  1.1898  0.5796  0.8592
  289SOL    HW2 6883   3.444   4.433   6.258 -1.8899  0.6193 -2.0939
  290SOL     OW 6884   3.499   6.312   1.422 -0.2802  0.2032  0.2626
  290SOL    HW1 6885   3.568   6.262   1.474  0.8112  0.8384 -0.5191
  290SOL    HW2 6886   3.530   6.406   1.409 -0.3485 -0.0109 -1.7790
  291SOL     OW 6887   4.750   0.531   5.365  0.7084 -0.1762  0.1191
  291SOL    HW1 6888   4.838   0.550   5.321  3.6206 -3.8371  3.5450
  291SOL    HW2 6889   4.731   0.603   5.432  2.2351 -0.3078  0.7410
  292SOL     OW 6890   0.226   0.844   0.392 -0.1986 -0.2515 -0.0840
  292SOL    HW1 6891   0.245   0.810   0.300  1.6124  2.4987 -0.8357
  292SOL    HW2 6892   0.137   0.889   0.394 -0.6066 -1.0376 -0.2425
  293SOL     OW 6893   3.781   2.538   5.866 -0.1769 -0.1523  0.0015
  293SOL    HW1 6894   3.791   2.441   5.889  1.1176  0.0542  0.3634
  293SOL    HW2 6895   3.713   2.547   5.792 -2.8210 -1.0111  2.1464
  294SOL     OW 6896   5.486   0.307   6.340  0.3239  0.7663  0.0316
  294SOL    HW1 6897   5.482   0.402   6.312  1.8270  1.2893  1.4240
  294SOL    HW2 6898   5.396   0.278   6.374  0.5015  2.6304  2.3660
  295SOL     OW 6899   1.006   6.280   6.228  0.2094  0.1304  0.1624
  295SOL    HW1 6900   1.042   6.279   6.321 -0.6766  1.1715  0.5277
  295SOL    HW2 6901   0.952   6.363   6.213 -1.4172 -0.9993 -0.6023
  296SOL     OW 6902   2.612   4.308   1.789  0.8001 -0.4987 -0.2302
  296SOL    HW1 6903   2.518   4.275   1.783  0.4178  0.3302  0.8271
  296SOL    HW2 6904   2.642   4.306   1.884  0.7409  2.1241 -0.0869
  297SOL     OW 6905   3.660   2.573   0.323  0.2230  0.0445  0.0965
  297SOL    HW1 6906   3.626   2.666   0.337 -1.7394 -0.7228  0.8931
  297SOL    HW2 6907   3.629   2.515   0.398 -0.7125 -1.7690 -1.5975
  298SOL     OW 6908   4.259   2.742   5.966  0.1220  0.4130  0.8346
  298SOL    HW1 6909   4.354   2.731   5.994  0.0911  0.2643  0.8792
  298SOL    HW2 6910   4.198   2.714   6.040  0.0349  2.1646  1.4672
  299SOL     OW 6911   0.555   5.717   5.546 -0.2004 -0.0118 -0.4577
  299SOL    HW1 6912   0.639   5.755   5.509  1.0064 -0.7558  1.4024
  299SOL    HW2 6913   0.526   5.771   5.625 -0.1532 -1.1141  0.3346
  300SOL     OW 6914   3.707   3.382   5.950 -0.0085 -0.3104 -0.2427
  300SOL    HW1 6915   3.778   3.315   5.969  0.9728  0.2344 -1.7597
  300SOL    HW2 6916   3.635   3.341   5.896  0.4399 -0.2366 -0.9062
  301SOL     OW 6917   4.350   1.104   1.028  0.1391  0.3212 -0.1489
  301SOL    HW1 6918   4.283   1.093   1.102 -0.3394 -1.0982 -0.7463
  301SOL    HW2 6919   4.436   1.136   1.066 -0.4171  0.6730  0.8673
  302SOL     OW 6920   1.181   2.321   0.275  0.2222  0.1436 -0.1165
  302SOL    HW1 6921   1.112   2.261   0.237  0.3129  0.1892 -0.3531
  302SOL    HW2 6922   1.259   2.327   0.213 -0.0097  0.9170 -0.3427
  303SOL     OW 6923   2.247   0.508   5.659 -0.2590 -0.3548  0.2523
  303SOL    HW1 6924   2.210   0.575   5.595 -0.1293 -2.1612 -1.8370
  303SOL    HW2 6925   2.334   0.541   5.695  0.4653  0.0482 -1.7736
  304SOL     OW 6926   4.954   5.678   4.778 -0.1120  0.2580  0.8187
  304SOL    HW1 6927   4.890   5.705   4.707  1.2263  1.1225 -0.1118
  304SOL    HW2 6928   4.982   5.758   4.831  2.3935  0.4982 -0.6944
  305SOL     OW 6929   4.190   0.646   0.251  0.4458 -0.3226 -0.0042
  305SOL    HW1 6930   4.186   0.744   0.233  0.0209 -0.3164  0.1187
  305SOL    HW2 6931   4.099   0.606   0.239  0.4263 -0.5458  0.8229
  306SOL     OW 6932   3.057   2.856   0.188 -0.6261 -0.4084  0.1298
  306SOL    HW1 6933   3.005   2.798   0.250 -2.4886  0.1887 -0.7878
  306SOL    HW2 6934   3.038   2.952   0.209  0.7468 -0.1439  0.2610
  307SOL     OW 6935   1.103   4.498   5.770  0.4794  0.2297  0.6056
  307SOL    HW1 6936   1.159   4.485   5.688  0.0219 -0.5881  0.4018
  307SOL    HW2 6937   1.156   4.476   5.851 -0.2073 -3.2685  0.2937
  308SOL     OW 6938   6.156   4.612   5.831  0.6655 -0.3543 -0.4948
  308SOL    HW1 6939   6.215   4.693   5.826  0.2130 -0.0655 -1.5010
  308SOL    HW2 6940   6.069   4.637   5.874  0.3845 -0.1978 -1.1324
  309SOL     OW 6941   0.540   3.445   5.686 -0.2486  0.0980 -0.0106
  309SOL    HW1 6942   0.481   3.510   5.639 -0.3547  0.2282  0.3006
  309SOL    HW2 6943   0.558   3.477   5.779 -1.3538 -0.9355  0.5923
  310SOL     OW 6944   5.129   2.750   0.884  0.0491  0.1352 -0.2832
  310SOL    HW1 6945   5.046   2.694   0.878  1.1219 -1.5104 -0.4011
  310SOL    HW2 6946   5.178   2.728   0.968 -0.4013  2.2816  0.6168
  311SOL     OW 6947   2.372   4.282   0.450  0.6127 -0.7005 -0.2844
  311SOL    HW1 6948   2.299   4.321   0.395 -0.0653 -0.4371  0.7821
  311SOL    HW2 6949   2.443   4.351   0.466  1.5726 -1.2058 -2.0628
  312SOL     OW 6950   0.069   1.063   5.446 -0.2803 -0.1546 -0.8696
  312SOL    HW1 6951   0.005   1.137   5.428 -0.6056 -0.2158  0.0272
  312SOL    HW2 6952   0.071   1.001   5.367 -1.0650  0.0314 -1.0377
  313SOL     OW 6953   4.577   4.570   5.724 -0.1038  0.0910 -0.5076
  313SOL    HW1 6954   4.622   4.560   5.813 -0.9820 -0.8453 -0.1512
  313SOL    HW2 6955   4.636   4.535   5.652  0.1586 -0.1763 -0.1638
  314SOL     OW 6956   1.450   3.036   5.171  0.2899 -0.3971  0.1233
  314SOL    HW1 6957   1.467   3.119   5.225 -2.1196  0.3534 -0.1610
  314SOL    HW2 6958   1.512   3.035   5.092 -1.5440  2.7771 -1.5607
  315SOL     OW 6959   2.646   3.202   0.422  0.3001 -0.0278 -0.2921
  315SOL    HW1 6960   2.601   3.130   0.475  3.0229  0.4317  3.0098
  315SOL    HW2 6961   2.744   3.185   0.419  0.6036  1.5938 -2.8007
  316SOL     OW 6962   3.804   4.384   5.676  0.5031 -0.3881 -0.1953
  316SOL    HW1 6963   3.876   4.438   5.720 -0.6366  1.4146 -0.4106
  316SOL    HW2 6964   3.770   4.315   5.740  1.4745 -0.3414  0.3840
  317SOL     OW 6965   3.057   0.975   6.219  0.0482 -0.2415  0.0174
  317SOL    HW1 6966   3.004   0.892   6.234  0.0259  0.2488  3.2748
  317SOL    HW2 6967   2.995   1.049   6.192 -0.2927 -0.6746 -0.3970
  318SOL     OW 6968   2.296   5.021   4.903 -0.1377  0.1130 -0.0239
  318SOL    HW1 6969   2.232   5.079   4.852  0.6078  0.2458 -0.8342
  318SOL    HW2 6970   2.273   4.925   4.887 -2.7147  0.0590  3.0011
  319SOL     OW 6971   3.031   4.737   0.846 -0.3503  0.5817 -0.1219
  319SOL    HW1 6972   2.946   4.772   0.886 -0.3186  0.3589  0.1369
  319SOL    HW2 6973   3.109   4.764   0.903 -0.3633 -0.2761  0.3164
  320SOL     OW 6974   4.307   2.965   1.515 -0.1483 -0.1954  0.8933
  320SOL    HW1 6975   4.243   2.977   1.591 -0.8203 -0.4830  0.3851
  320SOL    HW2 6976   4.373   3.040   1.515 -1.9914  1.4999 -0.0291
  321SOL     OW 6977   5.049   0.892   0.214  0.0777 -0.3474  0.1764
  321SOL    HW1 6978   4.964   0.868   0.166 -0.7399  0.7160  1.0446
  321SOL    HW2 6979   5.050   0.848   0.303 -0.6723  1.4274  1.1108
  322SOL     OW 6980   3.388   2.874   1.034  0.0774  0.9726 -0.8818
  322SOL    HW1 6981   3.455   2.936   1.074  0.7336 -0.9627  1.1778
  322SOL    HW2 6982   3.298   2.894   1.071  0.2616  0.8129 -0.3387
  323SOL     OW 6983   0.375   3.913   0.976  0.0417 -0.4277 -0.4534
  323SOL    HW1 6984   0.427   3.855   1.039  0.9171  0.2008 -0.5861
  323SOL    HW2 6985   0.310   3.968   1.029 -0.1146 -0.8219 -0.2310
  324SOL     OW 6986   4.461   4.193   0.857  0.1163  0.2199 -0.4345
  324SOL    HW1 6987   4.472   4.163   0.951  0.9762 -2.5765 -1.3537
  324SOL    HW2 6988   4.450   4.293   0.855  1.9799  0.5771  2.4402
  325SOL     OW 6989   0.630   3.445   1.004  0.3954  0.5883 -0.1329
  325SOL    HW1 6990   0.612   3.360   0.955 -0.0473  0.6960 -0.1521
  325SOL    HW2 6991   0.717   3.436   1.054 -0.2891 -0.3783  0.9524
  326SOL     OW 6992   4.418   5.996   5.782 -0.2030  0.5629 -0.4256
  326SOL    HW1 6993   4.502   6.042   5.810  0.9225 -2.0445  0.7977
  326SOL    HW2 6994   4.382   5.943   5.859 -1.0601 -1.1129 -1.9122
  327SOL     OW 6995   2.510   4.628   5.582  0.5738  0.4475 -0.4297
  327SOL    HW1 6996   2.602   4.604   5.554  0.3902 -0.4695 -0.2672
  327SOL    HW2 6997   2.447   4.612   5.506  0.5624  1.2391 -0.5995
  328SOL     OW 6998   3.555   2.259   5.894 -0.4518 -0.3700 -0.0837
  328SOL    HW1 6999   3.500   2.337   5.865  0.1859  0.0239 -0.2552
  328SOL    HW2 7000   3.513   2.174   5.862  0.9144  0.0740 -3.4367
  329SOL     OW 7001   2.977   2.899   5.302 -0.2053 -0.0937  0.0463
  329SOL    HW1 7002   2.940   2.883   5.210 -0.9744  0.7481  0.1886
  329SOL    HW2 7003   3.021   2.988   5.305  1.5922 -0.9452 -0.0168
  330SOL     OW 7004   6.351   6.156   5.554  0.1650  0.0964  0.6788
  330SOL    HW1 7005   6.265   6.132   5.510  0.0364 -0.9386  1.4609
  330SOL    HW2 7006   6.376   6.085   5.620  0.3534  1.5822  2.2840
  331SOL     OW 7007   2.010   2.902   5.613  0.3028  0.0180 -0.2939
  331SOL    HW1 7008   2.020   2.802   5.609  1.3745  0.0871  0.3651
  331SOL    HW2 7009   2.003   2.931   5.708 -0.6610  0.5295 -0.5057
  332SOL     OW 7010   5.243   4.751   6.378 -0.5545 -0.1182  0.1091
  332SOL    HW1 7011   5.338   4.730   6.353 -0.6929  1.4575 -1.9962
  332SOL    HW2 7012   5.240   4.839   6.424 -1.1004  0.3748 -0.8537
  333SOL     OW 7013   0.679   5.415   0.069  0.4076 -0.3263 -0.1594
  333SOL    HW1 7014   0.631   5.392  -0.015  1.7082 -0.4322 -0.8948
  333SOL    HW2 7015   0.743   5.490   0.053  0.8846 -0.5363  0.6603
  334SOL     OW 7016   1.858   6.135   5.416  0.7722  0.2243  0.0807
  334SOL    HW1 7017   1.932   6.079   5.451  0.4988 -1.7228 -2.2038
  334SOL    HW2 7018   1.774   6.117   5.467  1.1135 -0.0650  0.5342
  335SOL     OW 7019   2.726   4.994   0.610  1.1856 -0.8695  0.3800
  335SOL    HW1 7020   2.743   4.966   0.704  1.5867 -1.4531  0.1401
  335SOL    HW2 7021   2.778   5.077   0.589  1.2037 -0.8183  0.6277
  336SOL     OW 7022   0.799   3.320   5.728 -0.2627 -0.0710  0.0493
  336SOL    HW1 7023   0.739   3.245   5.756 -0.8166  0.9221  1.6956
  336SOL    HW2 7024   0.742   3.399   5.702  0.3196  0.3115 -0.0678
  337SOL     OW 7025   1.430   2.365   6.028 -0.6776  0.6463 -0.0167
  337SOL    HW1 7026   1.393   2.433   6.092 -2.3159 -0.2521  0.0507
  337SOL    HW2 7027   1.395   2.274   6.052 -0.1316  0.0788 -1.2922
  338SOL     OW 7028   4.112   0.607   6.331 -0.2351 -0.2277  0.0177
  338SOL    HW1 7029   4.057   0.548   6.390 -0.7494 -1.1988 -1.3496
  338SOL    HW2 7030   4.175   0.661   6.386 -1.5914 -0.1128  1.5235
  339SOL     OW 7031   4.452   1.316   5.885 -0.2126 -0.3989  0.4831
  339SOL    HW1 7032   4.523   1.372   5.841  0.6381 -2.3501 -0.7703
  339SOL    HW2 7033   4.489   1.273   5.967 -0.5351  0.0451  0.8633
  340SOL     OW 7034   5.072   6.313   0.315  0.5684 -0.2875  0.0001
  340SOL    HW1 7035   4.995   6.331   0.254  0.6112 -1.2216 -0.3523
  340SOL    HW2 7036   5.056   6.357   0.403  0.3657  0.8280 -0.5713
  341SOL     OW 7037   0.221   3.760   1.361  0.1366 -0.4396 -0.1472
  341SOL    HW1 7038   0.240   3.738   1.457 -0.6532 -0.7094 -0.0509
  341SOL    HW2 7039   0.178   3.851   1.356 -1.0433 -0.9799 -0.1191
  342SOL     OW 7040   5.251   1.443   6.155 -0.3993  0.6716  0.1183
  342SOL    HW1 7041   5.310   1.523   6.168  2.3239 -1.0075 -1.0070
  342SOL    HW2 7042   5.226   1.436   6.058 -0.1065 -0.1225  0.0917
  343SOL     OW 7043   3.232   5.507   5.848 -0.5954 -0.3204 -0.8606
  343SOL    HW1 7044   3.273   5.482   5.936 -0.7944 -0.7981 -0.9020
  343SOL    HW2 7045   3.236   5.607   5.837  0.0215 -0.3119 -0.6042
  344SOL     OW 7046   0.262   4.880   0.506 -0.3358 -0.3213  0.8623
  344SOL    HW1 7047   0.220   4.952   0.562 -0.9046  0.0501 -0.0298
  344SOL    HW2 7048   0.234   4.891   0.411  1.3544 -0.3964  0.3355
  345SOL     OW 7049   6.054   4.381   6.439 -0.1608 -0.6985  0.2272
  345SOL    HW1 7050   6.143   4.382   6.394 -0.0195 -1.0174  0.4939
  345SOL    HW2 7051   5.988   4.434   6.385  0.8604  1.9673  1.3881
  346SOL     OW 7052   1.979   2.704   6.085  0.0501  0.8495  0.2423
  346SOL    HW1 7053   1.975   2.671   6.180  2.9863 -1.8482 -0.3727
  346SOL    HW2 7054   1.931   2.639   6.026  0.0314  1.3868 -0.3375
  347SOL     OW 7055   2.999   3.855   6.460  0.6313  0.0365  0.1407
  347SOL    HW1 7056   3.083   3.827   6.505  1.1654  0.5048 -0.5458
  347SOL    HW2 7057   2.952   3.924   6.516  0.1596 -0.9811  1.0265
  348SOL     OW 7058   3.946   1.966   0.620  0.0446 -0.0676 -0.3835
  348SOL    HW1 7059   3.974   1.972   0.716 -1.1872 -1.1430  0.0762
  348SOL    HW2 7060   3.919   2.057   0.588  0.5931  0.3247  0.2450
  349SOL     OW 7061   3.939   5.554   1.106  1.0811  0.3312  0.1521
  349SOL    HW1 7062   3.905   5.602   1.187 -3.8649  2.2929 -2.6805
  349SOL    HW2 7063   4.019   5.602   1.070  0.9684  1.7337  1.6790
  350SOL     OW 7064   3.926   2.913   1.413  0.6126 -0.4611 -0.1399
  350SOL    HW1 7065   3.833   2.877   1.404  0.1115  0.0277  2.4553
  350SOL    HW2 7066   3.968   2.877   1.496  1.1137  2.7013  1.0773
  351SOL     OW 7067   4.273   4.729   5.351  0.0157 -0.2612  0.1520
  351SOL    HW1 7068   4.345   4.662   5.368 -0.7438 -0.9065  0.9341
  351SOL    HW2 7069   4.257   4.737   5.253  1.3225  0.0976 -0.0582
  352SOL     OW 7070   4.064   5.163   6.117  0.0746 -0.7358  0.5408
  352SOL    HW1 7071   3.964   5.171   6.127  0.1401  2.3793 -0.2782
  352SOL    HW2 7072   4.087   5.160   6.019  0.8464 -0.1956  0.7042
  353SOL     OW 7073   5.799   2.533   1.135 -0.2576  0.5550 -0.1145
  353SOL    HW1 7074   5.793   2.532   1.235  1.8181 -0.8866  0.0578
  353SOL    HW2 7075   5.849   2.614   1.105 -2.1385  1.7570 -0.1303
  354SOL     OW 7076   2.600   2.185   0.958 -0.0354  0.4206  0.4075
  354SOL    HW1 7077   2.655   2.232   0.889 -0.5924  0.5614  0.0476
  354SOL    HW2 7078   2.613   2.086   0.949 -0.7485  0.3958 -0.4677
  355SOL     OW 7079   6.067   0.835   4.844  0.1797 -0.1491 -0.0896
  355SOL    HW1 7080   6.156   0.790   4.832  1.3901  2.3475 -1.2165
  355SOL    HW2 7081   6.016   0.830   4.759  0.8592  1.5734 -0.6417
  356SOL     OW 7082   4.113   2.023   6.493 -0.1896  0.0097  0.8507
  356SOL    HW1 7083   4.109   2.120   6.519 -2.4070  0.1376  0.1827
  356SOL    HW2 7084   4.134   1.968   6.574 -0.3330  0.9448  1.5378
  357SOL     OW 7085   2.393   4.397   2.103  0.4057 -0.5556 -0.2494
  357SOL    HW1 7086   2.336   4.423   2.026  0.9583 -1.4860 -0.9988
  357SOL    HW2 7087   2.483   4.368   2.070  0.7415 -0.7127  0.7614
  358SOL     OW 7088   3.197   0.050   1.011  0.3721 -0.4179 -0.1659
  358SOL    HW1 7089   3.182   0.149   1.016  2.0646 -0.0249 -1.6824
  358SOL    HW2 7090   3.256   0.030   0.933 -1.0212 -2.7893 -0.6880
  359SOL     OW 7091   3.488   3.743   1.036 -0.0270 -0.4864  0.7067
  359SOL    HW1 7092   3.474   3.762   1.133 -1.1543 -1.5771  0.7766
  359SOL    HW2 7093   3.402   3.712   0.995  0.7339 -1.2773 -0.3391
  360SOL     OW 7094   0.072   4.803   6.013 -0.9697 -0.0753  0.0753
  360SOL    HW1 7095   0.041   4.824   5.921 -2.2493  0.6958  0.6629
  360SOL    HW2 7096  -0.005   4.808   6.077 -0.5178 -2.4261  0.9255
  361SOL     OW 7097   5.226   0.535   0.234 -0.0297 -0.4360 -0.7236
  361SOL    HW1 7098   5.258   0.605   0.169 -1.1159  1.2691  0.4958
  361SOL    HW2 7099   5.186   0.580   0.314 -2.1035 -2.4663 -0.5329
  362SOL     OW 7100   0.194   5.268   0.828 -0.2056  0.5578  0.3577
  362SOL    HW1 7101   0.152   5.357   0.846  0.5538  0.9547  0.2009
  362SOL    HW2 7102   0.177   5.207   0.906  0.2054  1.1918  0.9583
  363SOL     OW 7103   2.777   2.702   1.220  0.1090 -0.1912  0.1640
  363SOL    HW1 7104   2.819   2.681   1.132 -3.3231 -1.4637 -1.3719
  363SOL    HW2 7105   2.777   2.620   1.277 -0.4497 -0.2767  0.0480
  364SOL     OW 7106   2.087   5.073   5.201 -0.1782 -0.1558 -0.2061
  364SOL    HW1 7107   2.146   5.144   5.164 -0.1182 -0.2462 -0.2848
  364SOL    HW2 7108   2.141   4.990   5.217 -0.2030 -0.1150  0.0874
  365SOL     OW 7109   1.907   3.933   0.863  0.6354  0.4456  0.0498
  365SOL    HW1 7110   1.953   3.859   0.911  2.6121  2.1388  0.9623
  365SOL    HW2 7111   1.912   3.918   0.764 -1.8896 -2.1846  0.2100
  366SOL     OW 7112   5.065   5.149   1.654  0.2165 -0.2264  0.1548
  366SOL    HW1 7113   5.092   5.138   1.749 -0.4846  0.7420  0.4850
  366SOL    HW2 7114   5.127   5.213   1.609  0.8837 -1.1066 -0.2083
  367SOL     OW 7115   3.744   0.189   0.732  0.0846  0.7363 -0.1211
  367SOL    HW1 7116   3.718   0.218   0.640  2.2806  1.0530 -0.6802
  367SOL    HW2 7117   3.832   0.142   0.729 -2.0172 -3.9892  1.0642
  368SOL     OW 7118   0.830   2.026   5.596 -0.1901 -0.2085  0.7818
  368SOL    HW1 7119   0.909   2.081   5.567 -0.4177 -0.1609  0.2465
  368SOL    HW2 7120   0.861   1.937   5.627  0.0362 -0.3621  0.1257
  369SOL     OW 7121   1.930   1.621   6.431  0.2074  0.2254  0.5919
  369SOL    HW1 7122   1.986   1.635   6.349 -0.9380  0.7939 -0.1223
  369SOL    HW2 7123   1.982   1.650   6.511  0.6602  1.5618 -0.1369
  370SOL     OW 7124   3.431   3.925   6.420  0.0914 -0.1081  0.2664
  370SOL    HW1 7125   3.500   3.893   6.355 -1.8895  0.8472 -2.5271
  370SOL    HW2 7126   3.431   4.025   6.423  0.0907 -0.1247  1.7665
  371SOL     OW 7127   4.919   3.641   6.377  0.2507 -0.0409 -0.3523
  371SOL    HW1 7128   4.986   3.667   6.308  0.1184 -1.3946 -1.0177
  371SOL    HW2 7129   4.962   3.640   6.467  1.0122 -0.4307 -0.7113
  372SOL     OW 7130   3.102   5.893   5.378  0.0490 -0.1915  0.1795
  372SOL    HW1 7131   3.148   5.933   5.457 -0.5781  0.1548  0.3714
  372SOL    HW2 7132   3.011   5.934   5.367  0.5428  0.5773 -1.3730
  373SOL     OW 7133   4.973   5.209   4.849 -0.5200 -0.0831 -0.1945
  373SOL    HW1 7134   4.962   5.112   4.871  0.8070  0.1749  1.9254
  373SOL    HW2 7135   5.039   5.219   4.774  0.8666 -0.7907  0.8779
  374SOL     OW 7136   5.777   1.873   6.014 -0.2839  0.4590 -0.4672
  374SOL    HW1 7137   5.772   1.811   5.935  0.4075 -1.4636  0.9266
  374SOL    HW2 7138   5.869   1.869   6.054 -0.7417  1.0739  0.6907
  375SOL     OW 7139   1.635   4.056   5.338  1.0001  0.1834 -1.0945
  375SOL    HW1 7140   1.674   4.055   5.430 -0.0121 -2.9106 -0.5914
  375SOL    HW2 7141   1.706   4.081   5.272  2.3644  0.0737  0.2867
  376SOL     OW 7142   4.695   0.916   5.800 -0.3075  0.4024  0.2967
  376SOL    HW1 7143   4.599   0.941   5.812 -0.1852  0.1394  2.1403
  376SOL    HW2 7144   4.753   0.989   5.837  0.1325 -0.4175  1.2885
  377SOL     OW 7145   0.056   4.891   0.718  0.2865 -0.6717 -0.4048
  377SOL    HW1 7146   0.058   4.987   0.746  1.5274 -0.5860 -0.7302
  377SOL    HW2 7147  -0.037   4.855   0.728 -0.3862  0.7961 -1.1059
  378SOL     OW 7148   3.129   6.081   5.157  0.2457 -0.2966 -0.1721
  378SOL    HW1 7149   3.149   5.995   5.203 -0.7724 -0.2224  0.4272
  378SOL    HW2 7150   3.131   6.067   5.058  0.4368 -0.9155 -0.0870
  379SOL     OW 7151   6.183   4.807   5.166  0.3321 -0.5135 -0.1609
  379SOL    HW1 7152   6.103   4.747   5.174 -1.6534  1.5054 -2.8724
  379SOL    HW2 7153   6.253   4.761   5.110 -0.1982 -1.1847 -0.2914
  380SOL     OW 7154   1.624   0.211   0.872  0.7290  0.5192  0.2969
  380SOL    HW1 7155   1.633   0.299   0.826  1.3997 -0.2367 -1.1092
  380SOL    HW2 7156   1.527   0.187   0.880  0.5154 -0.6931 -3.6718
  381SOL     OW 7157   0.443   4.268   1.451 -0.4130  0.1838  0.5445
  381SOL    HW1 7158   0.447   4.172   1.478 -0.8729 -1.0536 -3.2164
  381SOL    HW2 7159   0.536   4.301   1.431 -0.2566  0.6098  1.8242
  382SOL     OW 7160   1.235   0.056   0.564 -0.1710 -0.3312 -0.4425
  382SOL    HW1 7161   1.314   0.022   0.513 -0.0602 -0.0203 -0.4774
  382SOL    HW2 7162   1.247   0.153   0.584 -0.3110 -0.4027 -0.0061
  383SOL     OW 7163   1.231   4.071   6.423 -0.8647  0.3797 -0.6113
  383SOL    HW1 7164   1.218   4.049   6.519  3.0317 -2.0595 -0.4198
  383SOL    HW2 7165   1.248   4.169   6.413 -1.2618  0.6603  1.1879
  384SOL     OW 7166   0.394   3.092   6.267 -0.0339 -0.6635 -0.7279
  384SOL    HW1 7167   0.366   3.184   6.295  2.3724  0.5040 -1.8753
  384SOL    HW2 7168   0.326   3.054   6.204 -0.7616  0.5936 -0.7280
  385SOL     OW 7169   0.610   1.959   5.996  0.1532  0.3667  0.5082
  385SOL    HW1 7170   0.613   2.031   5.927  0.1633  0.8697  1.0331
  385SOL    HW2 7171   0.535   1.977   6.060  1.9933  1.5620  2.4320
  386SOL     OW 7172   5.867   3.599   5.383  0.5489  0.4396  0.5204
  386SOL    HW1 7173   5.841   3.696   5.379  2.8529  1.1779  1.6123
  386SOL    HW2 7174   5.903   3.571   5.294  1.0304  0.9621  0.5429
  387SOL     OW 7175   4.313   4.923   1.235 -0.2296  0.5131  0.1640
  387SOL    HW1 7176   4.387   4.883   1.289 -0.6088  1.7319  1.6900
  387SOL    HW2 7177   4.233   4.935   1.294 -0.6728  1.8776 -0.6722
  388SOL     OW 7178   4.627   4.689   1.659  0.5369  0.2208  0.0116
  388SOL    HW1 7179   4.654   4.592   1.658  0.7000  0.2681 -0.2071
  388SOL    HW2 7180   4.695   4.741   1.710 -0.3171 -0.0014  1.4073
  389SOL     OW 7181   1.209   5.083   5.950  0.0376 -0.1982  0.0044
  389SOL    HW1 7182   1.266   5.124   6.021  1.5931 -0.3338 -1.1077
  389SOL    HW2 7183   1.198   4.985   5.968 -1.6295  0.1706  1.3242
  390SOL     OW 7184   6.341   0.417   0.653 -0.4604 -0.1987  0.1444
  390SOL    HW1 7185   6.385   0.367   0.578 -1.2460  0.3208 -0.6898
  390SOL    HW2 7186   6.274   0.358   0.698 -0.2130 -0.4138  0.2299
  391SOL     OW 7187   0.641   3.037   5.587  0.2324  0.4997  0.6535
  391SOL    HW1 7188   0.585   2.962   5.623  0.5918  0.7525  1.7840
  391SOL    HW2 7189   0.736   3.009   5.585  0.3956  0.9758  1.2657
  392SOL     OW 7190   4.788   6.225   5.554 -0.0218 -0.1349  0.3788
  392SOL    HW1 7191   4.887   6.242   5.546 -0.0050  0.6605  1.8917
  392SOL    HW2 7192   4.768   6.193   5.646 -1.1805 -0.3433  0.0596
  393SOL     OW 7193   3.496   0.504   0.510  0.1298  0.1241  0.7178
  393SOL    HW1 7194   3.557   0.448   0.565  1.4873  0.8501  0.0059
  393SOL    HW2 7195   3.468   0.584   0.562  0.0066 -0.0653  0.9446
  394SOL     OW 7196   4.144   1.137   1.209  0.2946  0.4080  0.0668
  394SOL    HW1 7197   4.080   1.061   1.195  1.0410 -0.0372 -1.0919
  394SOL    HW2 7198   4.097   1.213   1.254 -0.5402 -0.6297  1.0066
  395SOL     OW 7199   4.114   3.635   0.476 -0.6537  0.0159  0.1139
  395SOL    HW1 7200   4.091   3.599   0.566 -2.4473  0.7279 -0.0254
  395SOL    HW2 7201   4.151   3.727   0.486  0.2715 -0.3420  0.1736
  396SOL     OW 7202   4.247   6.216   0.636 -0.1888  0.6708 -0.2694
  396SOL    HW1 7203   4.286   6.141   0.690  0.4757 -0.0159 -1.6364
  396SOL    HW2 7204   4.161   6.187   0.595  1.0916 -0.1842 -2.5383
  397SOL     OW 7205   3.295   1.052   1.152  0.1488 -0.4131 -0.1294
  397SOL    HW1 7206   3.281   0.956   1.126  0.7433 -0.2455 -1.1265
  397SOL    HW2 7207   3.226   1.079   1.219 -0.6525 -1.2437 -0.5991
  398SOL     OW 7208   0.278   0.961   0.072  0.7421  0.6319 -0.2192
  398SOL    HW1 7209   0.370   0.929   0.096  0.0053 -0.3743  1.4464
  398SOL    HW2 7210   0.252   1.037   0.131  0.8431  1.5773 -1.3458
  399SOL     OW 7211   5.192   1.186   5.377 -0.2578  0.2979  0.0564
  399SOL    HW1 7212   5.217   1.201   5.282 -2.0684  0.6961 -0.4103
  399SOL    HW2 7213   5.228   1.260   5.433  0.6376  0.1760 -0.3486
  400SOL     OW 7214   3.811   2.490   1.148  0.0342 -0.4355  0.4780
  400SOL    HW1 7215   3.865   2.510   1.229  1.4132 -1.5468 -0.1186
  400SOL    HW2 7216   3.863   2.430   1.087 -1.7488 -1.2782 -0.3020
  401SOL     OW 7217   1.765   3.718   1.306  0.5167 -0.4093  0.4684
  401SOL    HW1 7218   1.677   3.747   1.343  0.2305  0.0118 -0.5213
  401SOL    HW2 7219   1.751   3.651   1.233  0.8825  1.0746 -1.0371
  402SOL     OW 7220   3.323   4.233   5.689 -0.3848 -0.2727 -0.8177
  402SOL    HW1 7221   3.349   4.300   5.620  1.7116  1.9817  1.9307
  402SOL    HW2 7222   3.402   4.176   5.712  0.0711  1.3248  2.0292
  403SOL     OW 7223   3.161   2.925   4.327  0.1377  0.0308  0.0741
  403SOL    HW1 7224   3.081   2.984   4.339 -1.5182 -2.1738  0.6140
  403SOL    HW2 7225   3.244   2.977   4.344 -1.2688  1.8919  1.6925
  404SOL     OW 7226   1.821   5.311   0.090 -0.3445 -0.0146 -0.1349
  404SOL    HW1 7227   1.800   5.289  -0.005  1.1669  1.4534 -0.8652
  404SOL    HW2 7228   1.741   5.352   0.134 -0.6423  0.6110 -1.2185
  405SOL     OW 7229   5.005   2.657   1.423  0.1839 -0.2575  0.0070
  405SOL    HW1 7230   5.089   2.647   1.475  0.0192 -1.5048  0.0608
  405SOL    HW2 7231   5.023   2.636   1.326  0.5299  2.2073 -0.5262
  406SOL     OW 7232   5.619   5.436   0.231  0.0299  0.5064  0.3988
  406SOL    HW1 7233   5.568   5.378   0.295 -0.7090  0.6945 -0.0095
  406SOL    HW2 7234   5.659   5.378   0.160  0.7720  0.3076  0.9664
  407SOL     OW 7235   0.644   1.599   6.374  0.3520 -0.2503  0.0332
  407SOL    HW1 7236   0.611   1.677   6.320 -1.5335 -0.7446  0.4049
  407SOL    HW2 7237   0.740   1.613   6.396 -0.0195  2.1793  0.4260
  408SOL     OW 7238   5.305   4.271   5.781  0.0563  0.6952  0.1160
  408SOL    HW1 7239   5.216   4.308   5.807 -0.1885  0.3700 -0.2519
  408SOL    HW2 7240   5.300   4.172   5.776  0.3068  0.7054 -0.3838
  409SOL     OW 7241   3.554   5.043   1.399  0.4394 -0.5522  0.1830
  409SOL    HW1 7242   3.602   4.964   1.437  0.3313 -0.7254 -0.0409
  409SOL    HW2 7243   3.597   5.127   1.433 -1.6437 -0.6250  3.3931
  410SOL     OW 7244   5.571   3.581   0.681 -0.3696  0.1840 -0.4916
  410SOL    HW1 7245   5.576   3.658   0.618  0.4857  0.2836 -0.3108
  410SOL    HW2 7246   5.512   3.604   0.758  0.1307  0.7813 -0.2814
  411SOL     OW 7247   4.576   1.593   5.802  0.3434 -0.2780  0.2889
  411SOL    HW1 7248   4.571   1.628   5.709 -1.1677 -0.5879  0.2268
  411SOL    HW2 7249   4.561   1.668   5.866 -1.3766 -0.5162  0.1944
  412SOL     OW 7250   0.496   3.085   0.394 -0.3076 -0.1361  0.6560
  412SOL    HW1 7251   0.594   3.081   0.410  0.1305  0.9395 -1.3725
  412SOL    HW2 7252   0.471   3.019   0.322 -0.9094  0.2446  0.5068
  413SOL     OW 7253   1.141   1.555   6.474  0.8813  0.1948 -0.1073
  413SOL    HW1 7254   1.134   1.642   6.523 -0.4365  0.1962 -0.2628
  413SOL    HW2 7255   1.090   1.562   6.388 -1.9439 -1.6703  1.2598
  414SOL     OW 7256   6.090   0.789   1.146 -0.1354 -0.0419 -0.3136
  414SOL    HW1 7257   6.101   0.885   1.173  1.3201 -0.5521  1.0164
  414SOL    HW2 7258   6.034   0.742   1.213 -0.1006 -0.3270 -0.4853
  415SOL     OW 7259   2.433   2.821   5.475  0.5027 -0.1082  0.5996
  415SOL    HW1 7260   2.474   2.798   5.564  0.4110 -2.2271  0.1523
  415SOL    HW2 7261   2.504   2.820   5.405  0.3028 -0.0165  0.3970
  416SOL     OW 7262   3.613   3.445   5.642 -0.1360  0.5375 -0.0297
  416SOL    HW1 7263   3.608   3.529   5.696  0.0154 -0.8306  2.2155
  416SOL    HW2 7264   3.554   3.376   5.683  1.4228 -1.1483 -0.5268
  417SOL     OW 7265   3.293   4.222   1.024  0.0697  0.5583  0.1781
  417SOL    HW1 7266   3.205   4.192   1.061 -0.6302 -0.7775 -2.2833
  417SOL    HW2 7267   3.353   4.143   1.014  1.8151  1.5225  2.2547
  418SOL     OW 7268   5.611   2.849   5.537  0.3079 -0.5007  0.2210
  418SOL    HW1 7269   5.697   2.875   5.580 -0.2539  0.8456  0.6066
  418SOL    HW2 7270   5.540   2.915   5.563  0.0412  0.8157 -3.2835
  419SOL     OW 7271   1.970   3.865   5.547  0.2423 -0.1742 -0.0306
  419SOL    HW1 7272   2.011   3.816   5.469 -0.8862 -0.5282 -0.4221
  419SOL    HW2 7273   2.023   3.846   5.629  0.0173 -1.8364 -0.2296
  420SOL     OW 7274   4.194   5.755   0.187  0.4307  0.6194 -0.6186
  420SOL    HW1 7275   4.249   5.795   0.113  2.0121  1.1620  0.7975
  420SOL    HW2 7276   4.180   5.657   0.169  1.2919  0.6181 -1.3499
  421SOL     OW 7277   2.776   1.644   5.667  0.0524  0.4192 -0.1201
  421SOL    HW1 7278   2.716   1.673   5.592 -0.5559 -0.3821  0.0424
  421SOL    HW2 7279   2.856   1.598   5.630  0.8772  1.9561 -0.3682
  422SOL     OW 7280   2.051   1.083   0.877 -0.3479  0.3118  0.3070
  422SOL    HW1 7281   2.010   1.099   0.967  0.1293 -0.4354  0.6707
  422SOL    HW2 7282   2.102   0.997   0.879  2.3757  1.8272  0.2958
  423SOL     OW 7283   0.365   2.278   5.847  0.2364 -0.1737 -0.0441
  423SOL    HW1 7284   0.299   2.203   5.837 -0.3190  0.4624 -1.2946
  423SOL    HW2 7285   0.457   2.242   5.838  0.1217 -1.0983  1.8349
  424SOL     OW 7286   2.959   0.984   0.956 -0.0562 -0.1713  0.4716
  424SOL    HW1 7287   2.979   1.005   1.052 -0.3606 -1.0171  0.7251
  424SOL    HW2 7288   2.931   1.068   0.909  0.6593  0.3563  0.9737
  425SOL     OW 7289   4.188   2.890   5.359 -0.1162 -0.1497 -0.3172
  425SOL    HW1 7290   4.275   2.855   5.393  0.1847 -0.5866 -1.5169
  425SOL    HW2 7291   4.204   2.955   5.285 -0.7339  1.4878  0.9167
  426SOL     OW 7292   3.969   4.979   1.114 -0.7663 -0.5386  0.7222
  426SOL    HW1 7293   4.018   4.902   1.073 -1.5978 -1.3788  1.2532
  426SOL    HW2 7294   4.017   5.009   1.197  0.5829  0.7666 -0.4713
  427SOL     OW 7295   2.735   3.582   5.656  0.2637  0.0877 -0.6247
  427SOL    HW1 7296   2.825   3.562   5.616 -0.0100 -3.6161  0.3131
  427SOL    HW2 7297   2.680   3.633   5.589  1.4481 -1.7359 -3.1593
  428SOL     OW 7298   2.105   0.898   5.681  0.6720 -0.4146  0.0314
  428SOL    HW1 7299   2.130   0.834   5.753  0.4473 -0.2967  0.2134
  428SOL    HW2 7300   2.011   0.880   5.650 -0.4751  1.6040  2.0436
  429SOL     OW 7301   5.029   4.450   1.658 -0.1364 -0.3214 -0.6210
  429SOL    HW1 7302   5.060   4.455   1.753 -1.0657 -0.4371 -0.3051
  429SOL    HW2 7303   5.086   4.385   1.608 -1.1278 -2.1003  0.4566
  430SOL     OW 7304   3.925   0.572   0.188 -0.6052 -0.3289  0.6238
  430SOL    HW1 7305   3.869   0.556   0.107 -0.4593  2.2302 -0.0813
  430SOL    HW2 7306   3.916   0.495   0.251 -2.5699 -1.3219 -0.7724
  431SOL     OW 7307   3.393   0.059   5.212  0.4541  0.1364  0.4378
  431SOL    HW1 7308   3.474   0.079   5.157 -1.5475  0.1760 -2.7950
  431SOL    HW2 7309   3.346   0.144   5.235  0.2249  0.0110  0.4411
  432SOL     OW 7310   2.071   2.872   0.350 -0.3248  0.0076  0.3531
  432SOL    HW1 7311   2.012   2.938   0.301 -1.2024  0.1022  1.4967
  432SOL    HW2 7312   2.135   2.922   0.408  0.7387 -0.1059 -0.6860
  433SOL     OW 7313   5.577   6.196   0.314 -0.2706  0.2337  0.0729
  433SOL    HW1 7314   5.575   6.278   0.257  0.6964  0.5849  0.5244
  433SOL    HW2 7315   5.570   6.222   0.410 -0.4678 -0.2520  0.1921
  434SOL     OW 7316   4.044   5.889   5.983 -0.2063  0.1793 -0.0150
  434SOL    HW1 7317   4.006   5.812   6.035  1.4325 -1.0480 -0.5740
  434SOL    HW2 7318   4.143   5.891   5.994  0.1203  0.3455 -2.4196
  435SOL     OW 7319   3.365   3.715   1.330 -0.5921  0.6550  0.2392
  435SOL    HW1 7320   3.458   3.696   1.359 -1.0174  1.4302  2.2957
  435SOL    HW2 7321   3.301   3.659   1.382 -1.5272  3.6709  2.6931
  436SOL     OW 7322   5.638   3.001   1.436  0.1453  0.1233 -0.3140
  436SOL    HW1 7323   5.666   2.925   1.376  0.2153 -0.1324  0.0364
  436SOL    HW2 7324   5.693   2.999   1.519  0.1028  0.5258 -0.2774
  437SOL     OW 7325   1.568   3.743   0.069  0.1080  0.4873  0.3565
  437SOL    HW1 7326   1.647   3.725   0.009  0.3201  0.3362  0.6796
  437SOL    HW2 7327   1.575   3.687   0.151 -0.7420 -0.1004  0.0351
  438SOL     OW 7328   5.884   2.934   5.634 -0.1471 -0.5346 -0.3259
  438SOL    HW1 7329   5.890   2.859   5.569  0.0858  1.3592 -2.5968
  438SOL    HW2 7330   5.974   2.976   5.644 -1.0345  2.1619 -2.5719
  439SOL     OW 7331   5.329   5.557   5.973  0.2114  0.1645  0.7222
  439SOL    HW1 7332   5.415   5.599   5.944 -1.2967  3.1288  0.2076
  439SOL    HW2 7333   5.315   5.572   6.070  0.0216  0.1871  0.6934
  440SOL     OW 7334   1.681   5.919   0.998 -0.0997  0.2114 -0.4396
  440SOL    HW1 7335   1.743   5.997   0.983  0.9173 -0.2093  1.2923
  440SOL    HW2 7336   1.619   5.939   1.074  2.2555 -1.6965  2.2388
  441SOL     OW 7337   4.125   2.061   6.214 -0.3709  0.0716 -0.1613
  441SOL    HW1 7338   4.215   2.105   6.222 -0.4690  0.4799 -1.1536
  441SOL    HW2 7339   4.087   2.046   6.305 -0.0377  1.4780  0.2406
  442SOL     OW 7340   2.477   1.319   5.192  0.4978  0.1558  0.3278
  442SOL    HW1 7341   2.461   1.307   5.095  1.3992 -0.9511  0.3008
  442SOL    HW2 7342   2.416   1.259   5.244 -0.8745  1.6414  0.5324
  443SOL     OW 7343   0.217   1.008   6.078 -0.7780 -0.1019 -0.3851
  443SOL    HW1 7344   0.248   1.022   6.172 -2.0621 -0.4613  0.1117
  443SOL    HW2 7345   0.263   1.073   6.018 -0.6441  0.7821  0.6337
  444SOL     OW 7346   6.353   0.705   4.758  0.2139 -0.1451  0.5851
  444SOL    HW1 7347   6.387   0.790   4.797 -0.0505  0.0273  0.4433
  444SOL    HW2 7348   6.326   0.720   4.663  0.3011 -0.4229  0.5128
  445SOL     OW 7349   0.446   3.956   6.086  0.3500  0.6129 -0.5163
  445SOL    HW1 7350   0.498   3.978   6.168 -0.7072  0.6336  0.1651
  445SOL    HW2 7351   0.426   3.858   6.084  0.0115  0.6810 -0.5300
  446SOL     OW 7352   5.098   0.844   0.973  0.1829 -0.6216 -0.0970
  446SOL    HW1 7353   5.179   0.799   0.936 -0.0835 -2.3436  1.2835
  446SOL    HW2 7354   5.036   0.867   0.898  0.1414 -2.9929 -0.8654
  447SOL     OW 7355   1.635   6.052   5.555 -0.6105  0.4783  0.3072
  447SOL    HW1 7356   1.571   6.061   5.631 -0.4245 -2.2408  0.8695
  447SOL    HW2 7357   1.594   6.092   5.472 -3.6105 -2.1360  0.3561
  448SOL     OW 7358   4.512   5.408   0.840  0.6740 -0.3828 -0.6519
  448SOL    HW1 7359   4.591   5.449   0.886  0.7144  0.4681 -1.4660
  448SOL    HW2 7360   4.438   5.396   0.907  1.0871 -0.1155 -0.1359
  449SOL     OW 7361   3.156   4.420   6.007 -0.0976 -0.1324 -0.5840
  449SOL    HW1 7362   3.230   4.383   6.064  0.3411 -1.1019 -1.7475
  449SOL    HW2 7363   3.069   4.413   6.057  0.5184  0.6501  0.6354
  450SOL     OW 7364   0.387   4.108   0.237 -0.2185  0.1748 -0.1567
  450SOL    HW1 7365   0.352   4.191   0.279 -0.0821 -0.7099  1.8085
  450SOL    HW2 7366   0.485   4.101   0.253 -0.1707 -0.2075 -0.5905
  451SOL     OW 7367   5.972   5.320   0.337  0.2334  0.8215 -0.4089
  451SOL    HW1 7368   6.059   5.347   0.378 -0.2281  0.8642  0.5659
  451SOL    HW2 7369   5.963   5.220   0.340  0.9579  0.6781 -2.0029
  452SOL     OW 7370   2.426   3.659   1.051 -0.9555  0.0711  0.3877
  452SOL    HW1 7371   2.423   3.742   1.108 -1.0114  0.5098 -0.2409
  452SOL    HW2 7372   2.410   3.684   0.956 -0.9172 -0.6651  0.1839
  453SOL     OW 7373   3.914   3.807   0.811 -0.0755  0.1796 -0.4883
  453SOL    HW1 7374   3.938   3.730   0.752 -1.4297 -2.2190  1.8173
  453SOL    HW2 7375   3.819   3.832   0.796  0.3851  1.5481 -1.2932
  454SOL     OW 7376   2.053   1.659   4.410 -0.6175  0.4333 -0.2137
  454SOL    HW1 7377   2.098   1.588   4.465 -0.6855  1.0969  0.7107
  454SOL    HW2 7378   2.113   1.684   4.333 -0.6623 -0.7314 -0.6635
  455SOL     OW 7379   5.642   4.783   0.431  0.2849  0.1325 -0.3796
  455SOL    HW1 7380   5.716   4.749   0.373  0.6664  1.1696 -0.5236
  455SOL    HW2 7381   5.633   4.725   0.512 -0.2159 -1.3059 -1.4162
  456SOL     OW 7382   4.878   6.128   5.926  0.2075 -0.0895  0.2919
  456SOL    HW1 7383   4.956   6.180   5.962  0.2344  0.9354 -1.1654
  456SOL    HW2 7384   4.891   6.031   5.945  2.8898 -0.2259 -1.6677
  457SOL     OW 7385   4.465   0.678   6.173  0.3912 -0.1893 -0.4206
  457SOL    HW1 7386   4.493   0.633   6.258 -0.2309  2.2807  1.1935
  457SOL    HW2 7387   4.540   0.735   6.139  0.7594 -1.4199 -1.7892
  458SOL     OW 7388   5.790   4.170   1.412  0.7166  0.4387  0.1141
  458SOL    HW1 7389   5.798   4.073   1.435 -0.6391  0.2611 -0.0786
  458SOL    HW2 7390   5.771   4.222   1.496 -0.1484  0.3220 -0.0032
  459SOL     OW 7391   2.248   5.109   0.828 -0.4505  0.2526 -0.2059
  459SOL    HW1 7392   2.224   5.143   0.919  1.8318 -1.1831  1.0349
  459SOL    HW2 7393   2.341   5.137   0.806 -0.1453 -1.3415 -1.0719
  460SOL     OW 7394   5.427   0.155   0.876 -0.6370 -0.0658 -0.2256
  460SOL    HW1 7395   5.483   0.231   0.910  0.1845 -0.6889 -0.1771
  460SOL    HW2 7396   5.423   0.159   0.776 -1.2308  0.4741 -0.1925
  461SOL     OW 7397   3.601   1.925   5.628  0.4521 -0.0752  0.2342
  461SOL    HW1 7398   3.552   1.989   5.686 -1.0805 -0.9496 -0.0463
  461SOL    HW2 7399   3.632   1.847   5.682  1.5947  0.4792  0.4138
  462SOL     OW 7400   0.540   5.724   5.061 -0.2673  0.2818 -0.2471
  462SOL    HW1 7401   0.499   5.634   5.046 -1.6881  0.4383  2.2767
  462SOL    HW2 7402   0.621   5.714   5.118 -0.8008  0.6482  0.5857
  463SOL     OW 7403   6.006   3.520   5.113  0.1200 -0.0347  0.8716
  463SOL    HW1 7404   5.954   3.492   5.032  1.1900  0.7834 -0.1466
  463SOL    HW2 7405   6.076   3.586   5.086  0.8731 -0.1639  2.3909
  464SOL     OW 7406   5.892   1.569   5.813  0.1652  0.2723  0.1912
  464SOL    HW1 7407   5.904   1.546   5.909 -1.9223  1.6687  0.8760
  464SOL    HW2 7408   5.811   1.522   5.777  1.9838 -1.7596 -1.5178
  465SOL     OW 7409   4.902   5.078   5.781 -0.4425 -0.1324  0.4396
  465SOL    HW1 7410   4.979   5.142   5.776  0.2452 -0.9649 -0.0142
  465SOL    HW2 7411   4.937   4.984   5.771 -1.7244 -0.4334 -1.7315
  466SOL     OW 7412   4.772   0.313   0.292  0.1573  0.5209  1.2900
  466SOL    HW1 7413   4.756   0.292   0.389  0.3981 -0.4154  1.1409
  466SOL    HW2 7414   4.703   0.267   0.237  0.5091  0.3832  0.9626
  467SOL     OW 7415   2.572   2.645   0.223 -0.4169 -0.0712 -0.0711
  467SOL    HW1 7416   2.621   2.719   0.269  0.5511 -0.3165 -0.6696
  467SOL    HW2 7417   2.597   2.557   0.264  0.1498 -0.2538 -0.7703
  468SOL     OW 7418   3.244   5.306   1.472 -0.0480  0.2941 -0.0310
  468SOL    HW1 7419   3.228   5.393   1.518 -0.0595 -0.1653  0.8795
  468SOL    HW2 7420   3.333   5.269   1.500  0.7199  0.7866 -1.7120
  469SOL     OW 7421   5.303   5.022   0.453  0.4512 -0.1471 -0.2353
  469SOL    HW1 7422   5.233   5.083   0.490 -1.9323 -1.7343 -1.8230
  469SOL    HW2 7423   5.328   5.052   0.361  0.9396 -0.2878 -0.1503
  470SOL     OW 7424   2.275   4.019   6.001  0.2150  0.3027 -0.0971
  470SOL    HW1 7425   2.327   3.961   5.939  0.6207  1.2308 -0.6600
  470SOL    HW2 7426   2.204   3.966   6.046  0.9325 -0.7459 -0.1623
  471SOL     OW 7427   2.801   4.274   6.390  0.0802 -0.7170 -0.6638
  471SOL    HW1 7428   2.807   4.374   6.383 -1.2051 -0.6542 -1.2361
  471SOL    HW2 7429   2.861   4.233   6.322 -1.6193 -0.2456 -2.5880
  472SOL     OW 7430   4.250   5.355   5.284  0.0734  0.4131  0.1295
  472SOL    HW1 7431   4.209   5.369   5.375  2.5275  1.9925  1.0917
  472SOL    HW2 7432   4.329   5.415   5.274 -0.7685  1.1090 -3.5455
  473SOL     OW 7433   4.549   4.730   0.640 -0.4225  0.7107  0.0703
  473SOL    HW1 7434   4.639   4.769   0.662  0.5954  1.4857 -4.4645
  473SOL    HW2 7435   4.552   4.631   0.653  0.6357  0.8582  1.2109
  474SOL     OW 7436   3.952   0.629   5.733  0.5869 -0.1493 -0.2884
  474SOL    HW1 7437   3.971   0.558   5.665 -0.8682  0.5658 -1.5151
  474SOL    HW2 7438   3.921   0.711   5.686 -0.0891  0.4919  1.2436
  475SOL     OW 7439   2.923   2.002   1.543 -0.2103  0.2034  0.2271
  475SOL    HW1 7440   2.935   2.010   1.642  0.7236  2.4805  0.0007
  475SOL    HW2 7441   2.832   2.036   1.518 -0.0744  0.5722  0.2244
  476SOL     OW 7442   5.339   5.388   5.721 -0.5139  1.0327  0.0234
  476SOL    HW1 7443   5.412   5.324   5.695  0.3825  2.1361 -0.2686
  476SOL    HW2 7444   5.359   5.427   5.811 -2.6999 -1.4388  1.7006
  477SOL     OW 7445   0.501   1.868   4.801 -0.0765 -0.0161 -0.8929
  477SOL    HW1 7446   0.451   1.791   4.761 -0.3299 -0.2293 -0.1841
  477SOL    HW2 7447   0.580   1.890   4.743 -0.7529  0.0673 -1.8173
  478SOL     OW 7448   1.988   4.062   0.321  0.4782 -0.0300  0.4374
  478SOL    HW1 7449   1.910   4.022   0.272  0.5500 -1.6326  1.5866
  478SOL    HW2 7450   1.961   4.149   0.361 -0.7183 -0.5608  0.8069
  479SOL     OW 7451   5.992   1.984   0.965  0.0362 -0.5901 -0.2599
  479SOL    HW1 7452   5.905   1.963   1.011 -0.1099 -2.6250 -1.3637
  479SOL    HW2 7453   6.054   2.027   1.031 -2.3197  2.5583  0.1323
  480SOL     OW 7454   0.542   5.207   4.725 -0.1291 -0.2444  0.5520
  480SOL    HW1 7455   0.453   5.167   4.702  1.7452 -3.0403 -2.8144
  480SOL    HW2 7456   0.582   5.248   4.644  2.3363 -0.5553  1.5316
  481SOL     OW 7457   3.346   0.249   0.351 -0.8911 -0.3958 -0.2496
  481SOL    HW1 7458   3.311   0.311   0.421 -0.1965 -2.4707  2.1123
  481SOL    HW2 7459   3.306   0.158   0.364 -0.1312 -1.0374 -2.0745
  482SOL     OW 7460   4.599   2.512   0.133  0.0702 -0.1526  0.9515
  482SOL    HW1 7461   4.555   2.437   0.182  2.1542 -0.8048  1.9191
  482SOL    HW2 7462   4.694   2.520   0.162  0.3804  1.7818 -0.3959
  483SOL     OW 7463   5.570   1.816   6.463 -0.7833  0.5648 -0.3964
  483SOL    HW1 7464   5.655   1.858   6.495 -0.1110 -1.3712  0.4627
  483SOL    HW2 7465   5.543   1.858   6.376  0.5129  1.8657 -0.2050
  484SOL     OW 7466   1.277   0.460   5.182 -0.1618  0.2926  0.1033
  484SOL    HW1 7467   1.304   0.442   5.087  1.7812  1.6046  0.3549
  484SOL    HW2 7468   1.358   0.485   5.236 -1.2736 -0.1226  2.0481
  485SOL     OW 7469   0.385   3.985   1.493  0.0253 -0.3730  0.2640
  485SOL    HW1 7470   0.449   3.924   1.539  0.1726  1.2004  2.3011
  485SOL    HW2 7471   0.332   4.035   1.561 -1.2846  0.5310 -1.3464
  486SOL     OW 7472   3.916   2.558   1.445  0.6981  0.2819 -0.1299
  486SOL    HW1 7473   3.934   2.631   1.512 -1.2062 -0.4640  1.2914
  486SOL    HW2 7474   3.950   2.471   1.480 -0.4400 -0.1404 -0.0351
  487SOL     OW 7475   4.041   3.427   1.294 -0.4375 -0.1004  0.5002
  487SOL    HW1 7476   4.106   3.478   1.351  1.3509 -2.3642  0.6049
  487SOL    HW2 7477   4.030   3.334   1.330 -1.1678 -0.8208 -1.4438
  488SOL     OW 7478   2.197   3.938   6.491 -0.3004 -0.2413 -0.1064
  488SOL    HW1 7479   2.165   4.012   6.550  0.8903  0.1320  0.1018
  488SOL    HW2 7480   2.212   3.855   6.546 -1.9490 -0.7574 -0.3943
  489SOL     OW 7481   4.798   4.002   1.080 -0.0926 -0.4905 -0.1794
  489SOL    HW1 7482   4.819   3.906   1.066  1.0956 -0.4520  1.1632
  489SOL    HW2 7483   4.815   4.027   1.175  1.7068  1.5325 -0.9614
  490SOL     OW 7484   3.257   1.204   0.311  0.2453 -0.0909 -0.5138
  490SOL    HW1 7485   3.329   1.200   0.380  0.4481 -0.3816 -0.7404
  490SOL    HW2 7486   3.241   1.300   0.285  0.4660 -0.0158 -0.3768
  491SOL     OW 7487   4.026   0.378   5.616 -0.0448 -0.3947  0.1698
  491SOL    HW1 7488   4.031   0.324   5.532  1.5983 -1.6124  1.0057
  491SOL    HW2 7489   4.006   0.318   5.693  0.8999  0.3157  0.9963
  492SOL     OW 7490   0.021   2.674   0.435  0.0396 -0.1920 -0.3157
  492SOL    HW1 7491   0.096   2.634   0.381 -0.4852  0.4295 -1.5619
  492SOL    HW2 7492   0.051   2.761   0.474  0.4238 -0.6449  0.4189
  493SOL     OW 7493   4.047   4.158   6.025  0.4285  0.8492  0.4142
  493SOL    HW1 7494   4.117   4.180   6.094  0.6989  1.2242  0.0220
  493SOL    HW2 7495   3.970   4.221   6.035  0.4272  0.8462  0.4253
  494SOL     OW 7496   2.037   5.637   4.946 -0.0370  0.2760  0.2623
  494SOL    HW1 7497   2.034   5.725   4.993 -2.5370  0.7778 -0.6763
  494SOL    HW2 7498   2.015   5.650   4.849 -2.3706 -1.5342  0.4500
  495SOL     OW 7499   0.930   5.569   6.235 -0.2698 -0.2059  0.7357
  495SOL    HW1 7500   0.912   5.512   6.154 -1.4790  0.6354  0.3792
  495SOL    HW2 7501   0.949   5.663   6.206  1.3719 -0.3271  1.3364
  496SOL     OW 7502   4.437   3.463   1.413  0.1335  0.2709 -0.4401
  496SOL    HW1 7503   4.353   3.515   1.430  0.1702  0.1636  0.0976
  496SOL    HW2 7504   4.472   3.427   1.500 -0.1008 -0.9920 -0.8504
  497SOL     OW 7505   0.015   0.838   6.014 -0.1533  0.0729  0.7250
  497SOL    HW1 7506   0.056   0.770   5.952 -1.4109  1.2232 -1.4775
  497SOL    HW2 7507   0.081   0.910   6.032 -0.1317  0.2858 -0.1824
  498SOL     OW 7508   3.816   3.154   6.042 -0.5256 -0.4142  0.2230
  498SOL    HW1 7509   3.819   3.186   6.137 -2.1341  1.2374 -0.2085
  498SOL    HW2 7510   3.899   3.103   6.021  0.2406 -0.1117  2.2729
  499SOL     OW 7511   3.101   3.155   4.981 -0.5298  0.2971  0.1060
  499SOL    HW1 7512   3.114   3.108   4.893  0.2836  1.6618 -0.5387
  499SOL    HW2 7513   3.053   3.094   5.045 -0.6192 -0.9311 -1.0866
  500SOL     OW 7514   3.347   0.448   0.123  0.3680  0.2275 -0.3156
  500SOL    HW1 7515   3.303   0.414   0.206  0.5640 -0.1065 -0.3498
  500SOL    HW2 7516   3.439   0.480   0.144  1.3477 -2.0854 -0.8213
  501SOL     OW 7517   2.127   3.281   5.476  0.4091 -0.8386  0.6732
  501SOL    HW1 7518   2.176   3.194   5.478  1.9597 -0.0220 -0.1869
  501SOL    HW2 7519   2.116   3.312   5.382 -0.2054 -0.1421  0.9590
  502SOL     OW 7520   5.190   3.982   5.805 -0.1451  0.3561  0.1898
  502SOL    HW1 7521   5.118   3.919   5.835  0.8007 -0.1715  1.4324
  502SOL    HW2 7522   5.232   3.947   5.722 -2.6947  1.7554 -1.8381
  503SOL     OW 7523   4.715   5.559   0.889 -0.1938 -0.0145  0.3757
  503SOL    HW1 7524   4.775   5.542   0.812 -0.2660  1.6791 -0.1016
  503SOL    HW2 7525   4.769   5.588   0.968 -0.3303  1.5383 -0.0625
  504SOL     OW 7526   1.459   3.578   1.245 -0.7155  0.1834  0.0164
  504SOL    HW1 7527   1.473   3.623   1.333 -0.4653 -0.3013  0.2301
  504SOL    HW2 7528   1.394   3.502   1.256 -0.0231 -0.4331 -0.0239
  505SOL     OW 7529   2.535   0.256   0.643 -0.3463  0.2062  0.0178
  505SOL    HW1 7530   2.453   0.198   0.644 -1.6237  1.9060  0.2831
  505SOL    HW2 7531   2.552   0.289   0.736 -0.1241  0.8638 -0.2518
  506SOL     OW 7532   4.144   3.080   1.721 -0.1470  0.5540  0.3796
  506SOL    HW1 7533   4.087   3.090   1.803  1.0213  1.9303  1.0827
  506SOL    HW2 7534   4.234   3.120   1.738  1.9045 -3.4472  0.0717
  507SOL     OW 7535   0.267   2.555   1.204 -0.7257  0.1260 -0.3601
  507SOL    HW1 7536   0.363   2.577   1.220 -1.0307  2.1949 -1.0276
  507SOL    HW2 7537   0.258   2.459   1.179  1.0522 -0.3039  0.5089
  508SOL     OW 7538   3.135   4.653   0.603  0.3667  0.3748  0.5927
  508SOL    HW1 7539   3.065   4.687   0.539 -0.2278 -0.1791  0.9447
  508SOL    HW2 7540   3.122   4.697   0.692  0.6034  0.4237  0.6043
  509SOL     OW 7541   3.265   3.175   0.625 -0.2437 -0.0990  0.2602
  509SOL    HW1 7542   3.344   3.186   0.684 -1.2772 -0.1976  1.7292
  509SOL    HW2 7543   3.231   3.081   0.631 -0.2627 -0.1588 -0.6369
  510SOL     OW 7544   1.670   4.082   6.274 -0.3112 -0.0824 -0.0425
  510SOL    HW1 7545   1.688   4.145   6.349 -0.9411 -0.7848  0.7221
  510SOL    HW2 7546   1.571   4.069   6.266 -0.2761  0.2714 -1.2501
  511SOL     OW 7547   3.667   0.387   6.327  0.3269 -0.5321 -0.0707
  511SOL    HW1 7548   3.651   0.460   6.261  0.0227 -0.7342 -0.2201
  511SOL    HW2 7549   3.615   0.306   6.301  0.2394 -0.6264  0.3931
  512SOL     OW 7550   1.623   3.200   5.348 -0.1719 -0.2794 -0.3227
  512SOL    HW1 7551   1.662   3.158   5.430 -0.5550  0.6638  0.3632
  512SOL    HW2 7552   1.698   3.226   5.286  0.0544 -2.4579 -1.0641
  513SOL     OW 7553   3.821   0.318   0.196  0.4343  0.4112 -0.2311
  513SOL    HW1 7554   3.781   0.265   0.122 -0.2381  1.7044 -0.8157
  513SOL    HW2 7555   3.874   0.257   0.255  1.4921 -0.5613 -2.0881
  514SOL     OW 7556   4.683   3.602   0.036  0.4117  0.1072 -0.7202
  514SOL    HW1 7557   4.684   3.682   0.097  0.3224 -1.9429  2.1862
  514SOL    HW2 7558   4.748   3.616  -0.039  2.2062  1.9386  1.0434
  515SOL     OW 7559   0.604   6.058   0.657 -0.6730  0.1995  0.0524
  515SOL    HW1 7560   0.682   6.112   0.626 -0.0524 -1.4492 -1.4059
  515SOL    HW2 7561   0.593   5.978   0.598 -2.0696 -0.8359  1.6205
  516SOL     OW 7562   2.357   0.649   5.433 -0.2566  0.0515 -0.7240
  516SOL    HW1 7563   2.399   0.626   5.345  0.7461  1.1821 -0.5556
  516SOL    HW2 7564   2.428   0.655   5.503 -1.2332 -3.1473  0.7415
  517SOL     OW 7565   0.686   5.415   5.149 -0.1454 -0.0315 -0.2995
  517SOL    HW1 7566   0.602   5.386   5.103 -0.2176 -0.7462  0.2691
  517SOL    HW2 7567   0.763   5.410   5.085 -0.0242 -2.1929 -0.0498
  518SOL     OW 7568   4.964   3.541   1.434 -0.4081 -0.0668  0.4667
  518SOL    HW1 7569   5.039   3.486   1.396  0.6950  2.0683 -0.6470
  518SOL    HW2 7570   4.967   3.536   1.534  3.1045  2.0890  0.6533
  519SOL     OW 7571   1.952   4.970   5.715 -0.1351 -0.9130 -0.6334
  519SOL    HW1 7572   1.997   4.921   5.790 -1.2621  0.2920  0.8848
  519SOL    HW2 7573   1.878   4.913   5.679 -0.3724 -1.0254  0.0096
  520SOL     OW 7574   1.828   6.137   0.906 -0.0904 -0.3018 -0.1675
  520SOL    HW1 7575   1.865   6.208   0.965 -0.4649  0.4795 -0.8637
  520SOL    HW2 7576   1.842   6.162   0.810  1.1388 -1.8629 -0.4506
  521SOL     OW 7577   3.421   2.314   4.661 -0.0589  0.5630  0.9134
  521SOL    HW1 7578   3.434   2.356   4.572 -2.5596 -0.8402 -0.2261
  521SOL    HW2 7579   3.392   2.383   4.727  0.2659  1.3450  0.2565
  522SOL     OW 7580   3.584   0.029   1.755  0.2049 -0.3308  0.6698
  522SOL    HW1 7581   3.505  -0.020   1.789  0.4282 -0.7438  0.5951
  522SOL    HW2 7582   3.638   0.064   1.832  1.4660 -2.4518  0.8225
  523SOL     OW 7583   3.354   4.955   1.201 -0.1616  0.0703 -0.2327
  523SOL    HW1 7584   3.275   4.942   1.262  0.7117 -3.1872  0.3940
  523SOL    HW2 7585   3.432   4.988   1.254 -0.0952 -0.3461 -0.0643
  524SOL     OW 7586   1.922   2.532   0.742  0.5733  0.6268  0.0150
  524SOL    HW1 7587   1.881   2.612   0.786 -0.2866 -0.3071  0.9643
  524SOL    HW2 7588   1.860   2.498   0.671  0.4418  0.1773  0.3412
  525SOL     OW 7589   1.723   3.642   0.722  0.3310  0.2630 -0.1492
  525SOL    HW1 7590   1.712   3.588   0.639  2.6167  0.8886 -0.9412
  525SOL    HW2 7591   1.784   3.594   0.785 -0.7943  0.1377  0.8860
  526SOL     OW 7592   4.423   1.913   0.158  0.3998 -0.3828 -0.5884
  526SOL    HW1 7593   4.409   1.831   0.214 -0.0564 -0.4423 -0.7872
  526SOL    HW2 7594   4.517   1.914   0.123  0.9715  0.0864  0.8751
  527SOL     OW 7595   1.452   3.917   0.522  0.5083  0.4047  0.0280
  527SOL    HW1 7596   1.452   4.004   0.572 -1.5345 -0.2332  1.2465
  527SOL    HW2 7597   1.546   3.885   0.512  1.5401  3.5636 -2.0355
  528SOL     OW 7598   0.324   5.017   4.919 -0.5694  0.4535  0.4412
  528SOL    HW1 7599   0.248   4.952   4.922  1.2133 -1.7710  0.0625
  528SOL    HW2 7600   0.327   5.060   4.829 -1.4198  0.6213  0.4854
  529SOL     OW 7601   4.498   0.584   0.192 -0.1796  0.0110 -0.0578
  529SOL    HW1 7602   4.499   0.515   0.264  0.8626  0.7647  0.6747
  529SOL    HW2 7603   4.403   0.608   0.171 -0.5116 -0.6534  0.6328
  530SOL     OW 7604   6.223   0.833   4.557 -0.2207 -0.3429  0.0155
  530SOL    HW1 7605   6.138   0.810   4.509 -0.1679 -0.1207 -0.1870
  530SOL    HW2 7606   6.244   0.930   4.544  0.5012 -0.5721 -0.6508
  531SOL     OW 7607   1.478   3.653   0.893  0.0853 -0.3620 -0.3747
  531SOL    HW1 7608   1.483   3.704   0.979  0.7931 -0.8570 -0.1149
  531SOL    HW2 7609   1.569   3.651   0.851 -0.4326  0.6933 -1.6266
  532SOL     OW 7610   1.220   3.347   0.725 -0.1693 -0.1934  0.2615
  532SOL    HW1 7611   1.145   3.283   0.707  0.0082 -0.9438  1.9688
  532SOL    HW2 7612   1.197   3.405   0.803  1.3001 -0.9708  1.3203
  533SOL     OW 7613   3.264   0.411   6.051  0.6656  0.1547 -0.3691
  533SOL    HW1 7614   3.333   0.340   6.037 -0.0856 -0.7026  0.1938
  533SOL    HW2 7615   3.309   0.501   6.057  1.5330 -0.1193 -2.1622
  534SOL     OW 7616   0.880   5.904   5.988 -0.4675 -0.7069 -0.1518
  534SOL    HW1 7617   0.934   5.917   5.905 -0.4123  0.3439  0.0353
  534SOL    HW2 7618   0.939   5.869   6.061 -0.7518 -2.7524 -0.8410
  535SOL     OW 7619   1.756   2.630   1.352 -0.0314  0.3159 -0.1092
  535SOL    HW1 7620   1.710   2.642   1.440 -3.0149  0.7946 -1.5879
  535SOL    HW2 7621   1.704   2.565   1.296  1.1372  0.8596 -1.9055
  536SOL     OW 7622   0.912   2.660   1.004  0.0487  0.3070 -0.0612
  536SOL    HW1 7623   0.821   2.639   1.039  0.4067 -1.1755  0.0524
  536SOL    HW2 7624   0.980   2.636   1.073  0.6784 -1.2944 -1.1887
  537SOL     OW 7625   2.789   1.767   1.813 -0.1611  0.3282  0.2656
  537SOL    HW1 7626   2.813   1.864   1.819  0.4735  0.0951  2.0357
  537SOL    HW2 7627   2.866   1.712   1.846 -0.6494 -0.7640 -0.3847
  538SOL     OW 7628   2.258   2.217   0.575  0.1651  0.0889 -0.1995
  538SOL    HW1 7629   2.183   2.264   0.620 -0.0898 -0.6050  0.1140
  538SOL    HW2 7630   2.280   2.263   0.489 -0.1131  0.7371  0.0727
  539SOL     OW 7631   1.168   1.358   4.729  0.5451  0.4241 -0.2799
  539SOL    HW1 7632   1.191   1.340   4.634  0.0929 -1.0278 -0.1416
  539SOL    HW2 7633   1.082   1.312   4.751 -0.1239  1.9400  0.4486
  540SOL     OW 7634   0.597   3.164   0.942 -0.0437  0.9140 -1.1999
  540SOL    HW1 7635   0.540   3.135   1.019  1.2929  0.7561 -0.2430
  540SOL    HW2 7636   0.563   3.123   0.858 -0.2015 -0.7279 -0.3702
  541SOL     OW 7637   3.378   3.787   6.125 -0.1210  0.0695  0.2284
  541SOL    HW1 7638   3.294   3.818   6.168 -0.1753 -0.5647  0.6032
  541SOL    HW2 7639   3.370   3.690   6.101  0.0784  0.2998 -0.8077
  542SOL     OW 7640   5.349   1.975   1.305  0.1906 -0.2929  0.0033
  542SOL    HW1 7641   5.283   2.019   1.366  0.2354 -0.3541  0.0960
  542SOL    HW2 7642   5.436   2.024   1.308  0.1027 -0.1231 -0.2340
  543SOL     OW 7643   6.231   0.501   4.878  0.4912 -0.6178 -0.2283
  543SOL    HW1 7644   6.133   0.521   4.875  0.6369  0.8204  2.0362
  543SOL    HW2 7645   6.280   0.564   4.817 -0.0153 -2.0151 -2.1683
  544SOL     OW 7646   4.609   0.202   0.061  0.0329 -0.0953 -0.1064
  544SOL    HW1 7647   4.546   0.253   0.001  1.8895  1.9229 -0.4326
  544SOL    HW2 7648   4.697   0.190   0.015  1.3983  1.1669  2.0408
  545SOL     OW 7649   5.764   0.173   0.357 -0.3787  0.4190 -0.1824
  545SOL    HW1 7650   5.842   0.181   0.294 -0.0107  0.3676  0.2559
  545SOL    HW2 7651   5.712   0.091   0.334 -2.2379  2.1541 -2.5633
  546SOL     OW 7652   2.187   5.515   6.346 -0.1477  0.0035  0.6030
  546SOL    HW1 7653   2.283   5.486   6.342 -0.3715 -0.6141 -1.1136
  546SOL    HW2 7654   2.157   5.516   6.442  1.0378 -1.6050  1.0522
  547SOL     OW 7655   2.579   3.294   0.116  0.4993 -0.7372  0.5722
  547SOL    HW1 7656   2.584   3.390   0.088  1.7984 -0.8842  0.2511
  547SOL    HW2 7657   2.646   3.277   0.188 -0.6433 -1.1076  1.5878
  548SOL     OW 7658   1.588   1.720   4.576  0.6880 -0.2701  0.2509
  548SOL    HW1 7659   1.549   1.778   4.504 -1.0383 -0.2434  1.1646
  548SOL    HW2 7660   1.610   1.777   4.656 -1.3719 -0.8642  1.2994
  549SOL     OW 7661   6.324   2.065   0.250 -0.1756 -0.3124 -0.1492
  549SOL    HW1 7662   6.290   2.038   0.160  1.0701 -0.4706 -0.5885
  549SOL    HW2 7663   6.258   2.126   0.293 -1.2515 -1.0107 -0.7448
  550SOL     OW 7664   1.167   5.938   0.120  0.1110 -0.3379 -0.1922
  550SOL    HW1 7665   1.169   6.029   0.163  2.4539 -0.8556  0.9479
  550SOL    HW2 7666   1.145   5.870   0.190 -1.0098 -0.7438 -0.9175
  551SOL     OW 7667   1.290   4.038   0.927 -0.0099 -0.2492  0.3645
  551SOL    HW1 7668   1.367   3.973   0.933  1.2018  0.6369 -3.1266
  551SOL    HW2 7669   1.204   3.987   0.927  0.8979 -2.1039 -2.6062
  552SOL     OW 7670   4.849   0.574   0.350  0.4177  0.0433  0.1130
  552SOL    HW1 7671   4.768   0.602   0.401  0.6997  0.0177  0.5744
  552SOL    HW2 7672   4.845   0.475   0.334  0.0473  0.1398 -0.4183
  553SOL     OW 7673   3.409   3.084   6.456 -0.2774  0.6804 -0.3302
  553SOL    HW1 7674   3.334   3.052   6.399  1.3980 -0.1651 -2.1936
  553SOL    HW2 7675   3.431   3.014   6.524 -1.7431  1.3387  0.8738
  554SOL     OW 7676   2.265   5.930   0.397  0.1818  0.1495 -0.1585
  554SOL    HW1 7677   2.171   5.916   0.427  0.0522 -2.2919 -1.4725
  554SOL    HW2 7678   2.328   5.903   0.471 -0.1557 -0.1924  0.0092
  555SOL     OW 7679   4.828   4.597   0.240 -0.0915  0.0568  0.0649
  555SOL    HW1 7680   4.743   4.554   0.270 -0.5340 -0.0606 -1.3022
  555SOL    HW2 7681   4.865   4.548   0.162 -0.4543  1.9255 -1.3592
  556SOL     OW 7682   5.488   2.609   5.679  0.0580 -0.4361  0.0614
  556SOL    HW1 7683   5.506   2.696   5.632 -0.8769 -0.1455  0.2169
  556SOL    HW2 7684   5.394   2.609   5.714 -0.3300 -1.9496 -0.8950
  557SOL     OW 7685   0.677   0.830   0.950  0.4524 -0.0840  0.0629
  557SOL    HW1 7686   0.690   0.747   1.004 -0.5784 -0.4401 -0.2192
  557SOL    HW2 7687   0.765   0.860   0.913  0.6658 -1.7904 -0.9022
  558SOL     OW 7688   5.299   5.798   6.443 -0.2550 -0.5334 -0.8630
  558SOL    HW1 7689   5.230   5.841   6.500  1.3463 -0.4092  1.0920
  558SOL    HW2 7690   5.329   5.712   6.486  0.6985 -0.6621 -1.7352
  559SOL     OW 7691   5.906   4.418   0.415 -0.3920  0.1404 -0.3454
  559SOL    HW1 7692   5.826   4.393   0.361 -1.4367  1.7386  0.3769
  559SOL    HW2 7693   5.908   4.517   0.429  0.7205 -0.0450  1.1640
  560SOL     OW 7694   5.087   4.344   0.663 -0.4019 -0.1533  0.1937
  560SOL    HW1 7695   5.053   4.435   0.638  0.4622  0.1181 -0.0698
  560SOL    HW2 7696   5.124   4.299   0.581  0.7587 -0.0217  0.6291
  561SOL     OW 7697   2.809   4.710   5.512 -0.4364 -0.2901  0.2880
  561SOL    HW1 7698   2.735   4.773   5.491  0.7070  1.1646  0.4493
  561SOL    HW2 7699   2.775   4.616   5.510 -2.0998  0.2959 -0.3263
  562SOL     OW 7700   3.867   5.697   1.325  0.2160  0.3716 -0.9187
  562SOL    HW1 7701   3.826   5.785   1.350 -0.6486 -0.0648 -0.7853
  562SOL    HW2 7702   3.955   5.687   1.372  0.0397  0.9081 -0.4684
  563SOL     OW 7703   0.085   6.252   5.933 -0.4499 -0.4646 -0.3769
  563SOL    HW1 7704   0.185   6.258   5.932 -0.4431 -0.3227 -2.4015
  563SOL    HW2 7705   0.046   6.326   5.880 -1.6184 -0.9435 -0.2227
  564SOL     OW 7706   4.572   5.274   5.229  0.3824 -0.2549 -0.0741
  564SOL    HW1 7707   4.519   5.191   5.216 -2.0328  1.5710 -3.4257
  564SOL    HW2 7708   4.669   5.254   5.214 -0.2624 -2.2481 -2.0843
  565SOL     OW 7709   2.164   6.168   5.754  0.1997 -0.5016  0.0187
  565SOL    HW1 7710   2.201   6.106   5.823 -0.2549 -1.9329 -0.9698
  565SOL    HW2 7711   2.232   6.237   5.731  0.1000  0.5286  2.4311
  566SOL     OW 7712   2.709   0.831   5.198 -0.0830  0.3895  0.0026
  566SOL    HW1 7713   2.613   0.845   5.174 -0.0868  1.0799  0.3786
  566SOL    HW2 7714   2.744   0.750   5.152 -1.1121 -0.4153  0.6094
  567SOL     OW 7715   4.339   1.949   0.962 -0.2378  0.2076 -0.1281
  567SOL    HW1 7716   4.430   1.970   0.927  0.7908 -1.9572  1.0223
  567SOL    HW2 7717   4.325   1.998   1.048 -0.2895  0.7731 -0.4550
  568SOL     OW 7718   2.548   0.143   0.388 -0.3923  0.0231 -0.3573
  568SOL    HW1 7719   2.622   0.124   0.324  0.8115 -0.1560  1.0356
  568SOL    HW2 7720   2.586   0.163   0.478 -2.0347  0.2540  0.3197
  569SOL     OW 7721   4.634   0.753   5.572 -0.1672 -0.3270  0.1684
  569SOL    HW1 7722   4.650   0.824   5.641 -0.6980  0.4034 -0.4387
  569SOL    HW2 7723   4.544   0.712   5.587 -0.6310  0.4056 -0.5747
  570SOL     OW 7724   4.384   2.643   0.064 -0.1101  0.2077  0.0579
  570SOL    HW1 7725   4.332   2.704   0.125  0.0907 -0.1945  0.6341
  570SOL    HW2 7726   4.466   2.611   0.111 -0.8130 -1.4526  0.2028
  571SOL     OW 7727   1.306   3.348   1.283 -0.0987  0.0098 -0.3704
  571SOL    HW1 7728   1.251   3.389   1.355  0.4149  0.1077 -0.0259
  571SOL    HW2 7729   1.248   3.291   1.225 -0.4106 -0.5583  0.4826
  572SOL     OW 7730   0.592   1.697   5.516 -0.3510  0.1175 -0.2818
  572SOL    HW1 7731   0.513   1.758   5.522 -1.5028 -1.1983 -1.3058
  572SOL    HW2 7732   0.642   1.715   5.431  1.0633  1.5935  0.8068
  573SOL     OW 7733   6.173   4.411   0.432  0.3599 -0.2802 -0.4568
  573SOL    HW1 7734   6.073   4.411   0.420  0.1425 -0.3666  1.1331
  573SOL    HW2 7735   6.202   4.324   0.470  0.6517  0.7115  1.7474
  574SOL     OW 7736   5.665   1.162   5.898  0.5362 -0.4125 -0.0887
  574SOL    HW1 7737   5.676   1.085   5.835 -0.5967 -0.0185 -0.7924
  574SOL    HW2 7738   5.653   1.246   5.846 -0.5278 -0.0919  0.6516
  575SOL     OW 7739   2.991   6.133   0.930 -0.3823  0.4512 -0.4046
  575SOL    HW1 7740   3.075   6.079   0.936 -0.8754 -0.2738  0.2537
  575SOL    HW2 7741   3.004   6.209   0.867  1.8043  2.2411  2.0080
  576SOL     OW 7742   1.050   0.903   0.202  0.7178  0.0356  0.2608
  576SOL    HW1 7743   1.099   0.853   0.130  1.5683  1.5736 -0.2645
  576SOL    HW2 7744   1.007   0.984   0.164 -3.6098 -1.9426  0.3896
  577SOL     OW 7745   4.622   0.123   1.049  0.0859 -0.1891  0.4970
  577SOL    HW1 7746   4.548   0.087   1.106 -0.4542 -0.7752 -0.5542
  577SOL    HW2 7747   4.710   0.089   1.083 -0.1866 -0.1119  1.2906
  578SOL     OW 7748   5.734   4.619   5.696 -0.1466  0.1013  0.4381
  578SOL    HW1 7749   5.686   4.703   5.669  0.4702  0.6156  0.8912
  578SOL    HW2 7750   5.671   4.559   5.745 -0.4540  0.5630  0.6245
  579SOL     OW 7751   3.715   1.470   5.340 -0.2880 -0.4476 -0.3621
  579SOL    HW1 7752   3.625   1.499   5.308 -0.2506  0.3477  0.2326
  579SOL    HW2 7753   3.754   1.540   5.399 -1.2829 -2.6360  3.2363
  580SOL     OW 7754   4.469   4.558   5.398 -0.1870 -0.3615  0.5762
  580SOL    HW1 7755   4.565   4.548   5.426  0.5577  0.9760 -1.3130
  580SOL    HW2 7756   4.436   4.472   5.359  1.6087  0.2119 -2.5182
  581SOL     OW 7757   5.340   0.701   6.502  0.2981  0.6333 -0.1971
  581SOL    HW1 7758   5.337   0.774   6.571 -1.7208  1.8722 -1.4688
  581SOL    HW2 7759   5.277   0.724   6.428  1.4651 -1.2573 -1.8645
  582SOL     OW 7760   2.455   3.813   1.298 -0.1242 -0.1218 -0.2135
  582SOL    HW1 7761   2.535   3.811   1.358  1.0545 -1.0451 -1.7319
  582SOL    HW2 7762   2.377   3.854   1.346  1.1603  0.4906  1.4198
  583SOL     OW 7763   2.921   3.600   0.899 -0.0345 -0.4130  0.0186
  583SOL    HW1 7764   2.856   3.655   0.951 -0.9853 -1.7510  0.2632
  583SOL    HW2 7765   2.987   3.558   0.961 -1.0365 -1.8309  0.1662
  584SOL     OW 7766   5.117   5.720   5.874 -0.0383  0.6108  0.5588
  584SOL    HW1 7767   5.190   5.676   5.925 -0.5248 -2.3321 -1.0268
  584SOL    HW2 7768   5.156   5.784   5.808  1.3826 -1.7756 -1.1015
  585SOL     OW 7769   5.016   2.218   0.623 -0.0141  0.4511  0.6990
  585SOL    HW1 7770   5.107   2.183   0.644 -0.4685 -0.8323  0.6582
  585SOL    HW2 7771   5.009   2.235   0.525 -1.9300 -6.7043 -1.0294
  586SOL     OW 7772   2.710   2.971   0.150 -0.3987 -0.0652 -0.7697
  586SOL    HW1 7773   2.794   3.024   0.158 -0.3325 -0.2159 -0.4462
  586SOL    HW2 7774   2.703   2.907   0.227 -0.6869 -0.2266 -0.9268
  587SOL     OW 7775   3.692   0.532   1.172 -0.1032  0.3426  0.0148
  587SOL    HW1 7776   3.628   0.538   1.094  0.8117  0.3376 -0.7573
  587SOL    HW2 7777   3.672   0.606   1.236 -1.0956  0.1434 -0.0443
  588SOL     OW 7778   1.949   1.147   5.902  0.5881 -0.0482 -0.3131
  588SOL    HW1 7779   1.919   1.063   5.857  0.8186 -0.8438  0.9722
  588SOL    HW2 7780   2.048   1.155   5.897  0.4104  1.9075 -3.3835
  589SOL     OW 7781   2.365   0.256   6.028  0.6701 -0.3091  0.3877
  589SOL    HW1 7782   2.309   0.298   5.958  0.8396  0.4579  0.7034
  589SOL    HW2 7783   2.450   0.221   5.987  0.8782  0.3538  0.2493
  590SOL     OW 7784   6.357   4.235   0.016 -0.3405 -0.3020 -0.1622
  590SOL    HW1 7785   6.386   4.142   0.039 -0.1546 -0.5233 -1.2619
  590SOL    HW2 7786   6.263   4.249   0.047 -1.0014 -1.4593 -1.5267
  591SOL     OW 7787   0.441   0.476   0.008  0.3956 -0.2492 -0.1104
  591SOL    HW1 7788   0.452   0.574  -0.009  2.4029 -0.6079 -1.1673
  591SOL    HW2 7789   0.492   0.450   0.089  2.4651 -0.8673 -1.5183
  592SOL     OW 7790   3.700   6.208   1.588 -0.1256 -0.0847  0.0532
  592SOL    HW1 7791   3.654   6.266   1.655 -0.8380 -0.1012 -0.4067
  592SOL    HW2 7792   3.781   6.168   1.629 -0.9814 -0.7352  1.1820
  593SOL     OW 7793   4.658   5.172   0.719  0.3992 -0.1189 -0.2190
  593SOL    HW1 7794   4.576   5.216   0.683 -0.3755 -0.7886  0.6689
  593SOL    HW2 7795   4.679   5.210   0.810 -0.3421 -1.5856  0.6072
  594SOL     OW 7796   5.545   5.952   5.524  0.0048  0.0249  0.4364
  594SOL    HW1 7797   5.581   5.904   5.444 -0.1889 -0.3874  0.5950
  594SOL    HW2 7798   5.452   5.982   5.507  0.1055  0.3002  0.3586
  595SOL     OW 7799   2.541   0.988   0.335 -0.2746  0.8305  0.3096
  595SOL    HW1 7800   2.514   1.073   0.379 -0.1656  0.6127  0.8002
  595SOL    HW2 7801   2.585   0.928   0.402 -1.7535 -0.2492  0.3510
  596SOL     OW 7802   4.084   3.509   5.125  0.3003  0.3993  0.1476
  596SOL    HW1 7803   4.158   3.519   5.059  0.9560 -2.1064  0.4213
  596SOL    HW2 7804   3.996   3.512   5.076  0.6316  1.3640 -0.4319
  597SOL     OW 7805   2.014   0.675   0.668  0.2136  0.2386 -0.5225
  597SOL    HW1 7806   2.099   0.671   0.614  2.2641 -0.5576  2.4869
  597SOL    HW2 7807   1.983   0.581   0.686 -0.0779  0.4583  0.1383
  598SOL     OW 7808   2.653   1.412   0.498 -0.7607  0.3581 -0.6834
  598SOL    HW1 7809   2.593   1.456   0.564 -1.2304 -0.6100 -0.4507
  598SOL    HW2 7810   2.746   1.407   0.535 -0.9600  0.0733 -0.2225
  599SOL     OW 7811   3.675   0.244   5.795 -0.4170 -0.1451 -0.2264
  599SOL    HW1 7812   3.702   0.148   5.784 -1.5125 -0.3766 -1.1035
  599SOL    HW2 7813   3.745   0.293   5.847  0.4176 -1.2926 -0.2356
  600SOL     OW 7814   1.118   3.040   0.836 -0.0148 -0.3912 -0.0843
  600SOL    HW1 7815   1.119   3.109   0.763  0.3939 -0.6106 -0.2885
  600SOL    HW2 7816   1.189   3.061   0.902 -0.5837 -0.0214  0.4161
  601SOL     OW 7817   5.994   2.845   6.402  0.4852  0.2072  0.1490
  601SOL    HW1 7818   6.067   2.787   6.441  0.0037  0.5887  1.6766
  601SOL    HW2 7819   5.907   2.795   6.406  0.3001  0.5388  0.2696
  602SOL     OW 7820   2.617   5.980   5.782  0.0163 -0.1989  0.0565
  602SOL    HW1 7821   2.545   5.930   5.733 -0.5624  0.3396  0.3390
  602SOL    HW2 7822   2.697   5.989   5.723 -0.1833 -0.7023 -0.3072
  603SOL     OW 7823   4.903   4.606   5.015  0.0252 -0.0278  0.5252
  603SOL    HW1 7824   4.832   4.538   5.035  0.2300 -0.5736 -0.5493
  603SOL    HW2 7825   4.878   4.659   4.934 -0.3743  1.5569  1.6392
  604SOL     OW 7826   2.683   3.190   6.320 -0.2476 -0.2602  0.3886
  604SOL    HW1 7827   2.768   3.154   6.358 -0.7324 -2.4118 -0.3973
  604SOL    HW2 7828   2.617   3.115   6.308 -1.0167  0.7067 -2.2880
  605SOL     OW 7829   3.472   1.970   6.309  0.0142  0.6287 -0.2359
  605SOL    HW1 7830   3.530   1.972   6.390 -1.3393  2.3560  0.7488
  605SOL    HW2 7831   3.421   1.884   6.307 -0.9527  1.1105  1.5361
  606SOL     OW 7832   1.680   0.592   6.447  0.1454 -0.0708  0.8326
  606SOL    HW1 7833   1.699   0.627   6.355 -1.6857 -2.4046 -0.5304
  606SOL    HW2 7834   1.739   0.514   6.466 -1.5821 -1.5677  0.3028
  607SOL     OW 7835   2.996   2.893   5.579 -0.0534  0.4321  0.3008
  607SOL    HW1 7836   2.954   2.896   5.488  0.2439 -1.2593  0.0612
  607SOL    HW2 7837   2.928   2.864   5.646  0.4378 -1.3687  0.0698
  608SOL     OW 7838   2.992   2.412   0.231 -0.1280  0.2515 -0.2471
  608SOL    HW1 7839   2.920   2.357   0.272 -1.4400  0.5964 -1.9722
  608SOL    HW2 7840   3.081   2.368   0.248 -0.5037  0.5126  3.0494
  609SOL     OW 7841   1.234   0.897   5.477 -0.5049 -0.1218  0.3402
  609SOL    HW1 7842   1.189   0.968   5.531 -0.2173  0.4895 -0.2040
  609SOL    HW2 7843   1.203   0.903   5.382  2.9001  2.4043 -0.8555
  610SOL     OW 7844   2.614   1.907   0.994 -0.6468 -0.1995  0.6872
  610SOL    HW1 7845   2.526   1.864   1.014 -1.2163 -0.3655 -1.7812
  610SOL    HW2 7846   2.682   1.877   1.061 -1.9138 -1.9309  1.2897
  611SOL     OW 7847   4.731   3.946   0.795 -0.1806  0.6135 -0.5482
  611SOL    HW1 7848   4.752   3.987   0.884  0.4426  0.3204 -0.5560
  611SOL    HW2 7849   4.816   3.914   0.752 -0.6931 -1.1847 -0.3004
  612SOL     OW 7850   4.948   4.688   1.561 -0.1675 -0.8985  0.1623
  612SOL    HW1 7851   4.969   4.597   1.596 -0.5223 -0.3962  1.7362
  612SOL    HW2 7852   4.894   4.739   1.628 -1.7688 -0.2389 -1.5306
  613SOL     OW 7853   2.295   1.686   6.452  0.5882 -0.0864  0.1327
  613SOL    HW1 7854   2.236   1.685   6.533 -0.9435 -1.4320 -0.9479
  613SOL    HW2 7855   2.292   1.597   6.407  0.7900  0.8501 -1.8288
  614SOL     OW 7856   3.125   5.595   5.503  0.3106 -0.1440 -0.3344
  614SOL    HW1 7857   3.133   5.695   5.500  2.9725 -0.2613 -0.0108
  614SOL    HW2 7858   3.102   5.566   5.596  2.8388  0.1234  0.4646
  615SOL     OW 7859   4.861   4.462   0.467  0.0361 -0.0955  0.7252
  615SOL    HW1 7860   4.901   4.481   0.378 -0.7190  0.5422  0.5050
  615SOL    HW2 7861   4.862   4.364   0.485 -1.0185 -0.3656 -0.5817
  616SOL     OW 7862   2.896   0.247   0.266 -0.2779 -0.0917 -0.3435
  616SOL    HW1 7863   2.878   0.185   0.190  4.5796 -0.5796 -1.4168
  616SOL    HW2 7864   2.902   0.195   0.351 -2.5021  0.0133 -0.0418
  617SOL     OW 7865   4.012   3.670   6.022 -0.0496 -0.4750  0.3242
  617SOL    HW1 7866   4.084   3.603   6.002 -1.1704 -1.4137 -0.7777
  617SOL    HW2 7867   4.040   3.760   5.988  1.1674 -0.5028  1.1629
  618SOL     OW 7868   5.299   1.205   4.350 -0.1325 -0.3472  0.2271
  618SOL    HW1 7869   5.379   1.174   4.401  1.1009  2.0960 -0.0188
  618SOL    HW2 7870   5.232   1.244   4.412  0.6343  1.1102  0.1924
  619SOL     OW 7871   3.744   5.362   0.602 -0.6448 -0.1958  0.4316
  619SOL    HW1 7872   3.799   5.419   0.663 -0.8072 -0.7018  1.0703
  619SOL    HW2 7873   3.721   5.276   0.649 -1.3465 -0.3057 -0.0981
  620SOL     OW 7874   4.809   6.139   0.183 -0.9710 -0.1547  0.4352
  620SOL    HW1 7875   4.815   6.217   0.245  0.9659 -0.0299  0.1510
  620SOL    HW2 7876   4.859   6.062   0.221 -3.0829 -1.4113  0.8413
  621SOL     OW 7877   4.552   4.023   6.038  0.0848  0.0966 -0.8749
  621SOL    HW1 7878   4.588   4.068   6.120 -1.7531 -0.2891  0.2109
  621SOL    HW2 7879   4.479   4.080   5.999 -0.2592 -0.5615 -1.1980
  622SOL     OW 7880   0.649   3.745   0.664 -0.2677  0.5669 -0.1840
  622SOL    HW1 7881   0.554   3.774   0.678 -1.0415 -1.2238 -1.3529
  622SOL    HW2 7882   0.711   3.811   0.707 -2.0969 -0.1379  4.0855
  623SOL     OW 7883   3.469   0.331   4.790 -0.0006 -0.4443 -0.3419
  623SOL    HW1 7884   3.417   0.279   4.858 -1.5802  0.2901 -0.9357
  623SOL    HW2 7885   3.448   0.428   4.799  3.8192  0.4107  1.5457
  624SOL     OW 7886   0.899   4.158   0.874  0.2922 -0.2982 -0.0195
  624SOL    HW1 7887   0.891   4.064   0.907  0.7768 -0.3343  0.0079
  624SOL    HW2 7888   0.865   4.221   0.944 -0.5123 -0.4756 -0.2421
  625SOL     OW 7889   5.523   2.190   5.373 -0.2344  0.5890  0.1796
  625SOL    HW1 7890   5.551   2.221   5.282  0.3298  2.1812  0.8570
  625SOL    HW2 7891   5.491   2.268   5.427 -3.4134 -0.6980  0.4252
  626SOL     OW 7892   5.246   5.647   0.296  0.2392 -0.0020 -0.0841
  626SOL    HW1 7893   5.169   5.623   0.355  0.4977 -0.1002  0.2138
  626SOL    HW2 7894   5.298   5.722   0.338  0.9986 -0.7339  0.2939
  627SOL     OW 7895   4.013   5.887   5.704  0.1620  0.4995  0.0203
  627SOL    HW1 7896   3.987   5.860   5.797  0.6248  1.0675  0.3237
  627SOL    HW2 7897   4.076   5.965   5.708 -0.2644  0.9063 -0.7864
  628SOL     OW 7898   6.100   5.544   6.353  0.1117  0.1841  0.3755
  628SOL    HW1 7899   6.098   5.638   6.318 -0.2491  0.5909  1.4622
  628SOL    HW2 7900   6.051   5.540   6.440  0.2127 -0.9977  0.3854
  629SOL     OW 7901   2.521   2.240   6.089  0.1345  0.8357  0.6914
  629SOL    HW1 7902   2.543   2.142   6.096 -1.6592  0.4015  0.7140
  629SOL    HW2 7903   2.594   2.294   6.132  0.9244 -0.5060  1.0967
  630SOL     OW 7904   0.974   5.945   5.191 -0.2069  0.1416  0.6087
  630SOL    HW1 7905   0.990   5.969   5.096  2.5500 -4.0181 -0.2687
  630SOL    HW2 7906   1.018   6.012   5.251  3.9948 -0.5338 -1.3795
  631SOL     OW 7907   2.833   5.115   1.080 -0.2901  0.0300  0.2508
  631SOL    HW1 7908   2.853   5.196   1.026 -0.4926 -0.3960 -0.4707
  631SOL    HW2 7909   2.811   5.143   1.174 -1.6560  0.9346 -0.2971
  632SOL     OW 7910   2.403   3.051   0.274  0.1314 -0.2992  0.4166
  632SOL    HW1 7911   2.497   3.084   0.286  0.4598 -1.0329 -0.0662
  632SOL    HW2 7912   2.367   3.082   0.186  0.2529 -0.7632  0.1972
  633SOL     OW 7913   1.950   2.131   4.952  0.0258 -0.7355  0.7707
  633SOL    HW1 7914   1.931   2.144   4.854  2.1883 -0.6225  0.3248
  633SOL    HW2 7915   1.875   2.170   5.006 -0.5048  0.5266 -0.8031
  634SOL     OW 7916   4.847   4.375   1.275  0.2080 -0.0596 -0.4597
  634SOL    HW1 7917   4.827   4.332   1.363 -0.2826 -1.1271 -1.0721
  634SOL    HW2 7918   4.912   4.450   1.288  0.2512 -0.2963  0.7852
  635SOL     OW 7919   0.610   2.184   5.827  0.2874  0.0635 -0.1685
  635SOL    HW1 7920   0.614   2.167   5.729  0.8523 -4.1128  0.4207
  635SOL    HW2 7921   0.677   2.254   5.852  0.7301  0.5825 -2.6076
  636SOL     OW 7922   5.595   6.168   6.475  0.7039  0.2860  0.7454
  636SOL    HW1 7923   5.521   6.210   6.423  0.5769 -0.0687  0.6329
  636SOL    HW2 7924   5.682   6.187   6.430  0.7759  1.3951  1.3201
  637SOL     OW 7925   1.132   2.479   5.304 -0.1128  0.0014  0.4813
  637SOL    HW1 7926   1.180   2.550   5.254  0.8712 -1.1001 -0.2104
  637SOL    HW2 7927   1.114   2.509   5.398  1.5501  0.6265  0.6274
  638SOL     OW 7928   4.445   5.503   1.994  0.4712 -0.8966 -0.1023
  638SOL    HW1 7929   4.504   5.428   1.965  1.2068 -0.5701  0.4921
  638SOL    HW2 7930   4.383   5.471   2.066  2.3960 -0.4244  1.8815
  639SOL     OW 7931   4.992   5.919   6.306 -0.0227  0.1767  0.7039
  639SOL    HW1 7932   4.988   5.820   6.299 -0.4390  0.2582 -0.5183
  639SOL    HW2 7933   5.031   5.945   6.394  0.6311 -1.0706  0.8056
  640SOL     OW 7934   1.770   0.361   5.279  0.5692 -0.2215 -0.6207
  640SOL    HW1 7935   1.770   0.357   5.179 -0.2696 -0.5542 -0.6233
  640SOL    HW2 7936   1.855   0.401   5.312  1.6223 -1.7061 -1.3980
  641SOL     OW 7937   0.207   2.272   0.190  0.3994 -0.0955  0.0459
  641SOL    HW1 7938   0.266   2.240   0.115 -1.1417  1.0044 -1.7289
  641SOL    HW2 7939   0.180   2.194   0.246  0.6035 -1.1836 -1.2984
  642SOL     OW 7940   1.137   1.134   5.956  0.4072 -0.7938 -0.0968
  642SOL    HW1 7941   1.099   1.179   5.875 -0.8006 -1.3029  0.1738
  642SOL    HW2 7942   1.136   1.197   6.033 -1.6263 -1.3448  0.3777
  643SOL     OW 7943   3.858   1.532   1.508 -0.1332 -0.1030  0.5479
  643SOL    HW1 7944   3.798   1.528   1.588 -0.2318 -1.2634  0.4372
  643SOL    HW2 7945   3.882   1.627   1.489 -2.9356  0.5838 -0.1487
  644SOL     OW 7946   0.781   5.214   0.467  0.2975  0.4052 -0.0744
  644SOL    HW1 7947   0.819   5.228   0.558  0.6357  0.5395 -0.2330
  644SOL    HW2 7948   0.710   5.144   0.470 -0.2532  0.9661  0.4387
  645SOL     OW 7949   0.040   4.342   0.828 -0.2650  0.2707  0.6334
  645SOL    HW1 7950  -0.019   4.395   0.767 -0.0465 -0.6428 -0.3960
  645SOL    HW2 7951  -0.004   4.334   0.918 -0.4354  1.9210  0.7364
  646SOL     OW 7952   3.895   5.445   0.201  0.2037 -0.1831 -0.0382
  646SOL    HW1 7953   3.832   5.406   0.268  1.0940  0.6224  1.3330
  646SOL    HW2 7954   3.903   5.544   0.218  1.9884 -0.3052 -0.0083
  647SOL     OW 7955   5.116   5.944   0.048 -0.3792 -0.6111  0.6269
  647SOL    HW1 7956   5.152   6.037   0.055 -2.0459  0.1063  0.3795
  647SOL    HW2 7957   5.057   5.925   0.126 -0.8819 -1.0548  0.1558
  648SOL     OW 7958   1.712   1.453   6.498 -0.3199 -0.1375  0.1176
  648SOL    HW1 7959   1.628   1.507   6.506 -0.7820 -0.5881 -1.3898
  648SOL    HW2 7960   1.791   1.514   6.498 -0.6197  0.2890  1.5798
  649SOL     OW 7961   0.155   5.719   6.023  0.6768  0.4778  0.3306
  649SOL    HW1 7962   0.157   5.731   6.122  1.3551  1.8530  0.1788
  649SOL    HW2 7963   0.245   5.688   5.991  0.3283 -0.4209  0.1740
  650SOL     OW 7964   4.923   2.379   5.998  0.7567  0.1910 -1.1346
  650SOL    HW1 7965   5.006   2.335   5.962  1.4814  2.3473 -2.2891
  650SOL    HW2 7966   4.883   2.437   5.927 -0.5136  0.8995  0.1152
  651SOL     OW 7967   3.715   4.143   5.542  0.4345 -0.4206  0.0117
  651SOL    HW1 7968   3.808   4.144   5.578  0.2972 -0.6833  0.3819
  651SOL    HW2 7969   3.696   4.229   5.494  0.8503 -0.3490 -0.0228
  652SOL     OW 7970   2.993   6.044   5.737  0.9021  0.2356  0.3586
  652SOL    HW1 7971   2.950   5.976   5.796 -2.3386  0.8625 -1.1003
  652SOL    HW2 7972   3.092   6.027   5.734  0.3389 -4.2268  0.2626
  653SOL     OW 7973   1.822   0.372   4.978  0.1286 -0.1805  0.3513
  653SOL    HW1 7974   1.733   0.374   4.932  0.9532  1.4631 -1.2992
  653SOL    HW2 7975   1.885   0.312   4.928  0.4906  0.1247  0.4374
  654SOL     OW 7976   2.298   2.733   5.057 -0.3169 -0.2262 -0.2073
  654SOL    HW1 7977   2.247   2.810   5.018  1.2238  0.9007 -0.1283
  654SOL    HW2 7978   2.369   2.704   4.992 -0.4409 -1.1266  0.0530
  655SOL     OW 7979   3.890   0.833   0.304  0.2997 -0.2341  0.4947
  655SOL    HW1 7980   3.950   0.911   0.285  0.4925 -0.5878 -0.4154
  655SOL    HW2 7981   3.931   0.750   0.265 -0.8789 -0.4473 -0.3434
  656SOL     OW 7982   3.103   0.250   4.217  0.4153  0.2179 -0.2922
  656SOL    HW1 7983   3.083   0.325   4.155  2.0717 -0.1073 -1.2924
  656SOL    HW2 7984   3.195   0.216   4.199  0.6355 -0.4440  1.8062
  657SOL     OW 7985   4.200   2.392   6.162  0.0545  0.2350 -0.3792
  657SOL    HW1 7986   4.243   2.419   6.076 -0.0278  0.5126 -0.3353
  657SOL    HW2 7987   4.269   2.387   6.234  0.0012  0.7735 -0.2872
  658SOL     OW 7988   0.603   3.449   4.834  1.0937  0.0803 -0.2062
  658SOL    HW1 7989   0.648   3.538   4.839  1.6539 -0.2118 -0.0048
  658SOL    HW2 7990   0.514   3.454   4.879  0.8165  0.7243 -0.8128
  659SOL     OW 7991   6.131   4.903   0.718 -0.0526  0.4665 -0.1795
  659SOL    HW1 7992   6.177   4.974   0.770  1.7264 -0.7933  0.0708
  659SOL    HW2 7993   6.119   4.933   0.624  0.3228  1.2408  0.0086
  660SOL     OW 7994   4.341   0.207   5.437 -0.8108  0.0053 -1.0981
  660SOL    HW1 7995   4.254   0.235   5.397 -0.2153  2.1962 -1.0009
  660SOL    HW2 7996   4.414   0.264   5.401  0.1488  0.1953  1.0045
  661SOL     OW 7997   2.694   4.573   1.085 -0.2453 -0.1597  0.3954
  661SOL    HW1 7998   2.720   4.479   1.062 -2.4524 -0.7536  0.0149
  661SOL    HW2 7999   2.758   4.610   1.152  2.4928 -0.7822 -1.6907
  662SOL     OW 8000   0.677   0.589   5.813 -0.1437  0.0688 -0.5339
  662SOL    HW1 8001   0.683   0.494   5.843  1.8238  0.3989  0.2854
  662SOL    HW2 8002   0.756   0.611   5.755  0.0987  1.5068  0.2744
  663SOL     OW 8003   0.974   2.066   6.336  0.7827 -0.1337  0.1486
  663SOL    HW1 8004   0.899   2.114   6.291  0.7309 -0.8273 -0.5227
  663SOL    HW2 8005   1.059   2.116   6.321  0.4133  0.9192  1.3175
  664SOL     OW 8006   2.082   1.276   4.959  0.2211 -0.1882 -0.1120
  664SOL    HW1 8007   1.988   1.275   4.925  0.5481 -1.7534 -1.0504
  664SOL    HW2 8008   2.118   1.369   4.954 -0.5482  0.0596 -1.8159
  665SOL     OW 8009   0.578   1.750   0.439  0.3867 -0.5335  0.0959
  665SOL    HW1 8010   0.665   1.798   0.456 -0.2659  0.7796 -0.1570
  665SOL    HW2 8011   0.504   1.801   0.483 -0.5066 -0.5713 -1.3283
  666SOL     OW 8012   5.890   1.170   6.304  0.1531 -0.4949 -0.3228
  666SOL    HW1 8013   5.918   1.138   6.214 -0.6408 -1.4581 -0.2454
  666SOL    HW2 8014   5.794   1.196   6.303 -0.0186 -1.0457  0.3615
  667SOL     OW 8015   3.837   0.426   5.922 -1.2948 -0.3929 -0.1802
  667SOL    HW1 8016   3.794   0.460   6.006  1.7213  0.4416  1.1801
  667SOL    HW2 8017   3.861   0.503   5.863 -0.2747 -0.6606 -0.1396
  668SOL     OW 8018   5.867   5.092   5.841  0.2498 -0.1047 -0.0425
  668SOL    HW1 8019   5.798   5.161   5.818  0.6499  0.4017  0.2379
  668SOL    HW2 8020   5.954   5.116   5.798  0.3762 -0.4758  0.0029
  669SOL     OW 8021   3.160   1.575   5.775  0.9951 -0.5849 -0.5108
  669SOL    HW1 8022   3.100   1.548   5.700  0.6840  2.1418 -1.3524
  669SOL    HW2 8023   3.234   1.508   5.785  0.9185 -1.1438 -3.1198
  670SOL     OW 8024   2.854   3.807   1.804  0.0179 -0.4633 -0.2566
  670SOL    HW1 8025   2.834   3.875   1.734 -3.2743 -1.1418 -0.1652
  670SOL    HW2 8026   2.769   3.762   1.831  1.7261 -2.9197  1.4463
  671SOL     OW 8027   2.767   3.914   6.330  0.0736  0.1801 -0.1734
  671SOL    HW1 8028   2.851   3.860   6.326 -0.7597 -1.4477  2.1621
  671SOL    HW2 8029   2.768   3.970   6.413  0.2637  2.8269 -1.8132
  672SOL     OW 8030   2.538   1.271   5.635 -0.3311  0.1905  0.3942
  672SOL    HW1 8031   2.544   1.280   5.734  1.1338 -2.1934  0.6050
  672SOL    HW2 8032   2.481   1.192   5.612  0.2481  0.0486 -0.6229
  673SOL     OW 8033   3.957   5.835   0.721 -0.3445  0.0959  0.2896
  673SOL    HW1 8034   3.919   5.881   0.801  0.7765  2.5212 -0.4536
  673SOL    HW2 8035   4.052   5.810   0.739 -0.1485  0.4732 -0.1677
  674SOL     OW 8036   3.139   4.676   0.088 -0.1359 -0.2957  0.8501
  674SOL    HW1 8037   3.067   4.620   0.129 -1.2024 -0.1713 -0.7839
  674SOL    HW2 8038   3.126   4.771   0.116  0.8213 -0.5957  2.4479
  675SOL     OW 8039   0.067   5.448   5.824  0.1705 -0.5479  0.8005
  675SOL    HW1 8040   0.107   5.485   5.740 -0.7953 -2.4029 -0.5635
  675SOL    HW2 8041   0.093   5.506   5.901  0.7127  1.5130 -0.8077
  676SOL     OW 8042   1.155   5.419   0.148 -0.5190 -0.5534  0.1341
  676SOL    HW1 8043   1.164   5.457   0.056 -0.4638  0.5032  0.5554
  676SOL    HW2 8044   1.069   5.449   0.189 -0.8120 -1.4880  0.2243
  677SOL     OW 8045   0.347   1.697   0.665 -0.6303  0.5702  0.1797
  677SOL    HW1 8046   0.262   1.747   0.679  0.5001  2.5266  0.4557
  677SOL    HW2 8047   0.396   1.689   0.752 -0.0676  0.3313 -0.1542
  678SOL     OW 8048   2.482   4.962   0.557  0.1644  0.2110  0.0816
  678SOL    HW1 8049   2.421   4.933   0.630 -1.7692  0.5165 -1.3308
  678SOL    HW2 8050   2.576   4.967   0.592 -0.6513  0.2348  2.4676
  679SOL     OW 8051   0.920   5.263   5.689 -0.2932  0.5426 -0.2780
  679SOL    HW1 8052   0.916   5.363   5.693 -0.0444  0.6000 -1.1921
  679SOL    HW2 8053   0.829   5.227   5.670 -0.4188  0.5824  0.2431
  680SOL     OW 8054   2.056   0.158   6.171  0.1624  0.3247  0.0862
  680SOL    HW1 8055   2.153   0.182   6.169  1.0919 -2.9799 -2.5827
  680SOL    HW2 8056   2.005   0.219   6.110  0.6989  1.3858  0.6655
  681SOL     OW 8057   2.454   5.551   0.388  0.0478  0.0792  0.0650
  681SOL    HW1 8058   2.421   5.491   0.316 -1.0120  1.4658 -0.6555
  681SOL    HW2 8059   2.554   5.545   0.394 -0.0491 -1.9784  0.2773
  682SOL     OW 8060   1.892   6.344   4.797  0.3712  0.6926 -0.6041
  682SOL    HW1 8061   1.815   6.408   4.796  1.6374  2.4455  2.0760
  682SOL    HW2 8062   1.876   6.275   4.868  0.5866  0.0983 -1.1259
  683SOL     OW 8063   2.877   3.744   0.674 -0.3817  0.1481  0.7206
  683SOL    HW1 8064   2.894   3.696   0.761 -1.1582  0.8454  1.2666
  683SOL    HW2 8065   2.792   3.795   0.680  0.9891  2.5872  0.5972
  684SOL     OW 8066   5.948   6.124   5.738 -0.0102  0.2980  0.6139
  684SOL    HW1 8067   6.044   6.116   5.766  0.3696  0.5507 -0.5495
  684SOL    HW2 8068   5.944   6.157   5.644 -1.2829  1.7140  1.1329
  685SOL     OW 8069   2.564   4.887   5.438  0.0479 -0.1011  0.6319
  685SOL    HW1 8070   2.572   4.974   5.487  0.3166 -0.3006  0.9499
  685SOL    HW2 8071   2.493   4.831   5.481 -0.2518  0.0395  0.3129
  686SOL     OW 8072   2.855   2.039   5.252  0.9215  0.6196  0.1069
  686SOL    HW1 8073   2.855   2.130   5.211 -0.7476  0.6041  0.0119
  686SOL    HW2 8074   2.818   2.045   5.345  0.1805 -0.0426 -0.1380
  687SOL     OW 8075   1.012   3.412   0.427 -0.3710 -0.0032  0.3095
  687SOL    HW1 8076   1.001   3.346   0.502 -3.9845 -0.0865 -0.1007
  687SOL    HW2 8077   1.054   3.368   0.349  1.9190 -0.3638  1.6624
  688SOL     OW 8078   0.721   4.634   5.576  0.3524 -0.3902  0.2504
  688SOL    HW1 8079   0.639   4.580   5.596  0.3247  0.2228  1.9269
  688SOL    HW2 8080   0.789   4.575   5.531 -0.9944 -0.8930 -1.2237
  689SOL     OW 8081   4.009   4.602   0.197 -0.7131 -0.0393 -0.1688
  689SOL    HW1 8082   3.991   4.595   0.098  0.3480 -0.5896 -0.3321
  689SOL    HW2 8083   4.078   4.672   0.214 -1.0066  0.1641  0.2070
  690SOL     OW 8084   3.130   5.543   1.590  0.4040  0.1742 -0.1942
  690SOL    HW1 8085   3.031   5.550   1.576  0.0327 -2.1390  0.7747
  690SOL    HW2 8086   3.147   5.499   1.678  2.3311  0.9525 -0.1456
  691SOL     OW 8087   5.878   5.769   6.468  0.1219 -0.0900  0.8589
  691SOL    HW1 8088   5.850   5.738   6.559 -1.1219  1.6387  1.1178
  691SOL    HW2 8089   5.800   5.809   6.421  0.3551 -2.2186 -1.6133
  692SOL     OW 8090   6.117   0.861   6.318 -0.5860 -0.3642 -0.2690
  692SOL    HW1 8091   6.191   0.927   6.308 -0.5565 -0.5615 -1.5589
  692SOL    HW2 8092   6.029   0.905   6.298 -0.7941 -0.2265  0.8776
  693SOL     OW 8093   2.966   5.903   1.433 -0.0619 -0.1933 -0.3652
  693SOL    HW1 8094   3.060   5.907   1.467 -0.8281  1.8758  1.7460
  693SOL    HW2 8095   2.932   5.995   1.417 -1.5381 -0.9315 -1.7558
  694SOL     OW 8096   3.034   1.322   5.374 -0.7871 -0.2400 -0.7288
  694SOL    HW1 8097   3.017   1.270   5.458 -0.2083  0.4627 -0.1489
  694SOL    HW2 8098   3.133   1.327   5.358 -0.7493  1.3957 -0.2611
  695SOL     OW 8099   5.856   3.513   0.336  0.0543 -0.4142  0.4617
  695SOL    HW1 8100   5.764   3.522   0.298  0.0244 -1.0412  0.3720
  695SOL    HW2 8101   5.914   3.463   0.272  0.5392  0.2378  0.3901
  696SOL     OW 8102   4.668   0.817   6.089 -0.4309  0.0717 -0.3252
  696SOL    HW1 8103   4.663   0.890   6.021 -1.3483 -0.1757 -0.5472
  696SOL    HW2 8104   4.760   0.813   6.128 -0.2321  1.0130 -0.6697
  697SOL     OW 8105   5.765   3.060   1.656  0.5384 -0.1423 -0.1928
  697SOL    HW1 8106   5.835   3.077   1.725  0.5980 -1.7597  0.1621
  697SOL    HW2 8107   5.674   3.073   1.696  0.5854 -0.2594 -0.0520
  698SOL     OW 8108   3.412   2.954   0.770 -0.0002  0.0395 -0.3202
  698SOL    HW1 8109   3.413   2.904   0.856 -1.2179 -1.9017 -1.3534
  698SOL    HW2 8110   3.503   2.991   0.751  0.6699 -0.8560  1.0406
  699SOL     OW 8111   2.647   3.200   1.201  0.4530 -0.0406  0.0248
  699SOL    HW1 8112   2.726   3.235   1.251 -0.0842  0.8896  0.2480
  699SOL    HW2 8113   2.652   3.100   1.197  2.8977  0.0383 -2.0018
  700SOL     OW 8114   6.334   5.054   4.894 -0.2294 -0.4409  0.7633
  700SOL    HW1 8115   6.366   5.106   4.815 -1.6596 -3.0379 -1.6754
  700SOL    HW2 8116   6.250   5.095   4.929 -1.1141 -0.8076 -0.8493
  701SOL     OW 8117   2.176   2.865   6.054  0.2468  0.4205  0.4240
  701SOL    HW1 8118   2.095   2.806   6.053  0.6012 -0.0758  0.7038
  701SOL    HW2 8119   2.178   2.920   5.971  0.3426 -0.5558 -0.2296
  702SOL     OW 8120   0.684   4.830   0.823 -0.4410 -0.3517 -0.3183
  702SOL    HW1 8121   0.593   4.862   0.796 -1.5267 -1.3971  1.8502
  702SOL    HW2 8122   0.704   4.860   0.916  1.1124 -0.8343 -0.4595
  703SOL     OW 8123   5.229   0.268   6.447  0.3539  0.2259 -0.0663
  703SOL    HW1 8124   5.194   0.293   6.357 -1.0688 -1.4477 -0.0202
  703SOL    HW2 8125   5.171   0.309   6.517 -0.3933 -0.9820  0.0351
  704SOL     OW 8126   0.974   0.043   5.324 -0.2202  0.0124 -0.1390
  704SOL    HW1 8127   0.966   0.133   5.280  0.0412 -0.7124 -1.7305
  704SOL    HW2 8128   0.938   0.048   5.418  0.5483  1.9697  0.0970
  705SOL     OW 8129   0.590   1.400   6.204  0.2313  0.0974 -0.3361
  705SOL    HW1 8130   0.605   1.477   6.266 -0.8643 -0.2514  0.3964
  705SOL    HW2 8131   0.577   1.316   6.257 -0.0866 -0.3206 -1.0593
  706SOL     OW 8132   1.532   5.276   5.765 -0.2494  0.1234 -0.6314
  706SOL    HW1 8133   1.482   5.360   5.786  2.0335  1.8824 -1.8023
  706SOL    HW2 8134   1.485   5.227   5.692 -0.6126  1.3802 -1.2737
  707SOL     OW 8135   3.518   1.087   5.369  0.1668 -1.0890  0.0452
  707SOL    HW1 8136   3.457   1.033   5.311  0.5296 -1.0817 -0.3521
  707SOL    HW2 8137   3.586   1.133   5.311 -0.5503  0.3301  0.2988
  708SOL     OW 8138   5.345   4.686   1.276  0.4501  0.0072  0.1145
  708SOL    HW1 8139   5.350   4.653   1.370 -2.4802 -0.5796  0.1746
  708SOL    HW2 8140   5.349   4.608   1.213  1.7065  0.3398 -0.2508
  709SOL     OW 8141   0.202   5.827   6.256 -0.5192  0.1581 -0.5928
  709SOL    HW1 8142   0.160   5.917   6.248 -1.2405 -0.1647 -0.5139
  709SOL    HW2 8143   0.250   5.820   6.344 -1.6383 -0.0008  0.0352
  710SOL     OW 8144   0.969   3.781   0.109  0.3544 -0.3111 -0.5013
  710SOL    HW1 8145   0.969   3.837   0.026 -2.4190  1.0127  0.2640
  710SOL    HW2 8146   0.983   3.840   0.188 -3.1750 -0.4166  0.3673
  711SOL     OW 8147   3.525   5.877   5.796  0.6561 -0.4249  0.2637
  711SOL    HW1 8148   3.553   5.923   5.881 -2.4181  1.1593  0.5604
  711SOL    HW2 8149   3.551   5.933   5.718  3.6607 -1.9753  0.0315
  712SOL     OW 8150   4.641   3.399   6.237  0.0206 -0.1866  0.5551
  712SOL    HW1 8151   4.648   3.374   6.333  2.5181 -0.0298  0.4858
  712SOL    HW2 8152   4.595   3.488   6.229 -0.9264 -0.5704  1.5093
  713SOL     OW 8153   3.271   1.066   3.761  0.0066  0.0769  0.0516
  713SOL    HW1 8154   3.293   0.976   3.799 -0.9216 -0.3384 -0.3570
  713SOL    HW2 8155   3.320   1.078   3.675  1.2436  0.5609  0.8076
  714SOL     OW 8156   1.046   0.116   0.135 -0.7627  0.4122  0.2167
  714SOL    HW1 8157   1.140   0.142   0.156  0.1160 -1.2451 -1.4092
  714SOL    HW2 8158   0.993   0.109   0.220  0.0870  2.9281  1.0459
  715SOL     OW 8159   1.653   0.442   1.210  0.5401  0.0215  0.1280
  715SOL    HW1 8160   1.567   0.493   1.207  0.3428 -0.3505 -1.3612
  715SOL    HW2 8161   1.637   0.353   1.254 -0.0218 -0.3236 -0.7386
  716SOL     OW 8162   5.647   3.742   0.456  0.6822  0.4888 -0.3943
  716SOL    HW1 8163   5.603   3.808   0.395  2.1308  1.4476 -0.4347
  716SOL    HW2 8164   5.707   3.790   0.520 -0.1329 -0.5780  1.2389
  717SOL     OW 8165   3.001   6.025   0.420 -0.0266 -0.1863  0.3715
  717SOL    HW1 8166   2.945   6.072   0.353 -0.6592 -2.0316 -0.4681
  717SOL    HW2 8167   2.942   5.979   0.487  0.5732  0.6115  1.4891
  718SOL     OW 8168   4.204   5.517   5.820  0.6704  0.2272  0.0994
  718SOL    HW1 8169   4.226   5.498   5.724  0.6989  2.1393 -0.3023
  718SOL    HW2 8170   4.106   5.502   5.835  0.7721 -0.6766 -0.0445
  719SOL     OW 8171   4.150   0.943   0.021 -0.1195  0.6990 -0.5420
  719SOL    HW1 8172   4.175   1.010  -0.048  0.2563  0.7873 -0.3227
  719SOL    HW2 8173   4.081   0.983   0.082  0.6316  1.1567  0.0286
  720SOL     OW 8174   1.498   0.957   0.519  0.6588  0.1810  0.1566
  720SOL    HW1 8175   1.419   0.974   0.460  2.2112  0.5627 -1.9310
  720SOL    HW2 8176   1.535   1.045   0.551 -0.5094 -0.0368  2.2592
  721SOL     OW 8177   1.592   0.464   0.684 -0.4008 -0.6133 -0.0029
  721SOL    HW1 8178   1.558   0.557   0.671  0.2428 -0.3185  0.3770
  721SOL    HW2 8179   1.576   0.410   0.601  1.5044  0.5502 -1.1777
  722SOL     OW 8180   2.386   2.066   0.293 -0.3471 -0.4081  0.1150
  722SOL    HW1 8181   2.383   2.161   0.325  0.0024 -0.3825  0.0794
  722SOL    HW2 8182   2.404   2.006   0.371 -0.3842 -0.4292  0.1075
  723SOL     OW 8183   3.686   4.275   4.936  0.2551 -0.2116 -0.3043
  723SOL    HW1 8184   3.676   4.189   4.987  0.1402  0.9189  1.6624
  723SOL    HW2 8185   3.736   4.257   4.852  0.1423 -2.2328  0.0007
  724SOL     OW 8186   4.920   5.328   6.434 -0.1342  0.1962 -0.0237
  724SOL    HW1 8187   4.974   5.365   6.359 -1.2017  1.1779 -0.3411
  724SOL    HW2 8188   4.969   5.342   6.520  0.9532 -0.6599 -0.4819
  725SOL     OW 8189   6.037   4.138   5.824  0.3257 -0.3490  0.1610
  725SOL    HW1 8190   6.025   4.171   5.918  0.7652 -1.6973  0.7112
  725SOL    HW2 8191   6.103   4.063   5.823  3.2913  2.0422 -1.7482
  726SOL     OW 8192   4.153   2.474   1.328 -0.4706 -0.0385 -0.5909
  726SOL    HW1 8193   4.140   2.543   1.399 -0.8975 -0.3034 -0.3989
  726SOL    HW2 8194   4.103   2.391   1.355 -2.3194  0.5043 -2.1118
  727SOL     OW 8195   0.249   5.170   6.159 -0.2238 -0.5508 -0.1961
  727SOL    HW1 8196   0.266   5.153   6.062 -1.1067 -1.7595 -0.1653
  727SOL    HW2 8197   0.239   5.268   6.175  0.2150 -0.3185 -1.2709
  728SOL     OW 8198   6.013   4.856   5.443 -0.0978  0.2656 -0.0975
  728SOL    HW1 8199   6.017   4.938   5.499 -0.5511  0.9517 -1.0417
  728SOL    HW2 8200   5.926   4.853   5.394  1.0219  0.7296 -2.2745
  729SOL     OW 8201   5.162   4.932   0.889 -0.5031 -0.3497 -0.0902
  729SOL    HW1 8202   5.215   4.905   0.969 -0.3950 -0.4217 -0.1862
  729SOL    HW2 8203   5.125   4.851   0.844  1.2473 -0.5050 -1.3745
  730SOL     OW 8204   1.478   4.965   4.456  0.3689 -0.1853 -0.3556
  730SOL    HW1 8205   1.488   4.974   4.357  0.7751 -2.2993 -0.5497
  730SOL    HW2 8206   1.541   5.028   4.502 -0.0386  1.0334 -1.3959
  731SOL     OW 8207   5.546   5.323   6.262 -0.4113 -0.7268 -0.1811
  731SOL    HW1 8208   5.571   5.341   6.357 -0.8804 -2.0691  0.2148
  731SOL    HW2 8209   5.624   5.343   6.203  0.2617 -0.9650  0.6092
  732SOL     OW 8210   4.382   2.307   5.408 -0.1660  0.0974 -0.9457
  732SOL    HW1 8211   4.447   2.286   5.335  0.2705 -0.1962 -0.4821
  732SOL    HW2 8212   4.294   2.266   5.387  0.4397 -1.5417 -0.4548
  733SOL     OW 8213   0.355   3.576   5.521  0.2533  0.4135  0.3714
  733SOL    HW1 8214   0.354   3.502   5.453  1.5793 -0.8474  1.6549
  733SOL    HW2 8215   0.349   3.664   5.475 -1.7321 -0.4604 -1.2000
  734SOL     OW 8216   1.598   1.657   5.625  0.5966 -0.3267  0.0062
  734SOL    HW1 8217   1.515   1.602   5.613 -1.1122  1.6337  1.8893
  734SOL    HW2 8218   1.575   1.754   5.611  1.7986  0.5836  3.3947
  735SOL     OW 8219   1.550   1.935   0.474  0.0435 -0.1077 -0.1776
  735SOL    HW1 8220   1.525   2.019   0.522 -1.7464 -0.1988 -0.8543
  735SOL    HW2 8221   1.496   1.859   0.510 -0.0580 -0.5026 -1.1412
  736SOL     OW 8222   0.020   2.957   6.343  0.1791  0.1341 -0.9667
  736SOL    HW1 8223   0.112   2.977   6.308  0.7966 -0.8336  0.0301
  736SOL    HW2 8224  -0.027   2.897   6.279  0.3910  0.3154 -1.2967
  737SOL     OW 8225   2.799   4.899   0.888  0.4025 -0.2731  0.5846
  737SOL    HW1 8226   2.711   4.854   0.901  0.2773 -1.2386 -2.8761
  737SOL    HW2 8227   2.807   4.975   0.953 -2.4374 -0.8772  1.7759
  738SOL     OW 8228   6.048   3.209   6.349 -0.4394 -0.0800  0.2929
  738SOL    HW1 8229   5.988   3.152   6.293 -0.6541  0.8336 -0.4136
  738SOL    HW2 8230   6.097   3.150   6.413 -0.1055 -1.1598 -0.9073
  739SOL     OW 8231   5.325   5.557   0.858 -0.2313  0.3280  0.2649
  739SOL    HW1 8232   5.234   5.531   0.825  0.6026  0.5911 -2.4906
  739SOL    HW2 8233   5.391   5.549   0.783  1.6592  2.0287  1.6401
  740SOL     OW 8234   5.596   5.938   5.793  0.0251  0.4040  0.0002
  740SOL    HW1 8235   5.602   5.999   5.873 -0.4443  0.4258  0.0170
  740SOL    HW2 8236   5.552   5.985   5.718  0.2138  0.2862 -0.1869
  741SOL     OW 8237   0.072   5.859   0.192 -0.5097  0.3068  0.4015
  741SOL    HW1 8238   0.094   5.951   0.225  1.4615 -0.2206  0.6835
  741SOL    HW2 8239  -0.019   5.833   0.223 -0.7906  1.8573  0.9613
  742SOL     OW 8240   1.449   2.509   5.370 -0.1128 -0.1325  0.4565
  742SOL    HW1 8241   1.512   2.466   5.307 -1.8710 -2.4566  0.1596
  742SOL    HW2 8242   1.385   2.567   5.320  0.8197  1.0590  0.5972
  743SOL     OW 8243   3.098   3.152   5.301 -0.4359 -0.0032 -0.1429
  743SOL    HW1 8244   3.110   3.247   5.271  0.1015 -0.1628 -0.4279
  743SOL    HW2 8245   3.126   3.144   5.397 -0.7036  0.1700 -0.0452
  744SOL     OW 8246   4.849   2.487   0.206 -0.0895  0.1241 -0.2445
  744SOL    HW1 8247   4.897   2.470   0.292 -0.1688 -1.7431 -0.5181
  744SOL    HW2 8248   4.916   2.508   0.135  0.5449 -3.0276 -0.7540
  745SOL     OW 8249   2.883   0.955   1.581  0.4035  0.6647 -0.0098
  745SOL    HW1 8250   2.899   1.049   1.552  2.6597 -0.1234 -1.5923
  745SOL    HW2 8251   2.828   0.954   1.664  1.0568  3.4036  0.5348
  746SOL     OW 8252   0.228   1.168   0.224  0.0837 -0.1073 -0.0681
  746SOL    HW1 8253   0.129   1.174   0.236 -0.3864 -2.1486 -2.3283
  746SOL    HW2 8254   0.267   1.260   0.228 -1.7655  0.6888  1.4532
  747SOL     OW 8255   0.533   3.680   1.346 -0.3971 -0.1242  0.3104
  747SOL    HW1 8256   0.452   3.736   1.331 -1.0128 -0.8411  0.8699
  747SOL    HW2 8257   0.521   3.626   1.429  1.5191  1.3003  1.6148
  748SOL     OW 8258   3.462   2.469   0.181  0.1290  0.2198  0.0748
  748SOL    HW1 8259   3.493   2.424   0.097 -1.1100 -0.1163 -0.2259
  748SOL    HW2 8260   3.541   2.493   0.237  0.9039 -0.9773 -0.4571
  749SOL     OW 8261   0.642   5.826   1.408 -0.1697 -0.0087 -0.8145
  749SOL    HW1 8262   0.668   5.919   1.386  0.1159  0.0343 -0.3072
  749SOL    HW2 8263   0.713   5.783   1.464 -0.7437 -0.2083 -0.2285
  750SOL     OW 8264   1.151   1.843   6.306 -0.5143  0.8867  0.2816
  750SOL    HW1 8265   1.096   1.926   6.302 -3.5446 -1.0012 -1.3429
  750SOL    HW2 8266   1.112   1.774   6.244  2.4876 -1.4114  0.6958
  751SOL     OW 8267   3.261   1.862   0.385 -0.5410  0.2041  0.4057
  751SOL    HW1 8268   3.335   1.921   0.353  2.2478 -2.4352  1.4334
  751SOL    HW2 8269   3.211   1.825   0.307 -1.0738  2.2849 -0.3062
  752SOL     OW 8270   2.156   5.226   0.328 -0.5068 -0.0949 -0.1591
  752SOL    HW1 8271   2.065   5.264   0.344 -0.4495  0.3335 -0.8276
  752SOL    HW2 8272   2.147   5.132   0.295 -0.6309 -1.0706  2.3871
  753SOL     OW 8273   2.604   5.841   1.545 -0.1944  0.4485  0.1093
  753SOL    HW1 8274   2.668   5.783   1.595 -0.8696 -0.2811  0.1502
  753SOL    HW2 8275   2.621   5.937   1.567  1.7319  0.3885 -0.8773
  754SOL     OW 8276   6.325   2.026   6.489  0.3529 -0.1941  0.0962
  754SOL    HW1 8277   6.403   1.979   6.532  0.5397  0.3018  0.3017
  754SOL    HW2 8278   6.296   1.974   6.409 -0.9417 -1.9490  1.6012
  755SOL     OW 8279   5.798   0.022   5.272  0.0094  0.0342 -0.6195
  755SOL    HW1 8280   5.838  -0.056   5.320  0.2022 -0.2346 -1.2001
  755SOL    HW2 8281   5.738  -0.012   5.199 -1.0651  0.4257  0.0550
  756SOL     OW 8282   1.357   5.232   6.148  0.3943 -0.1352  0.4647
  756SOL    HW1 8283   1.361   5.332   6.143  0.9816 -0.2234 -1.3057
  756SOL    HW2 8284   1.362   5.203   6.244 -0.0431  1.5308  1.0176
  757SOL     OW 8285   6.274   5.102   0.859  0.5771  0.6269 -0.6481
  757SOL    HW1 8286   6.239   5.195   0.866 -0.7805  0.1388 -0.5824
  757SOL    HW2 8287   6.347   5.089   0.925 -0.2901  1.1929  0.4513
  758SOL     OW 8288   1.112   1.475   5.948  0.1984 -0.1365 -0.3752
  758SOL    HW1 8289   1.102   1.398   5.886 -1.6523  0.3089 -0.6865
  758SOL    HW2 8290   1.027   1.528   5.950 -0.4842 -1.0043  3.6936
  759SOL     OW 8291   0.278   3.427   0.749  0.2098  0.4806  0.1807
  759SOL    HW1 8292   0.377   3.439   0.737  0.5599 -0.9904  1.3013
  759SOL    HW2 8293   0.241   3.373   0.673  0.5527 -0.2383  0.5172
  760SOL     OW 8294   2.904   0.289   5.425 -0.4985 -0.2816  0.5003
  760SOL    HW1 8295   2.964   0.366   5.401 -0.6256 -0.6798 -1.2588
  760SOL    HW2 8296   2.919   0.263   5.520  2.4855 -0.6818  0.0142
  761SOL     OW 8297   3.365   3.573   6.506 -0.2045  0.2281 -0.7742
  761SOL    HW1 8298   3.302   3.500   6.531  0.1313 -0.0033 -0.5918
  761SOL    HW2 8299   3.313   3.654   6.477 -0.5778 -0.0179 -0.7944
  762SOL     OW 8300   0.982   2.868   0.142  0.0927  0.0133  0.9296
  762SOL    HW1 8301   1.034   2.783   0.138  0.4000  0.2409 -0.2385
  762SOL    HW2 8302   1.039   2.939   0.184  1.4246  0.6996 -1.8402
  763SOL     OW 8303   2.277   3.805   0.829  0.1482  0.2967  0.3187
  763SOL    HW1 8304   2.374   3.826   0.821 -0.1987  1.7586 -0.4097
  763SOL    HW2 8305   2.230   3.833   0.745 -1.2000  1.4168  1.3991
  764SOL     OW 8306   2.997   1.569   5.540 -0.6313  0.2881 -0.1212
  764SOL    HW1 8307   2.986   1.648   5.479  5.5512  1.7419 -0.0017
  764SOL    HW2 8308   3.014   1.487   5.486 -1.3962  0.2200 -0.2679
  765SOL     OW 8309   5.732   4.935   1.863 -0.4019 -0.1324  0.2349
  765SOL    HW1 8310   5.761   4.872   1.791  2.8185  2.1319 -0.7011
  765SOL    HW2 8311   5.758   4.897   1.952  1.2548 -0.3550 -0.2939
  766SOL     OW 8312   3.627   0.344   5.555 -0.1865 -0.3327  0.3881
  766SOL    HW1 8313   3.639   0.443   5.550 -0.1482 -0.4029 -1.4447
  766SOL    HW2 8314   3.632   0.315   5.650  1.1319  1.2484  0.8463
  767SOL     OW 8315   3.697   5.693   0.878 -0.8673  0.6682 -0.1204
  767SOL    HW1 8316   3.762   5.617   0.882 -0.7344  0.6491 -1.8130
  767SOL    HW2 8317   3.743   5.778   0.903 -0.2603  0.5970 -0.9558
  768SOL     OW 8318   0.946   0.916   6.313 -0.5283 -0.0635 -0.1106
  768SOL    HW1 8319   0.922   1.007   6.348  2.7113 -0.0960  2.7172
  768SOL    HW2 8320   1.017   0.925   6.244  1.7337 -0.3757  2.0317
  769SOL     OW 8321   1.736   3.810   6.221  0.6321  0.0972  0.7406
  769SOL    HW1 8322   1.808   3.813   6.152 -0.7191 -0.9620 -0.7770
  769SOL    HW2 8323   1.716   3.902   6.253  0.5658  0.7398 -1.0610
  770SOL     OW 8324   2.690   2.577   0.866  0.1158  0.0100  0.2968
  770SOL    HW1 8325   2.626   2.533   0.930 -0.5911  0.1278 -0.3096
  770SOL    HW2 8326   2.767   2.615   0.917 -0.9257  0.9848  1.2066
  771SOL     OW 8327   2.838   0.783   0.542  0.0100 -0.2359 -0.8177
  771SOL    HW1 8328   2.930   0.766   0.506  0.1203  0.0191 -0.6628
  771SOL    HW2 8329   2.839   0.773   0.641  0.1684  1.0222 -0.6783
  772SOL     OW 8330   1.544   1.054   6.202  0.3510  0.0059  0.3244
  772SOL    HW1 8331   1.634   1.094   6.184  0.0798  1.1537  1.3736
  772SOL    HW2 8332   1.548   0.955   6.189  1.1034  0.2913 -2.1652
  773SOL     OW 8333   0.056   2.277   1.194  0.3155  0.6081 -0.0873
  773SOL    HW1 8334   0.067   2.293   1.292  0.2448  0.6312 -0.0825
  773SOL    HW2 8335   0.145   2.269   1.150  0.3601 -0.8150  0.2055
  774SOL     OW 8336   2.062   0.351   5.361  0.4486  0.1664  0.1652
  774SOL    HW1 8337   2.022   0.262   5.382 -0.1421  0.7252  1.5074
  774SOL    HW2 8338   2.123   0.342   5.283  1.0809 -1.5978  0.8088
  775SOL     OW 8339   0.589   2.322   5.204  0.0930  0.1843  0.0521
  775SOL    HW1 8340   0.618   2.350   5.296 -1.9058  0.2123  0.7245
  775SOL    HW2 8341   0.582   2.223   5.200 -2.1772  0.2670  0.7543
  776SOL     OW 8342   4.959   5.465   5.866  0.0418 -0.3386  0.2466
  776SOL    HW1 8343   4.937   5.446   5.962  0.4482 -0.2964  0.3508
  776SOL    HW2 8344   5.019   5.545   5.861 -2.1514  1.3725 -0.2141
  777SOL     OW 8345   6.145   0.295   6.097  0.0051 -0.0273  0.1823
  777SOL    HW1 8346   6.233   0.341   6.107 -0.1074  0.6129 -1.4238
  777SOL    HW2 8347   6.154   0.199   6.123  1.4120 -0.1815 -0.7687
  778SOL     OW 8348   1.864   5.715   0.094  0.4831  0.5502  0.0652
  778SOL    HW1 8349   1.845   5.718  -0.004  2.7513  2.2323 -0.4129
  778SOL    HW2 8350   1.921   5.636   0.115 -2.2140 -1.3752  0.5737
  779SOL     OW 8351   3.333   4.769   1.904 -0.2214 -0.4537  0.1036
  779SOL    HW1 8352   3.327   4.672   1.929 -3.1391 -0.1764  0.9026
  779SOL    HW2 8353   3.419   4.786   1.856  2.0671 -2.7004  2.9976
  780SOL     OW 8354   2.090   5.214   1.039 -0.3125 -0.2976 -0.1674
  780SOL    HW1 8355   2.067   5.230   0.943 -0.6006  0.0601 -0.0403
  780SOL    HW2 8356   2.040   5.134   1.072  2.4062 -2.6564 -1.2816
  781SOL     OW 8357   2.699   0.954   1.348 -0.5869  0.2143 -0.0828
  781SOL    HW1 8358   2.648   0.890   1.405  1.2710 -0.5267  0.8380
  781SOL    HW2 8359   2.656   1.044   1.353 -1.5546 -0.2771  0.9968
  782SOL     OW 8360   0.514   5.220   0.781  0.0997 -0.0541  0.6500
  782SOL    HW1 8361   0.539   5.261   0.693 -1.8178  1.3159  0.6891
  782SOL    HW2 8362   0.414   5.220   0.791  0.2827  0.5004  3.1232
  783SOL     OW 8363   4.540   2.926   0.350 -0.2914  0.2863  0.1726
  783SOL    HW1 8364   4.588   2.915   0.263  1.3104  0.5637  0.9908
  783SOL    HW2 8365   4.448   2.963   0.332 -0.2748 -0.3554 -1.4388
  784SOL     OW 8366   1.223   2.193   6.396 -0.3344  1.1641  0.0377
  784SOL    HW1 8367   1.281   2.177   6.316  0.9730  0.6773  1.0421
  784SOL    HW2 8368   1.278   2.234   6.469 -0.0734 -3.0813  2.5199
  785SOL     OW 8369   3.630   0.048   5.068  0.3498  0.1495  0.0187
  785SOL    HW1 8370   3.698   0.039   5.141  0.5501 -0.7859 -0.2701
  785SOL    HW2 8371   3.677   0.049   4.980  0.1160  1.3470 -0.1072
  786SOL     OW 8372   0.776   1.484   6.055  0.2437 -0.3931  0.1288
  786SOL    HW1 8373   0.777   1.569   6.002  0.8136 -0.5812 -0.1787
  786SOL    HW2 8374   0.690   1.475   6.104  0.4676  0.7335  0.7560
  787SOL     OW 8375   5.477   0.359   5.563 -0.5759  0.3207 -0.0279
  787SOL    HW1 8376   5.468   0.321   5.471  2.8570  3.3575 -1.8470
  787SOL    HW2 8377   5.554   0.315   5.609 -1.5883 -0.3934  1.0457
  788SOL     OW 8378   2.241   4.842   0.185  0.0330 -0.1296 -0.3968
  788SOL    HW1 8379   2.227   4.801   0.275  1.7982 -0.4956 -0.2684
  788SOL    HW2 8380   2.162   4.899   0.162 -0.3592  0.1129  1.4498
  789SOL     OW 8381   1.431   5.012   5.093 -0.2971  0.4940  0.2580
  789SOL    HW1 8382   1.421   5.054   5.003 -0.3131 -0.7829 -0.3656
  789SOL    HW2 8383   1.391   4.920   5.090 -1.2287  0.8171  1.8688
  790SOL     OW 8384   4.861   4.820   1.799  0.8222  0.0874  0.6508
  790SOL    HW1 8385   4.859   4.893   1.867  0.7682  0.3499  0.3674
  790SOL    HW2 8386   4.938   4.758   1.820 -0.7897 -1.4106  2.5596
  791SOL     OW 8387   3.255   5.153   1.813 -0.2243 -0.1418  0.0346
  791SOL    HW1 8388   3.326   5.104   1.762 -0.9553 -0.7337 -0.4437
  791SOL    HW2 8389   3.221   5.095   1.887  1.4710  1.0474  1.8509
  792SOL     OW 8390   1.232   0.417   0.292  0.0387 -0.5300 -0.0913
  792SOL    HW1 8391   1.135   0.430   0.314 -0.7854 -0.0820 -3.4117
  792SOL    HW2 8392   1.282   0.502   0.310 -0.1335 -0.7542  1.6155
  793SOL     OW 8393   5.721   4.884   0.716  0.3688 -0.0488  0.0772
  793SOL    HW1 8394   5.774   4.837   0.646  0.5558 -1.2356  0.9735
  793SOL    HW2 8395   5.721   4.829   0.800  0.8126  1.6849  1.2616
  794SOL     OW 8396   3.153   3.397   6.210  0.0584  0.4058  0.0063
  794SOL    HW1 8397   3.080   3.411   6.277  0.3944  0.6200  0.3300
  794SOL    HW2 8398   3.238   3.439   6.243  0.5827 -0.6922  0.0977
  795SOL     OW 8399   5.366   2.641   6.242 -0.5027  0.5285 -0.4078
  795SOL    HW1 8400   5.429   2.715   6.264 -1.1312  0.7041  0.9100
  795SOL    HW2 8401   5.355   2.582   6.321  0.4147 -1.3417 -1.5946
  796SOL     OW 8402   1.478   2.004   5.841  0.1710 -0.0665  0.2119
  796SOL    HW1 8403   1.381   1.982   5.853  0.6487 -2.4984  0.0124
  796SOL    HW2 8404   1.509   1.970   5.752  1.3989 -0.0356  0.6114
  797SOL     OW 8405   4.802   4.942   6.041  0.1996 -0.2139 -0.5021
  797SOL    HW1 8406   4.717   4.969   6.085  0.0814 -0.4578 -0.5813
  797SOL    HW2 8407   4.829   5.010   5.973  1.2686  1.0697  1.1123
  798SOL     OW 8408   3.248   1.638   1.173  0.1052 -0.8813  0.2759
  798SOL    HW1 8409   3.286   1.546   1.167  0.8871 -0.4764 -1.4925
  798SOL    HW2 8410   3.209   1.664   1.085  0.7389  0.8305  0.4625
  799SOL     OW 8411   4.135   6.348   6.119 -0.3718  0.3882  0.8095
  799SOL    HW1 8412   4.207   6.377   6.056  0.7117 -3.0378  0.2417
  799SOL    HW2 8413   4.073   6.286   6.072  0.1926 -1.9128  2.8998
  800SOL     OW 8414   3.620   3.698   5.746  0.2848  0.3426 -0.5885
  800SOL    HW1 8415   3.562   3.771   5.782  0.6166 -0.0327  0.7575
  800SOL    HW2 8416   3.693   3.678   5.811 -1.3428 -3.0182  0.3908
  801SOL     OW 8417   5.954   3.875   6.402 -0.3311  0.2840 -0.6359
  801SOL    HW1 8418   6.041   3.833   6.426  0.3918  1.7605 -0.5653
  801SOL    HW2 8419   5.880   3.824   6.445  0.7097  0.8875  2.0733
  802SOL     OW 8420   3.371   5.807   5.047 -0.2748  0.5495 -0.2664
  802SOL    HW1 8421   3.286   5.773   5.005  0.4467  1.5186 -2.6787
  802SOL    HW2 8422   3.425   5.729   5.079 -2.1618 -0.0698  1.6352
  803SOL     OW 8423   1.570   3.836   5.840 -0.2500  0.1124 -0.0737
  803SOL    HW1 8424   1.542   3.840   5.936 -2.3002  1.5075 -0.6712
  803SOL    HW2 8425   1.493   3.861   5.781  0.9370 -0.7773 -2.1146
  804SOL     OW 8426   1.744   6.046   0.522 -0.5536 -0.0386  0.0529
  804SOL    HW1 8427   1.786   6.019   0.435 -0.1435 -0.8339  0.4946
  804SOL    HW2 8428   1.793   6.124   0.560  1.7807 -2.0790  1.4899
  805SOL     OW 8429   0.897   4.282   5.281 -0.0640  0.3314 -0.3918
  805SOL    HW1 8430   0.917   4.266   5.184 -1.3387  0.0820 -0.6302
  805SOL    HW2 8431   0.868   4.196   5.323 -1.8176  0.8904 -0.3835
  806SOL     OW 8432   3.748   4.987   6.077 -0.4560  0.1521  0.2820
  806SOL    HW1 8433   3.712   4.910   6.024  1.4992  0.6386 -1.9421
  806SOL    HW2 8434   3.774   4.955   6.168 -0.4178 -1.6595 -0.3218
  807SOL     OW 8435   3.044   4.188   6.252  0.6665 -0.0995 -0.1833
  807SOL    HW1 8436   3.016   4.177   6.157  0.9275  0.7736 -0.3709
  807SOL    HW2 8437   3.123   4.129   6.271 -0.0726 -1.1149 -0.1835
  808SOL     OW 8438   3.941   0.546   1.162  0.3413 -0.3489  0.2586
  808SOL    HW1 8439   3.965   0.601   1.242  1.7748 -1.9448  0.9939
  808SOL    HW2 8440   3.842   0.537   1.157  0.2187 -0.6977  2.2420
  809SOL     OW 8441   3.984   4.248   0.287  0.9521  0.0178 -0.3619
  809SOL    HW1 8442   4.026   4.332   0.254 -1.7701  1.2108 -1.0418
  809SOL    HW2 8443   4.048   4.172   0.275  2.8668  1.6836 -1.2924
  810SOL     OW 8444   4.743   1.563   6.358 -0.0565 -0.3961  0.0716
  810SOL    HW1 8445   4.840   1.537   6.355  0.5581  1.8139 -1.3469
  810SOL    HW2 8446   4.699   1.540   6.272 -1.0474 -2.0803  0.9767
  811SOL     OW 8447   0.215   3.238   4.978  0.4831  0.2960  0.1403
  811SOL    HW1 8448   0.136   3.213   5.035  1.6113 -0.7959  1.2914
  811SOL    HW2 8449   0.184   3.293   4.901 -1.2485  0.9089  1.2149
  812SOL     OW 8450   5.273   5.109   1.353 -0.1238  0.8711 -0.0989
  812SOL    HW1 8451   5.243   5.204   1.348 -0.8217  0.7085  0.7318
  812SOL    HW2 8452   5.209   5.057   1.410 -0.3771 -0.3489 -1.4477
  813SOL     OW 8453   4.084   6.068   0.952  0.1645  0.3298 -0.6536
  813SOL    HW1 8454   4.148   6.092   1.024  1.6211 -0.3426 -1.6698
  813SOL    HW2 8455   4.132   6.019   0.879 -1.0249  1.7805 -2.5315
  814SOL     OW 8456   3.254   5.389   1.221  0.2718  0.6098  0.4277
  814SOL    HW1 8457   3.184   5.352   1.160  0.6747  0.1173  0.2588
  814SOL    HW2 8458   3.246   5.345   1.311 -0.4024  1.4246  0.7814
  815SOL     OW 8459   3.737   1.123   5.793 -0.1471  0.1161  0.1442
  815SOL    HW1 8460   3.699   1.039   5.832  1.5328 -0.4038  0.7571
  815SOL    HW2 8461   3.665   1.172   5.743 -1.1940 -1.6263 -0.1572
  816SOL     OW 8462   4.326   1.897   1.344  0.9228  0.0164 -0.2311
  816SOL    HW1 8463   4.382   1.938   1.271  0.4263  1.9971  0.4432
  816SOL    HW2 8464   4.329   1.955   1.425 -0.1146 -1.1330  0.6658
  817SOL     OW 8465   3.480   1.182   5.981  0.0645 -0.3940  0.6719
  817SOL    HW1 8466   3.381   1.185   5.974  0.1304 -0.0250 -0.2146
  817SOL    HW2 8467   3.512   1.090   5.955  0.0348 -0.1520 -0.2439
  818SOL     OW 8468   3.113   1.249   4.880 -0.1515  0.2746  0.3112
  818SOL    HW1 8469   3.151   1.259   4.971  0.9247 -0.3236 -0.0644
  818SOL    HW2 8470   3.051   1.325   4.861 -0.4944  0.3212  1.5855
  819SOL     OW 8471   5.653   2.058   0.293 -0.2366 -0.3021  0.4471
  819SOL    HW1 8472   5.685   2.023   0.381  0.0246  0.6853  0.7589
  819SOL    HW2 8473   5.557   2.084   0.299 -0.5071 -1.2108  0.1368
  820SOL     OW 8474   1.631   4.403   6.433  0.1153 -0.0865 -0.5361
  820SOL    HW1 8475   1.720   4.400   6.387 -0.7560  1.6270 -2.4648
  820SOL    HW2 8476   1.558   4.408   6.365 -1.3077  1.8056  1.0199
  821SOL     OW 8477   3.790   4.150   5.822 -0.3924 -0.1565 -0.0176
  821SOL    HW1 8478   3.806   4.187   5.913  1.3022  1.6137 -0.9576
  821SOL    HW2 8479   3.877   4.123   5.781 -1.2937 -2.5031 -0.5297
  822SOL     OW 8480   0.626   3.336   6.268 -0.7084  0.3130 -0.2104
  822SOL    HW1 8481   0.591   3.244   6.283  0.8486 -0.2154  0.3275
  822SOL    HW2 8482   0.585   3.398   6.335 -2.4415  0.2259 -1.1324
  823SOL     OW 8483   5.904   3.937   6.023 -0.0528  0.1192 -0.5521
  823SOL    HW1 8484   6.001   3.927   6.044 -0.2898 -1.6896 -0.1825
  823SOL    HW2 8485   5.892   4.002   5.948  1.3591  1.0195 -0.0279
  824SOL     OW 8486   0.788   0.241   0.031  0.0026  0.6387 -0.2070
  824SOL    HW1 8487   0.821   0.330  -0.001  0.0184  0.5097 -0.5527
  824SOL    HW2 8488   0.863   0.190   0.071  0.3770  0.0849 -1.5767
  825SOL     OW 8489   5.740   2.673   6.367 -0.3033 -0.3924  0.0395
  825SOL    HW1 8490   5.701   2.598   6.314  0.5779 -0.8148 -0.0179
  825SOL    HW2 8491   5.797   2.637   6.440  0.2228  0.2122 -0.0616
  826SOL     OW 8492   1.206   1.958   5.942 -0.4722 -0.8451  0.3135
  826SOL    HW1 8493   1.222   2.051   5.910 -2.1140 -0.6734 -0.0884
  826SOL    HW2 8494   1.108   1.939   5.941 -0.3819 -1.7209  2.8452
  827SOL     OW 8495   3.499   1.562   0.263 -0.8049  0.2110 -0.4734
  827SOL    HW1 8496   3.437   1.515   0.326 -1.1184  2.6672  1.1423
  827SOL    HW2 8497   3.566   1.496   0.228 -1.0690 -1.4152  1.8470
  828SOL     OW 8498   0.144   1.032   1.050  0.5733  0.4284 -0.1900
  828SOL    HW1 8499   0.160   1.118   1.099 -1.3280  0.8973 -0.3092
  828SOL    HW2 8500   0.216   0.967   1.073  0.4857  1.0730  2.2153
  829SOL     OW 8501   3.078   2.020   0.077  0.3175  0.0981 -0.4647
  829SOL    HW1 8502   3.000   2.082   0.088  1.0827  1.2351 -1.2312
  829SOL    HW2 8503   3.162   2.073   0.070  1.0514 -1.0626 -0.6671
  830SOL     OW 8504   1.013   5.231   1.117  0.3844  0.2797  0.3444
  830SOL    HW1 8505   1.040   5.308   1.060  1.4870 -1.1144 -1.0989
  830SOL    HW2 8506   1.085   5.212   1.184  0.1372  0.4734  0.6660
  831SOL     OW 8507   5.478   4.391   5.451  0.5918 -0.4275 -0.0326
  831SOL    HW1 8508   5.457   4.328   5.525 -1.4171 -1.3855 -1.3169
  831SOL    HW2 8509   5.450   4.350   5.364 -1.6172  2.5034 -0.8643
  832SOL     OW 8510   1.895   3.924   5.217  0.4093 -0.2638 -0.5370
  832SOL    HW1 8511   1.924   4.016   5.243 -0.1926 -0.6310  1.6626
  832SOL    HW2 8512   1.961   3.857   5.252 -1.2221 -0.8842  1.5179
  833SOL     OW 8513   2.059   5.220   5.652 -0.1318 -0.5635  0.0914
  833SOL    HW1 8514   1.993   5.151   5.682  0.4723 -0.8259  0.8516
  833SOL    HW2 8515   2.048   5.302   5.708 -1.1715  0.1617 -1.1208
  834SOL     OW 8516   3.218   0.521   2.103  0.2600 -0.8386 -0.0667
  834SOL    HW1 8517   3.308   0.529   2.145  0.8531 -2.3254 -0.9788
  834SOL    HW2 8518   3.148   0.540   2.172  1.2560  0.0409  0.7283
  835SOL     OW 8519   5.729   4.471   5.156 -0.5849 -0.2801  0.1298
  835SOL    HW1 8520   5.718   4.507   5.063 -2.1981 -1.7783 -0.2931
  835SOL    HW2 8521   5.721   4.372   5.155  0.1763 -0.3945  1.7840
  836SOL     OW 8522   0.481   2.545   5.507 -0.2752 -0.3566  1.2118
  836SOL    HW1 8523   0.469   2.566   5.604  1.0169 -0.1273  1.3375
  836SOL    HW2 8524   0.555   2.601   5.470 -1.7982  0.7922 -0.3253
  837SOL     OW 8525   3.226   1.852   0.852  0.1542  0.8752 -0.1319
  837SOL    HW1 8526   3.173   1.769   0.867  0.0086  0.3539 -2.9992
  837SOL    HW2 8527   3.310   1.849   0.906 -0.9435  0.0484  1.6501
  838SOL     OW 8528   3.646   5.185   1.108  0.6715 -0.1861 -0.8428
  838SOL    HW1 8529   3.705   5.263   1.130 -0.1953  0.0794  0.6674
  838SOL    HW2 8530   3.665   5.111   1.172 -0.3915 -0.2114 -0.5440
  839SOL     OW 8531   5.266   2.121   6.430  0.3997 -0.5935 -0.6277
  839SOL    HW1 8532   5.227   2.085   6.345 -1.3526  0.4688 -0.3292
  839SOL    HW2 8533   5.278   2.047   6.495 -1.1259 -0.9918 -0.7634
  840SOL     OW 8534   3.467   5.874   1.598 -0.0267  0.0446 -1.3071
  840SOL    HW1 8535   3.429   5.786   1.625  0.4590 -0.8551 -3.3668
  840SOL    HW2 8536   3.465   5.936   1.677 -1.5683 -1.3582 -0.1505
  841SOL     OW 8537   4.234   3.377   6.214 -0.5793 -0.1878 -0.5687
  841SOL    HW1 8538   4.248   3.469   6.251 -0.8400 -0.2536 -0.3013
  841SOL    HW2 8539   4.161   3.331   6.266  0.7437 -1.1955  0.4831
  842SOL     OW 8540   4.745   5.892   5.677 -0.2136  0.0058  0.1211
  842SOL    HW1 8541   4.828   5.841   5.652 -0.1771  0.8004 -1.5077
  842SOL    HW2 8542   4.665   5.837   5.654 -0.1967 -1.1218  2.4762
  843SOL     OW 8543   5.497   4.410   5.001 -0.1154 -0.0390  0.1727
  843SOL    HW1 8544   5.546   4.497   4.991 -0.6493  0.1611 -0.8953
  843SOL    HW2 8545   5.453   4.387   4.914  0.4957 -1.6835  0.2806
  844SOL     OW 8546   0.413   4.800   5.063  0.0709 -0.5399 -0.1982
  844SOL    HW1 8547   0.329   4.755   5.093  0.2357  0.2430  1.5380
  844SOL    HW2 8548   0.390   4.884   5.013 -0.3248  1.8611  3.6218
  845SOL     OW 8549   4.679   0.424   5.658  0.1710  0.2725 -0.5298
  845SOL    HW1 8550   4.583   0.452   5.666  0.7121  1.9936  0.4994
  845SOL    HW2 8551   4.731   0.460   5.736  1.7521 -0.2607 -1.2922
  846SOL     OW 8552   0.601   0.834   0.432 -0.6253  0.5314  0.1141
  846SOL    HW1 8553   0.630   0.783   0.513 -0.3260 -0.6575 -0.7135
  846SOL    HW2 8554   0.678   0.845   0.369 -1.4095 -0.7760 -1.1372
  847SOL     OW 8555   2.314   2.109   5.946 -0.3439  0.9291  0.4955
  847SOL    HW1 8556   2.239   2.079   6.005  0.5289 -0.0547  1.1443
  847SOL    HW2 8557   2.383   2.157   6.001  0.8761 -0.7184  0.4713
  848SOL     OW 8558   1.041   5.953   0.909 -0.4684 -0.1761 -0.3502
  848SOL    HW1 8559   1.029   5.872   0.967 -1.0774  0.5171  0.5189
  848SOL    HW2 8560   1.117   5.937   0.845 -0.5691 -1.4177 -0.1865
  849SOL     OW 8561   2.044   3.134   6.272  0.1397 -0.1973  0.7618
  849SOL    HW1 8562   2.027   3.168   6.180  0.8028  2.0996  1.4237
  849SOL    HW2 8563   1.977   3.062   6.294  0.9329 -1.9375 -2.0052
  850SOL     OW 8564   2.886   2.966   4.446 -0.3656 -0.4773 -0.2507
  850SOL    HW1 8565   2.915   3.053   4.485 -2.6466  0.6412 -0.8928
  850SOL    HW2 8566   2.791   2.947   4.473 -0.6398 -1.6789 -1.8784
  851SOL     OW 8567   2.212   0.761   6.216  0.5161  0.2698  0.0393
  851SOL    HW1 8568   2.305   0.749   6.252  0.1068  0.6166  1.2745
  851SOL    HW2 8569   2.182   0.855   6.233 -0.1158  0.1190 -0.2265
  852SOL     OW 8570   4.283   2.766   0.302  0.4704  0.7280 -0.3717
  852SOL    HW1 8571   4.187   2.788   0.289 -0.1166 -2.0143 -1.2716
  852SOL    HW2 8572   4.312   2.798   0.393 -1.2472  1.6222 -0.0938
  853SOL     OW 8573   5.425   1.646   0.098 -0.1418 -0.4847  0.0132
  853SOL    HW1 8574   5.487   1.578   0.136 -0.4131 -0.6520  0.1612
  853SOL    HW2 8575   5.477   1.712   0.044  0.2057 -0.4059  0.4446
  854SOL     OW 8576   2.591   1.968   6.074  0.3883 -0.1398  0.6314
  854SOL    HW1 8577   2.515   1.903   6.083  0.8923 -0.6069  1.6600
  854SOL    HW2 8578   2.672   1.930   6.117  1.6417 -0.2821 -1.6855
  855SOL     OW 8579   4.451   1.658   0.385 -0.3511 -0.2127 -0.3952
  855SOL    HW1 8580   4.539   1.698   0.362  0.7466 -2.1753  0.0931
  855SOL    HW2 8581   4.421   1.598   0.311 -1.1412  0.1991 -0.4226
  856SOL     OW 8582   5.315   5.410   0.406 -0.2362  0.2769 -0.5910
  856SOL    HW1 8583   5.258   5.352   0.464 -1.1680  1.2461 -0.5060
  856SOL    HW2 8584   5.258   5.476   0.358  0.6485  0.2077 -1.7789
  857SOL     OW 8585   5.672   5.291   5.868  0.2964  0.1393 -0.3103
  857SOL    HW1 8586   5.604   5.227   5.903 -0.2466  0.3769 -0.9043
  857SOL    HW2 8587   5.708   5.346   5.943 -0.1956  0.0372  0.0051
  858SOL     OW 8588   6.209   6.153   6.008  0.1106 -0.3084 -0.7591
  858SOL    HW1 8589   6.196   6.080   5.940 -1.5703  0.3555 -1.1933
  858SOL    HW2 8590   6.284   6.213   5.978  0.3959 -0.8947 -1.2448
  859SOL     OW 8591   5.599   4.960   6.198 -0.3412  0.2931 -0.3211
  859SOL    HW1 8592   5.526   4.895   6.175  0.1337 -0.3893  0.0528
  859SOL    HW2 8593   5.560   5.050   6.217 -0.9333  0.3432 -1.6981
  860SOL     OW 8594   2.137   1.480   0.519 -0.5822 -0.1079  0.1866
  860SOL    HW1 8595   2.190   1.428   0.453  0.3147  0.4572  0.4465
  860SOL    HW2 8596   2.182   1.477   0.608 -0.7354  0.7576  0.3031
  861SOL     OW 8597   3.243   4.858   0.980 -0.6358  0.4665 -0.4900
  861SOL    HW1 8598   3.328   4.849   1.033 -1.6020 -1.2228  0.8693
  861SOL    HW2 8599   3.229   4.955   0.958  0.3431  1.1308  1.4796
  862SOL     OW 8600   2.085   1.632   6.192 -0.2989 -0.4329 -0.0022
  862SOL    HW1 8601   2.160   1.568   6.182 -0.0756 -0.5248  1.9554
  862SOL    HW2 8602   2.102   1.712   6.134  0.4282 -1.2085 -0.8935
  863SOL     OW 8603   4.131   2.232   0.793 -0.5347 -0.1415 -0.3135
  863SOL    HW1 8604   4.116   2.148   0.846 -0.1975  0.9531  1.6367
  863SOL    HW2 8605   4.155   2.209   0.699 -0.5591 -2.2245  0.1496
  864SOL     OW 8606   5.261   3.191   0.736  0.8399  0.0329 -0.0477
  864SOL    HW1 8607   5.231   3.129   0.663  1.9403  0.6383 -1.0481
  864SOL    HW2 8608   5.331   3.253   0.701  1.5814  0.1845  1.6041
  865SOL     OW 8609   2.005   0.447   6.297 -0.2937  0.4075 -0.4401
  865SOL    HW1 8610   1.964   0.500   6.223 -0.9437  2.4564  1.2910
  865SOL    HW2 8611   2.063   0.375   6.258 -3.5855 -1.1566 -2.9868
  866SOL     OW 8612   5.405   0.712   5.379  0.1834 -0.0438 -0.2225
  866SOL    HW1 8613   5.406   0.671   5.470  2.4997 -1.5945 -0.8637
  866SOL    HW2 8614   5.340   0.661   5.321 -0.6411  0.3943  0.2938
  867SOL     OW 8615   3.397   0.624   4.784 -0.0377 -0.6281 -0.7644
  867SOL    HW1 8616   3.412   0.630   4.686 -0.3695  0.6918 -0.7613
  867SOL    HW2 8617   3.481   0.650   4.832 -0.1888 -0.2410 -0.7080
  868SOL     OW 8618   1.695   0.140   6.384  0.2969 -0.3024  0.0475
  868SOL    HW1 8619   1.609   0.180   6.351 -1.6499 -3.1006  1.2950
  868SOL    HW2 8620   1.741   0.205   6.444 -0.5945  1.4952 -1.0966
  869SOL     OW 8621   4.508   6.365   0.397  0.8570  0.6738 -0.1155
  869SOL    HW1 8622   4.493   6.413   0.483  0.6395  2.2413 -0.9921
  869SOL    HW2 8623   4.514   6.266   0.414 -2.6509  0.5604  1.2977
  870SOL     OW 8624   6.079   5.492   0.620  0.6932 -0.2518 -0.0298
  870SOL    HW1 8625   6.055   5.533   0.708  1.6799  0.0926  0.0917
  870SOL    HW2 8626   6.062   5.393   0.624 -1.1407  0.0329 -0.1307
  871SOL     OW 8627   6.202   5.097   6.267  0.3156 -0.6650 -0.2618
  871SOL    HW1 8628   6.275   5.153   6.306 -0.8948  2.1582 -1.7380
  871SOL    HW2 8629   6.113   5.133   6.294 -0.5348 -1.3692 -1.9262
  872SOL     OW 8630   1.962   1.537   4.718  0.4426  0.1917 -0.3325
  872SOL    HW1 8631   1.985   1.629   4.687  0.3532 -0.0826 -1.2342
  872SOL    HW2 8632   2.022   1.471   4.673  0.0477 -0.2468 -0.2222
  873SOL     OW 8633   2.898   5.292   0.585  0.2254  1.2954  0.2713
  873SOL    HW1 8634   2.955   5.213   0.606 -1.3010 -0.2803 -1.1465
  873SOL    HW2 8635   2.944   5.375   0.614  0.5204 -0.1983  4.9019
  874SOL     OW 8636   1.996   3.588   0.600 -0.1883  0.2346 -0.3574
  874SOL    HW1 8637   1.902   3.620   0.606  0.6139  2.4760  2.3113
  874SOL    HW2 8638   2.054   3.663   0.566  0.9484 -0.2558  0.4427
  875SOL     OW 8639   0.631   5.427   5.896  0.5997 -0.3239  0.2419
  875SOL    HW1 8640   0.672   5.517   5.913 -0.3343  0.3659 -1.0045
  875SOL    HW2 8641   0.612   5.417   5.799  0.3433 -1.7319  0.4238
  876SOL     OW 8642   0.164   1.644   6.073  0.1921 -0.2835  0.5818
  876SOL    HW1 8643   0.246   1.586   6.072  0.7761  0.4992  1.1916
  876SOL    HW2 8644   0.113   1.628   6.157 -0.0502 -0.4503  0.4047
  877SOL     OW 8645   6.323   3.937   1.035 -0.0337  0.0196 -0.3333
  877SOL    HW1 8646   6.257   3.864   1.051  0.7972 -0.5668  0.5616
  877SOL    HW2 8647   6.344   3.942   0.937 -1.0008 -0.1224 -0.5588
  878SOL     OW 8648   3.385   1.408   5.775 -0.3937  0.0865  0.4863
  878SOL    HW1 8649   3.433   1.360   5.702 -0.9807  0.7755 -0.3649
  878SOL    HW2 8650   3.447   1.475   5.817 -0.7341  1.3860 -0.9905
  879SOL     OW 8651   2.912   2.657   5.390 -0.5974 -0.1773  0.1812
  879SOL    HW1 8652   2.950   2.750   5.395  1.3350 -0.9029  0.1197
  879SOL    HW2 8653   2.904   2.619   5.482 -2.9106  0.5728  0.3433
  880SOL     OW 8654   1.478   3.723   6.097 -0.8118 -0.6856 -0.4550
  880SOL    HW1 8655   1.435   3.632   6.103 -1.2809 -0.4298  0.2282
  880SOL    HW2 8656   1.547   3.731   6.169 -1.1206 -0.3305 -0.1930
  881SOL     OW 8657   2.196   5.395   0.687 -0.1038 -0.4200  0.5877
  881SOL    HW1 8658   2.256   5.319   0.659 -2.7099 -1.9967 -1.0916
  881SOL    HW2 8659   2.230   5.480   0.648  1.5553 -1.0821  0.4889
  882SOL     OW 8660   1.770   4.036   5.564  0.3316 -0.6761 -0.4317
  882SOL    HW1 8661   1.848   3.983   5.533  1.4102  0.6447 -0.0634
  882SOL    HW2 8662   1.781   4.058   5.661 -0.3581 -0.2371 -0.4425
  883SOL     OW 8663   3.390   5.825   5.402  0.1738 -0.6801 -0.3811
  883SOL    HW1 8664   3.293   5.830   5.382 -0.1744 -0.0510  1.2983
  883SOL    HW2 8665   3.435   5.764   5.337 -1.5294 -1.9015 -0.4625
  884SOL     OW 8666   5.392   5.124   6.317 -0.2961 -0.6207  0.0687
  884SOL    HW1 8667   5.433   5.214   6.330 -0.0203 -0.6974 -0.2429
  884SOL    HW2 8668   5.334   5.102   6.395 -0.8290  0.0772 -0.1187
  885SOL     OW 8669   2.741   1.533   5.159 -0.4012 -0.3161 -0.0355
  885SOL    HW1 8670   2.704   1.531   5.251 -1.8056 -0.6960 -0.5777
  885SOL    HW2 8671   2.801   1.455   5.145 -1.4498 -1.1765  0.0899
  886SOL     OW 8672   1.311   4.386   0.190  0.1343  0.6343  0.0684
  886SOL    HW1 8673   1.262   4.354   0.271  2.5495  0.0238  1.3786
  886SOL    HW2 8674   1.304   4.485   0.184 -0.0604  0.6904  1.0352
  887SOL     OW 8675   4.879   1.492   6.078  0.6757  0.0153 -0.4967
  887SOL    HW1 8676   4.931   1.566   6.036  1.0837 -0.5109 -0.9391
  887SOL    HW2 8677   4.782   1.518   6.084  0.9693  1.0076  0.3404
  888SOL     OW 8678   2.713   0.495   4.898  0.4815 -0.5263  0.1692
  888SOL    HW1 8679   2.651   0.419   4.875 -0.8101  0.7544 -0.7896
  888SOL    HW2 8680   2.729   0.550   4.816  1.8317 -0.0535  0.7303
  889SOL     OW 8681   2.803   2.235   0.319 -0.7637 -0.3847 -0.4029
  889SOL    HW1 8682   2.806   2.216   0.220 -1.4653 -0.2333 -0.4568
  889SOL    HW2 8683   2.800   2.148   0.369 -0.1801 -0.4671 -0.5003
  890SOL     OW 8684   4.605   1.534   6.120  0.3023  0.4944  0.0549
  890SOL    HW1 8685   4.552   1.616   6.137 -1.3351  0.0087 -2.2407
  890SOL    HW2 8686   4.550   1.468   6.068  2.5162 -0.8332 -0.7808
  891SOL     OW 8687   0.924   3.514   5.931 -0.2798 -0.2723 -0.2944
  891SOL    HW1 8688   0.853   3.448   5.909 -1.2779  0.6052  0.1820
  891SOL    HW2 8689   0.887   3.607   5.918  1.0281  0.1951 -0.8004
  892SOL     OW 8690   3.624   6.106   0.971  0.1335  0.5239  0.1353
  892SOL    HW1 8691   3.629   6.164   0.890  2.5066 -0.2823 -0.3765
  892SOL    HW2 8692   3.562   6.148   1.038 -0.6594  2.0050 -1.4258
  893SOL     OW 8693   0.649   2.845   0.184  0.0317 -0.0412  0.9757
  893SOL    HW1 8694   0.615   2.767   0.131 -2.3770  1.3272  0.3918
  893SOL    HW2 8695   0.749   2.839   0.190 -0.0015 -2.7885  0.4041
  894SOL     OW 8696   0.715   1.718   5.928 -0.4824  0.7239 -0.2203
  894SOL    HW1 8697   0.666   1.802   5.954 -1.1532  0.1268  0.4994
  894SOL    HW2 8698   0.660   1.666   5.863 -1.6381 -0.7578  1.8219
  895SOL     OW 8699   1.276   2.351   0.518 -0.1528 -0.0783  0.3916
  895SOL    HW1 8700   1.243   2.319   0.429  1.9799 -1.7913  0.1258
  895SOL    HW2 8701   1.363   2.399   0.506  0.2969 -0.5662  1.5671
  896SOL     OW 8702   1.504   3.236   0.513 -0.0774 -0.7415 -0.0479
  896SOL    HW1 8703   1.498   3.264   0.609 -0.1371  3.7270 -1.1764
  896SOL    HW2 8704   1.453   3.300   0.456  2.5781 -1.3200 -3.3971
  897SOL     OW 8705   4.764   4.754   1.259  1.1025  1.0461  0.1079
  897SOL    HW1 8706   4.806   4.806   1.333  0.2217 -0.5810  1.8114
  897SOL    HW2 8707   4.826   4.680   1.231  0.5283  0.2963  0.7780
  898SOL     OW 8708   2.918   4.627   6.148 -0.1723 -0.7134  0.6807
  898SOL    HW1 8709   3.005   4.632   6.197  0.4328 -1.0490 -0.3334
  898SOL    HW2 8710   2.903   4.712   6.098  0.0563 -1.0241  0.0722
  899SOL     OW 8711   2.273   5.294   5.488 -0.0251 -0.1082 -0.5604
  899SOL    HW1 8712   2.194   5.272   5.545 -0.6952 -2.7587 -2.3249
  899SOL    HW2 8713   2.286   5.394   5.486 -1.1120  0.1951  2.5510
  900SOL     OW 8714   2.556   5.153   5.551  0.3450  0.3637 -0.2775
  900SOL    HW1 8715   2.537   5.234   5.606 -0.2694  0.8738 -1.2037
  900SOL    HW2 8716   2.516   5.165   5.460  1.2072 -0.5143 -0.7883
  901SOL     OW 8717   4.076   2.867   0.160  0.0776  0.0190  0.2480
  901SOL    HW1 8718   4.148   2.934   0.142 -0.4588  0.3301 -0.7730
  901SOL    HW2 8719   4.000   2.882   0.098 -0.4988 -0.8817  0.7181
  902SOL     OW 8720   3.723   5.300   0.343 -0.2522 -0.5331  0.0256
  902SOL    HW1 8721   3.630   5.282   0.310 -1.6697  1.7597  2.4302
  902SOL    HW2 8722   3.720   5.322   0.440  2.9503 -0.9820  0.3303
  903SOL     OW 8723   5.465   4.446   0.043 -0.6693  0.5187  0.0736
  903SOL    HW1 8724   5.516   4.363   0.065 -0.0335  0.4774 -1.4822
  903SOL    HW2 8725   5.480   4.514   0.115  0.6738  0.1024  0.2172
  904SOL     OW 8726   5.700   4.095   5.377  0.3716  0.1146  0.1441
  904SOL    HW1 8727   5.678   4.126   5.285 -0.7030 -0.9728  0.0005
  904SOL    HW2 8728   5.615   4.083   5.430  0.9335  0.1957  1.0948
  905SOL     OW 8729   5.836   4.908   6.015  0.0826  0.6001  0.1744
  905SOL    HW1 8730   5.764   4.915   6.084  0.2807 -0.4192  0.5010
  905SOL    HW2 8731   5.833   4.989   5.956 -0.1327  1.4466  1.3150
  906SOL     OW 8732   2.778   5.534   6.284 -0.1899 -0.3681 -0.1782
  906SOL    HW1 8733   2.709   5.566   6.349 -0.8056 -1.9553 -0.0023
  906SOL    HW2 8734   2.759   5.438   6.260  1.7091 -0.6994 -0.4704
  907SOL     OW 8735   2.732   2.040   6.416  0.3457  0.3137  0.1260
  907SOL    HW1 8736   2.722   1.941   6.406  0.5286  0.3777 -0.8287
  907SOL    HW2 8737   2.642   2.081   6.433  0.0660  0.1070 -0.7842
  908SOL     OW 8738   4.846   4.191   0.513  0.3232  0.0733  0.0721
  908SOL    HW1 8739   4.820   4.160   0.604 -0.5516  0.3448 -0.0710
  908SOL    HW2 8740   4.922   4.136   0.479  1.4764  0.7666  1.4479
  909SOL     OW 8741   1.417   2.136   0.619 -0.8599  0.4193 -0.5585
  909SOL    HW1 8742   1.468   2.124   0.704  0.5550 -1.3322 -1.5771
  909SOL    HW2 8743   1.379   2.228   0.616  1.6487  1.5958  0.6077
  910SOL     OW 8744   0.115   3.054   0.409 -0.3476 -0.0532 -0.6858
  910SOL    HW1 8745   0.120   3.150   0.437  3.9110 -0.1152 -0.6604
  910SOL    HW2 8746   0.083   2.999   0.485  2.9255  0.7729  1.4871
  911SOL     OW 8747   1.027   3.928   0.402 -0.4043  0.3731  0.1667
  911SOL    HW1 8748   0.937   3.933   0.445  0.5623  2.1277  2.1671
  911SOL    HW2 8749   1.075   3.846   0.434 -1.0675 -0.2841 -0.4914
  912SOL     OW 8750   1.300   0.165   0.208 -0.7663  0.2621 -0.4410
  912SOL    HW1 8751   1.306   0.256   0.249 -0.7870 -0.0113  0.1863
  912SOL    HW2 8752   1.380   0.149   0.151 -1.5663  1.3124 -1.9197
  913SOL     OW 8753   2.018   4.616   6.223  0.4191  0.1299  0.0865
  913SOL    HW1 8754   1.931   4.598   6.177  0.4055 -1.3709  0.6273
  913SOL    HW2 8755   2.056   4.702   6.190 -1.6266  1.2168  0.3726
  914SOL     OW 8756   5.685   5.679   4.970  0.0510 -0.6063 -0.1228
  914SOL    HW1 8757   5.685   5.585   5.002  1.1557 -0.9584 -1.0915
  914SOL    HW2 8758   5.713   5.682   4.874  0.1742  0.7215 -0.0693
  915SOL     OW 8759   3.900   3.380   0.572 -0.1345  0.2252  0.0183
  915SOL    HW1 8760   3.850   3.460   0.539 -0.2686 -0.6430 -2.0264
  915SOL    HW2 8761   3.997   3.389   0.549 -0.0409  0.0549  0.3303
  916SOL     OW 8762   0.472   5.137   0.344  0.2803 -0.6743  0.5729
  916SOL    HW1 8763   0.484   5.105   0.250  2.7086 -0.2822  0.6882
  916SOL    HW2 8764   0.521   5.077   0.407  0.4677  0.2593  1.3477
  917SOL     OW 8765   1.698   0.493   5.956  0.4561 -0.0184  0.3382
  917SOL    HW1 8766   1.659   0.585   5.949  1.2994  0.4662  1.6296
  917SOL    HW2 8767   1.628   0.425   5.934 -0.4097  0.9058  0.1714
  918SOL     OW 8768   2.357   1.239   6.483 -0.5174 -0.5301 -0.0898
  918SOL    HW1 8769   2.363   1.327   6.438 -3.8920  2.0567  3.7850
  918SOL    HW2 8770   2.438   1.225   6.540  0.9737 -1.0155 -2.2453
  919SOL     OW 8771   0.288   4.753   6.239 -0.8168  0.3182 -0.3986
  919SOL    HW1 8772   0.326   4.714   6.155  0.3886 -0.3588  0.4266
  919SOL    HW2 8773   0.190   4.734   6.243 -0.7055 -0.5148 -1.1866
  920SOL     OW 8774   2.997   6.089   4.900  0.1907 -0.4213  0.4402
  920SOL    HW1 8775   2.961   6.155   4.833  0.0204 -0.9548  0.0044
  920SOL    HW2 8776   3.078   6.045   4.863  0.0401 -0.7874  0.5487
  921SOL     OW 8777   5.475   5.522   0.633  0.0485 -0.2461  0.0182
  921SOL    HW1 8778   5.417   5.477   0.565 -0.0775  0.4796 -0.3642
  921SOL    HW2 8779   5.558   5.556   0.589  0.3749 -0.5299  0.4023
  922SOL     OW 8780   4.353   5.814   1.178  0.4198 -0.3950  0.6993
  922SOL    HW1 8781   4.402   5.771   1.254  1.1326  0.7407  0.9038
  922SOL    HW2 8782   4.401   5.897   1.150  1.0951 -1.5965 -2.0578
  923SOL     OW 8783   2.823   1.209   0.831 -0.0200  0.5426  0.7949
  923SOL    HW1 8784   2.864   1.291   0.791 -0.0482  1.0167  1.7038
  923SOL    HW2 8785   2.757   1.236   0.902  0.0795 -0.2648  1.2079
  924SOL     OW 8786   2.564   5.733   6.431 -0.0304  0.2063  0.2961
  924SOL    HW1 8787   2.482   5.676   6.436 -0.0398  0.2707  1.0195
  924SOL    HW2 8788   2.539   5.825   6.402 -0.0548 -0.0790 -0.5955
  925SOL     OW 8789   0.679   5.134   5.744 -0.5569  0.2851  0.4252
  925SOL    HW1 8790   0.616   5.146   5.820  0.4142 -1.9883  1.7073
  925SOL    HW2 8791   0.674   5.039   5.711  2.5385 -0.2019  1.0039
  926SOL     OW 8792   2.588   1.602   5.856  0.5626  0.0428 -0.1135
  926SOL    HW1 8793   2.646   1.601   5.774  0.7591 -0.3234  0.0244
  926SOL    HW2 8794   2.516   1.670   5.846  0.6641  0.0878 -0.5376
  927SOL     OW 8795   4.118   5.354   1.222 -0.1222  0.2250 -0.1462
  927SOL    HW1 8796   4.033   5.373   1.173  0.6188 -2.8246 -2.9790
  927SOL    HW2 8797   4.106   5.270   1.276  1.4152 -1.0904 -1.7548
  928SOL     OW 8798   3.458   2.515   6.043 -0.0941  0.4548  0.2249
  928SOL    HW1 8799   3.466   2.597   5.987  0.1409  0.6356  0.5204
  928SOL    HW2 8800   3.460   2.540   6.140  0.7612  0.0346  0.3224
  929SOL     OW 8801   2.335   0.378   1.858  0.1757 -0.3832 -0.1032
  929SOL    HW1 8802   2.236   0.390   1.858 -0.3581 -2.9149 -3.7680
  929SOL    HW2 8803   2.363   0.325   1.938 -1.7990 -1.3981 -0.0251
  930SOL     OW 8804   0.204   3.992   5.228 -0.1380 -0.1084  0.1368
  930SOL    HW1 8805   0.255   4.020   5.147 -0.3876  0.5220  0.1869
  930SOL    HW2 8806   0.215   3.894   5.243  2.4179  0.2524  1.1000
  931SOL     OW 8807   1.430   2.303   0.043  0.6816  0.0124 -0.1744
  931SOL    HW1 8808   1.502   2.317  -0.024  0.7021  1.4052  0.1141
  931SOL    HW2 8809   1.466   2.250   0.120  0.8575 -0.9342 -0.8773
  932SOL     OW 8810   3.963   4.876   5.909  0.2372 -0.1500 -0.0551
  932SOL    HW1 8811   4.037   4.942   5.924  0.8085 -0.5896 -0.8548
  932SOL    HW2 8812   3.889   4.894   5.973  0.1748  1.5824 -0.5453
  933SOL     OW 8813   1.055   3.346   6.113 -0.0407 -0.4221 -0.8738
  933SOL    HW1 8814   1.060   3.386   6.021  0.0417  1.3780 -0.1248
  933SOL    HW2 8815   1.127   3.277   6.122  0.1947 -0.3649 -2.0404
  934SOL     OW 8816   2.823   3.893   0.304  0.1533 -0.6664 -0.6758
  934SOL    HW1 8817   2.853   3.800   0.282 -0.4026 -0.6148 -1.7190
  934SOL    HW2 8818   2.741   3.915   0.251 -0.8431 -0.2524  0.9459
  935SOL     OW 8819   3.288   4.363   0.307  0.5933 -0.1896  0.3858
  935SOL    HW1 8820   3.315   4.457   0.328  1.4589 -0.2355 -0.4545
  935SOL    HW2 8821   3.364   4.301   0.327 -0.0503 -0.7433  1.1504
  936SOL     OW 8822   5.146   6.242   5.125 -0.0335  0.7845 -0.2246
  936SOL    HW1 8823   5.078   6.313   5.108  0.8836  1.4684 -1.2069
  936SOL    HW2 8824   5.218   6.248   5.055 -0.7587 -2.1869 -1.3633
  937SOL     OW 8825   0.920   2.212   0.262  0.1312 -0.4715 -0.5337
  937SOL    HW1 8826   0.851   2.284   0.259  0.6952  0.0624 -2.6576
  937SOL    HW2 8827   0.912   2.154   0.181  1.8235 -0.7071 -0.5764
  938SOL     OW 8828   4.506   4.028   1.114 -0.3282  0.0842 -0.0743
  938SOL    HW1 8829   4.602   4.024   1.141 -0.5788 -0.0970  0.8563
  938SOL    HW2 8830   4.448   4.012   1.195 -1.1629  1.7083 -0.3007
  939SOL     OW 8831   5.524   4.042   0.873 -0.2833  0.0839  0.4404
  939SOL    HW1 8832   5.615   4.001   0.883 -0.9131 -1.1837  1.3309
  939SOL    HW2 8833   5.508   4.064   0.777  0.8553  0.0733  0.2311
  940SOL     OW 8834   4.667   4.016   5.658  0.2134  0.4430  0.4057
  940SOL    HW1 8835   4.605   4.082   5.616  1.4324  0.0231 -2.2363
  940SOL    HW2 8836   4.761   4.036   5.632  1.0232 -0.2544  2.5117
  941SOL     OW 8837   2.197   4.906   0.656  0.2889 -0.7671  0.1002
  941SOL    HW1 8838   2.150   4.832   0.704  0.8552 -1.1963 -0.0006
  941SOL    HW2 8839   2.221   4.978   0.721 -0.0193 -0.7951  0.2465
  942SOL     OW 8840   3.138   2.059   1.371  0.1925  0.3307  0.6379
  942SOL    HW1 8841   3.089   2.030   1.453 -0.6593  0.8699  0.3379
  942SOL    HW2 8842   3.073   2.095   1.304  0.8227 -0.5055 -0.4565
  943SOL     OW 8843   3.583   6.257   6.309  0.0890 -0.0095 -1.2312
  943SOL    HW1 8844   3.679   6.234   6.326 -0.1041 -0.1469 -0.2202
  943SOL    HW2 8845   3.552   6.214   6.224  0.8513 -0.1604 -1.4376
  944SOL     OW 8846   1.855   0.072   5.624 -1.1589 -0.3273 -0.1393
  944SOL    HW1 8847   1.852   0.105   5.529 -1.1365 -1.1368 -0.4232
  944SOL    HW2 8848   1.950   0.057   5.651 -1.0694  1.1089  0.4459
  945SOL     OW 8849   4.910   5.351   1.170 -0.0751 -0.6918 -0.3105
  945SOL    HW1 8850   4.907   5.445   1.135 -1.2615 -1.2814 -1.9354
  945SOL    HW2 8851   4.990   5.340   1.229 -0.9915  1.8545  1.5411
  946SOL     OW 8852   1.470   4.861   1.208 -0.1745 -0.5801  0.2128
  946SOL    HW1 8853   1.475   4.950   1.254  1.4183 -0.5779  0.0971
  946SOL    HW2 8854   1.467   4.789   1.277  0.8055 -0.5146  0.3451
  947SOL     OW 8855   1.906   4.471   0.166 -0.3195 -0.6143 -0.0674
  947SOL    HW1 8856   1.881   4.521   0.249 -0.5561  0.5761 -0.8322
  947SOL    HW2 8857   1.887   4.373   0.180  0.0091 -0.5028  1.3999
  948SOL     OW 8858   1.789   2.756   0.886  0.1129 -0.6047  0.2693
  948SOL    HW1 8859   1.803   2.843   0.840  2.9224 -0.5151  1.0722
  948SOL    HW2 8860   1.752   2.772   0.978 -2.0113 -0.5281 -0.5505
  949SOL     OW 8861   2.044   3.028   1.088  0.0365 -0.1903 -0.2029
  949SOL    HW1 8862   2.012   3.112   1.045 -2.4114 -1.0453 -0.1906
  949SOL    HW2 8863   2.133   3.003   1.049 -0.6155  0.7421 -2.4613
  950SOL     OW 8864   3.507   1.819   0.265  0.0753 -0.3197 -0.0371
  950SOL    HW1 8865   3.600   1.857   0.273  0.1568 -0.8871  2.5126
  950SOL    HW2 8866   3.512   1.720   0.255 -0.2306 -0.5075  1.4372
  951SOL     OW 8867   1.727   4.199   0.936 -0.4556  0.4818  0.1096
  951SOL    HW1 8868   1.707   4.103   0.914 -0.3009  0.3186  0.6632
  951SOL    HW2 8869   1.687   4.221   1.025  1.0157  0.4160  0.8165
  952SOL     OW 8870   2.552   2.508   5.402 -0.2392 -0.0870 -0.0983
  952SOL    HW1 8871   2.644   2.477   5.379 -0.9914 -1.4387 -1.4291
  952SOL    HW2 8872   2.503   2.532   5.318 -1.0059  0.9747  0.6231
  953SOL     OW 8873   4.905   1.142   1.122 -0.0235  0.2200  0.3283
  953SOL    HW1 8874   4.905   1.167   1.219 -0.2042 -2.9585  1.2934
  953SOL    HW2 8875   4.999   1.135   1.089  0.0549  0.8050  0.4252
  954SOL     OW 8876   3.246   3.129   6.229 -0.3047 -0.0162 -0.1429
  954SOL    HW1 8877   3.211   3.220   6.204 -0.8485 -0.4866 -1.1727
  954SOL    HW2 8878   3.271   3.080   6.147  1.4328 -0.2608  0.5057
  955SOL     OW 8879   0.086   0.311   0.388 -0.6359 -0.2395  0.0904
  955SOL    HW1 8880  -0.012   0.304   0.368 -0.0404 -1.3544 -2.9426
  955SOL    HW2 8881   0.134   0.344   0.307  1.8138 -2.2240  0.6099
  956SOL     OW 8882   0.788   1.215   1.438  0.2681 -0.3233  0.1917
  956SOL    HW1 8883   0.884   1.206   1.464 -0.0781  0.2541  1.7410
  956SOL    HW2 8884   0.730   1.181   1.512 -0.7378  0.0649 -0.3997
  957SOL     OW 8885   3.856   4.752   4.783  0.3157 -0.0546 -0.5306
  957SOL    HW1 8886   3.850   4.747   4.683 -0.2727 -2.1169 -0.4414
  957SOL    HW2 8887   3.947   4.723   4.813  0.8241  1.5004 -0.4750
  958SOL     OW 8888   4.560   5.518   5.373  0.3784  0.1809  0.4256
  958SOL    HW1 8889   4.503   5.600   5.373 -1.2227 -0.8324  2.1438
  958SOL    HW2 8890   4.548   5.469   5.287 -0.4283  0.6264  0.2674
  959SOL     OW 8891   3.101   4.865   6.162 -0.3957 -0.6258  0.0014
  959SOL    HW1 8892   3.018   4.851   6.108 -0.0637 -0.0545 -0.6605
  959SOL    HW2 8893   3.130   4.777   6.200 -0.7812 -0.9909 -0.5236
  960SOL     OW 8894   1.531   1.366   5.140  0.0148  0.1175  0.3128
  960SOL    HW1 8895   1.524   1.276   5.182  1.5549 -0.7126 -1.0940
  960SOL    HW2 8896   1.469   1.371   5.062 -0.3448  0.4366  0.6121
  961SOL     OW 8897   5.936   0.534   5.907  0.1155 -1.0420  0.4895
  961SOL    HW1 8898   5.927   0.608   5.973  0.5541 -0.2633 -0.2950
  961SOL    HW2 8899   5.892   0.451   5.942  0.4303 -0.6788  1.7854
  962SOL     OW 8900   5.509   3.153   1.231 -0.5592 -0.0895  0.5591
  962SOL    HW1 8901   5.543   3.100   1.309 -0.0297 -0.6158 -0.0255
  962SOL    HW2 8902   5.445   3.222   1.264 -1.6852 -1.4253  1.2963
  963SOL     OW 8903   2.926   2.300   1.009 -0.6084  0.2649  0.4631
  963SOL    HW1 8904   2.875   2.275   1.091  2.3487  0.9511  2.6535
  963SOL    HW2 8905   2.999   2.233   0.994 -1.4885 -0.2236 -2.0694
  964SOL     OW 8906   5.378   2.832   0.031  0.3936 -0.0155  0.0747
  964SOL    HW1 8907   5.418   2.883  -0.045 -0.3628  0.9669  0.3119
  964SOL    HW2 8908   5.278   2.831   0.021  0.1150  1.7241  1.9859
  965SOL     OW 8909   4.091   1.395   0.590  0.0053 -0.1824  0.0231
  965SOL    HW1 8910   4.002   1.363   0.622  0.0515 -0.7765 -0.4275
  965SOL    HW2 8911   4.079   1.480   0.538 -0.0398  0.9496  1.7724
  966SOL     OW 8912   0.408   5.598   6.007 -0.2360  0.0751 -0.5230
  966SOL    HW1 8913   0.471   5.532   5.967 -0.0996  0.3927 -0.8370
  966SOL    HW2 8914   0.460   5.675   6.044 -0.3998  0.0545 -0.2446
  967SOL     OW 8915   2.089   2.034   6.135 -0.3772  0.3128 -0.4214
  967SOL    HW1 8916   2.008   2.003   6.186 -0.4612 -0.4442 -0.9966
  967SOL    HW2 8917   2.172   1.999   6.180 -0.4691 -0.7415 -1.0343
  968SOL     OW 8918   1.084   5.379   0.715 -0.6833  0.0793  0.0593
  968SOL    HW1 8919   1.029   5.427   0.646 -2.5485 -0.0463  1.3603
  968SOL    HW2 8920   1.085   5.433   0.800  0.8834 -0.1435  0.2041
  969SOL     OW 8921   4.421   2.173   6.031  0.4347  0.3798  0.2159
  969SOL    HW1 8922   4.364   2.225   5.968  0.0692 -0.2407  0.0187
  969SOL    HW2 8923   4.466   2.235   6.095 -0.5467  0.8766  0.4393
  970SOL     OW 8924   4.674   1.808   6.511  0.4013 -0.0663 -0.4166
  970SOL    HW1 8925   4.721   1.884   6.466 -0.5309  0.5348 -0.3830
  970SOL    HW2 8926   4.693   1.723   6.461 -1.0452  0.6507 -2.2891
  971SOL     OW 8927   4.309   1.238   1.422 -0.6229 -0.5897 -0.4694
  971SOL    HW1 8928   4.262   1.167   1.369 -0.5170 -2.2134  1.4824
  971SOL    HW2 8929   4.402   1.209   1.442 -0.2249  0.6015 -0.5366
  972SOL     OW 8930   3.792   3.231   6.324 -0.3972 -0.8757  0.6081
  972SOL    HW1 8931   3.738   3.215   6.407 -3.0325 -0.4204 -0.9101
  972SOL    HW2 8932   3.780   3.326   6.295  1.8153 -0.5684  0.5418
  973SOL     OW 8933   0.346   3.474   4.963  0.2700 -0.0921  0.0919
  973SOL    HW1 8934   0.308   3.381   4.969  1.0424 -0.3906  0.5114
  973SOL    HW2 8935   0.272   3.539   4.948 -0.4302 -0.6562  0.9720
  974SOL     OW 8936   4.830   2.146   6.169 -0.1945 -0.3699  0.9501
  974SOL    HW1 8937   4.779   2.196   6.239 -1.4307 -1.3152  0.7477
  974SOL    HW2 8938   4.870   2.210   6.104 -0.9216  0.3932  1.2513
  975SOL     OW 8939   3.712   4.532   0.965  0.1832  0.7619 -0.0031
  975SOL    HW1 8940   3.669   4.612   0.923 -2.9577 -0.0744  1.3248
  975SOL    HW2 8941   3.669   4.449   0.932  2.1147 -0.3169  0.0550
  976SOL     OW 8942   2.848   0.742   0.818 -0.5854  0.1992  0.7086
  976SOL    HW1 8943   2.880   0.832   0.849  0.3899 -0.7844  2.7878
  976SOL    HW2 8944   2.789   0.702   0.888  0.3965 -1.4755  0.6217
  977SOL     OW 8945   4.669   3.546   5.493  0.6376 -0.1193 -0.5573
  977SOL    HW1 8946   4.621   3.482   5.433  1.4041 -0.2198 -1.0754
  977SOL    HW2 8947   4.602   3.606   5.538  0.0360 -0.1544 -1.3832
  978SOL     OW 8948   5.461   4.927   0.714  0.4124 -0.6217 -0.0577
  978SOL    HW1 8949   5.431   4.975   0.632  1.0278  1.8698  1.0574
  978SOL    HW2 8950   5.559   4.910   0.709  0.7669  0.9962  0.7758
  979SOL     OW 8951   3.812   2.100   6.509 -0.4379  0.3511 -0.2127
  979SOL    HW1 8952   3.763   2.184   6.530 -0.4965  0.0310  0.9919
  979SOL    HW2 8953   3.906   2.107   6.542 -0.8073 -0.5339  1.1144
  980SOL     OW 8954   3.380   3.479   5.442  0.0539 -0.3234 -0.6349
  980SOL    HW1 8955   3.415   3.564   5.482  1.1086 -0.7861 -0.5346
  980SOL    HW2 8956   3.457   3.421   5.415 -0.6520 -1.2021 -0.7990
  981SOL     OW 8957   1.052   3.218   5.839  0.0213  0.2925  0.0324
  981SOL    HW1 8958   0.977   3.257   5.785 -0.1050  0.4384  0.3142
  981SOL    HW2 8959   1.031   3.123   5.860 -0.3054  0.4717  0.5188
  982SOL     OW 8960   4.472   4.841   1.506 -0.3910  0.6467  0.3516
  982SOL    HW1 8961   4.391   4.871   1.557 -0.6145 -0.3654  0.6062
  982SOL    HW2 8962   4.529   4.784   1.564  0.7575  1.7201  0.3157
  983SOL     OW 8963   4.347   3.118   0.374  0.3601  0.0174 -0.2601
  983SOL    HW1 8964   4.401   3.195   0.338  0.2016 -0.6759 -2.0765
  983SOL    HW2 8965   4.299   3.148   0.457 -3.2298  3.4394 -3.1318
  984SOL     OW 8966   1.233   0.655   5.677  0.6397  0.0148  0.1671
  984SOL    HW1 8967   1.186   0.671   5.764  0.5549 -1.3466  0.3920
  984SOL    HW2 8968   1.217   0.732   5.615  1.0086  1.1816  1.4771
  985SOL     OW 8969   1.911   2.980   0.758  0.3140 -0.2228  0.8045
  985SOL    HW1 8970   1.853   2.960   0.679  0.4362  0.3414  0.5707
  985SOL    HW2 8971   1.927   3.078   0.764  1.8681 -0.4248  0.4260
  986SOL     OW 8972   0.496   2.369   6.082 -0.2657  0.0547  0.1431
  986SOL    HW1 8973   0.461   2.324   6.000 -1.1153 -1.7064  1.4166
  986SOL    HW2 8974   0.419   2.401   6.138  0.2600 -0.1716  1.0094
  987SOL     OW 8975   4.441   1.993   5.202 -0.0386 -0.1996 -0.0977
  987SOL    HW1 8976   4.449   1.955   5.110  3.0486  0.6881 -0.3187
  987SOL    HW2 8977   4.503   2.071   5.211 -1.8512  1.0990  2.1176
  988SOL     OW 8978   4.431   6.369   0.145 -0.1103  0.1023 -0.5059
  988SOL    HW1 8979   4.491   6.444   0.117 -0.0949 -0.6287 -2.6165
  988SOL    HW2 8980   4.438   6.355   0.244  1.2776  1.6552 -0.3488
  989SOL     OW 8981   3.726   0.175   1.090 -0.2708 -0.4832  0.2880
  989SOL    HW1 8982   3.654   0.173   1.020 -1.6566 -0.6706  1.6566
  989SOL    HW2 8983   3.815   0.171   1.046 -1.0630  0.3685 -1.5107
  990SOL     OW 8984   2.369   2.341   0.351 -0.4227 -0.3324 -0.0158
  990SOL    HW1 8985   2.356   2.390   0.265  1.0899 -0.1279 -0.1602
  990SOL    HW2 8986   2.465   2.346   0.377 -0.1816 -3.2916 -0.0583
  991SOL     OW 8987   1.704   4.097   1.381 -0.1760  0.1196 -0.3742
  991SOL    HW1 8988   1.774   4.111   1.452 -0.1146 -0.3807 -0.3345
  991SOL    HW2 8989   1.669   4.004   1.387 -0.8297  0.3622 -0.4168
  992SOL     OW 8990   1.779   4.776   5.637 -0.0024  0.5476 -0.1199
  992SOL    HW1 8991   1.730   4.766   5.550  1.5845  0.5412 -1.0560
  992SOL    HW2 8992   1.716   4.810   5.707 -0.9785  2.1658 -1.6811
  993SOL     OW 8993   0.757   4.313   6.169  0.2441  0.4014 -0.0886
  993SOL    HW1 8994   0.775   4.248   6.243  0.6335  1.3250  0.6425
  993SOL    HW2 8995   0.733   4.402   6.208  0.4246  0.8881 -1.0712
  994SOL     OW 8996   1.816   1.389   5.136 -0.5967  0.3927 -0.3579
  994SOL    HW1 8997   1.826   1.376   5.037 -1.5287  2.2302 -0.7544
  994SOL    HW2 8998   1.719   1.387   5.160 -0.3015 -3.8906  1.2156
  995SOL     OW 8999   3.736   4.010   0.532  0.5205 -0.2463  0.0495
  995SOL    HW1 9000   3.738   3.972   0.439 -0.8129 -0.7374  0.1999
  995SOL    HW2 9001   3.788   4.096   0.534  1.0032 -0.4981 -1.0207
  996SOL     OW 9002   2.159   0.310   5.806  0.2774  0.6862  0.6393
  996SOL    HW1 9003   2.075   0.348   5.844 -0.7780  0.4617 -1.3716
  996SOL    HW2 9004   2.201   0.377   5.744  0.5611  0.0632  0.1565
  997SOL     OW 9005   4.812   5.265   0.498 -0.9799  0.2434 -0.3519
  997SOL    HW1 9006   4.796   5.182   0.445 -1.4330 -0.8407  1.3830
  997SOL    HW2 9007   4.757   5.261   0.582  1.2508  0.8560  1.2231
  998SOL     OW 9008   3.837   5.940   0.956 -0.3381  0.1388  0.8736
  998SOL    HW1 9009   3.922   5.990   0.973  0.0834 -0.5790  0.8931
  998SOL    HW2 9010   3.760   6.004   0.959  0.2251  0.8484  0.5466
  999SOL     OW 9011   1.630   3.327   6.343 -0.0465 -0.3147  0.0547
  999SOL    HW1 9012   1.703   3.383   6.303 -0.7669 -0.2469 -1.2354
  999SOL    HW2 9013   1.550   3.384   6.359 -0.5284 -0.7940 -0.5596
 1000SOL     OW 9014   2.238   2.340   5.176 -0.2641  0.0956  0.1912
 1000SOL    HW1 9015   2.228   2.340   5.077 -1.6419  0.2366  0.3182
 1000SOL    HW2 9016   2.283   2.255   5.205 -2.3719 -1.2725 -0.3483
 1001SOL     OW 9017   5.676   4.473   1.411 -0.2010 -0.3269  0.1414
 1001SOL    HW1 9018   5.771   4.441   1.407  0.4667  1.6660 -2.9429
 1001SOL    HW2 9019   5.654   4.500   1.505  1.4465 -2.9264  1.4053
 1002SOL     OW 9020   4.081   4.321   1.241  0.1766  0.8955 -0.1998
 1002SOL    HW1 9021   4.064   4.309   1.338  1.4422  1.8086  0.1542
 1002SOL    HW2 9022   4.063   4.416   1.215  1.6341  1.1270 -0.4453
 1003SOL     OW 9023   3.122   2.032   5.900 -0.5673  0.0256 -0.4426
 1003SOL    HW1 9024   3.118   2.015   5.998  0.5863 -0.0919 -0.4055
 1003SOL    HW2 9025   3.172   1.958   5.855 -0.5181  0.4127 -1.0373
 1004SOL     OW 9026   5.381   4.469   4.742 -0.0077  0.2393  0.2148
 1004SOL    HW1 9027   5.422   4.549   4.699 -1.3188  1.5516  1.3126
 1004SOL    HW2 9028   5.306   4.497   4.802 -0.0054 -1.7489  1.2579
 1005SOL     OW 9029   2.919   0.745   4.394 -0.2669  0.2495  0.4360
 1005SOL    HW1 9030   2.851   0.674   4.411 -0.4150  0.1864 -0.3940
 1005SOL    HW2 9031   2.886   0.833   4.430 -0.1250 -0.0696  1.3730
 1006SOL     OW 9032   0.628   1.130   0.545 -0.6641  0.3217  0.6784
 1006SOL    HW1 9033   0.591   1.169   0.461 -1.6312 -0.6575  0.6163
 1006SOL    HW2 9034   0.644   1.032   0.532  1.7025  0.6321  0.8170
 1007SOL     OW 9035   5.439   4.459   1.689 -0.1898  0.0092  0.0067
 1007SOL    HW1 9036   5.523   4.511   1.671  0.2462 -0.1947  1.3271
 1007SOL    HW2 9037   5.363   4.499   1.638  0.3922  1.1998  0.0350
 1008SOL     OW 9038   2.968   1.176   5.785 -0.2609 -0.3716 -0.2441
 1008SOL    HW1 9039   2.962   1.087   5.830 -0.9737  0.2400  0.9298
 1008SOL    HW2 9040   2.917   1.175   5.700  1.2036 -1.5905 -1.1525
 1009SOL     OW 9041   5.807   5.161   5.250 -0.1755  0.7135  0.3872
 1009SOL    HW1 9042   5.893   5.112   5.233 -0.3126  0.4305  0.4991
 1009SOL    HW2 9043   5.733   5.095   5.258 -0.6103  1.0199 -0.8743
 1010SOL     OW 9044   6.037   3.044   0.380 -0.9793  0.7346  0.0456
 1010SOL    HW1 9045   6.075   2.975   0.318  0.6864  1.5053  0.1658
 1010SOL    HW2 9046   6.043   3.010   0.474  0.9335  1.4631  0.2268
 1011SOL     OW 9047   3.439   2.632   0.867 -0.5660  0.1977  0.3372
 1011SOL    HW1 9048   3.483   2.696   0.930  0.1831 -1.2916  1.3910
 1011SOL    HW2 9049   3.453   2.538   0.899 -0.4949 -0.6099 -1.8708
 1012SOL     OW 9050   2.800   1.125   6.134  0.2502 -0.3755  0.0318
 1012SOL    HW1 9051   2.838   1.209   6.096 -0.1963 -0.1475  0.0833
 1012SOL    HW2 9052   2.716   1.101   6.084 -0.0723 -0.3440  0.5495
 1013SOL     OW 9053   1.124   1.577   5.409 -0.0213 -0.1581 -0.4587
 1013SOL    HW1 9054   1.088   1.543   5.322 -0.3493 -0.9655 -0.0198
 1013SOL    HW2 9055   1.112   1.677   5.413  2.0694  0.2480 -2.2848
 1014SOL     OW 9056   3.393   0.735   0.697  0.3488  0.2197  0.1814
 1014SOL    HW1 9057   3.401   0.811   0.632  0.9325 -0.6637 -0.8237
 1014SOL    HW2 9058   3.378   0.770   0.789  0.8222  1.5511 -0.2368
 1015SOL     OW 9059   4.567   1.226   6.109 -0.1991  0.4228 -0.1237
 1015SOL    HW1 9060   4.525   1.164   6.176  2.0603 -0.2030  0.8412
 1015SOL    HW2 9061   4.659   1.250   6.140 -0.6875  3.7113 -0.8571
 1016SOL     OW 9062   2.071   5.992   6.350  0.1442 -0.5472  0.1973
 1016SOL    HW1 9063   2.122   6.010   6.434 -1.4840  0.5541  1.0063
 1016SOL    HW2 9064   2.088   6.065   6.284 -1.4937  0.6908  1.0583
 1017SOL     OW 9065   0.554   3.551   5.942  0.6873 -0.0994 -0.0975
 1017SOL    HW1 9066   0.498   3.604   6.005  0.0682  0.0047 -0.7295
 1017SOL    HW2 9067   0.588   3.469   5.989  0.1299 -0.0914  0.3325
 1018SOL     OW 9068   3.504   4.188   5.214  0.9129  0.2970 -0.1540
 1018SOL    HW1 9069   3.454   4.121   5.159  1.0604  1.1667 -1.3963
 1018SOL    HW2 9070   3.504   4.276   5.167 -0.7775  1.6774  2.2140
 1019SOL     OW 9071   0.091   5.791   5.447  0.2878  0.2548  0.8850
 1019SOL    HW1 9072   0.030   5.713   5.428 -1.2719  1.1160  2.0759
 1019SOL    HW2 9073   0.186   5.763   5.432 -0.2978 -1.5072  0.1163
 1020SOL     OW 9074   3.421   3.168   5.571  0.4917  0.0561 -0.7850
 1020SOL    HW1 9075   3.326   3.150   5.547 -0.2485 -0.1302  2.0040
 1020SOL    HW2 9076   3.459   3.235   5.508 -0.8528 -1.2507 -3.1244
 1021SOL     OW 9077   4.313   0.317   0.858  0.5541  0.2976 -0.0009
 1021SOL    HW1 9078   4.230   0.365   0.884 -0.8701 -1.8502 -0.3007
 1021SOL    HW2 9079   4.336   0.250   0.929  2.2053  1.0074  0.1906
 1022SOL     OW 9080   5.579   0.320   1.153  0.0859 -0.6215  0.3173
 1022SOL    HW1 9081   5.650   0.351   1.216  0.5224 -1.2419  0.1434
 1022SOL    HW2 9082   5.599   0.354   1.061 -1.7456  2.2002  0.8384
 1023SOL     OW 9083   1.374   5.996   4.905  0.1369 -0.6401 -0.2045
 1023SOL    HW1 9084   1.406   5.908   4.869 -0.7518 -0.6644 -0.9815
 1023SOL    HW2 9085   1.276   6.004   4.891  0.3890  1.0200 -1.3589
 1024SOL     OW 9086   0.785   4.989   6.157  0.0598  0.3051 -0.1242
 1024SOL    HW1 9087   0.701   4.996   6.103  0.8738 -0.7637 -1.5496
 1024SOL    HW2 9088   0.858   5.041   6.113  0.9800 -1.3253 -0.5702
 1025SOL     OW 9089   5.609   2.835   0.177 -0.2629 -0.1317  0.0876
 1025SOL    HW1 9090   5.525   2.819   0.124 -1.4387  0.0332  1.8193
 1025SOL    HW2 9091   5.671   2.892   0.124 -0.3854 -1.8415 -2.0267
 1026SOL     OW 9092   3.301   0.927   6.114 -0.6488  0.0354 -0.3705
 1026SOL    HW1 9093   3.215   0.939   6.164 -1.2545  0.0869 -1.4063
 1026SOL    HW2 9094   3.307   0.995   6.041  1.1498  1.2742  0.8526
 1027SOL     OW 9095   5.160   2.880   5.566 -0.4932 -0.4156 -0.2300
 1027SOL    HW1 9096   5.198   2.801   5.518  1.5710  0.7782 -0.6573
 1027SOL    HW2 9097   5.076   2.910   5.520 -0.9302 -1.8993 -0.4626
 1028SOL     OW 9098   3.472   1.517   0.949  0.1461 -0.2437  0.3479
 1028SOL    HW1 9099   3.386   1.508   1.000 -0.1240  2.3312  0.4949
 1028SOL    HW2 9100   3.470   1.457   0.869 -1.3602 -0.9843  0.9093
 1029SOL     OW 9101   2.975   1.430   4.719 -0.5333 -0.9424 -0.6507
 1029SOL    HW1 9102   2.909   1.372   4.671  0.1303 -0.4906 -2.1759
 1029SOL    HW2 9103   3.031   1.479   4.652 -0.7795  1.1424  0.5895
 1030SOL     OW 9104   4.131   0.099   0.043 -0.4652 -0.1807  0.0850
 1030SOL    HW1 9105   4.032   0.094   0.030 -0.3092 -1.8444 -0.7299
 1030SOL    HW2 9106   4.173   0.014   0.013  1.1170  0.0578  1.4326
 1031SOL     OW 9107   3.242   5.370   5.343  0.0535 -1.0003 -0.3464
 1031SOL    HW1 9108   3.224   5.434   5.418  0.2980 -0.8414 -0.4190
 1031SOL    HW2 9109   3.222   5.415   5.255 -0.6896 -1.3456 -0.3596
 1032SOL     OW 9110   1.137   2.457   6.258 -0.6710 -0.0094 -0.0909
 1032SOL    HW1 9111   1.156   2.370   6.303 -1.7736 -0.1598  0.1181
 1032SOL    HW2 9112   1.186   2.530   6.304 -0.8068 -0.3360  0.5846
 1033SOL     OW 9113   0.845   2.910   6.424  0.3687 -0.1504 -0.1359
 1033SOL    HW1 9114   0.786   2.981   6.462  0.9647 -0.7412  2.0694
 1033SOL    HW2 9115   0.911   2.882   6.494  1.3842 -1.5315 -1.5899
 1034SOL     OW 9116   5.080   5.552   0.082 -0.6458  0.2181  0.0381
 1034SOL    HW1 9117   5.154   5.613   0.112 -1.9089  1.6414  0.3591
 1034SOL    HW2 9118   5.046   5.501   0.161  0.5001 -1.0428 -0.2541
 1035SOL     OW 9119   2.786   0.969   4.794 -0.4178 -0.2108 -0.1058
 1035SOL    HW1 9120   2.762   0.876   4.769 -1.1628 -0.5422  1.7141
 1035SOL    HW2 9121   2.853   1.005   4.729 -1.3827 -1.3809 -1.8324
 1036SOL     OW 9122   0.324   5.798   0.123  0.3211 -0.1471  0.0373
 1036SOL    HW1 9123   0.357   5.706   0.101  1.4835 -0.2569  1.9802
 1036SOL    HW2 9124   0.230   5.792   0.158 -0.1476 -0.3903 -1.2156
 1037SOL     OW 9125   3.960   4.530   6.436 -0.3675  0.4083 -0.1034
 1037SOL    HW1 9126   4.015   4.578   6.367  0.0474  0.5319  0.3029
 1037SOL    HW2 9127   3.991   4.435   6.442 -0.4380  0.3845 -0.1274
 1038SOL     OW 9128   6.212   1.447   6.352 -0.2451  0.2116  0.5561
 1038SOL    HW1 9129   6.251   1.362   6.388 -1.0144 -0.8627 -1.0534
 1038SOL    HW2 9130   6.120   1.459   6.387  0.1448  0.8311  1.4157
 1039SOL     OW 9131   0.785   4.911   6.432  0.0421  0.1009  0.5095
 1039SOL    HW1 9132   0.723   4.833   6.430 -0.2019  0.2924  0.6243
 1039SOL    HW2 9133   0.768   4.969   6.352  0.5694 -0.2283  0.1495
 1040SOL     OW 9134   1.575   2.637   6.288  0.3370 -0.0300 -0.5477
 1040SOL    HW1 9135   1.634   2.694   6.231  0.7894  0.9653  0.8571
 1040SOL    HW2 9136   1.602   2.646   6.384 -0.0995 -2.0148 -0.1812
 1041SOL     OW 9137   4.891   2.587   0.852  0.5188 -0.0257 -0.5317
 1041SOL    HW1 9138   4.821   2.530   0.810 -1.3158  2.9638 -1.9270
 1041SOL    HW2 9139   4.851   2.640   0.927  1.3860  1.3188 -0.9654
 1042SOL     OW 9140   2.312   1.101   5.013 -0.1877 -0.3895 -0.1726
 1042SOL    HW1 9141   2.216   1.127   5.010  0.0190  0.4773  0.3534
 1042SOL    HW2 9142   2.367   1.171   4.968  0.0997 -1.4801 -1.5818
 1043SOL     OW 9143   2.356   5.888   4.292  0.2742  0.9232  0.0088
 1043SOL    HW1 9144   2.334   5.975   4.247 -0.9166 -0.7171 -2.8558
 1043SOL    HW2 9145   2.272   5.842   4.318  0.8903  0.5076  1.3473
 1044SOL     OW 9146   2.638   0.689   0.329 -0.2993  0.1408 -0.0221
 1044SOL    HW1 9147   2.686   0.611   0.290 -1.1403  0.0480 -0.9079
 1044SOL    HW2 9148   2.697   0.736   0.395 -0.0645 -1.7417  1.1806
 1045SOL     OW 9149   3.848   3.510   5.004  0.3224  0.2221  0.2418
 1045SOL    HW1 9150   3.889   3.452   4.934  0.9576 -0.3542  1.0738
 1045SOL    HW2 9151   3.772   3.462   5.048 -0.3780  0.7601 -0.3520
 1046SOL     OW 9152   4.629   1.924   1.417  0.2844 -0.6222 -0.3864
 1046SOL    HW1 9153   4.548   1.869   1.395  0.7776 -0.9177 -1.5752
 1046SOL    HW2 9154   4.709   1.864   1.426  0.3670 -0.3468  0.9089
 1047SOL     OW 9155   6.215   0.277   0.303 -0.0885  0.0720 -0.1690
 1047SOL    HW1 9156   6.147   0.334   0.258  1.4136  0.6219 -1.9034
 1047SOL    HW2 9157   6.174   0.189   0.327 -1.4021  0.3722 -1.1756
 1048SOL     OW 9158   1.222   3.581   1.481 -0.0506 -0.3836  0.1394
 1048SOL    HW1 9159   1.159   3.638   1.534 -1.7167 -0.8985 -1.1657
 1048SOL    HW2 9160   1.292   3.639   1.438 -2.0313  0.8801 -1.6217
 1049SOL     OW 9161   1.327   2.465   5.617 -0.2521 -0.2620  0.0152
 1049SOL    HW1 9162   1.351   2.475   5.520 -1.1840 -1.5576 -0.3745
 1049SOL    HW2 9163   1.392   2.402   5.660  0.9434  1.2867  0.5843
 1050SOL     OW 9164   2.127   1.847   5.527 -0.3176  0.1393  0.2486
 1050SOL    HW1 9165   2.218   1.872   5.561 -0.3087  1.0223 -0.3757
 1050SOL    HW2 9166   2.085   1.927   5.484 -2.1374  0.2517  2.0843
 1051SOL     OW 9167   6.139   1.190   5.418 -0.8954  0.3109  0.2713
 1051SOL    HW1 9168   6.134   1.155   5.511 -2.7282  0.2281  0.1814
 1051SOL    HW2 9169   6.087   1.275   5.412 -2.0732 -0.4595 -0.9785
 1052SOL     OW 9170   0.923   5.382   5.006  0.7015  0.3190 -0.2526
 1052SOL    HW1 9171   0.903   5.301   4.951  0.4169  0.1269  0.1291
 1052SOL    HW2 9172   0.955   5.456   4.946  1.7485 -0.3216 -0.5138
 1053SOL     OW 9173   1.128   2.549   1.137 -0.5558 -0.2977 -0.3190
 1053SOL    HW1 9174   1.150   2.635   1.182 -2.5782  0.9406 -1.4949
 1053SOL    HW2 9175   1.185   2.476   1.174  3.6648  2.0364 -1.5418
 1054SOL     OW 9176   1.208   0.769   5.990 -0.0947 -0.3382 -0.3140
 1054SOL    HW1 9177   1.181   0.840   6.055 -0.3598 -1.4264  0.8037
 1054SOL    HW2 9178   1.141   0.695   5.991  0.9577 -1.3252 -0.2930
 1055SOL     OW 9179   0.446   4.587   5.587 -0.1229 -0.3899  0.0509
 1055SOL    HW1 9180   0.419   4.513   5.648 -2.3585  1.0973  0.9832
 1055SOL    HW2 9181   0.375   4.657   5.584  1.8485  1.7421 -0.8286
 1056SOL     OW 9182   5.522   4.042   0.317 -0.5902 -0.2978  0.1538
 1056SOL    HW1 9183   5.613   4.050   0.276 -0.3131 -1.0243  0.6058
 1056SOL    HW2 9184   5.452   4.047   0.245 -0.2655  1.4162 -0.0825
 1057SOL     OW 9185   2.571   4.742   0.920  0.4327 -0.3761  0.8790
 1057SOL    HW1 9186   2.512   4.689   0.859 -0.1329  0.2098  0.8981
 1057SOL    HW2 9187   2.619   4.680   0.982  0.1930 -0.8990  0.5507
 1058SOL     OW 9188   2.282   1.116   5.658  0.3894  0.6530 -0.5785
 1058SOL    HW1 9189   2.237   1.029   5.677  0.6356  0.7770  0.6323
 1058SOL    HW2 9190   2.219   1.191   5.673 -0.6085  0.6603 -3.9604
 1059SOL     OW 9191   5.116   6.017   5.292  0.8808 -0.3838  0.4487
 1059SOL    HW1 9192   5.155   6.100   5.252 -2.4311  2.3868  2.4023
 1059SOL    HW2 9193   5.064   5.968   5.223 -0.2784  1.3220  0.0505
 1060SOL     OW 9194   0.827   4.005   6.089  0.4890 -0.2506 -0.0723
 1060SOL    HW1 9195   0.740   3.991   6.136  0.3825 -0.3010 -0.2815
 1060SOL    HW2 9196   0.824   4.091   6.038  0.8695  0.1654  0.5991
 1061SOL     OW 9197   2.505   0.492   5.825  0.1122 -0.2256  0.3169
 1061SOL    HW1 9198   2.452   0.558   5.878 -1.2013  0.1835 -1.4257
 1061SOL    HW2 9199   2.497   0.401   5.868 -1.7875 -0.1200  0.2917
 1062SOL     OW 9200   2.967   5.716   4.683  0.3105  0.0832 -0.3589
 1062SOL    HW1 9201   2.910   5.798   4.684 -1.4147 -1.0690  0.3193
 1062SOL    HW2 9202   2.968   5.678   4.591 -1.4274 -0.7738 -0.0733
 1063SOL     OW 9203   3.133   2.268   1.708  0.0940 -0.0740 -0.2117
 1063SOL    HW1 9204   3.109   2.173   1.729 -1.7206  0.1976 -0.8249
 1063SOL    HW2 9205   3.091   2.294   1.621 -2.1424  2.1900  1.3915
 1064SOL     OW 9206   5.369   3.436   6.430 -0.2867 -0.2586 -0.1200
 1064SOL    HW1 9207   5.428   3.356   6.419 -1.8602 -1.7218  1.3851
 1064SOL    HW2 9208   5.360   3.458   6.527 -3.4004 -1.1244 -0.1091
 1065SOL     OW 9209   4.655   4.835   0.085 -0.2614 -0.5898  0.5567
 1065SOL    HW1 9210   4.669   4.736   0.088 -0.1632 -0.5719  0.7514
 1065SOL    HW2 9211   4.725   4.878   0.028  0.0447 -0.5750  0.9403
 1066SOL     OW 9212   1.987   1.562   5.431 -0.5433 -0.2777  0.0089
 1066SOL    HW1 9213   2.022   1.656   5.427  0.1367 -0.5600 -1.9923
 1066SOL    HW2 9214   1.970   1.536   5.526 -1.6490  2.1732  0.5488
 1067SOL     OW 9215   2.447   1.905   0.481 -0.1921 -0.3230 -0.3852
 1067SOL    HW1 9216   2.480   1.922   0.574 -0.8704 -0.4497 -0.1185
 1067SOL    HW2 9217   2.422   1.809   0.472  2.0743 -0.8913 -1.4007
 1068SOL     OW 9218   4.953   3.111   5.526 -0.2319  0.9259 -0.1284
 1068SOL    HW1 9219   4.948   3.045   5.451  1.9262  1.4241 -0.7768
 1068SOL    HW2 9220   5.004   3.191   5.496 -0.0578  1.5069  1.6270
 1069SOL     OW 9221   5.033   5.871   5.082  0.1628 -0.0618 -0.1764
 1069SOL    HW1 9222   4.972   5.915   5.015  0.5448  0.7131 -0.0354
 1069SOL    HW2 9223   4.979   5.817   5.146 -0.5955  1.9205  0.9536
 1070SOL     OW 9224   0.792   5.170   0.761  0.0095 -0.0593 -0.1410
 1070SOL    HW1 9225   0.699   5.174   0.797  0.5833 -0.8023  1.5218
 1070SOL    HW2 9226   0.836   5.258   0.773  0.4189 -0.4792  1.7178
 1071SOL     OW 9227   4.140   2.081   5.585  0.0396  0.8626  0.1282
 1071SOL    HW1 9228   4.191   2.081   5.499 -1.8483  2.4098 -1.0737
 1071SOL    HW2 9229   4.155   2.168   5.632 -1.2911  1.2782 -0.1674
 1072SOL     OW 9230   3.297   1.804   5.764 -0.0759 -0.1849 -0.4188
 1072SOL    HW1 9231   3.355   1.786   5.685 -1.4700 -1.2580 -1.2363
 1072SOL    HW2 9232   3.237   1.726   5.780 -1.6878  1.1066  0.0393
 1073SOL     OW 9233   2.755   3.249   6.069  0.0522  0.7124 -0.4102
 1073SOL    HW1 9234   2.738   3.221   6.163 -0.2258 -0.8100 -0.8869
 1073SOL    HW2 9235   2.839   3.206   6.037  0.1843  1.2828 -0.8453
 1074SOL     OW 9236   4.927   2.449   0.463 -0.2584 -0.2127  0.3434
 1074SOL    HW1 9237   4.908   2.504   0.544  0.5789  0.9878 -0.2390
 1074SOL    HW2 9238   4.853   2.383   0.449 -2.2575  1.9489  0.0745
 1075SOL     OW 9239   4.523   1.435   6.504 -0.0031 -0.1713 -0.0186
 1075SOL    HW1 9240   4.568   1.346   6.495  0.2498 -0.0458  0.0074
 1075SOL    HW2 9241   4.585   1.507   6.472 -0.1582  0.0080  0.0872
 1076SOL     OW 9242   1.484   6.295   0.822  0.2313 -0.2622 -0.4289
 1076SOL    HW1 9243   1.485   6.352   0.904 -1.0349  1.3636 -1.4742
 1076SOL    HW2 9244   1.557   6.324   0.760 -0.2376  0.0525 -0.8429
 1077SOL     OW 9245   1.447   2.969   5.631  0.3628  0.0449 -0.5019
 1077SOL    HW1 9246   1.407   2.883   5.665 -0.1662  0.7583  0.7227
 1077SOL    HW2 9247   1.389   3.046   5.657  1.9023  0.9893  0.2380
 1078SOL     OW 9248   4.794   1.801   5.377  0.1179  0.0902 -0.1198
 1078SOL    HW1 9249   4.748   1.712   5.379 -0.1709  0.2491  0.6101
 1078SOL    HW2 9250   4.792   1.837   5.284 -1.0250 -0.0174 -0.1499
 1079SOL     OW 9251   6.086   6.050   0.494 -0.3683 -0.3176 -0.0915
 1079SOL    HW1 9252   6.137   5.997   0.562 -0.5069 -1.6178 -0.9592
 1079SOL    HW2 9253   6.030   6.119   0.541  0.1749 -0.6230  1.0435
 1080SOL     OW 9254   5.107   5.161   1.933  0.2976  0.4937 -0.0723
 1080SOL    HW1 9255   5.162   5.150   2.016 -0.1444  2.0534  0.4725
 1080SOL    HW2 9256   5.116   5.255   1.900 -0.5607  0.2425 -1.0497
 1081SOL     OW 9257   1.481   3.376   5.771 -0.4885  1.3736 -0.0585
 1081SOL    HW1 9258   1.418   3.298   5.784 -0.8465  1.2145 -2.3790
 1081SOL    HW2 9259   1.446   3.455   5.821 -0.6298  0.3330  1.5594
 1082SOL     OW 9260   3.236   1.733   5.201 -1.0765  0.0257  0.4138
 1082SOL    HW1 9261   3.301   1.759   5.272 -1.7884 -0.1470  1.1443
 1082SOL    HW2 9262   3.283   1.725   5.113 -0.2085  0.3543  0.8454
 1083SOL     OW 9263   2.972   4.459   5.735 -0.2484  0.0667 -0.5107
 1083SOL    HW1 9264   2.966   4.488   5.640  0.4659  0.0402 -0.5649
 1083SOL    HW2 9265   3.056   4.494   5.777 -0.5760  0.1191  0.1249
 1084SOL     OW 9266   2.280   5.874   4.938 -0.6709 -0.0519  0.3200
 1084SOL    HW1 9267   2.184   5.899   4.949 -0.9166 -0.9750  0.3110
 1084SOL    HW2 9268   2.299   5.855   4.842  0.0323  2.0941 -0.0411
 1085SOL     OW 9269   2.834   0.705   6.047  0.5659  0.2527 -0.2053
 1085SOL    HW1 9270   2.844   0.743   6.139 -2.3632 -1.9668  1.1878
 1085SOL    HW2 9271   2.870   0.612   6.046 -2.3705 -0.9739 -0.2442
 1086SOL     OW 9272   2.796   3.499   6.158  0.1825  0.1684 -0.3267
 1086SOL    HW1 9273   2.761   3.405   6.152  0.7849 -0.1136  0.5330
 1086SOL    HW2 9274   2.759   3.552   6.081  0.4516 -0.9621 -1.2650
 1087SOL     OW 9275   2.190   3.829   5.741 -0.0777 -0.2470 -0.0661
 1087SOL    HW1 9276   2.138   3.761   5.794 -0.7886 -0.1129 -0.5732
 1087SOL    HW2 9277   2.284   3.798   5.731 -0.5659 -1.5294 -0.9061
 1088SOL     OW 9278   5.186   1.471   5.132 -0.1866  0.4223  0.5757
 1088SOL    HW1 9279   5.221   1.380   5.109  3.5691  1.9926 -0.8183
 1088SOL    HW2 9280   5.131   1.506   5.056  2.1727  0.9181 -1.0495
 1089SOL     OW 9281   3.491   0.770   0.220 -0.1413 -0.4122  0.6076
 1089SOL    HW1 9282   3.559   0.826   0.173 -1.1242 -0.5074 -1.0077
 1089SOL    HW2 9283   3.523   0.675   0.224  0.3528 -0.2343  0.9623
 1090SOL     OW 9284   0.490   4.544   0.476 -0.6438  0.4589  0.3570
 1090SOL    HW1 9285   0.542   4.524   0.559  0.3022 -2.0295 -0.7174
 1090SOL    HW2 9286   0.433   4.625   0.491  1.5739  1.7653  2.4489
 1091SOL     OW 9287   5.250   1.428   5.878  0.0521  0.4867 -0.6254
 1091SOL    HW1 9288   5.207   1.496   5.819  1.5551  1.9732 -0.0671
 1091SOL    HW2 9289   5.242   1.338   5.836 -1.2489  1.1015 -1.7788
 1092SOL     OW 9290   5.692   3.161   0.711 -0.2586  0.4404  0.6779
 1092SOL    HW1 9291   5.715   3.173   0.614  3.0263 -2.5901  0.8819
 1092SOL    HW2 9292   5.705   3.247   0.759  0.9494  1.3399 -1.1343
 1093SOL     OW 9293   6.327   4.855   5.752 -0.5088  0.3884 -0.4348
 1093SOL    HW1 9294   6.293   4.825   5.663 -1.0728  1.4290 -0.5862
 1093SOL    HW2 9295   6.367   4.947   5.743 -0.1186  0.2962  0.2917
 1094SOL     OW 9296   0.505   3.984   1.250 -0.4806 -0.0968 -0.2872
 1094SOL    HW1 9297   0.509   4.081   1.227 -0.9376  1.3126  4.5596
 1094SOL    HW2 9298   0.427   3.966   1.311 -1.7444 -4.0775 -2.6623
 1095SOL     OW 9299   0.710   4.891   1.134 -0.6734  0.1054 -0.5598
 1095SOL    HW1 9300   0.755   4.815   1.182 -1.5354  0.5719  1.0478
 1095SOL    HW2 9301   0.779   4.947   1.088  0.0159 -1.3905 -1.4225
 1096SOL     OW 9302   3.989   6.122   1.357  0.2388 -0.2767  0.3920
 1096SOL    HW1 9303   3.949   6.160   1.273  1.1612 -0.5024 -0.1590
 1096SOL    HW2 9304   4.049   6.045   1.334  0.8954 -0.0277  1.2185
 1097SOL     OW 9305   3.102   3.943   0.781  0.5550 -0.1138  0.2112
 1097SOL    HW1 9306   3.040   4.008   0.822  0.6470 -0.5304  1.0311
 1097SOL    HW2 9307   3.051   3.880   0.722  0.0200 -1.1231  1.7153
 1098SOL     OW 9308   3.609   4.182   0.866 -0.1577  0.1504  0.0635
 1098SOL    HW1 9309   3.568   4.243   0.798 -0.5690  1.2939  1.3047
 1098SOL    HW2 9310   3.539   4.121   0.903 -0.2803  0.6154  0.6050
 1099SOL     OW 9311   1.470   0.707   5.957 -0.0659  0.0782  0.0229
 1099SOL    HW1 9312   1.373   0.719   5.979 -0.6896 -1.7499 -1.4919
 1099SOL    HW2 9313   1.499   0.781   5.897 -1.3463 -0.8392 -1.8257
 1100SOL     OW 9314   4.753   2.608   6.048  0.7288 -0.7948 -0.2130
 1100SOL    HW1 9315   4.753   2.580   5.952  2.3256  0.1759 -0.5428
 1100SOL    HW2 9316   4.837   2.577   6.092  0.2305 -0.8133  0.7415
 1101SOL     OW 9317   3.159   3.428   5.261  0.3141  0.0929  0.9205
 1101SOL    HW1 9318   3.143   3.493   5.187  0.3957 -4.2635 -3.4149
 1101SOL    HW2 9319   3.233   3.461   5.319  1.2240  3.2436 -1.7534
 1102SOL     OW 9320   0.521   5.119   5.071  0.0935  0.0428  0.2557
 1102SOL    HW1 9321   0.561   5.193   5.016  0.1588 -0.5278 -0.4747
 1102SOL    HW2 9322   0.462   5.063   5.014  2.6303 -2.4986 -0.0821
 1103SOL     OW 9323   3.556   0.899   5.913 -0.1751  0.0105 -0.3499
 1103SOL    HW1 9324   3.601   0.811   5.898 -1.8160 -1.1528  1.1514
 1103SOL    HW2 9325   3.486   0.913   5.844 -0.2604 -0.1078 -0.2879
 1104SOL     OW 9326   1.588   6.341   0.038 -0.6258 -0.3659  0.2211
 1104SOL    HW1 9327   1.681   6.318   0.067 -0.2530 -0.2171 -0.8076
 1104SOL    HW2 9328   1.591   6.403  -0.040 -1.4977 -2.6439 -1.7787
 1105SOL     OW 9329   3.109   2.010   1.824 -0.1709  0.0430 -0.5125
 1105SOL    HW1 9330   3.016   2.004   1.859 -0.1116 -1.2685 -0.5135
 1105SOL    HW2 9331   3.174   1.993   1.898  0.0369 -0.0572 -0.7169
 1106SOL     OW 9332   3.604   0.736   1.360 -0.3394 -0.1632  0.2091
 1106SOL    HW1 9333   3.594   0.757   1.457 -0.8236  1.4624 -0.1633
 1106SOL    HW2 9334   3.674   0.795   1.320 -0.6438 -0.3274 -0.5879
 1107SOL     OW 9335   5.174   3.714   1.051 -0.0359 -0.4859  0.2080
 1107SOL    HW1 9336   5.175   3.810   1.025  1.3423 -0.7357 -0.7551
 1107SOL    HW2 9337   5.079   3.681   1.052 -0.6988  1.2140  2.0143
 1108SOL     OW 9338   5.455   5.102   5.950  0.8015  0.2518  0.0702
 1108SOL    HW1 9339   5.496   5.012   5.958  1.7796  0.7284  0.5825
 1108SOL    HW2 9340   5.356   5.094   5.961  0.9385 -0.6777  0.7942
 1109SOL     OW 9341   0.808   6.121   6.478  0.3836  0.2526  0.0365
 1109SOL    HW1 9342   0.734   6.185   6.498 -1.4299 -2.0194  1.1257
 1109SOL    HW2 9343   0.895   6.170   6.475 -1.2218  3.3260 -2.8194
 1110SOL     OW 9344   5.598   2.936   6.048  0.1306  0.0117  0.4434
 1110SOL    HW1 9345   5.696   2.924   6.030 -0.1411 -0.7807 -0.5807
 1110SOL    HW2 9346   5.559   2.997   5.979 -0.8739 -2.8744 -1.7280
 1111SOL     OW 9347   5.745   5.285   0.522  0.4763 -0.0774 -0.0251
 1111SOL    HW1 9348   5.705   5.374   0.547  1.6397  0.4138  0.1561
 1111SOL    HW2 9349   5.831   5.300   0.474  0.5690 -1.1140 -0.1973
 1112SOL     OW 9350   5.432   1.157   4.595 -0.0936  0.3781  0.5564
 1112SOL    HW1 9351   5.460   1.231   4.655  1.3748 -0.0615  0.4531
 1112SOL    HW2 9352   5.383   1.087   4.648 -0.6967  0.9810  0.8120
 1113SOL     OW 9353   3.198   5.139   0.872 -0.2849 -0.0700 -0.0677
 1113SOL    HW1 9354   3.172   5.235   0.884  1.4369  0.4452 -0.1108
 1113SOL    HW2 9355   3.283   5.134   0.819  1.8840 -1.3122  3.1735
 1114SOL     OW 9356   0.364   2.653   0.555  0.3533 -0.6088 -0.0782
 1114SOL    HW1 9357   0.386   2.642   0.458 -2.0749  0.5585 -0.8379
 1114SOL    HW2 9358   0.447   2.646   0.609  1.9438 -0.1527 -2.3368
 1115SOL     OW 9359   4.661   2.937   0.114  0.1469 -0.5161 -0.2343
 1115SOL    HW1 9360   4.602   2.952   0.034  1.2714 -0.1646 -1.0174
 1115SOL    HW2 9361   4.720   2.859   0.096  0.8352 -0.0522 -0.0023
 1116SOL     OW 9362   5.373   6.380   5.828  0.2742  0.1339  0.3702
 1116SOL    HW1 9363   5.334   6.342   5.912 -1.8284 -0.1633 -0.6740
 1116SOL    HW2 9364   5.385   6.479   5.839  0.2842  0.0625  1.0877
 1117SOL     OW 9365   4.352   4.859   0.520  0.1612 -0.4314 -0.1945
 1117SOL    HW1 9366   4.351   4.839   0.422  0.3355  1.9439 -0.7587
 1117SOL    HW2 9367   4.421   4.804   0.565 -0.8214 -2.5561 -1.1223
 1118SOL     OW 9368   3.062   2.398   4.442 -0.1536 -1.3281  0.1185
 1118SOL    HW1 9369   3.124   2.475   4.433 -0.6212 -0.9187  0.3860
 1118SOL    HW2 9370   2.993   2.402   4.370 -0.4672 -1.2265  0.4242
 1119SOL     OW 9371   4.328   6.141   6.234 -0.4377 -0.4961 -0.1302
 1119SOL    HW1 9372   4.261   6.212   6.211  0.1745 -0.4653 -1.9912
 1119SOL    HW2 9373   4.292   6.084   6.307 -1.8473  0.4278 -0.0574
 1120SOL     OW 9374   1.850   3.034   0.203  0.3708  0.7892 -0.4248
 1120SOL    HW1 9375   1.818   3.121   0.167 -1.6660  0.2781  0.0065
 1120SOL    HW2 9376   1.865   2.969   0.128  0.0245  0.9357 -0.6204
 1121SOL     OW 9377   3.092   0.712   4.179 -0.4074  0.4542  0.3338
 1121SOL    HW1 9378   3.020   0.716   4.249 -0.3479 -0.6416  0.4749
 1121SOL    HW2 9379   3.094   0.621   4.139 -0.9534  1.2657 -1.6623
 1122SOL     OW 9380   4.446   1.140   5.514  0.1807  0.0793  0.2135
 1122SOL    HW1 9381   4.505   1.208   5.469 -0.0905  0.9108  1.0921
 1122SOL    HW2 9382   4.423   1.069   5.448  1.3976  0.2325 -0.4153
 1123SOL     OW 9383   0.399   2.750   0.906 -0.0814 -0.3452 -0.1547
 1123SOL    HW1 9384   0.380   2.653   0.891 -3.2641  0.2724 -0.8812
 1123SOL    HW2 9385   0.487   2.773   0.863 -0.6245 -2.3128 -2.6005
 1124SOL     OW 9386   4.663   5.136   6.380 -0.0486  0.5211  0.0860
 1124SOL    HW1 9387   4.732   5.193   6.424  0.7579  1.0647 -1.7577
 1124SOL    HW2 9388   4.573   5.156   6.418  0.2156  3.0063 -0.4427
 1125SOL     OW 9389   3.041   2.347   1.464  0.0656  0.2642  0.3952
 1125SOL    HW1 9390   3.082   2.373   1.377  0.1259  0.3464  0.4481
 1125SOL    HW2 9391   2.962   2.288   1.448 -0.6596  1.2552  0.2394
 1126SOL     OW 9392   5.782   5.693   0.895  0.2258 -0.3299 -0.0099
 1126SOL    HW1 9393   5.770   5.664   0.800 -0.6567  2.4096 -0.8158
 1126SOL    HW2 9394   5.880   5.692   0.918  0.4451 -1.0433 -0.9097
 1127SOL     OW 9395   4.094   3.904   5.920 -0.1571  0.1794 -0.4229
 1127SOL    HW1 9396   4.093   3.909   5.820 -1.1066  1.0215 -0.3879
 1127SOL    HW2 9397   4.071   3.993   5.958  1.0339  0.0949  0.5764
 1128SOL     OW 9398   4.939   0.199   6.081  0.1003 -0.3196  0.2783
 1128SOL    HW1 9399   4.966   0.181   5.986  0.2534 -0.0344  0.2681
 1128SOL    HW2 9400   4.839   0.191   6.089 -0.2432  2.2235 -0.4934
 1129SOL     OW 9401   6.152   5.887   0.257 -0.1719 -0.5026  0.2454
 1129SOL    HW1 9402   6.150   5.804   0.312 -0.7359 -0.9805 -0.4840
 1129SOL    HW2 9403   6.101   5.959   0.303  1.0963 -0.2663  1.3260
 1130SOL     OW 9404   3.481   0.094   0.922 -0.1621 -0.3457  0.1253
 1130SOL    HW1 9405   3.550   0.095   0.849  1.0645  2.2508  1.1742
 1130SOL    HW2 9406   3.403   0.151   0.894 -0.5028 -0.7894  0.1618
 1131SOL     OW 9407   1.005   1.298   4.994  0.3267 -0.0137 -0.0831
 1131SOL    HW1 9408   0.918   1.334   5.026  0.0594 -1.2957  0.7174
 1131SOL    HW2 9409   0.992   1.249   4.909  0.0544 -1.0745  0.5521
 1132SOL     OW 9410   4.280   4.135   0.653 -0.3504 -0.3846 -0.2982
 1132SOL    HW1 9411   4.333   4.154   0.735 -1.5397 -0.1315  0.4374
 1132SOL    HW2 9412   4.193   4.092   0.678 -0.2792 -1.2911 -1.5102
 1133SOL     OW 9413   6.309   4.419   6.318 -0.1928  0.1415 -0.6158
 1133SOL    HW1 9414   6.360   4.366   6.385 -0.0057  1.8454  0.6381
 1133SOL    HW2 9415   6.287   4.361   6.240  3.2036 -0.8419 -1.0120
 1134SOL     OW 9416   5.013   3.720   5.815 -0.5963  0.0641 -0.0906
 1134SOL    HW1 9417   4.953   3.649   5.852 -1.0146  1.0044  1.0764
 1134SOL    HW2 9418   4.971   3.761   5.735 -1.0430  0.0200  0.1189
 1135SOL     OW 9419   0.812   5.355   6.075 -0.5916 -0.3150  0.7417
 1135SOL    HW1 9420   0.872   5.279   6.050  0.0339  0.1461  0.8020
 1135SOL    HW2 9421   0.751   5.377   5.999  1.1833  0.9872 -0.4034
 1136SOL     OW 9422   4.468   5.574   5.801 -0.1830  0.4141 -0.3723
 1136SOL    HW1 9423   4.368   5.582   5.809 -0.5317 -0.9867 -2.4884
 1136SOL    HW2 9424   4.499   5.497   5.856 -0.2143  0.9828  0.4621
 1137SOL     OW 9425   5.256   3.492   0.430 -0.4270  0.2018  0.3461
 1137SOL    HW1 9426   5.189   3.511   0.502 -1.0703  0.3748 -0.2972
 1137SOL    HW2 9427   5.343   3.464   0.473 -0.9484 -0.1844  1.1793
 1138SOL     OW 9428   5.571   4.101   5.945  0.0863 -0.0275  0.2145
 1138SOL    HW1 9429   5.609   4.181   5.992 -0.8808  1.0481 -0.7510
 1138SOL    HW2 9430   5.626   4.080   5.865 -0.1671  0.2451 -0.0345
 1139SOL     OW 9431   0.611   2.080   6.364 -0.0911 -0.1851  0.1651
 1139SOL    HW1 9432   0.635   2.087   6.461 -0.3656 -1.1627  0.3103
 1139SOL    HW2 9433   0.681   2.127   6.309  0.8703 -0.8973  0.7404
 1140SOL     OW 9434   3.846   4.838   5.196 -0.3712 -0.7246 -0.3074
 1140SOL    HW1 9435   3.788   4.864   5.273  0.2424  1.2885 -0.4608
 1140SOL    HW2 9436   3.794   4.845   5.111  0.4047  2.8427 -0.6510
 1141SOL     OW 9437   2.067   0.678   0.377  0.8209  0.3617 -0.2304
 1141SOL    HW1 9438   2.118   0.671   0.291 -0.2597 -1.2526 -0.7941
 1141SOL    HW2 9439   1.983   0.624   0.370  1.0595 -0.3963  2.0916
 1142SOL     OW 9440   1.354   2.081   6.165  0.1062  0.1110  0.3759
 1142SOL    HW1 9441   1.430   2.024   6.198  0.7992 -0.4619 -1.9817
 1142SOL    HW2 9442   1.309   2.035   6.088 -0.4668  1.9407 -0.4424
 1143SOL     OW 9443   3.443   2.647   6.375 -0.2789 -0.7201 -0.2539
 1143SOL    HW1 9444   3.356   2.675   6.416  0.5315  1.9700 -0.1897
 1143SOL    HW2 9445   3.451   2.547   6.379 -3.0619 -0.9939  0.2703
 1144SOL     OW 9446   5.831   0.575   5.443  0.4990 -0.6735  0.1924
 1144SOL    HW1 9447   5.778   0.500   5.404  0.5599 -1.3314  1.3603
 1144SOL    HW2 9448   5.925   0.546   5.459  1.1123  0.3146 -1.3249
 1145SOL     OW 9449   1.538   5.015   6.321  0.0120  0.7389 -0.1682
 1145SOL    HW1 9450   1.487   5.097   6.347 -2.7528 -0.3523 -1.6392
 1145SOL    HW2 9451   1.484   4.933   6.344  1.0709 -0.5132 -1.8658
 1146SOL     OW 9452   2.382   2.037   4.679 -0.6454  0.1256  0.0605
 1146SOL    HW1 9453   2.297   2.088   4.665 -0.2108  1.4057  1.6696
 1146SOL    HW2 9454   2.420   2.060   4.769  2.1242  0.6673 -1.1204
 1147SOL     OW 9455   5.881   1.798   5.700 -0.3448 -0.2465  0.3691
 1147SOL    HW1 9456   5.858   1.701   5.701  2.2909 -1.0042 -1.6885
 1147SOL    HW2 9457   5.972   1.812   5.740  1.1432  0.6651 -2.9706
 1148SOL     OW 9458   1.786   2.865   0.526  0.5164 -0.1824 -0.0684
 1148SOL    HW1 9459   1.846   2.793   0.492  2.3082  1.5700 -0.8436
 1148SOL    HW2 9460   1.691   2.845   0.499  1.4294 -0.3630 -3.7284
 1149SOL     OW 9461   0.687   0.392   4.588 -0.6189 -0.1019  0.0391
 1149SOL    HW1 9462   0.735   0.312   4.552 -2.0656 -0.2392 -1.7279
 1149SOL    HW2 9463   0.751   0.447   4.642  0.7500 -1.7275  0.1751
 1150SOL     OW 9464   3.768   2.533   0.812 -0.0736 -0.3184  0.0501
 1150SOL    HW1 9465   3.709   2.595   0.863  1.3118  0.2230  1.0795
 1150SOL    HW2 9466   3.857   2.578   0.797  0.1664 -1.1876 -1.2265
 1151SOL     OW 9467   1.012   0.900   0.567 -0.3189 -0.3190  0.2874
 1151SOL    HW1 9468   1.102   0.933   0.539 -1.2788  3.1758  0.8010
 1151SOL    HW2 9469   0.960   0.872   0.486  0.4557 -0.2292 -0.2503
 1152SOL     OW 9470   1.686   5.525   4.508  0.0541 -0.2233  0.8049
 1152SOL    HW1 9471   1.713   5.448   4.451 -0.7507 -0.8035  1.1919
 1152SOL    HW2 9472   1.734   5.520   4.596 -1.8290 -1.7211  1.8211
 1153SOL     OW 9473   5.211   4.333   6.246  0.2162 -0.4324  0.6956
 1153SOL    HW1 9474   5.257   4.246   6.261 -0.1698 -0.6410  0.6997
 1153SOL    HW2 9475   5.116   4.326   6.276 -0.0456 -0.2632 -0.0692
 1154SOL     OW 9476   2.250   1.426   0.757  0.4908  0.1450  0.6508
 1154SOL    HW1 9477   2.344   1.454   0.775  0.6682  0.8149 -1.0977
 1154SOL    HW2 9478   2.244   1.327   0.753  1.3018  0.1197 -0.0526
 1155SOL     OW 9479   2.059   1.947   1.134  0.3593 -0.4723 -0.1972
 1155SOL    HW1 9480   2.006   1.887   1.194  0.3682 -0.1327  0.1584
 1155SOL    HW2 9481   2.073   2.036   1.180 -1.2628  0.4847 -1.4594
 1156SOL     OW 9482   6.219   4.853   6.152 -0.1766 -0.3441 -0.3590
 1156SOL    HW1 9483   6.234   4.943   6.192 -0.6274 -0.8745  1.0746
 1156SOL    HW2 9484   6.123   4.842   6.126  0.0560 -0.1068 -1.3564
 1157SOL     OW 9485   6.018   4.004   0.716  0.5659 -0.4589  0.6227
 1157SOL    HW1 9486   6.083   3.938   0.755 -0.4703 -1.1064  1.3163
 1157SOL    HW2 9487   5.977   4.058   0.790 -1.2293 -1.5126  0.4561
 1158SOL     OW 9488   2.827   4.556   1.505  0.6113  0.0047 -0.3540
 1158SOL    HW1 9489   2.735   4.555   1.543  0.9964  1.7736  0.7396
 1158SOL    HW2 9490   2.891   4.515   1.571  0.5923 -1.6255 -1.2865
 1159SOL     OW 9491   3.401   4.920   4.875 -0.5760 -0.2442  0.4723
 1159SOL    HW1 9492   3.456   4.965   4.804 -1.0093 -0.7548 -0.2025
 1159SOL    HW2 9493   3.323   4.977   4.897 -0.1711  0.1496  0.9112
 1160SOL     OW 9494   2.387   0.512   4.677 -0.0234 -0.0877 -0.2354
 1160SOL    HW1 9495   2.457   0.472   4.617 -0.2263  0.2497 -0.7000
 1160SOL    HW2 9496   2.299   0.512   4.630 -0.1795  0.2088  0.0539
 1161SOL     OW 9497   2.874   0.978   5.399  0.8850 -0.8417 -0.6219
 1161SOL    HW1 9498   2.786   0.956   5.356  0.2901  1.0744 -0.4947
 1161SOL    HW2 9499   2.943   0.990   5.328  0.5277 -0.2788 -0.8850
 1162SOL     OW 9500   5.919   6.280   5.507 -0.1782  0.7200 -0.0547
 1162SOL    HW1 9501   5.939   6.370   5.546 -1.7155  1.5079 -1.0083
 1162SOL    HW2 9502   5.822   6.259   5.517 -0.0224 -0.4127 -0.6945
 1163SOL     OW 9503   5.138   0.207   0.797  0.5464  0.7170  0.8826
 1163SOL    HW1 9504   5.084   0.178   0.876  1.8056 -1.7570  0.9394
 1163SOL    HW2 9505   5.232   0.226   0.827  0.8184  0.5882  0.1275
 1164SOL     OW 9506   5.115   4.203   1.531 -0.3235 -0.2425  0.6021
 1164SOL    HW1 9507   5.149   4.289   1.492 -0.4337 -0.9530 -1.1646
 1164SOL    HW2 9508   5.017   4.197   1.516  0.0749 -1.9330 -2.0373
 1165SOL     OW 9509   4.363   3.174   1.300 -0.3122  0.4844 -0.8482
 1165SOL    HW1 9510   4.315   3.218   1.376 -0.2781  1.0759 -1.1623
 1165SOL    HW2 9511   4.372   3.239   1.224 -1.7180 -0.5391 -1.9552
 1166SOL     OW 9512   0.164   0.573   5.425 -0.1807  0.3855  0.2631
 1166SOL    HW1 9513   0.069   0.584   5.398  0.0861 -0.5606 -1.2413
 1166SOL    HW2 9514   0.194   0.480   5.401  0.6620  0.1134  2.2265
 1167SOL     OW 9515   0.616   5.467   0.694 -0.2851  0.1141  0.4658
 1167SOL    HW1 9516   0.574   5.423   0.773 -0.3433  0.0643  0.4071
 1167SOL    HW2 9517   0.545   5.493   0.628 -0.2200 -0.0142  0.3441
 1168SOL     OW 9518   5.895   5.780   0.491 -0.1714 -0.1869  0.4969
 1168SOL    HW1 9519   5.954   5.849   0.531 -0.1350 -0.6273  1.2243
 1168SOL    HW2 9520   5.844   5.820   0.415  0.7893  0.2862  0.0867
 1169SOL     OW 9521   2.338   3.211   4.945 -0.1174 -0.1883  0.2051
 1169SOL    HW1 9522   2.358   3.240   5.039  0.7018 -0.4716  0.1196
 1169SOL    HW2 9523   2.362   3.284   4.882 -0.1793 -0.2009  0.1670
 1170SOL     OW 9524   0.365   4.220   0.497 -0.2400 -0.4708 -0.2821
 1170SOL    HW1 9525   0.309   4.288   0.448  1.5647  0.6839 -0.8256
 1170SOL    HW2 9526   0.461   4.235   0.476  0.7641  0.4324  3.9496
 1171SOL     OW 9527   5.885   0.955   0.033 -0.2678  0.6159 -0.5773
 1171SOL    HW1 9528   5.894   1.045  -0.008 -1.8683  0.5887 -1.0750
 1171SOL    HW2 9529   5.794   0.918   0.012  0.9067 -1.8039 -1.7780
 1172SOL     OW 9530   5.582   6.069   1.242  0.3259  0.6516  0.3806
 1172SOL    HW1 9531   5.659   6.127   1.267  1.4506 -1.1610  1.4136
 1172SOL    HW2 9532   5.609   6.011   1.164  0.9035 -1.5116  2.0695
 1173SOL     OW 9533   1.772   5.684   4.728  0.1012 -0.6583 -0.7036
 1173SOL    HW1 9534   1.861   5.713   4.694 -0.8431  0.3850 -2.4076
 1173SOL    HW2 9535   1.729   5.759   4.778 -0.1872 -0.8728 -0.6251
 1174SOL     OW 9536   4.177   2.967   5.740 -0.1418 -0.5828  0.5941
 1174SOL    HW1 9537   4.246   2.978   5.669 -0.3933  1.2942  0.5685
 1174SOL    HW2 9538   4.167   2.871   5.763  1.8589 -0.9783 -0.0018
 1175SOL     OW 9539   1.286   0.778   4.979  0.4630 -0.5631  0.0571
 1175SOL    HW1 9540   1.314   0.847   4.912  0.1695 -0.5072 -0.0099
 1175SOL    HW2 9541   1.343   0.697   4.970 -0.7512 -1.2979 -1.5166
 1176SOL     OW 9542   6.316   0.548   0.004  1.0486  0.5902 -0.2891
 1176SOL    HW1 9543   6.321   0.502  -0.085 -0.1946  0.1098 -0.1355
 1176SOL    HW2 9544   6.239   0.512   0.056  0.4216  2.4003  0.1152
 1177SOL     OW 9545   3.926   6.127   0.081  0.2110  0.0388 -0.5100
 1177SOL    HW1 9546   3.851   6.066   0.108  0.5939  0.0610  0.6613
 1177SOL    HW2 9547   3.910   6.161  -0.012  0.3854 -2.4932 -1.5578
 1178SOL     OW 9548   2.293   1.485   6.073 -0.3206 -0.0739 -0.4674
 1178SOL    HW1 9549   2.306   1.571   6.023  0.2998 -0.6522 -1.3366
 1178SOL    HW2 9550   2.348   1.414   6.030  1.3989 -0.2856  1.9198
 1179SOL     OW 9551   2.220   3.011   0.594  0.5693 -0.2890  0.0249
 1179SOL    HW1 9552   2.195   2.935   0.653  0.5733  1.3582  2.2389
 1179SOL    HW2 9553   2.139   3.068   0.576  0.9121  0.1483 -0.1567
 1180SOL     OW 9554   0.258   2.400   0.580 -0.3495  0.0974  0.0766
 1180SOL    HW1 9555   0.206   2.389   0.496  0.0591 -1.2654 -0.0155
 1180SOL    HW2 9556   0.291   2.495   0.586 -0.4221  0.2293 -1.2642
 1181SOL     OW 9557   6.210   2.621   0.658  0.1016 -0.1462  0.2109
 1181SOL    HW1 9558   6.165   2.540   0.620 -1.8284  0.9571  0.0186
 1181SOL    HW2 9559   6.282   2.651   0.595  0.6172 -1.4994  0.1308
 1182SOL     OW 9560   5.026   6.344   5.537 -0.2712 -0.0494  0.1853
 1182SOL    HW1 9561   5.007   6.385   5.448  0.5362 -1.6224 -0.7448
 1182SOL    HW2 9562   5.124   6.342   5.553 -0.2528 -2.0291 -0.0153
 1183SOL     OW 9563   3.183   0.843   0.891 -0.0654  0.7570 -0.0223
 1183SOL    HW1 9564   3.162   0.772   0.959 -0.8572 -2.1648 -3.0447
 1183SOL    HW2 9565   3.110   0.912   0.891 -0.5628  0.2643  1.3576
 1184SOL     OW 9566   0.975   0.364   0.428  0.5900 -0.4072 -0.2783
 1184SOL    HW1 9567   0.992   0.266   0.422 -1.3175 -0.8971  1.1255
 1184SOL    HW2 9568   0.977   0.393   0.524  2.2165  1.1837 -0.7315
 1185SOL     OW 9569   1.389   4.125   0.677  0.8419 -0.2694  0.7289
 1185SOL    HW1 9570   1.422   4.133   0.771  0.2301 -0.3332  0.9585
 1185SOL    HW2 9571   1.289   4.119   0.678  0.7588  0.7372  0.0099
 1186SOL     OW 9572   2.788   0.251   6.022 -0.8288  0.0213  0.1937
 1186SOL    HW1 9573   2.728   0.227   5.946  0.9769 -0.9625 -0.9734
 1186SOL    HW2 9574   2.808   0.170   6.077  0.4122  0.0588 -0.1728
 1187SOL     OW 9575   6.171   1.844   5.929  0.0766  0.6512 -0.9217
 1187SOL    HW1 9576   6.226   1.765   5.900  0.4395  0.6372 -0.2228
 1187SOL    HW2 9577   6.194   1.868   6.023 -0.5338  1.1629 -0.8928
 1188SOL     OW 9578   3.740   4.640   5.594 -0.1832  0.2403  0.3602
 1188SOL    HW1 9579   3.652   4.639   5.546  0.3970  0.2766 -0.7278
 1188SOL    HW2 9580   3.765   4.546   5.620 -0.8291  0.2991  1.2272
 1189SOL     OW 9581   3.111   5.380   0.944  0.5142 -0.1922  0.1701
 1189SOL    HW1 9582   3.158   5.465   0.921  0.9676 -0.7999 -1.3107
 1189SOL    HW2 9583   3.013   5.398   0.958  0.7985  0.7372  1.0437
 1190SOL     OW 9584   6.117   3.728   0.834 -0.2653 -0.4536 -0.1004
 1190SOL    HW1 9585   6.142   3.743   0.930 -1.9914 -0.1442  0.3324
 1190SOL    HW2 9586   6.139   3.633   0.809  1.6705 -0.1001  0.0804
 1191SOL     OW 9587   1.266   0.188   5.466 -0.6971  0.6768  0.2925
 1191SOL    HW1 9588   1.203   0.197   5.388 -0.5409  1.4309  0.2494
 1191SOL    HW2 9589   1.329   0.112   5.448 -2.3342 -0.9094  0.8754
 1192SOL     OW 9590   0.554   0.769   0.709 -0.1598  0.7592  0.3276
 1192SOL    HW1 9591   0.457   0.793   0.702 -0.4405 -0.2048  0.6110
 1192SOL    HW2 9592   0.585   0.783   0.803 -1.0017 -2.1567  1.1652
 1193SOL     OW 9593   4.035   5.673   6.216 -0.2332  0.2593  1.2721
 1193SOL    HW1 9594   3.963   5.720   6.268 -0.4543 -0.9200  2.0817
 1193SOL    HW2 9595   4.019   5.574   6.220 -0.6006  0.1414 -1.6015
 1194SOL     OW 9596   0.383   3.052   0.108  0.3095  0.2525  0.4398
 1194SOL    HW1 9597   0.328   3.133   0.087 -0.2037 -0.4334 -0.9962
 1194SOL    HW2 9598   0.467   3.054   0.053  0.4432 -0.0372  0.6342
 1195SOL     OW 9599   3.235   5.118   6.185  0.5194 -0.0742  0.4521
 1195SOL    HW1 9600   3.183   5.187   6.235 -1.2927  0.7899 -2.3932
 1195SOL    HW2 9601   3.185   5.031   6.187  1.5648 -0.6844  1.9243
 1196SOL     OW 9602   5.385   4.235   1.016 -0.5368  0.3130  1.2416
 1196SOL    HW1 9603   5.450   4.173   0.974 -0.8865 -0.7050  2.1550
 1196SOL    HW2 9604   5.294   4.222   0.976 -0.7013 -0.0904  1.7293
 1197SOL     OW 9605   2.933   1.337   0.211  0.2718  0.4645 -0.5804
 1197SOL    HW1 9606   2.850   1.392   0.220  0.4842  0.9399 -1.4854
 1197SOL    HW2 9607   2.908   1.241   0.203 -0.2514  0.6738 -1.6531
 1198SOL     OW 9608   5.025   4.870   5.633 -0.0919 -0.1255  0.2987
 1198SOL    HW1 9609   5.035   4.784   5.682  0.1160  0.9841  2.3297
 1198SOL    HW2 9610   5.116   4.909   5.616 -0.1425 -0.6461 -1.3285
 1199SOL     OW 9611   5.672   3.873   6.446  0.2422  0.2838  0.2354
 1199SOL    HW1 9612   5.648   3.940   6.375  0.2572  0.5725  0.5006
 1199SOL    HW2 9613   5.711   3.921   6.525  1.7690 -0.1573 -0.2027
 1200SOL     OW 9614   3.451   4.975   5.276 -0.1998 -0.2391 -0.9717
 1200SOL    HW1 9615   3.545   4.953   5.301 -0.4250 -0.2367 -0.0919
 1200SOL    HW2 9616   3.411   5.033   5.346 -0.5963  0.4541 -1.7535
 1201SOL     OW 9617   2.399   4.093   2.119  0.8693  0.2368  0.1766
 1201SOL    HW1 9618   2.409   4.191   2.103  0.4456  0.2729  0.1238
 1201SOL    HW2 9619   2.473   4.061   2.178  0.6903  0.6933  0.6498
 1202SOL     OW 9620   0.047   4.228   5.831 -0.3725  0.0797 -0.1536
 1202SOL    HW1 9621   0.118   4.193   5.770  0.0028 -0.6790  0.6968
 1202SOL    HW2 9622   0.032   4.325   5.813  0.2582  0.0440 -0.9280
 1203SOL     OW 9623   0.048   3.871   0.750 -0.3117 -0.2703 -0.2439
 1203SOL    HW1 9624   0.128   3.910   0.704  0.6899  0.2372  1.7874
 1203SOL    HW2 9625   0.060   3.772   0.759  1.1460  0.0326  1.8414
 1204SOL     OW 9626   2.314   4.560   0.093  0.5256  0.5200 -0.1642
 1204SOL    HW1 9627   2.341   4.653   0.118  1.5971 -0.0811  1.0571
 1204SOL    HW2 9628   2.257   4.563   0.011  0.1558  2.2779  0.1078
 1205SOL     OW 9629   4.092   2.052   1.183  0.0062 -0.3615  0.6513
 1205SOL    HW1 9630   4.025   2.065   1.256  0.9568 -0.5878  1.5905
 1205SOL    HW2 9631   4.177   2.018   1.222  0.1245 -1.7691 -0.7275
 1206SOL     OW 9632   2.687   4.868   1.416  0.3464 -0.1225  0.4719
 1206SOL    HW1 9633   2.787   4.862   1.415  0.3364 -0.2888 -0.1988
 1206SOL    HW2 9634   2.651   4.814   1.492  0.6725 -1.9289 -0.5814
 1207SOL     OW 9635   0.157   5.497   5.552  0.2809 -0.7173 -0.9729
 1207SOL    HW1 9636   0.229   5.561   5.527  0.2250  0.0535  0.7014
 1207SOL    HW2 9637   0.071   5.526   5.511  1.0083 -2.1555 -3.7566
 1208SOL     OW 9638   1.305   1.442   4.929 -0.0649 -0.1882  0.0756
 1208SOL    HW1 9639   1.235   1.472   4.994  0.1074 -0.8756  0.5932
 1208SOL    HW2 9640   1.261   1.400   4.850 -0.2670  0.3412 -0.0973
 1209SOL     OW 9641   0.213   1.576   5.726  0.2202 -0.4647 -0.2907
 1209SOL    HW1 9642   0.125   1.535   5.751  0.0475 -0.4354 -0.8441
 1209SOL    HW2 9643   0.258   1.519   5.657  0.7438 -0.5967  0.1457
 1210SOL     OW 9644   4.977   2.661   6.290 -0.6053  0.2206  0.0409
 1210SOL    HW1 9645   4.999   2.756   6.315 -0.0254  0.3063 -0.7592
 1210SOL    HW2 9646   5.030   2.635   6.209 -0.7659 -0.7873  0.2496
 1211SOL     OW 9647   1.554   0.019   5.702  0.5575  0.4880  0.0724
 1211SOL    HW1 9648   1.647   0.048   5.680  0.8472 -0.1223  0.4808
 1211SOL    HW2 9649   1.498   0.021   5.619  1.6168 -1.7862 -0.7737
 1212SOL     OW 9650   6.239   3.080   0.082 -0.3694  0.3268  0.4009
 1212SOL    HW1 9651   6.192   3.010   0.136 -2.8162 -0.0163 -1.9756
 1212SOL    HW2 9652   6.298   3.035   0.015  1.0333  0.7018  1.3416
 1213SOL     OW 9653   1.030   2.673   5.895 -0.2004  0.3657  0.3004
 1213SOL    HW1 9654   0.932   2.659   5.878 -0.1359  0.3151 -0.0413
 1213SOL    HW2 9655   1.078   2.676   5.807 -0.1632  2.3474  0.3342
 1214SOL     OW 9656   5.545   1.427   0.160  0.7402 -0.0019  0.1721
 1214SOL    HW1 9657   5.628   1.373   0.149  0.7113  0.0268 -0.1916
 1214SOL    HW2 9658   5.479   1.401   0.089  1.1617  1.3363 -0.7312
 1215SOL     OW 9659   1.709   3.299   0.098  0.7559  0.0660 -0.0982
 1215SOL    HW1 9660   1.788   3.339   0.145  1.0880 -1.0693  0.3241
 1215SOL    HW2 9661   1.689   3.353   0.016  1.1665  1.1203  0.4689
 1216SOL     OW 9662   6.091   5.153   5.467 -0.3096 -0.1196  0.2829
 1216SOL    HW1 9663   6.119   5.119   5.377  0.6767 -1.0709  0.9221
 1216SOL    HW2 9664   6.100   5.253   5.469  2.2346 -0.2820  0.1368
 1217SOL     OW 9665   4.513   5.758   1.370  0.2903 -0.1303  0.3944
 1217SOL    HW1 9666   4.467   5.674   1.400  1.4270 -0.4293  1.3778
 1217SOL    HW2 9667   4.611   5.741   1.362  0.6016  1.2372  1.0743
 1218SOL     OW 9668   4.849   4.063   0.209  0.6357 -0.0859  0.2661
 1218SOL    HW1 9669   4.897   4.094   0.127  0.1593  1.5873  0.5851
 1218SOL    HW2 9670   4.914   4.024   0.274  1.2055 -0.0795 -0.2958
 1219SOL     OW 9671   4.177   2.541   0.550  0.0742 -0.2268  0.7332
 1219SOL    HW1 9672   4.127   2.560   0.635 -1.0526 -0.9828  0.2618
 1219SOL    HW2 9673   4.262   2.594   0.549 -1.3464  2.1864  0.9434
 1220SOL     OW 9674   2.169   3.882   1.369 -0.8325  0.3580  0.5168
 1220SOL    HW1 9675   2.214   3.862   1.456  1.3148  2.0848 -0.0997
 1220SOL    HW2 9676   2.138   3.797   1.327  0.6112 -0.7860  1.6773
 1221SOL     OW 9677   1.747   0.537   0.396  0.2176 -0.0653  0.8889
 1221SOL    HW1 9678   1.810   0.511   0.322  0.5900 -0.7193  1.4190
 1221SOL    HW2 9679   1.732   0.635   0.395 -0.7183 -0.1780 -0.7988
 1222SOL     OW 9680   3.054   0.017   4.533  0.1884 -0.2233  0.3829
 1222SOL    HW1 9681   3.006  -0.057   4.579 -0.5706 -0.3197 -0.5326
 1222SOL    HW2 9682   3.010   0.036   4.445  1.4025  0.1580 -0.1657
 1223SOL     OW 9683   3.619   0.514   0.226  0.1710 -0.2285 -0.5562
 1223SOL    HW1 9684   3.705   0.468   0.206  0.7503  0.4354  0.3541
 1223SOL    HW2 9685   3.601   0.511   0.324 -0.5967  0.0723 -0.6773
 1224SOL     OW 9686   0.755   4.534   0.954 -0.3556  0.7995  0.5379
 1224SOL    HW1 9687   0.819   4.609   0.971  0.6451  0.1333 -0.1556
 1224SOL    HW2 9688   0.752   4.474   1.034 -1.0458  1.4672  1.0362
 1225SOL     OW 9689   1.340   0.218   0.839 -0.7251  0.0106 -0.3408
 1225SOL    HW1 9690   1.302   0.282   0.772 -1.2151 -0.7853 -0.8306
 1225SOL    HW2 9691   1.314   0.248   0.931 -0.3757  0.8906 -0.5117
 1226SOL     OW 9692   4.500   5.318   5.560  0.5964  0.3576  0.5038
 1226SOL    HW1 9693   4.576   5.305   5.624  0.2448  1.2223  1.1234
 1226SOL    HW2 9694   4.528   5.379   5.487  1.4828 -1.7996 -1.0653
 1227SOL     OW 9695   0.731   1.744   0.856 -0.0697 -0.1085 -0.1649
 1227SOL    HW1 9696   0.649   1.718   0.907  0.5079 -0.7655  0.4352
 1227SOL    HW2 9697   0.726   1.842   0.833 -1.1553 -0.2082 -0.4080
 1228SOL     OW 9698   5.298   5.410   5.455 -0.1987 -0.1929 -0.0990
 1228SOL    HW1 9699   5.320   5.388   5.550  1.0766 -0.1370 -0.3605
 1228SOL    HW2 9700   5.351   5.490   5.427 -1.8553  0.8645 -0.3481
 1229SOL     OW 9701   3.204   2.728   5.562 -0.0471 -0.2987 -0.0584
 1229SOL    HW1 9702   3.127   2.787   5.580  0.6181  0.6113 -0.1341
 1229SOL    HW2 9703   3.175   2.652   5.504 -1.3002 -1.0595  1.4970
 1230SOL     OW 9704   2.010   0.142   1.104  0.3640 -0.2501  0.1570
 1230SOL    HW1 9705   2.075   0.072   1.072  0.6569  0.1002 -0.0267
 1230SOL    HW2 9706   2.030   0.229   1.058 -0.0890 -0.0803  0.2770
 1231SOL     OW 9707   2.592   4.729   0.121  0.2482 -0.2650  0.2941
 1231SOL    HW1 9708   2.541   4.784   0.187 -3.1140  0.5355 -2.6477
 1231SOL    HW2 9709   2.602   4.636   0.155 -2.3808 -0.1833  1.5446
 1232SOL     OW 9710   3.517   3.076   0.445  0.6135  0.4998  0.2931
 1232SOL    HW1 9711   3.536   3.145   0.375 -1.5318  0.3158 -0.5392
 1232SOL    HW2 9712   3.553   3.107   0.533  0.4031  2.3086 -0.2215
 1233SOL     OW 9713   5.727   3.202   6.099 -0.3962  0.5529  0.3149
 1233SOL    HW1 9714   5.796   3.130   6.107  0.0511  0.9275 -0.1593
 1233SOL    HW2 9715   5.771   3.292   6.102 -0.7024  0.7860 -1.4145
 1234SOL     OW 9716   2.620   3.569   6.510  1.0105 -0.5878  0.3450
 1234SOL    HW1 9717   2.571   3.634   6.452  1.0312 -0.6932  0.2096
 1234SOL    HW2 9718   2.696   3.616   6.555  0.5565 -0.3297  0.8549
 1235SOL     OW 9719   2.449   5.790   5.432  0.9721 -0.2763  0.3511
 1235SOL    HW1 9720   2.395   5.791   5.347  2.0238  0.9617 -0.3483
 1235SOL    HW2 9721   2.424   5.869   5.488  0.5793 -0.8608  1.0030
 1236SOL     OW 9722   2.912   0.196   0.546  0.1457 -0.3566  0.2477
 1236SOL    HW1 9723   3.011   0.199   0.556  0.1383 -1.9826  1.1619
 1236SOL    HW2 9724   2.869   0.197   0.637 -0.7763  1.7195 -0.1454
 1237SOL     OW 9725   3.136   1.581   6.063 -0.1821 -0.0730  0.1805
 1237SOL    HW1 9726   3.123   1.583   5.964 -0.6325 -1.4719  0.1859
 1237SOL    HW2 9727   3.069   1.519   6.104  0.7337 -0.4170  1.2218
 1238SOL     OW 9728   0.303   3.145   1.369 -0.1428  0.0323 -0.6795
 1238SOL    HW1 9729   0.259   3.068   1.416 -2.0643  1.9715  0.9306
 1238SOL    HW2 9730   0.357   3.198   1.435  2.3125 -0.6293 -2.0463
 1239SOL     OW 9731   4.806   6.275   1.396  0.2389 -0.4404 -0.4832
 1239SOL    HW1 9732   4.847   6.344   1.336  0.1418 -1.4732 -1.7903
 1239SOL    HW2 9733   4.874   6.243   1.462  0.1243  1.2775  0.5342
 1240SOL     OW 9734   5.123   5.345   1.365  0.1006 -0.5868 -0.1648
 1240SOL    HW1 9735   5.046   5.401   1.397  0.9016  2.0320 -2.4047
 1240SOL    HW2 9736   5.207   5.378   1.407  0.5335 -0.3149 -1.2144
 1241SOL     OW 9737   5.257   1.873   0.124 -0.8269  0.4863  0.4165
 1241SOL    HW1 9738   5.158   1.860   0.124 -0.6737 -0.8732  1.0412
 1241SOL    HW2 9739   5.302   1.785   0.141  0.5014  1.0263 -0.1735
 1242SOL     OW 9740   5.858   0.180   6.348 -0.1840 -0.6273 -0.1047
 1242SOL    HW1 9741   5.783   0.202   6.410  0.1300 -0.9352  0.3958
 1242SOL    HW2 9742   5.846   0.087   6.312  0.0517 -0.7472  0.1223
 1243SOL     OW 9743   3.019   1.760   6.390 -0.2627  0.1504  0.4808
 1243SOL    HW1 9744   3.101   1.702   6.391 -0.4134 -0.1224  2.9987
 1243SOL    HW2 9745   3.034   1.839   6.449 -1.7417  0.1958  0.8266
 1244SOL     OW 9746   6.356   3.533   6.465 -0.0681  0.2960 -0.0311
 1244SOL    HW1 9747   6.435   3.505   6.410  1.1604  1.6046  1.0069
 1244SOL    HW2 9748   6.340   3.465   6.537 -0.2526 -0.2375 -0.5574
 1245SOL     OW 9749   2.614   4.175   0.925 -0.1580 -0.0198 -0.0872
 1245SOL    HW1 9750   2.675   4.236   0.975 -1.7110  0.7901  0.9043
 1245SOL    HW2 9751   2.613   4.200   0.828  0.7373  0.2323 -0.0341
 1246SOL     OW 9752   4.543   0.932   0.643 -0.6892 -0.3251 -0.4038
 1246SOL    HW1 9753   4.518   0.911   0.738 -0.8148 -0.3001 -0.4311
 1246SOL    HW2 9754   4.579   0.850   0.599  1.8467  0.2425  0.4447
 1247SOL     OW 9755   0.474   3.223   5.527  0.1168  0.2656 -0.2661
 1247SOL    HW1 9756   0.535   3.148   5.553  0.1873 -0.1454 -1.5204
 1247SOL    HW2 9757   0.493   3.303   5.582  1.5764  0.0448 -0.4210
 1248SOL     OW 9758   3.377   5.975   6.424 -0.8558 -0.6920 -0.2615
 1248SOL    HW1 9759   3.374   5.908   6.499 -1.4990 -0.4756 -0.0854
 1248SOL    HW2 9760   3.297   5.962   6.366 -0.1591 -1.1239 -1.1594
 1249SOL     OW 9761   5.663   4.679   1.216 -0.2115  0.0647  0.4784
 1249SOL    HW1 9762   5.651   4.609   1.287  2.4491 -0.6385  0.3305
 1249SOL    HW2 9763   5.667   4.635   1.126 -0.9288  0.6919  0.1247
 1250SOL     OW 9764   1.293   0.310   0.561 -0.2611 -0.5032 -0.2530
 1250SOL    HW1 9765   1.260   0.403   0.581  0.3358 -0.9936  4.1871
 1250SOL    HW2 9766   1.379   0.316   0.511  0.3094  1.4854  0.8075
 1251SOL     OW 9767   4.982   5.629   6.347 -0.5517 -0.2322 -0.0711
 1251SOL    HW1 9768   4.883   5.636   6.350 -0.4730  0.9805  1.8853
 1251SOL    HW2 9769   5.016   5.590   6.433  0.7171  0.7671 -0.0759
 1252SOL     OW 9770   0.652   0.707   6.062  0.0175 -0.3163 -0.6082
 1252SOL    HW1 9771   0.598   0.791   6.056  1.0619  0.6941  2.4122
 1252SOL    HW2 9772   0.663   0.668   5.970  0.7641  3.6472 -2.4271
 1253SOL     OW 9773   3.859   0.728   0.896 -0.6248 -0.1031  0.5981
 1253SOL    HW1 9774   3.819   0.640   0.923  1.9570 -2.0903 -1.4004
 1253SOL    HW2 9775   3.837   0.747   0.800  1.0806 -0.0609  0.1710
 1254SOL     OW 9776   5.637   1.286   6.302  0.0148 -0.3919  0.6384
 1254SOL    HW1 9777   5.660   1.371   6.254  1.4197 -0.1924  1.5930
 1254SOL    HW2 9778   5.555   1.301   6.358 -1.4634 -0.5520 -1.3989
 1255SOL     OW 9779   2.984   4.565   5.111  0.4029 -0.2792  0.0633
 1255SOL    HW1 9780   2.967   4.475   5.070 -0.4154 -0.4718  0.7942
 1255SOL    HW2 9781   3.037   4.621   5.048  1.6403 -1.5606 -0.0657
 1256SOL     OW 9782   1.109   2.720   0.541 -0.4069 -0.5626  0.4165
 1256SOL    HW1 9783   1.098   2.654   0.467 -2.9526  0.7400 -0.4976
 1256SOL    HW2 9784   1.176   2.789   0.515 -0.5719 -0.6590 -0.2913
 1257SOL     OW 9785   3.834   2.668   5.394 -0.4580 -0.3614 -0.2909
 1257SOL    HW1 9786   3.882   2.733   5.452 -0.9701  0.5726 -0.8955
 1257SOL    HW2 9787   3.878   2.665   5.304  0.4678 -1.9557  0.1635
 1258SOL     OW 9788   0.101   2.702   5.929  0.3638  0.5402 -0.2349
 1258SOL    HW1 9789   0.124   2.632   5.861 -1.7060 -0.6581  0.2129
 1258SOL    HW2 9790   0.002   2.709   5.938  0.5617  1.9217  1.4111
 1259SOL     OW 9791   5.703   0.285   0.023  0.4827 -0.2595  0.1018
 1259SOL    HW1 9792   5.680   0.312   0.117 -0.0835 -1.7390  0.4176
 1259SOL    HW2 9793   5.626   0.305  -0.037  1.0117  1.1029 -0.1598
 1260SOL     OW 9794   3.550   1.734   1.591 -0.0348  0.1485  0.5246
 1260SOL    HW1 9795   3.534   1.753   1.494 -0.7336 -1.7884  0.2308
 1260SOL    HW2 9796   3.535   1.818   1.643  1.8080  1.6200 -1.1524
 1261SOL     OW 9797   1.680   2.784   6.063 -0.3587  0.0428  1.1953
 1261SOL    HW1 9798   1.632   2.724   5.999 -0.0255  0.4826  0.5224
 1261SOL    HW2 9799   1.696   2.873   6.020  3.8411 -0.9876  0.1097
 1262SOL     OW 9800   0.218   5.485   6.212 -0.0220  0.3265 -0.9154
 1262SOL    HW1 9801   0.238   5.520   6.304  0.0479 -2.3069  0.1576
 1262SOL    HW2 9802   0.290   5.515   6.149  0.2101  1.7369 -0.0216
 1263SOL     OW 9803   0.393   6.176   1.089  0.0229  0.0075  0.3757
 1263SOL    HW1 9804   0.492   6.182   1.074 -0.0219 -0.3224 -0.0664
 1263SOL    HW2 9805   0.375   6.120   1.170  0.1635 -0.9454 -0.2390
 1264SOL     OW 9806   2.937   0.495   6.425  0.2698 -0.5465 -0.5428
 1264SOL    HW1 9807   3.036   0.487   6.412  0.0941 -0.0473 -2.5601
 1264SOL    HW2 9808   2.895   0.405   6.413  0.5464 -0.9891  1.4807
 1265SOL     OW 9809   5.391   1.362   5.472 -0.1502  0.2154 -0.6616
 1265SOL    HW1 9810   5.447   1.379   5.391 -0.7607 -1.9762 -1.6048
 1265SOL    HW2 9811   5.432   1.289   5.526 -1.3537 -0.4668 -0.6368
 1266SOL     OW 9812   1.950   1.410   0.266 -0.1937  0.0287 -0.3112
 1266SOL    HW1 9813   1.931   1.337   0.200 -0.6514  0.0288 -0.1824
 1266SOL    HW2 9814   1.944   1.373   0.359  0.0692  0.1169 -0.2583
 1267SOL     OW 9815   3.142   3.133   5.574  0.3687 -0.2216 -0.3666
 1267SOL    HW1 9816   3.142   3.199   5.649  0.7262  2.3885 -2.4737
 1267SOL    HW2 9817   3.102   3.047   5.604 -1.6470  1.4568  2.1546
 1268SOL     OW 9818   5.625   2.144   0.598 -0.0387  0.0450  0.0214
 1268SOL    HW1 9819   5.636   2.132   0.696  0.9716 -1.7134 -0.2640
 1268SOL    HW2 9820   5.593   2.237   0.579  0.2710  0.5878  1.9547
 1269SOL     OW 9821   6.294   1.806   0.420 -0.9474 -0.3874  0.1209
 1269SOL    HW1 9822   6.257   1.898   0.422 -1.6739 -0.6689 -0.1946
 1269SOL    HW2 9823   6.344   1.791   0.335 -0.4797 -0.1515  0.3532
 1270SOL     OW 9824   3.080   0.492   1.407  0.8130  0.2478  0.3214
 1270SOL    HW1 9825   3.126   0.479   1.495 -0.2422 -1.6833  0.6415
 1270SOL    HW2 9826   3.019   0.571   1.413  1.7291  0.9383  0.8683
 1271SOL     OW 9827   5.286   4.430   1.164 -0.3133 -0.1229 -0.5945
 1271SOL    HW1 9828   5.197   4.460   1.129  0.1725  0.4503 -1.3368
 1271SOL    HW2 9829   5.330   4.370   1.098  0.8072  1.3256 -1.1958
 1272SOL     OW 9830   2.336   3.301   5.228  0.5967  0.0432  0.4558
 1272SOL    HW1 9831   2.255   3.243   5.234  0.3072  0.5138  1.3407
 1272SOL    HW2 9832   2.326   3.379   5.290 -0.0282  2.3479 -2.3243
 1273SOL     OW 9833   0.711   0.324   5.900 -0.6371 -0.1808  0.6155
 1273SOL    HW1 9834   0.776   0.250   5.887 -0.7993 -0.6137  2.0262
 1273SOL    HW2 9835   0.623   0.287   5.929 -0.4089  0.5587  2.4539
 1274SOL     OW 9836   1.241   5.901   0.709 -0.1964 -0.0664  0.2275
 1274SOL    HW1 9837   1.303   5.936   0.779 -0.0938 -2.7890  1.6771
 1274SOL    HW2 9838   1.291   5.883   0.625  0.3604  0.4256  0.4504
 1275SOL     OW 9839   2.305   6.044   5.493 -0.3725  0.5267  0.3917
 1275SOL    HW1 9840   2.219   6.008   5.527  0.5226 -2.9958 -0.7008
 1275SOL    HW2 9841   2.343   6.108   5.560 -2.2964 -0.2784  2.3631
 1276SOL     OW 9842   6.177   5.781   6.232  0.3142 -0.3062 -0.1238
 1276SOL    HW1 9843   6.137   5.862   6.190 -0.8045 -0.1379  1.1739
 1276SOL    HW2 9844   6.199   5.801   6.328  1.7926 -0.9843 -0.2961
 1277SOL     OW 9845   3.861   4.253   0.809 -0.4666 -0.5984  0.4377
 1277SOL    HW1 9846   3.769   4.247   0.846  0.1921  1.3942  2.6445
 1277SOL    HW2 9847   3.857   4.264   0.710 -2.8125  2.2371  0.7068
 1278SOL     OW 9848   5.066   3.798   1.725  0.6657 -0.2060 -0.8301
 1278SOL    HW1 9849   5.110   3.726   1.778 -2.1754 -0.5903  1.2105
 1278SOL    HW2 9850   5.105   3.887   1.752 -0.2283 -0.4549  1.5222
 1279SOL     OW 9851   1.131   5.453   6.377 -0.0012 -0.0091 -0.0987
 1279SOL    HW1 9852   1.224   5.477   6.348 -0.3479  1.6679  0.0762
 1279SOL    HW2 9853   1.066   5.474   6.304 -0.4951  1.1461  0.6339
 1280SOL     OW 9854   2.983   0.446   6.078  0.1614 -0.2388 -0.3497
 1280SOL    HW1 9855   2.923   0.373   6.046 -0.5041  0.9462 -1.9855
 1280SOL    HW2 9856   3.078   0.419   6.066  0.0084 -1.8774  1.6513
 1281SOL     OW 9857   3.230   1.173   5.858  0.0166  0.8361 -0.2076
 1281SOL    HW1 9858   3.244   1.267   5.825 -1.1227  1.1694  0.2137
 1281SOL    HW2 9859   3.133   1.159   5.876  0.1072 -0.5876 -0.7282
 1282SOL     OW 9860   2.085   3.694   0.976  0.3623  0.3764  0.2233
 1282SOL    HW1 9861   2.118   3.608   1.014 -1.6742 -0.0797  1.0850
 1282SOL    HW2 9862   2.138   3.717   0.894 -1.0528 -3.3804 -2.0192
 1283SOL     OW 9863   5.592   6.262   0.578 -0.3412 -0.5287  0.1979
 1283SOL    HW1 9864   5.516   6.326   0.573  0.5096  0.5192  0.3072
 1283SOL    HW2 9865   5.657   6.292   0.648  0.7559 -0.7362 -0.6844
 1284SOL     OW 9866   2.563   1.977   0.718 -0.4483  0.2475  0.3537
 1284SOL    HW1 9867   2.548   2.075   0.706  0.5018  0.3584  0.0114
 1284SOL    HW2 9868   2.612   1.960   0.804  1.1596  0.2689 -0.5105
 1285SOL     OW 9869   0.066   3.598   0.790  0.0032  0.2855  0.0756
 1285SOL    HW1 9870   0.138   3.529   0.779 -0.9344 -0.5676 -0.9346
 1285SOL    HW2 9871  -0.023   3.557   0.770 -0.9173  1.0363  2.3262
 1286SOL     OW 9872   3.939   0.326   1.933 -0.1176  0.1126 -0.4159
 1286SOL    HW1 9873   4.024   0.286   1.967 -0.1582 -0.7684 -1.3139
 1286SOL    HW2 9874   3.868   0.255   1.929  0.0418  0.0084 -2.8429
 1287SOL     OW 9875   1.615   5.827   0.743 -0.2494 -0.5787 -0.0071
 1287SOL    HW1 9876   1.616   5.888   0.664  0.2751 -0.1282  0.3412
 1287SOL    HW2 9877   1.638   5.879   0.826  2.2395 -1.5826  0.0273
 1288SOL     OW 9878   4.124   3.485   5.880 -0.7944  0.6157  0.0059
 1288SOL    HW1 9879   4.205   3.524   5.835 -0.2538  0.5108  0.8686
 1288SOL    HW2 9880   4.111   3.390   5.849 -1.1345  0.9209 -0.8235
 1289SOL     OW 9881   5.696   2.061   0.032  0.1435  0.1116 -0.1610
 1289SOL    HW1 9882   5.682   2.154   0.000 -0.7846 -0.1585 -0.5562
 1289SOL    HW2 9883   5.669   2.054   0.128 -0.6968  0.0278 -0.4007
 1290SOL     OW 9884   4.064   2.716   5.769 -0.1412 -0.1990 -0.2341
 1290SOL    HW1 9885   3.980   2.668   5.793  0.0548  0.1752  1.3014
 1290SOL    HW2 9886   4.134   2.698   5.839  0.3451  1.2689 -0.3114
 1291SOL     OW 9887   4.262   4.860   6.264  0.1843  0.1310  0.1431
 1291SOL    HW1 9888   4.225   4.772   6.235 -2.0162  1.1881 -0.4075
 1291SOL    HW2 9889   4.272   4.920   6.184 -3.8772  2.3234  1.0088
 1292SOL     OW 9890   0.495   1.615   0.947 -0.7183 -0.5550 -0.6779
 1292SOL    HW1 9891   0.514   1.681   1.020 -2.4692  1.3064 -1.7884
 1292SOL    HW2 9892   0.455   1.532   0.986 -1.5150  0.3559  0.5091
 1293SOL     OW 9893   2.448   5.225   5.304 -0.2347 -0.2793 -0.1119
 1293SOL    HW1 9894   2.368   5.239   5.363 -0.4474  2.6859 -0.9076
 1293SOL    HW2 9895   2.417   5.204   5.212 -0.0431 -0.7325 -0.0716
 1294SOL     OW 9896   4.684   3.857   5.874 -0.3781 -0.4191 -0.2967
 1294SOL    HW1 9897   4.693   3.909   5.789 -3.2381 -2.1091 -1.7801
 1294SOL    HW2 9898   4.615   3.899   5.933 -0.0466 -0.5178  0.1711
 1295SOL     OW 9899   6.195   5.872   5.556  0.3823 -0.1579 -0.2989
 1295SOL    HW1 9900   6.281   5.844   5.513  1.2296 -0.4460  1.5131
 1295SOL    HW2 9901   6.122   5.870   5.487  1.4479 -1.6650 -1.4703
 1296SOL     OW 9902   3.754   3.667   0.004  0.0790 -0.1149 -0.4197
 1296SOL    HW1 9903   3.819   3.655   0.079 -0.2565  1.4899  0.1760
 1296SOL    HW2 9904   3.769   3.757  -0.038 -1.2971  0.0104 -0.6947
 1297SOL     OW 9905   1.481   2.276   5.785 -0.1374  0.3277 -0.2740
 1297SOL    HW1 9906   1.484   2.329   5.870 -1.4743 -0.5464  0.3723
 1297SOL    HW2 9907   1.489   2.178   5.807 -0.1674  0.1119 -1.1891
 1298SOL     OW 9908   5.499   0.056   0.178  0.0568 -0.4193 -0.2527
 1298SOL    HW1 9909   5.441   0.030   0.101  1.6804  1.6009 -2.2951
 1298SOL    HW2 9910   5.463   0.139   0.221  0.9664  0.4482 -1.0969
 1299SOL     OW 9911   3.416   4.917   0.685 -0.0725 -0.1149 -0.4645
 1299SOL    HW1 9912   3.437   4.947   0.778  2.1361 -0.5622 -0.7539
 1299SOL    HW2 9913   3.368   4.990   0.636  1.0515  1.1437  0.2545
 1300SOL     OW 9914   1.373   3.066   0.946 -0.4377 -0.0502  0.4661
 1300SOL    HW1 9915   1.364   3.010   1.029 -0.3563 -2.4189 -1.0317
 1300SOL    HW2 9916   1.457   3.120   0.951  0.3736 -1.3263  1.3033
 1301SOL     OW 9917   1.161   0.166   6.329  0.1226  0.2804 -0.2080
 1301SOL    HW1 9918   1.101   0.246   6.327 -0.7905 -0.3887 -2.4815
 1301SOL    HW2 9919   1.121   0.092   6.275  0.5512 -2.0617  2.4483
 1302SOL     OW 9920   4.225   4.603   0.615 -0.6689 -0.0358  0.5444
 1302SOL    HW1 9921   4.307   4.634   0.566  0.6153 -0.8152  2.1004
 1302SOL    HW2 9922   4.156   4.675   0.612 -0.0314  0.5726 -0.9807
 1303SOL     OW 9923   5.430   2.636   0.385  0.0090  0.2107  0.1507
 1303SOL    HW1 9924   5.485   2.595   0.312  2.1349  1.3602  1.0065
 1303SOL    HW2 9925   5.455   2.733   0.394 -0.4144  0.1624  2.2071
 1304SOL     OW 9926   3.528   0.464   1.991 -0.5613  0.5878  0.7873
 1304SOL    HW1 9927   3.517   0.535   2.061  0.9229  1.4389  0.2000
 1304SOL    HW2 9928   3.545   0.508   1.903  0.1397 -0.5128  0.3694
 1305SOL     OW 9929   4.853   5.973   0.576  0.3595  0.8693  0.6972
 1305SOL    HW1 9930   4.786   5.903   0.554  0.7394  0.7348 -0.0260
 1305SOL    HW2 9931   4.812   6.064   0.562  0.1590  0.7926  0.7803
 1306SOL     OW 9932   5.032   5.646   0.477  0.0305  0.0548 -0.0174
 1306SOL    HW1 9933   5.019   5.738   0.440  1.2119  0.4636  0.5180
 1306SOL    HW2 9934   4.951   5.619   0.528  0.3111  1.5237  1.2856
 1307SOL     OW 9935   2.985   2.350   6.163  0.5182 -0.3253 -0.1181
 1307SOL    HW1 9936   2.934   2.264   6.162  1.0336 -0.7018  1.7364
 1307SOL    HW2 9937   3.056   2.347   6.093  0.8095 -1.6130  0.2003
 1308SOL     OW 9938   4.421   5.154   5.842 -1.0411 -0.2727  0.3762
 1308SOL    HW1 9939   4.482   5.228   5.867  0.2441 -0.5492 -1.6843
 1308SOL    HW2 9940   4.331   5.191   5.819 -0.8135  0.4777  0.6774
 1309SOL     OW 9941   2.919   4.674   1.234  0.2552 -0.4885 -0.6957
 1309SOL    HW1 9942   2.901   4.679   1.332  0.2090 -0.1762 -0.7185
 1309SOL    HW2 9943   2.946   4.765   1.200 -2.7166  0.1887 -1.5451
 1310SOL     OW 9944   0.512   3.842   1.688  0.2667 -0.4479 -0.4042
 1310SOL    HW1 9945   0.437   3.883   1.741  0.6258  0.7869 -0.8073
 1310SOL    HW2 9946   0.556   3.771   1.743  2.2294  2.4480  2.0934
 1311SOL     OW 9947   0.994   3.223   0.653 -0.7520 -0.2839 -0.1019
 1311SOL    HW1 9948   0.938   3.296   0.692 -1.3462 -0.6680 -0.2416
 1311SOL    HW2 9949   0.936   3.157   0.605 -0.0793 -0.0805 -1.2221
 1312SOL     OW 9950   1.099   1.977   1.063  0.2781  0.0743 -0.2467
 1312SOL    HW1 9951   1.110   1.940   1.156  2.6637  0.0773 -0.4719
 1312SOL    HW2 9952   1.149   2.064   1.056 -3.1199  2.2097 -0.4653
 1313SOL     OW 9953   4.539   1.932   5.979  0.0705 -0.1816  0.2464
 1313SOL    HW1 9954   4.465   1.878   5.938 -0.1959  0.8732 -0.7061
 1313SOL    HW2 9955   4.506   2.023   6.002  1.0208  0.2526 -0.0522
 1314SOL     OW 9956   3.892   5.401   5.309  0.1177  0.0146 -0.0415
 1314SOL    HW1 9957   3.915   5.475   5.246 -1.6819 -0.8002 -1.7421
 1314SOL    HW2 9958   3.955   5.403   5.387  1.2591  2.1735 -0.9431
 1315SOL     OW 9959   5.660   3.850   1.710  0.0790  0.0929  0.4792
 1315SOL    HW1 9960   5.595   3.913   1.752 -3.2516 -1.7734 -1.4827
 1315SOL    HW2 9961   5.746   3.897   1.693 -1.9525  3.8815 -0.2365
 1316SOL     OW 9962   5.283   2.146   0.225  0.6248 -0.2708  0.1330
 1316SOL    HW1 9963   5.296   2.051   0.195 -0.8471 -0.2895 -0.5404
 1316SOL    HW2 9964   5.214   2.189   0.167  1.1562  1.1693  0.5474
 1317SOL     OW 9965   6.086   2.890   5.993  0.1472  0.9147  0.3749
 1317SOL    HW1 9966   6.074   2.818   5.925  1.5024  1.6581 -0.7089
 1317SOL    HW2 9967   6.094   2.979   5.947  1.8746  1.3389  1.4001
 1318SOL     OW 9968   4.111   3.673   5.579  0.2216  0.3426  0.1872
 1318SOL    HW1 9969   4.097   3.760   5.531  0.8471  0.0113 -0.6166
 1318SOL    HW2 9970   4.024   3.640   5.615 -0.4752  0.0638 -1.6582
 1319SOL     OW 9971   5.417   2.292   6.294  0.2998  0.1154 -0.3472
 1319SOL    HW1 9972   5.372   2.231   6.358  2.9896 -2.9588 -1.1228
 1319SOL    HW2 9973   5.353   2.318   6.221 -0.7569 -2.6121 -0.4899
 1320SOL     OW 9974   2.789   1.503   0.898  0.1739 -0.1503 -0.0029
 1320SOL    HW1 9975   2.832   1.542   0.979  0.7857  1.2471 -0.9576
 1320SOL    HW2 9976   2.822   1.551   0.817 -0.3011 -1.6214 -1.0996
 1321SOL     OW 9977   2.387   0.668   0.861 -0.3776  0.6877 -0.0036
 1321SOL    HW1 9978   2.470   0.644   0.911 -1.0094  1.0659  1.2524
 1321SOL    HW2 9979   2.374   0.604   0.785  1.8778  1.5376 -1.1937
 1322SOL     OW 9980   5.618   4.660   1.654  0.1150  0.2217  0.0378
 1322SOL    HW1 9981   5.708   4.701   1.641  0.2972 -0.2221 -0.1074
 1322SOL    HW2 9982   5.548   4.731   1.648  0.4580  0.5774  0.2184
 1323SOL     OW 9983   4.799   0.730   0.059  0.8025  0.2315 -0.0493
 1323SOL    HW1 9984   4.830   0.720   0.154  0.6528  2.6020  0.3118
 1323SOL    HW2 9985   4.711   0.776   0.057 -0.1903 -1.6010 -1.3122
 1324SOL     OW 9986   2.773   3.882   1.433  0.1905  0.0815 -0.4552
 1324SOL    HW1 9987   2.807   3.793   1.461 -0.6846 -0.4181 -0.9314
 1324SOL    HW2 9988   2.775   3.945   1.511  0.0037 -0.5993  0.1089
 1325SOL     OW 9989   2.483   1.301   6.012  0.1022 -0.5033 -0.3329
 1325SOL    HW1 9990   2.514   1.206   6.013  0.0199 -0.5237  0.7092
 1325SOL    HW2 9991   2.554   1.358   5.970  0.6169 -0.8726  0.0191
 1326SOL     OW 9992   2.352   4.936   6.031  0.6277 -0.3547 -0.0178
 1326SOL    HW1 9993   2.267   4.897   5.994  1.0437 -0.8686 -0.4524
 1326SOL    HW2 9994   2.429   4.904   5.976  1.0860  0.2474  0.2736
 1327SOL     OW 9995   5.548   1.004   0.255  0.2501  0.0921 -0.4987
 1327SOL    HW1 9996   5.574   0.943   0.329  0.1995 -0.3018 -0.8057
 1327SOL    HW2 9997   5.448   1.008   0.249  0.2226  1.0207  0.1926
 1328SOL     OW 9998   4.306   6.120   0.154  0.1262  0.0684 -0.0152
 1328SOL    HW1 9999   4.225   6.116   0.213 -0.7952 -0.4164 -1.2750
 1328SOL    HW210000   4.325   6.215   0.128 -0.8527  0.0613 -0.7923
 1329SOL     OW10001   3.143   1.962   6.206 -0.1034 -0.2587 -0.0252
 1329SOL    HW110002   3.204   1.883   6.199 -0.3228 -0.6160  1.6158
 1329SOL    HW210003   3.138   1.992   6.301 -0.1704  1.6408 -0.5873
 1330SOL     OW10004   5.817   3.733   6.166 -0.4756  0.2117  0.1844
 1330SOL    HW110005   5.829   3.815   6.110  2.5934 -0.4396 -0.3420
 1330SOL    HW210006   5.894   3.726   6.230 -0.6387 -2.2531  0.1902
 1331SOL     OW10007   1.435   1.598   5.284 -0.4156  0.7185 -0.0345
 1331SOL    HW110008   1.399   1.608   5.376 -0.6380  1.7807 -0.2186
 1331SOL    HW210009   1.432   1.502   5.256  2.0025 -0.0382  1.9845
 1332SOL     OW10010   1.335   3.450   0.428  0.1555 -0.4630  0.0215
 1332SOL    HW110011   1.251   3.439   0.376 -0.4730  0.4518  0.7948
 1332SOL    HW210012   1.312   3.464   0.525  1.1281  0.8517  0.0838
 1333SOL     OW10013   1.865   1.370   6.251 -0.0907  0.1459 -0.7027
 1333SOL    HW110014   1.815   1.387   6.336  0.2717  0.0294 -0.4649
 1333SOL    HW210015   1.962   1.355   6.271  0.2942  1.6521 -1.2680
 1334SOL     OW10016   0.381   4.337   6.454 -0.3773 -0.2212  0.3955
 1334SOL    HW110017   0.312   4.360   6.524  1.7597 -0.1250  2.5939
 1334SOL    HW210018   0.396   4.239   6.453 -1.7968 -0.4665 -1.4009
 1335SOL     OW10019   2.767   5.521   0.376 -0.0755 -0.4206  0.2175
 1335SOL    HW110020   2.766   5.616   0.343 -1.6145 -0.5931 -0.2809
 1335SOL    HW210021   2.834   5.513   0.450 -1.2127  1.4996  1.5438
 1336SOL     OW10022   3.882   6.385   4.488  0.2073 -0.2560 -0.6994
 1336SOL    HW110023   3.869   6.318   4.562  0.6546 -0.3671 -0.7189
 1336SOL    HW210024   3.976   6.420   4.491  0.5202 -0.9644 -1.8024
 1337SOL     OW10025   2.951   4.218   6.002 -0.1976 -0.1826 -0.4992
 1337SOL    HW110026   2.863   4.198   5.958  0.6597 -1.2640 -1.8056
 1337SOL    HW210027   3.003   4.280   5.944 -0.1464  0.5707  0.3404
 1338SOL     OW10028   4.563   0.350   5.407 -0.9950 -0.2883 -0.1026
 1338SOL    HW110029   4.589   0.315   5.497  0.7627 -3.0896 -1.5802
 1338SOL    HW210030   4.620   0.429   5.384 -0.7827 -0.1662  0.8121
 1339SOL     OW10031   6.008   5.297   0.825 -0.5512  0.2056  0.3945
 1339SOL    HW110032   6.001   5.282   0.924 -1.0284 -1.6867  0.1100
 1339SOL    HW210033   5.969   5.218   0.776 -1.9137  1.8385 -1.3203
 1340SOL     OW10034   4.529   5.757   0.015  0.1994 -0.4419  0.1583
 1340SOL    HW110035   4.452   5.755  -0.049  0.9238  1.2952 -0.8161
 1340SOL    HW210036   4.573   5.846   0.011 -0.5577  0.2909  4.0814
 1341SOL     OW10037   2.506   1.097   4.630  0.6862 -0.0191  0.4579
 1341SOL    HW110038   2.561   1.090   4.547  1.0773 -0.9772  0.7827
 1341SOL    HW210039   2.461   1.187   4.633  0.8872  0.1333 -0.6404
 1342SOL     OW10040   6.215   1.413   6.073 -0.3609 -0.2181  0.4462
 1342SOL    HW110041   6.228   1.314   6.059  0.2698 -0.2697  1.2741
 1342SOL    HW210042   6.212   1.432   6.171 -0.1117  0.6310  0.2986
 1343SOL     OW10043   0.240   5.192   0.474 -0.0498 -0.0976  0.2646
 1343SOL    HW110044   0.338   5.175   0.462 -0.2978 -0.4005 -1.6074
 1343SOL    HW210045   0.191   5.163   0.392 -1.4699  1.9658  0.3075
 1344SOL     OW10046   2.927   5.091   6.319 -0.4584 -0.0919  0.0955
 1344SOL    HW110047   2.961   5.184   6.311 -0.0517 -0.2197  0.3089
 1344SOL    HW210048   2.999   5.027   6.293 -0.4706 -0.3763  0.7521
 1345SOL     OW10049   6.074   3.188   5.922 -0.3491 -0.4148 -0.4250
 1345SOL    HW110050   6.002   3.234   5.870 -0.5017 -0.4797 -0.2746
 1345SOL    HW210051   6.164   3.219   5.890 -0.4521  0.1437 -0.1867
 1346SOL     OW10052   0.186   2.066   5.833  0.1312  0.5512  0.1561
 1346SOL    HW110053   0.245   1.986   5.837  0.2154  0.6612  2.1425
 1346SOL    HW210054   0.115   2.052   5.765 -0.6204 -1.7910  1.3161
 1347SOL     OW10055   3.161   2.638   0.917 -0.1973  0.1645 -0.0737
 1347SOL    HW110056   3.240   2.674   0.866 -0.3724 -0.5650 -0.8758
 1347SOL    HW210057   3.142   2.545   0.887 -2.7719  1.0776 -1.5708
 1348SOL     OW10058   3.042   2.914   6.027 -0.0128  0.0767  0.5983
 1348SOL    HW110059   3.001   2.855   6.097 -0.7146  1.4180  1.3511
 1348SOL    HW210060   3.141   2.915   6.038  0.0537 -1.2879  0.2904
 1349SOL     OW10061   2.025   2.300   5.800 -0.4852  0.0026  0.0564
 1349SOL    HW110062   2.086   2.221   5.793 -0.0616  0.0112  2.8535
 1349SOL    HW210063   2.046   2.364   5.726  1.7130 -0.7986 -0.0868
 1350SOL     OW10064   3.993   4.100   5.593 -0.1383 -0.3075 -0.4825
 1350SOL    HW110065   4.068   4.158   5.626 -0.3589 -0.4468  0.2869
 1350SOL    HW210066   4.028   4.036   5.525  0.6148 -0.8728  0.4084
 1351SOL     OW10067   1.869   0.437   0.725  0.2400  0.0938 -0.8844
 1351SOL    HW110068   1.776   0.458   0.693  0.5394  1.1224 -1.0964
 1351SOL    HW210069   1.867   0.418   0.823 -0.1851  0.1532 -0.8784
 1352SOL     OW10070   3.966   5.266   1.603 -0.5179 -0.2500  0.3769
 1352SOL    HW110071   3.928   5.194   1.661 -2.0837  0.3217  0.1085
 1352SOL    HW210072   3.893   5.325   1.571  0.3886 -0.1099 -1.6018
 1353SOL     OW10073   3.459   3.587   1.776  0.3225 -0.0290  0.2637
 1353SOL    HW110074   3.429   3.537   1.858  0.8374 -0.6615  0.0684
 1353SOL    HW210075   3.540   3.641   1.798 -0.7571  1.4968  0.7266
 1354SOL     OW10076   4.596   4.482   0.295  0.0554  0.7520  0.2988
 1354SOL    HW110077   4.538   4.557   0.326 -1.2641  0.0098 -0.2939
 1354SOL    HW210078   4.556   4.395   0.325  0.1652  0.1610 -1.1855
 1355SOL     OW10079   0.090   4.647   0.078 -0.1595  0.1931 -0.0720
 1355SOL    HW110080   0.129   4.555   0.072 -0.2130  0.0899  0.9977
 1355SOL    HW210081   0.068   4.680  -0.014  2.0027  0.0834 -0.6667
 1356SOL     OW10082   1.758   5.565   5.847 -0.4366  0.0494  0.4425
 1356SOL    HW110083   1.830   5.501   5.875 -1.4991 -0.3997  2.3412
 1356SOL    HW210084   1.798   5.655   5.831  0.8167 -0.6379 -0.4778
 1357SOL     OW10085   6.302   0.005   5.709 -0.2672 -0.3426  0.3839
 1357SOL    HW110086   6.313  -0.088   5.672 -1.4341 -0.3865  0.1137
 1357SOL    HW210087   6.343   0.070   5.645 -0.2128 -0.6089  0.1404
 1358SOL     OW10088   5.890   6.350   5.974  0.4949 -0.7125  0.2919
 1358SOL    HW110089   5.803   6.338   5.926  0.3063 -0.8691  0.6759
 1358SOL    HW210090   5.942   6.424   5.930  0.1400 -0.5730  0.1082
 1359SOL     OW10091   4.111   3.567   6.489 -0.3644 -0.4549 -0.2146
 1359SOL    HW110092   4.054   3.576   6.407  0.2326  0.2391 -0.5626
 1359SOL    HW210093   4.089   3.482   6.536 -0.7431 -0.8364 -1.0702
 1360SOL     OW10094   1.031   3.710   1.634 -0.0198  0.2283 -0.3058
 1360SOL    HW110095   1.055   3.790   1.688 -0.5983 -0.2199  0.6311
 1360SOL    HW210096   0.967   3.652   1.685  0.6714 -1.0223 -0.8026
 1361SOL     OW10097   1.619   1.185   0.558 -0.3799  0.2900  0.7120
 1361SOL    HW110098   1.696   1.181   0.622 -1.1637  3.0720  1.9971
 1361SOL    HW210099   1.635   1.258   0.491 -1.4476  0.2615  0.4016
 1362SOL     OW10100   5.872   5.110   0.685  0.3926  0.4856 -0.4349
 1362SOL    HW110101   5.832   5.023   0.712  1.4143 -0.4236 -1.7198
 1362SOL    HW210102   5.815   5.153   0.615  1.8196 -1.0785 -2.6776
 1363SOL     OW10103   1.600   2.578   5.904 -0.1689 -0.2771  0.2301
 1363SOL    HW110104   1.543   2.533   5.973 -0.3866 -2.1652 -1.0976
 1363SOL    HW210105   1.695   2.546   5.915  0.6816  2.5312  2.1675
 1364SOL     OW10106   0.238   2.008   6.488 -0.4946 -0.1155  0.2883
 1364SOL    HW110107   0.247   2.108   6.484  1.1349 -0.0773  2.7725
 1364SOL    HW210108   0.255   1.970   6.397  1.0920  1.7520 -0.2723
 1365SOL     OW10109   4.344   1.491   1.371  0.1257  0.1285  0.0297
 1365SOL    HW110110   4.407   1.489   1.293  0.8910 -0.9164  0.6345
 1365SOL    HW210111   4.333   1.398   1.406 -0.4311  0.5452  0.9804
 1366SOL     OW10112   3.254   2.529   1.773 -0.0526 -0.0639 -0.0127
 1366SOL    HW110113   3.234   2.581   1.857 -0.7359 -1.9011  1.0339
 1366SOL    HW210114   3.197   2.446   1.772 -1.5103  0.8301 -3.2630
 1367SOL     OW10115   1.729   2.559   0.004 -0.0755 -0.0198  0.2911
 1367SOL    HW110116   1.806   2.586  -0.054 -0.3669 -0.1488 -0.1533
 1367SOL    HW210117   1.763   2.541   0.097  0.6470 -1.3434 -0.2049
 1368SOL     OW10118   1.783   4.417   5.536 -0.0612  0.4810 -0.0707
 1368SOL    HW110119   1.735   4.332   5.559 -1.6452  1.2419 -0.4610
 1368SOL    HW210120   1.750   4.451   5.448  1.3219  0.9732 -0.4289
 1369SOL     OW10121   1.066   0.656   0.388 -0.3148  0.3863  0.2854
 1369SOL    HW110122   0.969   0.670   0.405 -0.7571  0.6208 -2.0758
 1369SOL    HW210123   1.108   0.611   0.467 -2.3681  0.0645  1.2485
 1370SOL     OW10124   0.710   0.360   0.743 -0.2872  0.1425 -0.4387
 1370SOL    HW110125   0.803   0.330   0.725 -0.1286  1.4341 -2.0601
 1370SOL    HW210126   0.646   0.303   0.692 -0.2970  0.0171 -0.2871
 1371SOL     OW10127   1.207   0.269   5.738 -0.0841  0.1246  0.1353
 1371SOL    HW110128   1.113   0.296   5.757 -0.6485 -1.7792  0.2265
 1371SOL    HW210129   1.224   0.274   5.640 -0.9826 -1.5579 -0.1334
 1372SOL     OW10130   3.735   5.599   0.434  0.4793  0.8284 -0.5090
 1372SOL    HW110131   3.823   5.646   0.428  0.2100  1.7385  1.5544
 1372SOL    HW210132   3.742   5.522   0.496  0.7576 -1.6582 -3.4270
 1373SOL     OW10133   1.826   0.372   0.983  0.0755  0.0086 -0.1992
 1373SOL    HW110134   1.773   0.290   0.965  1.5173 -1.1546  0.6682
 1373SOL    HW210135   1.780   0.428   1.052  0.3954 -1.4463  1.2454
 1374SOL     OW10136   1.227   2.210   5.828  0.4447  0.0156  0.3224
 1374SOL    HW110137   1.316   2.235   5.790  0.2388 -0.4630 -0.4944
 1374SOL    HW210138   1.183   2.291   5.866 -0.1488  0.9295 -2.1292
 1375SOL     OW10139   4.180   4.620   6.249  0.8234 -0.2065  0.3696
 1375SOL    HW110140   4.160   4.574   6.163 -0.9518 -1.2959  1.3194
 1375SOL    HW210141   4.274   4.598   6.277  0.5099 -2.0493  0.0635
 1376SOL     OW10142   2.155   4.396   0.309 -0.4770 -0.4257 -0.2786
 1376SOL    HW110143   2.060   4.387   0.339 -0.8513 -0.7920 -1.5330
 1376SOL    HW210144   2.158   4.430   0.215  0.5815 -1.8305 -0.7875
 1377SOL     OW10145   3.413   1.685   1.875  0.2771  0.1833  0.0117
 1377SOL    HW110146   3.466   1.626   1.935 -0.2028  2.6277  3.0669
 1377SOL    HW210147   3.467   1.765   1.850 -0.8237  1.0774  0.4098
 1378SOL     OW10148   2.428   2.616   0.675  0.2348  0.2657  0.2273
 1378SOL    HW110149   2.331   2.626   0.654  0.2441  0.3887  0.2385
 1378SOL    HW210150   2.451   2.519   0.685  0.0542  0.2488  0.5061
 1379SOL     OW10151   5.662   4.275   6.179  0.6794  0.1398 -0.0062
 1379SOL    HW110152   5.745   4.240   6.222  0.8753  0.3255 -0.2274
 1379SOL    HW210153   5.651   4.372   6.203 -0.0334 -0.1484  0.8711
 1380SOL     OW10154   1.720   3.847   0.486 -0.5366 -0.4088 -0.5108
 1380SOL    HW110155   1.803   3.814   0.442  2.9427  4.0614  1.8359
 1380SOL    HW210156   1.696   3.786   0.562  2.2540 -0.5562  0.3710
 1381SOL     OW10157   3.067   1.190   4.531  0.4144 -0.0655 -0.3900
 1381SOL    HW110158   3.162   1.163   4.520  1.0489  2.0872 -0.8102
 1381SOL    HW210159   3.061   1.290   4.527 -1.6786 -0.0697  1.1983
 1382SOL     OW10160   3.308   1.287   5.060 -0.9247  0.3749  0.2367
 1382SOL    HW110161   3.353   1.203   5.032 -2.0008 -0.6643  1.4740
 1382SOL    HW210162   3.357   1.366   5.023 -0.4437 -0.8007 -1.7336
 1383SOL     OW10163   2.525   6.356   1.229 -0.4208  1.0457 -0.7001
 1383SOL    HW110164   2.617   6.350   1.268 -1.4136  0.3365  1.7499
 1383SOL    HW210165   2.461   6.306   1.288 -2.3764  1.4386 -2.3793
 1384SOL     OW10166   0.111   0.205   5.589  0.4689  0.3850  0.0497
 1384SOL    HW110167   0.161   0.263   5.653 -0.7273  0.9393  0.5102
 1384SOL    HW210168   0.062   0.262   5.523 -0.1795 -0.1068  0.0917
 1385SOL     OW10169   3.693   5.542   6.325  0.9338  0.3314 -0.4243
 1385SOL    HW110170   3.724   5.456   6.365  0.3369  0.5415  0.5079
 1385SOL    HW210171   3.666   5.526   6.230 -3.4075 -1.5667  0.8759
 1386SOL     OW10172   0.228   2.497   5.758  0.3031  0.1524 -0.1461
 1386SOL    HW110173   0.277   2.432   5.817  3.6475  0.6548 -2.0749
 1386SOL    HW210174   0.169   2.447   5.695  1.1244 -0.8579 -0.1358
 1387SOL     OW10175   1.712   3.016   5.530 -0.1228 -0.2669 -0.1920
 1387SOL    HW110176   1.615   3.019   5.554  0.5588  0.6397  2.9589
 1387SOL    HW210177   1.753   2.933   5.569  0.8135  0.6141  0.7887
 1388SOL     OW10178   2.040   5.956   5.533  0.1309  0.6785  0.1839
 1388SOL    HW110179   2.010   5.861   5.520  0.9027  0.5029 -0.3782
 1388SOL    HW210180   2.013   5.987   5.625  0.4485 -0.3081  0.6278
 1389SOL     OW10181   0.760   6.303   5.977 -0.0557 -0.1320  0.3857
 1389SOL    HW110182   0.695   6.228   5.960  0.2048 -0.1365 -0.6557
 1389SOL    HW210183   0.851   6.275   5.948  0.1823  0.3236  0.6880
 1390SOL     OW10184   5.152   3.353   5.512  0.3675  0.1309  0.3235
 1390SOL    HW110185   5.202   3.405   5.443 -0.5605  0.3709 -0.1960
 1390SOL    HW210186   5.068   3.402   5.536 -0.1918 -0.7968  0.3139
 1391SOL     OW10187   5.318   1.744   5.615  0.1565  0.6856  0.5182
 1391SOL    HW110188   5.233   1.792   5.639  0.7052  1.2040  1.4668
 1391SOL    HW210189   5.385   1.809   5.581  0.6771  0.5074  1.1827
 1392SOL     OW10190   4.204   2.983   0.885  0.3671  0.1796  0.4936
 1392SOL    HW110191   4.115   2.979   0.841 -0.5127 -2.3394  2.2601
 1392SOL    HW210192   4.270   2.931   0.830  0.1942  0.1958  0.2709
 1393SOL     OW10193   4.017   0.106   0.736  0.2909  0.3345  0.3286
 1393SOL    HW110194   3.999   0.162   0.817 -1.7166 -0.0216  0.1748
 1393SOL    HW210195   4.046   0.164   0.660  0.7274  0.8461  0.8835
 1394SOL     OW10196   3.753   2.744   6.072  0.4088 -0.6766 -0.2959
 1394SOL    HW110197   3.723   2.837   6.052 -0.6330 -0.9834 -0.2621
 1394SOL    HW210198   3.729   2.684   5.996  2.1818 -0.7166 -0.8572
 1395SOL     OW10199   0.844   4.634   6.155  0.2625 -0.5173 -0.5639
 1395SOL    HW110200   0.769   4.699   6.149  1.2581  1.1507  2.6884
 1395SOL    HW210201   0.928   4.682   6.179  1.5655 -2.7286 -0.4165
 1396SOL     OW10202   5.548   5.585   1.015  0.4292  0.2578  0.4211
 1396SOL    HW110203   5.467   5.629   0.976 -1.2058 -2.5607  0.4419
 1396SOL    HW210204   5.629   5.612   0.962 -1.1053 -0.1501 -2.2994
 1397SOL     OW10205   2.333   4.293   0.879 -0.1302  0.5887 -0.1458
 1397SOL    HW110206   2.402   4.271   0.948  0.7342 -2.8198 -1.8866
 1397SOL    HW210207   2.366   4.369   0.823  0.1184  1.9620  1.7541
 1398SOL     OW10208   1.917   0.275   0.497  0.6218 -0.2918  0.6226
 1398SOL    HW110209   2.009   0.246   0.522  1.1217  1.2104  0.6085
 1398SOL    HW210210   1.885   0.345   0.561 -0.6604 -1.0355  0.8358
 1399SOL     OW10211   3.638   4.492   5.981 -0.6543  0.1787  0.2402
 1399SOL    HW110212   3.575   4.505   5.905 -0.6045 -0.5529  0.0696
 1399SOL    HW210213   3.587   4.483   6.066 -0.7374  0.3668  0.2110
 1400SOL     OW10214   1.386   1.603   0.304 -0.0640  0.6739 -0.2746
 1400SOL    HW110215   1.301   1.656   0.306 -0.4502  0.1337 -1.4027
 1400SOL    HW210216   1.404   1.574   0.210 -1.0250 -2.9609  0.5097
 1401SOL     OW10217   0.297   5.282   5.679  0.4351  0.9215  0.3887
 1401SOL    HW110218   0.237   5.356   5.649  1.1816  0.6672 -1.8591
 1401SOL    HW210219   0.392   5.309   5.667  0.7294 -0.6239 -1.2184
 1402SOL     OW10220   4.935   2.880   5.397  0.6376  0.0908 -0.3130
 1402SOL    HW110221   4.899   2.825   5.473  2.4964 -0.6622  0.0759
 1402SOL    HW210222   4.988   2.821   5.336  1.8999  1.2629 -0.3986
 1403SOL     OW10223   1.854   1.880   0.647 -0.4410 -0.2035  0.0806
 1403SOL    HW110224   1.791   1.806   0.622 -0.6473 -0.1291  0.3806
 1403SOL    HW210225   1.948   1.851   0.630 -0.5916 -0.0121 -1.1762
 1404SOL     OW10226   0.293   0.788   0.655 -0.0331 -0.1332  0.1954
 1404SOL    HW110227   0.273   0.805   0.558 -2.1525  0.7791  0.7414
 1404SOL    HW210228   0.233   0.717   0.690 -0.7400  0.9757  1.3205
 1405SOL     OW10229   1.495   5.992   1.182  0.6964  0.6056  0.9898
 1405SOL    HW110230   1.505   6.078   1.232  0.6182  1.4105 -0.3212
 1405SOL    HW210231   1.419   5.939   1.219  0.0335  1.6207  1.1141
 1406SOL     OW10232   3.476   4.466   5.092 -0.0347 -0.4641 -0.4032
 1406SOL    HW110233   3.405   4.529   5.124 -0.7556 -1.0350 -0.8401
 1406SOL    HW210234   3.522   4.505   5.012  2.0102  1.1275  1.4419
 1407SOL     OW10235   4.534   0.134   1.526 -0.0831  0.3834  0.5758
 1407SOL    HW110236   4.475   0.117   1.604 -1.7676  1.9495 -0.2832
 1407SOL    HW210237   4.587   0.218   1.541 -1.3393  1.4054 -0.3967
 1408SOL     OW10238   1.854   0.678   4.512 -0.1061 -0.4469  0.2767
 1408SOL    HW110239   1.858   0.602   4.448  0.3040  0.8787 -1.3367
 1408SOL    HW210240   1.759   0.704   4.528 -0.2534 -1.3709  0.9516
 1409SOL     OW10241   1.017   5.580   5.897 -0.3977 -0.8731 -0.1975
 1409SOL    HW110242   0.990   5.553   5.804  1.2187 -0.0741 -0.9392
 1409SOL    HW210243   1.029   5.679   5.900 -0.9507 -0.8280  1.0400
 1410SOL     OW10244   0.547   4.220   1.112 -0.1868  0.2951 -1.0915
 1410SOL    HW110245   0.613   4.293   1.130  1.7999 -1.3118 -1.5061
 1410SOL    HW210246   0.555   4.191   1.016 -1.1792 -0.2544 -1.0200
 1411SOL     OW10247   0.852   5.911   4.474  0.3485 -0.1799 -0.3697
 1411SOL    HW110248   0.865   5.948   4.565  0.6929 -0.9683 -0.0860
 1411SOL    HW210249   0.911   5.959   4.409  0.6587 -0.1202 -0.0447
 1412SOL     OW10250   3.548   2.515   1.185  0.4170 -0.6042  0.0817
 1412SOL    HW110251   3.646   2.501   1.174  0.4715 -0.6655  0.6054
 1412SOL    HW210252   3.532   2.586   1.255  0.0760 -2.2149  1.7096
 1413SOL     OW10253   5.267   2.472   5.801 -0.3920  0.1024 -0.0917
 1413SOL    HW110254   5.193   2.447   5.738 -0.3130  2.2377 -1.1259
 1413SOL    HW210255   5.332   2.397   5.808 -0.8883 -0.5452 -1.8710
 1414SOL     OW10256   4.968   0.956   0.502 -0.6704 -0.4903  0.2529
 1414SOL    HW110257   4.894   1.019   0.522  0.7374  1.5638 -0.7245
 1414SOL    HW210258   5.054   1.006   0.492  1.2002 -2.8609  2.5963
 1415SOL     OW10259   0.046   4.512   5.814  0.0691 -0.7323 -0.2002
 1415SOL    HW110260   0.094   4.547   5.894  0.1837  0.6922 -0.8600
 1415SOL    HW210261  -0.052   4.531   5.823  0.0239 -0.9545 -0.2103
 1416SOL     OW10262   1.236   2.000   0.474 -0.0561 -0.1141 -0.1807
 1416SOL    HW110263   1.313   2.051   0.512  0.3575 -1.0948  0.3376
 1416SOL    HW210264   1.151   2.033   0.515  0.2115  0.1040  0.2099
 1417SOL     OW10265   2.561   2.742   5.212 -0.5031  0.5754  0.1583
 1417SOL    HW110266   2.597   2.806   5.144 -1.3709 -1.1107 -1.9824
 1417SOL    HW210267   2.469   2.713   5.185 -0.0532 -1.7471  0.9037
 1418SOL     OW10268   0.407   3.686   6.127 -0.3906 -0.5400 -0.0211
 1418SOL    HW110269   0.434   3.657   6.219  0.6269 -0.1835 -0.1939
 1418SOL    HW210270   0.308   3.678   6.117 -0.5456 -0.3061  1.1996
 1419SOL     OW10271   0.010   0.509   1.075 -0.1705 -0.2428 -0.1208
 1419SOL    HW110272   0.017   0.564   1.158  1.0109 -0.3733 -0.1191
 1419SOL    HW210273   0.011   0.412   1.099  0.2216 -0.2805 -0.2910
 1420SOL     OW10274   3.210   1.457   6.497  0.0838  1.1296  0.0310
 1420SOL    HW110275   3.219   1.490   6.591 -0.8583 -0.7118  0.8111
 1420SOL    HW210276   3.300   1.438   6.459  0.4369  1.2028  0.8175
 1421SOL     OW10277   0.642   5.937   6.313  0.7542 -0.2781 -0.3521
 1421SOL    HW110278   0.711   5.994   6.268  0.9715 -0.9030 -0.8131
 1421SOL    HW210279   0.659   5.937   6.412  1.1687 -0.0973 -0.4189
 1422SOL     OW10280   3.936   3.608   6.270  0.1299 -0.1996 -0.1663
 1422SOL    HW110281   3.843   3.573   6.279  0.3721 -0.7893  0.0659
 1422SOL    HW210282   3.960   3.615   6.173 -0.4137  0.6514 -0.2449
 1423SOL     OW10283   6.324   1.262   0.272  0.7873  0.2413  0.1709
 1423SOL    HW110284   6.371   1.331   0.327  0.6490 -0.5798  1.3501
 1423SOL    HW210285   6.225   1.271   0.286  0.8302 -1.2309  1.6450
 1424SOL     OW10286   6.046   0.124   5.809 -0.1952 -0.0359 -0.3936
 1424SOL    HW110287   6.129   0.072   5.793  0.2318  0.6494 -0.4306
 1424SOL    HW210288   6.065   0.221   5.799 -0.8722  0.1631  0.1703
 1425SOL     OW10289   1.403   5.131   5.555  0.3836 -0.3314  0.0272
 1425SOL    HW110290   1.325   5.172   5.602  1.3986  0.7569  0.8215
 1425SOL    HW210291   1.383   5.035   5.535 -1.6972  0.2560 -1.0552
 1426SOL     OW10292   2.591   1.182   1.371 -0.0455 -0.0849  0.9375
 1426SOL    HW110293   2.508   1.149   1.415 -0.8192 -0.0902 -0.4680
 1426SOL    HW210294   2.610   1.276   1.401 -1.1497  0.2948  0.5106
 1427SOL     OW10295   3.636   4.084   1.161  0.3784 -0.0028  0.3561
 1427SOL    HW110296   3.684   4.168   1.189 -0.5516  0.1718  1.4775
 1427SOL    HW210297   3.579   4.104   1.082  1.3448  0.0334 -0.3541
 1428SOL     OW10298   2.374   3.604   0.386  0.3296  0.0528  0.6184
 1428SOL    HW110299   2.332   3.540   0.450  2.3171 -1.3146  0.6226
 1428SOL    HW210300   2.472   3.588   0.382  0.4458  0.9599 -1.8125
 1429SOL     OW10301   4.098   4.338   0.981 -0.3503 -0.1808  0.9264
 1429SOL    HW110302   4.090   4.336   1.080  0.9193 -2.1684  1.0509
 1429SOL    HW210303   4.009   4.316   0.940 -0.3008 -2.0909  1.7213
 1430SOL     OW10304   2.514   0.806   6.465  0.1904 -0.3418 -0.0844
 1430SOL    HW110305   2.604   0.775   6.495 -0.0146 -1.2871 -0.4123
 1430SOL    HW210306   2.450   0.804   6.542 -0.1480 -2.0366 -0.3785
 1431SOL     OW10307   1.111   5.121   0.652 -0.1621  0.2340  1.0614
 1431SOL    HW110308   1.092   5.219   0.650  2.1404  0.7340  0.5245
 1431SOL    HW210309   1.178   5.102   0.723  1.4315 -0.4925 -0.5571
 1432SOL     OW10310   1.508   4.272   5.760  0.3526  0.0120 -0.2670
 1432SOL    HW110311   1.442   4.220   5.814 -0.2719  0.9813 -0.0923
 1432SOL    HW210312   1.568   4.323   5.821  1.1611 -0.7211 -0.4327
 1433SOL     OW10313   5.135   1.920   5.956 -0.6472  0.0934  0.2822
 1433SOL    HW110314   5.227   1.958   5.963 -1.0600  1.3603 -0.7408
 1433SOL    HW210315   5.115   1.897   5.861 -1.2423 -0.5874  0.5538
 1434SOL     OW10316   5.865   0.282   6.093 -0.8048 -0.1366 -0.6890
 1434SOL    HW110317   5.963   0.292   6.078 -0.6323 -1.2270 -0.4064
 1434SOL    HW210318   5.846   0.283   6.192 -1.1421  0.5475 -0.7557
 1435SOL     OW10319   5.650   2.553   5.936 -0.4028  0.3100  0.4983
 1435SOL    HW110320   5.591   2.482   5.898 -3.8397  1.9129  2.3265
 1435SOL    HW210321   5.618   2.643   5.906 -0.2487  1.3640  3.1888
 1436SOL     OW10322   1.465   1.722   0.983 -0.4648 -0.1481  0.4199
 1436SOL    HW110323   1.426   1.687   0.898 -0.1569  0.2914  0.0964
 1436SOL    HW210324   1.446   1.658   1.057 -1.2000 -0.2803  0.1286
 1437SOL     OW10325   4.228   5.462   0.165  0.3607  0.1321  0.5191
 1437SOL    HW110326   4.217   5.389   0.232  1.5342 -0.2975  0.2639
 1437SOL    HW210327   4.192   5.432   0.077  0.1736  0.1494  0.5877
 1438SOL     OW10328   0.326   2.378   5.118  0.1694 -0.2380 -0.0150
 1438SOL    HW110329   0.422   2.362   5.140 -0.0246 -0.9191  0.3657
 1438SOL    HW210330   0.302   2.327   5.035  1.0339  2.7289 -2.2388
 1439SOL     OW10331   2.649   1.400   0.220 -0.0609  0.1968  0.3636
 1439SOL    HW110332   2.644   1.416   0.319 -0.5453  0.7787  0.2541
 1439SOL    HW210333   2.631   1.304   0.201  1.2904 -0.1971  0.9301
 1440SOL     OW10334   3.968   5.765   0.318 -0.2761  0.2328  0.0115
 1440SOL    HW110335   4.050   5.790   0.267 -0.8815 -0.0466 -1.1336
 1440SOL    HW210336   3.887   5.800   0.271 -0.9008 -0.6578  0.3792
 1441SOL     OW10337   0.451   2.623   5.134  0.5080  0.1007  0.1790
 1441SOL    HW110338   0.422   2.528   5.120  1.4464 -0.5601  2.2580
 1441SOL    HW210339   0.415   2.680   5.060 -1.0273 -1.6660 -0.5350
 1442SOL     OW10340   2.862   3.381   0.680 -0.1320  0.8486 -0.5312
 1442SOL    HW110341   2.893   3.334   0.597  2.1214  1.3393 -0.0468
 1442SOL    HW210342   2.823   3.315   0.744  1.4047 -0.1430 -0.5590
 1443SOL     OW10343   1.167   1.755   0.346  0.1013  0.5164  0.1144
 1443SOL    HW110344   1.199   1.841   0.387  1.5427 -0.1935  0.5697
 1443SOL    HW210345   1.101   1.711   0.407 -1.2962  1.6764 -0.5095
 1444SOL     OW10346   0.435   6.042   0.195  0.0949  0.7529 -0.3215
 1444SOL    HW110347   0.407   5.952   0.164  1.1919  0.2987 -0.0329
 1444SOL    HW210348   0.361   6.083   0.249 -1.4233  1.1261 -2.5485
 1445SOL     OW10349   3.461   5.572   6.489  0.3285  0.2317 -0.2932
 1445SOL    HW110350   3.551   5.585   6.448  0.1893 -1.0922 -1.0811
 1445SOL    HW210351   3.447   5.641   6.561  1.8011  0.6923 -0.4052
 1446SOL     OW10352   1.535   3.778   1.437 -0.0976 -0.5431  0.5815
 1446SOL    HW110353   1.569   3.825   1.519  3.0986  0.1498 -1.0019
 1446SOL    HW210354   1.494   3.846   1.375 -0.6829 -0.7542  0.7340
 1447SOL     OW10355   5.243   0.230   5.875  0.2371  0.7045 -0.2485
 1447SOL    HW110356   5.161   0.174   5.867 -0.2500  0.8268  2.5788
 1447SOL    HW210357   5.231   0.314   5.823 -1.9465  1.2031  0.9227
 1448SOL     OW10358   4.152   2.269   0.506  0.1462 -0.3125 -0.0576
 1448SOL    HW110359   4.225   2.235   0.447  0.1448 -1.5896  0.6494
 1448SOL    HW210360   4.164   2.367   0.520  0.7135 -0.1803 -1.3679
 1449SOL     OW10361   0.830   2.554   0.016  0.0116 -0.1269 -0.8524
 1449SOL    HW110362   0.807   2.592  -0.074  0.6769  0.3449 -0.8325
 1449SOL    HW210363   0.924   2.579   0.039  0.5216 -1.8552 -0.8703
 1450SOL     OW10364   5.602   4.405   0.331  0.1331  0.4049  0.0037
 1450SOL    HW110365   5.599   4.412   0.430 -0.8969  0.0910  0.0113
 1450SOL    HW210366   5.572   4.492   0.291  0.3767  0.4732 -0.0291
 1451SOL     OW10367   1.563   6.180   6.049  0.2377 -0.1915 -0.4508
 1451SOL    HW110368   1.498   6.108   6.073  0.9454 -0.4232  0.8761
 1451SOL    HW210369   1.513   6.267   6.038 -0.4795 -0.6593 -0.9945
 1452SOL     OW10370   5.390   3.880   0.085  0.3617  0.0038 -0.1238
 1452SOL    HW110371   5.396   3.975   0.052  1.7244  0.5849  1.6619
 1452SOL    HW210372   5.439   3.820   0.022 -1.5470  0.2317 -1.9490
 1453SOL     OW10373   1.928   4.987   1.100  0.4590  0.1310  0.3093
 1453SOL    HW110374   1.854   5.035   1.147  0.1154 -0.4897  0.4242
 1453SOL    HW210375   1.931   4.892   1.133  2.1257  0.4799  1.2345
 1454SOL     OW10376   3.136   6.350   6.230  0.2805 -0.3487  0.1156
 1454SOL    HW110377   3.181   6.429   6.270  0.0361 -0.3602  0.4190
 1454SOL    HW210378   3.146   6.352   6.131  3.1118 -1.6486  0.2940
 1455SOL     OW10379   2.749   3.057   5.440  0.0866 -0.0124 -0.3560
 1455SOL    HW110380   2.754   2.983   5.374 -0.6391 -0.4494  0.0702
 1455SOL    HW210381   2.672   3.117   5.418 -1.2285 -1.1168  1.0373
 1456SOL     OW10382   1.385   5.396   5.290 -0.8329 -0.0235  0.8044
 1456SOL    HW110383   1.349   5.382   5.198 -0.8433  0.3983  0.7440
 1456SOL    HW210384   1.453   5.326   5.311 -1.7631 -0.9155  0.9599
 1457SOL     OW10385   3.988   2.851   5.526  0.0074  0.3580 -0.2013
 1457SOL    HW110386   4.018   2.794   5.603 -0.8032  0.9032  0.5385
 1457SOL    HW210387   4.066   2.869   5.466  0.2881 -1.4922 -0.4415
 1458SOL     OW10388   1.171   5.174   5.688 -0.3921  0.4231  0.7313
 1458SOL    HW110389   1.077   5.199   5.667 -1.4794 -2.5339  1.6337
 1458SOL    HW210390   1.176   5.134   5.779  1.0356 -2.4724 -0.4693
 1459SOL     OW10391   3.138   3.688   5.154 -0.3392 -0.0333 -0.4067
 1459SOL    HW110392   3.084   3.754   5.205  3.0875  0.8896  2.4490
 1459SOL    HW210393   3.161   3.725   5.064 -1.1852  1.2077 -0.1310
 1460SOL     OW10394   4.595   4.050   0.585 -0.1273  0.6439 -0.1691
 1460SOL    HW110395   4.660   4.025   0.657 -0.1475  1.7057  0.2260
 1460SOL    HW210396   4.519   4.101   0.624 -0.3489  0.8721 -0.8785
 1461SOL     OW10397   2.014   3.635   5.842 -0.4039 -0.8271  0.4397
 1461SOL    HW110398   2.059   3.603   5.758  0.6140 -0.1503  0.7217
 1461SOL    HW210399   2.034   3.572   5.916  0.3351 -0.3753  0.6326
 1462SOL     OW10400   5.379   0.651   5.682  0.0878  0.2569 -0.8691
 1462SOL    HW110401   5.401   0.554   5.671 -0.2922  0.1735 -0.9173
 1462SOL    HW210402   5.448   0.695   5.740  0.3462 -0.0059 -0.9733
 1463SOL     OW10403   5.217   4.791   0.309 -0.1009  0.3266  0.8467
 1463SOL    HW110404   5.236   4.878   0.356  0.4806 -0.4168  2.0470
 1463SOL    HW210405   5.128   4.796   0.265 -0.0268  1.5722  0.7902
 1464SOL     OW10406   4.933   5.442   6.131  0.5582 -0.1174  0.4640
 1464SOL    HW110407   5.018   5.392   6.148  0.3483  0.0947  2.2900
 1464SOL    HW210408   4.941   5.534   6.168  0.6414  0.9923 -2.1475
 1465SOL     OW10409   3.905   3.563   5.731 -0.6066 -0.4988  0.3916
 1465SOL    HW110410   3.988   3.531   5.776 -0.0507 -4.0437 -2.7009
 1465SOL    HW210411   3.829   3.502   5.752 -1.5999  0.6753  0.3768
 1466SOL     OW10412   1.244   0.589   0.629 -0.2027 -0.3013 -0.1575
 1466SOL    HW110413   1.339   0.619   0.636 -0.0258 -0.4777 -1.4761
 1466SOL    HW210414   1.208   0.569   0.720  0.5653  1.1354  0.4874
 1467SOL     OW10415   0.537   0.921   0.170 -0.0812  0.5909 -0.7618
 1467SOL    HW110416   0.632   0.891   0.165 -0.7268 -1.3929 -2.2134
 1467SOL    HW210417   0.501   0.902   0.261  0.5265  0.1071 -0.6173
 1468SOL     OW10418   5.160   3.210   0.051  0.2535 -0.0542  0.0576
 1468SOL    HW110419   5.080   3.151   0.060 -0.2889  0.8646  1.5775
 1468SOL    HW210420   5.148   3.271  -0.026 -0.1678 -0.4273 -0.1770
 1469SOL     OW10421   3.910   5.040   1.732 -0.2486  0.1599  0.1789
 1469SOL    HW110422   3.911   4.949   1.690 -0.0380  0.2623 -0.0376
 1469SOL    HW210423   3.866   5.034   1.822  2.6822 -0.8179  1.6682
 1470SOL     OW10424   3.313   1.396   5.314 -0.0010 -0.3635  0.0381
 1470SOL    HW110425   3.361   1.479   5.288 -0.4658 -0.1669 -0.2086
 1470SOL    HW210426   3.315   1.330   5.239 -0.2840 -0.2784 -0.0446
 1471SOL     OW10427   4.453   1.102   0.458 -0.4401  0.3081  0.1533
 1471SOL    HW110428   4.472   1.029   0.523 -0.4569 -0.1339 -0.3299
 1471SOL    HW210429   4.397   1.172   0.502  0.1332  0.3663  0.8210
 1472SOL     OW10430   2.498   4.944   0.270 -0.4412 -0.1994 -0.0227
 1472SOL    HW110431   2.416   4.919   0.218 -0.7740 -2.5322  1.4468
 1472SOL    HW210432   2.475   4.952   0.366  0.7985  0.6024  0.2267
 1473SOL     OW10433   3.339   5.451   6.106  0.1021 -0.2499 -0.5162
 1473SOL    HW110434   3.320   5.394   6.186  0.0786 -0.6188 -0.7771
 1473SOL    HW210435   3.438   5.455   6.091  0.1065 -0.1815 -0.4670
 1474SOL     OW10436   3.428   2.048   4.688  0.1136 -0.0617 -0.4303
 1474SOL    HW110437   3.424   2.148   4.688  0.8671 -0.0175  0.3750
 1474SOL    HW210438   3.514   2.019   4.646  0.4661 -0.3200  0.4463
 1475SOL     OW10439   3.000   3.899   5.290 -0.2642  0.1812  0.3587
 1475SOL    HW110440   3.037   3.972   5.232  1.1095  0.3020  1.3432
 1475SOL    HW210441   2.907   3.923   5.319  0.7765  2.4103  2.0952
 1476SOL     OW10442   4.005   2.787   1.635 -0.2743  0.1693  0.0733
 1476SOL    HW110443   4.073   2.715   1.618 -0.1532  0.3774 -0.3327
 1476SOL    HW210444   3.957   2.768   1.721 -0.1895 -0.3566  0.0078
 1477SOL     OW10445   3.534   0.580   5.884  0.0763  0.1804 -0.3398
 1477SOL    HW110446   3.580   0.547   5.801 -0.5688  0.7129 -0.9194
 1477SOL    HW210447   3.435   0.571   5.872 -0.0228  0.3422  0.3471
 1478SOL     OW10448   6.151   3.299   0.361 -0.1495  0.3750  0.1701
 1478SOL    HW110449   6.087   3.290   0.285  0.2230  1.1026 -0.2391
 1478SOL    HW210450   6.156   3.212   0.410 -1.0740  0.1654 -0.0820
 1479SOL     OW10451   2.694   5.588   5.761  0.1492  0.2778 -0.5153
 1479SOL    HW110452   2.765   5.602   5.830  0.6916  1.0150 -1.2070
 1479SOL    HW210453   2.704   5.656   5.688 -1.2156  0.3404 -0.6764
 1480SOL     OW10454   2.014   1.815   1.535 -0.2135 -0.0961 -0.5167
 1480SOL    HW110455   2.005   1.906   1.494  0.5423  0.8579  1.3444
 1480SOL    HW210456   2.076   1.819   1.613  1.4088 -2.6077 -1.5212
 1481SOL     OW10457   2.984   3.150   6.394  1.0329  0.2386 -0.4730
 1481SOL    HW110458   2.986   3.057   6.430  0.9165  0.7774  1.0038
 1481SOL    HW210459   3.032   3.153   6.306  0.2861 -1.3613 -0.9729
 1482SOL     OW10460   1.044   4.373   6.242  0.5822 -0.0151 -0.1971
 1482SOL    HW110461   1.083   4.349   6.331 -1.5943  1.9546  1.4297
 1482SOL    HW210462   1.004   4.465   6.248 -0.4987 -0.2265 -2.9478
 1483SOL     OW10463   1.577   5.695   6.047 -0.5980  0.1867  0.7141
 1483SOL    HW110464   1.613   5.624   5.986 -0.8523 -0.3943  1.2281
 1483SOL    HW210465   1.652   5.732   6.102 -0.5754 -0.1457  0.9071
 1484SOL     OW10466   2.555   5.635   6.047  0.6117 -1.4179  0.0006
 1484SOL    HW110467   2.610   5.664   5.969  0.7236 -0.9552  0.2481
 1484SOL    HW210468   2.505   5.551   6.024  1.8763 -2.1830 -0.0290
 1485SOL     OW10469   2.547   2.298   5.062 -0.7319 -0.1978  0.0933
 1485SOL    HW110470   2.556   2.336   4.970  1.7089 -0.9093 -0.0414
 1485SOL    HW210471   2.564   2.199   5.058  1.0121  0.0015  1.4691
 1486SOL     OW10472   3.874   2.896   6.506  0.1834  0.5303  0.4406
 1486SOL    HW110473   3.798   2.840   6.472 -0.2791  1.3595  0.0857
 1486SOL    HW210474   3.919   2.941   6.429  1.1452 -0.0720  0.6350
 1487SOL     OW10475   5.841   3.394   6.407  0.4012  0.2910  0.0521
 1487SOL    HW110476   5.781   3.473   6.398 -2.5999 -1.7935  0.3759
 1487SOL    HW210477   5.930   3.415   6.365  0.2678  4.2219  1.3483
 1488SOL     OW10478   1.720   0.835   0.433 -0.4178  0.2836 -0.4000
 1488SOL    HW110479   1.646   0.890   0.471  0.3037  1.8666 -1.1573
 1488SOL    HW210480   1.788   0.896   0.391  0.8611 -1.1661 -0.5218
 1489SOL     OW10481   0.644   5.826   0.111  0.3617 -0.1138  0.0781
 1489SOL    HW110482   0.701   5.865   0.182 -0.1036 -1.7132  1.3937
 1489SOL    HW210483   0.558   5.877   0.105 -0.0508 -0.6142  1.4408
 1490SOL     OW10484   4.328   5.699   0.510  0.1187  0.5529 -0.6009
 1490SOL    HW110485   4.252   5.699   0.575  0.1979  0.2690 -0.5053
 1490SOL    HW210486   4.297   5.736   0.422 -0.2248  0.1063 -0.6701
 1491SOL     OW10487   0.391   3.096   5.967  0.5738 -0.3442 -0.4519
 1491SOL    HW110488   0.305   3.045   5.979 -0.0028  0.5398 -0.7122
 1491SOL    HW210489   0.462   3.053   6.022 -0.2468 -0.6098  0.4486
 1492SOL     OW10490   3.055   4.997   5.452 -0.8522 -0.3009 -0.1979
 1492SOL    HW110491   3.054   4.945   5.537 -2.0451 -0.4297 -0.2753
 1492SOL    HW210492   3.124   5.069   5.458 -2.9047  1.6639  2.1231
 1493SOL     OW10493   1.814   4.843   6.257 -0.5495  0.1055  0.7469
 1493SOL    HW110494   1.858   4.878   6.174  0.0298 -3.0337 -0.3918
 1493SOL    HW210495   1.727   4.799   6.232 -1.2924  0.7442  2.1093
 1494SOL     OW10496   2.570   1.137   0.094  0.0272  0.0716 -0.1539
 1494SOL    HW110497   2.550   1.067   0.162 -1.0308  0.9186  0.4551
 1494SOL    HW210498   2.587   1.094   0.006 -1.2863 -0.9447  0.0475
 1495SOL     OW10499   5.596   0.217   6.058  0.4219  0.0594 -0.0642
 1495SOL    HW110500   5.689   0.253   6.054  0.5882 -0.4492 -1.1671
 1495SOL    HW210501   5.563   0.221   6.152  0.5934  2.6202 -0.0370
 1496SOL     OW10502   0.146   4.662   0.811  0.0020  0.5634 -0.9380
 1496SOL    HW110503   0.109   4.746   0.774 -0.3062 -0.1750 -2.3752
 1496SOL    HW210504   0.086   4.585   0.787  0.6872 -0.1813 -0.3438
 1497SOL     OW10505   5.662   5.704   0.203 -0.1988  0.5088 -0.4362
 1497SOL    HW110506   5.663   5.604   0.208 -0.8054  0.4765 -0.8601
 1497SOL    HW210507   5.576   5.734   0.163 -0.4078  1.2429  0.5209
 1498SOL     OW10508   2.064   2.642   5.538 -0.2204 -0.1572 -0.6783
 1498SOL    HW110509   2.106   2.650   5.448 -0.4170 -0.9435 -0.8485
 1498SOL    HW210510   2.132   2.608   5.603 -0.1358  0.2060 -0.5770
 1499SOL     OW10511   4.329   6.360   5.199  0.3028 -0.2121  0.1915
 1499SOL    HW110512   4.422   6.379   5.166  1.0520 -2.1729  1.0215
 1499SOL    HW210513   4.278   6.446   5.205  1.0384  0.6258 -3.1601
 1500SOL     OW10514   3.612   4.504   0.470 -0.6334  0.2868  0.1419
 1500SOL    HW110515   3.523   4.548   0.461 -0.9241 -0.2289  0.4236
 1500SOL    HW210516   3.669   4.524   0.390 -0.5774  1.5667  0.4777
 1501SOL     OW10517   1.573   4.782   0.717  0.0852 -0.3859  0.1707
 1501SOL    HW110518   1.501   4.847   0.692  0.7033 -0.0503 -0.7957
 1501SOL    HW210519   1.592   4.790   0.815 -1.3616 -0.6654  0.5005
 1502SOL     OW10520   2.740   2.591   0.583  0.0446  0.1204 -0.1095
 1502SOL    HW110521   2.837   2.602   0.607 -0.1666  3.9414 -0.4621
 1502SOL    HW210522   2.685   2.588   0.667  0.3021 -0.0688  0.0539
 1503SOL     OW10523   1.148   6.199   5.332  0.0799  0.7433 -0.6509
 1503SOL    HW110524   1.204   6.189   5.413  1.7560  1.9888 -1.5944
 1503SOL    HW210525   1.097   6.285   5.336  0.6917  1.1372 -1.2105
 1504SOL     OW10526   3.179   4.382   6.372 -0.6354 -0.6793 -0.1786
 1504SOL    HW110527   3.121   4.315   6.325 -1.8572 -0.4021  0.8698
 1504SOL    HW210528   3.147   4.393   6.466 -0.0627  0.9045 -0.1413
 1505SOL     OW10529   3.134   2.880   0.638  0.1112 -0.4332  0.4636
 1505SOL    HW110530   3.218   2.853   0.685 -0.0410 -0.2171  0.8641
 1505SOL    HW210531   3.155   2.902   0.542  0.7370  0.8335  0.8733
 1506SOL     OW10532   4.196   1.202   6.081 -0.4861  0.1038  1.0396
 1506SOL    HW110533   4.225   1.249   5.997 -1.5861 -1.0373 -0.0155
 1506SOL    HW210534   4.096   1.198   6.084 -0.5333 -3.8899 -0.0339
 1507SOL     OW10535   0.430   2.633   0.304  0.3464 -0.0816 -0.2477
 1507SOL    HW110536   0.384   2.722   0.308  0.5681  0.0052  0.5888
 1507SOL    HW210537   0.450   2.610   0.209  0.0043  0.6185 -0.4944
 1508SOL     OW10538   4.029   1.806   0.224 -0.3663 -0.0553 -0.5291
 1508SOL    HW110539   4.083   1.854   0.292  0.3243 -2.0189  0.3871
 1508SOL    HW210540   4.051   1.708   0.226 -2.4770 -0.6266 -1.5278
 1509SOL     OW10541   4.034   2.981   6.008  0.2776  0.0010 -0.5285
 1509SOL    HW110542   4.095   2.988   5.929 -1.2717  1.1244 -1.6778
 1509SOL    HW210543   4.039   2.889   6.046  2.6620  0.0593 -0.5671
 1510SOL     OW10544   2.349   6.027   1.643 -0.1601 -0.1695 -0.1730
 1510SOL    HW110545   2.266   6.031   1.587  1.1336 -0.0570 -2.1661
 1510SOL    HW210546   2.324   6.039   1.740 -2.5335 -0.9507 -0.6128
 1511SOL     OW10547   2.069   0.603   5.454  0.3984 -0.0555 -0.1489
 1511SOL    HW110548   2.136   0.649   5.395  1.2866  0.0401  0.9134
 1511SOL    HW210549   2.061   0.507   5.427 -1.6554  0.6881 -2.5567
 1512SOL     OW10550   4.896   3.010   0.566 -0.0216 -0.3261  0.4009
 1512SOL    HW110551   4.865   3.049   0.480  0.4372  0.8720  0.7511
 1512SOL    HW210552   4.963   2.938   0.548 -1.6133 -1.6771 -0.2933
 1513SOL     OW10553   3.552   5.444   5.056 -0.6138  0.3171 -0.3729
 1513SOL    HW110554   3.506   5.358   5.077 -0.3243  0.3498  0.4149
 1513SOL    HW210555   3.610   5.433   4.975  0.3976 -0.5725  0.4623
 1514SOL     OW10556   2.030   3.177   0.409  0.5035 -0.1793  0.3410
 1514SOL    HW110557   2.053   3.250   0.345  0.8344 -1.2741 -0.8312
 1514SOL    HW210558   1.935   3.149   0.394  1.6089 -3.0248 -2.4527
 1515SOL     OW10559   0.906   3.414   0.797  0.2196 -0.1207 -0.2217
 1515SOL    HW110560   0.834   3.448   0.857  1.0010  0.0184  0.6557
 1515SOL    HW210561   0.995   3.434   0.836  0.8178  1.1947 -2.0869
 1516SOL     OW10562   5.104   1.899   5.689  0.4449  0.2980 -0.7706
 1516SOL    HW110563   5.117   1.978   5.629  0.6142 -0.6633 -2.0507
 1516SOL    HW210564   5.037   1.837   5.649  0.2836 -0.1974  0.2318
 1517SOL     OW10565   4.427   5.360   6.428 -0.6068 -0.1184  0.1224
 1517SOL    HW110566   4.443   5.426   6.502  1.1057 -0.2250 -0.1072
 1517SOL    HW210567   4.458   5.399   6.341 -0.6817 -0.7862 -0.2084
 1518SOL     OW10568   3.894   2.015   6.080  0.0872  0.0268 -0.1971
 1518SOL    HW110569   3.983   2.044   6.115 -0.5069  0.1916  1.2846
 1518SOL    HW210570   3.832   2.094   6.080  0.0312  0.0117 -1.6094
 1519SOL     OW10571   3.127   3.451   5.604 -0.1863  0.1260  0.3803
 1519SOL    HW110572   3.199   3.402   5.555 -0.5508 -1.6932  1.5620
 1519SOL    HW210573   3.163   3.484   5.692 -0.9367 -1.5558  1.3791
 1520SOL     OW10574   2.052   5.266   6.343 -0.6071  0.0353 -0.2806
 1520SOL    HW110575   2.114   5.214   6.401  1.1441 -0.8812 -2.8131
 1520SOL    HW210576   2.074   5.364   6.350  1.1855 -0.2687 -1.1033
 1521SOL     OW10577   0.569   4.237   5.536 -0.0046  0.2331  0.1896
 1521SOL    HW110578   0.477   4.204   5.517 -0.2143  1.4021 -1.0770
 1521SOL    HW210579   0.572   4.279   5.627 -0.0285 -2.0321  1.3040
 1522SOL     OW10580   3.167   3.870   1.192  0.6381  0.2760 -0.0614
 1522SOL    HW110581   3.208   3.782   1.215 -1.2249 -1.1482 -1.7721
 1522SOL    HW210582   3.067   3.860   1.191  0.3727  2.4900 -0.1211
 1523SOL     OW10583   5.756   5.422   6.115 -0.0131 -1.2135  0.4153
 1523SOL    HW110584   5.836   5.390   6.164  1.2476  0.0478 -0.7293
 1523SOL    HW210585   5.753   5.522   6.117 -1.8400 -1.2367  0.8389
 1524SOL     OW10586   6.173   5.921   1.311  0.2451 -0.0604  0.2842
 1524SOL    HW110587   6.164   5.823   1.295  0.1667  0.2274 -1.7593
 1524SOL    HW210588   6.269   5.944   1.326  0.5014 -0.2885 -0.8512
 1525SOL     OW10589   1.122   2.625   0.071 -0.3194  0.0206  0.7040
 1525SOL    HW110590   1.125   2.559   0.147 -2.1261 -0.8575  0.0942
 1525SOL    HW210591   1.196   2.606   0.007 -0.3194 -0.9067  0.9595
 1526SOL     OW10592   5.588   4.536   6.292  0.2502  0.3802 -0.0977
 1526SOL    HW110593   5.544   4.536   6.382 -1.2560  1.0533 -0.8094
 1526SOL    HW210594   5.519   4.521   6.221  1.6435 -1.9639 -1.0642
 1527SOL     OW10595   5.835   3.599   0.764  0.3664  0.1170 -0.1466
 1527SOL    HW110596   5.746   3.568   0.729  0.7634 -1.4760  0.1814
 1527SOL    HW210597   5.830   3.696   0.785 -1.3011  0.0704 -0.1714
 1528SOL     OW10598   0.905   3.617   5.602  0.2747  0.5697  0.2489
 1528SOL    HW110599   0.834   3.677   5.639 -1.0194 -0.7258 -0.0311
 1528SOL    HW210600   0.953   3.572   5.678 -2.5289 -2.2621  0.5558
 1529SOL     OW10601   2.452   4.019   6.417  0.3681 -0.0009 -0.1788
 1529SOL    HW110602   2.355   4.003   6.430  0.6239  0.2510  2.9670
 1529SOL    HW210603   2.467   4.109   6.377 -0.7564  1.7282  2.9318
 1530SOL     OW10604   3.945   4.942   6.296 -0.2398 -0.0604  0.1437
 1530SOL    HW110605   4.021   5.001   6.269 -1.6368  0.2591 -3.7570
 1530SOL    HW210606   3.971   4.846   6.285 -0.4761  0.0547 -1.6400
 1531SOL     OW10607   1.587   4.206   1.161  0.1392  0.1566 -0.0316
 1531SOL    HW110608   1.621   4.175   1.250  0.1871 -0.2062 -0.1733
 1531SOL    HW210609   1.488   4.193   1.156  0.1470  0.1081 -0.0594
 1532SOL     OW10610   2.459   1.885   5.284 -0.2587 -0.1826 -0.3480
 1532SOL    HW110611   2.532   1.842   5.230  0.1098  0.3975 -0.3240
 1532SOL    HW210612   2.399   1.936   5.223  1.0564  1.7764 -0.0893
 1533SOL     OW10613   3.460   1.221   0.505  0.4291  0.4336  0.7435
 1533SOL    HW110614   3.530   1.179   0.448  0.2604  0.8159  0.2493
 1533SOL    HW210615   3.429   1.155   0.574 -0.5160 -0.5889 -0.6192
 1534SOL     OW10616   5.330   1.504   1.142  0.4222  0.2164  0.1503
 1534SOL    HW110617   5.312   1.599   1.166 -1.1443 -0.0781  0.2308
 1534SOL    HW210618   5.287   1.443   1.209 -0.4237 -0.5515 -1.0430
 1535SOL     OW10619   5.326   0.014   6.462  0.3710  0.1940 -0.7974
 1535SOL    HW110620   5.379   0.018   6.377  1.2656  1.7866 -0.2094
 1535SOL    HW210621   5.283   0.102   6.479 -0.5348 -0.3760 -0.0426
 1536SOL     OW10622   4.277   0.189   5.843  0.7228  0.3817  0.3315
 1536SOL    HW110623   4.249   0.134   5.765 -1.6865  0.7508  0.8548
 1536SOL    HW210624   4.301   0.281   5.812  0.2718  0.3754 -0.0540
 1537SOL     OW10625   0.659   2.217   5.486  0.2249  0.7821  0.6411
 1537SOL    HW110626   0.706   2.147   5.540  1.5719  1.1843  0.0211
 1537SOL    HW210627   0.716   2.300   5.483  0.5152  0.5551 -1.9400
 1538SOL     OW10628   1.914   4.700   0.406  0.7330  0.8356 -0.2215
 1538SOL    HW110629   1.884   4.652   0.488  1.7027  1.5719  0.5970
 1538SOL    HW210630   1.843   4.765   0.377  0.6072  0.9633  0.3645
 1539SOL     OW10631   2.545   5.750   1.042  0.1622 -0.2135  0.6673
 1539SOL    HW110632   2.537   5.795   0.953 -0.4062 -0.2142  0.7138
 1539SOL    HW210633   2.557   5.819   1.113 -0.6063 -0.1323  0.7265
 1540SOL     OW10634   3.334   0.170   6.511 -0.3063  0.2735  0.4777
 1540SOL    HW110635   3.354   0.229   6.589 -0.9337 -2.1109  2.5680
 1540SOL    HW210636   3.237   0.179   6.486  0.2255  2.2239 -1.1944
 1541SOL     OW10637   0.260   3.652   1.624  0.0959  0.2690  0.0143
 1541SOL    HW110638   0.352   3.617   1.605 -0.4570 -1.0585 -0.3124
 1541SOL    HW210639   0.257   3.688   1.717  0.7859 -0.2753  0.2605
 1542SOL     OW10640   2.290   1.917   6.296  0.1238  0.5854 -0.2906
 1542SOL    HW110641   2.313   1.987   6.363 -3.4902  0.4227  1.3807
 1542SOL    HW210642   2.284   1.828   6.342 -0.9924  0.2066 -1.1274
 1543SOL     OW10643   6.015   6.272   0.220  0.4101 -0.4650  0.2174
 1543SOL    HW110644   6.042   6.321   0.137 -0.0584  0.4736  0.6075
 1543SOL    HW210645   5.950   6.199   0.197 -0.5437  0.4783 -0.1135
 1544SOL     OW10646   4.936   3.469   0.980  0.4575  0.2803 -0.0457
 1544SOL    HW110647   4.901   3.397   0.920  0.6975  0.4287 -0.3669
 1544SOL    HW210648   4.905   3.453   1.073  2.0021 -1.2732  0.2507
 1545SOL     OW10649   3.492   4.330   0.670  0.2568  0.5031  0.3914
 1545SOL    HW110650   3.396   4.351   0.688  0.0618  0.1252 -0.1802
 1545SOL    HW210651   3.527   4.393   0.601  0.3963  0.5816  0.5332
 1546SOL     OW10652   5.339   4.252   5.262 -0.5317 -0.2660 -0.1041
 1546SOL    HW110653   5.378   4.232   5.173  0.1573  2.2668 -0.4491
 1546SOL    HW210654   5.242   4.225   5.263 -0.0012 -2.3524 -0.8037
 1547SOL     OW10655   4.078   3.112   1.297  0.4412  0.1842  0.0525
 1547SOL    HW110656   4.177   3.113   1.315  0.8148 -0.5113 -1.7410
 1547SOL    HW210657   4.033   3.049   1.360  1.2310  0.0185  0.4665
 1548SOL     OW10658   5.737   0.375   0.561 -0.1084 -0.8170  0.0060
 1548SOL    HW110659   5.756   0.289   0.514 -1.5469 -1.2454  0.1516
 1548SOL    HW210660   5.788   0.379   0.646  1.8189 -0.4431 -1.1142
 1549SOL     OW10661   3.747   3.658   6.000  0.4884  0.3049  0.0077
 1549SOL    HW110662   3.846   3.674   6.001  0.5536 -0.0915 -0.1093
 1549SOL    HW210663   3.729   3.560   6.009  0.1254  0.3026 -0.7601
 1550SOL     OW10664   3.467   1.595   6.457  0.1706 -0.5331  0.4685
 1550SOL    HW110665   3.486   1.607   6.555  0.2033  0.2624  0.3741
 1550SOL    HW210666   3.553   1.599   6.406 -0.0980  2.8775  0.0594
 1551SOL     OW10667   5.254   6.132   0.530  0.0417  0.0843  0.0588
 1551SOL    HW110668   5.321   6.206   0.535 -0.1549  0.2193  0.8590
 1551SOL    HW210669   5.189   6.152   0.457  1.5908 -0.6801 -1.5839
 1552SOL     OW10670   2.609   0.186   5.813  0.0703  0.0990 -0.7207
 1552SOL    HW110671   2.624   0.088   5.806 -0.6505  0.0461 -1.6682
 1552SOL    HW210672   2.587   0.223   5.723  1.4712  1.3270 -0.5906
 1553SOL     OW10673   2.277   2.296   4.891 -0.1557 -0.0081  0.1945
 1553SOL    HW110674   2.220   2.254   4.820 -0.7064 -0.0628  0.6634
 1553SOL    HW210675   2.371   2.304   4.857 -0.5411  0.5761 -0.7900
 1554SOL     OW10676   2.808   5.949   5.347  0.0130 -0.2623  0.5852
 1554SOL    HW110677   2.747   6.011   5.396 -0.1549  0.0167  0.0299
 1554SOL    HW210678   2.838   5.992   5.262 -1.0486 -1.3975 -0.3959
 1555SOL     OW10679   1.906   6.332   6.046  0.3045  0.7226  0.4935
 1555SOL    HW110680   1.833   6.369   5.988  0.4902 -0.9482 -0.8549
 1555SOL    HW210681   1.933   6.402   6.113 -2.5520  1.3956  1.1043
 1556SOL     OW10682   1.927   3.226   1.725 -0.4113  0.1148  0.2797
 1556SOL    HW110683   1.865   3.197   1.652 -0.4883  1.2771 -0.1372
 1556SOL    HW210684   1.877   3.281   1.792  0.0227  0.5137  0.2863
 1557SOL     OW10685   5.106   0.480   4.609  0.1011  0.4100 -1.0442
 1557SOL    HW110686   5.023   0.451   4.561 -1.2973  1.7455  0.4226
 1557SOL    HW210687   5.127   0.415   4.681 -1.8274  1.7793  0.8928
 1558SOL     OW10688   1.622   1.190   5.868 -0.3609  0.2431  0.3683
 1558SOL    HW110689   1.714   1.169   5.900 -0.2550  0.9604  0.5511
 1558SOL    HW210690   1.561   1.113   5.890  0.0874 -0.0321  0.6736
 1559SOL     OW10691   2.007   4.425   0.649  0.0406 -0.6020  0.4832
 1559SOL    HW110692   2.051   4.338   0.671  0.5998 -0.0219  1.7557
 1559SOL    HW210693   1.945   4.451   0.723  1.6191  1.1926  1.2629
 1560SOL     OW10694   2.977   3.718   6.062 -0.2415  0.1313 -0.2774
 1560SOL    HW110695   2.888   3.755   6.037 -0.2907  1.5680  1.7658
 1560SOL    HW210696   2.964   3.635   6.116 -0.2639 -0.5214 -1.2616
 1561SOL     OW10697   0.426   2.029   0.480 -0.3172 -0.7986 -0.0959
 1561SOL    HW110698   0.379   2.025   0.569 -1.6681  4.0998 -0.2630
 1561SOL    HW210699   0.358   2.026   0.407  0.5324 -2.0611 -0.8565
 1562SOL     OW10700   0.239   3.277   0.108  0.4758  0.0805  0.2283
 1562SOL    HW110701   0.144   3.308   0.120  0.4341 -0.5702  1.9371
 1562SOL    HW210702   0.287   3.284   0.195  1.7087 -0.5743 -0.3759
 1563SOL     OW10703   1.219   6.164   0.292 -0.2908 -0.3630  0.1060
 1563SOL    HW110704   1.318   6.153   0.287 -0.1261  0.3371  1.3843
 1563SOL    HW210705   1.196   6.260   0.302 -0.9380 -0.6763  2.1051
 1564SOL     OW10706   2.439   0.920   5.186  0.3953 -0.4307  0.2000
 1564SOL    HW110707   2.400   0.979   5.115 -0.1072  0.2326  1.0173
 1564SOL    HW210708   2.397   0.940   5.274  0.3348 -1.9092  0.5335
 1565SOL     OW10709   0.996   6.123   0.705 -0.2832 -0.1205 -0.0239
 1565SOL    HW110710   1.073   6.184   0.721 -0.5570  0.0927  0.5177
 1565SOL    HW210711   0.995   6.050   0.773  1.0452 -1.7870 -1.6978
 1566SOL     OW10712   2.403   2.923   6.200 -0.9114  0.2731 -0.1834
 1566SOL    HW110713   2.324   2.870   6.168 -1.1201 -0.0715  0.8596
 1566SOL    HW210714   2.384   3.021   6.190 -1.7163  0.2083  0.5983
 1567SOL     OW10715   3.770   0.907   1.242 -0.3190  0.3666  0.1401
 1567SOL    HW110716   3.738   0.999   1.216 -0.4012  0.9434  2.0841
 1567SOL    HW210717   3.868   0.900   1.225 -0.5632  0.3088 -1.3235
 1568SOL     OW10718   3.779   1.577   0.940 -0.4716  0.4821  0.5540
 1568SOL    HW110719   3.708   1.633   0.898 -0.7316  0.5861  1.1219
 1568SOL    HW210720   3.753   1.481   0.936 -0.4341  0.4780  0.3698
 1569SOL     OW10721   3.381   0.605   5.404  0.2446 -0.5252 -0.1016
 1569SOL    HW110722   3.422   0.692   5.429 -1.9336  0.8299 -0.9314
 1569SOL    HW210723   3.377   0.546   5.485  0.4842  0.6775  0.8205
 1570SOL     OW10724   3.522   4.416   1.997 -0.2652 -0.3814 -0.9677
 1570SOL    HW110725   3.576   4.419   2.081 -0.5773 -1.4216 -0.7165
 1570SOL    HW210726   3.573   4.368   1.926  0.6214  1.7489 -1.8774
 1571SOL     OW10727   2.100   1.661   0.139  0.4652 -0.4737 -0.0956
 1571SOL    HW110728   2.106   1.716   0.223 -0.3402 -1.1337  0.4043
 1571SOL    HW210729   2.134   1.569   0.157 -1.5727 -1.2309  0.0703
 1572SOL     OW10730   4.329   5.143   0.447 -0.5746  0.4160 -0.0454
 1572SOL    HW110731   4.320   5.057   0.497  0.4528  0.9124  1.0288
 1572SOL    HW210732   4.238   5.182   0.432 -0.8848  0.7651  2.3913
 1573SOL     OW10733   3.410   1.789   5.415  0.1063 -0.0622 -0.3598
 1573SOL    HW110734   3.466   1.809   5.496  0.5806 -0.0445 -0.6926
 1573SOL    HW210735   3.468   1.752   5.342 -0.8804 -4.5455  0.7975
 1574SOL     OW10736   3.084   5.774   0.018  0.5304  0.3021  0.4023
 1574SOL    HW110737   3.077   5.780   0.118  0.3386 -1.7951  0.5713
 1574SOL    HW210738   3.012   5.714  -0.017  1.2968  0.0744 -0.8613
 1575SOL     OW10739   6.073   2.334   0.555 -0.1299 -0.0795  0.1326
 1575SOL    HW110740   6.075   2.279   0.472  0.9277  0.4234 -0.1934
 1575SOL    HW210741   5.978   2.359   0.576 -0.4131 -0.2094 -0.9271
 1576SOL     OW10742   3.225   0.105   0.721 -0.0272 -0.2144  0.2884
 1576SOL    HW110743   3.271   0.148   0.644  1.3610 -0.4406  0.9544
 1576SOL    HW210744   3.201   0.011   0.697 -0.8747  0.1572 -0.3384
 1577SOL     OW10745   1.013   0.594   6.077  0.2267 -0.2823  0.1106
 1577SOL    HW110746   0.951   0.673   6.075  1.6955  0.8995 -0.6808
 1577SOL    HW210747   1.000   0.540   5.993 -0.7077 -0.8525  0.6058
 1578SOL     OW10748   2.886   2.542   6.497 -0.4010  0.3639 -0.0441
 1578SOL    HW110749   2.888   2.535   6.596 -0.5050  3.7616  0.3035
 1578SOL    HW210750   2.973   2.509   6.459 -0.0166 -0.1154  1.2161
 1579SOL     OW10751   4.370   4.048   1.357  0.1672  0.2387 -0.2032
 1579SOL    HW110752   4.469   4.035   1.368  0.7339  2.9573 -1.4127
 1579SOL    HW210753   4.327   4.051   1.447  1.4135  0.5682  0.4035
 1580SOL     OW10754   2.991   6.319   5.698 -0.5663  0.2435 -0.3379
 1580SOL    HW110755   3.030   6.357   5.614 -0.1589  0.9992  0.1779
 1580SOL    HW210756   2.996   6.219   5.696 -0.9916  0.2412 -1.4110
 1581SOL     OW10757   2.245   2.544   5.711 -0.0697 -0.4373  0.1589
 1581SOL    HW110758   2.280   2.635   5.736  1.2358 -1.1288  0.9428
 1581SOL    HW210759   2.264   2.480   5.785 -0.0019 -1.5945 -0.8453
 1582SOL     OW10760   0.073   5.967   1.234 -0.7549  0.2490 -0.1578
 1582SOL    HW110761   0.136   6.025   1.287 -0.5569 -0.0370 -0.0790
 1582SOL    HW210762   0.126   5.899   1.183 -0.9321  0.6344 -0.8584
 1583SOL     OW10763   2.315   0.261   6.302 -0.0265 -0.3577  0.4371
 1583SOL    HW110764   2.310   0.169   6.339  1.8048 -0.3558  0.8047
 1583SOL    HW210765   2.349   0.258   6.208 -1.4254 -0.1352 -0.0962
 1584SOL     OW10766   0.310   1.785   6.294  0.4815  0.3443  0.3100
 1584SOL    HW110767   0.400   1.810   6.256  1.1292 -3.5531 -1.2806
 1584SOL    HW210768   0.245   1.774   6.219  0.1697 -1.9013  0.8389
 1585SOL     OW10769   3.252   0.239   5.847  0.4560 -0.0317 -0.2698
 1585SOL    HW110770   3.221   0.324   5.890 -1.0466  0.0423 -1.3975
 1585SOL    HW210771   3.319   0.194   5.906 -0.4464  0.7769  1.4522
 1586SOL     OW10772   4.537   3.036   1.136  0.3123 -0.2659  0.3932
 1586SOL    HW110773   4.460   3.061   1.195  1.3698  0.6822  1.4256
 1586SOL    HW210774   4.525   2.942   1.104 -1.1802 -0.1950  0.6657
 1587SOL     OW10775   3.181   1.093   1.402  0.1174  0.6387  0.0118
 1587SOL    HW110776   3.256   1.033   1.432 -0.4519 -0.5366 -0.8416
 1587SOL    HW210777   3.135   1.131   1.482  0.3355 -0.2722  0.5948
 1588SOL     OW10778   2.003   5.852   0.458  0.5703  0.4611  0.2892
 1588SOL    HW110779   1.968   5.839   0.551  0.8325  0.1832  0.3516
 1588SOL    HW210780   1.931   5.888   0.399 -0.0678 -0.8925  0.2061
 1589SOL     OW10781   1.342   0.256   1.159 -0.1586  0.1529 -0.4171
 1589SOL    HW110782   1.388   0.341   1.134 -0.5617  0.4942 -0.0078
 1589SOL    HW210783   1.256   0.276   1.206 -0.4067 -0.4782 -0.5739
 1590SOL     OW10784   5.764   3.242   0.459 -0.2815 -0.2962 -0.6661
 1590SOL    HW110785   5.794   3.324   0.410  3.9127 -2.1272 -1.6297
 1590SOL    HW210786   5.746   3.169   0.393 -2.2887 -0.6987  0.2557
 1591SOL     OW10787   2.254   6.122   4.197 -0.4109  0.4681  0.1783
 1591SOL    HW110788   2.178   6.118   4.132  0.4775  0.0211 -0.8586
 1591SOL    HW210789   2.254   6.212   4.241  0.1983  1.5961 -1.9930
 1592SOL     OW10790   2.145   0.883   4.848 -0.3828 -0.1159  0.0130
 1592SOL    HW110791   2.149   0.975   4.808 -2.6388  0.0657  0.0766
 1592SOL    HW210792   2.159   0.889   4.946 -0.2695  0.1366 -0.0169
 1593SOL     OW10793   1.419   1.322   4.316  1.2740  0.2335  0.3018
 1593SOL    HW110794   1.494   1.321   4.382  0.4587 -1.5892  1.2717
 1593SOL    HW210795   1.449   1.279   4.231  1.5002  0.0151  0.4896
 1594SOL     OW10796   1.075   3.821   0.782  0.3276  0.3104  0.0639
 1594SOL    HW110797   1.139   3.749   0.755  0.6989  1.1547 -1.4357
 1594SOL    HW210798   1.098   3.906   0.734  0.5105  1.7380  2.5121
 1595SOL     OW10799   2.825   5.924   0.603 -0.7896 -0.7570 -0.1943
 1595SOL    HW110800   2.894   5.856   0.628 -1.6106 -1.4371  0.2756
 1595SOL    HW210801   2.788   5.966   0.686 -1.8232 -1.3051 -0.3561
 1596SOL     OW10802   1.681   5.458   4.868  0.0232 -0.1966  0.3922
 1596SOL    HW110803   1.587   5.438   4.843 -0.5546  2.3084  0.3087
 1596SOL    HW210804   1.718   5.529   4.807  1.2963  0.2625  1.6400
 1597SOL     OW10805   0.588   6.095   5.919  0.6143 -0.5045  0.1538
 1597SOL    HW110806   0.564   6.015   5.864  2.2568 -0.3301 -0.9010
 1597SOL    HW210807   0.512   6.117   5.980 -0.0770 -2.5476  0.1252
 1598SOL     OW10808   3.599   2.992   5.950  0.5448  0.4747  0.6483
 1598SOL    HW110809   3.683   3.047   5.952  0.9706 -0.1308 -0.0252
 1598SOL    HW210810   3.572   2.977   5.855 -0.0603  0.2626  0.8522
 1599SOL     OW10811   2.564   6.274   6.495 -0.1662  0.3123  0.1877
 1599SOL    HW110812   2.619   6.196   6.527  1.3143  1.4365  0.5149
 1599SOL    HW210813   2.468   6.258   6.517 -0.0715 -1.8956 -0.7178
 1600SOL     OW10814   2.843   6.321   0.677 -0.6574  0.1648 -0.3237
 1600SOL    HW110815   2.800   6.267   0.605 -1.9609  0.8434 -0.1019
 1600SOL    HW210816   2.773   6.376   0.723  0.3439  0.6814  0.6373
 1601SOL     OW10817   2.051   2.305   6.343 -0.4255 -0.3184  0.7037
 1601SOL    HW110818   2.050   2.261   6.253 -0.4467 -0.1576  0.6247
 1601SOL    HW210819   2.146   2.312   6.375 -0.3435  0.3305  0.3432
 1602SOL     OW10820   0.929   4.611   0.283 -0.3691  0.0498 -0.6998
 1602SOL    HW110821   0.854   4.655   0.233 -0.0962 -1.2295 -2.3470
 1602SOL    HW210822   0.954   4.666   0.362 -3.6702  0.0698  0.4844
 1603SOL     OW10823   6.360   2.323   5.700 -0.3421  0.5932 -0.1735
 1603SOL    HW110824   6.368   2.269   5.784  3.7585  0.9205 -0.1460
 1603SOL    HW210825   6.357   2.261   5.622  3.1773  0.0960 -0.0712
 1604SOL     OW10826   0.827   4.464   5.952 -0.2743 -0.3111 -0.1261
 1604SOL    HW110827   0.850   4.512   5.868  0.2121  0.7060  0.5595
 1604SOL    HW210828   0.844   4.524   6.030 -1.2743 -1.0169  0.6701
 1605SOL     OW10829   5.058   4.318   5.840 -0.2269  0.3037  0.3260
 1605SOL    HW110830   5.015   4.265   5.912 -1.3525  1.1629  0.3146
 1605SOL    HW210831   4.988   4.357   5.780  0.4118  2.8928  1.1019
 1606SOL     OW10832   5.371   3.694   6.318 -0.1970 -0.1492  0.3375
 1606SOL    HW110833   5.347   3.602   6.349 -0.1826 -0.4911 -0.6242
 1606SOL    HW210834   5.457   3.690   6.268  0.0641  0.4812  0.7306
 1607SOL     OW10835   6.328   3.337   0.143 -0.5709  0.0924 -0.0529
 1607SOL    HW110836   6.271   3.361   0.222 -2.2772 -0.7899 -0.9577
 1607SOL    HW210837   6.306   3.244   0.114  1.0774 -0.1147 -0.7018
 1608SOL     OW10838   6.330   0.401   5.847  0.0071  0.0881  0.5977
 1608SOL    HW110839   6.237   0.371   5.827  0.2343 -0.4783  0.3742
 1608SOL    HW210840   6.340   0.417   5.945 -0.0273 -0.8861  0.7667
 1609SOL     OW10841   6.235   2.418   6.349  0.3683  0.5150  0.4489
 1609SOL    HW110842   6.298   2.340   6.354  2.0195  1.7482  0.0642
 1609SOL    HW210843   6.175   2.407   6.269 -0.3085 -0.9427  1.1231
 1610SOL     OW10844   5.582   0.495   6.043  0.2860 -0.2994  0.3245
 1610SOL    HW110845   5.562   0.398   6.030  3.2483 -1.2772  2.0700
 1610SOL    HW210846   5.561   0.521   6.137 -0.0170  0.6393  0.0117
 1611SOL     OW10847   1.329   3.878   5.684 -0.2909  0.3323 -0.0520
 1611SOL    HW110848   1.316   3.826   5.599  0.2390 -0.4215  0.3125
 1611SOL    HW210849   1.355   3.972   5.662 -0.6213  0.2693 -0.7261
 1612SOL     OW10850   3.941   4.686   0.520 -0.0897  0.0625 -0.2256
 1612SOL    HW110851   3.977   4.670   0.429 -0.9298  0.2439 -0.6010
 1612SOL    HW210852   3.844   4.660   0.523 -0.0734  0.0612  0.6078
 1613SOL     OW10853   3.042   1.998   5.489 -0.4887  0.1378 -0.7268
 1613SOL    HW110854   3.057   1.923   5.425  0.5334  1.7598 -2.4957
 1613SOL    HW210855   2.968   1.975   5.552 -0.3876 -2.1993 -1.3902
 1614SOL     OW10856   2.017   5.359   4.962 -0.0443 -1.2001  0.0421
 1614SOL    HW110857   2.003   5.458   4.955 -0.3550 -1.1568  1.1597
 1614SOL    HW210858   2.081   5.330   4.890 -0.0344 -0.2169 -0.3736
 1615SOL     OW10859   3.431   4.954   0.208 -0.7224  0.7929 -0.4751
 1615SOL    HW110860   3.482   4.882   0.161 -2.2471 -0.1059 -0.8002
 1615SOL    HW210861   3.461   4.960   0.303 -0.0478  0.2550 -0.6465
 1616SOL     OW10862   0.954   5.875   6.489 -0.8767  0.7706  0.5349
 1616SOL    HW110863   0.894   5.954   6.472 -0.3071  1.2859  0.8613
 1616SOL    HW210864   1.039   5.907   6.531 -0.4463  0.0287  0.2383
 1617SOL     OW10865   1.711   5.314   4.335  0.3663 -0.1109  0.4147
 1617SOL    HW110866   1.617   5.328   4.305  0.5434 -2.5325 -1.6189
 1617SOL    HW210867   1.774   5.356   4.270  0.7193  0.3265  1.0274
 1618SOL     OW10868   2.316   1.192   1.008  0.6039  0.0542 -0.2956
 1618SOL    HW110869   2.321   1.093   1.012  1.5526  0.0883 -0.6141
 1618SOL    HW210870   2.290   1.228   1.098  0.9593 -0.4380  0.0050
 1619SOL     OW10871   5.561   2.151   0.876 -0.7378 -0.7720  0.3273
 1619SOL    HW110872   5.618   2.144   0.958 -0.6074 -1.6600  0.1676
 1619SOL    HW210873   5.523   2.243   0.870 -0.8684 -0.7335  1.4732
 1620SOL     OW10874   2.248   1.531   5.228  0.4338  0.0498  0.6981
 1620SOL    HW110875   2.337   1.486   5.220 -0.1883 -1.1691  0.3378
 1620SOL    HW210876   2.188   1.476   5.285 -0.7606 -0.2463 -0.7840
 1621SOL     OW10877   3.358   4.623   0.400 -0.1791 -0.9072 -0.2873
 1621SOL    HW110878   3.414   4.704   0.413 -0.2258 -0.5963 -1.7980
 1621SOL    HW210879   3.285   4.621   0.469 -1.1979  1.2437 -1.2010
 1622SOL     OW10880   1.064   6.105   5.767 -0.6191  0.1619 -0.8664
 1622SOL    HW110881   1.037   6.152   5.851 -1.5317  1.7304 -1.9995
 1622SOL    HW210882   0.984   6.089   5.710 -0.3218 -2.6979 -0.6066
 1623SOL     OW10883   2.191   0.227   0.519 -0.1375  0.2204 -0.5541
 1623SOL    HW110884   2.245   0.299   0.474  1.0294 -1.0339 -1.2345
 1623SOL    HW210885   2.219   0.219   0.615 -1.0418  1.3769 -0.1688
 1624SOL     OW10886   4.476   1.040   5.786 -0.5441  0.1525 -0.7636
 1624SOL    HW110887   4.436   1.119   5.831 -0.8511  0.5828 -1.7770
 1624SOL    HW210888   4.503   1.064   5.693  0.8223 -0.4968 -0.5632
 1625SOL     OW10889   4.223   4.459   6.003  0.1249 -0.2523 -0.1173
 1625SOL    HW110890   4.181   4.388   5.947  0.2665  0.2429 -0.8733
 1625SOL    HW210891   4.321   4.442   6.013  0.3229  0.2746 -1.0178
 1626SOL     OW10892   5.255   4.270   0.387 -0.3712  0.1713  0.3521
 1626SOL    HW110893   5.217   4.362   0.391 -0.4955  0.1780 -0.6674
 1626SOL    HW210894   5.339   4.266   0.440 -1.6766  0.1964  2.5577
 1627SOL     OW10895   5.764   0.029   0.759 -0.0918 -0.8567 -0.4587
 1627SOL    HW110896   5.775   0.007   0.856  2.6479 -1.6383 -0.8550
 1627SOL    HW210897   5.759   0.128   0.748 -2.9135 -0.7974  0.6039
 1628SOL     OW10898   2.794   3.658   0.193 -0.3161 -0.4811  0.2804
 1628SOL    HW110899   2.881   3.609   0.180 -0.9090 -1.2978 -0.7510
 1628SOL    HW210900   2.742   3.615   0.266  0.6949  0.8409  1.8649
 1629SOL     OW10901   2.761   3.213   0.847  0.2111 -0.4098  0.1132
 1629SOL    HW110902   2.670   3.238   0.882 -0.2327  0.0424 -1.2949
 1629SOL    HW210903   2.808   3.157   0.915 -0.9996 -0.3920  1.0081
 1630SOL     OW10904   4.716   5.003   0.362  0.6711 -0.0263  0.1124
 1630SOL    HW110905   4.760   4.982   0.275  0.0952  0.4298 -0.2958
 1630SOL    HW210906   4.619   5.024   0.347  0.2153 -1.3186  1.0362
 1631SOL     OW10907   5.605   4.952   1.285  0.2968  0.2525 -0.0247
 1631SOL    HW110908   5.508   4.952   1.311 -0.2578 -0.0876 -1.9909
 1631SOL    HW210909   5.636   4.857   1.274  0.9235  0.3557  0.7304
 1632SOL     OW10910   3.522   4.927   5.703 -0.1911  0.2452 -0.3167
 1632SOL    HW110911   3.600   4.978   5.667 -0.1264  0.1064 -0.3737
 1632SOL    HW210912   3.459   4.990   5.748 -0.2967  0.4294 -0.7129
 1633SOL     OW10913   0.142   3.618   5.784  0.4520 -0.7539  0.3254
 1633SOL    HW110914   0.232   3.597   5.744  1.3646  0.2590  1.7624
 1633SOL    HW210915   0.149   3.620   5.884 -0.5657  1.8200  0.4280
 1634SOL     OW10916   6.072   0.070   0.420 -0.2440  0.3297  0.7966
 1634SOL    HW110917   5.977   0.085   0.448  0.2047 -0.0439  2.6520
 1634SOL    HW210918   6.078  -0.015   0.368 -0.8434  0.0598  1.1558
 1635SOL     OW10919   6.063   0.755   0.079 -0.4052  0.2639  0.0434
 1635SOL    HW110920   5.992   0.826   0.081 -0.8306 -0.1662  1.0546
 1635SOL    HW210921   6.140   0.787   0.023  0.2023  2.2932  1.8923
 1636SOL     OW10922   0.851   1.536   5.709  0.1419 -0.6041  0.4631
 1636SOL    HW110923   0.772   1.486   5.743 -0.0074 -0.2640  0.6120
 1636SOL    HW210924   0.831   1.634   5.707  0.3480 -0.5691 -0.0621
 1637SOL     OW10925   1.326   0.957   4.780  0.5079  0.0022 -0.0437
 1637SOL    HW110926   1.242   0.958   4.727  0.4361 -1.1131  0.0393
 1637SOL    HW210927   1.376   1.043   4.764 -1.1627  1.1975  0.7830
 1638SOL     OW10928   1.973   2.263   5.276  0.0442 -0.0503  0.2116
 1638SOL    HW110929   2.072   2.276   5.273 -0.2193  2.2042 -0.2555
 1638SOL    HW210930   1.933   2.325   5.343 -1.2795  1.0169 -1.4796
 1639SOL     OW10931   2.549   0.775   1.510 -0.3643 -0.4134  0.0215
 1639SOL    HW110932   2.478   0.827   1.558  0.2775  0.3207  0.1896
 1639SOL    HW210933   2.587   0.706   1.572 -1.2883 -1.1902 -0.2344
 1640SOL     OW10934   1.474   1.987   0.977  0.3755  0.1080  0.9210
 1640SOL    HW110935   1.449   1.892   0.961 -1.2659  0.8715 -1.5881
 1640SOL    HW210936   1.549   2.012   0.916  0.0035  0.7310  0.7151
 1641SOL     OW10937   1.542   1.020   0.162  0.4455  0.0665  0.4400
 1641SOL    HW110938   1.482   0.940   0.164 -0.7411  0.9141 -0.0331
 1641SOL    HW210939   1.634   0.992   0.134 -0.3063 -0.9196 -1.2203
 1642SOL     OW10940   3.380   0.905   1.471 -0.2272 -0.6693  0.0027
 1642SOL    HW110941   3.453   0.868   1.414  0.5102  1.0338 -0.2216
 1642SOL    HW210942   3.417   0.933   1.559 -0.4666  0.7353 -0.3232
 1643SOL     OW10943   3.190   5.486   5.107  0.8157  0.3739  0.1578
 1643SOL    HW110944   3.110   5.430   5.087  1.7856 -0.7077 -0.7926
 1643SOL    HW210945   3.172   5.581   5.079  0.0669  0.0464 -0.5106
 1644SOL     OW10946   3.070   5.448   0.098 -0.1681  0.4585 -0.3951
 1644SOL    HW110947   2.971   5.452   0.081 -0.2659 -1.4823 -0.5987
 1644SOL    HW210948   3.119   5.471   0.014 -0.4878  0.3191 -0.6257
 1645SOL     OW10949   2.228   2.130   5.685 -0.1440  0.9447  0.4755
 1645SOL    HW110950   2.270   2.058   5.630 -1.4367 -1.8522  2.8706
 1645SOL    HW210951   2.291   2.155   5.759 -0.2895  1.1099  0.5431
 1646SOL     OW10952   4.343   3.550   5.700  0.1132  0.7134  0.9538
 1646SOL    HW110953   4.266   3.552   5.637 -0.4912  0.4756  1.6759
 1646SOL    HW210954   4.403   3.628   5.682 -0.5493  1.1766  0.7060
 1647SOL     OW10955   3.337   2.259   6.247  0.0398  0.2930 -0.1930
 1647SOL    HW110956   3.396   2.194   6.200 -0.1668  0.9394 -1.3863
 1647SOL    HW210957   3.293   2.318   6.180 -1.6588  0.0918  0.6983
 1648SOL     OW10958   5.001   1.333   5.648  0.2847 -0.7681 -0.4783
 1648SOL    HW110959   5.015   1.408   5.584  2.1601 -1.2594 -0.6973
 1648SOL    HW210960   4.906   1.333   5.678  0.0920  1.3501 -0.8856
 1649SOL     OW10961   5.344   0.032   0.559  0.4221  0.4970  0.1276
 1649SOL    HW110962   5.390   0.121   0.554  0.7681  0.2901 -0.3569
 1649SOL    HW210963   5.246   0.046   0.569  0.2356  0.9553 -1.8954
 1650SOL     OW10964   3.468   0.227   5.991 -0.6794 -0.4111  0.4432
 1650SOL    HW110965   3.540   0.218   5.922 -1.6277  0.9842 -0.8192
 1650SOL    HW210966   3.501   0.195   6.079 -0.1987 -4.6722 -1.0748
 1651SOL     OW10967   2.135   4.867   6.230 -0.4990 -0.3070 -0.5798
 1651SOL    HW110968   2.064   4.922   6.275  0.6009  0.1614  0.6360
 1651SOL    HW210969   2.202   4.928   6.186 -0.6836 -0.7427 -1.5046
 1652SOL     OW10970   0.864   5.605   0.007  0.4010  0.6370 -0.3013
 1652SOL    HW110971   0.876   5.573  -0.087  3.2656 -0.8359  0.4208
 1652SOL    HW210972   0.882   5.703   0.011  0.8372  0.6102 -1.2249
 1653SOL     OW10973   1.951   2.054   0.855  0.0726  0.1074  0.6052
 1653SOL    HW110974   2.039   2.010   0.872  0.5498 -0.3786 -2.5078
 1653SOL    HW210975   1.892   1.993   0.803 -1.9244  0.6787  2.0674
 1654SOL     OW10976   2.099   0.401   0.981  0.7168 -0.4406 -1.0859
 1654SOL    HW110977   2.163   0.466   1.024  0.7363 -0.7015 -0.7221
 1654SOL    HW210978   2.007   0.440   0.981 -0.3341 -2.2103  3.4612
 1655SOL     OW10979   2.885   4.857   5.996 -0.1305 -0.4102  0.1830
 1655SOL    HW110980   2.958   4.825   5.936 -2.4565 -2.8380 -1.5913
 1655SOL    HW210981   2.847   4.942   5.959  0.2774 -0.3927 -0.2059
 1656SOL     OW10982   4.014   1.003   5.483 -0.0933 -0.1200 -0.5602
 1656SOL    HW110983   4.094   0.944   5.487 -0.7907 -1.0643 -0.3795
 1656SOL    HW210984   3.957   0.977   5.405 -0.5092  0.1772 -0.3585
 1657SOL     OW10985   4.135   1.973   0.409 -0.3348 -0.1387 -0.6194
 1657SOL    HW110986   4.166   2.068   0.401 -1.4933  0.1496 -2.0035
 1657SOL    HW210987   4.065   1.967   0.479 -0.6164  0.1238 -0.8777
 1658SOL     OW10988   4.798   4.919   0.647 -0.6016 -0.4432 -0.6004
 1658SOL    HW110989   4.783   5.008   0.688  0.8431 -0.1926 -0.5851
 1658SOL    HW210990   4.767   4.921   0.552 -3.0429 -0.7428  0.1151
 1659SOL     OW10991   3.757   1.198   1.248 -0.0037  0.2283 -0.1434
 1659SOL    HW110992   3.762   1.245   1.160 -1.7829  0.7982  0.0234
 1659SOL    HW210993   3.662   1.190   1.277  0.5657  1.7488  2.6043
 1660SOL     OW10994   0.083   4.879   1.601  0.6913 -0.4076 -0.1246
 1660SOL    HW110995   0.075   4.979   1.607 -0.4631 -0.4105 -1.3197
 1660SOL    HW210996   0.105   4.842   1.692 -0.6314  0.7766  0.7170
 1661SOL     OW10997   2.538   5.891   0.808  0.0809  0.6078  0.3863
 1661SOL    HW110998   2.624   5.940   0.823  0.8035 -0.6664  0.5907
 1661SOL    HW210999   2.462   5.945   0.845  0.7121  1.9958 -0.2589
 1662SOL     OW11000   2.508   5.182   0.873  0.1801 -0.7590  0.2090
 1662SOL    HW111001   2.563   5.216   0.796 -0.5140 -1.0573 -0.4278
 1662SOL    HW211002   2.475   5.260   0.927 -0.5810 -0.4536 -0.6726
 1663SOL     OW11003   6.276   5.338   1.083  0.0439  0.2777 -0.5585
 1663SOL    HW111004   6.326   5.309   1.164  1.0614  2.5492 -0.3056
 1663SOL    HW211005   6.178   5.328   1.100  0.0125  3.2686  2.1845
 1664SOL     OW11006   0.221   4.087   6.195  0.2887 -0.4857  0.5692
 1664SOL    HW111007   0.287   4.045   6.133 -0.3137 -0.0693 -0.3838
 1664SOL    HW211008   0.251   4.075   6.289  1.9724  0.1337  0.1443
 1665SOL     OW11009   4.412   5.600   6.097  0.1441 -0.1890 -0.2475
 1665SOL    HW111010   4.401   5.552   6.009 -0.0858 -1.2998  0.3713
 1665SOL    HW211011   4.503   5.640   6.101  0.4152 -0.7440 -0.7003
 1666SOL     OW11012   3.999   2.663   0.765  0.0849 -0.4992  0.7075
 1666SOL    HW111013   4.009   2.689   0.861 -2.4933  0.5712  0.7758
 1666SOL    HW211014   3.991   2.746   0.709  0.8965 -1.1220 -0.3649
 1667SOL     OW11015   1.587   3.055   6.360 -0.1724 -0.0969  0.2533
 1667SOL    HW111016   1.610   3.151   6.376 -1.1000  0.1508  0.1486
 1667SOL    HW211017   1.488   3.046   6.351 -0.0164 -0.8790 -0.8980
 1668SOL     OW11018   1.094   0.290   1.290  0.0971 -0.5418  0.1148
 1668SOL    HW111019   1.065   0.279   1.385  0.6916 -1.1050  0.2412
 1668SOL    HW211020   1.031   0.352   1.243 -1.7487 -2.2794  0.1648
 1669SOL     OW11021   4.522   1.701   5.555 -0.1645  0.6086 -0.1198
 1669SOL    HW111022   4.440   1.754   5.534  0.3575  1.3323 -0.3740
 1669SOL    HW211023   4.557   1.659   5.471  0.2381  1.0513 -0.1748
 1670SOL     OW11024   5.255   4.580   0.898  0.6833  0.4173  0.1438
 1670SOL    HW111025   5.165   4.544   0.922 -0.6772  3.2704 -0.1984
 1670SOL    HW211026   5.244   4.667   0.848  3.6084 -0.0804 -1.6222
 1671SOL     OW11027   0.618   3.310   5.998  0.7099  0.4446 -0.3786
 1671SOL    HW111028   0.650   3.312   6.093 -1.5694  0.6927  0.4391
 1671SOL    HW211029   0.557   3.232   5.985 -1.7766  2.2996 -0.6167
 1672SOL     OW11030   0.155   3.933   0.281  0.3252  0.1024 -0.3146
 1672SOL    HW111031   0.162   3.837   0.309 -0.1577  0.7166  2.1440
 1672SOL    HW211032   0.244   3.965   0.249  0.6217 -0.9886 -0.6380
 1673SOL     OW11033   3.935   1.677   0.602  0.7548  0.3767 -0.3296
 1673SOL    HW111034   4.011   1.655   0.541 -0.5929  1.3953 -2.5236
 1673SOL    HW211035   3.928   1.776   0.612  0.2136  0.2608  0.5100
 1674SOL     OW11036   5.783   5.703   6.079 -0.5100  0.1507  0.1091
 1674SOL    HW111037   5.753   5.777   6.139 -1.3136 -0.3209  0.3072
 1674SOL    HW211038   5.841   5.740   6.007  2.5020  0.4393  2.4802
 1675SOL     OW11039   1.858   1.324   4.847  0.0039  0.5997 -0.1277
 1675SOL    HW111040   1.904   1.405   4.812  0.5009  0.9280  1.2288
 1675SOL    HW211041   1.825   1.268   4.771  2.5451  0.4079 -1.1728
 1676SOL     OW11042   4.134   3.227   1.027 -0.3017 -0.2418 -0.2594
 1676SOL    HW111043   4.164   3.136   1.000  0.5109  0.3514 -1.4780
 1676SOL    HW211044   4.090   3.223   1.117  3.5480 -1.2004  1.8131
 1677SOL     OW11045   4.683   5.359   6.204  0.2273  0.0478  0.0940
 1677SOL    HW111046   4.673   5.274   6.257 -1.3642 -0.9194 -1.6527
 1677SOL    HW211047   4.780   5.372   6.180  0.2029 -2.9093 -2.0903
 1678SOL     OW11048   2.743   5.944   6.023 -0.9722  0.5920 -0.5719
 1678SOL    HW111049   2.684   5.939   5.943  0.3488 -1.9353 -1.5127
 1678SOL    HW211050   2.687   5.940   6.106 -2.2536  1.1086 -1.3930
 1679SOL     OW11051   6.266   2.760   6.175 -0.4450 -0.0486 -0.1565
 1679SOL    HW111052   6.202   2.798   6.109 -1.2179 -1.9018 -0.5346
 1679SOL    HW211053   6.238   2.667   6.199  3.2631 -1.8389 -1.9782
 1680SOL     OW11054   6.280   5.599   0.786  0.2840 -0.1197 -0.1352
 1680SOL    HW111055   6.260   5.690   0.751 -1.1216  0.2133  1.4641
 1680SOL    HW211056   6.304   5.539   0.709 -1.0853  0.9828 -1.4798
 1681SOL     OW11057   1.045   5.557   5.182  0.3476 -0.5521  0.2777
 1681SOL    HW111058   1.004   5.474   5.146  2.6028 -1.1052 -1.1940
 1681SOL    HW211059   1.115   5.534   5.249  1.4740  0.0843 -0.6408
 1682SOL     OW11060   3.982   4.573   5.796  0.0054  0.4329  0.0029
 1682SOL    HW111061   3.979   4.663   5.840  0.7379  0.9934 -1.0508
 1682SOL    HW211062   4.076   4.551   5.772 -0.3297 -0.0143 -0.9525
 1683SOL     OW11063   2.639   3.920   6.066 -0.3625  0.5170  0.3159
 1683SOL    HW111064   2.690   3.926   6.151  0.9212  2.7180 -0.5257
 1683SOL    HW211065   2.600   4.010   6.044 -1.8977 -0.3467 -0.7159
 1684SOL     OW11066   2.564   3.232   5.389 -0.2531 -0.3105 -0.6798
 1684SOL    HW111067   2.550   3.302   5.460 -0.1544 -2.1156  1.2295
 1684SOL    HW211068   2.486   3.233   5.326 -1.6648 -0.2977  0.9735
 1685SOL     OW11069   3.074   0.524   5.358  0.0535 -0.4788 -0.7876
 1685SOL    HW111070   2.986   0.568   5.376 -0.2973 -1.5343  0.1930
 1685SOL    HW211071   3.144   0.593   5.343 -0.1447  0.4857  2.2522
 1686SOL     OW11072   5.718   5.923   6.237 -0.5551  0.5022 -0.7410
 1686SOL    HW111073   5.807   5.956   6.269 -1.1698  1.2338  0.3160
 1686SOL    HW211074   5.653   5.927   6.313 -1.0850 -1.6441 -1.0144
 1687SOL     OW11075   0.855   3.418   1.156 -0.2975  0.1345 -0.1247
 1687SOL    HW111076   0.914   3.363   1.097 -1.6942  1.5569 -3.0829
 1687SOL    HW211077   0.901   3.436   1.242  2.1859 -1.4865 -0.9954
 1688SOL     OW11078   3.357   5.156   5.454 -0.3506  0.3543  0.4240
 1688SOL    HW111079   3.310   5.234   5.412 -1.5604  0.0690  1.1943
 1688SOL    HW211080   3.380   5.177   5.548 -0.1160  0.0111  0.4445
 1689SOL     OW11081   0.756   0.336   5.579 -0.3489 -0.1307 -0.5022
 1689SOL    HW111082   0.660   0.364   5.580  0.4519  2.9458 -0.3619
 1689SOL    HW211083   0.813   0.413   5.607  2.1662 -2.0081 -0.1774
 1690SOL     OW11084   1.907   1.748   5.679 -0.4811  0.0008 -0.9776
 1690SOL    HW111085   1.847   1.807   5.626 -1.1253 -0.9829 -1.3690
 1690SOL    HW211086   2.001   1.758   5.647 -0.4034  1.5407 -0.3712
 1691SOL     OW11087   5.869   0.671   6.138  0.3542  0.0631  0.2514
 1691SOL    HW111088   5.785   0.713   6.172  0.4683  0.5362 -0.0406
 1691SOL    HW211089   5.924   0.638   6.215  0.3411  0.6026  0.4924
 1692SOL     OW11090   3.609   1.781   5.246 -0.2118 -0.0068 -0.1771
 1692SOL    HW111091   3.679   1.849   5.267  0.8762 -0.9556 -0.5554
 1692SOL    HW211092   3.638   1.728   5.166 -1.2752 -0.5567 -0.2154
 1693SOL     OW11093   0.248   5.997   0.916 -0.6163  0.4540  0.0314
 1693SOL    HW111094   0.209   5.933   0.982 -2.4480  1.3367 -0.1354
 1693SOL    HW211095   0.285   6.076   0.964 -2.0509  1.1510  0.0611
 1694SOL     OW11096   4.817   0.899   5.054 -0.3610  0.3547  0.1527
 1694SOL    HW111097   4.865   0.812   5.048  1.1226  1.1748 -0.2841
 1694SOL    HW211098   4.878   0.973   5.025 -1.5894  1.5461  0.5134
 1695SOL     OW11099   0.604   0.340   0.225  0.1192 -0.1530  0.0793
 1695SOL    HW111100   0.646   0.426   0.253  0.2739  1.3500 -3.9813
 1695SOL    HW211101   0.636   0.316   0.133 -3.8807 -1.7180 -1.1443
 1696SOL     OW11102   4.857   2.788   0.047 -0.2733  1.1229 -0.1334
 1696SOL    HW111103   4.937   2.802   0.105  0.5916 -3.8471  0.3953
 1696SOL    HW211104   4.885   2.738  -0.035 -2.5775  0.8382 -0.8029
 1697SOL     OW11105   2.754   6.023   0.898  0.3372  0.4768  0.1946
 1697SOL    HW111106   2.851   6.044   0.898  0.7591 -1.2904  1.0536
 1697SOL    HW211107   2.707   6.080   0.966  1.0837  0.1051  1.0434
 1698SOL     OW11108   4.817   0.137   6.417 -0.2079  0.1549 -0.2523
 1698SOL    HW111109   4.784   0.187   6.337 -0.8414  1.3779  0.7478
 1698SOL    HW211110   4.862   0.053   6.387 -0.1182  0.7594 -1.9038
 1699SOL     OW11111   4.525   5.995   0.311  0.0461  0.2773  0.1864
 1699SOL    HW111112   4.605   6.026   0.260  0.7768 -0.8114  0.6413
 1699SOL    HW211113   4.443   6.009   0.257  0.8593 -1.5037 -1.6171
 1700SOL     OW11114   0.173   5.976   0.670 -0.3386 -0.4998 -0.1624
 1700SOL    HW111115   0.213   6.008   0.757  0.5730  0.8431 -1.0254
 1700SOL    HW211116   0.177   5.877   0.667 -2.5594 -0.7773  2.3253
 1701SOL     OW11117   4.558   3.807   0.418  0.6906 -0.5089 -0.0753
 1701SOL    HW111118   4.590   3.891   0.463 -0.1746 -1.9198  3.4879
 1701SOL    HW211119   4.604   3.797   0.330  1.9460  2.8876  0.0432
 1702SOL     OW11120   3.640   0.634   5.612 -0.3923  0.1249 -0.2050
 1702SOL    HW111121   3.735   0.662   5.597 -0.1657 -0.6874 -0.3566
 1702SOL    HW211122   3.578   0.707   5.581  0.1823  1.1972  1.0709
 1703SOL     OW11123   5.686   3.121   0.243 -0.9742  0.0087  0.5089
 1703SOL    HW111124   5.610   3.134   0.179  0.6907 -0.6111 -1.7010
 1703SOL    HW211125   5.722   3.029   0.233  2.0921  1.2326 -0.9082
 1704SOL     OW11126   4.610   4.168   0.301 -0.0105  0.7891 -0.1848
 1704SOL    HW111127   4.582   4.125   0.387 -1.7065  0.6364 -0.7715
 1704SOL    HW211128   4.710   4.166   0.294  0.1691  0.9112  1.8121
 1705SOL     OW11129   2.958   0.233   2.225 -0.2008  0.4087  0.1397
 1705SOL    HW111130   3.000   0.143   2.241  1.5063  0.8013 -1.8260
 1705SOL    HW211131   2.873   0.220   2.172  1.5892  0.0219 -2.8887
 1706SOL     OW11132   5.376   0.273   0.259 -0.1505  0.1918  0.6561
 1706SOL    HW111133   5.336   0.340   0.197 -0.6652 -0.4479  0.2785
 1706SOL    HW211134   5.304   0.235   0.318  0.0478 -0.3430  0.5649
 1707SOL     OW11135   6.162   4.145   0.973  0.1007 -0.0697 -0.4907
 1707SOL    HW111136   6.079   4.152   1.028  0.8345 -2.8627  1.1656
 1707SOL    HW211137   6.228   4.085   1.019  2.2541  0.4166 -2.7170
 1708SOL     OW11138   3.986   5.388   6.246 -0.4139  0.8953  0.2556
 1708SOL    HW111139   4.031   5.315   6.195 -0.5298  0.9082  0.1337
 1708SOL    HW211140   3.920   5.348   6.310  0.8683  0.7763  1.5661
 1709SOL     OW11141   1.738   6.087   6.253 -0.3900 -0.0005  0.9711
 1709SOL    HW111142   1.676   6.137   6.194 -1.7077  1.0274  3.0885
 1709SOL    HW211143   1.832   6.113   6.233 -0.5716 -1.1971 -1.9464
 1710SOL     OW11144   4.680   3.840   0.167  0.2376 -0.2988 -0.1698
 1710SOL    HW111145   4.598   3.892   0.143  1.3518  1.2523 -0.7321
 1710SOL    HW211146   4.761   3.898   0.158  1.4750 -1.9575 -0.1908
 1711SOL     OW11147   0.855   2.707   1.696  0.1024  0.7775  0.5325
 1711SOL    HW111148   0.887   2.745   1.609 -1.9213  0.1013 -0.5557
 1711SOL    HW211149   0.822   2.781   1.754  1.2160  1.2048  0.6473
 1712SOL     OW11150   2.378   3.414   6.346 -0.1415 -0.1049 -0.5540
 1712SOL    HW111151   2.461   3.421   6.402 -0.5073  0.3916 -0.0707
 1712SOL    HW211152   2.299   3.398   6.404 -0.3200 -1.1637 -1.0630
 1713SOL     OW11153   5.124   4.196   0.928 -0.0909  0.0759  0.2636
 1713SOL    HW111154   5.104   4.241   0.841 -1.8005  0.7969  0.9745
 1713SOL    HW211155   5.038   4.176   0.975  0.8093  1.1346  2.4863
 1714SOL     OW11156   1.759   5.702   1.149 -0.1973 -0.4688 -0.3566
 1714SOL    HW111157   1.733   5.778   1.091  0.9429  0.8132  0.7351
 1714SOL    HW211158   1.855   5.678   1.133  0.6348  0.9166  1.9143
 1715SOL     OW11159   5.636   5.819   5.301 -0.0618  0.6381  0.0488
 1715SOL    HW111160   5.724   5.776   5.280 -0.0405  1.1698 -1.0512
 1715SOL    HW211161   5.607   5.874   5.223 -0.8331  1.3715  0.8281
 1716SOL     OW11162   4.636   6.021   0.002 -0.9157  0.3281 -0.1301
 1716SOL    HW111163   4.702   6.072   0.057 -0.8917 -1.1094  1.2215
 1716SOL    HW211164   4.628   6.064  -0.088  2.5807  0.0394 -0.7286
 1717SOL     OW11165   3.031   4.114   0.255  0.3004 -0.0279  0.0915
 1717SOL    HW111166   3.038   4.196   0.197  1.8238  0.8955  1.4762
 1717SOL    HW211167   2.953   4.059   0.226  0.7712  0.5652 -2.5731
 1718SOL     OW11168   1.793   1.951   5.516 -0.1099  0.4369 -0.2639
 1718SOL    HW111169   1.770   2.047   5.535 -0.9771 -0.1057  1.6575
 1718SOL    HW211170   1.861   1.948   5.443  0.7286  2.5762  0.3259
 1719SOL     OW11171   1.281   0.027   5.808  0.3057  0.2936  0.3672
 1719SOL    HW111172   1.257   0.114   5.766 -0.6866 -0.6014 -1.0018
 1719SOL    HW211173   1.366  -0.007   5.769 -0.6505 -0.5704 -1.0622
 1720SOL     OW11174   1.058   0.608   5.028  0.6322 -0.4978  0.1040
 1720SOL    HW111175   1.102   0.668   4.962  0.6789 -0.3321  0.2867
 1720SOL    HW211176   1.127   0.547   5.068  0.5544 -0.8058 -0.2189
 1721SOL     OW11177   4.207   1.793   6.111  0.1203 -0.0226 -0.2017
 1721SOL    HW111178   4.177   1.878   6.153  1.3613  0.0211  0.6689
 1721SOL    HW211179   4.145   1.719   6.136 -1.1569  0.6523 -1.2321
 1722SOL     OW11180   0.067   1.734   0.185  0.6154 -0.0974  0.4057
 1722SOL    HW111181   0.151   1.708   0.138  0.0650 -2.1672  0.4768
 1722SOL    HW211182  -0.009   1.733   0.121  0.0339 -1.9501  1.0523
 1723SOL     OW11183   1.677   4.820   1.551  0.2464  0.3625 -0.2123
 1723SOL    HW111184   1.584   4.787   1.534 -0.3667  0.5755  2.2896
 1723SOL    HW211185   1.677   4.875   1.634  2.7546 -0.2450  0.2445
 1724SOL     OW11186   3.562   4.209   1.512  0.4280 -0.1988  0.2849
 1724SOL    HW111187   3.526   4.116   1.501 -0.7067  0.4189 -1.7000
 1724SOL    HW211188   3.660   4.209   1.493  0.1135 -0.7176 -1.5006
 1725SOL     OW11189   5.193   3.325   6.262  0.2292 -0.6731 -0.2113
 1725SOL    HW111190   5.253   3.334   6.183  2.3531  0.2290  1.4120
 1725SOL    HW211191   5.204   3.404   6.322  0.2839 -2.2847  2.0269
 1726SOL     OW11192   1.697   0.946   5.419 -0.6779 -0.3414  0.1060
 1726SOL    HW111193   1.770   0.911   5.478 -2.2814 -1.0977  1.7528
 1726SOL    HW211194   1.735   1.012   5.354  1.4408 -0.6939  0.9058
 1727SOL     OW11195   0.727   1.097   0.793 -0.2107 -0.0547 -0.2257
 1727SOL    HW111196   0.690   1.137   0.708 -1.2384 -1.4276 -0.4676
 1727SOL    HW211197   0.685   1.142   0.872 -2.0223 -1.1655 -0.4993
 1728SOL     OW11198   1.167   0.777   6.475 -0.1192 -0.9354  0.4203
 1728SOL    HW111199   1.103   0.843   6.435  1.5890  1.4191  1.3664
 1728SOL    HW211200   1.207   0.721   6.402  0.6862  1.2127 -0.8823
 1729SOL     OW11201   1.969   1.689   1.295  0.4798  0.1861  0.3872
 1729SOL    HW111202   2.045   1.629   1.269  0.3331 -1.3206  3.1040
 1729SOL    HW211203   1.985   1.728   1.385 -1.3690  0.9247  0.4609
 1730SOL     OW11204   5.041   1.735   0.178  0.2229 -0.3697 -0.2534
 1730SOL    HW111205   4.942   1.744   0.185  0.2019 -1.0227  0.3923
 1730SOL    HW211206   5.064   1.653   0.127  0.4090 -1.5211  1.5807
 1731SOL     OW11207   0.358   1.523   0.457  0.1481  0.2001  0.0759
 1731SOL    HW111208   0.259   1.510   0.450  0.0601  1.2702 -1.0344
 1731SOL    HW211209   0.380   1.576   0.538 -0.1665 -0.1513  0.3954
 1732SOL     OW11210   3.233   3.224   0.218  0.2435  0.2668  0.4748
 1732SOL    HW111211   3.326   3.197   0.191 -0.1068 -0.2153 -0.3014
 1732SOL    HW211212   3.238   3.297   0.286  1.1916  0.8997 -0.2327
 1733SOL     OW11213   4.598   3.630   1.207 -0.5683  0.0722 -0.3393
 1733SOL    HW111214   4.507   3.604   1.175 -0.9620  0.5046  0.3983
 1733SOL    HW211215   4.589   3.689   1.287  0.3767 -0.5615  0.2476
 1734SOL     OW11216   2.269   6.226   1.297  0.3973 -0.1273  0.4772
 1734SOL    HW111217   2.270   6.127   1.282 -0.2213 -0.0015 -0.4311
 1734SOL    HW211218   2.187   6.251   1.347 -0.0645  0.0691 -0.3654
 1735SOL     OW11219   3.548   0.103   5.470 -0.0720 -0.3537 -0.2882
 1735SOL    HW111220   3.453   0.131   5.456  0.0650  0.2745  0.0139
 1735SOL    HW211221   3.601   0.180   5.505  0.4481 -0.8353  0.0001
 1736SOL     OW11222   5.944   2.793   5.410  0.2316  0.1742  0.6658
 1736SOL    HW111223   5.915   2.712   5.461 -1.8416  0.5155  0.1163
 1736SOL    HW211224   5.901   2.793   5.320  3.4323 -0.1624 -0.9920
 1737SOL     OW11225   1.353   2.026   5.361 -0.4346  0.2816  0.0648
 1737SOL    HW111226   1.404   2.096   5.312  1.5769 -0.6551  0.7125
 1737SOL    HW211227   1.332   1.950   5.300  1.6678 -0.6785  0.4427
 1738SOL     OW11228   1.608   5.087   0.844 -0.9422 -0.0988  0.5024
 1738SOL    HW111229   1.690   5.098   0.788 -1.3062  0.8699  0.1357
 1738SOL    HW211230   1.617   5.005   0.901 -0.6684 -1.2409 -1.1258
 1739SOL     OW11231   6.224   5.837   1.008  0.5473 -0.2496  0.1841
 1739SOL    HW111232   6.307   5.835   1.063  1.2755 -0.6309 -0.8922
 1739SOL    HW211233   6.151   5.787   1.055  1.8686 -2.8177 -0.3107
 1740SOL     OW11234   5.854   0.739   5.657 -0.7973  0.3909  0.0370
 1740SOL    HW111235   5.845   0.678   5.736  1.1752 -1.9573 -1.4176
 1740SOL    HW211236   5.823   0.691   5.575  0.9024  1.3160 -1.1863
 1741SOL     OW11237   2.104   1.317   5.709 -0.6996  0.1281  0.4818
 1741SOL    HW111238   2.161   1.397   5.693 -2.0840  1.2777  1.0865
 1741SOL    HW211239   2.035   1.338   5.778 -0.2115 -2.0417  1.7458
 1742SOL     OW11240   1.851   4.472   0.864 -0.0294  0.1599  0.0507
 1742SOL    HW111241   1.868   4.533   0.942  1.9609 -1.1248  0.6974
 1742SOL    HW211242   1.832   4.380   0.898 -1.6302  0.0942 -0.9495
 1743SOL     OW11243   1.793   3.529   6.280 -0.2037 -0.1367  0.0627
 1743SOL    HW111244   1.888   3.506   6.258  0.3071  1.6755  0.1919
 1743SOL    HW211245   1.769   3.616   6.236 -2.1530 -1.0531 -0.8016
 1744SOL     OW11246   3.695   2.193   0.569 -0.5661  0.0770 -0.3632
 1744SOL    HW111247   3.769   2.227   0.626  0.0735 -0.0531 -1.0989
 1744SOL    HW211248   3.651   2.115   0.613  1.4787 -1.5907 -1.0864
 1745SOL     OW11249   6.329   0.370   5.287 -0.2004  0.2177 -0.1410
 1745SOL    HW111250   6.321   0.447   5.223 -0.6109  0.1833 -0.1341
 1745SOL    HW211251   6.412   0.319   5.268 -0.3625  0.1615 -0.6977
 1746SOL     OW11252   0.381   4.098   5.419  0.2478  0.8659  0.2459
 1746SOL    HW111253   0.464   4.054   5.385 -0.6182 -1.4078  0.9365
 1746SOL    HW211254   0.304   4.076   5.358 -0.1543  1.7402  0.4205
 1747SOL     OW11255   0.552   0.786   6.387  0.6285  0.1705 -0.4484
 1747SOL    HW111256   0.482   0.753   6.324  0.7092  0.2438 -0.5759
 1747SOL    HW211257   0.631   0.723   6.386  0.0228 -0.6489  0.6812
 1748SOL     OW11258   0.959   1.145   4.783 -0.1941  0.5409  0.1118
 1748SOL    HW111259   0.878   1.087   4.788  0.3618 -0.1776  0.9080
 1748SOL    HW211260   1.008   1.126   4.698 -0.7381  0.8341 -0.2776
 1749SOL     OW11261   5.165   1.462   0.116  0.1210 -0.8160  0.1283
 1749SOL    HW111262   5.174   1.365   0.096  0.3591 -0.7176 -0.2519
 1749SOL    HW211263   5.246   1.511   0.081 -1.2972 -0.0599 -2.2895
 1750SOL     OW11264   0.790   0.061   5.538  0.6015 -0.0641 -0.4090
 1750SOL    HW111265   0.777   0.160   5.547 -0.8948  0.1419 -3.6102
 1750SOL    HW211266   0.715   0.013   5.584 -0.8176  0.4780 -2.0604
 1751SOL     OW11267   3.731   1.742   1.170 -0.1222 -0.1316  0.5715
 1751SOL    HW111268   3.801   1.775   1.234  0.0652  1.4081 -0.3773
 1751SOL    HW211269   3.776   1.701   1.091 -0.3227 -0.2586  0.5233
 1752SOL     OW11270   2.135   4.217   0.054  0.4669  0.1297 -0.0417
 1752SOL    HW111271   2.164   4.225   0.149  3.4611 -0.9108 -0.7783
 1752SOL    HW211272   2.142   4.306   0.009 -1.6914  0.7965  0.8255
 1753SOL     OW11273   5.821   3.184   5.709  0.4589 -0.3623  0.1175
 1753SOL    HW111274   5.844   3.230   5.623  1.6062 -0.6007  0.2840
 1753SOL    HW211275   5.852   3.089   5.705  4.7536  0.7036  2.4155
 1754SOL     OW11276   0.856   0.470   5.149 -0.1895  0.0800  0.1800
 1754SOL    HW111277   0.904   0.527   5.083  0.3475 -0.5429  0.0274
 1754SOL    HW211278   0.821   0.388   5.103 -0.2825 -0.0919  0.5536
 1755SOL     OW11279   1.263   3.211   5.216 -0.2285 -0.3046  0.6677
 1755SOL    HW111280   1.327   3.136   5.196  2.8005  2.2146  0.0659
 1755SOL    HW211281   1.227   3.248   5.130 -2.4696 -1.5804  0.9996
 1756SOL     OW11282   1.412   0.997   1.618  0.4073 -0.0539 -0.0834
 1756SOL    HW111283   1.317   0.976   1.591 -0.3861 -1.7768  3.4795
 1756SOL    HW211284   1.430   1.094   1.603 -1.2082 -0.0386 -2.6090
 1757SOL     OW11285   5.444   1.107   5.624  0.0293 -0.4460 -0.0232
 1757SOL    HW111286   5.377   1.150   5.685  2.3904  2.2811  0.8579
 1757SOL    HW211287   5.513   1.059   5.678  0.1832 -1.1100 -0.7867
 1758SOL     OW11288   5.571   3.546   0.260  0.3585 -0.2570  0.3505
 1758SOL    HW111289   5.494   3.500   0.215  1.7382 -1.5098 -0.8541
 1758SOL    HW211290   5.537   3.606   0.332 -1.7323 -0.7412 -0.1714
 1759SOL     OW11291   4.476   5.884   4.912 -0.1551 -0.3953  0.1177
 1759SOL    HW111292   4.526   5.798   4.924 -0.6239 -0.5672  0.9312
 1759SOL    HW211293   4.535   5.951   4.868 -0.4194 -1.7670 -2.5140
 1760SOL     OW11294   1.657   4.908   2.088  0.6772  0.8406  0.2667
 1760SOL    HW111295   1.593   4.866   2.023  0.1028 -0.2762  1.5108
 1760SOL    HW211296   1.707   4.981   2.042  0.7521 -0.3143 -1.6303
 1761SOL     OW11297   4.987   3.877   0.690 -0.2725 -0.0908  0.0754
 1761SOL    HW111298   4.968   3.787   0.730 -0.1521 -0.8880 -1.5719
 1761SOL    HW211299   4.979   3.871   0.591  0.4592  1.5538 -0.1045
 1762SOL     OW11300   6.098   4.101   0.298  0.2430 -0.3235  0.0163
 1762SOL    HW111301   6.066   4.009   0.274  0.2468 -0.4751  0.5763
 1762SOL    HW211302   6.157   4.096   0.379  2.3525 -0.1462 -1.4581
 1763SOL     OW11303   3.263   2.314   0.259 -0.2968 -0.0590 -0.5487
 1763SOL    HW111304   3.336   2.382   0.252 -0.8921  0.5312 -1.2563
 1763SOL    HW211305   3.257   2.262   0.174 -1.1613  0.3875 -0.7709
 1764SOL     OW11306   0.864   3.323   4.837  0.3545 -0.4261  0.2709
 1764SOL    HW111307   0.771   3.354   4.820  0.3691 -0.3200  0.3749
 1764SOL    HW211308   0.875   3.228   4.807  0.6367  0.0326 -1.1676
 1765SOL     OW11309   0.468   5.051   0.057 -0.4459 -0.6265 -0.2317
 1765SOL    HW111310   0.565   5.035   0.070 -0.3100  0.0805 -0.3233
 1765SOL    HW211311   0.437   5.006  -0.026 -1.2531 -4.9257  2.1235
 1766SOL     OW11312   2.074   0.812   1.142  0.2889  0.0382  0.0569
 1766SOL    HW111313   2.166   0.801   1.104  1.1214 -1.0044  2.2076
 1766SOL    HW211314   2.075   0.884   1.211 -0.3878 -0.3476  0.4808
 1767SOL     OW11315   5.293   1.676   0.716 -0.6281 -0.2015  0.0259
 1767SOL    HW111316   5.249   1.747   0.771  1.2167  0.6008  0.5413
 1767SOL    HW211317   5.336   1.717   0.636  2.0348 -0.3759  1.2744
 1768SOL     OW11318   2.277   5.965   1.176 -0.2601  0.0541 -0.0607
 1768SOL    HW111319   2.180   5.943   1.186  0.3439 -3.4981 -0.6416
 1768SOL    HW211320   2.331   5.910   1.240  1.4699  1.4252 -0.2481
 1769SOL     OW11321   1.168   1.239   4.425 -0.2878  0.6158  0.5885
 1769SOL    HW111322   1.242   1.289   4.380 -0.0153  0.0503  0.4056
 1769SOL    HW211323   1.083   1.250   4.372  0.2935 -1.0470 -0.7752
 1770SOL     OW11324   4.386   0.977   5.307  0.0310  0.5220  0.2213
 1770SOL    HW111325   4.382   1.046   5.236  0.1366 -0.3880 -0.6917
 1770SOL    HW211326   4.476   0.934   5.307  0.7914  1.9251  2.3179
 1771SOL     OW11327   3.495   1.130   1.315  0.0823 -0.6674 -0.6234
 1771SOL    HW111328   3.414   1.096   1.269 -1.3802  2.1601 -0.3698
 1771SOL    HW211329   3.480   1.131   1.414  1.6850 -2.9709 -0.2664
 1772SOL     OW11330   2.718   2.424   6.138  0.6968  0.0112 -0.1508
 1772SOL    HW111331   2.707   2.510   6.090 -0.9258 -0.3079 -0.4059
 1772SOL    HW211332   2.815   2.411   6.163  1.0298  1.6558 -0.5102
 1773SOL     OW11333   0.596   5.027   0.550 -0.4304 -0.4080  0.1220
 1773SOL    HW111334   0.513   4.981   0.581 -1.0151  0.0919 -0.6789
 1773SOL    HW211335   0.664   5.027   0.624 -0.7382 -1.7680  0.4179
 1774SOL     OW11336   2.581   1.045   6.328  0.4125 -0.5076 -0.1739
 1774SOL    HW111337   2.512   0.973   6.333 -0.2789  0.1899  4.3880
 1774SOL    HW211338   2.670   1.005   6.305 -0.6584 -2.0884 -1.7686
 1775SOL     OW11339   3.595   0.157   1.322  0.3689 -0.2938  0.1649
 1775SOL    HW111340   3.551   0.246   1.310  0.0538 -0.5616 -0.7363
 1775SOL    HW211341   3.658   0.141   1.246  0.9688 -0.5298  0.7069
 1776SOL     OW11342   4.990   4.808   0.163 -0.0571 -0.0884  0.3343
 1776SOL    HW111343   4.943   4.726   0.195  0.9019 -2.0563 -2.7801
 1776SOL    HW211344   4.937   4.849   0.088  1.3169 -0.1298 -0.6831
 1777SOL     OW11345   5.081   2.823   0.194 -0.1216  0.2669  0.4943
 1777SOL    HW111346   5.107   2.901   0.250  0.8603 -1.0412  1.9588
 1777SOL    HW211347   5.104   2.738   0.242  0.4566 -0.9436 -1.7574
 1778SOL     OW11348   2.786   1.085   5.047  0.1988  0.2268 -0.0786
 1778SOL    HW111349   2.719   1.022   5.088  0.8428 -2.0384 -2.2311
 1778SOL    HW211350   2.772   1.088   4.948  1.6017  1.8081 -0.2691
 1779SOL     OW11351   1.360   2.629   6.112  0.5435  0.7346 -0.0212
 1779SOL    HW111352   1.442   2.660   6.160  2.1355 -0.3183 -1.8965
 1779SOL    HW211353   1.294   2.703   6.108  1.8322  1.9784  0.6192
 1780SOL     OW11354   2.000   5.950   1.237  0.1136 -0.8205 -0.1028
 1780SOL    HW111355   1.957   5.918   1.321  1.0609  0.9601  1.1256
 1780SOL    HW211356   1.958   6.036   1.208  0.1140 -1.1753 -1.2073
 1781SOL     OW11357   2.414   6.364   2.003 -0.4338  0.2789 -0.2052
 1781SOL    HW111358   2.316   6.351   2.020 -0.3114 -1.7053 -0.7965
 1781SOL    HW211359   2.441   6.455   2.034 -2.5008  0.9530 -0.2193
 1782SOL     OW11360   4.310   3.054   0.101  0.1086 -0.5105  0.0133
 1782SOL    HW111361   4.336   3.047   0.198 -1.3421 -0.7332  0.4057
 1782SOL    HW211362   4.317   3.149   0.072  0.8253 -0.4844  0.2545
 1783SOL     OW11363   6.244   0.034   0.639  0.1654 -0.2937  0.2451
 1783SOL    HW111364   6.270   0.026   0.543  2.9119  1.1458  0.7447
 1783SOL    HW211365   6.180   0.110   0.650  0.2369 -0.1315 -0.4054
 1784SOL     OW11366   2.047   0.387   1.853  0.1023 -0.3995 -0.0010
 1784SOL    HW111367   2.031   0.485   1.857 -0.5330 -0.4746 -0.4450
 1784SOL    HW211368   1.977   0.339   1.907 -0.1419 -0.6484 -0.5287
 1785SOL     OW11369   1.270   1.627   0.787 -0.1653 -0.4375 -0.6742
 1785SOL    HW111370   1.206   1.699   0.816 -1.2388 -1.0463 -1.4509
 1785SOL    HW211371   1.242   1.540   0.826  1.4836 -0.3767  0.7588
 1786SOL     OW11372   4.876   4.454   0.002 -0.5551  0.2398 -0.3056
 1786SOL    HW111373   4.937   4.417   0.073  1.4957  1.6384 -1.2408
 1786SOL    HW211374   4.912   4.430  -0.088 -2.5130 -0.5569 -0.9312
 1787SOL     OW11375   0.800   4.337   0.270 -0.1769 -0.3419 -0.0136
 1787SOL    HW111376   0.700   4.342   0.269 -0.2071 -0.4335  1.0494
 1787SOL    HW211377   0.838   4.427   0.251 -0.4909  0.0888  1.3296
 1788SOL     OW11378   5.144   2.622   6.051 -0.3489  0.2015 -0.4111
 1788SOL    HW111379   5.228   2.610   6.104  0.5530  1.5332 -1.4680
 1788SOL    HW211380   5.154   2.578   5.962 -0.3334  1.2572 -0.9504
 1789SOL     OW11381   1.802   3.211   1.139  0.1425 -0.2152  0.8274
 1789SOL    HW111382   1.817   3.117   1.169  0.2046 -1.1022 -1.7167
 1789SOL    HW211383   1.884   3.246   1.096 -1.1511 -0.7668 -2.3953
 1790SOL     OW11384   5.957   1.961   0.555  0.3976 -0.1550  0.3918
 1790SOL    HW111385   6.005   1.924   0.635 -0.9572  0.5932  1.6251
 1790SOL    HW211386   5.906   2.043   0.583 -0.9335 -0.4618 -1.0033
 1791SOL     OW11387   4.650   5.872   0.863  0.1497  0.0635 -1.0904
 1791SOL    HW111388   4.750   5.876   0.873  0.0220 -0.4900  0.7234
 1791SOL    HW211389   4.622   5.777   0.849 -0.0391  0.3796 -3.3079
 1792SOL     OW11390   3.620   4.336   1.753 -0.7528 -0.1624 -0.0028
 1792SOL    HW111391   3.715   4.339   1.723 -1.0820  1.3550 -0.9902
 1792SOL    HW211392   3.565   4.291   1.683 -1.0307  0.5635 -0.2575
 1793SOL     OW11393   3.738   4.259   0.111  0.0968  0.1798 -0.0677
 1793SOL    HW111394   3.808   4.276   0.042 -0.6299  1.4105 -0.5352
 1793SOL    HW211395   3.781   4.227   0.196  1.1020 -0.2082 -0.7093
 1794SOL     OW11396   4.909   1.761   5.944 -0.1749  0.4023  0.3293
 1794SOL    HW111397   5.000   1.801   5.942 -0.0218  0.1010  0.9603
 1794SOL    HW211398   4.851   1.815   6.006 -0.0937 -0.0909  0.8361
 1795SOL     OW11399   1.359   6.199   6.487 -0.2406  0.0565  0.0960
 1795SOL    HW111400   1.376   6.120   6.428 -0.9362  1.1502 -1.6663
 1795SOL    HW211401   1.445   6.244   6.509 -0.0642  0.4564 -1.3237
 1796SOL     OW11402   2.665   1.576   6.116  0.2088  0.9815  0.4723
 1796SOL    HW111403   2.584   1.541   6.163  0.9506 -3.6047 -1.2104
 1796SOL    HW211404   2.639   1.607   6.025  0.2737 -0.6182 -0.1190
 1797SOL     OW11405   3.768   5.949   1.453  0.0011 -0.2879 -0.3516
 1797SOL    HW111406   3.855   5.988   1.424  0.3428  0.7836  1.8938
 1797SOL    HW211407   3.707   6.022   1.485 -1.0251 -1.1947 -0.1690
 1798SOL     OW11408   1.424   4.861   0.325 -0.3380 -0.0357  0.0583
 1798SOL    HW111409   1.502   4.919   0.301  0.2782 -0.8894 -0.0238
 1798SOL    HW211410   1.400   4.876   0.421 -0.2497  0.4261  0.0117
 1799SOL     OW11411   4.452   2.746   0.885 -0.6292 -0.1883  0.6701
 1799SOL    HW111412   4.515   2.824   0.885 -1.3829  0.4496  1.9181
 1799SOL    HW211413   4.422   2.727   0.978 -1.9786 -0.7305  0.1568
 1800SOL     OW11414   1.547   0.777   6.260 -0.4510  0.2048  0.1866
 1800SOL    HW111415   1.490   0.731   6.328  0.1005  0.4166  0.8066
 1800SOL    HW211416   1.547   0.724   6.175  0.1794 -0.9580  0.8831
 1801SOL     OW11417   0.978   0.474   5.847 -0.3911 -0.3423 -0.2942
 1801SOL    HW111418   0.921   0.393   5.840  0.7405 -1.1218 -0.6597
 1801SOL    HW211419   0.975   0.525   5.760  0.0345 -0.7706 -0.5625
 1802SOL     OW11420   3.874   3.303   5.568 -0.3702  0.0719  0.1219
 1802SOL    HW111421   3.778   3.329   5.564  0.0859  1.8545 -0.2003
 1802SOL    HW211422   3.917   3.323   5.480  0.6513  0.8485  0.7736
 1803SOL     OW11423   5.195   4.584   4.915 -0.0174  0.2591  0.6099
 1803SOL    HW111424   5.113   4.530   4.896  0.1584 -0.1912  1.0990
 1803SOL    HW211425   5.171   4.680   4.928 -0.6251 -0.0627  1.9579
 1804SOL     OW11426   6.136   2.986   5.428  0.3998  0.0658 -0.2893
 1804SOL    HW111427   6.100   2.893   5.440  0.0811  0.1141 -0.8422
 1804SOL    HW211428   6.069   3.042   5.380 -0.4005  1.2393  2.0184
 1805SOL     OW11429   0.762   3.545   0.470  0.4033 -0.1378  0.3074
 1805SOL    HW111430   0.788   3.611   0.540  0.0090  0.6332 -0.2523
 1805SOL    HW211431   0.844   3.498   0.437  0.5479 -0.7916  1.5330
 1806SOL     OW11432   0.642   5.389   6.301  0.1912  0.2836 -0.5904
 1806SOL    HW111433   0.641   5.489   6.296  3.2568  0.8428  3.9903
 1806SOL    HW211434   0.703   5.353   6.231  1.6975  2.0355 -0.2682
 1807SOL     OW11435   4.925   2.000   1.443  0.7600 -0.4404 -0.3154
 1807SOL    HW111436   5.019   2.034   1.437  0.4218  0.3156 -1.7874
 1807SOL    HW211437   4.869   2.068   1.491  0.7012 -0.2783 -0.6102
 1808SOL     OW11438   0.723   1.580   0.590 -0.6009 -0.1073 -0.5976
 1808SOL    HW111439   0.689   1.629   0.509 -0.5460  1.7483  0.4527
 1808SOL    HW211440   0.667   1.604   0.669  1.6681  1.1865  0.7016
 1809SOL     OW11441   1.698   4.339   0.665  0.5810  0.1279  0.2009
 1809SOL    HW111442   1.686   4.282   0.747 -0.2832 -1.2513 -0.8282
 1809SOL    HW211443   1.649   4.296   0.588 -0.6989  2.6300 -0.4750
 1810SOL     OW11444   4.354   1.160   5.062  0.1208  0.2624 -0.0988
 1810SOL    HW111445   4.445   1.137   5.028  0.1665 -1.0347  0.8470
 1810SOL    HW211446   4.313   1.230   5.003  0.3995 -1.5033 -2.5367
 1811SOL     OW11447   5.357   3.343   6.005  0.1306 -0.0770  0.2582
 1811SOL    HW111448   5.422   3.270   6.024  0.9666  0.4784 -0.4123
 1811SOL    HW211449   5.308   3.322   5.920  0.0105 -0.1008  0.3334
 1812SOL     OW11450   5.168   3.080   1.459  0.3192  0.5683 -0.1164
 1812SOL    HW111451   5.140   3.109   1.550 -0.6332  0.2512 -0.3004
 1812SOL    HW211452   5.139   3.148   1.391  1.2893  0.9555 -0.1690
 1813SOL     OW11453   2.455   3.116   0.826 -0.5787 -0.8001 -0.1678
 1813SOL    HW111454   2.522   3.042   0.812  0.0888 -0.3307  0.4954
 1813SOL    HW211455   2.449   3.171   0.742  1.2102  0.2237  0.3304
 1814SOL     OW11456   0.640   1.786   5.272 -0.6660 -0.5329 -0.3421
 1814SOL    HW111457   0.642   1.877   5.232 -0.0499 -0.2665  0.2829
 1814SOL    HW211458   0.666   1.718   5.202  1.7308  0.0505 -0.0855
 1815SOL     OW11459   2.607   1.168   1.025  0.4747 -0.2307 -0.1503
 1815SOL    HW111460   2.520   1.214   1.007  1.5939  1.7909 -0.6312
 1815SOL    HW211461   2.636   1.188   1.118  0.1790 -1.4008  0.2162
 1816SOL     OW11462   2.964   1.037   6.474 -0.2983  0.1509  0.2492
 1816SOL    HW111463   3.045   1.050   6.531 -0.1271 -0.5766  0.1906
 1816SOL    HW211464   2.990   1.030   6.378 -0.2425 -1.4971  0.3502
 1817SOL     OW11465   1.770   3.291   5.855 -0.2568 -0.4761  0.1711
 1817SOL    HW111466   1.689   3.337   5.819 -0.9686 -1.4325  0.5208
 1817SOL    HW211467   1.833   3.271   5.781 -0.6682 -0.3759 -0.2080
 1818SOL     OW11468   4.736   1.884   6.145  0.5138  0.3268 -0.3924
 1818SOL    HW111469   4.654   1.896   6.089  1.5432  1.0543 -1.8144
 1818SOL    HW211470   4.777   1.974   6.162  0.8456 -0.0007  0.5885
 1819SOL     OW11471   2.125   0.597   5.082  0.2907 -0.0662  0.1874
 1819SOL    HW111472   2.200   0.613   5.017 -1.0005  0.0289 -1.3411
 1819SOL    HW211473   2.125   0.501   5.109  0.7876 -0.1288 -0.0170
 1820SOL     OW11474   2.080   1.313   5.241  0.3091 -0.1022 -0.2052
 1820SOL    HW111475   2.010   1.382   5.257  1.0958  1.2839 -2.2990
 1820SOL    HW211476   2.084   1.291   5.143  1.3198 -1.7889  0.1660
 1821SOL     OW11477   3.518   2.391   0.516  0.1919  0.3266  0.0646
 1821SOL    HW111478   3.590   2.342   0.565  0.0762  1.4203  1.3997
 1821SOL    HW211479   3.466   2.327   0.460  1.3829 -0.6921  0.0777
 1822SOL     OW11480   4.134   6.319   1.451 -0.8915  0.0801 -0.5541
 1822SOL    HW111481   4.160   6.302   1.546  0.4261 -0.3969 -0.9796
 1822SOL    HW211482   4.073   6.245   1.420 -1.2178  0.1662 -0.1377
 1823SOL     OW11483   3.139   1.595   0.893 -0.5833  0.2183  0.1344
 1823SOL    HW111484   3.062   1.604   0.956 -0.6028  0.0577  0.1322
 1823SOL    HW211485   3.142   1.502   0.857 -0.3381  0.2017  0.1988
 1824SOL     OW11486   1.692   0.237   1.389  0.5242  0.0460  0.6529
 1824SOL    HW111487   1.747   0.199   1.464 -2.5332 -5.0438  0.8004
 1824SOL    HW211488   1.610   0.279   1.427  0.2472 -0.1610  0.2876
 1825SOL     OW11489   4.455   0.508   4.598  0.0473  0.2883 -0.4603
 1825SOL    HW111490   4.501   0.544   4.516  1.7141  1.3468  0.8629
 1825SOL    HW211491   4.404   0.426   4.574 -0.8174  1.4277 -2.8731
 1826SOL     OW11492   5.930   4.811   0.556  0.4087  0.2789 -0.1979
 1826SOL    HW111493   5.989   4.819   0.637  0.3074  1.1622 -0.1979
 1826SOL    HW211494   5.981   4.770   0.481  1.5490  2.4118 -0.6776
 1827SOL     OW11495   3.213   3.810   0.097 -0.2033 -0.2696  0.0739
 1827SOL    HW111496   3.232   3.869   0.175 -0.2327  0.5194 -0.4976
 1827SOL    HW211497   3.267   3.840   0.018 -3.8259  2.2957 -1.7399
 1828SOL     OW11498   5.471   3.317   0.990 -0.1003 -0.3684 -0.3775
 1828SOL    HW111499   5.372   3.319   1.005  0.0536 -0.7684  0.8410
 1828SOL    HW211500   5.514   3.263   1.063  1.2305  1.6482  0.4173
 1829SOL     OW11501   6.295   3.505   0.516  0.4854 -0.3598  0.1469
 1829SOL    HW111502   6.205   3.548   0.524  0.3322 -0.7568  0.5630
 1829SOL    HW211503   6.286   3.417   0.469  0.9460  0.5234 -1.7051
 1830SOL     OW11504   3.046   1.038   5.157 -0.0073 -0.4061  0.5592
 1830SOL    HW111505   3.114   1.101   5.120 -0.4459  0.2329  0.8346
 1830SOL    HW211506   2.959   1.051   5.109  0.3378 -1.9978 -0.5765
 1831SOL     OW11507   0.317   5.669   5.397  0.3554  0.0039  0.4785
 1831SOL    HW111508   0.415   5.681   5.416  0.4988 -1.9680  1.2561
 1831SOL    HW211509   0.305   5.630   5.306  0.0441  3.1273 -0.9452
 1832SOL     OW11510   3.028   2.888   6.443  0.6136  0.2331 -0.4894
 1832SOL    HW111511   3.041   2.865   6.540 -0.6696 -0.1304 -0.3891
 1832SOL    HW211512   3.075   2.821   6.387  1.7357  0.6893 -0.1277
 1833SOL     OW11513   0.029   4.479   1.260  0.3153  0.1729 -0.3218
 1833SOL    HW111514   0.037   4.534   1.343  0.6711  2.2221 -1.6517
 1833SOL    HW211515   0.068   4.388   1.277  2.3563  1.2470  1.1352
 1834SOL     OW11516   4.896   3.640   0.775 -0.3985  0.6743  0.4300
 1834SOL    HW111517   4.915   3.582   0.854  0.6761 -1.0001 -0.9654
 1834SOL    HW211518   4.826   3.596   0.718  0.1410  0.9574 -0.4620
 1835SOL     OW11519   1.453   3.529   6.399 -0.5560 -0.6165 -0.2658
 1835SOL    HW111520   1.370   3.548   6.346 -2.7920 -3.3540  1.9231
 1835SOL    HW211521   1.486   3.614   6.440 -1.6939  0.7168 -1.9515
 1836SOL     OW11522   2.605   0.336   0.920 -0.3216 -0.4910 -0.3424
 1836SOL    HW111523   2.649   0.420   0.950  1.8961 -1.1897 -1.4348
 1836SOL    HW211524   2.531   0.313   0.983  0.9392  0.6940  1.6997
 1837SOL     OW11525   2.843   5.639   5.990  0.3096 -0.2006 -0.3822
 1837SOL    HW111526   2.918   5.704   5.997 -0.9067  1.1173  1.5673
 1837SOL    HW211527   2.791   5.639   6.076 -1.5005 -1.5737 -1.4005
 1838SOL     OW11528   6.073   2.115   6.512 -0.3832 -0.0386  0.1160
 1838SOL    HW111529   6.169   2.101   6.486  0.1182 -1.7639  2.5537
 1838SOL    HW211530   6.023   2.030   6.499 -1.3116  0.5174  0.0014
 1839SOL     OW11531   5.924   3.687   5.760 -0.2690 -0.2426  0.0118
 1839SOL    HW111532   5.948   3.738   5.677 -0.2878 -0.6155 -0.2304
 1839SOL    HW211533   5.904   3.750   5.834  0.6345  0.0949 -0.0150
 1840SOL     OW11534   4.603   5.623   4.920 -0.2630 -0.8611 -0.2261
 1840SOL    HW111535   4.668   5.548   4.931  1.1414  0.1874 -1.0152
 1840SOL    HW211536   4.544   5.605   4.841  0.3424 -0.9397 -0.6620
 1841SOL     OW11537   3.264   3.651   0.935 -0.1485  0.1584 -0.0896
 1841SOL    HW111538   3.222   3.598   1.009 -1.1010  0.9726 -0.0309
 1841SOL    HW211539   3.206   3.729   0.912  1.0609  1.0027 -0.4030
 1842SOL     OW11540   0.922   0.644   0.836  0.1166 -0.2388  0.0005
 1842SOL    HW111541   0.914   0.743   0.826 -0.6626 -0.2059  0.8635
 1842SOL    HW211542   0.911   0.619   0.932  1.2955 -1.0828 -0.0682
 1843SOL     OW11543   2.983   0.453   0.895 -0.5219 -0.1997 -0.2275
 1843SOL    HW111544   2.947   0.362   0.875 -1.2056 -0.2302  1.0532
 1843SOL    HW211545   2.908   0.517   0.911 -0.0417  0.2490  0.3094
 1844SOL     OW11546   2.840   4.155   1.332 -0.2707 -0.8847 -0.3873
 1844SOL    HW111547   2.813   4.064   1.365  2.4096 -0.9975  1.9217
 1844SOL    HW211548   2.895   4.201   1.402  0.6052  1.5095 -2.4764
 1845SOL     OW11549   1.340   5.263   0.263  0.7526 -0.4203  0.1588
 1845SOL    HW111550   1.347   5.250   0.362  1.5921  1.7087  0.4489
 1845SOL    HW211551   1.262   5.321   0.242  1.4204  0.3512 -0.2631
 1846SOL     OW11552   0.927   4.915   0.330 -0.5178  0.1239 -0.0382
 1846SOL    HW111553   0.966   4.999   0.290  0.5447 -0.7243 -0.8290
 1846SOL    HW211554   0.828   4.913   0.311 -0.6799  1.4631  0.5044
 1847SOL     OW11555   1.301   4.882   5.484  0.0518 -0.1517 -0.1148
 1847SOL    HW111556   1.272   4.841   5.397  0.9053 -0.7154 -0.1393
 1847SOL    HW211557   1.273   4.823   5.559  0.7013 -0.4559 -0.1086
 1848SOL     OW11558   1.946   0.937   0.329  0.0995  0.0974  0.3733
 1848SOL    HW111559   2.003   1.001   0.380 -0.1239 -0.2047  1.0008
 1848SOL    HW211560   1.984   0.845   0.335  1.7212  0.4522 -2.3907
 1849SOL     OW11561   1.263   1.722   5.797  1.0730  0.0474 -0.0382
 1849SOL    HW111562   1.253   1.815   5.833  0.2801 -0.0177 -0.0782
 1849SOL    HW211563   1.293   1.661   5.870 -1.3729 -0.2619  0.8067
 1850SOL     OW11564   1.971   0.879   6.495 -0.0210  0.8576 -0.4737
 1850SOL    HW111565   1.939   0.891   6.400 -0.7705  0.2675 -0.3121
 1850SOL    HW211566   1.892   0.877   6.556  0.0845 -2.4983 -0.2385
 1851SOL     OW11567   2.883   3.109   1.056 -0.0706  0.1565 -0.1426
 1851SOL    HW111568   2.963   3.135   1.110  0.1401  1.6412 -1.0995
 1851SOL    HW211569   2.835   3.033   1.100  2.1911 -1.1738  0.1482
 1852SOL     OW11570   4.642   5.758   6.054 -0.1735 -0.3522  0.3639
 1852SOL    HW111571   4.701   5.734   5.977  0.3515  0.1555  0.5912
 1852SOL    HW211572   4.685   5.727   6.139  0.8362  1.8052  0.7309
 1853SOL     OW11573   4.681   1.076   0.262  0.6439 -0.4303 -0.1534
 1853SOL    HW111574   4.622   1.099   0.340 -0.1151  1.7685 -1.3042
 1853SOL    HW211575   4.632   1.012   0.202  0.0207  0.1934 -0.3230
 1854SOL     OW11576   2.393   5.825   1.382 -0.5968  0.3257  0.0350
 1854SOL    HW111577   2.446   5.837   1.465 -2.1870 -1.1221  1.3270
 1854SOL    HW211578   2.297   5.807   1.405 -0.8915 -1.2292 -2.0656
 1855SOL     OW11579   2.691   2.082   5.471 -0.3370  0.4659 -0.3293
 1855SOL    HW111580   2.664   2.036   5.555 -1.5460 -0.5933 -1.2594
 1855SOL    HW211581   2.611   2.126   5.429  0.1759  0.6877 -1.1105
 1856SOL     OW11582   6.119   0.361   6.363  0.0398  0.4081  0.1099
 1856SOL    HW111583   6.102   0.372   6.265 -1.1029  2.1325  0.4553
 1856SOL    HW211584   6.047   0.304   6.403  0.3446 -0.0555  0.0051
 1857SOL     OW11585   5.032   5.336   5.437  0.3116  0.6964 -0.3887
 1857SOL    HW111586   5.060   5.261   5.377  2.4192  1.2722 -0.2126
 1857SOL    HW211587   5.113   5.387   5.467 -0.7121  0.8985  2.3455
 1858SOL     OW11588   6.010   3.640   0.097  0.5372  0.3557 -0.9043
 1858SOL    HW111589   6.048   3.562   0.048 -0.7619  0.5074 -2.2437
 1858SOL    HW211590   5.912   3.648   0.075  0.5934  2.2364 -0.6612
 1859SOL     OW11591   0.535   1.316   5.639 -0.1492 -0.4670  0.3448
 1859SOL    HW111592   0.549   1.225   5.676  0.3877 -0.3410  0.4627
 1859SOL    HW211593   0.440   1.327   5.610  0.2536 -1.8338 -1.7155
 1860SOL     OW11594   4.465   3.176   6.217 -0.6816 -0.2284  0.6000
 1860SOL    HW111595   4.529   3.252   6.225  0.0201 -0.9475  2.4204
 1860SOL    HW211596   4.379   3.209   6.176  0.1821  1.1423 -0.1871
 1861SOL     OW11597   0.205   4.979   0.223  0.1457 -0.0807  0.2630
 1861SOL    HW111598   0.143   5.002   0.147 -1.1309 -0.7154  1.0865
 1861SOL    HW211599   0.292   5.027   0.210 -0.7716  1.4659 -0.5290
 1862SOL     OW11600   5.740   3.364   0.912 -0.0369  0.8446 -0.9311
 1862SOL    HW111601   5.643   3.384   0.932  0.7765  2.2120  2.4046
 1862SOL    HW211602   5.787   3.450   0.892  0.9783  0.5910  0.2595
 1863SOL     OW11603   4.088   1.985   0.886 -0.1123 -0.4641  0.8333
 1863SOL    HW111604   4.028   2.010   0.962  1.3356 -0.8905  2.1530
 1863SOL    HW211605   4.181   1.971   0.919  0.1235 -2.9581 -0.6049
 1864SOL     OW11606   3.424   5.200   5.124  0.0470 -0.2435  0.3689
 1864SOL    HW111607   3.350   5.180   5.059 -0.2932  0.1348  0.6379
 1864SOL    HW211608   3.444   5.118   5.177  1.9981 -1.3245 -1.8461
 1865SOL     OW11609   4.778   4.504   6.186 -0.3081  0.1669  0.3388
 1865SOL    HW111610   4.750   4.420   6.232  0.8117 -0.5494 -0.2458
 1865SOL    HW211611   4.876   4.520   6.204 -0.7255  1.9114  1.3068
 1866SOL     OW11612   2.527   4.604   5.845 -0.5857  0.2191  0.5257
 1866SOL    HW111613   2.612   4.561   5.873 -1.3301 -2.1564 -0.5997
 1866SOL    HW211614   2.527   4.619   5.746 -1.4161  0.2891  0.5263
 1867SOL     OW11615   3.322   6.029   1.085  0.0722  0.2217  0.3975
 1867SOL    HW111616   3.307   6.104   1.021  1.1584  0.5176  0.4777
 1867SOL    HW211617   3.292   5.943   1.043  0.8238  0.4025 -0.5485
 1868SOL     OW11618   3.953   5.436   5.915 -0.2099  0.8156 -0.3694
 1868SOL    HW111619   3.923   5.383   5.994 -2.1816 -0.8892 -2.1584
 1868SOL    HW211620   3.902   5.522   5.912 -0.6779  0.5474 -0.2117
 1869SOL     OW11621   6.023   6.089   6.431  0.7346  0.1142 -0.0453
 1869SOL    HW111622   5.950   6.097   6.499  1.3537 -1.1990  0.8034
 1869SOL    HW211623   6.093   6.025   6.463  3.0697  2.4162 -0.1230
 1870SOL     OW11624   2.217   3.429   0.583 -0.4164  0.2881  0.7724
 1870SOL    HW111625   2.194   3.331   0.582  1.2733 -0.1455  0.5185
 1870SOL    HW211626   2.133   3.483   0.586 -1.4299 -1.1380 -0.3342
 1871SOL     OW11627   4.615   3.254   6.475  0.3715  0.7500  0.4392
 1871SOL    HW111628   4.628   3.155   6.466  0.8048  0.5688  2.4952
 1871SOL    HW211629   4.517   3.275   6.467  0.2702  0.1485  0.0569
 1872SOL     OW11630   0.446   5.409   1.118  0.3927 -0.0607 -0.1256
 1872SOL    HW111631   0.501   5.328   1.139  2.2556  1.2748  0.3624
 1872SOL    HW211632   0.415   5.451   1.203 -0.1299  0.0469 -0.3638
 1873SOL     OW11633   2.691   3.912   0.962  0.2899  0.5987 -0.2656
 1873SOL    HW111634   2.632   3.993   0.966 -0.7205 -0.1523  0.8052
 1873SOL    HW211635   2.672   3.861   0.877 -1.1088  0.0325  0.3535
 1874SOL     OW11636   6.253   4.775   5.506 -0.4448  0.2722 -0.0496
 1874SOL    HW111637   6.168   4.804   5.461  0.1788 -0.3449 -1.7179
 1874SOL    HW211638   6.307   4.720   5.442  1.4464  1.0379  0.8176
 1875SOL     OW11639   4.801   3.450   1.204 -0.9642  0.0859  0.1868
 1875SOL    HW111640   4.849   3.472   1.289 -1.1137  1.4247 -0.0453
 1875SOL    HW211641   4.712   3.495   1.203 -0.8479  0.3215 -0.7912
 1876SOL     OW11642   2.683   6.218   6.089  0.3581 -1.0370 -0.0155
 1876SOL    HW111643   2.588   6.248   6.075  1.0579  0.7810 -1.2149
 1876SOL    HW211644   2.688   6.118   6.079 -1.1867 -1.0158 -1.4256
 1877SOL     OW11645   2.483   4.286   6.310 -0.8569  0.0461  0.1048
 1877SOL    HW111646   2.464   4.375   6.269 -0.6132 -0.4541 -1.1102
 1877SOL    HW211647   2.581   4.272   6.318 -0.8778  0.5978  1.9397
 1878SOL     OW11648   2.889   5.806   5.039  0.7148 -0.2588 -0.2463
 1878SOL    HW111649   2.886   5.905   5.054  0.2502 -0.6550  3.1875
 1878SOL    HW211650   2.975   5.781   4.995  1.3473  1.5525 -0.1260
 1879SOL     OW11651   2.049   1.791   5.922  0.1500 -0.0018 -0.1840
 1879SOL    HW111652   2.003   1.844   5.993  1.3007  0.3229  0.3371
 1879SOL    HW211653   1.982   1.763   5.853 -1.3617 -1.8797  1.9037
 1880SOL     OW11654   2.737   1.296   4.658  0.0570 -0.1101  0.1696
 1880SOL    HW111655   2.689   1.217   4.695  0.6190 -0.6526 -0.2459
 1880SOL    HW211656   2.705   1.313   4.564 -0.6711  0.6763  0.5460
 1881SOL     OW11657   0.646   5.752   6.003  0.3238 -0.2715 -0.1544
 1881SOL    HW111658   0.738   5.790   6.010  0.5384 -0.3738 -2.0091
 1881SOL    HW211659   0.581   5.813   6.050  0.7839  2.0074 -2.2760
 1882SOL     OW11660   5.231   4.903   1.157  0.1081  0.2673 -0.4280
 1882SOL    HW111661   5.263   4.846   1.233 -1.8967 -1.5697 -0.8589
 1882SOL    HW211662   5.184   4.983   1.193 -0.3612 -0.3151  0.2925
 1883SOL     OW11663   2.454   4.533   6.201  0.2249  0.0677  0.1052
 1883SOL    HW111664   2.492   4.570   6.116  0.0809  1.5556  0.6533
 1883SOL    HW211665   2.424   4.608   6.259  1.3234 -0.8385  1.9625
 1884SOL     OW11666   0.320   6.306   0.254  0.1850  0.2898  0.0301
 1884SOL    HW111667   0.370   6.392   0.251 -1.8158  1.5143  0.5849
 1884SOL    HW211668   0.243   6.314   0.317  0.2990 -2.1100  0.5712
 1885SOL     OW11669   0.530   0.928   6.044  0.8428  0.3669  0.5945
 1885SOL    HW111670   0.432   0.913   6.042  1.1187 -1.6417 -0.6055
 1885SOL    HW211671   0.556   0.970   6.132 -0.8834 -0.5138  1.5787
 1886SOL     OW11672   1.620   4.693   5.417  0.1561  0.0723  0.0370
 1886SOL    HW111673   1.653   4.620   5.358  0.7694 -1.6924  2.4106
 1886SOL    HW211674   1.545   4.660   5.474 -0.3156  1.6497  0.3946
 1887SOL     OW11675   1.464   0.254   6.297 -0.2653  0.2051  0.1939
 1887SOL    HW111676   1.372   0.214   6.302 -1.0334  1.8469 -0.1966
 1887SOL    HW211677   1.462   0.335   6.239  2.0520 -1.2826 -2.2131
 1888SOL     OW11678   1.009   4.986   4.807 -0.3912 -0.0834 -0.3502
 1888SOL    HW111679   0.941   4.920   4.774 -0.8166  0.3599 -0.3778
 1888SOL    HW211680   1.090   4.984   4.749 -0.0511 -1.1686  0.1320
 1889SOL     OW11681   4.001   6.069   0.554  0.0994  0.2042  0.1765
 1889SOL    HW111682   3.961   6.117   0.632  1.6646 -0.1130  1.2197
 1889SOL    HW211683   3.973   5.973   0.557  2.1142 -0.4083  1.8498
 1890SOL     OW11684   0.112   6.085   6.167 -0.1027 -0.5897  0.2321
 1890SOL    HW111685   0.059   6.105   6.250  0.6030 -0.7008  0.7230
 1890SOL    HW211686   0.092   6.153   6.097  0.9828  0.9032  1.2803
 1891SOL     OW11687   0.206   4.250   1.316 -0.2385 -0.8268 -0.8501
 1891SOL    HW111688   0.134   4.233   1.383 -1.9686  1.2994 -2.0179
 1891SOL    HW211689   0.292   4.269   1.364 -1.4923  0.9922  0.8430
 1892SOL     OW11690   5.749   5.805   1.379  0.0025 -0.4605  0.1784
 1892SOL    HW111691   5.792   5.880   1.329 -0.2993  0.0078  0.6077
 1892SOL    HW211692   5.778   5.808   1.475 -0.0457 -0.8690  0.2077
 1893SOL     OW11693   3.993   0.198   5.846 -0.5214  0.1726 -0.2160
 1893SOL    HW111694   4.079   0.168   5.890  1.2370  1.7919 -2.3355
 1893SOL    HW211695   3.965   0.286   5.884  0.2487  0.9119 -1.3043
 1894SOL     OW11696   5.030   1.488   6.339  0.0154  0.1735  0.3682
 1894SOL    HW111697   5.101   1.456   6.276  1.2784 -0.3154  1.9379
 1894SOL    HW211698   4.988   1.409   6.384  0.3722  0.5328  1.3734
 1895SOL     OW11699   2.018   0.068   6.430 -0.4289 -0.4817 -0.1179
 1895SOL    HW111700   2.008   0.107   6.339  0.1360  2.2252  0.8924
 1895SOL    HW211701   1.928   0.037   6.463 -0.9363  0.1007 -0.9221
 1896SOL     OW11702   3.111   4.774   5.839 -0.2187  0.7898  0.8287
 1896SOL    HW111703   3.086   4.742   5.748  1.0076  0.1895  0.6819
 1896SOL    HW211704   3.164   4.859   5.832  0.9262  0.1001  0.8835
 1897SOL     OW11705   5.015   4.476   0.989  0.4780  0.9040  0.6653
 1897SOL    HW111706   4.939   4.429   1.033  0.2834 -0.3575 -0.9217
 1897SOL    HW211707   4.979   4.540   0.921  0.8190  1.2183  0.7765
 1898SOL     OW11708   1.328   1.958   0.019 -0.3312 -0.5171 -0.4353
 1898SOL    HW111709   1.278   2.011  -0.048 -0.9880 -0.7946 -0.1772
 1898SOL    HW211710   1.354   2.017   0.096  2.1080  0.2647 -1.7593
 1899SOL     OW11711   2.990   4.917   1.127  0.6881 -0.0092 -0.0012
 1899SOL    HW111712   2.929   4.994   1.111  0.9258  0.4695  1.3434
 1899SOL    HW211713   3.078   4.934   1.082  1.1417  1.0425  1.2439
 1900SOL     OW11714   6.010   0.929   0.819  0.4265 -0.4806 -0.2430
 1900SOL    HW111715   6.109   0.941   0.823  0.4536 -0.7245 -0.1663
 1900SOL    HW211716   5.982   0.856   0.881  0.1855 -0.3426 -0.1853
 1901SOL     OW11717   2.119   1.134   4.734 -0.2740 -0.0390  0.2856
 1901SOL    HW111718   2.046   1.160   4.670 -0.2018 -1.2705 -0.3231
 1901SOL    HW211719   2.112   1.191   4.816  0.4095  2.4653 -1.2860
 1902SOL     OW11720   4.203   3.277   1.502  0.1053 -0.1410  0.6267
 1902SOL    HW111721   4.204   3.197   1.561  0.0086 -0.3009  0.4108
 1902SOL    HW211722   4.177   3.358   1.556  0.9539 -0.1150  1.0132
 1903SOL     OW11723   2.739   6.344   4.878 -0.2069  0.0723  0.7992
 1903SOL    HW111724   2.720   6.269   4.816 -0.8086  0.8378  0.0248
 1903SOL    HW211725   2.705   6.430   4.838 -3.1135  0.2665  3.3287
 1904SOL     OW11726   3.028   5.346   5.850  0.2304 -0.0136 -0.5060
 1904SOL    HW111727   2.944   5.399   5.854  0.6636  0.6384  1.7010
 1904SOL    HW211728   3.106   5.408   5.848  0.6966 -0.5831 -0.3129
 1905SOL     OW11729   2.363   2.408   5.910  0.0387  0.4989  0.2128
 1905SOL    HW111730   2.357   2.499   5.951  1.1683  0.2040  1.1001
 1905SOL    HW211731   2.408   2.346   5.975 -0.6475 -0.6754 -0.4047
 1906SOL     OW11732   5.605   2.162   6.123  0.2770  0.3158 -0.0700
 1906SOL    HW111733   5.566   2.226   6.189  1.3054 -0.4776  1.3626
 1906SOL    HW211734   5.598   2.069   6.158 -0.5663 -0.3253 -1.8123
 1907SOL     OW11735   3.699   5.955   0.213 -0.0528  0.4453  0.2906
 1907SOL    HW111736   3.639   6.018   0.164 -0.5167 -0.5296 -0.4121
 1907SOL    HW211737   3.675   5.955   0.310  0.8517  2.3615  0.5598
 1908SOL     OW11738   5.015   1.840   0.973 -0.1685  0.0031  0.1384
 1908SOL    HW111739   4.918   1.821   0.988 -0.6471  0.7681 -1.6940
 1908SOL    HW211740   5.067   1.810   1.053 -1.9725  0.2230  1.4714
 1909SOL     OW11741   1.438   1.524   0.035 -0.0601 -0.2751 -0.2049
 1909SOL    HW111742   1.354   1.542  -0.015  0.4569  0.8682 -0.7086
 1909SOL    HW211743   1.450   1.425   0.048 -2.2261 -0.4188  1.2338
 1910SOL     OW11744   5.235   2.635   5.450  0.1023 -0.2511  0.4250
 1910SOL    HW111745   5.157   2.611   5.508  0.0668 -0.3626  0.3323
 1910SOL    HW211746   5.231   2.581   5.366 -1.2860  1.6895 -0.8458
 1911SOL     OW11747   5.519   1.756   0.464 -0.4313 -0.2368  0.6151
 1911SOL    HW111748   5.440   1.717   0.418 -0.0001  2.6766 -3.0585
 1911SOL    HW211749   5.603   1.714   0.429 -0.1466  1.0841 -0.3401
 1912SOL     OW11750   1.348   4.242   5.340 -0.1941  0.1569  0.0019
 1912SOL    HW111751   1.402   4.293   5.274 -0.3400  1.4784  0.8721
 1912SOL    HW211752   1.278   4.188   5.293 -0.9103  1.8004 -0.8871
 1913SOL     OW11753   3.276   6.137   0.812  0.3899  0.0651 -0.4565
 1913SOL    HW111754   3.371   6.137   0.782 -0.2239  3.1436 -3.0433
 1913SOL    HW211755   3.218   6.165   0.735 -2.4169 -0.0072  1.4973
 1914SOL     OW11756   1.221   0.410   0.006  0.2055  0.4172  0.5290
 1914SOL    HW111757   1.251   0.422   0.101 -1.6590 -1.5868  1.4520
 1914SOL    HW211758   1.182   0.319  -0.006 -0.3868  0.9160 -1.9831
 1915SOL     OW11759   4.270   1.349   0.017 -0.2163 -0.0494  0.5734
 1915SOL    HW111760   4.353   1.399  -0.007  0.3583 -1.6119 -0.8864
 1915SOL    HW211761   4.292   1.252   0.029 -1.8642 -0.5325 -0.0621
 1916SOL     OW11762   0.611   5.307   5.399  0.0367 -0.3547  0.2636
 1916SOL    HW111763   0.620   5.207   5.400  0.9541 -0.2786  0.3126
 1916SOL    HW211764   0.660   5.344   5.320 -0.6754  0.0285 -0.0035
 1917SOL     OW11765   5.219   4.014   1.751 -0.0763 -0.0281  0.0185
 1917SOL    HW111766   5.182   4.089   1.697 -1.1586 -1.2889 -1.0895
 1917SOL    HW211767   5.312   4.037   1.781 -0.9389  2.3479  1.0670
 1918SOL     OW11768   4.610   2.546   1.218 -0.4316  0.1049  0.1971
 1918SOL    HW111769   4.568   2.457   1.199  0.1978 -0.1832  0.1157
 1918SOL    HW211770   4.663   2.541   1.303  0.2494  0.1776 -0.2206
 1919SOL     OW11771   4.859   6.297   0.724  0.2015 -0.5540 -0.7590
 1919SOL    HW111772   4.854   6.231   0.799 -1.4662 -0.2296 -0.5637
 1919SOL    HW211773   4.794   6.371   0.739 -1.6557 -1.4750 -3.4276
 1920SOL     OW11774   0.362   3.789   5.314  0.3250  0.0572 -0.1285
 1920SOL    HW111775   0.404   3.709   5.272  0.5438  0.7922 -1.3749
 1920SOL    HW211776   0.431   3.841   5.364  0.5665  0.3887 -0.7951
 1921SOL     OW11777   0.270   4.396   6.084  0.2310  1.2504 -0.3056
 1921SOL    HW111778   0.360   4.367   6.052 -0.5168 -1.2533 -0.4061
 1921SOL    HW211779   0.242   4.339   6.161 -2.1380  0.4116 -1.6727
 1922SOL     OW11780   0.280   2.244   4.869 -0.4994 -0.0431  1.1150
 1922SOL    HW111781   0.182   2.259   4.858 -0.4678 -1.1052 -1.2618
 1922SOL    HW211782   0.330   2.314   4.819 -0.1511 -1.0824 -0.0592
 1923SOL     OW11783   6.113   1.740   5.135  0.2322 -0.2987  0.6253
 1923SOL    HW111784   6.176   1.765   5.061  0.6890  2.0858  1.7382
 1923SOL    HW211785   6.020   1.733   5.098  0.6510 -0.5084 -0.4178
 1924SOL     OW11786   2.187   4.751   4.799 -0.3650 -0.1575 -0.1345
 1924SOL    HW111787   2.177   4.674   4.861  0.0210  1.1424  1.6103
 1924SOL    HW211788   2.282   4.756   4.768 -0.3393 -0.2485 -0.0714
 1925SOL     OW11789   6.238   5.219   5.998  0.4295  0.8341 -0.4343
 1925SOL    HW111790   6.274   5.310   6.019  2.8444 -0.2790  0.6198
 1925SOL    HW211791   6.179   5.188   6.072  1.0216  0.8530  0.0501
 1926SOL     OW11792   2.626   5.808   2.221 -0.0809 -0.1926  0.1790
 1926SOL    HW111793   2.566   5.866   2.276 -0.0251  0.2613 -0.2311
 1926SOL    HW211794   2.637   5.719   2.266 -0.9175 -0.2161  0.3445
 1927SOL     OW11795   1.805   2.171   1.065 -0.5554 -0.3767 -0.0810
 1927SOL    HW111796   1.874   2.176   1.136 -0.0031  1.2295 -0.6776
 1927SOL    HW211797   1.843   2.127   0.983 -0.6224 -0.5757 -0.0062
 1928SOL     OW11798   0.382   1.437   0.198  1.1422  0.0142  0.7133
 1928SOL    HW111799   0.377   1.459   0.296  2.5008  0.2526  0.7580
 1928SOL    HW211800   0.386   1.522   0.145 -1.8954 -0.0351  0.2216
 1929SOL     OW11801   0.439   3.226   5.115  0.1549  0.0225 -0.4123
 1929SOL    HW111802   0.503   3.265   5.049 -0.7087  1.3565 -0.5158
 1929SOL    HW211803   0.351   3.211   5.070  0.4437 -2.0925 -0.3599
 1930SOL     OW11804   6.199   5.967   5.809  0.1276  0.2088  0.0303
 1930SOL    HW111805   6.220   5.894   5.874  2.2051  1.2004  0.5724
 1930SOL    HW211806   6.177   5.927   5.720 -0.6171 -1.1076  0.7791
 1931SOL     OW11807   0.239   4.480   1.639  0.5471 -0.6044 -0.1882
 1931SOL    HW111808   0.324   4.490   1.588 -0.0756 -2.1925 -1.6212
 1931SOL    HW211809   0.231   4.555   1.704  2.0058  0.7920 -1.5145
 1932SOL     OW11810   5.257   3.960   0.912  0.9595  0.6225  0.0109
 1932SOL    HW111811   5.350   3.982   0.882 -0.2061  2.2080 -2.8281
 1932SOL    HW211812   5.211   4.043   0.944  0.2995 -0.0443  0.8519
 1933SOL     OW11813   5.785   3.859   0.683 -0.2835 -0.3676 -0.8112
 1933SOL    HW111814   5.870   3.900   0.717 -1.5445 -0.5014  2.9386
 1933SOL    HW211815   5.713   3.928   0.682 -1.2233 -1.2809  0.6928
 1934SOL     OW11816   0.423   5.922   4.915 -0.5278 -0.0851 -0.3413
 1934SOL    HW111817   0.479   5.959   4.841 -0.9534  0.1614 -0.5456
 1934SOL    HW211818   0.482   5.880   4.984 -0.1369 -0.5111 -0.9241
 1935SOL     OW11819   4.381   5.593   5.136  0.0979  0.4178 -0.0661
 1935SOL    HW111820   4.293   5.623   5.098 -0.5417 -1.3179 -0.0636
 1935SOL    HW211821   4.452   5.598   5.066 -0.3370  0.4372 -0.5068
 1936SOL     OW11822   0.195   1.438   6.434  0.2085 -0.7093 -0.2426
 1936SOL    HW111823   0.215   1.528   6.474  1.3972 -0.9103 -0.3338
 1936SOL    HW211824   0.252   1.425   6.353 -1.0280 -0.9622 -1.0886
 1937SOL     OW11825   2.407   3.251   1.079  0.0590  0.0258  0.3300
 1937SOL    HW111826   2.496   3.233   1.123  0.2287 -0.3653 -0.1679
 1937SOL    HW211827   2.394   3.187   1.004 -0.0033  1.0109 -0.5238
 1938SOL     OW11828   3.666   5.253   5.382 -0.5141 -0.4683 -0.2561
 1938SOL    HW111829   3.575   5.249   5.341 -0.2443 -0.8508 -0.8212
 1938SOL    HW211830   3.723   5.317   5.330 -1.1990  1.8060  1.5954
 1939SOL     OW11831   1.348   2.532   6.430  0.3134  0.0912  0.3206
 1939SOL    HW111832   1.425   2.546   6.367 -0.1381 -0.9564 -0.4984
 1939SOL    HW211833   1.367   2.452   6.488 -1.0266 -1.5007 -1.3379
 1940SOL     OW11834   2.210   3.353   0.230 -0.2294  0.3978  0.3755
 1940SOL    HW111835   2.195   3.266   0.183 -0.3964  0.4208  0.3878
 1940SOL    HW211836   2.299   3.350   0.276 -0.0500  0.3881  0.0317
 1941SOL     OW11837   3.912   3.320   4.815  0.2504 -0.5905 -0.5302
 1941SOL    HW111838   3.995   3.264   4.812 -0.0168 -1.2204  1.8261
 1941SOL    HW211839   3.832   3.260   4.821 -0.2742  0.0437 -0.9539
 1942SOL     OW11840   0.666   6.356   6.506 -0.0606 -0.2056  0.2588
 1942SOL    HW111841   0.698   6.395   6.420  1.2263  1.1285  1.2916
 1942SOL    HW211842   0.698   6.412   6.583 -2.1072 -0.6999  1.5752
 1943SOL     OW11843   4.992   5.690   5.606 -0.1940  0.1191 -0.5619
 1943SOL    HW111844   5.054   5.667   5.681 -0.8584 -0.0933 -0.0673
 1943SOL    HW211845   4.935   5.611   5.584 -0.8031  0.5322 -0.5053
 1944SOL     OW11846   0.880   2.921   5.622 -0.2230 -0.4138  0.0423
 1944SOL    HW111847   0.889   2.950   5.717 -1.1217  2.6787 -0.6944
 1944SOL    HW211848   0.947   2.850   5.602  0.4896 -0.6173  2.7403
 1945SOL     OW11849   0.069   5.199   6.394 -0.1511  0.3079 -0.0145
 1945SOL    HW111850   0.045   5.292   6.366 -0.5043 -0.1452 -1.2600
 1945SOL    HW211851   0.152   5.170   6.346 -0.1246 -0.0805  0.2620
 1946SOL     OW11852   3.085   4.696   1.644 -0.5642  0.2282 -0.2748
 1946SOL    HW111853   3.168   4.697   1.701  0.2540  0.5431 -1.4395
 1946SOL    HW211854   3.048   4.603   1.642 -0.0536  0.0136 -0.0080
 1947SOL     OW11855   0.360   6.046   1.362  0.9639  0.3116 -0.5461
 1947SOL    HW111856   0.427   6.110   1.400  1.3052 -0.3695  0.0099
 1947SOL    HW211857   0.381   5.953   1.392  1.3842 -0.3154 -2.5630
 1948SOL     OW11858   1.893   5.396   5.462  0.1677  0.3883 -0.3517
 1948SOL    HW111859   1.976   5.437   5.423  0.1802  1.2542  0.5516
 1948SOL    HW211860   1.916   5.310   5.508  0.1705 -0.5984 -2.1088
 1949SOL     OW11861   4.317   1.271   0.587 -0.3011  0.1657  0.5993
 1949SOL    HW111862   4.395   1.331   0.602 -0.1927  0.8765 -2.2096
 1949SOL    HW211863   4.233   1.325   0.576 -0.4208 -0.2354 -0.6863
 1950SOL     OW11864   2.283   0.017   6.406  0.5207 -0.3954  0.3462
 1950SOL    HW111865   2.186   0.040   6.406  0.0699 -2.1178  0.8799
 1950SOL    HW211866   2.308  -0.022   6.495  1.5702 -0.4659  0.0327
 1951SOL     OW11867   1.636   1.426   0.384  0.4071  0.2166  0.4180
 1951SOL    HW111868   1.695   1.450   0.306  0.9030 -0.3669  0.6060
 1951SOL    HW211869   1.636   1.502   0.449  1.4526  0.0038  0.6999
 1952SOL     OW11870   3.123   2.440   6.396 -0.4166 -0.1553  0.4261
 1952SOL    HW111871   3.138   2.385   6.478  2.8342  0.9460  0.7222
 1952SOL    HW211872   3.092   2.381   6.321 -0.0063 -1.8195  1.5074
 1953SOL     OW11873   1.213   4.450   6.023  0.1885  0.0073 -0.6067
 1953SOL    HW111874   1.310   4.445   6.048  0.4272  0.7363 -1.3318
 1953SOL    HW211875   1.157   4.426   6.102  0.9555 -0.0525 -0.0686
 1954SOL     OW11876   0.546   1.230   0.307 -0.0990  0.2083  0.1259
 1954SOL    HW111877   0.524   1.152   0.248  1.4686 -0.4344  0.3277
 1954SOL    HW211878   0.510   1.314   0.266 -2.3296 -0.6580  0.1988
 1955SOL     OW11879   0.306   3.009   5.470  0.6552 -0.4181 -0.6554
 1955SOL    HW111880   0.339   3.102   5.454  1.6517 -0.6914 -0.2746
 1955SOL    HW211881   0.364   2.944   5.421 -1.2870 -0.7569 -2.6767
 1956SOL     OW11882   0.006   1.712   5.605  0.0280  0.1586  0.1640
 1956SOL    HW111883  -0.082   1.666   5.615  0.7323 -1.0814  1.0113
 1956SOL    HW211884   0.077   1.658   5.650  0.9532  1.9760  1.0166
 1957SOL     OW11885   4.454   3.405   0.896 -0.3727  0.1259 -0.1362
 1957SOL    HW111886   4.403   3.411   0.981  0.7697  0.0505  0.5750
 1957SOL    HW211887   4.423   3.477   0.833 -1.5522 -0.1219  0.1433
 1958SOL     OW11888   4.340   3.247   0.666  0.3784  0.3297 -0.0839
 1958SOL    HW111889   4.332   3.261   0.765  1.1344 -3.0732  0.6196
 1958SOL    HW211890   4.433   3.216   0.645 -0.3874 -1.1925 -1.4517
 1959SOL     OW11891   2.947   5.351   1.254  0.2542  0.5853  0.6315
 1959SOL    HW111892   2.857   5.354   1.297  0.5404  0.4749  1.2584
 1959SOL    HW211893   3.009   5.294   1.310  0.4019 -0.2869 -0.3926
 1960SOL     OW11894   2.260   4.040   0.283 -0.9938 -0.3817 -0.7047
 1960SOL    HW111895   2.160   4.039   0.287 -0.9672 -0.5466  0.1592
 1960SOL    HW211896   2.293   4.129   0.315 -0.8708 -0.1211 -1.5225
 1961SOL     OW11897   4.530   3.602   6.080  0.1910  0.0736 -0.4237
 1961SOL    HW111898   4.527   3.548   5.996 -0.4461 -1.3057  0.4547
 1961SOL    HW211899   4.482   3.689   6.065  0.9420  0.2850 -1.7621
 1962SOL     OW11900   5.424   5.605   0.075  0.2688  0.0244  0.4608
 1962SOL    HW111901   5.423   5.594   0.174  0.3461 -1.0960  0.3454
 1962SOL    HW211902   5.441   5.517   0.031  1.6641  0.7346 -0.5223
 1963SOL     OW11903   6.325   5.092   0.094 -0.0458  0.0325  0.3288
 1963SOL    HW111904   6.244   5.036   0.078  1.8879 -2.4704 -1.4170
 1963SOL    HW211905   6.354   5.134   0.008  1.3851 -0.3855  0.5896
 1964SOL     OW11906   2.998   2.644   0.647 -0.3317  0.2167 -0.4077
 1964SOL    HW111907   3.068   2.574   0.664 -1.3505 -1.1095 -1.4079
 1964SOL    HW211908   3.031   2.733   0.678  1.8132 -0.3424 -0.9175
 1965SOL     OW11909   2.780   5.445   0.123 -0.1148 -0.2563  0.5260
 1965SOL    HW111910   2.798   5.466   0.219  0.5920  1.1822  0.1213
 1965SOL    HW211911   2.696   5.392   0.115 -1.0473  0.9576  1.8365
 1966SOL     OW11912   4.940   1.246   6.437  0.1022  0.0233 -0.6229
 1966SOL    HW111913   4.847   1.211   6.434 -0.4430  1.3559  0.0991
 1966SOL    HW211914   4.999   1.179   6.484 -0.8690 -0.0315  0.5640
 1967SOL     OW11915   3.477   3.328   1.203  0.8008 -0.3298  0.7034
 1967SOL    HW111916   3.407   3.279   1.151  0.2665 -1.3255  2.2902
 1967SOL    HW211917   3.516   3.401   1.146  0.8480 -1.8651 -1.3587
 1968SOL     OW11918   0.660   0.685   5.239 -0.2109 -0.1646 -0.2706
 1968SOL    HW111919   0.735   0.620   5.231  0.8591  1.1328 -1.3709
 1968SOL    HW211920   0.685   0.770   5.193 -1.7494  0.8624  0.6926
 1969SOL     OW11921   2.303   1.755   5.837 -0.3814  0.2974 -0.4129
 1969SOL    HW111922   2.323   1.843   5.794 -2.1869 -1.0370 -4.4729
 1969SOL    HW211923   2.210   1.758   5.876  0.1423  0.5767  0.8808
 1970SOL     OW11924   3.442   6.270   5.690 -0.3808  0.2790  0.7584
 1970SOL    HW111925   3.467   6.190   5.636 -3.0047 -1.2628  1.6667
 1970SOL    HW211926   3.457   6.353   5.635  1.9395 -0.7925 -0.3795
 1971SOL     OW11927   0.311   1.097   6.343 -0.1706 -0.5696  0.1538
 1971SOL    HW111928   0.410   1.095   6.327 -0.2088 -3.3406 -0.1911
 1971SOL    HW211929   0.292   1.071   6.438 -0.5976 -0.3954  0.1180
 1972SOL     OW11930   4.639   3.187   0.905 -0.4508 -0.2011 -0.5107
 1972SOL    HW111931   4.591   3.273   0.888 -2.0131 -0.3400  2.4820
 1972SOL    HW211932   4.595   3.139   0.981  2.7633 -1.7331  0.5761
 1973SOL     OW11933   5.656   4.203   5.121 -0.2824 -0.3867 -0.1506
 1973SOL    HW111934   5.585   4.258   5.078 -1.4781 -0.4494  1.6748
 1973SOL    HW211935   5.643   4.107   5.095 -1.4033 -0.5180  0.8469
 1974SOL     OW11936   5.647   2.314   6.491  0.4256  0.2127  0.3020
 1974SOL    HW111937   5.741   2.332   6.462  0.4996  0.0325  0.4261
 1974SOL    HW211938   5.588   2.310   6.411  0.6363 -0.3393  0.1703
 1975SOL     OW11939   1.702   1.248   4.013 -0.0079 -0.0400 -0.1745
 1975SOL    HW111940   1.718   1.190   3.933 -1.3933  0.6470 -0.9837
 1975SOL    HW211941   1.617   1.220   4.058  0.2900  0.1669  0.5329
 1976SOL     OW11942   0.492   2.049   0.811  1.0504 -0.0078  0.0708
 1976SOL    HW111943   0.423   1.977   0.810  0.0570  0.9084  0.4090
 1976SOL    HW211944   0.502   2.085   0.904  0.6877  1.0590 -0.2870
 1977SOL     OW11945   2.094   1.133   0.459 -0.1041  0.3421 -0.6675
 1977SOL    HW111946   2.154   1.161   0.534  1.2052 -2.1528 -0.6768
 1977SOL    HW211947   2.127   1.173   0.373  0.8532 -0.0664 -0.4993
 1978SOL     OW11948   3.882   3.836   2.243 -0.3357  0.6185 -0.5083
 1978SOL    HW111949   3.868   3.866   2.148 -0.4602  1.2796 -0.2792
 1978SOL    HW211950   3.977   3.805   2.254  0.0558  1.7644 -0.5218
 1979SOL     OW11951   2.128   2.888   1.352 -0.7362  0.5159  0.2829
 1979SOL    HW111952   2.079   2.929   1.275  0.0957 -0.7191 -0.9481
 1979SOL    HW211953   2.076   2.810   1.388 -0.0122 -0.4199 -0.6343
 1980SOL     OW11954   6.222   1.138   6.056  0.1572  0.5209  0.4439
 1980SOL    HW111955   6.145   1.075   6.060  0.8495 -0.4166 -0.4604
 1980SOL    HW211956   6.283   1.121   6.134  0.8043 -0.5770 -0.2770
 1981SOL     OW11957   1.371   0.819   0.159  0.1107  0.0665 -0.4334
 1981SOL    HW111958   1.310   0.794   0.083 -0.4159  1.7162 -0.6046
 1981SOL    HW211959   1.316   0.841   0.240  0.6532 -1.2356  0.3154
 1982SOL     OW11960   4.497   6.081   1.084 -0.0987  0.4009 -0.1416
 1982SOL    HW111961   4.495   6.120   0.992 -1.0311 -0.3891 -0.4766
 1982SOL    HW211962   4.592   6.060   1.109  0.4323  2.7176  0.0250
 1983SOL     OW11963   0.598   4.713   5.946 -0.0805 -0.1903 -0.0075
 1983SOL    HW111964   0.618   4.677   5.855 -0.2306 -1.4371  0.4301
 1983SOL    HW211965   0.576   4.638   6.007  1.4714  0.4572  1.4484
 1984SOL     OW11966   1.421   0.533   1.098  0.5962  0.1618  0.3422
 1984SOL    HW111967   1.351   0.602   1.082  1.4971  1.1184  0.3790
 1984SOL    HW211968   1.502   0.554   1.043  0.4852 -1.5093 -0.4990
 1985SOL     OW11969   0.476   1.828   0.181  0.5034  0.1946 -0.0072
 1985SOL    HW111970   0.532   1.905   0.150  1.7381 -0.8217 -0.4410
 1985SOL    HW211971   0.517   1.789   0.264  0.1679 -0.2763 -0.0597
 1986SOL     OW11972   5.642   1.359   0.471 -0.5058  0.6345 -0.1422
 1986SOL    HW111973   5.572   1.414   0.425 -0.4727 -1.0352 -2.3417
 1986SOL    HW211974   5.602   1.313   0.550 -1.6281  0.5242 -0.7582
 1987SOL     OW11975   0.537   2.304   0.628 -0.2337 -0.1996  0.2291
 1987SOL    HW111976   0.574   2.219   0.590 -0.9234 -0.0612 -0.7960
 1987SOL    HW211977   0.441   2.313   0.601 -0.5131  0.3255  1.3399
 1988SOL     OW11978   3.907   0.072   5.488  0.1120  0.4923  0.3501
 1988SOL    HW111979   4.001   0.046   5.510 -0.3715 -0.5743  1.2613
 1988SOL    HW211980   3.848   0.053   5.567 -1.1151 -0.1909 -0.6953
 1989SOL     OW11981   5.769   0.329   5.291 -0.1853 -0.2814  0.3562
 1989SOL    HW111982   5.836   0.256   5.301 -0.1078 -0.4984 -1.4799
 1989SOL    HW211983   5.712   0.311   5.211 -1.1298  0.9305  0.7277
 1990SOL     OW11984   3.271   3.963   0.314 -0.1749  0.0472  0.3785
 1990SOL    HW111985   3.180   3.999   0.334  0.3025  0.9708  0.9356
 1990SOL    HW211986   3.340   4.021   0.356  0.6573 -0.9967  0.4849
 1991SOL     OW11987   1.951   6.070   0.076  0.0590 -0.2701 -0.4112
 1991SOL    HW111988   1.914   6.013   0.150 -0.3026  1.1184  0.5141
 1991SOL    HW211989   1.959   6.015  -0.007 -1.7287 -1.2870  0.0266
 1992SOL     OW11990   0.644   1.106   1.250  0.2287 -0.7419  0.7402
 1992SOL    HW111991   0.586   1.036   1.291 -0.5467 -0.1472  0.6944
 1992SOL    HW211992   0.692   1.156   1.322 -1.3385  0.4814  0.9882
 1993SOL     OW11993   3.158   0.373   1.649  0.2100 -0.0673  0.0575
 1993SOL    HW111994   3.058   0.375   1.653  0.2614  0.8377  1.3114
 1993SOL    HW211995   3.188   0.281   1.624 -0.9130 -0.4485  0.0218
 1994SOL     OW11996   5.156   1.117   1.015 -0.1412  0.2290  0.0596
 1994SOL    HW111997   5.225   1.140   0.947 -0.0051 -0.0147  0.1124
 1994SOL    HW211998   5.125   1.022   1.000  0.3493 -0.0419  0.7200
 1995SOL     OW11999   4.645   1.382   0.469 -0.0445  0.1532  0.3181
 1995SOL    HW112000   4.737   1.418   0.452  0.8724 -2.2152 -0.1803
 1995SOL    HW212001   4.588   1.398   0.389 -0.0303  1.4623  0.5493
 1996SOL     OW12002   0.267   2.869   0.260  0.0823 -0.4379 -0.1702
 1996SOL    HW112003   0.319   2.922   0.193 -1.0464  0.1112 -0.6471
 1996SOL    HW212004   0.229   2.931   0.329 -0.5428 -0.7258 -0.2473
 1997SOL     OW12005   4.389   0.075   0.660 -0.1097 -0.2796 -0.4246
 1997SOL    HW112006   4.316   0.008   0.647 -0.9632  0.8244 -1.4859
 1997SOL    HW212007   4.353   0.152   0.712  0.0158  0.6989 -1.7529
 1998SOL     OW12008   0.405   2.919   5.728 -0.0454  0.0578  0.8410
 1998SOL    HW112009   0.406   2.987   5.800  2.4845  1.8652 -0.7238
 1998SOL    HW212010   0.364   2.958   5.645  3.2666  0.6268 -0.7143
 1999SOL     OW12011   1.314   1.071   0.803  0.0593  0.9629  0.6668
 1999SOL    HW112012   1.229   1.108   0.839 -0.9963 -1.0984  0.4515
 1999SOL    HW212013   1.340   1.121   0.720 -0.5921  2.0008  1.0722
 2000SOL     OW12014   1.476   0.366   5.820 -0.3716  0.5461 -0.1199
 2000SOL    HW112015   1.481   0.427   5.741 -0.9997  0.5418 -0.1629
 2000SOL    HW212016   1.411   0.292   5.802  1.5387 -1.0722 -0.6951
 2001SOL     OW12017   2.034   5.725   5.261  0.1474 -0.5631  0.6328
 2001SOL    HW112018   2.006   5.723   5.357 -1.1727 -1.0026  0.2612
 2001SOL    HW212019   2.078   5.638   5.238 -0.3740 -0.8254  0.6106
 2002SOL     OW12020   2.786   5.095   0.029 -0.0301  0.2853  0.1137
 2002SOL    HW112021   2.705   5.039   0.008 -0.9117  1.1606  1.0419
 2002SOL    HW212022   2.846   5.097  -0.051 -0.6904 -0.7713 -0.4413
 2003SOL     OW12023   2.415   6.245   5.654 -0.8734  0.6054  0.0747
 2003SOL    HW112024   2.489   6.264   5.718  0.0786 -2.5154  0.0320
 2003SOL    HW212025   2.413   6.315   5.583  3.3179 -0.1376 -1.0036
 2004SOL     OW12026   4.128   4.010   0.255 -0.1275 -0.6842  0.1472
 2004SOL    HW112027   4.127   3.934   0.189 -3.3252 -1.5292  0.9987
 2004SOL    HW212028   4.155   3.976   0.345 -3.3028 -1.4172  0.9646
 2005SOL     OW12029   0.792   2.230   6.216  0.2772  0.2870 -0.3618
 2005SOL    HW112030   0.736   2.306   6.247 -0.6166 -0.3566 -0.3387
 2005SOL    HW212031   0.809   2.239   6.118  2.3163  1.8273  0.0810
 2006SOL     OW12032   1.703   2.085   6.425  0.0722  0.1054  0.0194
 2006SOL    HW112033   1.666   2.171   6.390 -1.8061  0.7699  3.2786
 2006SOL    HW212034   1.664   2.009   6.374 -2.1581  1.0231  0.2731
 2007SOL     OW12035   3.155   0.564   1.052 -0.5494  0.2562 -0.6358
 2007SOL    HW112036   3.191   0.496   1.115 -0.5051  0.2395 -0.6797
 2007SOL    HW212037   3.111   0.519   0.975  2.2600  0.2216 -2.3357
 2008SOL     OW12038   2.269   2.033   0.870 -0.1078  0.3135  0.1893
 2008SOL    HW112039   2.318   2.078   0.944 -0.7240  0.1719  0.6870
 2008SOL    HW212040   2.224   2.102   0.813 -1.4254  0.3247  1.2132
 2009SOL     OW12041   3.158   3.599   5.829  0.0349  0.0595  0.1681
 2009SOL    HW112042   3.149   3.508   5.869 -0.9293 -0.4941 -1.2279
 2009SOL    HW212043   3.115   3.667   5.888  0.8764 -0.3498  1.2807
 2010SOL     OW12044   1.258   6.167   5.580  0.2025 -0.0843 -0.3506
 2010SOL    HW112045   1.341   6.127   5.619  1.1283  1.8569 -0.1992
 2010SOL    HW212046   1.179   6.141   5.636  0.7975 -1.2977 -0.0331
 2011SOL     OW12047   2.829   5.097   5.872 -0.3568  0.5341 -0.1123
 2011SOL    HW112048   2.902   5.153   5.911  1.8934 -1.8993 -0.6340
 2011SOL    HW212049   2.815   5.123   5.777  2.8686 -1.6457 -1.3343
 2012SOL     OW12050   4.176   5.937   1.342  0.6261  0.1375 -0.6935
 2012SOL    HW112051   4.201   5.878   1.419 -0.5217 -1.3334 -1.3809
 2012SOL    HW212052   4.199   5.891   1.256  1.5514  1.5968 -1.2572
 2013SOL     OW12053   4.582   2.008   0.827  0.7616 -0.1495 -0.4299
 2013SOL    HW112054   4.663   1.950   0.828  1.3436  0.5759  2.5970
 2013SOL    HW212055   4.562   2.035   0.732  5.1203  1.1530 -1.1851
 2014SOL     OW12056   3.268   6.373   0.432 -0.0302 -0.4313  0.4140
 2014SOL    HW112057   3.180   6.330   0.455 -0.3728 -0.1207 -0.2885
 2014SOL    HW212058   3.342   6.315   0.465 -0.4827 -0.2309  1.8871
 2015SOL     OW12059   3.793   5.380   1.248  0.4865 -0.3086 -0.5321
 2015SOL    HW112060   3.850   5.456   1.215 -1.3316  1.9040  1.0693
 2015SOL    HW212061   3.798   5.377   1.348 -0.5170 -1.4964 -0.5010
 2016SOL     OW12062   5.088   5.439   0.802 -0.7552 -0.0036 -0.3220
 2016SOL    HW112063   5.014   5.473   0.746 -0.3074 -1.2757 -1.7544
 2016SOL    HW212064   5.069   5.344   0.830  0.6532 -0.6441 -1.4028
 2017SOL     OW12065   2.613   1.327   6.312  0.3989  0.3958 -0.2558
 2017SOL    HW112066   2.655   1.323   6.221  0.3236 -0.4197 -0.2631
 2017SOL    HW212067   2.582   1.235   6.338  1.6148  0.3494  1.1574
 2018SOL     OW12068   3.475   0.968   6.312 -0.5233  0.0919 -0.3876
 2018SOL    HW112069   3.419   1.026   6.371 -0.9824 -0.0526 -0.6836
 2018SOL    HW212070   3.429   0.952   6.225 -0.0652 -0.1020 -0.6020
 2019SOL     OW12071   0.652   4.925   5.186  0.1905  0.3574 -0.8170
 2019SOL    HW112072   0.631   5.018   5.156  2.2947  0.8319 -0.9954
 2019SOL    HW212073   0.590   4.860   5.141  0.3440  1.4552 -2.7051
 2020SOL     OW12074   3.490   1.605   5.977  0.1153  0.4934 -0.1914
 2020SOL    HW112075   3.440   1.541   6.035 -0.0781  0.5687 -0.2736
 2020SOL    HW212076   3.491   1.695   6.019  2.0050  0.0478  0.8653
 2021SOL     OW12077   4.037   5.460   5.564  0.1406  0.4264  0.1964
 2021SOL    HW112078   4.083   5.548   5.558  0.7874 -0.0337 -3.0206
 2021SOL    HW212079   4.105   5.387   5.568 -0.3980 -0.0571  1.2778
 2022SOL     OW12080   1.960   5.578   1.039 -0.6658 -0.3724 -0.1267
 2022SOL    HW112081   2.051   5.593   1.003 -0.7413  0.1929 -0.0811
 2022SOL    HW212082   1.892   5.593   0.968 -0.7429 -0.4574 -0.0719
 2023SOL     OW12083   4.513   1.468   0.694  0.1845 -0.2448  0.8124
 2023SOL    HW112084   4.558   1.407   0.759 -2.5298 -3.0461  0.2691
 2023SOL    HW212085   4.561   1.463   0.606  1.4277  0.3746  1.4265
 2024SOL     OW12086   0.033   3.829   5.643  0.1366 -0.0868 -0.9878
 2024SOL    HW112087   0.076   3.754   5.692 -2.9713 -0.2007  1.8685
 2024SOL    HW212088  -0.031   3.793   5.575 -0.5867 -0.0200 -0.3457
 2025SOL     OW12089   5.850   2.332   5.099  0.6179 -0.6779  0.1236
 2025SOL    HW112090   5.871   2.298   5.008 -0.2177  1.7612 -1.0528
 2025SOL    HW212091   5.892   2.422   5.112  0.3302 -0.7609  1.9875
 2026SOL     OW12092   1.290   4.912   0.990 -0.5548 -0.2572 -0.1631
 2026SOL    HW112093   1.372   4.902   1.047 -1.3836 -0.5359  1.0200
 2026SOL    HW212094   1.212   4.935   1.048 -1.4594 -0.6756 -1.1835
 2027SOL     OW12095   5.126   0.264   0.404  0.0623 -0.4943  0.0614
 2027SOL    HW112096   5.083   0.184   0.445  0.0112 -0.2204  0.5510
 2027SOL    HW212097   5.100   0.270   0.307  0.0894 -1.0778  0.0120
 2028SOL     OW12098   2.696   6.191   0.469  0.0487  0.5321 -0.6322
 2028SOL    HW112099   2.715   6.177   0.371  0.0128  0.7730 -0.6748
 2028SOL    HW212100   2.624   6.129   0.498 -0.1545  0.6724 -0.8322
 2029SOL     OW12101   0.780   3.291   0.141  0.0238  0.0234  0.0719
 2029SOL    HW112102   0.835   3.368   0.108  0.2806  0.1807  0.8510
 2029SOL    HW212103   0.699   3.325   0.188  0.6154 -0.1593  1.2374
 2030SOL     OW12104   3.719   3.625   0.496  0.1466 -0.4907  0.2113
 2030SOL    HW112105   3.699   3.601   0.401 -1.5166 -0.5305  0.5327
 2030SOL    HW212106   3.692   3.719   0.513  0.6341 -0.4153  0.6033
 2031SOL     OW12107   3.518   3.913   0.187  0.0978  0.1260  0.6500
 2031SOL    HW112108   3.502   3.917   0.089  1.7055  0.8259  0.3810
 2031SOL    HW212109   3.430   3.916   0.235 -0.6719  1.8113 -0.7200
 2032SOL     OW12110   3.525   6.245   0.498  0.5996  0.3168 -0.6099
 2032SOL    HW112111   3.599   6.289   0.448 -0.2653  1.2013 -1.1549
 2032SOL    HW212112   3.536   6.146   0.495  1.8880  0.4374 -0.4487
 2033SOL     OW12113   0.769   2.463   0.267  0.5726 -0.1962 -0.0095
 2033SOL    HW112114   0.783   2.496   0.174  0.4024 -0.9287 -0.3028
 2033SOL    HW212115   0.677   2.486   0.298  0.8428  0.6142  0.2277
 2034SOL     OW12116   3.540   2.096   0.963  0.1650 -0.3231 -0.1565
 2034SOL    HW112117   3.637   2.111   0.982  0.2114 -0.5950 -0.1776
 2034SOL    HW212118   3.497   2.049   1.041  0.5237 -2.1391 -0.9955
 2035SOL     OW12119   0.583   4.738   6.427 -0.1304  0.6538  0.0918
 2035SOL    HW112120   0.571   4.642   6.452 -1.0766  0.8774  0.5472
 2035SOL    HW212121   0.496   4.775   6.393  0.7603  0.7688 -2.2063
 2036SOL     OW12122   5.388   4.505   6.102 -0.7195  0.4345 -0.2945
 2036SOL    HW112123   5.420   4.477   6.011  3.2417 -2.6113  1.7253
 2036SOL    HW212124   5.332   4.433   6.141  2.0755 -0.9133  1.5455
 2037SOL     OW12125   5.416   0.280   0.631  0.4030  0.1569  0.2783
 2037SOL    HW112126   5.508   0.320   0.621  1.0483 -1.6522 -2.1337
 2037SOL    HW212127   5.349   0.353   0.637  1.7578  1.6380 -1.2569
 2038SOL     OW12128   1.390   2.959   0.674 -0.1134  0.6448  0.4519
 2038SOL    HW112129   1.374   2.995   0.766  0.0236  1.0888  0.3022
 2038SOL    HW212130   1.324   3.000   0.610 -0.5402 -0.0434  0.4413
 2039SOL     OW12131   1.653   2.663   5.627 -0.1184  0.0972 -0.1367
 2039SOL    HW112132   1.557   2.667   5.600  0.0455  2.0826 -0.5439
 2039SOL    HW212133   1.659   2.648   5.726 -0.8762  0.9171  0.0478
 2040SOL     OW12134   1.954   0.686   6.160 -0.5386 -0.2887  0.9729
 2040SOL    HW112135   2.042   0.673   6.205 -1.1414  1.0384  2.6280
 2040SOL    HW212136   1.904   0.761   6.204 -1.8530  0.0295 -0.9224
 2041SOL     OW12137   4.107   6.180   0.332 -0.0155 -0.2408  0.6505
 2041SOL    HW112138   4.046   6.156   0.256 -0.7877  0.4779  1.0180
 2041SOL    HW212139   4.075   6.135   0.416 -1.7345  2.2231  1.4413
 2042SOL     OW12140   3.696   2.049   1.262 -0.6662 -0.2143 -0.8844
 2042SOL    HW112141   3.746   2.050   1.176 -0.9272 -0.2858 -1.0354
 2042SOL    HW212142   3.761   2.039   1.338 -0.2370  1.8061 -0.9355
 2043SOL     OW12143   6.027   3.558   0.567  0.2456 -0.6140  0.1584
 2043SOL    HW112144   5.974   3.516   0.493 -1.0676  1.1404  0.0432
 2043SOL    HW212145   5.966   3.579   0.644  1.0960 -0.0520  0.6889
 2044SOL     OW12146   4.074   3.241   6.384  0.5791  0.1439 -0.5804
 2044SOL    HW112147   3.983   3.251   6.345  1.4330  1.2421 -2.4654
 2044SOL    HW212148   4.105   3.147   6.372  0.2005  0.0867 -1.1615
 2045SOL     OW12149   5.313   0.838   0.235 -0.4012 -1.2329  0.0550
 2045SOL    HW112150   5.340   0.792   0.320 -1.0606 -0.3339  0.7691
 2045SOL    HW212151   5.214   0.849   0.234 -0.3970 -1.2191 -0.8399
 2046SOL     OW12152   3.692   3.505   6.277  0.5081  0.1776 -0.8008
 2046SOL    HW112153   3.623   3.499   6.204  1.9005  1.0206 -2.2498
 2046SOL    HW212154   3.654   3.557   6.354  0.0972  2.2327 -2.3206
 2047SOL     OW12155   2.984   2.661   0.356 -0.7249 -0.8280  0.0615
 2047SOL    HW112156   2.991   2.569   0.318  0.9386 -1.0318  0.7877
 2047SOL    HW212157   2.971   2.656   0.455 -1.5059 -0.2697  0.0031
 2048SOL     OW12158   2.660   0.309   5.567  0.1628  0.4807  0.1194
 2048SOL    HW112159   2.727   0.287   5.495 -0.0257 -2.3441  0.7208
 2048SOL    HW212160   2.579   0.351   5.525  0.8667  0.7344 -1.0428
 2049SOL     OW12161   2.984   1.767   4.840 -0.2537  0.2844 -0.8323
 2049SOL    HW112162   3.014   1.731   4.752  1.5267  1.5501 -0.7906
 2049SOL    HW212163   2.979   1.693   4.907  0.4411 -0.3433 -1.4599
 2050SOL     OW12164   1.354   4.897   0.596  0.5943  0.5652 -0.2262
 2050SOL    HW112165   1.340   4.973   0.659  0.0563 -1.6653  2.5233
 2050SOL    HW212166   1.272   4.840   0.593  1.9652 -1.5785  0.2677
 2051SOL     OW12167   2.902   2.784   4.262  0.1265 -0.3214  0.4754
 2051SOL    HW112168   2.997   2.777   4.232  0.3511 -1.3981  1.3653
 2051SOL    HW212169   2.894   2.853   4.333 -0.3016  1.8142 -1.5233
 2052SOL     OW12170   0.829   1.282   0.287 -0.0950  0.4005  0.1267
 2052SOL    HW112171   0.848   1.326   0.374 -1.4446  2.5905 -0.6101
 2052SOL    HW212172   0.731   1.277   0.271 -0.1272 -3.7345  0.4649
 2053SOL     OW12173   5.677   5.927   1.051 -0.1794 -0.4516 -0.0600
 2053SOL    HW112174   5.760   5.970   1.086  0.5540  0.3488 -2.5718
 2053SOL    HW212175   5.701   5.845   1.000 -0.4017  1.3989 -3.4778
 2054SOL     OW12176   6.044   2.741   5.764 -0.2457  0.0878 -0.0185
 2054SOL    HW112177   5.968   2.707   5.709 -1.3998  0.3074  1.3593
 2054SOL    HW212178   6.130   2.703   5.731 -0.5084  2.1408 -3.5460
 2055SOL     OW12179   5.723   0.605   6.450  0.1539  0.0225 -0.1577
 2055SOL    HW112180   5.816   0.591   6.416  0.8893  1.6385  1.0674
 2055SOL    HW212181   5.725   0.619   6.549 -1.5017 -0.7491  0.0066
 2056SOL     OW12182   4.170   4.813   0.177 -0.2406  0.0486 -0.5179
 2056SOL    HW112183   4.217   4.852   0.097  2.9186  0.8763  1.5680
 2056SOL    HW212184   4.089   4.868   0.197  1.0842  2.2910 -0.9065
 2057SOL     OW12185   1.399   4.030   6.215  0.6535  0.7083 -0.7191
 2057SOL    HW112186   1.353   3.956   6.166 -0.3137  2.0738 -1.9576
 2057SOL    HW212187   1.341   4.060   6.291 -1.5595  3.5798 -3.2836
 2058SOL     OW12188   2.288   2.700   0.315 -0.0744 -0.3485  0.5577
 2058SOL    HW112189   2.377   2.744   0.325 -0.5003  1.2823 -1.9727
 2058SOL    HW212190   2.218   2.769   0.301 -1.4409 -1.6770  0.5797
 2059SOL     OW12191   1.310   2.897   5.390 -0.1720  0.3776  0.1083
 2059SOL    HW112192   1.326   2.909   5.292 -2.1007  1.8456 -0.0696
 2059SOL    HW212193   1.392   2.924   5.441  0.5743  0.3461 -1.0413
 2060SOL     OW12194   3.912   4.744   1.390 -0.0697  0.4964 -0.1534
 2060SOL    HW112195   3.944   4.666   1.444  0.5981  1.7960  1.3843
 2060SOL    HW212196   3.828   4.781   1.429  0.9268  2.0369  0.6298
 2061SOL     OW12197   1.929   0.325   5.938  0.1509 -0.4510 -0.3623
 2061SOL    HW112198   1.869   0.405   5.945  1.0607  0.1273  1.6512
 2061SOL    HW212199   1.873   0.242   5.930 -0.8708  0.2047 -0.2310
 2062SOL     OW12200   4.017   3.411   5.379  0.3371 -0.0162  0.0667
 2062SOL    HW112201   4.031   3.484   5.446 -0.6586  0.3753 -0.1296
 2062SOL    HW212202   4.048   3.443   5.289  0.5707 -0.1049  0.1149
 2063SOL     OW12203   2.321   0.317   5.418 -0.2015  0.7442 -0.2256
 2063SOL    HW112204   2.259   0.384   5.458  1.7558  2.1857  0.5950
 2063SOL    HW212205   2.335   0.338   5.321  0.3339  1.5061  0.0071
 2064SOL     OW12206   4.831   5.026   1.634  0.2564  0.4556  0.2576
 2064SOL    HW112207   4.829   4.938   1.682 -0.2304  0.3115 -0.0139
 2064SOL    HW212208   4.924   5.062   1.634  0.4314  0.0186  0.5122
 2065SOL     OW12209   0.077   4.635   1.489  0.6109 -0.1163 -0.6067
 2065SOL    HW112210   0.070   4.730   1.520 -0.2972 -0.2806 -0.2570
 2065SOL    HW212211   0.135   4.584   1.553 -1.3535 -0.4823  1.0212
 2066SOL     OW12212   2.717   3.629   5.918  0.0492 -0.2493 -0.3604
 2066SOL    HW112213   2.721   3.611   5.820 -1.7031 -0.9218 -0.3345
 2066SOL    HW212214   2.627   3.667   5.941  0.0453 -1.1048  1.1369
 2067SOL     OW12215   1.004   0.649   5.341  0.4195  0.3095  0.5066
 2067SOL    HW112216   0.989   0.615   5.248 -1.5402  1.5523  0.3127
 2067SOL    HW212217   1.055   0.735   5.336 -0.7026  0.9947  0.4528
 2068SOL     OW12218   3.886   1.055   0.916 -1.0818  0.4653 -0.0495
 2068SOL    HW112219   3.849   0.969   0.880  0.9223  0.5644 -2.6671
 2068SOL    HW212220   3.982   1.064   0.889  0.1325  1.5475  3.9238
 2069SOL     OW12221   5.170   3.271   0.982 -0.0815 -0.3545 -0.4415
 2069SOL    HW112222   5.124   3.356   0.954  0.8593  0.0891 -0.6767
 2069SOL    HW212223   5.199   3.221   0.900 -0.5951 -0.8841 -0.3003
 2070SOL     OW12224   3.883   0.769   6.263  0.0808  0.2623 -0.2316
 2070SOL    HW112225   3.794   0.762   6.308  0.3253  0.3936  0.2769
 2070SOL    HW212226   3.925   0.678   6.259 -1.5016 -0.4700 -3.4686
 2071SOL     OW12227   2.546   4.000   0.183  0.1863 -0.1759  0.3920
 2071SOL    HW112228   2.469   4.008   0.246  0.1760 -3.1215  0.9147
 2071SOL    HW212229   2.516   4.026   0.091 -1.7676 -2.0971  0.4144
 2072SOL     OW12230   0.128   3.637   6.039 -0.0867 -0.4072  0.3454
 2072SOL    HW112231   0.119   3.585   6.125 -1.0695 -3.0257 -1.2216
 2072SOL    HW212232   0.047   3.694   6.026 -0.8625 -1.5109  0.2473
 2073SOL     OW12233   4.225   2.109   5.315  0.3528 -0.4125 -0.1317
 2073SOL    HW112234   4.283   2.046   5.263  0.1389 -1.7837  1.2116
 2073SOL    HW212235   4.186   2.178   5.254  2.6409 -0.0147 -1.2163
 2074SOL     OW12236   4.502   4.862   5.161 -0.1001 -0.1726  0.2475
 2074SOL    HW112237   4.452   4.813   5.089 -0.3858  0.4006  0.0458
 2074SOL    HW212238   4.458   4.951   5.177 -0.7132 -0.7268  1.9046
 2075SOL     OW12239   3.324   3.056   1.291 -0.2410 -0.6293 -0.7411
 2075SOL    HW112240   3.413   3.060   1.246  0.5522 -0.3924  0.7818
 2075SOL    HW212241   3.311   3.138   1.347 -1.5980 -0.4799 -1.2375
 2076SOL     OW12242   2.282   5.117   6.461  0.1028 -0.5642  0.1398
 2076SOL    HW112243   2.324   5.034   6.496  3.1293 -0.1133 -2.0300
 2076SOL    HW212244   2.336   5.196   6.489  1.1308  0.0131 -3.0633
 2077SOL     OW12245   3.664   1.666   6.273  0.2870 -0.3435  0.4110
 2077SOL    HW112246   3.715   1.583   6.250 -1.0971 -0.7618 -1.3560
 2077SOL    HW212247   3.728   1.736   6.306  1.6076 -1.7552  0.9694
 2078SOL     OW12248   2.677   1.959   0.193 -0.2765  0.2571 -0.2361
 2078SOL    HW112249   2.598   2.011   0.225 -1.5029 -1.8930  0.4445
 2078SOL    HW212250   2.651   1.901   0.115  0.9693  0.4268 -0.8210
 2079SOL     OW12251   0.233   2.740   6.355 -0.3536 -0.2311  0.7304
 2079SOL    HW112252   0.191   2.744   6.446 -0.6181 -2.5203  0.7649
 2079SOL    HW212253   0.169   2.774   6.287 -1.9450 -2.6105  0.9214
 2080SOL     OW12254   1.836   0.097   0.308  0.8407  0.2388  0.3002
 2080SOL    HW112255   1.868   0.124   0.398 -0.8234 -0.9306  1.2979
 2080SOL    HW212256   1.836   0.176   0.247  0.7341  1.3511  1.6932
 2081SOL     OW12257   2.293   5.818   5.211 -0.0603  0.1830 -0.2866
 2081SOL    HW112258   2.311   5.836   5.114 -0.5140 -1.0898 -0.6286
 2081SOL    HW212259   2.197   5.795   5.223 -0.2451  1.3684  0.6528
 2082SOL     OW12260   2.412   0.011   0.731 -0.0275  0.4951 -0.5187
 2082SOL    HW112261   2.453  -0.066   0.781 -0.1913  0.5372 -0.3186
 2082SOL    HW212262   2.315   0.019   0.754 -0.7352 -0.9926 -2.6793
 2083SOL     OW12263   4.810   0.709   1.011 -0.4161  0.1513  0.1208
 2083SOL    HW112264   4.752   0.782   1.047  0.8364  0.2323  2.1066
 2083SOL    HW212265   4.906   0.728   1.034  0.0596 -1.5420 -0.3387
 2084SOL     OW12266   3.785   6.382   5.800  0.1738 -0.0408  0.0673
 2084SOL    HW112267   3.796   6.295   5.753  0.3585  0.8268 -1.5679
 2084SOL    HW212268   3.875   6.424   5.814  0.0119  0.4403 -0.2849
 2085SOL     OW12269   6.175   4.672   0.444  0.0676  0.1881  0.3762
 2085SOL    HW112270   6.196   4.578   0.417 -1.5173 -0.0712 -0.0478
 2085SOL    HW212271   6.227   4.735   0.387 -1.7372 -0.3876 -2.0586
 2086SOL     OW12272   1.073   1.590   6.217  0.1475  0.0002  0.5873
 2086SOL    HW112273   0.997   1.553   6.163 -0.5145 -0.0434  1.5241
 2086SOL    HW212274   1.158   1.575   6.167 -0.4942  0.5281 -0.7400
 2087SOL     OW12275   3.463   4.709   5.530  0.1580 -0.2349 -0.0585
 2087SOL    HW112276   3.471   4.763   5.614 -1.3133 -0.9832  0.6087
 2087SOL    HW212277   3.424   4.765   5.458  0.5116  0.1489  0.0484
 2088SOL     OW12278   1.678   4.496   5.833 -0.0854 -0.0255 -0.0556
 2088SOL    HW112279   1.707   4.475   5.740  1.1946 -0.3275  0.3845
 2088SOL    HW212280   1.618   4.576   5.833  0.9070  0.7410 -1.0087
 2089SOL     OW12281   3.288   0.176   5.583  0.1524 -0.5931 -0.3977
 2089SOL    HW112282   3.222   0.104   5.560  0.1190 -0.0985 -1.9369
 2089SOL    HW212283   3.278   0.201   5.679 -0.7484 -1.6998 -0.1854
 2090SOL     OW12284   2.674   2.810   0.410 -0.7606 -0.2535 -0.4360
 2090SOL    HW112285   2.619   2.882   0.451  0.1064  1.3247 -1.8957
 2090SOL    HW212286   2.719   2.756   0.481  0.2096  1.9689  0.7210
 2091SOL     OW12287   0.561   1.825   1.122  0.2104 -0.1139 -0.0258
 2091SOL    HW112288   0.634   1.824   1.189  0.9540 -1.8811 -0.8071
 2091SOL    HW212289   0.527   1.919   1.111  0.7135  0.3504  2.0727
 2092SOL     OW12290   6.242   0.704   0.936  0.5291 -0.5649  0.7605
 2092SOL    HW112291   6.164   0.731   0.992  1.5924  1.9651  1.1413
 2092SOL    HW212292   6.302   0.643   0.988 -0.7949 -2.0135  0.6783
 2093SOL     OW12293   1.524   2.659   5.045  0.2341  0.0253 -0.1186
 2093SOL    HW112294   1.560   2.656   4.952 -0.9980 -2.6744 -0.5991
 2093SOL    HW212295   1.515   2.566   5.081 -0.8338  0.9030  2.1049
 2094SOL     OW12296   5.358   3.403   0.193  0.2827 -0.3755  0.0005
 2094SOL    HW112297   5.382   3.306   0.188  2.3507 -0.0857  2.2787
 2094SOL    HW212298   5.314   3.422   0.281 -1.6094  0.5364 -1.0704
 2095SOL     OW12299   2.380   5.376   0.203 -0.2983 -0.1796 -0.4727
 2095SOL    HW112300   2.330   5.290   0.210  1.0430 -1.0942 -1.7428
 2095SOL    HW212301   2.459   5.365   0.143 -0.4259  2.0944 -1.1698
 2096SOL     OW12302   5.089   4.174   5.323  0.8019 -0.0384  0.6165
 2096SOL    HW112303   5.147   4.115   5.380  1.2404  0.1684  0.3892
 2096SOL    HW212304   4.993   4.150   5.337  0.8340  0.6209  2.1513
 2097SOL     OW12305   3.725   0.032   0.406  0.6919  0.6406 -0.1056
 2097SOL    HW112306   3.822   0.036   0.380  0.2613  0.4794 -1.8949
 2097SOL    HW212307   3.669   0.020   0.324 -0.7764 -0.5864  1.0119
 2098SOL     OW12308   0.970   2.074   0.503 -0.2433  0.7018 -0.5179
 2098SOL    HW112309   0.999   2.133   0.578 -0.5371  1.3104 -0.8647
 2098SOL    HW212310   0.943   2.131   0.425 -0.6192  0.1057 -0.8334
 2099SOL     OW12311   2.908   0.106   4.317 -0.1611  0.0991 -0.6408
 2099SOL    HW112312   2.812   0.094   4.291 -0.7115  2.5300 -0.0035
 2099SOL    HW212313   2.952   0.170   4.254  0.9195 -0.6438 -0.6541
 2100SOL     OW12314   3.002   5.645   1.248 -0.7246  0.0276 -0.1689
 2100SOL    HW112315   2.993   5.551   1.217 -2.3083 -0.1443  0.6956
 2100SOL    HW212316   2.977   5.650   1.345  1.2359  1.0254  0.3348
 2101SOL     OW12317   4.316   3.288   5.944 -0.1458  0.1770 -0.3287
 2101SOL    HW112318   4.246   3.228   5.906  0.5651 -0.6131 -0.4093
 2101SOL    HW212319   4.297   3.303   6.041 -1.8468  2.0323 -0.8813
 2102SOL     OW12320   1.231   3.695   1.123  0.4663  0.6295  0.2161
 2102SOL    HW112321   1.300   3.656   1.185  0.9535  0.6977 -0.2700
 2102SOL    HW212322   1.217   3.791   1.145  2.6223  1.4042 -1.4361
 2103SOL     OW12323   5.890   4.665   5.910 -0.9673 -0.3449  0.0884
 2103SOL    HW112324   5.877   4.757   5.947  1.4037  0.8424 -1.7515
 2103SOL    HW212325   5.846   4.659   5.820  2.8681  0.7881 -2.0863
 2104SOL     OW12326   1.660   4.974   0.232 -0.4235  0.0627  0.1795
 2104SOL    HW112327   1.682   4.907   0.161 -0.1450  0.8141 -0.4597
 2104SOL    HW212328   1.706   4.949   0.317 -1.4634 -1.3223  0.3594
 2105SOL     OW12329   1.468   5.610   0.566 -0.4402 -0.3585  0.1106
 2105SOL    HW112330   1.510   5.674   0.630  0.2379 -0.0582 -0.6235
 2105SOL    HW212331   1.427   5.534   0.618 -1.9159  1.0077  1.0472
 2106SOL     OW12332   5.931   5.040   0.371  0.2031 -0.3873  0.6485
 2106SOL    HW112333   5.921   4.986   0.287  1.0063  0.5064 -0.0347
 2106SOL    HW212334   5.946   4.978   0.448 -0.1055 -1.1949  0.0775
 2107SOL     OW12335   5.096   2.816   0.594  0.7356  0.3377  0.0981
 2107SOL    HW112336   5.104   2.790   0.690 -2.4519 -0.9477  0.1386
 2107SOL    HW212337   5.118   2.737   0.536 -0.6411  0.0583 -0.0734
 2108SOL     OW12338   2.178   2.634   5.288  0.4654  0.5160 -0.3910
 2108SOL    HW112339   2.233   2.689   5.226  0.4068  1.4871  0.3960
 2108SOL    HW212340   2.191   2.537   5.267  2.2860  0.7273 -0.3892
 2109SOL     OW12341   3.055   0.052   5.450  0.3926 -0.0664 -0.0179
 2109SOL    HW112342   3.112  -0.011   5.398 -0.5151 -0.2121 -0.8571
 2109SOL    HW212343   3.024   0.127   5.391 -0.0233  0.1824  0.5030
 2110SOL     OW12344   6.279   3.956   5.839 -0.4633 -0.0521  0.0162
 2110SOL    HW112345   6.336   3.906   5.775 -0.1236  1.0712 -0.5903
 2110SOL    HW212346   6.309   4.051   5.844 -2.7279  0.7974 -0.9338
 2111SOL     OW12347   3.100   5.140   0.384 -0.3182  0.7556 -0.1945
 2111SOL    HW112348   3.040   5.115   0.460 -0.2297 -0.4357 -0.5004
 2111SOL    HW212349   3.051   5.130   0.298  0.2791 -0.2011 -0.4457
 2112SOL     OW12350   4.912   0.777   5.893 -0.3925  0.5008  0.2256
 2112SOL    HW112351   4.818   0.809   5.885 -1.1430 -1.2894  1.2837
 2112SOL    HW212352   4.917   0.680   5.869  1.3618  0.7570 -0.6536
 2113SOL     OW12353   4.938   5.837   6.043  0.2514  0.0947  0.0552
 2113SOL    HW112354   5.007   5.788   5.989  1.4909  1.0418  0.7298
 2113SOL    HW212355   4.983   5.886   6.117 -1.3127 -0.4167  1.4002
 2114SOL     OW12356   1.527   3.544   0.267  0.6415 -0.1590  0.0919
 2114SOL    HW112357   1.482   3.518   0.181 -0.9862  1.9323  0.2250
 2114SOL    HW212358   1.464   3.528   0.343  1.9500 -1.6836  0.9103
 2115SOL     OW12359   2.537   1.390   0.808  0.3813 -0.5279 -0.1723
 2115SOL    HW112360   2.637   1.393   0.816  0.5251  0.0833 -1.7135
 2115SOL    HW212361   2.505   1.296   0.819  1.4105 -1.1602 -1.9967
 2116SOL     OW12362   3.443   4.660   0.049 -0.1021  0.1205  0.6045
 2116SOL    HW112363   3.355   4.675   0.095 -0.7776  0.0013 -0.6010
 2116SOL    HW212364   3.466   4.563   0.052 -0.2806  0.0730  0.4546
 2117SOL     OW12365   0.210   5.780   1.085  0.1899  0.4613  0.4704
 2117SOL    HW112366   0.280   5.770   1.157  0.6772  1.0646  0.0927
 2117SOL    HW212367   0.186   5.690   1.049 -1.2072 -0.0172  2.4583
 2118SOL     OW12368   1.653   4.883   5.201  0.2438 -0.5654 -0.1043
 2118SOL    HW112369   1.581   4.947   5.177  1.4090  0.6340 -0.5531
 2118SOL    HW212370   1.623   4.825   5.277 -2.4384 -2.4572 -2.4416
 2119SOL     OW12371   2.221   3.029   5.494  0.2111 -0.3143 -0.4161
 2119SOL    HW112372   2.145   2.994   5.549  0.6706 -0.5726  0.0546
 2119SOL    HW212373   2.281   2.953   5.468  0.5630 -0.0446 -0.3975
 2120SOL     OW12374   0.016   1.664   6.293  0.3815 -0.0486 -0.5541
 2120SOL    HW112375  -0.048   1.737   6.268  0.6382  0.8006  1.1398
 2120SOL    HW212376  -0.035   1.580   6.310 -0.4865  0.8648  1.7648
 2121SOL     OW12377   2.660   2.966   5.812  0.3254 -0.7926  0.5821
 2121SOL    HW112378   2.596   2.998   5.742 -0.5351 -2.0341  0.7713
 2121SOL    HW212379   2.627   2.992   5.902  0.2072 -1.2140  0.6637
 2122SOL     OW12380   2.017   5.394   5.846  0.3545 -0.5545  0.1905
 2122SOL    HW112381   2.070   5.404   5.930 -0.7199  1.8425  0.6745
 2122SOL    HW212382   1.938   5.336   5.864 -0.2648  0.5162  1.1024
 2123SOL     OW12383   3.639   0.756   6.367 -1.0420 -0.4650  0.7181
 2123SOL    HW112384   3.569   0.824   6.344  0.2437  0.8696  0.5557
 2123SOL    HW212385   3.658   0.760   6.465 -0.2504  0.1654  0.5541
 2124SOL     OW12386   6.304   0.977   0.873 -0.2479  0.1778 -0.2193
 2124SOL    HW112387   6.291   0.879   0.889 -1.9110  0.7020  2.3810
 2124SOL    HW212388   6.372   1.012   0.938 -0.1001  0.8533 -0.7350
 2125SOL     OW12389   1.722   5.479   0.521  0.1993 -0.6027 -0.7054
 2125SOL    HW112390   1.643   5.536   0.500 -1.0355 -2.3625 -1.0229
 2125SOL    HW212391   1.714   5.443   0.614  1.2087  0.0789 -0.3317
 2126SOL     OW12392   6.263   1.901   6.205  0.0682  0.5599 -0.1094
 2126SOL    HW112393   6.165   1.916   6.198 -0.1824  1.1428  3.0386
 2126SOL    HW212394   6.312   1.972   6.155 -1.1319  1.3919 -0.1290
 2127SOL     OW12395   0.924   0.557   4.667  0.3190  0.2068  0.2812
 2127SOL    HW112396   1.018   0.563   4.633  0.2228  1.4490  0.1659
 2127SOL    HW212397   0.907   0.633   4.729  0.1807 -1.4517  2.3786
 2128SOL     OW12398   3.313   2.185   0.013  0.3963  0.1751  0.4997
 2128SOL    HW112399   3.388   2.127   0.047 -0.6228 -3.0000 -2.1233
 2128SOL    HW212400   3.332   2.212  -0.081 -0.8973  1.0294  0.4626
 2129SOL     OW12401   5.285   2.181   0.736  0.2202 -0.0035 -0.4468
 2129SOL    HW112402   5.335   2.255   0.780 -2.0943  1.5089 -0.1631
 2129SOL    HW212403   5.322   2.165   0.645  0.0831  2.3664 -0.9841
 2130SOL     OW12404   2.625   3.522   0.405  0.6871  0.4189 -0.3775
 2130SOL    HW112405   2.644   3.424   0.409  0.0858  0.3098  0.0561
 2130SOL    HW212406   2.627   3.560   0.497  0.1344  0.6504 -0.4525
 2131SOL     OW12407   4.971   4.646   0.622  0.0950  0.1963 -0.3270
 2131SOL    HW112408   4.921   4.700   0.689 -0.8671  0.5773 -1.3194
 2131SOL    HW212409   4.906   4.602   0.559  0.6115 -4.0344  1.7582
 2132SOL     OW12410   5.780   1.658   0.412  0.6512 -0.2233  0.4192
 2132SOL    HW112411   5.876   1.674   0.389  0.7142 -1.4373 -0.2480
 2132SOL    HW212412   5.774   1.593   0.487  0.3496  0.6760  1.1992
 2133SOL     OW12413   1.742   2.211   5.567 -0.1729 -0.4409  0.4034
 2133SOL    HW112414   1.674   2.238   5.635 -0.8778 -0.4762 -0.2711
 2133SOL    HW212415   1.761   2.288   5.505 -0.8987 -0.9364 -0.4621
 2134SOL     OW12416   2.585   2.844   0.787 -0.7498 -0.0868 -0.3898
 2134SOL    HW112417   2.670   2.820   0.740  0.0025  1.0201  0.3478
 2134SOL    HW212418   2.517   2.773   0.770  0.5082 -1.3345 -0.4831
 2135SOL     OW12419   4.238   3.785   0.123 -0.3851  0.9616 -0.1864
 2135SOL    HW112420   4.185   3.740   0.051 -0.9097  0.1380  0.6830
 2135SOL    HW212421   4.280   3.715   0.182 -0.2921  1.6065  0.5320
 2136SOL     OW12422   4.309   4.647   1.681 -0.7707  0.6180  0.6813
 2136SOL    HW112423   4.241   4.698   1.734 -0.3967  1.1846  0.6239
 2136SOL    HW212424   4.346   4.573   1.738 -1.2313  0.4804  0.8062
 2137SOL     OW12425   1.345   1.562   5.553 -0.1110  0.5665  0.5896
 2137SOL    HW112426   1.260   1.575   5.501 -0.7633  0.0537  1.4966
 2137SOL    HW212427   1.332   1.595   5.646  0.0221 -1.2611  1.3065
 2138SOL     OW12428   2.785   4.534   5.917 -0.2734 -0.0224  0.1807
 2138SOL    HW112429   2.852   4.513   5.846  0.1574 -0.9401  0.8250
 2138SOL    HW212430   2.832   4.574   5.996 -0.1144 -2.4400  1.4113
 2139SOL     OW12431   2.325   5.681   0.630  0.2715 -0.6200  0.0911
 2139SOL    HW112432   2.357   5.655   0.539  2.3458  1.6546  0.0818
 2139SOL    HW212433   2.395   5.662   0.698 -0.4901 -0.5167  0.9320
 2140SOL     OW12434   3.253   5.974   5.660 -0.3716 -0.0496 -0.1463
 2140SOL    HW112435   3.352   5.988   5.656 -0.2117 -0.0068  2.4964
 2140SOL    HW212436   3.234   5.884   5.698 -1.3401  0.4119  0.4843
 2141SOL     OW12437   0.039   4.691   6.311 -0.4539 -0.3505  0.7367
 2141SOL    HW112438   0.005   4.597   6.313 -0.2515 -0.5181 -1.3787
 2141SOL    HW212439  -0.009   4.742   6.239  0.9814  0.5274  0.3696
 2142SOL     OW12440   4.125   0.524   0.650 -0.0727 -0.4413  0.0919
 2142SOL    HW112441   4.082   0.610   0.676 -3.1804 -1.9743  0.5262
 2142SOL    HW212442   4.208   0.542   0.598  0.7262  2.7505  2.2317
 2143SOL     OW12443   1.631   4.652   0.328 -0.7551  0.1749  0.0234
 2143SOL    HW112444   1.554   4.712   0.305 -2.2483 -2.3488 -2.0903
 2143SOL    HW212445   1.597   4.569   0.370  1.0806 -0.0624  1.1277
 2144SOL     OW12446   3.738   4.339   1.182  0.3150  0.4412 -0.7013
 2144SOL    HW112447   3.771   4.397   1.108  1.3418  0.5275 -0.1938
 2144SOL    HW212448   3.754   4.384   1.270 -0.6129  0.2074 -0.4040
 2145SOL     OW12449   3.239   1.126   0.760 -0.3835 -0.0602 -0.4505
 2145SOL    HW112450   3.335   1.116   0.788  0.3153  1.1152 -2.2594
 2145SOL    HW212451   3.213   1.046   0.705 -0.0787  0.1213 -0.8689
 2146SOL     OW12452   0.810   1.576   0.166  0.2904  0.0112 -0.5811
 2146SOL    HW112453   0.778   1.484   0.145  1.2122 -0.4163 -0.2051
 2146SOL    HW212454   0.887   1.571   0.230  0.0062  1.0746 -0.1251
 2147SOL     OW12455   4.567   5.365   5.946  0.0588  0.3640  0.2323
 2147SOL    HW112456   4.603   5.385   6.036  1.2477  0.6625 -0.2900
 2147SOL    HW212457   4.639   5.327   5.888  0.2231  3.0644 -1.5345
 2148SOL     OW12458   1.646   2.037   0.779 -0.1579 -0.6816  0.0182
 2148SOL    HW112459   1.697   1.992   0.705  1.2357 -0.0663  0.5668
 2148SOL    HW212460   1.644   2.135   0.762 -3.7411 -0.8645 -1.5226
 2149SOL     OW12461   3.129   4.635   6.325 -0.6494  0.1006  0.1291
 2149SOL    HW112462   3.110   4.665   6.419  0.0870  0.5347  0.1513
 2149SOL    HW212463   3.153   4.538   6.325 -1.6198 -0.1515  0.2513
 2150SOL     OW12464   3.107   4.777   5.003  0.1944 -0.0684  0.4744
 2150SOL    HW112465   3.081   4.868   4.972  0.6596 -0.5449 -1.4675
 2150SOL    HW212466   3.201   4.779   5.036  1.8722 -0.5469 -3.6509
 2151SOL     OW12467   0.736   2.799   6.002 -0.3788 -0.6805  0.1621
 2151SOL    HW112468   0.725   2.728   5.933  1.1615 -0.1821 -0.6521
 2151SOL    HW212469   0.797   2.767   6.074  0.0243 -0.3220 -0.0161
 2152SOL     OW12470   2.559   1.573   4.959  0.1988 -0.1755 -0.4014
 2152SOL    HW112471   2.512   1.657   4.987  0.4807  0.3376 -1.4003
 2152SOL    HW212472   2.629   1.550   5.025 -0.2093  0.1074  0.1367
 2153SOL     OW12473   1.444   0.001   5.409  0.3497  0.6924  0.2837
 2153SOL    HW112474   1.461   0.057   5.328  1.6438  0.2420  0.2142
 2153SOL    HW212475   1.435  -0.095   5.383 -0.4973  0.6901  0.5476
 2154SOL     OW12476   5.820   0.758   0.949 -0.4889 -0.2999  0.8003
 2154SOL    HW112477   5.762   0.839   0.945 -1.0893 -0.7039  1.0640
 2154SOL    HW212478   5.835   0.732   1.044 -0.8446 -0.8724  0.7062
 2155SOL     OW12479   0.625   2.796   0.744 -0.8048  0.4631 -0.2087
 2155SOL    HW112480   0.712   2.846   0.741 -0.5146  0.3722  3.1116
 2155SOL    HW212481   0.639   2.703   0.711  0.2410  0.6120 -0.2169
 2156SOL     OW12482   2.348   2.507   0.125 -0.1504 -0.6146  0.1139
 2156SOL    HW112483   2.278   2.564   0.168  0.0485  0.4688 -0.9487
 2156SOL    HW212484   2.438   2.546   0.141  0.0989 -1.2530  0.3117
 2157SOL     OW12485   4.075   3.233   5.751 -0.2131 -0.1574  0.8703
 2157SOL    HW112486   3.990   3.249   5.700  0.5015 -0.1982 -0.3925
 2157SOL    HW212487   4.086   3.136   5.770  0.3449 -0.3899 -0.4887
 2158SOL     OW12488   2.960   1.034   1.253 -0.8054  0.3810  0.0427
 2158SOL    HW112489   3.033   1.043   1.321 -0.8372 -2.5084  0.5782
 2158SOL    HW212490   2.884   0.983   1.293 -1.7157  0.4212 -1.5477
 2159SOL     OW12491   0.165   4.597   0.521 -0.0145 -0.1339  0.0983
 2159SOL    HW112492   0.174   4.693   0.494 -1.5479  0.0720  0.2367
 2159SOL    HW212493   0.200   4.585   0.613 -0.3041  0.4206  0.2898
 2160SOL     OW12494   5.901   2.988   6.199  0.2140  0.0151  0.1645
 2160SOL    HW112495   5.941   2.942   6.278  5.1075  2.8081 -0.2718
 2160SOL    HW212496   5.955   2.968   6.117 -0.6805  2.2744 -1.0792
 2161SOL     OW12497   5.137   2.908   6.038  0.3204  0.0290  0.2692
 2161SOL    HW112498   5.150   2.810   6.055  2.3086  0.3137  0.5869
 2161SOL    HW212499   5.189   2.934   5.957 -1.5811  0.5278 -0.8586
 2162SOL     OW12500   5.328   1.983   0.505 -0.0606 -0.1210  0.3495
 2162SOL    HW112501   5.330   2.063   0.446 -0.6715  0.8858  1.6414
 2162SOL    HW212502   5.421   1.948   0.517  0.0767 -0.3662 -1.1804
 2163SOL     OW12503   6.133   4.323   0.741 -0.1654  0.6256  0.2399
 2163SOL    HW112504   6.132   4.275   0.829 -0.1472  2.1449  1.1067
 2163SOL    HW212505   6.167   4.262   0.670 -1.3182 -1.0197  1.0452
 2164SOL     OW12506   2.246   4.149   0.652  0.3766  0.3665  0.0202
 2164SOL    HW112507   2.285   4.171   0.742  0.6676 -1.0455  0.2576
 2164SOL    HW212508   2.297   4.198   0.581 -0.0380  1.7195  0.6200
 2165SOL     OW12509   6.128   0.002   6.123  0.4041 -0.5293 -0.5241
 2165SOL    HW112510   6.046  -0.031   6.076  0.1800  1.7840 -1.9128
 2165SOL    HW212511   6.206  -0.053   6.096 -0.2678 -1.1996 -1.1446
 2166SOL     OW12512   6.266   5.913   0.726  0.2405 -0.0036  0.0721
 2166SOL    HW112513   6.250   5.885   0.820 -0.3597  0.6918  0.1864
 2166SOL    HW212514   6.365   5.925   0.711  0.2909  0.7314  0.8731
 2167SOL     OW12515   2.056   4.502   5.873  0.4609  0.1203  0.3601
 2167SOL    HW112516   1.978   4.499   5.936 -0.4446  0.0690 -0.7278
 2167SOL    HW212517   2.026   4.538   5.785  1.4230 -0.9312 -0.4276
 2168SOL     OW12518   5.915   4.264   0.138 -0.4236 -0.3605 -0.1741
 2168SOL    HW112519   5.961   4.275   0.050 -0.0654 -2.5371 -0.3036
 2168SOL    HW212520   5.983   4.270   0.212 -0.5550  0.3530 -0.1059
 2169SOL     OW12521   2.092   3.520   6.094  0.0798 -0.3054 -0.0220
 2169SOL    HW112522   2.133   3.549   6.180 -0.2333 -3.6284  1.3887
 2169SOL    HW212523   2.157   3.462   6.043 -0.5661 -0.2837 -0.8984
 2170SOL     OW12524   4.161   0.416   1.449  0.0703 -0.0045  0.2281
 2170SOL    HW112525   4.244   0.414   1.504  0.3580  1.2717 -0.1170
 2170SOL    HW212526   4.130   0.511   1.440 -0.1588 -0.2168 -1.5295
 2171SOL     OW12527   2.442   4.316   0.111  0.3549  0.2102 -0.3968
 2171SOL    HW112528   2.380   4.394   0.123  0.8483  0.4501  0.6753
 2171SOL    HW212529   2.475   4.314   0.017 -0.9330  0.3281 -0.8789
 2172SOL     OW12530   0.561   3.731   1.047 -0.1137 -0.0074  0.3660
 2172SOL    HW112531   0.611   3.647   1.023  1.6869  0.6419  1.5757
 2172SOL    HW212532   0.568   3.746   1.146  0.0181  1.8188  0.1078
 2173SOL     OW12533   3.685   4.867   4.981  0.2917 -0.1449  0.1239
 2173SOL    HW112534   3.592   4.897   4.960  0.6583  2.4764  1.7862
 2173SOL    HW212535   3.733   4.846   4.896 -1.4615 -0.5086 -0.8287
 2174SOL     OW12536   2.065   4.940   4.636 -0.2617 -0.1288  0.1436
 2174SOL    HW112537   2.134   5.009   4.615 -1.1901  1.6185  2.3266
 2174SOL    HW212538   2.106   4.869   4.694 -0.0428  0.3421  0.5748
 2175SOL     OW12539   2.325   2.364   6.424  0.0509 -0.6619 -0.3887
 2175SOL    HW112540   2.353   2.408   6.510 -0.7758 -0.3888 -0.2525
 2175SOL    HW212541   2.380   2.402   6.349  1.5544 -1.6995  0.1471
 2176SOL     OW12542   3.337   3.997   5.379  0.2712 -0.0161  0.4774
 2176SOL    HW112543   3.372   4.088   5.402 -0.0767  0.2778 -0.1165
 2176SOL    HW212544   3.347   3.982   5.280 -3.8095  1.2450 -0.3149
 2177SOL     OW12545   2.552   2.380   5.670  0.3881  0.2902  0.2989
 2177SOL    HW112546   2.549   2.428   5.582  0.0131 -0.6475 -0.2038
 2177SOL    HW212547   2.465   2.393   5.718  0.1627 -0.1715  0.0132
 2178SOL     OW12548   3.098   2.672   6.204 -0.6851 -0.4849  0.1482
 2178SOL    HW112549   3.006   2.632   6.203 -0.1376 -1.7900 -0.4524
 2178SOL    HW212550   3.158   2.615   6.261  0.7660 -2.1150 -2.7870
 2179SOL     OW12551   2.297   3.184   6.206 -0.3669  0.5337  0.1779
 2179SOL    HW112552   2.345   3.259   6.253 -0.7583  1.4876 -0.9117
 2179SOL    HW212553   2.210   3.166   6.252  0.1808  0.0396  1.0545
 2180SOL     OW12554   4.399   1.127   0.179 -0.7872  0.3430 -0.5056
 2180SOL    HW112555   4.414   1.110   0.277  1.5831  0.4120 -0.8015
 2180SOL    HW212556   4.376   1.042   0.133  0.1830 -0.0936 -0.2057
 2181SOL     OW12557   2.637   2.435   0.387  0.7494  0.8877 -0.2415
 2181SOL    HW112558   2.658   2.484   0.472  0.2769 -0.8557  0.9516
 2181SOL    HW212559   2.710   2.370   0.367 -0.9759 -1.7383  1.2664
 2182SOL     OW12560   1.283   2.985   5.935  0.2299  0.5708 -0.4298
 2182SOL    HW112561   1.382   2.998   5.944  0.1472  1.5777 -0.8473
 2182SOL    HW212562   1.247   3.052   5.871 -0.4213 -1.1254 -1.9120
 2183SOL     OW12563   5.632   0.878   6.492  0.6583  0.2635 -0.4359
 2183SOL    HW112564   5.629   0.781   6.469  0.1619  0.3732 -0.8428
 2183SOL    HW212565   5.600   0.890   6.586  0.7421  0.0301 -0.3771
 2184SOL     OW12566   1.987   5.259   0.787 -0.4403 -0.6906  0.3271
 2184SOL    HW112567   2.062   5.311   0.746 -2.6824  1.2796 -1.6202
 2184SOL    HW212568   1.996   5.162   0.765  0.9347 -0.3201 -0.8243
 2185SOL     OW12569   2.712   5.780   5.556  0.0683 -0.2684  0.5952
 2185SOL    HW112570   2.765   5.846   5.502  1.2276 -0.3883  1.5563
 2185SOL    HW212571   2.615   5.790   5.534  0.2062  1.7396  0.6787
 2186SOL     OW12572   4.934   1.206   6.143 -0.5975 -0.0754 -0.1243
 2186SOL    HW112573   5.013   1.184   6.200 -1.1990 -0.2153  0.6856
 2186SOL    HW212574   4.925   1.305   6.134  0.8963 -0.0491 -2.0220
 2187SOL     OW12575   1.810   3.624   0.022 -0.3417  0.4552  0.0837
 2187SOL    HW112576   1.807   3.596  -0.074 -1.0023 -0.5443  0.3730
 2187SOL    HW212577   1.879   3.570   0.071 -1.4500 -0.5441  0.5962
 2188SOL     OW12578   0.821   1.304   5.534 -0.0427  0.1162 -0.9108
 2188SOL    HW112579   0.798   1.303   5.437  1.0189  1.3834 -1.2077
 2188SOL    HW212580   0.858   1.394   5.559  0.5658 -0.4825  0.4635
 2189SOL     OW12581   3.101   0.589   5.028  0.1214  0.4365  0.3892
 2189SOL    HW112582   3.131   0.616   5.119  0.0710  0.6429  0.3475
 2189SOL    HW212583   3.128   0.660   4.962  2.1757 -0.7589 -0.1310
 2190SOL     OW12584   5.826   4.074   0.984 -0.4725 -0.6382  0.2043
 2190SOL    HW112585   5.823   3.982   1.024  2.8064 -0.4346  1.2409
 2190SOL    HW212586   5.779   4.138   1.045  1.0202 -0.9856  1.8057
 2191SOL     OW12587   3.347   5.363   0.718  0.2193 -0.0700 -0.2388
 2191SOL    HW112588   3.394   5.345   0.804 -0.5515  1.0462  0.4377
 2191SOL    HW212589   3.375   5.295   0.650  1.8752 -0.1311  0.4752
 2192SOL     OW12590   0.609   1.368   0.019  0.1825 -0.5169 -0.0510
 2192SOL    HW112591   0.624   1.454  -0.031  2.0045 -0.6450  0.2263
 2192SOL    HW212592   0.510   1.355   0.032 -0.2241  0.6696 -1.5758
 2193SOL     OW12593   4.733   5.307   5.706  0.4045  0.3125 -0.4884
 2193SOL    HW112594   4.778   5.395   5.696  0.2787  0.2536 -1.7932
 2193SOL    HW212595   4.801   5.236   5.727  0.6235  0.5603 -0.3550
 2194SOL     OW12596   6.236   4.157   0.558 -0.1504  0.3836  0.5767
 2194SOL    HW112597   6.334   4.141   0.554 -0.3312 -0.6600 -3.1255
 2194SOL    HW212598   6.190   4.072   0.584 -0.1744  0.5630  1.1478
 2195SOL     OW12599   0.178   3.307   0.511 -0.1082 -0.1241 -0.1972
 2195SOL    HW112600   0.249   3.333   0.446  0.9138  0.8418  1.2417
 2195SOL    HW212601   0.111   3.382   0.518  0.2473  0.1471  0.4496
 2196SOL     OW12602   5.000   0.136   5.758  0.2824  0.1271 -0.5283
 2196SOL    HW112603   4.999   0.203   5.683  1.1395  0.4971 -0.2198
 2196SOL    HW212604   5.012   0.044   5.720  2.1332  0.4283 -0.7975
 2197SOL     OW12605   0.765   2.711   6.252  0.2244 -0.1114 -0.7246
 2197SOL    HW112606   0.800   2.797   6.288 -0.2194 -0.0516 -0.4268
 2197SOL    HW212607   0.665   2.712   6.257  0.1955 -2.2493  3.1697
 2198SOL     OW12608   0.568   5.829   0.504  0.2861 -0.4456  0.1929
 2198SOL    HW112609   0.493   5.772   0.471  0.0073 -0.6338  1.1187
 2198SOL    HW212610   0.615   5.870   0.427  1.2753 -2.9011 -0.6016
 2199SOL     OW12611   1.944   3.431   0.248  0.2588 -0.3995 -0.1270
 2199SOL    HW112612   2.043   3.422   0.237  0.2980  1.0460 -1.2238
 2199SOL    HW212613   1.924   3.481   0.332  0.6642  2.3941 -1.5783
 2200SOL     OW12614   1.748   1.594   5.857 -0.5610 -0.1315  0.0905
 2200SOL    HW112615   1.825   1.533   5.879 -0.8861 -0.2423  0.9684
 2200SOL    HW212616   1.769   1.645   5.774  0.8023  0.3916  0.7216
 2201SOL     OW12617   4.229   5.953   4.994  0.2637  0.0727  0.6215
 2201SOL    HW112618   4.188   5.864   5.014  0.7308  0.2797  2.7484
 2201SOL    HW212619   4.321   5.940   4.957 -0.3891 -0.3218 -0.9572
 2202SOL     OW12620   6.227   3.777   6.492  0.2250 -0.0386 -0.1084
 2202SOL    HW112621   6.257   3.682   6.484 -0.1027 -0.1503 -0.0287
 2202SOL    HW212622   6.187   3.792   6.582  2.4610  0.8105  0.8134
 2203SOL     OW12623   5.141   0.927   5.868  0.0075 -0.0256  0.7482
 2203SOL    HW112624   5.213   0.898   5.932  0.0183  1.7653  1.6123
 2203SOL    HW212625   5.054   0.890   5.898  0.3318 -0.9392  0.5844
 2204SOL     OW12626   4.767   1.029   6.286 -0.3339 -0.6494  0.3264
 2204SOL    HW112627   4.833   1.083   6.234  0.4628 -0.1674  1.7611
 2204SOL    HW212628   4.771   0.934   6.256  3.0763 -1.2612  2.1389
 2205SOL     OW12629   6.177   2.135   1.177 -0.4298 -0.3475  0.0250
 2205SOL    HW112630   6.267   2.175   1.161 -0.4044 -0.7600 -0.9149
 2205SOL    HW212631   6.126   2.193   1.241  1.0419 -0.8969  1.7937
 2206SOL     OW12632   0.343   2.279   6.434  0.7292  0.8597 -0.0500
 2206SOL    HW112633   0.434   2.239   6.449  0.5019  0.0917 -0.7020
 2206SOL    HW212634   0.352   2.359   6.375  1.1968  1.8768  1.3392
 2207SOL     OW12635   5.133   5.241   0.555  0.0657  0.1798 -0.0464
 2207SOL    HW112636   5.140   5.216   0.652  0.2471  3.0476  0.7662
 2207SOL    HW212637   5.038   5.264   0.533  0.1174  0.0394 -0.4267
 2208SOL     OW12638   0.169   4.394   0.098 -0.1636 -0.8341  0.1116
 2208SOL    HW112639   0.166   4.402   0.198 -0.6183  0.2640  0.0220
 2208SOL    HW212640   0.095   4.335   0.067 -1.8414  1.1217  0.2327
 2209SOL     OW12641   1.743   3.495   0.466  0.0247  0.4953  0.3480
 2209SOL    HW112642   1.698   3.537   0.387  0.6637 -0.6593 -0.6682
 2209SOL    HW212643   1.762   3.399   0.446  2.4101  0.7756  0.9341
 2210SOL     OW12644   4.358   0.416   5.654 -0.7493 -0.5396 -0.0962
 2210SOL    HW112645   4.343   0.515   5.653 -3.2485 -0.8436 -0.0433
 2210SOL    HW212646   4.350   0.380   5.561 -0.4368 -0.7669 -0.0366
 2211SOL     OW12647   3.794   1.880   0.365  0.5121  0.2581 -0.2990
 2211SOL    HW112648   3.819   1.881   0.461  0.0167 -2.4028 -0.0753
 2211SOL    HW212649   3.868   1.840   0.311 -0.3338 -0.9477 -0.6022
 2212SOL     OW12650   2.691   0.703   4.701  0.2837 -0.3029  0.3805
 2212SOL    HW112651   2.645   0.701   4.790  0.4284  2.1654  0.5734
 2212SOL    HW212652   2.629   0.737   4.631  1.1679  1.1583  0.2591
 2213SOL     OW12653   1.476   1.385   6.292  0.0482  0.1705  0.1200
 2213SOL    HW112654   1.395   1.380   6.232 -0.4296  1.6028  0.6012
 2213SOL    HW212655   1.547   1.440   6.248  1.8245 -3.1039 -1.4071
 2214SOL     OW12656   0.943   1.956   5.896 -0.2379  0.7919  0.2382
 2214SOL    HW112657   0.891   1.910   5.968  2.9008  0.1304  2.3037
 2214SOL    HW212658   0.965   1.889   5.824 -0.4117  0.5404  0.4145
 2215SOL     OW12659   1.598   4.635   6.115 -0.1166  0.7040 -0.5233
 2215SOL    HW112660   1.579   4.690   6.034  0.0213 -0.4554 -1.3556
 2215SOL    HW212661   1.685   4.587   6.104 -0.6832 -0.4197 -0.2169
 2216SOL     OW12662   3.746   5.680   5.352  0.1199  0.5790 -0.3447
 2216SOL    HW112663   3.812   5.671   5.277  0.7104  0.2662  0.2048
 2216SOL    HW212664   3.783   5.742   5.421 -0.3830  0.7963 -0.2699
 2217SOL     OW12665   3.113   5.944   6.280  0.2685 -0.6633  0.0026
 2217SOL    HW112666   3.074   5.878   6.343 -1.1214 -0.2080 -0.3500
 2217SOL    HW212667   3.080   6.036   6.302  1.9779 -0.0879  0.3375
 2218SOL     OW12668   5.764   1.755   5.442  0.0826 -0.6691 -0.0389
 2218SOL    HW112669   5.799   1.669   5.404 -1.4324 -1.6815  0.8009
 2218SOL    HW212670   5.805   1.770   5.532 -0.8695 -1.3648  0.5254
 2219SOL     OW12671   4.266   4.320   4.960 -0.0380 -0.5231 -0.4424
 2219SOL    HW112672   4.238   4.414   4.939 -1.0284 -0.4242  1.1312
 2219SOL    HW212673   4.361   4.321   4.993  0.9074 -0.4698 -2.9323
 2220SOL     OW12674   3.497   1.117   4.974 -0.1530  0.1421  0.9267
 2220SOL    HW112675   3.589   1.158   4.974  0.6977 -1.6944  0.5821
 2220SOL    HW212676   3.498   1.033   4.921 -2.2693  0.5186  0.1930
 2221SOL     OW12677   0.013   5.393   0.634 -0.2406 -0.4947 -0.2325
 2221SOL    HW112678  -0.009   5.297   0.649  0.8547 -1.3165 -3.1244
 2221SOL    HW212679   0.091   5.399   0.571  0.0159  2.3111  0.2499
 2222SOL     OW12680   3.471   6.276   1.124 -0.2628 -0.0841 -0.2760
 2222SOL    HW112681   3.454   6.354   1.063  1.5061  0.7519  0.2231
 2222SOL    HW212682   3.523   6.307   1.204  0.2441 -1.7282  0.0676
 2223SOL     OW12683   3.801   3.028   5.604 -0.0558 -0.3270 -0.2620
 2223SOL    HW112684   3.832   3.122   5.614  0.1810 -0.5362  1.3290
 2223SOL    HW212685   3.880   2.967   5.598 -0.1540 -0.5853  0.7717
 2224SOL     OW12686   1.814   4.076   1.662  0.4820  0.6849  0.5028
 2224SOL    HW112687   1.742   4.007   1.670  1.0805  0.2080  2.3206
 2224SOL    HW212688   1.894   4.047   1.715  2.4925  0.6711 -2.3075
 2225SOL     OW12689   3.598   6.015   6.005  0.5592  0.6311 -0.1727
 2225SOL    HW112690   3.536   6.093   5.997  0.5254  0.6121 -0.0996
 2225SOL    HW212691   3.570   5.958   6.083 -0.0994 -0.0644 -0.8977
 2226SOL     OW12692   3.824   0.916   5.277  0.1560 -0.2597 -0.3744
 2226SOL    HW112693   3.781   1.006   5.273 -1.5780 -0.9054  1.5864
 2226SOL    HW212694   3.791   0.859   5.202 -1.0202 -0.1603  0.0545
 2227SOL     OW12695   1.182   0.560   0.890 -0.3610  0.1275 -0.0909
 2227SOL    HW112696   1.095   0.598   0.856 -0.1988  1.0260  0.4646
 2227SOL    HW212697   1.193   0.584   0.986 -0.3605 -1.5746  0.3571
 2228SOL     OW12698   0.519   3.610   1.863  0.0929  0.2380  0.2680
 2228SOL    HW112699   0.448   3.554   1.820 -0.5009  0.4462  0.9567
 2228SOL    HW212700   0.534   3.579   1.957  1.3142 -0.1568 -0.0282
 2229SOL     OW12701   1.457   4.357   6.089  0.1843  0.2509 -0.3256
 2229SOL    HW112702   1.556   4.343   6.080  0.4820 -1.2312  3.2337
 2229SOL    HW212703   1.409   4.283   6.043  1.0086 -1.5731  1.5736
 2230SOL     OW12704   4.354   3.687   5.277 -0.2091  0.2214 -0.1912
 2230SOL    HW112705   4.424   3.648   5.217 -0.2080  1.5553 -1.1246
 2230SOL    HW212706   4.265   3.648   5.254 -0.0521 -0.0583 -0.3341
 2231SOL     OW12707   0.198   2.920   6.110 -0.0746  0.2031  0.0467
 2231SOL    HW112708   0.149   3.008   6.107  2.2396  1.5638 -1.1509
 2231SOL    HW212709   0.147   2.852   6.057 -1.1380  1.2661 -0.3416
 2232SOL     OW12710   1.947   4.582   5.640  0.1244 -0.3763  0.3126
 2232SOL    HW112711   1.872   4.648   5.651  0.6228  0.1747  0.4074
 2232SOL    HW212712   1.909   4.495   5.608 -0.4228  0.2179 -0.7029
 2233SOL     OW12713   4.475   0.912   0.901  0.3841  0.6700  0.5049
 2233SOL    HW112714   4.400   0.975   0.921  0.6225  1.0946  0.0921
 2233SOL    HW212715   4.549   0.926   0.966 -0.1976 -0.3007  1.4160
 2234SOL     OW12716   1.200   5.787   5.091 -0.4173 -0.5126  0.1701
 2234SOL    HW112717   1.179   5.819   4.999  1.0877 -1.9053 -0.7126
 2234SOL    HW212718   1.140   5.710   5.113 -2.7213  1.5513  1.5368
 2235SOL     OW12719   5.469   6.338   6.225  0.0280 -0.0517  0.3232
 2235SOL    HW112720   5.394   6.338   6.158  0.6723 -0.9132 -0.4281
 2235SOL    HW212721   5.556   6.345   6.177  0.5433 -1.4297  1.0130
 2236SOL     OW12722   1.409   5.635   0.288 -0.0264  0.2008 -0.1627
 2236SOL    HW112723   1.311   5.628   0.272  0.2019 -1.3672 -1.0886
 2236SOL    HW212724   1.430   5.609   0.382 -0.6104  1.9189  0.4765
 2237SOL     OW12725   5.091   3.697   6.139 -0.1112  0.0858 -0.6130
 2237SOL    HW112726   5.119   3.754   6.062  1.4462  1.4059  0.8750
 2237SOL    HW212727   5.144   3.612   6.139 -0.4075 -0.1044 -1.2038
 2238SOL     OW12728   4.197   0.307   0.213 -0.1691  0.2137 -0.7677
 2238SOL    HW112729   4.188   0.222   0.160 -0.4247 -0.7002  0.6894
 2238SOL    HW212730   4.127   0.372   0.183 -2.6383 -1.5765  0.7420
 2239SOL     OW12731   2.284   0.025   0.349  0.2765 -0.2149  0.5026
 2239SOL    HW112732   2.377   0.057   0.368 -0.6474  1.8157  2.0600
 2239SOL    HW212733   2.231   0.025   0.434 -1.3277 -0.7049 -0.4603
 2240SOL     OW12734   0.991   0.101   0.424  0.0822  0.6975  0.5927
 2240SOL    HW112735   0.936   0.070   0.502 -1.3176  0.5848 -0.3942
 2240SOL    HW212736   1.088   0.100   0.449 -0.1287 -1.6294  1.5796
 2241SOL     OW12737   4.940   5.942   0.310 -0.1320  0.0220  0.1247
 2241SOL    HW112738   4.929   5.942   0.410 -0.0872 -1.3306  0.1522
 2241SOL    HW212739   4.918   5.851   0.274  0.7248  0.2312 -0.9965
 2242SOL     OW12740   2.725   4.152   5.845 -0.2598  0.1266  0.3890
 2242SOL    HW112741   2.634   4.139   5.884 -0.3142  0.7411  0.4778
 2242SOL    HW212742   2.716   4.184   5.751 -0.1287 -0.9899 -0.0162
 2243SOL     OW12743   1.292   3.870   5.944  0.2579 -0.0620 -0.1049
 2243SOL    HW112744   1.298   3.869   5.845 -0.7838  0.1743 -0.1895
 2243SOL    HW212745   1.344   3.794   5.982 -0.5888 -1.0851 -0.9250
 2244SOL     OW12746   1.876   3.494   0.909 -0.4049  0.0137 -0.6563
 2244SOL    HW112747   1.803   3.500   0.977  0.3663  0.5096  0.1553
 2244SOL    HW212748   1.945   3.564   0.929  0.3492 -0.5217 -1.3367
 2245SOL     OW12749   5.060   1.912   0.477  0.2795  0.3913  0.4215
 2245SOL    HW112750   5.054   1.821   0.517  0.2941  0.2072  0.0060
 2245SOL    HW212751   5.153   1.946   0.486  1.1381 -0.9533 -2.2462
 2246SOL     OW12752   0.697   1.805   1.352  0.1634 -0.2124  0.3474
 2246SOL    HW112753   0.762   1.865   1.398 -1.3341  1.1377  0.8097
 2246SOL    HW212754   0.662   1.738   1.418 -0.8579  0.7595  0.8249
 2247SOL     OW12755   4.820   4.271   1.037  0.8625 -0.5402  0.4308
 2247SOL    HW112756   4.828   4.305   1.130  0.3541  0.2730  0.1807
 2247SOL    HW212757   4.788   4.176   1.038  0.4535 -0.3916  1.0594
 2248SOL     OW12758   2.382   0.505   0.646  0.0125 -0.2290  0.7774
 2248SOL    HW112759   2.452   0.435   0.635 -0.3876 -0.4356 -0.7917
 2248SOL    HW212760   2.392   0.573   0.573 -1.4223 -0.2874  0.4916
 2249SOL     OW12761   4.793   2.707   1.067 -0.6659 -0.6064  0.2964
 2249SOL    HW112762   4.729   2.650   1.119 -0.4000 -0.3795  0.8801
 2249SOL    HW212763   4.745   2.788   1.033 -0.6871 -0.4249  0.7535
 2250SOL     OW12764   6.156   1.681   5.428 -0.1964  0.1000  0.3297
 2250SOL    HW112765   6.151   1.693   5.329  0.2826 -0.3701  0.2475
 2250SOL    HW212766   6.227   1.739   5.466 -0.4083  0.3116  0.4032
 2251SOL     OW12767   4.243   4.214   6.238  0.0274 -0.0924  0.3708
 2251SOL    HW112768   4.287   4.125   6.250  0.8437  0.3449  0.6626
 2251SOL    HW212769   4.280   4.279   6.304 -0.0144  0.6716 -0.3418
 2252SOL     OW12770   3.858   5.429   0.879 -0.0031  0.2195 -0.2065
 2252SOL    HW112771   3.854   5.332   0.905  1.1166  0.1295 -0.3236
 2252SOL    HW212772   3.896   5.482   0.955  1.8966  0.1640 -1.0607
 2253SOL     OW12773   4.110   5.821   2.112  0.9777 -0.0135  0.0774
 2253SOL    HW112774   4.168   5.892   2.153 -0.2603  0.5285  0.9605
 2253SOL    HW212775   4.014   5.843   2.130  0.5167 -1.1669 -0.8989
 2254SOL     OW12776   4.366   6.347   5.965  0.0553 -0.2779 -0.8132
 2254SOL    HW112777   4.388   6.284   5.891  0.8889  0.8611 -1.5720
 2254SOL    HW212778   4.345   6.437   5.927 -0.5162  0.0658  0.2795
 2255SOL     OW12779   0.345   3.781   0.013  0.1055 -0.8699  0.1682
 2255SOL    HW112780   0.394   3.789   0.100  0.8308  0.7671 -0.3653
 2255SOL    HW212781   0.276   3.854   0.006 -2.6659 -3.1981  0.9841
 2256SOL     OW12782   2.822   0.063   6.204 -0.4677 -0.0543  0.9343
 2256SOL    HW112783   2.785  -0.024   6.171  0.0205  0.6297 -1.6929
 2256SOL    HW212784   2.919   0.053   6.225 -0.3681 -0.1167  0.4550
 2257SOL     OW12785   4.248   1.355   4.920  0.1886  0.0179  0.2681
 2257SOL    HW112786   4.272   1.450   4.897  1.5130 -0.8331 -2.3832
 2257SOL    HW212787   4.150   1.342   4.910 -0.4146  1.6217  3.1170
 2258SOL     OW12788   3.563   3.260   0.258 -0.0487  0.1948 -0.6056
 2258SOL    HW112789   3.564   3.357   0.283 -1.3112  0.1315 -0.2400
 2258SOL    HW212790   3.618   3.246   0.176  0.9179  1.0625 -0.1149
 2259SOL     OW12791   2.932   0.074   1.456  0.1276  0.2866 -0.0871
 2259SOL    HW112792   2.955   0.099   1.550 -1.2266  2.4534 -0.2645
 2259SOL    HW212793   3.015   0.068   1.401  0.9411 -1.0427  1.2096
 2260SOL     OW12794   0.454   3.000   1.673  0.1735 -0.1601 -0.3408
 2260SOL    HW112795   0.492   2.999   1.765  1.2794 -0.4507 -0.7766
 2260SOL    HW212796   0.471   3.089   1.631 -1.5734  0.4634  0.2104
 2261SOL     OW12797   5.021   3.346   0.578  0.0131  0.0377  0.3284
 2261SOL    HW112798   4.972   3.371   0.661 -1.0892 -0.6673 -0.0894
 2261SOL    HW212799   5.099   3.288   0.601 -0.3258 -0.2064  0.8669
 2262SOL     OW12800   3.419   3.497   6.103 -0.2572 -0.1795 -0.0327
 2262SOL    HW112801   3.442   3.433   6.176  0.2426 -0.7539 -0.6786
 2262SOL    HW212802   3.455   3.463   6.016 -0.0947  0.9244 -0.4113
 2263SOL     OW12803   0.437   5.858   6.124  0.8432  0.0858 -0.3184
 2263SOL    HW112804   0.347   5.856   6.166  1.3886  0.9030  0.9479
 2263SOL    HW212805   0.502   5.903   6.186  2.1478 -0.6016 -1.1452
 2264SOL     OW12806   3.570   5.750   0.614  0.3621  0.6734  0.0341
 2264SOL    HW112807   3.608   5.735   0.705  0.1463 -0.4856 -0.0583
 2264SOL    HW212808   3.631   5.711   0.545 -0.1926  0.2206 -0.2127
 2265SOL     OW12809   0.926   2.702   1.410  0.1027  0.2455  0.1809
 2265SOL    HW112810   0.927   2.612   1.454 -0.5284  0.2944  0.2956
 2265SOL    HW212811   1.000   2.707   1.343  0.2570 -0.2915  0.3078
 2266SOL     OW12812   4.112   6.187   5.156 -0.3158  0.1502  0.4849
 2266SOL    HW112813   4.196   6.240   5.153 -0.0007 -0.3481  0.3821
 2266SOL    HW212814   4.117   6.112   5.090 -0.5045 -0.3697  1.0479
 2267SOL     OW12815   4.819   6.160   1.029 -0.7201 -0.1967 -0.3800
 2267SOL    HW112816   4.803   6.100   1.107 -1.0635  0.0296 -0.2718
 2267SOL    HW212817   4.898   6.219   1.047 -1.2847  0.4163  0.1403
 2268SOL     OW12818   1.472   2.730   0.269 -0.0381  0.4280  0.2946
 2268SOL    HW112819   1.464   2.748   0.171  0.6635 -0.1441  0.1253
 2268SOL    HW212820   1.496   2.814   0.317  1.0024  0.4298 -0.2059
 2269SOL     OW12821   4.922   0.374   0.816  0.0243  0.2274 -0.7911
 2269SOL    HW112822   5.014   0.367   0.778  1.2762  3.0358  1.3841
 2269SOL    HW212823   4.912   0.305   0.889 -1.0732 -2.6104 -3.3956
 2270SOL     OW12824   4.450   6.222   0.826 -0.4551 -0.0604 -0.3749
 2270SOL    HW112825   4.520   6.185   0.765 -0.3529 -2.0451  0.8640
 2270SOL    HW212826   4.400   6.295   0.778  2.8022  1.9436 -1.0999
 2271SOL     OW12827   4.097   1.427   0.266 -0.2312 -0.2115 -0.7226
 2271SOL    HW112828   4.128   1.421   0.171  4.1140  1.5892  0.3324
 2271SOL    HW212829   4.123   1.343   0.315  3.9169  1.3743  0.2100
 2272SOL     OW12830   4.905   1.261   0.311 -0.2400 -0.0560 -0.0482
 2272SOL    HW112831   4.961   1.221   0.383 -0.1050  0.8896  0.3849
 2272SOL    HW212832   4.820   1.209   0.301 -0.0416 -0.4796  0.4592
 2273SOL     OW12833   6.313   3.272   5.781  0.3944  0.1092  0.1356
 2273SOL    HW112834   6.319   3.192   5.722  0.9202 -0.5287  1.0305
 2273SOL    HW212835   6.403   3.314   5.789  0.6649 -0.6709  1.6179
 2274SOL     OW12836   2.554   5.973   0.253 -0.0528  0.1667  0.0219
 2274SOL    HW112837   2.469   5.961   0.202 -1.2248  0.6790  1.7776
 2274SOL    HW212838   2.549   5.921   0.338  1.1057  0.7878  0.4860
 2275SOL     OW12839   4.533   3.369   5.793 -0.0873  0.2311 -0.3060
 2275SOL    HW112840   4.477   3.410   5.720  0.7936 -0.2418 -1.2734
 2275SOL    HW212841   4.473   3.339   5.867 -0.8517  2.2881 -0.0282
 2276SOL     OW12842   2.529   2.808   1.053 -0.9024  0.4227 -0.9564
 2276SOL    HW112843   2.561   2.810   0.958  0.1613 -0.5974 -0.6465
 2276SOL    HW212844   2.608   2.803   1.114 -1.5749  1.1320  0.0001
 2277SOL     OW12845   1.903   5.033   6.040  0.3002 -0.5144 -0.2417
 2277SOL    HW112846   1.851   5.107   6.082 -1.4406 -1.8567  0.0769
 2277SOL    HW212847   1.933   5.061   5.949  0.6237  0.9482  0.2847
 2278SOL     OW12848   0.255   5.506   0.161 -0.4557 -0.0169 -0.6306
 2278SOL    HW112849   0.253   5.523   0.063 -1.6386  1.3999 -0.4149
 2278SOL    HW212850   0.341   5.463   0.187 -0.6647 -1.6412 -2.4469
 2279SOL     OW12851   4.741   1.086   5.307 -0.4179 -0.1164  0.0714
 2279SOL    HW112852   4.687   1.156   5.355 -0.2004 -0.2627  0.5408
 2279SOL    HW212853   4.769   1.120   5.218 -3.4661 -0.9327 -1.3621
 2280SOL     OW12854   4.322   0.540   0.471  0.2137  0.5653  0.2225
 2280SOL    HW112855   4.374   0.459   0.444 -0.4651  0.2215 -0.0755
 2280SOL    HW212856   4.272   0.575   0.392  0.3645  1.1808  0.3894
 2281SOL     OW12857   2.371   2.098   6.483  0.5637  0.4572 -0.3270
 2281SOL    HW112858   2.396   2.191   6.455  0.0536  0.3099 -1.3408
 2281SOL    HW212859   2.378   2.090   6.582 -0.3953  1.8904 -0.1104
 2282SOL     OW12860   0.247   0.139   0.492 -0.0523  0.2741 -0.4375
 2282SOL    HW112861   0.338   0.154   0.453  0.3818  1.5198  0.9471
 2282SOL    HW212862   0.187   0.213   0.463  0.4188  1.5215  1.5498
 2283SOL     OW12863   6.093   3.537   6.326  0.3573 -0.3285 -0.1837
 2283SOL    HW112864   6.192   3.549   6.322  0.2364  0.5476 -3.0857
 2283SOL    HW212865   6.065   3.471   6.256 -1.2038  0.3893 -0.2815
 2284SOL     OW12866   4.311   4.437   0.855 -0.0108 -0.3021 -0.0313
 2284SOL    HW112867   4.231   4.396   0.898 -0.2222 -0.9780 -1.0501
 2284SOL    HW212868   4.283   4.498   0.781  0.3517  0.8806  0.7689
 2285SOL     OW12869   1.428   4.488   0.610 -0.6293  0.2319  0.6209
 2285SOL    HW112870   1.502   4.423   0.597 -0.4721  0.6144 -0.5456
 2285SOL    HW212871   1.465   4.580   0.624 -0.8700  0.2322  1.3200
 2286SOL     OW12872   0.798   5.127   4.870  0.3440  0.5091  0.0388
 2286SOL    HW112873   0.880   5.077   4.841  1.0470  1.4371  0.3411
 2286SOL    HW212874   0.730   5.124   4.797 -1.9841 -5.4270  1.8489
 2287SOL     OW12875   3.078   4.689   5.557 -0.3404  0.3909 -0.2499
 2287SOL    HW112876   2.987   4.720   5.530 -0.5789 -0.9404 -1.0433
 2287SOL    HW212877   3.121   4.639   5.482  0.3674 -0.4365  0.6649
 2288SOL     OW12878   2.782   1.804   6.206  0.3474 -0.1503  0.0709
 2288SOL    HW112879   2.757   1.721   6.157  0.1945  0.8413 -1.5894
 2288SOL    HW212880   2.864   1.786   6.262 -1.2139 -2.1238  1.9125
 2289SOL     OW12881   2.727   5.281   6.222 -0.0074 -1.2471 -0.0166
 2289SOL    HW112882   2.656   5.246   6.161 -1.5302 -0.7266  1.4069
 2289SOL    HW212883   2.787   5.206   6.249 -1.0300 -2.0524  0.0836
 2290SOL     OW12884   4.000   4.452   4.728 -0.4842  0.0779  0.0841
 2290SOL    HW112885   3.970   4.515   4.656 -0.8434  0.2533  0.3793
 2290SOL    HW212886   4.085   4.486   4.768 -0.5152  0.2169  0.0351
 2291SOL     OW12887   0.883   2.888   0.845  0.1202  0.7957  0.1206
 2291SOL    HW112888   0.981   2.910   0.844 -0.0293  1.6248 -2.5394
 2291SOL    HW212889   0.865   2.823   0.919  2.7638  0.1940  0.3500
 2292SOL     OW12890   5.639   2.457   6.186 -0.5514 -0.1088  0.6556
 2292SOL    HW112891   5.647   2.488   6.091  0.6413  0.4003  0.9023
 2292SOL    HW212892   5.552   2.409   6.198 -2.1338  2.4545  0.0615
 2293SOL     OW12893   5.790   4.517   0.060  0.1917  0.4125 -0.1736
 2293SOL    HW112894   5.732   4.435   0.064 -0.3916  0.7189 -1.6151
 2293SOL    HW212895   5.875   4.495   0.013 -0.9088  1.1031 -2.6276
 2294SOL     OW12896   4.066   1.075   5.126 -0.0683  0.0355  0.8834
 2294SOL    HW112897   4.047   0.980   5.101 -0.6627  0.0388  1.2944
 2294SOL    HW212898   4.160   1.098   5.103 -0.8225  0.3824 -2.4867
 2295SOL     OW12899   5.612   4.053   0.581  0.3625  0.6273  0.3767
 2295SOL    HW112900   5.685   4.120   0.592  1.7089 -0.7780  0.4551
 2295SOL    HW212901   5.587   4.046   0.484  0.4725  0.9780  0.3237
 2296SOL     OW12902   0.287   1.824   5.850  0.4030 -0.0927 -0.8047
 2296SOL    HW112903   0.256   1.811   5.944 -0.8917  1.1613 -1.0228
 2296SOL    HW212904   0.255   1.747   5.794  1.9124 -1.2878 -0.0941
 2297SOL     OW12905   3.507   5.640   5.217 -0.4466  0.5155 -0.2199
 2297SOL    HW112906   3.573   5.626   5.291  0.3744  1.1698 -0.8192
 2297SOL    HW212907   3.510   5.563   5.154 -0.2716  0.5384 -0.2390
 2298SOL     OW12908   4.658   5.713   1.928  0.0571  0.0957 -0.0828
 2298SOL    HW112909   4.743   5.662   1.913  0.6565  0.3414  2.1155
 2298SOL    HW212910   4.583   5.650   1.946  0.4405 -0.0982  0.9311
 2299SOL     OW12911   4.755   1.765   0.550 -0.2946  0.4365  0.5119
 2299SOL    HW112912   4.724   1.847   0.502 -1.7114 -1.7309 -2.5669
 2299SOL    HW212913   4.776   1.693   0.484 -1.4606 -2.5071  3.0845
 2300SOL     OW12914   5.513   1.945   5.560  0.2067  0.1365  0.4433
 2300SOL    HW112915   5.491   2.036   5.526  1.1850  0.8597  1.6900
 2300SOL    HW212916   5.610   1.940   5.583 -0.0870 -0.8454  1.5359
 2301SOL     OW12917   5.690   0.884   6.203  0.5187  0.2688 -0.2832
 2301SOL    HW112918   5.682   0.891   6.302  3.1897  2.4689 -0.1080
 2301SOL    HW212919   5.655   0.968   6.161  0.0968 -0.3369 -1.1769
 2302SOL     OW12920   0.263   4.621   5.953 -0.4268  0.3401 -0.0489
 2302SOL    HW112921   0.209   4.681   6.011  0.1508  0.2437  0.6073
 2302SOL    HW212922   0.291   4.540   6.005  0.5252  0.4941 -0.2925
 2303SOL     OW12923   3.688   2.616   5.609  0.1604 -0.0979  0.2006
 2303SOL    HW112924   3.757   2.616   5.536  1.6758  0.6992  1.5778
 2303SOL    HW212925   3.645   2.706   5.612  0.0741 -0.1421  0.2607
 2304SOL     OW12926   1.026   2.239   0.719 -0.2877  0.6122 -0.1842
 2304SOL    HW112927   0.941   2.285   0.746 -1.1753 -1.0688  0.0588
 2304SOL    HW212928   1.081   2.300   0.663 -2.1014  1.4357 -1.1429
 2305SOL     OW12929   3.298   1.139   6.411 -0.0552  0.4261 -0.0621
 2305SOL    HW112930   3.234   1.102   6.479 -0.7707  1.2613 -0.2533
 2305SOL    HW212931   3.246   1.191   6.343  0.7167  0.1131 -0.9030
 2306SOL     OW12932   3.710   2.758   6.353 -0.0338 -0.1971 -0.1544
 2306SOL    HW112933   3.612   2.765   6.370 -0.4658 -2.6562 -1.1216
 2306SOL    HW212934   3.727   2.760   6.254  1.2600  2.9256  0.0064
 2307SOL     OW12935   4.690   2.421   0.755  0.0053 -0.3044  0.4452
 2307SOL    HW112936   4.649   2.476   0.683  1.0282  1.2127  0.9782
 2307SOL    HW212937   4.628   2.347   0.780 -0.8953 -0.1081 -1.1094
 2308SOL     OW12938   3.045   3.515   0.237 -0.0757 -0.0797 -0.5087
 2308SOL    HW112939   3.104   3.485   0.162  1.1561 -0.0954  0.4387
 2308SOL    HW212940   3.095   3.511   0.323 -1.3097  0.4077  0.2658
 2309SOL     OW12941   2.353   1.455   6.327 -0.1996  0.3983 -0.4485
 2309SOL    HW112942   2.436   1.496   6.362 -1.1765  2.9332 -0.9207
 2309SOL    HW212943   2.349   1.467   6.227 -0.4943 -0.9537 -0.6254
 2310SOL     OW12944   6.114   0.577   5.466  0.0576  0.0545 -0.2292
 2310SOL    HW112945   6.168   0.657   5.493  1.4698 -1.4162  1.5632
 2310SOL    HW212946   6.158   0.532   5.388  0.5396 -0.2042  0.1809
 2311SOL     OW12947   5.516   4.438   5.797 -0.2752  0.1554  0.0102
 2311SOL    HW112948   5.471   4.528   5.790 -0.1638  0.0843 -3.1587
 2311SOL    HW212949   5.447   4.366   5.792 -0.0956  0.0687 -1.4780
 2312SOL     OW12950   1.483   6.098   5.331 -0.6266 -0.2321  0.4724
 2312SOL    HW112951   1.524   6.099   5.240 -0.1818  1.4689  0.6550
 2312SOL    HW212952   1.402   6.040   5.331 -0.0117 -1.1184 -0.7089
 2313SOL     OW12953   3.491   0.149   6.294 -0.5199 -0.3018 -0.7484
 2313SOL    HW112954   3.534   0.064   6.322 -1.0414 -0.1636  0.5200
 2313SOL    HW212955   3.437   0.186   6.369 -0.4728  1.0501 -1.3474
 2314SOL     OW12956   3.794   2.735   1.029  0.2952 -0.3951 -0.2769
 2314SOL    HW112957   3.884   2.764   1.059  0.7191  0.0948 -1.9346
 2314SOL    HW212958   3.772   2.647   1.070  1.3599 -0.3553  0.4194
 2315SOL     OW12959   3.476   5.244   0.270 -0.4368 -0.1140 -0.1269
 2315SOL    HW112960   3.410   5.317   0.257  0.2930  0.3487 -1.5222
 2315SOL    HW212961   3.463   5.174   0.199  0.1484 -0.3314 -0.0319
 2316SOL     OW12962   3.002   6.188   1.501  0.0982 -0.1019  0.4040
 2316SOL    HW112963   3.085   6.204   1.554 -1.0986  0.4707  2.1942
 2316SOL    HW212964   2.945   6.270   1.501 -0.3928 -0.4036 -0.9828
 2317SOL     OW12965   2.603   6.093   1.677  0.1490  0.1750  0.6089
 2317SOL    HW112966   2.632   6.171   1.733  2.4039 -0.3205  0.2202
 2317SOL    HW212967   2.504   6.084   1.682 -0.1105  2.6049  1.2608
 2318SOL     OW12968   5.244   1.187   6.217 -0.4775 -0.8221 -0.4263
 2318SOL    HW112969   5.326   1.132   6.199  1.3938  0.6932  2.6809
 2318SOL    HW212970   5.256   1.279   6.178  1.8370  1.1315  4.1322
 2319SOL     OW12971   0.074   2.117   0.948  0.1967  0.3396  0.2729
 2319SOL    HW112972  -0.007   2.149   0.899  0.3907 -0.6233 -0.7200
 2319SOL    HW212973   0.145   2.186   0.943 -1.4318  2.5350  3.6623
 2320SOL     OW12974   1.430   5.612   4.575 -0.4082  0.3011 -0.0011
 2320SOL    HW112975   1.526   5.604   4.546  0.0458 -0.2536  1.5480
 2320SOL    HW212976   1.373   5.628   4.495  1.1473  2.4025 -0.8075
 2321SOL     OW12977   5.196   1.754   1.183 -0.2383 -0.6500  0.0356
 2321SOL    HW112978   5.116   1.751   1.243 -1.4384  1.2780 -1.3249
 2321SOL    HW212979   5.250   1.836   1.204  0.5592 -1.1343 -0.0692
 2322SOL     OW12980   3.601   6.223   5.409 -0.3383  0.4642  0.4172
 2322SOL    HW112981   3.611   6.319   5.436  0.2560  0.5933 -0.2029
 2322SOL    HW212982   3.530   6.216   5.339 -1.7963  0.1467  1.8922
 2323SOL     OW12983   2.551   5.327   4.246  0.6723  0.0021 -0.1163
 2323SOL    HW112984   2.624   5.267   4.280  2.6487  1.3248 -1.8348
 2323SOL    HW212985   2.466   5.274   4.239  1.7846 -1.9950  0.5495
 2324SOL     OW12986   1.043   1.128   5.336 -0.3318 -0.6526 -0.3456
 2324SOL    HW112987   0.969   1.185   5.300 -0.4957 -0.3304  0.4854
 2324SOL    HW212988   1.105   1.184   5.391  0.4866 -0.9417 -0.9519
 2325SOL     OW12989   0.141   2.886   0.875 -0.3619  0.1607  0.3283
 2325SOL    HW112990   0.117   2.965   0.930 -1.4323 -0.8940  1.4473
 2325SOL    HW212991   0.240   2.869   0.881 -0.0462  1.6013 -0.2578
 2326SOL     OW12992   3.227   5.937   1.500  0.0507 -0.3149 -0.0963
 2326SOL    HW112993   3.304   5.906   1.555  0.4704 -0.9264 -1.0013
 2326SOL    HW212994   3.253   6.018   1.449 -0.1006 -0.1778  0.0429
 2327SOL     OW12995   2.739   5.605   1.149 -0.7302 -0.3911  0.1793
 2327SOL    HW112996   2.672   5.671   1.113 -1.4556 -1.6260 -0.8139
 2327SOL    HW212997   2.799   5.651   1.214  1.0144  2.1679 -2.9272
 2328SOL     OW12998   0.943   5.133   5.973 -1.0219 -0.4459 -0.3221
 2328SOL    HW112999   1.041   5.114   5.967 -1.1336 -1.1318  0.0024
 2328SOL    HW213000   0.907   5.149   5.881 -0.1764  2.0843 -0.2982
 2329SOL     OW13001   2.053   3.291   1.018 -0.1505  1.0377 -0.3864
 2329SOL    HW113002   2.022   3.277   0.924 -0.2132 -1.5032 -0.0472
 2329SOL    HW213003   2.131   3.353   1.019  0.5541  0.2350 -2.2549
 2330SOL     OW13004   1.229   4.742   5.708 -0.4557  0.0625  0.2201
 2330SOL    HW113005   1.220   4.827   5.761  0.2155  0.6230 -0.5401
 2330SOL    HW213006   1.173   4.671   5.751  3.1169 -0.7668  4.2515
 2331SOL     OW13007   4.454   4.286   5.980  0.5520  0.1988 -0.0624
 2331SOL    HW113008   4.526   4.299   5.912 -0.6120  4.5257 -0.7941
 2331SOL    HW213009   4.478   4.334   6.064 -0.6264  0.1507  0.3255
 2332SOL     OW13010   1.781   5.834   6.140 -0.1828  0.6180  0.4113
 2332SOL    HW113011   1.734   5.915   6.174 -0.4338  1.1313 -1.0868
 2332SOL    HW213012   1.839   5.859   6.063 -1.1693 -0.7995 -0.8469
 2333SOL     OW13013   5.024   4.373   0.225  0.2423  0.0565 -0.1266
 2333SOL    HW113014   5.068   4.429   0.295 -1.8156 -0.3892  1.6324
 2333SOL    HW213015   5.026   4.277   0.253 -0.7559 -0.1046 -0.5824
 2334SOL     OW13016   3.351   0.389   0.828  0.2495 -0.1574 -0.3103
 2334SOL    HW113017   3.253   0.405   0.840  0.1293 -1.2048  0.1885
 2334SOL    HW213018   3.370   0.372   0.732 -0.2291 -0.9981 -0.2638
 2335SOL     OW13019   3.720   3.071   4.855 -0.1321  0.0272  0.0970
 2335SOL    HW113020   3.764   3.005   4.916 -1.8155  1.5514  3.1639
 2335SOL    HW213021   3.623   3.047   4.845 -0.1382  0.4877 -1.0510
 2336SOL     OW13022   3.182   3.386   0.014 -0.5685  0.3052  0.5512
 2336SOL    HW113023   3.086   3.385  -0.015  0.0529 -0.6771 -1.6907
 2336SOL    HW213024   3.210   3.293   0.037  0.1158  0.4125  0.1659
 2337SOL     OW13025   1.219   4.345   0.484 -0.1997 -0.1887 -0.2127
 2337SOL    HW113026   1.290   4.397   0.531 -2.5183  0.2430  3.2268
 2337SOL    HW213027   1.130   4.388   0.501 -1.6241 -2.2310 -1.9669
 2338SOL     OW13028   1.313   5.783   6.232  0.2611 -0.4553  0.2807
 2338SOL    HW113029   1.215   5.783   6.214  0.0477  2.3197  1.0285
 2338SOL    HW213030   1.332   5.830   6.318  2.1635 -2.7278  1.2441
 2339SOL     OW13031   0.881   1.718   6.426 -0.6652  0.3552 -0.0508
 2339SOL    HW113032   0.864   1.685   6.519 -2.3166  2.3112  0.4265
 2339SOL    HW213033   0.961   1.778   6.427  0.9736 -1.6943 -0.4921
 2340SOL     OW13034   5.808   3.984   0.182 -0.2530 -0.3324  0.6307
 2340SOL    HW113035   5.873   3.925   0.230 -1.2039 -1.1563  0.9153
 2340SOL    HW213036   5.844   4.078   0.182  0.8765 -0.7411  0.8865
 2341SOL     OW13037   2.486   6.076   1.958 -0.2317  0.6400  0.2858
 2341SOL    HW113038   2.524   6.165   1.981  0.5754  0.0960  1.1297
 2341SOL    HW213039   2.386   6.084   1.949 -0.0522  1.8644 -0.9255
 2342SOL     OW13040   2.271   1.791   0.794  0.4848  0.2381  0.3290
 2342SOL    HW113041   2.346   1.736   0.831  2.8365  2.0158 -1.4610
 2342SOL    HW213042   2.289   1.887   0.813 -1.3510  0.7161 -0.2064
 2343SOL     OW13043   4.719   3.468   0.594  0.4501  0.4164 -0.7738
 2343SOL    HW113044   4.733   3.370   0.607 -0.0592  0.4021 -0.3291
 2343SOL    HW213045   4.622   3.487   0.580  0.2491  1.0785  1.1743
 2344SOL     OW13046   2.958   3.622   5.469 -0.0658  0.0466 -0.1310
 2344SOL    HW113047   3.004   3.691   5.412 -1.5680  1.3402  0.1370
 2344SOL    HW213048   3.025   3.557   5.503  1.6363  1.9458  0.3914
 2345SOL     OW13049   3.781   3.873   0.283 -0.2595 -0.7077 -0.0399
 2345SOL    HW113050   3.820   3.781   0.286 -2.5092 -1.7955 -1.3471
 2345SOL    HW213051   3.697   3.872   0.228 -1.8770  1.5340  2.1394
 2346SOL     OW13052   4.358   0.709   5.627  0.8540  0.2126 -0.0870
 2346SOL    HW113053   4.280   0.722   5.688  0.2674 -1.1977 -0.5083
 2346SOL    HW213054   4.336   0.744   5.536  1.4464  1.5895  0.2622
 2347SOL     OW13055   5.056   0.705   0.432  0.1038 -0.1288 -0.2894
 2347SOL    HW113056   5.013   0.783   0.478 -0.3170 -0.8017  0.4876
 2347SOL    HW213057   4.985   0.640   0.405  0.2237  0.7266 -2.8619
 2348SOL     OW13058   0.687   2.556   1.523 -0.4529 -0.3251 -0.2962
 2348SOL    HW113059   0.629   2.491   1.572  0.6775 -0.4646  0.9026
 2348SOL    HW213060   0.770   2.574   1.576  0.0035  0.8731 -1.3585
 2349SOL     OW13061   2.324   1.110   5.393 -0.0398 -0.1169 -0.6598
 2349SOL    HW113062   2.249   1.114   5.327  1.3565 -0.0742 -2.3146
 2349SOL    HW213063   2.287   1.118   5.485 -1.9876  0.6884 -1.4460
 2350SOL     OW13064   1.593   6.144   5.071  0.2999 -0.3345 -0.6902
 2350SOL    HW113065   1.680   6.132   5.023  0.1471  1.2181 -1.4383
 2350SOL    HW213066   1.520   6.158   5.005 -0.0667  0.9748 -0.0547
 2351SOL     OW13067   0.238   0.195   6.147 -0.1709 -0.0553  0.2435
 2351SOL    HW113068   0.149   0.211   6.104  0.2406 -0.4406 -0.7828
 2351SOL    HW213069   0.225   0.159   6.239 -1.0788  0.0065  0.1432
 2352SOL     OW13070   2.572   3.792   0.758  0.4090  0.2797  0.2503
 2352SOL    HW113071   2.572   3.699   0.722 -0.1331  0.3103  0.1666
 2352SOL    HW213072   2.532   3.854   0.690  2.9661  0.9837 -0.7433
 2353SOL     OW13073   3.149   5.715   4.926  0.5705 -0.3409  0.5182
 2353SOL    HW113074   3.169   5.798   4.874  0.3389  0.4168  1.6199
 2353SOL    HW213075   3.089   5.656   4.872  1.2415 -0.0962 -0.5339
 2354SOL     OW13076   6.201   2.706   6.509 -0.0498  0.0023 -0.3095
 2354SOL    HW113077   6.291   2.741   6.535  0.2963 -1.5390  0.6797
 2354SOL    HW213078   6.213   2.626   6.450 -0.7277 -0.9812  0.8503
 2355SOL     OW13079   3.861   2.288   0.765  0.6079  0.3559  0.6852
 2355SOL    HW113080   3.806   2.368   0.788  1.8445  1.3702  0.2440
 2355SOL    HW213081   3.957   2.305   0.789  1.2311 -0.1995 -1.2019
 2356SOL     OW13082   1.541   0.124   4.942 -0.3759  0.4597  0.6165
 2356SOL    HW113083   1.512   0.039   4.899  1.7655 -0.5789  1.0978
 2356SOL    HW213084   1.567   0.190   4.872  0.5847 -0.2947  0.2346
 2357SOL     OW13085   3.611   4.551   4.877 -0.2200 -0.3609  0.5446
 2357SOL    HW113086   3.641   4.456   4.873 -3.1220 -1.3170 -1.9352
 2357SOL    HW213087   3.681   4.610   4.837 -0.7931 -2.2982 -3.8429
 2358SOL     OW13088   3.779   4.667   6.175 -0.0851  0.4282 -0.0232
 2358SOL    HW113089   3.813   4.610   6.100  0.0750  0.5636 -0.0544
 2358SOL    HW213090   3.688   4.636   6.202 -0.4289  0.7982 -0.7214
 2359SOL     OW13091   6.257   1.071   0.628 -0.1026 -0.1977 -0.1254
 2359SOL    HW113092   6.176   1.128   0.640  0.2718  0.1408  0.9116
 2359SOL    HW213093   6.288   1.038   0.717 -0.0560 -1.6790 -0.6673
 2360SOL     OW13094   0.196   0.491   6.333 -0.5032  0.1806 -0.0080
 2360SOL    HW113095   0.270   0.428   6.360 -1.1419  0.2182  2.0404
 2360SOL    HW213096   0.234   0.565   6.277  0.7828 -0.4998 -0.0739
 2361SOL     OW13097   1.146   3.681   0.384  0.0726 -0.4760  0.0782
 2361SOL    HW113098   1.074   3.613   0.399 -1.6644  1.6022  2.0060
 2361SOL    HW213099   1.211   3.678   0.460 -0.0912  0.0564  0.2469
 2362SOL     OW13100   3.172   2.140   4.557 -0.1536 -0.6202 -0.2567
 2362SOL    HW113101   3.189   2.231   4.518 -1.3080  1.4796  3.6004
 2362SOL    HW213102   3.259   2.100   4.586  0.2502 -0.1811 -0.8298
 2363SOL     OW13103   1.148   4.940   1.218  0.0456 -0.2753  0.1004
 2363SOL    HW113104   1.060   4.966   1.258  0.3121  0.9974 -0.0905
 2363SOL    HW213105   1.221   4.989   1.265  0.4582  0.3806 -1.1926
 2364SOL     OW13106   0.632   5.305   4.500  0.0157 -0.3772  0.0435
 2364SOL    HW113107   0.563   5.292   4.429  0.6787  4.9734 -2.0463
 2364SOL    HW213108   0.723   5.286   4.461  0.2789  1.2681 -0.2048
 2365SOL     OW13109   2.819   2.285   5.132  0.1619 -0.2444 -0.1153
 2365SOL    HW113110   2.723   2.310   5.124  0.1929  0.0071  0.2920
 2365SOL    HW213111   2.874   2.367   5.150  0.3105 -0.5373  0.8133
 2366SOL     OW13112   5.615   0.348   0.870 -0.1640 -0.0211  0.6794
 2366SOL    HW113113   5.708   0.344   0.833 -0.4084  0.7119 -0.0476
 2366SOL    HW213114   5.567   0.427   0.831 -1.0072 -0.2376  1.2486
 2367SOL     OW13115   0.939   2.985   5.938 -0.0046 -0.5629  0.8512
 2367SOL    HW113116   1.008   2.933   5.989  0.2699 -1.2042 -0.1351
 2367SOL    HW213117   0.849   2.969   5.979  0.1644 -1.3082  0.9585
 2368SOL     OW13118   4.691   2.902   0.866 -0.4560  0.0343  0.0513
 2368SOL    HW113119   4.783   2.879   0.832 -0.2260  1.8451 -0.6633
 2368SOL    HW213120   4.682   3.001   0.873 -1.3285 -0.1490  3.1049
 2369SOL     OW13121   0.861   3.546   1.767 -0.2272  0.5082  0.3134
 2369SOL    HW113122   0.802   3.530   1.846  0.4340  1.6233  1.0662
 2369SOL    HW213123   0.839   3.481   1.695  0.5396 -1.9616  2.1497
 2370SOL     OW13124   1.783   2.222   6.154  0.3193 -0.1687 -0.0548
 2370SOL    HW113125   1.800   2.163   6.233 -0.7375 -0.4761 -0.0475
 2370SOL    HW213126   1.830   2.185   6.074 -0.4476 -1.1052 -0.0789
 2371SOL     OW13127   1.982   4.243   1.519  0.2403 -0.3831 -0.0486
 2371SOL    HW113128   1.929   4.176   1.570 -2.9422  2.4795  0.7954
 2371SOL    HW213129   2.028   4.305   1.583  2.4302 -1.1112 -0.8052
 2372SOL     OW13130   4.435   4.635   0.996 -0.0284 -0.4104  0.0127
 2372SOL    HW113131   4.385   4.599   0.917  1.3811 -0.0058 -1.1150
 2372SOL    HW213132   4.523   4.588   1.003  1.4788  2.1107 -0.9583
 2373SOL     OW13133   2.482   5.404   5.668 -0.3788 -0.5118  0.3265
 2373SOL    HW113134   2.418   5.458   5.613  0.8557  0.7034  0.0317
 2373SOL    HW213135   2.540   5.465   5.721  0.2781 -1.6058  0.9035
 2374SOL     OW13136   4.877   5.969   4.902  0.0929  0.2323 -0.4929
 2374SOL    HW113137   4.785   6.003   4.881 -0.0528  0.7526  0.8303
 2374SOL    HW213138   4.932   5.968   4.819 -0.6201  1.5053 -1.0223
 2375SOL     OW13139   1.448   4.786   6.455 -0.2076 -0.3136  0.2521
 2375SOL    HW113140   1.390   4.838   6.518  1.0877  1.0763  0.3447
 2375SOL    HW213141   1.541   4.783   6.489  0.5630  0.5697 -1.5942
 2376SOL     OW13142   2.337   5.327   1.087 -0.7651 -0.0065 -0.1191
 2376SOL    HW113143   2.353   5.411   1.139 -1.4872 -0.8625  1.5605
 2376SOL    HW213144   2.239   5.317   1.070 -0.7990 -0.9637  0.5330
 2377SOL     OW13145   1.477   6.033   0.560 -1.0503  0.2828  0.0498
 2377SOL    HW113146   1.427   6.115   0.590  1.2457  1.4393  0.9874
 2377SOL    HW213147   1.575   6.051   0.564 -0.4428 -2.6269  0.5191
 2378SOL     OW13148   5.214   4.736   0.690 -0.5572  0.3651 -0.1296
 2378SOL    HW113149   5.226   4.827   0.651 -1.8411  0.3489 -0.6125
 2378SOL    HW213150   5.125   4.699   0.663 -0.3289 -0.7757  0.5834
 2379SOL     OW13151   2.466   4.184   1.179 -0.1283  0.2104  0.1596
 2379SOL    HW113152   2.540   4.170   1.114  1.4119  1.5101  1.5060
 2379SOL    HW213153   2.502   4.230   1.260 -1.9512 -1.3204  1.9479
 2380SOL     OW13154   0.635   4.422   5.754  0.7716 -0.0398  0.4883
 2380SOL    HW113155   0.580   4.399   5.835 -0.6387  0.7722 -0.1989
 2380SOL    HW213156   0.730   4.398   5.771 -0.0435 -3.6011  0.9385
 2381SOL     OW13157   0.672   6.235   0.361 -0.1177 -0.5788  0.6767
 2381SOL    HW113158   0.591   6.294   0.353  0.7352  0.4226 -1.6609
 2381SOL    HW213159   0.731   6.270   0.434  0.4552  1.7058 -0.7615
 2382SOL     OW13160   4.964   0.101   5.336  0.5211 -0.6205 -0.2620
 2382SOL    HW113161   4.983   0.088   5.239 -0.0196  0.8373 -0.5904
 2382SOL    HW213162   4.993   0.192   5.364 -0.7352 -0.4384  0.5557
 2383SOL     OW13163   0.975   1.136   0.122 -0.4780  0.6628  0.1007
 2383SOL    HW113164   0.999   1.193   0.044 -2.1742 -0.3643 -1.2436
 2383SOL    HW213165   0.927   1.191   0.190 -0.6008  1.2008 -0.4163
 2384SOL     OW13166   3.465   1.137   0.939  0.2564 -0.2625 -0.0357
 2384SOL    HW113167   3.383   1.114   0.992  0.0192  0.2989 -0.1601
 2384SOL    HW213168   3.530   1.060   0.944  0.8746  0.3335  2.2819
 2385SOL     OW13169   0.381   3.361   0.338  0.6872 -0.2548  0.4924
 2385SOL    HW113170   0.435   3.281   0.364  2.1140  0.8985  1.2078
 2385SOL    HW213171   0.441   3.439   0.323 -0.5600  0.4541 -1.2964
 2386SOL     OW13172   4.059   0.464   4.705 -0.0527  0.4790 -0.4291
 2386SOL    HW113173   4.042   0.490   4.609 -3.1680  0.7234  0.0701
 2386SOL    HW213174   4.068   0.546   4.761 -2.3484  0.4932  0.0218
 2387SOL     OW13175   2.224   4.839   5.237 -0.0307 -0.3955 -0.4282
 2387SOL    HW113176   2.311   4.848   5.285  0.0106 -1.2431 -0.3320
 2387SOL    HW213177   2.157   4.796   5.297 -0.4061 -0.1191 -0.6396
 2388SOL     OW13178   1.750   6.301   5.230  0.1662 -0.4534  0.4504
 2388SOL    HW113179   1.686   6.283   5.155  1.8936  0.1526 -1.2476
 2388SOL    HW213180   1.772   6.215   5.276 -0.5987 -0.9058 -0.0040
 2389SOL     OW13181   2.515   3.315   5.971 -0.2480  0.4446 -0.3336
 2389SOL    HW113182   2.605   3.276   5.992 -0.2328  0.5592 -0.1850
 2389SOL    HW213183   2.503   3.400   6.022  0.1518  1.2060 -1.4815
 2390SOL     OW13184   2.925   1.264   1.115  0.0593 -0.1198 -0.1867
 2390SOL    HW113185   2.848   1.321   1.146  0.7914  0.5339  0.4736
 2390SOL    HW213186   2.945   1.195   1.184 -0.0035 -0.3620 -0.4101
 2391SOL     OW13187   4.254   2.524   1.077  0.5626  0.1375  0.1242
 2391SOL    HW113188   4.326   2.461   1.047  2.2080  2.1366 -0.4025
 2391SOL    HW213189   4.252   2.527   1.177  3.3160  2.1198  0.2556
 2392SOL     OW13190   2.691   5.136   1.343 -0.7016 -0.2327  0.2276
 2392SOL    HW113191   2.696   5.044   1.383  0.9651  0.7457  2.4627
 2392SOL    HW213192   2.630   5.192   1.399 -0.7955  0.3470 -0.4483
 2393SOL     OW13193   2.894   0.706   1.446 -0.1248  0.2060  0.3464
 2393SOL    HW113194   2.892   0.803   1.471  0.1968  0.4809 -0.6603
 2393SOL    HW213195   2.825   0.656   1.499  0.4926  0.7605  1.7374
 2394SOL     OW13196   4.411   2.979   5.588  0.4233 -0.0852 -0.0461
 2394SOL    HW113197   4.508   3.002   5.586  0.3891  0.0598 -0.0645
 2394SOL    HW213198   4.361   3.038   5.524  0.2505  0.1860  0.3354
 2395SOL     OW13199   1.845   2.080   0.146 -0.4391  0.2479  0.0590
 2395SOL    HW113200   1.802   2.079   0.056  0.7365 -0.1774 -0.5213
 2395SOL    HW213201   1.837   1.990   0.187 -0.8597  0.4067  0.3312
 2396SOL     OW13202   4.358   3.588   0.726 -0.5344 -0.1856  0.2588
 2396SOL    HW113203   4.390   3.580   0.631 -1.2482 -1.5947  0.1238
 2396SOL    HW213204   4.389   3.675   0.763 -2.7621  1.8458 -2.2268
 2397SOL     OW13205   5.569   2.492   0.201  0.0701  0.5624 -0.0477
 2397SOL    HW113206   5.657   2.523   0.237  0.9650  0.4472 -1.9834
 2397SOL    HW213207   5.584   2.411   0.143 -1.4443  0.0102  0.2876
 2398SOL     OW13208   1.765   5.191   4.809  0.5674  0.4635 -0.1196
 2398SOL    HW113209   1.783   5.166   4.904 -1.2005  0.1402  0.1759
 2398SOL    HW213210   1.756   5.291   4.803  2.2217  0.6285 -0.2701
 2399SOL     OW13211   4.892   4.987   6.502 -0.2854 -0.3052  0.0743
 2399SOL    HW113212   4.982   5.031   6.512 -0.6804  0.4329  0.5363
 2399SOL    HW213213   4.835   5.042   6.440 -0.5422 -0.5619  0.0809
 2400SOL     OW13214   3.106   0.209   5.122  0.2589  0.2621  0.3993
 2400SOL    HW113215   3.034   0.266   5.082  1.2150  0.8942 -0.4580
 2400SOL    HW213216   3.161   0.265   5.185  2.2874  0.8327 -1.7519
 2401SOL     OW13217   1.099   3.926   1.790  0.7668 -0.3588  0.5684
 2401SOL    HW113218   1.194   3.956   1.803  0.8597 -0.1484 -0.4922
 2401SOL    HW213219   1.039   4.005   1.787  0.9629 -0.2207 -1.8340
 2402SOL     OW13220   3.936   0.412   6.409 -0.3625 -0.6557 -0.0102
 2402SOL    HW113221   3.995   0.336   6.381 -0.7876 -0.9554 -0.1165
 2402SOL    HW213222   3.848   0.405   6.360  0.1725  0.8309 -1.2681
 2403SOL     OW13223   4.854   3.252   0.775 -0.3946  0.0006  0.0311
 2403SOL    HW113224   4.864   3.179   0.708 -1.2628  0.4527 -0.6184
 2403SOL    HW213225   4.779   3.231   0.837  1.1463 -0.9829  1.6637
 2404SOL     OW13226   5.820   3.362   5.489 -0.0909  0.1417  0.0687
 2404SOL    HW113227   5.835   3.455   5.456 -0.3473  1.0767  2.3959
 2404SOL    HW213228   5.836   3.297   5.414  1.1995  1.9546 -1.3218
 2405SOL     OW13229   2.390   1.772   4.995 -0.1785 -0.3545  0.3818
 2405SOL    HW113230   2.321   1.774   4.923  0.8085 -0.8472 -0.6064
 2405SOL    HW213231   2.454   1.848   4.982  0.1231 -0.5655  0.6053
 2406SOL     OW13232   1.703   5.393   1.683 -0.0375 -0.0906  0.1937
 2406SOL    HW113233   1.632   5.371   1.750 -0.9763  0.2788 -0.6618
 2406SOL    HW213234   1.707   5.492   1.670 -0.5575 -0.2130 -1.0323
 2407SOL     OW13235   5.731   5.936   0.334  0.0513  0.6096  0.0472
 2407SOL    HW113236   5.687   5.851   0.306  1.1533  0.0024  0.1100
 2407SOL    HW213237   5.665   5.993   0.383  0.2849 -2.0223  3.8078
 2408SOL     OW13238   4.776   2.525   1.431  0.0590 -0.1010  0.1313
 2408SOL    HW113239   4.795   2.449   1.492  1.1066  0.7189  0.8672
 2408SOL    HW213240   4.849   2.593   1.438 -0.8958  1.0323 -0.4235
 2409SOL     OW13241   2.284   5.244   5.077  0.0448  0.1633 -0.0939
 2409SOL    HW113242   2.316   5.330   5.036  1.5008 -0.4601 -0.2963
 2409SOL    HW213243   2.292   5.170   5.010 -0.0646 -0.3667  0.4712
 2410SOL     OW13244   6.013   0.898   5.792 -0.4923 -0.6175 -0.0339
 2410SOL    HW113245   6.111   0.900   5.776 -0.7197 -0.0758 -1.5068
 2410SOL    HW213246   5.972   0.825   5.737 -1.2739  1.1256 -1.8618
 2411SOL     OW13247   1.681   5.183   6.125 -0.0524  0.7606 -0.0478
 2411SOL    HW113248   1.625   5.203   6.044  0.9506  0.3374 -0.8687
 2411SOL    HW213249   1.622   5.147   6.197 -1.2099  2.5756 -0.0213
 2412SOL     OW13250   0.680   4.731   0.225 -1.3988 -0.1905 -0.1435
 2412SOL    HW113251   0.704   4.749   0.129 -0.2969  0.7520  0.2909
 2412SOL    HW213252   0.581   4.723   0.233 -1.6565  1.4237 -1.1201
 2413SOL     OW13253   0.488   0.318   5.570  0.2260  0.4603 -0.0599
 2413SOL    HW113254   0.430   0.312   5.488  0.2575  0.7087 -0.0999
 2413SOL    HW213255   0.448   0.262   5.642  0.4925 -0.2127 -0.4231
 2414SOL     OW13256   0.142   4.821   4.929  0.4177  0.1109  0.1082
 2414SOL    HW113257   0.078   4.862   4.865  0.1527  1.2534  1.0829
 2414SOL    HW213258   0.100   4.741   4.971  1.3420 -2.0176 -2.6341
 2415SOL     OW13259   0.362   1.190   5.931 -0.3737  0.1507  0.2387
 2415SOL    HW113260   0.350   1.172   5.834  1.9429  0.7262 -0.1979
 2415SOL    HW213261   0.409   1.277   5.944 -0.3601 -0.0648  1.8596
 2416SOL     OW13262   2.822   2.619   5.148 -0.4181  0.1195  0.3419
 2416SOL    HW113263   2.732   2.663   5.146 -0.5693 -0.2025 -1.1723
 2416SOL    HW213264   2.870   2.646   5.231 -1.9871  0.1369  1.2834
 2417SOL     OW13265   4.748   1.134   0.599  0.0893  0.5881  0.0331
 2417SOL    HW113266   4.689   1.211   0.573 -0.3182 -0.6630 -3.1262
 2417SOL    HW213267   4.693   1.065   0.645  0.3454  1.8317  2.3659
 2418SOL     OW13268   0.335   3.331   6.352 -0.0717 -0.1657 -0.0977
 2418SOL    HW113269   0.410   3.398   6.354  1.6362 -1.9570 -0.5345
 2418SOL    HW213270   0.292   3.327   6.442  0.5978  0.6517  0.2757
 2419SOL     OW13271   4.821   5.534   0.559 -0.1087 -0.3963  0.5577
 2419SOL    HW113272   4.810   5.447   0.512 -2.4183  1.6013 -3.0934
 2419SOL    HW213273   4.732   5.567   0.591  0.1914  1.7424 -0.5689
 2420SOL     OW13274   3.658   1.409   0.124 -0.0416  0.7429  0.1370
 2420SOL    HW113275   3.622   1.361   0.043 -0.2963  2.5448 -0.8925
 2420SOL    HW213276   3.745   1.453   0.100  1.6391 -1.4375  1.8694
 2421SOL     OW13277   1.724   5.585   5.512 -1.2192  0.1348  0.2120
 2421SOL    HW113278   1.769   5.496   5.513 -0.4710  0.4903  1.6952
 2421SOL    HW213279   1.657   5.589   5.587 -3.5552 -0.2567 -1.7221
 2422SOL     OW13280   4.167   1.078   0.807 -0.3727  0.0197  0.6924
 2422SOL    HW113281   4.193   1.112   0.717 -0.4545 -0.1898  0.5895
 2422SOL    HW213282   4.243   1.093   0.871 -0.4165  0.4110  0.6539
 2423SOL     OW13283   5.384   6.007   0.198  0.0715 -0.5187  0.3264
 2423SOL    HW113284   5.326   6.069   0.144 -0.0193 -1.0758 -0.2334
 2423SOL    HW213285   5.452   6.060   0.248 -1.7923  0.2992  2.1346
 2424SOL     OW13286   1.017   4.835   6.285  0.0972  0.0707 -0.1283
 2424SOL    HW113287   1.059   4.767   6.346  1.4915  0.0804 -1.0361
 2424SOL    HW213288   0.934   4.871   6.327 -0.2679 -1.6480  0.7114
 2425SOL     OW13289   2.352   5.277   5.860 -0.2558  0.5011 -0.4436
 2425SOL    HW113290   2.387   5.315   5.775 -1.4575 -0.1426 -1.2557
 2425SOL    HW213291   2.324   5.182   5.845 -0.8221  0.4876  0.5733
 2426SOL     OW13292   3.301   1.791   4.665 -0.2301  0.2125  0.8435
 2426SOL    HW113293   3.369   1.865   4.670  0.6859 -0.4277 -0.9444
 2426SOL    HW213294   3.214   1.828   4.633  0.2091  0.5501  0.0108
 2427SOL     OW13295   2.635   5.936   1.266 -0.1026 -0.1257  0.3703
 2427SOL    HW113296   2.589   5.872   1.327  0.1444 -0.8468 -0.1862
 2427SOL    HW213297   2.732   5.942   1.290 -0.1203  0.0314  0.4082
 2428SOL     OW13298   0.767   5.951   0.342  0.6206 -0.4278  0.0730
 2428SOL    HW113299   0.856   5.979   0.380  0.2939  0.7715  0.0001
 2428SOL    HW213300   0.714   6.032   0.318 -0.0541 -1.1453 -0.9538
 2429SOL     OW13301   3.171   3.336   5.919  1.2229  0.2676  0.2626
 2429SOL    HW113302   3.104   3.262   5.917  1.6023 -0.0680 -0.1651
 2429SOL    HW213303   3.176   3.374   6.011 -0.7860  1.4211 -0.0389
 2430SOL     OW13304   0.579   3.535   0.243  0.4428 -0.0857  0.0675
 2430SOL    HW113305   0.528   3.621   0.249  0.2684 -0.1081 -0.9712
 2430SOL    HW213306   0.645   3.531   0.318 -1.3085 -0.2310  1.6929
 2431SOL     OW13307   2.045   4.231   5.849 -0.1265 -0.1471  0.1322
 2431SOL    HW113308   2.070   4.187   5.935  0.4116  2.0909  1.1864
 2431SOL    HW213309   2.046   4.330   5.860  0.8038  0.2557 -2.6774
 2432SOL     OW13310   2.648   5.360   0.682 -0.0254 -0.1781  0.0282
 2432SOL    HW113311   2.728   5.343   0.625 -0.9433 -1.5630 -0.9015
 2432SOL    HW213312   2.572   5.392   0.626 -0.1846  1.0195  0.8842
 2433SOL     OW13313   2.791   0.506   0.174  0.3480 -0.1379  0.5634
 2433SOL    HW113314   2.830   0.500   0.083  0.0623  1.1500  0.3364
 2433SOL    HW213315   2.773   0.414   0.209  0.5594 -0.6483 -0.6304
 2434SOL     OW13316   3.490   1.799   1.003 -0.9780  0.2302 -0.4565
 2434SOL    HW113317   3.579   1.797   1.049 -1.3672  0.7231  0.3494
 2434SOL    HW213318   3.462   1.706   0.979  0.2135  0.1630 -1.6308
 2435SOL     OW13319   2.332   5.827   5.776 -0.2240 -0.3139 -0.9513
 2435SOL    HW113320   2.319   5.753   5.842  0.6013 -0.4851 -0.9799
 2435SOL    HW213321   2.316   5.915   5.821  1.3099 -0.3663 -0.2461
 2436SOL     OW13322   1.009   1.787   0.872 -0.4160  0.0573 -0.0567
 2436SOL    HW113323   0.910   1.787   0.867 -0.3907 -1.3358 -1.4929
 2436SOL    HW213324   1.040   1.855   0.939 -2.2847  0.9589 -0.0643
 2437SOL     OW13325   4.164   3.767   0.964  0.4352 -0.0465 -0.8834
 2437SOL    HW113326   4.102   3.806   0.895  0.7233 -0.4324 -1.3650
 2437SOL    HW213327   4.254   3.808   0.955  0.7563 -0.8666 -1.4337
 2438SOL     OW13328   3.037   1.881   4.566 -0.2883 -0.5614  0.4535
 2438SOL    HW113329   3.036   1.980   4.577 -2.5762 -0.5456  0.6705
 2438SOL    HW213330   2.992   1.856   4.481 -2.7045 -1.4560  1.8790
 2439SOL     OW13331   4.050   3.574   0.738 -0.1970 -0.1315 -0.6758
 2439SOL    HW113332   4.132   3.558   0.792  0.7637  0.1467 -1.9933
 2439SOL    HW213333   3.971   3.530   0.782 -0.0756  2.4627  2.4355
 2440SOL     OW13334   1.083   3.810   6.119 -0.5384 -0.4508  0.0023
 2440SOL    HW113335   1.164   3.829   6.064 -0.3865  1.1492  0.7131
 2440SOL    HW213336   1.006   3.862   6.082 -0.5563  0.2247  0.9633
 2441SOL     OW13337   2.365   3.640   6.195 -0.5724 -0.2037  0.3023
 2441SOL    HW113338   2.322   3.550   6.206 -1.9353  0.3849 -0.0492
 2441SOL    HW213339   2.432   3.653   6.268 -0.4879 -1.4273  0.4694
 2442SOL     OW13340   0.922   2.561   0.705  0.0886  0.3145 -0.2468
 2442SOL    HW113341   0.914   2.609   0.792 -0.1173  0.4925 -0.3626
 2442SOL    HW213342   0.984   2.612   0.645 -1.6386  1.5092 -1.0856
 2443SOL     OW13343   0.527   4.518   0.066  0.2355  0.1502  0.0470
 2443SOL    HW113344   0.462   4.590   0.093  0.6210  0.1674  0.9772
 2443SOL    HW213345   0.481   4.452   0.007  0.0095  1.4280 -1.2453
 2444SOL     OW13346   5.332   2.391   6.051 -0.7260 -0.0392  0.1211
 2444SOL    HW113347   5.334   2.465   5.985 -0.2942 -0.3911 -0.2637
 2444SOL    HW213348   5.254   2.331   6.032 -0.2390 -0.4948 -0.4639
 2445SOL     OW13349   2.366   4.736   6.333 -0.0576  0.0109  0.5514
 2445SOL    HW113350   2.277   4.768   6.300 -0.0571 -0.4851  0.0477
 2445SOL    HW213351   2.438   4.798   6.303 -0.2474  0.5152  1.1168
 2446SOL     OW13352   0.350   6.199   6.032  0.3422  0.0569 -0.3039
 2446SOL    HW113353   0.425   6.230   6.091 -1.2145  1.7709  0.8822
 2446SOL    HW213354   0.271   6.175   6.089 -0.6381  0.1386 -1.5994
 2447SOL     OW13355   4.238   0.076   1.054  0.2177  0.3591  0.0280
 2447SOL    HW113356   4.239   0.087   1.153  1.7798 -0.8103  0.1813
 2447SOL    HW213357   4.276  -0.014   1.030 -1.2788  0.1115 -1.5814
 2448SOL     OW13358   5.549   3.765   6.124  0.1260 -0.4665 -0.3145
 2448SOL    HW113359   5.554   3.864   6.138 -1.4689 -0.4810  0.5485
 2448SOL    HW213360   5.641   3.727   6.122  0.7180  0.7993  1.1717
 2449SOL     OW13361   3.285   0.129   1.584 -0.2269 -0.1155 -0.4043
 2449SOL    HW113362   3.370   0.117   1.532 -0.0437  2.0897 -0.7102
 2449SOL    HW213363   3.248   0.040   1.608  0.3223 -1.2160 -3.2602
 2450SOL     OW13364   1.868   0.133   5.355  0.5831 -0.2946 -0.3263
 2450SOL    HW113365   1.836   0.046   5.318  1.5933 -0.7945 -0.0683
 2450SOL    HW213366   1.798   0.203   5.342 -1.5868 -1.8183  2.2401
 2451SOL     OW13367   4.595   6.117   6.274 -0.8175  0.7797  0.0385
 2451SOL    HW113368   4.614   6.052   6.202 -0.1689  0.9287  0.0740
 2451SOL    HW213369   4.497   6.137   6.276 -1.1342 -0.7416  0.4999
 2452SOL     OW13370   3.034   4.535   1.033 -0.2957  0.0499  0.2547
 2452SOL    HW113371   3.028   4.578   0.943 -1.8689 -2.6254 -1.0269
 2452SOL    HW213372   2.973   4.584   1.097 -0.7447  0.7341 -0.6756
 2453SOL     OW13373   2.079   5.643   5.715  0.2189  0.6615  0.0747
 2453SOL    HW113374   2.054   5.559   5.764  2.0659 -0.1445 -0.2454
 2453SOL    HW213375   2.110   5.711   5.781  0.5918  0.3663  0.2116
 2454SOL     OW13376   5.815   2.468   0.674  0.2700 -0.2879 -0.8991
 2454SOL    HW113377   5.722   2.479   0.639 -0.7076  1.3610  1.8964
 2454SOL    HW213378   5.813   2.411   0.755  1.6338  0.1351 -0.5462
 2455SOL     OW13379   0.800   6.030   5.709 -0.8756  0.2113  0.1649
 2455SOL    HW113380   0.721   6.091   5.702 -0.1105  1.2205  0.1101
 2455SOL    HW213381   0.793   5.976   5.793 -0.8754  1.3994  0.9584
 2456SOL     OW13382   2.477   4.025   1.873  0.2910 -0.0048 -0.2437
 2456SOL    HW113383   2.425   4.039   1.957  0.7045  0.6952 -0.0991
 2456SOL    HW213384   2.451   4.093   1.805  2.1091  1.3722  0.3681
 2457SOL     OW13385   2.885   2.197   0.054 -0.1745 -0.4406  0.1014
 2457SOL    HW113386   2.862   2.127  -0.014  2.1682 -0.1945 -1.0640
 2457SOL    HW213387   2.876   2.288   0.013 -0.3718 -0.2050  0.6629
 2458SOL     OW13388   3.284   6.250   1.596  0.3402  0.0816 -0.0187
 2458SOL    HW113389   3.305   6.167   1.646  0.6996  0.1285 -0.0894
 2458SOL    HW213390   3.347   6.260   1.519 -0.3716 -0.1285 -0.6429
 2459SOL     OW13391   4.829   0.501   5.902 -0.2457 -0.4356  0.0867
 2459SOL    HW113392   4.924   0.490   5.872  0.2120 -0.1250  1.3304
 2459SOL    HW213393   4.796   0.414   5.941 -0.9144 -0.9062 -1.4701
 2460SOL     OW13394   2.560   3.471   1.231 -0.1871  0.5412  0.0781
 2460SOL    HW113395   2.527   3.529   1.156 -2.3770 -0.1916  0.4051
 2460SOL    HW213396   2.558   3.375   1.203  0.2806  0.3656  0.6236
 2461SOL     OW13397   2.612   4.466   0.584 -0.1965 -0.6584 -0.0491
 2461SOL    HW113398   2.673   4.540   0.554  1.8019 -1.8422  0.9330
 2461SOL    HW213399   2.522   4.505   0.607  0.4370  1.2838 -0.6356
 2462SOL     OW13400   1.478   0.571   0.112  0.0173 -0.3030 -0.8881
 2462SOL    HW113401   1.458   0.658   0.159 -1.2464 -0.4013 -1.1959
 2462SOL    HW213402   1.538   0.588   0.034  1.2578  0.0188  0.1126
 2463SOL     OW13403   3.656   1.731   0.735  0.0520 -0.5945  0.5427
 2463SOL    HW113404   3.666   1.829   0.721 -2.1373 -0.0378  2.3101
 2463SOL    HW213405   3.602   1.692   0.660 -0.3753 -0.1357  0.6054
 2464SOL     OW13406   1.955   1.786   4.641 -0.4251 -0.4857 -0.1145
 2464SOL    HW113407   1.874   1.838   4.669 -0.6111 -0.7193 -0.2150
 2464SOL    HW213408   1.953   1.773   4.541  0.2438  0.3630 -0.2489
 2465SOL     OW13409   1.104   1.806   0.089  0.5093  0.0628  0.1695
 2465SOL    HW113410   1.125   1.791   0.186 -0.9055  0.2708  0.5404
 2465SOL    HW213411   1.181   1.850   0.044  1.7099 -1.2437  0.8784
 2466SOL     OW13412   1.254   5.326   5.043 -0.1891  0.2452 -0.3736
 2466SOL    HW113413   1.287   5.237   5.012 -0.9133 -0.7013  1.4009
 2466SOL    HW213414   1.233   5.383   4.964 -0.0926 -1.3048 -1.5712
 2467SOL     OW13415   3.323   2.050   5.476  0.4244 -0.0603  0.1013
 2467SOL    HW113416   3.368   1.962   5.463 -0.6638 -0.4449 -1.3186
 2467SOL    HW213417   3.228   2.035   5.505 -0.1617  0.5758 -1.3818
 2468SOL     OW13418   0.139   5.524   0.426 -0.3819  0.1024 -0.1004
 2468SOL    HW113419   0.043   5.544   0.409 -0.9430 -2.0921  0.1603
 2468SOL    HW213420   0.184   5.499   0.340 -0.6883 -1.2118  0.0955
 2469SOL     OW13421   5.954   2.557   0.029  0.6365 -0.0927  0.2688
 2469SOL    HW113422   6.046   2.521   0.047 -0.3338 -2.2244  1.3206
 2469SOL    HW213423   5.926   2.615   0.105  0.9354  0.2080  0.1534
 2470SOL     OW13424   1.346   0.417   6.089 -0.0270 -0.6101 -0.1613
 2470SOL    HW113425   1.374   0.446   5.997 -1.2109 -0.6360 -0.5505
 2470SOL    HW213426   1.250   0.390   6.087  0.0680 -1.0796  0.9914
 2471SOL     OW13427   4.973   1.745   1.346  0.6744  0.0435 -0.3339
 2471SOL    HW113428   4.897   1.703   1.396  0.4859  0.7115 -0.0575
 2471SOL    HW213429   4.978   1.842   1.367  0.6191  0.3316 -1.5899
 2472SOL     OW13430   1.001   1.655   0.544 -0.2310  0.3840  0.5574
 2472SOL    HW113431   1.006   1.648   0.643 -0.7603 -0.5526  0.5333
 2472SOL    HW213432   0.982   1.565   0.505 -1.4335  0.9749 -0.2898
 2473SOL     OW13433   5.920   3.174   5.316 -0.7625 -0.2120 -0.5111
 2473SOL    HW113434   5.986   3.171   5.241 -0.3587  0.2112 -0.1754
 2473SOL    HW213435   5.839   3.120   5.291 -1.6303  1.7413 -2.2110
 2474SOL     OW13436   3.423   2.489   4.455  0.1665  0.0693  0.0134
 2474SOL    HW113437   3.384   2.479   4.364  0.2877 -1.8850  0.1395
 2474SOL    HW213438   3.510   2.539   4.449  1.3310 -1.9683 -1.3059
 2475SOL     OW13439   3.396   3.872   0.704  0.1658 -0.2293  0.6068
 2475SOL    HW113440   3.385   3.785   0.656  0.1203 -1.4731  2.7397
 2475SOL    HW213441   3.322   3.934   0.679  0.9890 -0.1845 -2.0606
 2476SOL     OW13442   0.706   6.077   1.297  0.2053 -0.7890  0.2800
 2476SOL    HW113443   0.691   6.111   1.205  3.0860  0.2698  0.1006
 2476SOL    HW213444   0.667   6.140   1.363 -1.0108 -1.0484 -0.1741
 2477SOL     OW13445   2.501   3.077   6.512 -0.0212  0.5651  0.4565
 2477SOL    HW113446   2.520   3.167   6.551 -0.4008  0.4118  1.0054
 2477SOL    HW213447   2.560   3.009   6.556 -1.1648  0.2268  1.5297
 2478SOL     OW13448   5.414   4.819   6.073  0.1079 -0.0727  0.0386
 2478SOL    HW113449   5.333   4.875   6.090  0.2518  0.7261 -1.6589
 2478SOL    HW213450   5.387   4.728   6.044 -0.2707  0.5779 -1.8087
 2479SOL     OW13451   2.372   1.616   0.480 -0.0054  0.4171  0.0229
 2479SOL    HW113452   2.463   1.619   0.523  0.0900  0.5132 -0.1849
 2479SOL    HW213453   2.366   1.534   0.423  0.1702  0.7317 -0.4489
 2480SOL     OW13454   1.047   0.258   4.502  0.1666 -0.4037 -0.4306
 2480SOL    HW113455   1.064   0.266   4.404  1.1931  0.8235 -0.1915
 2480SOL    HW213456   0.954   0.227   4.518 -0.0661 -0.4672 -1.7923
 2481SOL     OW13457   5.043   4.004   6.469 -0.9590 -0.4559 -0.1783
 2481SOL    HW113458   5.065   3.957   6.554  0.1583  0.3210 -0.0083
 2481SOL    HW213459   5.107   3.974   6.398 -1.7914 -0.9893 -0.7160
 2482SOL     OW13460   2.161   3.512   5.638 -0.0720  0.0028 -0.4338
 2482SOL    HW113461   2.131   3.431   5.588 -0.1419  0.8279 -1.7698
 2482SOL    HW213462   2.258   3.528   5.620  0.0346  0.0172  0.1259
 2483SOL     OW13463   5.558   1.647   6.011  0.9670  0.1049  0.2695
 2483SOL    HW113464   5.541   1.588   5.932  0.6255 -2.7157  2.2948
 2483SOL    HW213465   5.487   1.717   6.016 -0.1625 -0.9171 -0.8255
 2484SOL     OW13466   2.453   0.272   5.180 -0.0516 -0.5688 -0.0799
 2484SOL    HW113467   2.414   0.217   5.106  0.7809 -2.7603  1.0258
 2484SOL    HW213468   2.543   0.236   5.204 -0.3740 -0.0321  2.1013
 2485SOL     OW13469   5.328   2.480   0.036 -0.5422 -0.1353  0.3695
 2485SOL    HW113470   5.387   2.416  -0.014 -0.8708 -0.3713  0.2791
 2485SOL    HW213471   5.382   2.526   0.107  0.1158  0.7644 -0.6852
 2486SOL     OW13472   4.239   4.978   0.737  0.0032 -0.0628  0.0291
 2486SOL    HW113473   4.283   4.939   0.657  2.8086 -0.3959  1.5941
 2486SOL    HW213474   4.284   4.944   0.820 -1.5451  1.6663  1.6852
 2487SOL     OW13475   2.474   2.631   4.872 -0.1905  0.2170  0.2319
 2487SOL    HW113476   2.472   2.694   4.794  2.0217  2.1009  1.5463
 2487SOL    HW213477   2.513   2.544   4.844  0.6374  0.8892 -0.7706
 2488SOL     OW13478   2.856   6.233   0.223 -0.1355  0.3565 -0.3462
 2488SOL    HW113479   2.854   6.166   0.149 -0.9023 -0.2439  0.2072
 2488SOL    HW213480   2.785   6.302   0.208  0.0324  0.5155 -0.4193
 2489SOL     OW13481   0.788   3.559   5.129 -0.4346  0.1992 -0.0131
 2489SOL    HW113482   0.764   3.575   5.033  0.7382 -1.6696 -0.6545
 2489SOL    HW213483   0.795   3.647   5.176 -1.6325  1.1270 -1.4567
 2490SOL     OW13484   6.224   5.313   0.432 -0.7050 -0.3347  0.0460
 2490SOL    HW113485   6.274   5.364   0.502 -1.7233  1.0703 -0.1880
 2490SOL    HW213486   6.252   5.345   0.341 -2.9296  1.5474 -0.0895
 2491SOL     OW13487   3.106   3.764   0.498  0.1334 -0.5399  0.3001
 2491SOL    HW113488   3.088   3.764   0.400  2.9614  0.8292 -0.3210
 2491SOL    HW213489   3.020   3.776   0.548 -1.3344 -0.9613 -1.9666
 2492SOL     OW13490   3.037   1.708   0.528 -0.1447 -1.0783 -0.3145
 2492SOL    HW113491   3.122   1.757   0.509 -0.2137 -0.1272  1.6040
 2492SOL    HW213492   2.984   1.699   0.443  1.5196 -1.0785 -1.4099
 2493SOL     OW13493   5.362   5.142   0.185 -0.3360 -0.2454  0.5388
 2493SOL    HW113494   5.336   5.237   0.166 -0.6806  0.0093  2.1094
 2493SOL    HW213495   5.462   5.135   0.189 -0.2824 -0.1417 -0.4251
 2494SOL     OW13496   3.987   5.046   0.202  0.0758 -0.4166  0.7936
 2494SOL    HW113497   3.931   5.068   0.122 -0.6694  1.2567  1.7243
 2494SOL    HW213498   4.023   5.130   0.242  2.2473 -1.3590  0.9817
 2495SOL     OW13499   0.341   2.838   1.470  0.0889  0.1357  0.0102
 2495SOL    HW113500   0.358   2.904   1.544  0.6127 -0.0304  0.0426
 2495SOL    HW213501   0.258   2.787   1.491  1.5804 -1.7297  1.8440
 2496SOL     OW13502   0.425   2.045   4.975 -0.2254 -0.6773  0.3191
 2496SOL    HW113503   0.366   2.116   4.936 -0.3446 -0.6460  0.5551
 2496SOL    HW213504   0.451   1.980   4.903 -0.5717 -0.7094  0.2196
 2497SOL     OW13505   1.778   0.811   0.732  0.2262 -0.4295  0.0946
 2497SOL    HW113506   1.711   0.756   0.681 -1.3495  1.6586 -0.2173
 2497SOL    HW213507   1.869   0.795   0.695 -0.4953 -1.1262 -1.4723
 2498SOL     OW13508   1.431   5.235   6.427  0.0689 -0.1036  0.1626
 2498SOL    HW113509   1.489   5.314   6.442 -0.1596  0.2690 -0.8193
 2498SOL    HW213510   1.365   5.227   6.502  1.0333 -0.2270  1.0105
 2499SOL     OW13511   5.032   2.520   6.509  0.3332  0.4213 -0.3833
 2499SOL    HW113512   5.129   2.495   6.519 -0.0427 -0.9100  0.2821
 2499SOL    HW213513   5.020   2.574   6.426  1.5438  0.0405 -0.8384
 2500SOL     OW13514   2.629   0.237   4.545  0.2287  0.3444  0.7320
 2500SOL    HW113515   2.654   0.175   4.470  1.7445  0.8814  0.7427
 2500SOL    HW213516   2.575   0.313   4.508  0.4525  0.2881  0.2720
 2501SOL     OW13517   1.288   1.825   5.197  0.6936 -0.3284  0.1646
 2501SOL    HW113518   1.332   1.735   5.194  0.2668 -0.5101 -1.3265
 2501SOL    HW213519   1.259   1.851   5.105 -0.9960  0.4354  0.8738
 2502SOL     OW13520   3.863   1.169   0.526  0.5747  0.8407  0.6673
 2502SOL    HW113521   3.918   1.112   0.586 -0.3057  0.0288  0.7331
 2502SOL    HW213522   3.832   1.250   0.576 -1.0942 -0.3755  1.7311
 2503SOL     OW13523   5.055   3.530   0.098 -0.6022 -0.4886 -0.0397
 2503SOL    HW113524   5.125   3.479   0.147  0.1729  2.4117  2.1377
 2503SOL    HW213525   4.965   3.508   0.137 -0.3415 -0.5868  0.5165
 2504SOL     OW13526   3.174   1.461   0.266  0.4162  0.1350 -0.8755
 2504SOL    HW113527   3.100   1.406   0.227 -0.3577  2.0276 -2.2682
 2504SOL    HW213528   3.150   1.558   0.258  0.9458  0.7311  3.0338
 2505SOL     OW13529   5.871   4.384   1.835  0.9470  0.0737 -0.0282
 2505SOL    HW113530   5.923   4.455   1.787  2.8747 -0.7120  0.8039
 2505SOL    HW213531   5.897   4.384   1.932 -3.2142  1.9744  1.3014
 2506SOL     OW13532   5.788   5.673   4.718  0.3622 -0.4033 -0.0175
 2506SOL    HW113533   5.831   5.763   4.708 -1.0335  0.4843  1.5250
 2506SOL    HW213534   5.855   5.601   4.698  1.6206  0.9526 -0.8502
 2507SOL     OW13535   1.387   3.466   6.061  0.3341  0.6835 -0.6872
 2507SOL    HW113536   1.303   3.459   6.115  0.5465  0.4363 -0.3821
 2507SOL    HW213537   1.428   3.375   6.052  0.0572  0.6455 -1.6562
 2508SOL     OW13538   4.147   5.341   6.461  0.4611  0.5790 -0.1596
 2508SOL    HW113539   4.230   5.293   6.432 -1.4871 -3.1543 -0.1630
 2508SOL    HW213540   4.095   5.370   6.381 -0.4222 -1.3519 -0.3437
 2509SOL     OW13541   3.567   3.078   1.150 -0.1037 -0.2640  0.4500
 2509SOL    HW113542   3.558   3.177   1.161  0.7519 -0.3490  2.1453
 2509SOL    HW213543   3.662   3.051   1.162 -0.1143 -1.1790 -1.2422
 2510SOL     OW13544   5.506   6.193   5.149  0.1039  0.0047 -0.0879
 2510SOL    HW113545   5.461   6.228   5.066  0.1092  0.2119 -0.0054
 2510SOL    HW213546   5.512   6.094   5.144  0.4275  0.0399 -0.5027
 2511SOL     OW13547   1.420   0.479   5.581 -0.1068 -0.7740  0.6260
 2511SOL    HW113548   1.343   0.536   5.610  1.3487  2.0359 -0.6851
 2511SOL    HW213549   1.389   0.417   5.508 -1.7761 -2.0032  2.2603
 2512SOL     OW13550   2.475   2.205   5.339  0.2696  0.4170 -0.4198
 2512SOL    HW113551   2.381   2.218   5.370  0.1633 -1.1078 -0.0141
 2512SOL    HW213552   2.496   2.272   5.268 -0.8380  1.3076  0.0506
 2513SOL     OW13553   4.359   3.793   5.997 -0.4702  0.1835 -0.0049
 2513SOL    HW113554   4.405   3.855   6.060 -0.2712  0.1197 -0.0881
 2513SOL    HW213555   4.266   3.826   5.981 -0.8995 -0.4055  1.1862
 2514SOL     OW13556   0.316   0.326   5.333  0.2354 -0.1189  0.1642
 2514SOL    HW113557   0.387   0.319   5.263  1.7542  1.0161  1.5226
 2514SOL    HW213558   0.247   0.254   5.318  0.9187 -0.3935 -1.9881
 2515SOL     OW13559   2.786   4.989   0.315  0.5140  0.4914  0.1251
 2515SOL    HW113560   2.688   4.994   0.333  0.7723  0.7374  1.5470
 2515SOL    HW213561   2.803   5.016   0.220 -0.8940 -0.6732 -0.5022
 2516SOL     OW13562   3.068   3.102   1.255  0.0100 -0.5905  0.7943
 2516SOL    HW113563   3.163   3.072   1.243  0.7889  2.5045 -2.1965
 2516SOL    HW213564   3.066   3.186   1.309 -0.3089  1.8533 -2.6666
 2517SOL     OW13565   3.517   4.386   0.062 -0.3027 -0.3696  0.1323
 2517SOL    HW113566   3.606   4.342   0.076 -0.3211 -0.1460  1.0208
 2517SOL    HW213567   3.448   4.316   0.040  0.1850 -0.4896 -1.0964
 2518SOL     OW13568   0.925   5.522   0.259 -0.3791 -0.0023 -0.5539
 2518SOL    HW113569   0.879   5.435   0.276 -0.0660 -0.4313 -1.7710
 2518SOL    HW213570   0.901   5.555   0.168  0.4622  0.5691 -0.5863
 2519SOL     OW13571   0.925   0.029   1.519 -0.2861  0.4063  0.3271
 2519SOL    HW113572   0.825   0.023   1.514 -0.3766 -0.8937  2.4934
 2519SOL    HW213573   0.952   0.125   1.526 -1.5096  0.7055  1.3601
 2520SOL     OW13574   4.669   0.231   6.192  0.0195 -0.1284 -0.1295
 2520SOL    HW113575   4.650   0.137   6.166  1.3582 -0.2875 -0.6269
 2520SOL    HW213576   4.633   0.293   6.122  0.4794 -0.3638 -0.5819
 2521SOL     OW13577   3.441   3.315   5.810  0.4802  0.1426  0.4776
 2521SOL    HW113578   3.344   3.322   5.835  0.4509  1.2377  0.0767
 2521SOL    HW213579   3.460   3.222   5.779 -0.5094 -0.0031  0.2707
 2522SOL     OW13580   3.215   5.368   0.324  0.8097  0.3974 -0.1579
 2522SOL    HW113581   3.181   5.274   0.334  1.4636  0.1122 -0.5307
 2522SOL    HW213582   3.166   5.413   0.250 -0.3240  0.7537  0.7690
 2523SOL     OW13583   5.573   1.267   0.744 -0.3568 -0.0296 -0.0046
 2523SOL    HW113584   5.508   1.197   0.715  0.8793 -0.5218 -1.7440
 2523SOL    HW213585   5.557   1.289   0.840 -1.0168 -2.4537  0.5077
 2524SOL     OW13586   5.978   4.307   1.156  0.1697  0.4145 -0.2106
 2524SOL    HW113587   5.989   4.352   1.244  1.3035 -2.2038  1.1164
 2524SOL    HW213588   5.893   4.254   1.156  0.6108 -0.3105 -0.3168
 2525SOL     OW13589   4.628   4.020   1.395 -0.2883 -0.0157 -0.5383
 2525SOL    HW113590   4.725   4.012   1.373  0.0087 -0.0563  0.7222
 2525SOL    HW213591   4.610   4.110   1.434 -0.8471  0.1447 -1.1423
 2526SOL     OW13592   5.600   3.154   5.863  0.1931 -0.2198  0.2955
 2526SOL    HW113593   5.632   3.172   5.956 -0.1865  2.1642  0.0399
 2526SOL    HW213594   5.668   3.186   5.797 -1.0991  1.6593 -0.2179
 2527SOL     OW13595   4.347   2.419   6.400  0.0143  0.0342 -0.8330
 2527SOL    HW113596   4.256   2.381   6.418  1.4222 -2.7011  1.3340
 2527SOL    HW213597   4.356   2.507   6.446 -0.8910 -0.7035  0.8694
 2528SOL     OW13598   2.078   5.997   0.959 -0.4719  0.4567 -0.2009
 2528SOL    HW113599   2.068   5.959   1.051 -0.7092  0.4876 -0.2125
 2528SOL    HW213600   1.999   6.054   0.938 -1.3394 -1.0161 -1.1194
 2529SOL     OW13601   2.574   1.800   0.007  0.6781 -0.3153  0.2627
 2529SOL    HW113602   2.475   1.796   0.012  0.6510  0.9595  2.7979
 2529SOL    HW213603   2.612   1.708   0.012 -0.3686 -0.7079  1.5373
 2530SOL     OW13604   1.550   0.326   0.152 -0.2798  0.1798 -0.2089
 2530SOL    HW113605   1.614   0.301   0.080 -0.7745  0.3463 -0.7147
 2530SOL    HW213606   1.512   0.417   0.133 -1.0593 -0.1363 -0.2053
 2531SOL     OW13607   0.357   5.519   0.901 -0.3713  0.2410  0.2638
 2531SOL    HW113608   0.412   5.485   0.977 -0.7634  0.6868  0.7490
 2531SOL    HW213609   0.262   5.528   0.929 -0.1785  2.4343  0.4044
 2532SOL     OW13610   4.280   5.959   0.804  0.0291  0.0323 -0.3381
 2532SOL    HW113611   4.360   5.964   0.864 -1.8729 -0.3839  2.3731
 2532SOL    HW213612   4.285   5.877   0.747  1.2868 -0.2295  0.1301
 2533SOL     OW13613   5.492   5.201   5.605 -0.1687  0.0611 -0.2167
 2533SOL    HW113614   5.440   5.171   5.526 -2.3125 -1.2908  1.5676
 2533SOL    HW213615   5.587   5.173   5.595 -0.4871 -0.4844 -2.0854
 2534SOL     OW13616   2.511   3.796   1.755  0.2613 -0.0878 -0.3801
 2534SOL    HW113617   2.496   3.885   1.798 -1.0935 -0.7716  0.6696
 2534SOL    HW213618   2.559   3.736   1.820 -2.9343 -1.5445  0.8655
 2535SOL     OW13619   3.007   0.548   2.267 -0.0310  0.6949 -0.4090
 2535SOL    HW113620   2.928   0.607   2.277 -0.3913  0.0811  0.4700
 2535SOL    HW213621   2.984   0.456   2.299  0.6731  0.2020 -1.2619
 2536SOL     OW13622   2.826   0.025   5.106 -0.1142 -0.6544  0.3963
 2536SOL    HW113623   2.795   0.009   5.012  1.8707 -0.5049 -0.3298
 2536SOL    HW213624   2.923   0.048   5.105  0.0922 -1.2869  2.5686
 2537SOL     OW13625   5.681   0.660   0.664 -0.2523  0.5322 -0.4933
 2537SOL    HW113626   5.591   0.623   0.688 -0.7280  0.2724 -2.4618
 2537SOL    HW213627   5.742   0.655   0.743 -1.1278 -1.9412  0.1072
 2538SOL     OW13628   1.056   2.507   5.612 -0.0954  0.1738  0.4466
 2538SOL    HW113629   1.144   2.498   5.660 -1.0366  0.0475  2.2547
 2538SOL    HW213630   1.044   2.602   5.583 -0.4665  0.8438  2.5731
 2539SOL     OW13631   1.024   5.812   6.226 -0.6859  0.0647 -0.4547
 2539SOL    HW113632   1.003   5.832   6.321  2.9901 -2.1908  1.0267
 2539SOL    HW213633   1.077   5.887   6.187 -0.6561  0.2091 -0.1376
 2540SOL     OW13634   4.368   3.452   1.151 -0.2949  0.2431  0.1428
 2540SOL    HW113635   4.270   3.433   1.145 -0.0150 -1.0414 -0.5684
 2540SOL    HW213636   4.397   3.444   1.247 -0.6854 -0.4809  0.2115
 2541SOL     OW13637   3.343   5.142   0.522 -0.2131  0.1267  0.2385
 2541SOL    HW113638   3.246   5.151   0.501 -0.2652  0.7088  0.6886
 2541SOL    HW213639   3.397   5.162   0.441 -0.4898 -2.4766 -0.6843
 2542SOL     OW13640   1.394   0.950   4.452  0.2855 -0.0857  0.0242
 2542SOL    HW113641   1.381   1.010   4.531  0.3623  1.2223 -0.9279
 2542SOL    HW213642   1.314   0.892   4.441 -0.2174  0.5210  0.3982
 2543SOL     OW13643   1.450   1.280   0.226 -0.1111  0.2229 -0.5294
 2543SOL    HW113644   1.507   1.343   0.279  2.2052  0.1584 -2.7371
 2543SOL    HW213645   1.493   1.189   0.226 -0.5414  0.0055 -1.7065
 2544SOL     OW13646   2.460   3.519   5.436 -0.7686 -0.7974 -0.9405
 2544SOL    HW113647   2.382   3.535   5.375 -0.4288  0.1212 -1.1629
 2544SOL    HW213648   2.509   3.606   5.450 -0.0678 -1.2660 -0.4236
 2545SOL     OW13649   1.291   3.541   0.103 -0.3162 -0.1454  0.0420
 2545SOL    HW113650   1.259   3.631   0.131  0.1930  0.2325 -0.5616
 2545SOL    HW213651   1.318   3.544   0.007 -0.9713 -1.1204 -0.1945
 2546SOL     OW13652   4.688   0.099   5.572  0.3471  0.8663 -0.2310
 2546SOL    HW113653   4.703   0.003   5.552 -0.5354  0.5294  0.6738
 2546SOL    HW213654   4.776   0.148   5.570  0.9620 -0.1798  0.4717
 2547SOL     OW13655   2.142   4.639   5.059 -0.2365  0.7702 -0.7474
 2547SOL    HW113656   2.109   4.559   5.109 -0.5788  0.5783 -1.2741
 2547SOL    HW213657   2.200   4.694   5.119 -3.8479  2.7679  1.2543
 2548SOL     OW13658   1.566   3.229   4.738 -0.4289  0.2141 -0.3884
 2548SOL    HW113659   1.581   3.279   4.823 -1.7902  0.0482 -0.0376
 2548SOL    HW213660   1.655   3.212   4.693  0.4406 -0.7611  1.5832
 2549SOL     OW13661   4.881   1.958   0.712 -0.6567  0.1729  0.2274
 2549SOL    HW113662   4.925   2.045   0.691  0.5737 -0.1507  1.3301
 2549SOL    HW213663   4.878   1.901   0.629 -2.1446  1.5057 -0.6860
 2550SOL     OW13664   2.915   2.592   5.650  0.0161 -0.2198 -0.2278
 2550SOL    HW113665   2.951   2.509   5.692  1.1679 -0.7428 -2.1646
 2550SOL    HW213666   2.885   2.655   5.722 -2.5581 -2.9584  1.3164
 2551SOL     OW13667   3.447   4.622   0.785 -0.7467  0.0189 -0.4167
 2551SOL    HW113668   3.400   4.695   0.736  0.3792 -0.6128 -2.5951
 2551SOL    HW213669   3.387   4.541   0.790 -0.4859 -0.2818 -1.8132
 2552SOL     OW13670   5.248   5.417   6.442 -0.2702 -0.7198 -0.1163
 2552SOL    HW113671   5.257   5.447   6.347  0.2853 -1.0292 -0.1655
 2552SOL    HW213672   5.194   5.484   6.493 -1.1481 -0.8799 -0.8058
 2553SOL     OW13673   4.105   6.057   5.408  0.3414 -0.0230 -0.0177
 2553SOL    HW113674   4.084   6.107   5.492  2.0638  3.2375 -1.3661
 2553SOL    HW213675   4.096   6.118   5.329  1.1511 -2.2927 -1.9852
 2554SOL     OW13676   5.549   2.298   5.811 -0.7849  0.4504 -0.0952
 2554SOL    HW113677   5.612   2.360   5.764 -0.2817  1.2276  1.5341
 2554SOL    HW213678   5.574   2.203   5.790  0.8268  0.7460  0.3441
 2555SOL     OW13679   2.607   1.676   0.643  0.7424  0.1247  0.0137
 2555SOL    HW113680   2.700   1.694   0.674  0.2802  0.7939  1.0641
 2555SOL    HW213681   2.542   1.711   0.711 -0.2641 -1.2042 -0.2285
 2556SOL     OW13682   6.245   2.195   0.765  0.2107 -0.3140 -0.0852
 2556SOL    HW113683   6.197   2.107   0.766 -0.7176  0.1755  1.2950
 2556SOL    HW213684   6.241   2.234   0.673 -0.9441 -0.8822 -0.2964
 2557SOL     OW13685   4.490   0.134   4.890 -0.4657  0.1654 -0.1552
 2557SOL    HW113686   4.575   0.103   4.934 -0.7414 -0.0835  0.2032
 2557SOL    HW213687   4.453   0.212   4.940  0.0692  0.9138 -0.8833
 2558SOL     OW13688   3.812   1.421   0.669 -0.3954  0.4874 -0.0021
 2558SOL    HW113689   3.714   1.425   0.688 -0.5508  1.1408 -0.8660
 2558SOL    HW213690   3.842   1.509   0.633  0.3720  0.0859 -0.3619
 2559SOL     OW13691   4.909   4.103   5.599  0.3853 -0.1893 -0.4465
 2559SOL    HW113692   5.003   4.067   5.600  0.7031  0.6263  0.0226
 2559SOL    HW213693   4.912   4.202   5.588 -0.4369 -0.1726 -0.5659
 2560SOL     OW13694   6.062   5.056   5.215  0.2699 -0.2340  0.3368
 2560SOL    HW113695   6.086   5.108   5.132  0.9916 -0.5146  0.3587
 2560SOL    HW213696   6.099   4.963   5.208  1.3862  0.0989  1.4851
 2561SOL     OW13697   3.562   2.924   5.664  0.4353 -0.2498  0.5810
 2561SOL    HW113698   3.507   2.991   5.614  1.3971 -0.5625 -0.9725
 2561SOL    HW213699   3.657   2.930   5.633  0.9911 -0.7597  2.1103
 2562SOL     OW13700   4.979   3.821   1.480 -0.0475  0.4570 -0.4497
 2562SOL    HW113701   5.029   3.758   1.420 -0.2200 -1.5323  1.3783
 2562SOL    HW213702   5.003   3.803   1.575 -3.4697  0.0421  0.4720
 2563SOL     OW13703   1.717   1.176   6.510  0.3180  0.0261  0.1354
 2563SOL    HW113704   1.719   1.275   6.498  0.9717  0.8471  4.7855
 2563SOL    HW213705   1.624   1.146   6.532  0.6872  0.4116  2.5317
 2564SOL     OW13706   3.548   2.013   0.708  0.0372 -0.0883 -0.5450
 2564SOL    HW113707   3.529   2.057   0.796 -0.3561  0.2557 -0.7968
 2564SOL    HW213708   3.467   1.963   0.678 -0.1590  0.5872 -1.1678
 2565SOL     OW13709   4.830   5.734   0.153  0.3758 -0.1368 -0.0058
 2565SOL    HW113710   4.746   5.707   0.105 -0.1800  0.8193  0.3841
 2565SOL    HW213711   4.902   5.668   0.134 -0.2620 -0.5986 -0.9213
 2566SOL     OW13712   1.891   6.129   5.742 -0.3155 -0.1290 -0.0944
 2566SOL    HW113713   1.824   6.201   5.725  0.0367 -0.0876 -1.4141
 2566SOL    HW213714   1.984   6.168   5.739 -0.1661 -0.4240  0.4306
 2567SOL     OW13715   3.809   6.129   5.641  0.9011 -0.1881 -0.1129
 2567SOL    HW113716   3.855   6.040   5.641 -1.7987 -1.7131  0.4577
 2567SOL    HW213717   3.747   6.134   5.562  1.4530  1.5028 -0.4909
 2568SOL     OW13718   6.282   0.672   6.184 -0.5573  0.4043 -1.1159
 2568SOL    HW113719   6.237   0.735   6.248  4.2050  1.5570  1.5986
 2568SOL    HW213720   6.308   0.722   6.101  2.0542  1.9461  0.4862
 2569SOL     OW13721   0.283   2.263   0.800  0.6002  0.6227 -0.1939
 2569SOL    HW113722   0.358   2.200   0.780 -1.7890 -1.7580 -2.3490
 2569SOL    HW213723   0.248   2.302   0.715 -1.8885  0.0484  0.4835
 2570SOL     OW13724   1.749   5.127   1.259  0.3977  0.5272  0.2253
 2570SOL    HW113725   1.650   5.120   1.275  0.3528  0.2453 -0.1723
 2570SOL    HW213726   1.795   5.051   1.307  0.5599  1.4096  1.5276
 2571SOL     OW13727   4.687   5.603   6.315 -0.3666 -0.6103 -0.0283
 2571SOL    HW113728   4.619   5.625   6.385  1.4113 -1.0725  1.9607
 2571SOL    HW213729   4.669   5.513   6.277 -0.1760 -1.2684  1.4001
 2572SOL     OW13730   4.182   0.315   1.754  0.8278  0.1299 -0.6173
 2572SOL    HW113731   4.184   0.265   1.840  0.8136 -0.8887 -1.1903
 2572SOL    HW213732   4.214   0.409   1.768 -1.0629  0.6224  0.8962
 2573SOL     OW13733   0.546   2.593   0.048  0.7771  0.6691 -0.0085
 2573SOL    HW113734   0.620   2.537   0.011 -1.9625 -2.2950 -1.4952
 2573SOL    HW213735   0.503   2.645  -0.026  0.7371  1.6540  0.6782
 2574SOL     OW13736   3.596   3.549   0.218  0.5187  0.5829 -0.0780
 2574SOL    HW113737   3.504   3.581   0.196  0.7407  1.2310 -0.0744
 2574SOL    HW213738   3.656   3.564   0.140  0.4879 -0.3987 -0.3025
 2575SOL     OW13739   3.005   5.055   0.660  0.1633 -0.2959 -0.4889
 2575SOL    HW113740   2.985   4.960   0.638 -0.1619 -0.8408  1.9570
 2575SOL    HW213741   3.074   5.059   0.732  1.0270  1.3761 -1.3471
 2576SOL     OW13742   1.257   5.657   0.831  0.5773  0.5659  0.3123
 2576SOL    HW113743   1.254   5.747   0.788  1.1050  0.1651 -0.5930
 2576SOL    HW213744   1.332   5.604   0.793  0.5156 -0.1236  1.1193
 2577SOL     OW13745   1.059   2.166   5.521  0.2442 -0.2021 -0.3024
 2577SOL    HW113746   1.106   2.154   5.609  0.1775 -0.4643 -0.3018
 2577SOL    HW213747   1.097   2.246   5.474  0.4452 -0.2005 -0.1406
 2578SOL     OW13748   0.876   1.059   1.120 -0.7846 -0.4597  0.0387
 2578SOL    HW113749   0.915   0.975   1.155 -0.2942 -0.6229 -0.8811
 2578SOL    HW213750   0.777   1.060   1.138 -0.4447 -0.1345  2.1834
 2579SOL     OW13751   5.644   0.947   5.717 -0.1373  0.1015  0.3015
 2579SOL    HW113752   5.726   0.905   5.677 -0.2733  0.3294 -0.2338
 2579SOL    HW213753   5.598   0.882   5.777  0.6263  0.0835  0.8893
 2580SOL     OW13754   2.359   0.916   1.018  0.0496  0.0655  0.0347
 2580SOL    HW113755   2.447   0.934   1.061  0.7842  1.4877 -1.9138
 2580SOL    HW213756   2.372   0.854   0.941 -0.5843  0.5975 -0.5058
 2581SOL     OW13757   5.375   4.351   1.916 -0.4210 -0.0153 -0.1309
 2581SOL    HW113758   5.412   4.397   1.835 -0.5972 -0.8564 -0.7106
 2581SOL    HW213759   5.284   4.387   1.937 -0.3058  0.3224 -0.2099
 2582SOL     OW13760   1.234   4.467   5.479  0.1802  0.6263 -0.6703
 2582SOL    HW113761   1.220   4.530   5.404  2.4367 -0.2766 -1.9617
 2582SOL    HW213762   1.283   4.386   5.446  1.9945  0.5445  1.8691
 2583SOL     OW13763   0.331   5.088   5.869  0.4521 -0.0767 -0.5414
 2583SOL    HW113764   0.298   5.162   5.811 -1.6007 -0.8660 -0.4716
 2583SOL    HW213765   0.315   5.000   5.823  0.2949 -0.6171  0.5160
 2584SOL     OW13766   5.520   1.339   0.993 -0.4012 -0.3366  0.5768
 2584SOL    HW113767   5.609   1.347   1.037  0.5762 -0.2818 -1.3301
 2584SOL    HW213768   5.450   1.381   1.052  1.3948  3.2322  0.4597
 2585SOL     OW13769   2.647   4.478   0.237 -0.2318 -0.2804  0.2016
 2585SOL    HW113770   2.625   4.502   0.332  3.1394 -3.5500  2.0992
 2585SOL    HW213771   2.575   4.421   0.200 -2.2047  2.0528  0.1992
 2586SOL     OW13772   2.148   1.550   4.964  0.6990  0.6310 -0.2621
 2586SOL    HW113773   2.203   1.559   5.046 -1.0094  1.4138  0.8397
 2586SOL    HW213774   2.114   1.639   4.936  0.1985  0.1989 -1.0681
 2587SOL     OW13775   1.574   3.249   6.067  0.2215  0.0134 -0.0327
 2587SOL    HW113776   1.604   3.233   6.161 -1.4319 -1.4944  0.3038
 2587SOL    HW213777   1.645   3.297   6.016  0.8555  1.6098  2.1895
 2588SOL     OW13778   2.394   2.781   5.781 -0.2285  0.3002 -0.9006
 2588SOL    HW113779   2.361   2.869   5.814 -0.3799 -0.0594 -0.0726
 2588SOL    HW213780   2.453   2.739   5.850 -0.5097 -0.4431 -1.0993
 2589SOL     OW13781   5.015   6.180   6.187 -0.3507 -0.2625 -0.1719
 2589SOL    HW113782   4.985   6.251   6.250  1.8239  0.1957  0.4075
 2589SOL    HW213783   4.994   6.090   6.225  0.0031  0.0308  0.7340
 2590SOL     OW13784   4.308   2.027   1.591  0.0044  0.5380 -0.1424
 2590SOL    HW113785   4.321   2.120   1.626 -1.4861  0.3288  1.0472
 2590SOL    HW213786   4.339   1.961   1.660  0.9120  0.1239 -0.9190
 2591SOL     OW13787   6.354   3.113   5.572 -0.5235 -0.5498  0.2510
 2591SOL    HW113788   6.277   3.081   5.517  0.0623  1.6449 -1.9723
 2591SOL    HW213789   6.439   3.097   5.523  0.2598 -0.6536  1.5896
 2592SOL     OW13790   2.284   5.051   5.750  0.5159 -0.2809 -0.2534
 2592SOL    HW113791   2.298   4.954   5.734 -0.0087 -0.4207  0.1008
 2592SOL    HW213792   2.230   5.090   5.675  0.9455 -0.2075 -0.5245
 2593SOL     OW13793   6.173   3.792   6.025  0.9078 -0.1341 -0.1491
 2593SOL    HW113794   6.215   3.860   5.966  1.6626  0.6582  1.2505
 2593SOL    HW213795   6.196   3.811   6.120  0.1541 -1.6657  0.3826
 2594SOL     OW13796   4.793   3.988   6.390  0.0414  0.3737 -0.3526
 2594SOL    HW113797   4.791   3.952   6.297  1.6265  0.7210 -0.5541
 2594SOL    HW213798   4.885   3.978   6.428 -0.5482  0.3289  1.1549
 2595SOL     OW13799   6.155   5.658   0.403 -0.3271 -0.2499  0.0020
 2595SOL    HW113800   6.174   5.572   0.450  0.3646 -0.5059 -0.7275
 2595SOL    HW213801   6.059   5.683   0.416 -0.8469 -1.7383 -0.7484
 2596SOL     OW13802   4.333   3.333   6.512 -0.1847  0.2907 -0.1742
 2596SOL    HW113803   4.237   3.316   6.493 -0.6365  0.0426  2.0728
 2596SOL    HW213804   4.354   3.429   6.495 -1.3173  0.7858  1.0790
 2597SOL     OW13805   4.099   5.261   0.336  0.0452 -0.0083  0.0036
 2597SOL    HW113806   4.054   5.341   0.297 -2.1581 -2.2286 -2.3413
 2597SOL    HW213807   4.064   5.246   0.429 -3.9391 -1.3499 -1.5358
 2598SOL     OW13808   1.877   4.973   5.363 -0.3474  0.1859 -0.3700
 2598SOL    HW113809   1.835   4.925   5.286  0.9135 -0.1290 -0.8869
 2598SOL    HW213810   1.950   5.032   5.330 -2.0639  2.8184  0.2134
 2599SOL     OW13811   1.589   0.316   0.430 -0.3527  0.2117  0.3159
 2599SOL    HW113812   1.655   0.391   0.422 -0.0266 -0.2495 -1.7843
 2599SOL    HW213813   1.569   0.279   0.339 -2.0244 -0.9563  1.1115
 2600SOL     OW13814   2.016   4.162   5.235 -0.1097  0.1499 -0.0768
 2600SOL    HW113815   2.063   4.104   5.168  1.0425  0.3432  0.5416
 2600SOL    HW213816   1.955   4.224   5.187  0.9107  0.4912 -0.9920
 2601SOL     OW13817   5.349   1.485   0.370 -0.1199  0.3651  0.0960
 2601SOL    HW113818   5.341   1.414   0.440 -2.6384 -0.9003 -1.3634
 2601SOL    HW213819   5.378   1.444   0.284  4.0588  2.0538  0.4601
 2602SOL     OW13820   0.192   0.405   0.154  0.6532  0.2469  0.2721
 2602SOL    HW113821   0.290   0.408   0.139  0.4356 -0.7480 -1.6247
 2602SOL    HW213822   0.145   0.449   0.077 -0.4298 -0.9318  0.2232
 2603SOL     OW13823   2.037   2.278   0.113 -0.0029  0.2518 -0.4033
 2603SOL    HW113824   1.992   2.190   0.128 -1.2502  0.8255 -0.6971
 2603SOL    HW213825   2.030   2.304   0.017 -1.0373  1.3898 -0.0499
 2604SOL     OW13826   2.612   0.883   0.617  0.7916 -0.1423  0.1156
 2604SOL    HW113827   2.701   0.852   0.582  0.3317 -1.2590 -0.1044
 2604SOL    HW213828   2.567   0.808   0.664 -0.6595 -0.0234 -1.0096
 2605SOL     OW13829   4.316   3.986   6.374  0.3237  0.5197 -0.4589
 2605SOL    HW113830   4.398   3.929   6.383  0.6857  1.1704  0.4189
 2605SOL    HW213831   4.296   4.030   6.461  0.3117  2.0995 -1.2340
 2606SOL     OW13832   2.000   1.126   1.137 -0.2643  0.5742  0.4190
 2606SOL    HW113833   1.983   1.055   1.205  1.0916 -1.9151 -1.6473
 2606SOL    HW213834   2.076   1.184   1.168  1.3456 -1.4384  0.4967
 2607SOL     OW13835   6.002   2.279   1.385  0.1421  0.5089  0.3196
 2607SOL    HW113836   5.975   2.370   1.417 -0.1641  1.0179 -1.3356
 2607SOL    HW213837   5.922   2.229   1.354  0.6259  0.6878 -1.2769
 2608SOL     OW13838   2.264   3.649   0.077 -0.0726 -1.1336 -0.4369
 2608SOL    HW113839   2.360   3.638   0.102  0.1551 -0.5641 -1.0334
 2608SOL    HW213840   2.206   3.612   0.150  0.4852  2.6900  2.2322
 2609SOL     OW13841   1.199   1.292   5.515  0.1365  0.4671  0.1733
 2609SOL    HW113842   1.204   1.390   5.497 -0.1052  0.8889  2.2317
 2609SOL    HW213843   1.292   1.255   5.523  0.2439  0.3592 -1.2386
 2610SOL     OW13844   3.676   1.484   1.291  0.7478  0.2505 -0.2206
 2610SOL    HW113845   3.699   1.565   1.237  1.6588  0.2282  0.1168
 2610SOL    HW213846   3.745   1.471   1.363  0.7904 -1.0007 -0.4678
 2611SOL     OW13847   1.434   1.644   0.573 -0.7854 -0.3875 -0.2352
 2611SOL    HW113848   1.407   1.601   0.487 -0.7899  0.9813 -0.9455
 2611SOL    HW213849   1.365   1.625   0.643 -0.4443 -2.0776 -0.3258
 2612SOL     OW13850   0.775   5.197   1.287 -0.0105 -0.1179 -0.3269
 2612SOL    HW113851   0.706   5.176   1.217  1.0950  0.6421 -1.7086
 2612SOL    HW213852   0.857   5.234   1.242  0.5580  0.8537  1.4356
 2613SOL     OW13853   5.116   3.800   0.152 -0.3935 -0.6025 -0.0047
 2613SOL    HW113854   5.207   3.830   0.180 -1.1052  0.4580  1.2742
 2613SOL    HW213855   5.121   3.706   0.118  1.0075 -0.9345  1.0200
 2614SOL     OW13856   2.903   2.090   6.144 -0.1248 -1.0139 -0.6907
 2614SOL    HW113857   2.836   2.019   6.166  0.3166 -0.5893  2.3977
 2614SOL    HW213858   2.995   2.055   6.159  0.2766 -0.7175 -2.2476
 2615SOL     OW13859   2.566   5.879   0.515 -0.0647  0.5222 -0.1386
 2615SOL    HW113860   2.665   5.878   0.529 -0.0998  0.2110  0.0805
 2615SOL    HW213861   2.520   5.848   0.598 -0.2693 -1.1956 -0.8509
 2616SOL     OW13862   1.680   4.224   6.041 -0.1906  0.5231  0.1851
 2616SOL    HW113863   1.704   4.178   6.126  0.8756  0.1265 -0.3040
 2616SOL    HW213864   1.735   4.185   5.966 -1.8684  0.1187 -0.8747
 2617SOL     OW13865   2.260   3.467   1.027 -0.4591 -0.9980  0.1601
 2617SOL    HW113866   2.325   3.543   1.029 -1.0961 -0.4445  0.1562
 2617SOL    HW213867   2.304   3.385   1.065  0.7363 -1.0463 -1.2126
 2618SOL     OW13868   2.486   2.544   6.255 -0.0119  0.0706  0.0800
 2618SOL    HW113869   2.564   2.504   6.208  0.0363  0.7042 -0.3810
 2618SOL    HW213870   2.518   2.601   6.331 -0.0059  0.6593 -0.3616
 2619SOL     OW13871   2.069   5.582   0.313 -0.0340  0.3396 -0.0533
 2619SOL    HW113872   2.072   5.669   0.362 -1.2497  0.1109  0.4833
 2619SOL    HW213873   2.090   5.507   0.376 -0.1955  0.1522 -0.2197
 2620SOL     OW13874   1.103   3.221   1.142  0.2201 -0.3519  0.3910
 2620SOL    HW113875   1.031   3.204   1.074  0.8834  2.6961 -1.2565
 2620SOL    HW213876   1.120   3.138   1.194 -1.7543 -2.2785 -1.8081
 2621SOL     OW13877   4.262   3.987   5.683  0.4981  0.6886 -0.3363
 2621SOL    HW113878   4.354   3.950   5.691 -0.6692 -2.2849  1.0793
 2621SOL    HW213879   4.209   3.929   5.620 -1.0078  0.8815  0.7006
 2622SOL     OW13880   4.158   1.676   1.313 -0.2285 -0.2088  1.1411
 2622SOL    HW113881   4.202   1.591   1.343  0.7097  0.5608  2.0036
 2622SOL    HW213882   4.221   1.753   1.324 -0.9163  0.5594 -0.0207
 2623SOL     OW13883   4.309   2.147   0.278  0.0189 -0.7936 -0.4479
 2623SOL    HW113884   4.337   2.068   0.224  0.4972 -0.1817 -1.1276
 2623SOL    HW213885   4.375   2.221   0.265  0.0709 -0.5770  0.8834
 2624SOL     OW13886   2.134   1.783   5.201 -0.2613 -0.4625  0.5423
 2624SOL    HW113887   2.155   1.689   5.229  0.0383 -0.4507  0.3633
 2624SOL    HW213888   2.187   1.806   5.120 -1.7018 -0.7644 -0.5103
 2625SOL     OW13889   4.375   2.688   0.643  0.1516  0.0886 -0.0459
 2625SOL    HW113890   4.338   2.776   0.613 -0.5809 -0.4320 -0.7172
 2625SOL    HW213891   4.388   2.689   0.742  1.2053  1.3282 -0.1727
 2626SOL     OW13892   0.079   3.165   6.070 -0.0960  0.3957  0.1109
 2626SOL    HW113893   0.009   3.202   6.130 -2.5115 -0.9881 -1.6793
 2626SOL    HW213894   0.110   3.236   6.006  0.7259  1.2072  1.3693
 2627SOL     OW13895   3.063   0.461   0.296  0.1129 -0.2002  0.1370
 2627SOL    HW113896   3.024   0.540   0.248 -1.2028  0.3814  2.0326
 2627SOL    HW213897   2.997   0.386   0.295  0.5435 -0.5789  0.0584
 2628SOL     OW13898   0.860   0.607   5.591 -0.4166  0.1712  0.2352
 2628SOL    HW113899   0.905   0.617   5.502  0.8843 -0.3235  0.8047
 2628SOL    HW213900   0.899   0.673   5.655 -1.4345  0.6094  0.4186
 2629SOL     OW13901   2.210   1.024   6.378  0.0538  0.1227  0.1641
 2629SOL    HW113902   2.148   0.994   6.450  2.5984 -2.1618  1.6230
 2629SOL    HW213903   2.272   1.093   6.415  2.8556 -2.6534  1.1259
 2630SOL     OW13904   0.925   1.976   1.515 -0.4014 -0.2996  0.5776
 2630SOL    HW113905   0.980   1.893   1.510 -0.3235 -0.3699  2.1632
 2630SOL    HW213906   0.864   1.971   1.593 -0.2520  1.2169  0.8197
 2631SOL     OW13907   5.206   4.371   0.026  0.3610  0.0979 -0.4160
 2631SOL    HW113908   5.141   4.397   0.098  0.6819 -0.6441  0.1527
 2631SOL    HW213909   5.293   4.418   0.042  0.0652  0.8798 -1.0239
 2632SOL     OW13910   2.180   5.422   6.078 -0.6271 -0.4684  0.2595
 2632SOL    HW113911   2.237   5.343   6.100 -0.7862 -0.6185  0.1369
 2632SOL    HW213912   2.160   5.473   6.161  0.2426 -0.0357  0.2156
 2633SOL     OW13913   6.040   5.592   0.930  0.0266  0.9096  0.1638
 2633SOL    HW113914   6.022   5.501   0.966 -1.7624  0.9596 -0.5287
 2633SOL    HW213915   6.134   5.597   0.896  0.1887 -0.6091  0.3471
 2634SOL     OW13916   1.628   4.236   0.169  0.4567 -0.4509  0.3888
 2634SOL    HW113917   1.533   4.210   0.151 -0.4400  1.8304  1.5063
 2634SOL    HW213918   1.656   4.307   0.105  2.1702 -2.4539 -1.2552
 2635SOL     OW13919   1.579   5.200   5.223  0.0781 -0.0681  0.5767
 2635SOL    HW113920   1.658   5.179   5.166 -0.6102  1.1835 -0.8920
 2635SOL    HW213921   1.501   5.145   5.192 -0.6214  1.4846 -0.5605
 2636SOL     OW13922   4.840   5.464   4.939  0.0660 -0.7087 -0.5502
 2636SOL    HW113923   4.872   5.375   4.906  1.9912  0.0374 -0.8582
 2636SOL    HW213924   4.887   5.537   4.889 -0.9859  0.4871  0.1456
 2637SOL     OW13925   0.824   3.884   0.900  0.3572 -0.0408 -0.3291
 2637SOL    HW113926   0.913   3.843   0.882  1.0380 -0.9634  4.1378
 2637SOL    HW213927   0.760   3.814   0.931 -1.0767  1.0449 -0.7152
 2638SOL     OW13928   4.850   1.144   5.849  0.3361 -0.1757  0.3904
 2638SOL    HW113929   4.881   1.170   5.941 -1.1642  1.3465  0.5102
 2638SOL    HW213930   4.810   1.224   5.803  0.4464 -1.0716 -1.3387
 2639SOL     OW13931   4.341   4.400   6.452  0.7209  0.0070  0.8449
 2639SOL    HW113932   4.404   4.472   6.482 -2.3937  3.2758  0.3408
 2639SOL    HW213933   4.274   4.382   6.524 -0.1203 -0.4158 -0.0158
 2640SOL     OW13934   5.940   1.894   6.490  0.3535  0.2401 -0.2595
 2640SOL    HW113935   5.860   1.944   6.523  1.1316  1.3729 -0.0349
 2640SOL    HW213936   5.914   1.800   6.470 -0.6555  0.0961  1.4941
 2641SOL     OW13937   0.984   1.270   6.164  0.2694 -0.1890 -0.2955
 2641SOL    HW113938   0.885   1.268   6.177  0.2913 -3.3327  0.2685
 2641SOL    HW213939   1.030   1.271   6.253  0.7415  0.4273 -0.5407
 2642SOL     OW13940   0.326   1.670   0.032  0.0935  0.4892 -0.1697
 2642SOL    HW113941   0.310   1.713  -0.057 -2.2007  0.2442  0.0658
 2642SOL    HW213942   0.396   1.722   0.082  0.3207  1.5181 -1.5060
 2643SOL     OW13943   2.851   2.010   4.871  0.0874 -0.0764  0.0570
 2643SOL    HW113944   2.883   1.924   4.832  1.2574 -0.4790  1.7774
 2643SOL    HW213945   2.911   2.085   4.840  0.5708 -0.2788  0.4910
 2644SOL     OW13946   6.252   3.299   6.177 -0.5298  0.6963  0.2134
 2644SOL    HW113947   6.206   3.327   6.092 -0.0582 -0.2873 -0.3897
 2644SOL    HW213948   6.186   3.251   6.235 -0.3042 -0.7806 -0.6833
 2645SOL     OW13949   4.561   0.138   5.214 -0.1821  0.0805 -0.0590
 2645SOL    HW113950   4.627   0.151   5.139 -0.7265  0.5352 -0.4668
 2645SOL    HW213951   4.572   0.210   5.281 -0.8513  0.6752 -0.5730
 2646SOL     OW13952   1.871   5.040   0.451 -0.1569  0.0380  0.1969
 2646SOL    HW113953   1.880   4.989   0.537  2.5719 -0.5572 -0.3474
 2646SOL    HW213954   1.864   5.138   0.471 -3.8979 -0.2879  1.1836
 2647SOL     OW13955   3.108   1.321   0.907  0.1327  0.5035 -0.2207
 2647SOL    HW113956   3.142   1.243   0.855 -1.9316  0.8460 -2.2554
 2647SOL    HW213957   3.040   1.290   0.974  2.4185  0.1288  2.0968
 2648SOL     OW13958   3.399   3.835   5.811  0.2445 -0.3501  0.0438
 2648SOL    HW113959   3.396   3.818   5.909  1.4029  1.1244  0.3607
 2648SOL    HW213960   3.446   3.921   5.793 -2.1438  0.7249 -1.6484
 2649SOL     OW13961   4.192   0.809   5.426  0.0906  0.3579 -0.1126
 2649SOL    HW113962   4.240   0.870   5.363 -1.4921  1.0983 -0.6457
 2649SOL    HW213963   4.131   0.749   5.374  1.6893 -1.8146  0.3850
 2650SOL     OW13964   1.458   2.817   6.510  0.1265 -0.2311  0.0505
 2650SOL    HW113965   1.520   2.860   6.445  0.2840 -1.7369 -0.8191
 2650SOL    HW213966   1.393   2.758   6.462 -1.6991  0.8953  0.9767
 2651SOL     OW13967   4.963   3.016   0.971  0.6502  0.1435  0.0488
 2651SOL    HW113968   5.009   3.095   0.930  0.4207 -0.0467 -0.5908
 2651SOL    HW213969   5.007   2.932   0.940  1.2598  0.0228  1.1837
 2652SOL     OW13970   0.217   3.322   5.896 -0.4763 -0.0285  0.7537
 2652SOL    HW113971   0.249   3.411   5.863  1.0634 -0.8199  0.0234
 2652SOL    HW213972   0.295   3.263   5.916 -1.3913 -2.1024 -1.2300
 2653SOL     OW13973   2.024   2.090   0.476 -0.0797 -0.0209  0.1159
 2653SOL    HW113974   2.036   2.009   0.418  0.0807  0.5433 -0.6662
 2653SOL    HW213975   2.113   2.121   0.509 -0.1547 -0.2423  0.5293
 2654SOL     OW13976   5.905   6.242   0.596 -0.0766 -0.1742  0.2147
 2654SOL    HW113977   5.857   6.314   0.646 -2.2085  0.0874 -2.0152
 2654SOL    HW213978   5.848   6.160   0.592  1.3731 -1.2598  0.7951
 2655SOL     OW13979   4.232   6.157   5.662  0.1105  0.1629  0.1375
 2655SOL    HW113980   4.307   6.096   5.690 -0.8981 -1.4451 -0.5587
 2655SOL    HW213981   4.270   6.248   5.643  1.5593 -0.0124  1.8384
 2656SOL     OW13982   2.819   3.527   1.258  0.1185  0.2443 -0.0340
 2656SOL    HW113983   2.726   3.541   1.224 -0.1550  0.3057  0.7326
 2656SOL    HW213984   2.823   3.442   1.310 -0.3518  1.8414  2.7907
 2657SOL     OW13985   1.064   3.519   5.389  0.5849 -1.3762 -0.0299
 2657SOL    HW113986   0.995   3.554   5.452  2.4121 -2.5099  2.7772
 2657SOL    HW213987   1.075   3.583   5.313 -0.9367  0.6451  1.3530
 2658SOL     OW13988   2.262   0.577   1.100 -0.0375  0.2137  0.3829
 2658SOL    HW113989   2.336   0.592   1.166  0.8375  1.0892 -0.7528
 2658SOL    HW213990   2.264   0.650   1.031  0.0615 -1.4890 -1.4949
 2659SOL     OW13991   3.410   4.752   6.254  0.2937 -0.4290 -0.1042
 2659SOL    HW113992   3.338   4.755   6.323 -0.1104 -0.3150 -0.5212
 2659SOL    HW213993   3.424   4.844   6.216  1.0618 -0.3410  0.3791
 2660SOL     OW13994   1.764   0.766   5.941 -0.3054 -0.2406 -0.1087
 2660SOL    HW113995   1.827   0.784   6.017  0.6309 -1.2962 -0.6066
 2660SOL    HW213996   1.791   0.820   5.862 -0.2785 -0.3596 -0.1821
 2661SOL     OW13997   2.484   0.628   6.242 -0.1024  0.2183 -0.4204
 2661SOL    HW113998   2.484   0.688   6.322 -0.6597  1.3667 -1.2536
 2661SOL    HW213999   2.572   0.581   6.236  0.1674  0.5809  0.5226
 2662SOL     OW14000   3.341   0.959   5.746  0.3699  0.7159 -0.1436
 2662SOL    HW114001   3.291   1.034   5.789 -0.7197  0.0029 -0.1475
 2662SOL    HW214002   3.278   0.887   5.718  1.1198  0.8555 -2.3759
 2663SOL     OW14003   6.072   4.211   6.114  0.2281 -0.3616  0.1263
 2663SOL    HW114004   6.035   4.299   6.082  0.2577 -0.1575  0.6400
 2663SOL    HW214005   6.168   4.204   6.087  0.4536  0.1228  0.7655
 2664SOL     OW14006   4.248   6.187   1.153  0.5648 -0.4888  0.1276
 2664SOL    HW114007   4.247   6.194   1.253 -1.0562 -1.5675  0.2126
 2664SOL    HW214008   4.331   6.140   1.124  1.1607  0.0338  0.9439
 2665SOL     OW14009   0.073   2.782   1.457  0.7772  0.6207  0.4053
 2665SOL    HW114010   0.005   2.711   1.474  0.1691  1.1084  0.0859
 2665SOL    HW214011   0.028   2.872   1.458  1.4696  0.9750  0.4795
 2666SOL     OW14012   1.039   1.211   1.508  0.6700 -0.5548 -0.8585
 2666SOL    HW114013   1.029   1.234   1.605 -0.3085 -0.5427 -0.9503
 2666SOL    HW214014   1.089   1.125   1.499 -1.0181 -1.6670 -0.2192
 2667SOL     OW14015   4.598   1.049   5.013  0.3591 -0.2273  0.1322
 2667SOL    HW114016   4.633   1.111   4.943  1.0255 -2.1993 -1.3691
 2667SOL    HW214017   4.674   0.998   5.054 -0.3663 -2.2357 -0.8820
 2668SOL     OW14018   0.074   0.818   6.442 -0.3603 -0.3815  0.1930
 2668SOL    HW114019   0.137   0.829   6.520  0.7070  1.2995 -0.8304
 2668SOL    HW214020   0.020   0.735   6.454  1.2617 -1.2937  1.6874
 2669SOL     OW14021   4.945   0.870   0.760  0.3477  0.0208 -0.4034
 2669SOL    HW114022   4.955   0.929   0.680 -0.7089  1.4093  0.4370
 2669SOL    HW214023   4.892   0.789   0.736  0.8111 -0.0152 -1.3151
 2670SOL     OW14024   4.040   4.861   5.426  1.0015  0.2525  0.1760
 2670SOL    HW114025   3.969   4.862   5.356 -0.2338  0.5987  1.4010
 2670SOL    HW214026   4.120   4.811   5.391 -0.5523 -1.9049 -0.5229
 2671SOL     OW14027   3.134   2.211   0.477  0.0207  0.2104 -0.6617
 2671SOL    HW114028   3.205   2.162   0.528 -1.0456 -0.3682  0.3146
 2671SOL    HW214029   3.173   2.247   0.392  1.4048 -0.3266 -0.2829
 2672SOL     OW14030   1.421   4.101   5.571  0.2065 -0.7443 -0.5138
 2672SOL    HW114031   1.473   4.162   5.631 -1.1410 -0.1339  0.0832
 2672SOL    HW214032   1.395   4.150   5.488 -2.1858  0.0822  0.6267
 2673SOL     OW14033   1.070   1.101   0.957  0.0998 -0.2971 -0.1417
 2673SOL    HW114034   1.003   1.113   1.030 -0.0697  2.2914 -0.6653
 2673SOL    HW214035   1.068   1.005   0.926  0.2653 -1.5397  3.2582
 2674SOL     OW14036   0.730   0.927   5.128  0.2425 -0.1889 -0.2563
 2674SOL    HW114037   0.681   1.006   5.165 -1.3869 -0.8195 -0.9287
 2674SOL    HW214038   0.828   0.945   5.126  0.5451 -0.0452  4.2774
 2675SOL     OW14039   4.477   3.549   0.498 -0.1325 -0.0032 -0.1129
 2675SOL    HW114040   4.464   3.498   0.413  0.9950 -0.1616 -0.1962
 2675SOL    HW214041   4.495   3.645   0.477 -0.1659  0.0217 -0.0303
 2676SOL     OW14042   4.215   5.987   6.441  0.2560 -0.2502  0.2065
 2676SOL    HW114043   4.262   5.994   6.529  0.1339  2.4501  0.1497
 2676SOL    HW214044   4.119   6.010   6.452  0.2395  0.1153 -0.6128
 2677SOL     OW14045   5.180   4.949   6.103  0.4345 -0.6212  0.2529
 2677SOL    HW114046   5.107   4.886   6.076 -0.7702  1.5506 -1.9348
 2677SOL    HW214047   5.167   4.977   6.198 -0.5921 -1.5131  0.3893
 2678SOL     OW14048   4.202   4.967   1.667  0.1994 -0.0028  0.6192
 2678SOL    HW114049   4.205   4.899   1.740  1.2828  1.2004  1.7480
 2678SOL    HW214050   4.223   5.057   1.705  1.8811  0.5068 -1.3781
 2679SOL     OW14051   3.000   1.759   5.332 -0.3060 -0.5189 -0.6262
 2679SOL    HW114052   2.922   1.756   5.269 -0.0129  0.8899 -1.0817
 2679SOL    HW214053   3.084   1.741   5.281 -0.0709  0.5949 -0.6551
 2680SOL     OW14054   2.378   0.700   0.436  0.2752  0.1230 -0.5554
 2680SOL    HW114055   2.314   0.749   0.377  1.5139  1.2104 -1.0409
 2680SOL    HW214056   2.463   0.683   0.386  0.3570 -1.3906  0.0384
 2681SOL     OW14057   4.905   3.457   5.653  0.6566  0.0710 -0.4322
 2681SOL    HW114058   4.833   3.467   5.586  0.5160 -2.0500 -0.6548
 2681SOL    HW214059   4.877   3.499   5.739 -0.3642  0.2678 -0.8533
 2682SOL     OW14060   5.987   1.143   5.659 -0.0702  0.2816  0.5410
 2682SOL    HW114061   5.993   1.053   5.701 -0.6455 -0.9344 -1.8441
 2682SOL    HW214062   5.892   1.164   5.637  0.3110  0.3245 -1.2066
 2683SOL     OW14063   4.379   0.009   5.613 -0.3286  0.5437 -0.4668
 2683SOL    HW114064   4.358   0.089   5.557  0.9423  0.9752 -0.3563
 2683SOL    HW214065   4.473  -0.021   5.595 -0.6926 -0.7475 -0.2865
 2684SOL     OW14066   5.938   2.345   6.387 -0.1300 -0.1070  0.6328
 2684SOL    HW114067   6.001   2.284   6.434  0.7423  0.1037 -0.2476
 2684SOL    HW214068   5.938   2.435   6.432 -0.1259 -0.2405  0.8964
 2685SOL     OW14069   3.210   0.434   6.383  0.4389  0.2225  0.8048
 2685SOL    HW114070   3.271   0.456   6.460  0.7247  2.1155  0.1049
 2685SOL    HW214071   3.245   0.478   6.300 -2.3217  2.1686  0.5442
 2686SOL     OW14072   2.425   0.606   1.327 -0.3983  0.2412  0.1258
 2686SOL    HW114073   2.463   0.671   1.391  0.1985  1.2874 -1.2373
 2686SOL    HW214074   2.494   0.537   1.304 -0.7039 -0.3048  0.7888
 2687SOL     OW14075   2.771   0.819   0.073 -0.3108 -0.1103 -0.0662
 2687SOL    HW114076   2.794   0.755   0.146  0.1116 -0.1207 -0.2007
 2687SOL    HW214077   2.825   0.902   0.084 -0.9749  0.2937  0.2004
 2688SOL     OW14078   4.592   6.376   6.111  0.4150 -0.4999  0.6547
 2688SOL    HW114079   4.590   6.304   6.180  0.0083 -1.4653 -0.3328
 2688SOL    HW214080   4.502   6.387   6.070  0.8916 -0.7595 -0.5223
 2689SOL     OW14081   2.778   0.558   1.221 -0.5630  0.9577  0.1901
 2689SOL    HW114082   2.840   0.609   1.280 -0.3561 -0.6926  1.4663
 2689SOL    HW214083   2.781   0.461   1.245 -2.0912  0.5400 -1.1211
 2690SOL     OW14084   3.747   5.025   0.379 -0.1591  0.1243  0.4199
 2690SOL    HW114085   3.726   5.119   0.354  0.3659 -0.1739 -1.2104
 2690SOL    HW214086   3.823   4.991   0.324 -0.3146 -1.2416  1.0044
 2691SOL     OW14087   3.948   6.223   0.779  0.5006  0.2495 -0.0811
 2691SOL    HW114088   3.990   6.180   0.859 -0.5714  1.3229  1.0847
 2691SOL    HW214089   3.991   6.312   0.763 -2.3602  2.2381  2.2518
 2692SOL     OW14090   5.670   5.364   5.003  0.2813  0.4727  0.1266
 2692SOL    HW114091   5.764   5.336   4.980 -0.0145 -1.3675  0.9133
 2692SOL    HW214092   5.614   5.282   5.017 -0.9758  1.5119  1.5453
 2693SOL     OW14093   4.065   5.156   1.376  0.3762  0.3625 -0.8401
 2693SOL    HW114094   4.059   5.064   1.414 -1.6652  0.7511 -0.0826
 2693SOL    HW214095   4.023   5.221   1.440 -0.5092  1.4437 -2.4476
 2694SOL     OW14096   2.504   4.164   6.015 -0.0764 -0.0067  0.0152
 2694SOL    HW114097   2.410   4.132   6.022  0.0129 -0.2929 -0.0835
 2694SOL    HW214098   2.519   4.237   6.082 -0.2121 -0.3445  0.4239
 2695SOL     OW14099   5.187   5.040   4.740 -0.5570 -0.1668 -0.0467
 2695SOL    HW114100   5.200   5.007   4.646 -0.1088 -0.5135  0.1345
 2695SOL    HW214101   5.199   4.964   4.804 -0.2831  0.1920  0.3295
 2696SOL     OW14102   6.175   3.833   0.525  0.4208  0.0389  0.3897
 2696SOL    HW114103   6.122   3.799   0.603  1.1412  2.3799  1.9929
 2696SOL    HW214104   6.269   3.800   0.531  0.6047  0.6343  0.8015
 2697SOL     OW14105   4.097   2.685   6.169 -0.5637  0.4953 -0.0161
 2697SOL    HW114106   4.033   2.738   6.224 -0.9821 -0.1544  0.1325
 2697SOL    HW214107   4.087   2.588   6.190  1.2919  0.4590  0.8729
 2698SOL     OW14108   2.851   1.970   1.157  0.4273 -0.4086 -0.6105
 2698SOL    HW114109   2.905   1.987   1.075  1.2172 -2.1361 -0.4861
 2698SOL    HW214110   2.830   2.057   1.201  1.3818  0.4381 -1.7618
 2699SOL     OW14111   4.541   0.577   6.425  0.5320 -0.3307 -0.4993
 2699SOL    HW114112   4.592   0.603   6.507 -0.8889 -1.3224  0.7544
 2699SOL    HW214113   4.521   0.479   6.428 -1.1221 -0.0433 -1.1186
 2700SOL     OW14114   0.201   4.051   5.666 -0.0699 -0.5329  0.4383
 2700SOL    HW114115   0.155   3.966   5.642  2.5816 -1.4405 -2.0076
 2700SOL    HW214116   0.205   4.110   5.585  1.5355  0.1882  0.9975
 2701SOL     OW14117   0.983   1.250   0.731  0.3441 -0.0535 -0.2569
 2701SOL    HW114118   0.900   1.194   0.734  0.0056  0.4620  0.4220
 2701SOL    HW214119   1.039   1.230   0.811 -0.0520  0.9649  0.2913
 2702SOL     OW14120   5.568   5.899   6.465 -0.0311  0.6043  0.0589
 2702SOL    HW114121   5.557   5.997   6.484 -0.8452  0.1320  2.3605
 2702SOL    HW214122   5.479   5.853   6.473  0.3092 -0.3323 -1.1789
 2703SOL     OW14123   4.430   2.288   0.774  0.3180  0.3109 -0.1908
 2703SOL    HW114124   4.427   2.276   0.873  2.1445  1.7149  0.1010
 2703SOL    HW214125   4.339   2.316   0.741 -0.3332 -0.2613  1.0573
 2704SOL     OW14126   2.209   5.688   5.965 -0.3463 -0.0561 -0.2364
 2704SOL    HW114127   2.169   5.728   6.047 -1.0315 -0.6765 -0.2581
 2704SOL    HW214128   2.210   5.588   5.974  1.8766 -0.0673  0.0773
 2705SOL     OW14129   5.569   4.020   6.241 -0.3206  0.0220 -0.2865
 2705SOL    HW114130   5.472   4.034   6.257  0.0836  2.2056  0.7992
 2705SOL    HW214131   5.613   4.109   6.226  1.8536 -0.6244  1.6160
 2706SOL     OW14132   1.762   2.822   1.167  0.6416  0.1018 -0.8248
 2706SOL    HW114133   1.778   2.899   1.230  1.2187  0.1713 -1.0433
 2706SOL    HW214134   1.762   2.736   1.218 -0.7349  0.2924 -0.4735
 2707SOL     OW14135   3.090   0.767   0.459  0.0321  0.1242 -0.0446
 2707SOL    HW114136   3.151   0.738   0.385 -0.2771 -1.1715  0.1939
 2707SOL    HW214137   3.116   0.721   0.544 -1.6672 -0.9675 -0.0712
 2708SOL     OW14138   3.383   4.264   6.011 -0.4671 -0.4227  0.1195
 2708SOL    HW114139   3.416   4.171   6.028  0.6253 -0.0395  0.2029
 2708SOL    HW214140   3.385   4.283   5.912 -0.3262 -0.3580  0.1351
 2709SOL     OW14141   3.408   0.638   6.189  0.5151  0.3745  0.0121
 2709SOL    HW114142   3.333   0.705   6.181  0.5150  0.4410  0.5523
 2709SOL    HW214143   3.480   0.676   6.246  2.0706  1.3004 -2.4078
 2710SOL     OW14144   5.510   4.591   0.963  0.0623  0.0718 -0.4850
 2710SOL    HW114145   5.505   4.684   0.998  2.6323 -0.1190  0.6288
 2710SOL    HW214146   5.419   4.560   0.936 -1.3840  1.8084  2.0146
 2711SOL     OW14147   5.534   1.078   6.113  0.0516  0.1053 -0.4147
 2711SOL    HW114148   5.555   1.152   6.178  0.6187 -1.2328  0.9828
 2711SOL    HW214149   5.584   1.094   6.028  0.4650  1.1246 -0.0039
 2712SOL     OW14150   6.174   2.827   0.270  0.1825 -0.0857  0.6707
 2712SOL    HW114151   6.228   2.769   0.332  0.6851 -0.7833 -0.3825
 2712SOL    HW214152   6.184   2.794   0.176  0.8592  1.9887 -0.0477
 2713SOL     OW14153   5.711   4.215   5.670 -0.3829 -0.3741  0.0097
 2713SOL    HW114154   5.641   4.164   5.621 -0.2357  0.1241 -0.7329
 2713SOL    HW214155   5.684   4.311   5.676 -0.3978 -0.4230  0.9147
 2714SOL     OW14156   6.119   5.445   5.892  0.5975  0.0177 -0.2621
 2714SOL    HW114157   6.095   5.351   5.868  1.4371 -0.3895  0.4443
 2714SOL    HW214158   6.205   5.470   5.847 -0.7428  1.2553 -2.2891
 2715SOL     OW14159   4.985   4.764   5.995  0.7219 -0.2213  0.1598
 2715SOL    HW114160   4.923   4.841   6.009  1.8677  0.7311  0.0938
 2715SOL    HW214161   4.959   4.689   6.056  0.0379  0.4732  0.7447
 2716SOL     OW14162   4.595   2.570   0.513 -0.1473 -0.2541  0.1349
 2716SOL    HW114163   4.640   2.619   0.439 -1.1511 -2.0704 -1.7746
 2716SOL    HW214164   4.501   2.602   0.523 -1.3659 -2.6402 -2.2317
 2717SOL     OW14165   4.644   4.483   0.905  0.1445  0.5102 -0.2476
 2717SOL    HW114166   4.633   4.488   0.806  0.1290  0.7727 -0.2346
 2717SOL    HW214167   4.713   4.415   0.928  0.7647  1.0497 -0.4807
 2718SOL     OW14168   2.978   4.823   0.438  0.1921  1.0489  0.5533
 2718SOL    HW114169   3.062   4.841   0.387 -0.7334  2.0027 -0.7251
 2718SOL    HW214170   2.903   4.876   0.398 -1.3263 -0.7992  0.7845
 2719SOL     OW14171   4.641   3.123   5.547 -0.9360 -0.0311  0.0940
 2719SOL    HW114172   4.596   3.212   5.552 -0.7755  0.0246  0.7035
 2719SOL    HW214173   4.737   3.136   5.519 -1.5002 -0.2284 -2.0671
 2720SOL     OW14174   4.305   0.467   6.006 -0.3177  0.3816 -0.3659
 2720SOL    HW114175   4.355   0.529   6.066  0.3689 -0.1933 -0.3382
 2720SOL    HW214176   4.282   0.514   5.920 -2.0505  1.4937  0.6377
 2721SOL     OW14177   4.799   5.501   5.518 -0.1964 -0.7225  0.3880
 2721SOL    HW114178   4.844   5.429   5.465  0.1669  0.9148 -1.6729
 2721SOL    HW214179   4.706   5.514   5.484  0.1349  0.5497 -0.0852
 2722SOL     OW14180   2.366   1.856   1.179 -0.0241 -0.2000  0.2421
 2722SOL    HW114181   2.369   1.914   1.260 -0.2373 -2.3773  1.8925
 2722SOL    HW214182   2.293   1.887   1.118 -1.1344  0.3527  1.7935
 2723SOL     OW14183   3.664   3.496   1.055  0.2227 -0.2339 -0.0715
 2723SOL    HW114184   3.715   3.497   0.969 -1.7968  0.5410 -1.3490
 2723SOL    HW214185   3.614   3.582   1.065  0.1865 -0.4333  1.7612
 2724SOL     OW14186   3.849   3.977   0.029  0.1466  0.3143  0.2789
 2724SOL    HW114187   3.839   3.981   0.128 -1.8791 -2.0675  0.2725
 2724SOL    HW214188   3.929   3.923   0.006 -0.2147 -0.3813  0.6392
 2725SOL     OW14189   6.128   5.537   0.132 -0.4542 -0.0390 -0.2685
 2725SOL    HW114190   6.139   5.575   0.224 -1.4232  2.9095 -1.2476
 2725SOL    HW214191   6.219   5.517   0.094  0.0861  0.7837  0.5393
 2726SOL     OW14192   2.370   2.200   1.083 -0.5197 -0.2565 -0.1066
 2726SOL    HW114193   2.458   2.215   1.039  0.5117  1.2456  2.2441
 2726SOL    HW214194   2.384   2.183   1.181 -2.8385 -0.1224  0.3124
 2727SOL     OW14195   3.116   0.890   5.515 -0.1707  0.1598  0.6412
 2727SOL    HW114196   3.045   0.960   5.513 -0.1526  0.2175  1.5220
 2727SOL    HW214197   3.114   0.838   5.430 -0.9490  0.4732  0.4570
 2728SOL     OW14198   3.174   2.659   4.466  0.1977 -0.3906  0.3813
 2728SOL    HW114199   3.163   2.755   4.440 -0.9350 -0.1597  1.6032
 2728SOL    HW214200   3.269   2.643   4.493  0.1564  0.6971  1.2810
 2729SOL     OW14201   2.244   0.287   0.787  0.2414  0.1572  0.4944
 2729SOL    HW114202   2.296   0.361   0.743 -0.1238 -0.2357 -0.6158
 2729SOL    HW214203   2.180   0.326   0.853 -0.4476  0.8876 -0.5907
 2730SOL     OW14204   2.353   6.087   0.897  0.6446 -0.2754  0.0032
 2730SOL    HW114205   2.420   6.095   0.971 -0.4630 -0.4702  1.0649
 2730SOL    HW214206   2.270   6.042   0.932 -0.2418  0.4280 -1.1357
 2731SOL     OW14207   4.641   0.139   5.833  0.6148 -0.2614  0.1710
 2731SOL    HW114208   4.658   0.110   5.739 -1.7847 -2.0200  0.1949
 2731SOL    HW214209   4.683   0.074   5.896  2.0692  0.8207  0.3829
 2732SOL     OW14210   5.266   2.639   1.521 -0.1572 -0.5549  0.1410
 2732SOL    HW114211   5.325   2.713   1.491  0.5334 -0.2224  2.1536
 2732SOL    HW214212   5.320   2.555   1.532 -0.4340 -0.7303  0.1786
 2733SOL     OW14213   6.236   3.045   0.698 -0.0133  0.2522  0.1209
 2733SOL    HW114214   6.320   3.095   0.719  0.4391 -0.5837  0.3345
 2733SOL    HW214215   6.162   3.110   0.682  1.1934  1.1104 -2.4790
 2734SOL     OW14216   1.513   3.886   1.049 -0.2207  0.3250  0.1675
 2734SOL    HW114217   1.611   3.894   1.032 -0.2867  0.7170 -0.0332
 2734SOL    HW214218   1.493   3.914   1.143  0.0515 -1.1769  0.7010
 2735SOL     OW14219   2.587   1.904   5.767  0.5143  0.4086 -0.2032
 2735SOL    HW114220   2.572   1.963   5.846  0.3699  0.5300 -0.3228
 2735SOL    HW214221   2.685   1.891   5.753  0.5940  1.7266 -1.0039
 2736SOL     OW14222   2.362   4.490   1.434  0.1038  0.6277 -0.8061
 2736SOL    HW114223   2.304   4.441   1.499 -0.3394  3.0443  0.7737
 2736SOL    HW214224   2.455   4.497   1.470  0.7728 -0.9796 -2.1132
 2737SOL     OW14225   5.557   5.917   5.062 -0.6066 -0.4720  0.4590
 2737SOL    HW114226   5.590   5.831   5.024  0.9576  1.3285 -2.6771
 2737SOL    HW214227   5.461   5.931   5.037 -0.1273 -0.1948 -1.4113
 2738SOL     OW14228   0.570   4.980   5.995 -0.3422  0.3288 -0.3930
 2738SOL    HW114229   0.477   5.015   5.981 -0.7748 -0.4790  0.3336
 2738SOL    HW214230   0.570   4.881   5.978 -0.2885 -0.2281  2.3761
 2739SOL     OW14231   2.349   5.515   4.998  0.5766 -0.2249 -0.0031
 2739SOL    HW114232   2.261   5.548   4.961  0.9421  0.1703 -0.5327
 2739SOL    HW214233   2.412   5.497   4.922  1.2275  0.2796  0.4109
 2740SOL     OW14234   6.076   2.837   0.685  0.0271  0.3142 -0.3245
 2740SOL    HW114235   6.146   2.908   0.692  1.7130 -1.1869 -1.1667
 2740SOL    HW214236   6.119   2.751   0.657 -2.3461 -0.3731 -2.1095
 2741SOL     OW14237   5.595   5.595   1.278 -1.0678  0.6042 -0.3301
 2741SOL    HW114238   5.608   5.575   1.181  1.0344  0.8894 -0.1619
 2741SOL    HW214239   5.641   5.680   1.301  2.0277 -1.3907  1.6470
 2742SOL     OW14240   0.819   5.728   5.182 -0.4491  0.0938  0.6099
 2742SOL    HW114241   0.873   5.646   5.200  0.2056  0.8695  2.4307
 2742SOL    HW214242   0.881   5.805   5.163 -1.0167  0.4465  0.1410
 2743SOL     OW14243   2.611   4.212   0.657 -0.2084  0.0707  0.1374
 2743SOL    HW114244   2.701   4.170   0.644 -0.8903 -1.7264  0.9673
 2743SOL    HW214245   2.607   4.297   0.605  0.9480 -1.2993 -2.4041
 2744SOL     OW14246   5.781   2.649   0.252 -0.6235 -0.2023 -0.5187
 2744SOL    HW114247   5.792   2.667   0.349 -0.0287 -1.2354 -0.3853
 2744SOL    HW214248   5.726   2.723   0.210  1.3768  1.7169  0.0581
 2745SOL     OW14249   2.691   0.077   0.151 -0.3164  0.5610 -0.4746
 2745SOL    HW114250   2.638  -0.002   0.118  0.5256  0.1606 -0.9090
 2745SOL    HW214251   2.670   0.157   0.094 -1.5299  0.7980  0.2611
 2746SOL     OW14252   5.868   6.310   6.259 -0.2603 -0.2619 -0.4811
 2746SOL    HW114253   5.876   6.335   6.163 -0.8507 -1.8612 -0.9686
 2746SOL    HW214254   5.930   6.233   6.278 -1.1809 -0.8770  0.0662
 2747SOL     OW14255   0.800   0.622   0.590  0.7208 -0.6617  0.6141
 2747SOL    HW114256   0.800   0.684   0.668  1.7123 -1.6808  1.4373
 2747SOL    HW214257   0.752   0.538   0.613 -2.2294  0.3912 -1.0670
 2748SOL     OW14258   0.930   4.184   0.099 -0.5989  0.4063  0.2531
 2748SOL    HW114259   1.026   4.171   0.127 -0.0731  0.1062 -1.5647
 2748SOL    HW214260   0.879   4.225   0.174  1.1680  1.4216  0.9611
 2749SOL     OW14261   2.345   3.035   5.882  0.0076  0.1804  0.1230
 2749SOL    HW114262   2.382   3.094   5.954  2.7827 -1.8726  0.5349
 2749SOL    HW214263   2.370   3.071   5.792  1.0292  0.0663  0.3522
 2750SOL     OW14264   5.286   4.971   5.657 -0.0868 -0.5289 -0.1383
 2750SOL    HW114265   5.278   5.040   5.729  1.4434 -0.3604 -0.0817
 2750SOL    HW214266   5.286   5.015   5.568 -1.4961 -0.6958 -0.2455
 2751SOL     OW14267   3.342   5.680   1.736 -0.1115 -0.6864 -0.2715
 2751SOL    HW114268   3.339   5.635   1.825  1.3822 -1.6701 -0.6741
 2751SOL    HW214269   3.266   5.647   1.679 -0.9179 -0.2475  0.5262
 2752SOL     OW14270   5.510   6.312   0.987  0.1691 -0.2956  0.3010
 2752SOL    HW114271   5.468   6.393   0.946 -0.2148 -1.3742 -1.5598
 2752SOL    HW214272   5.609   6.326   0.996  0.1833  0.1745 -0.5246
 2753SOL     OW14273   5.923   4.940   0.119  0.0382  0.0320 -0.1416
 2753SOL    HW114274   6.007   4.896   0.087 -1.0087 -0.2538 -2.8133
 2753SOL    HW214275   5.855   4.938   0.045 -2.2158  0.5470  1.8079
 2754SOL     OW14276   2.592   4.521   1.612 -0.2921  0.1661 -0.2348
 2754SOL    HW114277   2.534   4.580   1.667 -1.7470 -0.5578 -0.9341
 2754SOL    HW214278   2.607   4.435   1.661  2.5043  1.3308  1.1521
 2755SOL     OW14279   2.128   1.877   0.304 -0.2006 -0.5906  0.1351
 2755SOL    HW114280   2.171   1.862   0.393  0.5722 -1.0840 -0.3117
 2755SOL    HW214281   2.198   1.900   0.237 -0.8484  0.3468 -0.2285
 2756SOL     OW14282   1.078   6.284   6.493 -0.3568  0.0976 -0.2126
 2756SOL    HW114283   1.171   6.253   6.514  1.3995  3.4918 -2.1686
 2756SOL    HW214284   1.059   6.368   6.545 -1.9321  0.0407 -0.6653
 2757SOL     OW14285   6.059   1.292   0.324 -0.1722 -0.1109 -0.0293
 2757SOL    HW114286   6.048   1.243   0.411 -1.2164  0.5296  0.2269
 2757SOL    HW214287   5.968   1.312   0.286  0.2389  1.1035 -0.4183
 2758SOL     OW14288   0.831   0.516   0.256 -0.3591 -0.2026 -0.1796
 2758SOL    HW114289   0.890   0.469   0.322 -0.0686  1.3462  0.7103
 2758SOL    HW214290   0.857   0.490   0.163  0.3953 -1.0671  0.2640
 2759SOL     OW14291   4.123   4.895   1.420  0.4434 -0.1961 -0.2560
 2759SOL    HW114292   4.153   4.901   1.515  1.7579  1.8718 -0.7413
 2759SOL    HW214293   4.044   4.834   1.414  0.7094 -0.8682  2.0423
 2760SOL     OW14294   3.296   3.233   0.994 -0.2480  0.2510  0.2738
 2760SOL    HW114295   3.269   3.138   1.008 -0.8440  0.4699  0.6755
 2760SOL    HW214296   3.225   3.280   0.940 -0.2310  0.6000  0.5455
 2761SOL     OW14297   0.608   5.137   1.075 -0.0065 -0.1205 -0.1789
 2761SOL    HW114298   0.566   5.148   0.985 -3.1724 -1.0259  1.0559
 2761SOL    HW214299   0.611   5.040   1.099 -1.1580  0.2104  1.4784
 2762SOL     OW14300   2.218   2.053   5.024 -0.3414  0.1752 -0.0410
 2762SOL    HW114301   2.277   2.125   4.988 -1.1275  1.1100  0.5231
 2762SOL    HW214302   2.124   2.068   4.995 -0.3915 -1.1109 -0.6348
 2763SOL     OW14303   2.134   3.128   0.100 -0.0407 -0.0377  0.1685
 2763SOL    HW114304   2.164   3.053   0.042  0.8583  1.4937 -1.4320
 2763SOL    HW214305   2.058   3.098   0.157  0.5109 -2.2271 -0.1845
 2764SOL     OW14306   2.150   3.843   6.210  0.1250  0.0260 -0.7190
 2764SOL    HW114307   2.231   3.785   6.215 -0.6202 -0.9711  0.9218
 2764SOL    HW214308   2.135   3.887   6.299 -1.8721 -0.9613 -0.4946
 2765SOL     OW14309   0.913   2.944   0.555  0.1145 -0.4688  0.0694
 2765SOL    HW114310   0.951   2.858   0.521 -2.0120 -1.1865 -0.6123
 2765SOL    HW214311   0.869   2.928   0.644  0.2734  0.0820  0.2529
 2766SOL     OW14312   2.058   5.474   0.081  0.2817 -0.2837 -0.7414
 2766SOL    HW114313   1.988   5.403   0.093 -0.7863  0.7261 -0.8432
 2766SOL    HW214314   2.080   5.514   0.170  1.4190 -1.2124 -0.5827
 2767SOL     OW14315   4.750   5.991   1.239 -0.4858  0.0021  0.1170
 2767SOL    HW114316   4.755   5.892   1.251  0.5648 -0.0874 -0.8698
 2767SOL    HW214317   4.805   6.036   1.309 -0.4824 -0.1381  0.2050
 2768SOL     OW14318   4.570   0.875   0.099  0.4159  0.1579  0.0010
 2768SOL    HW114319   4.532   0.902   0.011  0.5036 -0.1216 -0.1237
 2768SOL    HW214320   4.522   0.793   0.132  1.7961 -1.0091 -0.7911
 2769SOL     OW14321   1.777   3.965   0.168  0.0707  0.3172 -0.4242
 2769SOL    HW114322   1.724   3.898   0.117 -0.5159 -0.2331  0.8589
 2769SOL    HW214323   1.727   4.052   0.172 -0.2766  0.1054 -0.0797
 2770SOL     OW14324   2.901   2.718   0.984 -0.0612 -0.2878 -0.2966
 2770SOL    HW114325   2.982   2.660   0.969 -0.6434 -1.2285  0.0873
 2770SOL    HW214326   2.911   2.803   0.933  1.7156  0.1469  0.6955
 2771SOL     OW14327   2.749   6.380   5.521  0.4619 -0.0778 -0.3782
 2771SOL    HW114328   2.846   6.369   5.544  0.2097  2.2504  2.2363
 2771SOL    HW214329   2.740   6.446   5.447  0.8512  0.3377 -0.0637
 2772SOL     OW14330   1.696   3.482   1.117 -0.5539  0.9741  0.3343
 2772SOL    HW114331   1.600   3.504   1.134  0.0656  2.2753  2.5929
 2772SOL    HW214332   1.719   3.396   1.161 -0.9507 -0.0391 -1.3467
 2773SOL     OW14333   0.054   2.224   6.313 -0.3535 -0.0986 -0.0742
 2773SOL    HW114334   0.023   2.162   6.385 -0.0186  1.0697  1.0976
 2773SOL    HW214335   0.134   2.274   6.344 -0.6683  0.9979 -0.9694
 2774SOL     OW14336   0.606   3.007   6.098 -0.4202 -0.2897 -0.1362
 2774SOL    HW114337   0.546   2.977   6.172  0.2001 -0.6405  0.2286
 2774SOL    HW214338   0.642   2.927   6.050 -3.2795 -0.1116 -2.8754
 2775SOL     OW14339   5.648   5.088   0.296 -0.3390 -0.1345 -0.3998
 2775SOL    HW114340   5.740   5.122   0.317 -1.0572  1.2816  0.6401
 2775SOL    HW214341   5.627   5.012   0.356 -0.5612  0.8136  0.7698
 2776SOL     OW14342   3.419   2.387   0.981 -0.0689  0.0592  0.7671
 2776SOL    HW114343   3.453   2.433   1.063 -1.1576 -0.5424  1.5784
 2776SOL    HW214344   3.470   2.302   0.967  1.3749  1.0547 -0.2597
 2777SOL     OW14345   3.450   2.637   0.611  0.1352 -0.0707  0.0325
 2777SOL    HW114346   3.456   2.542   0.581 -1.8433 -0.1026 -0.3967
 2777SOL    HW214347   3.465   2.642   0.710  2.0173 -0.5661 -0.1889
 2778SOL     OW14348   3.926   0.099   6.322 -0.2574  0.2832 -0.0986
 2778SOL    HW114349   3.883   0.033   6.260  0.4870 -0.3616  0.0419
 2778SOL    HW214350   4.011   0.132   6.281  0.7864 -0.9406  0.9862
 2779SOL     OW14351   3.561   2.358   6.448 -0.0069  0.1306  0.2391
 2779SOL    HW114352   3.523   2.295   6.380  2.4677 -0.7350 -0.4540
 2779SOL    HW214353   3.655   2.382   6.422  0.5336  0.8702  2.6422
 2780SOL     OW14354   3.714   5.348   5.784  0.4947 -0.1955 -0.8194
 2780SOL    HW114355   3.809   5.365   5.757  0.3568  1.8612 -0.1511
 2780SOL    HW214356   3.663   5.434   5.783 -1.1359 -1.1104 -0.2099
 2781SOL     OW14357   1.894   0.780   5.542  0.1983 -0.0091  0.3250
 2781SOL    HW114358   1.955   0.711   5.503  0.4000 -0.4831  1.4438
 2781SOL    HW214359   1.813   0.734   5.581  0.4364  0.3530  1.2715
 2782SOL     OW14360   4.459   1.425   0.272  0.4453 -0.0572 -0.0406
 2782SOL    HW114361   4.431   1.330   0.288 -0.5977  0.3208  0.5364
 2782SOL    HW214362   4.462   1.442   0.174  1.6470 -0.9589 -0.1756
 2783SOL     OW14363   5.673   4.269   1.627 -0.4074 -0.2146 -0.2301
 2783SOL    HW114364   5.585   4.317   1.625 -0.9518 -1.1396  0.7746
 2783SOL    HW214365   5.726   4.302   1.705 -1.1249 -1.7937  0.9630
 2784SOL     OW14366   1.526   5.750   5.659 -0.1166 -0.0343 -0.1846
 2784SOL    HW114367   1.620   5.767   5.689  0.9460 -4.8081  0.0011
 2784SOL    HW214368   1.470   5.727   5.738 -0.1470 -1.8916 -0.7213
 2785SOL     OW14369   3.228   5.116   5.798 -0.6566  0.1219  0.0928
 2785SOL    HW114370   3.157   5.178   5.829 -1.9264 -0.7947 -0.8771
 2785SOL    HW214371   3.309   5.168   5.770 -0.7783  1.1489  1.5746
 2786SOL     OW14372   1.486   0.043   1.068 -0.7233  0.6252 -0.5082
 2786SOL    HW114373   1.427   0.112   1.111 -1.1120 -0.5157  0.8842
 2786SOL    HW214374   1.580   0.054   1.102 -1.6126 -2.5601  3.9633
 2787SOL     OW14375   2.301   0.908   0.223  0.1280  0.0604 -0.5156
 2787SOL    HW114376   2.250   0.994   0.226  1.5968  0.9694 -0.6727
 2787SOL    HW214377   2.373   0.910   0.292 -1.4164 -2.1456  1.3119
 2788SOL     OW14378   3.820   4.266   0.526  0.3069  0.2484 -0.4915
 2788SOL    HW114379   3.869   4.288   0.442  0.0522  1.7366 -0.2747
 2788SOL    HW214380   3.747   4.333   0.541 -0.7529 -0.9623  0.0515
 2789SOL     OW14381   2.587   1.975   4.908  0.4969 -0.2829  0.0531
 2789SOL    HW114382   2.659   2.038   4.877  0.3436 -0.3084 -0.3541
 2789SOL    HW214383   2.621   1.922   4.985 -0.4652  2.7133  2.7595
 2790SOL     OW14384   5.512   0.574   6.306  0.1290  0.3717 -0.2505
 2790SOL    HW114385   5.438   0.629   6.344  0.3357  1.0444 -0.8128
 2790SOL    HW214386   5.593   0.583   6.364 -0.7476 -1.9142  1.5016
 2791SOL     OW14387   4.981   1.768   6.304 -0.1233  0.1338 -0.3084
 2791SOL    HW114388   5.017   1.676   6.317 -0.5767  0.0004  0.0435
 2791SOL    HW214389   4.923   1.771   6.223  2.5234  0.9108 -2.3131
 2792SOL     OW14390   2.271   2.937   6.459 -0.0808  0.5778 -0.2863
 2792SOL    HW114391   2.353   2.983   6.490  0.0627 -0.5087  1.0641
 2792SOL    HW214392   2.276   2.921   6.360  1.9453 -0.6257 -0.0400
 2793SOL     OW14393   3.510   0.834   1.015 -0.0092  0.4379  0.0531
 2793SOL    HW114394   3.415   0.834   1.046 -0.9877 -0.2271 -2.6136
 2793SOL    HW214395   3.568   0.875   1.085 -1.8091 -1.5141  2.9530
 2794SOL     OW14396   5.671   4.256   6.504  0.0533  0.4484  0.0392
 2794SOL    HW114397   5.729   4.232   6.582 -0.2168 -0.2226  0.0360
 2794SOL    HW214398   5.722   4.245   6.419  1.9978  5.5583  0.1761
 2795SOL     OW14399   6.302   2.224   5.439 -0.4359 -0.2243  0.5111
 2795SOL    HW114400   6.304   2.253   5.343 -0.9825 -0.5172  0.4088
 2795SOL    HW214401   6.349   2.136   5.448 -0.6704 -0.3562  0.4547
 2796SOL     OW14402   1.937   1.430   5.935 -0.0008 -0.1087 -0.2561
 2796SOL    HW114403   2.000   1.471   6.000  0.9909 -0.0230 -1.2370
 2796SOL    HW214404   1.920   1.335   5.961 -0.6371  0.2861  0.8321
 2797SOL     OW14405   3.821   5.815   6.372  0.0871 -0.3892  0.3435
 2797SOL    HW114406   3.788   5.721   6.367 -0.2269 -0.2353 -1.3374
 2797SOL    HW214407   3.765   5.867   6.435  0.3540 -1.3428  1.4091
 2798SOL     OW14408   1.430   3.989   0.255  0.7214 -0.0247  0.4527
 2798SOL    HW114409   1.415   3.935   0.338 -0.2936 -0.5142 -0.0426
 2798SOL    HW214410   1.435   3.928   0.176  0.2741  0.5486 -0.0236
 2799SOL     OW14411   1.356   1.284   0.648 -0.5086  0.1113  0.4512
 2799SOL    HW114412   1.312   1.312   0.562 -0.7257  0.0464  0.5398
 2799SOL    HW214413   1.443   1.240   0.628 -1.0258 -0.8322  0.1981
 2800SOL     OW14414   6.085   5.232   5.722 -0.1298  0.0458  0.5350
 2800SOL    HW114415   6.077   5.221   5.623 -0.8928 -1.0475  0.6953
 2800SOL    HW214416   6.176   5.203   5.751 -0.1467 -0.3161  0.2349
 2801SOL     OW14417   2.260   1.148   0.713  0.1987 -0.5066 -0.8343
 2801SOL    HW114418   2.177   1.135   0.768 -0.3524  0.7157 -1.3469
 2801SOL    HW214419   2.340   1.123   0.768 -0.2507  1.7376  0.9572
 2802SOL     OW14420   1.831   1.865   6.186  0.9840  0.3297  0.0158
 2802SOL    HW114421   1.812   1.799   6.259 -1.4406  3.0521  2.0207
 2802SOL    HW214422   1.758   1.862   6.119  1.0239  0.7790 -0.0478
 2803SOL     OW14423   4.328   4.867   0.966  0.1349  0.6057  0.3679
 2803SOL    HW114424   4.315   4.899   1.060 -0.4210  0.0552  0.4824
 2803SOL    HW214425   4.396   4.794   0.965  0.4041  0.8564  0.2915
 2804SOL     OW14426   1.445   5.419   4.762 -0.0562  0.3866 -0.3449
 2804SOL    HW114427   1.439   5.481   4.684 -0.8482  0.0524 -0.5592
 2804SOL    HW214428   1.357   5.417   4.810  0.6257  1.1440  0.9980
 2805SOL     OW14429   2.133   6.198   6.142 -0.4717  0.1112  0.1139
 2805SOL    HW114430   2.050   6.238   6.102  0.6638  2.1191 -0.3741
 2805SOL    HW214431   2.192   6.271   6.176  0.8801 -1.3013  0.9302
 2806SOL     OW14432   2.332   3.572   1.858 -0.2817 -0.6273 -0.5028
 2806SOL    HW114433   2.281   3.656   1.875 -0.7776 -0.8420 -0.9321
 2806SOL    HW214434   2.429   3.588   1.878 -0.3356  0.1085 -0.7997
 2807SOL     OW14435   0.223   5.695   0.655  0.0123 -0.4956 -0.2950
 2807SOL    HW114436   0.176   5.671   0.570 -0.3371 -0.4820 -0.1073
 2807SOL    HW214437   0.288   5.622   0.678  1.7084  0.4888 -1.7143
 2808SOL     OW14438   4.549   3.853   6.387 -0.3172  0.5566  0.8057
 2808SOL    HW114439   4.553   3.754   6.401  0.8850  0.8498  3.0461
 2808SOL    HW214440   4.636   3.893   6.414  0.1510  2.0416 -2.4159
 2809SOL     OW14441   6.013   6.007   6.163 -0.6207 -0.4397 -0.0490
 2809SOL    HW114442   6.082   6.062   6.116 -0.7508 -0.3134 -0.0965
 2809SOL    HW214443   6.008   6.035   6.259 -1.4266  0.3851 -0.3100
 2810SOL     OW14444   3.566   1.879   6.075  0.2548  0.0576 -0.1278
 2810SOL    HW114445   3.623   1.805   6.110 -1.1847 -1.1826 -0.2883
 2810SOL    HW214446   3.537   1.937   6.151  1.9516  0.9095 -0.0852
 2811SOL     OW14447   3.041   1.583   5.040  0.8086 -0.4485  0.2788
 2811SOL    HW114448   3.131   1.593   5.083  1.9051 -0.1242 -1.9140
 2811SOL    HW214449   3.002   1.494   5.064  2.7277 -1.5422 -0.4001
 2812SOL     OW14450   2.965   4.856   1.467  0.6332  0.9269  0.5856
 2812SOL    HW114451   3.020   4.797   1.527  1.7481  0.3912 -0.9259
 2812SOL    HW214452   3.023   4.925   1.425  0.1921  0.3679 -1.0198
 2813SOL     OW14453   0.417   5.510   0.502  0.6263 -0.1698  0.0486
 2813SOL    HW114454   0.474   5.506   0.420  0.4405  2.7416 -0.3482
 2813SOL    HW214455   0.321   5.502   0.476  0.6130 -0.0736  0.0656
 2814SOL     OW14456   4.569   1.687   1.245 -0.0717  0.3292 -1.1230
 2814SOL    HW114457   4.641   1.673   1.313 -0.7770  1.9973  0.0400
 2814SOL    HW214458   4.540   1.599   1.208 -1.0416 -0.8923  2.2126
 2815SOL     OW14459   1.514   6.147   0.258  0.0309 -0.7850  0.5108
 2815SOL    HW114460   1.542   6.055   0.285  1.9304 -0.9305 -1.6673
 2815SOL    HW214461   1.529   6.159   0.160 -0.6405  1.6991  0.6514
 2816SOL     OW14462   2.617   0.903   1.083 -0.1824  0.0524 -0.4548
 2816SOL    HW114463   2.633   0.893   1.181 -0.7393  0.2743 -0.3326
 2816SOL    HW214464   2.645   0.994   1.053 -0.2947  0.0911 -0.4416
 2817SOL     OW14465   2.292   4.467   5.732  0.2209  0.5928 -0.5679
 2817SOL    HW114466   2.208   4.453   5.784  0.2416 -1.6032 -1.0500
 2817SOL    HW214467   2.362   4.507   5.791 -0.8321  1.4998  0.1004
 2818SOL     OW14468   2.911   3.662   1.520  0.7036 -0.5122  0.2040
 2818SOL    HW114469   2.894   3.617   1.432  0.2694 -2.1673  1.0932
 2818SOL    HW214470   2.869   3.609   1.594  0.6096  1.1100  1.3858
 2819SOL     OW14471   0.178   3.995   1.174 -0.2857 -0.0594  0.2158
 2819SOL    HW114472   0.100   3.973   1.116 -0.1382 -0.5888  0.2159
 2819SOL    HW214473   0.172   4.091   1.204  1.1422  1.1840 -3.0338
 2820SOL     OW14474   1.389   5.511   6.291  0.0329  0.0529 -0.3455
 2820SOL    HW114475   1.381   5.610   6.277  1.6039 -0.0968 -2.8716
 2820SOL    HW214476   1.481   5.490   6.324 -0.3443 -0.5773  0.3252
 2821SOL     OW14477   1.266   3.724   5.471  0.2460  0.3930 -0.9847
 2821SOL    HW114478   1.207   3.643   5.476 -1.5152  1.6355 -0.9383
 2821SOL    HW214479   1.297   3.737   5.377 -1.2532  0.8715 -1.4363
 2822SOL     OW14480   4.587   6.037   0.669 -0.0263 -0.5011 -0.0737
 2822SOL    HW114481   4.579   5.989   0.582 -2.0876  1.5423 -1.1035
 2822SOL    HW214482   4.601   5.970   0.742 -0.3122 -2.4378 -1.7046
 2823SOL     OW14483   0.011   3.940   1.743  0.0152  0.3111 -0.6282
 2823SOL    HW114484  -0.075   3.965   1.786  0.1374  2.8922 -1.6660
 2823SOL    HW214485  -0.007   3.887   1.660 -0.6869  1.3921 -1.2036
 2824SOL     OW14486   3.780   1.549   5.016  0.2678  0.2984 -0.3885
 2824SOL    HW114487   3.833   1.520   4.936 -1.1193  1.6514 -1.8598
 2824SOL    HW214488   3.829   1.623   5.063  0.5318  0.3138 -0.6799
 2825SOL     OW14489   2.104   5.424   5.296  0.4366  0.7013 -0.3266
 2825SOL    HW114490   2.166   5.349   5.317 -0.7189 -0.3031 -0.3865
 2825SOL    HW214491   2.089   5.428   5.197 -1.1128 -0.3454 -0.1610
 2826SOL     OW14492   2.865   2.802   5.825  0.1957 -0.0624 -0.3859
 2826SOL    HW114493   2.788   2.866   5.827  0.5501  0.3635  0.1284
 2826SOL    HW214494   2.939   2.838   5.882  0.5960 -0.6913 -0.4996
 2827SOL     OW14495   5.264   4.420   1.452  0.5985  0.2110 -0.4805
 2827SOL    HW114496   5.252   4.513   1.487  0.8142  0.3699 -0.8290
 2827SOL    HW214497   5.282   4.423   1.354 -2.8114 -0.3525 -1.2550
 2828SOL     OW14498   1.269   4.884   0.122  0.0527  0.1267 -0.0120
 2828SOL    HW114499   1.215   4.968   0.128  1.1786  1.0538 -1.9283
 2828SOL    HW214500   1.322   4.873   0.205 -1.0458  0.6271  0.7852
 2829SOL     OW14501   2.752   1.986   0.442 -0.6872  0.5484 -0.1372
 2829SOL    HW114502   2.716   1.920   0.507  0.8760  1.1374  1.4087
 2829SOL    HW214503   2.718   1.965   0.350 -1.7664 -1.1944  0.6196
 2830SOL     OW14504   5.530   2.423   0.629 -0.3595 -0.1501 -0.3915
 2830SOL    HW114505   5.475   2.408   0.711  1.6664  2.2222  1.5543
 2830SOL    HW214506   5.488   2.494   0.573 -0.1533  0.5040  0.2660
 2831SOL     OW14507   5.562   2.267   5.117  0.3542 -0.3352 -0.2430
 2831SOL    HW114508   5.514   2.316   5.043  0.2679  1.2912  0.8358
 2831SOL    HW214509   5.660   2.286   5.111  0.3170  0.0038  0.1963
 2832SOL     OW14510   3.857   3.096   1.127 -0.1427 -0.0504  0.3354
 2832SOL    HW114511   3.935   3.097   1.189 -0.6058 -0.7656  0.9468
 2832SOL    HW214512   3.871   3.027   1.057 -0.6535 -0.8702  1.0255
 2833SOL     OW14513   5.224   6.181   0.088 -0.0053  0.1575 -0.2795
 2833SOL    HW114514   5.201   6.230   0.172 -1.8766  1.5551 -1.5158
 2833SOL    HW214515   5.266   6.244   0.023  2.9403 -1.2567  0.0868
 2834SOL     OW14516   1.097   3.024   4.975  0.5453  0.4866 -0.0534
 2834SOL    HW114517   1.016   3.020   4.917  1.2472  0.4891 -1.0439
 2834SOL    HW214518   1.104   2.941   5.030 -0.3712  0.6866  0.3834
 2835SOL     OW14519   4.003   0.964   6.144 -0.2887  0.1655 -0.1679
 2835SOL    HW114520   4.097   0.933   6.130 -0.1041 -0.1331  1.4954
 2835SOL    HW214521   3.948   0.890   6.183 -1.2965  0.2596 -1.3353
 2836SOL     OW14522   2.322   4.575   0.544 -0.0628 -0.4514 -0.3039
 2836SOL    HW114523   2.281   4.665   0.531 -0.5695 -0.8101 -1.2608
 2836SOL    HW214524   2.264   4.505   0.503  0.9310 -1.0875 -0.6807
 2837SOL     OW14525   2.085   5.766   0.759  0.1678 -0.1000  0.0728
 2837SOL    HW114526   2.114   5.816   0.841 -0.3706 -0.0856  0.2543
 2837SOL    HW214527   2.166   5.734   0.710  0.5475  1.2084 -0.2053
 2838SOL     OW14528   3.823   0.375   4.468  0.1267  0.0324 -0.5127
 2838SOL    HW114529   3.734   0.408   4.437 -0.6398 -1.0347  0.4830
 2838SOL    HW214530   3.893   0.444   4.447 -0.8720  0.7578 -1.5726
 2839SOL     OW14531   0.967   4.458   0.555  0.3926  1.0818 -0.2897
 2839SOL    HW114532   0.932   4.540   0.601 -1.0585  0.7660 -0.7888
 2839SOL    HW214533   0.936   4.457   0.460  1.0911  0.3601 -0.5197
 2840SOL     OW14534   6.062   2.137   0.322  0.5844 -0.3101  0.7447
 2840SOL    HW114535   6.051   2.096   0.232  0.0856 -2.1492  1.6066
 2840SOL    HW214536   6.034   2.072   0.393 -0.5068  1.6010  2.1915
 2841SOL     OW14537   0.636   2.049   0.151  0.2194 -0.1769 -0.5184
 2841SOL    HW114538   0.617   2.080   0.244  1.0384 -1.0378 -0.0471
 2841SOL    HW214539   0.734   2.035   0.140  0.2867  1.2105 -1.9421
 2842SOL     OW14540   0.296   4.836   5.766  0.4178  0.4116  0.1322
 2842SOL    HW114541   0.244   4.783   5.699  2.7087 -0.0033 -1.4490
 2842SOL    HW214542   0.292   4.791   5.855 -1.8695  0.4272  0.1008
 2843SOL     OW14543   5.870   4.126   6.294  0.5167  0.5708 -0.4268
 2843SOL    HW114544   5.909   4.105   6.204 -0.2127  0.2554 -0.6777
 2843SOL    HW214545   5.879   4.046   6.354  3.1643  1.5204  0.6003
 2844SOL     OW14546   2.634   6.099   5.509  0.6724  0.0437 -0.3619
 2844SOL    HW114547   2.553   6.115   5.565  0.0296  0.1893 -1.3162
 2844SOL    HW214548   2.683   6.186   5.496 -0.4112  0.4539 -1.8799
 2845SOL     OW14549   5.932   5.984   1.138  0.1366 -0.4062 -0.3114
 2845SOL    HW114550   6.021   5.977   1.183 -0.1675  1.0154  0.5844
 2845SOL    HW214551   5.916   6.079   1.111 -1.3683 -0.5120  0.1109
 2846SOL     OW14552   1.114   0.882   5.223 -0.3286 -0.1778 -0.0414
 2846SOL    HW114553   1.071   0.969   5.247 -0.6654  0.2626 -2.1152
 2846SOL    HW214554   1.121   0.873   5.124  2.3443 -1.2326  0.1443
 2847SOL     OW14555   5.718   2.996   5.310 -0.1245 -0.3111  0.3770
 2847SOL    HW114556   5.703   2.942   5.228 -0.8513  1.3298 -0.6278
 2847SOL    HW214557   5.677   2.950   5.389 -0.4730 -1.3445 -0.3929
 2848SOL     OW14558   4.328   1.859   5.396 -0.6909 -0.1411  0.6694
 2848SOL    HW114559   4.382   1.906   5.326  0.4979 -1.1079  0.8930
 2848SOL    HW214560   4.231   1.870   5.376 -0.4836  2.2653  0.6441
 2849SOL     OW14561   1.697   2.073   4.484  0.7368  0.4524 -0.3917
 2849SOL    HW114562   1.787   2.117   4.485  0.3019  1.3672 -0.2620
 2849SOL    HW214563   1.628   2.138   4.516  0.1435 -0.5047  0.3342
 2850SOL     OW14564   3.862   0.018   5.226 -0.2829  0.2562  0.2651
 2850SOL    HW114565   3.876   0.061   5.315  0.5742  1.2268 -0.3203
 2850SOL    HW214566   3.939  -0.044   5.207  1.5646  2.8420 -1.3618
 2851SOL     OW14567   2.550   6.118   1.078 -0.5234 -0.3093 -0.2550
 2851SOL    HW114568   2.539   6.214   1.105 -2.0189  0.0169 -1.8588
 2851SOL    HW214569   2.593   6.067   1.153  2.7669  2.0880 -0.2608
 2852SOL     OW14570   3.800   1.684   5.509 -0.1710  0.5520  0.4486
 2852SOL    HW114571   3.743   1.679   5.590  0.4115  3.3330  1.1211
 2852SOL    HW214572   3.874   1.750   5.524  1.0805 -0.2717 -1.6760
 2853SOL     OW14573   5.678   0.675   0.229 -0.2202 -0.3602  0.2369
 2853SOL    HW114574   5.645   0.584   0.255 -0.3263 -0.3068  0.2875
 2853SOL    HW214575   5.685   0.732   0.311  2.0983 -1.0390  0.6002
 2854SOL     OW14576   2.308   5.573   5.563 -0.1782  0.3212 -0.0514
 2854SOL    HW114577   2.238   5.604   5.628  0.1412  0.4603  0.2313
 2854SOL    HW214578   2.337   5.650   5.507 -1.7288 -0.1581 -1.5973
 2855SOL     OW14579   0.651   5.024   5.435  0.0306  0.3641 -0.1613
 2855SOL    HW114580   0.675   4.969   5.354  0.3976  0.8965 -0.4198
 2855SOL    HW214581   0.652   4.965   5.516  1.6372  0.2251 -0.2521
 2856SOL     OW14582   2.812   3.284   1.400  0.1433 -0.2613 -0.4569
 2856SOL    HW114583   2.767   3.303   1.487  0.4317  1.1452 -0.5903
 2856SOL    HW214584   2.911   3.287   1.412  0.1869 -0.0376 -0.8182
 2857SOL     OW14585   4.157   2.476   0.264 -0.1632 -0.4950  0.2372
 2857SOL    HW114586   4.147   2.429   0.352 -0.9245 -0.5004  0.1567
 2857SOL    HW214587   4.212   2.559   0.276 -0.1665 -0.5571  0.6920
 2858SOL     OW14588   5.057   4.572   6.252  0.0947  0.2067  0.0253
 2858SOL    HW114589   5.070   4.660   6.298  0.9786  0.1362 -0.0636
 2858SOL    HW214590   5.135   4.513   6.271 -0.3890 -0.4862 -0.0918
 2859SOL     OW14591   3.238   0.703   0.240  0.6398 -0.3017 -0.4354
 2859SOL    HW114592   3.325   0.749   0.258  1.1289 -1.1738 -0.5285
 2859SOL    HW214593   3.255   0.619   0.189 -0.2508 -0.5401 -0.3492
 2860SOL     OW14594   4.182   1.600   0.067  0.1479 -0.3157  0.3440
 2860SOL    HW114595   4.228   1.669   0.012 -0.1183  0.5602  1.2030
 2860SOL    HW214596   4.206   1.509   0.033  0.7590  0.1834 -0.5908
 2861SOL     OW14597   1.336   5.083   0.810 -0.4114  0.2181  0.0603
 2861SOL    HW114598   1.323   5.004   0.870  1.1132  0.3421  0.6063
 2861SOL    HW214599   1.432   5.112   0.813 -0.4576  0.7174 -1.8598
 2862SOL     OW14600   4.966   1.678   5.544 -0.3334  0.0122  0.2312
 2862SOL    HW114601   5.024   1.604   5.510  1.5886  1.2774  0.6020
 2862SOL    HW214602   4.918   1.721   5.468  0.4445 -0.0602 -0.3102
 2863SOL     OW14603   0.474   5.398   0.261 -0.0310 -0.0379  0.7852
 2863SOL    HW114604   0.462   5.305   0.296 -1.6587 -0.4031 -0.5880
 2863SOL    HW214605   0.557   5.402   0.205  1.3662 -0.0003  2.7638
 2864SOL     OW14606   3.168   0.749   5.739  0.7036 -0.1204  0.1194
 2864SOL    HW114607   3.142   0.780   5.648  1.0865 -0.9362 -0.2764
 2864SOL    HW214608   3.124   0.661   5.758  0.9715 -0.1659  0.5420
 2865SOL     OW14609   1.536   5.877   0.330  0.0680 -0.4513  0.1918
 2865SOL    HW114610   1.479   5.804   0.290 -2.0239  1.4074 -0.4265
 2865SOL    HW214611   1.494   5.908   0.416  0.3808  0.6461 -0.0389
 2866SOL     OW14612   3.619   5.482   6.057 -0.5221  0.4529 -0.8870
 2866SOL    HW114613   3.662   5.392   6.048 -0.2707  0.5763 -0.9163
 2866SOL    HW214614   3.578   5.508   5.969  0.6429  0.9968 -1.2950
 2867SOL     OW14615   3.399   4.583   5.849 -0.3091 -0.0087 -0.3843
 2867SOL    HW114616   3.360   4.669   5.816 -0.7737 -0.4012 -0.8785
 2867SOL    HW214617   3.326   4.525   5.885  0.2599  0.6735  2.0121
 2868SOL     OW14618   5.297   5.860   5.702  0.1985 -0.2999  0.4793
 2868SOL    HW114619   5.377   5.800   5.697  0.6056  0.2190  0.6965
 2868SOL    HW214620   5.303   5.931   5.632  0.3213  0.2121  1.0017
 2869SOL     OW14621   3.917   2.462   0.136  0.5397  0.1533  0.3206
 2869SOL    HW114622   3.998   2.477   0.193  1.4654  2.0077 -1.3489
 2869SOL    HW214623   3.835   2.472   0.191  1.3976 -1.1649  1.9253
 2870SOL     OW14624   3.084   4.112   1.201 -0.6745 -0.1477  0.5421
 2870SOL    HW114625   3.126   4.021   1.201  0.1589  0.2294 -0.0175
 2870SOL    HW214626   2.991   4.105   1.238 -1.2124 -1.4972 -0.9338
 2871SOL     OW14627   4.340   1.760   6.442 -0.1440 -0.0379 -0.1110
 2871SOL    HW114628   4.396   1.736   6.362  0.1228 -0.8538  0.3135
 2871SOL    HW214629   4.375   1.845   6.482 -1.1499  1.1627 -1.6757
 2872SOL     OW14630   5.363   4.666   5.771 -0.2081 -0.2071 -0.2218
 2872SOL    HW114631   5.377   4.763   5.754 -0.0143  0.0904  1.4253
 2872SOL    HW214632   5.267   4.650   5.794 -0.1722 -0.3334 -0.1581
 2873SOL     OW14633   5.820   2.711   0.791 -0.0349 -0.0034  0.3806
 2873SOL    HW114634   5.903   2.757   0.760  0.9686 -1.4994  0.7672
 2873SOL    HW214635   5.827   2.613   0.773 -1.1468 -0.3496  1.6590
 2874SOL     OW14636   1.604   0.818   1.544  0.0240 -0.0170 -0.4542
 2874SOL    HW114637   1.536   0.891   1.553  0.4962  0.1820  2.1950
 2874SOL    HW214638   1.633   0.788   1.635  2.5567 -0.9988 -1.5082
 2875SOL     OW14639   3.920   5.173   0.922 -0.2623  0.0685 -0.6890
 2875SOL    HW114640   3.870   5.147   0.839  1.1064  0.9212 -1.8408
 2875SOL    HW214641   3.917   5.098   0.988 -1.3679 -0.6391 -1.5127
 2876SOL     OW14642   5.134   3.819   0.483  0.1109  0.8639  0.3820
 2876SOL    HW114643   5.172   3.813   0.575 -2.6488 -1.5776  1.5158
 2876SOL    HW214644   5.185   3.758   0.422  1.3549  1.7875  0.4378
 2877SOL     OW14645   1.872   6.265   0.602 -0.5538  0.7814 -0.2728
 2877SOL    HW114646   1.928   6.294   0.525 -0.5229  0.7589 -0.2588
 2877SOL    HW214647   1.792   6.325   0.609 -0.6203  0.7057 -0.3971
 2878SOL     OW14648   3.665   4.794   0.881  0.6716 -0.5312  0.4031
 2878SOL    HW114649   3.744   4.779   0.821 -0.2505 -1.4004 -0.6510
 2878SOL    HW214650   3.584   4.753   0.840 -0.1327 -0.5980  1.9693
 2879SOL     OW14651   0.543   4.354   0.294  0.0187 -0.1595 -0.3715
 2879SOL    HW114652   0.517   4.420   0.364  0.1286 -0.5669  0.0589
 2879SOL    HW214653   0.546   4.399   0.205  0.8963  0.5955  0.0329
 2880SOL     OW14654   2.555   0.387   1.212  0.4692 -0.1197  0.0269
 2880SOL    HW114655   2.617   0.310   1.229  1.0698  0.7493  2.1229
 2880SOL    HW214656   2.492   0.364   1.138  1.4363 -2.1352 -0.2261
 2881SOL     OW14657   3.457   5.268   5.694 -0.1327 -0.6623  0.7276
 2881SOL    HW114658   3.429   5.355   5.654 -3.3337 -1.6108  0.5857
 2881SOL    HW214659   3.556   5.265   5.703  0.3441  1.6450 -2.3229
 2882SOL     OW14660   3.548   4.833   0.455 -0.7665 -0.0496 -0.4363
 2882SOL    HW114661   3.637   4.874   0.433  0.0544 -1.6075 -0.2142
 2882SOL    HW214662   3.522   4.857   0.548 -0.4446  0.2027 -0.4118
 2883SOL     OW14663   4.010   1.841   5.652  0.2552  0.6706  0.0375
 2883SOL    HW114664   4.054   1.758   5.619 -1.3277  0.2162 -1.0344
 2883SOL    HW214665   4.065   1.921   5.626  1.3180  0.0380  0.2760
 2884SOL     OW14666   1.622   0.647   0.961  0.6729 -0.1000  0.5514
 2884SOL    HW114667   1.598   0.667   0.866 -0.2666  0.8706  0.9749
 2884SOL    HW214668   1.718   0.620   0.966  0.5124 -0.9914 -0.7789
 2885SOL     OW14669   5.044   2.608   1.155  0.1000 -0.7819  0.5750
 2885SOL    HW114670   5.103   2.556   1.094  1.0224 -1.3457  1.9058
 2885SOL    HW214671   4.968   2.646   1.103  1.0428 -0.9439 -0.9747
 2886SOL     OW14672   5.942   3.201   0.940  0.1317 -0.1349 -0.7742
 2886SOL    HW114673   5.933   3.125   1.005 -0.6560  1.1468  0.7049
 2886SOL    HW214674   5.858   3.254   0.941  0.6740  0.7677 -1.7779
 2887SOL     OW14675   1.743   0.794   0.122  0.4108 -0.3578  0.6351
 2887SOL    HW114676   1.716   0.726   0.054  1.5637  0.3380 -0.5752
 2887SOL    HW214677   1.731   0.756   0.214  0.0670 -1.8029  0.0278
 2888SOL     OW14678   1.979   5.936   5.954 -0.0710 -0.0495 -0.6275
 2888SOL    HW114679   2.071   5.947   5.992 -0.8194  0.1141  1.2620
 2888SOL    HW214680   1.959   6.010   5.890 -0.0839  1.9394  1.5515
 2889SOL     OW14681   3.527   5.975   0.448 -0.5990  0.6846 -0.2064
 2889SOL    HW114682   3.437   6.001   0.413 -0.3556  2.5328  0.4130
 2889SOL    HW214683   3.517   5.909   0.521 -1.3659 -0.0360 -0.9422
 2890SOL     OW14684   1.078   5.750   0.334 -0.3588 -0.2659  0.2458
 2890SOL    HW114685   1.069   5.807   0.416 -1.1872  0.1963 -0.1535
 2890SOL    HW214686   0.994   5.698   0.320 -0.6960  0.5664 -0.9740
 2891SOL     OW14687   2.137   3.857   0.575  0.1771  0.8293 -0.3392
 2891SOL    HW114688   2.180   3.947   0.580 -1.0637  1.4133  0.3297
 2891SOL    HW214689   2.142   3.823   0.481  3.3611  0.1780 -0.0420
 2892SOL     OW14690   6.001   1.188   0.574 -0.0951 -0.1783  0.7307
 2892SOL    HW114691   5.921   1.147   0.618 -0.7462  2.0393  1.7670
 2892SOL    HW214692   6.035   1.262   0.631  3.0570 -1.3574  0.5489
 2893SOL     OW14693   2.025   5.020   0.188 -0.6768  0.0405 -0.2324
 2893SOL    HW114694   1.983   5.012   0.097 -1.1999  0.3180 -0.0183
 2893SOL    HW214695   1.954   5.028   0.257 -0.2813 -0.3253  0.2222
 2894SOL     OW14696   0.423   2.104   5.488  0.5840  0.2519  0.3420
 2894SOL    HW114697   0.350   2.172   5.487 -0.1224 -0.4381  1.6203
 2894SOL    HW214698   0.510   2.147   5.465 -0.2848  0.9633 -1.8928
 2895SOL     OW14699   1.260   5.928   5.324 -0.4776  0.3408 -0.4873
 2895SOL    HW114700   1.224   6.021   5.310  1.9320  1.3850 -0.1725
 2895SOL    HW214701   1.238   5.872   5.244 -0.5808  1.6411 -1.4015
 2896SOL     OW14702   3.908   0.501   0.479  0.4150 -0.5092 -0.0246
 2896SOL    HW114703   3.980   0.487   0.547  0.2505 -1.0868  0.0365
 2896SOL    HW214704   3.853   0.417   0.471 -0.8303  0.2188  0.6095
 2897SOL     OW14705   5.371   2.871   1.450 -0.3199  0.0637 -0.5383
 2897SOL    HW114706   5.463   2.908   1.438  0.1783 -1.6286 -2.3595
 2897SOL    HW214707   5.304   2.944   1.435  0.6718  1.0907 -0.1516
 2898SOL     OW14708   2.384   4.539   1.184  0.0295 -0.5282 -0.6716
 2898SOL    HW114709   2.473   4.506   1.153  1.5896  2.7497 -0.1409
 2898SOL    HW214710   2.379   4.535   1.284 -0.8568 -1.5757 -0.7363
 2899SOL     OW14711   4.409   0.478   1.570 -0.4264 -0.4035 -0.3420
 2899SOL    HW114712   4.490   0.420   1.562 -0.3844 -0.4551  0.3556
 2899SOL    HW214713   4.386   0.489   1.667  0.6107  2.1706 -0.3145
 2900SOL     OW14714   5.266   3.292   5.737  0.2115  0.0677 -1.1407
 2900SOL    HW114715   5.249   3.195   5.757 -0.4776  0.2959 -0.5469
 2900SOL    HW214716   5.222   3.315   5.650 -1.2327  0.2687 -0.3860
 2901SOL     OW14717   4.426   6.257   4.838  0.2374 -0.0896 -0.3049
 2901SOL    HW114718   4.455   6.352   4.846  1.2400 -0.3654 -0.5733
 2901SOL    HW214719   4.342   6.252   4.783 -1.1826  0.8498  1.6436
 2902SOL     OW14720   5.517   6.382   5.329 -0.5540  0.5625 -0.4379
 2902SOL    HW114721   5.503   6.313   5.258  0.7142  1.2075 -1.3627
 2902SOL    HW214722   5.603   6.430   5.312 -1.3617  2.3372  0.2060
 2903SOL     OW14723   2.399   3.402   0.791  0.0644  0.2368 -0.3370
 2903SOL    HW114724   2.366   3.384   0.884 -0.6640 -1.1992 -0.8435
 2903SOL    HW214725   2.322   3.405   0.728  0.7005 -1.0706 -1.2163
 2904SOL     OW14726   3.482   1.658   0.523 -0.1089  0.4424  0.0947
 2904SOL    HW114727   3.417   1.725   0.488 -0.1073  0.4741  0.1530
 2904SOL    HW214728   3.544   1.630   0.449 -0.6726 -0.1602 -0.1607
 2905SOL     OW14729   5.689   1.395   5.731  0.1147  0.0307  0.5158
 2905SOL    HW114730   5.601   1.430   5.700  1.2903  1.0113 -1.9940
 2905SOL    HW214731   5.718   1.319   5.672  1.0250 -0.1993  1.2259
 2906SOL     OW14732   0.158   0.616   5.688 -0.7189 -0.1148 -0.1678
 2906SOL    HW114733   0.149   0.598   5.590  1.1265  0.3598 -0.4693
 2906SOL    HW214734   0.192   0.535   5.734  1.0276  0.4528 -0.3985
 2907SOL     OW14735   3.715   0.181   6.511 -0.1881  0.2072 -0.1226
 2907SOL    HW114736   3.774   0.134   6.446 -0.0232  0.2166  0.0222
 2907SOL    HW214737   3.693   0.272   6.476  0.7356  0.6078  0.3114
 2908SOL     OW14738   4.994   0.459   6.481 -0.0942 -0.3583  0.5147
 2908SOL    HW114739   5.040   0.505   6.557 -0.6007  1.9515 -0.4858
 2908SOL    HW214740   4.901   0.434   6.508 -0.1793  0.2120  0.7601
 2909SOL     OW14741   3.465   5.004   6.183  0.1378  0.3756  0.9636
 2909SOL    HW114742   3.379   5.053   6.171  1.5887  3.0558  0.7212
 2909SOL    HW214743   3.508   4.989   6.094 -0.1241 -1.1790  1.0589
 2910SOL     OW14744   2.585   5.761   4.817 -0.2988  0.3992 -0.2425
 2910SOL    HW114745   2.570   5.663   4.831  1.4100  0.1651  0.2289
 2910SOL    HW214746   2.682   5.777   4.799 -0.6361  1.9674 -0.7884
 2911SOL     OW14747   3.440   2.688   5.852 -0.4975  0.4200 -0.1842
 2911SOL    HW114748   3.479   2.763   5.800  0.3293 -0.0056 -0.2048
 2911SOL    HW214749   3.418   2.612   5.791 -1.5588  0.7252 -0.1978
 2912SOL     OW14750   2.826   4.066   0.058  0.1733  0.3222 -0.3644
 2912SOL    HW114751   2.771   4.045   0.139 -0.3389 -0.0906 -0.8179
 2912SOL    HW214752   2.799   4.155   0.021  0.3981  0.5050 -0.0937
 2913SOL     OW14753   5.858   1.736   5.062 -0.2078 -0.1777  0.1705
 2913SOL    HW114754   5.837   1.666   5.130 -3.1728 -0.0845 -0.5185
 2913SOL    HW214755   5.777   1.753   5.006  1.4027  1.5128 -1.8001
 2914SOL     OW14756   0.226   0.362   5.799 -0.4829  0.2804  0.2598
 2914SOL    HW114757   0.127   0.379   5.792 -0.3162  1.4241  0.5860
 2914SOL    HW214758   0.262   0.408   5.880  0.5972  1.1717 -0.7014
 2915SOL     OW14759   2.926   1.911   4.318  0.2137  0.0754 -0.7430
 2915SOL    HW114760   2.845   1.961   4.287 -0.7909 -0.3022  1.1276
 2915SOL    HW214761   3.006   1.940   4.266 -0.5327  2.8606 -0.4599
 2916SOL     OW14762   6.261   4.549   0.688 -0.4737 -0.0621 -0.6726
 2916SOL    HW114763   6.207   4.466   0.702 -0.2107 -0.4053 -1.6164
 2916SOL    HW214764   6.251   4.580   0.594 -0.4769  0.9217 -0.3619
 2917SOL     OW14765   4.187   4.416   5.513  0.0402 -0.0684  0.2197
 2917SOL    HW114766   4.239   4.499   5.531  0.9656 -0.7886  0.9980
 2917SOL    HW214767   4.198   4.352   5.590 -1.0493 -0.7190 -0.1291
 2918SOL     OW14768   5.039   0.526   6.213  0.8237 -0.3083 -0.4375
 2918SOL    HW114769   5.075   0.447   6.164 -0.5007 -0.6738 -0.8813
 2918SOL    HW214770   5.018   0.501   6.307  1.3130 -0.2188 -0.3058
 2919SOL     OW14771   1.222   1.380   0.875 -0.5299  0.2027  0.1042
 2919SOL    HW114772   1.269   1.342   0.796 -1.0795 -1.2456  0.4491
 2919SOL    HW214773   1.253   1.335   0.958 -1.1417  0.5624  0.5391
 2920SOL     OW14774   6.252   5.713   5.933  0.2323  0.3751  0.0018
 2920SOL    HW114775   6.346   5.732   5.959  0.1347  0.0689  0.5774
 2920SOL    HW214776   6.197   5.698   6.014  0.1072 -1.4995 -0.3963
 2921SOL     OW14777   1.099   1.791   1.297  0.1647  0.6083 -0.1135
 2921SOL    HW114778   1.159   1.719   1.262 -1.1982 -0.6278 -0.0170
 2921SOL    HW214779   1.091   1.783   1.396  0.0389  0.9134 -0.0974
 2922SOL     OW14780   0.565   1.216   1.020 -0.5398 -0.0545 -0.0341
 2922SOL    HW114781   0.521   1.293   1.066  2.5806  2.3805 -0.7758
 2922SOL    HW214782   0.582   1.143   1.086 -3.5029 -0.1805  0.7190
 2923SOL     OW14783   6.065   3.473   6.043  0.0478  0.0533 -0.2666
 2923SOL    HW114784   6.102   3.565   6.030 -1.4413  0.5857 -0.9176
 2923SOL    HW214785   6.040   3.435   5.954 -0.8090 -0.3548  0.1427
 2924SOL     OW14786   5.803   3.827   1.053  0.2020 -0.0745  0.1892
 2924SOL    HW114787   5.722   3.769   1.057 -0.6992  1.0912 -0.6027
 2924SOL    HW214788   5.885   3.770   1.068 -0.5867 -1.6654 -1.1502
 2925SOL     OW14789   4.417   2.440   5.660 -0.8505 -0.2654  0.3070
 2925SOL    HW114790   4.433   2.538   5.649  0.0978 -0.3396  0.8722
 2925SOL    HW214791   4.411   2.397   5.570 -1.5854  0.3465  0.0521
 2926SOL     OW14792   0.931   3.507   0.011  0.7195 -0.1632 -0.0659
 2926SOL    HW114793   0.886   3.516  -0.078 -2.3833 -1.5046  1.2321
 2926SOL    HW214794   0.932   3.597   0.056  2.2799  0.5167 -1.3780
 2927SOL     OW14795   1.212   6.279   0.770 -0.3007 -0.2677 -0.3026
 2927SOL    HW114796   1.211   6.353   0.704  1.4119 -1.3219 -1.6083
 2927SOL    HW214797   1.302   6.276   0.815  1.1050 -3.5694 -2.8598
 2928SOL     OW14798   1.357   0.810   0.888  0.3170  0.1392  0.4891
 2928SOL    HW114799   1.333   0.904   0.861 -0.6387 -0.3125 -0.2991
 2928SOL    HW214800   1.293   0.779   0.958 -2.3344 -1.4484 -2.3625
 2929SOL     OW14801   5.054   3.182   1.689  0.4464 -0.2166 -0.7823
 2929SOL    HW114802   4.988   3.195   1.763  0.4547 -0.6056 -0.7026
 2929SOL    HW214803   5.146   3.172   1.728  0.2871 -1.7929 -0.7269
 2930SOL     OW14804   0.724   0.348   6.203  0.4051  0.2134  0.6895
 2930SOL    HW114805   0.641   0.351   6.258 -0.3296 -1.9664 -0.2269
 2930SOL    HW214806   0.706   0.387   6.112  0.9423  1.5170  1.1210
 2931SOL     OW14807   1.453   1.171   4.667  0.3025 -0.2819 -0.2547
 2931SOL    HW114808   1.550   1.150   4.662  0.2023 -0.6278 -0.7330
 2931SOL    HW214809   1.441   1.271   4.674  0.7341 -0.3046  1.1633
 2932SOL     OW14810   3.788   0.465   0.835  0.1884 -0.1639  0.1854
 2932SOL    HW114811   3.792   0.370   0.803  3.6019 -0.7865  1.9477
 2932SOL    HW214812   3.699   0.483   0.876 -1.1101 -2.0537 -1.5946
 2933SOL     OW14813   0.056   0.648   0.736 -0.2520 -0.1527 -0.2201
 2933SOL    HW114814  -0.007   0.674   0.810 -0.6659  0.5905 -0.8240
 2933SOL    HW214815   0.027   0.560   0.698  0.6417 -1.1396  1.2449
 2934SOL     OW14816   5.070   4.065   0.374 -0.5281  0.1694  0.2618
 2934SOL    HW114817   5.099   3.972   0.396 -0.5254 -1.2552 -4.7114
 2934SOL    HW214818   5.151   4.125   0.368 -0.6182  1.1456  4.8780
 2935SOL     OW14819   0.790   1.166   6.417  0.5674  0.6338 -0.1675
 2935SOL    HW114820   0.746   1.251   6.444  0.8380  0.8571 -0.4179
 2935SOL    HW214821   0.848   1.133   6.491  0.6917  0.8230 -0.1810
 2936SOL     OW14822   1.542   3.163   1.154 -0.1191 -0.0309  0.0794
 2936SOL    HW114823   1.503   3.212   1.232  0.4095  1.6168 -0.6657
 2936SOL    HW214824   1.642   3.173   1.154  0.0558 -1.4930  0.1441
 2937SOL     OW14825   5.241   3.019   0.514 -0.8614  0.5312  0.1673
 2937SOL    HW114826   5.200   3.053   0.430  0.5987 -1.1213 -1.3003
 2937SOL    HW214827   5.188   2.941   0.548 -1.3531  1.0908  0.7028
 2938SOL     OW14828   5.048   3.229   1.263 -0.5897 -0.4372  0.0044
 2938SOL    HW114829   5.101   3.313   1.272 -1.7866  0.5713 -1.7228
 2938SOL    HW214830   5.051   3.197   1.168 -0.0691 -2.4595  0.6330
 2939SOL     OW14831   3.807   5.735   6.060 -0.1049 -0.1591  0.2767
 2939SOL    HW114832   3.730   5.679   6.031 -1.1044  1.0578  0.4822
 2939SOL    HW214833   3.785   5.780   6.146  0.7952  0.2900  0.2820
 2940SOL     OW14834   2.117   5.194   4.740  0.4800  0.0338 -0.5425
 2940SOL    HW114835   2.026   5.152   4.742  0.5671 -0.1425  0.8887
 2940SOL    HW214836   2.116   5.272   4.678 -1.4694  1.7646  1.4884
 2941SOL     OW14837   5.628   6.359   5.946  0.1522 -0.1789  0.2274
 2941SOL    HW114838   5.577   6.346   5.861  2.8419 -0.0963 -1.5458
 2941SOL    HW214839   5.624   6.455   5.974 -1.2564 -0.3245  0.5693
 2942SOL     OW14840   1.309   3.055   6.370 -0.7390 -0.5244 -0.4848
 2942SOL    HW114841   1.251   2.983   6.333 -0.9023 -0.1367 -0.9892
 2942SOL    HW214842   1.252   3.132   6.400 -0.5942 -0.7531  0.3952
 2943SOL     OW14843   0.793   0.810   0.224  0.1413 -0.0947 -0.2463
 2943SOL    HW114844   0.776   0.713   0.245  0.4795  0.4255  2.9284
 2943SOL    HW214845   0.891   0.826   0.216  0.0524 -0.1182 -1.6404
 2944SOL     OW14846   6.327   4.803   0.277 -0.4217  0.4707  0.0180
 2944SOL    HW114847   6.370   4.754   0.202 -0.8023  0.0123  0.0938
 2944SOL    HW214848   6.353   4.899   0.273  0.1399  0.3100 -0.2714
 2945SOL     OW14849   3.017   5.745   0.654 -0.0617  0.1772  0.1699
 2945SOL    HW114850   3.064   5.767   0.740  0.1754 -1.8867  0.6195
 2945SOL    HW214851   3.061   5.666   0.611 -0.9939  0.3633 -1.1910
 2946SOL     OW14852   4.867   3.414   0.368  0.1530  0.1918 -0.1319
 2946SOL    HW114853   4.789   3.458   0.414  0.1195 -0.3402  0.3279
 2946SOL    HW214854   4.933   3.385   0.437  0.7833  0.6683 -0.5228
 2947SOL     OW14855   2.285   3.792   1.594  0.1397 -0.3078 -0.0919
 2947SOL    HW114856   2.224   3.793   1.672  0.0787  1.0008 -0.1476
 2947SOL    HW214857   2.380   3.793   1.625  0.1131  1.1307 -0.0347
 2948SOL     OW14858   6.264   3.893   6.245 -0.5884  0.2004  0.1172
 2948SOL    HW114859   6.238   3.846   6.329 -1.5075 -0.0944 -0.3185
 2948SOL    HW214860   6.332   3.964   6.266  1.9664 -2.1945  0.6058
 2949SOL     OW14861   4.851   6.159   1.648 -0.3131  0.3390 -0.3801
 2949SOL    HW114862   4.898   6.124   1.567  0.0564  0.8848 -0.4049
 2949SOL    HW214863   4.901   6.130   1.730  0.2057  1.0985 -0.4142
 2950SOL     OW14864   2.635   4.812   6.178  0.1698 -0.1900 -0.1279
 2950SOL    HW114865   2.564   4.800   6.108 -0.0441 -0.7749  0.1795
 2950SOL    HW214866   2.723   4.828   6.133  0.0288 -0.5273 -0.5379
 2951SOL     OW14867   5.945   1.007   6.070 -0.2937  0.5643 -0.5255
 2951SOL    HW114868   5.927   1.007   5.971 -3.2530 -0.3865 -0.0748
 2951SOL    HW214869   5.914   0.921   6.110  3.2682 -0.2066  0.9479
 2952SOL     OW14870   5.191   0.303   6.171 -0.2926 -0.1792  0.3483
 2952SOL    HW114871   5.109   0.249   6.147 -1.0072  1.5593 -1.3767
 2952SOL    HW214872   5.252   0.306   6.092 -1.0021  2.7326 -0.1999
 2953SOL     OW14873   3.533   4.053   5.739  0.6429 -0.2225  0.6234
 2953SOL    HW114874   3.607   4.076   5.803 -0.1913 -0.0352  1.5507
 2953SOL    HW214875   3.568   4.056   5.646  1.9777 -0.8150  1.0733
 2954SOL     OW14876   3.617   4.787   5.935  0.2024 -0.2068  0.0402
 2954SOL    HW114877   3.612   4.807   5.837  0.4659  1.7950  0.3992
 2954SOL    HW214878   3.611   4.688   5.949  1.5648 -0.6649 -2.0860
 2955SOL     OW14879   2.407   2.917   1.291  0.3816  0.4896  0.3049
 2955SOL    HW114880   2.440   2.892   1.200 -1.0720 -0.0870 -0.0926
 2955SOL    HW214881   2.307   2.921   1.290  0.4015  2.3517  1.3994
 2956SOL     OW14882   2.589   1.519   0.001  0.1522 -0.3920  0.7024
 2956SOL    HW114883   2.623   1.462  -0.074  1.5132 -1.0853  1.7952
 2956SOL    HW214884   2.608   1.474   0.088  1.2300  1.6675  1.6143
 2957SOL     OW14885   4.455   3.843   0.907  0.5023  0.4636 -0.1321
 2957SOL    HW114886   4.522   3.880   0.842  0.4820  2.2879  0.8324
 2957SOL    HW214887   4.471   3.883   0.997  0.2449 -1.6935  0.9153
 2958SOL     OW14888   0.988   3.467   1.387  0.3105  0.3975  0.3633
 2958SOL    HW114889   0.908   3.468   1.447  0.7466 -0.1699  0.9752
 2958SOL    HW214890   1.070   3.491   1.439  0.7449 -0.4224  0.0873
 2959SOL     OW14891   1.282   2.671   5.177  0.2823  0.4732 -1.3832
 2959SOL    HW114892   1.365   2.702   5.130  1.5210  4.5997  2.7789
 2959SOL    HW214893   1.203   2.721   5.142  0.8422  1.9902 -0.5405
 2960SOL     OW14894   1.527   1.263   1.647 -0.3340  0.2272 -0.6876
 2960SOL    HW114895   1.573   1.329   1.588  0.1035  1.9487  1.4392
 2960SOL    HW214896   1.563   1.271   1.740 -2.3483 -0.9732  0.2566
 2961SOL     OW14897   4.267   3.989   1.632  0.3012 -0.3737 -0.1447
 2961SOL    HW114898   4.239   4.074   1.677 -0.1810  0.1349 -1.3503
 2961SOL    HW214899   4.224   3.911   1.678 -1.7924  0.2681 -0.9049
 2962SOL     OW14900   4.030   6.261   5.841 -0.8832  0.4552  0.1630
 2962SOL    HW114901   3.954   6.197   5.854 -1.2075  0.8530  0.2489
 2962SOL    HW214902   4.100   6.218   5.784 -1.7091  0.5032 -0.9213
 2963SOL     OW14903   5.188   5.769   5.404  0.4046 -0.0413  0.6025
 2963SOL    HW114904   5.149   5.845   5.351  1.9249  0.4879  0.1870
 2963SOL    HW214905   5.127   5.747   5.479 -1.1026  0.1659 -0.5114
 2964SOL     OW14906   3.103   3.558   1.155  0.3052  0.2991 -0.3635
 2964SOL    HW114907   3.163   3.555   1.235 -0.2750  2.2967  0.2027
 2964SOL    HW214908   3.008   3.551   1.184  0.1020  0.7910 -0.8908
 2965SOL     OW14909   4.666   4.221   6.307 -0.3070 -0.1277  0.0161
 2965SOL    HW114910   4.578   4.254   6.273 -0.4576 -0.6439 -0.1016
 2965SOL    HW214911   4.652   4.142   6.366 -0.0428  0.7230  1.2486
 2966SOL     OW14912   1.692   2.418   1.033 -0.4220  0.0150 -0.3437
 2966SOL    HW114913   1.634   2.428   1.114  2.1603  2.1309  1.4160
 2966SOL    HW214914   1.745   2.333   1.040  0.7491  0.8158  0.9241
 2967SOL     OW14915   4.897   3.771   5.548 -0.0190 -0.1589  0.6040
 2967SOL    HW114916   4.861   3.678   5.546 -0.8647  0.1664  0.3971
 2967SOL    HW214917   4.835   3.832   5.499  0.4879  0.5303  0.8082
 2968SOL     OW14918   4.916   0.780   6.245 -0.0105 -0.1884 -0.3681
 2968SOL    HW114919   4.882   0.742   6.331 -1.8482  1.3629 -0.3296
 2968SOL    HW214920   4.937   0.705   6.182  0.0540 -1.3199  0.9467
 2969SOL     OW14921   4.644   6.136   5.770  0.0924 -0.0146 -0.0046
 2969SOL    HW114922   4.667   6.062   5.707  2.3541 -0.4079  1.1933
 2969SOL    HW214923   4.716   6.146   5.838 -0.8728  2.3273  0.7838
 2970SOL     OW14924   0.761   3.753   6.337 -0.1845 -0.1982 -0.0959
 2970SOL    HW114925   0.843   3.808   6.353 -1.1696  1.4409 -0.4227
 2970SOL    HW214926   0.787   3.660   6.310  1.5444  0.3508 -0.3982
 2971SOL     OW14927   2.542   0.230   6.487  0.4049  0.1297  0.4810
 2971SOL    HW114928   2.499   0.290   6.555  0.0948  0.6609 -0.1667
 2971SOL    HW214929   2.474   0.203   6.419 -0.2937 -3.5071  2.3922
 2972SOL     OW14930   5.401   0.663   0.456  0.2219 -0.4732 -0.5604
 2972SOL    HW114931   5.468   0.619   0.395 -1.2641 -1.8533 -1.2702
 2972SOL    HW214932   5.353   0.592   0.507 -0.6634  0.5016 -0.0208
 2973SOL     OW14933   2.392   1.080   1.482  0.4918  0.5024  0.1607
 2973SOL    HW114934   2.293   1.071   1.488  0.2823  1.7747 -0.8953
 2973SOL    HW214935   2.429   1.105   1.571 -0.0711 -0.4075  0.6650
 2974SOL     OW14936   4.848   4.703   0.867 -0.3044  0.0347 -0.0379
 2974SOL    HW114937   4.758   4.667   0.892 -0.1052 -0.3620  0.1034
 2974SOL    HW214938   4.852   4.800   0.890 -0.7748  0.1107 -0.2491
 2975SOL     OW14939   4.802   0.616   0.758  0.2798 -0.3847 -0.2915
 2975SOL    HW114940   4.862   0.537   0.752  1.7292  0.6533 -0.0987
 2975SOL    HW214941   4.799   0.648   0.853 -2.2092 -1.5804  0.1227
 2976SOL     OW14942   0.826   1.913   4.994  0.0069  0.5526 -0.3891
 2976SOL    HW114943   0.803   1.923   4.897 -1.9252  0.8490  0.0606
 2976SOL    HW214944   0.799   1.821   5.024 -2.7326  1.5934  0.6478
 2977SOL     OW14945   1.794   4.012   5.864 -0.0165  1.1572  0.8032
 2977SOL    HW114946   1.717   3.948   5.857 -0.0272  1.2256  0.2196
 2977SOL    HW214947   1.870   3.967   5.911  0.3192  0.3711 -0.4386
 2978SOL     OW14948   2.367   0.464   0.111  0.2694  0.0634  0.3756
 2978SOL    HW114949   2.304   0.414   0.051  0.8485  0.1176 -0.2922
 2978SOL    HW214950   2.337   0.559   0.119  1.2731  0.5888 -1.4758
 2979SOL     OW14951   3.198   5.018   1.435  0.2187  0.2929  0.3446
 2979SOL    HW114952   3.172   5.115   1.434  2.0954  0.9832  3.6272
 2979SOL    HW214953   3.273   5.005   1.500  0.8519 -3.2193 -0.9034
 2980SOL     OW14954   4.274   3.869   0.463 -0.3940  0.0019  0.0240
 2980SOL    HW114955   4.274   3.914   0.552 -0.0981  0.7343 -0.3337
 2980SOL    HW214956   4.366   3.875   0.422 -0.9059  1.1108 -1.0269
 2981SOL     OW14957   1.091   4.076   0.660 -0.2471  0.0013 -0.2009
 2981SOL    HW114958   1.010   4.130   0.684  1.0894  2.1482 -0.2383
 2981SOL    HW214959   1.093   4.062   0.561 -0.8871 -0.6399 -0.1333
 2982SOL     OW14960   1.172   5.492   5.437 -0.3357 -0.0774  0.1032
 2982SOL    HW114961   1.250   5.439   5.404 -0.2251  1.4533 -2.3592
 2982SOL    HW214962   1.204   5.580   5.473 -0.8152 -0.0617  0.5026
 2983SOL     OW14963   1.062   0.307   5.276  0.0077 -0.4446  0.5278
 2983SOL    HW114964   1.148   0.348   5.247  0.5841 -1.4896  0.6836
 2983SOL    HW214965   0.988   0.374   5.269  1.0723  0.8999  1.7387
 2984SOL     OW14966   4.451   0.334   0.297 -0.3515 -0.3500  0.2297
 2984SOL    HW114967   4.362   0.314   0.256  0.0171 -0.8670 -0.3322
 2984SOL    HW214968   4.516   0.263   0.271  0.7695  1.1030 -1.0709
 2985SOL     OW14969   0.991   0.809   5.739 -0.1569 -0.2603  0.3952
 2985SOL    HW114970   0.972   0.870   5.662 -0.6320  0.1509  0.8292
 2985SOL    HW214971   1.000   0.864   5.822  0.4189 -0.6937  0.6253
 2986SOL     OW14972   5.923   2.243   5.811 -0.5597 -0.0835  0.1539
 2986SOL    HW114973   5.910   2.257   5.909 -0.0737 -0.5605  0.2901
 2986SOL    HW214974   5.868   2.309   5.761 -0.2867  0.6125  0.7556
 2987SOL     OW14975   3.401   2.538   5.631  0.0757  0.2535  0.4581
 2987SOL    HW114976   3.369   2.444   5.615  0.7909  0.2743 -1.3839
 2987SOL    HW214977   3.324   2.601   5.620 -0.8035 -0.1764  3.4145
 2988SOL     OW14978   5.323   4.013   6.044 -0.3064  0.4365 -0.4505
 2988SOL    HW114979   5.414   4.049   6.026  0.3140 -1.3620 -1.1158
 2988SOL    HW214980   5.270   4.012   5.959  0.4857 -2.2465 -1.0137
 2989SOL     OW14981   2.453   0.083   5.427  0.3604  0.5186 -0.2784
 2989SOL    HW114982   2.527   0.074   5.360  1.3386  0.9153  0.7030
 2989SOL    HW214983   2.405   0.169   5.413  1.4498  1.2527  0.3567
 2990SOL     OW14984   0.180   2.510   0.291  1.2456  0.2633  0.4860
 2990SOL    HW114985   0.277   2.537   0.296  1.3281  0.1294 -0.3246
 2990SOL    HW214986   0.171   2.428   0.234  0.5092  0.9827 -0.4527
 2991SOL     OW14987   5.688   0.859   0.456  0.1575 -0.1066  0.2841
 2991SOL    HW114988   5.672   0.797   0.532 -0.2271 -0.4611 -0.0819
 2991SOL    HW214989   5.704   0.952   0.490 -3.5756  0.5483  0.7054
 2992SOL     OW14990   4.016   2.968   6.280 -0.1273  0.8992 -0.1865
 2992SOL    HW114991   4.109   2.940   6.304 -0.1440  2.0443  1.3977
 2992SOL    HW214992   4.017   3.011   6.190  0.9613  1.2304 -0.0376
 2993SOL     OW14993   3.768   1.037   6.383  0.3064  1.1443 -0.2781
 2993SOL    HW114994   3.674   1.010   6.360  0.3346 -0.8305  1.6875
 2993SOL    HW214995   3.828   1.016   6.306 -0.5219  0.3576 -0.7333
 2994SOL     OW14996   5.486   4.095   1.793  0.0281 -0.1771  0.4113
 2994SOL    HW114997   5.540   4.159   1.738  0.5022 -0.5008  0.4959
 2994SOL    HW214998   5.472   4.133   1.885  1.7695 -0.9250  1.0184
 2995SOL     OW14999   3.485   0.857   5.523  0.5606 -0.2878 -0.0592
 2995SOL    HW115000   3.517   0.947   5.492  0.7315 -0.0947  0.6411
 2995SOL    HW215001   3.426   0.869   5.604  0.8451 -0.8249  0.2334
 2996SOL     OW15002   5.548   5.688   5.897 -0.1496 -0.2584  0.2620
 2996SOL    HW115003   5.559   5.775   5.850 -1.1610 -0.1494  0.2044
 2996SOL    HW215004   5.608   5.685   5.977 -1.8215  1.5002  1.6841
 2997SOL     OW15005   3.486   0.408   1.371 -0.2174 -0.2209  0.3284
 2997SOL    HW115006   3.509   0.474   1.301 -1.7726  0.5541  0.4958
 2997SOL    HW215007   3.451   0.456   1.452 -0.9117 -1.2107  0.6374
 2998SOL     OW15008   2.232   2.278   5.479  0.1606 -0.2800 -0.5270
 2998SOL    HW115009   2.245   2.220   5.560 -0.0316 -0.4521 -0.6202
 2998SOL    HW215010   2.139   2.314   5.478  1.0031  2.2076  0.9673
 2999SOL     OW15011   3.842   6.227   1.163 -0.0376 -0.2123  0.0594
 2999SOL    HW115012   3.790   6.158   1.115 -0.2291  0.7299 -1.1363
 2999SOL    HW215013   3.829   6.316   1.119  0.9224  0.4275  0.9979
 3000SOL     OW15014   0.302   0.027   5.651 -0.1194 -0.5716  0.2007
 3000SOL    HW115015   0.235   0.094   5.619 -1.6113 -1.8166  0.6222
 3000SOL    HW215016   0.277  -0.064   5.619  1.5294 -1.0413  0.1693
 3001SOL     OW15017   0.026   2.096   6.071 -0.7660 -0.3271 -0.0565
 3001SOL    HW115018   0.093   2.111   5.999 -2.8124  0.6236 -1.8813
 3001SOL    HW215019   0.042   2.161   6.145  0.0745  0.1394 -0.6316
 3002SOL     OW15020   2.645   6.299   5.816 -0.4363  0.5373 -0.0321
 3002SOL    HW115021   2.654   6.221   5.878 -0.5459  1.0463  0.6357
 3002SOL    HW215022   2.735   6.322   5.778 -0.2729  0.5590  0.3610
 3003SOL     OW15023   5.935   3.304   0.161  0.5517  0.2064  0.3494
 3003SOL    HW115024   5.920   3.344   0.071 -0.8366  0.9859  0.8944
 3003SOL    HW215025   5.854   3.252   0.188  0.9864 -0.0897  1.1086
 3004SOL     OW15026   0.136   6.073   0.384 -0.1208 -0.1265 -0.2132
 3004SOL    HW115027   0.151   6.070   0.482  0.7107 -0.8054 -0.3481
 3004SOL    HW215028   0.045   6.110   0.365 -0.5365 -0.5793  0.8272
 3005SOL     OW15029   0.018   1.931   5.367  0.0684  0.6782  0.1399
 3005SOL    HW115030   0.045   1.956   5.460 -1.2336  0.3560  0.6329
 3005SOL    HW215031   0.100   1.918   5.311  0.9675 -0.8093  1.6767
 3006SOL     OW15032   2.893   3.109   0.486 -0.4673  0.3139 -0.3682
 3006SOL    HW115033   2.968   3.091   0.550 -1.2207 -1.4289  0.0610
 3006SOL    HW215034   2.905   3.053   0.405 -1.9830 -0.9665  0.2647
 3007SOL     OW15035   1.835   4.931   0.719  0.3546 -0.0719  0.7892
 3007SOL    HW115036   1.748   4.884   0.736 -0.6519  2.0341  1.8182
 3007SOL    HW215037   1.911   4.870   0.743 -0.8639 -1.4231  1.3347
 3008SOL     OW15038   5.794   1.076   0.689  0.5701 -0.1247 -0.1649
 3008SOL    HW115039   5.858   1.013   0.733  0.9438  0.1700 -0.2874
 3008SOL    HW215040   5.720   1.098   0.754  2.2580  2.0350  1.1545
 3009SOL     OW15041   4.098   0.643   5.244 -0.9894 -0.2068  0.1977
 3009SOL    HW115042   4.051   0.715   5.195 -0.3475  0.3237  0.3490
 3009SOL    HW215043   4.054   0.555   5.225 -1.3146  0.1173 -0.5838
 3010SOL     OW15044   3.785   5.336   6.478  0.1666  0.6953  0.3620
 3010SOL    HW115045   3.780   5.237   6.467  1.3270  0.5700  0.8731
 3010SOL    HW215046   3.799   5.358   6.574  1.0250  1.2992  0.1077
 3011SOL     OW15047   0.369   6.233   0.613 -0.1099  0.2766 -0.5274
 3011SOL    HW115048   0.361   6.226   0.513  1.0008 -0.0307 -0.6093
 3011SOL    HW215049   0.439   6.170   0.645  1.2404  2.0569  0.1680
 3012SOL     OW15050   5.117   5.250   5.755 -0.3025  0.9064 -0.3180
 3012SOL    HW115051   5.066   5.316   5.811 -1.2304  1.3422 -1.6351
 3012SOL    HW215052   5.198   5.294   5.718 -0.3547  0.9897 -0.3343
 3013SOL     OW15053   4.856   1.990   0.323 -0.2813 -0.0804 -0.5166
 3013SOL    HW115054   4.920   1.973   0.398  0.2853 -0.1746 -1.0149
 3013SOL    HW215055   4.907   2.002   0.238 -0.9781 -1.2067 -1.1135
 3014SOL     OW15056   2.747   4.026   1.656 -0.0445 -0.1239 -0.3349
 3014SOL    HW115057   2.659   4.046   1.615  0.6718  1.7618 -1.0243
 3014SOL    HW215058   2.776   4.103   1.713  0.6481 -1.2018  0.8451
 3015SOL     OW15059   1.777   3.139   0.500  0.4627 -0.5273  0.1820
 3015SOL    HW115060   1.679   3.157   0.510  0.5141 -1.0945  1.9431
 3015SOL    HW215061   1.792   3.040   0.498  1.0128 -0.4404 -0.0987
 3016SOL     OW15062   4.266   5.845   5.306  0.4485 -0.2898  0.2384
 3016SOL    HW115063   4.209   5.911   5.355  1.1304  0.8226 -0.4158
 3016SOL    HW215064   4.215   5.808   5.228  0.5015  0.4969 -0.1845
 3017SOL     OW15065   2.098   1.579   1.855 -0.7465  0.0050  0.2787
 3017SOL    HW115066   2.016   1.562   1.800 -0.7624 -0.9701  0.5740
 3017SOL    HW215067   2.117   1.677   1.859 -1.7686  0.2188  0.0237
 3018SOL     OW15068   0.580   6.326   5.633  0.4240  0.0029  0.1451
 3018SOL    HW115069   0.550   6.237   5.667  0.7839 -0.1176  0.1520
 3018SOL    HW215070   0.510   6.395   5.654 -1.2580 -0.7598 -2.4398
 3019SOL     OW15071   2.719   5.445   1.387  0.6358  0.1333  0.1529
 3019SOL    HW115072   2.662   5.380   1.437  0.1157  1.3964  1.2436
 3019SOL    HW215073   2.673   5.469   1.301 -1.1207  2.0466  1.5604
 3020SOL     OW15074   3.101   4.488   5.354 -0.1408 -0.2643 -0.2369
 3020SOL    HW115075   3.078   4.524   5.263  0.9604 -1.9204 -1.2286
 3020SOL    HW215076   3.028   4.429   5.385 -0.0316 -0.5777 -0.5647
 3021SOL     OW15077   4.077   4.764   0.984  0.5914 -0.3796 -0.2425
 3021SOL    HW115078   4.173   4.789   0.970  0.6622 -1.8313 -3.0865
 3021SOL    HW215079   4.071   4.670   1.018  0.1458 -0.1128  0.4570
 3022SOL     OW15080   3.761   3.449   1.306 -0.3390  0.2307 -0.0196
 3022SOL    HW115081   3.724   3.442   1.214 -0.7159 -1.2924  0.2168
 3022SOL    HW215082   3.860   3.460   1.302  0.0106 -2.3697 -0.6413
 3023SOL     OW15083   3.144   6.349   4.816 -0.1062  0.2083  0.1723
 3023SOL    HW115084   3.099   6.361   4.727 -1.6585  0.4105  0.9503
 3023SOL    HW215085   3.205   6.270   4.812  1.5695  1.4765 -1.6887
 3024SOL     OW15086   0.813   0.686   6.306  0.2838 -0.5678  0.5973
 3024SOL    HW115087   0.773   0.682   6.215 -2.8563 -0.2923  1.8305
 3024SOL    HW215088   0.855   0.776   6.321 -0.3819 -0.1276 -0.1322
 3025SOL     OW15089   5.194   5.306   6.170  0.0730  0.4345 -0.2216
 3025SOL    HW115090   5.242   5.388   6.140  0.3543  1.1778  2.0476
 3025SOL    HW215091   5.258   5.230   6.177 -0.2387 -0.1038 -2.5847
 3026SOL     OW15092   1.444   0.037   6.041  0.2692  0.0868  0.1420
 3026SOL    HW115093   1.390   0.062   5.961 -2.8553 -1.2528  1.6555
 3026SOL    HW215094   1.398   0.068   6.124  1.7855 -1.2280  1.5660
 3027SOL     OW15095   5.788   5.568   0.627 -0.1008 -0.2533  0.8014
 3027SOL    HW115096   5.859   5.498   0.634  1.0141  0.8009  0.4708
 3027SOL    HW215097   5.818   5.639   0.563 -1.9085 -0.2796 -0.1316
 3028SOL     OW15098   5.150   1.645   0.425  0.0935 -0.1640 -0.3364
 3028SOL    HW115099   5.115   1.706   0.354 -0.7767 -0.9257 -0.5750
 3028SOL    HW215100   5.215   1.580   0.384  0.9239  0.5086 -0.1057
 3029SOL     OW15101   5.544   2.836   6.307 -0.6771  0.6130 -0.1087
 3029SOL    HW115102   5.627   2.786   6.331  0.0796  1.0010 -1.7683
 3029SOL    HW215103   5.556   2.880   6.218 -1.9357  2.3408  0.5111
 3030SOL     OW15104   0.663   2.447   6.274  0.0785  0.1803  0.1999
 3030SOL    HW115105   0.726   2.519   6.247  1.2516 -1.1053 -0.5977
 3030SOL    HW215106   0.613   2.414   6.194 -2.3637  1.8062  0.9467
 3031SOL     OW15107   1.059   3.474   4.959  0.2890 -0.2910 -0.3444
 3031SOL    HW115108   1.142   3.421   4.938  0.2274 -0.0758 -1.1667
 3031SOL    HW215109   0.980   3.432   4.913 -0.1255 -0.6871  0.7067
 3032SOL     OW15110   1.560   3.019   5.939  0.1792 -0.6671  0.0801
 3032SOL    HW115111   1.618   3.025   5.858  2.1073 -0.8568  1.3886
 3032SOL    HW215112   1.565   3.105   5.990 -0.9288 -0.5888  0.0909
 3033SOL     OW15113   3.442   4.212   6.375 -0.1800 -0.2753 -0.3353
 3033SOL    HW115114   3.374   4.227   6.303  0.4262  0.4001 -0.7908
 3033SOL    HW215115   3.532   4.201   6.333  0.3227  1.0280  0.3513
 3034SOL     OW15116   1.677   5.066   5.529 -0.4473 -0.2804 -0.4789
 3034SOL    HW115117   1.613   5.126   5.482 -0.0618 -0.9130 -1.8628
 3034SOL    HW215118   1.747   5.035   5.465  0.2471 -0.9803  0.5803
 3035SOL     OW15119   2.470   1.297   4.887 -0.4749 -0.3001 -0.0873
 3035SOL    HW115120   2.531   1.371   4.915 -0.7627  0.9072 -2.3829
 3035SOL    HW215121   2.438   1.314   4.794 -0.6410 -3.2777 -0.6726
 3036SOL     OW15122   3.584   5.602   5.809 -0.7613 -0.3271  0.6619
 3036SOL    HW115123   3.553   5.695   5.826 -1.1254 -0.3862  0.3381
 3036SOL    HW215124   3.522   5.558   5.744 -1.2042 -1.1558  1.6232
 3037SOL     OW15125   3.926   1.796   1.384  0.0096  0.6151 -0.1720
 3037SOL    HW115126   4.022   1.770   1.369 -0.3293  0.3203 -2.0450
 3037SOL    HW215127   3.921   1.894   1.400  0.6264  0.6157  0.0670
 3038SOL     OW15128   0.428   0.905   1.050 -0.1958 -0.3493 -0.1070
 3038SOL    HW115129   0.520   0.896   1.013  0.6917  0.3483  1.8032
 3038SOL    HW215130   0.433   0.945   1.142 -2.4879  1.0054 -0.4955
 3039SOL     OW15131   4.487   1.748   6.222  0.0900 -0.4682  0.6686
 3039SOL    HW115132   4.419   1.786   6.159  1.0643  1.1704  0.5701
 3039SOL    HW215133   4.575   1.795   6.209  0.5774 -0.8007  2.5460
 3040SOL     OW15134   2.601   0.217   4.823 -0.0961 -0.0084 -0.3157
 3040SOL    HW115135   2.615   0.233   4.725 -0.3209  1.3562 -0.1502
 3040SOL    HW215136   2.510   0.248   4.849 -1.2445 -3.1096 -0.2003
 3041SOL     OW15137   5.656   1.558   6.254 -0.1103  0.6018  0.3946
 3041SOL    HW115138   5.645   1.637   6.315 -1.9966  0.9234 -0.2778
 3041SOL    HW215139   5.651   1.590   6.159 -2.3812 -0.4434  0.1019
 3042SOL     OW15140   5.828   1.645   0.054  0.0886 -0.1003 -0.0503
 3042SOL    HW115141   5.880   1.560   0.042  0.1064 -0.2810  1.1915
 3042SOL    HW215142   5.777   1.642   0.140 -0.1738  1.0142 -0.1432
 3043SOL     OW15143   0.555   3.478   0.645  0.5703 -1.0076  0.0141
 3043SOL    HW115144   0.596   3.569   0.652 -1.4896 -0.0905  0.5654
 3043SOL    HW215145   0.606   3.425   0.577  0.2565  1.4526 -2.3352
 3044SOL     OW15146   0.291   2.351   5.422 -0.2853 -0.4242  0.5288
 3044SOL    HW115147   0.349   2.425   5.455 -0.7632 -1.1529  3.2444
 3044SOL    HW215148   0.287   2.353   5.322  1.6665  1.6713  0.4299
 3045SOL     OW15149   2.618   3.540   0.690 -0.5714  0.3283 -0.1625
 3045SOL    HW115150   2.712   3.505   0.685 -0.0407  1.7259 -0.2318
 3045SOL    HW215151   2.564   3.480   0.749  0.8189  0.4653  1.3337
 3046SOL     OW15152   1.397   5.213   0.524 -0.1153  0.6875 -0.2650
 3046SOL    HW115153   1.469   5.151   0.553 -0.5003  0.9043  1.2119
 3046SOL    HW215154   1.308   5.167   0.534 -0.3552  1.2613  0.2306
 3047SOL     OW15155   2.966   3.138   0.171 -0.7900  0.6057  0.2560
 3047SOL    HW115156   3.053   3.177   0.203 -2.0055  3.4950  0.3196
 3047SOL    HW215157   2.958   3.153   0.073 -1.6540  1.3474  0.4280
 3048SOL     OW15158   0.159   4.367   0.376  0.0499 -0.0201  1.0064
 3048SOL    HW115159   0.175   4.448   0.431 -0.1829  0.1126  0.8830
 3048SOL    HW215160   0.062   4.342   0.382 -0.6986  1.7925 -1.7388
 3049SOL     OW15161   3.278   4.485   1.851  0.1250 -0.0929  0.3632
 3049SOL    HW115162   3.355   4.444   1.899 -0.1601 -0.5734  0.4108
 3049SOL    HW215163   3.214   4.414   1.823 -0.5372  0.3509  0.7401
 3050SOL     OW15164   1.253   5.442   5.953  0.8819 -0.5402  0.3048
 3050SOL    HW115165   1.159   5.475   5.946  1.4090  1.4168  1.7333
 3050SOL    HW215166   1.255   5.357   6.005 -0.1840 -1.2738 -0.7975
 3051SOL     OW15167   1.264   5.011   4.624 -0.3124  0.2446  0.1503
 3051SOL    HW115168   1.342   4.975   4.572 -0.9948  0.9511 -1.4183
 3051SOL    HW215169   1.204   5.062   4.563 -3.1253 -1.9799  0.8346
 3052SOL     OW15170   3.514   6.005   5.563 -0.3174 -0.8237 -0.1908
 3052SOL    HW115171   3.480   5.928   5.510 -0.2322 -1.0532  0.0829
 3052SOL    HW215172   3.559   6.071   5.503  1.9748 -2.2411 -0.1208
 3053SOL     OW15173   0.414   3.916   0.515 -0.6379  0.0325 -0.4918
 3053SOL    HW115174   0.417   4.016   0.510  0.7208 -0.0203 -0.9432
 3053SOL    HW215175   0.376   3.888   0.603  0.9073  0.9518  0.5064
 3054SOL     OW15176   1.400   5.954   6.028  0.5936 -0.3364 -0.5009
 3054SOL    HW115177   1.438   5.889   6.093  3.8274  0.3714 -1.4696
 3054SOL    HW215178   1.330   5.909   5.973  0.2615 -1.9269  1.1316
 3055SOL     OW15179   2.543   3.775   6.372  0.7808  0.4993 -0.1975
 3055SOL    HW115180   2.487   3.844   6.419 -1.6243 -0.4835 -1.4670
 3055SOL    HW215181   2.627   3.818   6.339 -0.9016  3.0749 -1.5132
 3056SOL     OW15182   0.272   1.985   5.252 -0.4904  0.6743  0.4615
 3056SOL    HW115183   0.347   2.019   5.309 -0.7987  0.9621  0.7004
 3056SOL    HW215184   0.265   2.040   5.168  0.6284 -0.4018 -0.3584
 3057SOL     OW15185   3.786   3.789   4.759 -0.4167 -0.6027 -0.5258
 3057SOL    HW115186   3.709   3.756   4.705 -1.2352 -0.3611  0.4718
 3057SOL    HW215187   3.870   3.744   4.728 -0.7804 -0.1162 -2.3041
 3058SOL     OW15188   4.484   2.642   6.077  0.0016  0.6976 -0.2840
 3058SOL    HW115189   4.475   2.695   6.161 -0.0073 -3.4845  2.6514
 3058SOL    HW215190   4.579   2.612   6.067 -0.4591 -0.7790 -0.4239
 3059SOL     OW15191   1.176   4.617   0.156  0.2805 -0.2115 -0.4730
 3059SOL    HW115192   1.093   4.609   0.212  0.2171  0.0930 -0.5221
 3059SOL    HW215193   1.216   4.708   0.169  0.6936 -0.4114 -0.3312
 3060SOL     OW15194   4.629   0.678   0.544  0.3184 -0.5972  0.2074
 3060SOL    HW115195   4.664   0.644   0.631 -0.2207 -0.0777  0.6338
 3060SOL    HW215196   4.542   0.633   0.523  0.6418 -1.0194 -0.2712
 3061SOL     OW15197   6.026   3.844   0.273  0.1391 -0.2208 -0.4290
 3061SOL    HW115198   6.027   3.813   0.368 -2.5719  0.0851 -0.2124
 3061SOL    HW215199   6.030   3.765   0.212  2.3559 -0.3958 -0.1263
 3062SOL     OW15200   2.867   1.705   0.730 -0.0401  0.1050  0.7928
 3062SOL    HW115201   2.896   1.788   0.778  1.4234  0.1199 -0.0441
 3062SOL    HW215202   2.918   1.697   0.644 -1.8487 -0.4652 -0.2623
 3063SOL     OW15203   2.624   3.883   2.084 -0.1975  1.0401  0.3578
 3063SOL    HW115204   2.693   3.930   2.139  1.5437 -0.7600 -0.1793
 3063SOL    HW215205   2.613   3.930   1.996  2.8145 -0.3652 -0.9080
 3064SOL     OW15206   1.104   1.265   6.444  0.5323  0.2442 -0.1153
 3064SOL    HW115207   1.140   1.346   6.492  1.7313 -0.9372  1.0657
 3064SOL    HW215208   1.180   1.211   6.410 -0.2889  0.4243 -2.3726
 3065SOL     OW15209   1.605   2.331   6.352  0.0330 -0.3611  0.2046
 3065SOL    HW115210   1.641   2.348   6.261  1.4349 -0.2077  0.7565
 3065SOL    HW215211   1.635   2.405   6.414  0.0065 -1.0122  1.0130
 3066SOL     OW15212   1.658   6.051   0.005 -0.3609 -0.1220 -0.6660
 3066SOL    HW115213   1.664   6.055  -0.095 -1.3708  0.1792 -0.7267
 3066SOL    HW215214   1.745   6.082   0.045  0.1724 -0.5721 -1.4452
 3067SOL     OW15215   4.480   3.806   5.527 -0.8928 -1.0425  0.8780
 3067SOL    HW115216   4.557   3.867   5.508 -0.6956 -1.8047 -0.9730
 3067SOL    HW215217   4.433   3.784   5.441 -3.2725 -0.5216  1.9673
 3068SOL     OW15218   3.834   2.101   0.987  0.2463 -0.5779  0.9148
 3068SOL    HW115219   3.865   2.195   1.000 -2.5604  0.3282  1.7315
 3068SOL    HW215220   3.800   2.090   0.894  0.3875 -0.7392  0.8813
 3069SOL     OW15221   6.119   3.363   1.052  0.7323  0.1509 -0.1309
 3069SOL    HW115222   6.157   3.306   1.126  1.1088 -0.1462 -0.5453
 3069SOL    HW215223   6.043   3.315   1.009 -0.6106  1.0554  1.1700
 3070SOL     OW15224   0.884   3.134   1.001 -0.4155 -0.1652 -0.3228
 3070SOL    HW115225   0.787   3.156   0.989 -0.8563 -1.3970  0.7330
 3070SOL    HW215226   0.923   3.102   0.915 -1.8588 -2.8774 -0.0797
 3071SOL     OW15227   2.418   3.713   5.715 -0.0171  0.5187 -0.0589
 3071SOL    HW115228   2.444   3.713   5.812 -0.6252  0.9335  0.1088
 3071SOL    HW215229   2.500   3.718   5.659  0.3041  1.1982  0.4530
 3072SOL     OW15230   3.022   5.851   1.077 -0.3025 -0.3339  0.3704
 3072SOL    HW115231   2.968   5.935   1.084 -0.5622 -0.4402 -0.3031
 3072SOL    HW215232   2.999   5.790   1.153  1.1627  0.9089  1.9082
 3073SOL     OW15233   4.903   5.954   0.864 -0.2748 -0.3152 -0.3126
 3073SOL    HW115234   4.869   6.036   0.909 -0.7357 -1.1589  0.9635
 3073SOL    HW215235   4.915   5.971   0.767 -0.0578  1.3385 -0.0157
 3074SOL     OW15236   0.747   3.957   0.475  0.8232 -0.3010  0.1653
 3074SOL    HW115237   0.715   4.031   0.534  0.6577  0.8159 -1.2491
 3074SOL    HW215238   0.697   3.873   0.495  0.5704  0.1321  1.3873
 3075SOL     OW15239   2.983   2.211   4.723  0.3326  0.0533 -0.1357
 3075SOL    HW115240   2.899   2.200   4.670  0.2804 -0.4139  0.0380
 3075SOL    HW215241   3.062   2.207   4.662  0.2745 -0.5182 -0.1752
 3076SOL     OW15242   5.884   2.147   0.764  0.2139 -0.0796  0.1389
 3076SOL    HW115243   5.912   2.079   0.832  0.4605 -0.2158 -0.0925
 3076SOL    HW215244   5.869   2.235   0.808  3.4254  0.6678 -0.0132
 3077SOL     OW15245   2.582   5.971   6.307  0.0271 -0.2162  0.1677
 3077SOL    HW115246   2.582   6.051   6.367 -1.0668  0.8827 -1.2414
 3077SOL    HW215247   2.504   5.975   6.244  0.0985 -2.2593 -0.1406
 3078SOL     OW15248   2.191   4.559   0.992 -0.2256 -0.1113 -0.2276
 3078SOL    HW115249   2.272   4.552   1.051  0.5899  2.1464 -0.9740
 3078SOL    HW215250   2.109   4.543   1.047  0.6767 -1.8281  0.6756
 3079SOL     OW15251   3.408   1.737   4.922  0.3592  0.2287 -0.4774
 3079SOL    HW115252   3.479   1.806   4.931 -0.3607  0.9003  0.1905
 3079SOL    HW215253   3.366   1.745   4.831 -1.4883  2.4678  0.4744
 3080SOL     OW15254   2.328   5.697   0.121  0.2292  0.1559 -0.3770
 3080SOL    HW115255   2.383   5.649   0.189 -1.2355 -0.5627  0.3415
 3080SOL    HW215256   2.243   5.647   0.106  0.2760  0.5769 -2.3725
 3081SOL     OW15257   0.459   0.164   0.050 -0.4983  0.3248  0.0124
 3081SOL    HW115258   0.501   0.074   0.038 -2.0949 -0.4631  0.0781
 3081SOL    HW215259   0.490   0.204   0.136  3.0668  1.5195 -1.6500
 3082SOL     OW15260   4.950   3.507   1.738 -0.0330  0.0817  0.0806
 3082SOL    HW115261   4.919   3.430   1.794 -0.1512  1.2625  1.6938
 3082SOL    HW215262   5.031   3.548   1.781 -0.3287  1.2236 -0.4301
 3083SOL     OW15263   1.900   1.178   5.599  0.1209 -0.4070  0.0403
 3083SOL    HW115264   1.820   1.238   5.602 -0.6915 -1.4906  0.4158
 3083SOL    HW215265   1.981   1.230   5.626 -0.3549  0.8312 -0.8185
 3084SOL     OW15266   5.436   1.955   5.919 -0.2160 -0.0554 -0.0475
 3084SOL    HW115267   5.449   1.922   5.826  0.7119  1.1077 -0.3451
 3084SOL    HW215268   5.517   2.004   5.950 -1.3686  1.6247  0.4997
 3085SOL     OW15269   3.735   4.615   0.254  0.5851  0.1355  0.5514
 3085SOL    HW115270   3.666   4.631   0.184  0.6785 -0.1810  0.3828
 3085SOL    HW215271   3.826   4.618   0.212  0.6893  0.7597  0.8077
 3086SOL     OW15272   3.243   0.779   1.162 -0.6895  0.0256 -0.3702
 3086SOL    HW115273   3.286   0.772   1.252  0.0190 -0.0239 -0.7002
 3086SOL    HW215274   3.218   0.688   1.130  2.1820 -0.4375 -1.6663
 3087SOL     OW15275   3.628   3.678   1.389  0.1587  0.1325  0.1124
 3087SOL    HW115276   3.701   3.723   1.442  0.9413  0.2355 -1.0081
 3087SOL    HW215277   3.666   3.598   1.342 -0.1133  0.8724 -1.4553
 3088SOL     OW15278   1.996   2.686   1.435 -0.5248  0.6143 -0.3506
 3088SOL    HW115279   1.997   2.660   1.532 -1.6681 -0.6077 -0.6418
 3088SOL    HW215280   1.909   2.661   1.394  0.3677 -0.0074 -1.9853
 3089SOL     OW15281   3.053   0.483   5.793 -0.1035 -0.2046 -0.9710
 3089SOL    HW115282   2.974   0.426   5.774 -0.3526 -0.5065  0.8188
 3089SOL    HW215283   3.043   0.525   5.884  0.2886  2.3156 -2.0053
 3090SOL     OW15284   1.039   5.844   5.511 -0.2792  0.6220  0.0235
 3090SOL    HW115285   1.127   5.853   5.465  0.0484 -1.9696 -0.0080
 3090SOL    HW215286   1.051   5.856   5.609  0.7102 -2.4230  0.3512
 3091SOL     OW15287   2.392   5.853   6.145 -0.1431 -0.0965 -0.0130
 3091SOL    HW115288   2.307   5.807   6.169 -0.7880  0.3730 -1.2628
 3091SOL    HW215289   2.454   5.789   6.100 -1.4573  0.3962 -2.7072
 3092SOL     OW15290   4.512   3.339   5.351 -0.4582  0.3912 -0.4670
 3092SOL    HW115291   4.482   3.393   5.272  0.3073 -2.0172 -2.5301
 3092SOL    HW215292   4.434   3.288   5.388 -0.6041  0.7072 -0.3334
 3093SOL     OW15293   2.873   5.593   1.551  0.1833  0.4138  0.4485
 3093SOL    HW115294   2.814   5.542   1.489  0.4983  1.9115 -1.1727
 3093SOL    HW215295   2.819   5.625   1.629 -0.6935  0.1299 -0.0240
 3094SOL     OW15296   0.830   2.017   0.839  0.0849 -0.5007 -0.4516
 3094SOL    HW115297   0.754   2.081   0.833 -0.5614 -1.4046 -3.3319
 3094SOL    HW215298   0.899   2.041   0.771  1.4842 -0.8653  0.7929
 3095SOL     OW15299   1.434   6.244   4.844 -1.1226  0.2219 -0.9655
 3095SOL    HW115300   1.404   6.275   4.753  0.5728 -0.4285 -1.7859
 3095SOL    HW215301   1.395   6.154   4.863 -0.3127 -0.3158 -1.7326
 3096SOL     OW15302   1.092   5.829   5.820  0.6514 -0.2313  0.0615
 3096SOL    HW115303   1.172   5.770   5.834  1.9884  1.8415  1.6995
 3096SOL    HW215304   1.115   5.923   5.845 -2.4129  0.3867  0.9659
 3097SOL     OW15305   4.855   3.403   6.036  0.0306  0.2503 -0.6559
 3097SOL    HW115306   4.800   3.421   6.118  2.6227  1.9937  0.8885
 3097SOL    HW215307   4.823   3.460   5.961  0.3601  2.1662  0.5688
 3098SOL     OW15308   2.385   1.756   6.101 -0.0315  0.0879 -0.2833
 3098SOL    HW115309   2.349   1.792   6.015  1.9670 -0.3203 -1.3555
 3098SOL    HW215310   2.364   1.819   6.176 -2.1167  0.2773 -0.9805
 3099SOL     OW15311   1.009   4.242   6.000  0.0060  0.0923 -1.0648
 3099SOL    HW115312   1.023   4.247   6.099  1.0282 -2.4405 -1.0027
 3099SOL    HW215313   0.939   4.308   5.973 -1.5909 -0.3522  1.6102
 3100SOL     OW15314   0.169   1.110   5.664  0.2076  0.1658 -0.0780
 3100SOL    HW115315   0.094   1.127   5.728 -0.0200  1.2998 -0.6096
 3100SOL    HW215316   0.132   1.080   5.576  0.5542 -2.0921  0.4883
 3101SOL     OW15317   3.881   1.180   6.022 -0.2531  0.3208  0.3421
 3101SOL    HW115318   3.915   1.096   6.065  0.6734  0.8212  0.6126
 3101SOL    HW215319   3.827   1.156   5.941 -0.7052 -0.5662  0.8788
 3102SOL     OW15320   2.529   1.654   1.174  0.2141  0.4233  0.7139
 3102SOL    HW115321   2.485   1.743   1.185  0.4373  0.3435  2.4348
 3102SOL    HW215322   2.474   1.584   1.219 -0.2707 -0.4381 -1.1306
 3103SOL     OW15323   5.800   2.382   0.919 -0.3670  0.0744  0.1801
 3103SOL    HW115324   5.770   2.300   0.968 -0.1265  0.3757  0.8480
 3103SOL    HW215325   5.808   2.458   0.984  1.4418  0.1042 -0.0271
 3104SOL     OW15326   5.635   3.597   1.682  0.3287  0.2097  0.5637
 3104SOL    HW115327   5.647   3.696   1.697 -0.7052  0.4688 -0.2259
 3104SOL    HW215328   5.583   3.558   1.758  0.1609  0.4000  0.5478
 3105SOL     OW15329   0.711   3.724   5.753 -0.7225  0.3352  0.3630
 3105SOL    HW115330   0.654   3.795   5.712 -0.8863  0.1730  0.3116
 3105SOL    HW215331   0.655   3.667   5.813 -1.1896 -1.4137 -1.6107
 3106SOL     OW15332   3.241   2.497   5.349  0.0497 -0.2201  0.1628
 3106SOL    HW115333   3.302   2.485   5.271  0.0012  1.5958 -0.1961
 3106SOL    HW215334   3.265   2.430   5.420  1.7534 -0.2512 -0.3824
 3107SOL     OW15335   2.665   4.728   0.480 -0.3561 -0.9803  0.3632
 3107SOL    HW115336   2.615   4.814   0.492  0.8830  0.2942 -2.5174
 3107SOL    HW215337   2.763   4.746   0.490  0.1725 -1.2867 -3.0726
 3108SOL     OW15338   3.114   5.466   0.592 -0.4205  0.4809 -0.3685
 3108SOL    HW115339   3.144   5.457   0.497  0.0159  0.9390 -0.2819
 3108SOL    HW215340   3.179   5.420   0.652 -0.9685 -0.2467 -0.3262
 3109SOL     OW15341   1.518   0.955   5.686  0.3685 -0.0197  0.1919
 3109SOL    HW115342   1.450   0.963   5.760  1.7449  0.6659  1.4385
 3109SOL    HW215343   1.509   0.866   5.642 -2.2358  0.5704 -0.6070
 3110SOL     OW15344   0.514   4.305   5.995 -0.0507 -0.1074 -0.2453
 3110SOL    HW115345   0.523   4.214   5.955 -0.2572  0.0297 -0.6121
 3110SOL    HW215346   0.591   4.323   6.055 -0.0025 -0.5199 -0.1792
 3111SOL     OW15347   3.528   5.891   6.232 -0.0005 -0.1622  0.4154
 3111SOL    HW115348   3.469   5.811   6.222  1.4564 -1.0285 -2.0059
 3111SOL    HW215349   3.504   5.939   6.317 -0.7782 -3.2458  2.1042
 3112SOL     OW15350   3.582   4.853   6.476 -0.1995  0.3302 -0.5033
 3112SOL    HW115351   3.555   4.866   6.381  0.3609  1.7486 -0.4958
 3112SOL    HW215352   3.533   4.775   6.514  1.3465 -1.8066 -2.6211
 3113SOL     OW15353   5.470   1.002   5.357  0.4455 -0.6084  0.4074
 3113SOL    HW115354   5.431   1.055   5.433 -1.8914 -0.5569 -0.7287
 3113SOL    HW215355   5.457   0.905   5.374  0.9298 -0.6401  0.5875
 3114SOL     OW15356   3.244   0.309   5.332  0.5825 -0.3958  0.3054
 3114SOL    HW115357   3.267   0.290   5.427  0.4210  0.6898  0.5749
 3114SOL    HW215358   3.188   0.392   5.327 -0.8829 -1.4070 -0.5876
 3115SOL     OW15359   4.450   3.401   0.275 -0.3402 -0.2782 -0.0732
 3115SOL    HW115360   4.517   3.363   0.211  1.1443  3.0369 -0.6781
 3115SOL    HW215361   4.362   3.412   0.230  0.9210  2.8874 -2.0387
 3116SOL     OW15362   4.281   3.210   5.411  0.4168  0.2859 -0.1456
 3116SOL    HW115363   4.192   3.251   5.430  0.7418 -0.0090  2.3260
 3116SOL    HW215364   4.270   3.136   5.344 -1.0634  0.6906 -0.3856
 3117SOL     OW15365   4.482   5.791   5.632 -0.1095  0.1128  0.2651
 3117SOL    HW115366   4.453   5.870   5.687  1.8397 -0.0200  1.5935
 3117SOL    HW215367   4.484   5.709   5.690 -0.5877 -0.6095 -0.7056
 3118SOL     OW15368   0.406   2.780   5.352 -0.1654 -0.1035  0.1656
 3118SOL    HW115369   0.442   2.715   5.419 -0.3594 -1.2839 -0.8450
 3118SOL    HW215370   0.408   2.739   5.260  0.0367  1.4447 -0.5606
 3119SOL     OW15371   4.550   0.353   5.979 -0.5351 -0.4652  0.0795
 3119SOL    HW115372   4.567   0.300   5.896  1.7163  2.5582 -1.6228
 3119SOL    HW215373   4.451   0.370   5.987 -1.0883 -2.9289 -0.4680
 3120SOL     OW15374   0.078   0.257   1.219 -0.7949  0.4590  0.1452
 3120SOL    HW115375   0.133   0.293   1.294 -0.3195  1.8752 -0.8544
 3120SOL    HW215376   0.010   0.194   1.255  0.8125 -0.5550  1.5177
 3121SOL     OW15377   3.783   2.286   6.038  0.5091 -0.9644  0.4026
 3121SOL    HW115378   3.702   2.298   5.981  0.6807  0.6892  0.4553
 3121SOL    HW215379   3.781   2.353   6.112  1.9666 -0.8431  0.3549
 3122SOL     OW15380   5.732   4.924   6.430 -0.5641 -0.4666 -0.0898
 3122SOL    HW115381   5.674   4.870   6.491 -1.2930 -0.5807 -0.8688
 3122SOL    HW215382   5.683   4.943   6.345  0.7416 -1.0424 -1.0079
 3123SOL     OW15383   5.485   2.906   0.447  0.1704 -0.0485  0.0026
 3123SOL    HW115384   5.397   2.947   0.471 -0.8103 -2.0992  0.1427
 3123SOL    HW215385   5.530   2.961   0.377 -0.3747  2.0048  1.1961
 3124SOL     OW15386   0.644   6.053   4.790 -0.2580  0.2191  0.5602
 3124SOL    HW115387   0.727   6.034   4.738 -0.7127 -1.4433  0.3909
 3124SOL    HW215388   0.608   6.143   4.764  0.9582  0.5566 -0.0434
 3125SOL     OW15389   3.848   0.262   4.722 -0.2006  0.2995  0.6889
 3125SOL    HW115390   3.827   0.289   4.628 -0.6771  1.0039  0.9979
 3125SOL    HW215391   3.930   0.310   4.753 -0.9699  1.3069  1.1905
 3126SOL     OW15392   3.965   1.087   0.256  0.0224  0.3422 -0.3993
 3126SOL    HW115393   3.951   1.124   0.348 -0.8004  0.4629 -0.5711
 3126SOL    HW215394   3.956   1.160   0.188  0.4179  0.2109 -0.5998
 3127SOL     OW15395   0.465   4.078   5.849 -0.0325 -0.1186 -0.1033
 3127SOL    HW115396   0.375   4.105   5.814  0.2943  1.3764  0.1223
 3127SOL    HW215397   0.453   4.015   5.926 -0.8120 -1.3204 -1.1664
 3128SOL     OW15398   1.739   0.084   1.138 -0.4107 -0.5577  0.2303
 3128SOL    HW115399   1.722   0.134   1.223 -2.3845  1.1032 -1.0472
 3128SOL    HW215400   1.822   0.119   1.095 -1.4250  1.3143 -0.3258
 3129SOL     OW15401   3.145   3.838   6.231  0.2624  0.5132  0.2672
 3129SOL    HW115402   3.091   3.847   6.315  1.1166  2.1537  0.6765
 3129SOL    HW215403   3.092   3.788   6.162 -0.9127  0.1839  1.3761
 3130SOL     OW15404   1.142   6.036   6.146  0.2666  0.5474 -0.7230
 3130SOL    HW115405   1.092   6.116   6.179 -2.5882 -0.5779 -1.9786
 3130SOL    HW215406   1.219   6.065   6.089  1.3313  2.3573  1.4850
 3131SOL     OW15407   2.658   1.350   4.403 -0.1120  0.9456 -0.1022
 3131SOL    HW115408   2.740   1.404   4.385 -0.8816  2.0080 -0.5348
 3131SOL    HW215409   2.584   1.410   4.435 -0.8139  0.0633 -0.0101
 3132SOL     OW15410   1.823   5.646   0.801 -0.6990  0.2293 -0.2256
 3132SOL    HW115411   1.911   5.694   0.791 -0.6035  0.3721  1.1713
 3132SOL    HW215412   1.750   5.702   0.761 -0.0997 -0.1763 -1.9846
 3133SOL     OW15413   3.065   1.282   6.347 -0.1742  0.0001  0.8409
 3133SOL    HW115414   3.115   1.349   6.402  0.7112  0.4741 -0.4894
 3133SOL    HW215415   2.990   1.244   6.401  0.6119  0.4840  2.3404
 3134SOL     OW15416   6.289   0.771   5.513  0.4106 -0.1269 -0.1420
 3134SOL    HW115417   6.301   0.832   5.591  2.0972 -0.7850  0.1425
 3134SOL    HW215418   6.314   0.819   5.429  0.4262 -0.0163 -0.0745
 3135SOL     OW15419   2.256   1.543   5.669 -0.1731  0.2349 -0.3754
 3135SOL    HW115420   2.292   1.571   5.581 -0.2579  0.6781 -0.2704
 3135SOL    HW215421   2.289   1.605   5.740 -0.7840  0.3907 -0.2166
 3136SOL     OW15422   2.868   2.491   4.267  0.1043  0.1431  0.3664
 3136SOL    HW115423   2.792   2.459   4.210 -0.0463  0.3081  0.4698
 3136SOL    HW215424   2.883   2.588   4.251  0.3507  0.0910  0.2845
 3137SOL     OW15425   1.129   1.030   4.586  0.3191 -0.0039 -0.2321
 3137SOL    HW115426   1.116   0.950   4.527  2.8858 -0.1502 -0.6985
 3137SOL    HW215427   1.145   1.111   4.530 -0.2083  0.4507  0.2634
 3138SOL     OW15428   1.663   1.892   0.224  0.1387  0.0810 -0.5017
 3138SOL    HW115429   1.601   1.878   0.301 -0.9869  3.0874 -0.7219
 3138SOL    HW215430   1.616   1.872   0.139  1.3687 -3.1916 -0.5846
 3139SOL     OW15431   1.896   5.319   0.395 -0.0672 -0.3053  0.0454
 3139SOL    HW115432   1.842   5.379   0.453  1.3169 -0.1687  1.2562
 3139SOL    HW215433   1.853   5.311   0.305 -2.4483 -0.7845  1.1576
 3140SOL     OW15434   2.629   4.905   6.435 -0.0089  0.0610  0.1193
 3140SOL    HW115435   2.616   4.858   6.348 -0.2729 -0.6134  0.5169
 3140SOL    HW215436   2.611   4.842   6.510  0.3729  0.5913  0.6684
 3141SOL     OW15437   0.629   2.046   5.147  0.0838  0.1347  0.5963
 3141SOL    HW115438   0.550   2.039   5.086 -0.2381  0.1421  1.0143
 3141SOL    HW215439   0.712   2.022   5.096 -0.1995 -0.0069  0.1954
 3142SOL     OW15440   5.823   1.388   0.698 -0.5157 -0.3354 -0.7600
 3142SOL    HW115441   5.769   1.336   0.764  1.5888 -2.4567 -0.5372
 3142SOL    HW215442   5.805   1.354   0.606 -1.2946  0.6254 -0.9808
 3143SOL     OW15443   3.349   4.438   5.528  0.6382  0.2785  0.3363
 3143SOL    HW115444   3.281   4.412   5.460 -0.1121 -0.8384  1.4631
 3143SOL    HW215445   3.357   4.538   5.531  0.6225  0.3544 -1.2844
 3144SOL     OW15446   6.021   1.994   6.179  0.9790  0.1305  0.5302
 3144SOL    HW115447   6.005   2.068   6.113  1.0807 -0.8488 -0.6212
 3144SOL    HW215448   5.957   2.003   6.255 -0.4751  0.1971 -0.6536
 3145SOL     OW15449   2.167   3.773   0.309  0.0435 -0.1355 -0.3128
 3145SOL    HW115450   2.242   3.708   0.319 -0.4970 -0.9585 -1.3494
 3145SOL    HW215451   2.204   3.866   0.304  0.9527 -0.4863 -0.3476
 3146SOL     OW15452   4.076   0.721   4.762 -0.3135  0.5495 -0.1495
 3146SOL    HW115453   4.003   0.737   4.696  1.1538 -1.9857 -2.6162
 3146SOL    HW215454   4.157   0.773   4.736  0.3928 -0.7470 -0.6624
 3147SOL     OW15455   2.258   3.390   5.906 -0.0144 -0.4416  0.0569
 3147SOL    HW115456   2.235   3.393   5.809 -0.5878 -2.7549  0.0455
 3147SOL    HW215457   2.333   3.324   5.920 -0.8717 -1.1889  1.2964
 3148SOL     OW15458   1.884   5.055   6.437  0.0480 -0.2744  0.1470
 3148SOL    HW115459   1.827   5.019   6.363 -3.1088  0.8906  1.8079
 3148SOL    HW215460   1.935   5.135   6.405 -3.2558  1.8560 -0.3351
 3149SOL     OW15461   0.206   2.855   1.209 -0.6255 -0.5827  0.2097
 3149SOL    HW115462   0.202   2.874   1.307  0.2624 -1.4284  0.4171
 3149SOL    HW215463   0.216   2.756   1.194 -1.0446 -0.4960 -0.7424
 3150SOL     OW15464   1.900   2.655   0.349  0.0713  0.3396  0.1558
 3150SOL    HW115465   1.939   2.713   0.277 -2.2093 -0.1283 -1.5710
 3150SOL    HW215466   1.945   2.566   0.348  0.7375  0.6667  0.0175
 3151SOL     OW15467   0.086   1.483   0.414 -0.0653  0.2048  0.2258
 3151SOL    HW115468   0.067   1.577   0.384  0.5452  0.4078  0.4631
 3151SOL    HW215469   0.032   1.463   0.496 -0.1276  0.3768  0.2288
 3152SOL     OW15470   4.672   5.808   0.485 -0.2464  0.6126  0.1070
 3152SOL    HW115471   4.633   5.727   0.528 -0.2020  1.1568  1.2114
 3152SOL    HW215472   4.612   5.839   0.411 -0.0560 -0.6454 -0.5921
 3153SOL     OW15473   2.968   2.923   0.829 -0.0460 -0.1277  0.0681
 3153SOL    HW115474   2.941   3.015   0.860  1.4739  0.0450  0.9908
 3153SOL    HW215475   3.046   2.931   0.767 -0.5385 -0.7552 -0.6534
 3154SOL     OW15476   2.413   6.315   6.183  0.5097  0.0794  0.6971
 3154SOL    HW115477   2.369   6.334   6.271 -1.1541  0.1589 -0.1049
 3154SOL    HW215478   2.406   6.396   6.125  4.0314  1.0262  1.3600
 3155SOL     OW15479   3.416   0.877   5.137 -0.0148  0.0439 -0.3039
 3155SOL    HW115480   3.352   0.844   5.067  0.0995  2.6123 -1.7414
 3155SOL    HW215481   3.477   0.945   5.096  1.5219  0.0303  1.8293
 3156SOL     OW15482   2.056   2.308   0.733  0.2423  0.6774  0.2325
 3156SOL    HW115483   2.007   2.222   0.741 -1.4305  1.6995  1.4639
 3156SOL    HW215484   1.993   2.385   0.748  1.9655  2.0838  0.6464
 3157SOL     OW15485   1.051   1.671   4.901  0.0110  0.7110 -0.0327
 3157SOL    HW115486   1.038   1.672   4.801  0.4232  0.4289 -0.0896
 3157SOL    HW215487   1.106   1.750   4.928 -1.5341  1.7621  0.1793
 3158SOL     OW15488   1.104   1.844   5.439 -0.5632  0.0257  0.0454
 3158SOL    HW115489   1.181   1.863   5.378  1.4320  1.2681  2.7774
 3158SOL    HW215490   1.028   1.905   5.416  0.0059  0.2517 -1.3593
 3159SOL     OW15491   2.551   1.454   5.399 -0.3365 -0.3059 -0.5145
 3159SOL    HW115492   2.555   1.400   5.483  0.1822 -1.0516 -1.0133
 3159SOL    HW215493   2.537   1.394   5.320 -0.2152  0.3302 -1.0334
 3160SOL     OW15494   5.590   3.643   1.065 -0.6105  0.8781 -0.2225
 3160SOL    HW115495   5.524   3.633   0.991  1.8879 -0.8087 -2.3685
 3160SOL    HW215496   5.568   3.578   1.138 -1.6051  0.7093 -0.6542
 3161SOL     OW15497   3.842   1.738   4.696  0.5719 -0.1573 -0.3159
 3161SOL    HW115498   3.904   1.701   4.765 -0.5299 -0.9123  0.3017
 3161SOL    HW215499   3.891   1.803   4.638  1.5519  0.3839  1.0813
 3162SOL     OW15500   2.524   6.059   5.035  0.5204  0.0445  0.0255
 3162SOL    HW115501   2.617   6.023   5.026  0.5286  0.3843 -1.4892
 3162SOL    HW215502   2.458   5.985   5.017  0.5301  0.3868 -1.5213
 3163SOL     OW15503   5.748   5.145   5.512 -0.4167 -0.1876 -0.0041
 3163SOL    HW115504   5.791   5.062   5.545 -1.7140 -1.2770 -0.9586
 3163SOL    HW215505   5.778   5.164   5.419  0.2731  0.7340  0.3834
 3164SOL     OW15506   2.707   0.954   4.441  0.0261 -0.4710  0.3589
 3164SOL    HW115507   2.664   0.865   4.451 -0.8649  0.1115  2.1860
 3164SOL    HW215508   2.664   1.004   4.366  0.4207 -1.4951 -0.5609
 3165SOL     OW15509   2.930   1.951   0.834 -0.1375 -0.1302 -0.1335
 3165SOL    HW115510   3.023   1.927   0.808  0.4252 -0.0333  1.6542
 3165SOL    HW215511   2.907   2.041   0.797  0.9948  0.4525  0.5111
 3166SOL     OW15512   5.582   1.890   6.206 -0.2611  0.1575 -0.5032
 3166SOL    HW115513   5.647   1.908   6.132  1.4216 -1.7145  0.4136
 3166SOL    HW215514   5.517   1.821   6.175 -1.2399  1.3100 -1.0869
 3167SOL     OW15515   3.730   4.946   5.403 -0.0054 -0.0857  0.1549
 3167SOL    HW115516   3.719   5.044   5.421  0.2678 -0.1606  0.7861
 3167SOL    HW215517   3.761   4.901   5.487  1.5047 -0.4431 -0.5546
 3168SOL     OW15518   4.591   2.999   6.343 -0.9845  0.5717 -0.4313
 3168SOL    HW115519   4.561   2.905   6.332 -0.9873  0.5758 -0.4591
 3168SOL    HW215520   4.525   3.061   6.300 -0.0051  0.4752 -2.1659
 3169SOL     OW15521   0.930   0.905   0.807 -0.0324  0.2063 -0.1341
 3169SOL    HW115522   0.869   0.985   0.803 -0.9725 -0.5364 -1.0890
 3169SOL    HW215523   0.983   0.900   0.722  0.8145  0.4022  0.3709
 3170SOL     OW15524   3.977   1.338   1.312  0.4411  0.1663 -0.2537
 3170SOL    HW115525   3.957   1.412   1.376 -0.7073 -0.4377  0.1072
 3170SOL    HW215526   3.892   1.296   1.282  0.9160  0.6029 -2.4032
 3171SOL     OW15527   0.412   2.481   0.909  0.0829 -0.2066 -0.0186
 3171SOL    HW115528   0.366   2.439   0.830 -1.7899  1.6871 -0.0327
 3171SOL    HW215529   0.370   2.446   0.993 -0.2132  0.2441  0.0224
 3172SOL     OW15530   3.749   0.041   4.842  0.7127 -0.2983 -0.7107
 3172SOL    HW115531   3.790   0.131   4.823  0.6775  0.0257  0.6453
 3172SOL    HW215532   3.793  -0.028   4.786  1.6099  0.3837 -0.8711
 3173SOL     OW15533   6.074   0.385   5.736  0.1443  0.1926  0.4006
 3173SOL    HW115534   6.029   0.447   5.800 -0.2750 -1.0313  1.3447
 3173SOL    HW215535   6.115   0.437   5.662 -0.4362  1.5587  1.0049
 3174SOL     OW15536   4.297   4.960   6.004 -0.3666  0.1813 -0.0165
 3174SOL    HW115537   4.293   4.871   5.959  1.5398  0.3362 -0.5813
 3174SOL    HW215538   4.330   5.029   5.940 -1.6686  1.2804  0.4605
 3175SOL     OW15539   3.650   5.352   4.818 -0.3680  0.2191 -0.3567
 3175SOL    HW115540   3.561   5.357   4.774  0.0296 -0.0757 -1.2152
 3175SOL    HW215541   3.720   5.328   4.750 -0.1125 -3.0126  0.8858
 3176SOL     OW15542   2.067   4.775   5.457  0.0432  0.0772 -0.4200
 3176SOL    HW115543   2.032   4.714   5.529  1.3712  0.5803  0.6990
 3176SOL    HW215544   2.003   4.850   5.443 -0.2961 -0.0915  0.1595
 3177SOL     OW15545   3.950   4.554   1.143  0.4274 -0.3937  0.1908
 3177SOL    HW115546   3.917   4.625   1.206  0.2298 -0.3213  0.0089
 3177SOL    HW215547   3.893   4.555   1.060 -1.8444 -3.0906  1.5756
 3178SOL     OW15548   3.767   3.769   1.605 -0.4196  0.3309  0.1629
 3178SOL    HW115549   3.867   3.757   1.607 -0.3296  0.6999 -0.9156
 3178SOL    HW215550   3.730   3.762   1.697  0.4813 -0.8156  0.4531
 3179SOL     OW15551   5.220   0.741   6.244 -0.8323 -0.0601  0.0464
 3179SOL    HW115552   5.173   0.664   6.203  1.0347  0.0165 -2.4165
 3179SOL    HW215553   5.161   0.822   6.240 -2.0078 -0.8353  0.8079
 3180SOL     OW15554   2.140   2.816   0.736  0.6556  0.0925  0.0665
 3180SOL    HW115555   2.050   2.857   0.750  0.2217 -0.7771 -0.1406
 3180SOL    HW215556   2.133   2.738   0.674  1.7512  0.7756 -0.9727
 3181SOL     OW15557   4.317   4.657   5.640  0.0366 -0.1123  0.1439
 3181SOL    HW115558   4.411   4.632   5.663  0.7887  3.0881  0.9105
 3181SOL    HW215559   4.308   4.666   5.540  0.8099  0.4763  0.1206
 3182SOL     OW15560   3.164   0.054   1.299  0.6093 -0.0324  0.2566
 3182SOL    HW115561   3.161   0.058   1.199 -1.5889 -0.0777  0.2663
 3182SOL    HW215562   3.185  -0.039   1.328  0.6876 -0.1505 -0.1749
 3183SOL     OW15563   3.853   6.159   6.294 -0.2657  0.0530  0.7914
 3183SOL    HW115564   3.832   6.206   6.208  1.7870  0.7439  0.5999
 3183SOL    HW215565   3.846   6.060   6.280 -0.7084  0.1736  0.0629
 3184SOL     OW15566   5.908   5.874   5.918  0.7526  0.3445 -0.9148
 3184SOL    HW115567   5.933   5.918   6.004  0.1429 -1.8721  0.4961
 3184SOL    HW215568   5.872   5.942   5.854  2.1392  2.1952  0.1959
 3185SOL     OW15569   5.997   4.465   1.421  0.3524  0.1102 -0.2460
 3185SOL    HW115570   6.041   4.552   1.445  1.1029 -0.1751 -0.5664
 3185SOL    HW215571   6.039   4.391   1.473 -0.1276 -0.0993 -0.1488
 3186SOL     OW15572   2.501   2.990   0.534 -0.3014  1.1977  0.2448
 3186SOL    HW115573   2.486   2.945   0.623 -1.5370  1.4243  0.1571
 3186SOL    HW215574   2.414   3.024   0.499  0.4198  2.5051 -0.3196
 3187SOL     OW15575   1.658   5.135   4.560  0.6505  0.4753 -0.5308
 3187SOL    HW115576   1.677   5.154   4.656 -0.0658  0.6578 -0.4211
 3187SOL    HW215577   1.688   5.212   4.504  0.0166  0.8742 -0.3325
 3188SOL     OW15578   5.247   1.919   0.851  0.3248 -0.1745 -0.0152
 3188SOL    HW115579   5.150   1.908   0.874  0.5400 -3.2226 -0.1894
 3188SOL    HW215580   5.261   2.009   0.810 -2.1690  0.8371  1.1181
 3189SOL     OW15581   3.628   3.813   6.237  0.9976  0.6840 -0.4179
 3189SOL    HW115582   3.706   3.812   6.174  0.7170  0.2438 -0.7584
 3189SOL    HW215583   3.545   3.783   6.189  0.3124  2.4723 -0.4494
 3190SOL     OW15584   3.892   1.231   0.035 -0.2272  0.3256  0.2089
 3190SOL    HW115585   3.870   1.328   0.027  1.3219  0.5872 -1.3570
 3190SOL    HW215586   3.837   1.179  -0.031  0.5406  0.4162 -0.5049
 3191SOL     OW15587   5.116   1.476   5.431  0.4103 -0.1279 -0.0446
 3191SOL    HW115588   5.117   1.466   5.331  0.2185 -2.0093  0.1017
 3191SOL    HW215589   5.210   1.467   5.466  0.3246 -0.8304  0.0285
 3192SOL     OW15590   2.847   1.339   5.965  0.1694  1.3049  0.3905
 3192SOL    HW115591   2.818   1.434   5.971 -0.9366  1.0150 -0.1701
 3192SOL    HW215592   2.886   1.322   5.874 -0.5071  0.9960  0.1532
 3193SOL     OW15593   2.782   5.706   0.084  0.0935 -0.2286  0.6266
 3193SOL    HW115594   2.706   5.739   0.028 -0.0858 -0.8284  0.5137
 3193SOL    HW215595   2.784   5.606   0.082  1.8427 -0.2134 -0.6873
 3194SOL     OW15596   1.655   3.820   5.125  0.6669 -0.1353  0.4114
 3194SOL    HW115597   1.581   3.884   5.146  0.4429 -1.0225  2.5703
 3194SOL    HW215598   1.743   3.863   5.144  0.6384  0.2626 -0.3099
 3195SOL     OW15599   3.159   6.370   5.932  0.6794  0.3149  0.0477
 3195SOL    HW115600   3.190   6.459   5.897 -1.7126  1.6653  1.1155
 3195SOL    HW215601   3.100   6.327   5.864  0.1801  0.5251  0.3434
 3196SOL     OW15602   6.273   0.906   5.774  0.9997  0.0824  0.5487
 3196SOL    HW115603   6.298   1.002   5.768  0.1414  0.2121 -1.8858
 3196SOL    HW215604   6.289   0.873   5.868  2.0415  2.3462  1.2294
 3197SOL     OW15605   5.842   4.726   0.896 -0.0738 -0.0777 -1.0646
 3197SOL    HW115606   5.941   4.719   0.884  0.0954 -1.5792  0.7476
 3197SOL    HW215607   5.801   4.636   0.888 -0.8611  0.0192  1.1480
 3198SOL     OW15608   4.163   3.370   0.494 -0.1561 -0.5999 -0.3182
 3198SOL    HW115609   4.180   3.468   0.487 -1.4091 -0.3743 -0.4204
 3198SOL    HW215610   4.223   3.331   0.564 -0.2051  0.3855  0.3001
 3199SOL     OW15611   2.905   0.248   5.699  0.1734 -0.7113 -0.1330
 3199SOL    HW115612   2.951   0.188   5.764  0.7031  0.6018  0.7440
 3199SOL    HW215613   2.806   0.241   5.712  0.2520 -0.9759  0.3371
 3200SOL     OW15614   4.245   4.718   5.901 -0.1551 -0.3854 -0.0714
 3200SOL    HW115615   4.223   4.630   5.944  0.8128  0.3415  2.0356
 3200SOL    HW215616   4.267   4.703   5.804 -0.2689 -2.4201  0.1717
 3201SOL     OW15617   2.847   0.219   0.844  0.4533 -0.6024 -0.2104
 3201SOL    HW115618   2.750   0.243   0.846  0.9442  1.4514  0.6915
 3201SOL    HW215619   2.866   0.152   0.915 -0.0528  0.0458  0.5463
 3202SOL     OW15620   5.172   4.521   0.397  0.7932  0.2667  0.6529
 3202SOL    HW115621   5.143   4.616   0.384  0.6660 -0.0353 -1.5400
 3202SOL    HW215622   5.260   4.520   0.444  0.8363  1.4743  0.6338
 3203SOL     OW15623   6.252   4.451   1.024  0.2251  0.2650 -0.1623
 3203SOL    HW115624   6.304   4.455   1.109  0.9244 -0.5637 -0.5380
 3203SOL    HW215625   6.166   4.403   1.041  1.2133 -1.6766 -0.3036
 3204SOL     OW15626   4.118   0.473   0.965  0.1717  0.1351 -0.1248
 3204SOL    HW115627   4.051   0.495   1.036 -0.0376  1.8738 -0.7975
 3204SOL    HW215628   4.095   0.523   0.882  1.9749  0.3072 -0.5599
 3205SOL     OW15629   5.649   3.779   5.342 -0.0823  0.9436  0.6866
 3205SOL    HW115630   5.650   3.879   5.345  3.9088  1.1751 -1.5465
 3205SOL    HW215631   5.569   3.748   5.291 -1.1845  2.9886  1.0721
 3206SOL     OW15632   2.890   4.565   0.157  0.5611  0.6410 -0.4402
 3206SOL    HW115633   2.809   4.518   0.191  0.5086  0.3859 -0.9072
 3206SOL    HW215634   2.870   4.607   0.069  1.3392 -0.6678 -1.2765
 3207SOL     OW15635   0.937   0.891   5.994 -0.0219  0.2869 -0.0609
 3207SOL    HW115636   0.977   0.981   5.979  1.2165 -0.2457 -0.0203
 3207SOL    HW215637   0.863   0.899   6.061 -0.6944  1.4454 -0.9038
 3208SOL     OW15638   5.477   3.084   5.624  0.4264 -0.2814  0.2496
 3208SOL    HW115639   5.487   3.146   5.547 -2.5529 -1.0124 -0.8344
 3208SOL    HW215640   5.518   3.126   5.706 -0.0981  2.4117 -0.7637
 3209SOL     OW15641   3.399   0.507   1.601  0.3516 -0.8422 -0.6465
 3209SOL    HW115642   3.464   0.545   1.667  1.0278 -3.8882  0.5748
 3209SOL    HW215643   3.324   0.463   1.650 -0.4998 -0.9462 -1.9997
 3210SOL     OW15644   2.206   6.097   1.880  0.3977  0.0659  0.1955
 3210SOL    HW115645   2.129   6.062   1.826  0.1528  1.9796 -0.7734
 3210SOL    HW215646   2.181   6.185   1.920  1.9236  0.5071  0.2341
 3211SOL     OW15647   5.110   0.516   5.785  0.0280  0.0346 -0.1330
 3211SOL    HW115648   5.174   0.591   5.799 -1.5987  1.3542  0.6871
 3211SOL    HW215649   5.117   0.483   5.691  1.5130  0.4893 -0.1992
 3212SOL     OW15650   0.996   1.791   5.689 -0.3777  0.6148 -0.2636
 3212SOL    HW115651   1.032   1.705   5.726 -1.8948  0.4156  0.8308
 3212SOL    HW215652   1.038   1.809   5.600  2.3456  0.3914  0.8740
 3213SOL     OW15653   3.097   6.251   0.603 -0.2128  0.1746  0.2252
 3213SOL    HW115654   3.015   6.301   0.631  0.0777 -0.0828  1.6097
 3213SOL    HW215655   3.071   6.165   0.559 -0.6851  0.6890 -0.5280
 3214SOL     OW15656   5.168   2.615   0.344  0.1891 -0.1300 -0.3403
 3214SOL    HW115657   5.268   2.618   0.354  0.0827 -0.0817  0.9135
 3214SOL    HW215658   5.132   2.535   0.391 -0.3755 -0.0919 -0.6993
 3215SOL     OW15659   5.476   4.631   0.247  0.7903  0.5247 -0.2839
 3215SOL    HW115660   5.539   4.683   0.304 -0.3495 -0.0973  1.6325
 3215SOL    HW215661   5.387   4.678   0.245  0.1379 -0.6314  0.3962
 3216SOL     OW15662   1.035   4.880   0.569  0.0701 -0.3499 -0.4997
 3216SOL    HW115663   0.975   4.892   0.490 -1.8371  0.0456  0.9505
 3216SOL    HW215664   1.051   4.968   0.613 -0.8155 -0.8562  0.8918
 3217SOL     OW15665   2.182   2.958   4.961 -0.8006  0.3397  0.4781
 3217SOL    HW115666   2.245   3.026   4.923 -0.2868  0.5807  1.6936
 3217SOL    HW215667   2.112   3.005   5.015 -0.9532 -0.0452  0.6169
 3218SOL     OW15668   2.994   5.178   0.150  0.0480  0.1148  0.5638
 3218SOL    HW115669   2.910   5.155   0.102  1.2986 -1.1679 -1.0985
 3218SOL    HW215670   3.027   5.268   0.120 -0.1491  0.1341  0.4080
 3219SOL     OW15671   2.756   2.290   0.777  0.2838 -0.4081 -0.4007
 3219SOL    HW115672   2.784   2.381   0.810  0.3534 -0.1519 -1.1341
 3219SOL    HW215673   2.831   2.251   0.723 -0.2088 -0.3661 -1.1222
 3220SOL     OW15674   4.316   5.717   6.324 -0.4371 -0.7035 -0.7637
 3220SOL    HW115675   4.347   5.648   6.260  0.1435 -0.2441 -0.9956
 3220SOL    HW215676   4.225   5.748   6.300 -0.3014 -0.6802 -1.2430
 3221SOL     OW15677   0.897   5.002   0.972 -0.2125  0.0492 -0.2714
 3221SOL    HW115678   0.945   5.080   1.012 -0.3388  0.6928 -1.3329
 3221SOL    HW215679   0.869   5.025   0.879 -0.9407 -0.9937 -0.3201
 3222SOL     OW15680   1.839   5.180   5.090 -0.3065  0.4268 -0.1548
 3222SOL    HW115681   1.895   5.134   5.161 -1.5861  1.7506  1.8121
 3222SOL    HW215682   1.895   5.249   5.044 -0.3166  2.0240  2.0682
 3223SOL     OW15683   5.998   3.170   0.660 -0.0425 -0.2686 -0.7730
 3223SOL    HW115684   5.963   3.243   0.602 -0.0696 -0.0717 -0.5109
 3223SOL    HW215685   5.953   3.174   0.749  0.3701 -0.2515 -0.5662
 3224SOL     OW15686   1.590   2.987   4.949 -0.2729  0.1365  0.0429
 3224SOL    HW115687   1.625   2.907   4.900  0.9230  0.6068  0.0828
 3224SOL    HW215688   1.534   3.043   4.887  0.6723  0.3814 -0.6192
 3225SOL     OW15689   1.723   4.791   0.043  0.1687  0.1873 -0.4030
 3225SOL    HW115690   1.773   4.832  -0.033  0.1309  1.1455  0.0779
 3225SOL    HW215691   1.734   4.691   0.040 -0.3338  0.1517 -1.9975
 3226SOL     OW15692   5.385   4.160   0.033  0.2404 -0.0990  0.7044
 3226SOL    HW115693   5.316   4.225   0.065 -0.2031  0.6718 -1.6339
 3226SOL    HW215694   5.468   4.209   0.008  0.3271 -0.5708  0.0525
 3227SOL     OW15695   2.813   5.163   5.612 -0.3309 -0.2231 -0.5917
 3227SOL    HW115696   2.871   5.151   5.531 -0.1515  0.2135 -0.5323
 3227SOL    HW215697   2.718   5.147   5.586 -0.2992  0.1216 -0.9444
 3228SOL     OW15698   3.031   5.644   6.234 -0.2757 -0.3028  0.4519
 3228SOL    HW115699   3.054   5.708   6.160 -0.9982  0.9970  1.3273
 3228SOL    HW215700   2.957   5.583   6.203  0.3230 -0.6558 -0.3374
 3229SOL     OW15701   0.616   5.660   6.388 -0.6384  0.7497  0.1869
 3229SOL    HW115702   0.632   5.745   6.338  0.5681 -0.1698 -1.0677
 3229SOL    HW215703   0.673   5.657   6.470  0.2150  0.6576 -0.3969
 3230SOL     OW15704   0.936   0.171   5.780 -0.0952 -0.1652 -0.5416
 3230SOL    HW115705   0.945   0.084   5.829 -1.3714  0.6906  1.3623
 3230SOL    HW215706   0.890   0.156   5.693 -0.4026 -1.3929 -0.1929
 3231SOL     OW15707   5.442   3.146   0.064  0.0206 -0.2051  0.2529
 3231SOL    HW115708   5.494   3.165  -0.019  0.7548  4.7219  1.5285
 3231SOL    HW215709   5.344   3.150   0.044  0.1513 -1.6540 -0.7695
 3232SOL     OW15710   2.133   5.752   6.218  0.1500  0.0999  0.2959
 3232SOL    HW115711   2.085   5.672   6.253 -0.1945 -0.5969 -1.6036
 3232SOL    HW215712   2.100   5.834   6.263 -1.7051 -0.5306  0.1670
 3233SOL     OW15713   3.522   1.176   5.640  0.1639  0.4895 -0.2467
 3233SOL    HW115714   3.447   1.115   5.666  1.0829 -1.5374 -2.0169
 3233SOL    HW215715   3.525   1.184   5.541  2.1692  0.6620 -0.2119
 3234SOL     OW15716   1.537   0.400   1.555 -0.0610  0.5047  0.3307
 3234SOL    HW115717   1.488   0.431   1.636 -0.8441 -0.8810  0.4310
 3234SOL    HW215718   1.513   0.457   1.476  0.4129  1.6214  0.9870
 3235SOL     OW15719   5.249   5.614   6.219  0.1374 -0.1924 -0.1202
 3235SOL    HW115720   5.156   5.645   6.237 -0.2659 -1.5165  0.1814
 3235SOL    HW215721   5.314   5.677   6.263 -0.7135 -1.0582  2.6142
 3236SOL     OW15722   3.969   0.204   0.978 -0.8189 -0.4419  0.3891
 3236SOL    HW115723   3.961   0.288   1.033 -0.1873 -0.3600  0.3713
 3236SOL    HW215724   4.055   0.158   1.001 -0.7459 -0.6245 -0.2356
 3237SOL     OW15725   2.987   3.143   5.937  0.4119 -0.3013 -0.5330
 3237SOL    HW115726   2.942   3.135   5.848 -1.5976 -0.5787  0.4705
 3237SOL    HW215727   3.005   3.051   5.973 -1.3158 -0.2645  0.5390
 3238SOL     OW15728   1.134   4.613   6.383 -0.3895 -0.9789  0.0377
 3238SOL    HW115729   1.221   4.602   6.336 -0.5680 -0.6925 -0.3712
 3238SOL    HW215730   1.149   4.613   6.482  0.4990  1.9859  0.0145
 3239SOL     OW15731   1.005   3.874   6.378 -0.0873 -0.1637  0.1978
 3239SOL    HW115732   1.030   3.845   6.285 -2.6070 -0.2412 -0.5479
 3239SOL    HW215733   1.068   3.945   6.409  0.1706  0.6845 -2.0585
 3240SOL     OW15734   4.467   0.937   6.354 -0.7660  0.1540  0.4639
 3240SOL    HW115735   4.449   0.878   6.275 -2.5982  0.3067  0.7150
 3240SOL    HW215736   4.420   1.025   6.342  1.3850  1.3693  0.3934
 3241SOL     OW15737   2.386   0.380   0.390  0.2828  0.1618 -0.0125
 3241SOL    HW115738   2.432   0.291   0.380  2.5969  1.0655  1.5914
 3241SOL    HW215739   2.400   0.434   0.307  2.0469  0.3321  0.3511
 3242SOL     OW15740   0.860   5.512   0.570 -0.2046 -0.4204  0.1937
 3242SOL    HW115741   0.831   5.549   0.481  0.7359 -1.6978 -0.6829
 3242SOL    HW215742   0.781   5.474   0.617 -0.6058 -0.3477 -0.4065
 3243SOL     OW15743   3.894   5.895   5.466 -0.6781 -0.3966 -0.2935
 3243SOL    HW115744   3.922   5.874   5.560 -0.0449 -0.5985 -0.5223
 3243SOL    HW215745   3.966   5.949   5.421 -1.3595  0.4542 -0.3898
 3244SOL     OW15746   3.728   3.571   0.804  0.1313  0.4469  0.3595
 3244SOL    HW115747   3.717   3.669   0.789 -0.9454  0.3090  0.1464
 3244SOL    HW215748   3.665   3.521   0.744 -0.5217 -0.3087  1.6383
 3245SOL     OW15749   3.257   2.621   1.187  0.5479 -0.3691 -0.5781
 3245SOL    HW115750   3.347   2.633   1.229  0.8107 -1.6144 -0.7431
 3245SOL    HW215751   3.260   2.651   1.092 -0.4864  4.0997  0.5766
 3246SOL     OW15752   5.889   4.433   6.025  0.6494 -0.1582  0.3567
 3246SOL    HW115753   5.800   4.403   5.990  0.1053  1.0273  0.6900
 3246SOL    HW215754   5.908   4.526   5.992  1.2187  0.0529  1.2505
 3247SOL     OW15755   1.485   3.319   0.764  0.0542 -0.1021 -0.2161
 3247SOL    HW115756   1.510   3.391   0.828  1.3645  1.0122 -1.8819
 3247SOL    HW215757   1.386   3.316   0.753 -0.2214 -0.4831  1.9752
 3248SOL     OW15758   2.029   3.679   1.270 -0.0013 -0.4682 -0.1229
 3248SOL    HW115759   1.944   3.672   1.322  0.9854  0.5183  1.7428
 3248SOL    HW215760   2.009   3.701   1.175 -1.8147  1.8094  0.6941
 3249SOL     OW15761   6.009   0.609   6.366  0.1547 -0.7280  0.2194
 3249SOL    HW115762   6.077   0.679   6.347  1.5297 -0.9980  3.4459
 3249SOL    HW215763   6.053   0.519   6.367 -0.3448 -0.9779  1.7381
 3250SOL     OW15764   1.521   4.730   5.838  0.0340  0.3928  0.5903
 3250SOL    HW115765   1.557   4.819   5.812  0.5769 -0.4168 -1.6002
 3250SOL    HW215766   1.444   4.706   5.779  0.4436 -0.9549  0.5697
 3251SOL     OW15767   2.001   1.004   5.385 -0.0216  0.0764 -0.3464
 3251SOL    HW115768   2.022   0.914   5.423 -0.4005 -0.1405 -0.6357
 3251SOL    HW215769   1.992   1.071   5.459  1.2705  0.1028 -0.1926
 3252SOL     OW15770   3.276   0.201   4.918  0.1219 -0.1543 -0.5367
 3252SOL    HW115771   3.244   0.113   4.884  1.4307 -1.0347  0.3965
 3252SOL    HW215772   3.210   0.239   4.982  0.0126 -0.9690 -0.1572
 3253SOL     OW15773   5.754   1.233   0.244  0.1944  0.0195 -0.0849
 3253SOL    HW115774   5.700   1.149   0.239 -0.3318  0.2416  1.3291
 3253SOL    HW215775   5.731   1.282   0.328  0.1695  1.8152 -1.1003
 3254SOL     OW15776   4.554   3.080   0.583 -0.2483 -0.0727  0.0762
 3254SOL    HW115777   4.553   3.014   0.507  1.3158 -0.2769  0.1875
 3254SOL    HW215778   4.609   3.042   0.658 -1.6339  0.1937  1.2681
 3255SOL     OW15779   1.820   2.260   0.379  0.3296  0.2491  0.2331
 3255SOL    HW115780   1.802   2.202   0.299  0.3748 -0.9119  1.0393
 3255SOL    HW215781   1.905   2.232   0.422 -0.7266 -0.5475  1.8925
 3256SOL     OW15782   4.461   4.432   6.210 -0.1129  0.0994  0.2754
 3256SOL    HW115783   4.489   4.528   6.202  3.5805 -0.8519 -0.3481
 3256SOL    HW215784   4.451   4.407   6.306 -1.0446  1.0674  0.4395
 3257SOL     OW15785   6.362   4.135   5.381 -0.2684  0.1006  0.5498
 3257SOL    HW115786   6.276   4.094   5.412  0.8930 -1.0654  2.4477
 3257SOL    HW215787   6.411   4.070   5.323 -0.3337  0.4886  0.0564
 3258SOL     OW15788   1.830   2.435   5.975 -0.8549  0.1779 -0.4957
 3258SOL    HW115789   1.882   2.388   5.903 -0.5557  0.2790 -0.3428
 3258SOL    HW215790   1.794   2.367   6.039  1.3058  0.2593  0.9091
 3259SOL     OW15791   2.226   5.668   1.013 -0.3324  0.0635 -0.2790
 3259SOL    HW115792   2.285   5.635   0.939  0.5797 -0.4270  0.6425
 3259SOL    HW215793   2.275   5.736   1.067 -0.7713 -0.0310  0.2497
 3260SOL     OW15794   0.117   2.878   4.831  0.3850  0.4919  0.0644
 3260SOL    HW115795   0.104   2.806   4.762 -1.6926 -0.3521  1.2575
 3260SOL    HW215796   0.031   2.895   4.878  1.8255  0.6545  2.8495
 3261SOL     OW15797   5.322   5.892   0.430  0.8549 -0.5531  0.6290
 3261SOL    HW115798   5.306   5.974   0.484  1.6755  0.3668 -0.4869
 3261SOL    HW215799   5.337   5.917   0.334 -1.8228 -2.2197 -0.3517
 3262SOL     OW15800   2.834   3.157   5.683 -0.1686 -0.4352  0.7382
 3262SOL    HW115801   2.796   3.249   5.686  0.0529 -0.3587  2.0420
 3262SOL    HW215802   2.812   3.114   5.596 -1.4184  0.3592  0.6377
 3263SOL     OW15803   5.354   1.257   6.476  0.6582 -0.6478  0.1114
 3263SOL    HW115804   5.305   1.209   6.549 -2.0791  0.5066 -0.8278
 3263SOL    HW215805   5.310   1.238   6.388  1.6280  0.8303 -0.7392
 3264SOL     OW15806   3.647   1.129   0.336  0.3979 -0.1217  0.2839
 3264SOL    HW115807   3.682   1.177   0.256  0.0448 -0.7082 -0.2311
 3264SOL    HW215808   3.721   1.119   0.404  0.9114 -0.3050 -0.2948
 3265SOL     OW15809   0.792   1.264   5.258 -0.0259 -0.6578  0.2300
 3265SOL    HW115810   0.711   1.205   5.258  0.7464 -1.7902 -0.9996
 3265SOL    HW215811   0.785   1.330   5.183 -0.2128 -0.1572  0.6851
 3266SOL     OW15812   1.805   5.836   5.761 -0.1044  0.4279  0.1965
 3266SOL    HW115813   1.801   5.897   5.683  1.1540 -0.0390 -0.2554
 3266SOL    HW215814   1.879   5.864   5.822  0.4194 -0.5732  0.0355
 3267SOL     OW15815   4.706   4.306   5.848  0.1893  0.0693 -0.0552
 3267SOL    HW115816   4.768   4.278   5.922  1.7995 -0.3850 -1.4819
 3267SOL    HW215817   4.760   4.321   5.765 -1.2444  2.8378 -0.5969
 3268SOL     OW15818   4.555   6.264   1.461  0.3447 -0.1447  0.0475
 3268SOL    HW115819   4.648   6.252   1.427  0.2724  0.2703 -0.3009
 3268SOL    HW215820   4.548   6.349   1.513  0.0073  0.1422 -0.4633
 3269SOL     OW15821   1.907   2.926   5.887 -0.1585 -0.7274  0.6773
 3269SOL    HW115822   1.873   2.837   5.917  0.4743 -0.7957  1.2074
 3269SOL    HW215823   1.925   2.983   5.966 -0.1538 -0.2755  0.3519
 3270SOL     OW15824   4.615   0.833   5.321  0.3768  0.1785  0.1622
 3270SOL    HW115825   4.679   0.910   5.320  1.0195 -0.3537  0.3482
 3270SOL    HW215826   4.618   0.789   5.411  0.2475 -0.2676 -0.0530
 3271SOL     OW15827   4.004   3.164   0.705  0.4585  0.3379 -0.3692
 3271SOL    HW115828   3.954   3.229   0.648  2.3504  0.1042 -2.4407
 3271SOL    HW215829   4.025   3.207   0.793  0.5703  2.0970 -1.1993
 3272SOL     OW15830   5.248   3.017   5.803  1.1175 -0.9337  0.8643
 3272SOL    HW115831   5.347   3.027   5.793  0.9118  0.8249  0.3200
 3272SOL    HW215832   5.212   2.968   5.723  1.3949 -0.4617  0.4431
 3273SOL     OW15833   2.621   3.632   1.944  0.5265 -0.0659 -0.4150
 3273SOL    HW115834   2.624   3.706   2.012  1.0447  0.1105 -0.6261
 3273SOL    HW215835   2.646   3.546   1.988 -0.9114 -0.2921  0.0372
 3274SOL     OW15836   1.900   4.283   6.354 -0.7200  0.1461  0.1280
 3274SOL    HW115837   1.949   4.362   6.391 -0.8462  0.0978  0.4026
 3274SOL    HW215838   1.957   4.201   6.364 -0.7707  0.1260  0.2571
 3275SOL     OW15839   0.508   2.634   1.334  0.1122  0.2300 -0.2477
 3275SOL    HW115840   0.570   2.606   1.407  0.6904  2.4351  0.1822
 3275SOL    HW215841   0.432   2.685   1.373  0.0198  0.7748 -1.1170
 3276SOL     OW15842   1.258   5.853   1.258 -0.0472  0.2334  0.0521
 3276SOL    HW115843   1.227   5.837   1.352  0.6484  2.4609  0.7408
 3276SOL    HW215844   1.236   5.774   1.201 -1.5774 -0.6920  1.8126
 3277SOL     OW15845   2.668   0.639   0.993 -0.0653  0.0954  0.2976
 3277SOL    HW115846   2.721   0.592   1.063  0.4094 -0.1908 -0.2456
 3277SOL    HW215847   2.647   0.732   1.023  0.3868  0.0689  0.6934
 3278SOL     OW15848   1.927   2.446   5.005 -0.0309 -0.2121  0.5540
 3278SOL    HW115849   1.841   2.394   5.004 -0.0135 -0.2614 -1.0280
 3278SOL    HW215850   2.003   2.383   5.024 -0.0342 -0.7775 -1.1410
 3279SOL     OW15851   6.336   4.196   6.133  0.2459  0.3113  0.1533
 3279SOL    HW115852   6.418   4.151   6.168  0.7804  1.9299  1.1038
 3279SOL    HW215853   6.356   4.238   6.044  0.1346 -0.1987 -0.1130
 3280SOL     OW15854   3.803   5.045   6.506 -0.0365  0.3101 -0.0809
 3280SOL    HW115855   3.731   4.977   6.510  0.3730 -0.1809 -0.8031
 3280SOL    HW215856   3.866   5.023   6.432 -1.1460  2.7051 -1.8672
 3281SOL     OW15857   0.370   4.053   6.486  0.7367 -0.3493  0.7284
 3281SOL    HW115858   0.374   4.073   6.584  2.5694  0.9321  0.4304
 3281SOL    HW215859   0.452   4.003   6.458  1.0593  0.7689 -0.4350
 3282SOL     OW15860   6.048   1.609   0.336  0.3146  0.1544  0.2716
 3282SOL    HW115861   6.105   1.686   0.367 -1.2010  1.5670 -0.2989
 3282SOL    HW215862   6.105   1.528   0.326  1.7320  0.8361  2.1658
 3283SOL     OW15863   3.203   2.375   6.006  0.3638  0.0018  0.7170
 3283SOL    HW115864   3.174   2.339   5.917 -0.5203 -0.2783  1.1049
 3283SOL    HW215865   3.273   2.445   5.992  1.2780 -1.0370 -0.1115
 3284SOL     OW15866   6.147   4.848   0.014 -0.4516  0.2340  0.3024
 3284SOL    HW115867   6.173   4.871  -0.080 -0.1950  1.5374  0.6776
 3284SOL    HW215868   6.137   4.749   0.022  0.4138  0.0256 -0.8795
 3285SOL     OW15869   5.317   2.269   0.457  0.0300  0.2883  0.0204
 3285SOL    HW115870   5.359   2.359   0.470 -0.4354  0.7358 -1.4154
 3285SOL    HW215871   5.309   2.249   0.360  0.0012 -1.2651  0.3128
 3286SOL     OW15872   1.070   3.697   5.151  0.4869  0.1784  0.3022
 3286SOL    HW115873   1.044   3.647   5.068 -0.7910  0.3726  0.5575
 3286SOL    HW215874   0.999   3.764   5.173 -0.0112 -0.9450  2.4220
 3287SOL     OW15875   2.033   3.330   6.460  0.4734 -0.5237  0.0784
 3287SOL    HW115876   2.084   3.300   6.541  1.6610  0.6351 -0.2028
 3287SOL    HW215877   2.016   3.251   6.400  0.8430 -1.1420  0.7670
 3288SOL     OW15878   4.097   2.764   1.000 -0.4358 -0.0535 -0.1974
 3288SOL    HW115879   4.161   2.840   0.988  0.1858 -0.6517 -0.7522
 3288SOL    HW215880   4.141   2.691   1.052 -1.3206  0.3008  1.1039
 3289SOL     OW15881   6.321   1.573   5.874 -0.6186  0.3176 -0.0613
 3289SOL    HW115882   6.389   1.596   5.943  0.1299  0.0183 -0.6831
 3289SOL    HW215883   6.256   1.507   5.912  0.6845 -1.0324 -0.0997
 3290SOL     OW15884   0.069   1.771   0.671  0.0071  0.6146 -0.6728
 3290SOL    HW115885  -0.011   1.743   0.724  0.2892  1.5501  0.2957
 3290SOL    HW215886   0.043   1.788   0.576 -1.0001  1.1591 -0.3071
 3291SOL     OW15887   1.855   2.465   5.496 -0.2550  0.0687 -0.3154
 3291SOL    HW115888   1.946   2.498   5.523 -0.0777 -0.5369 -0.1762
 3291SOL    HW215889   1.785   2.520   5.541  0.0138 -1.2057  1.7895
 3292SOL     OW15890   3.728   4.411   6.355  0.5501  0.4095  0.2572
 3292SOL    HW115891   3.795   4.474   6.395  1.0015  0.4962 -0.6083
 3292SOL    HW215892   3.643   4.460   6.336  0.4756  0.4636  0.7324
 3293SOL     OW15893   0.401   1.477   6.028 -0.5805 -0.2339 -0.2197
 3293SOL    HW115894   0.482   1.451   6.082 -1.3681  0.3780  1.3254
 3293SOL    HW215895   0.431   1.514   5.940  0.9874  1.8156  1.0704
 3294SOL     OW15896   3.848   1.450   6.284 -0.1529 -0.2028  0.0617
 3294SOL    HW115897   3.914   1.477   6.215 -0.9980  3.1272  0.3485
 3294SOL    HW215898   3.790   1.376   6.249  1.5548 -0.8938 -1.4254
 3295SOL     OW15899   0.969   0.234   0.948 -0.2125  0.0773  0.5961
 3295SOL    HW115900   0.917   0.153   0.972  0.7831 -0.3340  1.4123
 3295SOL    HW215901   0.980   0.292   1.028  2.9955 -1.2218  1.2602
 3296SOL     OW15902   3.361   5.122   6.484 -0.0167 -0.1743 -0.1221
 3296SOL    HW115903   3.384   5.057   6.557  0.1598 -0.3585 -0.3390
 3296SOL    HW215904   3.370   5.077   6.395  0.7993  0.3365 -0.3182
 3297SOL     OW15905   4.658   0.092   0.773  0.1156 -0.4249 -0.0404
 3297SOL    HW115906   4.664   0.118   0.869 -2.1999 -0.1261  0.0852
 3297SOL    HW215907   4.568   0.054   0.755  1.2955 -2.6492 -1.6159
 3298SOL     OW15908   1.320   4.170   5.925  0.7774 -0.5379 -0.4562
 3298SOL    HW115909   1.386   4.126   5.986  1.4933 -0.4286 -1.1240
 3298SOL    HW215910   1.228   4.158   5.961  1.2809  0.7084  1.3664
 3299SOL     OW15911   1.082   2.424   5.991 -0.1510 -0.3309 -0.0035
 3299SOL    HW115912   1.104   2.418   6.088  1.2298  0.2164 -0.2648
 3299SOL    HW215913   1.059   2.518   5.967 -1.3932 -0.6280 -0.0386
 3300SOL     OW15914   3.673   6.272   0.736  0.1033 -0.3589 -0.1720
 3300SOL    HW115915   3.636   6.280   0.643  0.1685  0.8467 -0.1013
 3300SOL    HW215916   3.773   6.272   0.733  0.1085  0.1330 -0.0719
 3301SOL     OW15917   5.402   3.606   0.891  0.6385  0.5910  0.6847
 3301SOL    HW115918   5.401   3.506   0.899 -1.1236  0.3452 -1.6187
 3301SOL    HW215919   5.317   3.643   0.928  0.2710  0.9958 -0.5279
 3302SOL     OW15920   1.632   4.813   0.970  0.1869  0.4010  0.2290
 3302SOL    HW115921   1.578   4.812   1.054 -0.0096 -1.8359  0.1377
 3302SOL    HW215922   1.719   4.766   0.986  0.4287  0.5159 -0.6721
 3303SOL     OW15923   2.363   5.548   1.262  0.5909  0.0059  0.3654
 3303SOL    HW115924   2.357   5.647   1.275  1.7539  0.0495  0.6127
 3303SOL    HW215925   2.357   5.502   1.350 -1.8691 -0.2840  0.1182
 3304SOL     OW15926   2.123   4.951   1.573 -0.2604 -0.2341  0.2833
 3304SOL    HW115927   2.147   4.856   1.551 -0.2980 -0.3153  0.5788
 3304SOL    HW215928   2.191   4.989   1.635  0.8142  0.5747 -1.3445
 3305SOL     OW15929   4.385   1.904   0.480  0.0848 -0.2709 -0.3159
 3305SOL    HW115930   4.400   1.806   0.465 -1.5722 -0.5835 -0.1738
 3305SOL    HW215931   4.295   1.929   0.446  0.2130  1.0651  0.2746
 3306SOL     OW15932   0.111   2.725   0.088  0.4053 -0.3131  0.2004
 3306SOL    HW115933   0.112   2.806   0.147 -1.1163 -0.8441  1.0129
 3306SOL    HW215934   0.105   2.643   0.145  1.1138 -0.9665 -0.6449
 3307SOL     OW15935   4.040   3.346   0.147 -0.0593 -0.0807 -0.5733
 3307SOL    HW115936   4.060   3.297   0.232 -2.4324 -1.3335 -0.6577
 3307SOL    HW215937   4.045   3.283   0.070 -1.0945  0.2729 -0.9442
 3308SOL     OW15938   0.797   2.452   5.491 -0.2893 -0.1188 -0.1765
 3308SOL    HW115939   0.881   2.484   5.535  0.5444  0.1578 -1.9158
 3308SOL    HW215940   0.760   2.524   5.432 -2.2907  0.1108  1.2216
 3309SOL     OW15941   1.631   5.481   6.384  0.8992  0.2039  0.5010
 3309SOL    HW115942   1.711   5.533   6.356  0.1072  1.9407  1.3211
 3309SOL    HW215943   1.635   5.464   6.483  0.2912  0.2552  0.5376
 3310SOL     OW15944   0.403   5.735   1.302 -0.3080  0.0524  0.2412
 3310SOL    HW115945   0.392   5.636   1.313  2.0623 -0.2932 -0.0273
 3310SOL    HW215946   0.482   5.766   1.355 -2.4099  2.2825  2.3536
 3311SOL     OW15947   2.501   1.205   0.468  0.0294 -0.8859 -0.4585
 3311SOL    HW115948   2.494   1.144   0.547 -0.9988 -1.7246 -1.1522
 3311SOL    HW215949   2.560   1.282   0.490 -2.3767  0.3934  2.0778
 3312SOL     OW15950   2.360   5.221   6.123 -0.4166  0.0062 -0.2312
 3312SOL    HW115951   2.370   5.122   6.131 -0.5608 -0.2902 -3.0314
 3312SOL    HW215952   2.349   5.247   6.027 -1.8165  2.6119  0.5158
 3313SOL     OW15953   1.732   5.406   0.778 -0.3135  1.0808 -0.4060
 3313SOL    HW115954   1.767   5.498   0.756  1.8506 -0.5122 -4.8354
 3313SOL    HW215955   1.808   5.350   0.812 -0.3536 -0.2893 -2.4372
 3314SOL     OW15956   2.480   3.745   5.975  0.1452  0.1497 -0.0353
 3314SOL    HW115957   2.439   3.701   6.055 -0.1503 -0.0428 -0.2894
 3314SOL    HW215958   2.533   3.824   6.005  1.1898 -0.7233  0.4890
 3315SOL     OW15959   2.399   1.902   5.568 -0.6562  0.0483 -0.1676
 3315SOL    HW115960   2.432   1.912   5.474 -0.2446  1.3533  0.0905
 3315SOL    HW215961   2.474   1.871   5.626 -1.2162 -1.9535 -0.4596
 3316SOL     OW15962   1.661   3.597   4.962  0.3937 -0.4366 -0.6406
 3316SOL    HW115963   1.693   3.615   4.869 -1.2332 -0.6807 -1.2830
 3316SOL    HW215964   1.654   3.683   5.012  1.9379 -0.3707 -0.4865
 3317SOL     OW15965   3.166   0.790   5.252 -0.2795 -0.4176 -0.9815
 3317SOL    HW115966   3.264   0.781   5.234 -0.8573 -2.6129 -3.6630
 3317SOL    HW215967   3.129   0.863   5.194 -0.0622  1.5733  1.2348
 3318SOL     OW15968   4.809   4.917   1.051 -0.4344 -0.0265  0.2697
 3318SOL    HW115969   4.757   4.862   1.116 -1.8143  1.0952  0.1652
 3318SOL    HW215970   4.891   4.952   1.096 -1.3335  0.6770  1.4174
 3319SOL     OW15971   0.109   3.446   6.228 -0.4592 -0.3148  0.2057
 3319SOL    HW115972   0.190   3.388   6.239 -0.1784 -0.1275 -0.8258
 3319SOL    HW215973   0.030   3.389   6.207 -0.7672 -0.5685  1.8974
 3320SOL     OW15974   3.811   1.870   6.370 -0.0447  0.4272  0.3781
 3320SOL    HW115975   3.908   1.856   6.386 -0.1827 -0.4651  0.5132
 3320SOL    HW215976   3.781   1.954   6.415  0.3457 -0.1004  1.6539
 3321SOL     OW15977   4.338   1.178   6.302 -0.4210  0.5736 -0.2226
 3321SOL    HW115978   4.273   1.163   6.227 -1.8084  1.3138  0.7927
 3321SOL    HW215979   4.318   1.265   6.346 -0.0522 -0.1438  1.4135
 3322SOL     OW15980   0.657   2.577   1.067 -0.2017 -0.0240  0.1635
 3322SOL    HW115981   0.594   2.606   1.140 -0.0694  0.5484  0.0526
 3322SOL    HW215982   0.607   2.522   1.000 -0.5999  0.4476  0.0641
 3323SOL     OW15983   4.137   2.340   5.729  0.7506 -0.4390 -0.3573
 3323SOL    HW115984   4.221   2.376   5.769 -0.4211  1.1670  0.8201
 3323SOL    HW215985   4.069   2.328   5.801 -1.2577  2.0305 -1.6606
 3324SOL     OW15986   2.121   5.387   4.543 -1.0966  0.0477  1.0573
 3324SOL    HW115987   2.049   5.387   4.473 -1.7558  2.3565  1.6496
 3324SOL    HW215988   2.156   5.480   4.554  2.1365 -1.0272  0.7176
 3325SOL     OW15989   0.914   1.396   0.511 -0.4772 -0.6370  0.2763
 3325SOL    HW115990   0.844   1.460   0.544 -1.3499 -0.5681 -1.5758
 3325SOL    HW215991   0.948   1.341   0.588 -0.4396  1.3124  1.7412
 3326SOL     OW15992   0.307   0.736   6.241 -0.1554  0.4183  0.1373
 3326SOL    HW115993   0.259   0.802   6.299 -1.5429 -0.0480 -0.4474
 3326SOL    HW215994   0.281   0.750   6.146  0.9217  0.1727 -0.2026
 3327SOL     OW15995   4.429   3.564   6.443 -0.0083 -0.3421  0.2343
 3327SOL    HW115996   4.392   3.647   6.486  0.0026 -0.3579  0.2745
 3327SOL    HW215997   4.520   3.545   6.481  1.0887  1.0345 -1.5584
 3328SOL     OW15998   4.216   5.264   5.572  0.5260 -0.1245  0.2873
 3328SOL    HW115999   4.215   5.165   5.564  1.4097 -0.2773  1.6761
 3328SOL    HW216000   4.311   5.297   5.570  0.4026  0.4491  2.1206
 3329SOL     OW16001   4.447   5.112   0.173  0.0395 -0.2839  0.0884
 3329SOL    HW116002   4.392   5.063   0.105 -2.6148  1.1627  1.0493
 3329SOL    HW216003   4.392   5.127   0.255  1.0886  3.1850  0.2974
 3330SOL     OW16004   1.246   3.326   5.460 -0.4157  0.0508  0.5502
 3330SOL    HW116005   1.236   3.286   5.369 -3.1955  2.2639 -0.2633
 3330SOL    HW216006   1.199   3.414   5.463  0.1378  0.3687  3.9941
 3331SOL     OW16007   1.870   4.315   0.393  0.1815  0.2262 -0.0885
 3331SOL    HW116008   1.774   4.289   0.383 -0.0130  0.7804  0.2375
 3331SOL    HW216009   1.886   4.348   0.486  0.8174 -0.3599  0.0168
 3332SOL     OW16010   1.092   2.746   5.507 -0.0399 -0.3164 -0.2196
 3332SOL    HW116011   1.030   2.733   5.429 -1.8870 -0.0930  1.1338
 3332SOL    HW216012   1.174   2.794   5.477 -1.0794  0.5399 -1.8528
 3333SOL     OW16013   0.009   3.046   1.059  0.2817 -0.1051  0.0672
 3333SOL    HW116014   0.043   2.980   1.126 -0.5596 -1.4514 -0.7783
 3333SOL    HW216015  -0.050   3.113   1.104  1.1982  0.1462  0.9473
 3334SOL     OW16016   0.933   0.504   6.501 -0.4972  0.1841  0.7461
 3334SOL    HW116017   0.896   0.547   6.419 -0.5616 -2.1985 -0.5592
 3334SOL    HW216018   1.024   0.540   6.520  0.0848 -0.1790 -1.1856
 3335SOL     OW16019   4.804   6.366   0.325 -0.4285 -0.2581  0.9300
 3335SOL    HW116020   4.814   6.428   0.402 -0.9339 -0.8350  1.4762
 3335SOL    HW216021   4.707   6.343   0.313 -0.1550 -1.8461  1.4878
 3336SOL     OW16022   4.623   2.308   6.284 -0.2568 -0.0138  0.2351
 3336SOL    HW116023   4.568   2.284   6.363 -0.5181 -0.0377  0.0493
 3336SOL    HW216024   4.605   2.402   6.257 -2.1361 -0.7540 -1.3542
 3337SOL     OW16025   4.829   5.453   5.210 -0.4994  0.3576 -0.2220
 3337SOL    HW116026   4.831   5.355   5.226 -0.2592  0.4598  0.3951
 3337SOL    HW216027   4.816   5.471   5.112 -1.0808 -0.2812 -0.2646
 3338SOL     OW16028   4.340   1.780   5.872 -0.3063 -0.2219  0.0472
 3338SOL    HW116029   4.287   1.791   5.957  0.5458  0.8468  0.4514
 3338SOL    HW216030   4.295   1.711   5.815 -1.9535  0.4004  0.5228
 3339SOL     OW16031   0.701   4.046   0.194 -0.6117 -0.6392 -0.6286
 3339SOL    HW116032   0.721   4.024   0.289 -1.3816  0.5228 -0.1828
 3339SOL    HW216033   0.787   4.068   0.147  0.0136 -2.9616 -0.7232
 3340SOL     OW16034   3.429   0.945   4.611  0.1450 -0.7904 -0.3651
 3340SOL    HW116035   3.453   0.917   4.704  2.0728 -0.2062 -0.6420
 3340SOL    HW216036   3.422   0.864   4.552 -2.1635 -1.2600  0.4690
 3341SOL     OW16037   4.304   0.678   6.501 -0.4021 -0.1626  0.0863
 3341SOL    HW116038   4.391   0.645   6.465  0.6008 -0.4997  2.6445
 3341SOL    HW216039   4.309   0.777   6.515 -1.2789  0.2045 -1.8540
 3342SOL     OW16040   2.894   0.758   6.315  0.3348 -0.7586 -0.1845
 3342SOL    HW116041   2.871   0.828   6.382  0.8949 -0.8538  0.1148
 3342SOL    HW216042   2.906   0.670   6.361  0.5483 -0.8627 -0.4314
 3343SOL     OW16043   2.570   0.674   5.628 -0.4063  0.0333 -0.4113
 3343SOL    HW116044   2.667   0.694   5.625 -0.0751 -1.5052 -1.1214
 3343SOL    HW216045   2.549   0.619   5.709 -1.1603  2.4111  1.1013
 3344SOL     OW16046   3.598   4.388   5.406  0.0417  0.1567 -0.3176
 3344SOL    HW116047   3.515   4.425   5.446  0.3739  0.0832  0.4683
 3344SOL    HW216048   3.575   4.332   5.327 -0.6627  0.0946 -0.0754
 3345SOL     OW16049   4.375   4.345   5.272 -0.1390 -0.0827  0.3103
 3345SOL    HW116050   4.431   4.326   5.192  1.2292 -0.1250  1.2568
 3345SOL    HW216051   4.327   4.261   5.300  2.4373 -1.1624  1.8279
 3346SOL     OW16052   4.139   0.259   0.535 -0.1351 -0.0260  0.0640
 3346SOL    HW116053   4.140   0.346   0.584  1.4267  0.0719 -0.1115
 3346SOL    HW216054   4.232   0.223   0.527 -0.3970 -0.3062 -2.3571
 3347SOL     OW16055   5.630   5.191   0.026  0.1471  0.0879 -0.5091
 3347SOL    HW116056   5.714   5.240   0.049 -0.5165  1.1434 -0.2094
 3347SOL    HW216057   5.652   5.101  -0.011  1.4073  0.4335 -0.6485
 3348SOL     OW16058   5.890   2.234   6.104  0.2756 -0.7827 -0.2659
 3348SOL    HW116059   5.796   2.201   6.092  0.7849 -3.1015  1.4435
 3348SOL    HW216060   5.899   2.279   6.193  0.4953  0.7210 -1.0189
 3349SOL     OW16061   3.860   3.995   4.951  0.2750 -0.1789 -0.5881
 3349SOL    HW116062   3.829   3.963   4.861  0.1137  1.5679 -1.1857
 3349SOL    HW216063   3.911   4.080   4.940  0.5091 -0.0916  0.9693
 3350SOL     OW16064   3.298   1.087   4.433  0.1627  0.0264  0.5775
 3350SOL    HW116065   3.304   1.020   4.359 -0.1477  1.4837 -0.8163
 3350SOL    HW216066   3.333   1.046   4.517  0.6735 -1.6340 -0.3875
 3351SOL     OW16067   3.300   1.723   6.268  0.2177 -0.3663  0.2143
 3351SOL    HW116068   3.361   1.656   6.310 -1.2820 -1.6123  0.4846
 3351SOL    HW216069   3.233   1.676   6.210  1.2816  1.1739 -2.4886
 3352SOL     OW16070   1.711   1.356   5.649  0.0789 -0.0626 -0.4203
 3352SOL    HW116071   1.702   1.455   5.657 -3.0043 -0.2060 -0.7019
 3352SOL    HW216072   1.680   1.313   5.734  0.2707 -0.7971 -0.7129
 3353SOL     OW16073   2.077   4.487   6.447  0.5209 -0.0426  0.1967
 3353SOL    HW116074   2.070   4.542   6.364 -0.0325 -2.3097 -1.3293
 3353SOL    HW216075   2.001   4.510   6.509 -1.7293 -1.3521 -1.8911
 3354SOL     OW16076   4.558   4.677   6.210  0.0688  0.2940 -0.0131
 3354SOL    HW116077   4.576   4.775   6.196  4.1393 -0.4277 -1.1260
 3354SOL    HW216078   4.643   4.626   6.196 -1.7817 -3.3948  1.1741
 3355SOL     OW16079   2.773   6.307   1.313 -0.0374 -0.2935 -0.0611
 3355SOL    HW116080   2.825   6.225   1.290 -1.5031 -1.6548  1.2408
 3355SOL    HW216081   2.819   6.356   1.387  2.3659  1.7199 -2.7097
 3356SOL     OW16082   1.958   0.426   0.257  0.2348  0.2665  0.2921
 3356SOL    HW116083   2.041   0.386   0.216  0.8122  0.6623  1.0481
 3356SOL    HW216084   1.941   0.383   0.346  0.4066  1.1308  0.7494
 3357SOL     OW16085   2.794   0.232   1.241  0.2352 -0.6551  0.2891
 3357SOL    HW116086   2.824   0.208   1.333 -1.3246 -1.0861  0.7031
 3357SOL    HW216087   2.859   0.195   1.175  1.1351 -0.7244  1.1805
 3358SOL     OW16088   0.476   3.588   6.411 -0.3352  0.5269 -0.5982
 3358SOL    HW116089   0.567   3.610   6.446 -0.1298 -0.9777 -0.0947
 3358SOL    HW216090   0.409   3.652   6.448  0.2398  0.4359  0.6520
 3359SOL     OW16091   1.555   5.409   0.125  0.3582 -0.7332 -0.0212
 3359SOL    HW116092   1.541   5.497   0.169 -0.8346 -0.2381 -1.3177
 3359SOL    HW216093   1.496   5.341   0.167  1.0931 -0.8787  0.8087
 3360SOL     OW16094   2.534   1.129   4.295 -0.7128  0.2807  0.2886
 3360SOL    HW116095   2.442   1.152   4.265 -0.4639  2.0225  0.7644
 3360SOL    HW216096   2.586   1.213   4.311  0.8545 -0.6602  0.3666
 3361SOL     OW16097   0.245   1.992   0.298 -0.2423  0.3848  0.0151
 3361SOL    HW116098   0.295   1.935   0.233 -0.6236 -0.4425  0.4455
 3361SOL    HW216099   0.151   1.961   0.306 -0.6380  1.4756 -0.2221
 3362SOL     OW16100   2.373   2.410   1.363  0.1939 -0.5602  0.0093
 3362SOL    HW116101   2.427   2.355   1.426  0.9223  0.0555 -0.0670
 3362SOL    HW216102   2.276   2.396   1.381  0.3822  0.2672  1.8584
 3363SOL     OW16103   2.691   1.822   5.113 -0.3829 -0.1718 -0.0260
 3363SOL    HW116104   2.759   1.892   5.134 -0.5777 -0.0247  0.1249
 3363SOL    HW216105   2.734   1.732   5.111 -0.4344 -0.2577  1.4961
 3364SOL     OW16106   4.332   0.102   1.699 -0.1203  0.1262  0.1669
 3364SOL    HW116107   4.268   0.025   1.706 -0.9260  0.7418 -0.1464
 3364SOL    HW216108   4.280   0.187   1.687  0.8024  0.4977 -1.4100
 3365SOL     OW16109   5.824   4.199   0.637  0.2384  1.1037  0.2882
 3365SOL    HW116110   5.897   4.134   0.656 -0.4799  0.3492  0.5597
 3365SOL    HW216111   5.861   4.292   0.631  0.9984  0.9378  1.9809
 3366SOL     OW16112   1.848   5.385   6.159 -0.2741  0.3041  0.0010
 3366SOL    HW116113   1.924   5.342   6.207  0.5141  1.4018 -0.2152
 3366SOL    HW216114   1.766   5.330   6.170  0.2007 -0.1563  1.4870
 3367SOL     OW16115   4.021   0.797   5.019  0.0771 -0.1288 -0.6737
 3367SOL    HW116116   3.930   0.838   5.027 -0.4330 -1.5908  2.5210
 3367SOL    HW216117   4.038   0.773   4.923 -2.1503  1.6894 -1.6260
 3368SOL     OW16118   3.091   1.743   0.186 -0.0026 -0.2650 -0.0252
 3368SOL    HW116119   2.999   1.721   0.219  0.1179 -0.1330  0.4047
 3368SOL    HW216120   3.089   1.828   0.132 -0.0247  0.0869  0.5272
 3369SOL     OW16121   2.312   1.379   0.334 -0.0849 -0.4200 -0.6366
 3369SOL    HW116122   2.276   1.318   0.264  0.4342 -0.7711 -0.6000
 3369SOL    HW216123   2.363   1.326   0.402 -0.7758 -0.1231  0.1420
 3370SOL     OW16124   0.558   5.462   5.626  0.0706 -0.2974  0.0053
 3370SOL    HW116125   0.561   5.556   5.594 -2.5085 -0.8842 -2.3193
 3370SOL    HW216126   0.568   5.400   5.548 -2.6572 -1.8734  0.7851
 3371SOL     OW16127   0.804   6.319   0.615  0.3563 -0.2048  0.2453
 3371SOL    HW116128   0.869   6.252   0.650 -0.4068 -1.2455 -0.2920
 3371SOL    HW216129   0.754   6.359   0.691  2.3600  1.4667  0.7981
 3372SOL     OW16130   3.442   6.233   5.967 -0.3284 -0.9116 -0.2325
 3372SOL    HW116131   3.451   6.241   5.868  2.2781  3.6944  0.1046
 3372SOL    HW216132   3.350   6.259   5.995 -1.3393 -3.0396 -1.3723
 3373SOL     OW16133   5.464   1.549   5.748  0.4866  0.1401  0.1911
 3373SOL    HW116134   5.409   1.484   5.800  0.5460 -0.9518 -1.0573
 3373SOL    HW216135   5.404   1.603   5.689  0.3037  2.0615  2.0165
 3374SOL     OW16136   2.154   4.688   1.508 -0.2047 -0.8499 -0.1720
 3374SOL    HW116137   2.191   4.601   1.540 -0.5819 -1.3225 -0.9783
 3374SOL    HW216138   2.121   4.677   1.414  1.5550  0.6483 -1.0421
 3375SOL     OW16139   1.193   4.075   5.188  0.1861 -0.2234 -0.1314
 3375SOL    HW116140   1.260   4.016   5.143  0.0773  0.1496 -0.7907
 3375SOL    HW216141   1.140   4.125   5.119 -0.0996  0.2280  0.4041
 3376SOL     OW16142   3.300   1.381   1.126 -0.1038  0.6883  0.2413
 3376SOL    HW116143   3.383   1.329   1.145  0.4331  1.0701 -0.9624
 3376SOL    HW216144   3.232   1.321   1.082 -0.1188  0.6033  0.3797
 3377SOL     OW16145   4.149   4.992   5.635 -0.4486  0.6219 -0.4031
 3377SOL    HW116146   4.086   4.945   5.573 -1.4796  0.6780  0.5750
 3377SOL    HW216147   4.174   4.932   5.710  0.8368  0.5407 -0.8572
 3378SOL     OW16148   2.538   1.029   5.983  0.1034  0.1318 -0.4967
 3378SOL    HW116149   2.555   0.940   6.026 -0.6751  0.1291 -0.1895
 3378SOL    HW216150   2.537   1.018   5.884  2.6163  0.2534 -0.6043
 3379SOL     OW16151   1.040   6.324   5.929 -0.2868  0.7331 -0.0895
 3379SOL    HW116152   1.045   6.364   6.020 -1.0235 -0.0881  0.3268
 3379SOL    HW216153   1.122   6.350   5.877 -0.1330  1.6872  0.5909
 3380SOL     OW16154   3.293   5.378   6.400  0.4615 -0.2065 -0.0939
 3380SOL    HW116155   3.323   5.292   6.441 -0.2723  0.1364  1.2345
 3380SOL    HW216156   3.361   5.449   6.420 -0.5805  0.3016  1.9021
 3381SOL     OW16157   3.807   2.473   6.375 -0.1032  0.1896  0.3852
 3381SOL    HW116158   3.822   2.473   6.474 -1.4206  0.8573  0.6047
 3381SOL    HW216159   3.814   2.567   6.340  3.6018 -0.3274 -0.7428
 3382SOL     OW16160   4.049   4.041   0.772 -0.0675  0.2364  0.5008
 3382SOL    HW116161   3.994   3.958   0.772  0.6681 -0.3442 -1.9700
 3382SOL    HW216162   3.989   4.121   0.768 -0.7982 -0.3533 -1.2627
 3383SOL     OW16163   1.856   0.388   6.506  0.0960 -0.3019 -0.0398
 3383SOL    HW116164   1.909   0.405   6.588 -1.1803  0.7686  0.5988
 3383SOL    HW216165   1.911   0.408   6.425  0.8433  0.2239  0.5896
 3384SOL     OW16166   5.925   3.423   5.810 -0.0879 -0.2723  0.2603
 3384SOL    HW116167   5.877   3.351   5.760  0.8448  0.8156 -2.3464
 3384SOL    HW216168   5.895   3.512   5.778  0.0281  0.5329  2.2255
 3385SOL     OW16169   1.893   3.718   0.314  0.0385  0.1999  0.9724
 3385SOL    HW116170   1.867   3.773   0.235 -0.3257  1.9172  2.2289
 3385SOL    HW216171   1.992   3.703   0.313  0.2036  1.2486  0.8201
 3386SOL     OW16172   3.767   5.083   0.658  0.3000  0.5469  0.3290
 3386SOL    HW116173   3.669   5.070   0.672  0.0661  1.2021 -0.5842
 3386SOL    HW216174   3.795   5.038   0.573  0.7498  0.5240  0.4890
 3387SOL     OW16175   0.279   4.220   0.790  0.4700  0.6746  0.2461
 3387SOL    HW116176   0.302   4.240   0.695 -0.8131 -0.7897 -0.4217
 3387SOL    HW216177   0.187   4.255   0.810  0.8230  1.1753  1.0231
 3388SOL     OW16178   5.680   4.249   1.165  0.1216 -0.5198  0.0525
 3388SOL    HW116179   5.607   4.316   1.178  0.3586  0.2990 -2.3290
 3388SOL    HW216180   5.723   4.229   1.253 -0.9724  1.2923  1.0557
 3389SOL     OW16181   5.295   6.301   5.550 -0.0101  0.1310  0.0096
 3389SOL    HW116182   5.338   6.374   5.497  1.1439 -0.6298 -0.1418
 3389SOL    HW216183   5.310   6.317   5.647  2.0194 -0.8890 -0.0706
 3390SOL     OW16184   4.918   4.935   1.403 -0.1400  0.2428  0.3218
 3390SOL    HW116185   5.007   4.915   1.444 -0.0434 -0.7757 -0.3604
 3390SOL    HW216186   4.863   4.988   1.468  2.2351  4.1941 -0.5534
 3391SOL     OW16187   1.145   3.327   0.220  0.4006 -0.6932  0.3524
 3391SOL    HW116188   1.205   3.249   0.201  2.6492  0.3399  2.5577
 3391SOL    HW216189   1.179   3.408   0.173 -0.5015 -0.5244 -0.0217
 3392SOL     OW16190   1.494   1.440   5.885 -0.5928 -0.4692  0.1606
 3392SOL    HW116191   1.528   1.348   5.865  1.2467 -0.4069  2.5478
 3392SOL    HW216192   1.563   1.508   5.859 -0.4244 -0.0407  1.6704
 3393SOL     OW16193   0.634   2.572   0.605 -0.0810 -0.1156  0.3116
 3393SOL    HW116194   0.603   2.477   0.602 -0.5878 -0.0239  1.9555
 3393SOL    HW216195   0.734   2.575   0.595 -0.0100 -0.8543  0.7483
 3394SOL     OW16196   4.478   2.713   5.621  0.2326 -0.6457 -0.3220
 3394SOL    HW116197   4.462   2.811   5.610 -0.7898 -0.7069  0.5549
 3394SOL    HW216198   4.558   2.687   5.567  0.2442  0.5787 -0.9308
 3395SOL     OW16199   4.149   1.590   5.725 -0.4278 -0.1826  0.0978
 3395SOL    HW116200   4.096   1.536   5.791 -0.3663 -1.5473 -0.9077
 3395SOL    HW216201   4.230   1.538   5.699 -0.6944  0.1117 -1.3872
 3396SOL     OW16202   4.469   3.532   5.080  0.2951  0.1517 -0.2440
 3396SOL    HW116203   4.499   3.599   5.012 -2.4769  1.5181 -0.2522
 3396SOL    HW216204   4.420   3.458   5.034  0.0186  0.1093  0.1210
 3397SOL     OW16205   3.594   1.830   4.590  0.7737  0.6999 -0.0161
 3397SOL    HW116206   3.671   1.783   4.632  0.1877  0.5311  0.9081
 3397SOL    HW216207   3.572   1.787   4.503  2.2787  1.3215 -0.7412
 3398SOL     OW16208   2.804   2.281   5.834 -0.1633  0.0228  0.3988
 3398SOL    HW116209   2.774   2.229   5.914  0.5505 -0.0302  0.6323
 3398SOL    HW216210   2.733   2.347   5.810 -1.5472 -1.7228 -0.5353
 3399SOL     OW16211   3.668   1.288   6.140 -0.3668  1.0062 -0.3278
 3399SOL    HW116212   3.591   1.270   6.078 -1.3106 -0.6459  1.2421
 3399SOL    HW216213   3.750   1.245   6.103 -1.2302 -1.2362  0.2133
 3400SOL     OW16214   5.208   0.393   5.552  0.0151 -0.2540 -0.1957
 3400SOL    HW116215   5.159   0.360   5.472 -0.3108 -0.1966 -0.0195
 3400SOL    HW216216   5.304   0.364   5.547 -0.4738 -2.1189  0.4677
 3401SOL     OW16217   2.507   4.134   1.536  0.0053  0.1595 -0.2985
 3401SOL    HW116218   2.537   4.228   1.547  0.3861  0.1994 -1.5146
 3401SOL    HW216219   2.412   4.133   1.506  0.0171  0.1539 -0.3354
 3402SOL     OW16220   0.466   5.870   5.784  0.8763 -0.5812  0.2746
 3402SOL    HW116221   0.376   5.872   5.742  0.6797  1.3681  0.6573
 3402SOL    HW216222   0.471   5.796   5.851 -0.6510 -0.3619  0.6672
 3403SOL     OW16223   4.682   0.947   1.100 -0.6169  0.4471 -0.1952
 3403SOL    HW116224   4.772   0.975   1.066 -0.4017 -1.2816 -1.1868
 3403SOL    HW216225   4.633   1.027   1.135  0.9550  1.5621 -0.4317
 3404SOL     OW16226   4.115   2.281   0.048 -0.6153  0.4293  0.4157
 3404SOL    HW116227   4.178   2.275   0.126 -0.3975  0.2492  0.2273
 3404SOL    HW216228   4.057   2.361   0.059  1.1647  1.9407 -0.5081
 3405SOL     OW16229   6.117   0.054   0.015  0.1303 -0.3621 -0.1434
 3405SOL    HW116230   6.212   0.079   0.035  0.3217 -0.4971 -0.8237
 3405SOL    HW216231   6.109   0.033  -0.083 -0.3399 -1.5244  0.1340
 3406SOL     OW16232   3.054   2.254   5.739 -0.2372 -0.3886 -0.0350
 3406SOL    HW116233   2.958   2.263   5.766 -0.4339 -1.7480 -0.1957
 3406SOL    HW216234   3.092   2.170   5.778  0.8262  0.0172 -0.1597
 3407SOL     OW16235   1.499   1.938   5.578 -0.5401 -0.5719 -0.0815
 3407SOL    HW116236   1.587   1.935   5.530 -0.5491  0.6452 -0.2019
 3407SOL    HW216237   1.426   1.955   5.513 -0.7489 -0.5469  0.1573
 3408SOL     OW16238   4.753   3.585   5.847 -0.3966  0.2793 -0.4536
 3408SOL    HW116239   4.739   3.682   5.866 -1.7793  0.0579 -0.2599
 3408SOL    HW216240   4.669   3.546   5.809  1.2094 -0.0273 -4.1235
 3409SOL     OW16241   0.596   1.073   5.792 -0.1054  0.1575 -0.4863
 3409SOL    HW116242   0.553   1.027   5.870  1.7294 -1.3745 -0.3244
 3409SOL    HW216243   0.684   1.111   5.819  1.2959 -1.7312 -2.1221
 3410SOL     OW16244   4.674   1.772   0.274 -0.0684  0.3336 -0.6454
 3410SOL    HW116245   4.710   1.864   0.286 -1.1715  0.8357 -1.1097
 3410SOL    HW216246   4.664   1.752   0.177  1.2391 -0.7239 -0.5963
 3411SOL     OW16247   1.504   0.727   0.666  0.4960  0.9061  0.4771
 3411SOL    HW116248   1.449   0.755   0.745 -0.5639  1.1516 -0.3276
 3411SOL    HW216249   1.515   0.804   0.604  3.0363  1.3015  1.2965
 3412SOL     OW16250   1.610   3.337   4.980  0.0657  0.0626  0.2872
 3412SOL    HW116251   1.615   3.437   4.976  0.7070  0.0301  0.2077
 3412SOL    HW216252   1.689   3.302   5.029  1.0215 -0.5254 -1.5930
 3413SOL     OW16253   4.449   4.760   0.282 -0.3516 -0.3422 -0.9007
 3413SOL    HW116254   4.531   4.794   0.236 -1.0876  2.8756 -0.0655
 3413SOL    HW216255   4.370   4.771   0.222 -0.7375  0.3093 -0.2898
 3414SOL     OW16256   1.286   3.193   5.700  0.4046 -0.5562 -0.3548
 3414SOL    HW116257   1.194   3.222   5.726  0.6720 -0.3523  0.3786
 3414SOL    HW216258   1.313   3.240   5.616  0.0605 -0.1907 -0.2623
 3415SOL     OW16259   2.567   0.751   6.040  0.0926  0.0406  0.4337
 3415SOL    HW116260   2.528   0.713   6.123 -0.4315  0.1440  0.2339
 3415SOL    HW216261   2.663   0.723   6.033 -0.3607 -1.5389  0.1269
 3416SOL     OW16262   2.342   0.637   4.916  0.0734  0.2450  0.1007
 3416SOL    HW116263   2.375   0.575   4.844 -1.8500 -1.2357  0.4117
 3416SOL    HW216264   2.352   0.732   4.885  1.6746 -0.2471 -1.0238
 3417SOL     OW16265   2.489   3.094   5.654 -0.6780  0.1563  0.4296
 3417SOL    HW116266   2.494   3.084   5.554  1.4387 -2.5004  0.6873
 3417SOL    HW216267   2.527   3.183   5.679  1.0658 -0.0899 -1.0563
 3418SOL     OW16268   0.884   4.746   1.283  0.6833  0.4274  0.1490
 3418SOL    HW116269   0.892   4.819   1.350  1.5095  1.6315 -1.2012
 3418SOL    HW216270   0.914   4.659   1.324  1.4587  1.1780  1.2173
 3419SOL     OW16271   5.790   3.983   5.747  1.1090  0.2098 -0.0368
 3419SOL    HW116272   5.789   4.082   5.733 -2.2991  0.2129 -0.8030
 3419SOL    HW216273   5.826   3.938   5.665  1.3275  0.7796 -0.2576
 3420SOL     OW16274   5.540   0.740   5.863  0.6034 -0.2813 -0.6496
 3420SOL    HW116275   5.464   0.790   5.905  1.1040  2.2977 -2.5533
 3420SOL    HW216276   5.561   0.660   5.918 -2.6280 -0.4058  0.6478
 3421SOL     OW16277   1.065   1.292   5.741  0.0367  0.5525 -0.0851
 3421SOL    HW116278   0.973   1.323   5.717  0.1666 -0.1570 -1.6280
 3421SOL    HW216279   1.123   1.292   5.659  0.4219 -2.3016  0.0963
 3422SOL     OW16280   2.164   0.066   5.659 -0.4924  0.7862 -0.3772
 3422SOL    HW116281   2.227   0.106   5.593  1.8104 -1.3803  0.3433
 3422SOL    HW216282   2.154   0.127   5.737  4.1615 -0.3271  1.4354
 3423SOL     OW16283   1.742   5.075   1.677  0.3408 -0.8466 -0.2694
 3423SOL    HW116284   1.683   5.155   1.671 -0.3328 -1.2247  0.9786
 3423SOL    HW216285   1.813   5.090   1.746  0.4515 -1.1647 -0.3100
 3424SOL     OW16286   6.314   5.400   6.254  0.0753  0.3266 -0.7422
 3424SOL    HW116287   6.400   5.451   6.240  0.3413  1.1436  2.8141
 3424SOL    HW216288   6.247   5.459   6.299 -0.5353 -1.6534  1.1574
 3425SOL     OW16289   3.197   5.427   1.829  0.6595  0.3382 -0.0620
 3425SOL    HW116290   3.255   5.471   1.896  0.4246  1.0979 -0.3532
 3425SOL    HW216291   3.221   5.330   1.823  1.4798  0.5150  0.2506
 3426SOL     OW16292   5.206   0.471   0.562  0.1111  0.3840  0.4004
 3426SOL    HW116293   5.155   0.550   0.529 -2.8620 -0.9490  1.4289
 3426SOL    HW216294   5.179   0.390   0.510  0.8888 -0.4430  1.2524
 3427SOL     OW16295   4.744   1.730   1.054 -0.2779  0.2730 -0.8449
 3427SOL    HW116296   4.701   1.704   0.968 -0.2482 -1.1521 -0.4616
 3427SOL    HW216297   4.675   1.736   1.126  0.0953 -2.3669 -0.1482
 3428SOL     OW16298   4.631   4.491   0.642  0.1354  0.1013  0.2799
 3428SOL    HW116299   4.559   4.425   0.621  0.1165  0.9853 -3.0120
 3428SOL    HW216300   4.710   4.473   0.583  0.9871  1.6479  0.9064
 3429SOL     OW16301   2.884   0.157   1.701  0.2194 -0.5140  0.1153
 3429SOL    HW116302   2.830   0.233   1.665 -1.5690 -1.6597  0.2328
 3429SOL    HW216303   2.858   0.138   1.796  3.0345  0.7995  1.2538
 3430SOL     OW16304   5.221   5.402   1.645 -0.3741  0.2420  0.0347
 3430SOL    HW116305   5.163   5.416   1.726  0.9398  0.0209  1.0532
 3430SOL    HW216306   5.288   5.476   1.639 -0.8205  0.5605 -1.1933
 3431SOL     OW16307   3.790   0.745   0.596  0.5120  0.1896 -0.5356
 3431SOL    HW116308   3.806   0.649   0.573  1.7249  0.0079  0.9300
 3431SOL    HW216309   3.827   0.803   0.523 -1.2841 -0.4188 -2.0229
 3432SOL     OW16310   3.013   0.955   5.919 -0.0102  0.2117 -0.4844
 3432SOL    HW116311   2.958   0.890   5.972 -0.4813  0.0744 -1.1365
 3432SOL    HW216312   3.104   0.917   5.903 -0.1824 -0.1541 -0.5942
 3433SOL     OW16313   1.123   3.237   6.414 -0.1817  0.7820 -0.3443
 3433SOL    HW116314   1.092   3.269   6.324 -2.0157  0.0630 -0.0074
 3433SOL    HW216315   1.069   3.281   6.486 -0.0762 -0.1313  0.3104
 3434SOL     OW16316   2.060   2.424   0.343  0.9091  0.5141 -0.0612
 3434SOL    HW116317   2.148   2.378   0.341  0.5807 -0.3238  2.0662
 3434SOL    HW216318   1.999   2.383   0.276  2.4301  1.8902 -2.4208
 3435SOL     OW16319   1.948   2.565   6.328  0.2209  0.0313 -0.6140
 3435SOL    HW116320   1.948   2.468   6.302 -0.5678 -0.4613  1.0845
 3435SOL    HW216321   2.016   2.580   6.400 -0.6275  0.4265  0.1231
 3436SOL     OW16322   4.386   4.363   0.578  0.2134 -0.3136  0.1867
 3436SOL    HW116323   4.334   4.448   0.565  1.3694  0.1305 -2.0559
 3436SOL    HW216324   4.323   4.287   0.588 -0.9817  0.2116 -2.4055
 3437SOL     OW16325   1.186   0.968   1.510 -0.8738  0.0039 -0.3757
 3437SOL    HW116326   1.214   0.942   1.418  1.5158 -0.9576  0.5440
 3437SOL    HW216327   1.111   0.908   1.540 -0.2165 -1.1322 -0.9236
 3438SOL     OW16328   1.566   2.156   0.214 -0.2121 -0.1772 -0.4114
 3438SOL    HW116329   1.658   2.123   0.196  0.1431  0.1013  0.8667
 3438SOL    HW216330   1.535   2.124   0.303 -0.6083  1.3144  0.0169
 3439SOL     OW16331   3.219   0.348   1.206  0.0016  0.6374  0.2464
 3439SOL    HW116332   3.257   0.259   1.234 -1.4186 -0.7986 -2.1109
 3439SOL    HW216333   3.150   0.377   1.272 -0.0124 -0.3441  0.6784
 3440SOL     OW16334   2.244   6.334   1.027 -0.5236  0.1589  0.0839
 3440SOL    HW116335   2.253   6.269   0.951 -2.5542  0.0695 -0.1308
 3440SOL    HW216336   2.255   6.285   1.114  1.3152  0.1740 -0.1043
 3441SOL     OW16337   5.608   1.808   4.931  0.3734  0.6210 -0.1406
 3441SOL    HW116338   5.572   1.753   4.856  0.5792  1.6961 -1.0699
 3441SOL    HW216339   5.657   1.887   4.893  1.4464  0.5955  1.1212
 3442SOL     OW16340   3.667   0.293   0.465  0.1323  0.0966 -0.1840
 3442SOL    HW116341   3.686   0.198   0.440 -1.7859 -1.0190  2.1497
 3442SOL    HW216342   3.588   0.326   0.413  1.3280  0.7870 -1.6366
 3443SOL     OW16343   5.948   1.395   6.023  0.3360 -0.1238  0.1728
 3443SOL    HW116344   6.047   1.390   6.035  0.0762 -1.3296  2.3214
 3443SOL    HW216345   5.916   1.312   5.977  0.4018  0.8102 -1.6608
 3444SOL     OW16346   2.531   3.964   0.544  0.2994  0.0008  0.3053
 3444SOL    HW116347   2.545   3.938   0.449  1.0427 -0.1092  0.4420
 3444SOL    HW216348   2.552   4.061   0.556 -2.3423  0.7293 -0.1761
 3445SOL     OW16349   3.431   4.007   0.953 -0.0350  0.0060  0.4939
 3445SOL    HW116350   3.480   3.926   0.985  2.3770  0.5307 -1.5854
 3445SOL    HW216351   3.374   3.983   0.874  0.8508  0.3354 -0.2619
 3446SOL     OW16352   4.041   3.855   6.396  0.1029 -0.2503 -0.2393
 3446SOL    HW116353   3.981   3.791   6.348 -0.5038 -1.0042  1.4411
 3446SOL    HW216354   4.131   3.857   6.352 -0.4866 -0.7420 -1.4995
 3447SOL     OW16355   2.933   2.133   0.630  0.2617 -0.3334  0.4293
 3447SOL    HW116356   3.002   2.185   0.580  1.2570 -1.2902  0.7483
 3447SOL    HW216357   2.879   2.078   0.566 -1.6965  1.9895 -0.0690
 3448SOL     OW16358   2.815   0.588   5.360 -0.6647  0.0425 -0.0421
 3448SOL    HW116359   2.732   0.574   5.305 -0.8996  1.6853 -0.1421
 3448SOL    HW216360   2.789   0.624   5.449 -0.1232 -0.5404  0.3560
 3449SOL     OW16361   1.386   2.739   5.747  0.4334 -0.0786  0.2221
 3449SOL    HW116362   1.418   2.760   5.839 -1.5590 -0.1549  0.9762
 3449SOL    HW216363   1.399   2.642   5.728  1.4445  0.0577  0.1433
 3450SOL     OW16364   5.137   5.660   1.198 -0.1925 -0.4225  0.2474
 3450SOL    HW116365   5.203   5.589   1.225 -0.3872 -0.0375  1.8319
 3450SOL    HW216366   5.123   5.723   1.275 -0.4345  1.0264 -0.9500
 3451SOL     OW16367   0.403   6.208   6.480  0.3672  0.0250  0.0937
 3451SOL    HW116368   0.354   6.237   6.561  4.4892  1.5435  2.3348
 3451SOL    HW216369   0.409   6.108   6.479 -2.7213 -0.2483 -0.4364
 3452SOL     OW16370   0.831   4.106   6.350  0.2427  0.0623 -0.3075
 3452SOL    HW116371   0.887   4.148   6.421  0.0689 -0.3471  0.0792
 3452SOL    HW216372   0.880   4.028   6.311 -0.2528 -0.6334  0.4071
 3453SOL     OW16373   2.815   2.234   1.250  0.5863  0.4680 -0.3605
 3453SOL    HW116374   2.776   2.325   1.255 -0.4774 -0.0283  0.7130
 3453SOL    HW216375   2.764   2.171   1.309 -0.0374 -1.3182 -2.6153
 3454SOL     OW16376   3.257   4.425   0.766 -0.3145 -1.1252  0.2970
 3454SOL    HW116377   3.212   4.363   0.831 -1.6295 -0.4116  0.1115
 3454SOL    HW216378   3.187   4.476   0.715  0.7075 -0.8546 -0.8911
 3455SOL     OW16379   3.381   4.770   5.115  0.1255 -0.2843 -0.7024
 3455SOL    HW116380   3.388   4.802   5.021  0.0986 -0.6115 -0.8170
 3455SOL    HW216381   3.414   4.841   5.177  0.3601 -0.1583 -0.9702
 3456SOL     OW16382   1.235   3.245   4.941 -0.1137  0.2222  0.1760
 3456SOL    HW116383   1.312   3.250   4.878  0.3108 -0.2896  0.6464
 3456SOL    HW216384   1.208   3.149   4.953  2.2493 -0.2175  3.6522
 3457SOL     OW16385   2.314   6.263   0.109  0.3776  0.3699 -0.2962
 3457SOL    HW116386   2.326   6.164   0.120 -0.5770  0.2644 -0.1703
 3457SOL    HW216387   2.296   6.304   0.198 -1.6990  0.2999 -0.6467
 3458SOL     OW16388   1.651   2.685   4.791 -0.8970  0.5480  0.4837
 3458SOL    HW116389   1.644   2.609   4.726 -0.4295  0.1363  0.9029
 3458SOL    HW216390   1.735   2.735   4.774 -0.3598 -0.0549  1.2760
 3459SOL     OW16391   0.420   0.427   4.582 -0.3075  0.4061 -0.0314
 3459SOL    HW116392   0.520   0.425   4.592 -0.4914 -2.7005  3.0422
 3459SOL    HW216393   0.392   0.359   4.514 -0.3772 -0.8233  1.1822
 3460SOL     OW16394   0.253   0.699   5.973  0.3789  0.6489 -0.1261
 3460SOL    HW116395   0.273   0.601   5.983 -2.3447  0.0125 -0.2350
 3460SOL    HW216396   0.235   0.720   5.877  2.3856  1.6324 -0.3469
 3461SOL     OW16397   4.324   1.390   5.652 -0.1172 -0.3870 -0.0748
 3461SOL    HW116398   4.354   1.398   5.747 -2.4061 -0.1449  0.6830
 3461SOL    HW216399   4.354   1.301   5.615  2.5616  0.3358  0.1269
 3462SOL     OW16400   0.467   0.348   6.300 -0.1024  0.0094  0.1049
 3462SOL    HW116401   0.467   0.385   6.392 -0.9574  0.8880 -0.2402
 3462SOL    HW216402   0.432   0.254   6.301 -1.6771  0.5687  0.4812
 3463SOL     OW16403   0.018   3.971   0.065 -0.3030  0.2982 -0.2316
 3463SOL    HW116404  -0.026   3.893   0.019  3.2395 -1.6670 -0.7151
 3463SOL    HW216405   0.053   3.941   0.153 -0.9072  2.0949  0.6499
 3464SOL     OW16406   3.938   2.906   0.635  0.1611 -0.1167  0.6129
 3464SOL    HW116407   3.951   2.996   0.676 -1.2933  0.9602 -1.1163
 3464SOL    HW216408   3.903   2.917   0.541 -1.9630 -2.4649  1.0260
 3465SOL     OW16409   4.713   2.586   6.375  0.3954  0.0118  0.0061
 3465SOL    HW116410   4.698   2.550   6.467 -2.0378 -0.9384 -0.6830
 3465SOL    HW216411   4.811   2.583   6.353  0.6772 -3.3006  1.1667
 3466SOL     OW16412   3.668   3.850   0.748 -0.4065  0.0614 -0.4605
 3466SOL    HW116413   3.575   3.861   0.781 -0.8306 -0.4587 -1.4331
 3466SOL    HW216414   3.685   3.915   0.674 -0.0869 -0.0446 -0.4819
 3467SOL     OW16415   0.587   1.827   6.247  0.1213 -0.1653 -0.0489
 3467SOL    HW116416   0.601   1.913   6.296  0.8543  0.3260 -1.1014
 3467SOL    HW216417   0.600   1.841   6.149 -0.6489 -1.2877 -0.3299
 3468SOL     OW16418   2.896   1.419   0.583 -0.4154  0.0521 -0.1097
 3468SOL    HW116419   2.926   1.515   0.589 -1.9510  0.5678 -0.2864
 3468SOL    HW216420   2.975   1.361   0.564  0.3007  1.4630 -1.6932
 3469SOL     OW16421   2.108   4.801   5.898 -0.7114  0.5092  0.2992
 3469SOL    HW116422   2.175   4.816   5.825 -2.9826 -0.1319 -2.0586
 3469SOL    HW216423   2.121   4.711   5.938  0.5855  0.8821  0.7604
 3470SOL     OW16424   4.503   2.341   0.310 -0.8100  0.5501  0.0370
 3470SOL    HW116425   4.501   2.413   0.379 -2.0627  0.3554  0.2171
 3470SOL    HW216426   4.586   2.286   0.322 -0.6700  0.9384  0.9462
 3471SOL     OW16427   1.855   6.313   0.072 -0.0321  0.1459  0.1939
 3471SOL    HW116428   1.896   6.222   0.073  1.7327  0.8107 -1.7292
 3471SOL    HW216429   1.875   6.360   0.158  1.2826 -0.4067  0.2205
 3472SOL     OW16430   0.922   4.969   1.395  0.1031  0.1690 -0.3177
 3472SOL    HW116431   1.000   5.006   1.446 -0.7195  0.0326  1.1163
 3472SOL    HW216432   0.855   5.041   1.380 -0.5237 -0.2105  0.5490
 3473SOL     OW16433   4.017   1.394   5.880 -0.3596 -0.0131  0.2109
 3473SOL    HW116434   4.025   1.342   5.796 -2.3432  0.6348 -0.4347
 3473SOL    HW216435   3.948   1.353   5.939 -2.3962  2.0588 -0.5597
 3474SOL     OW16436   5.564   0.273   5.049 -0.3613  0.0399  0.1824
 3474SOL    HW116437   5.655   0.287   5.008  0.7538 -1.3276  2.0556
 3474SOL    HW216438   5.522   0.192   5.008  0.3942 -0.8325  1.0718
 3475SOL     OW16439   4.374   2.430   5.919  0.0038 -0.3846 -0.6806
 3475SOL    HW116440   4.423   2.510   5.954  1.1774 -0.2573 -2.4715
 3475SOL    HW216441   4.372   2.434   5.819 -1.7895 -1.5376 -0.7297
 3476SOL     OW16442   4.009   1.602   6.098  0.7029 -0.0964  0.1458
 3476SOL    HW116443   3.958   1.678   6.057  3.2807  1.1124 -1.0336
 3476SOL    HW216444   4.014   1.527   6.033  0.5825 -0.1573  0.2054
 3477SOL     OW16445   0.224   0.116   6.406 -0.2004 -0.0725 -0.4567
 3477SOL    HW116446   0.313   0.127   6.451 -0.9428  2.9367  0.4789
 3477SOL    HW216447   0.152   0.109   6.475 -0.8616 -1.0515 -1.2103
 3478SOL     OW16448   4.754   0.250   0.548  0.0264  0.3078 -0.2612
 3478SOL    HW116449   4.837   0.293   0.583  1.1564 -1.9870  0.0502
 3478SOL    HW216450   4.705   0.206   0.624  0.0967 -0.8317 -0.8580
 3479SOL     OW16451   4.486   6.373   1.221 -0.0916  0.5444 -0.0857
 3479SOL    HW116452   4.528   6.305   1.281  0.8530  0.8493 -0.3712
 3479SOL    HW216453   4.452   6.449   1.276 -0.3105  0.2766  0.1557
 3480SOL     OW16454   1.490   2.502   0.450 -0.4739  0.7214 -0.4358
 3480SOL    HW116455   1.586   2.475   0.445 -0.5423  0.6363 -1.7027
 3480SOL    HW216456   1.476   2.584   0.394 -1.0777  0.9278  0.0098
 3481SOL     OW16457   0.135   4.071   0.523  0.4472  0.4669  0.5509
 3481SOL    HW116458   0.219   4.117   0.552  0.9435 -0.2099  0.2349
 3481SOL    HW216459   0.148   4.034   0.431  0.1695 -0.5504  0.9038
 3482SOL     OW16460   0.353   2.783   4.952 -0.3751 -0.3501  0.0964
 3482SOL    HW116461   0.431   2.824   4.904  0.6440 -0.6847  1.4151
 3482SOL    HW216462   0.271   2.838   4.935  0.5694  1.2019  0.3160
 3483SOL     OW16463   5.941   0.159   5.536 -0.3564  0.2783  0.2176
 3483SOL    HW116464   5.972   0.194   5.625 -2.0502  0.6922  0.6780
 3483SOL    HW216465   6.006   0.186   5.465  1.1327 -0.2278  1.3456
 3484SOL     OW16466   4.648   6.085   4.840  0.1771 -0.3645  0.1692
 3484SOL    HW116467   4.683   6.126   4.924  0.8690 -0.4214 -0.0833
 3484SOL    HW216468   4.591   6.152   4.792 -0.3703 -0.3955  0.7717
 3485SOL     OW16469   2.650   2.665   6.467  0.5118 -0.4042 -0.1540
 3485SOL    HW116470   2.742   2.627   6.468  0.5010 -0.4338  0.9222
 3485SOL    HW216471   2.619   2.680   6.561 -0.9664 -1.3377 -0.4527
 3486SOL     OW16472   0.807   1.852   0.516 -0.2943 -0.4038 -0.0194
 3486SOL    HW116473   0.847   1.941   0.537 -0.7740 -0.2130  0.1028
 3486SOL    HW216474   0.872   1.780   0.541  0.3706 -0.0786 -0.7404
 3487SOL     OW16475   2.978   3.550   6.390  0.3093  0.4286 -0.0960
 3487SOL    HW116476   2.898   3.532   6.334 -0.6155 -0.5775  1.4667
 3487SOL    HW216477   2.959   3.628   6.451 -0.8222 -1.7423  2.5512
 3488SOL     OW16478   3.669   2.101   0.290  0.4635 -0.0571  0.3311
 3488SOL    HW116479   3.728   2.023   0.309  0.6625  0.1847  0.7168
 3488SOL    HW216480   3.676   2.167   0.365 -0.6276 -0.2286  0.6029
 3489SOL     OW16481   3.264   2.318   5.574 -0.2745 -0.6267  0.4083
 3489SOL    HW116482   3.287   2.227   5.539 -1.0489 -1.1730  1.2692
 3489SOL    HW216483   3.183   2.311   5.632 -1.2183  0.8452 -0.6701
 3490SOL     OW16484   1.137   3.499   0.951 -0.1163  0.0321 -0.1654
 3490SOL    HW116485   1.154   3.427   1.018 -0.2647 -1.3620 -1.5683
 3490SOL    HW216486   1.187   3.581   0.977  0.0917 -0.5765  1.4580
 3491SOL     OW16487   3.979   0.037   0.356 -0.2259 -0.1616 -0.1319
 3491SOL    HW116488   4.023  -0.053   0.351  0.2939  0.0353  0.6753
 3491SOL    HW216489   4.047   0.105   0.384 -0.8217  0.3300  0.1406
 3492SOL     OW16490   5.821   4.719   0.258  0.2972 -0.1340 -0.0717
 3492SOL    HW116491   5.861   4.804   0.222  0.7001 -0.5715 -0.6840
 3492SOL    HW216492   5.820   4.650   0.185  1.2564 -1.0879  0.7866
 3493SOL     OW16493   5.267   5.948   5.024 -0.2738  0.1986  0.4792
 3493SOL    HW116494   5.261   6.041   4.987  1.2788  0.0754 -0.1245
 3493SOL    HW216495   5.174   5.914   5.043 -0.8930  1.6437  0.1740
 3494SOL     OW16496   4.281   2.954   6.367  0.6272 -0.2774 -0.0600
 3494SOL    HW116497   4.348   2.882   6.357  0.9360  0.0090 -0.0736
 3494SOL    HW216498   4.287   2.994   6.459 -0.8111 -1.5175  0.6282
 3495SOL     OW16499   3.751   4.457   1.448 -0.1143  0.0518 -0.5585
 3495SOL    HW116500   3.792   4.408   1.524  0.0088 -0.8665 -1.1985
 3495SOL    HW216501   3.680   4.519   1.482  0.4109  0.1722  0.3532
 3496SOL     OW16502   4.220   0.784   6.137 -0.4943 -0.5598  0.5471
 3496SOL    HW116503   4.309   0.745   6.160  0.2699  0.9387  0.2581
 3496SOL    HW216504   4.147   0.730   6.180  0.6504 -0.5593  2.5904
 3497SOL     OW16505   3.790   6.336   6.095 -0.1718 -0.0545 -0.2518
 3497SOL    HW116506   3.816   6.287   6.012 -0.0816  0.5289 -0.5744
 3497SOL    HW216507   3.700   6.377   6.082 -0.7166 -1.0040  0.4000
 3498SOL     OW16508   0.294   1.323   5.543 -0.5264 -0.4044 -0.0669
 3498SOL    HW116509   0.239   1.251   5.585  0.8760 -0.9142  0.9905
 3498SOL    HW216510   0.322   1.294   5.451 -1.1221 -0.6003 -0.1898
 3499SOL     OW16511   3.466   3.332   6.312  0.4941  0.0794 -0.3140
 3499SOL    HW116512   3.454   3.238   6.345 -0.0988 -0.1747 -1.2254
 3499SOL    HW216513   3.493   3.391   6.389 -0.4059 -0.5791  0.5374
 3500SOL     OW16514   3.086   1.004   4.749  0.2122  0.2026  0.1036
 3500SOL    HW116515   3.094   1.083   4.810 -1.6782  0.8679 -0.4092
 3500SOL    HW216516   3.083   1.037   4.654  1.7473 -0.7037 -0.2844
 3501SOL     OW16517   1.922   3.257   0.767  0.3707 -0.6005  0.0772
 3501SOL    HW116518   1.889   3.235   0.675 -1.9932 -1.5431  1.0742
 3501SOL    HW216519   1.880   3.342   0.797  0.0597 -0.9995  0.7848
 3502SOL     OW16520   2.670   0.179   5.295 -0.2742  0.0421  0.3483
 3502SOL    HW116521   2.719   0.261   5.268  0.9791 -0.6095  0.5596
 3502SOL    HW216522   2.702   0.102   5.239 -1.4505 -0.3018  0.1287
 3503SOL     OW16523   1.790   0.982   5.754 -0.3132 -0.1482 -0.1679
 3503SOL    HW116524   1.832   1.054   5.699  1.2537 -1.9337 -1.4231
 3503SOL    HW216525   1.702   0.957   5.714 -2.5754  3.2251  2.1598
 3504SOL     OW16526   2.178   4.780   0.433  0.2171 -0.5308  0.4628
 3504SOL    HW116527   2.081   4.754   0.427  0.2749 -0.4335 -1.9647
 3504SOL    HW216528   2.189   4.850   0.503 -1.6168 -0.0276  0.3040
 3505SOL     OW16529   0.727   2.583   5.801  0.1272 -0.2287 -0.0634
 3505SOL    HW116530   0.756   2.500   5.751  0.5973  0.1644 -0.4584
 3505SOL    HW216531   0.637   2.611   5.769 -0.2954 -0.9134  0.4860
 3506SOL     OW16532   1.252   0.983   0.384 -0.2609  0.0437 -0.0242
 3506SOL    HW116533   1.235   1.079   0.359 -1.6811 -0.2475 -0.2522
 3506SOL    HW216534   1.189   0.924   0.334 -1.1118 -0.8143  1.9671
 3507SOL     OW16535   0.466   3.100   0.690 -0.2925  0.8084  0.1735
 3507SOL    HW116536   0.489   3.004   0.670  0.2508  1.3311 -1.9478
 3507SOL    HW216537   0.390   3.128   0.631  1.2830  2.4153 -1.1952
 3508SOL     OW16538   3.436   3.351   0.786  0.3651 -0.1737  0.4322
 3508SOL    HW116539   3.442   3.341   0.886 -0.8547 -0.7199  0.4786
 3508SOL    HW216540   3.384   3.434   0.765  1.6002  0.5568  0.2230
 3509SOL     OW16541   0.460   2.657   5.775 -0.0434  0.1433 -0.3773
 3509SOL    HW116542   0.430   2.751   5.755 -2.5047 -0.8123 -1.5889
 3509SOL    HW216543   0.386   2.608   5.821  0.3673 -1.7884 -1.6633
 3510SOL     OW16544   6.129   2.514   5.507  0.4447  0.2917  0.5564
 3510SOL    HW116545   6.182   2.436   5.539  2.1950  1.5202  0.8044
 3510SOL    HW216546   6.040   2.483   5.472  1.5558 -1.9353 -0.4726
 3511SOL     OW16547   3.444   5.827   0.132  0.3365  0.0930 -0.0672
 3511SOL    HW116548   3.383   5.854   0.207  0.6069  0.3449  0.0595
 3511SOL    HW216549   3.538   5.850   0.155  0.2926  1.2440 -0.9801
 3512SOL     OW16550   0.108   2.418   6.082 -0.2470 -0.4224 -0.5011
 3512SOL    HW116551   0.030   2.380   6.132 -0.3466  1.3025  0.7787
 3512SOL    HW216552   0.076   2.495   6.026  0.5636  0.5901  0.3849
 3513SOL     OW16553   2.823   5.364   0.976 -0.2538 -0.9298 -0.7886
 3513SOL    HW116554   2.741   5.378   0.919 -0.7054 -1.8760 -0.4050
 3513SOL    HW216555   2.820   5.426   1.054  1.1309  1.4774 -2.5202
 3514SOL     OW16556   5.815   6.088   0.111  0.3022  0.6449  0.0273
 3514SOL    HW116557   5.727   6.133   0.125  0.1023  0.1697  0.3118
 3514SOL    HW216558   5.822   6.007   0.170  1.3530  1.2483  0.7608
 3515SOL     OW16559   2.185   2.675   6.489 -0.0007  0.4022  0.4730
 3515SOL    HW116560   2.252   2.603   6.509 -0.2160  0.5813  2.0137
 3515SOL    HW216561   2.230   2.764   6.495  0.0313  0.4538 -0.3958
 3516SOL     OW16562   3.050   3.437   4.678 -0.1380 -0.1603 -0.0224
 3516SOL    HW116563   2.957   3.449   4.643 -0.4884 -0.5245  0.7646
 3516SOL    HW216564   3.074   3.517   4.734 -1.3724 -1.5866  2.7799
 3517SOL     OW16565   4.603   4.527   0.033 -0.1047 -0.4278  0.0428
 3517SOL    HW116566   4.694   4.507  -0.003  0.3577  0.0942  0.9018
 3517SOL    HW216567   4.600   4.509   0.131 -0.1420  1.9983  0.5455
 3518SOL     OW16568   2.283   4.790   5.668 -0.3723 -0.2271  0.2977
 3518SOL    HW116569   2.355   4.722   5.664  0.5817  0.6138  2.0314
 3518SOL    HW216570   2.217   4.774   5.594  1.7032 -0.8413 -1.5104
 3519SOL     OW16571   0.405   4.898   0.770 -0.3810  0.5261 -0.5711
 3519SOL    HW116572   0.382   4.940   0.857  0.2652  1.7081 -0.9554
 3519SOL    HW216573   0.321   4.875   0.721 -0.7415  0.6435 -0.0149
 3520SOL     OW16574   3.044   5.345   6.298 -0.4990 -0.5290 -0.1886
 3520SOL    HW116575   3.130   5.372   6.342  0.0255 -1.3755 -0.6701
 3520SOL    HW216576   3.025   5.407   6.222  0.7746 -1.5431 -1.3808
 3521SOL     OW16577   0.969   5.252   6.466  0.3818 -0.8819  0.1725
 3521SOL    HW116578   0.909   5.257   6.386 -0.0048  0.0750  0.5102
 3521SOL    HW216579   1.052   5.304   6.448  0.6768 -1.3715  0.0857
 3522SOL     OW16580   5.287   3.944   6.314 -0.8636 -0.0579 -0.6902
 3522SOL    HW116581   5.326   3.853   6.323 -0.2764  0.2358 -0.2310
 3522SOL    HW216582   5.296   3.975   6.219 -2.2740 -1.0076 -1.1601
 3523SOL     OW16583   1.629   0.665   5.647  0.8208 -1.1806  0.5238
 3523SOL    HW116584   1.562   0.629   5.582  0.4465  0.0497  0.2066
 3523SOL    HW216585   1.632   0.606   5.728 -0.3228 -1.4839  0.3571
 3524SOL     OW16586   4.667   5.303   0.113  0.4640 -0.3198 -0.5190
 3524SOL    HW116587   4.627   5.394   0.121  2.3430  0.4755  0.4658
 3524SOL    HW216588   4.595   5.234   0.124 -0.5181  0.9934  2.2712
 3525SOL     OW16589   3.368   2.589   4.843  0.0183  0.2382 -0.2766
 3525SOL    HW116590   3.368   2.689   4.847  2.3336  0.3451 -1.5716
 3525SOL    HW216591   3.438   2.554   4.905 -0.0557 -0.5417 -0.6276
 3526SOL     OW16592   3.019   5.852   6.047  0.1907 -0.3243  0.4839
 3526SOL    HW116593   3.058   5.891   6.130  0.4752 -1.1158  0.7385
 3526SOL    HW216594   2.928   5.890   6.031  0.6341  0.7621  0.4659
 3527SOL     OW16595   4.088   4.570   1.527 -0.4848  0.2266  0.8940
 3527SOL    HW116596   4.179   4.594   1.563  0.0848  0.9767 -0.9488
 3527SOL    HW216597   4.070   4.473   1.545  1.2713 -0.2791  0.1004
 3528SOL     OW16598   3.237   0.827   4.918 -0.3354 -0.2444  0.0219
 3528SOL    HW116599   3.311   0.778   4.872  0.0429 -0.1784  0.5457
 3528SOL    HW216600   3.185   0.880   4.851 -0.7627 -1.3642 -0.5575
 3529SOL     OW16601   1.386   1.045   5.960  0.1989  0.6231 -0.1648
 3529SOL    HW116602   1.420   1.061   6.053 -3.4890 -1.9892  1.8737
 3529SOL    HW216603   1.298   1.091   5.948  0.2440  0.2795 -2.1461
 3530SOL     OW16604   4.078   5.143   0.593  0.3365 -0.1169 -0.7259
 3530SOL    HW116605   4.137   5.074   0.635  0.6914  1.5676  1.7601
 3530SOL    HW216606   3.982   5.118   0.608  0.3736 -1.4816 -2.4182
 3531SOL     OW16607   4.016   4.223   4.899 -0.5025  0.0686  0.5075
 3531SOL    HW116608   4.101   4.258   4.938  1.2317 -1.0039 -2.0809
 3531SOL    HW216609   3.990   4.279   4.820 -1.2594 -0.6427  0.2363
 3532SOL     OW16610   4.471   0.331   6.358 -0.1590  0.2066 -0.2403
 3532SOL    HW116611   4.379   0.327   6.317 -0.4849 -0.9466  0.5416
 3532SOL    HW216612   4.536   0.287   6.297 -0.5322 -0.9597  0.1866
 3533SOL     OW16613   4.215   2.838   1.300 -0.3686  0.0720  0.3336
 3533SOL    HW116614   4.258   2.901   1.365  0.5699  0.6823 -0.8263
 3533SOL    HW216615   4.115   2.847   1.306 -0.4178 -1.2712  2.9794
 3534SOL     OW16616   2.558   4.912   5.843 -0.1739 -0.4539  0.2987
 3534SOL    HW116617   2.634   4.972   5.818  0.0832 -0.6965  0.4802
 3534SOL    HW216618   2.556   4.833   5.782 -1.0375  0.1559 -0.4864
 3535SOL     OW16619   0.727   5.065   0.156  0.3632 -0.0508  0.3263
 3535SOL    HW116620   0.767   5.011   0.082  1.3503 -0.0323  0.8168
 3535SOL    HW216621   0.777   5.151   0.165  2.1358 -1.1979  2.7536
 3536SOL     OW16622   5.782   2.968   0.030  0.2460 -0.0416 -0.0464
 3536SOL    HW116623   5.731   3.011  -0.045  0.1249  1.9223  1.0899
 3536SOL    HW216624   5.877   2.998   0.027  0.6506 -1.3121 -0.3870
 3537SOL     OW16625   3.485   3.997   1.361  0.1683 -0.5507  0.3147
 3537SOL    HW116626   3.462   3.902   1.340 -1.2944 -0.0880 -0.3030
 3537SOL    HW216627   3.541   4.035   1.287 -0.2722 -0.5867 -0.0443
 3538SOL     OW16628   3.284   3.595   0.643  0.0751 -0.3792  0.0471
 3538SOL    HW116629   3.298   3.628   0.736  0.8849 -1.9965  0.5280
 3538SOL    HW216630   3.224   3.659   0.594 -0.1359  0.6427  1.5655
 3539SOL     OW16631   0.415   5.307   6.436  0.0729 -0.7294  0.0683
 3539SOL    HW116632   0.469   5.283   6.355 -0.2730 -0.3279 -0.2860
 3539SOL    HW216633   0.411   5.228   6.497  1.2877 -0.6829  0.2353
 3540SOL     OW16634   4.555   4.951   6.184  0.2150  0.1526  0.1144
 3540SOL    HW116635   4.457   4.963   6.176  0.0174  0.8658  2.7861
 3540SOL    HW216636   4.597   5.033   6.222  1.4730 -0.9912  1.3538
 3541SOL     OW16637   3.684   0.579   6.126 -0.0145  0.2615 -0.3216
 3541SOL    HW116638   3.636   0.583   6.039  0.1898  1.0395 -0.4053
 3541SOL    HW216639   3.654   0.654   6.185 -0.2874 -0.3672  0.3555
 3542SOL     OW16640   1.037   5.999   0.452  0.0521 -0.2671 -0.1501
 3542SOL    HW116641   1.101   6.049   0.395 -0.5280  0.3413 -0.2804
 3542SOL    HW216642   1.041   6.033   0.546 -0.6335  0.3228 -0.3245
 3543SOL     OW16643   4.238   4.285   5.741  0.3660 -0.5127  0.2800
 3543SOL    HW116644   4.306   4.324   5.804 -0.5281  0.0380  0.9259
 3543SOL    HW216645   4.258   4.188   5.727  1.6678 -0.2180 -0.0686
 3544SOL     OW16646   5.126   2.049   6.214  0.7676 -0.2176 -0.2589
 3544SOL    HW116647   5.097   1.982   6.146  0.1947 -0.8045  0.5493
 3544SOL    HW216648   5.045   2.094   6.252  1.0780 -0.0200  0.1669
 3545SOL     OW16649   6.092   4.604   0.087 -0.0621  0.0913 -0.6655
 3545SOL    HW116650   6.107   4.593   0.185  2.1730 -1.4022 -1.0982
 3545SOL    HW216651   6.074   4.515   0.046 -0.2174  0.5949 -1.7248
 3546SOL     OW16652   0.106   3.662   0.305 -0.0378  0.1503 -0.8859
 3546SOL    HW116653   0.088   3.627   0.397 -1.0597  3.4437  0.3090
 3546SOL    HW216654   0.082   3.593   0.238 -2.5691 -1.1748  1.2033
 3547SOL     OW16655   5.310   6.040   5.487 -0.0959  0.2553  0.0599
 3547SOL    HW116656   5.317   6.137   5.510 -3.7867  0.5844  0.3802
 3547SOL    HW216657   5.220   6.022   5.446 -0.0515 -3.2582  1.1878
 3548SOL     OW16658   2.939   6.083   1.221  0.2519 -0.3928 -0.1068
 3548SOL    HW116659   3.012   6.110   1.284  0.8866 -1.9600 -0.1339
 3548SOL    HW216660   2.962   6.113   1.129  0.8943 -0.9163 -0.1226
 3549SOL     OW16661   6.357   1.995   5.626 -0.5312  0.0050 -0.1410
 3549SOL    HW116662   6.355   1.895   5.623 -2.1959  0.0262 -2.4240
 3549SOL    HW216663   6.268   2.029   5.659 -0.0152  0.7631  0.5215
 3550SOL     OW16664   1.038   0.170   6.051  0.1398 -1.2767 -0.2717
 3550SOL    HW116665   1.005   0.242   6.112 -1.2552 -2.1815  0.0883
 3550SOL    HW216666   1.034   0.202   5.957 -0.9368 -1.0353 -0.1575
 3551SOL     OW16667   5.048   5.179   0.820 -0.2856 -0.2575  0.0604
 3551SOL    HW116668   5.095   5.094   0.845 -0.2847 -0.3154 -0.1308
 3551SOL    HW216669   4.951   5.171   0.841 -0.2372 -0.1952  0.3145
 3552SOL     OW16670   3.795   5.254   6.061  0.2865 -0.2514 -0.2434
 3552SOL    HW116671   3.760   5.164   6.087  0.6510 -0.6575 -1.1172
 3552SOL    HW216672   3.778   5.270   5.964  0.7376  0.3824 -0.2270
 3553SOL     OW16673   3.108   2.389   1.191  0.4077  0.3794  0.0662
 3553SOL    HW116674   3.168   2.468   1.181  0.9980 -0.1932 -1.1023
 3553SOL    HW216675   3.047   2.383   1.112  0.5209 -0.4552  0.0288
 3554SOL     OW16676   5.948   2.555   5.998 -0.3704  0.0128  0.4635
 3554SOL    HW116677   5.850   2.545   5.982 -0.4752 -0.5471  1.3828
 3554SOL    HW216678   5.982   2.633   5.946 -1.4437  0.6703  0.7008
 3555SOL     OW16679   6.121   4.670   0.906  0.1119  0.2629  0.4955
 3555SOL    HW116680   6.159   4.714   0.825 -0.9329 -0.2572 -0.3056
 3555SOL    HW216681   6.177   4.590   0.929 -0.5996 -0.6496 -0.8258
 3556SOL     OW16682   5.087   4.648   5.782  0.0422 -0.0733  0.1948
 3556SOL    HW116683   5.055   4.554   5.784 -1.1615  0.3053 -0.3405
 3556SOL    HW216684   5.065   4.693   5.869 -2.4914  0.6523 -0.7234
 3557SOL     OW16685   4.295   5.620   5.501  0.6612  0.2177  0.4173
 3557SOL    HW116686   4.286   5.666   5.413  0.2312  1.7698  1.2410
 3557SOL    HW216687   4.373   5.656   5.550 -0.1280  0.6310  1.3979
 3558SOL     OW16688   4.798   3.892   6.139  0.6140  0.0254  0.9462
 3558SOL    HW116689   4.766   3.889   6.045  0.3087  1.7254  0.9690
 3558SOL    HW216690   4.827   3.800   6.167  0.4255 -0.5662 -0.6814
 3559SOL     OW16691   1.805   5.233   5.757 -0.2559  0.3733  0.1561
 3559SOL    HW116692   1.805   5.184   5.670  0.5599 -0.8895  0.8367
 3559SOL    HW216693   1.713   5.234   5.795 -0.2375 -0.9574  0.2846
 3560SOL     OW16694   3.133   0.614   0.699 -0.9093  0.9909 -0.1062
 3560SOL    HW116695   3.222   0.657   0.715  0.5017 -2.5421  2.7773
 3560SOL    HW216696   3.073   0.631   0.777 -1.5897  0.5980 -0.5258
 3561SOL     OW16697   4.927   2.039   0.042  0.4352 -0.1658 -0.0013
 3561SOL    HW116698   4.922   2.134   0.012 -0.2860 -0.1831  0.0428
 3561SOL    HW216699   4.995   1.990  -0.012 -0.3878 -0.0374 -1.1820
 3562SOL     OW16700   3.962   3.627   0.243  0.2554  0.2478  0.2933
 3562SOL    HW116701   3.970   3.538   0.197 -0.3658  1.1554 -1.6960
 3562SOL    HW216702   4.020   3.628   0.324 -1.8062 -2.9238  2.0287
 3563SOL     OW16703   2.819   6.075   5.094  0.1358 -0.1968  0.8269
 3563SOL    HW116704   2.796   6.168   5.122 -0.3227 -0.7896  2.5773
 3563SOL    HW216705   2.896   6.077   5.030  0.2545  1.3685  0.9908
 3564SOL     OW16706   1.631   4.966   5.781  0.1552 -0.1911  0.5654
 3564SOL    HW116707   1.662   4.999   5.692  0.4149 -1.6210  0.1008
 3564SOL    HW216708   1.683   5.012   5.853  0.0093  0.9076 -0.0078
 3565SOL     OW16709   0.583   4.872   5.643  0.4288 -0.1059  0.0754
 3565SOL    HW116710   0.499   4.836   5.681 -0.7207  0.6260 -1.6223
 3565SOL    HW216711   0.639   4.797   5.608 -0.1683 -0.5107 -0.0224
 3566SOL     OW16712   0.099   2.388   1.436  0.0573 -0.5602 -0.1558
 3566SOL    HW116713   0.169   2.373   1.506 -1.1781  1.2901  1.6227
 3566SOL    HW216714   0.021   2.436   1.477 -0.7306  0.6580 -2.8214
 3567SOL     OW16715   4.176   5.658   1.062 -0.4156  0.7717  0.0943
 3567SOL    HW116716   4.225   5.737   1.098 -0.5372  0.1362  1.7571
 3567SOL    HW216717   4.231   5.575   1.077 -0.4807  0.4676 -1.2200
 3568SOL     OW16718   0.764   3.097   0.387 -0.0343  0.2888 -0.0602
 3568SOL    HW116719   0.803   3.137   0.304  0.1290 -0.2906 -0.2709
 3568SOL    HW216720   0.833   3.039   0.431 -0.7362 -1.0186 -0.6127
 3569SOL     OW16721   3.224   6.131   0.080 -0.1515 -0.5283 -0.2477
 3569SOL    HW116722   3.129   6.143   0.051  0.1257 -0.3792 -1.1064
 3569SOL    HW216723   3.282   6.118   0.000  0.7723  0.8713  0.1660
 3570SOL     OW16724   5.750   2.056   5.725 -0.2716  0.5820 -0.2306
 3570SOL    HW116725   5.809   2.116   5.779  1.1369 -1.7907  1.0641
 3570SOL    HW216726   5.778   1.961   5.739 -2.3056 -0.4145 -2.2634
 3571SOL     OW16727   3.319   2.927   5.998  0.0036 -0.2111  0.1341
 3571SOL    HW116728   3.403   2.975   6.026 -0.7082 -0.2298  2.5307
 3571SOL    HW216729   3.343   2.839   5.957  1.2596  1.3798 -2.9179
 3572SOL     OW16730   3.865   6.087   5.965  0.0970 -0.1252 -0.8846
 3572SOL    HW116731   3.929   6.011   5.977 -1.1888 -1.0737  0.4469
 3572SOL    HW216732   3.772   6.051   5.957 -0.6548  1.3140  0.6654
 3573SOL     OW16733   3.200   3.006   0.410 -0.0811  0.6099  0.0347
 3573SOL    HW116734   3.273   2.956   0.364 -2.1837 -0.9726 -1.8377
 3573SOL    HW216735   3.203   3.102   0.383  2.5477  1.1084  1.7459
 3574SOL     OW16736   3.016   1.523   1.878 -0.2139 -0.2933  0.9195
 3574SOL    HW116737   2.988   1.483   1.791 -1.1102 -1.8417  1.8580
 3574SOL    HW216738   3.061   1.453   1.933  2.7503  1.3272  0.7231
 3575SOL     OW16739   1.379   5.400   0.719  0.2714 -0.1929  0.1763
 3575SOL    HW116740   1.283   5.393   0.744  0.9354 -0.6830  2.9389
 3575SOL    HW216741   1.400   5.336   0.645 -1.6131  0.3957 -0.9304
 3576SOL     OW16742   3.590   1.297   6.395  0.1713  0.1206  0.1122
 3576SOL    HW116743   3.535   1.216   6.414  1.4585 -0.9453 -0.5317
 3576SOL    HW216744   3.610   1.302   6.297 -2.2091  2.7948 -0.3428
 3577SOL     OW16745   2.798   4.317   1.068  0.1118 -0.4352  0.2306
 3577SOL    HW116746   2.883   4.363   1.043 -0.4380  0.5102  0.0636
 3577SOL    HW216747   2.806   4.280   1.161  0.3830  0.4386  0.5635
 3578SOL     OW16748   2.238   4.146   1.482 -0.0643 -0.0783 -0.0110
 3578SOL    HW116749   2.193   4.066   1.441  0.4917  0.2143 -1.2359
 3578SOL    HW216750   2.168   4.213   1.509 -0.4288  0.0415 -1.1818
 3579SOL     OW16751   1.705   1.657   0.559  0.0739  0.0052 -0.2832
 3579SOL    HW116752   1.607   1.652   0.577  0.1570 -0.6436 -0.0048
 3579SOL    HW216753   1.720   1.679   0.463 -0.3435  0.4117 -0.2603
 3580SOL     OW16754   4.105   0.770   0.781  0.1758 -0.0855 -0.1311
 3580SOL    HW116755   4.022   0.761   0.837 -0.3108  0.6792 -0.7053
 3580SOL    HW216756   4.125   0.867   0.766  0.0214 -0.2634 -1.6618
 3581SOL     OW16757   5.367   4.512   0.570 -0.3137  0.1545 -0.2994
 3581SOL    HW116758   5.454   4.482   0.610 -0.0303 -0.3095 -1.2436
 3581SOL    HW216759   5.327   4.583   0.628  0.4825  0.0770  0.3697
 3582SOL     OW16760   2.519   1.075   0.780 -0.5847 -0.9095  0.4570
 3582SOL    HW116761   2.567   1.077   0.868 -0.2477  0.5688  0.2651
 3582SOL    HW216762   2.578   1.031   0.712  0.2388  0.2316  0.3980
 3583SOL     OW16763   3.651   1.704   5.777  0.3541  0.1228  0.1674
 3583SOL    HW116764   3.594   1.646   5.835 -0.9464  2.6815  1.6060
 3583SOL    HW216765   3.730   1.736   5.829  0.8783 -0.0557 -0.5003
 3584SOL     OW16766   0.646   4.177   0.596 -0.4447 -0.3503 -0.2945
 3584SOL    HW116767   0.615   4.165   0.691  0.1025  0.1676 -0.0428
 3584SOL    HW216768   0.705   4.257   0.591 -3.1452  1.6942 -1.7142
 3585SOL     OW16769   2.362   5.219   0.548  0.0735 -0.0385  0.0112
 3585SOL    HW116770   2.405   5.129   0.542 -1.1513 -0.7097  0.9340
 3585SOL    HW216771   2.302   5.233   0.469 -0.3146 -0.3560  0.2458
 3586SOL     OW16772   0.749   5.384   0.977 -0.0488 -0.5267 -0.1098
 3586SOL    HW116773   0.821   5.409   1.042  1.3782 -2.8222 -0.7229
 3586SOL    HW216774   0.709   5.296   1.004  0.0570 -1.1512 -1.8924
 3587SOL     OW16775   5.416   5.650   5.352  0.2163  0.6439  0.0554
 3587SOL    HW116776   5.495   5.709   5.336  0.2077  0.8706  0.8078
 3587SOL    HW216777   5.332   5.705   5.351  0.1272  0.5062 -0.1047
 3588SOL     OW16778   1.402   4.565   6.308  0.4757 -0.5225 -0.3934
 3588SOL    HW116779   1.463   4.569   6.229  0.6646 -0.6454 -0.2539
 3588SOL    HW216780   1.438   4.623   6.381  0.3315 -0.4554 -0.3756
 3589SOL     OW16781   3.173   1.726   2.000  0.6481 -0.1561 -0.3516
 3589SOL    HW116782   3.258   1.722   1.948  2.1912 -3.5282  2.0110
 3589SOL    HW216783   3.106   1.664   1.961 -1.3625  3.2291 -2.8154
 3590SOL     OW16784   6.254   6.209   0.345  0.2739  0.3152 -0.4551
 3590SOL    HW116785   6.193   6.176   0.418  0.9494 -0.5177 -0.2438
 3590SOL    HW216786   6.199   6.239   0.267 -0.4331  0.3360  0.0354
 3591SOL     OW16787   0.868   2.241   5.930  0.2818  1.0034 -0.0148
 3591SOL    HW116788   0.892   2.149   5.899 -0.4742 -0.0640  2.3534
 3591SOL    HW216789   0.947   2.302   5.921  1.3522 -0.3360  0.1061
 3592SOL     OW16790   4.189   0.666   5.851 -0.4665  0.1096 -0.4516
 3592SOL    HW116791   4.196   0.701   5.944  0.2303 -3.6220  1.1160
 3592SOL    HW216792   4.094   0.643   5.830 -0.4918  0.0083 -0.2299
 3593SOL     OW16793   2.631   4.355   1.359  0.1537  0.0471  0.3932
 3593SOL    HW116794   2.700   4.427   1.369  1.5686 -0.8269 -2.1147
 3593SOL    HW216795   2.667   4.269   1.396 -0.0171 -0.1603  0.0827
 3594SOL     OW16796   0.354   4.713   0.133  0.1501 -0.1838 -0.4478
 3594SOL    HW116797   0.359   4.813   0.143  0.1832  0.0408 -2.3938
 3594SOL    HW216798   0.259   4.685   0.125  0.1568 -0.2759 -0.2052
 3595SOL     OW16799   1.172   0.970   6.175  0.2159  0.0245 -0.0242
 3595SOL    HW116800   1.232   1.014   6.242  0.4824  0.1624 -0.3471
 3595SOL    HW216801   1.180   1.018   6.088 -0.8028  0.3921  0.0793
 3596SOL     OW16802   2.939   5.488   4.846 -0.0441 -0.4688  0.4468
 3596SOL    HW116803   2.911   5.568   4.794  1.4114 -0.0521  0.2643
 3596SOL    HW216804   2.952   5.410   4.785  0.1490 -0.3963  0.3950
 3597SOL     OW16805   2.136   0.707   5.913 -0.2034  0.1046 -0.4311
 3597SOL    HW116806   2.043   0.673   5.927  0.5863 -2.0639  0.0064
 3597SOL    HW216807   2.182   0.714   6.002  0.9719 -1.8022 -0.8362
 3598SOL     OW16808   0.007   1.255   6.484 -0.3096 -0.2923 -0.9175
 3598SOL    HW116809   0.087   1.307   6.453  0.3202 -0.4560  0.3237
 3598SOL    HW216810  -0.010   1.276   6.581 -0.2450 -2.1145 -0.4793
 3599SOL     OW16811   2.100   3.584   6.368  0.0790 -0.1774  0.1514
 3599SOL    HW116812   2.171   3.624   6.426  0.6506  0.9193 -1.2392
 3599SOL    HW216813   2.072   3.496   6.405  2.4237 -0.8217  0.5695
 3600SOL     OW16814   0.521   6.264   6.239  0.4167 -0.2458  0.3163
 3600SOL    HW116815   0.604   6.319   6.246  1.2530 -1.4607  0.1929
 3600SOL    HW216816   0.469   6.271   6.324  0.4435  0.7926  0.2694
 3601SOL     OW16817   1.194   3.031   0.201 -0.1259  0.0330  0.2648
 3601SOL    HW116818   1.284   3.059   0.233 -0.2606 -0.0697  0.7389
 3601SOL    HW216819   1.205   2.976   0.118  0.2755 -0.2745  0.5131
 3602SOL     OW16820   5.123   1.153   0.139 -0.4612  0.1482  0.2397
 3602SOL    HW116821   5.097   1.059   0.162 -0.8410  0.0489 -0.5683
 3602SOL    HW216822   5.065   1.217   0.190 -1.5425 -0.0700 -0.6739
 3603SOL     OW16823   4.210   2.901   0.581  0.1016 -0.2106  0.0603
 3603SOL    HW116824   4.212   2.995   0.616  1.0359 -1.3945  3.6638
 3603SOL    HW216825   4.118   2.863   0.593 -0.4917  0.4210 -2.1469
 3604SOL     OW16826   6.078   1.714   1.154 -0.2273  0.2588  0.2800
 3604SOL    HW116827   6.027   1.629   1.143 -3.5210  2.0732  0.3960
 3604SOL    HW216828   6.090   1.732   1.252  1.3939 -0.5148  0.2539
 3605SOL     OW16829   1.505   5.798   4.763 -0.9387 -0.3961 -0.8023
 3605SOL    HW116830   1.466   5.711   4.733 -0.2825 -0.8822 -0.2942
 3605SOL    HW216831   1.504   5.863   4.687 -0.8486 -1.0633 -1.3880
 3606SOL     OW16832   4.711   1.379   5.687 -0.0514  0.0216  0.3125
 3606SOL    HW116833   4.707   1.362   5.588  2.4966 -0.9849  0.3067
 3606SOL    HW216834   4.655   1.459   5.710 -0.5063  0.4179 -1.9683
 3607SOL     OW16835   2.185   1.196   0.177  0.3338  0.1422  0.1093
 3607SOL    HW116836   2.232   1.192   0.089 -1.0114  2.5005 -0.7872
 3607SOL    HW216837   2.087   1.182   0.164  0.1384  0.3006  1.2662
 3608SOL     OW16838   3.156   4.959   1.982 -0.2205  0.2529  0.0741
 3608SOL    HW116839   3.236   4.901   1.966 -0.7348 -0.0232 -1.8227
 3608SOL    HW216840   3.079   4.903   2.010 -0.1527  0.3155  0.3873
 3609SOL     OW16841   5.022   4.611   1.321  0.7479  0.3698  0.0045
 3609SOL    HW116842   5.000   4.647   1.411  1.9770 -1.8381  1.2598
 3609SOL    HW216843   5.080   4.677   1.273 -0.5423  1.9126  0.4457
 3610SOL     OW16844   5.621   4.604   5.353  0.2023 -0.3938 -0.4507
 3610SOL    HW116845   5.657   4.547   5.279 -1.4734 -1.4860 -0.4642
 3610SOL    HW216846   5.580   4.546   5.423 -0.0191  0.7312  0.3781
 3611SOL     OW16847   3.448   0.919   0.516 -0.4026 -0.1082 -0.3860
 3611SOL    HW116848   3.529   0.867   0.489  0.3667  1.9130 -2.2164
 3611SOL    HW216849   3.415   0.974   0.439 -1.1254  2.1634  1.4144
 3612SOL     OW16850   0.423   2.038   6.169  0.3177  0.1140 -0.0353
 3612SOL    HW116851   0.353   2.095   6.211  0.2968  1.1155 -1.3549
 3612SOL    HW216852   0.508   2.043   6.221 -0.8144 -1.9634  2.2124
 3613SOL     OW16853   4.869   0.641   4.961 -0.0150  0.3869 -0.0024
 3613SOL    HW116854   4.936   0.662   4.889  2.5537 -0.7397  1.9029
 3613SOL    HW216855   4.787   0.603   4.919  0.5420  1.6426 -2.4612
 3614SOL     OW16856   4.904   5.387   0.249 -0.1315  0.0105 -0.1441
 3614SOL    HW116857   4.897   5.385   0.348  1.1388 -0.0478 -0.0483
 3614SOL    HW216858   4.812   5.386   0.209 -0.6279 -1.1532  0.9969
 3615SOL     OW16859   3.292   0.869   4.258 -0.5195 -0.0787  0.1326
 3615SOL    HW116860   3.385   0.835   4.244 -0.8906 -0.4220 -1.8124
 3615SOL    HW216861   3.227   0.797   4.233 -1.2943  0.7446 -0.2427
 3616SOL     OW16862   4.773   5.217   0.963  0.6380 -0.1388 -0.4881
 3616SOL    HW116863   4.829   5.257   1.036  0.3958 -1.0191  0.1960
 3616SOL    HW216864   4.744   5.125   0.990 -1.4395  0.4075 -0.6642
 3617SOL     OW16865   1.498   0.734   5.388  0.3174  0.4191 -0.2603
 3617SOL    HW116866   1.406   0.774   5.390  0.6011  1.1827 -1.3925
 3617SOL    HW216867   1.564   0.802   5.419  0.3354 -0.8250  2.7778
 3618SOL     OW16868   0.551   1.550   5.764  0.1474  0.5496 -0.1216
 3618SOL    HW116869   0.539   1.629   5.703 -2.5240 -0.7906 -1.5028
 3618SOL    HW216870   0.556   1.466   5.711  1.1291 -0.4212  1.4054
 3619SOL     OW16871   4.482   2.750   6.345 -0.0622  0.1406 -0.0939
 3619SOL    HW116872   4.573   2.713   6.328 -0.5807 -1.0173 -0.3825
 3619SOL    HW216873   4.444   2.709   6.428  0.1199  1.4660  0.6768
 3620SOL     OW16874   1.159   4.035   0.179 -0.2972 -0.2102  0.7431
 3620SOL    HW116875   1.101   3.992   0.248 -0.7985  2.4223  2.0487
 3620SOL    HW216876   1.247   4.060   0.219  0.2364 -0.5601 -0.1681
 3621SOL     OW16877   3.476   2.013   5.856  0.0214 -0.6674 -0.0727
 3621SOL    HW116878   3.387   1.968   5.855 -0.2940 -0.1281  1.3314
 3621SOL    HW216879   3.536   1.967   5.922  0.8488 -1.1056 -1.0914
 3622SOL     OW16880   3.488   1.758   1.317  0.1349  0.3126  0.1142
 3622SOL    HW116881   3.581   1.792   1.307 -0.1921  1.3891  0.5777
 3622SOL    HW216882   3.459   1.717   1.230  0.8467  0.4498 -0.1987
 3623SOL     OW16883   5.736   3.609   0.030  0.0265  0.4417 -0.6572
 3623SOL    HW116884   5.717   3.696  -0.016  1.2555  1.0569 -0.0488
 3623SOL    HW216885   5.673   3.597   0.107  0.0514  0.9347 -0.5603
 3624SOL     OW16886   2.162   2.634   0.550  0.2382 -0.0769  0.0541
 3624SOL    HW116887   2.106   2.553   0.534  0.9064 -0.2692 -1.5225
 3624SOL    HW216888   2.233   2.640   0.480 -0.4605  2.4561 -0.5763
 3625SOL     OW16889   0.956   4.742   1.035 -0.0825  0.2440  0.5886
 3625SOL    HW116890   0.943   4.834   0.997  1.6504  0.7493  1.1204
 3625SOL    HW216891   0.961   4.748   1.135  0.2389 -0.3922  0.6150
 3626SOL     OW16892   2.463   1.648   0.897  0.0141  0.0911  0.4917
 3626SOL    HW116893   2.491   1.569   0.842 -3.1075  0.2593 -1.5780
 3626SOL    HW216894   2.501   1.640   0.989  1.8496 -2.4758 -0.3796
 3627SOL     OW16895   2.384   0.223   1.046 -0.0666  0.2655 -0.1040
 3627SOL    HW116896   2.393   0.126   1.071  1.1766  0.3403 -0.2250
 3627SOL    HW216897   2.309   0.233   0.981  0.0696 -0.6898 -0.4285
 3628SOL     OW16898   2.354   4.567   5.373  0.1506  0.2192  0.4675
 3628SOL    HW116899   2.398   4.533   5.290  2.0536  1.0239  1.1020
 3628SOL    HW216900   2.264   4.524   5.382  0.1893 -0.4272 -1.6126
 3629SOL     OW16901   2.534   0.954   5.691 -0.1595  0.3569 -0.2344
 3629SOL    HW116902   2.521   0.858   5.669 -2.4930  0.0364  2.0721
 3629SOL    HW216903   2.450   1.005   5.670  0.1958  1.4212  0.7934
 3630SOL     OW16904   5.225   4.973   0.024 -0.7701 -0.5517  0.3615
 3630SOL    HW116905   5.274   5.030   0.090 -0.7060  0.2086 -0.3283
 3630SOL    HW216906   5.161   4.913   0.073 -0.3508 -0.3709  1.1454
 3631SOL     OW16907   1.482   0.604   1.382  0.1330  0.1654  0.3018
 3631SOL    HW116908   1.387   0.630   1.367  0.0258 -0.3764 -0.0096
 3631SOL    HW216909   1.530   0.677   1.430 -0.4332  0.4546  0.4361
 3632SOL     OW16910   0.507   3.822   0.274  0.0460  0.1873  0.0485
 3632SOL    HW116911   0.471   3.858   0.360  1.1074 -0.9243  0.9719
 3632SOL    HW216912   0.593   3.868   0.252 -1.4445  2.3268 -1.7948
 3633SOL     OW16913   2.675   1.700   5.395 -0.5979 -0.0484  0.3600
 3633SOL    HW116914   2.613   1.773   5.365 -0.3697 -0.7481 -2.0225
 3633SOL    HW216915   2.624   1.614   5.402 -0.1773 -0.3729 -0.4059
 3634SOL     OW16916   1.654   1.813   5.993  0.0699  0.0168  0.1657
 3634SOL    HW116917   1.687   1.739   5.934 -1.7854 -1.6803  1.1620
 3634SOL    HW216918   1.590   1.870   5.943  0.6880  0.3354 -0.2804
 3635SOL     OW16919   4.126   5.200   5.861 -0.1010 -0.3971 -0.5973
 3635SOL    HW116920   4.106   5.297   5.851 -0.3212 -0.4038 -0.2181
 3635SOL    HW216921   4.122   5.156   5.771 -0.3172 -0.1153 -0.7266
 3636SOL     OW16922   5.767   3.839   1.409  0.1327 -0.2618  0.4409
 3636SOL    HW116923   5.820   3.799   1.335 -1.3433 -0.6748 -0.4366
 3636SOL    HW216924   5.822   3.840   1.493  2.7904  2.5093 -1.1297
 3637SOL     OW16925   4.027   2.350   1.013  0.0365 -0.2699 -0.0512
 3637SOL    HW116926   4.096   2.402   1.064 -0.7140  0.9986 -0.2770
 3637SOL    HW216927   4.072   2.281   0.956  0.8827 -3.2135  3.7155
 3638SOL     OW16928   0.367   0.451   6.021 -0.3702  0.1213 -0.1611
 3638SOL    HW116929   0.378   0.444   6.121  0.8251 -0.2859 -0.3013
 3638SOL    HW216930   0.397   0.366   5.979 -1.3609  0.0992 -0.8471
 3639SOL     OW16931   5.000   0.698   4.722  0.2088 -0.3742  0.3076
 3639SOL    HW116932   5.000   0.772   4.654  0.3514  1.4097  2.1787
 3639SOL    HW216933   5.042   0.617   4.681 -1.2117  0.0562 -2.2710
 3640SOL     OW16934   3.283   2.719   0.106 -0.2471 -0.1153  0.3375
 3640SOL    HW116935   3.301   2.627   0.140 -0.0513 -0.7501 -1.3611
 3640SOL    HW216936   3.193   2.749   0.139 -0.1578 -0.7642  1.2045
 3641SOL     OW16937   4.954   3.191   6.206  0.0985 -0.8225 -0.4997
 3641SOL    HW116938   4.903   3.246   6.140 -0.1276 -2.1030 -1.4274
 3641SOL    HW216939   5.043   3.232   6.222  0.6296 -1.0754 -2.5174
 3642SOL     OW16940   0.116   2.867   0.600 -0.3753  0.0034 -0.3093
 3642SOL    HW116941   0.194   2.815   0.564 -0.2036  0.6810 -0.9466
 3642SOL    HW216942   0.105   2.848   0.698  1.6188  1.1037  0.1902
 3643SOL     OW16943   1.765   2.471   0.521  0.2521 -0.2416 -0.2044
 3643SOL    HW116944   1.789   2.554   0.470 -0.5617  0.3537  0.3629
 3643SOL    HW216945   1.794   2.391   0.468 -1.5942  0.3152 -2.2137
 3644SOL     OW16946   2.122   1.805   4.851  0.2029 -0.4798 -0.3847
 3644SOL    HW116947   2.049   1.805   4.783 -1.1305 -0.3831  0.9875
 3644SOL    HW216948   2.149   1.899   4.872 -2.1965 -0.2046  2.0184
 3645SOL     OW16949   0.254   0.065   0.750 -0.1647 -0.0928 -0.2908
 3645SOL    HW116950   0.325  -0.006   0.753 -0.6071 -0.5336  0.0090
 3645SOL    HW216951   0.232   0.087   0.655  0.7963  0.4869 -0.3934
 3646SOL     OW16952   0.372   1.844   5.598  0.1204 -0.7788  0.7535
 3646SOL    HW116953   0.357   1.845   5.697 -1.5548 -2.0156  0.5628
 3646SOL    HW216954   0.394   1.937   5.567 -1.2572  0.0278  2.0304
 3647SOL     OW16955   5.406   0.290   5.304  0.0723 -0.2456 -0.0929
 3647SOL    HW116956   5.443   0.343   5.228 -1.5253  0.2448 -0.5734
 3647SOL    HW216957   5.429   0.193   5.292  3.0758  0.2330  0.8254
 3648SOL     OW16958   2.190   0.684   0.128 -0.4030 -0.3484 -0.8079
 3648SOL    HW116959   2.235   0.770   0.153 -3.1814  0.7126  0.9421
 3648SOL    HW216960   2.105   0.703   0.079  0.5999 -2.2804 -3.5478
 3649SOL     OW16961   3.620   3.141   0.726 -0.1772 -0.0479 -0.0451
 3649SOL    HW116962   3.713   3.154   0.761 -0.4132  0.8028  0.2918
 3649SOL    HW216963   3.566   3.223   0.745 -1.1230 -0.7109  0.1544
 3650SOL     OW16964   2.922   0.388   5.072 -0.3456  0.2964 -0.4348
 3650SOL    HW116965   2.969   0.474   5.054 -0.3236  0.2844 -0.4357
 3650SOL    HW216966   2.825   0.397   5.052 -0.4093  0.4370 -0.0647
 3651SOL     OW16967   4.138   5.440   0.642  0.7441  0.0626 -0.4018
 3651SOL    HW116968   4.184   5.356   0.611  1.4874  0.1798  0.3448
 3651SOL    HW216969   4.060   5.415   0.700  0.7696 -0.1138 -0.4405
 3652SOL     OW16970   3.161   2.413   0.733 -0.0031  0.4310 -0.1660
 3652SOL    HW116971   3.122   2.340   0.789  1.0896 -1.2475 -1.4881
 3652SOL    HW216972   3.179   2.378   0.641 -0.5539  2.7406 -1.2142
 3653SOL     OW16973   4.914   5.706   5.277  0.6482  0.2604  0.0269
 3653SOL    HW116974   4.938   5.689   5.373 -0.0992  0.7706  0.3141
 3653SOL    HW216975   4.874   5.623   5.238  3.0691 -0.7303 -0.5677
 3654SOL     OW16976   1.798   1.086   0.784 -0.1095 -0.2096  0.2844
 3654SOL    HW116977   1.785   0.993   0.749  0.2099  0.1408 -0.7881
 3654SOL    HW216978   1.896   1.103   0.795 -0.2120 -0.4809  1.8450
 3655SOL     OW16979   1.834   1.111   5.207  0.8526  0.1068 -0.5324
 3655SOL    HW116980   1.848   1.203   5.172  0.4441  0.2591 -0.3099
 3655SOL    HW216981   1.906   1.088   5.273  1.3060  0.0276 -1.0468
 3656SOL     OW16982   3.036   3.685   4.827  0.0202  0.6066  0.8385
 3656SOL    HW116983   3.116   3.729   4.867 -0.0663  0.0939  1.5878
 3656SOL    HW216984   2.955   3.742   4.841  0.4473  1.7526 -1.0545
 3657SOL     OW16985   1.294   3.690   0.682 -0.2599  0.1508 -0.1396
 3657SOL    HW116986   1.335   3.774   0.646 -0.2386 -0.6519 -2.1339
 3657SOL    HW216987   1.355   3.650   0.750  0.1709  1.2674  0.1480
 3658SOL     OW16988   0.850   0.762   4.820 -0.7071 -0.3108  0.1529
 3658SOL    HW116989   0.928   0.785   4.878 -0.4870  0.8568 -0.5751
 3658SOL    HW216990   0.780   0.833   4.827 -0.3660  0.2256 -1.5467
 3659SOL     OW16991   0.419   3.064   1.093 -0.2185 -0.8733 -0.0395
 3659SOL    HW116992   0.375   2.992   1.040  0.9385 -0.8802 -1.0439
 3659SOL    HW216993   0.374   3.073   1.181 -1.6608 -1.4432 -0.6832
 3660SOL     OW16994   0.194   5.811   5.699  0.2070  0.1013 -0.3208
 3660SOL    HW116995   0.138   5.799   5.781  0.3671 -0.4076 -0.2865
 3660SOL    HW216996   0.137   5.804   5.618 -0.2724  2.2968 -0.2348
 3661SOL     OW16997   3.486   5.026   0.912 -0.1148 -0.6792 -0.1431
 3661SOL    HW116998   3.455   5.108   0.959 -0.1097 -0.1985 -0.9489
 3661SOL    HW216999   3.531   4.965   0.976  0.6307  0.3284  0.3088
 3662SOL     OW17000   1.348   5.699   5.912  0.5749 -0.1098 -0.2456
 3662SOL    HW117001   1.433   5.700   5.965  0.3593  0.1385  0.1018
 3662SOL    HW217002   1.305   5.609   5.919  0.8939 -0.2884 -0.5610
 3663SOL     OW17003   0.231   1.936   0.801  0.5467 -0.2357 -0.2662
 3663SOL    HW117004   0.165   1.896   0.738  1.0445 -0.4103 -0.6865
 3663SOL    HW217005   0.186   2.004   0.859 -0.1179 -0.7774 -0.1402
 3664SOL     OW17006   0.011   5.128   5.781  0.1919 -0.1398  0.2463
 3664SOL    HW117007   0.063   5.213   5.782 -0.7957  0.4838  0.0464
 3664SOL    HW217008  -0.028   5.112   5.872 -0.0259 -0.1269  0.1543
 3665SOL     OW17009   6.345   0.213   0.019 -0.0378 -0.5867  0.2386
 3665SOL    HW117010   6.353   0.275  -0.059 -0.1992 -0.2668  0.4730
 3665SOL    HW217011   6.367   0.262   0.103 -0.9967 -0.6175  0.5189
 3666SOL     OW17012   2.064   4.482   5.297  0.1267  0.4928  0.4122
 3666SOL    HW117013   2.006   4.527   5.364  0.9550 -0.3605  1.7593
 3666SOL    HW217014   2.023   4.394   5.271 -0.3622  0.9727 -0.4903
 3667SOL     OW17015   1.147   2.808   6.086  0.2316  0.5082 -0.2975
 3667SOL    HW117016   1.210   2.870   6.039 -1.3327  2.6382  0.2332
 3667SOL    HW217017   1.093   2.758   6.018  1.3316 -0.1057 -0.7421
 3668SOL     OW17018   1.486   6.157   5.767  0.1976  0.1277 -0.5923
 3668SOL    HW117019   1.523   6.129   5.855 -0.4020 -0.1542 -0.4197
 3668SOL    HW217020   1.521   6.247   5.742 -0.9048  0.9648  0.7248
 3669SOL     OW17021   0.260   4.127   1.669  0.4595 -0.0362 -1.0354
 3669SOL    HW117022   0.246   4.224   1.647  1.9846  0.3660 -0.3826
 3669SOL    HW217023   0.178   4.091   1.714  0.2843  1.2599 -0.2692
 3670SOL     OW17024   5.197   1.185   5.756 -0.1625  0.2087 -0.1193
 3670SOL    HW117025   5.172   1.092   5.783 -0.5503 -0.2046 -1.7772
 3670SOL    HW217026   5.116   1.233   5.721  0.1275  1.0159  0.2886
 3671SOL     OW17027   0.018   5.382   0.195  0.4603  0.5866  0.5888
 3671SOL    HW117028   0.103   5.430   0.173  0.7817 -0.5792 -0.9049
 3671SOL    HW217029   0.006   5.305   0.133 -1.9505  0.9976  0.4237
 3672SOL     OW17030   1.463   4.494   5.603  0.3036 -0.1304  0.4578
 3672SOL    HW117031   1.461   4.424   5.675 -0.0508 -1.9512 -1.2537
 3672SOL    HW217032   1.371   4.503   5.564  0.7391 -0.0437 -0.5704
 3673SOL     OW17033   1.854   2.949   6.291  0.0988 -0.0643 -0.2054
 3673SOL    HW117034   1.840   2.897   6.207  0.9672 -2.5996  1.1247
 3673SOL    HW217035   1.766   2.979   6.327 -0.4757 -0.9789 -0.8065
 3674SOL     OW17036   5.874   4.480   6.286  0.6097  0.1669  0.1133
 3674SOL    HW117037   5.896   4.467   6.189 -1.1576 -0.4578 -0.2379
 3674SOL    HW217038   5.783   4.520   6.295  1.1282  1.1051  1.5159
 3675SOL     OW17039   3.508   1.426   0.687 -0.2675 -0.4567  0.7686
 3675SOL    HW117040   3.499   1.343   0.632 -0.1420 -1.5905  2.3840
 3675SOL    HW217041   3.476   1.504   0.634 -2.2658 -1.7898 -0.1342
 3676SOL     OW17042   5.287   6.029   6.304 -0.3643 -0.2497 -0.6198
 3676SOL    HW117043   5.274   5.942   6.351 -1.3321 -0.3320 -1.0205
 3676SOL    HW217044   5.247   6.103   6.358 -0.2403 -0.1524 -0.6587
 3677SOL     OW17045   3.902   1.546   0.027 -0.1766 -0.4786 -0.1540
 3677SOL    HW117046   3.985   1.599   0.044 -1.8843  2.5785 -0.6242
 3677SOL    HW217047   3.887   1.539  -0.072 -0.8690 -0.3062 -0.0675
 3678SOL     OW17048   5.651   4.398   0.594 -0.0828 -0.4587  0.3571
 3678SOL    HW117049   5.682   4.303   0.588 -2.4435 -1.4480  2.2958
 3678SOL    HW217050   5.676   4.435   0.683  0.7196  0.7706 -0.3431
 3679SOL     OW17051   3.548   6.168   0.145  0.1588  0.0533 -0.5049
 3679SOL    HW117052   3.542   6.265   0.170  1.4278 -0.0570  0.3462
 3679SOL    HW217053   3.495   6.151   0.062 -1.4134  1.1465  0.2288
 3680SOL     OW17054   0.878   1.019   5.544 -0.2436 -0.1669 -0.3283
 3680SOL    HW117055   0.827   1.100   5.573  2.0810  1.0023  0.7560
 3680SOL    HW217056   0.938   1.042   5.468  1.6705 -0.3446  1.0459
 3681SOL     OW17057   6.268   2.601   5.723 -0.0290 -0.0151 -0.1329
 3681SOL    HW117058   6.342   2.534   5.729  1.2102  1.2039 -1.1652
 3681SOL    HW217059   6.207   2.577   5.648 -2.0928 -2.2859  2.0763
 3682SOL     OW17060   4.828   3.710   1.054  0.4698 -0.3098  0.0774
 3682SOL    HW117061   4.786   3.624   1.083 -1.0241 -0.1061 -1.3368
 3682SOL    HW217062   4.838   3.710   0.954  2.0531  0.4771  0.2061
 3683SOL     OW17063   2.781   3.489   1.695  0.0510  0.3617 -0.3675
 3683SOL    HW117064   2.720   3.553   1.741  0.4436  0.4218  0.0731
 3683SOL    HW217065   2.731   3.405   1.672 -0.0735  0.2238  0.4045
 3684SOL     OW17066   3.255   3.375   0.439  0.4189  1.0696 -0.0577
 3684SOL    HW117067   3.290   3.445   0.502 -0.6375  0.3330  1.4068
 3684SOL    HW217068   3.255   3.286   0.485 -1.9079  0.7868 -0.5180
 3685SOL     OW17069   1.125   2.864   6.350  0.0576 -0.3465  0.0963
 3685SOL    HW117070   1.142   2.858   6.252  3.6311  1.3884  0.4444
 3685SOL    HW217071   1.036   2.908   6.366 -0.3819 -0.2203 -2.3449
 3686SOL     OW17072   2.722   6.062   0.030  0.0852  0.1240  0.2731
 3686SOL    HW117073   2.725   6.024   0.122  0.5358 -0.7069 -0.0821
 3686SOL    HW217074   2.713   5.988  -0.037 -0.6704  0.7427 -0.3325
 3687SOL     OW17075   2.547   5.348   6.510  1.0570 -0.4467 -0.5876
 3687SOL    HW117076   2.609   5.303   6.446  3.2942 -0.7363  1.6228
 3687SOL    HW217077   2.531   5.442   6.480  2.2501 -0.4908 -1.4546
 3688SOL     OW17078   0.554   3.920   5.620 -0.0936 -0.5545  0.0386
 3688SOL    HW117079   0.557   3.936   5.521  1.7152  1.7626  0.3712
 3688SOL    HW217080   0.510   3.997   5.665  1.1248 -0.4770  1.1685
 3689SOL     OW17081   0.584   1.024   6.297 -0.0181  0.1983  0.8750
 3689SOL    HW117082   0.566   0.933   6.334 -0.9101  0.1585  0.3627
 3689SOL    HW217083   0.648   1.072   6.357 -0.5022 -0.3029  1.8126
 3690SOL     OW17084   1.921   1.157   0.162 -0.1779  0.2108  0.4140
 3690SOL    HW117085   1.915   1.072   0.213 -0.1703 -0.5401 -0.7916
 3690SOL    HW217086   1.855   1.155   0.086  1.7396  0.0591 -1.3362
 3691SOL     OW17087   3.791   4.302   6.080 -0.2209  0.0438 -0.1991
 3691SOL    HW117088   3.744   4.369   6.024 -0.6965  0.0308  0.1767
 3691SOL    HW217089   3.794   4.334   6.175 -0.6891 -0.5875  0.0311
 3692SOL     OW17090   0.627   4.482   0.697  0.4342  0.3030 -0.4771
 3692SOL    HW117091   0.667   4.552   0.638  2.1415 -0.6536 -0.5096
 3692SOL    HW217092   0.671   4.486   0.787  0.1982 -0.3943 -0.3254
 3693SOL     OW17093   1.038   0.911   4.948  0.4106  0.0309 -0.3283
 3693SOL    HW117094   1.134   0.885   4.949  0.4933  0.3143 -0.5915
 3693SOL    HW217095   1.026   0.993   4.891  0.2035  0.7551  0.7258
 3694SOL     OW17096   1.314   5.716   5.493 -0.1810 -0.3914 -0.5919
 3694SOL    HW117097   1.303   5.807   5.454  0.5816 -1.0413 -2.4589
 3694SOL    HW217098   1.390   5.717   5.557  0.3061  0.1477 -1.1565
 3695SOL     OW17099   1.798   4.489   6.057 -1.1370 -0.0865 -0.4826
 3695SOL    HW117100   1.804   4.392   6.081 -0.4849  0.1393  0.3007
 3695SOL    HW217101   1.756   4.498   5.966 -0.9729 -1.1101 -0.6770
 3696SOL     OW17102   2.869   3.868   1.165 -0.5104  0.4916  0.0303
 3696SOL    HW117103   2.796   3.864   1.096 -1.5127 -4.0074  1.0399
 3696SOL    HW217104   2.828   3.861   1.256  1.1051 -1.0277  0.6766
 3697SOL     OW17105   3.918   4.814   0.764 -0.0849  0.0552 -0.5469
 3697SOL    HW117106   3.982   4.793   0.838 -0.0386  0.6902 -0.4012
 3697SOL    HW217107   3.945   4.763   0.682  0.6531  0.3638 -0.5058
 3698SOL     OW17108   5.308   1.775   6.287  0.2875 -1.3547 -0.6176
 3698SOL    HW117109   5.221   1.817   6.262  2.2401  3.0016 -1.0269
 3698SOL    HW217110   5.322   1.783   6.386  1.9646  2.2223 -1.0063
 3699SOL     OW17111   3.705   1.265   0.981 -0.1749  0.0869 -0.2877
 3699SOL    HW117112   3.614   1.245   0.944 -0.1826  0.1587 -0.3087
 3699SOL    HW217113   3.770   1.196   0.950 -0.3218 -0.2449  0.1314
 3700SOL     OW17114   1.107   1.520   5.134  0.2630  0.5660 -0.7269
 3700SOL    HW117115   1.079   1.427   5.111 -2.7013  0.8887  1.0769
 3700SOL    HW217116   1.093   1.579   5.054  0.1487 -0.1550 -1.2536
 3701SOL     OW17117   4.321   5.900   6.037  0.7021 -0.5778 -0.1540
 3701SOL    HW117118   4.369   5.820   6.072  1.7142 -0.8795 -2.0988
 3701SOL    HW217119   4.307   5.966   6.111  1.5111 -1.7394  1.0700
 3702SOL     OW17120   5.226   6.147   5.995  0.5224  0.7809  0.1216
 3702SOL    HW117121   5.304   6.096   6.032  0.4101  1.0137  0.6895
 3702SOL    HW217122   5.157   6.158   6.066 -0.1970  0.2579 -0.4851
 3703SOL     OW17123   4.451   4.019   0.107  0.0051 -0.0014  0.2552
 3703SOL    HW117124   4.528   4.071   0.145 -1.3082  1.7486  0.6964
 3703SOL    HW217125   4.374   4.022   0.172 -1.3326  0.5986 -1.2875
 3704SOL     OW17126   3.487   4.040   6.128  0.3811  0.2259 -0.1411
 3704SOL    HW117127   3.466   3.942   6.128  0.1395  0.2678  0.7889
 3704SOL    HW217128   3.577   4.054   6.169  1.2266  0.2495 -1.9530
 3705SOL     OW17129   1.536   2.953   0.443 -0.7351 -0.4172  0.2224
 3705SOL    HW117130   1.485   2.962   0.529 -2.4191 -1.8946 -0.5710
 3705SOL    HW217131   1.572   3.043   0.417  1.6800 -0.2412  3.4958
 3706SOL     OW17132   5.990   4.606   5.160 -0.1141  0.6377 -0.1888
 3706SOL    HW117133   5.893   4.579   5.156 -0.4404  1.8858 -1.9574
 3706SOL    HW217134   6.034   4.584   5.074  1.6486 -1.3292  1.1235
 3707SOL     OW17135   2.102   1.790   0.572  0.1100  0.2291  0.3531
 3707SOL    HW117136   2.163   1.773   0.649 -2.5946  1.3477  2.9481
 3707SOL    HW217137   2.061   1.704   0.542 -0.4819 -0.0079  1.7477
 3708SOL     OW17138   5.731   0.233   5.674  0.0331  0.2829 -0.0676
 3708SOL    HW117139   5.773   0.230   5.765 -0.0065 -0.7623 -0.0642
 3708SOL    HW217140   5.801   0.216   5.604 -0.2031 -0.5921 -0.1135
 3709SOL     OW17141   1.936   0.653   0.967  0.8934  1.0418  0.2113
 3709SOL    HW117142   1.964   0.671   0.873 -0.4279  2.3844  0.0212
 3709SOL    HW217143   1.984   0.715   1.029  0.2488  1.5922  0.1709
 3710SOL     OW17144   2.015   4.719   0.794 -0.1003  0.6915 -0.4327
 3710SOL    HW117145   1.948   4.665   0.742 -0.7497  1.7755 -0.7512
 3710SOL    HW217146   2.072   4.657   0.848 -1.6692 -0.2404  0.2392
 3711SOL     OW17147   1.791   0.870   6.268 -0.1841 -0.0115 -0.5485
 3711SOL    HW117148   1.789   0.969   6.259  0.3668  0.0874  0.2564
 3711SOL    HW217149   1.698   0.834   6.273 -0.3796  0.5028 -0.5219
 3712SOL     OW17150   3.994   1.201   5.674  0.1141  0.0677  0.0753
 3712SOL    HW117151   3.907   1.164   5.707  0.6267  0.0589  1.4486
 3712SOL    HW217152   4.010   1.168   5.581 -1.5793  0.4632 -0.3989
 3713SOL     OW17153   5.925   0.211   0.130 -0.4221 -0.2349  0.5987
 3713SOL    HW117154   5.843   0.217   0.074 -1.3634 -0.9383  1.8276
 3713SOL    HW217155   5.995   0.160   0.081  0.0509  2.0387 -1.2696
 3714SOL     OW17156   2.952   1.625   1.088 -0.7490 -0.8503  0.2060
 3714SOL    HW117157   2.889   1.568   1.141 -1.7444  0.8699  0.9910
 3714SOL    HW217158   2.967   1.711   1.137 -0.7316  0.2983 -1.7358
 3715SOL     OW17159   5.061   0.045   0.584  0.4192 -0.1185  0.5051
 3715SOL    HW117160   4.982  -0.004   0.622 -0.4162  1.2527  0.6131
 3715SOL    HW217161   5.106   0.097   0.657  1.5797 -1.0497  0.4858
 3716SOL     OW17162   5.266   5.118   5.430  0.0228  0.0946 -0.2682
 3716SOL    HW117163   5.278   5.217   5.434 -1.8079  0.3260  0.6639
 3716SOL    HW217164   5.192   5.096   5.366  0.3908 -0.6947 -0.4465
 3717SOL     OW17165   4.019   1.610   4.885 -0.6963 -0.1381 -0.4831
 3717SOL    HW117166   4.029   1.515   4.855  0.2493 -0.9175  2.0757
 3717SOL    HW217167   4.108   1.656   4.881 -0.7450  0.0203  0.1761
 3718SOL     OW17168   2.122   0.880   5.130  0.1897  0.3094 -0.5531
 3718SOL    HW117169   2.155   0.786   5.137  0.4521  0.4153 -0.3074
 3718SOL    HW217170   2.085   0.909   5.218 -3.4922 -0.8311 -1.5495
 3719SOL     OW17171   5.424   3.354   0.615 -0.2363 -0.8134  0.0541
 3719SOL    HW117172   5.486   3.296   0.563 -0.1751 -0.3121 -0.4371
 3719SOL    HW217173   5.470   3.439   0.641  0.1165 -1.5499  1.9596
 3720SOL     OW17174   2.814   4.080   0.580  0.2049  0.2622 -0.3363
 3720SOL    HW117175   2.912   4.075   0.598 -0.0263 -2.0877  0.4924
 3720SOL    HW217176   2.791   4.018   0.505 -0.6973  0.6817 -0.4169
 3721SOL     OW17177   5.152   4.848   4.944 -0.2115  0.1934  0.0978
 3721SOL    HW117178   5.206   4.902   5.008 -0.5876  2.9456 -1.7418
 3721SOL    HW217179   5.063   4.890   4.931 -0.7857 -1.2534 -0.9699
 3722SOL     OW17180   1.360   5.143   4.851 -0.3403 -0.0131 -0.0426
 3722SOL    HW117181   1.419   5.208   4.803 -0.2076 -0.5848 -0.6775
 3722SOL    HW217182   1.306   5.092   4.784 -3.2250  1.9862  0.5891
 3723SOL     OW17183   5.574   0.474   0.370  0.2051  0.5955  0.2271
 3723SOL    HW117184   5.506   0.410   0.334  0.4973  1.3688 -1.8940
 3723SOL    HW217185   5.621   0.434   0.447 -0.6563 -1.1212 -0.0962
 3724SOL     OW17186   4.894   4.022   1.339  0.6830  0.6208  0.3801
 3724SOL    HW117187   4.881   4.100   1.399 -2.3902 -0.5277  1.4209
 3724SOL    HW217188   4.931   3.945   1.391  0.9360  0.5290  0.0684
 3725SOL     OW17189   3.415   5.007   1.624 -0.1893  0.1975 -0.6100
 3725SOL    HW117190   3.462   4.925   1.657  0.0288  0.5146 -0.1295
 3725SOL    HW217191   3.463   5.043   1.543  0.0771  0.2074 -0.4475
 3726SOL     OW17192   1.702   0.131   5.952  0.2227 -0.0730  0.2457
 3726SOL    HW117193   1.643   0.127   6.032  1.1652  0.3639  0.9809
 3726SOL    HW217194   1.646   0.126   5.869 -0.6999 -1.4156  0.9124
 3727SOL     OW17195   0.971   0.376   0.716 -0.9812  0.5252  0.3831
 3727SOL    HW117196   0.937   0.467   0.739  2.2087  1.8508  0.3580
 3727SOL    HW217197   0.999   0.329   0.800  0.6282  1.0226  0.1529
 3728SOL     OW17198   0.523   4.123   0.852  0.0201  0.1421 -0.0727
 3728SOL    HW117199   0.438   4.167   0.824  0.3927  0.6693 -0.4001
 3728SOL    HW217200   0.503   4.033   0.891 -0.5238 -0.8388 -2.4034
 3729SOL     OW17201   4.232   0.149   1.344 -0.6875 -0.3038  0.0105
 3729SOL    HW117202   4.202   0.210   1.417 -2.2115 -0.3642 -0.5365
 3729SOL    HW217203   4.235   0.055   1.378  0.2559 -0.1286  0.4471
 3730SOL     OW17204   2.649   2.866   6.266  0.5963  0.4751  0.4751
 3730SOL    HW117205   2.552   2.884   6.251  0.5842  0.4572  0.5351
 3730SOL    HW217206   2.661   2.815   6.351  0.8238  2.1022  1.4469
 3731SOL     OW17207   1.784   4.628   0.642  0.2177  0.4519  0.2816
 3731SOL    HW117208   1.696   4.674   0.655 -0.8820 -1.0472 -1.3845
 3731SOL    HW217209   1.775   4.531   0.666  1.4194  0.2795  0.0829
 3732SOL     OW17210   1.378   5.903   6.464  0.2209 -0.0279 -0.8093
 3732SOL    HW117211   1.303   5.927   6.525 -0.9477 -1.3145 -1.6875
 3732SOL    HW217212   1.465   5.933   6.504 -0.8232  2.6001 -0.3545
 3733SOL     OW17213   1.004   0.374   6.235  0.2246 -0.3417  0.7147
 3733SOL    HW117214   0.906   0.363   6.254  0.3835 -1.9257  0.7411
 3733SOL    HW217215   1.023   0.470   6.213 -1.5889 -0.2795 -0.8137
 3734SOL     OW17216   2.885   2.001   5.740 -0.3353  0.4716  0.5986
 3734SOL    HW117217   2.842   2.090   5.721 -0.9068  0.8079  3.1759
 3734SOL    HW217218   2.973   2.016   5.785  0.3561 -0.2813 -0.4676
 3735SOL     OW17219   2.925   5.179   5.299 -0.0445 -0.1181 -0.3138
 3735SOL    HW117220   2.978   5.104   5.337  0.8498  0.8036  0.3174
 3735SOL    HW217221   2.964   5.207   5.212 -0.6645 -0.6863 -0.7798
 3736SOL     OW17222   6.279   1.189   5.788  0.5446  0.1040  0.1383
 3736SOL    HW117223   6.228   1.273   5.769  0.7784  0.4091  0.8099
 3736SOL    HW217224   6.253   1.155   5.879  2.3584  0.9023  1.0093
 3737SOL     OW17225   3.840   0.801   5.529  0.8434  0.7280  0.0594
 3737SOL    HW117226   3.885   0.891   5.533  0.1092  1.1372 -0.5387
 3737SOL    HW217227   3.806   0.786   5.436 -2.2347  1.4300  0.9786
 3738SOL     OW17228   4.963   4.224   6.318 -0.1512  0.2705  0.1780
 3738SOL    HW117229   4.866   4.203   6.323 -0.3740  1.1453 -0.2418
 3738SOL    HW217230   5.016   4.151   6.362 -0.8415 -1.3006 -1.5038
 3739SOL     OW17231   1.467   1.180   5.517 -0.0566 -0.4679 -0.1155
 3739SOL    HW117232   1.510   1.103   5.563 -1.7664  0.0337  2.5226
 3739SOL    HW217233   1.531   1.257   5.512 -0.0552 -0.2383  2.3445
 3740SOL     OW17234   4.891   1.512   0.410  0.2970 -0.1624  0.0432
 3740SOL    HW117235   4.983   1.550   0.423  0.7739 -1.2741  0.0327
 3740SOL    HW217236   4.893   1.446   0.335 -1.1545  1.8691 -1.9343
 3741SOL     OW17237   3.701   4.894   1.134  0.0147  0.5487  0.5136
 3741SOL    HW117238   3.798   4.918   1.141  0.5057 -0.8317 -0.9444
 3741SOL    HW217239   3.690   4.823   1.065 -2.0050  0.3965  0.9524
 3742SOL     OW17240   3.248   6.039   0.337  0.0424  0.1815  0.1419
 3742SOL    HW117241   3.251   6.092   0.253 -0.4625 -0.6577 -0.4255
 3742SOL    HW217242   3.154   6.035   0.372  0.2797  0.6990  0.8692
 3743SOL     OW17243   0.086   5.548   0.983  0.1940 -0.3149 -0.3043
 3743SOL    HW117244   0.031   5.484   1.037  1.9043 -0.9120  0.8234
 3743SOL    HW217245   0.034   5.577   0.903 -1.8672 -0.5441  0.8847
 3744SOL     OW17246   6.071   0.470   0.128  0.0197 -0.0320  0.5738
 3744SOL    HW117247   6.022   0.394   0.084 -0.3619  0.1727  0.6387
 3744SOL    HW217248   6.041   0.557   0.088 -0.7755  0.2054  1.6363
 3745SOL     OW17249   1.516   1.858   6.307  0.5430  0.0351 -0.0895
 3745SOL    HW117250   1.445   1.838   6.374 -1.8516  0.6050 -2.2986
 3745SOL    HW217251   1.555   1.773   6.273 -1.3122 -0.5094 -1.0113
 3746SOL     OW17252   2.195   1.182   5.990  0.4402 -0.2519 -0.0940
 3746SOL    HW117253   2.202   1.210   6.086 -0.4777  0.3165 -0.1816
 3746SOL    HW217254   2.279   1.137   5.963  0.3531 -1.3273  1.2767
 3747SOL     OW17255   3.318   5.616   0.778  0.1011  0.2464 -0.0177
 3747SOL    HW117256   3.396   5.666   0.742  0.8427 -0.2090  0.8966
 3747SOL    HW217257   3.329   5.518   0.760 -0.3538  0.1927 -0.0382
 3748SOL     OW17258   4.900   1.870   5.112 -0.4240 -0.3630  0.4203
 3748SOL    HW117259   4.962   1.942   5.082  1.8728 -1.7121  1.6109
 3748SOL    HW217260   4.899   1.797   5.043  0.6918 -1.0901  1.1417
 3749SOL     OW17261   2.259   2.929   0.950  0.5571 -0.5539 -0.3709
 3749SOL    HW117262   2.212   2.874   0.881 -0.0209 -1.2480  0.5532
 3749SOL    HW217263   2.347   2.959   0.914  0.2574 -0.8844 -1.4159
 3750SOL     OW17264   3.748   1.214   5.229 -0.0338 -0.0882  0.1737
 3750SOL    HW117265   3.745   1.221   5.130  1.3525 -0.4230  0.0829
 3750SOL    HW217266   3.752   1.305   5.269  0.5233  0.0263 -0.1382
 3751SOL     OW17267   1.330   3.756   5.199 -0.9388 -0.1828  0.4618
 3751SOL    HW117268   1.240   3.721   5.173 -0.5836 -0.2728 -0.6936
 3751SOL    HW217269   1.359   3.825   5.133  0.8152 -1.7611 -0.5208
 3752SOL     OW17270   6.185   2.392   6.070 -0.3055  0.1433  0.4560
 3752SOL    HW117271   6.126   2.464   6.033 -1.9407 -0.9464  0.7989
 3752SOL    HW217272   6.141   2.303   6.056  1.0044 -0.6700  1.2830
 3753SOL     OW17273   5.991   1.450   5.424 -0.0194 -0.4861  0.3705
 3753SOL    HW117274   5.916   1.484   5.368  0.0286 -1.6671 -0.4480
 3753SOL    HW217275   6.055   1.525   5.444  0.1835 -0.1022 -1.5095
 3754SOL     OW17276   2.447   0.558   5.188  1.0418  0.1208  0.0206
 3754SOL    HW117277   2.419   0.619   5.114  2.2679 -0.3030 -0.8312
 3754SOL    HW217278   2.435   0.463   5.160 -0.7490 -0.0792  1.2982
 3755SOL     OW17279   5.909   1.441   6.402 -0.4940  0.7906 -0.1351
 3755SOL    HW117280   5.898   1.343   6.389 -1.5770  0.4875  2.5136
 3755SOL    HW217281   5.834   1.490   6.357 -0.4866  0.3434 -0.6372
 3756SOL     OW17282   5.726   1.171   5.578  0.0125 -0.2876  0.2427
 3756SOL    HW117283   5.652   1.103   5.582 -1.6392  1.4630  1.0242
 3756SOL    HW217284   5.719   1.223   5.493  0.9866 -0.7552 -0.1377
 3757SOL     OW17285   0.552   0.117   0.651 -0.3351  0.4752  0.2292
 3757SOL    HW117286   0.459   0.083   0.632 -0.8793  1.6575  0.6588
 3757SOL    HW217287   0.583   0.083   0.739 -0.1660 -0.3006 -0.1237
 3758SOL     OW17288   2.477   2.364   0.679 -0.0789 -0.4584 -1.0415
 3758SOL    HW117289   2.404   2.298   0.657 -0.0691 -0.0324 -2.4112
 3758SOL    HW217290   2.559   2.314   0.707 -0.5372 -0.9788 -0.6027
 3759SOL     OW17291   0.764   1.228   5.935  0.1114 -0.0966  0.2171
 3759SOL    HW117292   0.778   1.326   5.931  0.9062 -0.1997  0.3539
 3759SOL    HW217293   0.739   1.202   6.029  1.2335 -0.1880  0.4995
 3760SOL     OW17294   6.132   1.400   5.714  0.5021 -0.5083 -0.1221
 3760SOL    HW117295   6.059   1.466   5.730  0.7649 -0.3854  0.6298
 3760SOL    HW217296   6.094   1.317   5.675 -0.0504 -0.4494  0.2776
 3761SOL     OW17297   0.327   3.414   5.307  0.3742 -0.0406  0.4117
 3761SOL    HW117298   0.365   3.321   5.309  3.0411  0.9466  0.3014
 3761SOL    HW217299   0.376   3.468   5.238 -1.5374  1.3122  0.0428
 3762SOL     OW17300   1.038   2.540   0.357 -0.5151 -0.2658  1.0076
 3762SOL    HW117301   1.076   2.449   0.346  0.5609  0.4215 -2.2224
 3762SOL    HW217302   0.941   2.538   0.333 -0.2655 -0.4330 -0.0470
 3763SOL     OW17303   1.861   5.617   6.298 -0.0244  0.0341  0.1579
 3763SOL    HW117304   1.875   5.547   6.228  1.9361  0.4861  0.0289
 3763SOL    HW217305   1.867   5.708   6.255 -2.5500  0.3435  0.3125
 3764SOL     OW17306   4.232   4.232   1.806 -0.1193 -0.4532 -0.0731
 3764SOL    HW117307   4.142   4.240   1.848 -0.8496 -1.5216 -1.3415
 3764SOL    HW217308   4.284   4.316   1.821 -0.5906 -0.5183  2.2733
 3765SOL     OW17309   1.803   5.916   0.279  0.3615  0.2484  0.3768
 3765SOL    HW117310   1.706   5.902   0.297  0.5594 -0.1038  1.2535
 3765SOL    HW217311   1.837   5.844   0.219  0.3734 -0.4669  1.2068
 3766SOL     OW17312   2.746   2.686   6.065 -0.1141  0.2897  0.1462
 3766SOL    HW117313   2.796   2.723   5.986  0.2215  1.2733  0.8067
 3766SOL    HW217314   2.700   2.760   6.113 -1.4405 -0.4840  0.1036
 3767SOL     OW17315   3.703   1.541   1.730  0.2507 -0.8136  0.5369
 3767SOL    HW117316   3.642   1.600   1.677 -0.5903 -1.8165  0.3430
 3767SOL    HW217317   3.671   1.536   1.824  0.8242 -0.2908  0.7665
 3768SOL     OW17318   0.932   4.525   5.402  0.2827  0.0839  0.1681
 3768SOL    HW117319   0.901   4.434   5.372 -0.5767 -0.7564  3.2735
 3768SOL    HW217320   1.029   4.520   5.427  0.4191  0.2392 -0.3052
 3769SOL     OW17321   0.476   0.192   5.956  0.5750 -0.0389 -0.7202
 3769SOL    HW117322   0.450   0.132   5.881  3.7202 -3.2564  0.4937
 3769SOL    HW217323   0.414   0.177   6.033 -0.0454  0.0271 -1.1991
 3770SOL     OW17324   6.075   0.279   5.318 -0.3038  0.7692 -0.0118
 3770SOL    HW117325   6.166   0.318   5.331 -0.3255  1.2162 -1.0626
 3770SOL    HW217326   6.033   0.319   5.237 -2.2385  2.0380  1.5116
 3771SOL     OW17327   4.134   1.635   0.431  0.7789  0.6529 -0.0339
 3771SOL    HW117328   4.230   1.662   0.440  1.1717 -0.6979 -0.0323
 3771SOL    HW217329   4.127   1.561   0.364  0.0121 -0.6834  1.4873
 3772SOL     OW17330   3.149   1.034   0.141  0.1367 -0.1690  0.0915
 3772SOL    HW117331   3.163   0.940   0.171  0.0265  0.0536  0.8573
 3772SOL    HW217332   3.190   1.097   0.207 -2.1371  0.4103  1.0603
 3773SOL     OW17333   0.756   2.309   0.797 -0.4227  0.0583 -0.0894
 3773SOL    HW117334   0.785   2.398   0.833  1.0039 -0.2528 -0.4340
 3773SOL    HW217335   0.670   2.321   0.747  0.2398  1.4502 -0.9700
 3774SOL     OW17336   1.647   4.138   0.453 -0.3874  0.2496 -0.0638
 3774SOL    HW117337   1.584   4.135   0.375 -2.1461 -0.9704  1.3282
 3774SOL    HW217338   1.703   4.055   0.454  0.6732  0.9303 -0.8011
 3775SOL     OW17339   5.731   5.513   5.245  0.0453 -0.0451  0.2646
 3775SOL    HW117340   5.784   5.590   5.209 -2.9351  1.4438 -1.2986
 3775SOL    HW217341   5.700   5.455   5.170 -3.0216  0.8999  0.6578
 3776SOL     OW17342   1.903   3.242   5.622  0.0795 -0.3180  0.6055
 3776SOL    HW117343   1.862   3.159   5.584 -0.1363 -0.2092  0.5989
 3776SOL    HW217344   1.996   3.252   5.587  0.2193 -0.7257  0.8566
 3777SOL     OW17345   5.600   4.836   5.595  0.4583 -0.1568  0.1983
 3777SOL    HW117346   5.569   4.914   5.650  2.0003 -0.0688  0.9822
 3777SOL    HW217347   5.632   4.869   5.506  0.6269  0.0374  0.3313
 3778SOL     OW17348   4.198   5.217   0.872  0.0223 -0.1696 -0.3469
 3778SOL    HW117349   4.237   5.134   0.832  0.2998  0.5565 -1.6713
 3778SOL    HW217350   4.098   5.210   0.873  0.0471 -0.5431 -0.4036
 3779SOL     OW17351   4.644   1.195   6.498  0.2713  0.4499  0.2537
 3779SOL    HW117352   4.577   1.175   6.569 -1.2405 -1.0446 -1.4868
 3779SOL    HW217353   4.664   1.111   6.446 -0.2437  1.8333 -2.3600
 3780SOL     OW17354   1.992   1.994   5.312  0.0588  0.3722 -0.3813
 3780SOL    HW117355   1.995   2.085   5.270 -1.1310  0.5138 -0.1998
 3780SOL    HW217356   2.056   1.933   5.265  0.0874  1.0156 -1.2068
 3781SOL     OW17357   4.393   5.091   5.144 -0.4862 -0.3388 -0.3984
 3781SOL    HW117358   4.324   5.151   5.185 -0.9715 -1.5706  0.6698
 3781SOL    HW217359   4.405   5.115   5.048 -1.2385  0.9311 -0.2054
 3782SOL     OW17360   0.912   2.018   0.084  0.9598  0.2788 -0.5236
 3782SOL    HW117361   0.965   1.935   0.101 -0.4955 -0.3820  1.0610
 3782SOL    HW217362   0.911   2.037  -0.015  2.8452 -0.5087 -0.7295
 3783SOL     OW17363   3.429   4.123   0.495 -0.3168  0.1882 -0.0700
 3783SOL    HW117364   3.484   4.042   0.517  0.1725  0.0298 -1.7523
 3783SOL    HW217365   3.452   4.197   0.558  1.3129 -0.0980 -0.2874
   6.36272   6.38760   6.51220
