CNT in water
17365
    1DPPC    C1    1   1.603   5.224   0.905  0.3551 -0.4360  0.3201
    1DPPC    C2    2   1.384   5.240   0.928  0.2417 -0.9209  0.2563
    1DPPC    C3    3   1.521   5.422   1.002  0.0126  0.1026 -0.3071
    1DPPC    N4    4   1.505   5.276   1.002  0.1841  0.0836 -0.1259
    1DPPC    C5    5   1.485   5.214   1.134  0.5112  0.1883 -0.0260
    1DPPC    C6    6   1.612   5.175   1.210  0.0505 -0.4825  0.4001
    1DPPC    O7    7   1.695   5.290   1.222  0.0846 -0.4890  0.2247
    1DPPC    P8    8   1.853   5.260   1.212  0.1714  0.0418 -0.0807
    1DPPC    O9    9   1.859   5.152   1.112  0.2538 -0.3782  0.3702
    1DPPC   O10   10   1.912   5.395   1.197 -0.0821  0.1863  0.2126
    1DPPC   O11   11   1.872   5.191   1.357  0.2163  0.3128  0.0434
    1DPPC   C12   12   1.845   5.293   1.453 -0.3287  0.0827  0.1386
    1DPPC   C13   13   1.832   5.236   1.594  0.1165 -0.0354  0.1320
    1DPPC   O14   14   1.740   5.304   1.681  0.2113  0.1650  0.0774
    1DPPC   C15   15   1.605   5.305   1.667  0.1789 -0.6213  0.2676
    1DPPC   O16   16   1.549   5.251   1.572 -0.7594 -0.1383  0.5256
    1DPPC   C17   17   1.522   5.375   1.776  1.0766  0.5379  0.2197
    1DPPC   C18   18   1.603   5.375   1.905  0.5253 -0.2107  0.5693
    1DPPC   C19   19   1.535   5.467   2.007 -0.1875 -0.1427  0.0382
    1DPPC   C20   20   1.511   5.600   1.935 -0.7624 -0.2367  0.0559
    1DPPC   C21   21   1.424   5.684   2.029 -0.6978 -0.3022  0.1743
    1DPPC   C22   22   1.493   5.693   2.165  0.0452 -0.6962 -0.1682
    1DPPC   C23   23   1.393   5.767   2.254 -0.0958 -0.3338 -0.6272
    1DPPC   C24   24   1.443   5.749   2.398 -1.1391  0.6625 -0.1174
    1DPPC   C25   25   1.369   5.832   2.502 -0.2727  0.2424  0.8522
    1DPPC   C26   26   1.221   5.794   2.490  0.0115 -0.6009 -0.0363
    1DPPC   C27   27   1.163   5.858   2.616  0.5881 -0.2946  0.0763
    1DPPC   C28   28   1.223   5.799   2.743 -0.0295 -0.2006  0.4163
    1DPPC   C29   29   1.159   5.838   2.876  0.0104  0.4518  0.2476
    1DPPC   C30   30   1.224   5.964   2.932 -0.3923  0.8821 -0.2392
    1DPPC   C31   31   1.376   5.952   2.918 -0.4491 -0.8292  0.3818
    1DPPC   C32   32   1.972   5.207   1.650 -0.2165 -0.2015  0.8866
    1DPPC   O33   33   1.997   5.183   1.789  0.3443 -0.1865  0.7900
    1DPPC   C34   34   2.126   5.164   1.827  0.7557  0.2188 -0.3654
    1DPPC   O35   35   2.211   5.168   1.738  1.4268 -0.0777  0.2502
    1DPPC   C36   36   2.158   5.126   1.972  0.0543  0.0239 -0.2560
    1DPPC   C37   37   2.097   5.214   2.081  0.1376  0.0703 -0.2469
    1DPPC   C38   38   2.081   5.125   2.204 -0.6486  0.2923 -0.1860
    1DPPC   C39   39   2.015   5.216   2.308 -0.6554  0.4349 -0.3155
    1DPPC   C40   40   2.005   5.137   2.439  0.4669  0.9620  0.1017
    1DPPC   C41   41   1.911   5.199   2.543 -0.0241  0.0618  0.2042
    1DPPC   C42   42   1.860   5.100   2.648  0.0446 -0.0169  0.1633
    1DPPC   C43   43   1.806   5.170   2.773 -0.8071 -0.4953  0.0665
    1DPPC   C44   44   1.911   5.267   2.827 -0.1850 -0.5390 -1.0157
    1DPPC   C45   45   2.030   5.195   2.891 -0.1866  0.4267  0.1124
    1DPPC   C46   46   2.150   5.285   2.923 -0.1874  0.6765 -0.5690
    1DPPC   C47   47   2.105   5.385   3.030 -0.0429  0.1986 -0.0556
    1DPPC   C48   48   2.200   5.504   3.039  0.1770  0.0384 -0.2316
    1DPPC   C49   49   2.343   5.477   3.085  0.0423 -0.1921  0.0611
    1DPPC   C50   50   2.419   5.607   3.114  0.3552 -0.2992 -0.2624
    2DPPC    C1   51   2.094   1.704   1.050 -0.3886  0.0538  0.4872
    2DPPC    C2   52   1.966   1.855   0.920  0.4304 -0.0928 -0.2411
    2DPPC    C3   53   2.175   1.918   1.012 -0.1460  0.3126 -0.1832
    2DPPC    N4   54   2.052   1.844   1.039  0.0123  0.1477  0.0835
    2DPPC    C5   55   1.989   1.879   1.167 -0.3960 -0.5409  0.0760
    2DPPC    C6   56   1.920   2.015   1.181  0.2077 -0.2193 -0.0693
    2DPPC    O7   57   1.777   2.012   1.185  0.1805  0.3279 -0.5173
    2DPPC    P8   58   1.712   2.159   1.189 -0.2869  0.1099 -0.0977
    2DPPC    O9   59   1.756   2.209   1.057  0.0429  0.0632 -0.0049
    2DPPC   O10   60   1.567   2.142   1.216 -0.1171 -0.7547  0.3101
    2DPPC   O11   61   1.792   2.219   1.314  0.2638 -0.3631 -0.2199
    2DPPC   C12   62   1.699   2.228   1.423  0.4275  0.0722 -0.1154
    2DPPC   C13   63   1.753   2.222   1.566  0.4813  0.3633 -0.1215
    2DPPC   O14   64   1.648   2.186   1.657  0.3053 -0.4267 -0.6245
    2DPPC   C15   65   1.674   2.077   1.733  0.0360 -0.3339 -0.3963
    2DPPC   O16   66   1.733   1.980   1.685  0.1857 -0.4489  0.0177
    2DPPC   C17   67   1.574   2.054   1.846  0.4875 -0.1180  0.0538
    2DPPC   C18   68   1.606   2.141   1.968  0.4153  0.6686 -0.4834
    2DPPC   C19   69   1.532   2.108   2.098  1.2660  0.0317 -0.1525
    2DPPC   C20   70   1.559   2.233   2.181  0.2963  0.3481 -0.3100
    2DPPC   C21   71   1.508   2.216   2.325 -0.2551 -0.1453 -0.5627
    2DPPC   C22   72   1.520   2.357   2.382 -0.2387 -0.4366  0.1681
    2DPPC   C23   73   1.465   2.363   2.524  0.0023 -0.5095  0.2640
    2DPPC   C24   74   1.315   2.336   2.533 -0.0584 -0.2952 -0.0999
    2DPPC   C25   75   1.272   2.298   2.675  0.2944 -0.1585  0.0439
    2DPPC   C26   76   1.348   2.181   2.737 -0.0835 -0.4477 -0.0369
    2DPPC   C27   77   1.305   2.159   2.882  0.0125  0.1883  0.0884
    2DPPC   C28   78   1.396   2.048   2.935  0.4028  0.2798 -0.3871
    2DPPC   C29   79   1.545   2.084   2.933  0.5790 -0.3788  0.3628
    2DPPC   C30   80   1.623   1.988   3.022  0.7301 -0.0581  0.5739
    2DPPC   C31   81   1.770   2.033   3.022  0.7519 -0.1288  0.2255
    2DPPC   C32   82   1.806   2.364   1.588 -0.4834  0.6866  0.1662
    2DPPC   O33   83   1.882   2.382   1.708  0.3327 -0.2433 -0.1999
    2DPPC   C34   84   1.931   2.508   1.723 -0.3791  0.0003  0.1064
    2DPPC   O35   85   1.897   2.598   1.646  0.9315  0.2722 -0.1769
    2DPPC   C36   86   2.005   2.529   1.855  0.1583  0.3025 -0.2420
    2DPPC   C37   87   1.921   2.599   1.962  0.3530 -0.2354  0.2628
    2DPPC   C38   88   2.016   2.677   2.053  0.3063  0.1398 -0.0121
    2DPPC   C39   89   1.936   2.764   2.150 -0.1551 -0.4845  0.1690
    2DPPC   C40   90   2.006   2.848   2.257 -0.0349 -0.0079 -0.2843
    2DPPC   C41   91   2.102   2.950   2.194  0.3483 -0.0618  0.2037
    2DPPC   C42   92   2.213   3.016   2.275  0.3256 -0.1252  0.2870
    2DPPC   C43   93   2.307   3.098   2.187 -0.0436 -0.4059 -0.3825
    2DPPC   C44   94   2.234   3.208   2.111 -0.1789 -0.2066  0.0317
    2DPPC   C45   95   2.328   3.322   2.069  0.2922 -0.4676  0.3806
    2DPPC   C46   96   2.372   3.402   2.192  0.3171 -0.1653  0.1730
    2DPPC   C47   97   2.265   3.468   2.279 -0.1577 -0.4008 -0.2252
    2DPPC   C48   98   2.310   3.534   2.410  0.0107 -0.0397 -0.4623
    2DPPC   C49   99   2.200   3.583   2.503  0.5716  0.1227  0.1225
    2DPPC   C50  100   2.112   3.476   2.567  0.4708 -0.0068 -0.2366
    3DPPC    C1  101   1.197   2.740   1.166 -0.6452  0.9302  0.4984
    3DPPC    C2  102   1.011   2.586   1.174 -0.4098 -0.3683  0.5241
    3DPPC    C3  103   1.135   2.619   1.366  0.5462  0.1215 -0.2443
    3DPPC    N4  104   1.148   2.612   1.220 -0.2638  0.4275 -0.3329
    3DPPC    C5  105   1.236   2.503   1.176 -0.3818  0.2170 -0.0501
    3DPPC    C6  106   1.387   2.499   1.198 -0.3710 -0.0261 -0.1663
    3DPPC    O7  107   1.439   2.472   1.328 -0.0258 -0.1303 -0.3228
    3DPPC    P8  108   1.549   2.584   1.365 -0.0243 -0.2099 -0.0808
    3DPPC    O9  109   1.679   2.568   1.296 -0.2771 -0.2280 -0.5580
    3DPPC   O10  110   1.478   2.713   1.355  0.1584 -0.1035 -0.0145
    3DPPC   O11  111   1.541   2.536   1.518 -0.3083  0.1558  0.0184
    3DPPC   C12  112   1.431   2.596   1.587 -0.6095 -0.4060  0.0295
    3DPPC   C13  113   1.444   2.590   1.739 -0.2644  0.2534  0.0291
    3DPPC   O14  114   1.505   2.706   1.798 -0.3141 -0.0327  0.6545
    3DPPC   C15  115   1.434   2.810   1.848 -0.7450 -0.3157  0.6377
    3DPPC   O16  116   1.328   2.832   1.791 -0.3224 -0.2057 -0.1151
    3DPPC   C17  117   1.508   2.900   1.948  0.0552  0.1308 -0.3417
    3DPPC   C18  118   1.482   2.855   2.091  0.5353  0.0314 -0.2829
    3DPPC   C19  119   1.522   2.712   2.129 -0.3126 -0.0292  0.4369
    3DPPC   C20  120   1.503   2.702   2.280  0.3446 -0.4559  0.4959
    3DPPC   C21  121   1.608   2.796   2.342 -0.0300  0.1492  0.2205
    3DPPC   C22  122   1.604   2.781   2.494 -0.2642  0.5421  0.2544
    3DPPC   C23  123   1.720   2.866   2.548  0.1733 -0.0286  0.2281
    3DPPC   C24  124   1.743   2.828   2.694 -0.1452  0.0623  0.3044
    3DPPC   C25  125   1.673   2.902   2.809  0.1403  0.1592  0.4176
    3DPPC   C26  126   1.703   2.836   2.944  0.2289 -0.9418 -0.1250
    3DPPC   C27  127   1.854   2.835   2.970  0.2314  0.1359 -0.0582
    3DPPC   C28  128   1.873   2.784   3.113  0.0195  0.1911 -0.0100
    3DPPC   C29  129   2.016   2.764   3.166  0.1432 -0.8912 -0.7331
    3DPPC   C30  130   2.090   2.896   3.144 -0.1745 -0.5595  0.1425
    3DPPC   C31  131   2.237   2.900   3.186  0.0291  0.6049 -0.6166
    3DPPC   C32  132   1.495   2.452   1.782  0.0367  0.2112 -0.4574
    3DPPC   O33  133   1.403   2.346   1.757 -0.3140  0.4249 -0.0828
    3DPPC   C34  134   1.291   2.339   1.834  0.2100 -0.7991  0.6007
    3DPPC   O35  135   1.293   2.389   1.946  0.2396 -0.1194  0.3022
    3DPPC   C36  136   1.172   2.258   1.781 -0.2160 -0.0109  0.3262
    3DPPC   C37  137   1.148   2.122   1.846 -0.6796 -0.2732 -0.3808
    3DPPC   C38  138   1.121   2.113   1.996  0.2004  0.0562 -0.1964
    3DPPC   C39  139   0.998   2.204   2.006 -0.3068 -0.6625  0.2184
    3DPPC   C40  140   0.960   2.240   2.149 -0.4755 -0.2968  0.0805
    3DPPC   C41  141   0.917   2.114   2.225  0.1594 -0.2365  0.5484
    3DPPC   C42  142   0.912   2.149   2.373 -0.0809  0.6833  0.3289
    3DPPC   C43  143   0.841   2.039   2.452  0.6282  0.0579  0.1108
    3DPPC   C44  144   0.822   2.081   2.598  0.3644 -0.1154  0.1278
    3DPPC   C45  145   0.788   1.952   2.673 -0.1661 -0.1201 -0.1157
    3DPPC   C46  146   0.752   1.992   2.816  0.2053 -0.1506 -0.0120
    3DPPC   C47  147   0.879   2.045   2.883  0.2961 -0.5098  0.1049
    3DPPC   C48  148   0.831   2.107   3.014  0.1148  0.1932 -0.2902
    3DPPC   C49  149   0.951   2.109   3.109 -0.0750 -0.4345 -0.0342
    3DPPC   C50  150   0.916   2.131   3.257 -0.6931 -0.6426 -0.1462
    4DPPC    C1  151   2.255   4.469   1.546 -0.0430 -0.3895 -0.6307
    4DPPC    C2  152   2.274   4.694   1.479 -0.7306  0.1060  0.4346
    4DPPC    C3  153   2.056   4.583   1.501 -0.2430  0.4799 -0.4837
    4DPPC    N4  154   2.196   4.571   1.458 -0.2055 -0.1231 -0.2175
    4DPPC    C5  155   2.215   4.520   1.322  0.4071 -0.4932 -0.0007
    4DPPC    C6  156   2.113   4.419   1.267 -0.3536 -0.0228  0.5308
    4DPPC    O7  157   2.123   4.283   1.308 -0.2302 -0.2484 -0.2416
    4DPPC    P8  158   1.974   4.223   1.304 -0.3374  0.0007  0.0624
    4DPPC    O9  159   1.881   4.306   1.225  0.0924  0.5494  0.1282
    4DPPC   O10  160   1.988   4.080   1.270 -0.0665 -0.1049  0.6003
    4DPPC   O11  161   1.958   4.248   1.463  0.4758 -0.1333  0.1674
    4DPPC   C12  162   1.942   4.125   1.534  0.0019  0.0291  0.3399
    4DPPC   C13  163   1.910   4.154   1.681  0.7948  0.0586  0.5080
    4DPPC   O14  164   1.875   4.036   1.754  0.1269  0.3181  0.6145
    4DPPC   C15  165   1.773   3.951   1.723  0.6123  0.0414 -0.2877
    4DPPC   O16  166   1.707   3.966   1.621 -0.1042  0.5765  0.2412
    4DPPC   C17  167   1.763   3.820   1.802 -0.5245  0.3474  0.0924
    4DPPC   C18  168   1.800   3.832   1.950  0.3026 -0.2018 -0.0641
    4DPPC   C19  169   1.780   3.699   2.025  0.4639 -0.3287 -0.2473
    4DPPC   C20  170   1.790   3.723   2.175  0.0317  0.1586 -0.2928
    4DPPC   C21  171   1.794   3.594   2.257  0.2193  0.4441  0.1505
    4DPPC   C22  172   1.808   3.628   2.406 -0.3267  0.2100  0.2569
    4DPPC   C23  173   1.701   3.718   2.468 -0.3275 -0.0077  0.5773
    4DPPC   C24  174   1.751   3.768   2.603 -0.3075  0.3135  0.4532
    4DPPC   C25  175   1.630   3.835   2.668 -0.5822  0.0286  0.2377
    4DPPC   C26  176   1.663   3.889   2.807  0.1384 -0.0370  0.0928
    4DPPC   C27  177   1.699   3.771   2.898 -1.0998 -0.0995  0.5198
    4DPPC   C28  178   1.726   3.835   3.035  0.1382  0.0896  0.2000
    4DPPC   C29  179   1.606   3.910   3.093 -0.1636 -0.1544 -0.1042
    4DPPC   C30  180   1.645   3.980   3.223 -0.1526 -0.3571  0.0024
    4DPPC   C31  181   1.555   4.098   3.259 -0.1468 -0.3897  0.1251
    4DPPC   C32  182   1.808   4.267   1.693 -0.0456 -0.6528  0.1577
    4DPPC   O33  183   1.787   4.318   1.825  0.2701  0.3733 -0.1819
    4DPPC   C34  184   1.895   4.383   1.875  0.2204  0.2076  0.1407
    4DPPC   O35  185   1.995   4.415   1.811 -0.1053 -0.0365 -0.4938
    4DPPC   C36  186   1.896   4.409   2.026  0.2333  0.2128  0.1398
    4DPPC   C37  187   1.835   4.546   2.054 -0.0522  0.1163 -0.0028
    4DPPC   C38  188   1.897   4.585   2.189  0.0187  0.3283 -0.0956
    4DPPC   C39  189   1.828   4.711   2.242  0.0153  0.1522  0.3195
    4DPPC   C40  190   1.904   4.777   2.358  0.2310  0.5159 -0.0290
    4DPPC   C41  191   1.913   4.675   2.471 -0.7229  0.4752  0.0125
    4DPPC   C42  192   1.987   4.739   2.588 -0.3941  0.5466 -0.2344
    4DPPC   C43  193   2.039   4.644   2.696 -0.6620  0.4786 -0.1644
    4DPPC   C44  194   2.100   4.708   2.821 -0.8378 -0.0424  0.1901
    4DPPC   C45  195   2.137   4.592   2.915 -0.6782 -0.0471  0.1218
    4DPPC   C46  196   2.230   4.667   3.010 -0.6602 -0.3937  0.3793
    4DPPC   C47  197   2.162   4.788   3.073 -0.7348 -0.2689  0.0593
    4DPPC   C48  198   2.243   4.850   3.187 -0.3585  0.4126 -0.5640
    4DPPC   C49  199   2.184   4.986   3.225 -0.0403  0.4362 -0.1511
    4DPPC   C50  200   2.265   5.019   3.351  0.0292  0.3163 -0.1642
    5DPPC    C1  201   2.707   1.182   1.167  0.0285 -0.3134  0.4564
    5DPPC    C2  202   2.786   1.041   1.340 -0.1675 -0.1032  0.2885
    5DPPC    C3  203   2.564   1.011   1.254 -0.3710 -0.4352  0.4832
    5DPPC    N4  204   2.667   1.110   1.289 -0.3381 -0.3993  0.2864
    5DPPC    C5  205   2.604   1.196   1.391 -0.0852 -0.1124  0.1986
    5DPPC    C6  206   2.495   1.294   1.347 -0.1213 -0.1433  0.2201
    5DPPC    O7  207   2.363   1.245   1.374 -0.2248  0.0858  0.1323
    5DPPC    P8  208   2.272   1.378   1.367 -0.2997  0.0299  0.0443
    5DPPC    O9  209   2.305   1.472   1.258  0.0878 -0.3485 -0.1703
    5DPPC   O10  210   2.144   1.311   1.400 -0.1763 -0.1318  0.1968
    5DPPC   O11  211   2.326   1.446   1.503  0.5854 -0.6608  0.0514
    5DPPC   C12  212   2.264   1.403   1.625 -0.3919  0.5375  0.0005
    5DPPC   C13  213   2.331   1.435   1.759  0.2291 -0.4808 -0.0543
    5DPPC   O14  214   2.248   1.395   1.869 -0.0736  0.3983  0.0456
    5DPPC   C15  215   2.290   1.285   1.937  0.0037  0.0975 -0.4822
    5DPPC   O16  216   2.377   1.211   1.890  0.1749 -0.6644  0.9707
    5DPPC   C17  217   2.189   1.243   2.044 -0.0184  0.2003 -0.4625
    5DPPC   C18  218   2.057   1.217   1.971  0.0585 -0.0332 -0.5198
    5DPPC   C19  219   1.952   1.181   2.078  0.0111  0.2605 -0.4668
    5DPPC   C20  220   2.023   1.067   2.150 -1.0794  0.0762  0.3209
    5DPPC   C21  221   1.922   1.007   2.249 -0.7419 -0.8360  0.1276
    5DPPC   C22  222   1.876   1.120   2.342 -0.1777 -0.0547 -0.5217
    5DPPC   C23  223   1.738   1.084   2.396 -0.1468 -0.0026 -0.4075
    5DPPC   C24  224   1.722   1.180   2.514  0.1086 -0.5088  0.0440
    5DPPC   C25  225   1.832   1.134   2.611  0.3215 -0.0275  0.0330
    5DPPC   C26  226   1.795   1.155   2.758 -0.1207  0.3931 -0.1330
    5DPPC   C27  227   1.914   1.146   2.853 -0.0879  0.1547 -0.1958
    5DPPC   C28  228   1.851   1.149   2.993 -0.2100  0.1656 -0.2519
    5DPPC   C29  229   1.963   1.173   3.093  0.4674  0.1670 -0.9965
    5DPPC   C30  230   1.929   1.297   3.176  0.1485 -0.2760 -0.4529
    5DPPC   C31  231   2.010   1.295   3.306  0.1223 -0.5872 -0.4414
    5DPPC   C32  232   2.356   1.586   1.761  0.0448 -0.4512  0.0139
    5DPPC   O33  233   2.423   1.641   1.874  0.2651 -0.0496 -0.3091
    5DPPC   C34  234   2.553   1.605   1.894  0.1065 -0.3097  0.2765
    5DPPC   O35  235   2.613   1.531   1.816  0.1082 -0.2707  0.2405
    5DPPC   C36  236   2.619   1.657   2.022  0.1884 -0.1692  0.1769
    5DPPC   C37  237   2.617   1.547   2.128 -0.1246  0.2568  0.6194
    5DPPC   C38  238   2.675   1.613   2.253 -0.2174  0.4976  0.5358
    5DPPC   C39  239   2.702   1.512   2.364  0.1385 -0.0474 -0.0377
    5DPPC   C40  240   2.761   1.589   2.482  0.4109 -0.5261  0.1422
    5DPPC   C41  241   2.886   1.662   2.432 -0.3326  0.2732 -0.5613
    5DPPC   C42  242   2.936   1.751   2.546 -0.0900 -0.1035 -0.3763
    5DPPC   C43  243   3.023   1.870   2.506 -0.8492  0.4100 -0.5062
    5DPPC   C44  244   3.051   1.968   2.620 -0.3678 -0.2110 -0.0879
    5DPPC   C45  245   3.138   2.085   2.574  0.1683 -0.5861 -0.0430
    5DPPC   C46  246   3.159   2.183   2.689 -0.2944  0.0202 -0.4659
    5DPPC   C47  247   3.259   2.293   2.651  0.0548 -0.0526  0.2237
    5DPPC   C48  248   3.272   2.388   2.771  0.4975  0.1286  0.0346
    5DPPC   C49  249   3.356   2.318   2.877  0.5036 -0.0439 -0.0827
    5DPPC   C50  250   3.376   2.412   2.996  0.0640  0.1045 -0.1240
    6DPPC    C1  251   2.077   2.744   1.203  0.3657 -0.5684  0.0935
    6DPPC    C2  252   2.169   2.675   1.428  0.0331 -0.0642 -0.1907
    6DPPC    C3  253   1.960   2.788   1.390 -0.1765  0.0211  0.5792
    6DPPC    N4  254   2.054   2.688   1.337 -0.3064  0.0679  0.2546
    6DPPC    C5  255   1.978   2.564   1.321  0.2183 -0.2855  0.4623
    6DPPC    C6  256   2.029   2.443   1.241  0.2104 -0.1086  0.1866
    6DPPC    O7  257   2.159   2.399   1.283  0.4158  0.1072 -0.2225
    6DPPC    P8  258   2.248   2.312   1.181  0.1544 -0.3045 -0.1033
    6DPPC    O9  259   2.143   2.229   1.118 -0.3618  0.0918  0.2270
    6DPPC   O10  260   2.323   2.430   1.130 -0.2415 -0.0857 -0.1849
    6DPPC   O11  261   2.317   2.226   1.298 -0.1874  0.4167  0.6444
    6DPPC   C12  262   2.240   2.213   1.418 -1.2091 -0.6170 -0.0951
    6DPPC   C13  263   2.312   2.158   1.541  0.0970 -0.0905 -0.6015
    6DPPC   O14  264   2.230   2.167   1.658  0.3182 -0.0590 -0.4472
    6DPPC   C15  265   2.147   2.064   1.691  0.5742  0.0670  0.6363
    6DPPC   O16  266   2.119   1.981   1.604  0.3468  0.2464  0.5394
    6DPPC   C17  267   2.114   2.037   1.838 -0.2889 -0.0276  0.4314
    6DPPC   C18  268   2.094   2.164   1.920 -0.1190  0.1310  0.2279
    6DPPC   C19  269   2.045   2.137   2.062 -0.6740  0.5086  0.1155
    6DPPC   C20  270   2.035   2.262   2.149  0.7087  0.6026  0.1652
    6DPPC   C21  271   2.014   2.235   2.298 -0.2731 -0.4773 -0.1549
    6DPPC   C22  272   1.950   2.352   2.373  0.8220  0.1357 -0.1544
    6DPPC   C23  273   1.927   2.329   2.522 -0.0093  0.3033 -0.2549
    6DPPC   C24  274   1.879   2.454   2.596  0.3195  0.2496  0.0490
    6DPPC   C25  275   1.828   2.431   2.739  0.0059  0.0266 -0.0990
    6DPPC   C26  276   1.948   2.375   2.815  0.1430 -0.0283 -0.3523
    6DPPC   C27  277   1.952   2.394   2.967  0.1336  0.0904 -0.3668
    6DPPC   C28  278   2.088   2.360   3.028 -0.2013 -0.4094  0.1199
    6DPPC   C29  279   2.192   2.452   2.964 -0.0328 -0.5404  0.2056
    6DPPC   C30  280   2.326   2.423   3.031 -0.3207 -0.2219  0.9204
    6DPPC   C31  281   2.438   2.481   2.944 -0.9490 -0.1029  0.1918
    6DPPC   C32  282   2.445   2.234   1.550 -0.1073  0.1694  0.3630
    6DPPC   O33  283   2.542   2.155   1.618  0.2492 -0.1482 -0.4987
    6DPPC   C34  284   2.640   2.235   1.667 -0.3402  0.2502  0.0434
    6DPPC   O35  285   2.683   2.324   1.592 -0.4422 -0.3752 -0.7715
    6DPPC   C36  286   2.724   2.178   1.781 -0.2199 -0.7595 -0.5389
    6DPPC   C37  287   2.661   2.059   1.854 -0.4751 -0.5026 -0.3398
    6DPPC   C38  288   2.742   2.008   1.973  0.4533  0.5184 -0.5145
    6DPPC   C39  289   2.711   2.117   2.076 -0.3147 -0.0443 -0.1348
    6DPPC   C40  290   2.786   2.119   2.209 -0.4216  0.3673 -0.0780
    6DPPC   C41  291   2.779   2.246   2.294 -0.3265  0.1038  0.3259
    6DPPC   C42  292   2.870   2.365   2.263 -0.4508  0.1273  0.0494
    6DPPC   C43  293   2.863   2.461   2.382  0.2671  0.5104 -0.2103
    6DPPC   C44  294   2.946   2.584   2.346  0.5084  0.4268  0.0556
    6DPPC   C45  295   2.972   2.670   2.470 -0.3010  0.3913  0.2556
    6DPPC   C46  296   3.099   2.623   2.542 -0.1980  0.0379 -0.1472
    6DPPC   C47  297   3.127   2.700   2.672  0.5719 -0.3089 -0.1011
    6DPPC   C48  298   3.251   2.788   2.683  0.0377  0.5022 -0.4834
    6DPPC   C49  299   3.256   2.848   2.824  0.1117 -0.0319 -0.2596
    6DPPC   C50  300   3.350   2.965   2.849  0.2870 -0.2775  0.2336
    7DPPC    C1  301   2.001   3.306   1.529 -0.2739  0.1736 -0.0288
    7DPPC    C2  302   1.875   3.403   1.352  0.4950  0.3228 -0.5024
    7DPPC    C3  303   2.090   3.437   1.336  0.2695 -0.2431  0.0194
    7DPPC    N4  304   2.000   3.332   1.384  0.1198 -0.1686 -0.0962
    7DPPC    C5  305   1.995   3.210   1.303 -0.4254 -0.1818 -0.0494
    7DPPC    C6  306   2.130   3.138   1.291 -0.5619 -0.4389 -0.0471
    7DPPC    O7  307   2.169   3.068   1.410 -0.3489  0.4912  0.4446
    7DPPC    P8  308   2.324   3.025   1.398 -0.4424  0.1859  0.3134
    7DPPC    O9  309   2.328   2.920   1.294  0.0212  0.8166 -0.3166
    7DPPC   O10  310   2.382   3.161   1.384 -0.5014  0.1029 -0.8319
    7DPPC   O11  311   2.352   2.985   1.551  0.1335 -0.2691  0.0901
    7DPPC   C12  312   2.380   3.091   1.643  0.6903 -0.4446  0.1322
    7DPPC   C13  313   2.371   3.053   1.791 -0.0933  0.3477  0.2987
    7DPPC   O14  314   2.481   2.975   1.839  0.4453  0.2424 -1.0579
    7DPPC   C15  315   2.596   3.025   1.892 -0.5144  0.5604  0.8276
    7DPPC   O16  316   2.637   3.137   1.860  0.8974 -0.1061  0.1982
    7DPPC   C17  317   2.681   2.914   1.954 -0.6112 -0.1104 -0.2085
    7DPPC   C18  318   2.665   2.908   2.107 -0.2422  0.2460 -0.1553
    7DPPC   C19  319   2.665   3.041   2.183 -0.0251 -0.2238  0.6737
    7DPPC   C20  320   2.648   3.025   2.334 -0.5539 -0.3267  0.6052
    7DPPC   C21  321   2.630   3.157   2.410  0.2410  0.0840  0.0854
    7DPPC   C22  322   2.588   3.125   2.554  0.5523  0.4680  0.2624
    7DPPC   C23  323   2.686   3.026   2.618  0.1652  0.1859  0.4194
    7DPPC   C24  324   2.615   2.947   2.728 -0.4845 -0.1133 -0.2054
    7DPPC   C25  325   2.688   2.820   2.773  0.1567  0.3319  0.0283
    7DPPC   C26  326   2.779   2.847   2.893  0.1999 -0.1587  0.1064
    7DPPC   C27  327   2.847   2.721   2.946 -0.0275 -0.3254  0.0018
    7DPPC   C28  328   2.850   2.701   3.097  0.6249 -0.0118  0.0353
    7DPPC   C29  329   2.935   2.584   3.147 -0.1220 -0.5566  0.0607
    7DPPC   C30  330   2.963   2.587   3.298  0.3515 -0.3004 -0.0292
    7DPPC   C31  331   3.056   2.478   3.350  0.8138 -0.0906 -0.4059
    7DPPC   C32  332   2.237   2.981   1.801  0.2826 -0.3529  0.3024
    7DPPC   O33  333   2.121   3.064   1.796  0.1618 -0.5253  0.2376
    7DPPC   C34  334   2.005   2.995   1.782 -0.0948  0.0109 -0.3570
    7DPPC   O35  335   2.006   2.880   1.739 -0.3607  0.0002 -0.3370
    7DPPC   C36  336   1.876   3.078   1.788 -0.1876 -0.1454 -0.1469
    7DPPC   C37  337   1.867   3.161   1.916 -0.3511 -0.7944  0.2667
    7DPPC   C38  338   1.730   3.230   1.922  0.1578  0.2637 -0.1483
    7DPPC   C39  339   1.707   3.264   2.069  0.2847 -0.0370 -0.0590
    7DPPC   C40  340   1.678   3.153   2.171 -0.2163 -0.1271 -0.2950
    7DPPC   C41  341   1.687   3.194   2.318 -0.0343  0.5292 -0.4864
    7DPPC   C42  342   1.561   3.243   2.389  0.1121 -0.0954  0.2076
    7DPPC   C43  343   1.571   3.260   2.541  0.3381 -0.3852  0.2258
    7DPPC   C44  344   1.449   3.330   2.601  0.2355 -0.2291 -0.1635
    7DPPC   C45  345   1.455   3.344   2.753 -0.1304 -0.0086 -0.1687
    7DPPC   C46  346   1.327   3.406   2.811 -0.0617 -0.3559  0.3602
    7DPPC   C47  347   1.348   3.545   2.869 -0.2838 -0.0259 -0.3379
    7DPPC   C48  348   1.231   3.586   2.959 -0.1581 -0.3048 -0.0468
    7DPPC   C49  349   1.222   3.484   3.073  0.4207 -0.3266 -0.0141
    7DPPC   C50  350   1.114   3.527   3.172 -0.0300 -0.2486 -0.5319
    8DPPC    C1  351   2.748   3.231   1.557  0.0853 -0.2210 -0.3249
    8DPPC    C2  352   2.827   3.443   1.630 -0.1001  0.2491  0.1680
    8DPPC    C3  353   2.904   3.354   1.415  0.2837  0.3821  0.0150
    8DPPC    N4  354   2.794   3.363   1.512  0.4650 -0.1446  0.2737
    8DPPC    C5  355   2.676   3.422   1.446  0.6483  0.0140  0.0849
    8DPPC    C6  356   2.678   3.529   1.337 -0.8346  0.4633  0.4768
    8DPPC    O7  357   2.764   3.641   1.361 -0.3683  0.1987  0.0508
    8DPPC    P8  358   2.694   3.781   1.398 -0.0311  0.3938 -0.0459
    8DPPC    O9  359   2.802   3.866   1.453 -0.0714  0.1387  0.4301
    8DPPC   O10  360   2.612   3.813   1.279  0.0441  0.7238 -0.0094
    8DPPC   O11  361   2.603   3.735   1.523 -0.4034 -0.1902 -0.5227
    8DPPC   C12  362   2.546   3.852   1.582  0.1107 -0.3186  0.2408
    8DPPC   C13  363   2.449   3.811   1.693 -0.2479 -0.3958 -0.0979
    8DPPC   O14  364   2.380   3.920   1.756 -0.1433 -0.2857 -0.1757
    8DPPC   C15  365   2.264   3.896   1.823 -0.1556 -0.3787 -0.2314
    8DPPC   O16  366   2.212   3.786   1.806  0.4050 -0.7167  0.2022
    8DPPC   C17  367   2.192   4.012   1.892  0.3994 -0.1424 -0.0366
    8DPPC   C18  368   2.254   4.037   2.029 -0.1071 -0.6112  0.2811
    8DPPC   C19  369   2.173   4.137   2.111  0.6695  0.0939  0.1901
    8DPPC   C20  370   2.243   4.175   2.242  0.0142  0.1432  0.5295
    8DPPC   C21  371   2.328   4.301   2.221  0.1501 -0.1211 -0.5494
    8DPPC   C22  372   2.416   4.319   2.345  0.1162  0.3985 -0.6008
    8DPPC   C23  373   2.519   4.428   2.314 -0.2373  1.0007  0.2765
    8DPPC   C24  374   2.609   4.437   2.437 -0.4086 -0.6645  0.5523
    8DPPC   C25  375   2.511   4.475   2.549 -0.3768 -0.0942  0.3901
    8DPPC   C26  376   2.583   4.480   2.683  0.0053  0.1047  0.1770
    8DPPC   C27  377   2.616   4.339   2.733  0.6500  0.0175 -0.4852
    8DPPC   C28  378   2.690   4.345   2.866  0.0580  0.3048 -0.1662
    8DPPC   C29  379   2.662   4.230   2.962  0.5648  0.4947  0.2143
    8DPPC   C30  380   2.737   4.237   3.096  0.0032  0.6479  0.5236
    8DPPC   C31  381   2.698   4.125   3.192 -0.3717  0.2674 -0.0678
    8DPPC   C32  382   2.525   3.720   1.790 -0.0726  0.1509  0.2859
    8DPPC   O33  383   2.627   3.796   1.854 -0.0253  0.1913  0.1625
    8DPPC   C34  384   2.699   3.715   1.937 -0.2347  0.1929  0.3450
    8DPPC   O35  385   2.693   3.594   1.918  0.1064  0.3200 -0.6480
    8DPPC   C36  386   2.803   3.781   2.028  0.3116  0.2485 -0.3105
    8DPPC   C37  387   2.720   3.884   2.106  0.0069 -0.0542 -0.2281
    8DPPC   C38  388   2.642   3.836   2.228 -0.5267  0.2622 -0.4402
    8DPPC   C39  389   2.557   3.945   2.294 -0.0196  0.2168  0.2974
    8DPPC   C40  390   2.481   3.869   2.404  0.3695 -0.3190  0.2036
    8DPPC   C41  391   2.408   3.973   2.489 -0.5584 -0.6584 -0.1628
    8DPPC   C42  392   2.338   3.893   2.599 -0.5166 -0.0791  0.2942
    8DPPC   C43  393   2.247   3.979   2.686 -0.3898  0.2453  0.1070
    8DPPC   C44  394   2.329   4.085   2.760  0.0546  0.0570 -0.1130
    8DPPC   C45  395   2.254   4.173   2.860 -0.5437  0.0241 -0.5279
    8DPPC   C46  396   2.237   4.091   2.988 -0.3855 -0.0046 -0.5255
    8DPPC   C47  397   2.216   4.181   3.111  0.2111 -0.1736 -0.2969
    8DPPC   C48  398   2.337   4.271   3.135  0.2582 -0.4191  0.4291
    8DPPC   C49  399   2.300   4.367   3.248 -0.1018  0.1898 -0.1896
    8DPPC   C50  400   2.432   4.418   3.309  0.2115 -0.5069 -0.2749
    9DPPC    C1  401   3.229   1.923   1.087 -0.0025  0.3691 -0.1795
    9DPPC    C2  402   3.372   1.747   1.089 -0.3202  0.2269 -0.3981
    9DPPC    C3  403   3.385   1.923   1.269 -0.7066  0.2588  0.2178
    9DPPC    N4  404   3.367   1.889   1.127 -0.1795  0.0754  0.1933
    9DPPC    C5  405   3.456   1.966   1.039 -0.5671  0.0163 -0.2565
    9DPPC    C6  406   3.607   1.956   1.058 -0.5749 -0.1081 -0.2578
    9DPPC    O7  407   3.673   1.829   1.049  0.2644  0.2812  0.1797
    9DPPC    P8  408   3.812   1.842   1.129  0.0981  0.0739  0.5040
    9DPPC    O9  409   3.888   1.718   1.101  0.1387  0.3050 -0.4603
    9DPPC   O10  410   3.855   1.978   1.091  0.1722 -0.2397 -0.5796
    9DPPC   O11  411   3.749   1.831   1.276 -0.2864  0.3267  0.3596
    9DPPC   C12  412   3.709   1.697   1.306  0.0664  0.1996  0.2710
    9DPPC   C13  413   3.681   1.671   1.454 -0.3848  0.0099  0.1547
    9DPPC   O14  414   3.567   1.738   1.511 -0.1730  0.1853  0.3743
    9DPPC   C15  415   3.441   1.688   1.506 -0.1428  0.1361  0.0738
    9DPPC   O16  416   3.414   1.599   1.425  0.1751 -0.0894  0.2138
    9DPPC   C17  417   3.329   1.776   1.561 -0.2591  0.2377 -0.3187
    9DPPC   C18  418   3.378   1.836   1.693  0.1780 -0.2678 -0.2467
    9DPPC   C19  419   3.274   1.933   1.749  0.2011 -0.2051 -0.3118
    9DPPC   C20  420   3.318   1.987   1.885 -0.0407 -0.1340 -0.2620
    9DPPC   C21  421   3.205   2.081   1.930  0.3857  0.3162 -0.1239
    9DPPC   C22  422   3.253   2.143   2.061  0.2388  0.5640 -0.1878
    9DPPC   C23  423   3.301   2.026   2.147  0.3957  0.4099 -0.4826
    9DPPC   C24  424   3.393   2.088   2.252 -0.1035  0.0045  0.2051
    9DPPC   C25  425   3.447   1.984   2.350 -0.1906  0.3592  0.6332
    9DPPC   C26  426   3.552   2.047   2.442  0.6323 -0.1582  0.0617
    9DPPC   C27  427   3.527   1.993   2.583 -0.0147 -0.0456 -0.0089
    9DPPC   C28  428   3.626   2.051   2.684 -0.4729  0.3365  0.2278
    9DPPC   C29  429   3.605   1.994   2.825  0.0678  0.1599  0.2384
    9DPPC   C30  430   3.653   2.103   2.921  0.7153 -0.5653  0.7455
    9DPPC   C31  431   3.801   2.131   2.892  0.5475 -0.2999  0.1296
    9DPPC   C32  432   3.817   1.700   1.518 -0.1986 -0.0112 -0.2299
    9DPPC   O33  433   3.906   1.591   1.496 -0.0336  0.0208  0.2681
    9DPPC   C34  434   4.037   1.614   1.524 -0.1913  0.2585  0.8381
    9DPPC   O35  435   4.076   1.722   1.568  0.6118  0.4649 -0.3079
    9DPPC   C36  436   4.129   1.491   1.526  0.2998  0.6173  0.6267
    9DPPC   C37  437   4.078   1.368   1.601 -0.0869  0.1600 -0.3774
    9DPPC   C38  438   4.123   1.374   1.747  0.3571  0.0396 -0.5095
    9DPPC   C39  439   4.066   1.264   1.836  0.7430  0.0529 -0.2431
    9DPPC   C40  440   4.101   1.295   1.982 -0.3298 -0.3642  0.1126
    9DPPC   C41  441   4.043   1.187   2.074 -0.1618 -0.6559 -0.1241
    9DPPC   C42  442   4.077   1.220   2.219 -0.0554 -0.5267 -0.1774
    9DPPC   C43  443   4.016   1.113   2.310  0.4056 -0.3309  0.3682
    9DPPC   C44  444   4.049   1.138   2.458  0.9793 -0.4528  0.2637
    9DPPC   C45  445   4.011   1.017   2.543 -0.2279  0.1726  0.6393
    9DPPC   C46  446   4.049   1.026   2.690 -0.2758 -0.5837  0.7063
    9DPPC   C47  447   4.201   1.017   2.709 -0.0379  0.6404 -0.4467
    9DPPC   C48  448   4.235   1.051   2.854 -0.4325  0.0717 -0.2154
    9DPPC   C49  449   4.386   1.069   2.864 -0.4977  0.3361  0.3766
    9DPPC   C50  450   4.430   1.078   3.010 -0.2177 -0.4508  0.3485
   10DPPC    C1  451   2.724   2.437   1.223  0.3180 -0.1064  0.3011
   10DPPC    C2  452   2.610   2.250   1.128 -0.5566  0.3606  0.5441
   10DPPC    C3  453   2.791   2.343   1.009 -0.4519  0.2811 -0.0862
   10DPPC    N4  454   2.741   2.314   1.145 -0.3179  0.0476 -0.0858
   10DPPC    C5  455   2.815   2.226   1.237  0.0119 -0.1213 -0.5046
   10DPPC    C6  456   2.963   2.244   1.268 -0.0716 -0.0215 -0.1517
   10DPPC    O7  457   3.052   2.208   1.161 -0.1311 -0.2147 -0.1362
   10DPPC    P8  458   3.189   2.292   1.169 -0.2283 -0.0502 -0.1924
   10DPPC    O9  459   3.244   2.248   1.039  0.6894 -0.6973  0.3974
   10DPPC   O10  460   3.142   2.429   1.198 -0.0146 -0.0269  0.0491
   10DPPC   O11  461   3.263   2.225   1.296 -0.3758 -0.3699 -0.2743
   10DPPC   C12  462   3.377   2.306   1.325 -0.2523 -0.7559  0.3397
   10DPPC   C13  463   3.423   2.273   1.467 -0.5528  0.0372  0.6285
   10DPPC   O14  464   3.523   2.171   1.480 -0.3774  0.1813  0.4356
   10DPPC   C15  465   3.654   2.197   1.452 -0.4524 -0.2219 -0.3155
   10DPPC   O16  466   3.683   2.286   1.373 -0.0475  0.0139  0.0983
   10DPPC   C17  467   3.748   2.078   1.474 -0.2475  0.1103  0.6753
   10DPPC   C18  468   3.835   2.077   1.600  0.2746  0.0501  0.3178
   10DPPC   C19  469   3.741   2.077   1.720  0.3286  0.0387  0.3600
   10DPPC   C20  470   3.827   2.083   1.846  0.4703  0.2036  0.2558
   10DPPC   C21  471   3.748   2.115   1.973  0.2284 -0.4829  0.2826
   10DPPC   C22  472   3.851   2.162   2.075  0.1922 -0.3812  0.2727
   10DPPC   C23  473   3.761   2.211   2.189  0.1894 -0.9499  0.5190
   10DPPC   C24  474   3.857   2.278   2.287 -0.0675 -0.0017  0.1342
   10DPPC   C25  475   3.778   2.346   2.399 -0.2539 -0.3130  0.1929
   10DPPC   C26  476   3.875   2.384   2.511 -0.1498 -0.5182  0.1731
   10DPPC   C27  477   3.786   2.429   2.627  0.1883 -0.4887  0.4261
   10DPPC   C28  478   3.876   2.496   2.730 -0.1725 -0.0986  0.4927
   10DPPC   C29  479   3.804   2.560   2.849  0.0625 -0.2254  0.7055
   10DPPC   C30  480   3.909   2.624   2.940  0.1761 -0.1949  0.5518
   10DPPC   C31  481   3.868   2.619   3.087 -0.1863 -0.0315  0.4578
   10DPPC   C32  482   3.294   2.263   1.549 -1.0685  0.0234 -0.1755
   10DPPC   O33  483   3.218   2.382   1.572 -0.2643  0.5429 -0.1567
   10DPPC   C34  484   3.107   2.371   1.650 -0.3649  0.6990 -0.2794
   10DPPC   O35  485   3.054   2.261   1.661  0.0107  0.5477  0.0257
   10DPPC   C36  486   3.042   2.504   1.691 -0.7129  0.4686 -0.0820
   10DPPC   C37  487   3.063   2.522   1.842  0.0695 -0.0345 -0.1213
   10DPPC   C38  488   2.979   2.646   1.871  0.3472  0.1769 -0.2183
   10DPPC   C39  489   3.014   2.697   2.011  0.2800  0.4300 -0.2920
   10DPPC   C40  490   3.149   2.768   2.012  0.5596 -0.0907  0.0696
   10DPPC   C41  491   3.141   2.880   2.116  0.1622 -0.2432  0.2035
   10DPPC   C42  492   3.279   2.946   2.114  0.0764 -0.0665  0.0927
   10DPPC   C43  493   3.279   3.076   2.195  0.2297  0.1450 -0.2443
   10DPPC   C44  494   3.422   3.131   2.191  0.2579  0.1079  0.2397
   10DPPC   C45  495   3.428   3.265   2.265  0.2358  0.2861 -0.0778
   10DPPC   C46  496   3.570   3.322   2.265  0.4108 -0.1446  0.2692
   10DPPC   C47  497   3.581   3.441   2.360 -0.1008  0.3947 -0.3400
   10DPPC   C48  498   3.564   3.413   2.510 -0.0361  0.2195 -0.3650
   10DPPC   C49  499   3.483   3.521   2.582  0.3357 -0.0217  0.4248
   10DPPC   C50  500   3.454   3.482   2.727  0.3283  0.0170  0.4336
   11DPPC    C1  501   3.380   2.865   0.693 -0.0356 -0.4430  0.3218
   11DPPC    C2  502   3.451   3.056   0.808  0.3713  0.4230 -0.3840
   11DPPC    C3  503   3.452   2.837   0.910  0.5332 -0.1554 -0.1585
   11DPPC    N4  504   3.377   2.930   0.824  0.8010  0.2190  0.0162
   11DPPC    C5  505   3.238   2.937   0.871  0.7393  0.0461 -0.1410
   11DPPC    C6  506   3.203   3.002   1.005 -0.5590 -0.3592 -0.2735
   11DPPC    O7  507   3.090   3.089   0.989 -0.6125 -0.3962 -0.0959
   11DPPC    P8  508   3.065   3.173   1.125 -0.1169  0.1178 -0.3159
   11DPPC    O9  509   3.184   3.236   1.187  0.0318 -0.2763 -0.1964
   11DPPC   O10  510   2.935   3.243   1.121 -0.1045  0.1750  0.2261
   11DPPC   O11  511   3.038   3.051   1.227  0.0632  0.3634  0.0255
   11DPPC   C12  512   2.901   3.034   1.264  0.0700  0.0250 -0.1068
   11DPPC   C13  513   2.882   2.902   1.340  0.6338 -0.4928 -0.8426
   11DPPC   O14  514   2.755   2.849   1.381  0.6922 -0.2043 -0.2792
   11DPPC   C15  515   2.747   2.725   1.436  0.3321 -0.0205  0.0872
   11DPPC   O16  516   2.845   2.651   1.444  0.3460 -0.0157 -0.0341
   11DPPC   C17  517   2.600   2.683   1.444  0.1724  0.4724 -0.2344
   11DPPC   C18  518   2.534   2.690   1.582 -0.2220 -0.2333 -0.3884
   11DPPC   C19  519   2.608   2.609   1.689 -0.0270  0.2725 -0.1401
   11DPPC   C20  520   2.536   2.564   1.816  0.0745 -0.4457 -0.3357
   11DPPC   C21  521   2.409   2.479   1.813  0.1985 -0.6316 -0.3714
   11DPPC   C22  522   2.363   2.492   1.958 -0.3153  0.1399 -0.5962
   11DPPC   C23  523   2.474   2.460   2.058 -0.3500  0.2568 -0.5200
   11DPPC   C24  524   2.440   2.483   2.205 -0.1915  0.8022 -0.5688
   11DPPC   C25  525   2.469   2.628   2.245  0.8502  0.4611 -0.0557
   11DPPC   C26  526   2.418   2.643   2.388 -0.1870  0.1097 -0.3812
   11DPPC   C27  527   2.267   2.618   2.399 -0.2056  0.4537  0.2177
   11DPPC   C28  528   2.220   2.616   2.544 -0.5583  0.1572  0.1020
   11DPPC   C29  529   2.250   2.751   2.609 -0.0363  0.0711  0.0463
   11DPPC   C30  530   2.205   2.774   2.754 -0.0232 -1.3160  0.2756
   11DPPC   C31  531   2.223   2.916   2.805 -0.0488 -0.9953 -0.5816
   11DPPC   C32  532   2.981   2.913   1.457  0.2302 -0.0455 -0.5393
   11DPPC   O33  533   2.973   3.031   1.538  0.5210 -0.1935 -0.2958
   11DPPC   C34  534   3.050   3.024   1.650  0.1659 -0.2997 -0.0555
   11DPPC   O35  535   3.111   2.921   1.680  0.0782 -0.1376  0.6900
   11DPPC   C36  536   3.079   3.156   1.723  0.3186 -0.2061 -0.2854
   11DPPC   C37  537   3.025   3.171   1.865 -0.1057  0.2103 -0.4863
   11DPPC   C38  538   3.005   3.315   1.913  0.1742  0.1670 -0.2365
   11DPPC   C39  539   2.956   3.338   2.056  0.2968 -0.2157 -0.1311
   11DPPC   C40  540   3.082   3.372   2.136  0.1388 -0.5992  0.2837
   11DPPC   C41  541   3.058   3.417   2.281 -0.3856  0.0287  0.0091
   11DPPC   C42  542   3.028   3.301   2.376  0.1836  0.1116  0.2955
   11DPPC   C43  543   3.057   3.330   2.523 -0.3475  0.1525  0.3935
   11DPPC   C44  544   2.924   3.314   2.597 -0.6299  0.0884 -0.1262
   11DPPC   C45  545   2.937   3.337   2.748  0.4079  0.3323 -0.2472
   11DPPC   C46  546   2.938   3.209   2.831  0.0871  0.3501 -0.2151
   11DPPC   C47  547   2.987   3.225   2.975 -0.3968 -0.1076  0.0013
   11DPPC   C48  548   3.033   3.094   3.041 -0.5449 -0.1149  0.0909
   11DPPC   C49  549   3.092   3.134   3.177 -0.6528  0.1017  0.0752
   11DPPC   C50  550   3.209   3.231   3.159  0.0732 -0.6303  0.7752
   12DPPC    C1  551   3.809   1.124   1.564 -0.1093  0.5411  0.3273
   12DPPC    C2  552   3.802   1.160   1.324 -0.6094 -0.4084 -0.3632
   12DPPC    C3  553   3.672   1.287   1.463 -0.1103 -0.0728 -0.2147
   12DPPC    N4  554   3.723   1.150   1.447  0.0371 -0.0526  0.0860
   12DPPC    C5  555   3.632   1.035   1.442  0.1337 -0.1354  0.2275
   12DPPC    C6  556   3.509   1.043   1.352  0.1369  0.6535  0.2885
   12DPPC    O7  557   3.399   1.023   1.441  0.2025  0.1754  0.2634
   12DPPC    P8  558   3.284   1.125   1.390  0.3180  0.3195  0.2922
   12DPPC    O9  559   3.321   1.176   1.256  0.4059  0.2405  0.2858
   12DPPC   O10  560   3.153   1.077   1.440  0.2768 -0.1860 -0.2899
   12DPPC   O11  561   3.322   1.231   1.506  0.3080  0.2860  0.3260
   12DPPC   C12  562   3.279   1.192   1.637 -0.0156 -0.4600  0.0073
   12DPPC   C13  563   3.318   1.286   1.751 -0.1023  0.1023 -0.4233
   12DPPC   O14  564   3.205   1.366   1.790 -0.2817 -0.3829  0.0572
   12DPPC   C15  565   3.113   1.301   1.865 -0.5293  0.1054  0.1740
   12DPPC   O16  566   3.092   1.180   1.864 -0.3536  0.0810 -0.4477
   12DPPC   C17  567   3.002   1.392   1.919 -0.5863  0.0397  0.1668
   12DPPC   C18  568   2.935   1.342   2.048 -0.7516  0.1700  0.1329
   12DPPC   C19  569   3.025   1.344   2.172 -0.7163  0.4096  0.1025
   12DPPC   C20  570   3.122   1.463   2.171 -0.1577 -0.0364  0.5772
   12DPPC   C21  571   3.211   1.441   2.294 -0.6419 -0.5248  0.8468
   12DPPC   C22  572   3.323   1.544   2.302 -0.5491 -0.5971  0.4810
   12DPPC   C23  573   3.399   1.554   2.434  0.1382  0.4680  0.0236
   12DPPC   C24  574   3.308   1.576   2.555  0.0208 -0.6021  0.1426
   12DPPC   C25  575   3.367   1.622   2.688 -0.1313 -0.2298  0.0845
   12DPPC   C26  576   3.410   1.502   2.772  0.5862  0.0541  0.1355
   12DPPC   C27  577   3.523   1.411   2.723  0.0545 -0.5099 -0.0647
   12DPPC   C28  578   3.658   1.482   2.734 -0.3591  0.3449 -0.3896
   12DPPC   C29  579   3.773   1.417   2.657 -0.2414  0.0871  0.0017
   12DPPC   C30  580   3.897   1.506   2.643  0.1258 -0.3642  0.3265
   12DPPC   C31  581   3.952   1.569   2.771  0.0419  0.0287  0.1724
   12DPPC   C32  582   3.448   1.362   1.721  0.0390  0.2303  0.5068
   12DPPC   O33  583   3.507   1.424   1.836  0.0124  0.2628  0.5030
   12DPPC   C34  584   3.632   1.474   1.817 -0.2013  0.6605  0.1148
   12DPPC   O35  585   3.710   1.449   1.726  0.2906 -0.2835  0.7771
   12DPPC   C36  586   3.702   1.536   1.939  0.1143 -0.3078  0.4359
   12DPPC   C37  587   3.803   1.641   1.891 -0.2033 -0.1984 -0.0018
   12DPPC   C38  588   3.901   1.665   2.006 -0.1346 -0.1386 -0.0725
   12DPPC   C39  589   3.826   1.713   2.130 -0.4436  0.0751 -0.3421
   12DPPC   C40  590   3.918   1.698   2.251 -0.3968  1.0168 -0.2517
   12DPPC   C41  591   3.882   1.763   2.385 -0.3463  0.2024  0.1628
   12DPPC   C42  592   3.989   1.872   2.400 -0.2514  0.1490 -0.1084
   12DPPC   C43  593   3.972   1.949   2.532  0.0403  0.4535 -0.2480
   12DPPC   C44  594   4.083   2.050   2.558  0.3097  0.2638 -0.6398
   12DPPC   C45  595   4.095   2.092   2.705 -0.4250  0.2138 -0.5616
   12DPPC   C46  596   4.209   2.192   2.722  0.0804 -0.4578  0.0359
   12DPPC   C47  597   4.203   2.252   2.863 -0.3288  0.1412 -0.2306
   12DPPC   C48  598   4.301   2.367   2.892 -0.0386 -0.1204 -0.1629
   12DPPC   C49  599   4.303   2.412   3.038 -0.0171 -0.1923 -0.1411
   12DPPC   C50  600   4.307   2.564   3.038 -0.1427 -0.1893  0.0266
   13DPPC    C1  601   4.180   3.181   1.420  0.4523  0.0213  0.4000
   13DPPC    C2  602   4.366   3.141   1.558  0.6182 -0.1504 -0.7089
   13DPPC    C3  603   4.158   3.131   1.659 -0.1034  0.4784  0.1578
   13DPPC    N4  604   4.227   3.100   1.533  0.3270  0.0725  0.4887
   13DPPC    C5  605   4.229   2.956   1.502 -0.2331  0.1491  0.0896
   13DPPC    C6  606   4.088   2.906   1.469 -0.2155  0.1361  0.0358
   13DPPC    O7  607   4.089   2.773   1.416 -0.3738 -0.2050  0.8821
   13DPPC    P8  608   3.942   2.719   1.376 -0.1719 -0.3101  0.2716
   13DPPC    O9  609   3.868   2.833   1.317  0.3193 -0.1387 -0.0153
   13DPPC   O10  610   3.959   2.591   1.303 -0.3879 -0.3768  0.3371
   13DPPC   O11  611   3.887   2.680   1.522 -0.1981  0.0249  0.3515
   13DPPC   C12  612   3.940   2.552   1.555 -0.0560 -0.0871 -0.2996
   13DPPC   C13  613   3.905   2.510   1.698 -0.3850 -0.4717 -0.4904
   13DPPC   O14  614   3.972   2.389   1.736 -0.1474 -0.0681  0.4232
   13DPPC   C15  615   4.083   2.404   1.812 -0.0511 -0.1216  0.2936
   13DPPC   O16  616   4.107   2.510   1.869 -0.3786 -0.0584  0.3142
   13DPPC   C17  617   4.157   2.274   1.847 -0.2119 -0.2226  0.2581
   13DPPC   C18  618   4.224   2.281   1.984  0.4343  0.3560 -0.0795
   13DPPC   C19  619   4.372   2.320   1.993  0.5472  0.0570 -0.6174
   13DPPC   C20  620   4.446   2.328   2.126  0.2710  0.0250 -0.4607
   13DPPC   C21  621   4.579   2.395   2.091  0.5992 -0.0741  0.5695
   13DPPC   C22  622   4.635   2.291   1.993 -0.3537  0.1266 -0.2019
   13DPPC   C23  623   4.765   2.350   1.937 -0.2335  0.2366  0.1912
   13DPPC   C24  624   4.879   2.343   2.039 -0.2041 -0.6386  0.0984
   13DPPC   C25  625   4.936   2.206   2.078 -0.1756 -0.5785  0.2702
   13DPPC   C26  626   5.006   2.220   2.213  0.7407 -0.1729 -0.2380
   13DPPC   C27  627   4.915   2.281   2.320  0.7048  1.0129 -0.9245
   13DPPC   C28  628   4.981   2.283   2.458 -0.2712  0.2063 -0.4393
   13DPPC   C29  629   5.109   2.365   2.448  0.3304 -0.6506  0.1332
   13DPPC   C30  630   5.175   2.395   2.583  0.0400 -0.1367  0.1613
   13DPPC   C31  631   5.317   2.448   2.563 -0.2456  0.3905 -0.5059
   13DPPC   C32  632   3.752   2.505   1.699 -0.4021 -0.0018 -0.3393
   13DPPC   O33  633   3.691   2.546   1.822 -0.3518  0.4403 -0.4589
   13DPPC   C34  634   3.562   2.505   1.830 -0.3704  0.5127 -0.3883
   13DPPC   O35  635   3.494   2.473   1.732 -0.2043 -0.1241 -0.3018
   13DPPC   C36  636   3.486   2.534   1.959  0.0650 -0.1295  0.0202
   13DPPC   C37  637   3.536   2.458   2.082  0.2094 -0.4140 -0.2148
   13DPPC   C38  638   3.432   2.459   2.194  0.4250  0.5572 -0.0128
   13DPPC   C39  639   3.423   2.599   2.255  0.0172  0.3994  0.2983
   13DPPC   C40  640   3.536   2.609   2.357  0.3743 -0.0312 -0.0531
   13DPPC   C41  641   3.550   2.753   2.406  0.1182 -0.2240  0.5890
   13DPPC   C42  642   3.652   2.755   2.520  0.3214  0.2537  0.3991
   13DPPC   C43  643   3.749   2.874   2.527 -0.1603  0.6453  0.4382
   13DPPC   C44  644   3.681   3.004   2.570 -0.8669  0.5371 -0.3146
   13DPPC   C45  645   3.793   3.108   2.551 -0.2871 -0.0908 -0.3687
   13DPPC   C46  646   3.843   3.111   2.407  0.6158 -0.1401 -0.0616
   13DPPC   C47  647   3.979   3.178   2.388  0.4043  0.3297  0.0731
   13DPPC   C48  648   4.043   3.130   2.257 -0.4410  0.0856 -0.2537
   13DPPC   C49  649   4.191   3.166   2.250 -0.4431  0.1375 -0.0499
   13DPPC   C50  650   4.253   3.083   2.138  0.2336 -0.0078  0.4280
   14DPPC    C1  651   3.373   2.768   1.575  0.5709 -0.2768  0.0017
   14DPPC    C2  652   3.595   2.890   1.563 -0.4994  0.0856 -0.7003
   14DPPC    C3  653   3.454   2.917   1.737  0.4062 -0.5413  0.6936
   14DPPC    N4  654   3.451   2.892   1.593 -0.2471  0.1648  0.5811
   14DPPC    C5  655   3.379   2.993   1.514  0.0391 -0.2317 -0.1979
   14DPPC    C6  656   3.410   3.143   1.508  0.2938 -0.2582  0.4194
   14DPPC    O7  657   3.415   3.196   1.641  0.1867  0.2834  0.2117
   14DPPC    P8  658   3.532   3.307   1.645  0.1244  0.3406  0.4916
   14DPPC    O9  659   3.599   3.297   1.513 -0.8537 -0.2132  0.0163
   14DPPC   O10  660   3.469   3.432   1.694 -0.2226  0.2682  0.2415
   14DPPC   O11  661   3.628   3.233   1.750  0.2355 -0.4734 -0.1700
   14DPPC   C12  662   3.634   3.301   1.876  0.1071 -0.2907 -0.2630
   14DPPC   C13  663   3.753   3.257   1.961  0.3226 -0.0509 -0.4386
   14DPPC   O14  664   3.860   3.350   1.982 -0.0486  0.2851 -0.0328
   14DPPC   C15  665   3.935   3.398   1.879  0.3171 -0.6707 -0.2145
   14DPPC   O16  666   3.921   3.355   1.764 -0.3009 -0.2589 -0.2990
   14DPPC   C17  667   4.034   3.507   1.918 -0.1438 -0.2292 -0.2717
   14DPPC   C18  668   4.123   3.477   2.039  0.6541  0.1665 -0.7547
   14DPPC   C19  669   4.235   3.581   2.054  0.1077  0.6218  0.3194
   14DPPC   C20  670   4.333   3.522   2.156  0.5936 -0.7181 -0.8737
   14DPPC   C21  671   4.477   3.573   2.143  0.5119 -0.3042 -0.2071
   14DPPC   C22  672   4.547   3.494   2.255  0.0082  0.1863  0.4590
   14DPPC   C23  673   4.695   3.499   2.219 -0.1191 -0.0661 -0.1057
   14DPPC   C24  674   4.770   3.416   2.323 -0.2709 -0.0063  0.0518
   14DPPC   C25  675   4.791   3.499   2.450 -0.1955  0.3081 -0.1629
   14DPPC   C26  676   4.890   3.613   2.430 -0.0997  0.2808  0.1481
   14DPPC   C27  677   4.890   3.705   2.553  0.3315 -0.2524  0.5509
   14DPPC   C28  678   4.745   3.751   2.572  0.3607  0.1591 -0.1757
   14DPPC   C29  679   4.719   3.826   2.703  0.1576  0.1364 -0.2037
   14DPPC   C30  680   4.579   3.883   2.679  0.0097 -0.0380  0.2426
   14DPPC   C31  681   4.572   3.958   2.546  0.1252 -0.3827  0.0426
   14DPPC   C32  682   3.798   3.114   1.928  0.6420 -0.1177  0.2701
   14DPPC   O33  683   3.719   3.012   1.990  0.6873 -0.1653  0.2482
   14DPPC   C34  684   3.759   2.885   1.961  0.3792 -0.2630  0.2464
   14DPPC   O35  685   3.773   2.859   1.841 -0.1474  0.1885  0.0832
   14DPPC   C36  686   3.698   2.787   2.062  0.1110 -0.3273  0.0238
   14DPPC   C37  687   3.808   2.732   2.153  0.4539  0.8459  0.3405
   14DPPC   C38  688   3.933   2.671   2.090  0.0760  0.4933 -0.0733
   14DPPC   C39  689   4.026   2.612   2.196 -0.9387 -0.3709  0.3508
   14DPPC   C40  690   4.085   2.714   2.294 -0.6674 -0.8553  0.6974
   14DPPC   C41  691   4.186   2.651   2.390  0.1407 -0.2093  0.2784
   14DPPC   C42  692   4.128   2.648   2.531 -0.1047 -0.2025  0.1780
   14DPPC   C43  693   4.099   2.793   2.572  0.6380 -0.1133  0.4138
   14DPPC   C44  694   4.098   2.823   2.722 -0.2755 -0.4767  0.4877
   14DPPC   C45  695   4.099   2.974   2.746 -0.0782 -0.4131  0.0945
   14DPPC   C46  696   4.222   3.044   2.689 -0.3507 -0.0130 -0.0062
   14DPPC   C47  697   4.348   2.981   2.750 -0.4787  0.1322  0.4101
   14DPPC   C48  698   4.471   3.032   2.676 -0.2724 -0.6042  0.2369
   14DPPC   C49  699   4.451   3.012   2.526  0.4927  0.0160  0.0421
   14DPPC   C50  700   4.549   3.075   2.426  0.2407 -0.3507 -0.4433
   15DPPC    C1  701   3.841   4.269   1.903  0.1959 -0.4081 -0.0658
   15DPPC    C2  702   3.857   4.478   1.791  0.2850  0.0035  0.9860
   15DPPC    C3  703   4.055   4.376   1.851 -0.4079 -0.0451  0.1041
   15DPPC    N4  704   3.919   4.346   1.806 -0.1830 -0.3831 -0.3513
   15DPPC    C5  705   3.918   4.277   1.676 -0.1069 -0.1142 -0.4955
   15DPPC    C6  706   4.003   4.152   1.648  0.0550 -0.0397 -0.3340
   15DPPC    O7  707   3.943   4.035   1.704 -0.3731  0.2832 -0.1126
   15DPPC    P8  708   4.039   3.907   1.685 -0.3136  0.2982  0.0874
   15DPPC    O9  709   3.978   3.772   1.681 -0.3212  0.3026  0.0500
   15DPPC   O10  710   4.166   3.949   1.622  0.2011 -0.6901  0.4623
   15DPPC   O11  711   4.088   3.926   1.837  0.0268 -0.3163  0.0567
   15DPPC   C12  712   3.993   3.867   1.926 -0.6563  0.6854  0.0141
   15DPPC   C13  713   4.046   3.896   2.067  0.2254 -0.8652  0.0306
   15DPPC   O14  714   4.009   3.805   2.172  0.6407  0.0045  0.9500
   15DPPC   C15  715   3.883   3.782   2.219  0.3501 -0.1529  0.1153
   15DPPC   O16  716   3.786   3.821   2.154  0.0219 -0.2825  0.5292
   15DPPC   C17  717   3.871   3.670   2.322  0.0804 -0.4001 -0.1819
   15DPPC   C18  718   3.985   3.683   2.423 -0.5186  0.0681  0.4419
   15DPPC   C19  719   3.977   3.569   2.525 -0.0243 -0.1114  0.2815
   15DPPC   C20  720   4.093   3.580   2.625  0.0549  0.5634  0.1227
   15DPPC   C21  721   4.223   3.575   2.545  0.0936  0.1520  0.2097
   15DPPC   C22  722   4.338   3.567   2.646 -0.0547 -0.3223  0.3417
   15DPPC   C23  723   4.314   3.455   2.748  0.1419 -0.1990  0.5252
   15DPPC   C24  724   4.432   3.439   2.844  0.2866 -0.4236  0.3135
   15DPPC   C25  725   4.405   3.360   2.972  0.5428 -1.1097 -0.0549
   15DPPC   C26  726   4.503   3.401   3.082  0.6584 -0.5700 -0.3578
   15DPPC   C27  727   4.476   3.322   3.210  0.4755 -0.1054 -0.1055
   15DPPC   C28  728   4.568   3.367   3.324  0.2949 -0.3089  0.1229
   15DPPC   C29  729   4.536   3.504   3.386  0.3949 -0.3177  0.1943
   15DPPC   C30  730   4.641   3.547   3.488  0.0700  0.0918  0.3584
   15DPPC   C31  731   4.609   3.695   3.511  0.8394  0.2446  0.4914
   15DPPC   C32  732   4.013   4.043   2.092  0.7981 -0.7669  0.2154
   15DPPC   O33  733   4.059   4.091   2.219  0.6413  0.0605 -0.0348
   15DPPC   C34  734   4.046   4.225   2.243 -0.4602 -0.0618  0.0934
   15DPPC   O35  735   3.983   4.305   2.174  0.7130  0.6903 -0.1291
   15DPPC   C36  736   4.111   4.284   2.368  0.4281 -0.2785 -0.2567
   15DPPC   C37  737   4.156   4.174   2.465 -0.6933 -0.6129 -0.0991
   15DPPC   C38  738   4.236   4.244   2.575 -0.2785 -0.3591 -0.5549
   15DPPC   C39  739   4.245   4.135   2.683  0.0310  0.2895  0.0867
   15DPPC   C40  740   4.296   4.184   2.818  0.4247 -0.2981  0.1500
   15DPPC   C41  741   4.226   4.113   2.935 -0.5150  0.4548  0.0512
   15DPPC   C42  742   4.257   3.964   2.940 -0.0052  0.5341 -0.5760
   15DPPC   C43  743   4.198   3.891   3.061  0.0858  0.5784 -0.5045
   15DPPC   C44  744   4.244   3.745   3.066 -0.0427  0.5533  0.0730
   15DPPC   C45  745   4.183   3.666   3.181 -0.2098  0.6834  0.0744
   15DPPC   C46  746   4.036   3.630   3.161  0.0164 -0.3375  0.1625
   15DPPC   C47  747   4.005   3.558   3.029 -0.1057  0.1381 -0.0719
   15DPPC   C48  748   3.868   3.490   3.028 -0.1994  0.2999  0.8831
   15DPPC   C49  749   3.850   3.364   3.115 -0.3847 -0.0858  0.2913
   15DPPC   C50  750   3.935   3.251   3.055 -0.4813 -0.1444  0.2653
   16DPPC    C1  751   0.335   1.155   1.185 -0.0178 -0.4860 -0.1916
   16DPPC    C2  752   0.461   1.312   1.076  0.1172  0.4499  0.6254
   16DPPC    C3  753   0.349   1.365   1.282 -0.1824 -0.5440  0.6111
   16DPPC    N4  754   0.430   1.265   1.211 -0.2749 -0.3673  0.2525
   16DPPC    C5  755   0.542   1.201   1.281 -0.1182 -0.0355  0.3011
   16DPPC    C6  756   0.647   1.286   1.354 -0.1562 -0.1068  0.4392
   16DPPC    O7  757   0.770   1.221   1.388 -0.1261 -0.2928 -0.0113
   16DPPC    P8  758   0.883   1.331   1.422 -0.0406 -0.4258  0.1373
   16DPPC    O9  759   1.016   1.266   1.411  0.1336 -0.1853  0.7962
   16DPPC   O10  760   0.843   1.454   1.351  0.9247 -0.0899  0.1560
   16DPPC   O11  761   0.837   1.347   1.575  0.5701  0.5683  0.2248
   16DPPC   C12  762   0.820   1.481   1.621 -0.0201  0.6532 -0.2295
   16DPPC   C13  763   0.810   1.498   1.773 -0.0159 -0.0758 -0.1472
   16DPPC   O14  764   0.807   1.635   1.816 -0.1418 -0.2240  0.3256
   16DPPC   C15  765   0.685   1.692   1.833 -0.3422 -0.5691  0.0706
   16DPPC   O16  766   0.591   1.665   1.758 -0.2623 -0.2923 -0.1291
   16DPPC   C17  767   0.678   1.818   1.919 -0.3594 -0.2903 -0.3353
   16DPPC   C18  768   0.725   1.793   2.062 -0.4606  0.3134 -0.1922
   16DPPC   C19  769   0.673   1.679   2.150  1.3177 -0.7292 -0.4270
   16DPPC   C20  770   0.744   1.677   2.286 -0.4054  0.0447  0.5252
   16DPPC   C21  771   0.692   1.549   2.350 -0.3439 -0.0442  0.3987
   16DPPC   C22  772   0.772   1.521   2.478  0.4598  0.3774 -0.0060
   16DPPC   C23  773   0.923   1.498   2.466  0.4182 -0.0117  0.1962
   16DPPC   C24  774   0.992   1.458   2.597  0.0851 -0.0514  0.3617
   16DPPC   C25  775   0.956   1.570   2.694 -0.2219 -0.0341  0.2286
   16DPPC   C26  776   1.033   1.551   2.825 -0.2489 -0.6961  0.1527
   16DPPC   C27  777   0.989   1.646   2.937 -0.0031  0.2408 -0.5295
   16DPPC   C28  778   1.061   1.619   3.069 -0.6119  0.1544 -0.2098
   16DPPC   C29  779   1.006   1.681   3.197 -0.8686 -0.0079 -0.2430
   16DPPC   C30  780   1.099   1.641   3.312 -0.3147  0.3535 -0.5648
   16DPPC   C31  781   1.243   1.686   3.287 -0.0509 -0.1675 -0.0007
   16DPPC   C32  782   0.923   1.419   1.839  0.3189  0.2390 -0.3411
   16DPPC   O33  783   0.942   1.419   1.981  0.5654  0.0862 -0.3725
   16DPPC   C34  784   0.980   1.296   2.024 -0.5579 -0.2623 -0.3254
   16DPPC   O35  785   1.002   1.210   1.939  0.1706 -0.4513  0.0448
   16DPPC   C36  786   1.012   1.270   2.172  0.4366  0.0034 -0.4844
   16DPPC   C37  787   1.103   1.150   2.199 -0.3067 -0.3746  0.3733
   16DPPC   C38  788   1.184   1.174   2.327 -0.5996  0.3639  0.4282
   16DPPC   C39  789   1.291   1.069   2.360 -0.8727 -0.0096  0.1353
   16DPPC   C40  790   1.363   1.106   2.489 -0.5098 -0.1679 -0.0213
   16DPPC   C41  791   1.258   1.114   2.600 -0.0783  0.3324  0.3608
   16DPPC   C42  792   1.309   1.059   2.733 -0.4738  0.2325  0.4729
   16DPPC   C43  793   1.403   1.164   2.793 -0.3493  0.3885  0.0036
   16DPPC   C44  794   1.430   1.118   2.936  0.1568 -0.3783 -0.3302
   16DPPC   C45  795   1.515   1.226   3.003 -0.5478  0.0665 -0.1337
   16DPPC   C46  796   1.537   1.198   3.152  0.2568  0.1393 -0.2311
   16DPPC   C47  797   1.529   1.338   3.214 -0.2427  0.0972 -0.1935
   16DPPC   C48  798   1.559   1.329   3.364  0.0594 -0.3480 -0.2783
   16DPPC   C49  799   1.553   1.468   3.426 -0.1099 -0.2758 -0.4559
   16DPPC   C50  800   1.546   1.441   3.576 -0.1197 -0.3593 -0.4711
   17DPPC    C1  801   1.768   1.011   1.100  0.3193  0.1331  0.5907
   17DPPC    C2  802   1.936   1.175   1.179  0.5182  0.3430  0.2745
   17DPPC    C3  803   1.816   1.029   1.330  0.5559 -0.0700  0.1965
   17DPPC    N4  804   1.809   1.105   1.205  0.5947  0.2446  0.3836
   17DPPC    C5  805   1.694   1.195   1.215  0.1581 -0.2099 -0.4195
   17DPPC    C6  806   1.699   1.299   1.327 -0.2211 -0.2094 -0.4000
   17DPPC    O7  807   1.593   1.395   1.325  0.1668  0.2445  0.2987
   17DPPC    P8  808   1.656   1.543   1.312 -0.1431  0.3734  0.2627
   17DPPC    O9  809   1.758   1.521   1.207 -0.0367  0.6072  0.3162
   17DPPC   O10  810   1.547   1.642   1.295 -0.3906  0.0229 -0.2282
   17DPPC   O11  811   1.722   1.550   1.458  0.2520 -0.2425  0.1179
   17DPPC   C12  812   1.610   1.603   1.530 -0.1050 -0.5972 -0.1749
   17DPPC   C13  813   1.618   1.573   1.680 -0.0501 -0.1233 -0.0804
   17DPPC   O14  814   1.529   1.646   1.766  0.2124 -0.1573  0.2176
   17DPPC   C15  815   1.396   1.617   1.764  0.1470  0.1330  0.4346
   17DPPC   O16  816   1.341   1.571   1.664  0.3574  0.4620  0.1637
   17DPPC   C17  817   1.311   1.693   1.866 -0.2278  0.5691 -0.1932
   17DPPC   C18  818   1.221   1.602   1.950  0.4640 -0.0572 -0.1251
   17DPPC   C19  819   1.149   1.681   2.059  0.3198 -0.1196 -0.1747
   17DPPC   C20  820   1.248   1.746   2.156 -0.1381  0.5727 -0.1657
   17DPPC   C21  821   1.170   1.799   2.276  0.2103  0.0551  0.2949
   17DPPC   C22  822   1.261   1.888   2.361  0.2188  0.2413  0.0902
   17DPPC   C23  823   1.210   1.877   2.505 -0.4007 -0.1014 -0.1500
   17DPPC   C24  824   1.220   1.731   2.547 -0.4535  0.0262  0.3160
   17DPPC   C25  825   1.354   1.717   2.619 -0.4754  0.1226  0.3741
   17DPPC   C26  826   1.369   1.568   2.649  0.3387  0.1404  0.0777
   17DPPC   C27  827   1.511   1.515   2.672  0.1234 -0.3309  0.3521
   17DPPC   C28  828   1.553   1.530   2.818 -0.2572  0.2352  0.4075
   17DPPC   C29  829   1.704   1.552   2.811 -0.2315 -0.0456  0.0391
   17DPPC   C30  830   1.776   1.542   2.946 -0.3649  0.6279  0.1664
   17DPPC   C31  831   1.924   1.570   2.918 -0.2742 -0.2026 -0.2262
   17DPPC   C32  832   1.763   1.608   1.711 -0.0393 -0.0651 -0.1946
   17DPPC   O33  833   1.816   1.539   1.825 -0.1093  0.2179  0.0112
   17DPPC   C34  834   1.952   1.551   1.829 -0.1331  0.4841  0.0566
   17DPPC   O35  835   2.020   1.578   1.731 -0.3135  0.0404 -0.1954
   17DPPC   C36  836   1.999   1.572   1.973 -0.2764 -0.1599  0.1998
   17DPPC   C37  837   1.994   1.716   2.023 -0.1127 -0.2117  0.3689
   17DPPC   C38  838   2.032   1.717   2.171 -0.1207 -0.3824  0.3725
   17DPPC   C39  839   2.180   1.680   2.174  0.0066  0.0480 -0.4524
   17DPPC   C40  840   2.244   1.660   2.311 -0.4744  0.3085 -0.1888
   17DPPC   C41  841   2.162   1.555   2.388  0.3731 -0.1227  0.1331
   17DPPC   C42  842   2.231   1.534   2.523  0.2216  0.6107  0.3262
   17DPPC   C43  843   2.148   1.456   2.624  0.3605 -0.3222 -0.2666
   17DPPC   C44  844   2.243   1.430   2.742 -0.4830  0.0553  0.5136
   17DPPC   C45  845   2.311   1.566   2.762  0.2661 -0.3866  1.0244
   17DPPC   C46  846   2.434   1.567   2.853  0.7506  0.3335  0.3774
   17DPPC   C47  847   2.553   1.505   2.779  0.1441 -0.5406  0.1141
   17DPPC   C48  848   2.657   1.475   2.887  0.3319 -0.1993  0.0304
   17DPPC   C49  849   2.703   1.605   2.951 -0.6989  0.2774 -0.1830
   17DPPC   C50  850   2.811   1.578   3.056 -0.7373  0.2286 -0.1556
   18DPPC    C1  851   1.576   5.847   1.569 -0.6760 -0.0242  0.6553
   18DPPC    C2  852   1.717   5.914   1.729 -0.2019  0.1401 -0.1145
   18DPPC    C3  853   1.778   5.931   1.484  0.2644 -0.5237  0.1281
   18DPPC    N4  854   1.720   5.854   1.595 -0.5484 -0.1192 -0.0073
   18DPPC    C5  855   1.770   5.716   1.602  0.1871  0.1276 -0.2497
   18DPPC    C6  856   1.921   5.704   1.577  0.2419  0.1763  0.0453
   18DPPC    O7  857   1.978   5.574   1.590  0.0956  0.1187  0.1142
   18DPPC    P8  858   2.107   5.569   1.495  0.0167  0.1414  0.0056
   18DPPC    O9  859   2.136   5.427   1.466 -0.3851  0.1626 -0.5281
   18DPPC   O10  860   2.093   5.674   1.391 -0.2478 -0.1066 -0.2097
   18DPPC   O11  861   2.231   5.611   1.589  0.0571 -0.4680  0.2247
   18DPPC   C12  862   2.264   5.503   1.677 -0.0252 -0.1150  0.6905
   18DPPC   C13  863   2.325   5.556   1.807  0.4485  0.5979  0.1781
   18DPPC   O14  864   2.232   5.573   1.915 -0.2155  0.2902 -0.3427
   18DPPC   C15  865   2.141   5.674   1.905 -0.0146  0.4793 -0.2559
   18DPPC   O16  866   2.179   5.783   1.863 -0.2945  0.7617  0.2246
   18DPPC   C17  867   2.000   5.651   1.957 -0.0634  0.0682 -0.5597
   18DPPC   C18  868   1.993   5.637   2.109  0.3844  0.7433 -0.4719
   18DPPC   C19  869   1.852   5.617   2.166  0.6190 -0.5654 -0.3087
   18DPPC   C20  870   1.844   5.574   2.312  0.1112 -0.0285 -0.1769
   18DPPC   C21  871   1.873   5.693   2.404 -0.3759 -0.2996  0.3375
   18DPPC   C22  872   1.897   5.644   2.547  0.1385  0.1690  0.4159
   18DPPC   C23  873   1.870   5.737   2.665 -0.0628  0.2480  0.3072
   18DPPC   C24  874   1.907   5.669   2.797 -0.3273 -0.4496  0.0259
   18DPPC   C25  875   1.865   5.746   2.922 -0.0325  0.2243 -0.2850
   18DPPC   C26  876   1.939   5.879   2.934  0.2240  0.0913 -0.3934
   18DPPC   C27  877   1.883   5.972   3.041  0.0462 -0.4310 -0.0324
   18DPPC   C28  878   1.968   6.098   3.028 -0.2210 -0.2418  0.0407
   18DPPC   C29  879   1.940   6.158   2.890 -0.0229 -0.3265 -0.0368
   18DPPC   C30  880   2.047   6.262   2.856 -0.5416  0.1691 -0.1676
   18DPPC   C31  881   2.175   6.191   2.812 -0.5048 -0.2410  0.5845
   18DPPC   C32  882   2.435   5.662   1.792  0.9780  0.1292  0.6881
   18DPPC   O33  883   2.556   5.611   1.738  0.4131  0.1782 -0.6636
   18DPPC   C34  884   2.660   5.699   1.741  0.3200  0.2632  0.6451
   18DPPC   O35  885   2.643   5.814   1.778  0.3187  0.5175 -0.1277
   18DPPC   C36  886   2.798   5.659   1.686  0.1505  0.1565  0.2937
   18DPPC   C37  887   2.845   5.530   1.754  0.4327  0.1165  0.0203
   18DPPC   C38  888   2.879   5.556   1.900  0.0682 -0.0209  0.1304
   18DPPC   C39  889   2.919   5.427   1.971 -0.2679  0.0877  0.5234
   18DPPC   C40  890   2.969   5.462   2.111  0.2948  0.2785  0.2753
   18DPPC   C41  891   3.068   5.579   2.112  0.0559  0.4813  0.3278
   18DPPC   C42  892   3.090   5.645   2.248 -0.4989 -0.3119  0.8081
   18DPPC   C43  893   3.158   5.782   2.235  0.0303 -0.6209  0.2712
   18DPPC   C44  894   3.181   5.839   2.375  0.6065 -0.0508 -0.0513
   18DPPC   C45  895   3.269   5.964   2.372  0.3883  0.1073  0.0764
   18DPPC   C46  896   3.282   6.015   2.516  0.2832  0.2624  0.0313
   18DPPC   C47  897   3.331   5.908   2.613 -0.0202  0.0625 -0.0354
   18DPPC   C48  898   3.334   5.944   2.762 -0.6660 -0.0748  0.0173
   18DPPC   C49  899   3.414   5.845   2.847 -0.2490  0.3956  0.1826
   18DPPC   C50  900   3.329   5.837   2.975  0.3964 -0.6079  0.5630
   19DPPC    C1  901   2.219   0.135   1.504 -0.2000 -0.2630  0.5448
   19DPPC    C2  902   2.315  -0.069   1.567  0.5776  0.3329 -0.0701
   19DPPC    C3  903   2.417   0.070   1.413  0.1891  0.1950 -0.2350
   19DPPC    N4  904   2.286   0.015   1.450  0.2238  0.2358 -0.0535
   19DPPC    C5  905   2.220  -0.056   1.340  0.1040  0.5772 -0.2058
   19DPPC    C6  906   2.069  -0.077   1.330  0.1824 -0.1328  0.0114
   19DPPC    O7  907   2.003  -0.152   1.432  0.0563 -0.2380 -0.1467
   19DPPC    P8  908   1.859  -0.087   1.465  0.3389  0.3243 -0.0079
   19DPPC    O9  909   1.895   0.048   1.514 -0.0415  0.4111  0.0330
   19DPPC   O10  910   1.776  -0.100   1.343  0.5550 -0.2122 -0.1039
   19DPPC   O11  911   1.820  -0.176   1.593 -0.1009 -0.0351 -0.3864
   19DPPC   C12  912   1.920  -0.151   1.692 -0.1151  0.2035 -0.4322
   19DPPC   C13  913   1.871  -0.086   1.821 -0.1430 -0.3284 -0.1724
   19DPPC   O14  914   1.962  -0.002   1.894 -0.2451 -0.2954 -0.0831
   19DPPC   C15  915   2.081  -0.050   1.937 -0.3810 -0.1969  0.4068
   19DPPC   O16  916   2.098  -0.170   1.916  0.3301 -0.0896  0.3454
   19DPPC   C17  917   2.182   0.044   2.004 -0.1599 -0.2069  0.0862
   19DPPC   C18  918   2.152   0.059   2.153 -0.3071  0.4206 -0.0039
   19DPPC   C19  919   2.240   0.152   2.236  0.0786 -0.2343  0.3271
   19DPPC   C20  920   2.148   0.201   2.348 -0.2067  0.1265 -0.0626
   19DPPC   C21  921   2.097   0.072   2.414  0.0788 -0.4075 -0.8647
   19DPPC   C22  922   2.009   0.102   2.536  0.7434 -0.3728 -0.3914
   19DPPC   C23  923   1.880   0.176   2.502  0.5870 -0.3340  0.2667
   19DPPC   C24  924   1.789   0.204   2.621  0.0696 -0.3382 -0.1252
   19DPPC   C25  925   1.661   0.280   2.584  0.0484 -0.1312  0.3647
   19DPPC   C26  926   1.601   0.181   2.484 -0.0817  0.3809 -0.0712
   19DPPC   C27  927   1.457   0.212   2.443 -0.0305  0.3567 -0.2689
   19DPPC   C28  928   1.352   0.192   2.553 -0.1050 -0.1127 -0.4222
   19DPPC   C29  929   1.217   0.253   2.514 -0.3630 -0.2514  0.2441
   19DPPC   C30  930   1.124   0.241   2.635 -0.6333 -0.0693  0.0557
   19DPPC   C31  931   1.158   0.354   2.732 -0.2657 -0.4287  0.3510
   19DPPC   C32  932   1.794  -0.199   1.888 -0.4267 -0.1869 -0.2573
   19DPPC   O33  933   1.702  -0.162   1.992 -0.1726 -0.0983 -0.0632
   19DPPC   C34  934   1.626  -0.250   2.062 -0.0679  0.2783  0.5264
   19DPPC   O35  935   1.593  -0.358   2.013  0.2168  0.4437 -0.0350
   19DPPC   C36  936   1.543  -0.190   2.176  0.2202  0.2665  0.7419
   19DPPC   C37  937   1.399  -0.242   2.175  0.0600  0.7150  0.3252
   19DPPC   C38  938   1.311  -0.163   2.273 -0.3088 -0.2477  0.7774
   19DPPC   C39  939   1.174  -0.231   2.265  0.0210 -0.8380 -0.0628
   19DPPC   C40  940   1.084  -0.158   2.365  0.4236 -0.3302 -0.0657
   19DPPC   C41  941   1.147  -0.182   2.502 -0.2174 -0.5316  0.1989
   19DPPC   C42  942   1.076  -0.139   2.630  0.0833 -0.3488  0.3066
   19DPPC   C43  943   1.136  -0.195   2.759  0.1732 -0.1631  0.3455
   19DPPC   C44  944   1.045  -0.143   2.872 -0.0381 -0.7392  0.4414
   19DPPC   C45  945   1.078  -0.167   3.019  0.3197  0.2097  0.5208
   19DPPC   C46  946   0.977  -0.098   3.112  0.3274  0.8989  0.0277
   19DPPC   C47  947   0.980  -0.164   3.250 -0.0736  0.5527 -0.1273
   19DPPC   C48  948   0.888  -0.286   3.256 -0.1702  0.6343  0.0552
   19DPPC   C49  949   0.744  -0.238   3.240 -0.3670 -0.0815 -0.3781
   19DPPC   C50  950   0.661  -0.364   3.214  0.0405 -0.4156 -0.0848
   20DPPC    C1  951   1.581   0.151   1.942 -0.1218 -0.1133  0.2173
   20DPPC    C2  952   1.774   0.279   1.961  0.2384  0.2239 -0.2206
   20DPPC    C3  953   1.555   0.362   2.039  0.1209  0.2767 -0.4720
   20DPPC    N4  954   1.629   0.290   1.935  0.1785 -0.2323 -0.0816
   20DPPC    C5  955   1.598   0.352   1.806  0.1322  0.2481  0.1590
   20DPPC    C6  956   1.656   0.490   1.774  0.5681 -0.0329 -0.2799
   20DPPC    O7  957   1.565   0.595   1.809  0.4139 -0.3272  0.2131
   20DPPC    P8  958   1.598   0.735   1.738  0.2326 -0.4542 -0.1215
   20DPPC    O9  959   1.745   0.755   1.725  0.2112 -0.2607 -0.0710
   20DPPC   O10  960   1.507   0.739   1.621 -0.4756 -0.5677  0.4222
   20DPPC   O11  961   1.547   0.838   1.850 -0.0967 -0.3676 -0.3484
   20DPPC   C12  962   1.653   0.835   1.947 -0.1987  0.3775 -0.2130
   20DPPC   C13  963   1.606   0.890   2.082 -0.1531 -0.2221  0.0494
   20DPPC   O14  964   1.555   0.796   2.177 -0.0648  0.0530  0.3696
   20DPPC   C15  965   1.627   0.705   2.248  0.1017  0.0034  0.1380
   20DPPC   O16  966   1.741   0.667   2.222 -0.1717 -0.0752 -0.9614
   20DPPC   C17  967   1.542   0.640   2.358  0.3787 -0.2007  0.2352
   20DPPC   C18  968   1.545   0.700   2.499 -0.2798  0.1031  0.1264
   20DPPC   C19  969   1.472   0.607   2.595 -0.2249  0.1232  0.1878
   20DPPC   C20  970   1.494   0.669   2.733  0.3409 -0.0493  0.1740
   20DPPC   C21  971   1.402   0.598   2.833 -0.0957  0.3129  0.0310
   20DPPC   C22  972   1.415   0.664   2.970  0.5024  0.0658  0.0987
   20DPPC   C23  973   1.558   0.653   3.023  0.3763 -0.4807  0.3351
   20DPPC   C24  974   1.559   0.726   3.157  0.0726 -0.0265  0.0931
   20DPPC   C25  975   1.694   0.775   3.208  0.3011 -0.1221 -0.4170
   20DPPC   C26  976   1.666   0.846   3.340 -0.2283 -0.1307 -0.5227
   20DPPC   C27  977   1.792   0.898   3.410 -0.4858  0.1077 -0.2301
   20DPPC   C28  978   1.773   0.952   3.552 -0.1939 -0.0885 -0.1156
   20DPPC   C29  979   1.906   0.970   3.626 -0.0611  0.2334 -0.4282
   20DPPC   C30  980   1.878   1.004   3.773  0.6240  0.0524 -0.2522
   20DPPC   C31  981   1.804   1.134   3.805  0.5000 -0.2430  0.6813
   20DPPC   C32  982   1.516   1.009   2.046  0.1122 -0.0149  0.0641
   20DPPC   O33  983   1.574   1.136   2.016  0.6523 -0.2255  0.2106
   20DPPC   C34  984   1.492   1.240   1.985 -0.0083 -0.5541  0.8140
   20DPPC   O35  985   1.384   1.220   1.931  0.1209  0.2250  0.2588
   20DPPC   C36  986   1.552   1.380   2.000 -0.1977 -0.4760  0.8374
   20DPPC   C37  987   1.592   1.407   2.145  0.8523 -0.2542  0.5121
   20DPPC   C38  988   1.629   1.556   2.149 -0.0393 -0.0035 -0.4129
   20DPPC   C39  989   1.654   1.595   2.294 -1.3451 -0.3401 -0.0835
   20DPPC   C40  990   1.674   1.746   2.300  0.0700 -0.5173 -0.0032
   20DPPC   C41  991   1.676   1.791   2.446 -1.0172  0.0023 -0.1399
   20DPPC   C42  992   1.687   1.944   2.443 -0.1885 -0.0543 -0.3250
   20DPPC   C43  993   1.747   1.987   2.577 -0.2455 -0.1125 -0.2805
   20DPPC   C44  994   1.890   1.935   2.587 -0.1283  0.2942  0.1679
   20DPPC   C45  995   1.963   1.980   2.714  0.0808  0.0803  0.1224
   20DPPC   C46  996   2.104   1.922   2.732  0.0354 -0.0953 -0.0742
   20DPPC   C47  997   2.201   1.981   2.630  0.1292 -0.4130 -0.1683
   20DPPC   C48  998   2.337   1.910   2.635  0.0664 -0.4831  0.8067
   20DPPC   C49  999   2.422   1.981   2.528 -0.6596 -0.5744  0.1615
   20DPPC   C50 1000   2.569   1.940   2.522 -0.5879 -0.2674 -0.1695
   21DPPC    C1 1001   2.820   4.984   1.248  0.2997  0.0898  0.1325
   21DPPC    C2 1002   2.714   5.084   1.430  0.6970  0.4180 -0.5825
   21DPPC    C3 1003   2.887   4.927   1.467  0.3179 -0.2805  0.0104
   21DPPC    N4 1004   2.770   4.956   1.383  0.3083 -0.0150  0.1148
   21DPPC    C5 1005   2.669   4.849   1.391 -0.0637  0.3290  0.0911
   21DPPC    C6 1006   2.683   4.714   1.322 -0.0808  0.2738  0.1955
   21DPPC    O7 1007   2.761   4.617   1.392 -0.3556  0.0339  0.1752
   21DPPC    P8 1008   2.657   4.496   1.416 -0.2017 -0.1877 -0.2686
   21DPPC    O9 1009   2.565   4.486   1.301  0.0664 -0.1252 -0.4920
   21DPPC   O10 1010   2.727   4.372   1.455 -0.4841 -0.3405 -0.2484
   21DPPC   O11 1011   2.568   4.525   1.546  0.3873  0.2010  0.0545
   21DPPC   C12 1012   2.666   4.526   1.650  0.2119  0.1042  0.2205
   21DPPC   C13 1013   2.612   4.571   1.786  0.4614  0.7761  0.1020
   21DPPC   O14 1014   2.703   4.552   1.896  0.4795  0.0214 -0.0373
   21DPPC   C15 1015   2.744   4.669   1.951 -0.1229  0.0960  0.2680
   21DPPC   O16 1016   2.716   4.776   1.899  0.3353  0.1026  0.0216
   21DPPC   C17 1017   2.811   4.660   2.088  0.5318 -0.0679 -0.0553
   21DPPC   C18 1018   2.834   4.799   2.148  0.1187 -0.0270  0.0141
   21DPPC   C19 1019   2.893   4.782   2.288  0.0710 -0.0939  0.0261
   21DPPC   C20 1020   2.935   4.915   2.351 -0.4366 -0.0845  0.3521
   21DPPC   C21 1021   2.828   5.023   2.332 -0.3342 -0.0251  0.1092
   21DPPC   C22 1022   2.856   5.144   2.422  0.2117  0.2595 -0.4318
   21DPPC   C23 1023   2.995   5.203   2.403 -0.1386  0.9581 -0.8506
   21DPPC   C24 1024   2.990   5.348   2.451 -0.2480  0.8788 -0.6244
   21DPPC   C25 1025   2.953   5.357   2.600 -0.0843 -0.0869 -0.5219
   21DPPC   C26 1026   2.885   5.484   2.651  0.3773 -0.0452  0.0006
   21DPPC   C27 1027   2.954   5.619   2.639 -0.4198  0.3598 -0.0897
   21DPPC   C28 1028   2.895   5.734   2.721 -0.5054 -0.3030  0.7962
   21DPPC   C29 1029   2.945   5.872   2.678 -0.0887 -0.6198  0.2565
   21DPPC   C30 1030   2.872   5.983   2.755  0.1603  0.1685 -0.6252
   21DPPC   C31 1031   2.912   6.124   2.711 -0.2886  0.5022  0.0213
   21DPPC   C32 1032   2.484   4.486   1.798  0.6836  0.3850 -0.2867
   21DPPC   O33 1033   2.406   4.506   1.916  0.8919  0.3888 -0.1492
   21DPPC   C34 1034   2.315   4.606   1.908  0.1573 -0.2465  0.2171
   21DPPC   O35 1035   2.307   4.684   1.814 -0.2154 -0.6408 -0.0878
   21DPPC   C36 1036   2.236   4.634   2.036  0.2651  0.3064  0.1638
   21DPPC   C37 1037   2.313   4.686   2.158  0.3022  0.1419  0.2106
   21DPPC   C38 1038   2.365   4.830   2.162 -0.5865  0.4790 -0.1639
   21DPPC   C39 1039   2.440   4.848   2.293 -0.7734  0.7279 -0.0912
   21DPPC   C40 1040   2.346   4.835   2.413 -0.0357 -0.1682  0.4030
   21DPPC   C41 1041   2.399   4.887   2.547  0.5597  0.2703  0.0010
   21DPPC   C42 1042   2.441   5.034   2.539  1.0483  0.1079 -0.4656
   21DPPC   C43 1043   2.507   5.072   2.671 -0.3708  0.0356  0.2885
   21DPPC   C44 1044   2.551   5.218   2.655  0.4829 -0.2127  0.3216
   21DPPC   C45 1045   2.436   5.318   2.661  0.4734 -0.1721 -0.4868
   21DPPC   C46 1046   2.479   5.465   2.664 -0.3176  0.0594 -0.2544
   21DPPC   C47 1047   2.363   5.565   2.651  0.0925  0.5303 -0.3229
   21DPPC   C48 1048   2.415   5.703   2.692  0.4589  0.4154 -0.3948
   21DPPC   C49 1049   2.317   5.809   2.642 -0.3622 -0.0588  0.1727
   21DPPC   C50 1050   2.392   5.943   2.642 -0.1816 -0.1520 -0.4936
   22DPPC    C1 1051   3.379   5.811   1.062  0.0891 -0.2641  0.7441
   22DPPC    C2 1052   3.318   6.032   1.126 -0.0001 -0.0502 -0.3649
   22DPPC    C3 1053   3.170   5.849   1.169  0.0156  0.3042 -0.3234
   22DPPC    N4 1054   3.311   5.891   1.165  0.0835  0.1581  0.4173
   22DPPC    C5 1055   3.378   5.880   1.295  0.7754  0.2233  0.0666
   22DPPC    C6 1056   3.395   5.740   1.356 -0.2979  0.2721  0.4985
   22DPPC    O7 1057   3.265   5.687   1.383 -0.1983 -0.3827 -0.2663
   22DPPC    P8 1058   3.275   5.529   1.414 -0.2721 -0.3292  0.0371
   22DPPC    O9 1059   3.143   5.465   1.404 -0.2213 -0.4191 -0.0551
   22DPPC   O10 1060   3.400   5.476   1.354 -0.2365 -0.3530  0.1314
   22DPPC   O11 1061   3.311   5.527   1.571  0.1351  0.4517 -0.0379
   22DPPC   C12 1062   3.225   5.622   1.633 -0.1757  0.4656 -0.4883
   22DPPC   C13 1063   3.253   5.642   1.782 -0.0242 -0.3109 -0.4119
   22DPPC   O14 1064   3.186   5.752   1.844  0.1632  0.1222 -0.9654
   22DPPC   C15 1065   3.221   5.881   1.822 -0.1499  0.3475 -0.1766
   22DPPC   O16 1066   3.260   5.915   1.711  0.6516 -0.2093 -0.0744
   22DPPC   C17 1067   3.156   5.986   1.914 -0.5000  0.2693 -0.3344
   22DPPC   C18 1068   3.009   6.012   1.884 -0.4978  0.3227 -0.2986
   22DPPC   C19 1069   2.948   6.096   1.997 -0.4763  0.0909 -0.1151
   22DPPC   C20 1070   2.900   6.014   2.117 -0.0626  0.1023  0.0621
   22DPPC   C21 1071   2.785   5.921   2.075 -0.0680  0.2015 -0.1446
   22DPPC   C22 1072   2.730   5.851   2.199 -0.8324  0.3359 -0.4037
   22DPPC   C23 1073   2.633   5.737   2.168 -0.2327 -0.2146 -0.2813
   22DPPC   C24 1074   2.585   5.686   2.304  0.6660  0.2394  0.2159
   22DPPC   C25 1075   2.487   5.570   2.288  0.8541  0.1040  0.0432
   22DPPC   C26 1076   2.555   5.451   2.221  0.2366 -0.2578  0.0426
   22DPPC   C27 1077   2.454   5.338   2.208  0.0161 -0.0556  0.0036
   22DPPC   C28 1078   2.475   5.275   2.070 -0.3407 -0.0523 -0.0539
   22DPPC   C29 1079   2.617   5.226   2.040 -0.4831  0.1424 -1.0962
   22DPPC   C30 1080   2.593   5.135   1.919  0.1762 -0.7969 -0.5264
   22DPPC   C31 1081   2.533   5.218   1.806 -0.2069 -0.2471  0.0760
   22DPPC   C32 1082   3.402   5.616   1.810 -0.1362 -0.1470  0.3643
   22DPPC   O33 1083   3.461   5.644   1.937  0.0605  0.3477  0.1658
   22DPPC   C34 1084   3.430   5.554   2.034 -0.6867  0.4437  0.0264
   22DPPC   O35 1085   3.358   5.457   2.011  0.1609 -0.3624  0.7093
   22DPPC   C36 1086   3.490   5.572   2.174 -0.4645 -0.4904  0.0569
   22DPPC   C37 1087   3.518   5.436   2.238  0.9086 -0.1234  0.2653
   22DPPC   C38 1088   3.517   5.441   2.391  0.0623 -0.0344  0.2603
   22DPPC   C39 1089   3.380   5.495   2.434  0.3725  0.4032  0.7003
   22DPPC   C40 1090   3.366   5.520   2.585  0.0950  0.4436  0.6673
   22DPPC   C41 1091   3.375   5.386   2.657  0.1245  0.1576  0.1395
   22DPPC   C42 1092   3.344   5.406   2.806 -0.2599 -0.0220  0.0845
   22DPPC   C43 1093   3.349   5.277   2.887  0.2760 -0.2998 -0.3889
   22DPPC   C44 1094   3.259   5.165   2.834  0.3567 -0.1323 -0.8888
   22DPPC   C45 1095   3.280   5.030   2.904 -0.1995  0.1687 -0.1360
   22DPPC   C46 1096   3.175   4.933   2.848 -0.2668  0.0551  0.1846
   22DPPC   C47 1097   3.219   4.787   2.853  0.2275  0.1925 -0.0399
   22DPPC   C48 1098   3.115   4.692   2.794  0.2222 -0.0406  0.3397
   22DPPC   C49 1099   3.152   4.552   2.846 -0.3325 -0.2462  0.1893
   22DPPC   C50 1100   3.071   4.455   2.760  0.1249 -0.2708 -0.2161
   23DPPC    C1 1101   2.422   5.597   1.279  0.2523 -0.0945 -0.1638
   23DPPC    C2 1102   2.607   5.705   1.169  0.2543  0.0906  0.1468
   23DPPC    C3 1103   2.377   5.776   1.140  0.2412  0.0363  0.3717
   23DPPC    N4 1104   2.478   5.726   1.235  0.3173  0.0333  0.2889
   23DPPC    C5 1105   2.487   5.799   1.362 -0.4983  0.2556  0.2258
   23DPPC    C6 1106   2.501   5.949   1.385 -0.6782  0.3190 -0.0758
   23DPPC    O7 1107   2.630   6.002   1.351 -0.6677  0.1537 -0.2949
   23DPPC    P8 1108   2.618   6.155   1.304  0.0918  0.2669 -0.1278
   23DPPC    O9 1109   2.747   6.185   1.236  0.3314 -0.6289 -0.0742
   23DPPC   O10 1110   2.493   6.172   1.226 -0.0914 -0.7145 -0.0590
   23DPPC   O11 1111   2.608   6.205   1.456  0.3986  0.1445 -0.0674
   23DPPC   C12 1112   2.741   6.219   1.508  0.5063 -0.0879 -0.2775
   23DPPC   C13 1113   2.735   6.275   1.651 -0.0348  0.0431 -0.3478
   23DPPC   O14 1114   2.857   6.277   1.727 -0.2461 -0.5139  0.0102
   23DPPC   C15 1115   2.959   6.354   1.679 -0.2479 -0.4478  0.1145
   23DPPC   O16 1116   2.947   6.419   1.576  0.3500  0.0653  0.3586
   23DPPC   C17 1117   3.071   6.381   1.780 -0.4732  0.9160  0.0166
   23DPPC   C18 1118   3.040   6.481   1.891 -0.2360  0.5040  0.4589
   23DPPC   C19 1119   3.156   6.520   1.984  0.3461 -0.2557  0.0620
   23DPPC   C20 1120   3.173   6.397   2.073  0.0313 -0.1865  0.2208
   23DPPC   C21 1121   3.178   6.461   2.212 -0.3793 -0.4749  0.3709
   23DPPC   C22 1122   3.050   6.539   2.241 -0.0602  0.2157 -0.0522
   23DPPC   C23 1123   3.082   6.641   2.350  0.0854 -0.2698  0.3640
   23DPPC   C24 1124   2.956   6.697   2.416 -0.0554  0.2233 -0.3087
   23DPPC   C25 1125   2.995   6.815   2.506  0.3487  0.0196 -0.2111
   23DPPC   C26 1126   3.044   6.777   2.646 -0.5975  0.1813  0.1743
   23DPPC   C27 1127   3.044   6.903   2.733 -0.1266  0.2156  0.1246
   23DPPC   C28 1128   2.901   6.957   2.726 -0.2161 -0.0073  0.2040
   23DPPC   C29 1129   2.896   7.109   2.748  0.0453 -0.0356  0.4777
   23DPPC   C30 1130   2.747   7.145   2.756  0.0958  0.2602  0.1132
   23DPPC   C31 1131   2.662   7.070   2.859  0.0878  0.0023 -0.0804
   23DPPC   C32 1132   2.628   6.188   1.716  0.1185  0.0151 -0.1338
   23DPPC   O33 1133   2.598   6.205   1.855 -0.5863  0.3168 -0.3178
   23DPPC   C34 1134   2.501   6.120   1.897  0.0703 -0.2144  0.1452
   23DPPC   O35 1135   2.419   6.088   1.811 -0.1718  0.3755  0.1528
   23DPPC   C36 1136   2.472   6.133   2.047 -0.0224  0.2456  0.0890
   23DPPC   C37 1137   2.337   6.070   2.083  0.2938 -0.6003 -0.1821
   23DPPC   C38 1138   2.325   6.071   2.235 -0.0560 -0.4056 -0.2129
   23DPPC   C39 1139   2.179   6.036   2.267  0.2750 -0.3878  1.3998
   23DPPC   C40 1140   2.082   6.151   2.293 -0.0277 -0.4229  0.4459
   23DPPC   C41 1141   1.943   6.097   2.326 -0.4369  0.0653 -0.4367
   23DPPC   C42 1142   1.854   6.203   2.391  0.4644  0.5456  0.0332
   23DPPC   C43 1143   1.751   6.117   2.463  0.1683  0.6173 -0.3009
   23DPPC   C44 1144   1.683   6.203   2.570  0.1402  0.7677 -0.4395
   23DPPC   C45 1145   1.534   6.170   2.587  0.5255 -0.5947  0.4311
   23DPPC   C46 1146   1.482   6.288   2.670  0.3288 -0.2273 -0.2071
   23DPPC   C47 1147   1.550   6.283   2.807  0.3206  0.3380 -0.1832
   23DPPC   C48 1148   1.496   6.403   2.885  0.4929  0.3965 -0.1530
   23DPPC   C49 1149   1.559   6.400   3.025  0.1812 -0.5745 -0.0283
   23DPPC   C50 1150   1.486   6.301   3.116  0.1376 -0.1918  0.3550
   24DPPC    C1 1151   2.598   0.376   0.925 -0.0299  0.4676  0.0934
   24DPPC    C2 1152   2.576   0.149   0.896  0.7824 -0.4675  0.4366
   24DPPC    C3 1153   2.646   0.222   1.105 -0.6420 -0.1258 -0.2116
   24DPPC    N4 1154   2.554   0.254   0.995 -0.2130  0.2004 -0.4784
   24DPPC    C5 1155   2.413   0.245   1.037 -0.0359  0.4044  0.1784
   24DPPC    C6 1156   2.350   0.366   1.105 -0.4826  0.2408  0.0577
   24DPPC    O7 1157   2.399   0.363   1.239 -0.1840 -0.0892 -0.0599
   24DPPC    P8 1158   2.329   0.485   1.317  0.0148  0.1412 -0.2414
   24DPPC    O9 1159   2.383   0.611   1.260 -0.5356  0.5028  0.0320
   24DPPC   O10 1160   2.184   0.454   1.318  0.1157 -0.3247  0.0231
   24DPPC   O11 1161   2.387   0.449   1.463  0.2667 -0.1908 -0.4207
   24DPPC   C12 1162   2.528   0.423   1.468  0.3502  0.2831 -0.1873
   24DPPC   C13 1163   2.604   0.456   1.596 -0.0080 -0.2000  0.1565
   24DPPC   O14 1164   2.645   0.341   1.671  0.1122 -0.4203 -0.2448
   24DPPC   C15 1165   2.557   0.268   1.745  0.0175  0.5075  0.5787
   24DPPC   O16 1166   2.440   0.265   1.709  0.3292  0.2385 -0.4414
   24DPPC   C17 1167   2.612   0.157   1.835  0.5511  0.4200  0.1466
   24DPPC   C18 1168   2.609   0.172   1.987 -0.5386 -0.3829  0.2143
   24DPPC   C19 1169   2.649   0.039   2.050 -0.1553 -0.2842  0.1804
   24DPPC   C20 1170   2.690   0.042   2.197 -0.1621 -0.2659  0.1819
   24DPPC   C21 1171   2.712  -0.098   2.254  0.8328 -0.0970  0.2268
   24DPPC   C22 1172   2.732  -0.084   2.405  0.1223 -0.2423  0.3394
   24DPPC   C23 1173   2.590  -0.050   2.451 -0.1216 -0.1343 -0.4743
   24DPPC   C24 1174   2.593   0.016   2.589 -0.2069  0.6998 -0.8641
   24DPPC   C25 1175   2.445   0.035   2.622 -0.0154 -0.1663  0.5851
   24DPPC   C26 1176   2.452   0.118   2.750 -0.3687  0.5204  0.1715
   24DPPC   C27 1177   2.308   0.139   2.796 -0.4636  0.1955  0.0254
   24DPPC   C28 1178   2.286   0.197   2.936 -0.2723  0.1380  0.0797
   24DPPC   C29 1179   2.327   0.343   2.954  0.0544  0.1081 -0.4101
   24DPPC   C30 1180   2.308   0.389   3.098 -0.1530 -0.3624 -0.2871
   24DPPC   C31 1181   2.160   0.427   3.115 -0.0487 -0.0102 -0.1711
   24DPPC   C32 1182   2.518   0.554   1.676  0.1042 -0.1714  0.2431
   24DPPC   O33 1183   2.574   0.647   1.768 -0.0792  0.1413  0.0418
   24DPPC   C34 1184   2.647   0.754   1.727 -0.7079  0.4670 -0.2342
   24DPPC   O35 1185   2.688   0.753   1.611  0.2393 -0.6148  0.0927
   24DPPC   C36 1186   2.704   0.837   1.843 -0.0632  0.2915 -0.4222
   24DPPC   C37 1187   2.588   0.895   1.924 -0.4371 -0.4985 -0.3849
   24DPPC   C38 1188   2.647   1.002   2.016 -0.3123 -0.9364  0.0515
   24DPPC   C39 1189   2.540   1.022   2.124  0.0707 -0.6411  0.3805
   24DPPC   C40 1190   2.556   1.154   2.199  0.4395 -0.4479 -0.0325
   24DPPC   C41 1191   2.460   1.170   2.317 -0.0988 -0.2125 -0.5001
   24DPPC   C42 1192   2.455   1.049   2.411  0.0557 -0.0486 -0.2781
   24DPPC   C43 1193   2.400   1.070   2.552  0.1181  0.3794 -0.3146
   24DPPC   C44 1194   2.368   0.931   2.609  0.4015  0.2391 -0.4898
   24DPPC   C45 1195   2.294   0.926   2.743  0.7407 -0.4493 -0.3239
   24DPPC   C46 1196   2.379   0.982   2.858  0.0417  0.0693 -0.0477
   24DPPC   C47 1197   2.291   1.010   2.979 -0.0403 -0.0165 -0.0878
   24DPPC   C48 1198   2.385   1.032   3.098  0.2514  0.0026 -0.3218
   24DPPC   C49 1199   2.308   1.081   3.221  0.3225  0.3599 -0.4185
   24DPPC   C50 1200   2.393   1.111   3.345 -0.4168  0.1782  0.1358
   25DPPC    C1 1201   3.286   4.996   1.577 -0.1055 -0.2065 -0.7232
   25DPPC    C2 1202   3.398   5.207   1.549 -0.4048  0.2831  0.1579
   25DPPC    C3 1203   3.428   5.013   1.396 -0.4204  0.4727 -0.0583
   25DPPC    N4 1204   3.410   5.062   1.534 -0.1151  0.3185  0.0379
   25DPPC    C5 1205   3.518   5.009   1.618 -0.1242  0.0368 -0.1264
   25DPPC    C6 1206   3.667   5.044   1.605 -0.2089  0.5186  0.2170
   25DPPC    O7 1207   3.750   4.969   1.693  0.1679  0.0043 -0.5778
   25DPPC    P8 1208   3.905   5.013   1.688  0.2999 -0.4028 -0.2194
   25DPPC    O9 1209   3.997   4.903   1.723  0.6371 -0.1483 -0.3017
   25DPPC   O10 1210   3.924   5.118   1.584  0.1236 -0.4823 -0.3319
   25DPPC   O11 1211   3.886   5.105   1.819  0.4073 -0.2817 -0.2885
   25DPPC   C12 1212   3.907   5.015   1.928  0.1186 -0.3779 -0.3118
   25DPPC   C13 1213   3.887   5.079   2.066 -0.3055 -0.0270 -0.5314
   25DPPC   O14 1214   3.784   5.012   2.139 -0.1732 -0.0291 -0.3473
   25DPPC   C15 1215   3.653   5.047   2.138 -0.1958 -0.0900  0.1025
   25DPPC   O16 1216   3.603   5.082   2.031  0.0536 -0.7911 -0.2545
   25DPPC   C17 1217   3.576   4.995   2.259 -0.2873 -0.4180 -0.0946
   25DPPC   C18 1218   3.425   5.023   2.256 -0.3224 -0.5759  0.1294
   25DPPC   C19 1219   3.351   4.975   2.381 -0.3547 -0.5293  0.1279
   25DPPC   C20 1220   3.326   4.826   2.353 -0.8141 -0.3068 -0.6947
   25DPPC   C21 1221   3.269   4.767   2.483  0.5511  0.1077  0.1127
   25DPPC   C22 1222   3.223   4.624   2.456 -0.0558  0.3042  0.0986
   25DPPC   C23 1223   3.337   4.532   2.414 -0.2521 -0.1571  0.5517
   25DPPC   C24 1224   3.276   4.396   2.378 -0.2957 -0.2035  0.8017
   25DPPC   C25 1225   3.381   4.292   2.338  0.2653  0.3717  0.7529
   25DPPC   C26 1226   3.322   4.151   2.348 -0.0225  0.4037 -0.3326
   25DPPC   C27 1227   3.297   4.100   2.490  0.6424  0.8308 -0.0553
   25DPPC   C28 1228   3.428   4.113   2.567  0.6091 -0.1903  0.1907
   25DPPC   C29 1229   3.412   4.018   2.685  0.0350 -0.1684  0.1303
   25DPPC   C30 1230   3.318   4.077   2.791  0.3143  0.4400  0.0444
   25DPPC   C31 1231   3.295   3.973   2.901  0.1370  0.6174  0.1763
   25DPPC   C32 1232   3.873   5.230   2.045 -0.3926  0.0536  0.0828
   25DPPC   O33 1233   3.912   5.305   2.160 -0.4001  0.2890 -0.0674
   25DPPC   C34 1234   3.905   5.439   2.134  0.5894  0.4280  0.3494
   25DPPC   O35 1235   3.854   5.487   2.033  0.3224 -0.0799  0.2359
   25DPPC   C36 1236   3.949   5.534   2.245  0.8962  0.4970  0.1714
   25DPPC   C37 1237   3.930   5.483   2.389 -0.7700  0.1139 -0.1616
   25DPPC   C38 1238   3.935   5.592   2.496 -0.7682 -0.0126 -0.0334
   25DPPC   C39 1239   3.934   5.537   2.639  0.1858 -0.1520 -0.0722
   25DPPC   C40 1240   3.960   5.652   2.735  0.3554 -0.5039  0.3064
   25DPPC   C41 1241   3.920   5.599   2.873 -0.3685 -0.0481  0.2811
   25DPPC   C42 1242   3.880   5.719   2.959  0.3334  0.5984 -0.2754
   25DPPC   C43 1243   3.898   5.670   3.103  0.1968  0.2136 -0.3871
   25DPPC   C44 1244   3.921   5.787   3.198  0.4717 -0.2118  0.0715
   25DPPC   C45 1245   3.908   5.762   3.349  0.1058  0.9347  0.2423
   25DPPC   C46 1246   3.776   5.712   3.408  0.2252  0.4162  0.0799
   25DPPC   C47 1247   3.811   5.706   3.557 -0.6293  0.3376  0.2826
   25DPPC   C48 1248   3.824   5.853   3.600 -0.3382  0.3377  0.1966
   25DPPC   C49 1249   3.875   5.862   3.743 -0.0340 -0.5405  0.1523
   25DPPC   C50 1250   3.997   5.776   3.777  0.2399 -0.1300  0.2164
   26DPPC    C1 1251   3.384   0.259   1.452  0.1263  0.1275 -0.4410
   26DPPC    C2 1252   3.179   0.228   1.570  0.4811 -0.3141  0.4114
   26DPPC    C3 1253   3.229   0.409   1.426 -0.5933 -0.1515  0.3702
   26DPPC    N4 1254   3.237   0.263   1.440  0.0572 -0.1284  0.2691
   26DPPC    C5 1255   3.179   0.191   1.326  0.3815  0.4435 -0.2615
   26DPPC    C6 1256   3.165   0.039   1.342  0.0049  0.5923  0.9252
   26DPPC    O7 1257   3.296  -0.018   1.355  0.0352  0.3422 -0.3191
   26DPPC    P8 1258   3.282  -0.163   1.424  0.0024  0.2699 -0.4782
   26DPPC    O9 1259   3.149  -0.226   1.404  0.0268 -0.0156  0.2399
   26DPPC   O10 1260   3.397  -0.245   1.382  0.0170  0.0933 -0.1028
   26DPPC   O11 1261   3.329  -0.119   1.571 -0.2821  0.0034 -0.3049
   26DPPC   C12 1262   3.436  -0.204   1.616 -0.4305  0.3042  0.6476
   26DPPC   C13 1263   3.512  -0.157   1.739  0.2281 -0.1407  0.4164
   26DPPC   O14 1264   3.475  -0.199   1.871 -0.9768 -0.0393  0.1182
   26DPPC   C15 1265   3.541  -0.309   1.918 -0.3017  0.3125 -0.0091
   26DPPC   O16 1266   3.622  -0.372   1.850 -0.3462  0.2370  0.0088
   26DPPC   C17 1267   3.498  -0.360   2.055  0.4657 -0.0799  0.0899
   26DPPC   C18 1268   3.488  -0.256   2.167 -0.4312 -0.5879  0.4903
   26DPPC   C19 1269   3.627  -0.205   2.206 -0.5556  0.4249 -0.3635
   26DPPC   C20 1270   3.633  -0.120   2.333 -0.3006  0.1341 -0.1814
   26DPPC   C21 1271   3.766  -0.048   2.352  0.0578 -0.5450 -0.0839
   26DPPC   C22 1272   3.779   0.028   2.484  0.4373 -0.2038 -0.3136
   26DPPC   C23 1273   3.919   0.025   2.544  0.2242 -0.7472  0.1651
   26DPPC   C24 1274   3.909   0.081   2.687  0.4786  0.1800 -0.1722
   26DPPC   C25 1275   3.894   0.233   2.685 -0.3437  0.1047  0.2085
   26DPPC   C26 1276   3.852   0.272   2.827 -0.5431  0.1886  0.1279
   26DPPC   C27 1277   3.854   0.423   2.851 -0.0560  0.1865  0.1120
   26DPPC   C28 1278   3.789   0.459   2.984 -0.4421  0.1437 -0.0635
   26DPPC   C29 1279   3.780   0.611   3.001 -0.0758  0.1279  0.2905
   26DPPC   C30 1280   3.922   0.666   2.992  0.0784 -0.2510  0.3548
   26DPPC   C31 1281   3.926   0.819   3.007  0.9416 -0.2288 -0.0196
   26DPPC   C32 1282   3.525  -0.005   1.721  0.2109 -0.2095 -0.1953
   26DPPC   O33 1283   3.591   0.064   1.827  0.0206 -0.1461 -0.1180
   26DPPC   C34 1284   3.584   0.198   1.802 -0.0586 -0.2568 -0.7001
   26DPPC   O35 1285   3.571   0.247   1.690 -0.3725 -0.0089 -0.5549
   26DPPC   C36 1286   3.578   0.297   1.919 -0.0604 -0.6916 -0.3287
   26DPPC   C37 1287   3.453   0.297   2.007  0.1219  0.7942 -0.0532
   26DPPC   C38 1288   3.447   0.413   2.107 -0.0666  0.5095  0.2702
   26DPPC   C39 1289   3.311   0.411   2.175 -0.1418  0.3910  0.1172
   26DPPC   C40 1290   3.305   0.529   2.273 -0.6492  0.3418  0.1493
   26DPPC   C41 1291   3.300   0.662   2.197 -0.7794  0.0824 -0.3045
   26DPPC   C42 1292   3.274   0.769   2.303 -0.6345  0.4925 -0.6816
   26DPPC   C43 1293   3.150   0.741   2.388  0.5021 -0.3502  0.7394
   26DPPC   C44 1294   3.102   0.835   2.499 -0.6066  0.0697 -0.0871
   26DPPC   C45 1295   3.072   0.975   2.445  0.2757  0.1382 -0.4160
   26DPPC   C46 1296   3.019   1.063   2.558  0.3168 -0.0106 -0.2802
   26DPPC   C47 1297   3.137   1.104   2.647  0.0240 -0.0546  0.1356
   26DPPC   C48 1298   3.084   1.179   2.769  0.2783  0.1958  0.0943
   26DPPC   C49 1299   3.177   1.167   2.890 -0.4085  0.5096  0.6598
   26DPPC   C50 1300   3.203   1.029   2.951 -0.3972  0.3842  0.3736
   27DPPC    C1 1301   3.862   0.156   1.450 -0.0822 -0.3844  0.0093
   27DPPC    C2 1302   3.987   0.308   1.330 -0.1866  0.4681 -0.0707
   27DPPC    C3 1303   3.876   0.376   1.533  0.7358 -0.2981  0.1974
   27DPPC    N4 1304   3.863   0.297   1.409  0.0910 -0.3098  0.2649
   27DPPC    C5 1305   3.760   0.344   1.315  0.3788  0.1346  0.1644
   27DPPC    C6 1306   3.700   0.484   1.311 -0.2950 -0.1549 -0.1108
   27DPPC    O7 1307   3.598   0.502   1.409  0.3975  0.3324  0.5411
   27DPPC    P8 1308   3.562   0.658   1.418  0.1374  0.2983  0.0991
   27DPPC    O9 1309   3.683   0.721   1.361  0.0821  0.4407  0.1367
   27DPPC   O10 1310   3.435   0.656   1.341 -0.0629  0.3114  0.4254
   27DPPC   O11 1311   3.543   0.693   1.574  0.1514  0.4009  0.0781
   27DPPC   C12 1312   3.403   0.682   1.600  0.1355  0.0103 -0.1577
   27DPPC   C13 1313   3.379   0.722   1.746 -0.1359  0.1288 -0.2341
   27DPPC   O14 1314   3.244   0.704   1.793 -0.2217  0.2988 -0.4149
   27DPPC   C15 1315   3.198   0.577   1.809  0.1554  0.2044 -0.0575
   27DPPC   O16 1316   3.258   0.478   1.768  0.1500  0.2445 -0.1648
   27DPPC   C17 1317   3.060   0.564   1.874  0.4906 -0.1928  0.5801
   27DPPC   C18 1318   3.025   0.427   1.933  0.2723 -0.3303  0.1393
   27DPPC   C19 1319   2.877   0.436   1.973  0.3457  0.0575  0.3274
   27DPPC   C20 1320   2.844   0.526   2.092 -0.1705  0.0034  0.2269
   27DPPC   C21 1321   2.692   0.543   2.088 -0.1287  0.1605 -0.6827
   27DPPC   C22 1322   2.644   0.592   2.224 -0.1984 -0.4207 -0.4993
   27DPPC   C23 1323   2.492   0.588   2.240 -0.1396 -0.2403  0.1574
   27DPPC   C24 1324   2.431   0.608   2.379 -0.3867  0.0903  0.0044
   27DPPC   C25 1325   2.456   0.482   2.463  0.0496 -0.0665 -0.3518
   27DPPC   C26 1326   2.359   0.502   2.580 -0.2676  0.2497 -0.6644
   27DPPC   C27 1327   2.213   0.508   2.534 -0.4087  0.2170 -0.2263
   27DPPC   C28 1328   2.119   0.511   2.654 -0.1988 -0.2054 -0.0485
   27DPPC   C29 1329   2.050   0.646   2.675 -0.2787 -0.2444 -0.0580
   27DPPC   C30 1330   1.950   0.631   2.790  0.1449  0.1161  0.3600
   27DPPC   C31 1331   1.867   0.758   2.809  0.1569  0.1651  0.0907
   27DPPC   C32 1332   3.431   0.866   1.755 -0.8799  0.3830  0.0571
   27DPPC   O33 1333   3.471   0.911   1.884 -0.0060  0.0615 -0.0976
   27DPPC   C34 1334   3.554   1.019   1.888  0.0387  0.0216  0.0709
   27DPPC   O35 1335   3.587   1.073   1.782  0.4607  0.0699  0.2250
   27DPPC   C36 1336   3.623   1.056   2.019  0.1732 -0.0502  0.0198
   27DPPC   C37 1337   3.544   1.168   2.086  0.5681  0.4127 -0.2776
   27DPPC   C38 1338   3.601   1.185   2.227 -0.1686  0.1284  0.0627
   27DPPC   C39 1339   3.570   1.068   2.321 -0.3757 -0.0696 -0.2479
   27DPPC   C40 1340   3.625   1.094   2.462 -0.0983 -0.0700 -0.3544
   27DPPC   C41 1341   3.552   0.996   2.555  0.0520  0.0139 -0.1468
   27DPPC   C42 1342   3.580   0.846   2.543 -0.6130 -0.1261  0.0371
   27DPPC   C43 1343   3.494   0.765   2.641 -0.5424  0.3070  0.4664
   27DPPC   C44 1344   3.503   0.613   2.628 -0.5817  0.3565 -0.2013
   27DPPC   C45 1345   3.426   0.536   2.736  0.5021 -0.2335  0.1681
   27DPPC   C46 1346   3.424   0.384   2.714  0.0924 -0.2269  0.1587
   27DPPC   C47 1347   3.404   0.321   2.852  0.2688 -0.2395  0.1790
   27DPPC   C48 1348   3.462   0.180   2.858  0.5898 -0.1346 -0.4342
   27DPPC   C49 1349   3.392   0.093   2.753 -0.1668 -0.0002 -0.0453
   27DPPC   C50 1350   3.471  -0.038   2.753 -0.2015 -0.0207 -0.2258
   28DPPC    C1 1351   3.665   3.687   1.695 -0.0828  0.2806  0.2972
   28DPPC    C2 1352   3.495   3.802   1.800 -0.0213  0.2338 -0.0140
   28DPPC    C3 1353   3.483   3.742   1.568  0.0622 -0.2054 -0.1554
   28DPPC    N4 1354   3.569   3.797   1.673 -0.1912  0.1059 -0.1087
   28DPPC    C5 1355   3.646   3.916   1.636  0.0211  0.1244  0.3810
   28DPPC    C6 1356   3.569   4.048   1.629 -0.1782  0.0097  0.4186
   28DPPC    O7 1357   3.637   4.170   1.598 -0.1086 -0.0920  0.1676
   28DPPC    P8 1358   3.529   4.289   1.611 -0.0134 -0.0347  0.4596
   28DPPC    O9 1359   3.591   4.420   1.583  0.7294 -0.5096 -0.1619
   28DPPC   O10 1360   3.404   4.241   1.548  0.2820 -0.0902 -0.0966
   28DPPC   O11 1361   3.506   4.288   1.770 -0.5839 -0.8744  0.3782
   28DPPC   C12 1362   3.426   4.403   1.798  0.1059 -0.3208  0.0844
   28DPPC   C13 1363   3.369   4.405   1.940  0.0919 -0.2605  0.0781
   28DPPC   O14 1364   3.228   4.422   1.959  0.0817  0.1363 -0.3365
   28DPPC   C15 1365   3.160   4.309   1.991  0.3550  0.0120 -0.2012
   28DPPC   O16 1366   3.203   4.200   1.952  0.2797 -0.0654 -0.0693
   28DPPC   C17 1367   3.019   4.325   2.046  0.5598 -0.4941  0.4921
   28DPPC   C18 1368   2.961   4.209   2.128  0.1043 -0.5862  0.0476
   28DPPC   C19 1369   2.971   4.216   2.281  0.0723  0.2724  0.0133
   28DPPC   C20 1370   2.911   4.097   2.356 -0.2620  0.0372 -0.6195
   28DPPC   C21 1371   2.905   4.130   2.505 -0.3832 -0.6112 -0.4777
   28DPPC   C22 1372   2.886   3.998   2.580  0.1501 -0.7023 -0.4981
   28DPPC   C23 1373   2.900   4.023   2.730 -0.1119 -0.1229 -0.5677
   28DPPC   C24 1374   2.878   3.885   2.792  0.0756 -0.2160 -0.7085
   28DPPC   C25 1375   2.738   3.828   2.770 -0.1243  0.0936 -0.2487
   28DPPC   C26 1376   2.709   3.707   2.858 -0.0776  0.4592  0.2717
   28DPPC   C27 1377   2.567   3.652   2.841  0.1708 -0.1584  0.1708
   28DPPC   C28 1378   2.546   3.555   2.958 -0.3316  0.1550  0.3424
   28DPPC   C29 1379   2.634   3.438   2.913  0.0606  0.5805 -0.0070
   28DPPC   C30 1380   2.592   3.321   3.002  0.0936  0.6720  0.1295
   28DPPC   C31 1381   2.450   3.277   2.964  0.2616  0.3583 -0.1315
   28DPPC   C32 1382   3.441   4.500   2.035  0.1058  0.1399 -0.3276
   28DPPC   O33 1383   3.562   4.457   2.098 -0.0504  0.0299 -0.1003
   28DPPC   C34 1384   3.616   4.557   2.172 -0.3116 -0.1248  0.3004
   28DPPC   O35 1385   3.598   4.672   2.133  0.1850 -0.1098  0.1140
   28DPPC   C36 1386   3.722   4.517   2.275  0.2910 -0.1005 -0.3068
   28DPPC   C37 1387   3.798   4.627   2.350  0.2796 -0.1783 -0.1814
   28DPPC   C38 1388   3.836   4.568   2.486  0.5745  0.0613 -0.1572
   28DPPC   C39 1389   3.716   4.523   2.570  0.9507  0.1469  0.4258
   28DPPC   C40 1390   3.690   4.621   2.685  0.5690  0.1008  0.3805
   28DPPC   C41 1391   3.564   4.590   2.766  0.2673 -0.3469 -0.2504
   28DPPC   C42 1392   3.570   4.442   2.807  0.1967 -0.1868  0.3572
   28DPPC   C43 1393   3.603   4.436   2.956 -0.3469  0.3440  0.5034
   28DPPC   C44 1394   3.590   4.291   3.004  0.3223  0.1346  0.0712
   28DPPC   C45 1395   3.600   4.286   3.157 -0.2596  0.6836  0.1334
   28DPPC   C46 1396   3.558   4.156   3.225 -0.1757  0.3207 -0.4934
   28DPPC   C47 1397   3.621   4.034   3.158 -0.1751  0.0868 -0.0696
   28DPPC   C48 1398   3.543   3.919   3.222 -0.5170  0.2709 -0.1534
   28DPPC   C49 1399   3.557   3.905   3.374  0.8964  0.2737 -0.2673
   28DPPC   C50 1400   3.504   3.767   3.411  0.0228  0.6470 -0.1070
   29DPPC    C1 1401   4.482   6.232   1.513  0.2635  0.5502 -0.2391
   29DPPC    C2 1402   4.561   6.171   1.731 -0.2071 -0.4277  0.2917
   29DPPC    C3 1403   4.457   6.365   1.713 -0.1747 -0.1046  0.1880
   29DPPC    N4 1404   4.449   6.229   1.656  0.3710  0.0329 -0.2228
   29DPPC    C5 1405   4.318   6.169   1.683  0.3214 -0.0225 -0.5766
   29DPPC    C6 1406   4.288   6.031   1.626 -0.4835  0.0664 -0.3841
   29DPPC    O7 1407   4.377   5.933   1.680 -0.4103  0.1205 -0.4071
   29DPPC    P8 1408   4.359   5.779   1.636  0.0040 -0.0175 -0.1044
   29DPPC    O9 1409   4.287   5.774   1.506  0.3985 -0.3967 -0.3110
   29DPPC   O10 1410   4.491   5.717   1.662  0.3145  0.7611  0.2283
   29DPPC   O11 1411   4.269   5.751   1.766  0.4641  0.1963  0.2635
   29DPPC   C12 1412   4.352   5.750   1.883  0.3730  0.2128  0.3284
   29DPPC   C13 1413   4.274   5.726   2.012  0.2667  0.5499  0.3271
   29DPPC   O14 1414   4.251   5.585   2.022  0.5157  0.4793 -0.0717
   29DPPC   C15 1415   4.328   5.474   2.008 -0.1552 -0.1215  0.8287
   29DPPC   O16 1416   4.443   5.478   1.965 -0.1704 -0.5851  0.7444
   29DPPC   C17 1417   4.255   5.340   2.017  0.4723 -0.5183  0.1976
   29DPPC   C18 1418   4.323   5.249   2.119  0.2256 -0.4236  0.4488
   29DPPC   C19 1419   4.309   5.315   2.257 -0.3240 -0.1375  0.2597
   29DPPC   C20 1420   4.376   5.231   2.366  0.2448  0.3753  0.3084
   29DPPC   C21 1421   4.306   5.258   2.499 -0.3423 -0.3040  0.1446
   29DPPC   C22 1422   4.419   5.282   2.600 -0.2198  0.2131 -0.1088
   29DPPC   C23 1423   4.501   5.157   2.631 -0.1718  0.2597 -0.0470
   29DPPC   C24 1424   4.612   5.185   2.733 -0.0360  0.2550 -0.1935
   29DPPC   C25 1425   4.665   5.047   2.773 -0.0493  0.5391  0.8289
   29DPPC   C26 1426   4.779   5.046   2.875  1.0817  0.5357 -0.4072
   29DPPC   C27 1427   4.813   4.898   2.897  0.1016  0.2608 -0.6625
   29DPPC   C28 1428   4.946   4.893   2.973  0.4260 -0.0365 -1.2439
   29DPPC   C29 1429   4.967   4.759   3.044 -0.0595  0.4188 -0.2222
   29DPPC   C30 1430   4.854   4.724   3.141 -0.2973  0.0770 -0.6200
   29DPPC   C31 1431   4.887   4.605   3.232 -0.6980  0.4215 -0.0126
   29DPPC   C32 1432   4.153   5.819   2.003 -0.4903 -0.4625 -0.2566
   29DPPC   O33 1433   4.073   5.846   2.119  0.3814  0.4557  0.1493
   29DPPC   C34 1434   3.983   5.942   2.085 -0.2656 -0.1767  0.0636
   29DPPC   O35 1435   3.967   6.001   1.978  0.0225  0.0649  0.1519
   29DPPC   C36 1436   3.891   5.977   2.202  0.4285 -0.4237  0.6904
   29DPPC   C37 1437   3.800   5.863   2.247 -0.4031  0.0063  0.1417
   29DPPC   C38 1438   3.732   5.910   2.375 -0.3925 -0.4627  0.3236
   29DPPC   C39 1439   3.817   5.976   2.484  0.1178 -0.1137 -0.2859
   29DPPC   C40 1440   3.726   6.026   2.596  0.2693 -0.1297 -0.1562
   29DPPC   C41 1441   3.809   6.099   2.703 -0.2372 -0.0843  0.2082
   29DPPC   C42 1442   3.719   6.118   2.825 -0.0238  0.0183  0.3482
   29DPPC   C43 1443   3.806   6.183   2.933  0.0246 -0.2307  0.4600
   29DPPC   C44 1444   3.785   6.123   3.072 -0.2452  0.1278  0.5752
   29DPPC   C45 1445   3.637   6.121   3.112 -0.3171 -0.0490  0.2977
   29DPPC   C46 1446   3.611   6.071   3.255 -0.6176  0.8349  0.5551
   29DPPC   C47 1447   3.461   6.050   3.276 -0.4877 -0.2972  0.4141
   29DPPC   C48 1448   3.403   6.181   3.223  0.3702 -0.0294  0.1156
   29DPPC   C49 1449   3.254   6.162   3.193  0.2363  0.3295  0.5500
   29DPPC   C50 1450   3.215   6.277   3.099  0.0685  0.2356  0.5044
   30DPPC    C1 1451   3.951   5.600   1.706 -0.0942 -0.3661  0.4757
   30DPPC    C2 1452   3.793   5.748   1.824  0.8177  0.1377  0.2176
   30DPPC    C3 1453   3.768   5.668   1.593 -0.0615 -0.0953 -0.1314
   30DPPC    N4 1454   3.860   5.714   1.697  0.0129 -0.3220 -0.0954
   30DPPC    C5 1455   3.939   5.830   1.653 -0.0869  0.0637  0.7206
   30DPPC    C6 1456   3.890   5.975   1.646 -0.1533  0.0248  0.4111
   30DPPC    O7 1457   3.987   6.068   1.597  0.1503 -0.2154  0.5533
   30DPPC    P8 1458   3.933   6.220   1.602 -0.3880 -0.3771 -0.3299
   30DPPC    O9 1459   4.012   6.294   1.501 -0.5552 -0.0376 -0.2139
   30DPPC   O10 1460   3.786   6.225   1.587 -0.3833  0.2163 -0.1726
   30DPPC   O11 1461   3.966   6.266   1.752 -0.1502 -0.5277 -0.3351
   30DPPC   C12 1462   3.862   6.312   1.839 -0.0337 -0.1206 -0.4065
   30DPPC   C13 1463   3.912   6.404   1.949 -0.4790 -0.3921  0.0311
   30DPPC   O14 1464   3.892   6.546   1.937  0.2694 -0.2791  0.0506
   30DPPC   C15 1465   3.952   6.612   1.835 -0.0585 -0.0470  0.0061
   30DPPC   O16 1466   3.989   6.565   1.727  0.1690 -0.0675  0.0916
   30DPPC   C17 1467   3.952   6.763   1.861 -0.1964  0.0008 -0.2670
   30DPPC   C18 1468   4.074   6.797   1.947 -0.4192  0.4957 -0.1447
   30DPPC   C19 1469   4.058   6.759   2.094  0.0681 -0.2125 -0.2677
   30DPPC   C20 1470   4.201   6.730   2.137  0.1175  0.1242 -0.1989
   30DPPC   C21 1471   4.206   6.652   2.269 -0.0535 -0.0205 -0.2773
   30DPPC   C22 1472   4.355   6.619   2.283 -0.1666 -0.2040  0.5773
   30DPPC   C23 1473   4.395   6.581   2.426 -0.5192 -0.3091  0.6488
   30DPPC   C24 1474   4.540   6.541   2.453 -0.1079  0.9650  0.4020
   30DPPC   C25 1475   4.548   6.503   2.601  0.1392  0.2595  0.2106
   30DPPC   C26 1476   4.683   6.436   2.629  0.0016  0.0994  0.4956
   30DPPC   C27 1477   4.704   6.392   2.774  0.0293 -0.1096  0.4289
   30DPPC   C28 1478   4.838   6.321   2.788 -0.0930 -0.3961  0.1595
   30DPPC   C29 1479   4.839   6.194   2.703 -0.1166 -0.0717 -0.3286
   30DPPC   C30 1480   4.966   6.114   2.732 -0.0187  0.1558 -0.1188
   30DPPC   C31 1481   5.084   6.206   2.701 -0.0441 -0.0009 -0.7088
   30DPPC   C32 1482   4.055   6.357   1.977 -0.3357 -0.4500 -0.7885
   30DPPC   O33 1483   4.073   6.277   2.094 -0.2029 -0.2886 -0.6978
   30DPPC   C34 1484   4.201   6.232   2.095 -0.1758 -0.2075 -0.1020
   30DPPC   O35 1485   4.270   6.232   1.993  0.5468  0.7409  0.3638
   30DPPC   C36 1486   4.227   6.160   2.227 -0.2518  0.0002  0.0281
   30DPPC   C37 1487   4.369   6.105   2.242 -0.1481  0.4306  0.6286
   30DPPC   C38 1488   4.385   6.020   2.368 -0.0353 -0.0763  0.2746
   30DPPC   C39 1489   4.321   6.091   2.488  0.1870 -0.0096  0.3549
   30DPPC   C40 1490   4.335   5.994   2.605  0.6403 -0.4186 -0.0344
   30DPPC   C41 1491   4.268   6.070   2.719  0.3883 -0.0380 -0.4356
   30DPPC   C42 1492   4.316   6.000   2.846 -0.4648 -0.1629 -0.1709
   30DPPC   C43 1493   4.244   6.057   2.968 -0.0046 -0.5164  0.2712
   30DPPC   C44 1494   4.324   5.988   3.078  0.4784 -0.1857  0.1289
   30DPPC   C45 1495   4.476   6.004   3.066  0.4046  0.2737 -0.2072
   30DPPC   C46 1496   4.559   5.938   3.176 -0.4168 -0.0095  0.2581
   30DPPC   C47 1497   4.702   5.992   3.184 -0.1245 -0.6599 -0.3624
   30DPPC   C48 1498   4.788   5.915   3.284 -0.2978 -0.0395  0.2712
   30DPPC   C49 1499   4.929   5.974   3.282 -0.1964 -0.2991 -0.2671
   30DPPC   C50 1500   5.017   5.892   3.376 -0.1389 -0.4027 -0.4105
   31DPPC    C1 1501   4.427   0.978   0.669 -0.4209 -0.7269 -0.0888
   31DPPC    C2 1502   4.557   0.960   0.868  0.0950 -0.0020 -0.4015
   31DPPC    C3 1503   4.472   1.178   0.788  0.1037 -0.3533  0.0569
   31DPPC    N4 1504   4.448   1.034   0.804 -0.2085 -0.3408 -0.2815
   31DPPC    C5 1505   4.318   1.022   0.871 -0.0364  0.1612  0.1477
   31DPPC    C6 1506   4.289   0.880   0.919  0.3704 -0.3000 -0.9269
   31DPPC    O7 1507   4.153   0.884   0.962  0.4498  0.2939 -0.7153
   31DPPC    P8 1508   4.113   0.745   1.033  0.0682  0.7215 -0.0795
   31DPPC    O9 1509   3.969   0.738   1.065  0.0878  0.1681 -0.1072
   31DPPC   O10 1510   4.191   0.631   0.979 -0.1195  0.5703 -0.0314
   31DPPC   O11 1511   4.188   0.780   1.171  0.0909 -0.3584  0.1878
   31DPPC   C12 1512   4.095   0.849   1.255  0.1126 -0.1498  0.0391
   31DPPC   C13 1513   4.144   0.865   1.399  0.0251  0.0356  0.0487
   31DPPC   O14 1514   4.036   0.865   1.494 -0.2725 -0.0390 -0.2845
   31DPPC   C15 1515   3.990   0.747   1.543 -0.0276  0.1427  0.3977
   31DPPC   O16 1516   4.064   0.649   1.538 -0.0356  0.1498  0.0722
   31DPPC   C17 1517   3.864   0.754   1.630 -0.1103  0.3396  0.2634
   31DPPC   C18 1518   3.902   0.748   1.778  0.4219 -0.2689  0.1091
   31DPPC   C19 1519   3.781   0.708   1.864 -0.2840  0.2481 -0.6234
   31DPPC   C20 1520   3.810   0.690   2.013 -0.1661 -0.1447 -0.6934
   31DPPC   C21 1521   3.679   0.680   2.091 -0.0074  0.2610 -0.3681
   31DPPC   C22 1522   3.715   0.707   2.237  0.4527 -0.2168 -0.3890
   31DPPC   C23 1523   3.827   0.613   2.281  0.7660  0.4052  0.1794
   31DPPC   C24 1524   3.878   0.639   2.423  0.3061  0.4009  0.3452
   31DPPC   C25 1525   3.980   0.533   2.465  0.2936  0.0676 -0.4342
   31DPPC   C26 1526   4.072   0.597   2.569 -0.0637 -0.3353  0.1334
   31DPPC   C27 1527   4.196   0.511   2.589  0.1507 -0.1880 -0.5398
   31DPPC   C28 1528   4.274   0.570   2.708 -0.5385 -0.6009  0.1258
   31DPPC   C29 1529   4.398   0.486   2.740 -0.2471 -0.2145  0.0143
   31DPPC   C30 1530   4.491   0.572   2.826  0.0378 -0.1727 -0.3343
   31DPPC   C31 1531   4.620   0.495   2.857  0.3243  0.5616  0.3293
   31DPPC   C32 1532   4.242   0.982   1.391 -0.4745  0.4766  0.3113
   31DPPC   O33 1533   4.324   0.988   1.509 -0.1279  0.2404  0.0844
   31DPPC   C34 1534   4.420   1.084   1.501 -0.1110  0.2198  0.0390
   31DPPC   O35 1535   4.417   1.172   1.415  0.6552  0.3141  0.1079
   31DPPC   C36 1536   4.515   1.083   1.621  0.0103  0.0374 -0.0586
   31DPPC   C37 1537   4.470   1.192   1.717 -0.0075 -0.3262  0.3486
   31DPPC   C38 1538   4.543   1.199   1.851  0.0582  0.3914  0.2814
   31DPPC   C39 1539   4.606   1.336   1.878 -0.1084  0.4385  0.4333
   31DPPC   C40 1540   4.663   1.340   2.019 -0.0647 -0.1106  0.4313
   31DPPC   C41 1541   4.539   1.325   2.108  0.1291 -0.1117  0.7057
   31DPPC   C42 1542   4.584   1.327   2.254  0.3511 -0.7490  0.6496
   31DPPC   C43 1543   4.450   1.362   2.319 -0.0436 -0.8235 -0.1066
   31DPPC   C44 1544   4.456   1.360   2.472  0.9190  0.3648 -0.1120
   31DPPC   C45 1545   4.341   1.415   2.557  0.7259  0.1605 -0.2374
   31DPPC   C46 1546   4.366   1.418   2.708  0.1020  0.4723 -0.1387
   31DPPC   C47 1547   4.478   1.515   2.746 -0.1985  0.6759  0.2357
   31DPPC   C48 1548   4.502   1.484   2.894  0.5423  0.3436  0.0502
   31DPPC   C49 1549   4.371   1.507   2.969  0.7868 -0.0228  0.6003
   31DPPC   C50 1550   4.337   1.655   2.988  0.2916 -0.1825  0.9711
   32DPPC    C1 1551   1.643   4.537   0.846 -0.1535 -0.3865 -0.0200
   32DPPC    C2 1552   1.427   4.604   0.794  0.5760 -0.1232  0.1447
   32DPPC    C3 1553   1.481   4.374   0.813  0.1807 -0.7598  0.3956
   32DPPC    N4 1554   1.502   4.506   0.873 -0.0700 -0.6126  0.1601
   32DPPC    C5 1555   1.483   4.509   1.019  0.1691 -0.7348  0.1941
   32DPPC    C6 1556   1.353   4.467   1.087 -0.1926  0.0769  0.0181
   32DPPC    O7 1557   1.252   4.564   1.059  0.1105  0.3675 -0.0647
   32DPPC    P8 1558   1.106   4.504   1.089  0.1861  0.1732 -0.0865
   32DPPC    O9 1559   1.019   4.618   1.052  0.2705  0.1599 -0.3237
   32DPPC   O10 1560   1.097   4.373   1.022 -0.3422  0.2817 -0.2300
   32DPPC   O11 1561   1.113   4.500   1.250 -0.2768 -0.5516 -0.0771
   32DPPC   C12 1562   1.035   4.602   1.312  0.3028 -0.0357 -0.1856
   32DPPC   C13 1563   1.072   4.625   1.459  0.3113 -0.0646 -0.1832
   32DPPC   O14 1564   0.976   4.685   1.547 -0.2081 -0.3645 -0.5376
   32DPPC   C15 1565   0.960   4.817   1.578 -0.8887 -0.5494 -0.0983
   32DPPC   O16 1566   0.994   4.906   1.501 -0.3380 -0.1530  0.5846
   32DPPC   C17 1567   0.866   4.846   1.695 -0.3187 -0.3276  0.3113
   32DPPC   C18 1568   0.873   4.737   1.802 -0.1446 -0.6170  0.0043
   32DPPC   C19 1569   0.762   4.745   1.907 -0.2921 -0.6450 -0.1494
   32DPPC   C20 1570   0.789   4.664   2.033  0.0181  0.2887  0.3965
   32DPPC   C21 1571   0.830   4.518   2.009 -0.9958  0.1080 -0.3132
   32DPPC   C22 1572   0.829   4.432   2.136 -0.0180 -0.5503 -0.7451
   32DPPC   C23 1573   0.694   4.405   2.202  0.1471 -0.3516 -0.3280
   32DPPC   C24 1574   0.719   4.354   2.344 -0.4436  0.0502 -0.0742
   32DPPC   C25 1575   0.598   4.279   2.400 -0.4076 -0.2174 -0.3499
   32DPPC   C26 1576   0.631   4.209   2.532  0.1758 -0.0635 -0.4131
   32DPPC   C27 1577   0.683   4.313   2.631 -0.0972 -0.5751  0.2746
   32DPPC   C28 1578   0.790   4.240   2.712  0.3544  0.4720  0.6444
   32DPPC   C29 1579   0.848   4.330   2.821 -0.0413  0.8659  0.5322
   32DPPC   C30 1580   0.909   4.253   2.939 -0.8167 -0.0074  0.3779
   32DPPC   C31 1581   0.988   4.338   3.038 -0.0953 -0.1513 -0.0704
   32DPPC   C32 1582   1.219   4.667   1.451  0.2471  0.2142  0.0736
   32DPPC   O33 1583   1.311   4.561   1.483 -0.0985 -0.2039 -0.3033
   32DPPC   C34 1584   1.440   4.593   1.457 -0.0355  0.8795  1.2223
   32DPPC   O35 1585   1.465   4.665   1.360 -0.7992 -0.5490 -0.0690
   32DPPC   C36 1586   1.545   4.494   1.508 -0.1079  0.0165 -0.2583
   32DPPC   C37 1587   1.613   4.536   1.638  0.1315 -0.1691 -0.3225
   32DPPC   C38 1588   1.703   4.659   1.620 -0.4434  0.3183  0.1039
   32DPPC   C39 1589   1.754   4.702   1.758 -0.5798 -0.4387  0.3930
   32DPPC   C40 1590   1.850   4.821   1.754 -0.7732 -0.2937  0.0045
   32DPPC   C41 1591   1.837   4.884   1.893 -0.0798 -0.1511  0.0038
   32DPPC   C42 1592   1.713   4.970   1.918  0.4654  0.7046 -0.1996
   32DPPC   C43 1593   1.701   5.000   2.067  0.1691 -0.2920 -0.0190
   32DPPC   C44 1594   1.560   5.056   2.082  0.3204  0.2787 -0.7014
   32DPPC   C45 1595   1.520   5.063   2.229 -0.5264 -0.6031 -0.8749
   32DPPC   C46 1596   1.564   5.198   2.288 -0.7317 -0.8686 -0.0960
   32DPPC   C47 1597   1.509   5.227   2.428 -0.0303 -0.2250  0.0528
   32DPPC   C48 1598   1.556   5.360   2.486  0.0312 -0.1769 -0.1071
   32DPPC   C49 1599   1.483   5.392   2.616  0.0823  0.3730 -0.2111
   32DPPC   C50 1600   1.550   5.492   2.711  0.0836 -0.1598  0.3542
   33DPPC    C1 1601   5.614   5.122   1.980  0.3396 -0.3367  0.4152
   33DPPC    C2 1602   5.813   5.255   1.939 -0.2432 -0.2608 -0.3541
   33DPPC    C3 1603   5.619   5.372   1.976  0.4291  0.0979 -0.1871
   33DPPC    N4 1604   5.668   5.245   1.920 -0.2897 -0.2611 -0.0051
   33DPPC    C5 1605   5.641   5.248   1.775 -0.2771 -0.0340 -0.0016
   33DPPC    C6 1606   5.504   5.209   1.719 -0.4155 -0.0003  0.3077
   33DPPC    O7 1607   5.415   5.320   1.704  0.1165  0.3493 -0.3448
   33DPPC    P8 1608   5.273   5.258   1.661  0.3409 -0.3443 -0.0921
   33DPPC    O9 1609   5.176   5.362   1.621  0.9137  0.0367 -0.5017
   33DPPC   O10 1610   5.274   5.126   1.595  0.0363  0.1948 -1.1867
   33DPPC   O11 1611   5.238   5.212   1.812  0.3837  0.0907  0.0515
   33DPPC   C12 1612   5.100   5.205   1.848  0.4836 -0.3413  0.3608
   33DPPC   C13 1613   5.095   5.202   2.001  0.1237 -0.4573  0.3495
   33DPPC   O14 1614   4.990   5.116   2.046 -0.3711  0.2168  0.4961
   33DPPC   C15 1615   5.017   4.983   2.038  0.3275  0.3688  0.2353
   33DPPC   O16 1616   5.114   4.934   1.982 -0.0004 -0.1124  0.0838
   33DPPC   C17 1617   4.907   4.884   2.078  0.3458  0.5373  0.7024
   33DPPC   C18 1618   4.905   4.853   2.228 -0.1376 -0.0854  0.5706
   33DPPC   C19 1619   4.799   4.750   2.268 -0.4389  0.1436  0.3618
   33DPPC   C20 1620   4.759   4.759   2.415 -0.1583  0.3706  0.4263
   33DPPC   C21 1621   4.721   4.621   2.470 -0.8689  0.3081 -0.1946
   33DPPC   C22 1622   4.661   4.628   2.611  0.1877  0.9729  0.2371
   33DPPC   C23 1623   4.612   4.496   2.670  0.0934  0.6358 -0.5746
   33DPPC   C24 1624   4.522   4.527   2.790  0.4825  0.4857 -0.2445
   33DPPC   C25 1625   4.406   4.620   2.757 -0.4543 -0.3931  0.5182
   33DPPC   C26 1626   4.403   4.731   2.862 -0.6459  0.1287 -0.0327
   33DPPC   C27 1627   4.309   4.849   2.838 -0.3892  0.2845 -0.2830
   33DPPC   C28 1628   4.324   4.955   2.947  0.2086 -0.2297  0.1397
   33DPPC   C29 1629   4.216   5.059   2.918  0.1278 -0.1474  0.7299
   33DPPC   C30 1630   4.241   5.188   2.998  0.1469  0.1971  0.1711
   33DPPC   C31 1631   4.131   5.286   2.957 -0.3999 -0.4163  0.1565
   33DPPC   C32 1632   5.110   5.348   2.044  0.1871 -0.3481 -0.0391
   33DPPC   O33 1633   5.089   5.370   2.183 -0.0146 -0.9206  0.0216
   33DPPC   C34 1634   4.957   5.370   2.219 -0.0958 -0.5484 -0.2759
   33DPPC   O35 1635   4.865   5.401   2.143  0.2994  0.1446 -0.4904
   33DPPC   C36 1636   4.927   5.343   2.366 -0.8981 -0.3061 -0.3934
   33DPPC   C37 1637   5.004   5.216   2.399 -0.0631  0.2608 -0.1432
   33DPPC   C38 1638   4.977   5.148   2.534  0.4291 -0.1101 -0.2272
   33DPPC   C39 1639   5.064   5.023   2.555 -0.0097 -0.4214 -0.2378
   33DPPC   C40 1640   5.210   5.067   2.554 -0.2407  0.3764 -0.2091
   33DPPC   C41 1641   5.309   4.955   2.587  0.2978  0.9905  0.2954
   33DPPC   C42 1642   5.457   4.992   2.582  0.3989  0.5459 -0.1051
   33DPPC   C43 1643   5.547   4.884   2.644 -0.4887 -0.1867 -0.0662
   33DPPC   C44 1644   5.527   4.856   2.793  0.1083  0.0255  0.0596
   33DPPC   C45 1645   5.606   4.730   2.824  0.2711  0.1100 -0.0106
   33DPPC   C46 1646   5.749   4.734   2.768  0.2330 -0.2170 -0.1361
   33DPPC   C47 1647   5.823   4.610   2.818 -0.2666 -0.3206  0.3599
   33DPPC   C48 1648   5.829   4.618   2.971 -0.8456 -0.5243  0.3956
   33DPPC   C49 1649   5.928   4.510   3.014 -0.1367 -0.1706 -0.3202
   33DPPC   C50 1650   5.972   4.510   3.161  0.1380 -0.2532 -0.4012
   34DPPC    C1 1651   5.048   2.903   1.162 -0.1548 -0.1415  0.2881
   34DPPC    C2 1652   4.987   3.067   1.308 -0.1792 -0.2424  0.4105
   34DPPC    C3 1653   5.220   2.992   1.296 -0.2398 -0.1066  0.2544
   34DPPC    N4 1654   5.078   2.952   1.297 -0.1990 -0.2516  0.3379
   34DPPC    C5 1655   5.063   2.838   1.388  0.0333  0.0477  0.7529
   34DPPC    C6 1656   4.923   2.798   1.435 -0.2225 -0.2059 -0.2101
   34DPPC    O7 1657   4.852   2.726   1.334  0.3585 -0.4268 -0.4659
   34DPPC    P8 1658   4.742   2.626   1.395 -0.0757  0.1931 -0.2231
   34DPPC    O9 1659   4.714   2.640   1.539  0.0113 -0.5691 -0.1313
   34DPPC   O10 1660   4.636   2.633   1.291 -0.3988  0.1508  0.1020
   34DPPC   O11 1661   4.822   2.488   1.378  0.2537  0.2800  0.6072
   34DPPC   C12 1662   4.846   2.433   1.508 -0.0866 -0.0094  0.5482
   34DPPC   C13 1663   4.926   2.303   1.521 -0.2510 -0.1806 -0.1280
   34DPPC   O14 1664   4.885   2.231   1.637  0.1599 -0.5394 -0.2027
   34DPPC   C15 1665   4.891   2.095   1.628  0.7100 -0.5426  0.1297
   34DPPC   O16 1666   4.936   2.035   1.530  0.6427 -0.1009 -0.1750
   34DPPC   C17 1667   4.856   2.011   1.751 -0.0567 -0.2388  0.1274
   34DPPC   C18 1668   4.913   1.869   1.748  0.2845 -0.1005  0.0292
   34DPPC   C19 1669   4.816   1.799   1.843  0.1014 -0.0510 -0.1216
   34DPPC   C20 1670   4.875   1.784   1.983 -0.0888 -0.4338 -0.0803
   34DPPC   C21 1671   4.777   1.722   2.083  0.1037  0.0215  0.3985
   34DPPC   C22 1672   4.849   1.693   2.214  0.7232 -0.2641 -0.0039
   34DPPC   C23 1673   4.891   1.810   2.303 -0.5997  0.1331  0.1125
   34DPPC   C24 1674   4.983   1.752   2.410 -0.0112  0.2441 -0.3237
   34DPPC   C25 1675   5.028   1.871   2.496 -0.2395 -0.0180  0.1632
   34DPPC   C26 1676   5.128   1.833   2.606 -0.3524 -0.5256  0.0947
   34DPPC   C27 1677   5.152   1.952   2.699 -0.3941 -0.2463 -0.2492
   34DPPC   C28 1678   5.252   1.923   2.811 -0.5090  0.0675 -0.0650
   34DPPC   C29 1679   5.222   1.796   2.890  0.2025 -0.6592 -0.9320
   34DPPC   C30 1680   5.344   1.738   2.962  0.2238  0.4061 -0.0666
   34DPPC   C31 1681   5.422   1.844   3.039  0.2999 -0.0530  0.4986
   34DPPC   C32 1682   5.071   2.347   1.495 -0.1612 -0.2734  0.2187
   34DPPC   O33 1683   5.114   2.470   1.555  0.2565 -0.4507  0.2831
   34DPPC   C34 1684   5.241   2.508   1.524  0.0263 -0.0694 -0.1992
   34DPPC   O35 1685   5.308   2.459   1.433 -0.3226  0.3859 -0.7072
   34DPPC   C36 1686   5.291   2.626   1.606  0.3603 -0.0001 -0.4993
   34DPPC   C37 1687   5.443   2.638   1.595  0.4214 -0.2382  0.0666
   34DPPC   C38 1688   5.498   2.770   1.650  0.0690 -0.1688  0.2511
   34DPPC   C39 1689   5.449   2.781   1.795 -0.0535 -0.1036  0.2051
   34DPPC   C40 1690   5.471   2.923   1.848  0.0496 -0.0393 -0.0082
   34DPPC   C41 1691   5.490   2.908   1.999 -0.0899 -0.3543 -0.0200
   34DPPC   C42 1692   5.546   3.041   2.050 -0.1249 -0.2580 -0.2311
   34DPPC   C43 1693   5.616   3.009   2.182 -0.2742 -0.0073 -0.0896
   34DPPC   C44 1694   5.637   3.136   2.266  0.2664 -0.1960  0.0655
   34DPPC   C45 1695   5.696   3.101   2.402 -0.3840 -0.2547  0.3370
   34DPPC   C46 1696   5.722   3.228   2.484 -0.6777 -0.3338  0.5550
   34DPPC   C47 1697   5.781   3.202   2.623  1.1248  0.1071 -0.0882
   34DPPC   C48 1698   5.803   3.332   2.700  0.6755  0.0067  0.2196
   34DPPC   C49 1699   5.864   3.317   2.839 -0.6558 -0.3792  0.7732
   34DPPC   C50 1700   5.888   3.453   2.905  0.3262 -0.4471  0.5722
   35DPPC    C1 1701   4.730   3.960   1.826 -0.3288  0.1535  0.4554
   35DPPC    C2 1702   4.556   3.805   1.827 -0.0741 -0.2485 -0.1781
   35DPPC    C3 1703   4.783   3.727   1.881  0.1284  0.3291  0.1892
   35DPPC    N4 1704   4.700   3.818   1.801 -0.0468  0.1444  0.1613
   35DPPC    C5 1705   4.753   3.816   1.664  0.4912 -0.1946  0.3731
   35DPPC    C6 1706   4.712   3.688   1.591 -0.4315  0.2202  0.1558
   35DPPC    O7 1707   4.804   3.579   1.589 -0.1089  0.4980 -0.5848
   35DPPC    P8 1708   4.746   3.436   1.544 -0.0538  0.3025 -0.0401
   35DPPC    O9 1709   4.625   3.471   1.466 -0.3441 -0.2542  0.1565
   35DPPC   O10 1710   4.860   3.356   1.495 -0.4066 -0.2992  0.1082
   35DPPC   O11 1711   4.721   3.372   1.690  0.5127  0.1029 -0.0311
   35DPPC   C12 1712   4.855   3.371   1.741  0.4871 -0.1303  0.0355
   35DPPC   C13 1713   4.863   3.282   1.865  0.0014 -0.2417 -0.0104
   35DPPC   O14 1714   4.981   3.285   1.947  0.0273 -0.0283 -0.0558
   35DPPC   C15 1715   5.105   3.251   1.903  0.0178  0.0677 -0.1573
   35DPPC   O16 1716   5.133   3.233   1.785  0.4323  0.1626 -0.0746
   35DPPC   C17 1717   5.211   3.214   2.007 -0.2002  0.7240  0.3083
   35DPPC   C18 1718   5.277   3.339   2.066  0.2151  0.3676  0.6051
   35DPPC   C19 1719   5.185   3.449   2.121  0.0927  0.7386 -0.3255
   35DPPC   C20 1720   5.261   3.545   2.212 -0.0372  0.4672  0.0715
   35DPPC   C21 1721   5.304   3.482   2.345 -0.4005  0.5746  0.2411
   35DPPC   C22 1722   5.379   3.581   2.434  0.2887  0.2900 -0.0144
   35DPPC   C23 1723   5.522   3.611   2.389  0.2239  0.1292 -0.3290
   35DPPC   C24 1724   5.582   3.721   2.477 -0.0631 -0.0249  0.0593
   35DPPC   C25 1725   5.615   3.655   2.611 -0.0113 -0.4809 -0.1775
   35DPPC   C26 1726   5.679   3.754   2.708  0.2019 -0.1251 -0.6742
   35DPPC   C27 1727   5.575   3.864   2.734  0.1740 -0.4075  0.4807
   35DPPC   C28 1728   5.640   3.947   2.845  0.3997  0.2009 -0.0945
   35DPPC   C29 1729   5.555   4.072   2.870  0.9372  0.5730 -0.1188
   35DPPC   C30 1730   5.604   4.150   2.992 -0.2020  0.0274  0.6997
   35DPPC   C31 1731   5.528   4.282   3.011 -0.7033 -0.1745  0.1395
   35DPPC   C32 1732   4.832   3.146   1.800  0.5143 -0.3294 -0.0794
   35DPPC   O33 1733   4.823   3.028   1.881 -0.0871 -0.4146 -0.2680
   35DPPC   C34 1734   4.835   2.905   1.825 -0.7819 -0.4554 -0.3388
   35DPPC   O35 1735   4.874   2.885   1.710 -0.1934  0.4935 -0.3156
   35DPPC   C36 1736   4.844   2.790   1.926 -0.2231 -0.0198  0.1180
   35DPPC   C37 1737   4.778   2.815   2.061  0.1713  0.4890  0.2190
   35DPPC   C38 1738   4.824   2.704   2.156 -0.6054  0.3110  0.3924
   35DPPC   C39 1739   4.733   2.705   2.279 -0.4155  0.2994  0.5332
   35DPPC   C40 1740   4.800   2.635   2.397 -0.5608 -0.3405  0.2385
   35DPPC   C41 1741   4.720   2.645   2.528 -0.6039  0.3715  0.1588
   35DPPC   C42 1742   4.783   2.582   2.652  0.2189  0.0567 -0.4019
   35DPPC   C43 1743   4.914   2.659   2.665 -0.0269  0.4203 -0.0237
   35DPPC   C44 1744   4.950   2.675   2.813 -0.0152  0.0204  0.0178
   35DPPC   C45 1745   5.079   2.755   2.825  0.2810 -0.4945  0.3333
   35DPPC   C46 1746   5.060   2.828   2.958 -0.1325  0.0702 -0.0283
   35DPPC   C47 1747   4.925   2.899   2.946 -0.1093  0.1769  0.3364
   35DPPC   C48 1748   4.924   3.037   2.880 -0.6865  0.3920  0.7844
   35DPPC   C49 1749   4.798   3.105   2.826 -0.5709 -0.4717 -0.6448
   35DPPC   C50 1750   4.834   3.218   2.730 -0.2176 -0.1970 -0.1951
   36DPPC    C1 1751   5.360   4.265   1.283  0.2341 -0.4862  0.4851
   36DPPC    C2 1752   5.345   4.466   1.424  0.4582  0.4471  0.4916
   36DPPC    C3 1753   5.405   4.254   1.503  0.0475  0.2766 -0.4650
   36DPPC    N4 1754   5.314   4.323   1.410 -0.0586  0.6146 -0.1108
   36DPPC    C5 1755   5.172   4.298   1.437  0.0008 -0.0177 -0.3636
   36DPPC    C6 1756   5.116   4.322   1.577 -0.4818 -0.1498 -0.5288
   36DPPC    O7 1757   5.142   4.210   1.662 -0.1612  0.3022 -0.0165
   36DPPC    P8 1758   5.066   4.231   1.802 -0.1705 -0.1040  0.0413
   36DPPC    O9 1759   4.932   4.282   1.767  0.0740  0.2753 -0.3512
   36DPPC   O10 1760   5.087   4.115   1.891  0.4474  0.0645  0.1198
   36DPPC   O11 1761   5.142   4.353   1.875  0.2599 -0.2496 -0.1558
   36DPPC   C12 1762   5.267   4.323   1.938  0.2826 -0.3090 -0.2303
   36DPPC   C13 1763   5.358   4.445   1.957 -0.1977 -0.0062  0.1352
   36DPPC   O14 1764   5.493   4.397   1.968 -0.0534  0.3069 -0.2724
   36DPPC   C15 1765   5.604   4.464   1.929  0.1514 -0.2863 -0.7090
   36DPPC   O16 1766   5.594   4.536   1.829 -0.8759  0.3257 -0.1776
   36DPPC   C17 1767   5.727   4.375   1.950  0.1853 -0.0586  0.0735
   36DPPC   C18 1768   5.710   4.257   1.854 -0.5679  0.2052 -0.1282
   36DPPC   C19 1769   5.833   4.168   1.878 -0.1696  0.8129  0.1255
   36DPPC   C20 1770   5.955   4.228   1.807  0.3166 -0.6770 -0.3431
   36DPPC   C21 1771   6.062   4.258   1.912 -0.1804 -0.1094  0.0147
   36DPPC   C22 1772   6.194   4.300   1.846 -0.3075  0.6041  0.2080
   36DPPC   C23 1773   6.304   4.294   1.951 -0.0693  0.0664 -0.0694
   36DPPC   C24 1774   6.435   4.315   1.875  0.0910 -0.2638  0.1111
   36DPPC   C25 1775   6.557   4.340   1.964  0.2233 -0.2556 -0.0707
   36DPPC   C26 1776   6.678   4.356   1.873 -0.1509  0.4968 -0.4481
   36DPPC   C27 1777   6.806   4.404   1.941  0.0317  0.0787 -0.4937
   36DPPC   C28 1778   6.914   4.414   1.833 -0.3605  0.5919 -0.8396
   36DPPC   C29 1779   6.924   4.274   1.772  0.3991  0.6683 -0.8994
   36DPPC   C30 1780   6.983   4.187   1.883 -0.6247 -0.0590 -0.9133
   36DPPC   C31 1781   7.034   4.047   1.847  0.2382 -0.0410  0.1808
   36DPPC   C32 1782   5.313   4.537   2.070  0.0901  0.2787  0.0167
   36DPPC   O33 1783   5.236   4.488   2.180  0.8221 -0.3879  0.2420
   36DPPC   C34 1784   5.207   4.576   2.280  0.2701 -0.1092 -0.1548
   36DPPC   O35 1785   5.235   4.695   2.272 -0.2126  0.0212  0.0875
   36DPPC   C36 1786   5.124   4.526   2.399  0.1300 -0.3119 -0.3372
   36DPPC   C37 1787   5.206   4.555   2.525  0.2962 -0.4120 -0.4210
   36DPPC   C38 1788   5.148   4.476   2.642  0.1873  0.4812  0.1443
   36DPPC   C39 1789   5.219   4.491   2.777 -0.0922 -0.0821  0.3571
   36DPPC   C40 1790   5.184   4.363   2.855  0.2734  0.1246  0.8616
   36DPPC   C41 1791   5.036   4.337   2.881  0.0982 -0.0102 -0.2001
   36DPPC   C42 1792   5.004   4.192   2.919  0.0076  0.0350 -0.1026
   36DPPC   C43 1793   5.059   4.101   2.809  0.9545  0.2950  0.1462
   36DPPC   C44 1794   5.086   3.960   2.861  0.0593  0.0447 -0.0653
   36DPPC   C45 1795   5.193   3.956   2.970  0.2448  0.4487 -0.2314
   36DPPC   C46 1796   5.202   3.813   3.024  0.0031  0.4910 -0.0797
   36DPPC   C47 1797   5.303   3.794   3.137 -0.2925 -0.5348  0.0232
   36DPPC   C48 1798   5.322   3.643   3.156 -0.7205 -0.5257  0.5494
   36DPPC   C49 1799   5.411   3.626   3.279  0.2660  0.1714 -0.0555
   36DPPC   C50 1800   5.454   3.480   3.297  0.1971  0.2003  0.3371
   37DPPC    C1 1801   5.641   2.449   1.333 -0.2950 -0.0869  0.1974
   37DPPC    C2 1802   5.668   2.445   1.095 -0.3639  0.0264 -0.3001
   37DPPC    C3 1803   5.471   2.537   1.195 -0.5123  0.1101  0.4733
   37DPPC    N4 1804   5.571   2.431   1.204 -0.0890  0.4626  0.0035
   37DPPC    C5 1805   5.490   2.309   1.193  0.4426  0.1205 -0.1956
   37DPPC    C6 1806   5.556   2.180   1.241 -0.1037  0.1898  0.7790
   37DPPC    O7 1807   5.452   2.082   1.249 -0.0398  0.0237 -0.2041
   37DPPC    P8 1808   5.477   1.925   1.274 -0.0037  0.0306 -0.1984
   37DPPC    O9 1809   5.355   1.876   1.341  0.3258 -0.0687  0.3299
   37DPPC   O10 1810   5.512   1.881   1.137  0.7898 -0.1364  0.0519
   37DPPC   O11 1811   5.614   1.926   1.359  0.0866 -0.6409 -0.3297
   37DPPC   C12 1812   5.577   1.860   1.480  0.0128  0.1080  0.0576
   37DPPC   C13 1813   5.678   1.873   1.595  0.3786  0.3337 -0.2853
   37DPPC   O14 1814   5.682   1.768   1.693  0.5282 -0.2433 -0.9079
   37DPPC   C15 1815   5.796   1.745   1.762  0.0403  0.8304  0.2942
   37DPPC   O16 1816   5.904   1.783   1.718  0.0210  0.1991 -0.3171
   37DPPC   C17 1817   5.787   1.644   1.877  0.0593  0.6908  0.1744
   37DPPC   C18 1818   5.853   1.696   2.005  0.4870  0.1796  0.1646
   37DPPC   C19 1819   5.822   1.616   2.132  0.2576  0.6026  0.3813
   37DPPC   C20 1820   5.863   1.687   2.260  1.0464  0.7480  0.0578
   37DPPC   C21 1821   5.943   1.589   2.346 -0.6610 -0.6991  0.0511
   37DPPC   C22 1822   5.989   1.646   2.480  0.5376 -0.1313 -0.5840
   37DPPC   C23 1823   6.076   1.552   2.563  0.6369  0.0383 -0.4940
   37DPPC   C24 1824   6.112   1.601   2.703 -0.1424 -0.3909 -0.1339
   37DPPC   C25 1825   6.199   1.494   2.770  0.2396 -0.1623 -0.2576
   37DPPC   C26 1826   6.324   1.463   2.688  0.4796  0.9729 -0.3282
   37DPPC   C27 1827   6.458   1.453   2.763  0.2417  0.0276 -0.0110
   37DPPC   C28 1828   6.466   1.319   2.836  0.7719  0.0238 -0.0707
   37DPPC   C29 1829   6.601   1.311   2.907  0.3796 -0.0402  0.6824
   37DPPC   C30 1830   6.614   1.188   2.996 -0.3533 -0.5026  0.1588
   37DPPC   C31 1831   6.530   1.217   3.121  0.0493 -0.2817  0.3784
   37DPPC   C32 1832   5.664   2.020   1.637  0.3269  0.3657 -0.4140
   37DPPC   O33 1833   5.529   2.060   1.662  0.2084 -0.0093 -0.4567
   37DPPC   C34 1834   5.494   2.190   1.648  0.4284  0.1343  0.3182
   37DPPC   O35 1835   5.576   2.271   1.604  0.4539 -0.1752 -0.2186
   37DPPC   C36 1836   5.366   2.231   1.720  0.5076  0.0264  0.5200
   37DPPC   C37 1837   5.406   2.334   1.826  0.8215  0.5269 -0.0855
   37DPPC   C38 1838   5.284   2.379   1.907  0.6283 -0.4448  0.1725
   37DPPC   C39 1839   5.304   2.513   1.978  0.1572 -0.6360  0.6739
   37DPPC   C40 1840   5.174   2.562   2.042 -0.2260 -0.1417 -0.4545
   37DPPC   C41 1841   5.191   2.692   2.120  0.2277 -0.1444 -0.5441
   37DPPC   C42 1842   5.287   2.684   2.239 -0.3457 -0.2271 -0.0819
   37DPPC   C43 1843   5.285   2.817   2.314 -0.1368  0.0924 -0.6429
   37DPPC   C44 1844   5.151   2.847   2.380  0.0142  0.5102 -0.5219
   37DPPC   C45 1845   5.133   2.990   2.431 -0.5710  0.2657 -0.0282
   37DPPC   C46 1846   5.248   3.020   2.528 -0.6434 -0.4941  0.3029
   37DPPC   C47 1847   5.244   3.162   2.586  0.2496 -0.1148 -0.5336
   37DPPC   C48 1848   5.346   3.202   2.692 -0.1663  0.0883 -0.2066
   37DPPC   C49 1849   5.327   3.342   2.750  0.9839  0.4109 -0.5831
   37DPPC   C50 1850   5.429   3.378   2.859  0.5864 -0.4635  0.0850
   38DPPC    C1 1851   0.036   2.486   1.118  0.1547 -0.2408 -0.1011
   38DPPC    C2 1852   0.009   2.262   1.178  0.6353  0.1199 -0.1178
   38DPPC    C3 1853   0.080   2.406   1.339  0.2172  0.0585 -0.3077
   38DPPC    N4 1854  -0.013   2.399   1.226 -0.1036 -0.0210 -0.0408
   38DPPC    C5 1855  -0.154   2.399   1.268  0.1034  0.3697  0.6735
   38DPPC    C6 1856  -0.232   2.531   1.267 -0.4424  0.0573 -0.2529
   38DPPC    O7 1857  -0.374   2.525   1.261 -0.4015 -0.4267 -0.8317
   38DPPC    P8 1858  -0.429   2.677   1.255 -0.1786 -0.3285 -0.4199
   38DPPC    O9 1859  -0.341   2.748   1.161 -0.5575  0.4824 -0.1662
   38DPPC   O10 1860  -0.573   2.676   1.223 -0.2848 -0.2660  0.0519
   38DPPC   O11 1861  -0.401   2.720   1.408 -0.0083 -0.1589 -0.4986
   38DPPC   C12 1862  -0.507   2.666   1.487  0.4353  0.3604  0.4712
   38DPPC   C13 1863  -0.512   2.698   1.636 -0.1808  0.2581  0.4739
   38DPPC   O14 1864  -0.607   2.612   1.702 -0.0787 -0.0566  0.2163
   38DPPC   C15 1865  -0.557   2.516   1.784 -0.1116 -0.0833  0.2048
   38DPPC   O16 1866  -0.436   2.498   1.793 -0.0118  0.4832  0.0536
   38DPPC   C17 1867  -0.661   2.424   1.848 -0.2841  0.1424  0.2508
   38DPPC   C18 1868  -0.641   2.398   1.998  0.5211 -0.4470  0.0479
   38DPPC   C19 1869  -0.668   2.531   2.068  0.6287 -0.3402 -0.1107
   38DPPC   C20 1870  -0.678   2.520   2.221  0.5761 -0.5033 -0.1250
   38DPPC   C21 1871  -0.728   2.652   2.281  0.6225 -0.3328 -0.4549
   38DPPC   C22 1872  -0.715   2.644   2.433  0.4359  0.5465 -0.3906
   38DPPC   C23 1873  -0.785   2.761   2.503 -0.8762 -0.3930 -0.1027
   38DPPC   C24 1874  -0.764   2.750   2.655 -0.2506  0.1941 -0.1434
   38DPPC   C25 1875  -0.836   2.848   2.749 -0.0426  0.0419  0.1752
   38DPPC   C26 1876  -0.802   2.799   2.890 -0.1596  0.1961  0.2565
   38DPPC   C27 1877  -0.828   2.889   3.011  0.0421 -0.0291  0.4664
   38DPPC   C28 1878  -0.975   2.915   3.043  0.0322  0.2315  0.2088
   38DPPC   C29 1879  -0.970   3.016   3.158 -0.1309  0.1241  0.3099
   38DPPC   C30 1880  -1.105   3.019   3.231  0.0393  0.4115  0.6138
   38DPPC   C31 1881  -1.126   2.877   3.282  0.1716 -0.0030 -0.4694
   38DPPC   C32 1882  -0.560   2.843   1.643 -0.0921  0.2892  0.4313
   38DPPC   O33 1883  -0.471   2.918   1.726  0.2765  0.1830  0.1360
   38DPPC   C34 1884  -0.506   3.043   1.768 -0.4920 -0.1177  0.4094
   38DPPC   O35 1885  -0.617   3.088   1.739 -0.4259 -0.0744  0.2270
   38DPPC   C36 1886  -0.411   3.119   1.861 -0.0142 -0.0845 -0.1021
   38DPPC   C37 1887  -0.359   3.030   1.973 -0.7852 -0.0364  0.3015
   38DPPC   C38 1888  -0.469   2.981   2.068 -0.4887 -0.2217  0.5519
   38DPPC   C39 1889  -0.411   2.890   2.177 -0.4231 -0.3416  0.4181
   38DPPC   C40 1890  -0.353   2.987   2.280 -0.4532  0.0439  0.0739
   38DPPC   C41 1891  -0.312   2.903   2.400  0.0733 -0.0741 -0.1864
   38DPPC   C42 1892  -0.279   2.974   2.532 -0.0787  0.1023 -0.2431
   38DPPC   C43 1893  -0.275   2.875   2.648  0.1356  0.0251 -0.3147
   38DPPC   C44 1894  -0.283   2.929   2.791  0.5113  0.0260 -0.2944
   38DPPC   C45 1895  -0.185   3.041   2.828  0.8249 -0.3376 -0.0157
   38DPPC   C46 1896  -0.172   3.096   2.970  0.1495 -0.2303  0.0075
   38DPPC   C47 1897  -0.076   3.215   2.970 -0.3155  0.1520 -0.4750
   38DPPC   C48 1898  -0.052   3.267   3.112  0.7133  0.0876 -0.6125
   38DPPC   C49 1899   0.042   3.174   3.188  0.5693  0.7961  0.4487
   38DPPC   C50 1900   0.040   3.191   3.340  0.3277  0.1991  0.5134
   39DPPC    C1 1901   5.373   3.489   1.647 -0.7076  0.3227  0.4803
   39DPPC    C2 1902   5.159   3.469   1.560 -0.2627  0.0113 -0.3424
   39DPPC    C3 1903   5.291   3.623   1.463  0.4790 -0.1710  0.3282
   39DPPC    N4 1904   5.299   3.488   1.520 -0.0872 -0.2968  0.1173
   39DPPC    C5 1905   5.324   3.390   1.413  0.3563 -0.0921  0.0316
   39DPPC    C6 1906   5.473   3.372   1.381  0.3705  0.1208 -0.0206
   39DPPC    O7 1907   5.541   3.486   1.328 -0.2513  0.2023 -0.6679
   39DPPC    P8 1908   5.691   3.427   1.316 -0.0836  0.4376  0.1980
   39DPPC    O9 1909   5.682   3.291   1.258 -0.3314  0.8395 -0.7264
   39DPPC   O10 1910   5.782   3.533   1.267  0.1290 -0.0893 -0.5676
   39DPPC   O11 1911   5.725   3.411   1.472 -0.1227  0.0298  0.1650
   39DPPC   C12 1912   5.868   3.408   1.486 -0.1082 -0.3123 -0.0366
   39DPPC   C13 1913   5.932   3.440   1.621  0.0067 -0.4759 -0.0527
   39DPPC   O14 1914   6.052   3.372   1.661  0.1627 -0.1241  0.0854
   39DPPC   C15 1915   6.174   3.410   1.615  0.1089  0.1294  0.1525
   39DPPC   O16 1916   6.181   3.491   1.522  0.5711  0.2228  0.2643
   39DPPC   C17 1917   6.302   3.370   1.689 -0.0127 -0.3946  0.0832
   39DPPC   C18 1918   6.281   3.371   1.840  0.2082 -0.0472  0.1123
   39DPPC   C19 1919   6.422   3.335   1.886  0.4753  0.4237 -0.3340
   39DPPC   C20 1920   6.420   3.333   2.039  0.4301 -0.3823 -0.3457
   39DPPC   C21 1921   6.559   3.358   2.099  0.2827 -0.7785  0.1661
   39DPPC   C22 1922   6.565   3.294   2.238  0.1628 -0.2910  0.3942
   39DPPC   C23 1923   6.630   3.156   2.231 -0.1534 -0.4268  0.1197
   39DPPC   C24 1924   6.586   3.086   2.360  0.1470  0.0772  0.5003
   39DPPC   C25 1925   6.654   3.165   2.471 -0.3542  0.9571  0.1907
   39DPPC   C26 1926   6.600   3.145   2.613  0.4986 -0.0719  0.3831
   39DPPC   C27 1927   6.677   3.220   2.722 -0.7259  0.3945  0.9474
   39DPPC   C28 1928   6.685   3.372   2.709 -0.1310  0.2749 -0.2316
   39DPPC   C29 1929   6.774   3.451   2.806 -0.2801  0.5292 -0.3017
   39DPPC   C30 1930   6.743   3.600   2.786 -0.7499  0.4821  0.0506
   39DPPC   C31 1931   6.830   3.695   2.867 -0.4226  0.0698  0.1858
   39DPPC   C32 1932   5.815   3.436   1.719 -0.2396  0.7082 -0.2769
   39DPPC   O33 1933   5.834   3.463   1.859 -0.1350  0.5731 -0.2650
   39DPPC   C34 1934   5.718   3.449   1.928  0.2993 -0.3436  0.2989
   39DPPC   O35 1935   5.622   3.395   1.873 -0.0150 -0.3870  0.8864
   39DPPC   C36 1936   5.731   3.469   2.079 -0.2171 -0.3672  0.3489
   39DPPC   C37 1937   5.878   3.490   2.116 -0.2639 -0.0040  0.3324
   39DPPC   C38 1938   5.889   3.564   2.249 -0.0761  0.0834  0.2688
   39DPPC   C39 1939   5.999   3.510   2.341 -0.2573 -0.2009  0.3185
   39DPPC   C40 1940   6.001   3.607   2.459  0.1251  0.2999 -0.0979
   39DPPC   C41 1941   6.125   3.568   2.540  0.0741 -0.1747 -0.2495
   39DPPC   C42 1942   6.165   3.677   2.640 -0.7793 -0.1654  0.0895
   39DPPC   C43 1943   6.276   3.614   2.723 -0.2381  0.6487 -0.0117
   39DPPC   C44 1944   6.284   3.673   2.864 -0.0945 -0.0253  0.2663
   39DPPC   C45 1945   6.384   3.595   2.950 -0.2621 -0.4538  0.0754
   39DPPC   C46 1946   6.412   3.654   3.088  0.0428 -0.6179  0.0832
   39DPPC   C47 1947   6.453   3.801   3.099  0.2388 -0.6837  0.2487
   39DPPC   C48 1948   6.427   3.844   3.244  0.1921 -0.5743  0.2080
   39DPPC   C49 1949   6.514   3.961   3.290  0.0948 -0.0493 -0.9024
   39DPPC   C50 1950   6.481   4.102   3.241 -0.0625  0.5812  0.9197
   40DPPC    C1 1951   5.965   3.928   0.714 -0.1686 -0.7147  0.3150
   40DPPC    C2 1952   6.046   3.707   0.711 -0.2244  0.0074 -0.1810
   40DPPC    C3 1953   6.088   3.848   0.900 -0.1927 -0.2755  0.4258
   40DPPC    N4 1954   5.988   3.810   0.799 -0.1844 -0.5674  0.5250
   40DPPC    C5 1955   5.872   3.754   0.869 -0.1935 -0.6245  0.4639
   40DPPC    C6 1956   5.785   3.843   0.958 -0.5975  0.0823 -0.6091
   40DPPC    O7 1957   5.685   3.763   1.023 -0.4100  0.1569 -0.2291
   40DPPC    P8 1958   5.601   3.840   1.137  0.1227  0.2197  0.1263
   40DPPC    O9 1959   5.595   3.985   1.106  0.6590  0.1168 -0.4765
   40DPPC   O10 1960   5.473   3.769   1.155  0.4449 -0.3479  0.2069
   40DPPC   O11 1961   5.705   3.815   1.258 -0.0543  0.0985  0.2538
   40DPPC   C12 1962   5.622   3.829   1.373 -0.2681  0.0963  0.1004
   40DPPC   C13 1963   5.673   3.763   1.501  0.1697  0.7361  0.2608
   40DPPC   O14 1964   5.586   3.777   1.614 -0.1523 -0.4761  0.1725
   40DPPC   C15 1965   5.555   3.895   1.674 -0.0537 -0.2288 -0.2676
   40DPPC   O16 1966   5.605   4.001   1.636  0.3199 -0.4134 -0.2916
   40DPPC   C17 1967   5.434   3.885   1.767  0.1738  0.1131  0.0703
   40DPPC   C18 1968   5.452   3.919   1.915 -0.2897  0.6826 -0.0028
   40DPPC   C19 1969   5.579   3.876   1.988  0.0134  0.3596 -0.7045
   40DPPC   C20 1970   5.579   3.950   2.122  0.3236  0.0523 -0.5339
   40DPPC   C21 1971   5.722   3.930   2.172  0.1067 -0.2199 -0.0188
   40DPPC   C22 1972   5.735   4.021   2.295 -0.4641 -0.1396 -0.0155
   40DPPC   C23 1973   5.876   4.039   2.351 -0.4365 -0.0518 -0.1142
   40DPPC   C24 1974   5.882   4.114   2.484  0.0943 -0.0481 -0.1365
   40DPPC   C25 1975   6.029   4.131   2.522  0.1995 -0.5073 -0.3315
   40DPPC   C26 1976   6.050   4.207   2.653 -0.0444  0.0387 -0.6060
   40DPPC   C27 1977   6.026   4.120   2.777  0.2952 -0.1999 -0.7044
   40DPPC   C28 1978   6.059   4.183   2.912  0.4211 -0.3287 -0.6758
   40DPPC   C29 1979   6.010   4.084   3.018  0.2256  0.2445 -0.2245
   40DPPC   C30 1980   6.069   3.947   2.982  0.5970  0.2733  0.2663
   40DPPC   C31 1981   6.043   3.834   3.081 -0.3209  0.3429  0.1078
   40DPPC   C32 1982   5.818   3.809   1.517  0.2225  0.5839  0.2197
   40DPPC   O33 1983   5.891   3.749   1.625 -0.2341  0.5096  0.4888
   40DPPC   C34 1984   6.010   3.809   1.647  0.3181 -0.1744 -0.5199
   40DPPC   O35 1985   6.059   3.889   1.568 -0.0853 -0.0350 -0.6298
   40DPPC   C36 1986   6.088   3.758   1.769  0.0270  0.0505 -0.2382
   40DPPC   C37 1987   6.053   3.838   1.895 -0.2312 -0.2641 -0.1090
   40DPPC   C38 1988   6.155   3.782   1.995 -0.4465  0.4327  0.5101
   40DPPC   C39 1989   6.177   3.850   2.130 -0.1066  0.7425  0.2992
   40DPPC   C40 1990   6.292   3.796   2.215 -0.3692  0.2009  0.3195
   40DPPC   C41 1991   6.331   3.896   2.325 -0.0786  0.3389  0.0948
   40DPPC   C42 1992   6.458   3.873   2.406 -0.0111 -0.2408 -0.1661
   40DPPC   C43 1993   6.462   3.960   2.532 -0.1924 -0.0365 -0.3013
   40DPPC   C44 1994   6.602   3.966   2.593 -0.3463 -0.4995  0.1053
   40DPPC   C45 1995   6.603   4.026   2.734  0.0535 -0.3703  0.0473
   40DPPC   C46 1996   6.747   4.064   2.770 -0.0708 -0.0056  0.1643
   40DPPC   C47 1997   6.741   4.130   2.907 -0.1569  0.3903 -0.0283
   40DPPC   C48 1998   6.881   4.174   2.952 -0.2792  0.5021  0.2483
   40DPPC   C49 1999   6.956   4.062   3.024 -0.1397  0.0784 -0.5507
   40DPPC   C50 2000   6.884   4.005   3.146 -0.5885 -0.1858 -0.9335
   41DPPC    C1 2001   0.479   1.900   1.590  0.6970  0.0183  0.1499
   41DPPC    C2 2002   0.378   1.752   1.444  0.5842 -0.4944  0.0793
   41DPPC    C3 2003   0.524   1.907   1.363 -0.7512 -0.4330 -0.0691
   41DPPC    N4 2004   0.413   1.895   1.459 -0.1912 -0.3498  0.6022
   41DPPC    C5 2005   0.320   2.006   1.439  0.0607 -0.2152  0.1532
   41DPPC    C6 2006   0.186   1.982   1.509 -0.1440 -0.4498 -0.3156
   41DPPC    O7 2007   0.095   2.090   1.486 -0.0288 -0.1851  0.4243
   41DPPC    P8 2008  -0.057   2.045   1.515 -0.1584 -0.1254 -0.1427
   41DPPC    O9 2009  -0.136   2.164   1.475 -0.3363 -0.0652  0.3848
   41DPPC   O10 2010  -0.060   1.918   1.441 -0.1012  0.2537 -0.8030
   41DPPC   O11 2011  -0.046   2.029   1.675  0.4177  0.1777 -0.1481
   41DPPC   C12 2012  -0.023   2.165   1.712 -0.0874  0.2170  0.0270
   41DPPC   C13 2013  -0.021   2.157   1.865 -0.3363 -0.0672  0.0169
   41DPPC   O14 2014  -0.099   2.251   1.940 -0.4024 -0.0729 -0.0442
   41DPPC   C15 2015  -0.065   2.383   1.942 -0.4321 -0.0605 -0.3728
   41DPPC   O16 2016  -0.007   2.424   1.842  0.2909 -0.1997 -0.0164
   41DPPC   C17 2017  -0.144   2.483   2.026  0.2654  0.2311 -0.0589
   41DPPC   C18 2018  -0.132   2.457   2.177 -0.1476 -0.1472 -0.0907
   41DPPC   C19 2019  -0.201   2.576   2.243 -0.5708 -0.1202 -0.5731
   41DPPC   C20 2020  -0.243   2.566   2.390 -0.0153 -0.0637 -0.4079
   41DPPC   C21 2021  -0.358   2.468   2.413 -0.0930  0.0822 -0.1593
   41DPPC   C22 2022  -0.409   2.462   2.557 -0.1511  1.0269 -0.1384
   41DPPC   C23 2023  -0.294   2.436   2.654 -0.4162  0.7541  0.1043
   41DPPC   C24 2024  -0.344   2.393   2.792  0.5080 -0.5039  0.0718
   41DPPC   C25 2025  -0.219   2.391   2.880  0.4542  0.3801  0.1769
   41DPPC   C26 2026  -0.240   2.318   3.012  0.2742  0.4967  0.2129
   41DPPC   C27 2027  -0.105   2.308   3.082  0.2284  0.1766  0.2557
   41DPPC   C28 2028  -0.092   2.189   3.179  0.0280 -0.2574 -0.2450
   41DPPC   C29 2029  -0.107   2.060   3.099 -0.1843  0.0708 -0.7411
   41DPPC   C30 2030  -0.083   1.935   3.185  0.0338  0.5143 -0.1516
   41DPPC   C31 2031  -0.179   1.943   3.304 -0.0206 -0.1883 -0.1463
   41DPPC   C32 2032   0.127   2.132   1.893 -0.3326 -0.3408 -0.2405
   41DPPC   O33 2033   0.150   2.096   2.030  0.3641  0.4375 -0.1448
   41DPPC   C34 2034   0.282   2.078   2.055  0.1509 -0.0506  0.6507
   41DPPC   O35 2035   0.356   2.038   1.965 -0.7208 -0.1114 -0.0452
   41DPPC   C36 2036   0.328   2.068   2.201  0.2063 -0.0460  0.6338
   41DPPC   C37 2037   0.253   1.964   2.285 -0.2603 -0.1307  0.1142
   41DPPC   C38 2038   0.363   1.890   2.361 -0.3347  0.1539  0.4977
   41DPPC   C39 2039   0.313   1.846   2.498  0.1250  0.2705  0.7057
   41DPPC   C40 2040   0.419   1.766   2.575  0.2563 -0.0943  0.1486
   41DPPC   C41 2041   0.363   1.691   2.696 -0.3735 -0.0337 -0.1031
   41DPPC   C42 2042   0.482   1.633   2.772 -0.4525 -0.2020 -0.1088
   41DPPC   C43 2043   0.439   1.551   2.894 -0.1110 -0.2842 -0.0437
   41DPPC   C44 2044   0.560   1.493   2.967 -0.2364 -0.1232  0.2950
   41DPPC   C45 2045   0.543   1.544   3.110  0.1582 -0.0273  0.3091
   41DPPC   C46 2046   0.650   1.473   3.194  0.2940 -0.3622 -0.1418
   41DPPC   C47 2047   0.649   1.539   3.332  0.4054  0.0593 -0.3376
   41DPPC   C48 2048   0.730   1.446   3.423  0.2063  0.1604 -0.0560
   41DPPC   C49 2049   0.770   1.530   3.546  0.5414  0.2472 -0.2226
   41DPPC   C50 2050   0.641   1.581   3.611  0.7066  0.3755  0.0032
   42DPPC    C1 2051   6.374   3.031   1.112 -0.0335 -0.4115 -0.3568
   42DPPC    C2 2052   6.255   3.241   1.063 -0.1573 -0.2757  0.3316
   42DPPC    C3 2053   6.158   3.058   1.170 -0.0052 -0.0287  0.2477
   42DPPC    N4 2054   6.283   3.135   1.161  0.2170 -0.4017  0.0922
   42DPPC    C5 2055   6.305   3.182   1.299 -0.0055 -0.3938  0.1261
   42DPPC    C6 2056   6.406   3.297   1.305 -0.2252 -0.1864 -0.0999
   42DPPC    O7 2057   6.528   3.278   1.233 -0.0272  0.0640  0.1701
   42DPPC    P8 2058   6.634   3.392   1.275  0.0690 -0.0060  0.1157
   42DPPC    O9 2059   6.759   3.389   1.196  0.1756  0.3623  0.2661
   42DPPC   O10 2060   6.548   3.512   1.281 -0.3069 -0.2432 -0.5139
   42DPPC   O11 2061   6.650   3.346   1.429 -0.2236  0.2132  0.2117
   42DPPC   C12 2062   6.752   3.248   1.448 -0.3765 -0.0633 -0.3661
   42DPPC   C13 2063   6.788   3.178   1.580 -0.2975  0.2818 -0.2046
   42DPPC   O14 2064   6.682   3.114   1.652 -0.0599  0.5730  0.4149
   42DPPC   C15 2065   6.637   2.993   1.610  0.2852  0.5825  0.0094
   42DPPC   O16 2066   6.686   2.936   1.512 -0.3045 -0.2126  0.1630
   42DPPC   C17 2067   6.521   2.933   1.690  0.4954  0.1215 -0.0263
   42DPPC   C18 2068   6.572   2.895   1.829  0.0184  0.1554  0.1578
   42DPPC   C19 2069   6.456   2.839   1.912 -0.0285 -0.2460 -0.1729
   42DPPC   C20 2070   6.513   2.796   2.048  0.1115 -0.2127 -0.2213
   42DPPC   C21 2071   6.630   2.700   2.028  0.2959  0.0147 -0.2383
   42DPPC   C22 2072   6.715   2.698   2.155  0.2500  0.3075 -0.2035
   42DPPC   C23 2073   6.624   2.646   2.267  0.6642 -0.7210 -0.3395
   42DPPC   C24 2074   6.658   2.713   2.400  0.1401  0.4236 -0.7784
   42DPPC   C25 2075   6.548   2.697   2.505  0.7563 -0.1191 -0.2123
   42DPPC   C26 2076   6.601   2.743   2.641 -0.7259  0.4107  0.2015
   42DPPC   C27 2077   6.499   2.704   2.749 -0.3648  0.1429  0.4490
   42DPPC   C28 2078   6.555   2.751   2.883  0.2336 -0.1762  0.3116
   42DPPC   C29 2079   6.449   2.713   2.986  0.2025 -0.1091  0.3039
   42DPPC   C30 2080   6.500   2.723   3.130  0.1112  0.3193  0.3097
   42DPPC   C31 2081   6.389   2.683   3.228 -0.1592  0.1392 -0.0660
   42DPPC   C32 2082   6.845   3.295   1.662  0.5359 -0.2994  0.0634
   42DPPC   O33 2083   6.971   3.346   1.618  0.5421 -0.0825  0.3301
   42DPPC   C34 2084   7.017   3.462   1.670  0.4234  0.1035  0.0276
   42DPPC   O35 2085   6.944   3.544   1.726  0.4144 -0.3217  0.6528
   42DPPC   C36 2086   7.165   3.489   1.640  0.5736 -0.1780  0.4996
   42DPPC   C37 2087   7.227   3.625   1.673  0.0908  0.1972 -0.1199
   42DPPC   C38 2088   7.204   3.684   1.812 -0.2143  0.3376 -0.2282
   42DPPC   C39 2089   7.230   3.591   1.931  0.2389  0.1112 -0.5022
   42DPPC   C40 2090   7.203   3.659   2.066  0.4182 -0.1297 -0.3441
   42DPPC   C41 2091   7.313   3.763   2.083  0.2284  0.0001  0.0807
   42DPPC   C42 2092   7.292   3.844   2.211  0.4081 -0.2854  0.2914
   42DPPC   C43 2093   7.411   3.940   2.219 -0.3128  0.6881 -0.3857
   42DPPC   C44 2094   7.404   4.015   2.352  0.3667 -0.0625  0.0909
   42DPPC   C45 2095   7.516   4.119   2.360  0.3612 -0.0666  0.2226
   42DPPC   C46 2096   7.536   4.206   2.484  0.0422  0.4387 -0.0801
   42DPPC   C47 2097   7.668   4.281   2.470  0.0431  0.4230 -0.1538
   42DPPC   C48 2098   7.764   4.225   2.575 -0.2869 -0.2643 -0.2154
   42DPPC   C49 2099   7.751   4.293   2.712  0.2730 -0.1891 -0.1976
   42DPPC   C50 2100   7.825   4.214   2.820  0.0511 -0.0131  0.0820
   43DPPC    C1 2101   0.356   3.715   1.079  0.3670  0.3462 -0.4469
   43DPPC    C2 2102   0.415   3.924   1.171  0.1180  0.2705 -0.1397
   43DPPC    C3 2103   0.203   3.827   1.216  0.0315  0.2054 -0.0894
   43DPPC    N4 2104   0.304   3.848   1.111  0.1306  0.1474 -0.0065
   43DPPC    C5 2105   0.236   3.920   1.002 -0.2392  0.0845  0.1811
   43DPPC    C6 2106   0.206   4.070   1.007 -1.5222 -0.1124 -0.9823
   43DPPC    O7 2107   0.117   4.127   1.104 -0.3922 -0.0259  0.0259
   43DPPC    P8 2108   0.136   4.287   1.106  0.0887 -0.0787 -0.0318
   43DPPC    O9 2109   0.279   4.295   1.071 -0.1120 -0.0529 -0.8831
   43DPPC   O10 2110   0.030   4.319   1.007  0.3562  0.2426 -0.2146
   43DPPC   O11 2111   0.095   4.280   1.262 -0.6092 -0.1052 -0.2137
   43DPPC   C12 2112   0.210   4.251   1.341 -0.5269  0.1457 -0.2414
   43DPPC   C13 2113   0.198   4.261   1.493  0.1657 -0.0166 -0.1725
   43DPPC   O14 2114   0.114   4.157   1.546  0.1932  0.2235  0.3426
   43DPPC   C15 2115   0.169   4.037   1.579 -0.5481 -0.2193 -0.0095
   43DPPC   O16 2116   0.270   4.000   1.520 -0.3626  0.8173 -0.3659
   43DPPC   C17 2117   0.072   3.938   1.644 -0.4967 -0.1234  0.2182
   43DPPC   C18 2118   0.070   3.927   1.796 -0.1399  0.3051  0.2548
   43DPPC   C19 2119   0.211   3.924   1.856  0.0114 -0.0043 -0.1150
   43DPPC   C20 2120   0.208   3.900   2.007 -0.2154  1.4069  0.1171
   43DPPC   C21 2121   0.348   3.911   2.067 -0.0635 -0.4751  0.1760
   43DPPC   C22 2122   0.354   3.877   2.216 -0.0209  0.0992  0.3112
   43DPPC   C23 2123   0.493   3.891   2.280  0.1651 -0.0065 -0.0622
   43DPPC   C24 2124   0.492   3.828   2.419 -0.0523 -0.1182 -0.1133
   43DPPC   C25 2125   0.635   3.844   2.472 -0.4330  0.4836  0.7561
   43DPPC   C26 2126   0.646   3.818   2.623 -0.0906  0.1727  0.6798
   43DPPC   C27 2127   0.787   3.808   2.680  0.0976  0.2067  0.2241
   43DPPC   C28 2128   0.792   3.783   2.831  0.5795 -0.1246  0.1559
   43DPPC   C29 2129   0.875   3.663   2.875  0.2736 -0.3085  0.2330
   43DPPC   C30 2130   0.819   3.531   2.820 -0.0303 -0.0943  0.0276
   43DPPC   C31 2131   0.915   3.412   2.833  0.1704  0.0286 -0.3064
   43DPPC   C32 2132   0.137   4.400   1.509 -0.2005 -0.1766 -0.1674
   43DPPC   O33 2133   0.243   4.491   1.540 -0.3553  0.0149 -0.1994
   43DPPC   C34 2134   0.202   4.621   1.548  0.1094  0.1268  0.5058
   43DPPC   O35 2135   0.106   4.656   1.479  0.3956 -0.1041 -0.0206
   43DPPC   C36 2136   0.299   4.730   1.593  0.2882  0.3160 -0.3077
   43DPPC   C37 2137   0.291   4.729   1.746  0.2093 -0.2363 -0.3130
   43DPPC   C38 2138   0.376   4.840   1.809 -0.0428 -0.0685 -0.2710
   43DPPC   C39 2139   0.349   4.824   1.959  0.2786  0.3122 -0.1716
   43DPPC   C40 2140   0.428   4.928   2.038  0.1087  0.1513  0.2092
   43DPPC   C41 2141   0.409   4.907   2.189 -1.0000  0.0342  0.0664
   43DPPC   C42 2142   0.437   4.765   2.238  0.4253  0.2441 -0.0981
   43DPPC   C43 2143   0.408   4.764   2.388  0.3567  0.1678 -0.1122
   43DPPC   C44 2144   0.422   4.628   2.457 -0.0343  0.0361 -0.2863
   43DPPC   C45 2145   0.412   4.656   2.607  0.1054 -0.1458 -0.2424
   43DPPC   C46 2146   0.536   4.733   2.652 -0.2105  0.0614  0.2892
   43DPPC   C47 2147   0.542   4.764   2.802 -0.1100  0.0040  0.2973
   43DPPC   C48 2148   0.553   4.639   2.889  0.7050 -0.0445  0.1302
   43DPPC   C49 2149   0.605   4.682   3.026 -0.6304  0.0079  0.6368
   43DPPC   C50 2150   0.630   4.556   3.110  0.3374 -0.2492 -0.0126
   44DPPC    C1 2151   6.022   1.554   1.477 -0.1916  0.0941  0.2849
   44DPPC    C2 2152   6.213   1.678   1.549 -0.3548  0.4433  0.4624
   44DPPC    C3 2153   6.040   1.779   1.439 -0.1332 -0.1519  0.1757
   44DPPC    N4 2154   6.120   1.656   1.438 -0.0148 -0.0770  0.2803
   44DPPC    C5 2155   6.187   1.615   1.314 -0.7620 -0.3146 -0.0502
   44DPPC    C6 2156   6.289   1.500   1.315 -0.6628 -0.2249  0.0482
   44DPPC    O7 2157   6.246   1.381   1.381 -0.1812 -0.1282  0.5457
   44DPPC    P8 2158   6.355   1.267   1.354 -0.2440 -0.0319 -0.1105
   44DPPC    O9 2159   6.316   1.132   1.402  0.6620 -0.5768 -0.8447
   44DPPC   O10 2160   6.395   1.291   1.213 -0.2937  0.2005 -0.0847
   44DPPC   O11 2161   6.466   1.325   1.454 -0.0379 -0.1543 -0.2649
   44DPPC   C12 2162   6.463   1.269   1.586  0.3936  0.3150 -0.0516
   44DPPC   C13 2163   6.584   1.304   1.672 -0.0214 -0.2079  0.7549
   44DPPC   O14 2164   6.594   1.244   1.802 -0.3918 -0.1655  0.8014
   44DPPC   C15 2165   6.658   1.128   1.831  0.0628 -0.0743  0.1663
   44DPPC   O16 2166   6.734   1.075   1.751 -0.1554  0.0120 -0.0993
   44DPPC   C17 2167   6.612   1.054   1.957 -0.1576 -0.0786  0.0829
   44DPPC   C18 2168   6.728   0.985   2.028 -0.1708 -0.3105 -0.1156
   44DPPC   C19 2169   6.679   0.912   2.154 -0.2458 -0.2206 -0.0922
   44DPPC   C20 2170   6.615   1.005   2.257  0.2813 -0.2440  0.2617
   44DPPC   C21 2171   6.574   0.939   2.388 -0.0078 -0.6643 -0.0406
   44DPPC   C22 2172   6.455   1.009   2.454  0.1284 -0.3316 -0.1454
   44DPPC   C23 2173   6.401   0.941   2.581 -0.3306 -0.5587 -0.4591
   44DPPC   C24 2174   6.270   1.007   2.624  0.0694 -0.0313 -0.0382
   44DPPC   C25 2175   6.223   0.935   2.750 -0.3133  0.0499 -0.1319
   44DPPC   C26 2176   6.081   0.978   2.788 -0.1874  0.1360  0.2391
   44DPPC   C27 2177   6.026   0.900   2.908  0.1404 -0.2213  0.1598
   44DPPC   C28 2178   5.874   0.920   2.900  0.2140  0.6356  0.7690
   44DPPC   C29 2179   5.822   0.867   2.766  0.6428 -0.1463  0.9041
   44DPPC   C30 2180   5.671   0.888   2.758  0.7132  0.0192 -0.0146
   44DPPC   C31 2181   5.617   0.820   2.884  0.0304  0.6079  0.0185
   44DPPC   C32 2182   6.591   1.457   1.682  0.0623 -0.1938  0.4970
   44DPPC   O33 2183   6.492   1.525   1.760 -0.0032  0.2869 -0.0024
   44DPPC   C34 2184   6.525   1.657   1.757  0.4622  0.1779  0.2611
   44DPPC   O35 2185   6.599   1.704   1.672  0.0677 -0.4773 -0.4585
   44DPPC   C36 2186   6.444   1.751   1.847 -0.1690 -0.3168  0.2230
   44DPPC   C37 2187   6.321   1.686   1.910 -0.1043 -0.6071  0.0512
   44DPPC   C38 2188   6.240   1.789   1.989  0.4146  0.1976 -0.4521
   44DPPC   C39 2189   6.327   1.862   2.091  0.1359  0.1713 -0.1959
   44DPPC   C40 2190   6.232   1.942   2.181  0.5130 -0.1783  0.5174
   44DPPC   C41 2191   6.313   1.997   2.299 -0.0678  0.3396  0.6823
   44DPPC   C42 2192   6.235   2.097   2.385 -0.1783  0.5384  0.3531
   44DPPC   C43 2193   6.336   2.148   2.488  0.6595  0.2918 -0.3285
   44DPPC   C44 2194   6.448   2.238   2.436  0.5864  0.3628 -0.3636
   44DPPC   C45 2195   6.502   2.294   2.569  0.3489 -0.0299 -0.1011
   44DPPC   C46 2196   6.574   2.192   2.657 -0.1891 -0.4042 -0.0871
   44DPPC   C47 2197   6.605   2.256   2.792 -0.0750  0.2365 -0.4093
   44DPPC   C48 2198   6.661   2.157   2.895  0.0922  0.4041 -0.3399
   44DPPC   C49 2199   6.809   2.119   2.886  0.0172 -0.0038  0.1045
   44DPPC   C50 2200   6.829   1.995   2.973 -0.1251 -0.3064 -0.2931
   45DPPC    C1 2201   1.331   1.912   1.300  0.2476  0.5628 -0.0579
   45DPPC    C2 2202   1.224   1.881   1.515  0.4422 -0.3009 -0.2722
   45DPPC    C3 2203   1.459   1.926   1.503  0.4625 -0.2387  0.7934
   45DPPC    N4 2204   1.328   1.953   1.441  0.7411 -0.2467  0.1960
   45DPPC    C5 2205   1.304   2.098   1.451 -0.1311 -0.3576 -0.2339
   45DPPC    C6 2206   1.193   2.163   1.367  0.1263  0.1723 -0.1686
   45DPPC    O7 2207   1.060   2.122   1.402  0.2164  0.0841  0.0787
   45DPPC    P8 2208   0.951   2.211   1.324 -0.0038 -0.1432  0.1271
   45DPPC    O9 2209   1.003   2.265   1.197 -0.1221 -0.0955  0.0990
   45DPPC   O10 2210   0.825   2.134   1.321  0.2100 -0.4791 -0.3896
   45DPPC   O11 2211   0.956   2.322   1.441  0.2366  0.0843 -0.0977
   45DPPC   C12 2212   0.867   2.272   1.541  0.7688  0.0667  0.3670
   45DPPC   C13 2213   0.826   2.373   1.649 -0.2878  0.3148 -0.2539
   45DPPC   O14 2214   0.767   2.313   1.765  0.1706  0.0309 -0.1664
   45DPPC   C15 2215   0.641   2.263   1.775  0.2074 -0.0006  0.1582
   45DPPC   O16 2216   0.581   2.256   1.668 -0.1890 -0.5017  0.4053
   45DPPC   C17 2217   0.592   2.235   1.917 -0.0048 -0.0076  0.0837
   45DPPC   C18 2218   0.515   2.361   1.959 -0.2564 -0.3992  0.8172
   45DPPC   C19 2219   0.610   2.473   2.001  0.1514 -0.4239 -0.0302
   45DPPC   C20 2220   0.670   2.450   2.140  0.6627  0.2053 -0.1386
   45DPPC   C21 2221   0.565   2.450   2.251  0.3024  0.0357 -0.4766
   45DPPC   C22 2222   0.626   2.433   2.390 -0.2057 -0.0701 -0.2651
   45DPPC   C23 2223   0.521   2.450   2.500  0.2448 -0.0330  0.1582
   45DPPC   C24 2224   0.586   2.471   2.638  0.6631  0.1493 -0.0650
   45DPPC   C25 2225   0.472   2.483   2.738  0.4598  0.1059 -0.2895
   45DPPC   C26 2226   0.536   2.519   2.872 -0.6926  0.5253  0.1598
   45DPPC   C27 2227   0.442   2.510   2.993 -0.3612 -0.5780  0.3373
   45DPPC   C28 2228   0.523   2.541   3.119 -0.1452 -0.0370  0.0674
   45DPPC   C29 2229   0.447   2.533   3.251  0.6879  0.2633  0.5734
   45DPPC   C30 2230   0.520   2.571   3.380  0.3560  0.1392  0.8018
   45DPPC   C31 2231   0.550   2.722   3.377 -0.2621  0.2511 -0.2906
   45DPPC   C32 2232   0.764   2.502   1.594  0.4394  0.4059 -0.8802
   45DPPC   O33 2233   0.728   2.597   1.694 -0.2788 -0.5628 -0.1956
   45DPPC   C34 2234   0.659   2.710   1.661 -0.0131 -0.3248  0.0513
   45DPPC   O35 2235   0.680   2.749   1.546  0.8471 -0.4226  0.1673
   45DPPC   C36 2236   0.582   2.793   1.763  0.0592  0.0254 -0.1801
   45DPPC   C37 2237   0.585   2.944   1.735 -0.5967  0.0252 -0.2672
   45DPPC   C38 2238   0.557   3.007   1.871  0.6247  0.2213 -0.0948
   45DPPC   C39 2239   0.648   2.958   1.983 -0.5351  0.5801  1.0364
   45DPPC   C40 2240   0.604   2.977   2.128 -0.4302  0.1095  1.1316
   45DPPC   C41 2241   0.680   2.888   2.227  0.3632 -0.0221  0.4174
   45DPPC   C42 2242   0.659   2.974   2.352 -0.7680  0.1780  0.1040
   45DPPC   C43 2243   0.624   2.902   2.483 -0.0953 -0.0335  0.1704
   45DPPC   C44 2244   0.659   2.985   2.607  0.7656 -0.1642  0.0274
   45DPPC   C45 2245   0.650   2.891   2.727  0.3630 -0.3148 -0.1180
   45DPPC   C46 2246   0.708   2.969   2.846 -0.0516 -0.3668  0.1215
   45DPPC   C47 2247   0.634   3.102   2.854  0.2276 -0.1920 -0.1725
   45DPPC   C48 2248   0.645   3.162   2.994  0.4182  0.1193 -0.3200
   45DPPC   C49 2249   0.594   3.067   3.103 -0.1527  0.2839 -0.4414
   45DPPC   C50 2250   0.591   3.141   3.236  0.0285 -0.1399 -0.1998
   46DPPC    C1 2251   0.427   2.960   1.001 -0.3682 -0.0782  0.4424
   46DPPC    C2 2252   0.441   3.193   0.959  0.1018 -0.0298  0.6585
   46DPPC    C3 2253   0.540   3.042   0.800  0.3610 -0.2622  0.1231
   46DPPC    N4 2254   0.511   3.065   0.942 -0.4805 -0.2582 -0.0438
   46DPPC    C5 2255   0.636   3.081   1.018 -0.6762 -0.1155  0.2482
   46DPPC    C6 2256   0.720   2.959   1.059  0.3492  0.2956 -0.5794
   46DPPC    O7 2257   0.822   2.983   1.156  0.3642 -0.4126 -0.4140
   46DPPC    P8 2258   0.780   2.901   1.288  0.1659 -0.2265 -0.3593
   46DPPC    O9 2259   0.696   2.992   1.368  0.0347 -0.1393 -0.5938
   46DPPC   O10 2260   0.722   2.780   1.224  0.3741 -0.2467 -0.5125
   46DPPC   O11 2261   0.931   2.902   1.345 -0.1564  0.0399  0.4983
   46DPPC   C12 2262   0.963   3.018   1.422 -0.5381  0.4039  0.1150
   46DPPC   C13 2263   0.946   2.998   1.573  1.0517  0.1527  0.2771
   46DPPC   O14 2264   0.937   3.116   1.654 -0.1663  0.2542  0.0176
   46DPPC   C15 2265   1.053   3.186   1.671  0.4160 -0.7160  0.1539
   46DPPC   O16 2266   1.147   3.172   1.593  0.0432  0.1143 -0.4589
   46DPPC   C17 2267   1.059   3.296   1.778 -0.1543 -0.1519 -0.3859
   46DPPC   C18 2268   1.003   3.246   1.911  0.2949  0.3905  0.0095
   46DPPC   C19 2269   1.094   3.143   1.980 -0.1914  0.1738  0.3269
   46DPPC   C20 2270   1.036   3.093   2.113 -0.0948 -0.1223  0.2567
   46DPPC   C21 2271   1.141   3.053   2.217 -0.1660 -0.1728  0.3094
   46DPPC   C22 2272   1.088   3.064   2.360 -0.4128 -0.6821  0.2588
   46DPPC   C23 2273   1.203   3.032   2.455 -0.1033  0.4608  0.2771
   46DPPC   C24 2274   1.154   3.022   2.600 -0.3071  0.0217  0.1802
   46DPPC   C25 2275   1.265   2.962   2.687 -0.2283  0.0964  0.1317
   46DPPC   C26 2276   1.241   2.986   2.836 -0.9721 -0.1059  0.0479
   46DPPC   C27 2277   1.337   2.903   2.922 -0.8111 -0.0404 -0.0671
   46DPPC   C28 2278   1.314   2.921   3.072 -0.2537 -0.2339  0.0402
   46DPPC   C29 2279   1.345   3.067   3.106  0.2190 -0.2522 -0.3033
   46DPPC   C30 2280   1.307   3.104   3.249  0.2291  0.3807 -0.4608
   46DPPC   C31 2281   1.154   3.096   3.248  0.2589 -0.1379 -0.6924
   46DPPC   C32 2282   1.025   2.880   1.629  0.3416 -0.7703 -0.6393
   46DPPC   O33 2283   0.989   2.804   1.745  0.2822  0.2873  0.0462
   46DPPC   C34 2284   1.051   2.684   1.759 -0.4821 -0.1715 -0.3843
   46DPPC   O35 2285   1.106   2.626   1.665 -0.0297 -0.1593 -0.1308
   46DPPC   C36 2286   1.015   2.608   1.887  0.6205 -0.4520 -0.2282
   46DPPC   C37 2287   1.032   2.699   2.009 -0.7474 -0.0169 -0.3415
   46DPPC   C38 2288   1.042   2.622   2.141  0.6547  0.1187 -0.3541
   46DPPC   C39 2289   1.055   2.703   2.271  0.2881 -0.3707 -0.0111
   46DPPC   C40 2290   1.003   2.615   2.384 -0.3306 -0.0336 -0.0312
   46DPPC   C41 2291   1.021   2.690   2.516  0.2056 -0.4022  0.1073
   46DPPC   C42 2292   0.982   2.589   2.625  0.4907 -0.2502  0.3518
   46DPPC   C43 2293   0.975   2.634   2.771 -0.0231  0.3769  0.1405
   46DPPC   C44 2294   0.935   2.506   2.844  0.6900 -0.0930 -0.2777
   46DPPC   C45 2295   0.946   2.519   2.997 -0.0986  0.1456 -0.2385
   46DPPC   C46 2296   1.077   2.574   3.052  0.3896 -0.1606 -1.0829
   46DPPC   C47 2297   1.194   2.474   3.043  0.1446 -0.5350 -0.1787
   46DPPC   C48 2298   1.324   2.530   3.100  0.2601 -1.0434  0.0536
   46DPPC   C49 2299   1.442   2.443   3.056  0.4652 -0.7000 -0.0769
   46DPPC   C50 2300   1.535   2.529   2.970 -0.2157 -0.1692 -0.2853
   47DPPC    C1 2301   0.499   4.677   1.060 -0.1759 -0.0828 -1.0220
   47DPPC    C2 2302   0.459   4.533   0.888  0.5481  0.0667 -0.2231
   47DPPC    C3 2303   0.688   4.591   0.939  0.1421  0.4754 -0.3595
   47DPPC    N4 2304   0.556   4.558   0.995  0.4617 -0.3208 -0.0530
   47DPPC    C5 2305   0.548   4.452   1.096 -0.3205  0.1058  0.3401
   47DPPC    C6 2306   0.592   4.308   1.066 -0.1471  0.1984  0.1514
   47DPPC    O7 2307   0.718   4.301   0.998 -0.3225 -0.1745 -0.1384
   47DPPC    P8 2308   0.712   4.152   0.938  0.2789 -0.1819 -0.1804
   47DPPC    O9 2309   0.570   4.112   0.927  0.3601 -0.5990  0.2602
   47DPPC   O10 2310   0.794   4.169   0.816  0.2121 -0.0686 -0.2090
   47DPPC   O11 2311   0.790   4.080   1.059 -0.1026  0.0095  0.1807
   47DPPC   C12 2312   0.923   4.132   1.055 -0.0517 -0.1506 -0.1861
   47DPPC   C13 2313   0.984   4.128   1.195 -0.1050 -0.5581 -0.1720
   47DPPC   O14 2314   0.999   3.995   1.247  0.4800 -0.3950  0.0866
   47DPPC   C15 2315   1.129   3.967   1.274  0.5572 -0.2663 -0.1537
   47DPPC   O16 2316   1.226   4.015   1.215  0.0417  0.4898 -0.4019
   47DPPC   C17 2317   1.137   3.843   1.363  0.7171 -0.1471 -0.0018
   47DPPC   C18 2318   1.206   3.875   1.496 -0.4834  0.6269  0.4586
   47DPPC   C19 2319   1.220   3.742   1.569  0.4377  0.4597 -0.0059
   47DPPC   C20 2320   1.278   3.756   1.710 -0.1009 -0.1858  0.2809
   47DPPC   C21 2321   1.279   3.633   1.801 -0.8899  0.0866  0.6755
   47DPPC   C22 2322   1.350   3.668   1.932  0.5887 -0.1971 -0.0187
   47DPPC   C23 2323   1.372   3.543   2.017 -0.5555 -0.3205  0.1189
   47DPPC   C24 2324   1.413   3.571   2.162  0.4170 -0.2872 -0.1566
   47DPPC   C25 2325   1.336   3.482   2.260  0.1260 -0.1494 -0.2594
   47DPPC   C26 2326   1.186   3.501   2.237  0.0456 -0.8636 -0.3508
   47DPPC   C27 2327   1.099   3.438   2.346 -0.0326 -0.3161 -0.0934
   47DPPC   C28 2328   0.951   3.466   2.317  0.1080  0.0351 -0.4789
   47DPPC   C29 2329   0.864   3.428   2.437  0.1912 -0.3249 -0.5311
   47DPPC   C30 2330   0.719   3.438   2.390 -0.0110  0.2405  0.1894
   47DPPC   C31 2331   0.621   3.393   2.499  0.2948 -0.3700  0.2170
   47DPPC   C32 2332   0.908   4.229   1.281 -0.3120 -0.7255 -0.1587
   47DPPC   O33 2333   0.968   4.249   1.410 -0.4073 -0.0615 -0.2139
   47DPPC   C34 2334   0.887   4.299   1.506  0.2089  0.7065 -0.0874
   47DPPC   O35 2335   0.781   4.350   1.470  0.1308  0.5859 -0.0281
   47DPPC   C36 2336   0.944   4.283   1.647 -0.0531 -0.2903 -0.0860
   47DPPC   C37 2337   0.937   4.139   1.696  0.1168 -0.1734  0.2881
   47DPPC   C38 2338   1.010   4.115   1.828  0.2213 -0.0831  0.2473
   47DPPC   C39 2339   1.151   4.170   1.806 -0.0558  0.5965  0.1712
   47DPPC   C40 2340   1.250   4.140   1.919 -0.0246  0.2637  0.0567
   47DPPC   C41 2341   1.384   4.214   1.918  0.0977  0.0392 -0.0750
   47DPPC   C42 2342   1.443   4.195   2.058  0.1420  0.1002 -0.0854
   47DPPC   C43 2343   1.488   4.051   2.083  0.1527  0.0683 -0.2813
   47DPPC   C44 2344   1.523   4.035   2.232  0.4786 -0.2103 -0.3855
   47DPPC   C45 2345   1.630   4.138   2.265  0.3426 -0.1377 -0.1736
   47DPPC   C46 2346   1.681   4.130   2.409 -0.4261 -0.2285  0.0986
   47DPPC   C47 2347   1.810   4.213   2.398 -0.6535  0.1010 -0.0748
   47DPPC   C48 2348   1.874   4.222   2.536 -0.0442  0.7611 -0.3941
   47DPPC   C49 2349   1.780   4.276   2.644 -0.2125  0.1308 -0.2167
   47DPPC   C50 2350   1.843   4.270   2.783 -0.4878  0.2276 -0.0854
   48DPPC    C1 2351   4.555   2.103   0.910 -0.2134 -0.3084 -0.4188
   48DPPC    C2 2352   4.699   2.090   1.093  0.2454 -0.0158  0.1815
   48DPPC    C3 2353   4.499   2.218   1.115 -0.1770  0.2627 -1.0400
   48DPPC    N4 2354   4.556   2.096   1.057  0.3954  0.2194 -0.3929
   48DPPC    C5 2355   4.493   1.976   1.114  0.6011  0.2474 -0.1030
   48DPPC    C6 2356   4.508   1.838   1.050 -0.0089  0.5603 -0.9524
   48DPPC    O7 2357   4.405   1.749   1.092 -0.0721  0.3433 -1.5593
   48DPPC    P8 2358   4.442   1.600   1.044 -0.0078 -0.1471 -0.0438
   48DPPC    O9 2359   4.310   1.533   1.045 -0.0283 -0.1113 -0.3295
   48DPPC   O10 2360   4.515   1.634   0.920  0.1504 -0.0409  0.0783
   48DPPC   O11 2361   4.534   1.562   1.171  0.1323 -0.0441 -0.1154
   48DPPC   C12 2362   4.444   1.534   1.278  0.1223 -1.0076 -0.3688
   48DPPC   C13 2363   4.506   1.468   1.401 -0.4795  0.1183  0.5573
   48DPPC   O14 2364   4.457   1.522   1.525 -0.5811 -0.2287  0.6711
   48DPPC   C15 2365   4.498   1.639   1.583  0.4713 -0.4689  0.4339
   48DPPC   O16 2366   4.559   1.712   1.505 -0.0771 -0.6742 -0.1980
   48DPPC   C17 2367   4.453   1.668   1.726 -0.1058  0.3058  0.0996
   48DPPC   C18 2368   4.480   1.816   1.756  0.1551  0.3699 -0.4432
   48DPPC   C19 2369   4.442   1.853   1.899 -0.1977 -0.1812 -0.3921
   48DPPC   C20 2370   4.291   1.842   1.919 -0.2082  0.3720 -0.1563
   48DPPC   C21 2371   4.265   1.835   2.070  0.3055 -0.0663 -0.0878
   48DPPC   C22 2372   4.335   1.711   2.127 -0.1630 -0.4023 -0.2439
   48DPPC   C23 2373   4.330   1.707   2.280 -0.1032  0.0974 -0.2293
   48DPPC   C24 2374   4.426   1.816   2.330  0.4031 -0.2495 -0.4365
   48DPPC   C25 2375   4.459   1.806   2.479 -0.3599  0.2923 -0.2266
   48DPPC   C26 2376   4.554   1.924   2.502  0.1795 -0.2116  0.1379
   48DPPC   C27 2377   4.599   1.943   2.647 -0.0441  0.1320  0.1612
   48DPPC   C28 2378   4.693   2.061   2.671  0.2104 -0.1306  0.4476
   48DPPC   C29 2379   4.677   2.104   2.817 -0.3897 -0.5905  0.5209
   48DPPC   C30 2380   4.810   2.123   2.891  0.0661  0.0818 -0.4450
   48DPPC   C31 2381   4.790   2.168   3.036 -0.0801 -0.2524 -0.3612
   48DPPC   C32 2382   4.658   1.461   1.386 -0.5443  0.0468 -0.0918
   48DPPC   O33 2383   4.730   1.399   1.494 -0.1657 -0.0995 -0.4262
   48DPPC   C34 2384   4.865   1.392   1.477 -0.1569 -0.1323 -0.3424
   48DPPC   O35 2385   4.910   1.405   1.363  0.3732  0.0549 -0.1152
   48DPPC   C36 2386   4.948   1.351   1.599 -0.4407  0.3785  0.0255
   48DPPC   C37 2387   4.961   1.466   1.700  0.6335  0.3654 -0.0829
   48DPPC   C38 2388   5.060   1.409   1.802  0.0693  0.1109  0.3289
   48DPPC   C39 2389   5.086   1.495   1.925 -0.4876  0.3502  0.2834
   48DPPC   C40 2390   5.177   1.422   2.024 -0.4795 -0.0736 -0.0352
   48DPPC   C41 2391   5.199   1.513   2.145 -0.2544 -0.2667  0.0707
   48DPPC   C42 2392   5.306   1.463   2.242  0.2557  0.4556 -0.1159
   48DPPC   C43 2393   5.317   1.577   2.344 -0.3497  0.0438  0.4141
   48DPPC   C44 2394   5.459   1.588   2.400 -0.2061  0.3642 -0.0091
   48DPPC   C45 2395   5.467   1.692   2.511 -0.2750  0.2784  0.0769
   48DPPC   C46 2396   5.596   1.684   2.593 -0.2167  0.4585  0.0030
   48DPPC   C47 2397   5.589   1.808   2.683 -0.2194  0.2678  0.2664
   48DPPC   C48 2398   5.731   1.850   2.723 -0.2447  0.2546  0.3706
   48DPPC   C49 2399   5.737   1.944   2.843 -0.6978  1.5595 -0.5977
   48DPPC   C50 2400   5.882   1.977   2.883 -0.3351 -0.2212 -0.3559
   49DPPC    C1 2401   6.088   0.832   1.324  0.1645  0.1421 -0.0103
   49DPPC    C2 2402   5.875   0.793   1.231 -0.0416 -0.4759  0.0300
   49DPPC    C3 2403   6.051   0.843   1.090 -0.4095  0.5921 -0.3160
   49DPPC    N4 2404   5.994   0.878   1.221 -0.1467 -0.3265  0.0563
   49DPPC    C5 2405   5.947   1.016   1.246  0.2081 -0.1638 -0.1685
   49DPPC    C6 2406   6.048   1.127   1.218 -0.1457  0.3095  0.4281
   49DPPC    O7 2407   5.992   1.257   1.240 -0.1988  0.3144  0.2592
   49DPPC    P8 2408   5.931   1.300   1.097  0.4393  0.1142 -0.0774
   49DPPC    O9 2409   5.934   1.445   1.065 -0.7162  0.3594  0.8458
   49DPPC   O10 2410   5.959   1.200   0.992  0.3477 -0.1948  0.1914
   49DPPC   O11 2411   5.778   1.275   1.139  0.1838  0.3916 -0.8188
   49DPPC   C12 2412   5.747   1.380   1.231 -0.2370 -0.0485 -0.4491
   49DPPC   C13 2413   5.643   1.335   1.334 -0.4672  0.0405 -0.6414
   49DPPC   O14 2414   5.563   1.432   1.403  0.0426 -0.0004  0.0206
   49DPPC   C15 2415   5.445   1.465   1.343 -0.0340 -0.3667 -0.0306
   49DPPC   O16 2416   5.426   1.446   1.223  0.3033  0.1664 -0.1716
   49DPPC   C17 2417   5.348   1.553   1.423  0.4242  0.1059  0.0079
   49DPPC   C18 2418   5.403   1.576   1.564 -0.2926 -0.4545  0.3827
   49DPPC   C19 2419   5.311   1.667   1.645 -0.2636  0.4513 -0.5762
   49DPPC   C20 2420   5.398   1.688   1.769 -0.2648  0.0258 -0.5022
   49DPPC   C21 2421   5.325   1.781   1.867 -0.5209 -0.2059 -0.4711
   49DPPC   C22 2422   5.402   1.805   1.997 -1.0153  0.0701 -0.2270
   49DPPC   C23 2423   5.327   1.922   2.062 -0.3794  0.5033 -0.2620
   49DPPC   C24 2424   5.413   1.961   2.183 -0.3523 -0.3560  0.0019
   49DPPC   C25 2425   5.339   2.072   2.258 -0.1897 -0.2727  0.0385
   49DPPC   C26 2426   5.427   2.170   2.335 -0.1223 -0.2693 -0.0433
   49DPPC   C27 2427   5.517   2.091   2.431  0.1418 -0.0806 -0.1339
   49DPPC   C28 2428   5.633   2.180   2.477 -0.2077  0.3691 -0.1090
   49DPPC   C29 2429   5.715   2.190   2.348 -0.3952  0.3582 -0.2285
   49DPPC   C30 2430   5.788   2.060   2.316  0.2699  0.5671  0.4134
   49DPPC   C31 2431   5.867   2.084   2.188 -0.2520 -0.4496 -0.1137
   49DPPC   C32 2432   5.716   1.239   1.429 -0.5082  0.1821 -0.4658
   49DPPC   O33 2433   5.834   1.288   1.493 -0.3193 -0.3806 -0.3829
   49DPPC   C34 2434   5.889   1.189   1.568  0.0322  0.5047  0.5433
   49DPPC   O35 2435   5.855   1.074   1.539  0.3685  0.2484  1.1331
   49DPPC   C36 2436   6.005   1.230   1.660  0.6794 -0.6858  0.2801
   49DPPC   C37 2437   5.958   1.302   1.787 -0.1757 -0.6388 -0.0546
   49DPPC   C38 2438   6.081   1.357   1.859 -0.7297  0.1066  0.3346
   49DPPC   C39 2439   6.083   1.325   2.009  0.1220  0.3002  0.3705
   49DPPC   C40 2440   6.217   1.368   2.068  0.2670 -0.6759  0.7801
   49DPPC   C41 2441   6.200   1.347   2.219 -0.3612  0.0802  0.8254
   49DPPC   C42 2442   6.329   1.382   2.294 -0.1048  0.1412  0.3635
   49DPPC   C43 2443   6.361   1.527   2.258 -0.3976  0.0952 -0.0951
   49DPPC   C44 2444   6.469   1.593   2.344 -0.3704 -0.1917  0.0944
   49DPPC   C45 2445   6.606   1.553   2.289 -0.4100 -0.1613 -0.0278
   49DPPC   C46 2446   6.626   1.568   2.138  0.2175 -0.3242  0.0367
   49DPPC   C47 2447   6.755   1.503   2.087  0.0840 -0.0729 -0.6291
   49DPPC   C48 2448   6.755   1.358   2.136  0.5129  0.1448  0.0298
   49DPPC   C49 2449   6.893   1.293   2.132  0.5828  0.2986 -0.0519
   49DPPC   C50 2450   6.962   1.303   1.996  0.6190  0.3256 -0.0316
   50DPPC    C1 2451   4.774   5.616   1.302  0.2118  0.2099 -0.0600
   50DPPC    C2 2452   4.543   5.659   1.314  0.0079  1.1968  0.8486
   50DPPC    C3 2453   4.665   5.763   1.140 -0.3660  0.0129 -0.3154
   50DPPC    N4 2454   4.673   5.721   1.280  0.2173  0.1672 -0.2984
   50DPPC    C5 2455   4.687   5.837   1.370  0.1850  0.0824 -0.1828
   50DPPC    C6 2456   4.819   5.914   1.374  0.3716 -0.2297 -0.2696
   50DPPC    O7 2457   4.828   6.031   1.455  0.0718 -0.2209 -0.2455
   50DPPC    P8 2458   4.961   6.121   1.438  0.0131 -0.0785  0.0438
   50DPPC    O9 2459   5.060   6.019   1.399 -0.0414 -0.0878 -0.0709
   50DPPC   O10 2460   4.903   6.224   1.349 -0.0997  0.0130  0.2219
   50DPPC   O11 2461   4.961   6.164   1.593 -0.7995 -0.4235  0.1446
   50DPPC   C12 2462   4.996   6.043   1.660 -0.1421 -0.3253 -0.0173
   50DPPC   C13 2463   5.019   6.041   1.811 -0.0976 -0.0902 -0.0215
   50DPPC   O14 2464   4.899   6.037   1.890  0.0327 -0.2534  0.1672
   50DPPC   C15 2465   4.830   5.920   1.890  0.0213 -0.2473  0.5071
   50DPPC   O16 2466   4.864   5.819   1.830 -0.0086  0.0119  0.0536
   50DPPC   C17 2467   4.707   5.923   1.981 -0.4670 -0.3602 -0.1462
   50DPPC   C18 2468   4.705   5.789   2.055 -0.4052 -0.2640  0.0301
   50DPPC   C19 2469   4.603   5.793   2.169 -0.7355  0.1551 -0.2784
   50DPPC   C20 2470   4.591   5.655   2.232 -1.0156  0.1829 -0.2681
   50DPPC   C21 2471   4.500   5.640   2.355 -0.2419 -0.2368  0.2660
   50DPPC   C22 2472   4.569   5.703   2.476 -0.0831  0.5159 -0.2030
   50DPPC   C23 2473   4.504   5.657   2.607  0.4992 -0.5124 -0.2631
   50DPPC   C24 2474   4.583   5.687   2.735 -0.1974  0.1363  0.0226
   50DPPC   C25 2475   4.514   5.625   2.856  0.0319 -0.2608 -0.0485
   50DPPC   C26 2476   4.613   5.605   2.971 -0.0944 -0.3262  0.0499
   50DPPC   C27 2477   4.567   5.507   3.079 -0.0570 -0.2130  0.1676
   50DPPC   C28 2478   4.432   5.547   3.140 -0.1722  0.0189 -0.2374
   50DPPC   C29 2479   4.389   5.460   3.258  0.2038  0.5127  0.2688
   50DPPC   C30 2480   4.243   5.490   3.295 -0.2158 -0.3082 -0.6718
   50DPPC   C31 2481   4.246   5.636   3.339  0.6742 -0.4657 -0.1891
   50DPPC   C32 2482   5.097   6.171   1.831 -0.3058  0.0444 -0.0704
   50DPPC   O33 2483   5.150   6.207   1.960  0.3147 -0.2614 -0.2334
   50DPPC   C34 2484   5.243   6.305   1.953  0.5204 -0.4187  0.3033
   50DPPC   O35 2485   5.287   6.337   1.842  0.0694 -0.6404  0.0609
   50DPPC   C36 2486   5.303   6.354   2.085  0.1169 -0.1949  0.4044
   50DPPC   C37 2487   5.413   6.265   2.145  0.5752  0.0411 -0.0801
   50DPPC   C38 2488   5.357   6.154   2.234 -0.1660 -0.1802 -0.8057
   50DPPC   C39 2489   5.413   6.173   2.375 -0.1393  0.2825 -0.8784
   50DPPC   C40 2490   5.397   6.040   2.449  0.3770  0.6191 -0.1483
   50DPPC   C41 2491   5.413   6.054   2.600 -0.5776 -0.5257  0.0713
   50DPPC   C42 2492   5.396   5.920   2.673 -0.2501 -0.3436  0.4882
   50DPPC   C43 2493   5.393   5.935   2.825  0.1063  0.4096  0.4259
   50DPPC   C44 2494   5.380   5.792   2.880  0.4609  0.1630 -0.1268
   50DPPC   C45 2495   5.368   5.800   3.032  0.3065 -0.3518 -0.1109
   50DPPC   C46 2496   5.332   5.673   3.109  0.0416 -0.4939 -0.4660
   50DPPC   C47 2497   5.312   5.693   3.259  0.5877  0.2478 -0.4826
   50DPPC   C48 2498   5.277   5.557   3.321  0.3219  0.4496 -0.1842
   50DPPC   C49 2499   5.236   5.566   3.468  0.2005  0.0523 -0.1912
   50DPPC   C50 2500   5.193   5.431   3.524  0.0239  0.2635  0.1888
   51DPPC    C1 2501   5.167   0.027   1.310  0.2139 -0.8524  0.3132
   51DPPC    C2 2502   5.378   0.122   1.393 -0.6029  0.2543  0.2385
   51DPPC    C3 2503   5.266  -0.071   1.485 -0.1156 -0.3713  0.4200
   51DPPC    N4 2504   5.248   0.063   1.428 -0.2608 -0.3596  0.4927
   51DPPC    C5 2505   5.181   0.150   1.527 -0.1097  0.0610  0.2279
   51DPPC    C6 2506   5.052   0.230   1.512 -0.2062 -0.1138  0.1146
   51DPPC    O7 2507   4.934   0.153   1.490 -0.1366 -0.2307  0.1503
   51DPPC    P8 2508   4.824   0.267   1.458 -0.0614 -0.1645  0.1276
   51DPPC    O9 2509   4.877   0.380   1.379 -0.1300 -0.5983 -0.5497
   51DPPC   O10 2510   4.703   0.204   1.399 -0.3006 -0.4109  0.8661
   51DPPC   O11 2511   4.803   0.304   1.613 -0.4103 -0.1358  0.0731
   51DPPC   C12 2512   4.660   0.302   1.630 -0.4186  0.0657  0.0265
   51DPPC   C13 2513   4.618   0.361   1.764  0.0297  0.2711  0.0798
   51DPPC   O14 2514   4.607   0.504   1.781  0.3067  0.3032 -0.0167
   51DPPC   C15 2515   4.502   0.566   1.723  0.3261  0.2756 -0.0818
   51DPPC   O16 2516   4.447   0.526   1.620  0.3094 -0.1944  0.1056
   51DPPC   C17 2517   4.491   0.715   1.756 -0.3173  0.4304 -0.9401
   51DPPC   C18 2518   4.344   0.757   1.773 -0.2919  0.3099 -0.4034
   51DPPC   C19 2519   4.300   0.713   1.913  0.1594 -0.1244 -0.3925
   51DPPC   C20 2520   4.384   0.800   2.007 -0.3602  0.2097 -0.2312
   51DPPC   C21 2521   4.327   0.796   2.149  0.1603 -0.0115 -0.0272
   51DPPC   C22 2522   4.416   0.889   2.232  0.0621 -0.0941  0.1706
   51DPPC   C23 2523   4.375   0.874   2.379 -0.6979 -0.0981 -0.0413
   51DPPC   C24 2524   4.474   0.945   2.470 -0.0054 -0.0666 -0.8129
   51DPPC   C25 2525   4.618   0.893   2.472  0.0051 -0.0152 -0.2607
   51DPPC   C26 2526   4.637   0.750   2.525 -0.0841  0.0555 -0.0348
   51DPPC   C27 2527   4.786   0.724   2.503 -0.0296  0.3018  0.0365
   51DPPC   C28 2528   4.809   0.578   2.542  0.1981  0.3603  0.1217
   51DPPC   C29 2529   4.721   0.499   2.446  0.0243  0.1050  0.4879
   51DPPC   C30 2530   4.785   0.502   2.307 -0.5097  0.0054  0.2340
   51DPPC   C31 2531   4.700   0.427   2.205 -0.0489 -0.6047  0.2910
   51DPPC   C32 2532   4.722   0.303   1.860 -0.2199  0.1837  0.2994
   51DPPC   O33 2533   4.717   0.164   1.892  0.2200  0.1138  0.0687
   51DPPC   C34 2534   4.822   0.124   1.970  0.0203 -0.0171  0.2725
   51DPPC   O35 2535   4.917   0.194   2.006 -0.2052  0.2789  0.2995
   51DPPC   C36 2536   4.825  -0.022   2.016  0.0861 -0.0893  0.0433
   51DPPC   C37 2537   4.721  -0.021   2.128  0.2921  0.3202  0.2338
   51DPPC   C38 2538   4.718  -0.155   2.202 -0.0514  0.0937 -0.1940
   51DPPC   C39 2539   4.855  -0.195   2.256 -0.2478 -0.5271 -0.1471
   51DPPC   C40 2540   4.865  -0.341   2.300  0.0417 -0.3404  0.4149
   51DPPC   C41 2541   5.012  -0.377   2.324  0.3886  0.1392 -0.9426
   51DPPC   C42 2542   5.027  -0.527   2.346  0.1361  0.2824  0.2843
   51DPPC   C43 2543   4.969  -0.587   2.474  0.2215  0.0460  0.2128
   51DPPC   C44 2544   4.984  -0.739   2.469 -0.4336 -0.0040 -0.3262
   51DPPC   C45 2545   4.936  -0.802   2.600  0.3338  0.0839  0.0002
   51DPPC   C46 2546   5.028  -0.769   2.718 -0.3323  0.4131  0.4293
   51DPPC   C47 2547   4.983  -0.837   2.848 -0.3843  0.0340  0.2127
   51DPPC   C48 2548   4.963  -0.987   2.827  0.7162 -0.1352  0.2912
   51DPPC   C49 2549   4.952  -1.063   2.960 -0.3494 -0.8080 -0.1678
   51DPPC   C50 2550   5.090  -1.110   3.007 -0.0195  0.3005 -0.0015
   52DPPC    C1 2551   5.307   1.615   0.963 -0.6549 -0.4457 -0.1768
   52DPPC    C2 2552   5.405   1.676   0.752  0.0116 -0.2193 -0.3360
   52DPPC    C3 2553   5.223   1.796   0.848 -0.5668 -0.1558  0.4194
   52DPPC    N4 2554   5.279   1.662   0.827  0.0916  0.1968 -0.1178
   52DPPC    C5 2555   5.185   1.576   0.753  0.5037 -0.4658  0.1165
   52DPPC    C6 2556   5.220   1.431   0.721 -0.1368 -0.4854 -0.5411
   52DPPC    O7 2557   5.248   1.349   0.835  0.4182  0.0334 -0.2987
   52DPPC    P8 2558   5.154   1.220   0.811  0.3423 -0.0603  0.4746
   52DPPC    O9 2559   5.021   1.284   0.818  0.5323  0.3390  0.4815
   52DPPC   O10 2560   5.212   1.168   0.685 -0.3164  0.0104  0.1385
   52DPPC   O11 2561   5.190   1.140   0.946  0.5465 -0.5033  0.1598
   52DPPC   C12 2562   5.088   1.151   1.046  0.2155 -0.3046 -0.1944
   52DPPC   C13 2563   5.127   1.092   1.182  0.1871  0.1459  0.0120
   52DPPC   O14 2564   5.008   1.058   1.255  0.0157  0.2007 -0.2422
   52DPPC   C15 2565   5.030   0.947   1.330 -0.1837  0.2501 -0.1094
   52DPPC   O16 2566   5.097   0.853   1.287  0.0023  0.3468 -0.0295
   52DPPC   C17 2567   4.921   0.914   1.432 -0.2389 -0.1138 -0.2830
   52DPPC   C18 2568   4.972   0.957   1.569  0.2907 -0.2760 -0.4275
   52DPPC   C19 2569   4.878   0.943   1.689  0.6559 -0.4256 -0.1567
   52DPPC   C20 2570   4.931   1.012   1.816  0.5669 -0.3821 -0.1434
   52DPPC   C21 2571   4.903   0.946   1.951  0.4612  0.1212  0.0819
   52DPPC   C22 2572   4.937   1.044   2.064 -0.0903  0.3616  0.0433
   52DPPC   C23 2573   4.884   0.971   2.188 -0.3531  0.0637 -0.2404
   52DPPC   C24 2574   4.940   1.019   2.322  0.0016 -0.0645 -0.3420
   52DPPC   C25 2575   4.912   1.168   2.342  0.1953 -0.0943  0.1733
   52DPPC   C26 2576   4.905   1.210   2.489  0.8226  0.1755  0.1296
   52DPPC   C27 2577   4.859   1.356   2.497 -0.2710 -0.1396 -0.2600
   52DPPC   C28 2578   4.845   1.403   2.642 -0.0700 -0.4477 -0.1383
   52DPPC   C29 2579   4.974   1.418   2.724 -0.1188 -0.1904 -0.1078
   52DPPC   C30 2580   4.951   1.486   2.859  0.3467  0.7600 -0.4980
   52DPPC   C31 2581   5.084   1.474   2.934 -0.0622 -0.4528  0.0524
   52DPPC   C32 2582   5.222   1.194   1.243 -0.0149  0.2891  0.0878
   52DPPC   O33 2583   5.245   1.172   1.383  0.0508 -0.2195 -0.0017
   52DPPC   C34 2584   5.354   1.098   1.417  0.5371  0.4291 -0.1331
   52DPPC   O35 2585   5.449   1.074   1.343  0.3761  0.0929 -0.2345
   52DPPC   C36 2586   5.378   1.066   1.564 -0.1446  0.9384  0.0937
   52DPPC   C37 2587   5.435   1.173   1.658  0.1579  0.4204  0.5060
   52DPPC   C38 2588   5.453   1.127   1.803 -0.3139  0.3060  0.5308
   52DPPC   C39 2589   5.539   1.215   1.893  0.1981 -0.0080  0.3539
   52DPPC   C40 2590   5.551   1.152   2.031 -0.4377  0.1213  0.4706
   52DPPC   C41 2591   5.633   1.247   2.119  0.0166  0.1513  0.0209
   52DPPC   C42 2592   5.662   1.185   2.256 -0.3653  0.3455  0.1928
   52DPPC   C43 2593   5.726   1.278   2.359 -0.0471  0.1643  0.1589
   52DPPC   C44 2594   5.734   1.210   2.496  0.1463  0.1374  0.1353
   52DPPC   C45 2595   5.781   1.310   2.602  0.9420  0.2033 -0.2698
   52DPPC   C46 2596   5.740   1.270   2.744 -0.3501  0.3487 -0.5889
   52DPPC   C47 2597   5.783   1.383   2.839 -0.6248 -0.0369 -0.0003
   52DPPC   C48 2598   5.731   1.362   2.981 -0.5215  0.1228  0.0605
   52DPPC   C49 2599   5.772   1.471   3.081  0.1416 -0.0005 -0.0708
   52DPPC   C50 2600   5.690   1.458   3.210 -0.3697 -0.3302 -0.4216
   53DPPC    C1 2601   5.440   5.484   1.159  0.7090 -0.8046  0.2970
   53DPPC    C2 2602   5.399   5.321   1.311 -0.0597 -0.2337  0.5824
   53DPPC    C3 2603   5.233   5.465   1.292 -0.1523 -0.5986 -0.2836
   53DPPC    N4 2604   5.380   5.465   1.292 -0.1508 -0.3247 -0.0186
   53DPPC    C5 2605   5.443   5.560   1.384 -0.5252 -0.3294  0.2442
   53DPPC    C6 2606   5.593   5.565   1.414 -0.5655  0.0155  0.3988
   53DPPC    O7 2607   5.636   5.439   1.466  0.7433  0.2966  0.0561
   53DPPC    P8 2608   5.779   5.407   1.399  0.5080  0.2490 -0.4265
   53DPPC    O9 2609   5.828   5.276   1.445  0.1099  0.3052  0.1677
   53DPPC   O10 2610   5.761   5.430   1.254 -0.1447 -0.1426 -0.4131
   53DPPC   O11 2611   5.855   5.523   1.481 -0.0077  0.1226  0.2314
   53DPPC   C12 2612   5.901   5.465   1.604 -0.5791 -0.0114  0.3873
   53DPPC   C13 2613   5.982   5.564   1.689 -0.2678  0.0719 -0.0023
   53DPPC   O14 2614   6.021   5.510   1.816 -0.6311  0.0951  0.1204
   53DPPC   C15 2615   6.136   5.551   1.874 -0.2859 -0.0308 -0.4673
   53DPPC   O16 2616   6.216   5.621   1.812 -0.5167  0.4569 -0.2183
   53DPPC   C17 2617   6.166   5.504   2.016 -0.5370 -0.0534 -0.4210
   53DPPC   C18 2618   6.048   5.515   2.113  0.1715 -0.1821  0.4794
   53DPPC   C19 2619   6.077   5.435   2.240  0.3343 -0.4658  0.2625
   53DPPC   C20 2620   5.960   5.443   2.337  0.3440  0.5432  0.2026
   53DPPC   C21 2621   5.991   5.359   2.461  0.2785 -0.0798 -0.1993
   53DPPC   C22 2622   5.873   5.362   2.559  0.0174 -0.6970 -0.4882
   53DPPC   C23 2623   5.898   5.261   2.671  0.4094 -0.0263  0.0382
   53DPPC   C24 2624   5.929   5.122   2.615 -0.3374 -0.1795 -0.0111
   53DPPC   C25 2625   5.957   5.015   2.721  0.0950 -0.2810 -0.2251
   53DPPC   C26 2626   6.090   5.042   2.792  0.0334 -0.3488 -0.0816
   53DPPC   C27 2627   6.094   4.970   2.927 -0.8768  0.1271  0.2067
   53DPPC   C28 2628   6.235   4.964   2.987 -1.2034  0.0882  0.9777
   53DPPC   C29 2629   6.240   4.878   3.113  0.5949 -0.5748  0.4718
   53DPPC   C30 2630   6.154   4.927   3.228 -0.2163  0.2377 -0.4639
   53DPPC   C31 2631   6.222   5.060   3.261 -0.2204  0.1153  0.0567
   53DPPC   C32 2632   5.900   5.693   1.684 -0.0787  0.1781 -0.3673
   53DPPC   O33 2633   5.955   5.797   1.764 -0.1476 -0.2070  0.1836
   53DPPC   C34 2634   5.905   5.921   1.735  0.3864 -0.0724 -0.1658
   53DPPC   O35 2635   5.841   5.946   1.633 -0.7586 -0.3736  0.4738
   53DPPC   C36 2636   5.932   6.035   1.833 -0.0252  0.1103 -0.2665
   53DPPC   C37 2637   5.828   6.057   1.943 -0.0798 -0.1975 -0.2557
   53DPPC   C38 2638   5.806   5.932   2.029  0.8784 -0.3782 -0.2623
   53DPPC   C39 2639   5.710   5.964   2.144  0.7170 -0.2276 -0.4385
   53DPPC   C40 2640   5.719   5.851   2.246 -0.3414  0.1723  0.1150
   53DPPC   C41 2641   5.783   5.892   2.379 -0.1476 -0.2195  0.1435
   53DPPC   C42 2642   5.767   5.784   2.486  0.3198 -0.7233 -0.2870
   53DPPC   C43 2643   5.833   5.837   2.613  0.0570 -0.0430 -0.4331
   53DPPC   C44 2644   5.797   5.746   2.730  0.3768  0.4234  0.0353
   53DPPC   C45 2645   5.805   5.827   2.860 -0.3679  0.4044  0.1027
   53DPPC   C46 2646   5.752   5.760   2.987 -0.2073  0.1763  0.0514
   53DPPC   C47 2647   5.775   5.837   3.117  0.1520  0.0783  0.0466
   53DPPC   C48 2648   5.744   5.746   3.236 -0.3307 -0.2626 -0.3350
   53DPPC   C49 2649   5.755   5.838   3.358  0.2775 -0.7677 -0.0004
   53DPPC   C50 2650   5.779   5.794   3.502  0.4514  0.3267  0.3162
   54DPPC    C1 2651   5.808   6.238   1.354 -0.4867 -0.3062 -0.2041
   54DPPC    C2 2652   5.965   6.158   1.189  0.4834  0.1379 -0.2748
   54DPPC    C3 2653   5.885   6.012   1.339  0.1262  0.1700  0.4391
   54DPPC    N4 2654   5.840   6.128   1.261  0.5950 -0.0387 -0.1548
   54DPPC    C5 2655   5.736   6.103   1.161  0.4791 -0.3496  0.0433
   54DPPC    C6 2656   5.608   6.030   1.201  0.4263 -0.1761  0.1895
   54DPPC    O7 2657   5.549   6.070   1.325 -0.1764  0.4993 -0.3041
   54DPPC    P8 2658   5.396   6.023   1.319  0.0861 -0.4227  0.1214
   54DPPC    O9 2659   5.336   6.119   1.224  0.0103  0.2042  0.7972
   54DPPC   O10 2660   5.385   5.880   1.280 -0.2920 -0.2452 -0.4374
   54DPPC   O11 2661   5.386   6.070   1.473 -0.0715  0.1593 -0.0671
   54DPPC   C12 2662   5.475   5.983   1.542 -0.1106  0.4550  0.3598
   54DPPC   C13 2663   5.487   6.021   1.690  0.3541  0.3076  0.3616
   54DPPC   O14 2664   5.385   5.979   1.782  0.0533 -0.5093 -0.3353
   54DPPC   C15 2665   5.400   5.855   1.837  0.0454 -0.1997  0.3669
   54DPPC   O16 2666   5.503   5.792   1.818 -0.1020 -0.1947 -0.4998
   54DPPC   C17 2667   5.288   5.817   1.934 -0.5115  0.2588 -0.0885
   54DPPC   C18 2668   5.338   5.729   2.049 -0.7324 -0.6038 -0.6391
   54DPPC   C19 2669   5.259   5.712   2.179  1.1043  0.3724  0.6590
   54DPPC   C20 2670   5.366   5.644   2.264  1.1961 -0.2371  0.0654
   54DPPC   C21 2671   5.321   5.612   2.406  0.7965 -0.6497 -0.1511
   54DPPC   C22 2672   5.435   5.572   2.501  0.7051 -0.5786 -0.0113
   54DPPC   C23 2673   5.376   5.490   2.616  0.4267 -0.3300  0.0250
   54DPPC   C24 2674   5.488   5.421   2.693  0.4083  0.0467  0.3897
   54DPPC   C25 2675   5.419   5.332   2.797  0.7928 -0.5256  0.1612
   54DPPC   C26 2676   5.516   5.277   2.902  1.1238 -0.2813 -0.0138
   54DPPC   C27 2677   5.545   5.395   2.994  0.0279  0.1694 -0.2283
   54DPPC   C28 2678   5.612   5.345   3.122 -0.4202 -0.4646 -0.2413
   54DPPC   C29 2679   5.537   5.235   3.198  0.1680 -0.4122  0.4312
   54DPPC   C30 2680   5.609   5.207   3.330  0.6175  0.3718  0.3540
   54DPPC   C31 2681   5.751   5.155   3.309  0.2426 -0.3569 -0.4406
   54DPPC   C32 2682   5.510   6.171   1.671  0.0187  0.3758  0.4966
   54DPPC   O33 2683   5.623   6.223   1.742 -0.1640  0.4474  0.7373
   54DPPC   C34 2684   5.654   6.348   1.699 -0.1994  0.0647 -0.4334
   54DPPC   O35 2685   5.610   6.390   1.592  0.2411 -0.0175 -0.6500
   54DPPC   C36 2686   5.772   6.423   1.761  0.1467 -0.5814 -0.2983
   54DPPC   C37 2687   5.905   6.373   1.707  0.2193 -0.0864 -0.5799
   54DPPC   C38 2688   6.001   6.418   1.817 -0.6976 -0.2197  0.2850
   54DPPC   C39 2689   6.137   6.354   1.787 -0.4458  0.5398 -0.2194
   54DPPC   C40 2690   6.234   6.389   1.900 -0.1650 -0.1179 -0.2490
   54DPPC   C41 2691   6.192   6.305   2.021 -0.0597  0.2102  0.0155
   54DPPC   C42 2692   6.269   6.340   2.149  0.8673 -0.2567 -0.4022
   54DPPC   C43 2693   6.219   6.246   2.260 -0.1008  0.1335 -0.4965
   54DPPC   C44 2694   6.249   6.100   2.229 -0.3833  0.0247 -0.2595
   54DPPC   C45 2695   6.178   6.014   2.334  0.0937 -0.1921 -0.1107
   54DPPC   C46 2696   6.256   6.040   2.463  0.1321 -0.1217 -0.1478
   54DPPC   C47 2697   6.198   5.966   2.584 -0.1345  0.3886  0.0405
   54DPPC   C48 2698   6.272   6.005   2.712 -0.1037  0.2230  0.0735
   54DPPC   C49 2699   6.196   5.976   2.842 -0.0040  0.0095  0.0853
   54DPPC   C50 2700   6.291   6.004   2.958 -0.6755 -0.1735  0.6886
   55DPPC    C1 2701   5.582   0.015   0.795  0.2401  0.1644 -0.2951
   55DPPC    C2 2702   5.454   0.168   0.658  0.3873  0.4510 -0.2070
   55DPPC    C3 2703   5.352   0.055   0.826  0.2509 -0.1036 -0.0836
   55DPPC    N4 2704   5.480   0.120   0.795  0.1226  0.0506 -0.2937
   55DPPC    C5 2705   5.498   0.238   0.881 -0.2559  0.4621 -0.7685
   55DPPC    C6 2706   5.542   0.213   1.026 -0.2078  0.1612 -0.8354
   55DPPC    O7 2707   5.684   0.194   1.036 -0.2248  0.5506  0.2861
   55DPPC    P8 2708   5.703   0.088   1.155 -0.0348  0.2587 -0.0011
   55DPPC    O9 2709   5.598  -0.014   1.131  0.1603  0.1022 -0.1922
   55DPPC   O10 2710   5.844   0.044   1.162 -0.1654 -0.1282  0.2651
   55DPPC   O11 2711   5.675   0.188   1.278 -0.1672  0.2257 -0.0038
   55DPPC   C12 2712   5.804   0.233   1.319 -0.1905 -0.0437  0.3724
   55DPPC   C13 2713   5.796   0.346   1.422  0.1385  0.3441 -0.0221
   55DPPC   O14 2714   5.929   0.375   1.469  0.0933  0.6427 -0.0746
   55DPPC   C15 2715   5.964   0.494   1.525 -0.4073  0.5317  0.4879
   55DPPC   O16 2716   5.917   0.600   1.484 -0.3283  0.3233 -0.1511
   55DPPC   C17 2717   6.089   0.494   1.613 -0.1127  0.3637  0.0713
   55DPPC   C18 2718   6.148   0.357   1.646  0.4014  0.6220  0.2344
   55DPPC   C19 2719   6.293   0.373   1.691  0.4100 -0.1846  0.5114
   55DPPC   C20 2720   6.294   0.434   1.832 -0.5022  0.2957  0.3187
   55DPPC   C21 2721   6.235   0.332   1.929 -0.1998  0.0748  0.2744
   55DPPC   C22 2722   6.252   0.375   2.075 -0.0873 -0.2752  0.3660
   55DPPC   C23 2723   6.163   0.279   2.154  0.4690 -0.9139  0.2136
   55DPPC   C24 2724   6.170   0.303   2.305  0.3318  0.2907  0.0354
   55DPPC   C25 2725   6.121   0.181   2.382  0.0693  0.2476 -0.1995
   55DPPC   C26 2726   6.142   0.195   2.533 -0.5526 -0.3445 -0.0518
   55DPPC   C27 2727   6.058   0.315   2.578 -0.0891 -0.1211  0.2249
   55DPPC   C28 2728   6.062   0.322   2.731 -0.6830 -0.7019  0.2728
   55DPPC   C29 2729   6.060   0.465   2.784  0.9372 -0.4590 -0.2727
   55DPPC   C30 2730   6.025   0.458   2.932  0.6132 -0.0210 -0.3266
   55DPPC   C31 2731   6.070   0.579   3.013 -0.4586  0.0041  0.2537
   55DPPC   C32 2732   5.700   0.295   1.529  0.0057  0.5862 -0.0240
   55DPPC   O33 2733   5.652   0.385   1.629  0.3761  0.1858  0.5188
   55DPPC   C34 2734   5.537   0.342   1.687  0.2696  0.0656  0.2185
   55DPPC   O35 2735   5.466   0.259   1.631  0.0803  0.1534  0.3278
   55DPPC   C36 2736   5.485   0.407   1.815 -0.4191 -0.2194  0.0891
   55DPPC   C37 2737   5.465   0.297   1.920 -0.1680 -0.5650 -0.2268
   55DPPC   C38 2738   5.398   0.347   2.047 -0.4351 -0.8758 -0.2437
   55DPPC   C39 2739   5.327   0.246   2.137 -0.4470 -0.5331  0.1403
   55DPPC   C40 2740   5.253   0.308   2.255  0.4512  0.2693  0.2841
   55DPPC   C41 2741   5.202   0.201   2.351 -0.1942  0.2962 -0.0256
   55DPPC   C42 2742   5.186   0.264   2.490  0.2040  0.2455  0.0446
   55DPPC   C43 2743   5.174   0.149   2.590 -0.6046  0.0790 -0.2344
   55DPPC   C44 2744   5.132   0.190   2.731  0.0099  0.3753 -0.1326
   55DPPC   C45 2745   4.990   0.248   2.730 -0.0351  0.2661 -0.0676
   55DPPC   C46 2746   4.951   0.285   2.873 -0.1772  0.1103 -0.0659
   55DPPC   C47 2747   4.918   0.172   2.971 -0.2951  0.1746 -0.0308
   55DPPC   C48 2748   4.891   0.227   3.111 -0.4351  0.0202  0.0035
   55DPPC   C49 2749   4.837   0.111   3.194  0.4452 -0.1696  0.3246
   55DPPC   C50 2750   4.817   0.137   3.344  0.1751 -0.3460  0.3205
   56DPPC    C1 2751   5.440   0.759   1.077 -0.3698  0.0965 -0.4684
   56DPPC    C2 2752   5.422   0.874   0.865 -0.2827  0.1513 -0.3056
   56DPPC    C3 2753   5.602   0.745   0.922 -0.3884 -0.0081 -0.6749
   56DPPC    N4 2754   5.456   0.747   0.932 -0.3735  0.0433 -0.4644
   56DPPC    C5 2755   5.411   0.618   0.876  0.1458 -0.3554  0.0274
   56DPPC    C6 2756   5.271   0.568   0.908  0.0200 -0.5256 -0.7695
   56DPPC    O7 2757   5.253   0.427   0.918 -0.2776 -0.4526 -0.2358
   56DPPC    P8 2758   5.173   0.411   1.057  0.1401 -0.1028  0.0484
   56DPPC    O9 2759   5.049   0.489   1.033  0.5760  0.5563 -0.0900
   56DPPC   O10 2760   5.179   0.270   1.100  0.3182 -0.1883 -0.2487
   56DPPC   O11 2761   5.251   0.499   1.167  0.6117 -0.7705  0.2566
   56DPPC   C12 2762   5.183   0.491   1.293 -0.0183  0.1901 -0.0060
   56DPPC   C13 2763   5.270   0.526   1.414  0.6982 -0.3942 -0.3413
   56DPPC   O14 2764   5.221   0.488   1.543 -0.4568  0.0666 -0.6301
   56DPPC   C15 2765   5.125   0.560   1.607  0.4445  0.3761  0.4051
   56DPPC   O16 2766   5.048   0.634   1.546 -0.0989 -0.1451  0.4564
   56DPPC   C17 2767   5.107   0.514   1.752 -0.2946  0.3062  0.2958
   56DPPC   C18 2768   5.126   0.632   1.847 -0.1454  0.4608  0.0762
   56DPPC   C19 2769   5.269   0.686   1.850  0.0702 -0.0759 -0.4322
   56DPPC   C20 2770   5.304   0.805   1.939 -0.1265 -0.2793 -0.0813
   56DPPC   C21 2771   5.266   0.773   2.083 -0.1247 -0.4896 -0.1273
   56DPPC   C22 2772   5.295   0.888   2.180  0.1875 -0.4282 -0.2927
   56DPPC   C23 2773   5.280   0.857   2.329 -0.4504  0.2819 -0.1983
   56DPPC   C24 2774   5.343   0.979   2.396 -0.2614  0.1909 -0.2091
   56DPPC   C25 2775   5.344   0.957   2.547 -0.4352 -0.0156 -0.2378
   56DPPC   C26 2776   5.201   0.936   2.598 -0.3508  0.3523  0.1583
   56DPPC   C27 2777   5.195   0.879   2.740  0.5357  0.1249  0.1124
   56DPPC   C28 2778   5.049   0.872   2.784  0.5365 -0.2223  0.0593
   56DPPC   C29 2779   5.042   0.809   2.923  0.6040 -0.0377  0.1471
   56DPPC   C30 2780   4.895   0.796   2.967  0.3893  0.6733 -0.3496
   56DPPC   C31 2781   4.816   0.922   2.934 -0.5360  0.2212  0.1223
   56DPPC   C32 2782   5.316   0.671   1.398 -0.0806 -0.1271 -0.2012
   56DPPC   O33 2783   5.418   0.722   1.485  0.1005 -0.7760 -0.0261
   56DPPC   C34 2784   5.548   0.691   1.459  0.1863 -0.6912  0.3012
   56DPPC   O35 2785   5.580   0.625   1.360 -0.3006  0.0816 -0.3809
   56DPPC   C36 2786   5.650   0.779   1.531  0.0759 -0.3699  0.0704
   56DPPC   C37 2787   5.660   0.751   1.682 -0.2398 -0.3993  0.0868
   56DPPC   C38 2788   5.801   0.793   1.725 -0.4046  0.1541  0.0884
   56DPPC   C39 2789   5.821   0.763   1.874  0.4072  0.2266 -0.0017
   56DPPC   C40 2790   5.830   0.611   1.889  0.0853  0.1740 -0.3285
   56DPPC   C41 2791   5.783   0.547   2.020  0.2028 -0.1102 -0.4236
   56DPPC   C42 2792   5.816   0.398   2.030 -0.0507 -0.1231  0.2709
   56DPPC   C43 2793   5.738   0.334   2.145  0.0157 -0.4595  0.1296
   56DPPC   C44 2794   5.781   0.190   2.173  0.0559 -0.3995  0.3730
   56DPPC   C45 2795   5.752   0.158   2.320 -0.2198  0.4458  0.5083
   56DPPC   C46 2796   5.796   0.013   2.342 -0.6903  0.2312  0.0638
   56DPPC   C47 2797   5.815  -0.012   2.492 -0.5027 -0.6846 -0.1091
   56DPPC   C48 2798   5.887  -0.146   2.509 -0.3323 -0.6477 -0.5201
   56DPPC   C49 2799   5.900  -0.168   2.660 -0.0490 -0.0935 -0.4599
   56DPPC   C50 2800   5.760  -0.170   2.722  0.0931 -0.1442 -0.1398
   57DPPC    C1 2801   0.020   5.386   1.627 -0.1890 -0.0892 -0.0175
   57DPPC    C2 2802   0.086   5.610   1.677 -0.3483 -0.4367 -0.4620
   57DPPC    C3 2803  -0.038   5.567   1.478 -0.8783 -0.2594 -0.1172
   57DPPC    N4 2804   0.064   5.513   1.569 -0.4515 -0.2630 -0.5979
   57DPPC    C5 2805   0.190   5.519   1.492  0.0512 -0.1093  0.2167
   57DPPC    C6 2806   0.297   5.411   1.511  0.0941  0.0281  0.7594
   57DPPC    O7 2807   0.331   5.393   1.649  0.3162  0.0829  0.7121
   57DPPC    P8 2808   0.414   5.257   1.665  0.0870 -0.1345  0.0970
   57DPPC    O9 2809   0.316   5.147   1.681  0.6368 -0.6420  0.0437
   57DPPC   O10 2810   0.522   5.259   1.563  0.0543  0.0971  0.0673
   57DPPC   O11 2811   0.461   5.317   1.806 -0.1683  0.1707  0.0521
   57DPPC   C12 2812   0.351   5.310   1.897 -0.2795 -0.6920 -0.1443
   57DPPC   C13 2813   0.358   5.394   2.025 -0.5807 -0.2713 -0.4051
   57DPPC   O14 2814   0.260   5.498   2.036  0.0233  0.2041  0.6750
   57DPPC   C15 2815   0.276   5.622   1.981  0.4369 -0.1006  0.0937
   57DPPC   O16 2816   0.371   5.640   1.905  0.3215 -0.5837 -0.1670
   57DPPC   C17 2817   0.182   5.737   2.018 -0.0394 -0.4323 -0.0694
   57DPPC   C18 2818   0.179   5.750   2.170  0.1711  0.0822 -0.1065
   57DPPC   C19 2819   0.046   5.709   2.233  0.2933  0.1281  0.1855
   57DPPC   C20 2820   0.063   5.714   2.385  0.0069  0.5684  0.2055
   57DPPC   C21 2821  -0.027   5.606   2.445  0.1500  0.1253 -0.3555
   57DPPC   C22 2822   0.008   5.470   2.385  0.1532  0.1481 -0.4053
   57DPPC   C23 2823   0.143   5.426   2.443 -0.4193 -0.2563  0.6421
   57DPPC   C24 2824   0.190   5.303   2.366 -0.4454 -0.4277  0.8985
   57DPPC   C25 2825   0.293   5.242   2.462 -0.1977 -0.2773  0.7310
   57DPPC   C26 2826   0.411   5.337   2.442 -0.1613 -0.4377  0.1510
   57DPPC   C27 2827   0.504   5.348   2.563 -0.2699 -0.2416  0.2178
   57DPPC   C28 2828   0.577   5.217   2.597 -0.1688 -0.0694  0.6651
   57DPPC   C29 2829   0.678   5.253   2.706  0.3235 -0.0537  0.2049
   57DPPC   C30 2830   0.711   5.130   2.792 -0.0888 -0.7334 -0.5935
   57DPPC   C31 2831   0.820   5.149   2.898 -0.2765  0.5307 -0.6034
   57DPPC   C32 2832   0.501   5.415   2.076 -0.6072 -0.5603 -0.2160
   57DPPC   O33 2833   0.573   5.297   2.112  0.2315  0.1734  0.5601
   57DPPC   C34 2834   0.709   5.307   2.123  0.2163 -0.0691  0.9851
   57DPPC   O35 2835   0.771   5.412   2.132 -0.4755  0.4471 -0.0538
   57DPPC   C36 2836   0.788   5.178   2.102 -0.4657 -0.3345 -0.1060
   57DPPC   C37 2837   0.851   5.119   2.230 -0.1785 -0.2088 -0.1881
   57DPPC   C38 2838   0.934   4.991   2.222  0.8115  0.4234 -0.1240
   57DPPC   C39 2839   0.960   4.946   2.366 -0.8579 -0.7606 -0.1735
   57DPPC   C40 2840   1.063   4.833   2.369  0.2642  0.2418 -0.4776
   57DPPC   C41 2841   1.086   4.790   2.514  0.0844 -0.1202 -0.5556
   57DPPC   C42 2842   0.951   4.732   2.556  0.1834 -0.2342 -0.3905
   57DPPC   C43 2843   0.947   4.690   2.703  0.7422  0.4379 -0.1792
   57DPPC   C44 2844   0.970   4.799   2.808 -0.0740  0.2894  0.1568
   57DPPC   C45 2845   0.966   4.739   2.949  0.1425  0.4508  0.2323
   57DPPC   C46 2846   1.010   4.845   3.049 -0.6330  0.2897  0.7577
   57DPPC   C47 2847   0.965   4.812   3.191 -0.0046 -0.6411  0.7475
   57DPPC   C48 2848   1.012   4.908   3.301 -0.0951  0.0388  0.1970
   57DPPC   C49 2849   0.945   5.043   3.274  0.5843  0.2190 -0.6047
   57DPPC   C50 2850   1.031   5.149   3.345 -0.2344  0.3492  0.2031
   58DPPC    C1 2851   1.045   0.263   1.448  0.7729 -0.0210 -0.4043
   58DPPC    C2 2852   1.053   0.298   1.220  0.1880 -0.3100 -0.0095
   58DPPC    C3 2853   1.120   0.089   1.314  0.2214 -0.4397  0.1205
   58DPPC    N4 2854   1.018   0.196   1.320  0.2392 -0.4111 -0.0942
   58DPPC    C5 2855   0.884   0.142   1.297 -0.0816  0.0488  0.6725
   58DPPC    C6 2856   0.831   0.036   1.394 -0.6130  0.3467  0.7161
   58DPPC    O7 2857   0.729  -0.049   1.340  0.4517 -0.5762  0.1060
   58DPPC    P8 2858   0.686  -0.143   1.464 -0.3683 -0.3623 -0.0172
   58DPPC    O9 2859   0.573  -0.231   1.427 -0.5132 -0.1840 -0.0048
   58DPPC   O10 2860   0.807  -0.172   1.542 -0.5534 -0.1818  0.3396
   58DPPC   O11 2861   0.615  -0.030   1.554  0.0527 -0.1635  0.0647
   58DPPC   C12 2862   0.533  -0.086   1.657 -0.7811  0.7268 -0.0913
   58DPPC   C13 2863   0.501   0.005   1.775 -0.1109  0.0869  0.5993
   58DPPC   O14 2864   0.412  -0.055   1.869  0.2198 -0.6385  0.4531
   58DPPC   C15 2865   0.285  -0.098   1.847  0.2567 -0.4399 -0.1610
   58DPPC   O16 2866   0.238  -0.097   1.733  0.4441  0.2114 -0.2334
   58DPPC   C17 2867   0.192  -0.114   1.968  0.1354 -0.1708 -0.2194
   58DPPC   C18 2868   0.259  -0.201   2.074 -0.0255 -0.1892 -0.1323
   58DPPC   C19 2869   0.258  -0.126   2.206 -1.2303 -0.4527  0.0279
   58DPPC   C20 2870   0.335  -0.216   2.304  0.0590  0.4350 -0.1397
   58DPPC   C21 2871   0.352  -0.151   2.441 -0.1061  0.2212 -0.0193
   58DPPC   C22 2872   0.214  -0.113   2.495 -0.3049 -0.1917 -0.2307
   58DPPC   C23 2873   0.218  -0.057   2.638  0.2210 -0.4574 -0.1395
   58DPPC   C24 2874   0.083  -0.011   2.693  0.5738  0.0684  0.2988
   58DPPC   C25 2875   0.109   0.051   2.830  0.4480  0.3275  0.2068
   58DPPC   C26 2876  -0.016   0.091   2.910  0.1411 -0.1818 -0.0112
   58DPPC   C27 2877  -0.107  -0.031   2.920 -0.0373 -0.0151  0.4330
   58DPPC   C28 2878  -0.216  -0.010   3.025 -0.6218  0.6847 -0.2984
   58DPPC   C29 2879  -0.312  -0.129   3.028  0.3542 -0.1120  0.2879
   58DPPC   C30 2880  -0.430  -0.098   3.121  0.4021 -0.1657  0.3659
   58DPPC   C31 2881  -0.523  -0.219   3.133 -0.3383  0.3007 -0.5562
   58DPPC   C32 2882   0.448   0.136   1.715  0.4187  0.2619  0.5064
   58DPPC   O33 2883   0.420   0.244   1.805  0.0925  0.6454 -0.0521
   58DPPC   C34 2884   0.295   0.294   1.787  0.0682  0.5637 -0.1099
   58DPPC   O35 2885   0.221   0.242   1.703  0.1737  0.2516 -0.0127
   58DPPC   C36 2886   0.244   0.393   1.891  0.1116  0.0020  0.4547
   58DPPC   C37 2887   0.205   0.338   2.029  0.0316 -0.1958  0.3534
   58DPPC   C38 2888   0.162   0.448   2.126 -0.8027 -0.1245 -0.0907
   58DPPC   C39 2889   0.149   0.392   2.267  0.4874 -0.2199  0.0019
   58DPPC   C40 2890   0.086   0.492   2.364  0.4360  0.0805 -0.3430
   58DPPC   C41 2891   0.099   0.423   2.500  0.1334  0.1615 -0.2716
   58DPPC   C42 2892   0.019   0.508   2.599 -0.1079 -0.4893  0.0959
   58DPPC   C43 2893   0.040   0.427   2.727  0.0630  0.2023  0.5093
   58DPPC   C44 2894   0.019   0.516   2.849 -0.1917 -0.1723  0.7421
   58DPPC   C45 2895   0.137   0.613   2.857  0.0708 -0.4090 -0.1231
   58DPPC   C46 2896   0.100   0.726   2.954 -0.1214 -0.2572 -0.3709
   58DPPC   C47 2897   0.064   0.669   3.091 -0.3496  1.0268  0.1177
   58DPPC   C48 2898   0.182   0.594   3.152 -0.2145  0.7570 -0.4691
   58DPPC   C49 2899   0.127   0.511   3.268  0.1302  0.2653 -0.6553
   58DPPC   C50 2900   0.235   0.424   3.333  0.0086  0.5235 -0.1001
   59DPPC    C1 2901   0.182   0.098   1.300  0.7218 -0.2600 -0.2151
   59DPPC    C2 2902   0.221   0.310   1.398  0.2671  0.6565 -0.3073
   59DPPC    C3 2903   0.253   0.292   1.160  0.1300  0.1253 -0.3937
   59DPPC    N4 2904   0.262   0.221   1.288 -0.2100  0.3540 -0.2417
   59DPPC    C5 2905   0.397   0.167   1.311 -0.4557 -0.3104 -0.3319
   59DPPC    C6 2906   0.511   0.268   1.301 -0.1706 -0.5721  0.2175
   59DPPC    O7 2907   0.536   0.343   1.420 -0.0147 -0.0595 -0.1332
   59DPPC    P8 2908   0.643   0.462   1.403 -0.2380  0.1760  0.0962
   59DPPC    O9 2909   0.753   0.430   1.496 -0.0715  0.8875  0.1486
   59DPPC   O10 2910   0.658   0.512   1.264  0.0452  0.4835  0.2363
   59DPPC   O11 2911   0.570   0.580   1.485 -0.2654  0.1144  0.1602
   59DPPC   C12 2912   0.513   0.533   1.607 -0.2458 -0.1103  0.0830
   59DPPC   C13 2913   0.420   0.637   1.670 -0.0298  0.0220  0.1827
   59DPPC   O14 2914   0.278   0.642   1.648  0.0225  0.0114 -0.1532
   59DPPC   C15 2915   0.206   0.656   1.533 -0.1162 -0.0644 -0.0756
   59DPPC   O16 2916   0.250   0.619   1.424  0.4552 -0.1596  0.1817
   59DPPC   C17 2917   0.057   0.674   1.563 -0.2147 -0.2223 -0.4726
   59DPPC   C18 2918   0.023   0.735   1.699  1.1771  0.7502 -0.5292
   59DPPC   C19 2919  -0.113   0.804   1.693  0.4050 -0.6556  0.2099
   59DPPC   C20 2920  -0.146   0.882   1.821 -0.3482 -0.3760 -0.1459
   59DPPC   C21 2921  -0.214   0.798   1.930  0.3804 -0.7923 -0.0066
   59DPPC   C22 2922  -0.201   0.870   2.065 -0.6017 -0.2684 -0.1878
   59DPPC   C23 2923  -0.332   0.844   2.140 -0.4457  0.3485  0.3077
   59DPPC   C24 2924  -0.315   0.902   2.280  0.4671  0.1662  0.2776
   59DPPC   C25 2925  -0.441   0.860   2.356  0.4256  0.2693  0.2662
   59DPPC   C26 2926  -0.453   0.708   2.341 -0.0841  0.2837  0.4993
   59DPPC   C27 2927  -0.582   0.657   2.406 -0.4103 -0.0778 -0.4125
   59DPPC   C28 2928  -0.695   0.730   2.333 -0.3045  0.3791 -0.1242
   59DPPC   C29 2929  -0.828   0.694   2.400  0.5454  0.0978  1.4839
   59DPPC   C30 2930  -0.856   0.544   2.413 -0.6260 -0.0012 -1.3106
   59DPPC   C31 2931  -0.972   0.529   2.511  0.3099 -0.0626 -0.1890
   59DPPC   C32 2932   0.493   0.771   1.662 -0.6030  0.3297  0.0817
   59DPPC   O33 2933   0.594   0.779   1.763 -0.4444 -0.2272 -0.0324
   59DPPC   C34 2934   0.647   0.903   1.747  0.2027 -0.5501 -0.4268
   59DPPC   O35 2935   0.607   0.987   1.666  0.0932 -0.0467  0.1452
   59DPPC   C36 2936   0.749   0.930   1.857 -0.2110 -0.5256 -0.0462
   59DPPC   C37 2937   0.674   0.944   1.990 -0.4553  0.3996 -0.2745
   59DPPC   C38 2938   0.765   1.004   2.098 -0.1486 -0.0993 -0.2525
   59DPPC   C39 2939   0.692   1.021   2.232  0.0565 -0.0360 -0.1487
   59DPPC   C40 2940   0.782   1.088   2.335  0.2256 -0.1770 -0.2038
   59DPPC   C41 2941   0.711   1.116   2.467  0.4522 -0.3287 -0.0488
   59DPPC   C42 2942   0.820   1.157   2.567  0.1597  0.3408  0.0049
   59DPPC   C43 2943   0.765   1.156   2.710  0.0800 -0.2605 -0.0268
   59DPPC   C44 2944   0.884   1.177   2.804 -0.0075 -0.8384  0.2189
   59DPPC   C45 2945   0.843   1.216   2.946 -0.1603  0.1979 -0.1004
   59DPPC   C46 2946   0.971   1.228   3.028 -0.3522  0.4606  0.1651
   59DPPC   C47 2947   0.938   1.214   3.177 -0.2696  0.6289  0.1995
   59DPPC   C48 2948   1.066   1.248   3.253 -0.2291  0.1350  0.3491
   59DPPC   C49 2949   1.049   1.239   3.405  0.5213 -0.3554  0.4111
   59DPPC   C50 2950   1.175   1.289   3.477  0.2844  0.4018  0.3138
   60DPPC    C1 2951   6.262   3.985   1.273 -0.2651  0.2458  0.1887
   60DPPC    C2 2952   6.037   4.051   1.295 -0.3686  0.4599  0.4235
   60DPPC    C3 2953   6.193   4.201   1.194  0.4356  0.3627  0.0371
   60DPPC    N4 2954   6.175   4.100   1.299 -0.2934  0.3008 -0.1416
   60DPPC    C5 2955   6.211   4.167   1.425 -0.5269 -0.4032  0.2986
   60DPPC    C6 2956   6.129   4.283   1.482  0.4775  0.3548  0.2150
   60DPPC    O7 2957   6.117   4.391   1.390  0.1617 -0.0737 -0.2487
   60DPPC    P8 2958   5.993   4.471   1.453 -0.0956 -0.4274 -0.3036
   60DPPC    O9 2959   5.964   4.583   1.361 -0.0515 -0.4690 -0.3681
   60DPPC   O10 2960   5.891   4.373   1.497 -0.4967  0.3501  0.5420
   60DPPC   O11 2961   6.074   4.522   1.582  0.1054 -0.5772 -0.3700
   60DPPC   C12 2962   6.150   4.643   1.573 -0.3704 -0.2444 -0.0191
   60DPPC   C13 2963   6.224   4.681   1.702  0.0369 -0.4955 -0.1756
   60DPPC   O14 2964   6.170   4.648   1.831 -0.6666  0.3539 -0.2464
   60DPPC   C15 2965   6.045   4.695   1.856 -0.7084  0.2716 -0.2965
   60DPPC   O16 2966   5.981   4.770   1.783  0.3606  0.4503 -1.0651
   60DPPC   C17 2967   5.988   4.651   1.991 -0.0001  0.1092 -0.0486
   60DPPC   C18 2968   6.103   4.643   2.092 -0.1431  0.0406  0.1089
   60DPPC   C19 2969   6.067   4.571   2.223 -0.5207 -0.1877 -0.1208
   60DPPC   C20 2970   6.167   4.615   2.329 -0.6490  0.6935 -0.3552
   60DPPC   C21 2971   6.304   4.563   2.286 -0.3031  0.8950  0.4707
   60DPPC   C22 2972   6.404   4.592   2.398  0.3857  0.1092  0.0644
   60DPPC   C23 2973   6.365   4.504   2.517  0.3886 -0.0645 -0.0620
   60DPPC   C24 2974   6.447   4.525   2.645  0.2163  0.4583 -0.0343
   60DPPC   C25 2975   6.407   4.412   2.741  0.1000  0.4477 -0.0948
   60DPPC   C26 2976   6.506   4.417   2.857  0.4878 -0.4018 -0.3811
   60DPPC   C27 2977   6.473   4.340   2.985 -0.1558  0.3833 -0.0639
   60DPPC   C28 2978   6.407   4.436   3.084  0.3088 -0.2883  0.9082
   60DPPC   C29 2979   6.507   4.536   3.142  0.1625  0.3654  0.0517
   60DPPC   C30 2980   6.431   4.625   3.241 -0.5619 -0.4417  0.2292
   60DPPC   C31 2981   6.531   4.705   3.324 -0.2529 -0.6532  0.0650
   60DPPC   C32 2982   6.253   4.831   1.693 -1.0116 -0.2632  0.1927
   60DPPC   O33 2983   6.340   4.894   1.787 -0.3763 -0.1609 -0.4539
   60DPPC   C34 2984   6.380   5.023   1.769 -0.0354 -0.2294 -0.2021
   60DPPC   O35 2985   6.330   5.098   1.685  0.0902 -0.3676 -0.3996
   60DPPC   C36 2986   6.466   5.074   1.885  0.3254 -0.3432 -0.4182
   60DPPC   C37 2987   6.422   5.187   1.978  0.5672 -0.3602 -0.2804
   60DPPC   C38 2988   6.319   5.136   2.079  0.7409  0.0049  0.0818
   60DPPC   C39 2989   6.372   5.033   2.178 -0.2095 -0.4475  0.1277
   60DPPC   C40 2990   6.283   5.015   2.301  0.0324 -0.4250  0.3070
   60DPPC   C41 2991   6.345   5.039   2.439  0.1408 -0.0201  0.1879
   60DPPC   C42 2992   6.432   4.935   2.510  0.1458 -0.2614 -0.1686
   60DPPC   C43 2993   6.480   4.992   2.643 -0.0198  0.1835 -0.2978
   60DPPC   C44 2994   6.558   4.893   2.730  0.1563  0.3062 -0.3137
   60DPPC   C45 2995   6.606   4.962   2.858 -0.5055  0.2545 -0.0310
   60DPPC   C46 2996   6.679   5.094   2.830 -0.4420  0.2382  0.0549
   60DPPC   C47 2997   6.718   5.154   2.965 -0.4063  0.0479  0.1305
   60DPPC   C48 2998   6.752   5.304   2.961 -1.1472  0.2139 -0.0335
   60DPPC   C49 2999   6.807   5.319   3.103  0.1116 -0.1327 -0.4694
   60DPPC   C50 3000   6.914   5.210   3.112 -0.0112 -0.1433  1.0030
   61DPPC    C1 3001   0.851   5.257   1.679  0.2105 -0.5014  0.4307
   61DPPC    C2 3002   0.752   5.435   1.563  0.0362  0.1074  0.5905
   61DPPC    C3 3003   0.817   5.468   1.785  0.2474  0.5100 -0.3378
   61DPPC    N4 3004   0.857   5.402   1.660  0.2154 -0.5338  0.1851
   61DPPC    C5 3005   0.993   5.451   1.629 -0.2404  0.1396 -0.8060
   61DPPC    C6 3006   1.044   5.451   1.485 -0.8899 -0.3777 -1.0397
   61DPPC    O7 3007   1.070   5.323   1.426  0.0817 -0.4497 -0.4718
   61DPPC    P8 3008   1.227   5.285   1.427  0.1774 -0.0505 -0.0978
   61DPPC    O9 3009   1.255   5.174   1.333 -0.0034 -0.5681  0.4580
   61DPPC   O10 3010   1.285   5.417   1.392  0.5929 -0.2230 -0.0629
   61DPPC   O11 3011   1.250   5.239   1.579  0.3009  0.1227 -0.0637
   61DPPC   C12 3012   1.240   5.098   1.603  0.5743  0.0839 -0.1702
   61DPPC   C13 3013   1.261   5.059   1.749  0.4643  0.3950 -0.0689
   61DPPC   O14 3014   1.218   4.925   1.780 -0.0036  0.5357 -0.1034
   61DPPC   C15 3015   1.308   4.826   1.753 -0.3693  0.2743 -0.3727
   61DPPC   O16 3016   1.396   4.839   1.668 -0.1854 -0.1278 -0.2444
   61DPPC   C17 3017   1.308   4.703   1.844  0.4922  0.6372  0.1278
   61DPPC   C18 3018   1.337   4.748   1.987  0.9498  0.3619  0.1243
   61DPPC   C19 3019   1.370   4.627   2.074  0.2009 -0.1405 -0.2903
   61DPPC   C20 3020   1.442   4.651   2.207  0.3378  0.3340 -0.4498
   61DPPC   C21 3021   1.459   4.519   2.282 -0.0616  0.4538 -0.1415
   61DPPC   C22 3022   1.540   4.558   2.405  0.0289 -0.1916  0.0091
   61DPPC   C23 3023   1.458   4.663   2.481 -0.6597 -0.5021 -0.3043
   61DPPC   C24 3024   1.471   4.649   2.633  0.0810  0.1588 -0.3041
   61DPPC   C25 3025   1.391   4.754   2.710  0.2216  0.3647 -0.4372
   61DPPC   C26 3026   1.371   4.710   2.855  0.4140  0.3616 -0.4120
   61DPPC   C27 3027   1.505   4.690   2.928  0.0944 -0.4275 -0.0239
   61DPPC   C28 3028   1.468   4.661   3.073 -0.0852  0.0950  0.0400
   61DPPC   C29 3029   1.591   4.607   3.147  0.4353  0.2711 -0.6845
   61DPPC   C30 3030   1.628   4.467   3.099 -0.7221 -0.4876  0.5576
   61DPPC   C31 3031   1.755   4.413   3.165 -0.4282  0.0752  0.4602
   61DPPC   C32 3032   1.187   5.164   1.831 -0.0802 -0.3351  0.3890
   61DPPC   O33 3033   1.234   5.215   1.956 -0.3380 -0.7782  0.6693
   61DPPC   C34 3034   1.146   5.299   2.016  0.0607  0.2229 -0.1199
   61DPPC   O35 3035   1.042   5.327   1.956 -0.1078 -0.6588 -0.2563
   61DPPC   C36 3036   1.173   5.350   2.158  0.0885  0.2333 -0.1287
   61DPPC   C37 3037   1.103   5.472   2.216 -0.1036 -0.0476  0.2340
   61DPPC   C38 3038   1.090   5.446   2.366 -0.3741  0.7006  0.3492
   61DPPC   C39 3039   0.980   5.539   2.417 -1.1215  0.2414 -0.3969
   61DPPC   C40 3040   0.935   5.500   2.558 -0.5334 -0.1216 -0.3062
   61DPPC   C41 3041   1.053   5.500   2.655 -0.4123  0.2555 -0.4493
   61DPPC   C42 3042   1.011   5.462   2.797 -0.2777  0.8486 -0.2504
   61DPPC   C43 3043   1.131   5.459   2.893 -0.4679  0.4182 -0.0240
   61DPPC   C44 3044   1.201   5.323   2.893 -0.5118  0.3906  0.9944
   61DPPC   C45 3045   1.331   5.348   2.969  0.3813  0.4667 -0.5048
   61DPPC   C46 3046   1.402   5.219   3.009 -0.0584  0.4675  0.3084
   61DPPC   C47 3047   1.535   5.225   3.086 -0.1669  0.1618  0.5232
   61DPPC   C48 3048   1.585   5.084   3.119  0.0915  0.0601 -0.2870
   61DPPC   C49 3049   1.725   5.081   3.179 -0.1732 -0.3189  0.3132
   61DPPC   C50 3050   1.785   4.940   3.186  0.4617 -0.0827 -0.3155
   62DPPC    C1 3051   0.719   6.037   0.965  0.5189  0.1986 -0.0039
   62DPPC    C2 3052   0.499   6.023   0.911 -0.4053  0.1411  0.5067
   62DPPC    C3 3053   0.561   6.098   1.130 -0.6946  0.2046 -0.0775
   62DPPC    N4 3054   0.590   6.000   1.024  0.4074  0.4971 -0.0601
   62DPPC    C5 3055   0.576   5.860   1.064 -0.1431  0.5100 -0.2006
   62DPPC    C6 3056   0.699   5.781   1.110 -0.5045 -0.0146 -0.1207
   62DPPC    O7 3057   0.757   5.848   1.222 -0.5856 -0.5449  0.2445
   62DPPC    P8 3058   0.907   5.793   1.244 -0.4865 -0.4000 -0.0531
   62DPPC    O9 3059   0.916   5.654   1.195 -0.2575 -0.1709 -0.6661
   62DPPC   O10 3060   1.003   5.895   1.198 -0.0985 -0.5042  0.5234
   62DPPC   O11 3061   0.924   5.754   1.399  0.2339 -0.4155 -0.1332
   62DPPC   C12 3062   0.899   5.886   1.450  0.6746 -0.5995  0.5810
   62DPPC   C13 3063   0.860   5.868   1.597  0.0262 -0.0932  0.4755
   62DPPC   O14 3064   0.815   5.991   1.655 -0.0847  0.3158 -0.4529
   62DPPC   C15 3065   0.706   5.991   1.738 -0.2459  0.3671 -0.6641
   62DPPC   O16 3066   0.619   5.907   1.717 -0.0066 -0.1053  0.1799
   62DPPC   C17 3067   0.689   6.115   1.826  0.1956  0.1956 -0.3322
   62DPPC   C18 3068   0.773   6.112   1.954 -0.7385 -0.1824  0.2832
   62DPPC   C19 3069   0.800   6.254   2.004 -0.5832 -0.1094 -0.0060
   62DPPC   C20 3070   0.749   6.288   2.144  0.3541 -0.2993  0.3935
   62DPPC   C21 3071   0.769   6.437   2.173  0.4546 -0.3267  0.4633
   62DPPC   C22 3072   0.721   6.469   2.315  0.3604  0.4937  0.2540
   62DPPC   C23 3073   0.667   6.610   2.335 -0.0792  0.3843 -0.1536
   62DPPC   C24 3074   0.630   6.626   2.482  0.3055  0.3490 -0.0533
   62DPPC   C25 3075   0.612   6.775   2.515 -0.3772  0.2632 -0.0385
   62DPPC   C26 3076   0.591   6.780   2.666 -0.3029  0.3414 -0.0312
   62DPPC   C27 3077   0.456   6.711   2.685 -0.1705 -0.1079 -0.7120
   62DPPC   C28 3078   0.431   6.684   2.833  0.1306  0.4691 -0.5548
   62DPPC   C29 3079   0.499   6.556   2.881 -0.0398  0.6415  0.1695
   62DPPC   C30 3080   0.503   6.512   3.027 -0.0544 -0.1492 -0.0605
   62DPPC   C31 3081   0.562   6.635   3.097 -0.2705  0.0241 -0.1813
   62DPPC   C32 3082   0.994   5.818   1.652  0.3260 -0.2554 -0.3902
   62DPPC   O33 3083   0.995   5.771   1.787 -0.8331  0.7784 -0.0002
   62DPPC   C34 3084   1.011   5.847   1.899  0.1657  0.0484  0.3642
   62DPPC   O35 3085   1.063   5.958   1.886 -0.0824  0.1088 -0.1534
   62DPPC   C36 3086   1.017   5.777   2.035 -0.0415 -0.1412  0.2754
   62DPPC   C37 3087   0.886   5.793   2.112  0.0816  0.2928  0.3960
   62DPPC   C38 3088   0.757   5.745   2.043  0.3125  0.1473  0.0592
   62DPPC   C39 3089   0.629   5.781   2.119 -0.1917 -0.5628 -0.4475
   62DPPC   C40 3090   0.642   5.738   2.265 -0.1072  0.7610 -0.0494
   62DPPC   C41 3091   0.535   5.777   2.368 -0.1582  0.3542  0.0522
   62DPPC   C42 3092   0.564   5.709   2.502 -0.2819  0.1619 -0.0183
   62DPPC   C43 3093   0.452   5.751   2.597 -0.2380 -0.1657  0.1801
   62DPPC   C44 3094   0.502   5.708   2.735  0.4984 -0.5150 -0.1905
   62DPPC   C45 3095   0.646   5.752   2.759  0.5056 -0.6037 -0.0660
   62DPPC   C46 3096   0.707   5.744   2.899  0.8067 -0.3934 -0.1852
   62DPPC   C47 3097   0.687   5.606   2.961 -0.0659 -0.3524 -0.3645
   62DPPC   C48 3098   0.724   5.603   3.109 -0.1304 -0.3115 -0.3472
   62DPPC   C49 3099   0.868   5.644   3.142 -0.3338 -0.2292  0.4553
   62DPPC   C50 3100   0.921   5.564   3.262  0.6278 -0.5899 -0.2007
   63DPPC    C1 3101   1.039   1.054   1.684  0.1550  0.5431 -0.2398
   63DPPC    C2 3102   1.226   1.197   1.654  0.0490 -0.1566 -0.0218
   63DPPC    C3 3103   1.250   0.989   1.751  0.0690  0.9792  0.6190
   63DPPC    N4 3104   1.180   1.058   1.641  0.1905 -0.1864 -0.2045
   63DPPC    C5 3105   1.194   1.011   1.502 -0.2541 -0.1487 -0.2656
   63DPPC    C6 3106   1.091   0.910   1.451 -0.5174  0.0904 -0.2090
   63DPPC    O7 3107   1.104   0.784   1.520  0.0789  0.2298 -0.0578
   63DPPC    P8 3108   0.987   0.684   1.474  0.3355 -0.0684 -0.0661
   63DPPC    O9 3109   0.867   0.770   1.487  0.0411 -0.4237 -0.4245
   63DPPC   O10 3110   1.027   0.622   1.345  0.2368  0.0046 -0.1322
   63DPPC   O11 3111   0.997   0.580   1.596  0.0822 -0.1666 -0.1286
   63DPPC   C12 3112   0.907   0.618   1.700 -0.1862 -0.0846 -0.3887
   63DPPC   C13 3113   0.892   0.505   1.801  0.0145  0.0696 -0.1839
   63DPPC   O14 3114   0.781   0.526   1.890  0.4060  0.1287  0.2951
   63DPPC   C15 3115   0.723   0.415   1.943  0.4635 -0.0029  0.0829
   63DPPC   O16 3116   0.768   0.302   1.923  0.4432  0.0298 -0.1453
   63DPPC   C17 3117   0.617   0.451   2.047  0.2747 -0.1795 -0.0483
   63DPPC   C18 3118   0.653   0.563   2.145 -0.1344  0.3190 -0.4670
   63DPPC   C19 3119   0.534   0.590   2.237  0.3631  0.0772  0.2574
   63DPPC   C20 3120   0.577   0.677   2.356 -0.0473  0.0087  0.4592
   63DPPC   C21 3121   0.455   0.708   2.443 -0.4602 -0.3636  0.0209
   63DPPC   C22 3122   0.503   0.783   2.567 -0.1206 -0.3180 -0.1353
   63DPPC   C23 3123   0.386   0.838   2.649  0.3341  0.5621 -0.0688
   63DPPC   C24 3124   0.445   0.892   2.779 -0.0793 -0.1144  0.4055
   63DPPC   C25 3125   0.530   0.783   2.845 -0.2073 -0.4243  0.0576
   63DPPC   C26 3126   0.584   0.836   2.978 -0.7796 -0.6896  0.4027
   63DPPC   C27 3127   0.639   0.716   3.054  0.4270 -0.2466  0.2591
   63DPPC   C28 3128   0.690   0.757   3.192  0.7387  0.0304  0.0638
   63DPPC   C29 3129   0.722   0.629   3.271 -0.0957 -0.1783  0.0704
   63DPPC   C30 3130   0.719   0.651   3.422 -0.2422  0.1050  0.0276
   63DPPC   C31 3131   0.727   0.511   3.484  0.2321  0.0124 -0.2437
   63DPPC   C32 3132   1.029   0.462   1.853  0.0049  0.0473 -0.1769
   63DPPC   O33 3133   1.107   0.580   1.873 -0.0745 -0.0821  0.9629
   63DPPC   C34 3134   1.213   0.568   1.958  0.3120 -0.2819  0.4552
   63DPPC   O35 3135   1.267   0.461   1.983  0.4976 -0.2966  0.0097
   63DPPC   C36 3136   1.256   0.697   2.028  0.3445  0.2763 -0.5727
   63DPPC   C37 3137   1.146   0.803   2.042 -0.2022 -0.3139 -0.3659
   63DPPC   C38 3138   1.051   0.758   2.153 -0.1647  0.3848 -0.0471
   63DPPC   C39 3139   1.116   0.728   2.288  0.2424 -0.4888 -0.4339
   63DPPC   C40 3140   0.994   0.707   2.377  0.4920  0.1273  0.0667
   63DPPC   C41 3141   1.022   0.689   2.526  0.1452 -0.1376  0.1016
   63DPPC   C42 3142   0.885   0.681   2.594 -0.1222 -0.1517 -0.4332
   63DPPC   C43 3143   0.907   0.665   2.744 -0.2382 -0.1685 -0.4174
   63DPPC   C44 3144   0.984   0.784   2.803  0.5171 -0.7049 -0.3076
   63DPPC   C45 3145   1.009   0.759   2.952  0.3583 -0.3686 -0.2255
   63DPPC   C46 3146   1.079   0.880   3.014 -0.4268 -0.0451  0.0422
   63DPPC   C47 3147   1.115   0.842   3.157 -0.5338  0.2211  0.1401
   63DPPC   C48 3148   1.214   0.930   3.233  0.1237 -0.1173 -0.3255
   63DPPC   C49 3149   1.269   0.876   3.366 -0.1845  0.0033 -0.1484
   63DPPC   C50 3150   1.149   0.838   3.451 -0.3144  0.1852 -0.2486
   64DPPC    C1 3151   4.520   4.919   1.404 -0.5830  0.0007  0.0478
   64DPPC    C2 3152   4.386   4.825   1.563  0.3719  0.0808 -0.3514
   64DPPC    C3 3153   4.358   4.753   1.361 -0.5657  0.4513 -0.2337
   64DPPC    N4 3154   4.471   4.788   1.449 -0.0651 -0.3975 -0.5242
   64DPPC    C5 3155   4.586   4.701   1.476  0.2433  0.1462 -0.0622
   64DPPC    C6 3156   4.555   4.551   1.472 -0.2650  0.2553 -0.2779
   64DPPC    O7 3157   4.450   4.525   1.566 -0.2443 -0.1257 -0.3596
   64DPPC    P8 3158   4.458   4.369   1.606 -0.3107 -0.0530 -0.0690
   64DPPC    O9 3159   4.320   4.331   1.644 -0.7244  0.8356 -0.6461
   64DPPC   O10 3160   4.547   4.303   1.509  0.3189 -0.0413  0.4896
   64DPPC   O11 3161   4.532   4.386   1.748 -0.1758 -1.0755 -0.0095
   64DPPC   C12 3162   4.456   4.457   1.847  0.4058 -0.3726 -0.0547
   64DPPC   C13 3163   4.498   4.442   1.994 -0.1557 -0.1767  0.1290
   64DPPC   O14 3164   4.414   4.508   2.089  0.3012  0.1890  0.2827
   64DPPC   C15 3165   4.395   4.643   2.091  0.5773  0.2303  0.1179
   64DPPC   O16 3166   4.453   4.709   2.005  0.2233  0.2618 -0.0963
   64DPPC   C17 3167   4.301   4.705   2.195 -0.3674 -0.1840 -0.4796
   64DPPC   C18 3168   4.381   4.820   2.256 -0.4823 -0.2949 -0.1181
   64DPPC   C19 3169   4.312   4.867   2.384 -0.2487 -0.5809  0.1137
   64DPPC   C20 3170   4.165   4.891   2.350 -0.0986  0.6041  0.2628
   64DPPC   C21 3171   4.081   4.933   2.471 -0.2281  0.4693  0.2192
   64DPPC   C22 3172   3.930   4.947   2.452 -0.1656  0.6987 -0.1158
   64DPPC   C23 3173   3.881   5.006   2.584 -1.0066 -0.0898 -0.0601
   64DPPC   C24 3174   3.922   4.926   2.708  0.0390  0.4476 -0.0438
   64DPPC   C25 3175   3.880   4.979   2.845 -0.1674  0.4082 -0.0917
   64DPPC   C26 3176   3.728   4.992   2.856 -0.2374 -0.3972  0.0010
   64DPPC   C27 3177   3.688   5.024   3.000 -0.1330 -0.2812  0.0049
   64DPPC   C28 3178   3.762   5.151   3.045 -0.0108 -0.4424  0.2583
   64DPPC   C29 3179   3.748   5.153   3.197 -0.3747  0.1111  0.2197
   64DPPC   C30 3180   3.840   5.264   3.248 -0.1736  0.0415  0.0077
   64DPPC   C31 3181   3.837   5.282   3.400 -0.0421  0.3517 -0.0254
   64DPPC   C32 3182   4.649   4.460   2.009 -0.1509 -0.1942  0.0981
   64DPPC   O33 3183   4.694   4.393   2.128 -0.0144 -0.1317  0.0815
   64DPPC   C34 3184   4.829   4.377   2.137 -0.0269 -0.5945 -0.4362
   64DPPC   O35 3185   4.913   4.448   2.080 -0.2501  0.1209  0.1041
   64DPPC   C36 3186   4.876   4.279   2.245 -0.1462 -0.3240 -0.1340
   64DPPC   C37 3187   5.000   4.199   2.203  0.2173  0.1425  0.0301
   64DPPC   C38 3188   5.077   4.146   2.324 -0.5308 -0.3059  0.3194
   64DPPC   C39 3189   5.186   4.045   2.286 -0.4623 -0.0309 -0.2330
   64DPPC   C40 3190   5.240   3.991   2.419 -0.3073  0.2203 -0.1930
   64DPPC   C41 3191   5.311   4.098   2.502 -0.4360  0.2599 -0.1333
   64DPPC   C42 3192   5.432   4.154   2.428 -0.1206 -0.0665  0.1350
   64DPPC   C43 3193   5.496   4.275   2.496 -0.6021  0.7919 -0.9168
   64DPPC   C44 3194   5.597   4.352   2.410  0.4884  0.1119 -0.2756
   64DPPC   C45 3195   5.664   4.458   2.498 -0.2662  0.1929  0.2133
   64DPPC   C46 3196   5.746   4.555   2.413 -0.0599  0.0794  0.2805
   64DPPC   C47 3197   5.647   4.632   2.325 -0.2988  0.2888  0.7276
   64DPPC   C48 3198   5.715   4.732   2.231 -0.7317  0.2885  0.4088
   64DPPC   C49 3199   5.800   4.824   2.319  0.2196 -0.2598  0.0779
   64DPPC   C50 3200   5.912   4.905   2.254  0.2792 -0.4231 -0.0238
   65DPPC    C1 3201   5.185   0.482   5.277 -0.2738 -0.3683 -0.5250
   65DPPC    C2 3202   5.283   0.367   5.469  0.7432  0.4153 -0.2556
   65DPPC    C3 3203   5.087   0.486   5.493  0.3406 -0.6681 -0.2506
   65DPPC    N4 3204   5.215   0.488   5.421  0.1261 -0.0677 -0.6193
   65DPPC    C5 3205   5.305   0.598   5.460 -0.4016  0.2628 -0.3252
   65DPPC    C6 3206   5.255   0.742   5.449 -1.0161  0.0831  0.0765
   65DPPC    O7 3207   5.131   0.784   5.507 -0.9695 -0.2127  0.3939
   65DPPC    P8 3208   5.083   0.917   5.429 -0.0724 -0.3913 -0.4873
   65DPPC    O9 3209   4.940   0.936   5.461 -0.1046 -0.5265 -0.5516
   65DPPC   O10 3210   5.164   1.039   5.451 -0.3572 -0.3186  0.2042
   65DPPC   O11 3211   5.085   0.883   5.272  0.3802 -0.4764 -0.4633
   65DPPC   C12 3212   5.166   0.976   5.200 -0.4730  0.8419  0.2354
   65DPPC   C13 3213   5.144   0.960   5.049  0.6318  0.0483  0.1470
   65DPPC   O14 3214   5.183   1.070   4.966 -0.2238  0.2190 -0.0366
   65DPPC   C15 3215   5.309   1.080   4.916  0.1511  0.3601  0.9276
   65DPPC   O16 3216   5.378   0.978   4.922 -0.4292 -0.0929  0.0750
   65DPPC   C17 3217   5.331   1.201   4.825 -0.0111 -0.1293  0.2336
   65DPPC   C18 3218   5.297   1.160   4.681  0.1486  0.1226  0.1232
   65DPPC   C19 3219   5.313   1.259   4.566  0.0205 -0.1686 -0.1454
   65DPPC   C20 3220   5.235   1.184   4.458 -0.0401  0.0022 -0.2219
   65DPPC   C21 3221   5.236   1.242   4.317 -0.0126 -0.3135 -0.3525
   65DPPC   C22 3222   5.194   1.128   4.223 -0.0595 -0.2756 -0.3775
   65DPPC   C23 3223   5.192   1.177   4.078 -0.3195 -0.2690 -0.3719
   65DPPC   C24 3224   5.093   1.091   3.997 -0.6823  0.0021 -0.2201
   65DPPC   C25 3225   5.075   1.127   3.850  0.1205  0.4322 -0.2191
   65DPPC   C26 3226   4.966   1.051   3.773  0.1173  0.2064  0.0073
   65DPPC   C27 3227   4.959   1.104   3.630  0.6144 -0.1912 -0.1693
   65DPPC   C28 3228   4.843   1.052   3.545  0.3241 -0.4670  0.3895
   65DPPC   C29 3229   4.866   1.075   3.395  0.6105  0.2240  0.5324
   65DPPC   C30 3230   4.862   1.224   3.364  0.0573  0.0542 -0.2451
   65DPPC   C31 3231   4.900   1.244   3.217  0.1540  1.2961 -0.0680
   65DPPC   C32 3232   4.993   0.937   5.046  0.6015  0.2812 -0.1041
   65DPPC   O33 3233   4.922   1.055   5.085 -0.3980 -0.3857  0.1491
   65DPPC   C34 3234   4.799   1.073   5.031 -0.2192 -0.0882 -0.1673
   65DPPC   O35 3235   4.749   0.967   4.994 -0.2200 -0.1833  0.1020
   65DPPC   C36 3236   4.728   1.206   5.060  0.5094  0.2796 -0.0518
   65DPPC   C37 3237   4.716   1.290   4.932  0.0602 -0.0456 -0.2262
   65DPPC   C38 3238   4.836   1.308   4.838  0.1634 -0.0598 -0.0979
   65DPPC   C39 3239   4.798   1.395   4.719  0.2132  0.2318  0.0988
   65DPPC   C40 3240   4.917   1.412   4.624 -0.0845  0.2251 -0.2818
   65DPPC   C41 3241   4.864   1.487   4.502  0.9722  1.1115 -0.2187
   65DPPC   C42 3242   4.959   1.481   4.383  0.5056 -0.3343 -0.5378
   65DPPC   C43 3243   4.909   1.563   4.263  0.3302 -0.0416 -0.2652
   65DPPC   C44 3244   4.995   1.543   4.138 -0.1609 -0.3407 -0.5570
   65DPPC   C45 3245   5.143   1.577   4.151 -0.1923 -0.4037 -0.0178
   65DPPC   C46 3246   5.230   1.554   4.027 -0.1235 -0.4118  0.0323
   65DPPC   C47 3247   5.374   1.517   4.062 -0.2275 -0.7732  0.0800
   65DPPC   C48 3248   5.438   1.438   3.948 -0.1951  0.1695 -0.5622
   65DPPC   C49 3249   5.587   1.405   3.942 -0.0710  0.6231 -0.0762
   65DPPC   C50 3250   5.644   1.387   3.801  0.0214 -0.1043  0.0508
   66DPPC    C1 3251   1.946   1.798   5.483  0.0486  0.2108 -0.7789
   66DPPC    C2 3252   1.764   1.953   5.531 -0.3140  0.5621 -0.4321
   66DPPC    C3 3253   1.977   1.967   5.646 -0.6347 -0.5785  0.3089
   66DPPC    N4 3254   1.910   1.936   5.519 -0.3492 -0.0986  0.0369
   66DPPC    C5 3255   1.959   2.014   5.405  0.0439 -0.2766  0.0812
   66DPPC    C6 3256   1.946   2.165   5.427 -0.1298 -0.2951  0.1089
   66DPPC    O7 3257   2.015   2.239   5.326 -0.3419  0.0004  0.1797
   66DPPC    P8 3258   1.951   2.387   5.329 -0.2249  0.0523  0.1542
   66DPPC    O9 3259   1.959   2.438   5.468 -0.0571  0.1141  0.1217
   66DPPC   O10 3260   2.025   2.462   5.226  0.1323 -0.9740 -0.3456
   66DPPC   O11 3261   1.797   2.372   5.283 -0.1318 -0.4003 -0.0129
   66DPPC   C12 3262   1.812   2.354   5.142 -0.0188 -0.1578 -0.0310
   66DPPC   C13 3263   1.731   2.234   5.093 -0.4892  0.1466  0.0009
   66DPPC   O14 3264   1.754   2.168   4.968  0.3597 -0.1863  0.3317
   66DPPC   C15 3265   1.779   2.240   4.856 -0.3656 -0.3272  0.0767
   66DPPC   O16 3266   1.853   2.338   4.863 -0.1267 -0.4859 -0.2199
   66DPPC   C17 3267   1.763   2.174   4.719  0.3377  0.2285 -0.2780
   66DPPC   C18 3268   1.632   2.215   4.652 -0.1147  0.1908  0.5753
   66DPPC   C19 3269   1.634   2.169   4.506  0.5222  0.6212  0.4479
   66DPPC   C20 3270   1.680   2.294   4.429  1.0084  0.1958  0.0378
   66DPPC   C21 3271   1.719   2.254   4.287  0.1408 -0.2107 -0.0922
   66DPPC   C22 3272   1.749   2.379   4.204 -0.2513 -0.3700 -0.4821
   66DPPC   C23 3273   1.846   2.373   4.086 -0.1738  0.7960 -0.4904
   66DPPC   C24 3274   1.842   2.499   4.000  0.2868  1.0578 -0.1310
   66DPPC   C25 3275   1.972   2.525   3.923  0.7385  0.3274  0.3641
   66DPPC   C26 3276   1.974   2.647   3.830 -0.1359 -0.0163 -0.1189
   66DPPC   C27 3277   1.864   2.636   3.724 -0.5787 -0.4258  0.3801
   66DPPC   C28 3278   1.894   2.519   3.629  0.4803  0.4544 -0.3907
   66DPPC   C29 3279   1.805   2.532   3.506 -0.3041 -0.3139  0.0876
   66DPPC   C30 3280   1.875   2.438   3.407 -0.0445 -0.1620  0.1275
   66DPPC   C31 3281   1.780   2.395   3.295  0.5059  0.2191 -0.4950
   66DPPC   C32 3282   1.591   2.289   5.123 -0.0718  0.8428  0.7083
   66DPPC   O33 3283   1.558   2.406   5.048  0.0993  0.0832 -0.5800
   66DPPC   C34 3284   1.427   2.443   5.041  0.0962  0.1506 -0.1786
   66DPPC   O35 3285   1.336   2.365   5.068  0.1400  0.0128 -0.4332
   66DPPC   C36 3286   1.392   2.568   4.962 -0.3740  0.1242 -0.0122
   66DPPC   C37 3287   1.458   2.564   4.824 -0.4324 -0.0842 -0.0340
   66DPPC   C38 3288   1.465   2.693   4.741 -0.1737 -0.2628 -0.2907
   66DPPC   C39 3289   1.548   2.673   4.614  0.2878  0.1151 -0.0518
   66DPPC   C40 3290   1.631   2.798   4.583 -0.4484  0.6067 -0.0735
   66DPPC   C41 3291   1.664   2.787   4.434  0.1471 -0.1289  0.1058
   66DPPC   C42 3292   1.717   2.918   4.377 -0.6059 -0.0897 -0.5218
   66DPPC   C43 3293   1.772   2.892   4.237  0.1951  0.1504 -0.2589
   66DPPC   C44 3294   1.817   3.028   4.183 -0.0700  0.3239 -0.0412
   66DPPC   C45 3295   1.878   3.009   4.044 -0.2462 -0.1361 -0.0589
   66DPPC   C46 3296   1.907   3.152   3.996  0.5024 -0.2560  0.0256
   66DPPC   C47 3297   1.950   3.153   3.849 -0.2246  0.0565 -0.1881
   66DPPC   C48 3298   1.852   3.071   3.765  0.1053 -0.0980 -0.4258
   66DPPC   C49 3299   1.920   3.044   3.631  0.6749 -0.9732  0.0373
   66DPPC   C50 3300   1.829   2.946   3.557 -0.0397 -0.3075  0.0295
   67DPPC    C1 3301   5.288   3.001   5.083 -0.3058  0.1038 -0.1368
   67DPPC    C2 3302   5.143   2.982   5.271  0.1088 -0.3566  0.3102
   67DPPC    C3 3303   5.099   3.133   5.121  0.6825  0.5128  0.5250
   67DPPC    N4 3304   5.148   2.995   5.124 -0.1671  0.2006  0.3501
   67DPPC    C5 3305   5.069   2.909   5.035  0.0293  0.0672  0.3033
   67DPPC    C6 3306   5.084   2.758   5.049 -0.1533  0.0414  0.2281
   67DPPC    O7 3307   5.208   2.692   5.020 -0.6343 -0.3993 -0.8918
   67DPPC    P8 3308   5.188   2.537   5.058  0.0406 -0.3039 -0.1085
   67DPPC    O9 3309   5.315   2.465   5.033  0.1635 -0.3386  0.6068
   67DPPC   O10 3310   5.133   2.545   5.195  0.2020 -0.1177 -0.0550
   67DPPC   O11 3311   5.078   2.481   4.954 -0.3649  0.1248  0.0869
   67DPPC   C12 3312   5.149   2.453   4.833 -0.3303 -0.0785  0.1538
   67DPPC   C13 3313   5.054   2.441   4.714  0.3611  0.0153 -0.4122
   67DPPC   O14 3314   5.114   2.375   4.601 -0.2473 -0.3929 -0.5021
   67DPPC   C15 3315   5.130   2.240   4.595  0.3341 -0.3428 -0.1678
   67DPPC   O16 3316   5.121   2.165   4.692  0.6140 -0.1139  0.0380
   67DPPC   C17 3317   5.167   2.183   4.457  0.4523  0.6010 -0.5364
   67DPPC   C18 3318   5.242   2.049   4.465  0.0514  0.3918 -0.2564
   67DPPC   C19 3319   5.306   2.022   4.329  0.1801 -0.0221 -0.1140
   67DPPC   C20 3320   5.421   2.115   4.287 -0.3658  0.5448 -0.3710
   67DPPC   C21 3321   5.476   2.076   4.150  0.2366 -0.3685  0.1216
   67DPPC   C22 3322   5.518   1.929   4.150  0.3052 -0.3539  0.7234
   67DPPC   C23 3323   5.539   1.884   4.005 -0.3029 -0.5010  0.6775
   67DPPC   C24 3324   5.409   1.878   3.924  0.2827  0.2963 -0.3423
   67DPPC   C25 3325   5.430   1.824   3.782 -0.2519 -0.4362 -0.1513
   67DPPC   C26 3326   5.309   1.854   3.694 -0.2024 -0.6672 -0.3003
   67DPPC   C27 3327   5.210   1.739   3.713  0.0312 -0.7850  0.2191
   67DPPC   C28 3328   5.065   1.764   3.670  0.1393 -0.1808  0.2013
   67DPPC   C29 3329   5.013   1.879   3.757  0.3903  0.4690 -0.5035
   67DPPC   C30 3330   4.863   1.903   3.743  0.1979 -0.5838 -0.3270
   67DPPC   C31 3331   4.846   1.918   3.592  0.0856 -0.5919 -0.3151
   67DPPC   C32 3332   4.990   2.578   4.694 -0.0822 -0.0793  0.3226
   67DPPC   O33 3333   5.077   2.691   4.675 -0.2165 -0.0026  0.1657
   67DPPC   C34 3334   5.010   2.809   4.674  0.3386  0.3130  0.1152
   67DPPC   O35 3335   4.887   2.807   4.674  0.3425 -0.2532 -0.5684
   67DPPC   C36 3336   5.095   2.926   4.622 -0.7845  1.0324 -0.1427
   67DPPC   C37 3337   5.110   2.915   4.471  0.1662 -0.1452  0.0147
   67DPPC   C38 3338   5.204   3.023   4.417  0.2320 -0.0080  0.4008
   67DPPC   C39 3339   5.143   3.152   4.471 -0.8585 -0.2668 -0.1833
   67DPPC   C40 3340   5.187   3.280   4.400  0.0060 -0.3721  0.1505
   67DPPC   C41 3341   5.139   3.262   4.256  0.2301  0.4964 -0.0367
   67DPPC   C42 3342   5.183   3.382   4.171  0.1683  0.2053 -0.4823
   67DPPC   C43 3343   5.104   3.373   4.040 -0.2984 -0.4096 -0.1637
   67DPPC   C44 3344   4.957   3.370   4.081 -0.0794  0.4701  0.7129
   67DPPC   C45 3345   4.873   3.384   3.954  0.4117 -0.3532  0.2901
   67DPPC   C46 3346   4.726   3.413   3.981  0.3146 -0.1916 -0.4106
   67DPPC   C47 3347   4.627   3.430   3.865  0.6223  0.1175 -0.6295
   67DPPC   C48 3348   4.480   3.443   3.909  0.9383  0.3064  0.4088
   67DPPC   C49 3349   4.383   3.396   3.801  0.7414 -0.1011  0.7650
   67DPPC   C50 3350   4.240   3.403   3.856  0.4954  0.1054  0.1102
   68DPPC    C1 3351   1.767   4.689   5.263  0.2807 -0.0395 -0.7490
   68DPPC    C2 3352   1.726   4.463   5.204  0.5958  0.5701 -0.5614
   68DPPC    C3 3353   1.934   4.537   5.325  0.0989  0.0433  0.4549
   68DPPC    N4 3354   1.789   4.549   5.305  0.1640  0.1758  0.0479
   68DPPC    C5 3355   1.718   4.523   5.431  0.5250 -0.1616  0.1799
   68DPPC    C6 3356   1.692   4.377   5.470  0.2376 -0.1524  0.0236
   68DPPC    O7 3357   1.806   4.308   5.522  0.2336 -0.1121  0.0850
   68DPPC    P8 3358   1.783   4.156   5.476  0.0812 -0.1588  0.3129
   68DPPC    O9 3359   1.890   4.112   5.568  0.5158  0.1758 -0.0311
   68DPPC   O10 3360   1.640   4.117   5.490 -0.0593  0.3448  0.2802
   68DPPC   O11 3361   1.827   4.176   5.323  0.3002 -0.3139  0.3538
   68DPPC   C12 3362   1.858   4.048   5.268 -0.5601 -0.2585 -0.2949
   68DPPC   C13 3363   1.872   4.070   5.118 -0.0779  0.1963 -0.1868
   68DPPC   O14 3364   1.891   3.950   5.042 -0.1175  0.2925 -0.3518
   68DPPC   C15 3365   1.792   3.858   5.024 -0.0599  0.2933 -0.6729
   68DPPC   O16 3366   1.690   3.865   5.093  0.2999  0.0728 -0.1095
   68DPPC   C17 3367   1.798   3.781   4.892  0.5505 -0.1179 -0.4112
   68DPPC   C18 3368   1.716   3.853   4.785  0.4553  0.0860 -0.2031
   68DPPC   C19 3369   1.636   3.765   4.688 -0.3625  0.2756  0.2905
   68DPPC   C20 3370   1.572   3.840   4.570  0.5694  0.5557 -0.0453
   68DPPC   C21 3371   1.457   3.755   4.516  0.1849  1.0153  0.0412
   68DPPC   C22 3372   1.407   3.783   4.375 -0.0052  0.0438 -0.0955
   68DPPC   C23 3373   1.276   3.709   4.348  0.0929 -0.2742  0.2944
   68DPPC   C24 3374   1.226   3.748   4.209  0.0835  0.3828  0.4786
   68DPPC   C25 3375   1.332   3.697   4.111 -0.1472  0.1815  0.3335
   68DPPC   C26 3376   1.310   3.752   3.970 -0.3499  0.2298  0.3840
   68DPPC   C27 3377   1.182   3.704   3.902 -0.0144  0.0178 -0.0997
   68DPPC   C28 3378   1.165   3.791   3.777  0.3376 -0.0245 -0.1794
   68DPPC   C29 3379   1.058   3.724   3.690  0.6223  0.2584 -0.7448
   68DPPC   C30 3380   1.105   3.585   3.646  0.0141 -0.3256  0.4229
   68DPPC   C31 3381   1.001   3.517   3.557 -0.0371  0.2919  0.0044
   68DPPC   C32 3382   1.988   4.168   5.102  0.2421 -0.1105  0.2676
   68DPPC   O33 3383   1.974   4.259   4.993  0.4528 -0.8035 -0.3389
   68DPPC   C34 3384   2.074   4.348   4.969 -0.3179  0.4042  0.8118
   68DPPC   O35 3385   2.178   4.367   5.032  0.1481 -0.0207  0.1790
   68DPPC   C36 3386   2.040   4.436   4.848 -0.0777 -0.8719 -0.2083
   68DPPC   C37 3387   2.085   4.364   4.721  0.2639 -0.0781 -0.5447
   68DPPC   C38 3388   2.046   4.426   4.587  0.2634 -0.0458 -0.5302
   68DPPC   C39 3389   2.075   4.345   4.460  0.5593 -0.2512 -0.3322
   68DPPC   C40 3390   1.994   4.402   4.344  0.2163  0.5139  0.2734
   68DPPC   C41 3391   2.006   4.337   4.206 -0.5361 -0.2439  0.5527
   68DPPC   C42 3392   1.944   4.436   4.107 -0.0428 -0.3353  0.1459
   68DPPC   C43 3393   1.792   4.438   4.123 -0.0270  0.6624  0.2326
   68DPPC   C44 3394   1.723   4.525   4.018  0.0096 -0.1939 -0.5172
   68DPPC   C45 3395   1.780   4.666   4.036 -0.1367 -0.1623 -0.2904
   68DPPC   C46 3396   1.680   4.781   4.022 -0.0738  0.0772  1.0973
   68DPPC   C47 3397   1.555   4.739   4.099 -0.8112  0.0689 -0.0887
   68DPPC   C48 3398   1.454   4.853   4.077 -0.3261  0.5603  0.2096
   68DPPC   C49 3399   1.342   4.822   4.176 -0.2435 -0.1283  0.0936
   68DPPC   C50 3400   1.278   4.689   4.134 -0.4546 -0.0755  0.2464
   69DPPC    C1 3401   3.658   1.150   4.772 -0.1756  0.2427 -0.0408
   69DPPC    C2 3402   3.834   1.243   4.676  0.0667 -0.7774 -0.2366
   69DPPC    C3 3403   3.829   0.999   4.705 -0.1683 -0.4029  0.0523
   69DPPC    N4 3404   3.803   1.130   4.765 -0.2596 -0.4349  0.0834
   69DPPC    C5 3405   3.860   1.130   4.901 -0.0383 -0.5410 -0.0089
   69DPPC    C6 3406   4.011   1.107   4.911  0.1075  0.4774  0.2866
   69DPPC    O7 3407   4.086   1.221   4.869  0.0510  0.4922  0.2237
   69DPPC    P8 3408   4.240   1.189   4.904  0.0015 -0.2326 -0.1987
   69DPPC    O9 3409   4.324   1.307   4.870  0.2166 -0.2638  0.2205
   69DPPC   O10 3410   4.229   1.134   5.041 -0.1274 -0.2355 -0.2105
   69DPPC   O11 3411   4.274   1.078   4.793 -0.2440 -0.3486 -0.1570
   69DPPC   C12 3412   4.371   1.138   4.707  0.1503 -0.2775  0.3283
   69DPPC   C13 3413   4.434   1.044   4.605 -0.0352  0.6596 -0.6775
   69DPPC   O14 3414   4.555   1.084   4.540  0.4922 -0.2443 -0.2707
   69DPPC   C15 3415   4.650   0.986   4.533 -0.1003 -0.8501  0.1214
   69DPPC   O16 3416   4.642   0.892   4.613 -0.1522 -0.0979  1.0214
   69DPPC   C17 3417   4.771   1.024   4.449 -0.2716 -0.2024  0.1648
   69DPPC   C18 3418   4.697   1.054   4.318  0.2581 -0.2310 -0.1441
   69DPPC   C19 3419   4.790   1.123   4.218  0.3700 -0.0579  0.0802
   69DPPC   C20 3420   4.710   1.214   4.125  0.4388 -0.4483 -0.3667
   69DPPC   C21 3421   4.630   1.131   4.026  0.1658 -0.4271 -0.1650
   69DPPC   C22 3422   4.566   1.226   3.925  0.0347  0.2120  0.5130
   69DPPC   C23 3423   4.488   1.157   3.812  0.3028  0.5973  0.0877
   69DPPC   C24 3424   4.395   1.248   3.732  0.2051  0.3618 -0.0672
   69DPPC   C25 3425   4.287   1.171   3.656  0.1738 -0.0879  0.4254
   69DPPC   C26 3426   4.288   1.231   3.515  0.6566 -0.5166  0.2424
   69DPPC   C27 3427   4.180   1.189   3.416  0.3803  0.0380  0.3020
   69DPPC   C28 3428   4.174   1.270   3.286 -0.1465  0.1207  0.3745
   69DPPC   C29 3429   4.035   1.280   3.222 -0.0989 -0.1423  0.2252
   69DPPC   C30 3430   4.023   1.271   3.069  0.1365  0.2100  0.1838
   69DPPC   C31 3431   3.881   1.280   3.012  0.2625 -0.1079 -0.1802
   69DPPC   C32 3432   4.310   1.024   4.518 -0.7504 -0.2401  0.5171
   69DPPC   O33 3433   4.264   1.149   4.466  0.3281  0.0109  0.1401
   69DPPC   C34 3434   4.136   1.146   4.419  0.3542 -0.3481  0.0916
   69DPPC   O35 3435   4.041   1.078   4.458  0.1368 -0.1688 -0.1233
   69DPPC   C36 3436   4.112   1.247   4.307  0.9494  0.2728  0.5228
   69DPPC   C37 3437   4.106   1.389   4.365 -0.2897  0.3734  0.1696
   69DPPC   C38 3438   4.118   1.486   4.248  0.1163 -0.2907 -0.3486
   69DPPC   C39 3439   4.266   1.484   4.209  0.1028 -0.0829 -0.4137
   69DPPC   C40 3440   4.308   1.536   4.071  0.0064 -0.1980 -0.4880
   69DPPC   C41 3441   4.275   1.685   4.060  0.5311 -0.0032  0.4111
   69DPPC   C42 3442   4.310   1.743   3.922  0.1730  0.0972  0.3621
   69DPPC   C43 3443   4.294   1.894   3.935 -0.1695  0.0858  0.0642
   69DPPC   C44 3444   4.322   1.964   3.801 -0.0630  0.3686  0.2325
   69DPPC   C45 3445   4.299   2.114   3.786 -0.0201  0.3498 -0.0293
   69DPPC   C46 3446   4.283   2.152   3.639 -0.2208 -0.0525 -0.1132
   69DPPC   C47 3447   4.279   2.305   3.628  0.3134 -0.0136  0.2302
   69DPPC   C48 3448   4.252   2.348   3.484  0.1259 -0.6476  0.0740
   69DPPC   C49 3449   4.235   2.498   3.460 -0.2134 -0.7780 -0.5351
   69DPPC   C50 3450   4.367   2.576   3.467 -0.6672 -0.0492 -0.0257
   70DPPC    C1 3451   4.176   1.698   5.152 -0.0542  0.0816  0.0388
   70DPPC    C2 3452   4.231   1.703   4.926 -0.5842  0.2373  0.6467
   70DPPC    C3 3453   4.357   1.572   5.068 -0.2016  0.3172 -0.1930
   70DPPC    N4 3454   4.291   1.703   5.060  0.1564  0.5346  0.3197
   70DPPC    C5 3455   4.373   1.822   5.086  0.8357  0.2200 -0.3461
   70DPPC    C6 3456   4.297   1.954   5.078  0.4531  0.0188 -0.0765
   70DPPC    O7 3457   4.382   2.060   5.121  0.0567  0.3624 -0.1347
   70DPPC    P8 3458   4.302   2.200   5.131 -0.3015  0.1401  0.1041
   70DPPC    O9 3459   4.180   2.161   5.207 -0.0119 -0.4954  0.2497
   70DPPC   O10 3460   4.397   2.299   5.186 -0.2989  0.0845  0.1994
   70DPPC   O11 3461   4.298   2.185   4.971 -0.3323 -0.5744  0.1686
   70DPPC   C12 3462   4.380   2.256   4.879 -0.5952 -0.2958  0.1495
   70DPPC   C13 3463   4.399   2.158   4.763 -0.1347  0.5085 -0.4712
   70DPPC   O14 3464   4.453   2.220   4.645  0.4218  0.4067 -0.2742
   70DPPC   C15 3465   4.586   2.218   4.621  0.4320 -0.1016 -0.1996
   70DPPC   O16 3466   4.663   2.230   4.716  0.1232  0.3232  0.0010
   70DPPC   C17 3467   4.633   2.246   4.478 -0.5850  0.1269 -0.4953
   70DPPC   C18 3468   4.728   2.366   4.483  0.1790 -0.5108  0.5960
   70DPPC   C19 3469   4.770   2.409   4.342  0.1331 -0.5343  0.5758
   70DPPC   C20 3470   4.893   2.500   4.335 -0.1738 -0.1621 -0.0607
   70DPPC   C21 3471   4.902   2.541   4.188 -0.5700  0.2317  0.0227
   70DPPC   C22 3472   5.015   2.643   4.167  0.3037 -0.8213 -0.4769
   70DPPC   C23 3473   5.016   2.695   4.023 -0.6279 -0.1603 -0.2529
   70DPPC   C24 3474   5.127   2.799   4.009 -0.7504  0.0326  0.1869
   70DPPC   C25 3475   5.127   2.859   3.868 -0.3960  0.0018  0.1726
   70DPPC   C26 3476   5.248   2.947   3.837 -0.3516 -0.0764  0.1208
   70DPPC   C27 3477   5.252   2.959   3.685  0.3112 -0.4329  0.1087
   70DPPC   C28 3478   5.366   3.049   3.636 -0.4496  0.0615 -0.7779
   70DPPC   C29 3479   5.385   3.186   3.703  0.1959 -0.5440  0.2929
   70DPPC   C30 3480   5.505   3.262   3.645  0.5531 -0.6891  0.8313
   70DPPC   C31 3481   5.517   3.393   3.723  0.4013 -0.2580  0.1410
   70DPPC   C32 3482   4.270   2.080   4.735  0.4501 -0.4916 -0.4424
   70DPPC   O33 3483   4.272   1.989   4.626 -0.4831 -0.2267 -0.6897
   70DPPC   C34 3484   4.144   1.946   4.605 -0.5297 -0.2376 -0.3860
   70DPPC   O35 3485   4.050   1.964   4.682 -0.2303 -0.3838  0.0188
   70DPPC   C36 3486   4.129   1.849   4.487 -0.6350 -0.4393 -0.2075
   70DPPC   C37 3487   4.072   1.910   4.359 -0.3500  0.0483 -0.1064
   70DPPC   C38 3488   3.949   1.998   4.380 -0.2687  0.1693 -0.1344
   70DPPC   C39 3489   3.902   2.070   4.253 -0.0878 -0.5242 -0.5966
   70DPPC   C40 3490   4.004   2.168   4.194 -0.0395 -0.1760  0.0534
   70DPPC   C41 3491   3.945   2.253   4.081 -0.0964 -0.5100 -0.1704
   70DPPC   C42 3492   4.047   2.358   4.038  0.3131 -0.5524  0.6866
   70DPPC   C43 3493   3.981   2.483   3.979  0.9375 -0.4847  0.1284
   70DPPC   C44 3494   4.090   2.580   3.933  0.5872 -0.3886 -0.5183
   70DPPC   C45 3495   4.036   2.689   3.840  0.0983  0.3232  0.5658
   70DPPC   C46 3496   4.160   2.776   3.816  0.1197  0.3052  0.6076
   70DPPC   C47 3497   4.151   2.887   3.711  0.3227 -0.5178 -0.2929
   70DPPC   C48 3498   4.096   2.829   3.580  0.1392 -0.1429 -0.3826
   70DPPC   C49 3499   3.994   2.926   3.520  0.4491  0.3125 -0.1757
   70DPPC   C50 3500   3.943   2.856   3.394 -0.0429  0.0406  0.1686
   71DPPC    C1 3501   4.084   2.465   5.372 -0.2943 -0.4623  0.6259
   71DPPC    C2 3502   4.010   2.458   5.577  0.1579  0.4849 -0.0049
   71DPPC    C3 3503   4.230   2.507   5.559  0.2050  0.2105 -0.2553
   71DPPC    N4 3504   4.101   2.541   5.496  0.1541  0.4891 -0.0050
   71DPPC    C5 3505   4.059   2.682   5.493  0.0592  0.4829  0.8057
   71DPPC    C6 3506   4.075   2.759   5.362  0.1003 -0.2547  0.3724
   71DPPC    O7 3507   4.205   2.817   5.353 -0.2514  0.5102  0.1932
   71DPPC    P8 3508   4.240   2.879   5.209  0.0149 -0.1012 -0.0050
   71DPPC    O9 3509   4.111   2.921   5.149  0.2905  0.7969  0.0119
   71DPPC   O10 3510   4.356   2.968   5.234 -0.1063  0.0952 -0.1366
   71DPPC   O11 3511   4.284   2.740   5.141  0.0684 -0.0442 -0.0871
   71DPPC   C12 3512   4.346   2.766   5.014 -0.2341 -0.3367 -0.2962
   71DPPC   C13 3513   4.326   2.641   4.929 -0.1637 -0.6604  0.1580
   71DPPC   O14 3514   4.351   2.675   4.791  0.0149 -0.5012  0.2295
   71DPPC   C15 3515   4.477   2.693   4.744 -0.0702 -0.7120 -0.0781
   71DPPC   O16 3516   4.569   2.641   4.807  0.1665  0.2909  0.4244
   71DPPC   C17 3517   4.464   2.727   4.595  0.3506  0.1168  0.0665
   71DPPC   C18 3518   4.577   2.808   4.532  0.1576  0.1303 -0.2643
   71DPPC   C19 3519   4.547   2.836   4.385 -0.2688 -0.1728 -0.2370
   71DPPC   C20 3520   4.633   2.945   4.320 -0.6232  0.2990  0.0711
   71DPPC   C21 3521   4.578   2.986   4.183  0.0261  0.8501 -0.0308
   71DPPC   C22 3522   4.569   2.860   4.097  0.0372  0.4542  0.5377
   71DPPC   C23 3523   4.514   2.897   3.959  0.1745  0.2475  0.4279
   71DPPC   C24 3524   4.611   2.999   3.899  0.0691 -0.0641 -0.2857
   71DPPC   C25 3525   4.578   3.000   3.749  0.9364 -0.3008 -0.4845
   71DPPC   C26 3526   4.654   3.100   3.663  0.4973  0.2699 -0.2186
   71DPPC   C27 3527   4.799   3.068   3.627  0.7419  0.2348  0.7606
   71DPPC   C28 3528   4.863   3.177   3.540  0.4751  0.0463  0.3231
   71DPPC   C29 3529   5.003   3.136   3.494  0.6285  0.2628  0.5906
   71DPPC   C30 3530   5.050   3.244   3.397  0.0991 -0.1111 -0.0953
   71DPPC   C31 3531   5.003   3.373   3.465  0.0602 -0.2415  0.1288
   71DPPC   C32 3532   4.191   2.582   4.969 -0.8382  0.8329  0.1699
   71DPPC   O33 3533   4.154   2.453   4.918  0.4274  0.2101  0.7728
   71DPPC   C34 3534   4.035   2.406   4.962  0.0736  0.0989 -0.2685
   71DPPC   O35 3535   4.002   2.454   5.071 -0.2419 -0.6323 -0.0321
   71DPPC   C36 3536   3.964   2.285   4.901 -0.3868 -0.0144  0.4717
   71DPPC   C37 3537   3.870   2.308   4.783  0.1848  0.0569  0.0232
   71DPPC   C38 3538   3.928   2.386   4.665  0.2406 -0.0891 -0.0465
   71DPPC   C39 3539   4.061   2.334   4.611  0.1458 -0.5219  0.1320
   71DPPC   C40 3540   4.112   2.423   4.497  0.3156  0.0936  0.6839
   71DPPC   C41 3541   4.236   2.349   4.445  0.3244  0.4425  0.2018
   71DPPC   C42 3542   4.277   2.446   4.334 -0.3394  0.2676 -0.2009
   71DPPC   C43 3543   4.382   2.378   4.246 -0.7448 -0.4439 -0.1454
   71DPPC   C44 3544   4.414   2.466   4.124 -0.5170  0.2144  0.3849
   71DPPC   C45 3545   4.504   2.378   4.037 -0.2860  0.6181  0.2127
   71DPPC   C46 3546   4.536   2.435   3.899  0.0196  0.5127  0.2402
   71DPPC   C47 3547   4.624   2.338   3.818 -0.4714  0.5430 -0.3344
   71DPPC   C48 3548   4.661   2.373   3.674  0.0150  0.2137 -0.2916
   71DPPC   C49 3549   4.758   2.268   3.618  0.0198  0.1520 -0.1678
   71DPPC   C50 3550   4.777   2.303   3.471  0.2022 -0.3458 -0.2618
   72DPPC    C1 3551   3.908   4.403   4.635  0.8639 -0.1314 -0.1645
   72DPPC    C2 3552   3.854   4.362   4.876 -0.2525  0.2143  0.0578
   72DPPC    C3 3553   3.931   4.571   4.796 -0.4733  0.0707  0.2000
   72DPPC    N4 3554   3.940   4.426   4.776 -0.1885  0.1107  0.0461
   72DPPC    C5 3555   4.080   4.398   4.812 -0.2549  0.0686  0.2731
   72DPPC    C6 3556   4.148   4.269   4.766 -0.2765 -0.0129  0.4673
   72DPPC    O7 3557   4.083   4.146   4.799 -0.0429 -0.1397  0.4603
   72DPPC    P8 3558   4.196   4.054   4.867  0.1437 -0.0663  0.2502
   72DPPC    O9 3559   4.283   4.139   4.952  0.1229  0.0249  0.1816
   72DPPC   O10 3560   4.127   3.931   4.912  0.5472 -0.5127 -0.3367
   72DPPC   O11 3561   4.282   4.009   4.739 -0.3324 -0.0371 -0.0815
   72DPPC   C12 3562   4.218   3.907   4.661  0.4616 -0.4185 -0.2513
   72DPPC   C13 3563   4.315   3.799   4.615  0.3522 -0.6990  0.1690
   72DPPC   O14 3564   4.421   3.854   4.535 -0.2439  0.7412  0.3491
   72DPPC   C15 3565   4.541   3.800   4.570 -0.5002  0.0022  0.0924
   72DPPC   O16 3566   4.567   3.752   4.680 -0.2083  0.6021  0.2869
   72DPPC   C17 3567   4.654   3.785   4.468 -0.4810  0.2836  0.0725
   72DPPC   C18 3568   4.616   3.837   4.329 -0.4500 -0.3480 -0.1762
   72DPPC   C19 3569   4.730   3.811   4.230  0.2265  0.3186  0.4131
   72DPPC   C20 3570   4.701   3.868   4.091 -0.0718 -0.7036  0.0426
   72DPPC   C21 3571   4.778   3.791   3.984 -0.0174 -0.4924 -0.0723
   72DPPC   C22 3572   4.785   3.873   3.855 -0.1536 -0.2224  0.0915
   72DPPC   C23 3573   4.884   3.814   3.754 -0.4727  0.0907 -0.4039
   72DPPC   C24 3574   4.898   3.914   3.639 -0.4596  0.3669 -0.1649
   72DPPC   C25 3575   5.016   3.871   3.552 -0.3051 -0.8181  0.6067
   72DPPC   C26 3576   5.150   3.897   3.620 -0.0214  0.1048 -0.2832
   72DPPC   C27 3577   5.259   3.797   3.581  0.3378  0.2984  0.1962
   72DPPC   C28 3578   5.363   3.806   3.693  0.4259  0.2539  0.1183
   72DPPC   C29 3579   5.306   3.760   3.827  0.0842  0.3352  0.0027
   72DPPC   C30 3580   5.408   3.780   3.939 -0.0729  0.3355  0.1459
   72DPPC   C31 3581   5.337   3.730   4.064 -0.8109 -0.0982 -0.4420
   72DPPC   C32 3582   4.238   3.691   4.540  0.2598 -0.5340  0.0264
   72DPPC   O33 3583   4.150   3.743   4.440  0.4880  0.0882  0.1441
   72DPPC   C34 3584   4.110   3.647   4.352  0.8892  0.0477  0.0053
   72DPPC   O35 3585   4.114   3.528   4.382  0.2439  0.0662  0.1809
   72DPPC   C36 3586   4.038   3.687   4.223  0.0086  0.6224  0.6621
   72DPPC   C37 3587   4.152   3.691   4.120 -0.3590 -0.4119  0.2014
   72DPPC   C38 3588   4.114   3.759   3.988  0.2700  0.4110  0.4388
   72DPPC   C39 3589   4.224   3.790   3.887  0.3695 -0.0047  0.4185
   72DPPC   C40 3590   4.286   3.928   3.914 -0.1532  0.3811 -0.3178
   72DPPC   C41 3591   4.400   3.962   3.817  0.0976 -0.3018 -0.2701
   72DPPC   C42 3592   4.337   3.998   3.683 -0.4299 -0.0034  0.0538
   72DPPC   C43 3593   4.446   4.035   3.582 -0.0670  0.2848  0.5459
   72DPPC   C44 3594   4.389   4.099   3.454 -0.0840 -0.2307  0.2941
   72DPPC   C45 3595   4.506   4.121   3.358 -0.7994 -0.0031 -0.5286
   72DPPC   C46 3596   4.516   4.000   3.265  0.0742 -0.1441 -0.2597
   72DPPC   C47 3597   4.661   3.979   3.222  0.1799  0.1120 -0.0271
   72DPPC   C48 3598   4.652   3.847   3.145 -0.1588  0.3938 -0.4738
   72DPPC   C49 3599   4.794   3.799   3.115 -0.2163  0.5829 -1.0742
   72DPPC   C50 3600   4.782   3.651   3.076  0.3055  0.2050  0.1337
   73DPPC    C1 3601   3.016   1.072   4.799 -0.0260  0.2672 -0.2592
   73DPPC    C2 3602   2.805   1.016   4.844  0.0271 -0.2783 -0.1466
   73DPPC    C3 3603   2.842   1.189   4.677  0.3361  0.6832  0.4316
   73DPPC    N4 3604   2.883   1.135   4.807 -0.1386 -0.0324  0.2875
   73DPPC    C5 3605   2.865   1.228   4.919 -0.2950  0.3458 -0.0507
   73DPPC    C6 3606   2.967   1.340   4.947 -0.1391  0.1713  0.0838
   73DPPC    O7 3607   2.965   1.439   4.843 -0.4804  0.3534  0.2607
   73DPPC    P8 3608   3.057   1.564   4.884  0.0253  0.1169 -0.1381
   73DPPC    O9 3609   2.968   1.661   4.952 -0.1423 -0.0572 -0.1112
   73DPPC   O10 3610   3.184   1.531   4.953 -0.0486 -0.1435 -0.1289
   73DPPC   O11 3611   3.095   1.640   4.747  0.4882  0.3363  0.1063
   73DPPC   C12 3612   3.170   1.547   4.669 -0.2622 -0.3438  0.1703
   73DPPC   C13 3613   3.261   1.610   4.562  0.4090 -0.2528  0.7837
   73DPPC   O14 3614   3.310   1.509   4.472  0.0401  0.1624  0.1055
   73DPPC   C15 3615   3.403   1.413   4.496 -0.1800 -0.0510  0.1123
   73DPPC   O16 3616   3.429   1.385   4.613  0.3985 -0.2806 -0.0696
   73DPPC   C17 3617   3.453   1.320   4.384  0.2832 -0.1192  0.3745
   73DPPC   C18 3618   3.584   1.376   4.329 -0.2606  0.6625 -0.1430
   73DPPC   C19 3619   3.565   1.507   4.251 -0.0872  0.5033 -0.4573
   73DPPC   C20 3620   3.704   1.561   4.217  0.1869  0.0013 -0.1540
   73DPPC   C21 3621   3.684   1.663   4.105 -0.4661 -0.3781 -0.3857
   73DPPC   C22 3622   3.817   1.710   4.046 -0.3907 -0.1738 -0.0534
   73DPPC   C23 3623   3.780   1.809   3.934  0.1122  0.0487 -0.0226
   73DPPC   C24 3624   3.899   1.885   3.875  0.1025  0.2766  0.2503
   73DPPC   C25 3625   3.843   1.978   3.768  0.2412  0.4353  0.3149
   73DPPC   C26 3626   3.763   2.099   3.819 -1.1124 -0.2932 -0.0181
   73DPPC   C27 3627   3.744   2.194   3.701 -0.2996 -0.1677 -0.0548
   73DPPC   C28 3628   3.875   2.233   3.633 -0.1613  0.1057  0.3616
   73DPPC   C29 3629   3.879   2.290   3.491  0.0600 -0.1710  0.2551
   73DPPC   C30 3630   3.833   2.207   3.371  0.5700  0.1153 -0.1448
   73DPPC   C31 3631   3.817   2.298   3.249 -0.0736  0.1097 -0.0669
   73DPPC   C32 3632   3.356   1.709   4.629  0.2064  0.4562  0.0372
   73DPPC   O33 3633   3.413   1.809   4.545  0.3210  0.3639  0.0043
   73DPPC   C34 3634   3.464   1.909   4.622 -0.0269  0.4778  0.0892
   73DPPC   O35 3635   3.458   1.915   4.745  0.1302  0.0317  0.1185
   73DPPC   C36 3636   3.533   2.013   4.533  0.2951  0.1318 -0.0696
   73DPPC   C37 3637   3.490   2.157   4.564 -0.0708  0.0270 -0.0802
   73DPPC   C38 3638   3.579   2.243   4.475  0.0167  0.1117  0.0878
   73DPPC   C39 3639   3.548   2.392   4.490 -0.3775  0.0695 -0.2658
   73DPPC   C40 3640   3.632   2.498   4.418 -0.2352  0.2629  0.1770
   73DPPC   C41 3641   3.580   2.531   4.278 -0.2573 -0.5336 -0.0057
   73DPPC   C42 3642   3.666   2.641   4.216 -0.2061 -0.5757 -0.0085
   73DPPC   C43 3643   3.640   2.651   4.066  0.2346  0.4825 -0.0213
   73DPPC   C44 3644   3.507   2.720   4.038 -0.1275 -0.3981 -0.5047
   73DPPC   C45 3645   3.521   2.811   3.916 -0.1082  0.0439 -0.1768
   73DPPC   C46 3646   3.561   2.732   3.791  0.2044  0.0849 -0.1032
   73DPPC   C47 3647   3.469   2.616   3.750  0.4768 -0.0684 -0.2832
   73DPPC   C48 3648   3.508   2.538   3.625  0.4081  0.1816 -0.4619
   73DPPC   C49 3649   3.411   2.420   3.609  0.1410  0.3008  0.2476
   73DPPC   C50 3650   3.434   2.378   3.464  0.0915 -0.6263  0.5008
   74DPPC    C1 3651   3.256   2.533   5.191  0.6326 -0.0645  0.9103
   74DPPC    C2 3652   3.218   2.297   5.170  0.0884  0.1566 -0.2815
   74DPPC    C3 3653   3.434   2.371   5.171  0.2139  0.4478 -0.5576
   74DPPC    N4 3654   3.300   2.410   5.123  0.0113  0.2719 -0.1375
   74DPPC    C5 3655   3.293   2.416   4.976  0.2045 -0.6318 -0.1847
   74DPPC    C6 3656   3.157   2.456   4.919  0.1307  0.1296  0.5102
   74DPPC    O7 3657   3.054   2.357   4.925  0.2199  0.0055  0.0286
   74DPPC    P8 3658   2.913   2.424   4.888  0.3226  0.0156 -0.3485
   74DPPC    O9 3659   2.828   2.317   4.946  0.4784 -0.0890 -0.3128
   74DPPC   O10 3660   2.911   2.561   4.942 -0.1215 -0.0838 -0.1039
   74DPPC   O11 3661   2.904   2.407   4.728  0.1639 -0.2463 -0.3124
   74DPPC   C12 3662   2.896   2.274   4.675  0.3015 -0.3554 -0.0624
   74DPPC   C13 3663   2.874   2.265   4.524  0.1110 -0.1245 -0.0506
   74DPPC   O14 3664   3.000   2.262   4.456  0.2501 -0.2511  0.2103
   74DPPC   C15 3665   3.066   2.146   4.431 -0.1517 -0.3852 -0.2456
   74DPPC   O16 3666   3.038   2.049   4.502 -0.4896 -0.2058 -0.1321
   74DPPC   C17 3667   3.195   2.152   4.348 -0.1490  0.2421 -0.1985
   74DPPC   C18 3668   3.175   2.108   4.203  0.3659 -0.8324  0.0483
   74DPPC   C19 3669   3.315   2.117   4.142  0.1157  0.2694 -0.3929
   74DPPC   C20 3670   3.342   2.064   4.001  0.0857 -0.5387 -0.1022
   74DPPC   C21 3671   3.253   2.130   3.895 -0.2827  0.1637  0.6377
   74DPPC   C22 3672   3.284   2.061   3.762  0.1858  0.3428  0.6537
   74DPPC   C23 3673   3.205   2.106   3.639  0.1209  0.1883  0.6392
   74DPPC   C24 3674   3.055   2.078   3.657 -0.0214  0.4704 -0.0946
   74DPPC   C25 3675   2.970   2.092   3.530 -0.0658  0.6895 -0.0413
   74DPPC   C26 3676   3.018   1.996   3.421 -0.5472 -0.0661  0.4031
   74DPPC   C27 3677   2.920   2.002   3.304 -0.3989 -0.1254  0.2755
   74DPPC   C28 3678   2.977   1.906   3.199 -0.3769 -0.2464  0.3969
   74DPPC   C29 3679   3.112   1.947   3.141 -0.4881  0.0181  0.3238
   74DPPC   C30 3680   3.178   1.834   3.062  0.1286  0.3601  0.3400
   74DPPC   C31 3681   3.301   1.897   2.997  0.1723 -0.1418 -0.0741
   74DPPC   C32 3682   2.778   2.378   4.486 -0.1627 -0.3060  0.0976
   74DPPC   O33 3683   2.681   2.342   4.388 -0.3797  0.0618  0.1776
   74DPPC   C34 3684   2.621   2.455   4.341 -0.2566  0.1165  0.1532
   74DPPC   O35 3685   2.654   2.568   4.376  0.2495  0.0251 -0.0152
   74DPPC   C36 3686   2.535   2.422   4.219  0.2154 -0.3301 -0.0646
   74DPPC   C37 3687   2.404   2.499   4.200  0.2977 -0.3600 -0.7818
   74DPPC   C38 3688   2.288   2.465   4.293  1.0326 -0.1444  0.2227
   74DPPC   C39 3689   2.243   2.322   4.261 -0.2433  0.2983  0.0102
   74DPPC   C40 3690   2.192   2.312   4.117 -0.5350 -0.0163  0.1347
   74DPPC   C41 3691   2.205   2.168   4.067 -0.6800 -0.0397  0.1643
   74DPPC   C42 3692   2.138   2.143   3.932 -0.2589 -0.5278  0.0398
   74DPPC   C43 3693   2.206   2.228   3.825 -0.7547 -0.0769  0.0790
   74DPPC   C44 3694   2.158   2.184   3.686 -0.6399  0.2416 -0.0619
   74DPPC   C45 3695   2.171   2.305   3.592 -0.4436  0.5539  0.3614
   74DPPC   C46 3696   2.322   2.326   3.590 -0.3033 -0.4036  0.2705
   74DPPC   C47 3697   2.361   2.428   3.482  0.5659 -0.3696  0.6042
   74DPPC   C48 3698   2.340   2.573   3.524 -0.0144 -0.3134  0.1381
   74DPPC   C49 3699   2.411   2.596   3.658 -0.4734 -0.9281  0.4903
   74DPPC   C50 3700   2.378   2.736   3.710 -0.8803 -0.5816 -0.6607
   75DPPC    C1 3701   2.837   3.479   5.083  0.1904  0.2683  0.1857
   75DPPC    C2 3702   3.020   3.400   4.980  0.5772 -0.0281  0.1680
   75DPPC    C3 3703   2.821   3.258   4.991  0.2655  0.3814 -0.7503
   75DPPC    N4 3704   2.908   3.352   5.063  0.0526  0.2734 -0.3488
   75DPPC    C5 3705   2.955   3.309   5.196 -0.2657 -0.5419 -0.4953
   75DPPC    C6 3706   3.054   3.194   5.211  0.1398 -0.2056 -0.5744
   75DPPC    O7 3707   3.002   3.063   5.187  0.3102 -0.3975  0.0683
   75DPPC    P8 3708   3.126   2.967   5.152  0.2403 -0.3440 -0.3364
   75DPPC    O9 3709   3.256   3.036   5.167  0.0455  0.0055 -0.2479
   75DPPC   O10 3710   3.115   2.827   5.200 -0.4546 -0.1962 -0.0450
   75DPPC   O11 3711   3.105   2.970   4.993 -0.4309 -0.4264 -0.2520
   75DPPC   C12 3712   3.124   2.842   4.930 -0.0907 -0.2984 -0.4117
   75DPPC   C13 3713   3.058   2.859   4.792 -0.0825  0.3542 -0.3404
   75DPPC   O14 3714   3.073   2.745   4.706  0.0519 -0.0131  0.1620
   75DPPC   C15 3715   3.193   2.706   4.655 -0.0487  0.4919 -0.4765
   75DPPC   O16 3716   3.301   2.731   4.709 -0.2399 -0.1431  0.2158
   75DPPC   C17 3717   3.191   2.606   4.539  0.2800 -0.6371  0.4755
   75DPPC   C18 3718   3.154   2.665   4.403  0.1135 -0.5489  0.5590
   75DPPC   C19 3719   3.120   2.555   4.303  0.5806  0.0629 -0.2755
   75DPPC   C20 3720   3.049   2.607   4.177  0.3579  0.0185 -0.1666
   75DPPC   C21 3721   2.981   2.478   4.130  0.2674 -0.2475  0.6713
   75DPPC   C22 3722   2.944   2.488   3.982  0.2023  0.4265  0.7282
   75DPPC   C23 3723   3.063   2.519   3.892 -0.0594 -0.0146  0.2274
   75DPPC   C24 3724   3.016   2.554   3.750  0.0582  0.1409  0.2271
   75DPPC   C25 3725   2.918   2.672   3.754 -0.2118 -0.0811  0.1563
   75DPPC   C26 3726   2.864   2.701   3.614 -0.2665  0.0473  0.2042
   75DPPC   C27 3727   2.787   2.833   3.616 -0.5109 -0.0910 -0.1198
   75DPPC   C28 3728   2.724   2.844   3.477 -0.3088 -0.1135 -0.2126
   75DPPC   C29 3729   2.647   2.977   3.480  0.2375  0.2152 -0.4848
   75DPPC   C30 3730   2.609   3.007   3.335 -0.1438  0.1655 -0.3967
   75DPPC   C31 3731   2.745   3.023   3.267 -0.2838 -0.5216 -0.8482
   75DPPC   C32 3732   3.102   2.999   4.749  0.0099  0.5946  0.5125
   75DPPC   O33 3733   3.001   3.049   4.661  0.1129 -0.0946 -0.0005
   75DPPC   C34 3734   3.014   3.176   4.614 -0.0698 -0.1606 -0.2324
   75DPPC   O35 3735   3.113   3.235   4.658  0.0128 -0.3216 -0.2017
   75DPPC   C36 3736   2.908   3.259   4.542 -0.2359  0.1060  0.3169
   75DPPC   C37 3737   2.918   3.244   4.390  0.4852  0.7415  0.2981
   75DPPC   C38 3738   2.818   3.334   4.318  0.2337  0.0466 -0.2349
   75DPPC   C39 3739   2.857   3.481   4.339 -0.2024  0.1628 -0.2362
   75DPPC   C40 3740   2.755   3.555   4.252 -0.2590 -0.0127 -0.3198
   75DPPC   C41 3741   2.788   3.513   4.108  0.5071 -0.8706  0.0947
   75DPPC   C42 3742   2.693   3.575   4.006  0.7522 -0.6237  0.0153
   75DPPC   C43 3743   2.726   3.580   3.856  0.1436  0.1183 -0.1015
   75DPPC   C44 3744   2.613   3.651   3.781  0.1458  0.2582  0.0284
   75DPPC   C45 3745   2.645   3.643   3.632  0.0448 -0.1700  0.0299
   75DPPC   C46 3746   2.651   3.785   3.577  0.1261 -0.1200  0.1687
   75DPPC   C47 3747   2.700   3.780   3.432 -0.1287 -0.6128  0.0987
   75DPPC   C48 3748   2.835   3.708   3.426  0.0964 -0.1703 -0.2382
   75DPPC   C49 3749   2.882   3.647   3.294  0.2905 -0.8028  0.1162
   75DPPC   C50 3750   3.013   3.573   3.321  0.2906 -0.7139  0.3630
   76DPPC    C1 3751   3.499   3.079   5.426 -0.1149  0.0300  0.3032
   76DPPC    C2 3752   3.617   2.974   5.614 -0.0325  0.0192  0.0437
   76DPPC    C3 3753   3.466   3.135   5.665 -0.1282 -0.5744  0.3386
   76DPPC    N4 3754   3.560   3.098   5.558  0.0253  0.1279  0.2248
   76DPPC    C5 3755   3.650   3.214   5.563 -0.1418  0.3087 -0.7235
   76DPPC    C6 3756   3.785   3.208   5.491 -0.1201  0.0727 -0.6649
   76DPPC    O7 3757   3.785   3.207   5.348 -0.1755  0.1250 -0.6654
   76DPPC    P8 3758   3.894   3.109   5.282  0.1717  0.1329 -0.1114
   76DPPC    O9 3759   4.024   3.157   5.333 -0.0721  0.3770  0.2803
   76DPPC   O10 3760   3.829   2.982   5.320  0.0524  0.1154 -0.3759
   76DPPC   O11 3761   3.858   3.165   5.136 -0.1213 -0.3521 -0.2283
   76DPPC   C12 3762   3.758   3.085   5.072 -0.3384 -0.3114  0.0578
   76DPPC   C13 3763   3.742   3.108   4.922  0.3120  0.3484  0.0834
   76DPPC   O14 3764   3.832   3.027   4.844  0.3851  0.0388  0.4882
   76DPPC   C15 3765   3.785   2.900   4.829  0.2048  0.2529 -0.9378
   76DPPC   O16 3766   3.669   2.871   4.858  0.1986  0.5053 -0.7055
   76DPPC   C17 3767   3.885   2.800   4.769  0.2723 -0.0974 -0.2578
   76DPPC   C18 3768   3.921   2.845   4.628 -0.0596  0.3301 -0.2107
   76DPPC   C19 3769   4.029   2.756   4.565  0.1083  0.2840  0.1412
   76DPPC   C20 3770   4.089   2.820   4.439  0.1461 -0.7562 -0.3752
   76DPPC   C21 3771   3.978   2.840   4.336 -0.4210  0.6414  0.4798
   76DPPC   C22 3772   4.023   2.933   4.223 -0.0464 -0.1218 -0.0073
   76DPPC   C23 3773   3.902   3.015   4.176 -0.0269  0.0173  0.1843
   76DPPC   C24 3774   3.931   3.123   4.073  0.5590  0.0159  0.3447
   76DPPC   C25 3775   3.809   3.203   4.026  0.5520 -0.2870 -0.1567
   76DPPC   C26 3776   3.844   3.311   3.923 -0.6153  0.1912 -0.0642
   76DPPC   C27 3777   3.714   3.360   3.858 -0.5512  0.3765 -0.0530
   76DPPC   C28 3778   3.752   3.482   3.775  0.3166  0.2338  0.1222
   76DPPC   C29 3779   3.862   3.454   3.673 -0.1988  0.4497 -0.4983
   76DPPC   C30 3780   3.794   3.367   3.567 -0.3734 -0.1780  0.1168
   76DPPC   C31 3781   3.905   3.325   3.470 -0.3948  0.0675 -0.0160
   76DPPC   C32 3782   3.748   3.257   4.890  0.5022  0.3490  0.1182
   76DPPC   O33 3783   3.621   3.322   4.887  0.3301  0.0294  0.4667
   76DPPC   C34 3784   3.618   3.458   4.883 -0.2615  0.0104  0.0850
   76DPPC   O35 3785   3.723   3.521   4.893 -0.0675 -0.2530 -0.2801
   76DPPC   C36 3786   3.478   3.520   4.893 -0.0551  0.4688  0.1382
   76DPPC   C37 3787   3.433   3.536   4.748  0.1098  0.5123  0.0911
   76DPPC   C38 3788   3.282   3.554   4.734  0.0413 -0.1336 -0.0369
   76DPPC   C39 3789   3.245   3.586   4.588 -0.2545 -0.1913  0.0256
   76DPPC   C40 3790   3.301   3.721   4.544 -0.3082 -0.1411  0.1102
   76DPPC   C41 3791   3.248   3.790   4.419  0.1636 -0.4907 -0.2869
   76DPPC   C42 3792   3.290   3.699   4.304  0.1035 -0.5121 -0.2922
   76DPPC   C43 3793   3.242   3.772   4.178  0.4311 -0.0324 -0.1405
   76DPPC   C44 3794   3.268   3.697   4.048 -0.0606  0.1249 -0.3317
   76DPPC   C45 3795   3.416   3.704   4.010  0.0754 -0.4340  0.0937
   76DPPC   C46 3796   3.479   3.843   3.995  0.2311 -0.5325 -0.1676
   76DPPC   C47 3797   3.623   3.844   3.946  0.2224  0.0752 -0.1877
   76DPPC   C48 3798   3.647   3.903   3.807 -0.0671  0.7347  0.0414
   76DPPC   C49 3799   3.795   3.904   3.768 -0.0979 -0.1234 -0.1095
   76DPPC   C50 3800   3.831   3.972   3.636 -0.1822  0.5913  0.2298
   77DPPC    C1 3801   2.512   1.743   4.756  0.5403 -0.2539 -0.6579
   77DPPC    C2 3802   2.707   1.603   4.704  0.3183 -0.5202 -0.6213
   77DPPC    C3 3803   2.737   1.810   4.803 -0.0037 -0.0756  0.0137
   77DPPC    N4 3804   2.644   1.696   4.800  0.4586 -0.4364 -0.6093
   77DPPC    C5 3805   2.646   1.648   4.939 -1.0161 -0.3716 -0.5474
   77DPPC    C6 3806   2.567   1.525   4.984 -0.7659 -0.1911  0.3901
   77DPPC    O7 3807   2.584   1.410   4.902  0.3027  0.6303 -0.5634
   77DPPC    P8 3808   2.455   1.314   4.904  0.6216  0.2178  0.2660
   77DPPC    O9 3809   2.486   1.179   4.851  0.0491  0.3451 -0.3990
   77DPPC   O10 3810   2.369   1.329   5.024  0.2898  0.0158  0.0566
   77DPPC   O11 3811   2.386   1.403   4.790 -0.3451 -0.6767  0.1373
   77DPPC   C12 3812   2.429   1.339   4.670  0.0048  0.0364 -0.1235
   77DPPC   C13 3813   2.348   1.386   4.549 -0.3239 -0.3963 -0.0732
   77DPPC   O14 3814   2.218   1.325   4.539 -0.5283  0.0034  0.1361
   77DPPC   C15 3815   2.196   1.192   4.523  0.0333 -0.0699 -0.0550
   77DPPC   O16 3816   2.284   1.109   4.547 -0.3060 -0.4378 -0.0707
   77DPPC   C17 3817   2.052   1.142   4.520 -0.0629  0.2089 -0.1007
   77DPPC   C18 3818   2.030   1.044   4.404  0.0393  0.3276 -0.2209
   77DPPC   C19 3819   1.984   1.111   4.274 -0.1397 -0.3503 -0.5116
   77DPPC   C20 3820   1.851   1.184   4.295  0.2118  0.2045 -0.1724
   77DPPC   C21 3821   1.812   1.274   4.178  0.4460  0.1847 -0.2653
   77DPPC   C22 3822   1.676   1.343   4.187  0.0553 -0.5977 -0.1316
   77DPPC   C23 3823   1.632   1.409   4.056 -0.8960 -0.8380  0.0587
   77DPPC   C24 3824   1.495   1.474   4.081 -0.3866  0.1642  0.2909
   77DPPC   C25 3825   1.446   1.538   3.951  0.0643 -0.2800 -0.1036
   77DPPC   C26 3826   1.308   1.601   3.970  0.2076 -0.1298  0.4572
   77DPPC   C27 3827   1.264   1.688   3.852 -0.2037 -0.2185  0.5435
   77DPPC   C28 3828   1.124   1.739   3.889 -0.3830 -0.2297 -0.1049
   77DPPC   C29 3829   1.048   1.785   3.765 -0.4528  0.0448  0.0393
   77DPPC   C30 3830   1.095   1.927   3.733  0.0387 -0.0831  0.1880
   77DPPC   C31 3831   0.995   2.022   3.668 -0.2736 -0.5472 -0.0098
   77DPPC   C32 3832   2.440   1.353   4.431  0.0986 -0.1501  0.1883
   77DPPC   O33 3833   2.577   1.386   4.460 -0.1182  0.5241  0.4552
   77DPPC   C34 3834   2.650   1.391   4.345 -0.6569 -0.3231  0.0635
   77DPPC   O35 3835   2.599   1.353   4.240 -0.1302 -0.2376 -0.2232
   77DPPC   C36 3836   2.798   1.429   4.352 -0.4737 -0.9166 -0.5303
   77DPPC   C37 3837   2.845   1.525   4.243 -0.1087  0.3135  0.6896
   77DPPC   C38 3838   2.990   1.566   4.271  0.1346  0.1899 -0.3649
   77DPPC   C39 3839   3.055   1.646   4.157  0.1537  0.6713 -0.0209
   77DPPC   C40 3840   3.205   1.666   4.175  0.2313 -0.0158  0.1519
   77DPPC   C41 3841   3.275   1.714   4.047  0.0149 -0.2451 -0.0523
   77DPPC   C42 3842   3.313   1.592   3.964  0.2077  0.0195 -0.3542
   77DPPC   C43 3843   3.377   1.621   3.828 -0.1269 -0.1350 -0.5469
   77DPPC   C44 3844   3.420   1.489   3.765  0.1643 -0.2493 -0.1054
   77DPPC   C45 3845   3.472   1.523   3.625 -0.1289  0.8200  0.0380
   77DPPC   C46 3846   3.586   1.624   3.628  0.2662  0.3793 -0.0401
   77DPPC   C47 3847   3.616   1.671   3.485 -0.4094 -0.2959 -0.4083
   77DPPC   C48 3848   3.499   1.755   3.434 -0.3334  0.1163  0.0899
   77DPPC   C49 3849   3.545   1.851   3.325  0.2284 -0.3308 -0.0715
   77DPPC   C50 3850   3.590   1.803   3.187  0.0744  0.4049 -0.3837
   78DPPC    C1 3851   2.752   2.879   4.533 -0.2256  0.0083 -0.6281
   78DPPC    C2 3852   2.529   2.797   4.543  0.3938 -0.0508 -0.2375
   78DPPC    C3 3853   2.632   2.919   4.722  0.0585  0.1653 -0.1112
   78DPPC    N4 3854   2.652   2.815   4.620  0.2340  0.1082 -0.0208
   78DPPC    C5 3855   2.709   2.688   4.666 -0.6230 -0.4554 -0.4827
   78DPPC    C6 3856   2.635   2.602   4.769 -0.1231 -0.1023  0.1863
   78DPPC    O7 3857   2.523   2.537   4.706  0.2128 -0.1080 -0.4159
   78DPPC    P8 3858   2.453   2.441   4.814 -0.4286  0.2498 -0.5083
   78DPPC    O9 3859   2.514   2.461   4.947 -0.8442 -0.4484 -0.2078
   78DPPC   O10 3860   2.311   2.403   4.794 -0.5633  0.7437 -0.4887
   78DPPC   O11 3861   2.524   2.304   4.769 -0.5649 -0.1271  0.3931
   78DPPC   C12 3862   2.476   2.274   4.637  0.4178 -0.4538  0.0939
   78DPPC   C13 3863   2.482   2.125   4.604  0.3832 -0.5045  0.3138
   78DPPC   O14 3864   2.521   2.102   4.468  0.0342 -0.0996  0.1458
   78DPPC   C15 3865   2.576   1.987   4.423  0.5305  0.1445  0.1262
   78DPPC   O16 3866   2.608   1.895   4.498  0.0463 -0.1182  0.0179
   78DPPC   C17 3867   2.612   1.984   4.274  0.1383 -0.3314  0.0392
   78DPPC   C18 3868   2.756   2.024   4.241 -0.0294  0.7393  0.5682
   78DPPC   C19 3869   2.766   2.038   4.089  0.1526  0.2579  0.5347
   78DPPC   C20 3870   2.651   2.129   4.046 -0.0706 -0.4124 -0.3138
   78DPPC   C21 3871   2.670   2.190   3.906 -0.0808 -0.0030 -0.1377
   78DPPC   C22 3872   2.693   2.079   3.803 -0.3977 -0.3944  0.2062
   78DPPC   C23 3873   2.553   2.030   3.766 -0.4543 -0.1924  0.1522
   78DPPC   C24 3874   2.581   1.970   3.628 -0.3369  0.2450 -0.0167
   78DPPC   C25 3875   2.562   2.080   3.523 -0.0861  0.0492 -0.2673
   78DPPC   C26 3876   2.558   2.011   3.387  0.1712 -0.2314 -0.1340
   78DPPC   C27 3877   2.551   2.109   3.271  0.1124  0.1193  0.1649
   78DPPC   C28 3878   2.589   2.042   3.139 -0.3966 -0.1248  0.1411
   78DPPC   C29 3879   2.602   2.139   3.022 -0.0506  0.1013  0.3669
   78DPPC   C30 3880   2.643   2.074   2.890 -0.6144  0.1420  0.1709
   78DPPC   C31 3881   2.783   2.012   2.893 -0.4638  0.4462 -0.3548
   78DPPC   C32 3882   2.336   2.085   4.625  0.3089 -0.5247 -0.2276
   78DPPC   O33 3883   2.305   1.946   4.618  0.4319 -0.5955  0.5190
   78DPPC   C34 3884   2.189   1.938   4.546  0.0978 -0.0533  0.9889
   78DPPC   O35 3885   2.114   2.036   4.542  0.1000 -0.0840  0.1134
   78DPPC   C36 3886   2.148   1.809   4.476 -0.6318  0.7214 -0.0391
   78DPPC   C37 3887   2.199   1.795   4.332 -0.2467  0.2253  0.1427
   78DPPC   C38 3888   2.172   1.653   4.283 -0.3891  0.3670 -0.1917
   78DPPC   C39 3889   2.234   1.632   4.145  0.1573 -0.1607  0.1288
   78DPPC   C40 3890   2.384   1.658   4.162  0.2000 -0.0290 -0.4344
   78DPPC   C41 3891   2.442   1.677   4.021  0.1596 -0.8044 -0.5611
   78DPPC   C42 3892   2.594   1.680   4.042  0.0260  0.0703  0.3576
   78DPPC   C43 3893   2.681   1.680   3.917  0.0018  0.5718  0.3373
   78DPPC   C44 3894   2.643   1.556   3.835 -0.0806  0.6706  0.2252
   78DPPC   C45 3895   2.718   1.534   3.703 -0.2758  0.0236  0.2168
   78DPPC   C46 3896   2.867   1.521   3.735 -0.2514  1.2467  0.6717
   78DPPC   C47 3897   2.959   1.488   3.618  0.3251  1.1134  1.1576
   78DPPC   C48 3898   2.967   1.601   3.515 -0.3756 -0.2445 -0.4480
   78DPPC   C49 3899   3.104   1.623   3.450 -0.1729  0.1335  0.0880
   78DPPC   C50 3900   3.109   1.538   3.322 -0.4047  0.7695 -0.3453
   79DPPC    C1 3901   2.186   2.763   5.312  0.0048  0.4467  0.6824
   79DPPC    C2 3902   2.393   2.769   5.405 -0.0689 -0.1095  0.6545
   79DPPC    C3 3903   2.315   2.563   5.326  0.3414  0.3089 -0.2744
   79DPPC    N4 3904   2.320   2.706   5.293 -0.0392  0.4613  0.3115
   79DPPC    C5 3905   2.365   2.723   5.154  0.2609  0.0339  0.3551
   79DPPC    C6 3906   2.428   2.852   5.103 -0.5498  0.1557 -0.3477
   79DPPC    O7 3907   2.336   2.961   5.114 -0.3931  0.3169 -0.6051
   79DPPC    P8 3908   2.409   3.104   5.103  0.1041  0.1144 -0.0024
   79DPPC    O9 3909   2.334   3.218   5.161 -0.6200 -0.3106 -0.0971
   79DPPC   O10 3910   2.556   3.094   5.117  0.1559  0.9538  0.1314
   79DPPC   O11 3911   2.403   3.104   4.942 -0.3575  0.4044  0.0106
   79DPPC   C12 3912   2.302   3.196   4.903 -0.9090 -0.2567 -0.1512
   79DPPC   C13 3913   2.302   3.222   4.752  0.0174 -0.2119 -0.1496
   79DPPC   O14 3914   2.198   3.154   4.681 -0.2556 -0.2341  0.2636
   79DPPC   C15 3915   2.180   3.019   4.681 -0.0085 -0.2680  0.2019
   79DPPC   O16 3916   2.282   2.955   4.704  0.2766 -0.0306 -0.3808
   79DPPC   C17 3917   2.052   2.965   4.617  0.2710 -0.4212 -0.2310
   79DPPC   C18 3918   2.076   2.855   4.514 -0.3669 -0.2831 -0.5349
   79DPPC   C19 3919   2.128   2.902   4.378 -0.8420  0.2220 -0.5455
   79DPPC   C20 3920   2.136   2.793   4.270 -0.2771 -0.1072 -0.1762
   79DPPC   C21 3921   2.214   2.827   4.143 -0.3385  0.2935 -0.1083
   79DPPC   C22 3922   2.348   2.887   4.183 -0.6180  0.8062  0.0679
   79DPPC   C23 3923   2.441   2.905   4.063 -0.1194 -0.5074  0.2392
   79DPPC   C24 3924   2.584   2.940   4.104 -0.0611 -0.2508 -0.1783
   79DPPC   C25 3925   2.693   2.948   3.996 -0.2476  0.2861 -0.3285
   79DPPC   C26 3926   2.834   2.961   4.053 -0.2316 -0.0811 -0.2805
   79DPPC   C27 3927   2.936   3.014   3.952  0.0333 -0.1883 -0.0700
   79DPPC   C28 3928   2.914   3.156   3.900  0.1510 -0.3201 -0.4867
   79DPPC   C29 3929   3.017   3.205   3.798  0.1522 -0.1224 -0.3922
   79DPPC   C30 3930   2.982   3.154   3.658  0.1428 -0.1877 -0.3664
   79DPPC   C31 3931   3.084   3.205   3.556  0.4388 -0.1707 -0.0627
   79DPPC   C32 3932   2.446   3.222   4.702  0.1146 -0.5477  0.1275
   79DPPC   O33 3933   2.472   3.270   4.570  0.3483  0.0670  0.3948
   79DPPC   C34 3934   2.425   3.206   4.459 -0.6254  0.5588  0.5081
   79DPPC   O35 3935   2.442   3.085   4.465 -0.2182  0.6269  0.7606
   79DPPC   C36 3936   2.432   3.281   4.326 -0.5840 -0.2476  0.0488
   79DPPC   C37 3937   2.293   3.315   4.270 -0.3910 -0.0353 -0.3083
   79DPPC   C38 3938   2.315   3.373   4.130  0.2060  0.7266  0.0929
   79DPPC   C39 3939   2.397   3.270   4.053 -0.2785  0.5106 -0.1403
   79DPPC   C40 3940   2.410   3.290   3.902  0.0398  0.2079 -0.1560
   79DPPC   C41 3941   2.496   3.191   3.824 -0.1444  0.2557 -0.4219
   79DPPC   C42 3942   2.512   3.227   3.676  0.0687  1.0446 -0.2141
   79DPPC   C43 3943   2.372   3.240   3.616  0.1576  0.2938 -0.5954
   79DPPC   C44 3944   2.379   3.292   3.473  0.1594  0.1560 -0.6458
   79DPPC   C45 3945   2.240   3.309   3.413  0.0085 -0.0383 -0.3487
   79DPPC   C46 3946   2.234   3.380   3.278  0.1926 -0.0321 -0.3537
   79DPPC   C47 3947   2.086   3.383   3.237  0.0376  0.1248  0.2047
   79DPPC   C48 3948   2.083   3.428   3.090 -0.1866 -0.3684  0.0567
   79DPPC   C49 3949   2.103   3.579   3.076  0.2799 -0.4545 -0.2384
   79DPPC   C50 3950   2.118   3.622   2.930  0.3052 -0.3619 -0.2084
   80DPPC    C1 3951   2.542   4.079   5.450 -0.4798 -0.0241 -0.6607
   80DPPC    C2 3952   2.569   4.271   5.585 -0.2213  0.1415  0.0265
   80DPPC    C3 3953   2.655   4.271   5.359  0.7866  0.7567  0.8304
   80DPPC    N4 3954   2.633   4.190   5.481 -0.5690 -0.1355  0.0255
   80DPPC    C5 3955   2.761   4.140   5.534 -0.7539 -0.5159  0.1132
   80DPPC    C6 3956   2.839   4.022   5.477  0.1281  0.1400 -0.0661
   80DPPC    O7 3957   2.838   4.017   5.334 -0.0427  0.2086 -0.0677
   80DPPC    P8 3958   2.918   3.882   5.298  0.2561  0.3293  0.1388
   80DPPC    O9 3959   3.035   3.930   5.221  0.0256  0.0657 -0.3763
   80DPPC   O10 3960   2.921   3.792   5.415 -0.3630  0.0111 -0.0872
   80DPPC   O11 3961   2.823   3.815   5.188  0.4572  0.1114  0.0973
   80DPPC   C12 3962   2.874   3.862   5.063  0.2041 -0.5016 -0.2414
   80DPPC   C13 3963   2.767   3.845   4.955  0.0591  0.2151 -0.2128
   80DPPC   O14 3964   2.806   3.899   4.827 -0.0809 -0.1843 -0.4253
   80DPPC   C15 3965   2.911   3.836   4.768  0.3036  0.0800 -0.0326
   80DPPC   O16 3966   2.957   3.731   4.812  0.5454  0.2352  0.0870
   80DPPC   C17 3967   2.952   3.897   4.634  0.5939  0.0065  0.0221
   80DPPC   C18 3968   2.838   3.905   4.533 -0.0208 -0.1349  0.6972
   80DPPC   C19 3969   2.898   3.958   4.403 -0.6691 -0.0524  0.4246
   80DPPC   C20 3970   2.781   3.986   4.308 -0.3971  0.0536  0.1156
   80DPPC   C21 3971   2.821   4.031   4.168  0.3660 -0.1927  0.2471
   80DPPC   C22 3972   2.694   4.055   4.086  0.2163  0.4506  0.6661
   80DPPC   C23 3973   2.723   4.132   3.957  0.1573 -0.0672  0.3426
   80DPPC   C24 3974   2.826   4.043   3.885  0.6521  0.1650  0.7550
   80DPPC   C25 3975   2.872   4.098   3.750 -0.2486  0.4326  0.5467
   80DPPC   C26 3976   3.003   4.048   3.690 -0.5679  0.1516  0.0832
   80DPPC   C27 3977   3.046   4.111   3.557 -0.0078 -0.3854 -0.0011
   80DPPC   C28 3978   3.184   4.073   3.505  0.4696  0.2705  0.7516
   80DPPC   C29 3979   3.227   4.163   3.388  0.2777  0.0053  0.4739
   80DPPC   C30 3980   3.123   4.153   3.276 -0.1033  0.1960  0.8059
   80DPPC   C31 3981   3.208   4.223   3.170 -0.1727 -0.1783  0.5022
   80DPPC   C32 3982   2.652   3.920   5.024 -0.2497 -0.4400 -0.0113
   80DPPC   O33 3983   2.522   3.893   4.972 -0.1587 -0.3745 -0.2760
   80DPPC   C34 3984   2.417   3.941   5.044  0.0438 -0.1340 -0.1385
   80DPPC   O35 3985   2.442   4.012   5.141 -0.6915  0.0139 -0.0463
   80DPPC   C36 3986   2.272   3.913   5.004 -0.2004 -0.0790  0.6920
   80DPPC   C37 3987   2.282   3.891   4.853  0.3643  0.0310  0.7123
   80DPPC   C38 3988   2.148   3.880   4.779  0.7881 -0.1632 -0.0402
   80DPPC   C39 3989   2.162   3.883   4.627  0.4693  0.0426 -0.0654
   80DPPC   C40 3990   2.030   3.925   4.563  0.3344 -0.2700  0.0068
   80DPPC   C41 3991   2.036   3.937   4.410 -0.6202 -0.3611 -0.0451
   80DPPC   C42 3992   1.895   3.944   4.351 -0.5781  0.3781 -0.0628
   80DPPC   C43 3993   1.913   3.962   4.200  0.3849  0.1305  0.0194
   80DPPC   C44 3994   1.783   4.007   4.135  0.2005 -0.5743 -0.1003
   80DPPC   C45 3995   1.826   4.053   3.995  0.2744  0.1503  0.1554
   80DPPC   C46 3996   1.705   4.089   3.908  0.3725 -0.1249 -0.0978
   80DPPC   C47 3997   1.744   4.114   3.762 -0.5612 -0.2149 -0.3644
   80DPPC   C48 3998   1.616   4.163   3.694 -0.6501  0.1412  0.0560
   80DPPC   C49 3999   1.510   4.053   3.694 -0.2346 -0.2611 -0.0046
   80DPPC   C50 4000   1.406   4.088   3.587  0.3464  0.1450 -0.4368
   81DPPC    C1 4001   4.605   4.593   5.535  0.4505  0.0768  0.0571
   81DPPC    C2 4002   4.428   4.672   5.413 -0.2802 -0.2942 -0.2013
   81DPPC    C3 4003   4.597   4.535   5.311 -0.0860  0.4696 -0.8430
   81DPPC    N4 4004   4.573   4.648   5.402 -0.2607 -0.3003  0.0681
   81DPPC    C5 4005   4.644   4.775   5.383  0.1171 -0.4374  0.5483
   81DPPC    C6 4006   4.788   4.786   5.333 -0.2529  0.1350 -0.4159
   81DPPC    O7 4007   4.872   4.689   5.396 -0.4070  0.0475 -0.3452
   81DPPC    P8 4008   5.021   4.722   5.344 -0.2486 -0.0757  0.0311
   81DPPC    O9 4009   5.043   4.868   5.350  0.1540 -0.1431  0.2314
   81DPPC   O10 4010   5.109   4.614   5.397 -0.0394  0.2207  0.2926
   81DPPC   O11 4011   5.005   4.693   5.187 -0.1013 -0.3619  0.0685
   81DPPC   C12 4012   5.005   4.553   5.157  0.4785 -0.3580  0.0390
   81DPPC   C13 4013   4.990   4.515   5.010  0.5479  0.0485 -0.0746
   81DPPC   O14 4014   5.103   4.552   4.930  0.0588  0.4253 -0.6045
   81DPPC   C15 4015   5.226   4.493   4.931 -0.0894  0.0954  0.7177
   81DPPC   O16 4016   5.246   4.395   5.001  0.2490 -0.4743 -0.1645
   81DPPC   C17 4017   5.330   4.554   4.836 -0.2770 -0.5267  0.1082
   81DPPC   C18 4018   5.279   4.586   4.695  0.0067  0.3941  0.2137
   81DPPC   C19 4019   5.383   4.637   4.595  0.0727 -0.2528 -0.0482
   81DPPC   C20 4020   5.309   4.675   4.467  0.4315  0.9225  0.0814
   81DPPC   C21 4021   5.418   4.727   4.372  0.6309  0.0203 -0.1980
   81DPPC   C22 4022   5.358   4.745   4.233  0.0676 -0.3858 -0.0125
   81DPPC   C23 4023   5.456   4.818   4.140 -0.0224 -0.2038  0.0351
   81DPPC   C24 4024   5.403   4.821   3.997  0.5457 -0.0890 -0.1740
   81DPPC   C25 4025   5.503   4.898   3.910  0.4041 -0.0913 -0.3406
   81DPPC   C26 4026   5.464   4.910   3.763  0.0441  0.2750 -0.2158
   81DPPC   C27 4027   5.582   4.950   3.675  0.0101  0.4646 -0.1750
   81DPPC   C28 4028   5.693   4.846   3.659 -0.3780  0.1126 -0.6022
   81DPPC   C29 4029   5.810   4.880   3.567 -0.3787  0.6655 -0.4016
   81DPPC   C30 4030   5.909   4.763   3.569 -0.6159  0.4630 -0.4761
   81DPPC   C31 4031   5.823   4.637   3.556  0.3786 -0.3023  0.1983
   81DPPC   C32 4032   4.868   4.595   4.962  0.5567  0.1623  0.0941
   81DPPC   O33 4033   4.826   4.559   4.830 -0.0674  0.2469  0.2686
   81DPPC   C34 4034   4.888   4.623   4.727 -0.7344  0.1541 -0.2000
   81DPPC   O35 4035   4.896   4.744   4.742 -0.3294  0.1989 -0.7426
   81DPPC   C36 4036   4.865   4.559   4.590 -0.3604  0.4997 -0.4273
   81DPPC   C37 4037   4.907   4.659   4.483  0.9732  0.4129 -0.0008
   81DPPC   C38 4038   4.896   4.600   4.343 -0.8309 -0.0715  0.3266
   81DPPC   C39 4039   4.919   4.705   4.234 -0.3488 -0.0224  0.4768
   81DPPC   C40 4040   4.953   4.627   4.106 -0.3930  0.4258  0.1873
   81DPPC   C41 4041   4.971   4.745   4.011 -0.2966  0.3171  0.0705
   81DPPC   C42 4042   4.987   4.701   3.866  0.4636  0.2702  0.1606
   81DPPC   C43 4043   5.006   4.824   3.777  0.4728  0.3058  0.2116
   81DPPC   C44 4044   5.015   4.783   3.629  0.1173 -0.1000  0.3000
   81DPPC   C45 4045   5.044   4.900   3.534  0.2050  0.0832  0.5511
   81DPPC   C46 4046   4.929   4.999   3.550 -0.3852 -0.5852  0.5271
   81DPPC   C47 4047   4.943   5.135   3.482  0.4067 -0.5035  0.8385
   81DPPC   C48 4048   4.815   5.217   3.499  0.4768 -0.2680  0.2631
   81DPPC   C49 4049   4.826   5.368   3.475  0.0842 -0.3597 -0.5409
   81DPPC   C50 4050   4.695   5.440   3.508  0.9408  0.8573  0.3156
   82DPPC    C1 4051   2.092   6.224   5.388 -0.3488  0.4534 -0.1649
   82DPPC    C2 4052   2.264   6.124   5.276  0.3873  0.1705  0.5562
   82DPPC    C3 4053   2.064   6.123   5.159 -0.0981  0.2829 -0.2803
   82DPPC    N4 4054   2.143   6.204   5.252  0.1106 -0.3670  0.1188
   82DPPC    C5 4055   2.187   6.331   5.191  0.2364 -0.0819  0.7933
   82DPPC    C6 4056   2.083   6.442   5.180  0.3670 -0.0473 -0.1865
   82DPPC    O7 4057   1.961   6.409   5.114  0.1161 -0.1358  0.3190
   82DPPC    P8 4058   1.892   6.526   5.028  0.5415  0.0828  0.2754
   82DPPC    O9 4059   1.756   6.492   5.075  0.6411  0.0080  0.5105
   82DPPC   O10 4060   1.969   6.645   5.069  0.4658  0.1986  0.0821
   82DPPC   O11 4061   1.945   6.463   4.889 -0.1264 -0.0075  0.0585
   82DPPC   C12 4062   1.853   6.355   4.871  0.1341 -0.3437  0.6927
   82DPPC   C13 4063   1.875   6.297   4.731  0.7602 -0.2921  0.7659
   82DPPC   O14 4064   1.824   6.166   4.703  0.0223  0.0017  0.7120
   82DPPC   C15 4065   1.839   6.054   4.779 -0.0583 -0.2814  0.3146
   82DPPC   O16 4066   1.890   6.073   4.889  0.0086 -0.5045  0.3209
   82DPPC   C17 4067   1.788   5.920   4.725 -0.0434 -0.2826  0.3044
   82DPPC   C18 4068   1.873   5.805   4.778  0.7191  0.0278 -0.2277
   82DPPC   C19 4069   1.825   5.666   4.735  0.0473  0.3565 -0.5609
   82DPPC   C20 4070   1.833   5.652   4.583 -0.1051 -0.0674 -0.5319
   82DPPC   C21 4071   1.816   5.504   4.549 -0.3602 -0.1719  0.0349
   82DPPC   C22 4072   1.822   5.499   4.396 -0.7029  0.0914  0.0120
   82DPPC   C23 4073   1.951   5.568   4.350 -1.0607  0.7551 -0.0175
   82DPPC   C24 4074   1.964   5.557   4.198 -0.0976  0.1670  0.0970
   82DPPC   C25 4075   2.080   5.644   4.150  0.0575  0.1300  0.4016
   82DPPC   C26 4076   2.087   5.633   3.997 -0.9181  0.0666  0.3506
   82DPPC   C27 4077   2.078   5.496   3.930  0.2332  0.2926 -0.2957
   82DPPC   C28 4078   2.023   5.525   3.790 -0.6568 -0.0840 -0.0318
   82DPPC   C29 4079   1.988   5.405   3.702 -0.2465 -0.3801  0.2081
   82DPPC   C30 4080   1.938   5.447   3.564  0.2724 -0.4497 -0.0037
   82DPPC   C31 4081   2.047   5.459   3.458  0.3943  0.2610  0.1910
   82DPPC   C32 4082   2.023   6.319   4.698  0.5676  0.2703  0.2532
   82DPPC   O33 4083   2.043   6.419   4.598  0.0165  0.4608  0.3325
   82DPPC   C34 4084   2.171   6.430   4.555  0.0131 -0.0251  0.1948
   82DPPC   O35 4085   2.256   6.363   4.615  0.4296  0.0299 -0.3296
   82DPPC   C36 4086   2.202   6.530   4.444  0.4549 -0.2683  0.0949
   82DPPC   C37 4087   2.142   6.497   4.307 -0.6238  0.5968  0.3418
   82DPPC   C38 4088   2.127   6.619   4.216  0.3914  0.2612 -0.2975
   82DPPC   C39 4089   2.072   6.585   4.077  0.1285  0.2517 -0.1917
   82DPPC   C40 4090   2.066   6.709   3.988  0.1815  0.4149  0.0296
   82DPPC   C41 4091   2.019   6.682   3.844 -0.2107 -0.1966  0.2702
   82DPPC   C42 4092   2.122   6.597   3.768 -0.2071  0.0825 -0.0361
   82DPPC   C43 4093   2.083   6.576   3.621 -0.4142 -0.1733  0.0544
   82DPPC   C44 4094   1.949   6.506   3.598 -0.7080  0.4142 -0.0320
   82DPPC   C45 4095   1.941   6.480   3.448  0.3357 -0.1461 -0.0022
   82DPPC   C46 4096   1.935   6.614   3.374  0.4207 -0.0311  0.1975
   82DPPC   C47 4097   1.796   6.634   3.313  0.4550 -0.2247  0.0537
   82DPPC   C48 4098   1.790   6.767   3.238  0.6843 -0.2689 -0.0419
   82DPPC   C49 4099   1.658   6.793   3.164  0.5166  0.0735  0.3750
   82DPPC   C50 4100   1.541   6.787   3.263  0.4688 -0.8625  0.2725
   83DPPC    C1 4101   4.818   6.011   5.204 -0.3115  0.0358  0.1486
   83DPPC    C2 4102   5.026   6.066   5.293  0.2921  0.1269 -0.4744
   83DPPC    C3 4103   5.029   6.013   5.068 -1.2209 -1.3876 -0.2516
   83DPPC    N4 4104   4.945   6.076   5.171 -0.2518 -0.2318 -0.1504
   83DPPC    C5 4105   4.913   6.215   5.135 -0.0658 -0.2580 -0.4205
   83DPPC    C6 4106   5.025   6.315   5.103 -0.5043  0.1579 -0.6721
   83DPPC    O7 4107   5.086   6.296   4.975  0.2853 -0.6073 -0.1895
   83DPPC    P8 4108   5.218   6.383   4.944  0.0904 -0.1549  0.2352
   83DPPC    O9 4109   5.206   6.518   5.002 -0.5077  0.1859 -0.6728
   83DPPC   O10 4110   5.328   6.284   4.948 -0.0645 -0.3381  0.0086
   83DPPC   O11 4111   5.183   6.403   4.788 -0.0710  0.6020  0.3645
   83DPPC   C12 4112   5.252   6.304   4.710 -0.0424  1.2214 -0.4035
   83DPPC   C13 4113   5.234   6.314   4.559 -0.0244 -0.4523 -0.5381
   83DPPC   O14 4114   5.328   6.407   4.502  0.0203 -0.2068 -0.0656
   83DPPC   C15 4115   5.451   6.353   4.482 -0.1189 -0.2192 -0.9053
   83DPPC   O16 4116   5.469   6.236   4.514 -0.4755 -0.0627 -0.1258
   83DPPC   C17 4117   5.558   6.457   4.447 -0.1978  0.1618 -0.0260
   83DPPC   C18 4118   5.548   6.507   4.303 -0.4695  0.0734 -0.0374
   83DPPC   C19 4119   5.571   6.388   4.210  0.3071  0.0528  0.1802
   83DPPC   C20 4120   5.568   6.419   4.061 -0.3495 -0.4199  0.0903
   83DPPC   C21 4121   5.427   6.457   4.016 -0.2411  0.2258  0.2881
   83DPPC   C22 4122   5.441   6.486   3.867  0.0921 -0.4074  0.1924
   83DPPC   C23 4123   5.299   6.505   3.813  0.4005  0.2113 -0.4271
   83DPPC   C24 4124   5.300   6.532   3.663 -0.4396 -0.3281 -0.5371
   83DPPC   C25 4125   5.360   6.672   3.645  0.0384 -0.5573 -0.7523
   83DPPC   C26 4126   5.352   6.699   3.495 -0.0637  0.3482 -0.5871
   83DPPC   C27 4127   5.204   6.695   3.457 -0.1790 -0.0012 -0.1077
   83DPPC   C28 4128   5.210   6.696   3.304  0.2008  0.5280 -0.0912
   83DPPC   C29 4129   5.246   6.833   3.245  0.6571  0.4628  0.0364
   83DPPC   C30 4130   5.201   6.828   3.099  0.3577 -0.1779  0.1481
   83DPPC   C31 4131   5.261   6.949   3.028 -0.2916  0.0420 -0.0298
   83DPPC   C32 4132   5.085   6.341   4.536 -0.0136  0.0091 -0.0862
   83DPPC   O33 4133   4.998   6.230   4.559 -0.3904  0.2774 -0.2010
   83DPPC   C34 4134   4.866   6.257   4.544 -0.3919  0.5243  0.2081
   83DPPC   O35 4135   4.821   6.350   4.477 -0.1459  0.3515 -0.2046
   83DPPC   C36 4136   4.786   6.144   4.610 -0.0250  0.3383  0.3388
   83DPPC   C37 4137   4.653   6.108   4.542  0.0352  0.3077  0.2375
   83DPPC   C38 4138   4.672   6.048   4.403  0.1112  0.2388  0.2773
   83DPPC   C39 4139   4.557   6.084   4.308 -0.2431 -0.8878  0.2535
   83DPPC   C40 4140   4.607   6.169   4.191 -0.3958 -0.5307  0.4459
   83DPPC   C41 4141   4.495   6.213   4.096  0.3093  0.8555  0.2273
   83DPPC   C42 4142   4.542   6.314   3.991  0.1517  0.1606 -0.5259
   83DPPC   C43 4143   4.422   6.371   3.916 -0.5328 -0.1307  0.3306
   83DPPC   C44 4144   4.299   6.280   3.899 -0.0340 -0.6429 -0.5905
   83DPPC   C45 4145   4.201   6.373   3.827 -0.4615 -0.0731  0.7003
   83DPPC   C46 4146   4.065   6.303   3.819 -0.3501 -0.2653  0.4854
   83DPPC   C47 4147   4.011   6.291   3.676  0.3089  0.5170  0.1574
   83DPPC   C48 4148   4.060   6.171   3.594  0.6372  0.4929  0.3836
   83DPPC   C49 4149   3.996   6.193   3.456  0.2102  0.0127  0.5026
   83DPPC   C50 4150   4.092   6.131   3.354 -0.5392  0.0483 -0.2375
   84DPPC    C1 4151   1.881   1.623   4.909  0.1424 -0.5409 -0.2476
   84DPPC    C2 4152   2.095   1.729   4.920  0.0228  0.1434  0.2785
   84DPPC    C3 4153   2.005   1.657   5.116 -0.5718 -0.2747 -0.3692
   84DPPC    N4 4154   2.013   1.620   4.974  0.1906 -0.2832 -0.3302
   84DPPC    C5 4155   2.086   1.493   4.959 -0.3090 -0.5186 -0.8215
   84DPPC    C6 4156   2.034   1.368   5.031  0.0275 -0.0147  0.3206
   84DPPC    O7 4157   1.898   1.334   5.006  0.0129  0.0632  0.2914
   84DPPC    P8 4158   1.885   1.180   5.053  0.0337 -0.0534 -0.0780
   84DPPC    O9 4159   1.999   1.150   5.142  0.3397 -0.2659 -0.5384
   84DPPC   O10 4160   1.744   1.189   5.099  0.0182 -0.1043 -0.1151
   84DPPC   O11 4161   1.901   1.123   4.903  0.1834  0.2361 -0.1734
   84DPPC   C12 4162   1.786   1.163   4.829  0.4946 -0.0076 -0.7918
   84DPPC   C13 4163   1.747   1.081   4.706 -0.4394 -0.1531 -0.4002
   84DPPC   O14 4164   1.608   1.064   4.674 -0.6176  0.0960  0.2341
   84DPPC   C15 4165   1.535   1.157   4.607 -0.1457 -0.1604 -0.6374
   84DPPC   O16 4166   1.576   1.273   4.601 -0.0318 -0.1330  0.5068
   84DPPC   C17 4167   1.392   1.132   4.558 -0.2326  0.1136 -0.5247
   84DPPC   C18 4168   1.348   1.194   4.425  0.2190 -0.1275 -0.7899
   84DPPC   C19 4169   1.196   1.187   4.412  0.1188 -0.2369  0.3229
   84DPPC   C20 4170   1.147   1.283   4.303 -0.1693 -0.7877 -0.0369
   84DPPC   C21 4171   0.995   1.294   4.314 -0.0767  0.3012  0.2719
   84DPPC   C22 4172   0.944   1.424   4.252 -0.0272  0.2516  0.1263
   84DPPC   C23 4173   0.975   1.429   4.103  0.3135 -0.0889  0.1825
   84DPPC   C24 4174   0.918   1.303   4.037 -0.1219  0.2799 -0.1550
   84DPPC   C25 4175   0.945   1.276   3.889 -0.0032 -0.1348 -0.0591
   84DPPC   C26 4176   0.838   1.170   3.866 -0.0846  0.0509 -0.5497
   84DPPC   C27 4177   0.815   1.135   3.719  0.6314 -0.1233 -0.6219
   84DPPC   C28 4178   0.716   1.020   3.702  0.6933 -0.2982  0.1863
   84DPPC   C29 4179   0.669   0.991   3.560 -0.0289  0.1250  0.3328
   84DPPC   C30 4180   0.597   1.107   3.491  0.0284 -0.3257 -0.5061
   84DPPC   C31 4181   0.579   1.066   3.345 -0.5503 -0.0196 -0.5255
   84DPPC   C32 4182   1.802   0.941   4.733 -0.2639 -0.0133 -0.0333
   84DPPC   O33 4183   1.814   0.851   4.623 -0.1263 -0.1146  0.0638
   84DPPC   C34 4184   1.871   0.729   4.647  0.2678  0.0521 -0.0230
   84DPPC   O35 4185   1.916   0.697   4.757 -0.1481 -0.3390  0.0349
   84DPPC   C36 4186   1.907   0.644   4.525  0.3135 -0.0605  0.0688
   84DPPC   C37 4187   2.053   0.645   4.481  0.1345 -0.0391 -0.5350
   84DPPC   C38 4188   2.083   0.554   4.362 -0.0464  0.0221 -0.6275
   84DPPC   C39 4189   1.983   0.583   4.249 -0.5815 -1.0301 -0.4309
   84DPPC   C40 4190   2.055   0.689   4.165 -0.3629 -0.2411  0.7262
   84DPPC   C41 4191   2.082   0.629   4.027  0.0702  0.1417  0.6404
   84DPPC   C42 4192   2.139   0.740   3.939  0.2733 -0.5212 -0.0725
   84DPPC   C43 4193   2.150   0.702   3.791 -0.2367 -0.3800 -0.1505
   84DPPC   C44 4194   2.274   0.613   3.786 -0.0847 -0.2075  0.4244
   84DPPC   C45 4195   2.293   0.543   3.651 -0.1394 -0.1948  0.4104
   84DPPC   C46 4196   2.337   0.648   3.549  0.1158  0.0391  0.7592
   84DPPC   C47 4197   2.418   0.573   3.443  0.3801  0.6291  0.5359
   84DPPC   C48 4198   2.446   0.648   3.313  0.8680 -0.2946  0.0958
   84DPPC   C49 4199   2.573   0.733   3.327  0.1483  0.8119  0.0674
   84DPPC   C50 4200   2.670   0.719   3.209 -0.5311 -0.2851 -0.3764
   85DPPC    C1 4201   5.069   5.065   4.792 -0.0953  1.2048  0.5161
   85DPPC    C2 4202   5.152   5.138   4.999  0.0961  0.1296  0.3670
   85DPPC    C3 4203   5.139   4.913   4.979  0.0547 -0.3771 -0.2833
   85DPPC    N4 4204   5.068   5.035   4.936  0.3364 -0.0098  0.2754
   85DPPC    C5 4205   4.939   5.050   5.003  0.5862 -0.1091  0.7808
   85DPPC    C6 4206   4.821   4.964   4.956  0.4117  0.3765  0.3222
   85DPPC    O7 4207   4.712   4.991   5.043  0.2246  0.5218  0.0426
   85DPPC    P8 4208   4.584   4.899   5.010  0.3263  0.4871 -0.2573
   85DPPC    O9 4209   4.643   4.771   5.055 -0.4465  0.1034 -0.3201
   85DPPC   O10 4210   4.471   4.952   5.090  0.0496 -0.6414  0.1250
   85DPPC   O11 4211   4.572   4.913   4.850  0.3052  0.2615 -0.2749
   85DPPC   C12 4212   4.528   4.783   4.809 -0.3553  0.4108 -0.0439
   85DPPC   C13 4213   4.503   4.769   4.659  0.3087  0.0950 -0.1300
   85DPPC   O14 4214   4.515   4.632   4.620  0.1756  0.1578 -0.3963
   85DPPC   C15 4215   4.412   4.547   4.595  0.1190  0.2125 -0.3506
   85DPPC   O16 4216   4.302   4.563   4.648 -0.0273 -0.4432 -0.4415
   85DPPC   C17 4217   4.439   4.410   4.532 -0.2937 -0.1433  0.2253
   85DPPC   C18 4218   4.527   4.419   4.406 -0.1846  0.0776  0.3152
   85DPPC   C19 4219   4.492   4.306   4.309 -0.2689  0.0679  0.3566
   85DPPC   C20 4220   4.572   4.333   4.182 -0.3292  0.1345  0.3330
   85DPPC   C21 4221   4.565   4.225   4.074 -0.0645  0.0804  0.3684
   85DPPC   C22 4222   4.646   4.245   3.945  0.0231 -0.1464  0.3884
   85DPPC   C23 4223   4.600   4.375   3.879  0.0566 -0.1838  0.2926
   85DPPC   C24 4224   4.622   4.363   3.728  0.0545  0.3222  0.2520
   85DPPC   C25 4225   4.567   4.484   3.652 -0.4924  0.0889  0.2746
   85DPPC   C26 4226   4.567   4.463   3.501 -0.5004  0.3683  0.2351
   85DPPC   C27 4227   4.513   4.582   3.421 -0.8932 -0.1092 -0.2148
   85DPPC   C28 4228   4.601   4.706   3.438 -0.6712 -0.2533 -0.3130
   85DPPC   C29 4229   4.535   4.819   3.359  0.0520  0.5391  0.2012
   85DPPC   C30 4230   4.622   4.944   3.346  0.4112  0.3121  0.4242
   85DPPC   C31 4231   4.547   5.068   3.297 -0.0587 -0.1324  0.0132
   85DPPC   C32 4232   4.604   4.862   4.591  0.1304  0.3705 -0.0186
   85DPPC   O33 4233   4.573   4.912   4.461  0.0975  0.0450 -0.1352
   85DPPC   C34 4234   4.664   5.003   4.417  0.0475  0.1045 -0.1145
   85DPPC   O35 4235   4.778   5.009   4.462  0.0441  0.7944 -0.1841
   85DPPC   C36 4236   4.622   5.076   4.289 -0.9137  0.3480  0.3314
   85DPPC   C37 4237   4.621   4.989   4.164 -0.2349  0.4890  0.2248
   85DPPC   C38 4238   4.583   5.060   4.034  0.3085  0.2435 -0.0722
   85DPPC   C39 4239   4.585   4.961   3.918  0.2289 -0.0315  0.1615
   85DPPC   C40 4240   4.538   5.029   3.789  0.2649 -0.1931  0.0616
   85DPPC   C41 4241   4.395   5.078   3.815  0.2000 -0.3556  0.0108
   85DPPC   C42 4242   4.357   5.161   3.692  0.0306 -0.6069 -0.1081
   85DPPC   C43 4243   4.211   5.204   3.711  0.1727 -0.1490 -0.0387
   85DPPC   C44 4244   4.119   5.082   3.711 -0.1489  0.0941  0.1754
   85DPPC   C45 4245   3.975   5.125   3.742 -0.2745  0.1818 -0.5192
   85DPPC   C46 4246   3.909   5.014   3.825 -0.2576  0.5179 -0.0532
   85DPPC   C47 4247   3.770   5.069   3.857 -0.2375  0.4943  0.0751
   85DPPC   C48 4248   3.699   4.964   3.943 -0.0946  0.2206 -0.1371
   85DPPC   C49 4249   3.571   5.025   4.001 -0.2253 -0.7459  0.6125
   85DPPC   C50 4250   3.584   5.137   4.105 -0.3215 -0.3209  0.1736
   86DPPC    C1 4251   3.639   5.403   5.296 -0.2359 -0.3005  0.4895
   86DPPC    C2 4252   3.725   5.198   5.234 -0.0041  0.3230 -0.0130
   86DPPC    C3 4253   3.591   5.231   5.434 -1.0226  0.3525 -0.5731
   86DPPC    N4 4254   3.702   5.282   5.352 -0.0198 -0.2342  0.3885
   86DPPC    C5 4255   3.808   5.296   5.453  0.2462 -1.1386  0.2365
   86DPPC    C6 4256   3.938   5.358   5.403 -0.0709 -0.3225  0.4114
   86DPPC    O7 4257   4.037   5.260   5.372 -0.2243 -0.1544 -0.6518
   86DPPC    P8 4258   4.170   5.348   5.352 -0.3454  0.1527 -0.1214
   86DPPC    O9 4259   4.176   5.453   5.455 -0.3712 -0.1227  0.1618
   86DPPC   O10 4260   4.270   5.239   5.336  0.3135  0.8021 -0.5326
   86DPPC   O11 4261   4.125   5.410   5.210  0.3636  0.1142 -0.3677
   86DPPC   C12 4262   4.142   5.310   5.109  0.8114 -0.0988 -0.0858
   86DPPC   C13 4263   4.187   5.356   4.970  0.3801 -0.0132 -0.1965
   86DPPC   O14 4264   4.329   5.356   4.954  0.3997 -0.1410 -0.0225
   86DPPC   C15 4265   4.389   5.264   4.873  0.4530  0.0922 -0.2483
   86DPPC   O16 4266   4.321   5.186   4.807  0.3868 -0.2978  0.2775
   86DPPC   C17 4267   4.541   5.279   4.862  0.4677  0.2055  0.1075
   86DPPC   C18 4268   4.600   5.304   4.724  0.2478  0.1507  0.0036
   86DPPC   C19 4269   4.751   5.324   4.719  0.2841 -0.1485 -0.1055
   86DPPC   C20 4270   4.805   5.341   4.577  0.2014 -0.1407 -0.1360
   86DPPC   C21 4271   4.729   5.458   4.513  0.4484  0.1684  0.1307
   86DPPC   C22 4272   4.798   5.505   4.385  0.5621  0.2345  0.2161
   86DPPC   C23 4273   4.707   5.482   4.264 -0.0702  0.9333  0.5537
   86DPPC   C24 4274   4.765   5.527   4.130 -0.0652  0.0626  0.2588
   86DPPC   C25 4275   4.793   5.678   4.126  0.0150  0.0390 -0.0803
   86DPPC   C26 4276   4.834   5.729   3.988  0.0837 -0.0730 -0.1018
   86DPPC   C27 4277   4.824   5.882   3.985  0.1331 -0.0665  0.0614
   86DPPC   C28 4278   4.882   5.938   3.854  0.0399  0.2644  0.1617
   86DPPC   C29 4279   4.904   6.088   3.841 -0.5597  0.3464  0.0666
   86DPPC   C30 4280   4.952   6.126   3.701  0.7984 -0.0909  0.3971
   86DPPC   C31 4281   4.988   6.275   3.703 -0.7920  0.3237 -0.0243
   86DPPC   C32 4282   4.110   5.482   4.929  0.7057  0.3345  0.2472
   86DPPC   O33 4283   4.131   5.511   4.790 -0.4877 -0.2203 -0.0608
   86DPPC   C34 4284   4.095   5.414   4.702 -0.7281 -0.0835 -0.1145
   86DPPC   O35 4285   4.034   5.314   4.738  0.5740 -0.5349  0.8771
   86DPPC   C36 4286   4.121   5.440   4.553  0.3080 -0.0279  0.0712
   86DPPC   C37 4287   4.192   5.314   4.501  0.1903 -0.2187  0.3708
   86DPPC   C38 4288   4.251   5.307   4.361 -0.2731  0.2598  0.1463
   86DPPC   C39 4289   4.199   5.193   4.273 -0.2846  0.1542  0.2910
   86DPPC   C40 4290   4.057   5.212   4.221 -0.1048  0.2741 -0.1613
   86DPPC   C41 4291   4.042   5.332   4.128 -0.7025 -0.1421 -0.6145
   86DPPC   C42 4292   3.895   5.370   4.108 -0.8557 -0.3741  0.0412
   86DPPC   C43 4293   3.871   5.509   4.048  0.2065 -0.1525  0.1123
   86DPPC   C44 4294   3.720   5.534   4.044  0.2047 -0.1676  0.0864
   86DPPC   C45 4295   3.658   5.432   3.949 -0.2793  0.3101 -0.1101
   86DPPC   C46 4296   3.516   5.485   3.923 -0.7114 -0.6115  0.3168
   86DPPC   C47 4297   3.440   5.392   3.828 -0.4730 -0.0741 -0.4118
   86DPPC   C48 4298   3.513   5.396   3.694 -0.4816  0.7430 -0.4013
   86DPPC   C49 4299   3.419   5.362   3.578 -0.7516  0.3056 -0.0572
   86DPPC   C50 4300   3.494   5.378   3.446 -0.1377  0.6760  0.3274
   87DPPC    C1 4301   4.614   0.148   4.353 -0.3156 -0.5599 -0.0066
   87DPPC    C2 4302   4.758   0.332   4.387 -0.0098 -0.3392  0.0235
   87DPPC    C3 4303   4.522   0.349   4.451  0.0401 -0.1563  0.1335
   87DPPC    N4 4304   4.640   0.263   4.441 -0.1475 -0.3675 -0.3074
   87DPPC    C5 4305   4.683   0.215   4.574 -0.1453  0.3682 -0.0398
   87DPPC    C6 4306   4.619   0.100   4.652  0.3863  0.3984  0.4382
   87DPPC    O7 4307   4.490   0.132   4.703  0.1536  0.1146  0.0298
   87DPPC    P8 4308   4.408   0.000   4.746 -0.2109  0.1844 -0.4489
   87DPPC    O9 4309   4.497  -0.114   4.775 -0.1937  0.4404  0.5386
   87DPPC   O10 4310   4.283   0.019   4.824  0.0434 -0.6955  0.1827
   87DPPC   O11 4311   4.370  -0.049   4.597  0.0595 -0.4564 -0.3080
   87DPPC   C12 4312   4.272  -0.151   4.620 -0.3546 -0.0044 -0.0406
   87DPPC   C13 4313   4.241  -0.223   4.488 -0.4212  0.1805 -0.1258
   87DPPC   O14 4314   4.303  -0.352   4.483 -0.3599  0.1776  0.5261
   87DPPC   C15 4315   4.226  -0.457   4.520  0.1799 -0.1950  0.6088
   87DPPC   O16 4316   4.117  -0.440   4.576 -0.1603  0.8188 -0.3223
   87DPPC   C17 4317   4.271  -0.598   4.480  0.2997 -0.0091  0.0844
   87DPPC   C18 4318   4.252  -0.605   4.329  0.1247 -0.1752  0.1134
   87DPPC   C19 4319   4.287  -0.749   4.290  0.2116 -0.1257  0.0083
   87DPPC   C20 4320   4.276  -0.763   4.138  0.6262 -0.6775  0.0285
   87DPPC   C21 4321   4.362  -0.885   4.103  0.8208 -0.5406  0.0292
   87DPPC   C22 4322   4.367  -0.911   3.952  0.0004 -0.2262 -0.0594
   87DPPC   C23 4323   4.419  -0.788   3.878 -0.1279 -0.0907  0.0775
   87DPPC   C24 4324   4.431  -0.793   3.726  0.7107 -0.5320  0.1503
   87DPPC   C25 4325   4.488  -0.661   3.675  0.1345  0.0497  0.9948
   87DPPC   C26 4326   4.420  -0.543   3.746 -0.1394  0.7601 -0.4265
   87DPPC   C27 4327   4.492  -0.410   3.724 -0.1687  0.8562  0.0536
   87DPPC   C28 4328   4.512  -0.377   3.576 -0.0774  0.4082 -0.0340
   87DPPC   C29 4329   4.615  -0.274   3.528  0.0948  0.1248 -0.2844
   87DPPC   C30 4330   4.586  -0.132   3.579 -0.0961  0.1447 -0.4468
   87DPPC   C31 4331   4.457  -0.060   3.542 -0.2296 -0.0107 -0.2882
   87DPPC   C32 4332   4.276  -0.130   4.371  0.2118  0.1001 -0.0063
   87DPPC   O33 4333   4.179  -0.027   4.352 -0.0723 -0.1234  0.2181
   87DPPC   C34 4334   4.219   0.069   4.265 -0.1488 -0.3083 -0.0209
   87DPPC   O35 4335   4.331   0.061   4.214  0.0686 -0.6142  0.4950
   87DPPC   C36 4336   4.104   0.155   4.213  0.1230 -0.0408 -0.1844
   87DPPC   C37 4337   4.120   0.187   4.065 -0.2207 -0.3074 -0.2805
   87DPPC   C38 4338   3.986   0.236   4.009 -0.2625 -0.4910 -0.3420
   87DPPC   C39 4339   3.992   0.242   3.857  0.1869  0.1506 -0.3054
   87DPPC   C40 4340   4.117   0.305   3.795  0.5392 -0.2681 -0.0270
   87DPPC   C41 4341   4.088   0.307   3.645 -0.2779  0.2423  0.1277
   87DPPC   C42 4342   4.199   0.378   3.567 -0.3496 -0.1443 -0.3366
   87DPPC   C43 4343   4.191   0.326   3.424 -0.1129  0.3408 -0.5293
   87DPPC   C44 4344   4.102   0.408   3.330  0.0141  0.4867 -0.5214
   87DPPC   C45 4345   4.073   0.323   3.207 -0.8279 -0.1492  0.1091
   87DPPC   C46 4346   4.209   0.312   3.138 -1.1534  0.3532 -0.6353
   87DPPC   C47 4347   4.210   0.207   3.026 -0.2593 -0.4941  0.1385
   87DPPC   C48 4348   4.347   0.179   2.966 -0.0773  0.1306  0.2525
   87DPPC   C49 4349   4.445   0.121   3.068 -0.2088 -0.0762  0.2612
   87DPPC   C50 4350   4.391  -0.011   3.124 -0.4506 -0.1407 -0.1217
   88DPPC    C1 4351   4.586   0.471   5.004 -0.2777 -0.2038  0.9005
   88DPPC    C2 4352   4.401   0.330   4.929  0.1510 -0.2441  0.7720
   88DPPC    C3 4353   4.450   0.524   4.818  0.0747 -0.6910 -0.2467
   88DPPC    N4 4354   4.448   0.467   4.954  0.0325 -0.0641  0.0199
   88DPPC    C5 4355   4.363   0.555   5.036 -0.0445  0.0975 -0.2294
   88DPPC    C6 4356   4.212   0.554   5.012 -0.0820  0.2347 -0.0083
   88DPPC    O7 4357   4.164   0.596   4.884  0.2609 -0.0706 -0.2411
   88DPPC    P8 4358   4.020   0.664   4.906  0.2609 -0.2293  0.2623
   88DPPC    O9 4359   3.912   0.569   4.943 -0.0825 -0.0530 -0.2611
   88DPPC   O10 4360   4.039   0.787   4.986 -0.3399 -0.0715  0.1713
   88DPPC   O11 4361   3.983   0.703   4.754 -0.0309  0.3496  0.4787
   88DPPC   C12 4362   4.106   0.758   4.706  0.1427 -0.4226  0.0182
   88DPPC   C13 4363   4.142   0.676   4.582 -0.0388 -0.5346  0.0388
   88DPPC   O14 4364   4.249   0.730   4.503 -0.7537  0.2375 -0.4164
   88DPPC   C15 4365   4.303   0.655   4.404  0.1234 -0.0860  0.2892
   88DPPC   O16 4366   4.273   0.535   4.407 -0.3782  0.0172 -0.3373
   88DPPC   C17 4367   4.407   0.724   4.316  0.0390 -0.8313 -0.4161
   88DPPC   C18 4368   4.350   0.804   4.199  0.9029 -0.2631 -0.4574
   88DPPC   C19 4369   4.266   0.723   4.100 -0.2853  0.6111 -0.1828
   88DPPC   C20 4370   4.186   0.818   4.010 -1.1007  0.1419  0.0307
   88DPPC   C21 4371   4.103   0.736   3.911 -0.8348 -0.0303 -0.0529
   88DPPC   C22 4372   4.010   0.835   3.842 -0.0803  0.2511 -0.6781
   88DPPC   C23 4373   3.930   0.767   3.730  0.0132 -0.9878 -0.0088
   88DPPC   C24 4374   3.866   0.875   3.641  0.6896 -0.3651  0.2507
   88DPPC   C25 4375   3.816   0.826   3.505  0.6131  0.1986  0.0768
   88DPPC   C26 4376   3.716   0.925   3.445  0.2215 -0.1790  0.0971
   88DPPC   C27 4377   3.675   0.886   3.303  0.4318  0.6169 -0.1883
   88DPPC   C28 4378   3.563   0.979   3.254 -0.0907 -0.0641 -0.2933
   88DPPC   C29 4379   3.595   1.128   3.242 -0.1285 -0.0238  0.0881
   88DPPC   C30 4380   3.477   1.207   3.186 -0.0835 -0.2840 -0.3889
   88DPPC   C31 4381   3.497   1.358   3.166  0.0254 -0.3048 -0.4406
   88DPPC   C32 4382   4.013   0.666   4.501  0.0895  0.0031 -0.2347
   88DPPC   O33 4383   3.956   0.793   4.465  0.0907 -0.0146 -0.2987
   88DPPC   C34 4384   3.863   0.787   4.365 -0.2419 -0.2667  0.0219
   88DPPC   O35 4385   3.815   0.677   4.336  0.2239 -0.4106 -0.2136
   88DPPC   C36 4386   3.793   0.917   4.326 -0.3116 -0.2691  0.1407
   88DPPC   C37 4387   3.837   0.954   4.185 -0.3786 -0.5050  0.0583
   88DPPC   C38 4388   3.787   1.093   4.146 -0.0005 -0.4761 -0.3356
   88DPPC   C39 4389   3.836   1.118   4.003 -0.2064 -0.1000 -0.3425
   88DPPC   C40 4390   3.798   1.254   3.944 -0.5714 -0.1985 -0.3385
   88DPPC   C41 4391   3.860   1.275   3.806 -0.2938 -0.2996 -0.2301
   88DPPC   C42 4392   3.881   1.423   3.772  0.5519 -0.2984  0.2702
   88DPPC   C43 4393   3.981   1.436   3.657  0.0114 -0.7401 -0.2486
   88DPPC   C44 4394   4.015   1.577   3.610  0.0682 -0.7259 -0.1636
   88DPPC   C45 4395   4.115   1.572   3.495 -0.0088  0.4777 -0.2980
   88DPPC   C46 4396   4.120   1.717   3.445  0.4443  0.6077  0.1145
   88DPPC   C47 4397   4.001   1.769   3.364 -0.1148 -0.7328  0.0399
   88DPPC   C48 4398   4.046   1.901   3.300  0.0803 -0.6903  0.2620
   88DPPC   C49 4399   4.183   1.901   3.232  0.2683  0.6928  0.6231
   88DPPC   C50 4400   4.229   2.042   3.192 -0.0968  0.6475  0.0288
   89DPPC    C1 4401   4.122   4.132   5.561  0.0204  0.5199 -0.5076
   89DPPC    C2 4402   3.974   3.954   5.514  0.0500 -0.6396 -0.2149
   89DPPC    C3 4403   4.126   4.036   5.345 -0.0771  0.1405 -0.0058
   89DPPC    N4 4404   4.037   4.073   5.456 -0.1429 -0.3749  0.1174
   89DPPC    C5 4405   3.936   4.164   5.400  0.0225 -0.0002  0.4251
   89DPPC    C6 4406   3.831   4.232   5.488 -0.6671 -0.0015 -0.3979
   89DPPC    O7 4407   3.787   4.343   5.408 -0.0581  0.1332 -0.5476
   89DPPC    P8 4408   3.637   4.386   5.446  0.0176 -0.1969  0.1400
   89DPPC    O9 4409   3.584   4.260   5.501 -0.2116 -0.3285 -0.3777
   89DPPC   O10 4410   3.651   4.511   5.525 -0.0723 -0.3485  0.3959
   89DPPC   O11 4411   3.582   4.390   5.295 -0.3221  0.0648  0.2687
   89DPPC   C12 4412   3.573   4.260   5.236  0.0462  0.2227 -0.1401
   89DPPC   C13 4413   3.475   4.258   5.119 -0.3587 -0.1341  0.2012
   89DPPC   O14 4414   3.456   4.127   5.063  0.0645 -0.1159  0.0139
   89DPPC   C15 4415   3.559   4.049   5.021 -0.1374 -0.0048 -0.7014
   89DPPC   O16 4416   3.672   4.096   5.029 -0.2106  0.1637 -0.6765
   89DPPC   C17 4417   3.520   3.905   4.985 -0.4646 -0.1442  0.1627
   89DPPC   C18 4418   3.558   3.877   4.839 -0.2691  0.9535 -0.0122
   89DPPC   C19 4419   3.705   3.849   4.808 -0.4692  0.0972 -0.2233
   89DPPC   C20 4420   3.739   3.841   4.659 -0.4850 -0.0170 -0.2206
   89DPPC   C21 4421   3.684   3.711   4.599 -0.1403 -0.4466  0.3852
   89DPPC   C22 4422   3.717   3.711   4.449 -0.1821 -0.0027  0.3740
   89DPPC   C23 4423   3.676   3.572   4.401  0.1995  0.0019  0.0331
   89DPPC   C24 4424   3.764   3.472   4.475 -0.2096 -0.3037  0.1108
   89DPPC   C25 4425   3.715   3.341   4.414  0.0175 -0.3199 -0.0387
   89DPPC   C26 4426   3.574   3.318   4.471  0.1145  0.0813  0.3652
   89DPPC   C27 4427   3.515   3.191   4.410 -0.0809  0.2225  0.2583
   89DPPC   C28 4428   3.370   3.155   4.444  0.1084 -0.1216  0.7194
   89DPPC   C29 4429   3.323   3.022   4.383  0.4613  0.1204 -0.0925
   89DPPC   C30 4430   3.344   3.031   4.232 -0.5045  0.5032 -0.2128
   89DPPC   C31 4431   3.241   2.949   4.155 -0.3131  0.2580 -0.2100
   89DPPC   C32 4432   3.515   4.360   5.012 -0.3418 -0.1604  0.1831
   89DPPC   O33 4433   3.420   4.426   4.928 -0.0303  0.1530  0.0729
   89DPPC   C34 4434   3.471   4.500   4.825  0.1289  0.0645  0.0876
   89DPPC   O35 4435   3.592   4.514   4.812  0.1973 -0.2115  0.3970
   89DPPC   C36 4436   3.369   4.585   4.750  0.1396 -0.0156 -0.0173
   89DPPC   C37 4437   3.408   4.613   4.604 -0.0594  0.0696 -0.0555
   89DPPC   C38 4438   3.308   4.715   4.549 -0.1157 -0.0150 -0.1091
   89DPPC   C39 4439   3.335   4.770   4.410 -0.0138 -0.1705 -0.1513
   89DPPC   C40 4440   3.354   4.652   4.314 -0.9304 -0.1398 -0.3740
   89DPPC   C41 4441   3.417   4.704   4.184  0.4701  0.0224  0.3551
   89DPPC   C42 4442   3.428   4.585   4.089 -0.6848  0.3169 -0.1645
   89DPPC   C43 4443   3.524   4.607   3.971  0.2813 -0.1086  0.5285
   89DPPC   C44 4444   3.561   4.474   3.907  0.1787  0.3539 -0.5131
   89DPPC   C45 4445   3.690   4.494   3.827  0.7005  0.1536  0.2568
   89DPPC   C46 4446   3.691   4.392   3.713  0.2507  0.7163 -0.2609
   89DPPC   C47 4447   3.813   4.431   3.630  0.3887  0.5303 -0.1461
   89DPPC   C48 4448   3.836   4.347   3.504 -0.7660 -0.1413  0.0806
   89DPPC   C49 4449   3.958   4.408   3.435 -0.8895  0.1313  0.1024
   89DPPC   C50 4450   4.015   4.328   3.319 -0.5603  0.1451  0.2549
   90DPPC    C1 4451   3.247   4.736   5.119  0.5328  0.4416 -0.0150
   90DPPC    C2 4452   3.068   4.783   5.268  0.0460 -0.6293 -0.1135
   90DPPC    C3 4453   3.030   4.678   5.056  0.8000 -0.4296  0.3943
   90DPPC    N4 4454   3.107   4.782   5.126  0.4312  0.1338 -0.0197
   90DPPC    C5 4455   3.068   4.910   5.065 -0.1997 -0.2318 -0.3877
   90DPPC    C6 4456   3.184   5.008   5.047 -0.1683 -0.1630  0.1720
   90DPPC    O7 4457   3.241   5.007   4.916  0.3899 -0.1236  0.4114
   90DPPC    P8 4458   3.324   5.145   4.903 -0.1220  0.1516  0.0337
   90DPPC    O9 4459   3.246   5.243   4.981  0.7193  0.0509  1.0128
   90DPPC   O10 4460   3.459   5.099   4.942 -0.0852  0.1456 -0.1010
   90DPPC   O11 4461   3.299   5.160   4.744 -0.3517 -0.5214  0.0006
   90DPPC   C12 4462   3.396   5.087   4.669 -0.1711 -0.2764 -0.0056
   90DPPC   C13 4463   3.437   5.153   4.537  0.0752 -0.4939 -0.0387
   90DPPC   O14 4464   3.527   5.264   4.547 -0.2479 -0.2217 -0.1230
   90DPPC   C15 4465   3.654   5.232   4.585 -0.2389  0.0462  0.0703
   90DPPC   O16 4466   3.697   5.117   4.586  0.9137  0.4675 -0.2351
   90DPPC   C17 4467   3.734   5.361   4.609  0.3942 -0.2885 -0.2289
   90DPPC   C18 4468   3.724   5.459   4.492 -0.5813 -0.2801 -0.1512
   90DPPC   C19 4469   3.798   5.590   4.521  0.4012 -0.8274 -0.1581
   90DPPC   C20 4470   3.793   5.691   4.406 -0.0177 -0.2675  0.3454
   90DPPC   C21 4471   3.850   5.825   4.453  0.4120 -0.1701 -0.4405
   90DPPC   C22 4472   3.803   5.922   4.344 -0.0930 -0.3784 -0.4113
   90DPPC   C23 4473   3.879   5.904   4.213  0.3543  0.0886 -0.2213
   90DPPC   C24 4474   3.803   5.997   4.119 -0.6882 -0.0760  0.4438
   90DPPC   C25 4475   3.805   6.140   4.174 -0.1772  0.1475 -0.1506
   90DPPC   C26 4476   3.705   6.232   4.103  0.0997  0.4766 -0.1162
   90DPPC   C27 4477   3.695   6.205   3.953 -0.0164  0.4572 -0.1049
   90DPPC   C28 4478   3.606   6.307   3.883 -0.2250  0.5120  0.2386
   90DPPC   C29 4479   3.608   6.283   3.732 -0.5382  0.3650  0.2581
   90DPPC   C30 4480   3.521   6.387   3.660 -0.7154  0.0887  0.0671
   90DPPC   C31 4481   3.523   6.378   3.508 -0.1349 -0.0830  0.0792
   90DPPC   C32 4482   3.304   5.199   4.478  0.0965  0.4480  0.6332
   90DPPC   O33 4483   3.230   5.091   4.422  0.2019  0.8988 -0.3854
   90DPPC   C34 4484   3.105   5.112   4.370 -0.1723 -0.3647 -0.0349
   90DPPC   O35 4485   3.071   5.227   4.342  0.0275 -0.3798 -0.3469
   90DPPC   C36 4486   3.037   4.982   4.328  0.1422 -0.6367  0.2911
   90DPPC   C37 4487   3.069   4.927   4.189 -0.7735 -0.3450 -0.0369
   90DPPC   C38 4488   2.999   4.998   4.072 -0.2186  0.6787  0.2455
   90DPPC   C39 4489   3.044   4.954   3.933 -0.4988  0.3763  0.2510
   90DPPC   C40 4490   3.059   5.070   3.835  0.1761  0.1567  0.0876
   90DPPC   C41 4491   3.131   5.040   3.704 -0.0986  1.2148 -0.3177
   90DPPC   C42 4492   3.259   4.959   3.724 -0.5741  0.4217 -0.4572
   90DPPC   C43 4493   3.341   4.971   3.595 -0.4935  0.2671 -0.4212
   90DPPC   C44 4494   3.479   4.906   3.603 -0.4802  0.2469 -0.8186
   90DPPC   C45 4495   3.540   4.859   3.470 -0.2335 -0.4423 -0.4646
   90DPPC   C46 4496   3.685   4.829   3.507 -0.2777 -0.3191 -0.1856
   90DPPC   C47 4497   3.764   4.782   3.384  0.1462  0.4769 -0.2233
   90DPPC   C48 4498   3.915   4.804   3.398  0.2436 -0.4059  0.1795
   90DPPC   C49 4499   3.982   4.743   3.274 -0.3089 -0.9025  0.1187
   90DPPC   C50 4500   4.131   4.771   3.255 -0.4425 -0.3791 -0.1658
   91DPPC    C1 4501   3.695   6.398   4.675  0.0568 -0.1353  0.5932
   91DPPC    C2 4502   3.933   6.405   4.692 -0.6264  0.0924  0.6581
   91DPPC    C3 4503   3.821   6.358   4.481 -0.4043  0.3555 -0.1868
   91DPPC    N4 4504   3.819   6.338   4.626 -0.1343  0.1069 -0.2169
   91DPPC    C5 4505   3.826   6.191   4.637 -0.3057  0.0951 -0.2709
   91DPPC    C6 4506   3.724   6.128   4.732 -0.1386 -0.2816 -0.3419
   91DPPC    O7 4507   3.725   5.985   4.739 -0.1027 -0.2777 -0.2798
   91DPPC    P8 4508   3.598   5.932   4.823  0.0124 -0.0151  0.0644
   91DPPC    O9 4509   3.617   5.794   4.874  0.1600 -0.3215 -0.7976
   91DPPC   O10 4510   3.564   6.050   4.905  0.2353 -0.0998  0.2814
   91DPPC   O11 4511   3.491   5.951   4.704 -0.2440 -0.1506  0.2731
   91DPPC   C12 4512   3.494   5.830   4.629 -0.0200  0.2080 -0.3101
   91DPPC   C13 4513   3.412   5.856   4.502 -0.4379 -0.0789 -0.1034
   91DPPC   O14 4514   3.416   5.755   4.400  0.2780  0.1226 -0.2792
   91DPPC   C15 4515   3.340   5.643   4.401 -0.0565  0.3491  0.2676
   91DPPC   O16 4516   3.290   5.586   4.498  0.4536 -0.4567  0.0711
   91DPPC   C17 4517   3.331   5.585   4.259  0.3636 -0.3978  0.5404
   91DPPC   C18 4518   3.187   5.558   4.216  0.5192 -0.0032 -0.2309
   91DPPC   C19 4519   3.173   5.528   4.066 -0.1730  0.1745 -0.2060
   91DPPC   C20 4520   3.027   5.533   4.018 -0.3770 -0.1525  0.3663
   91DPPC   C21 4521   2.925   5.441   4.086 -0.7745  0.3323  0.4269
   91DPPC   C22 4522   2.784   5.485   4.047 -0.4506  0.3417 -0.7744
   91DPPC   C23 4523   2.775   5.637   4.053 -0.2932  0.3095  0.5171
   91DPPC   C24 4524   2.633   5.684   4.020 -0.0210  0.2990 -0.7509
   91DPPC   C25 4525   2.636   5.837   4.011 -0.1649  0.3077 -0.6485
   91DPPC   C26 4526   2.729   5.869   3.894  1.3786  0.0706  0.4851
   91DPPC   C27 4527   2.695   5.997   3.817  0.5526 -0.0483  0.6383
   91DPPC   C28 4528   2.770   5.997   3.684 -0.3974  0.0076  0.0966
   91DPPC   C29 4529   2.720   5.875   3.606  0.3079 -0.1356 -0.1453
   91DPPC   C30 4530   2.815   5.852   3.488  0.9650 -0.5762  0.4656
   91DPPC   C31 4531   2.809   5.976   3.397 -0.1424 -0.8100  0.2058
   91DPPC   C32 4532   3.472   5.984   4.444 -0.7204 -0.3087 -0.9109
   91DPPC   O33 4533   3.373   6.083   4.419 -0.2835  0.3145 -0.2009
   91DPPC   C34 4534   3.426   6.203   4.383  0.3801 -0.1681 -0.8376
   91DPPC   O35 4535   3.546   6.232   4.386  0.3198  0.0188  0.1697
   91DPPC   C36 4536   3.329   6.321   4.378 -0.0097 -0.4616 -0.2167
   91DPPC   C37 4537   3.261   6.345   4.244  0.0909  0.2837 -0.1379
   91DPPC   C38 4538   3.151   6.452   4.246  0.1260  0.3166  0.0032
   91DPPC   C39 4539   3.083   6.458   4.109  0.0383  0.0892  0.0362
   91DPPC   C40 4540   2.979   6.571   4.109  0.3263  0.3557 -0.0183
   91DPPC   C41 4541   2.910   6.572   3.973  0.2116 -0.1224  0.0347
   91DPPC   C42 4542   3.016   6.620   3.874  0.0027 -0.2941 -0.2736
   91DPPC   C43 4543   2.980   6.587   3.729 -0.1054 -0.5494 -0.1881
   91DPPC   C44 4544   3.093   6.592   3.626  0.6310 -0.0340  0.6334
   91DPPC   C45 4545   3.029   6.589   3.487  0.5497 -0.5039  0.6794
   91DPPC   C46 4546   3.133   6.634   3.385 -0.1581 -0.4380 -0.0185
   91DPPC   C47 4547   3.079   6.593   3.247  0.2920  0.0661 -0.3500
   91DPPC   C48 4548   2.973   6.695   3.203  0.2460  0.1282 -0.0973
   91DPPC   C49 4549   2.880   6.633   3.099  0.0879  0.2037 -0.0029
   91DPPC   C50 4550   2.783   6.731   3.033  0.2607 -0.0305 -0.6178
   92DPPC    C1 4551   3.106   0.394   4.852 -0.3032  0.0921  0.3419
   92DPPC    C2 4552   3.156   0.212   5.012  0.5635  0.0710 -0.0601
   92DPPC    C3 4553   2.983   0.351   5.048  0.3558  0.1293 -0.2206
   92DPPC    N4 4554   3.119   0.353   4.992  0.5590  0.1157  0.2725
   92DPPC    C5 4555   3.203   0.449   5.065  0.1117  0.3958  0.4212
   92DPPC    C6 4556   3.352   0.465   5.032  0.0392 -0.0289 -0.1281
   92DPPC    O7 4557   3.389   0.489   4.896  0.2420  0.5735  0.0304
   92DPPC    P8 4558   3.547   0.509   4.916  0.3664 -0.2532 -0.0842
   92DPPC    O9 4559   3.555   0.650   4.961 -0.7113 -0.2684  0.1699
   92DPPC   O10 4560   3.591   0.395   4.998  0.0683 -0.0638  0.3410
   92DPPC   O11 4561   3.595   0.489   4.763  0.2821  0.1182 -0.1617
   92DPPC   C12 4562   3.486   0.454   4.678  0.1225 -0.3680  0.2356
   92DPPC   C13 4563   3.513   0.476   4.529  0.3252  0.3566  0.3722
   92DPPC   O14 4564   3.580   0.381   4.445  0.3130  0.6620  0.0171
   92DPPC   C15 4565   3.519   0.264   4.412  0.4907  0.5960 -0.0839
   92DPPC   O16 4566   3.413   0.234   4.469  0.6747  0.0283 -0.0337
   92DPPC   C17 4567   3.587   0.179   4.305  0.1528 -0.2371  0.3549
   92DPPC   C18 4568   3.585   0.262   4.177  0.0773 -0.1601  0.4065
   92DPPC   C19 4569   3.453   0.261   4.099  0.3441  0.4962 -0.0665
   92DPPC   C20 4570   3.470   0.344   3.971 -0.1302 -0.0033 -0.4578
   92DPPC   C21 4571   3.561   0.256   3.886  0.3856  0.0413  0.0414
   92DPPC   C22 4572   3.540   0.305   3.743  0.1270  0.2034  0.1337
   92DPPC   C23 4573   3.628   0.428   3.721 -0.1546  0.3361 -0.2598
   92DPPC   C24 4574   3.606   0.497   3.586  0.2100  0.6586 -0.1561
   92DPPC   C25 4575   3.620   0.393   3.475  0.0144  0.4530  0.0090
   92DPPC   C26 4576   3.602   0.464   3.341  0.2003  0.3384 -0.0767
   92DPPC   C27 4577   3.457   0.506   3.314  0.1670 -0.0536 -0.5429
   92DPPC   C28 4578   3.454   0.580   3.181  0.1524 -0.3199 -0.6904
   92DPPC   C29 4579   3.310   0.601   3.133 -0.1341 -0.1620  0.2178
   92DPPC   C30 4580   3.243   0.700   3.228  0.1738 -0.0184  0.2880
   92DPPC   C31 4581   3.092   0.701   3.200  0.2465  0.5126 -0.1125
   92DPPC   C32 4582   3.546   0.625   4.537  0.2148  0.3755  0.4772
   92DPPC   O33 4583   3.433   0.710   4.518 -0.2110 -0.2273  0.2707
   92DPPC   C34 4584   3.458   0.844   4.512 -0.0876 -0.2640 -0.0475
   92DPPC   O35 4585   3.573   0.886   4.512 -0.2296  0.1268  0.0677
   92DPPC   C36 4586   3.330   0.927   4.516  0.3354  0.3850  0.1714
   92DPPC   C37 4587   3.283   0.959   4.374 -0.4650  0.4349  0.4417
   92DPPC   C38 4588   3.170   1.062   4.376  0.2395  1.2184  0.2449
   92DPPC   C39 4589   3.103   1.063   4.239 -0.3812  0.4212  0.5405
   92DPPC   C40 4590   3.173   1.140   4.127 -0.4016 -0.4227 -0.0624
   92DPPC   C41 4591   3.112   1.112   3.989 -0.2074  0.0184 -0.2384
   92DPPC   C42 4592   2.974   1.177   3.975 -0.1336  0.1978 -0.1460
   92DPPC   C43 4593   2.906   1.108   3.856  0.3950 -0.1317 -0.2620
   92DPPC   C44 4594   2.774   1.180   3.826  0.2741 -0.2413  0.0105
   92DPPC   C45 4595   2.709   1.111   3.706  0.8181 -0.4869 -0.1445
   92DPPC   C46 4596   2.799   1.113   3.582  0.4387  0.3688 -0.4125
   92DPPC   C47 4597   2.731   1.082   3.449 -0.0189  0.4415 -0.1963
   92DPPC   C48 4598   2.817   1.121   3.329  0.4965 -0.4221 -0.1133
   92DPPC   C49 4599   2.743   1.066   3.207 -0.1338  0.1052  0.0303
   92DPPC   C50 4600   2.826   1.088   3.081 -0.0106 -0.8160 -0.0566
   93DPPC    C1 4601   3.313   3.862   5.672 -0.4893 -0.0654 -0.5297
   93DPPC    C2 4602   3.382   4.071   5.737 -0.2139  0.0193 -0.0851
   93DPPC    C3 4603   3.479   3.964   5.532 -0.0597 -0.0884 -0.4453
   93DPPC    N4 4604   3.362   3.989   5.617  0.2091 -0.1214 -0.0606
   93DPPC    C5 4605   3.246   4.045   5.545  0.4491  0.0689 -0.3035
   93DPPC    C6 4606   3.265   4.180   5.475  0.2395  0.2365 -0.0375
   93DPPC    O7 4607   3.139   4.237   5.439  0.1033 -0.1449 -0.1797
   93DPPC    P8 4608   3.157   4.381   5.368  0.0533 -0.0816 -0.0644
   93DPPC    O9 4609   3.038   4.464   5.393  0.0997  0.1815 -0.6920
   93DPPC   O10 4610   3.290   4.439   5.400  0.0937  0.0964 -0.5495
   93DPPC   O11 4611   3.141   4.345   5.212 -0.1479 -0.0185 -0.0588
   93DPPC   C12 4612   3.008   4.293   5.201 -0.2210  0.1079  0.2315
   93DPPC   C13 4613   2.980   4.287   5.051 -0.0336  0.2759  0.1882
   93DPPC   O14 4614   2.841   4.261   5.029  0.0914 -0.1952 -0.0657
   93DPPC   C15 4615   2.749   4.358   5.002  0.1907 -0.1351 -0.1904
   93DPPC   O16 4616   2.780   4.466   5.052  0.1343  0.0472 -0.5460
   93DPPC   C17 4617   2.613   4.319   4.944  0.1584 -0.5385  0.1485
   93DPPC   C18 4618   2.613   4.288   4.794  0.1170  0.3524 -0.0395
   93DPPC   C19 4619   2.493   4.201   4.755  0.7811 -0.7320  0.3194
   93DPPC   C20 4620   2.494   4.189   4.602  0.1889 -0.0954  0.2643
   93DPPC   C21 4621   2.495   4.333   4.550 -0.1567 -0.2146 -0.0748
   93DPPC   C22 4622   2.519   4.334   4.399 -0.4175 -0.1936 -0.1170
   93DPPC   C23 4623   2.532   4.481   4.357 -0.5374 -0.0227  0.4245
   93DPPC   C24 4624   2.476   4.488   4.215  0.1870 -0.1012  0.1293
   93DPPC   C25 4625   2.535   4.617   4.156  0.4238 -0.3332 -0.1440
   93DPPC   C26 4626   2.454   4.658   4.033 -0.0613 -1.1806 -0.1136
   93DPPC   C27 4627   2.307   4.686   4.068  0.1047 -0.6218  0.1463
   93DPPC   C28 4628   2.242   4.724   3.936  0.4542  0.3029  0.2322
   93DPPC   C29 4629   2.169   4.857   3.959  0.0906  0.2058 -0.3245
   93DPPC   C30 4630   2.105   4.891   3.824 -0.3170  0.2923 -0.1103
   93DPPC   C31 4631   2.010   5.010   3.832  0.4064  0.8857 -0.2021
   93DPPC   C32 4632   3.080   4.178   5.011 -0.2209  0.2488 -0.2151
   93DPPC   O33 4633   3.136   4.187   4.880 -0.4684 -0.0426 -0.3394
   93DPPC   C34 4634   3.200   4.071   4.849 -0.1140  0.1065 -0.1665
   93DPPC   O35 4635   3.175   3.968   4.911 -0.0845  0.1370 -0.1036
   93DPPC   C36 4636   3.278   4.067   4.717  0.1680 -0.2466  0.0099
   93DPPC   C37 4637   3.374   4.184   4.694 -0.5138  0.2854 -0.1492
   93DPPC   C38 4638   3.440   4.162   4.558  0.2875  0.0437  0.2748
   93DPPC   C39 4639   3.578   4.222   4.528  0.2044 -0.1240 -0.4685
   93DPPC   C40 4640   3.626   4.208   4.384  0.0504  0.1259 -0.5451
   93DPPC   C41 4641   3.766   4.258   4.347  0.1543  0.1844 -0.0738
   93DPPC   C42 4642   3.774   4.240   4.196  0.0244  0.1656 -0.0792
   93DPPC   C43 4643   3.920   4.268   4.158  0.0065  0.3460 -0.0157
   93DPPC   C44 4644   3.938   4.246   4.008 -0.0369 -0.4470  0.0911
   93DPPC   C45 4645   4.087   4.238   3.972 -0.0357  0.2755 -0.0765
   93DPPC   C46 4646   4.161   4.370   3.995  0.1090  0.1201  0.3707
   93DPPC   C47 4647   4.113   4.478   3.898  0.1523 -0.3930 -0.2358
   93DPPC   C48 4648   4.183   4.607   3.941  0.2224 -0.6029  0.2898
   93DPPC   C49 4649   4.146   4.647   4.084 -0.1951 -0.4664  0.1448
   93DPPC   C50 4650   4.237   4.755   4.144  0.0603  0.0149 -1.0741
   94DPPC    C1 4651   2.943   5.680   4.487  0.2722  0.3306  1.0753
   94DPPC    C2 4652   3.022   5.635   4.709  0.8815 -0.6575  0.0329
   94DPPC    C3 4653   2.986   5.459   4.567 -0.3342 -0.3791  0.1568
   94DPPC    N4 4654   2.930   5.590   4.603  0.0811 -0.3136  0.5651
   94DPPC    C5 4655   2.792   5.572   4.648 -0.0103  0.0208  0.4210
   94DPPC    C6 4656   2.718   5.681   4.727 -0.3147  0.1870 -0.0855
   94DPPC    O7 4657   2.598   5.639   4.793 -0.0616 -0.1167  0.1876
   94DPPC    P8 4658   2.492   5.760   4.803  0.1451  0.1195 -0.4129
   94DPPC    O9 4659   2.369   5.709   4.869  0.1620  0.6853  0.0662
   94DPPC   O10 4660   2.571   5.869   4.864  0.4211 -0.0383 -0.4859
   94DPPC   O11 4661   2.446   5.780   4.650  0.3069 -0.2110 -0.5051
   94DPPC   C12 4662   2.311   5.736   4.637  0.1892  0.0195 -0.0856
   94DPPC   C13 4663   2.286   5.707   4.489  0.1603 -0.3575 -0.0095
   94DPPC   O14 4664   2.380   5.622   4.423  0.3298  0.0479 -0.2922
   94DPPC   C15 4665   2.402   5.490   4.448 -0.1907 -0.0118 -0.1577
   94DPPC   O16 4666   2.361   5.433   4.549 -0.3356  0.2717 -0.0556
   94DPPC   C17 4667   2.506   5.429   4.355 -0.1252  0.1027 -0.1597
   94DPPC   C18 4668   2.421   5.366   4.244 -0.0633  0.6120 -0.4970
   94DPPC   C19 4669   2.508   5.290   4.144  0.0091  0.0735 -0.0316
   94DPPC   C20 4670   2.435   5.202   4.042  0.2514 -0.0984 -0.0575
   94DPPC   C21 4671   2.537   5.119   3.965  0.0976 -0.0851 -0.2747
   94DPPC   C22 4672   2.491   5.081   3.824 -0.4741 -0.0090 -0.1117
   94DPPC   C23 4673   2.608   5.005   3.760 -0.2094  0.5660 -0.3132
   94DPPC   C24 4674   2.578   4.969   3.614  0.0732 -0.6543 -0.0795
   94DPPC   C25 4675   2.701   4.925   3.536  0.7618  0.9033  0.0924
   94DPPC   C26 4676   2.669   4.897   3.389  0.3416  0.2492  0.3055
   94DPPC   C27 4677   2.783   4.838   3.306  0.0074  0.1695 -0.1035
   94DPPC   C28 4678   2.719   4.784   3.179 -0.2052  0.1725  0.0011
   94DPPC   C29 4679   2.814   4.727   3.073 -0.3838  0.2128 -0.1818
   94DPPC   C30 4680   2.730   4.669   2.959 -0.4135 -0.0171 -0.0442
   94DPPC   C31 4681   2.654   4.786   2.895  0.6320  0.7344  0.0676
   94DPPC   C32 4682   2.269   5.843   4.420 -0.4645 -0.5579 -0.2623
   94DPPC   O33 4683   2.159   5.929   4.452 -0.2945 -0.2974 -0.3755
   94DPPC   C34 4684   2.159   6.057   4.405 -0.1427 -0.2395 -0.2161
   94DPPC   O35 4685   2.265   6.108   4.369  0.0524 -0.3745  0.1592
   94DPPC   C36 4686   2.025   6.128   4.384 -0.2363  0.0372  1.2235
   94DPPC   C37 4687   1.911   6.028   4.369  0.2347 -0.2547 -0.6017
   94DPPC   C38 4688   1.802   6.104   4.294  0.0486  0.6235  0.5505
   94DPPC   C39 4689   1.857   6.154   4.161 -0.0740  0.2815  0.3715
   94DPPC   C40 4690   1.779   6.265   4.090 -0.4418 -0.1766  0.0522
   94DPPC   C41 4691   1.834   6.287   3.949  0.3241 -0.7833  0.2532
   94DPPC   C42 4692   1.755   6.404   3.890  0.0833 -0.8925  0.3562
   94DPPC   C43 4693   1.606   6.380   3.866  0.0321 -0.3959  0.1690
   94DPPC   C44 4694   1.556   6.513   3.809  0.4812 -0.2567  0.0905
   94DPPC   C45 4695   1.454   6.483   3.699 -0.0101  0.3194  0.3778
   94DPPC   C46 4696   1.350   6.390   3.761  0.0882 -0.2091 -0.2377
   94DPPC   C47 4697   1.253   6.315   3.670 -0.4567  0.0334  0.1401
   94DPPC   C48 4698   1.323   6.196   3.604 -0.8143  0.0842 -0.3402
   94DPPC   C49 4699   1.358   6.080   3.698 -0.1191  0.5653 -0.0020
   94DPPC   C50 4700   1.441   5.978   3.620 -0.0653  0.6112 -0.0054
   95DPPC    C1 4701   2.458   6.347   4.856 -0.2628  0.3932 -0.6937
   95DPPC    C2 4702   2.480   6.177   4.715 -0.8989  0.1895  0.1645
   95DPPC    C3 4703   2.594   6.400   4.688 -0.1014 -0.2160 -0.0505
   95DPPC    N4 4704   2.562   6.284   4.773 -0.1556 -0.2343 -0.0960
   95DPPC    C5 4705   2.671   6.224   4.852 -0.2560  0.0267  0.2435
   95DPPC    C6 4706   2.768   6.138   4.772  0.1827 -0.1100  0.9174
   95DPPC    O7 4707   2.896   6.201   4.756 -0.0013  0.0795  0.1483
   95DPPC    P8 4708   2.990   6.094   4.681 -0.0717 -0.0385  0.2287
   95DPPC    O9 4709   3.127   6.148   4.667 -0.3308  0.6918  0.4311
   95DPPC   O10 4710   2.958   5.969   4.753 -0.5285 -0.4782 -0.7153
   95DPPC   O11 4711   2.902   6.099   4.546  0.1687  0.0651  0.0753
   95DPPC   C12 4712   2.937   6.203   4.453  0.1894 -0.0581 -0.0556
   95DPPC   C13 4713   2.872   6.189   4.316 -0.0555  0.0276  0.0523
   95DPPC   O14 4714   2.734   6.226   4.303  0.0032  0.3126  0.2386
   95DPPC   C15 4715   2.691   6.354   4.320 -0.2695  0.1999  0.4072
   95DPPC   O16 4716   2.755   6.438   4.383 -0.7351  0.8934 -0.0230
   95DPPC   C17 4717   2.544   6.380   4.283 -0.1456 -0.2876 -0.4514
   95DPPC   C18 4718   2.532   6.443   4.145 -0.0842  0.6623 -0.0288
   95DPPC   C19 4719   2.529   6.336   4.036 -0.3060  0.2570  0.3735
   95DPPC   C20 4720   2.381   6.311   4.007 -0.1232 -0.6270  0.1733
   95DPPC   C21 4721   2.375   6.201   3.901 -0.0011 -0.2272 -0.2460
   95DPPC   C22 4722   2.228   6.161   3.881 -0.1103  0.1835 -0.2808
   95DPPC   C23 4723   2.218   6.053   3.774 -0.0367 -0.1100  0.0075
   95DPPC   C24 4724   2.302   5.932   3.816 -0.2537 -0.2996 -0.0992
   95DPPC   C25 4725   2.313   5.844   3.691  0.3570 -0.1370 -0.1617
   95DPPC   C26 4726   2.384   5.712   3.719 -0.0367 -0.3907 -0.3549
   95DPPC   C27 4727   2.404   5.633   3.589 -0.4216 -0.3881 -0.4149
   95DPPC   C28 4728   2.477   5.499   3.604  0.2285 -0.0509 -0.5482
   95DPPC   C29 4729   2.625   5.520   3.635  0.1332 -0.5076  0.2282
   95DPPC   C30 4730   2.720   5.410   3.588 -0.1765 -0.4752 -0.4828
   95DPPC   C31 4731   2.863   5.440   3.632 -0.2542 -1.1511  0.2589
   95DPPC   C32 4732   2.912   6.051   4.265 -0.2862  0.0809 -0.2751
   95DPPC   O33 4733   3.052   6.056   4.235 -0.2503  0.7590 -0.0052
   95DPPC   C34 4734   3.099   5.943   4.176  0.2306  0.6448  0.5954
   95DPPC   O35 4735   3.041   5.835   4.176  0.7300  0.3496 -1.1773
   95DPPC   C36 4736   3.240   5.947   4.116  0.0059  0.1423  0.0199
   95DPPC   C37 4737   3.215   5.926   3.967  0.1653  0.4534 -0.0506
   95DPPC   C38 4738   3.344   5.884   3.895 -0.0779 -0.6844  0.1621
   95DPPC   C39 4739   3.328   5.881   3.743 -0.5781  0.5835  0.1720
   95DPPC   C40 4740   3.225   5.776   3.700  0.3447 -0.2339 -0.0804
   95DPPC   C41 4741   3.223   5.742   3.551  0.1179 -0.3297 -0.0551
   95DPPC   C42 4742   3.136   5.623   3.509 -0.5692  0.1262  0.0622
   95DPPC   C43 4743   3.152   5.595   3.359  0.1459  0.5764  0.0463
   95DPPC   C44 4744   3.043   5.517   3.285  0.7496  0.1090 -0.3579
   95DPPC   C45 4745   3.091   5.453   3.154 -0.2959 -0.1743 -0.6108
   95DPPC   C46 4746   2.969   5.371   3.110 -0.5035 -0.2555  0.1016
   95DPPC   C47 4747   2.964   5.240   3.190  0.9687 -1.0598 -1.0641
   95DPPC   C48 4748   2.841   5.157   3.158  0.3779 -0.3468 -0.6845
   95DPPC   C49 4749   2.715   5.243   3.170  0.8226  0.2417 -0.2005
   95DPPC   C50 4750   2.589   5.183   3.107  0.8352  0.4188 -0.3971
   96DPPC    C1 4751   2.243   0.829   4.738 -0.1400 -0.0304 -0.4851
   96DPPC    C2 4752   2.179   0.696   4.924 -0.6361  0.5518 -0.4376
   96DPPC    C3 4753   2.183   0.934   4.942 -0.3892  0.0621 -0.6698
   96DPPC    N4 4754   2.252   0.817   4.885 -0.0274  0.1807 -0.4752
   96DPPC    C5 4755   2.397   0.820   4.908 -0.0968 -0.2767  0.0259
   96DPPC    C6 4756   2.486   0.702   4.871  0.5352 -0.0098  0.6574
   96DPPC    O7 4757   2.621   0.729   4.909  0.4248 -0.0256  1.0575
   96DPPC    P8 4758   2.721   0.617   4.850 -0.0183 -0.0712  0.3842
   96DPPC    O9 4759   2.860   0.663   4.868  0.1083 -0.2375 -0.1810
   96DPPC   O10 4760   2.687   0.478   4.886 -0.0324 -0.2291 -0.2322
   96DPPC   O11 4761   2.709   0.621   4.690 -0.0194 -0.0397  0.3849
   96DPPC   C12 4762   2.802   0.528   4.635  0.0813  0.3057 -0.0342
   96DPPC   C13 4763   2.823   0.550   4.485  0.8885 -0.4017 -0.0344
   96DPPC   O14 4764   2.941   0.484   4.437  0.6496 -0.6433 -0.2949
   96DPPC   C15 4765   3.072   0.500   4.470  0.3730  0.6403  0.2688
   96DPPC   O16 4766   3.119   0.572   4.557  0.1687 -0.3862  1.2567
   96DPPC   C17 4767   3.176   0.436   4.377 -0.1665  0.1262  0.0116
   96DPPC   C18 4768   3.126   0.440   4.232  0.2569 -0.2198 -0.1464
   96DPPC   C19 4769   3.145   0.583   4.181  0.7003 -0.2304 -0.0128
   96DPPC   C20 4770   3.108   0.601   4.034 -0.4185  0.4312  0.3411
   96DPPC   C21 4771   2.965   0.545   4.025 -0.2454 -0.0285  0.4407
   96DPPC   C22 4772   2.922   0.529   3.879  1.0475  0.1441  0.0252
   96DPPC   C23 4773   2.880   0.660   3.812 -0.0887 -0.2223 -0.0072
   96DPPC   C24 4774   2.872   0.640   3.660 -0.1660 -0.1773 -0.0088
   96DPPC   C25 4775   3.011   0.620   3.600  0.0125  0.2581  0.2491
   96DPPC   C26 4776   3.091   0.750   3.599  0.1187  0.1941  0.5148
   96DPPC   C27 4777   3.240   0.731   3.571  0.0481  0.4103 -0.0178
   96DPPC   C28 4778   3.311   0.864   3.593  0.6601  0.1609 -0.4683
   96DPPC   C29 4779   3.240   0.965   3.503 -0.1206  0.1246  0.1025
   96DPPC   C30 4780   3.276   1.106   3.550  0.6484 -0.0761  0.1325
   96DPPC   C31 4781   3.213   1.214   3.461 -0.5227 -0.5218  0.3919
   96DPPC   C32 4782   2.829   0.703   4.473  0.1256 -0.3729 -0.1029
   96DPPC   O33 4783   2.730   0.763   4.390  0.1762  0.1510  0.2119
   96DPPC   C34 4784   2.742   0.897   4.372  0.2479  0.1165 -0.0046
   96DPPC   O35 4785   2.824   0.966   4.432  0.2863  0.3720 -0.3520
   96DPPC   C36 4786   2.656   0.959   4.261 -0.5992  0.0053  0.5758
   96DPPC   C37 4787   2.572   0.855   4.187 -0.4081 -0.1794  0.6158
   96DPPC   C38 4788   2.477   0.923   4.089  0.2821  0.2304  0.2259
   96DPPC   C39 4789   2.384   1.006   4.178  0.3148  0.1520  0.3331
   96DPPC   C40 4790   2.331   1.121   4.092 -0.6274 -0.1193  0.5366
   96DPPC   C41 4791   2.223   1.082   3.991 -0.4229 -0.1322  0.3220
   96DPPC   C42 4792   2.186   1.205   3.907 -0.1462 -0.3266 -0.0878
   96DPPC   C43 4793   2.289   1.255   3.806 -0.4865 -0.9983 -0.7783
   96DPPC   C44 4794   2.218   1.366   3.729  0.7485  0.7847  0.5785
   96DPPC   C45 4795   2.315   1.442   3.639  0.7724 -0.4145 -0.4331
   96DPPC   C46 4796   2.252   1.554   3.556  0.0179 -0.6216 -0.1507
   96DPPC   C47 4797   2.334   1.610   3.439 -0.5172 -0.6996 -0.5652
   96DPPC   C48 4798   2.232   1.679   3.348 -0.6203 -0.0361  0.0416
   96DPPC   C49 4799   2.298   1.782   3.256 -0.3904 -0.6191 -0.4485
   96DPPC   C50 4800   2.185   1.857   3.185 -0.3712 -0.1069  0.0582
   97DPPC    C1 4801   1.098   1.965   5.206  0.0365  0.0632  0.1064
   97DPPC    C2 4802   1.159   2.006   5.432 -0.8645  0.1819 -0.0081
   97DPPC    C3 4803   1.096   2.189   5.286 -0.4924 -0.3664 -0.4475
   97DPPC    N4 4804   1.166   2.060   5.295  0.2248  0.0475 -0.0188
   97DPPC    C5 4805   1.306   2.076   5.253  0.0980  0.3830 -0.3240
   97DPPC    C6 4806   1.393   1.953   5.229  0.0913  0.2823  0.1575
   97DPPC    O7 4807   1.526   1.981   5.184 -0.0180 -0.0126 -0.3603
   97DPPC    P8 4808   1.612   1.845   5.189  0.1895  0.1343  0.1222
   97DPPC    O9 4809   1.748   1.902   5.179 -0.0539  0.6200 -0.4622
   97DPPC   O10 4810   1.557   1.778   5.310 -0.4143  0.2637 -0.0766
   97DPPC   O11 4811   1.555   1.776   5.055  0.2104  0.5902 -0.1212
   97DPPC   C12 4812   1.598   1.864   4.950 -0.3899  0.3516 -0.5705
   97DPPC   C13 4813   1.562   1.799   4.816 -0.0758  0.0321 -0.5024
   97DPPC   O14 4814   1.650   1.845   4.712  0.4296  0.4036  0.0826
   97DPPC   C15 4815   1.645   1.768   4.600  0.5127 -0.1834  0.4727
   97DPPC   O16 4816   1.641   1.646   4.614 -0.1094 -0.2397 -0.1714
   97DPPC   C17 4817   1.728   1.825   4.485 -0.1773  0.5817  0.3436
   97DPPC   C18 4818   1.734   1.751   4.351 -0.0291  0.3203  0.4923
   97DPPC   C19 4819   1.785   1.844   4.240 -0.0441 -0.0716  0.1570
   97DPPC   C20 4820   1.819   1.762   4.115 -0.0907  0.1524 -0.0017
   97DPPC   C21 4821   1.872   1.842   3.996 -0.2439 -0.0461 -0.2035
   97DPPC   C22 4822   1.895   1.744   3.880  0.2888  0.0281 -0.1635
   97DPPC   C23 4823   1.952   1.796   3.748  0.1997 -0.0537 -0.2349
   97DPPC   C24 4824   1.847   1.849   3.650  0.1400 -0.6725 -0.5075
   97DPPC   C25 4825   1.908   1.930   3.536 -0.0684 -0.1179 -0.2332
   97DPPC   C26 4826   1.795   1.970   3.441  0.2327  0.7615 -0.2279
   97DPPC   C27 4827   1.697   2.074   3.496 -0.9003 -0.4573  0.1268
   97DPPC   C28 4828   1.574   2.074   3.406 -0.7160  0.0116 -0.1289
   97DPPC   C29 4829   1.466   2.175   3.445 -0.7675 -0.1345  0.1042
   97DPPC   C30 4830   1.358   2.185   3.337 -0.4595 -0.0546 -0.1992
   97DPPC   C31 4831   1.296   2.045   3.325 -0.4434 -0.0475 -0.3665
   97DPPC   C32 4832   1.412   1.825   4.799 -0.2141 -0.1277  0.4132
   97DPPC   O33 4833   1.377   1.963   4.809 -0.5059 -0.1578 -0.1311
   97DPPC   C34 4834   1.255   1.997   4.761 -0.3646  0.4469 -0.0695
   97DPPC   O35 4835   1.159   1.920   4.762 -0.3078  0.3767  0.0756
   97DPPC   C36 4836   1.225   2.147   4.768  0.4883  0.6362 -0.4278
   97DPPC   C37 4837   1.113   2.202   4.680 -0.2104  0.0898  0.1100
   97DPPC   C38 4838   1.163   2.215   4.536 -0.2597  0.1722  0.0997
   97DPPC   C39 4839   1.057   2.257   4.434 -0.2744 -0.5799 -0.2016
   97DPPC   C40 4840   0.984   2.391   4.446  0.3407 -0.2780  0.1945
   97DPPC   C41 4841   0.866   2.395   4.349  0.0847  0.1401  0.5176
   97DPPC   C42 4842   0.791   2.528   4.350 -0.0595  0.0611  0.2739
   97DPPC   C43 4843   0.723   2.548   4.486 -0.4501  0.4236  0.0284
   97DPPC   C44 4844   0.612   2.651   4.468 -1.1221 -0.2650  0.2091
   97DPPC   C45 4845   0.668   2.775   4.398 -0.8808 -0.1551  0.5957
   97DPPC   C46 4846   0.562   2.884   4.400 -0.2421  0.4700  0.7108
   97DPPC   C47 4847   0.609   2.996   4.306  0.0707 -0.2168  0.0431
   97DPPC   C48 4848   0.501   3.104   4.308 -0.0070 -0.2966  0.2206
   97DPPC   C49 4849   0.413   3.073   4.186 -0.0417  0.5014  0.0399
   97DPPC   C50 4850   0.300   3.177   4.178 -0.1122  0.4184 -0.0356
   98DPPC    C1 4851   4.702   2.149   5.033 -0.0813  0.2828 -0.0080
   98DPPC    C2 4852   4.913   2.205   5.139 -0.3583 -0.6295 -0.5445
   98DPPC    C3 4853   4.738   2.348   5.152 -0.5793  0.3726 -0.0963
   98DPPC    N4 4854   4.767   2.204   5.153 -0.3206  0.4252  0.0577
   98DPPC    C5 4855   4.713   2.159   5.282 -0.7710  0.1172 -0.2350
   98DPPC    C6 4856   4.690   2.010   5.305  0.1942  0.0011  0.0221
   98DPPC    O7 4857   4.811   1.934   5.303  0.2423  0.0739  0.1962
   98DPPC    P8 4858   4.786   1.775   5.311 -0.3936  0.1602 -0.0140
   98DPPC    O9 4859   4.919   1.712   5.329 -0.5005 -0.1224 -0.2147
   98DPPC   O10 4860   4.665   1.753   5.394  0.0852 -0.1647  0.6100
   98DPPC   O11 4861   4.748   1.751   5.157 -0.0346  0.1914 -0.1090
   98DPPC   C12 4862   4.869   1.745   5.082  0.0236 -0.0531  0.0056
   98DPPC   C13 4863   4.863   1.703   4.934 -0.0179 -0.0031 -0.0065
   98DPPC   O14 4864   4.983   1.717   4.857 -0.0322  0.1323 -0.0059
   98DPPC   C15 4865   5.100   1.649   4.871 -0.0183  0.1784  0.1081
   98DPPC   O16 4866   5.101   1.541   4.930 -0.0529  0.0269 -0.1637
   98DPPC   C17 4867   5.218   1.707   4.792  0.0948 -0.1764  0.0153
   98DPPC   C18 4868   5.253   1.622   4.670 -0.2793 -0.5289  0.1497
   98DPPC   C19 4869   5.387   1.669   4.614 -0.3249 -0.8158 -0.2097
   98DPPC   C20 4870   5.428   1.589   4.490  0.1720 -0.4916 -0.2598
   98DPPC   C21 4871   5.545   1.645   4.409  0.0452 -0.0493 -0.1420
   98DPPC   C22 4872   5.661   1.681   4.502  0.1740 -0.6049 -0.0822
   98DPPC   C23 4873   5.765   1.780   4.450 -0.3603  0.0841  0.1388
   98DPPC   C24 4874   5.819   1.738   4.313  0.0278 -0.5974  0.4970
   98DPPC   C25 4875   5.892   1.845   4.232 -0.9445 -0.6288 -0.4399
   98DPPC   C26 4876   5.951   1.774   4.110  0.0051 -0.3370 -0.1529
   98DPPC   C27 4877   5.979   1.878   4.001 -0.5518 -0.2665 -0.2310
   98DPPC   C28 4878   6.049   1.807   3.884  0.0972  0.0898 -0.0621
   98DPPC   C29 4879   6.077   1.912   3.776  0.4099  0.5689  0.4730
   98DPPC   C30 4880   6.213   1.885   3.711  0.1659  0.3722  0.0357
   98DPPC   C31 4881   6.207   1.744   3.650  0.2103  0.3898 -0.0084
   98DPPC   C32 4882   4.737   1.775   4.885 -0.3510 -0.5328  0.0642
   98DPPC   O33 4883   4.692   1.725   4.759 -0.0938 -0.0885 -0.2069
   98DPPC   C34 4884   4.575   1.784   4.724  0.0200  0.2492 -0.0246
   98DPPC   O35 4885   4.500   1.852   4.794 -0.9915 -0.5878 -0.2673
   98DPPC   C36 4886   4.533   1.757   4.579  0.5286  0.4004 -0.2019
   98DPPC   C37 4887   4.554   1.862   4.470 -0.3295  0.3807 -0.3928
   98DPPC   C38 4888   4.532   1.797   4.333  0.2061 -0.0991 -0.2554
   98DPPC   C39 4889   4.567   1.899   4.223 -0.1056  0.1755 -0.1009
   98DPPC   C40 4890   4.713   1.944   4.231 -0.0260 -0.1271  0.1771
   98DPPC   C41 4891   4.741   2.042   4.117 -0.5521  0.1473  0.2826
   98DPPC   C42 4892   4.887   2.083   4.137 -0.6309  0.4433  0.2554
   98DPPC   C43 4893   4.948   2.159   4.019  0.4931 -0.3572  0.3084
   98DPPC   C44 4894   5.095   2.198   4.042  0.4382 -0.0144  0.0901
   98DPPC   C45 4895   5.136   2.306   3.943  0.1898 -0.1242 -0.1342
   98DPPC   C46 4896   5.126   2.250   3.801  0.5511 -0.0359 -0.1958
   98DPPC   C47 4897   5.187   2.350   3.702  0.6851  0.2952  0.2178
   98DPPC   C48 4898   5.120   2.487   3.710  0.1464  0.0531 -0.1179
   98DPPC   C49 4899   5.192   2.582   3.614  0.5208  0.0108  0.1183
   98DPPC   C50 4900   5.187   2.539   3.468 -0.8339 -0.2940  0.2398
   99DPPC    C1 4901   2.056   3.686   5.717  0.0033  0.3340 -0.4727
   99DPPC    C2 4902   2.265   3.742   5.820 -0.6136  0.2747  0.0469
   99DPPC    C3 4903   2.132   3.545   5.872 -0.3359  0.8604  0.2433
   99DPPC    N4 4904   2.184   3.632   5.766 -0.1575  0.1047 -0.3000
   99DPPC    C5 4905   2.260   3.558   5.665  0.1189 -0.2073  0.1305
   99DPPC    C6 4906   2.290   3.640   5.539  0.2556 -0.3688  0.0578
   99DPPC    O7 4907   2.335   3.570   5.423  0.5915 -0.5298  0.2854
   99DPPC    P8 4908   2.427   3.660   5.327 -0.3636 -0.0503 -0.1943
   99DPPC    O9 4909   2.316   3.737   5.267 -0.5272  0.2214  0.4497
   99DPPC   O10 4910   2.516   3.717   5.431  0.0450 -0.0983 -0.5134
   99DPPC   O11 4911   2.468   3.540   5.228  0.0699  0.3288 -0.4805
   99DPPC   C12 4912   2.470   3.597   5.097 -0.3612  0.3316 -0.4865
   99DPPC   C13 4913   2.377   3.530   4.995 -0.5751 -0.2949  0.1120
   99DPPC   O14 4914   2.400   3.583   4.864  0.5221 -0.0320  0.4028
   99DPPC   C15 4915   2.516   3.567   4.795  0.0433 -0.4329 -0.3163
   99DPPC   O16 4916   2.606   3.505   4.851 -0.1283  0.1498  0.6235
   99DPPC   C17 4917   2.538   3.632   4.658  0.2547  0.5583  0.1810
   99DPPC   C18 4918   2.427   3.612   4.555 -0.0812  0.7847  0.4955
   99DPPC   C19 4919   2.469   3.697   4.434 -0.0469 -0.3657 -0.3187
   99DPPC   C20 4920   2.351   3.717   4.340  0.1429 -0.8755 -0.6751
   99DPPC   C21 4921   2.391   3.795   4.215 -0.1874 -0.2689 -0.4111
   99DPPC   C22 4922   2.281   3.869   4.139 -0.2065  0.3956  0.2582
   99DPPC   C23 4923   2.329   3.899   3.997 -0.0403 -0.2129  0.1859
   99DPPC   C24 4924   2.235   3.989   3.918 -0.2729 -0.1653  0.5138
   99DPPC   C25 4925   2.316   4.038   3.798 -0.6789  0.1234  0.3539
   99DPPC   C26 4926   2.243   4.149   3.721 -0.0321  0.3433  0.0494
   99DPPC   C27 4927   2.263   4.290   3.778  0.4203  0.6036 -0.7365
   99DPPC   C28 4928   2.211   4.388   3.673 -0.0783  0.5200 -0.5697
   99DPPC   C29 4929   2.058   4.392   3.662 -0.1612  0.0015  0.2908
   99DPPC   C30 4930   1.995   4.479   3.553  0.1581  0.0278  0.1255
   99DPPC   C31 4931   2.055   4.618   3.577 -0.4277  0.3982 -0.5195
   99DPPC   C32 4932   2.232   3.542   5.043 -0.3541  0.1589  0.6873
   99DPPC   O33 4933   2.141   3.487   4.947 -0.0746  0.0424  0.4872
   99DPPC   C34 4934   2.008   3.489   4.979 -0.2098 -0.2910 -0.0463
   99DPPC   O35 4935   1.971   3.508   5.094  0.5051 -0.3788  0.2013
   99DPPC   C36 4936   1.920   3.447   4.861 -0.0125 -0.1300 -0.2524
   99DPPC   C37 4937   1.978   3.471   4.721  0.3844 -0.2569 -0.1111
   99DPPC   C38 4938   1.878   3.467   4.606  0.5198 -0.0139 -0.2391
   99DPPC   C39 4939   1.956   3.501   4.479  0.0147 -0.1177 -0.5825
   99DPPC   C40 4940   1.872   3.493   4.352 -0.0277 -0.1576 -0.5519
   99DPPC   C41 4941   1.970   3.540   4.243  0.2614 -0.1154 -0.2750
   99DPPC   C42 4942   1.898   3.544   4.108 -0.3086  0.8321  0.0458
   99DPPC   C43 4943   1.997   3.585   3.999 -0.5152  0.2464 -0.3676
   99DPPC   C44 4944   1.919   3.571   3.868 -0.8308 -0.2115 -0.1323
   99DPPC   C45 4945   2.008   3.610   3.751 -0.3508  0.0155  0.3065
   99DPPC   C46 4946   1.935   3.594   3.618 -0.4132  0.1900  0.3191
   99DPPC   C47 4947   2.003   3.663   3.500 -0.6444  0.2003  0.1919
   99DPPC   C48 4948   1.999   3.810   3.543  0.1833  0.2553  0.0831
   99DPPC   C49 4949   2.064   3.888   3.429  0.3337 -0.0519 -0.0439
   99DPPC   C50 4950   2.055   4.040   3.445  0.0354 -0.0585 -0.1486
  100DPPC    C1 4951   4.726   3.706   5.346 -0.3876 -0.5014  0.2106
  100DPPC    C2 4952   4.932   3.797   5.408  0.2092 -0.2156 -0.2254
  100DPPC    C3 4953   4.924   3.600   5.272 -0.5257  0.1654 -0.6212
  100DPPC    N4 4954   4.862   3.731   5.297 -0.5296  0.0329  0.0834
  100DPPC    C5 4955   4.868   3.807   5.172  0.4022  0.1829  0.2098
  100DPPC    C6 4956   4.790   3.938   5.156  0.1494  0.0435  0.2888
  100DPPC    O7 4957   4.835   4.052   5.231  0.6970 -0.0042  0.0349
  100DPPC    P8 4958   4.785   4.190   5.166  0.3707 -0.0187  0.2531
  100DPPC    O9 4959   4.652   4.160   5.108  0.0193  0.8570  0.5949
  100DPPC   O10 4960   4.802   4.295   5.268  0.0446  0.3564 -0.0767
  100DPPC   O11 4961   4.887   4.214   5.044 -0.1926  0.1483 -0.1920
  100DPPC   C12 4962   4.854   4.171   4.912 -0.0323 -0.2948 -0.0887
  100DPPC   C13 4963   4.946   4.212   4.796 -0.1453 -0.0279 -0.0840
  100DPPC   O14 4964   4.899   4.231   4.662 -0.0418  0.1538 -0.0955
  100DPPC   C15 4965   4.872   4.123   4.584  0.0909 -0.2153  0.3650
  100DPPC   O16 4966   4.852   4.010   4.629 -0.8242 -0.2329 -0.0529
  100DPPC   C17 4967   4.843   4.175   4.443 -0.0329 -0.0806  0.4404
  100DPPC   C18 4968   4.972   4.182   4.360 -0.0052 -0.5045  0.4437
  100DPPC   C19 4969   4.929   4.215   4.217 -0.2912  0.1441  0.6728
  100DPPC   C20 4970   5.043   4.223   4.115 -0.4209  0.6139  0.5656
  100DPPC   C21 4971   5.000   4.214   3.968 -0.1133 -0.2033  0.5212
  100DPPC   C22 4972   5.117   4.232   3.872 -0.8837 -0.4994 -0.4905
  100DPPC   C23 4973   5.232   4.142   3.917 -0.2773  0.3951 -0.2009
  100DPPC   C24 4974   5.348   4.222   3.858  0.2912 -0.0931  0.2394
  100DPPC   C25 4975   5.347   4.258   3.710  0.4322 -0.4556  0.1500
  100DPPC   C26 4976   5.479   4.324   3.672  0.1132  0.0132 -0.1622
  100DPPC   C27 4977   5.479   4.392   3.534 -0.4711  0.2177 -0.0624
  100DPPC   C28 4978   5.375   4.503   3.528  0.0059  0.6992  0.4816
  100DPPC   C29 4979   5.378   4.561   3.387  0.6097 -0.1605  0.1381
  100DPPC   C30 4980   5.300   4.692   3.374  0.3680 -0.3504 -0.3875
  100DPPC   C31 4981   5.306   4.771   3.243 -0.0148 -0.2761 -0.3599
  100DPPC   C32 4982   5.075   4.135   4.822  0.2015  0.5393 -0.1135
  100DPPC   O33 4983   5.177   4.172   4.729  0.3066  0.3120 -0.0889
  100DPPC   C34 4984   5.281   4.085   4.713 -0.0418 -0.1644  0.2196
  100DPPC   O35 4985   5.306   4.007   4.805 -0.4937 -0.3734  0.1686
  100DPPC   C36 4986   5.359   4.113   4.584  0.0457  0.0109  0.3104
  100DPPC   C37 4987   5.307   4.045   4.457 -0.0521  0.3685  0.1580
  100DPPC   C38 4988   5.381   4.097   4.334  0.3563 -0.1938  0.1636
  100DPPC   C39 4989   5.491   3.999   4.290 -0.2950 -0.6951 -0.3702
  100DPPC   C40 4990   5.537   4.046   4.152 -0.6597  0.1518 -0.2102
  100DPPC   C41 4991   5.601   4.183   4.178 -0.1949  0.0461 -0.7953
  100DPPC   C42 4992   5.623   4.280   4.062  0.3416  0.8189 -0.0573
  100DPPC   C43 4993   5.750   4.254   3.980  0.3777 -0.3459  0.3547
  100DPPC   C44 4994   5.792   4.365   3.883 -0.0844 -0.3414  0.1580
  100DPPC   C45 4995   5.916   4.325   3.803  0.1665  0.1381  0.3094
  100DPPC   C46 4996   5.906   4.191   3.730  0.4898  0.2733  0.0142
  100DPPC   C47 4997   6.037   4.147   3.664  0.0773 -1.1278  0.1096
  100DPPC   C48 4998   6.076   4.247   3.556 -0.2799 -0.4508  0.6053
  100DPPC   C49 4999   6.225   4.220   3.531 -0.1956  0.2630  0.3055
  100DPPC   C50 5000   6.290   4.326   3.441  0.2290  0.0688  0.3839
  101DPPC    C1 5001   0.415   1.539   5.142 -0.5902 -0.1855 -0.1068
  101DPPC    C2 5002   0.376   1.453   5.359  0.1037  0.2946 -0.6012
  101DPPC    C3 5003   0.403   1.679   5.340 -0.0326 -0.5032  0.5119
  101DPPC    N4 5004   0.453   1.553   5.283  0.5179  0.1165 -0.4230
  101DPPC    C5 5005   0.597   1.554   5.311  0.2884  0.4938  0.7995
  101DPPC    C6 5006   0.678   1.429   5.277 -0.0980  0.2135  0.9032
  101DPPC    O7 5007   0.819   1.433   5.302  0.1838  0.0997 -0.5780
  101DPPC    P8 5008   0.875   1.284   5.277 -0.0321 -0.0371 -0.2614
  101DPPC    O9 5009   1.019   1.261   5.304 -0.1693  0.1822  0.7079
  101DPPC   O10 5010   0.772   1.206   5.349  0.5611 -0.1261  0.5129
  101DPPC   O11 5011   0.844   1.271   5.120 -0.1235  0.4230 -0.2819
  101DPPC   C12 5012   0.963   1.299   5.047 -0.2037  0.5720 -0.3575
  101DPPC   C13 5013   0.950   1.280   4.896  0.1270  0.0296 -0.3201
  101DPPC   O14 5014   1.072   1.305   4.824  0.0565 -0.0731 -0.4774
  101DPPC   C15 5015   1.119   1.432   4.808 -0.0802  0.0964  0.3816
  101DPPC   O16 5016   1.093   1.528   4.880  0.2598  0.2628  0.2836
  101DPPC   C17 5017   1.233   1.446   4.707 -0.6587  0.1413 -0.2769
  101DPPC   C18 5018   1.184   1.531   4.590 -0.8419  0.3979 -0.0172
  101DPPC   C19 5019   1.300   1.602   4.520 -0.5745 -0.1183 -0.1015
  101DPPC   C20 5020   1.249   1.697   4.412  0.0274  0.3107 -0.0183
  101DPPC   C21 5021   1.363   1.791   4.374  0.1465  0.2979  0.3094
  101DPPC   C22 5022   1.306   1.892   4.275  0.1666 -0.0046 -0.0125
  101DPPC   C23 5023   1.416   1.981   4.216  0.0802 -0.2054 -0.4821
  101DPPC   C24 5024   1.357   2.052   4.094 -0.2537 -0.2283 -0.3357
  101DPPC   C25 5025   1.464   2.138   4.027 -0.2938 -0.1836 -0.3423
  101DPPC   C26 5026   1.391   2.192   3.903 -0.1673 -0.1624 -0.4075
  101DPPC   C27 5027   1.462   2.314   3.843 -0.1959  0.3681  0.6145
  101DPPC   C28 5028   1.370   2.384   3.743  0.1881 -0.6256 -0.4577
  101DPPC   C29 5029   1.447   2.494   3.670 -0.5162  0.0106 -0.2561
  101DPPC   C30 5030   1.343   2.531   3.564 -0.4068  0.4315 -0.2157
  101DPPC   C31 5031   1.385   2.657   3.488  0.8648  0.1667  0.0246
  101DPPC   C32 5032   0.839   1.379   4.860  0.1918  0.2866  0.1777
  101DPPC   O33 5033   0.795   1.410   4.728  0.1723 -0.2589  0.0505
  101DPPC   C34 5034   0.706   1.513   4.719 -0.1636 -0.5403  0.1383
  101DPPC   O35 5035   0.652   1.566   4.816  0.2693 -0.3704  0.2892
  101DPPC   C36 5036   0.668   1.545   4.575  0.5673 -0.2412  0.0081
  101DPPC   C37 5037   0.686   1.695   4.546 -0.2516 -0.0534  0.4426
  101DPPC   C38 5038   0.698   1.722   4.396  0.7520 -0.2549  0.4831
  101DPPC   C39 5039   0.750   1.862   4.362  0.1916 -0.2199 -0.2325
  101DPPC   C40 5040   0.766   1.880   4.211  0.0625  0.0790 -0.2118
  101DPPC   C41 5041   0.830   2.014   4.175  0.0083  0.2675  0.3787
  101DPPC   C42 5042   0.784   2.050   4.033  0.6065 -0.2579  0.0467
  101DPPC   C43 5043   0.828   2.192   3.999 -0.1834  0.0658  0.3719
  101DPPC   C44 5044   0.979   2.207   4.013 -0.0507 -0.3105 -0.6102
  101DPPC   C45 5045   1.007   2.356   3.995 -0.0209 -0.2486 -0.0658
  101DPPC   C46 5046   0.995   2.395   3.847 -0.2809  0.0212  0.0262
  101DPPC   C47 5047   1.000   2.548   3.847 -0.1753  0.0175 -0.1028
  101DPPC   C48 5048   0.892   2.596   3.944 -0.5260 -0.5348 -0.2148
  101DPPC   C49 5049   0.884   2.748   3.963  0.2865 -0.4536 -0.4775
  101DPPC   C50 5050   1.024   2.799   3.998  0.1507 -0.2577 -0.2201
  102DPPC    C1 5051   0.913   3.083   5.031 -0.2966  0.3211 -0.3065
  102DPPC    C2 5052   0.992   3.210   5.208  0.1272  0.2911  0.1146
  102DPPC    C3 5053   1.149   3.057   5.085 -0.0860  0.2837  0.4834
  102DPPC    N4 5054   1.014   3.083   5.138 -0.3562  0.4050 -0.2502
  102DPPC    C5 5055   0.993   2.985   5.245  0.4777  0.4377 -0.0487
  102DPPC    C6 5056   1.015   2.838   5.209 -0.1062  0.2257  0.4433
  102DPPC    O7 5057   0.980   2.755   5.320  0.0753  0.2973  0.5545
  102DPPC    P8 5058   1.036   2.611   5.274 -0.0715  0.3284  0.2716
  102DPPC    O9 5059   1.182   2.623   5.253 -0.1675  0.8043 -0.1441
  102DPPC   O10 5060   0.971   2.508   5.359  0.0556 -0.0108 -0.0399
  102DPPC   O11 5061   0.965   2.596   5.131  0.2112  0.0981  0.1550
  102DPPC   C12 5062   1.057   2.524   5.048 -0.2595 -0.2943 -0.0284
  102DPPC   C13 5063   1.019   2.518   4.900 -0.5172 -0.6032  0.0484
  102DPPC   O14 5064   1.086   2.620   4.823 -0.4597 -0.4993  0.2352
  102DPPC   C15 5065   1.062   2.753   4.818  0.3044 -0.3482  0.4835
  102DPPC   O16 5066   0.993   2.814   4.900  0.5467  0.2830  0.2252
  102DPPC   C17 5067   1.113   2.828   4.694 -0.4045  0.2252  0.5289
  102DPPC   C18 5068   1.037   2.785   4.568  0.0642 -0.1866  0.3825
  102DPPC   C19 5069   1.096   2.863   4.450  0.2767 -0.4113  0.3398
  102DPPC   C20 5070   1.222   2.800   4.391  0.2044  0.0452 -0.3132
  102DPPC   C21 5071   1.202   2.669   4.315 -0.1026 -0.2225  0.2233
  102DPPC   C22 5072   1.334   2.621   4.255 -0.1473  0.0196 -0.0715
  102DPPC   C23 5073   1.390   2.721   4.153 -0.1315  0.0093 -0.0729
  102DPPC   C24 5074   1.479   2.650   4.051  0.7119  0.2589  0.4799
  102DPPC   C25 5075   1.526   2.759   3.955 -0.1478  0.2242  0.0135
  102DPPC   C26 5076   1.410   2.841   3.898 -0.0904  0.0442 -0.3658
  102DPPC   C27 5077   1.452   2.911   3.768  0.1701  0.5596 -0.0060
  102DPPC   C28 5078   1.336   2.987   3.703  0.0340  0.2505 -0.1255
  102DPPC   C29 5079   1.275   3.082   3.806 -0.2447 -0.1294  0.0600
  102DPPC   C30 5080   1.162   3.166   3.744 -0.5800 -0.5076  0.1560
  102DPPC   C31 5081   1.099   3.268   3.838 -0.6564 -0.4019 -0.0109
  102DPPC   C32 5082   0.867   2.515   4.883 -0.5867 -0.4964  0.6485
  102DPPC   O33 5083   0.812   2.387   4.853 -0.3992 -0.2071 -1.0180
  102DPPC   C34 5084   0.676   2.372   4.859 -0.3932  0.1509  0.3909
  102DPPC   O35 5085   0.608   2.467   4.897  0.3198  0.7686  0.1707
  102DPPC   C36 5086   0.609   2.239   4.826 -0.5464  0.4106 -0.3794
  102DPPC   C37 5087   0.587   2.223   4.676 -0.2607  0.1960 -0.4009
  102DPPC   C38 5088   0.493   2.104   4.656  0.4211 -0.4423  0.1640
  102DPPC   C39 5089   0.476   2.081   4.505  0.0767  0.3118  0.0846
  102DPPC   C40 5090   0.366   1.978   4.477  0.0876  0.3869 -0.2338
  102DPPC   C41 5091   0.369   1.964   4.325 -0.0064 -0.2712 -0.1779
  102DPPC   C42 5092   0.253   1.881   4.269  0.1380 -0.0999 -0.7395
  102DPPC   C43 5093   0.241   1.891   4.117  0.1836  0.3891 -0.7105
  102DPPC   C44 5094   0.369   1.851   4.043  0.1835 -0.2215 -0.3845
  102DPPC   C45 5095   0.345   1.787   3.907 -0.0346 -0.0850 -0.4112
  102DPPC   C46 5096   0.479   1.790   3.833 -0.0692  0.1472 -0.4638
  102DPPC   C47 5097   0.525   1.934   3.811 -0.2441  0.2160 -0.3760
  102DPPC   C48 5098   0.438   2.020   3.718 -0.1249 -0.0355 -0.7206
  102DPPC   C49 5099   0.472   2.169   3.707  0.4800 -0.0705  0.4789
  102DPPC   C50 5100   0.616   2.174   3.658  0.3552  1.1080  0.2132
  103DPPC    C1 5101   1.501   3.194   5.291 -0.1762 -0.5613 -0.2071
  103DPPC    C2 5102   1.686   3.317   5.182  0.1320 -0.2245  0.3159
  103DPPC    C3 5103   1.645   3.087   5.143 -0.4821  0.0566  0.2752
  103DPPC    N4 5104   1.580   3.216   5.169 -0.2641  0.2448 -0.1193
  103DPPC    C5 5105   1.500   3.241   5.048 -0.1884  0.3346 -0.1517
  103DPPC    C6 5106   1.414   3.366   5.068 -0.0026  0.5366 -0.6141
  103DPPC    O7 5107   1.275   3.343   5.093  0.2436  0.0016  0.2876
  103DPPC    P8 5108   1.218   3.493   5.108  0.0047 -0.0858  0.2562
  103DPPC    O9 5109   1.074   3.515   5.133  0.0400 -0.4353  0.7927
  103DPPC   O10 5110   1.318   3.571   5.184  0.0972 -0.2416  0.2957
  103DPPC   O11 5111   1.232   3.546   4.957  0.3329  0.3030  0.4224
  103DPPC   C12 5112   1.115   3.509   4.884  0.7912 -0.0584 -0.1401
  103DPPC   C13 5113   1.144   3.485   4.736  0.0129  0.2358 -0.3476
  103DPPC   O14 5114   1.239   3.383   4.701 -0.0853  0.0439 -0.0513
  103DPPC   C15 5115   1.224   3.251   4.730 -0.0373 -0.0806 -0.5839
  103DPPC   O16 5116   1.136   3.215   4.809  0.1402  0.6879 -0.0275
  103DPPC   C17 5117   1.345   3.162   4.702  0.1675  0.0215 -0.0443
  103DPPC   C18 5118   1.358   3.127   4.553  0.1956 -0.1247 -0.0080
  103DPPC   C19 5119   1.423   3.241   4.475  0.2143 -0.1149  0.0221
  103DPPC   C20 5120   1.407   3.236   4.323 -0.4283  0.1242  0.0789
  103DPPC   C21 5121   1.507   3.319   4.243  0.3076 -0.6184  0.2088
  103DPPC   C22 5122   1.484   3.302   4.093  0.9273 -0.2745  0.0722
  103DPPC   C23 5123   1.557   3.417   4.023  0.0114  0.3468  0.1189
  103DPPC   C24 5124   1.514   3.436   3.878 -0.1951  0.1695  0.1562
  103DPPC   C25 5125   1.559   3.570   3.818 -0.0201  0.2351  0.4342
  103DPPC   C26 5126   1.509   3.563   3.674  0.3406  0.1239  0.3151
  103DPPC   C27 5127   1.546   3.428   3.612  0.0347  0.2817 -0.2222
  103DPPC   C28 5128   1.519   3.414   3.462  0.1541 -0.7760 -0.1515
  103DPPC   C29 5129   1.599   3.525   3.393  0.0434 -0.1342  0.7283
  103DPPC   C30 5130   1.593   3.533   3.241  0.0709 -0.5204  0.7049
  103DPPC   C31 5131   1.682   3.418   3.192  1.0400  0.5938 -0.2309
  103DPPC   C32 5132   1.197   3.625   4.705  0.4478  0.2197  0.2997
  103DPPC   O33 5133   1.096   3.722   4.673 -0.0165 -0.2569  0.3146
  103DPPC   C34 5134   1.137   3.851   4.663  0.1375 -0.3343 -0.0540
  103DPPC   O35 5135   1.239   3.891   4.719 -0.1328  0.2404  0.0288
  103DPPC   C36 5136   1.032   3.952   4.615  0.3730  0.0093  0.1476
  103DPPC   C37 5137   1.052   3.986   4.468 -0.7088  1.2506  0.2674
  103DPPC   C38 5138   0.925   3.998   4.383 -0.2492  0.2731 -0.5957
  103DPPC   C39 5139   0.941   3.996   4.231  0.1218 -0.0452 -0.5526
  103DPPC   C40 5140   0.806   3.959   4.170 -0.3085  0.3465  0.1581
  103DPPC   C41 5141   0.832   3.927   4.023 -0.1986 -0.0079  0.2535
  103DPPC   C42 5142   0.703   3.902   3.945 -0.0104 -0.4854  0.0935
  103DPPC   C43 5143   0.742   3.900   3.797  0.1350 -0.7061  0.1333
  103DPPC   C44 5144   0.630   3.868   3.698  0.2098 -0.0635 -0.1642
  103DPPC   C45 5145   0.669   3.822   3.557  0.5173 -0.1490 -0.0526
  103DPPC   C46 5146   0.770   3.924   3.504 -0.0088  0.3653 -0.0857
  103DPPC   C47 5147   0.818   3.882   3.365 -0.0268 -0.1573  0.0610
  103DPPC   C48 5148   0.930   3.965   3.303 -0.7402  0.3771 -0.5245
  103DPPC   C49 5149   0.995   3.912   3.175 -0.1617  0.2992 -0.2007
  103DPPC   C50 5150   1.146   3.925   3.195 -0.2253 -0.0827  0.5532
  104DPPC    C1 5151   0.978   4.798   5.319 -0.3438  0.0198  0.5248
  104DPPC    C2 5152   0.874   4.637   5.192 -0.3086 -0.8140 -0.3989
  104DPPC    C3 5153   0.740   4.750   5.345 -0.1837 -0.2512 -0.6593
  104DPPC    N4 5154   0.875   4.694   5.328 -0.1810 -0.2531 -0.6302
  104DPPC    C5 5155   0.903   4.593   5.431  0.4296  0.4963 -0.0547
  104DPPC    C6 5156   1.002   4.479   5.406 -0.1139 -0.0679  0.3242
  104DPPC    O7 5157   1.136   4.526   5.389 -0.3260  0.2413 -0.5467
  104DPPC    P8 5158   1.244   4.407   5.404 -0.2185  0.4620  0.4629
  104DPPC    O9 5159   1.377   4.474   5.405 -0.0603  0.1547 -0.1188
  104DPPC   O10 5160   1.188   4.316   5.506  0.0456 -0.2395 -0.0116
  104DPPC   O11 5161   1.237   4.339   5.259  0.5442  0.2004  0.5400
  104DPPC   C12 5162   1.302   4.421   5.162  0.0900 -0.0951 -0.0215
  104DPPC   C13 5163   1.301   4.377   5.015  0.4479  0.2763 -0.1393
  104DPPC   O14 5164   1.430   4.395   4.957  0.4881  0.6778  0.0719
  104DPPC   C15 5165   1.507   4.283   4.949 -0.0292  0.2942  0.4604
  104DPPC   O16 5166   1.453   4.186   5.003 -0.4389  0.2327 -0.0504
  104DPPC   C17 5167   1.634   4.279   4.864 -0.3406  0.0344  0.0009
  104DPPC   C18 5168   1.597   4.282   4.715  0.1632  0.1767 -0.1228
  104DPPC   C19 5169   1.709   4.232   4.624  0.2345  0.0143  0.0537
  104DPPC   C20 5170   1.680   4.283   4.483  0.5203 -0.1106 -0.0512
  104DPPC   C21 5171   1.557   4.206   4.435  0.4139 -0.0227  0.0794
  104DPPC   C22 5172   1.524   4.223   4.286  0.6609  0.1505  0.0440
  104DPPC   C23 5173   1.396   4.159   4.231  0.7841  0.2429 -0.3538
  104DPPC   C24 5174   1.383   4.178   4.080  0.3970  0.5576 -0.2826
  104DPPC   C25 5175   1.235   4.180   4.039  0.5594  0.2017 -0.8920
  104DPPC   C26 5176   1.236   4.251   3.903  0.8797  0.9659 -0.4970
  104DPPC   C27 5177   1.103   4.230   3.831  0.6095 -0.0699  0.2786
  104DPPC   C28 5178   1.100   4.313   3.703 -0.3329 -0.3036  0.1389
  104DPPC   C29 5179   0.972   4.287   3.625  0.0633 -0.3885 -0.4950
  104DPPC   C30 5180   0.958   4.388   3.511 -0.0851 -0.1062 -0.2284
  104DPPC   C31 5181   0.836   4.372   3.419 -0.1861 -0.2295 -0.0720
  104DPPC   C32 5182   1.175   4.427   4.945  0.1787 -0.1091  0.0630
  104DPPC   O33 5183   1.057   4.345   4.940  0.2183 -0.1467 -0.2865
  104DPPC   C34 5184   0.977   4.394   4.842 -0.6099  0.1079  0.5087
  104DPPC   O35 5185   0.981   4.511   4.806  0.2963 -0.2659 -0.6749
  104DPPC   C36 5186   0.862   4.302   4.801 -0.1807 -0.1125 -0.2308
  104DPPC   C37 5187   0.732   4.377   4.770 -0.1185  0.1372  0.1035
  104DPPC   C38 5188   0.646   4.273   4.698  0.2354 -0.0626 -0.0375
  104DPPC   C39 5189   0.694   4.239   4.557 -0.1589 -0.2430 -0.1311
  104DPPC   C40 5190   0.572   4.180   4.486  0.2020 -0.5298 -0.5168
  104DPPC   C41 5191   0.584   4.195   4.334  0.4478 -0.0969 -0.4568
  104DPPC   C42 5192   0.470   4.114   4.271 -0.0026  0.0037  0.2126
  104DPPC   C43 5193   0.455   4.146   4.122 -0.0146 -0.6350  0.0727
  104DPPC   C44 5194   0.331   4.070   4.074 -0.5539  0.2236  0.0700
  104DPPC   C45 5195   0.326   4.079   3.921  0.0096  0.5080  0.0645
  104DPPC   C46 5196   0.209   3.985   3.892  0.5176 -0.0953 -0.0336
  104DPPC   C47 5197   0.208   3.959   3.741 -0.0648 -0.0970 -0.0308
  104DPPC   C48 5198   0.083   3.882   3.700  0.0533 -0.0850 -0.4210
  104DPPC   C49 5199  -0.043   3.966   3.723 -0.0465 -0.2544 -0.3390
  104DPPC   C50 5200  -0.145   3.882   3.647  0.2323 -0.7065 -0.2135
  105DPPC    C1 5201   0.729   2.368   5.245  0.1600  0.2596 -0.0046
  105DPPC    C2 5202   0.635   2.581   5.312 -0.2523 -0.1821 -0.1852
  105DPPC    C3 5203   0.561   2.394   5.416 -0.2967 -0.3469 -0.1286
  105DPPC    N4 5204   0.606   2.440   5.284 -0.1411 -0.2334 -0.0353
  105DPPC    C5 5205   0.500   2.454   5.184  0.1952  0.5104 -0.2901
  105DPPC    C6 5206   0.440   2.329   5.120 -0.1725  0.3850  0.2995
  105DPPC    O7 5207   0.378   2.242   5.216 -0.2771  0.2790  0.1357
  105DPPC    P8 5208   0.347   2.099   5.147 -0.0569  0.2155  0.1686
  105DPPC    O9 5209   0.460   2.074   5.055  0.1845  0.5374  0.3714
  105DPPC   O10 5210   0.326   1.998   5.253  0.1514  0.4534  0.4401
  105DPPC   O11 5211   0.220   2.150   5.062  0.2038  0.1127 -0.2872
  105DPPC   C12 5212   0.235   2.155   4.920 -0.1786 -0.2115 -0.3397
  105DPPC   C13 5213   0.110   2.144   4.832 -0.1608  0.3573 -0.4375
  105DPPC   O14 5214   0.017   2.252   4.847 -0.2966  0.1678  0.0772
  105DPPC   C15 5215  -0.118   2.247   4.834 -0.3501  0.3739  0.4986
  105DPPC   O16 5216  -0.175   2.153   4.889 -0.0309 -0.0243  0.1627
  105DPPC   C17 5217  -0.187   2.381   4.809 -0.5127  0.3174  0.6509
  105DPPC   C18 5218  -0.190   2.427   4.663 -0.3955 -0.5416  0.3744
  105DPPC   C19 5219  -0.290   2.345   4.581 -0.3453 -0.1595 -0.0735
  105DPPC   C20 5220  -0.288   2.393   4.436  0.7065 -0.0802 -0.0414
  105DPPC   C21 5221  -0.394   2.303   4.372  0.2424  0.4344 -0.0112
  105DPPC   C22 5222  -0.403   2.361   4.231  0.2483 -0.0588 -0.2162
  105DPPC   C23 5223  -0.512   2.284   4.156  0.0299 -0.3529  0.3929
  105DPPC   C24 5224  -0.526   2.328   4.010  0.1463 -0.4726  0.3453
  105DPPC   C25 5225  -0.624   2.230   3.945  0.1549 -0.2379 -0.0212
  105DPPC   C26 5226  -0.631   2.256   3.794 -0.7620  0.4678  0.1304
  105DPPC   C27 5227  -0.709   2.143   3.727  0.1953 -0.2740  0.2473
  105DPPC   C28 5228  -0.690   2.134   3.575 -0.4308  0.1727  0.1394
  105DPPC   C29 5229  -0.733   1.998   3.522  0.5676  0.1886 -0.7492
  105DPPC   C30 5230  -0.635   1.894   3.579 -0.0147  0.1409  0.1963
  105DPPC   C31 5231  -0.682   1.757   3.528 -0.2369  0.2277  0.1653
  105DPPC   C32 5232   0.071   1.999   4.856  0.4086  0.2859  0.0878
  105DPPC   O33 5233   0.164   1.900   4.810  0.0520 -0.2035  0.4136
  105DPPC   C34 5234   0.128   1.769   4.823 -0.2459 -0.1630  0.0061
  105DPPC   O35 5235   0.024   1.742   4.882 -0.1758  0.4515  0.4269
  105DPPC   C36 5236   0.216   1.658   4.766 -0.1635 -0.1691  0.1450
  105DPPC   C37 5237   0.229   1.647   4.614  0.0409  0.3433  0.1245
  105DPPC   C38 5238   0.309   1.527   4.562  0.3411  0.4570  0.3176
  105DPPC   C39 5239   0.340   1.546   4.414 -0.2371  0.1341  0.1492
  105DPPC   C40 5240   0.404   1.421   4.351  0.6677  0.2886  0.7441
  105DPPC   C41 5241   0.425   1.448   4.202  0.8172  0.0162  0.7160
  105DPPC   C42 5242   0.465   1.318   4.131 -0.4540  0.0907 -0.1657
  105DPPC   C43 5243   0.468   1.342   3.980 -0.0087  0.2679 -0.1295
  105DPPC   C44 5244   0.330   1.372   3.921  0.0150  0.0192 -0.3153
  105DPPC   C45 5245   0.336   1.380   3.769  0.3600  0.8453 -0.2620
  105DPPC   C46 5246   0.193   1.386   3.712  0.1693 -0.2887  0.0785
  105DPPC   C47 5247   0.199   1.388   3.560  0.2235  0.2828  0.0833
  105DPPC   C48 5248   0.241   1.521   3.498 -0.2811  0.2526 -0.3362
  105DPPC   C49 5249   0.278   1.514   3.349  0.3016 -0.1700 -0.1742
  105DPPC   C50 5250   0.244   1.645   3.277  0.4456 -0.1638 -0.2311
  106DPPC    C1 5251   6.202   2.211   5.447  0.6086  0.2982 -0.2752
  106DPPC    C2 5252   6.358   2.289   5.607 -0.0397  0.1000 -0.3157
  106DPPC    C3 5253   6.229   2.089   5.645 -0.4559  0.4321  0.4049
  106DPPC    N4 5254   6.226   2.226   5.591 -0.1245  0.2309 -0.1411
  106DPPC    C5 5255   6.124   2.310   5.655 -0.0645  0.5091 -0.4132
  106DPPC    C6 5256   6.067   2.440   5.597 -0.5494  0.0935 -0.8891
  106DPPC    O7 5257   6.178   2.526   5.570 -0.1864 -0.1185 -0.1064
  106DPPC    P8 5258   6.134   2.676   5.532 -0.0595  0.0200  0.2858
  106DPPC    O9 5259   6.001   2.700   5.592  0.2099 -0.2805  1.0127
  106DPPC   O10 5260   6.249   2.760   5.571  0.0189 -0.0218  0.1476
  106DPPC   O11 5261   6.125   2.658   5.372 -0.4206 -0.0007  0.3080
  106DPPC   C12 5262   6.258   2.664   5.320 -0.2688 -0.6909  0.6024
  106DPPC   C13 5263   6.264   2.640   5.169 -0.1018  0.3227  0.4415
  106DPPC   O14 5264   6.377   2.682   5.091 -0.1755  0.0299  0.1753
  106DPPC   C15 5265   6.500   2.630   5.117 -0.0226  0.4459  0.2798
  106DPPC   O16 5266   6.530   2.578   5.224  0.6878 -0.0813 -0.1595
  106DPPC   C17 5267   6.613   2.646   5.014  0.0284 -0.3641  0.2094
  106DPPC   C18 5268   6.607   2.560   4.887  0.5267 -0.1980  0.0737
  106DPPC   C19 5269   6.716   2.610   4.791  0.0717  0.1385 -0.2740
  106DPPC   C20 5270   6.724   2.509   4.676 -0.6543  0.0238 -0.2315
  106DPPC   C21 5271   6.584   2.483   4.621 -0.5525 -0.1844 -0.3922
  106DPPC   C22 5272   6.593   2.393   4.497  0.0051 -0.1316 -0.3914
  106DPPC   C23 5273   6.693   2.460   4.402  0.2951 -0.0982 -0.0683
  106DPPC   C24 5274   6.713   2.387   4.269 -0.1862  0.0350 -0.2166
  106DPPC   C25 5275   6.806   2.486   4.200 -0.2058  0.5034  0.4211
  106DPPC   C26 5276   6.866   2.421   4.075  0.2992  0.2233  0.8072
  106DPPC   C27 5277   6.955   2.514   3.992 -0.3719  0.1692  0.0231
  106DPPC   C28 5278   6.866   2.621   3.927 -0.0632  0.2516 -0.2668
  106DPPC   C29 5279   6.950   2.730   3.862 -0.1048  0.2605 -0.3064
  106DPPC   C30 5280   6.862   2.843   3.809 -0.6486  0.0833  0.2150
  106DPPC   C31 5281   6.945   2.959   3.754 -0.7235  0.2594  0.4695
  106DPPC   C32 5282   6.134   2.707   5.123  0.0813  0.5027  0.1843
  106DPPC   O33 5283   6.070   2.658   5.005  0.1551 -0.0586  0.3732
  106DPPC   C34 5284   5.966   2.731   4.957  0.2521  0.0048  0.2594
  106DPPC   O35 5285   5.915   2.823   5.021  0.1711  0.0443  0.1394
  106DPPC   C36 5286   5.899   2.666   4.836  0.9646 -0.1862 -0.0386
  106DPPC   C37 5287   5.887   2.760   4.716 -0.5216 -0.1006  0.1491
  106DPPC   C38 5288   5.860   2.669   4.597  0.2336  0.1228 -0.2054
  106DPPC   C39 5289   5.933   2.704   4.468  0.2558  0.3900 -0.1200
  106DPPC   C40 5290   5.927   2.851   4.427 -0.2639  0.3955 -0.0271
  106DPPC   C41 5291   6.024   2.869   4.310 -0.2778  0.0346 -0.0940
  106DPPC   C42 5292   5.969   2.819   4.176 -0.2719  0.3516 -0.2169
  106DPPC   C43 5293   6.078   2.832   4.070 -0.0501 -0.1007 -0.0495
  106DPPC   C44 5294   6.028   2.783   3.934  0.0143 -0.1876 -0.0423
  106DPPC   C45 5295   6.089   2.870   3.824  0.1391 -0.5149 -0.2318
  106DPPC   C46 5296   6.062   2.834   3.678 -0.3453  0.2507 -0.3343
  106DPPC   C47 5297   6.134   2.941   3.595  0.2574  0.3856  0.3548
  106DPPC   C48 5298   6.102   2.964   3.447 -0.1492  0.3563  0.4376
  106DPPC   C49 5299   5.989   3.068   3.436 -0.3494  0.0567 -0.3680
  106DPPC   C50 5300   5.974   3.091   3.286 -0.1717  0.3176 -0.3472
  107DPPC    C1 5301   0.723   3.278   5.655 -0.0916  0.4122  0.2482
  107DPPC    C2 5302   0.525   3.367   5.563 -0.4937  0.3046  0.4664
  107DPPC    C3 5303   0.589   3.451   5.778  0.4314  0.0052  0.0156
  107DPPC    N4 5304   0.591   3.333   5.690 -0.3473 -0.1923  0.2600
  107DPPC    C5 5305   0.527   3.224   5.764 -0.9776 -0.0153 -0.0182
  107DPPC    C6 5306   0.476   3.098   5.693 -0.0960 -0.1640 -0.4009
  107DPPC    O7 5307   0.568   3.003   5.638  0.0733 -0.2207 -0.0280
  107DPPC    P8 5308   0.487   2.871   5.593 -0.0630 -0.1029 -0.1311
  107DPPC    O9 5309   0.603   2.783   5.568 -0.0913 -0.0579 -0.4215
  107DPPC   O10 5310   0.399   2.834   5.706 -0.1043 -0.8433 -0.3979
  107DPPC   O11 5311   0.409   2.943   5.473  0.2400  0.3042 -0.0860
  107DPPC   C12 5312   0.494   2.929   5.358  0.4485 -0.8489  0.1990
  107DPPC   C13 5313   0.409   2.886   5.238  0.1733 -0.0045  0.0824
  107DPPC   O14 5314   0.490   2.819   5.140 -0.3563  0.3125 -0.5759
  107DPPC   C15 5315   0.589   2.879   5.070  0.2516  0.0226  0.0305
  107DPPC   O16 5316   0.646   2.979   5.113  0.0196  0.1781 -0.0232
  107DPPC   C17 5317   0.660   2.810   4.953  0.3266  0.0063  0.0852
  107DPPC   C18 5318   0.572   2.809   4.827  0.1746 -0.0784  0.1914
  107DPPC   C19 5319   0.552   2.947   4.765  0.1413  0.0195  0.4187
  107DPPC   C20 5320   0.691   3.002   4.733 -0.0600  0.8329  0.9138
  107DPPC   C21 5321   0.676   3.152   4.705  0.4543  0.7428  0.1532
  107DPPC   C22 5322   0.804   3.186   4.628  0.2319 -0.0089 -0.5661
  107DPPC   C23 5323   0.771   3.290   4.521 -0.3854 -0.1652 -0.5303
  107DPPC   C24 5324   0.907   3.303   4.452 -0.2102 -0.0760 -0.1671
  107DPPC   C25 5325   0.914   3.418   4.352  0.5006 -0.1706 -0.2319
  107DPPC   C26 5326   0.809   3.402   4.241  0.0869  0.5838  0.0501
  107DPPC   C27 5327   0.847   3.276   4.164 -0.4896  0.5190 -0.1312
  107DPPC   C28 5328   0.741   3.256   4.055 -0.5846 -0.2466  0.0997
  107DPPC   C29 5329   0.761   3.354   3.940  0.3537 -0.4553  0.0747
  107DPPC   C30 5330   0.652   3.319   3.839 -0.1762  0.5767  0.2752
  107DPPC   C31 5331   0.678   3.416   3.723  0.0762 -0.1213 -0.2556
  107DPPC   C32 5332   0.348   3.016   5.185  0.3517 -0.1037 -0.3775
  107DPPC   O33 5333   0.266   3.017   5.068  0.2558 -0.3230 -0.3136
  107DPPC   C34 5334   0.227   3.142   5.031 -0.0457 -0.2300  0.3015
  107DPPC   O35 5335   0.237   3.236   5.110 -0.2683 -0.0819  0.1526
  107DPPC   C36 5336   0.182   3.140   4.885 -0.1806 -0.2736  0.3432
  107DPPC   C37 5337   0.154   3.276   4.821 -0.1514 -0.3957  0.0688
  107DPPC   C38 5338   0.099   3.258   4.679  0.3996 -0.5192 -0.1309
  107DPPC   C39 5339   0.080   3.395   4.614 -0.8865 -0.4012  0.4625
  107DPPC   C40 5340   0.025   3.386   4.472 -0.2470  0.6738  0.1343
  107DPPC   C41 5341  -0.117   3.329   4.486  0.2941 -0.6573  0.3435
  107DPPC   C42 5342  -0.190   3.291   4.357  0.0502  0.1323  0.2458
  107DPPC   C43 5343  -0.313   3.205   4.387  0.2254 -0.1830  0.0596
  107DPPC   C44 5344  -0.399   3.280   4.489  0.1419  0.3313 -0.3846
  107DPPC   C45 5345  -0.533   3.213   4.518  0.1098  0.4618 -0.2317
  107DPPC   C46 5346  -0.581   3.251   4.659  0.2948  0.4366 -0.1621
  107DPPC   C47 5347  -0.700   3.165   4.699  0.4790  0.0612 -0.4160
  107DPPC   C48 5348  -0.808   3.172   4.591  0.2743  0.0999 -0.2087
  107DPPC   C49 5349  -0.934   3.095   4.631  0.2155  0.2044 -0.1912
  107DPPC   C50 5350  -0.902   2.946   4.639  0.5566  0.3267  0.8751
  108DPPC    C1 5351   1.203   3.859   5.224  0.9490 -0.1324 -0.6449
  108DPPC    C2 5352   0.990   3.865   5.128 -0.1991  0.5909  0.1367
  108DPPC    C3 5353   1.184   4.003   5.047  0.3956  0.8513  0.6682
  108DPPC    N4 5354   1.106   3.949   5.160  0.3607 -0.1770  0.1694
  108DPPC    C5 5355   1.069   4.066   5.242  0.5173 -0.2029  0.2785
  108DPPC    C6 5356   0.944   4.150   5.219  0.3663 -0.4785  0.0853
  108DPPC    O7 5357   0.824   4.113   5.288  0.0692  0.4521  0.0887
  108DPPC    P8 5358   0.699   4.208   5.252 -0.2227  0.1192  0.2188
  108DPPC    O9 5359   0.592   4.191   5.353  0.0198 -0.1293  0.4355
  108DPPC   O10 5360   0.756   4.341   5.224  0.2447 -0.1470 -0.1094
  108DPPC   O11 5361   0.674   4.120   5.120 -0.0882  0.0215  0.2579
  108DPPC   C12 5362   0.606   3.998   5.148 -0.1960  0.1025  0.3449
  108DPPC   C13 5363   0.556   3.920   5.026  0.4463  0.3224 -0.0606
  108DPPC   O14 5364   0.668   3.851   4.969  0.7620  0.2739  0.6012
  108DPPC   C15 5365   0.663   3.725   4.918  0.4159  0.2666  0.6484
  108DPPC   O16 5366   0.603   3.630   4.969 -0.0048  0.0412 -0.2497
  108DPPC   C17 5367   0.786   3.692   4.833  0.0775 -0.1003  0.2966
  108DPPC   C18 5368   0.752   3.606   4.712  0.5708 -0.2928  0.2918
  108DPPC   C19 5369   0.674   3.687   4.608  0.5059 -0.6661  0.0440
  108DPPC   C20 5370   0.618   3.601   4.495  0.1292 -0.6563  0.2233
  108DPPC   C21 5371   0.556   3.683   4.382  0.4420 -0.6322  0.0679
  108DPPC   C22 5372   0.494   3.578   4.290 -0.2339  0.1731 -0.4236
  108DPPC   C23 5373   0.477   3.642   4.152  0.4003  0.4425 -0.3834
  108DPPC   C24 5374   0.379   3.559   4.068  0.2778  0.3758 -0.1762
  108DPPC   C25 5375   0.367   3.611   3.925  0.1192  0.5863 -0.0856
  108DPPC   C26 5376   0.274   3.531   3.834  0.1282  0.4196  0.0498
  108DPPC   C27 5377   0.293   3.596   3.696 -0.0636 -0.2262 -0.2847
  108DPPC   C28 5378   0.203   3.531   3.591  0.1305 -0.6250 -0.2053
  108DPPC   C29 5379   0.238   3.588   3.453 -0.3642 -0.7672 -0.3900
  108DPPC   C30 5380   0.381   3.574   3.400 -0.1212 -0.4766  0.1812
  108DPPC   C31 5381   0.391   3.657   3.272  0.2829 -0.1137  0.4471
  108DPPC   C32 5382   0.480   4.015   4.933 -0.1594 -0.0857  0.0166
  108DPPC   O33 5383   0.356   4.062   4.988 -0.1272  0.1426 -0.1056
  108DPPC   C34 5384   0.277   4.144   4.914 -0.1317  0.1471 -0.0951
  108DPPC   O35 5385   0.310   4.173   4.799  0.2808 -0.1582 -0.0574
  108DPPC   C36 5386   0.129   4.146   4.950 -0.0985  0.1159  0.0449
  108DPPC   C37 5387   0.036   4.141   4.828 -0.4145  0.0076  0.2898
  108DPPC   C38 5388  -0.111   4.149   4.872 -0.3188 -0.2975  0.6747
  108DPPC   C39 5389  -0.204   4.120   4.754 -0.0145  0.1873  0.3073
  108DPPC   C40 5390  -0.176   4.205   4.631 -0.1434 -0.3747 -0.1160
  108DPPC   C41 5391  -0.193   4.124   4.502 -0.4514  0.0285 -0.3317
  108DPPC   C42 5392  -0.185   4.212   4.377 -0.0344  0.1372 -0.2323
  108DPPC   C43 5393  -0.209   4.124   4.255 -0.0467 -0.2941  0.0807
  108DPPC   C44 5394  -0.248   4.213   4.137  0.6325 -0.5512 -0.3426
  108DPPC   C45 5395  -0.124   4.290   4.090  0.5036  0.4130  0.8622
  108DPPC   C46 5396  -0.140   4.414   4.001  0.0863 -0.2149  0.0507
  108DPPC   C47 5397  -0.000   4.466   3.968  0.2489 -0.6880 -0.0265
  108DPPC   C48 5398  -0.010   4.584   3.870  0.2249 -0.5742  0.1117
  108DPPC   C49 5399  -0.100   4.575   3.747  0.0569  0.0361  0.1912
  108DPPC   C50 5400  -0.092   4.717   3.690  0.0889 -0.3057 -0.6643
  109DPPC    C1 5401   5.468   1.574   5.100  0.8359  0.4796 -0.3057
  109DPPC    C2 5402   5.695   1.538   5.173  0.2599 -0.2457  0.6649
  109DPPC    C3 5403   5.525   1.537   5.332 -0.6222 -0.1313  0.2566
  109DPPC    N4 5404   5.554   1.499   5.193  0.0540  0.2950  0.2805
  109DPPC    C5 5405   5.515   1.362   5.159  0.5503  0.1975  0.0939
  109DPPC    C6 5406   5.603   1.257   5.226  0.5832  0.0092 -0.2377
  109DPPC    O7 5407   5.548   1.129   5.197  0.2513  0.0901  0.0313
  109DPPC    P8 5408   5.650   1.023   5.262 -0.0114 -0.3056 -0.1895
  109DPPC    O9 5409   5.729   1.093   5.367  0.8381 -1.0309 -0.3283
  109DPPC   O10 5410   5.582   0.893   5.277  0.1229 -0.4811 -1.0801
  109DPPC   O11 5411   5.727   1.018   5.121  0.1745 -0.2756 -0.0900
  109DPPC   C12 5412   5.646   0.942   5.032 -0.1973 -0.1456  0.1369
  109DPPC   C13 5413   5.674   0.950   4.882 -0.0958 -0.2791  0.1482
  109DPPC   O14 5414   5.784   0.867   4.842  0.3520  0.2021  0.3656
  109DPPC   C15 5415   5.751   0.755   4.772  0.0192  0.3352  0.3085
  109DPPC   O16 5416   5.653   0.688   4.803  0.2747 -0.3613 -0.3567
  109DPPC   C17 5417   5.865   0.691   4.693 -0.2529 -0.2364  0.3805
  109DPPC   C18 5418   5.900   0.767   4.565 -0.2429 -0.3614  0.3088
  109DPPC   C19 5419   6.000   0.689   4.479  0.0049  0.0922  0.1829
  109DPPC   C20 5420   6.052   0.736   4.343  0.1107 -0.2891  0.0905
  109DPPC   C21 5421   6.119   0.627   4.260  0.8677  0.0765  0.2080
  109DPPC   C22 5422   6.158   0.667   4.118 -0.1454  0.0957 -0.0767
  109DPPC   C23 5423   6.029   0.726   4.060 -0.1845  0.0300 -0.0549
  109DPPC   C24 5424   6.034   0.784   3.918  0.2121 -0.0301 -0.0661
  109DPPC   C25 5425   6.062   0.663   3.828 -0.3080 -0.3350  0.1803
  109DPPC   C26 5426   6.105   0.714   3.691 -0.3411  0.1171  0.3353
  109DPPC   C27 5427   6.001   0.820   3.652  0.4831  0.8953  0.2090
  109DPPC   C28 5428   6.039   0.892   3.523  0.1963 -0.0881 -0.4328
  109DPPC   C29 5429   6.062   0.805   3.399 -0.0301 -0.3732 -0.2765
  109DPPC   C30 5430   6.101   0.888   3.276 -0.0130  0.3750  0.2250
  109DPPC   C31 5431   6.244   0.939   3.290 -0.1127  0.5348  0.6580
  109DPPC   C32 5432   5.709   1.094   4.843  0.2448 -0.4615 -0.2212
  109DPPC   O33 5433   5.704   1.115   4.702  0.1712 -0.0482 -0.1583
  109DPPC   C34 5434   5.734   1.234   4.643 -0.1110  0.0360 -0.1351
  109DPPC   O35 5435   5.750   1.333   4.715 -1.0114  0.0073  0.1065
  109DPPC   C36 5436   5.682   1.261   4.502 -0.0615 -0.2230 -0.2037
  109DPPC   C37 5437   5.791   1.251   4.394  0.0141  0.2218 -0.1715
  109DPPC   C38 5438   5.825   1.107   4.359 -0.0889  0.2280 -0.2994
  109DPPC   C39 5439   5.949   1.100   4.270  0.1439  0.3641  0.0113
  109DPPC   C40 5440   5.930   1.184   4.143  0.1582  0.1910 -0.1050
  109DPPC   C41 5441   6.063   1.205   4.071  0.5073  0.6693  0.6787
  109DPPC   C42 5442   6.027   1.256   3.932 -0.0024 -0.1209  0.5183
  109DPPC   C43 5443   6.148   1.291   3.845 -0.3562  0.1025  0.1108
  109DPPC   C44 5444   6.091   1.305   3.704  0.1093  0.9513 -0.0008
  109DPPC   C45 5445   6.203   1.292   3.601 -0.0578  0.7240 -0.1553
  109DPPC   C46 5446   6.130   1.271   3.468 -0.2572  0.2985  0.0191
  109DPPC   C47 5447   6.194   1.369   3.369 -0.1655  0.4146  0.1927
  109DPPC   C48 5448   6.153   1.344   3.224 -0.4798 -0.0309  0.3553
  109DPPC   C49 5449   6.177   1.459   3.126  1.0360 -0.3503  0.3212
  109DPPC   C50 5450   6.110   1.593   3.158  0.9209 -0.3010 -0.1148
  110DPPC    C1 5451   5.206   2.426   5.641  0.2080  0.3825  0.8998
  110DPPC    C2 5452   5.412   2.524   5.638  0.0959  0.1354  0.2094
  110DPPC    C3 5453   5.246   2.611   5.502 -0.3104 -0.0150  0.1253
  110DPPC    N4 5454   5.304   2.483   5.547 -0.1149  0.1827  0.4375
  110DPPC    C5 5455   5.338   2.380   5.448  0.4220  0.0470  0.7611
  110DPPC    C6 5456   5.426   2.428   5.332 -0.0256 -0.0282  0.3909
  110DPPC    O7 5457   5.561   2.382   5.338 -0.0391 -0.2229 -0.5781
  110DPPC    P8 5458   5.676   2.477   5.279  0.2044 -0.2842 -0.2020
  110DPPC    O9 5459   5.637   2.612   5.326 -0.3906 -0.3436 -0.5228
  110DPPC   O10 5460   5.808   2.413   5.303  0.1615 -0.2758  0.0666
  110DPPC   O11 5461   5.630   2.456   5.127 -0.4243 -0.4465  0.0081
  110DPPC   C12 5462   5.693   2.342   5.068 -0.2105 -0.1484 -0.3516
  110DPPC   C13 5463   5.636   2.304   4.931 -0.4093  0.0493 -0.3242
  110DPPC   O14 5464   5.749   2.259   4.856 -0.0848 -0.0573  0.2231
  110DPPC   C15 5465   5.771   2.133   4.810  0.0541  0.1751 -0.3598
  110DPPC   O16 5466   5.719   2.037   4.868  0.1394  0.1084 -0.3940
  110DPPC   C17 5467   5.883   2.111   4.709  0.1627  0.2188 -0.2490
  110DPPC   C18 5468   5.964   1.981   4.724  0.1256  0.1802 -0.3814
  110DPPC   C19 5469   6.094   1.976   4.644  0.4132  0.4635  0.0596
  110DPPC   C20 5470   6.156   1.838   4.616  0.0820  0.1650  0.7738
  110DPPC   C21 5471   6.280   1.865   4.531 -0.5261  0.4797 -0.0241
  110DPPC   C22 5472   6.243   1.975   4.430  0.2324  0.2616 -0.5459
  110DPPC   C23 5473   6.348   2.002   4.322  0.7102 -0.3070 -0.2341
  110DPPC   C24 5474   6.299   2.118   4.235 -0.0722 -0.5522 -0.1266
  110DPPC   C25 5475   6.408   2.184   4.151 -0.1804 -0.5200 -0.2422
  110DPPC   C26 5476   6.344   2.290   4.061 -0.7714 -0.1849  0.5573
  110DPPC   C27 5477   6.273   2.228   3.940 -0.1912  0.0533  0.0873
  110DPPC   C28 5478   6.234   2.331   3.833 -0.4904 -0.0521  0.0955
  110DPPC   C29 5479   6.148   2.278   3.718 -0.2749 -0.0860 -0.0489
  110DPPC   C30 5480   6.144   2.358   3.588 -0.0284  0.1651  0.0957
  110DPPC   C31 5481   6.088   2.275   3.472  0.2396  0.1259 -0.0047
  110DPPC   C32 5482   5.564   2.431   4.884  0.3203  0.3877 -0.5430
  110DPPC   O33 5483   5.493   2.417   4.760 -0.0297 -0.4634 -0.2553
  110DPPC   C34 5484   5.494   2.537   4.697 -0.5852  0.0489  0.6912
  110DPPC   O35 5485   5.547   2.632   4.754  0.2139 -0.0567  0.1302
  110DPPC   C36 5486   5.419   2.548   4.564 -0.1863  0.4126  0.4953
  110DPPC   C37 5487   5.509   2.615   4.459 -0.7809  0.1744 -0.1772
  110DPPC   C38 5488   5.448   2.579   4.324 -0.1802 -0.1888 -0.3583
  110DPPC   C39 5489   5.514   2.672   4.222  0.2005 -0.0208  0.0381
  110DPPC   C40 5490   5.494   2.592   4.093 -0.2708  0.2587 -0.0667
  110DPPC   C41 5491   5.578   2.637   3.973 -0.4379  0.0886 -0.2483
  110DPPC   C42 5492   5.563   2.548   3.850 -0.4209  0.1670 -0.3070
  110DPPC   C43 5493   5.632   2.616   3.731  0.4703  0.3576  0.3079
  110DPPC   C44 5494   5.598   2.529   3.610  0.3629  0.1934  0.4555
  110DPPC   C45 5495   5.671   2.562   3.480 -0.5068 -0.1487 -0.1339
  110DPPC   C46 5496   5.674   2.710   3.444  0.0916  0.0214  0.5932
  110DPPC   C47 5497   5.799   2.726   3.356 -0.2550  0.3745  0.1611
  110DPPC   C48 5498   5.796   2.632   3.235 -0.0479  0.6210 -0.0362
  110DPPC   C49 5499   5.934   2.636   3.169 -0.0243 -0.2263 -0.0554
  110DPPC   C50 5500   5.975   2.769   3.105 -0.4367 -0.2621 -0.3952
  111DPPC    C1 5501   5.556   3.529   5.744 -0.3219  0.6617 -0.7598
  111DPPC    C2 5502   5.721   3.591   5.595 -0.0921  0.0971 -0.3458
  111DPPC    C3 5503   5.720   3.690   5.807 -0.3814  0.1421 -0.8866
  111DPPC    N4 5504   5.699   3.562   5.737 -0.1067 -0.1699 -0.4027
  111DPPC    C5 5505   5.779   3.459   5.804 -0.3110 -0.0850 -0.0249
  111DPPC    C6 5506   5.931   3.478   5.806 -0.3501  0.2027  0.2237
  111DPPC    O7 5507   5.986   3.481   5.674 -0.3699  0.4114  0.2193
  111DPPC    P8 5508   6.144   3.488   5.701 -0.3137  0.0859 -0.0186
  111DPPC    O9 5509   6.146   3.599   5.799  0.2764 -0.4172  0.5504
  111DPPC   O10 5510   6.225   3.364   5.701 -0.3479  0.0635 -0.1073
  111DPPC   O11 5511   6.167   3.564   5.561  0.1508 -0.0464 -0.0181
  111DPPC   C12 5512   6.186   3.477   5.449  0.0018 -0.3144  0.1644
  111DPPC   C13 5513   6.088   3.525   5.341  0.0987  0.2586  0.3297
  111DPPC   O14 5514   6.128   3.477   5.212  0.2102  0.0966  0.4231
  111DPPC   C15 5515   6.099   3.353   5.163  0.6509  0.1265  0.0763
  111DPPC   O16 5516   6.044   3.274   5.240  0.1254  0.6569  0.2540
  111DPPC   C17 5517   6.149   3.320   5.023 -0.4468  0.1117 -0.3252
  111DPPC   C18 5518   6.216   3.183   5.007 -0.1759  0.1658  0.3265
  111DPPC   C19 5519   6.192   3.129   4.866  0.0816 -0.6207  0.5792
  111DPPC   C20 5520   6.211   2.977   4.875  0.4128 -0.5989  0.2956
  111DPPC   C21 5521   6.221   2.936   4.728  0.2484  0.2076  0.0511
  111DPPC   C22 5522   6.324   2.825   4.705  0.1968  0.1997 -0.1411
  111DPPC   C23 5523   6.348   2.774   4.563 -0.8473 -0.4845 -0.0846
  111DPPC   C24 5524   6.408   2.872   4.462 -0.4434  0.0231  0.6379
  111DPPC   C25 5525   6.447   2.794   4.337 -0.5373  0.1885  0.5037
  111DPPC   C26 5526   6.447   2.884   4.213 -0.8239 -0.4128  0.0615
  111DPPC   C27 5527   6.477   2.786   4.099  0.2150 -0.5671  0.4533
  111DPPC   C28 5528   6.459   2.835   3.955  0.5262 -0.4995  0.4369
  111DPPC   C29 5529   6.467   2.709   3.867  0.0793 -0.3750  0.2140
  111DPPC   C30 5530   6.449   2.717   3.716  0.2837 -0.3771  0.1895
  111DPPC   C31 5531   6.472   2.589   3.637 -0.4364  0.2192 -1.0249
  111DPPC   C32 5532   6.059   3.675   5.340 -0.0490  0.2268  0.0388
  111DPPC   O33 5533   5.966   3.721   5.241 -0.0426  0.3239  0.0779
  111DPPC   C34 5534   5.947   3.856   5.249  0.5507  0.4471 -0.4981
  111DPPC   O35 5535   5.999   3.911   5.346 -0.5748 -0.1066  0.4359
  111DPPC   C36 5536   5.843   3.917   5.156 -0.1901 -0.6156 -0.3838
  111DPPC   C37 5537   5.916   4.013   5.062 -0.7688  0.2527  0.0407
  111DPPC   C38 5538   5.837   4.048   4.936 -0.2247  0.9318 -0.1224
  111DPPC   C39 5539   5.790   3.923   4.860  0.4035  0.7481 -0.2176
  111DPPC   C40 5540   5.727   3.946   4.722 -0.6175 -0.0214  0.1086
  111DPPC   C41 5541   5.706   3.821   4.637  0.1357  0.0070 -0.1284
  111DPPC   C42 5542   5.633   3.701   4.698 -0.3885  0.3355 -0.1022
  111DPPC   C43 5543   5.618   3.577   4.610 -0.5457  0.0562  0.3142
  111DPPC   C44 5544   5.526   3.604   4.490 -0.2383  0.0968  0.0865
  111DPPC   C45 5545   5.487   3.481   4.409  0.0686  0.0710 -0.0223
  111DPPC   C46 5546   5.594   3.454   4.303  0.3758  0.1943  0.2519
  111DPPC   C47 5547   5.566   3.331   4.216  0.3955  0.2978  0.0986
  111DPPC   C48 5548   5.688   3.301   4.128  0.0526 -0.0654 -0.2599
  111DPPC   C49 5549   5.694   3.153   4.090  0.2172 -0.3443  0.8013
  111DPPC   C50 5550   5.825   3.135   4.012 -0.1310 -1.3226  0.4286
  112DPPC    C1 5551   6.217   4.100   5.433  0.4279 -0.2172 -0.3933
  112DPPC    C2 5552   6.451   4.114   5.450 -0.1615  0.1608 -0.0178
  112DPPC    C3 5553   6.363   3.991   5.275  0.3624  0.4942 -0.6882
  112DPPC    N4 5554   6.341   4.023   5.417  0.3611 -0.3020 -0.5046
  112DPPC    C5 5555   6.346   3.910   5.511  0.4387  0.5017  0.4797
  112DPPC    C6 5556   6.467   3.817   5.529 -0.2460 -0.4370  0.3482
  112DPPC    O7 5557   6.486   3.744   5.408  0.4161  0.0013  0.1833
  112DPPC    P8 5558   6.568   3.613   5.452  0.1014 -0.1968  0.1823
  112DPPC    O9 5559   6.708   3.648   5.420  0.1972 -0.6310  0.1229
  112DPPC   O10 5560   6.529   3.584   5.592  0.1839 -0.2607  0.1918
  112DPPC   O11 5561   6.505   3.526   5.332 -0.1029  0.1943  0.0064
  112DPPC   C12 5562   6.589   3.562   5.222 -0.2336  0.0913 -0.1273
  112DPPC   C13 5563   6.522   3.562   5.085  0.2917  0.4838 -0.3868
  112DPPC   O14 5564   6.607   3.595   4.974  0.0531 -0.0076 -0.7214
  112DPPC   C15 5565   6.639   3.726   4.955  0.1023  0.0936  0.0381
  112DPPC   O16 5566   6.645   3.802   5.052  0.1583 -0.4112  0.4339
  112DPPC   C17 5567   6.700   3.760   4.819 -0.1632  0.4448  0.0057
  112DPPC   C18 5568   6.586   3.757   4.718  0.1578 -0.8645 -0.3279
  112DPPC   C19 5569   6.635   3.773   4.573  0.1438 -0.0597 -0.2464
  112DPPC   C20 5570   6.513   3.759   4.482 -0.1170  0.0581  0.0837
  112DPPC   C21 5571   6.538   3.833   4.350  0.1116 -0.5582 -0.2197
  112DPPC   C22 5572   6.421   3.824   4.252 -0.1701  0.2058  0.0403
  112DPPC   C23 5573   6.428   3.686   4.186  0.1193  0.1409  0.2045
  112DPPC   C24 5574   6.328   3.681   4.070  0.4912  0.5433 -0.1409
  112DPPC   C25 5575   6.300   3.536   4.031 -0.0575  0.5508  0.2117
  112DPPC   C26 5576   6.194   3.502   3.927  0.4471 -0.4096 -0.0001
  112DPPC   C27 5577   6.234   3.515   3.780 -0.0911  0.2219 -0.0913
  112DPPC   C28 5578   6.119   3.483   3.684 -0.3429 -0.5120  0.4514
  112DPPC   C29 5579   6.161   3.520   3.542 -0.8480  0.0979  0.4545
  112DPPC   C30 5580   6.058   3.480   3.438  0.2521 -0.2420 -0.5279
  112DPPC   C31 5581   6.109   3.502   3.295  0.7009 -0.4263 -0.3956
  112DPPC   C32 5582   6.391   3.640   5.098 -0.0666 -0.1714 -0.0168
  112DPPC   O33 5583   6.305   3.633   4.984 -0.3025  0.2875  0.1308
  112DPPC   C34 5584   6.200   3.719   4.983 -0.3034  0.2849 -0.2951
  112DPPC   O35 5585   6.205   3.830   5.036  0.0678  0.1347 -0.0120
  112DPPC   C36 5586   6.100   3.686   4.872 -0.4761 -0.0709 -0.0359
  112DPPC   C37 5587   6.155   3.734   4.738  0.6431  0.0407  0.4504
  112DPPC   C38 5588   6.052   3.697   4.631  1.3253 -0.6388  0.0119
  112DPPC   C39 5589   6.095   3.755   4.497  0.3287 -0.1513 -0.1093
  112DPPC   C40 5590   6.000   3.702   4.390  0.4970 -0.2766 -0.1968
  112DPPC   C41 5591   5.987   3.786   4.263 -0.1093 -0.2998 -0.1513
  112DPPC   C42 5592   5.897   3.714   4.161 -0.0207  0.3197 -0.6751
  112DPPC   C43 5593   5.873   3.805   4.040 -0.4081  0.7864 -0.2526
  112DPPC   C44 5594   5.808   3.718   3.932  0.0437 -0.1009  0.1787
  112DPPC   C45 5595   5.791   3.797   3.802  0.5583 -0.3725 -0.0589
  112DPPC   C46 5596   5.764   3.718   3.674 -0.5484 -0.1875  0.0523
  112DPPC   C47 5597   5.778   3.810   3.553  0.1910 -0.1291  0.1813
  112DPPC   C48 5598   5.764   3.744   3.415  0.5676  0.3110 -0.0693
  112DPPC   C49 5599   5.759   3.855   3.310  0.0311  0.5035  0.1533
  112DPPC   C50 5600   5.634   3.941   3.328 -0.2733  0.0297  0.2975
  113DPPC    C1 5601   2.402   5.406   4.975 -0.0080 -0.3808  0.0526
  113DPPC    C2 5602   2.632   5.358   5.021 -0.3871  0.6728 -0.0274
  113DPPC    C3 5603   2.552   5.327   4.799  0.0656 -0.0749 -0.2640
  113DPPC    N4 5604   2.515   5.319   4.941  0.0561 -0.1742 -0.2720
  113DPPC    C5 5605   2.471   5.185   4.983 -0.3659  0.1089  0.2044
  113DPPC    C6 5606   2.564   5.063   4.991 -0.7738 -0.1997  0.2938
  113DPPC    O7 5607   2.477   4.951   5.007 -0.6835 -0.2897  0.1589
  113DPPC    P8 5608   2.566   4.817   5.010 -0.2406 -0.0111 -0.3293
  113DPPC    O9 5609   2.686   4.848   5.089 -0.9502  0.7133  0.4833
  113DPPC   O10 5610   2.480   4.710   5.066  0.0345 -0.1453 -0.1584
  113DPPC   O11 5611   2.603   4.797   4.855 -0.3469  0.0838 -0.3668
  113DPPC   C12 5612   2.698   4.691   4.836  0.4972  0.8246 -0.3388
  113DPPC   C13 5613   2.702   4.643   4.690 -0.0570 -0.2786 -0.0013
  113DPPC   O14 5614   2.807   4.547   4.670  0.1550 -0.1316  0.3902
  113DPPC   C15 5615   2.938   4.570   4.699  0.0443  0.3202  0.5463
  113DPPC   O16 5616   2.975   4.679   4.742 -0.0940  0.5661  0.0524
  113DPPC   C17 5617   3.031   4.449   4.684  0.0880  0.4227 -0.0165
  113DPPC   C18 5618   3.013   4.368   4.555 -0.2510  0.5115 -0.0257
  113DPPC   C19 5619   3.058   4.442   4.429 -0.4067 -0.2702 -0.5446
  113DPPC   C20 5620   3.035   4.354   4.306 -0.0697  0.2473 -0.9810
  113DPPC   C21 5621   3.032   4.435   4.176 -0.0134  0.7517 -0.6697
  113DPPC   C22 5622   3.002   4.343   4.058  0.3043 -0.0684 -0.1224
  113DPPC   C23 5623   3.014   4.426   3.930 -0.3873 -0.1321 -0.2321
  113DPPC   C24 5624   2.911   4.540   3.920 -0.0264  0.1397 -0.9530
  113DPPC   C25 5625   2.929   4.623   3.793 -0.0066  0.1551 -0.9403
  113DPPC   C26 5626   2.932   4.534   3.668 -0.2836 -0.4937 -0.4950
  113DPPC   C27 5627   2.967   4.626   3.550 -0.4664  0.3519  0.0956
  113DPPC   C28 5628   3.107   4.581   3.508 -0.4862  0.4168 -0.0396
  113DPPC   C29 5629   3.163   4.635   3.377  0.0845  0.1063  0.0731
  113DPPC   C30 5630   3.307   4.590   3.352  0.1558  0.1996  0.3199
  113DPPC   C31 5631   3.343   4.622   3.207  0.7410 -0.0972  0.3949
  113DPPC   C32 5632   2.698   4.772   4.608 -0.3243 -0.2740  0.0207
  113DPPC   O33 5633   2.577   4.805   4.539 -0.3978  0.2042  0.3714
  113DPPC   C34 5634   2.577   4.916   4.461 -0.0174 -0.0879 -0.0473
  113DPPC   O35 5635   2.682   4.973   4.432 -0.3073  0.6473  0.3284
  113DPPC   C36 5636   2.451   4.932   4.377 -0.1317 -0.0134  0.1382
  113DPPC   C37 5637   2.330   4.998   4.445 -0.0563  0.2857 -0.0146
  113DPPC   C38 5638   2.213   4.980   4.349  0.0086 -0.1794 -0.0084
  113DPPC   C39 5639   2.091   5.057   4.401  0.3123  0.0504  0.3703
  113DPPC   C40 5640   1.999   5.022   4.284  0.4345  0.4252  0.1620
  113DPPC   C41 5641   1.935   4.885   4.306  0.1269  0.5082 -0.1950
  113DPPC   C42 5642   1.849   4.898   4.432  0.0332  0.0791 -0.2159
  113DPPC   C43 5643   1.769   4.768   4.445 -0.0926  0.1950  0.1726
  113DPPC   C44 5644   1.669   4.788   4.558  0.0194  0.1904  0.2724
  113DPPC   C45 5645   1.576   4.667   4.556 -0.3058  0.4368  0.3184
  113DPPC   C46 5646   1.467   4.693   4.661 -0.3325 -0.2612  0.4666
  113DPPC   C47 5647   1.367   4.577   4.667 -0.3062 -0.3134 -0.0261
  113DPPC   C48 5648   1.289   4.551   4.538 -0.5613 -0.2241  0.1093
  113DPPC   C49 5649   1.209   4.421   4.540 -0.0178 -0.5687 -0.1745
  113DPPC   C50 5650   1.157   4.399   4.397 -0.4701  0.4338 -0.1751
  114DPPC    C1 5651   4.821   5.505   5.537 -0.4187 -0.0764 -0.2266
  114DPPC    C2 5652   4.657   5.679   5.510  0.5456 -0.5707  0.4469
  114DPPC    C3 5653   4.801   5.701   5.679  0.3268  0.0031  0.5105
  114DPPC    N4 5654   4.798   5.650   5.541  0.6837  0.0990  0.4649
  114DPPC    C5 5655   4.878   5.722   5.442 -0.3705  0.3442 -0.2285
  114DPPC    C6 5656   5.028   5.699   5.423 -0.1972  0.5023  0.8755
  114DPPC    O7 5657   5.068   5.740   5.292 -0.0002 -0.3059  0.6714
  114DPPC    P8 5658   5.225   5.720   5.261 -0.1310 -0.0069 -0.2336
  114DPPC    O9 5659   5.266   5.853   5.311  0.3875 -0.1528 -0.2682
  114DPPC   O10 5660   5.260   5.592   5.326 -0.3030 -0.0840 -0.2936
  114DPPC   O11 5661   5.223   5.724   5.100 -0.0623  0.2960 -0.2270
  114DPPC   C12 5662   5.203   5.586   5.069 -0.0778  0.4390 -0.8502
  114DPPC   C13 5663   5.203   5.563   4.917 -0.1483 -0.1300 -0.7653
  114DPPC   O14 5664   5.333   5.561   4.856  0.2185 -0.1543 -0.0045
  114DPPC   C15 5665   5.394   5.445   4.820 -0.1311 -0.2482 -0.3008
  114DPPC   O16 5666   5.371   5.347   4.891  0.2008 -0.0105  0.1363
  114DPPC   C17 5667   5.516   5.453   4.727 -0.3334  0.0849 -0.5405
  114DPPC   C18 5668   5.494   5.411   4.582  0.0594 -0.6905 -0.3833
  114DPPC   C19 5669   5.403   5.501   4.497  0.1131 -0.3446 -0.0774
  114DPPC   C20 5670   5.407   5.464   4.349  0.4773 -0.3760 -0.0608
  114DPPC   C21 5671   5.323   5.562   4.268  0.4649 -0.0471  0.3512
  114DPPC   C22 5672   5.402   5.628   4.154 -0.0376 -0.0224  0.0117
  114DPPC   C23 5673   5.304   5.720   4.081 -0.1473  0.0879  0.2965
  114DPPC   C24 5674   5.198   5.626   4.024 -0.1731  0.1232  0.2865
  114DPPC   C25 5675   5.244   5.513   3.932 -0.4437  0.1986  0.0543
  114DPPC   C26 5676   5.126   5.423   3.894  0.0352 -0.0421 -0.8812
  114DPPC   C27 5677   5.160   5.280   3.939  0.1488  0.3528  0.3106
  114DPPC   C28 5678   5.046   5.189   3.986  0.5184  0.0094  0.5502
  114DPPC   C29 5679   5.109   5.091   4.085  0.6130 -0.0982  0.3847
  114DPPC   C30 5680   5.185   5.156   4.201 -0.0668  0.5910  0.4530
  114DPPC   C31 5681   5.094   5.241   4.289 -0.4808  0.2541  0.3518
  114DPPC   C32 5682   5.104   5.662   4.856  0.4699  0.7323 -0.3991
  114DPPC   O33 5683   5.082   5.648   4.716 -0.5362 -0.0086 -0.1812
  114DPPC   C34 5684   4.989   5.739   4.679 -0.7056 -0.2848 -0.4513
  114DPPC   O35 5685   4.911   5.794   4.758  0.0038  0.3818 -0.2034
  114DPPC   C36 5686   4.977   5.775   4.531 -0.1010  0.0123 -0.4287
  114DPPC   C37 5687   5.099   5.855   4.482  0.0837  0.3826  0.6029
  114DPPC   C38 5688   5.056   5.923   4.352  1.1318  0.4367  0.2759
  114DPPC   C39 5689   5.156   6.032   4.315  0.8235  0.6615  0.0989
  114DPPC   C40 5690   5.135   6.106   4.183  0.4805  0.3778 -0.0059
  114DPPC   C41 5691   5.005   6.187   4.175 -0.0257 -0.4763 -0.6036
  114DPPC   C42 5692   5.034   6.322   4.111 -0.2571 -0.0057  0.2572
  114DPPC   C43 5693   4.907   6.405   4.100 -0.0449  0.3183  0.2260
  114DPPC   C44 5694   4.935   6.534   4.023  0.1216 -0.0951 -0.4143
  114DPPC   C45 5695   4.819   6.633   4.035  0.2227 -0.0301  0.0248
  114DPPC   C46 5696   4.845   6.764   3.961  0.4611 -0.1164 -0.0441
  114DPPC   C47 5697   4.724   6.858   3.967  0.0393 -0.6411 -0.2327
  114DPPC   C48 5698   4.741   6.997   3.908 -0.0535 -0.5532 -0.0544
  114DPPC   C49 5699   4.605   7.066   3.912  0.3717  0.2933  0.0665
  114DPPC   C50 5700   4.647   7.210   3.879 -0.1811  0.3832 -0.2668
  115DPPC    C1 5701   2.158   0.523   5.554 -0.3189  0.2398 -0.1755
  115DPPC    C2 5702   2.223   0.286   5.582 -0.4785 -0.3179 -0.6032
  115DPPC    C3 5703   2.008   0.335   5.577 -0.4217  0.6927  0.0761
  115DPPC    N4 5704   2.133   0.383   5.517 -0.3054  0.2088 -0.0654
  115DPPC    C5 5705   2.122   0.375   5.371  0.1516  0.2958 -0.1082
  115DPPC    C6 5706   2.248   0.349   5.288  0.3076  0.0407  0.2061
  115DPPC    O7 5707   2.292   0.213   5.282  0.4158  0.0752  0.2266
  115DPPC    P8 5708   2.399   0.203   5.162  0.0189 -0.0770 -0.1175
  115DPPC    O9 5709   2.475   0.331   5.162  0.2948 -0.2386  0.2265
  115DPPC   O10 5710   2.480   0.079   5.174 -0.0352 -0.0954  0.0548
  115DPPC   O11 5711   2.302   0.185   5.036  0.1296 -0.6976 -0.1160
  115DPPC   C12 5712   2.337   0.277   4.932 -0.4897  0.0018  0.2863
  115DPPC   C13 5713   2.268   0.246   4.799 -0.1302 -0.2224  0.1513
  115DPPC   O14 5714   2.341   0.273   4.678 -0.1634  0.4730  0.2809
  115DPPC   C15 5715   2.349   0.399   4.628  0.3086  0.4192  0.2174
  115DPPC   O16 5716   2.308   0.500   4.684 -0.6028  0.2536 -0.1360
  115DPPC   C17 5717   2.440   0.418   4.507 -0.0966 -0.0824 -0.1726
  115DPPC   C18 5718   2.526   0.297   4.470 -0.4205 -0.3824  0.0440
  115DPPC   C19 5719   2.618   0.328   4.351 -0.3302 -0.2759  0.1417
  115DPPC   C20 5720   2.553   0.375   4.221  0.0468 -0.1405  0.0008
  115DPPC   C21 5721   2.647   0.364   4.100  0.3289 -0.1042  0.2161
  115DPPC   C22 5722   2.563   0.335   3.976  0.7632  0.2195 -0.1580
  115DPPC   C23 5723   2.635   0.309   3.843  0.6860 -0.7666 -0.0185
  115DPPC   C24 5724   2.532   0.252   3.745  0.2327  0.1721 -0.0989
  115DPPC   C25 5725   2.608   0.163   3.647 -0.3663 -0.4128 -0.0364
  115DPPC   C26 5726   2.511   0.119   3.538 -0.3090 -0.0387 -0.2375
  115DPPC   C27 5727   2.574   0.010   3.450 -0.1375  0.1827 -0.3931
  115DPPC   C28 5728   2.482  -0.056   3.347 -0.2977 -0.3524  0.0820
  115DPPC   C29 5729   2.353  -0.112   3.408 -0.4862 -0.1087 -0.0898
  115DPPC   C30 5730   2.256  -0.164   3.302 -0.0459 -0.2106 -0.4483
  115DPPC   C31 5731   2.289  -0.310   3.271 -0.0819 -0.3350  0.0942
  115DPPC   C32 5732   2.127   0.303   4.815 -0.0990  0.0691 -0.5799
  115DPPC   O33 5733   2.035   0.274   4.710  0.0124  0.0474 -0.6717
  115DPPC   C34 5734   1.905   0.307   4.733  0.1411  0.3780 -0.4253
  115DPPC   O35 5735   1.873   0.363   4.838  0.1771 -0.5329  0.0784
  115DPPC   C36 5736   1.807   0.218   4.657  0.7904 -0.1536 -0.6560
  115DPPC   C37 5737   1.804   0.261   4.510  0.1400 -0.3228 -0.6980
  115DPPC   C38 5738   1.714   0.163   4.436 -0.2829 -0.1358 -0.4380
  115DPPC   C39 5739   1.704   0.189   4.286  0.0302  0.4051 -0.3666
  115DPPC   C40 5740   1.628   0.320   4.263 -0.2623  0.3146  0.0715
  115DPPC   C41 5741   1.622   0.341   4.111 -0.4463 -0.0680  0.0232
  115DPPC   C42 5742   1.549   0.462   4.053 -0.3979 -0.2271 -0.3700
  115DPPC   C43 5743   1.611   0.592   4.105 -0.0726 -0.4786 -0.1226
  115DPPC   C44 5744   1.536   0.718   4.059  0.1239 -0.3258 -0.0233
  115DPPC   C45 5745   1.587   0.856   4.103  0.2531 -0.3358 -0.1427
  115DPPC   C46 5746   1.474   0.958   4.116  0.8908  0.3243  0.2646
  115DPPC   C47 5747   1.419   0.993   3.977  0.0320 -0.0216  0.5167
  115DPPC   C48 5748   1.299   1.088   3.982  0.0991  0.0513  0.7600
  115DPPC   C49 5749   1.312   1.171   3.854 -0.7203 -0.8916  0.0553
  115DPPC   C50 5750   1.319   1.079   3.732  0.5272 -0.2134 -0.3976
  116DPPC    C1 5751   5.475   0.239   4.850 -0.0917  0.1038  0.1737
  116DPPC    C2 5752   5.453   0.438   4.720 -0.2304 -0.2772  0.1804
  116DPPC    C3 5753   5.317   0.271   4.667 -0.8509 -0.1997 -0.5074
  116DPPC    N4 5754   5.378   0.330   4.787 -0.3558 -0.6433 -0.5352
  116DPPC    C5 5755   5.285   0.380   4.889 -0.0394  0.6738 -0.8737
  116DPPC    C6 5756   5.171   0.472   4.843 -0.4345  0.5646 -0.1248
  116DPPC    O7 5757   5.067   0.490   4.940 -0.2285 -0.1499  0.2349
  116DPPC    P8 5758   4.954   0.574   4.864 -0.1988 -0.2836  0.0440
  116DPPC    O9 5759   4.901   0.476   4.766  0.0125  0.0237 -0.3825
  116DPPC   O10 5760   4.871   0.639   4.968 -0.2336 -0.1589 -0.0604
  116DPPC   O11 5761   5.044   0.692   4.801 -0.0425 -0.4266  0.0015
  116DPPC   C12 5762   4.982   0.737   4.680 -0.4844 -0.2406  0.2988
  116DPPC   C13 5763   5.063   0.797   4.566 -0.5201 -0.1396  0.3266
  116DPPC   O14 5764   4.998   0.803   4.438  0.6005 -0.2692 -0.2669
  116DPPC   C15 5765   4.992   0.694   4.357 -0.2515 -0.1411 -0.3881
  116DPPC   O16 5766   4.959   0.587   4.408 -1.1142  0.2774 -0.0462
  116DPPC   C17 5767   4.956   0.712   4.209 -0.6276 -0.6887 -0.3670
  116DPPC   C18 5768   5.073   0.694   4.112  0.0523  0.1656  0.2671
  116DPPC   C19 5769   5.163   0.574   4.143  0.5461  0.6650  0.7649
  116DPPC   C20 5770   5.274   0.566   4.038  0.0859  0.2571  0.3041
  116DPPC   C21 5771   5.218   0.583   3.897  0.0457  0.3712  0.3336
  116DPPC   C22 5772   5.325   0.572   3.788 -0.0087 -0.1378  0.3268
  116DPPC   C23 5773   5.272   0.632   3.658  0.4435 -0.1489  0.1382
  116DPPC   C24 5774   5.132   0.577   3.629  0.5448 -0.3588  0.0425
  116DPPC   C25 5775   5.074   0.646   3.506 -0.0819 -0.0080  0.5340
  116DPPC   C26 5776   4.943   0.578   3.465  0.2192 -0.2654 -0.0020
  116DPPC   C27 5777   4.876   0.659   3.354  0.2004 -0.3381 -0.0442
  116DPPC   C28 5778   4.738   0.596   3.334  0.0583  0.0344 -0.2570
  116DPPC   C29 5779   4.645   0.694   3.263  0.3731  0.2876 -0.3215
  116DPPC   C30 5780   4.506   0.634   3.241  0.3733  0.0301  0.3491
  116DPPC   C31 5781   4.400   0.729   3.184  0.3465 -0.1370  0.1145
  116DPPC   C32 5782   5.198   0.726   4.576 -0.2504  0.2607 -0.4216
  116DPPC   O33 5783   5.294   0.801   4.500  0.4140 -0.0650  0.0852
  116DPPC   C34 5784   5.410   0.737   4.470  0.2639 -0.0165 -0.6269
  116DPPC   O35 5785   5.407   0.614   4.475 -0.1156  0.0090 -0.1414
  116DPPC   C36 5786   5.514   0.813   4.387  0.4360  0.1141 -0.2927
  116DPPC   C37 5787   5.475   0.830   4.241  0.1500  0.2852 -0.1960
  116DPPC   C38 5788   5.580   0.916   4.170 -0.1741  0.4939 -0.4322
  116DPPC   C39 5789   5.548   0.905   4.021 -0.2044 -0.0768 -0.3858
  116DPPC   C40 5790   5.643   0.988   3.935 -0.1995  0.6960  0.3480
  116DPPC   C41 5791   5.595   1.021   3.793  0.3963  0.1579  0.0159
  116DPPC   C42 5792   5.574   0.886   3.725  0.2080  0.1390  0.1113
  116DPPC   C43 5793   5.504   0.900   3.589 -0.2269 -0.4912  0.2667
  116DPPC   C44 5794   5.370   0.973   3.594 -0.3215 -0.6339 -0.1822
  116DPPC   C45 5795   5.333   1.030   3.457 -0.0665  0.5490  0.2364
  116DPPC   C46 5796   5.302   0.937   3.340  0.1038  0.5212  0.2126
  116DPPC   C47 5797   5.311   0.974   3.192  0.2305 -0.1233  0.0566
  116DPPC   C48 5798   5.231   1.098   3.153  0.1421 -0.2234 -0.0838
  116DPPC   C49 5799   5.258   1.128   3.006  0.2533  0.2911  0.0392
  116DPPC   C50 5800   5.404   1.167   2.984  0.4272 -0.3856 -0.0302
  117DPPC    C1 5801   1.187   5.502   5.500  0.5354 -0.3787  0.1006
  117DPPC    C2 5802   1.415   5.509   5.542  0.0979 -0.2310  0.2371
  117DPPC    C3 5803   1.311   5.527   5.315 -0.0267 -0.2704  0.1089
  117DPPC    N4 5804   1.316   5.459   5.445  0.4587 -0.4699 -0.0099
  117DPPC    C5 5805   1.321   5.313   5.428  0.5191 -0.5706  0.8317
  117DPPC    C6 5806   1.458   5.253   5.394  0.5766  0.0112  0.0114
  117DPPC    O7 5807   1.431   5.114   5.377 -0.0403  0.0343  0.7641
  117DPPC    P8 5808   1.551   5.026   5.315 -0.5591 -0.0889 -0.0830
  117DPPC    O9 5809   1.684   5.065   5.366 -0.2776 -1.1353 -0.0019
  117DPPC   O10 5810   1.517   4.883   5.328 -0.8644  0.0273  0.4475
  117DPPC   O11 5811   1.536   5.062   5.159 -0.2660 -0.0464 -0.1022
  117DPPC   C12 5812   1.425   4.988   5.107 -0.5545 -0.0672  0.5311
  117DPPC   C13 5813   1.368   5.064   4.987 -0.4248 -0.3863  0.2652
  117DPPC   O14 5814   1.248   4.999   4.941 -0.4864  0.0766 -0.2355
  117DPPC   C15 5815   1.133   5.070   4.925 -0.5093  0.1806  0.3487
  117DPPC   O16 5816   1.115   5.159   5.007  0.8581  0.6765  0.1374
  117DPPC   C17 5817   1.020   5.022   4.834 -0.1035  0.3253 -0.2370
  117DPPC   C18 5818   1.061   4.952   4.704 -0.5100 -0.4624  0.0478
  117DPPC   C19 5819   0.942   4.893   4.628 -0.7132  0.4981 -0.4033
  117DPPC   C20 5820   0.992   4.814   4.507  0.2743 -0.0557  0.3456
  117DPPC   C21 5821   0.871   4.768   4.427  0.5303  0.1702 -0.1752
  117DPPC   C22 5822   0.906   4.668   4.316  0.7766  0.0078  0.0492
  117DPPC   C23 5823   0.788   4.654   4.220  0.3203  0.5576  0.5235
  117DPPC   C24 5824   0.824   4.549   4.115 -0.3947  0.1347  0.6957
  117DPPC   C25 5825   0.705   4.516   4.025  0.1004 -0.3506  0.2161
  117DPPC   C26 5826   0.743   4.401   3.931  0.1660  0.1565 -0.3838
  117DPPC   C27 5827   0.617   4.346   3.864 -0.5287  0.6466  0.4986
  117DPPC   C28 5828   0.571   4.447   3.758 -0.4515  0.4967  0.3211
  117DPPC   C29 5829   0.482   4.369   3.661  0.1920 -0.3093  0.3636
  117DPPC   C30 5830   0.546   4.246   3.597  0.6340  0.2860 -0.3400
  117DPPC   C31 5831   0.455   4.174   3.497  0.6516 -0.1293 -0.0574
  117DPPC   C32 5832   1.491   5.075   4.897 -0.2803  0.6856  0.5875
  117DPPC   O33 5833   1.494   5.150   4.775  0.1727 -0.4560 -0.1224
  117DPPC   C34 5834   1.600   5.158   4.690  0.4997  0.0607  0.3249
  117DPPC   O35 5835   1.710   5.121   4.731  0.5447 -0.5611 -0.3395
  117DPPC   C36 5836   1.573   5.232   4.559 -0.1249 -0.3983  0.1882
  117DPPC   C37 5837   1.524   5.128   4.458 -0.0306 -0.0936 -0.1750
  117DPPC   C38 5838   1.497   5.181   4.317  0.0845  0.8749  0.1627
  117DPPC   C39 5839   1.614   5.255   4.252  0.6598 -0.1085  0.0647
  117DPPC   C40 5840   1.580   5.274   4.104 -0.2012 -0.0598  0.2668
  117DPPC   C41 5841   1.705   5.310   4.023 -0.1807  0.3590  0.4795
  117DPPC   C42 5842   1.685   5.294   3.873 -0.0821 -0.4215  0.5453
  117DPPC   C43 5843   1.639   5.151   3.841  0.1199 -0.3522 -0.0808
  117DPPC   C44 5844   1.613   5.134   3.691 -1.2423  0.5341  0.0321
  117DPPC   C45 5845   1.567   4.990   3.670  0.3848  0.0049 -0.0764
  117DPPC   C46 5846   1.475   4.971   3.549  0.3063 -0.2971  0.0294
  117DPPC   C47 5847   1.396   4.840   3.545 -0.4697  0.1667 -0.0074
  117DPPC   C48 5848   1.482   4.715   3.529 -0.8169 -0.1638  0.6661
  117DPPC   C49 5849   1.393   4.593   3.555 -0.3271 -0.5147  0.7071
  117DPPC   C50 5850   1.471   4.470   3.507 -0.2469 -0.0321 -0.4322
  118DPPC    C1 5851   1.007   6.067   5.698 -0.1084 -0.5828  0.2789
  118DPPC    C2 5852   0.772   6.100   5.632  0.0566  0.2067 -0.0638
  118DPPC    C3 5853   0.869   5.891   5.655  0.2047  0.1383 -0.9199
  118DPPC    N4 5854   0.897   6.028   5.608  0.0809  0.3496 -0.3782
  118DPPC    C5 5855   0.919   6.021   5.463  1.0649 -0.6762 -0.2022
  118DPPC    C6 5856   0.999   6.134   5.399  0.2375 -0.0800 -0.2132
  118DPPC    O7 5857   1.137   6.097   5.413  0.1537 -0.4382 -0.3332
  118DPPC    P8 5858   1.233   6.190   5.324 -0.1749  0.0788 -0.1479
  118DPPC    O9 5859   1.170   6.324   5.321 -0.7898 -0.2043 -0.0194
  118DPPC   O10 5860   1.373   6.178   5.369 -0.4302 -0.4061  0.5367
  118DPPC   O11 5861   1.209   6.103   5.191 -0.1484 -0.8582  0.4556
  118DPPC   C12 5862   1.338   6.057   5.151 -0.0125 -0.4737  0.4522
  118DPPC   C13 5863   1.353   5.990   5.014 -0.5443  0.1578  0.0787
  118DPPC   O14 5864   1.355   6.079   4.901  0.1275  0.1304  0.0674
  118DPPC   C15 5865   1.471   6.146   4.874  0.1770 -0.0196 -0.0984
  118DPPC   O16 5866   1.550   6.184   4.960  0.3083 -0.2045 -0.1373
  118DPPC   C17 5867   1.480   6.216   4.739 -0.3946 -0.0010 -0.1298
  118DPPC   C18 5868   1.439   6.124   4.624  0.1764 -0.4014 -0.0135
  118DPPC   C19 5869   1.449   6.178   4.481 -0.0453  0.6631  0.3708
  118DPPC   C20 5870   1.341   6.272   4.426 -0.5356 -0.1212 -0.0123
  118DPPC   C21 5871   1.361   6.372   4.312  0.0883  0.0559  0.2491
  118DPPC   C22 5872   1.232   6.447   4.278  0.0698 -0.1649 -0.1694
  118DPPC   C23 5873   1.272   6.551   4.173  0.5989 -0.0582  0.1365
  118DPPC   C24 5874   1.144   6.622   4.132  0.4397 -0.4908 -0.1227
  118DPPC   C25 5875   1.063   6.557   4.020 -0.0230  0.1541 -0.1708
  118DPPC   C26 5876   0.934   6.636   3.994 -0.0402 -0.0066 -0.5909
  118DPPC   C27 5877   0.859   6.555   3.888  0.0424 -0.5296 -0.2513
  118DPPC   C28 5878   0.930   6.526   3.756  0.4656  0.0785 -0.1590
  118DPPC   C29 5879   0.830   6.528   3.640  0.2967  0.0236 -0.0148
  118DPPC   C30 5880   0.719   6.430   3.676 -0.1183  0.5409  0.1283
  118DPPC   C31 5881   0.614   6.435   3.565  0.7092  0.4315 -0.6688
  118DPPC   C32 5882   1.267   5.864   5.013 -0.0772 -0.1643  0.0221
  118DPPC   O33 5883   1.324   5.750   4.948  0.0270  0.1402 -0.4245
  118DPPC   C34 5884   1.235   5.647   4.948 -0.1762  0.3108  0.3240
  118DPPC   O35 5885   1.118   5.666   4.982 -0.2123 -0.0646  0.4137
  118DPPC   C36 5886   1.280   5.515   4.885 -0.1177  0.6490 -0.3469
  118DPPC   C37 5887   1.267   5.500   4.733  0.0070 -0.2511 -0.2698
  118DPPC   C38 5888   1.378   5.579   4.666 -0.0353  0.0868  0.0544
  118DPPC   C39 5889   1.345   5.586   4.516  0.0622  0.2838  0.0411
  118DPPC   C40 5890   1.464   5.657   4.451  0.5479 -0.5643 -0.0125
  118DPPC   C41 5891   1.437   5.651   4.301  0.2035 -0.6278  0.0500
  118DPPC   C42 5892   1.540   5.744   4.236 -0.3292 -0.1123 -0.0539
  118DPPC   C43 5893   1.543   5.736   4.083 -0.0438 -0.1358 -0.0466
  118DPPC   C44 5894   1.643   5.842   4.037 -0.1632  0.1620  0.3759
  118DPPC   C45 5895   1.679   5.823   3.889 -0.2805 -0.5301  0.4337
  118DPPC   C46 5896   1.785   5.913   3.826 -1.0166 -0.0681 -0.1684
  118DPPC   C47 5897   1.811   5.834   3.698 -0.5555  0.8923 -0.6834
  118DPPC   C48 5898   1.913   5.902   3.607  0.2390  0.1972 -0.3236
  118DPPC   C49 5899   1.932   5.831   3.473 -0.3293  0.0878 -0.3500
  118DPPC   C50 5900   2.070   5.866   3.417 -0.0850 -0.0915  0.1413
  119DPPC    C1 5901   1.200   0.944   5.155  0.4525  0.3623  0.5165
  119DPPC    C2 5902   1.303   0.746   5.092 -0.4271 -0.1739  0.3728
  119DPPC    C3 5903   1.326   0.945   4.950  0.1775 -0.4047 -0.1930
  119DPPC    N4 5904   1.320   0.892   5.087 -0.1612 -0.2209 -0.1362
  119DPPC    C5 5905   1.431   0.932   5.175 -0.0961 -0.6523 -0.0213
  119DPPC    C6 5906   1.574   0.912   5.124 -0.1016 -0.1128 -0.2630
  119DPPC    O7 5907   1.631   0.788   5.168 -0.1244 -0.0615 -0.0858
  119DPPC    P8 5908   1.745   0.742   5.064 -0.3386 -0.1033 -0.3046
  119DPPC    O9 5909   1.842   0.853   5.053  0.0091 -0.4043 -0.3158
  119DPPC   O10 5910   1.792   0.611   5.115 -0.2725 -0.1356 -0.4473
  119DPPC   O11 5911   1.661   0.719   4.929 -0.2121  0.2525 -0.4455
  119DPPC   C12 5912   1.628   0.580   4.931 -0.1684  0.2507  0.3450
  119DPPC   C13 5913   1.517   0.539   4.835  0.1864  0.3373 -0.1051
  119DPPC   O14 5914   1.510   0.401   4.795  0.0034  0.2268  0.3064
  119DPPC   C15 5915   1.473   0.311   4.890  0.2456  0.1071  0.2870
  119DPPC   O16 5916   1.432   0.349   4.999 -0.5166 -0.1575  0.0979
  119DPPC   C17 5917   1.456   0.165   4.845 -0.6486  0.0917  0.6519
  119DPPC   C18 5918   1.314   0.149   4.791 -0.1955 -0.4991 -0.3970
  119DPPC   C19 5919   1.271   0.224   4.665 -0.0961  0.7822  0.3081
  119DPPC   C20 5920   1.123   0.193   4.638  0.1111 -0.0493  0.1035
  119DPPC   C21 5921   1.043   0.239   4.760 -0.1626 -0.2109 -0.0138
  119DPPC   C22 5922   0.891   0.225   4.749 -0.2850  0.6021  0.5258
  119DPPC   C23 5923   0.858   0.293   4.616  0.4531 -0.2479 -0.1097
  119DPPC   C24 5924   0.716   0.256   4.570  0.2260  0.0991  0.3043
  119DPPC   C25 5925   0.690   0.339   4.444  0.1767 -0.2743  0.0677
  119DPPC   C26 5926   0.547   0.324   4.392  0.1473  0.0832  0.0428
  119DPPC   C27 5927   0.525   0.199   4.306  0.2979 -0.0185  0.1498
  119DPPC   C28 5928   0.380   0.186   4.258  0.4338  0.0481 -0.2829
  119DPPC   C29 5929   0.355   0.058   4.178  0.2421  0.2792 -0.5933
  119DPPC   C30 5930   0.217   0.080   4.115 -0.1356 -0.1659  0.0615
  119DPPC   C31 5931   0.151  -0.038   4.044  0.2383  0.0211 -0.6068
  119DPPC   C32 5932   1.537   0.630   4.714 -0.1951  0.1531 -0.3110
  119DPPC   O33 5933   1.452   0.641   4.599 -0.3168 -0.3906 -0.2731
  119DPPC   C34 5934   1.322   0.669   4.627 -0.1853  0.2075 -0.2595
  119DPPC   O35 5935   1.287   0.711   4.738  0.3530  0.4622 -0.1821
  119DPPC   C36 5936   1.229   0.661   4.506 -0.1978  0.0926 -0.2424
  119DPPC   C37 5937   1.278   0.567   4.396 -0.0957 -0.1336 -0.0040
  119DPPC   C38 5938   1.168   0.554   4.290 -0.4165  0.0359  0.3068
  119DPPC   C39 5939   1.155   0.679   4.204 -0.3986 -0.1171  0.0817
  119DPPC   C40 5940   1.070   0.645   4.081  0.2198  0.2211 -0.4483
  119DPPC   C41 5941   1.141   0.558   3.977 -0.0293 -0.3944 -0.1047
  119DPPC   C42 5942   1.069   0.582   3.845 -0.1282  0.1945  0.0525
  119DPPC   C43 5943   1.118   0.490   3.732  0.5205  0.1641  0.3553
  119DPPC   C44 5944   1.267   0.517   3.712  0.7403 -0.4953  1.0567
  119DPPC   C45 5945   1.321   0.422   3.606 -0.1852  0.0702  0.0560
  119DPPC   C46 5946   1.214   0.401   3.499  0.0506 -0.3585 -0.1031
  119DPPC   C47 5947   1.211   0.270   3.420 -0.1974 -0.0673 -0.5857
  119DPPC   C48 5948   1.089   0.260   3.329 -0.0990 -0.1545 -0.7086
  119DPPC   C49 5949   1.080   0.386   3.243  0.0242  0.3463  0.0050
  119DPPC   C50 5950   1.147   0.360   3.108 -0.5035  0.2288 -0.2365
  120DPPC    C1 5951   0.741   0.369   5.735  0.2032 -0.3107 -0.2788
  120DPPC    C2 5952   0.799   0.360   5.510  0.6396  0.6649  0.3229
  120DPPC    C3 5953   0.859   0.548   5.640 -0.2453  0.8121 -0.2346
  120DPPC    N4 5954   0.751   0.452   5.614 -0.0269  0.4436  0.2129
  120DPPC    C5 5955   0.621   0.497   5.561 -0.3703  0.1306  0.7788
  120DPPC    C6 5956   0.605   0.640   5.509  0.4008  0.0597  0.3336
  120DPPC    O7 5957   0.668   0.660   5.382  0.2534  0.3885  0.3109
  120DPPC    P8 5958   0.703   0.816   5.363  0.6797  0.2848  0.2188
  120DPPC    O9 5959   0.615   0.885   5.461  0.2004 -0.6763  0.4811
  120DPPC   O10 5960   0.848   0.822   5.389  0.7221  0.1108  0.0140
  120DPPC   O11 5961   0.677   0.852   5.209  0.3624 -0.2408  0.1455
  120DPPC   C12 5962   0.793   0.899   5.140  0.1000 -0.9590 -0.8121
  120DPPC   C13 5963   0.768   0.946   4.997  0.1565 -0.2987 -0.6075
  120DPPC   O14 5964   0.885   1.003   4.935  0.1662  0.0895 -0.2388
  120DPPC   C15 5965   0.941   0.920   4.843  0.2102  0.0383 -0.1663
  120DPPC   O16 5966   0.956   0.800   4.868  0.0462  0.0241 -0.1356
  120DPPC   C17 5967   1.004   0.978   4.717 -0.1516  0.4102 -0.1762
  120DPPC   C18 5968   0.933   0.927   4.591  0.3459  0.1857 -0.3709
  120DPPC   C19 5969   0.783   0.956   4.598  0.3535  0.0627  0.4967
  120DPPC   C20 5970   0.757   1.089   4.527 -0.5217 -0.1331  0.4376
  120DPPC   C21 5971   0.611   1.095   4.480 -0.3225  0.3892 -0.1399
  120DPPC   C22 5972   0.586   0.987   4.375 -0.7980  0.7639 -0.4140
  120DPPC   C23 5973   0.656   1.014   4.242 -0.2705  0.0391 -0.2912
  120DPPC   C24 5974   0.641   0.905   4.137 -0.1268 -0.3309  0.0698
  120DPPC   C25 5975   0.694   0.769   4.185  0.0530 -0.0207  0.7544
  120DPPC   C26 5976   0.613   0.655   4.124  0.4188  0.1804 -0.1283
  120DPPC   C27 5977   0.625   0.653   3.972 -0.0693 -0.1838 -0.1643
  120DPPC   C28 5978   0.522   0.557   3.912 -0.0650  0.0436 -0.5432
  120DPPC   C29 5979   0.561   0.412   3.942  0.5252  0.2302 -0.3941
  120DPPC   C30 5980   0.456   0.312   3.892 -0.4237  1.0275 -0.0158
  120DPPC   C31 5981   0.418   0.321   3.744  0.0072  0.8248 -0.1392
  120DPPC   C32 5982   0.660   1.051   5.020  0.7295  0.2289 -0.2783
  120DPPC   O33 5983   0.598   1.099   4.900 -0.3530 -0.1663  0.1114
  120DPPC   C34 5984   0.517   1.207   4.915 -0.5652 -0.3330  0.1771
  120DPPC   O35 5985   0.509   1.280   5.014 -0.8746 -0.3084  0.1355
  120DPPC   C36 5986   0.445   1.254   4.788 -0.2031 -0.5699 -0.1184
  120DPPC   C37 5987   0.325   1.161   4.767 -0.4910 -0.3505  0.5231
  120DPPC   C38 5988   0.238   1.207   4.650  0.2869  0.1594  0.1377
  120DPPC   C39 5989   0.111   1.126   4.629  0.6187 -0.4382  0.4202
  120DPPC   C40 5990   0.095   1.101   4.479 -0.1394  0.5361  0.3314
  120DPPC   C41 5991  -0.011   0.993   4.455  0.6543 -0.0829 -0.4396
  120DPPC   C42 5992  -0.039   1.006   4.305  0.1214  0.9048 -0.2609
  120DPPC   C43 5993   0.085   0.971   4.222  0.0949  0.2050 -0.0115
  120DPPC   C44 5994   0.048   0.990   4.075  0.0839 -0.3915 -0.0849
  120DPPC   C45 5995   0.160   0.916   4.000  0.3466  0.2205 -0.2993
  120DPPC   C46 5996   0.141   0.920   3.848  0.0266  0.5432 -0.2521
  120DPPC   C47 5997   0.243   0.853   3.755 -0.7352 -0.2617 -0.5200
  120DPPC   C48 5998   0.195   0.894   3.616 -0.5091  0.4838 -0.3861
  120DPPC   C49 5999   0.270   0.828   3.500 -0.2743 -0.3128  0.2097
  120DPPC   C50 6000   0.217   0.884   3.368  0.3865 -0.2780 -0.0459
  121DPPC    C1 6001   5.620   4.667   5.249  0.4805 -0.4352 -0.0190
  121DPPC    C2 6002   5.671   4.753   5.469 -0.0932  0.0717  0.2282
  121DPPC    C3 6003   5.664   4.897   5.272  0.0103  0.2597 -0.1552
  121DPPC    N4 6004   5.699   4.765   5.325 -0.5190  0.2456  0.1575
  121DPPC    C5 6005   5.843   4.760   5.299 -0.5734  0.0661 -0.1115
  121DPPC    C6 6006   5.911   4.628   5.336 -0.3858  0.2673  0.2616
  121DPPC    O7 6007   5.876   4.517   5.253 -0.0393  0.0868  0.3557
  121DPPC    P8 6008   5.962   4.383   5.275  0.0938  0.1044 -0.0562
  121DPPC    O9 6009   6.100   4.406   5.323  0.2534 -0.4154 -0.2548
  121DPPC   O10 6010   5.879   4.279   5.340 -0.0239  0.2160 -0.0284
  121DPPC   O11 6011   5.979   4.346   5.119  0.1132 -0.1528  0.0060
  121DPPC   C12 6012   6.036   4.460   5.055 -0.1362  0.0778  0.1931
  121DPPC   C13 6013   6.047   4.434   4.904  0.2649  0.2276  0.1944
  121DPPC   O14 6014   6.132   4.532   4.843 -0.0732  0.2871 -0.1826
  121DPPC   C15 6015   6.267   4.518   4.840 -0.1575 -0.6507 -0.1676
  121DPPC   O16 6016   6.333   4.474   4.934  0.0581 -0.4708 -0.2307
  121DPPC   C17 6017   6.333   4.602   4.730 -0.0450 -0.4848  0.0262
  121DPPC   C18 6018   6.266   4.731   4.683  0.2707 -0.4146 -0.2374
  121DPPC   C19 6019   6.358   4.815   4.594 -0.0797 -0.0188 -0.2245
  121DPPC   C20 6020   6.281   4.934   4.535 -0.3615 -0.3258 -0.4835
  121DPPC   C21 6021   6.375   5.031   4.461 -0.0464  0.2484  0.6470
  121DPPC   C22 6022   6.324   5.168   4.417 -0.0364  0.1160  0.2198
  121DPPC   C23 6023   6.442   5.259   4.384  0.3093 -0.3634  0.1220
  121DPPC   C24 6024   6.487   5.225   4.242  0.3200 -0.1327  0.0699
  121DPPC   C25 6025   6.588   5.328   4.191 -0.4227  0.4185 -0.3131
  121DPPC   C26 6026   6.616   5.298   4.043  0.0209 -0.1581 -0.1149
  121DPPC   C27 6027   6.486   5.304   3.963  0.2318 -0.0068 -0.4501
  121DPPC   C28 6028   6.507   5.244   3.824  0.4181 -0.4125 -0.2503
  121DPPC   C29 6029   6.370   5.214   3.762  0.3252  0.1998 -0.3514
  121DPPC   C30 6030   6.389   5.090   3.674  0.5766  0.0984 -0.1557
  121DPPC   C31 6031   6.253   5.070   3.606  0.5999  0.0322 -0.1831
  121DPPC   C32 6032   5.904   4.427   4.850  0.5140  0.6960 -0.5389
  121DPPC   O33 6033   5.878   4.385   4.716  0.0971  0.3904 -0.3644
  121DPPC   C34 6034   5.745   4.394   4.688  0.0883  0.6692 -0.2391
  121DPPC   O35 6035   5.666   4.410   4.780 -0.1811  0.2502 -0.3923
  121DPPC   C36 6036   5.698   4.359   4.547  0.2408 -0.3658 -0.0438
  121DPPC   C37 6037   5.810   4.370   4.444 -0.2018 -0.1475 -0.5077
  121DPPC   C38 6038   5.830   4.517   4.404 -0.0012 -0.0107  0.0884
  121DPPC   C39 6039   5.933   4.515   4.291 -0.4066 -0.5923 -0.2809
  121DPPC   C40 6040   5.936   4.662   4.248  0.6340 -0.4221  0.3414
  121DPPC   C41 6041   6.041   4.696   4.142 -0.2769 -0.2163 -0.5111
  121DPPC   C42 6042   6.050   4.848   4.121  0.5417 -0.1110  0.5103
  121DPPC   C43 6043   6.116   4.885   3.988  0.4824  0.0884  0.5357
  121DPPC   C44 6044   6.102   5.034   3.961 -0.0693  0.0250  0.4609
  121DPPC   C45 6045   5.956   5.069   3.931 -0.1801 -0.3315  0.5843
  121DPPC   C46 6046   5.933   5.218   3.907 -0.3891 -0.6481 -1.3519
  121DPPC   C47 6047   5.787   5.256   3.880 -0.3898  0.4218  0.0092
  121DPPC   C48 6048   5.768   5.404   3.846  0.0495  0.4887  0.0514
  121DPPC   C49 6049   5.624   5.451   3.866 -0.1602 -0.0739 -0.1053
  121DPPC   C50 6050   5.593   5.582   3.793 -0.1563  0.3928  0.7111
  122DPPC    C1 6051   0.307   4.877   5.212  0.2816 -0.6358  0.0539
  122DPPC    C2 6052   0.293   4.852   5.441  0.2062 -0.0517 -0.2568
  122DPPC    C3 6053   0.111   4.795   5.317  0.0270  0.6313  0.5324
  122DPPC    N4 6054   0.216   4.898   5.325  0.2928  0.4222 -0.1255
  122DPPC    C5 6055   0.162   5.035   5.333 -0.4280  0.1315  0.1605
  122DPPC    C6 6056   0.259   5.144   5.382 -0.5607  0.2222  0.2192
  122DPPC    O7 6057   0.350   5.199   5.287 -0.5062  0.2394  0.2811
  122DPPC    P8 6058   0.454   5.280   5.379  0.1735  0.0171 -0.2827
  122DPPC    O9 6059   0.372   5.403   5.387  0.1336 -0.0302  0.0452
  122DPPC   O10 6060   0.479   5.188   5.493 -0.1013 -0.5525 -0.6771
  122DPPC   O11 6061   0.588   5.279   5.290  0.4974  0.0661  0.1984
  122DPPC   C12 6062   0.599   5.153   5.222 -0.2720  0.0419  0.1034
  122DPPC   C13 6063   0.584   5.161   5.070  0.6525 -0.5601 -0.0287
  122DPPC   O14 6064   0.558   5.035   5.008  0.2514 -0.4293 -0.1273
  122DPPC   C15 6065   0.645   4.931   5.000  0.4711 -0.2258 -0.3722
  122DPPC   O16 6066   0.736   4.927   5.083  0.4770  0.2748 -0.3511
  122DPPC   C17 6067   0.606   4.826   4.896  0.0617 -0.2145 -0.2315
  122DPPC   C18 6068   0.461   4.783   4.873  0.1422 -0.6406  0.0598
  122DPPC   C19 6069   0.428   4.684   4.761 -0.7350  0.1983 -0.4372
  122DPPC   C20 6070   0.435   4.759   4.628 -0.1439  0.3431 -0.3273
  122DPPC   C21 6071   0.417   4.659   4.513 -0.1279 -0.0742  0.0323
  122DPPC   C22 6072   0.280   4.592   4.492 -0.2076  0.0824  0.0490
  122DPPC   C23 6073   0.258   4.595   4.341  0.4902  0.2781 -0.0544
  122DPPC   C24 6074   0.249   4.735   4.280 -0.3379  0.4434  0.4339
  122DPPC   C25 6075   0.283   4.728   4.131  0.7019  0.0386  0.6823
  122DPPC   C26 6076   0.257   4.865   4.069 -0.1232 -0.2244  0.4191
  122DPPC   C27 6077   0.252   4.864   3.916 -0.3361 -0.6972  0.4305
  122DPPC   C28 6078   0.374   4.799   3.851  0.2929  0.8642  0.0142
  122DPPC   C29 6079   0.374   4.827   3.700 -0.8889 -0.3996 -0.2370
  122DPPC   C30 6080   0.508   4.788   3.638 -0.6842  0.2668 -0.2212
  122DPPC   C31 6081   0.515   4.834   3.492  0.5551  0.6743 -0.0475
  122DPPC   C32 6082   0.704   5.241   5.018  0.1892  0.0755 -0.1390
  122DPPC   O33 6083   0.721   5.275   4.880  0.3770  0.2725 -0.0672
  122DPPC   C34 6084   0.808   5.378   4.861  0.5697  0.0325 -0.5198
  122DPPC   O35 6085   0.877   5.422   4.953  0.2579 -0.2738 -0.1355
  122DPPC   C36 6086   0.815   5.432   4.718 -0.0064  0.1348 -0.5120
  122DPPC   C37 6087   0.906   5.338   4.639  0.2493  0.1101 -0.1916
  122DPPC   C38 6088   0.941   5.372   4.494  0.3150 -0.3244 -0.2777
  122DPPC   C39 6089   1.031   5.256   4.449  0.4181 -0.3466 -0.0138
  122DPPC   C40 6090   1.050   5.251   4.298  0.4923 -0.0430 -0.0164
  122DPPC   C41 6091   1.143   5.356   4.237  0.1937  0.4252  0.3262
  122DPPC   C42 6092   1.142   5.328   4.086 -0.2258 -0.2021  0.4397
  122DPPC   C43 6093   1.242   5.429   4.029 -0.3927 -0.5553 -0.5040
  122DPPC   C44 6094   1.244   5.409   3.878  0.0622 -0.1168 -0.5607
  122DPPC   C45 6095   1.348   5.503   3.817  0.0959  0.3976  0.2723
  122DPPC   C46 6096   1.375   5.464   3.671 -0.2373  0.0441  0.3044
  122DPPC   C47 6097   1.477   5.550   3.597  0.5044 -0.7593  0.3694
  122DPPC   C48 6098   1.505   5.514   3.451 -0.2174  1.0252 -0.2486
  122DPPC   C49 6099   1.588   5.616   3.374  0.2345  0.4466 -0.5388
  122DPPC   C50 6100   1.605   5.574   3.228 -0.2222  0.4748 -0.6012
  123DPPC    C1 6101   6.397   0.164   5.540  0.1370  0.1591 -0.1990
  123DPPC    C2 6102   6.522  -0.010   5.653  0.0481  0.2525  0.3299
  123DPPC    C3 6103   6.631   0.182   5.599  0.2180  0.0761 -0.2561
  123DPPC    N4 6104   6.526   0.093   5.549  0.0543  0.0486  0.1283
  123DPPC    C5 6105   6.559   0.055   5.411  0.5815  0.4409  0.1440
  123DPPC    C6 6106   6.672  -0.047   5.394 -0.1968 -0.3944 -0.0960
  123DPPC    O7 6107   6.801   0.003   5.430 -0.3453 -0.3144  0.3347
  123DPPC    P8 6108   6.910  -0.115   5.442 -0.1147 -0.1562 -0.1766
  123DPPC    O9 6109   7.033  -0.076   5.514 -0.5138 -0.0689  0.4691
  123DPPC   O10 6110   6.828  -0.228   5.492  0.5920 -0.6838 -0.1952
  123DPPC   O11 6111   6.937  -0.139   5.285 -0.3035  0.1513 -0.2575
  123DPPC   C12 6112   7.078  -0.144   5.261 -0.3567  0.4271 -0.6265
  123DPPC   C13 6113   7.101  -0.190   5.117  0.1031  0.1348 -0.4601
  123DPPC   O14 6114   7.241  -0.217   5.095  0.0947 -0.2952 -0.0036
  123DPPC   C15 6115   7.323  -0.120   5.047 -0.1127 -0.0061  0.2162
  123DPPC   O16 6116   7.299  -0.003   5.074  0.2312  0.1556 -0.1697
  123DPPC   C17 6117   7.459  -0.157   4.986 -0.2733  0.0034 -0.1514
  123DPPC   C18 6118   7.468  -0.126   4.837  0.5937  0.6083  0.0215
  123DPPC   C19 6119   7.362  -0.200   4.755  0.9121 -0.3445  0.4462
  123DPPC   C20 6120   7.356  -0.149   4.611 -0.4225  0.5577  0.7943
  123DPPC   C21 6121   7.236  -0.194   4.527  0.2780 -0.3620  0.2659
  123DPPC   C22 6122   7.268  -0.176   4.379 -0.5849  0.2437  0.1466
  123DPPC   C23 6123   7.141  -0.206   4.299 -0.4828  0.0441  0.0564
  123DPPC   C24 6124   7.080  -0.344   4.325  0.0850 -0.1034  0.6282
  123DPPC   C25 6125   6.955  -0.358   4.238  0.4941 -0.3093  0.0717
  123DPPC   C26 6126   6.974  -0.351   4.086  0.1307 -0.7378  0.0053
  123DPPC   C27 6127   6.843  -0.378   4.012 -0.0161 -0.1058  0.0297
  123DPPC   C28 6128   6.865  -0.356   3.863  0.0871 -0.4901 -0.0124
  123DPPC   C29 6129   6.745  -0.380   3.772  0.1995 -0.4538 -0.1713
  123DPPC   C30 6130   6.794  -0.356   3.629 -0.4901  0.1736 -0.3126
  123DPPC   C31 6131   6.887  -0.469   3.582 -0.4147  0.1559 -0.1204
  123DPPC   C32 6132   7.017  -0.092   5.035  0.1854  0.5183 -0.0916
  123DPPC   O33 6133   7.004  -0.122   4.896  0.1771  0.3130 -0.0484
  123DPPC   C34 6134   6.979  -0.022   4.806  0.0618  0.1574 -0.1901
  123DPPC   O35 6135   6.958   0.092   4.847 -0.2668 -0.1983  0.6641
  123DPPC   C36 6136   6.959  -0.068   4.662  0.3358  0.2552 -0.2598
  123DPPC   C37 6137   6.816  -0.121   4.649  0.3169  0.2887 -0.1900
  123DPPC   C38 6138   6.790  -0.189   4.514  0.2008 -0.2115  0.0812
  123DPPC   C39 6139   6.643  -0.230   4.502  0.0421  0.3330  0.1172
  123DPPC   C40 6140   6.606  -0.313   4.379 -0.6642  0.5656  0.1748
  123DPPC   C41 6141   6.457  -0.348   4.368 -0.5391  0.1335 -0.1860
  123DPPC   C42 6142   6.426  -0.407   4.231  0.0172 -0.1106 -0.2102
  123DPPC   C43 6143   6.468  -0.553   4.213 -0.0093 -0.1644  0.1703
  123DPPC   C44 6144   6.494  -0.590   4.067 -0.2639  0.7921 -0.1277
  123DPPC   C45 6145   6.552  -0.731   4.072 -0.7392  0.5945 -0.0789
  123DPPC   C46 6146   6.553  -0.788   3.930 -0.0807  0.1363  0.1031
  123DPPC   C47 6147   6.632  -0.712   3.823  0.0577 -0.0439  0.0771
  123DPPC   C48 6148   6.630  -0.775   3.684 -0.1422  1.0774 -0.4408
  123DPPC   C49 6149   6.496  -0.802   3.613 -0.1992  0.2974 -0.0484
  123DPPC   C50 6150   6.539  -0.869   3.482  0.5851  0.2204  0.2381
  124DPPC    C1 6151   0.714   0.293   5.043 -0.0547  0.4786 -0.1943
  124DPPC    C2 6152   0.509   0.369   4.946 -0.0444  0.7750 -0.0220
  124DPPC    C3 6153   0.609   0.490   5.128 -0.4541  0.2333  0.3031
  124DPPC    N4 6154   0.584   0.357   5.071 -0.1035  0.3071 -0.0309
  124DPPC    C5 6155   0.522   0.264   5.167 -0.2034 -0.3548 -0.7292
  124DPPC    C6 6156   0.382   0.296   5.220  0.2713 -0.5969  0.7056
  124DPPC    O7 6157   0.399   0.404   5.312  0.2248  0.4110 -0.4517
  124DPPC    P8 6158   0.267   0.492   5.340  0.0907  0.0580  0.0368
  124DPPC    O9 6159   0.155   0.396   5.359  0.2139  0.0120  0.5341
  124DPPC   O10 6160   0.304   0.571   5.459  0.1412 -0.8052  0.6065
  124DPPC   O11 6161   0.257   0.591   5.214  0.2764  0.3156  0.2246
  124DPPC   C12 6162   0.266   0.727   5.256 -0.0646  0.4796 -0.2244
  124DPPC   C13 6163   0.275   0.827   5.140  0.0573  0.4087 -0.2747
  124DPPC   O14 6164   0.377   0.801   5.042  0.2069 -0.0313 -0.0106
  124DPPC   C15 6165   0.331   0.787   4.915 -0.1539  0.0114  0.1147
  124DPPC   O16 6166   0.214   0.812   4.884 -0.1428 -0.0793 -0.0032
  124DPPC   C17 6167   0.445   0.771   4.815 -0.4252 -0.0356 -0.1910
  124DPPC   C18 6168   0.407   0.799   4.669  0.2064  0.4051 -0.2800
  124DPPC   C19 6169   0.327   0.677   4.621 -0.4131  0.5302  0.4237
  124DPPC   C20 6170   0.300   0.690   4.471  0.3531 -0.0901  0.2265
  124DPPC   C21 6171   0.202   0.596   4.401  0.2215  0.3016 -0.1190
  124DPPC   C22 6172   0.217   0.597   4.249 -0.3994 -0.4071 -0.1867
  124DPPC   C23 6173   0.106   0.528   4.168 -0.2676 -0.2052 -0.5453
  124DPPC   C24 6174   0.142   0.520   4.020  0.4491 -0.2597 -0.3737
  124DPPC   C25 6175   0.024   0.441   3.963  0.1480 -0.1343  0.0646
  124DPPC   C26 6176   0.038   0.429   3.811  0.1655 -0.1399  0.0667
  124DPPC   C27 6177  -0.083   0.359   3.746  0.3757 -0.6617  0.2292
  124DPPC   C28 6178  -0.090   0.389   3.596 -0.3641 -0.0923  0.3697
  124DPPC   C29 6179  -0.221   0.320   3.555 -0.3961  0.3351 -0.2574
  124DPPC   C30 6180  -0.255   0.368   3.414 -0.6459  0.7402 -0.0612
  124DPPC   C31 6181  -0.386   0.298   3.378 -0.0499 -0.3139 -0.2276
  124DPPC   C32 6182   0.298   0.960   5.212  0.1608  0.4275 -0.3416
  124DPPC   O33 6183   0.175   1.031   5.222 -0.1213 -0.0678 -0.2266
  124DPPC   C34 6184   0.175   1.143   5.301 -0.0012 -0.1069 -0.1715
  124DPPC   O35 6185   0.272   1.161   5.374  0.1181  0.1599 -0.3933
  124DPPC   C36 6186   0.052   1.233   5.302 -0.0729 -0.2061  0.0938
  124DPPC   C37 6187  -0.013   1.223   5.163 -0.1817  0.1589  0.1156
  124DPPC   C38 6188   0.016   1.344   5.075  0.2988 -0.3418 -0.4301
  124DPPC   C39 6189  -0.039   1.315   4.936 -0.1260 -0.9434 -0.1400
  124DPPC   C40 6190  -0.192   1.301   4.939 -0.1847 -0.2076  0.6059
  124DPPC   C41 6191  -0.239   1.280   4.795  0.2749 -0.0103  0.4227
  124DPPC   C42 6192  -0.314   1.399   4.735  0.4461 -0.1383 -0.0462
  124DPPC   C43 6193  -0.308   1.400   4.582  0.4335 -0.5168 -0.0496
  124DPPC   C44 6194  -0.162   1.413   4.539  0.4199 -0.3675 -0.0533
  124DPPC   C45 6195  -0.140   1.415   4.388  0.6080  0.9535 -0.0255
  124DPPC   C46 6196  -0.211   1.527   4.312 -0.1134  0.3307 -0.2856
  124DPPC   C47 6197  -0.150   1.540   4.173 -0.1847  0.0575 -0.3425
  124DPPC   C48 6198   0.002   1.562   4.165 -0.0513 -0.8555 -0.4180
  124DPPC   C49 6199   0.055   1.522   4.027  0.1892 -0.4286 -0.4499
  124DPPC   C50 6200  -0.034   1.588   3.922 -0.0676  1.0200  0.6599
  125DPPC    C1 6201   5.781   5.571   5.448 -0.5063 -0.1660  0.8447
  125DPPC    C2 6202   5.828   5.382   5.332 -0.4678  0.4808 -0.0123
  125DPPC    C3 6203   5.986   5.559   5.342  0.1338  0.0548  0.1463
  125DPPC    N4 6204   5.893   5.479   5.422 -0.2678  0.3562 -0.0200
  125DPPC    C5 6205   5.948   5.410   5.539 -0.1048  0.0106 -0.2960
  125DPPC    C6 6206   6.085   5.344   5.522  0.0066  0.1858 -0.0982
  125DPPC    O7 6207   6.086   5.225   5.442 -0.3473  0.0255  0.1332
  125DPPC    P8 6208   6.233   5.192   5.385 -0.3658 -0.0806  0.1450
  125DPPC    O9 6209   6.272   5.297   5.288  0.6454 -0.4317  0.1620
  125DPPC   O10 6210   6.311   5.176   5.510  0.0928 -0.3387 -0.1717
  125DPPC   O11 6211   6.222   5.056   5.300 -0.1873  0.1338 -0.2230
  125DPPC   C12 6212   6.112   5.052   5.209  0.2179 -1.0988 -0.6821
  125DPPC   C13 6213   6.151   5.069   5.062  0.4756 -0.1882 -0.5127
  125DPPC   O14 6214   6.047   5.015   4.980  0.4080  0.3007 -0.7558
  125DPPC   C15 6215   6.009   4.885   4.963 -0.0883  0.2751  0.4247
  125DPPC   O16 6216   6.047   4.801   5.044 -0.0402 -0.5176 -0.4004
  125DPPC   C17 6217   5.885   4.871   4.875  0.0301 -0.1198  0.3209
  125DPPC   C18 6218   5.917   4.807   4.740  0.5311 -0.0374  0.3988
  125DPPC   C19 6219   5.801   4.801   4.641  0.2886 -0.0105  0.6793
  125DPPC   C20 6220   5.752   4.940   4.600 -0.0237 -0.4440 -0.4525
  125DPPC   C21 6221   5.863   5.025   4.538 -0.4267  0.2375 -0.2438
  125DPPC   C22 6222   5.816   5.161   4.485 -0.3061  0.3641 -0.0275
  125DPPC   C23 6223   5.939   5.230   4.425 -0.0819 -0.0943 -0.1040
  125DPPC   C24 6224   5.909   5.374   4.384 -0.1236 -0.0062  0.2275
  125DPPC   C25 6225   6.023   5.426   4.295 -0.1854 -0.1854  0.0424
  125DPPC   C26 6226   5.990   5.567   4.246 -0.1335 -0.3918 -0.5861
  125DPPC   C27 6227   6.122   5.631   4.204 -0.3494  0.0767 -0.5583
  125DPPC   C28 6228   6.181   5.580   4.072  0.9531  0.1428 -0.0146
  125DPPC   C29 6229   6.097   5.598   3.945 -0.2830 -0.1191  0.7508
  125DPPC   C30 6230   6.180   5.554   3.824 -0.4709  0.0605  0.5564
  125DPPC   C31 6231   6.091   5.540   3.701 -0.1735  0.2323  0.3196
  125DPPC   C32 6232   6.286   4.998   5.049  0.4642 -0.3747  0.3323
  125DPPC   O33 6233   6.358   5.030   4.929 -0.0686 -0.0020  0.1072
  125DPPC   C34 6234   6.480   4.973   4.914 -0.1133  0.0153 -0.3251
  125DPPC   O35 6235   6.511   4.868   4.971  0.1743  0.3175  0.0783
  125DPPC   C36 6236   6.565   5.029   4.800  0.2146  0.2457  0.0333
  125DPPC   C37 6237   6.633   5.157   4.851  0.3997  0.0883  0.1841
  125DPPC   C38 6238   6.689   5.219   4.723 -0.0204  0.0614 -0.0144
  125DPPC   C39 6239   6.799   5.126   4.672  0.0671 -0.0708  0.4078
  125DPPC   C40 6240   6.838   5.126   4.524 -0.1072 -0.6039  0.3617
  125DPPC   C41 6241   6.989   5.100   4.519  0.0645  0.4744 -0.2593
  125DPPC   C42 6242   7.040   5.098   4.375  0.0625  0.0918 -0.2541
  125DPPC   C43 6243   7.017   5.223   4.290 -0.5824  0.0838 -0.0894
  125DPPC   C44 6244   7.041   5.180   4.145  0.2390 -0.0052  0.0694
  125DPPC   C45 6245   7.172   5.110   4.109 -0.1727 -0.5774 -0.3304
  125DPPC   C46 6246   7.146   5.059   3.967  0.2630  0.0291 -0.6284
  125DPPC   C47 6247   7.264   4.972   3.925  0.3794 -0.0810 -0.0896
  125DPPC   C48 6248   7.242   4.905   3.788  0.3825 -0.2671  0.0001
  125DPPC   C49 6249   7.361   4.815   3.758  0.4688  0.0120 -0.5053
  125DPPC   C50 6250   7.332   4.715   3.646 -0.0748  0.1816 -0.5158
  126DPPC    C1 6251   0.180   5.731   5.214  0.4910 -0.4251  0.4704
  126DPPC    C2 6252   0.084   5.515   5.193 -0.0510 -0.4939 -0.5447
  126DPPC    C3 6253   0.228   5.579   5.034 -0.4667 -0.4745  0.1446
  126DPPC    N4 6254   0.122   5.636   5.119 -0.0520  0.0491  0.3222
  126DPPC    C5 6255   0.017   5.704   5.041  0.7511  0.4384 -0.4473
  126DPPC    C6 6256  -0.120   5.717   5.108  0.4021  0.1065 -1.0886
  126DPPC    O7 6257  -0.215   5.620   5.065 -0.2195  0.1716  0.0937
  126DPPC    P8 6258  -0.338   5.707   5.009 -0.0450  0.1860 -0.2706
  126DPPC    O9 6259  -0.464   5.629   5.012  0.3486 -0.4284  0.5227
  126DPPC   O10 6260  -0.340   5.828   5.094 -0.4173  0.3070 -0.4481
  126DPPC   O11 6261  -0.286   5.729   4.858  0.2927  0.9393 -0.0511
  126DPPC   C12 6262  -0.277   5.618   4.768 -0.3089  0.6220  0.2678
  126DPPC   C13 6263  -0.220   5.659   4.632 -0.0324  0.3654  0.3039
  126DPPC   O14 6264  -0.078   5.681   4.634 -0.0390  0.4146  0.2451
  126DPPC   C15 6265   0.005   5.573   4.628 -0.4366  0.0921  0.5133
  126DPPC   O16 6266  -0.032   5.456   4.631 -0.1801 -0.0072 -0.2374
  126DPPC   C17 6267   0.154   5.607   4.622 -0.3966 -0.1935 -0.2369
  126DPPC   C18 6268   0.192   5.631   4.476 -0.2689  0.0225 -0.1688
  126DPPC   C19 6269   0.340   5.666   4.460 -0.3461  0.2951 -0.2907
  126DPPC   C20 6270   0.403   5.680   4.322  0.1001  0.0436 -0.1147
  126DPPC   C21 6271   0.555   5.697   4.327  0.1583 -0.5259  0.0980
  126DPPC   C22 6272   0.616   5.716   4.188 -0.1242 -0.0781  0.0340
  126DPPC   C23 6273   0.767   5.726   4.210 -0.0434 -0.2051 -0.4577
  126DPPC   C24 6274   0.848   5.733   4.080 -0.2311  0.0501 -0.5613
  126DPPC   C25 6275   0.795   5.615   3.998 -0.9018  0.0486 -0.1358
  126DPPC   C26 6276   0.851   5.604   3.856 -0.2925  0.4307  0.0691
  126DPPC   C27 6277   0.800   5.472   3.797  0.2978  0.2598 -0.0631
  126DPPC   C28 6278   0.648   5.471   3.780  0.3671 -0.1651 -0.6846
  126DPPC   C29 6279   0.599   5.331   3.743  0.0864 -0.3388  0.3214
  126DPPC   C30 6280   0.447   5.329   3.723  0.1630  0.1685 -0.3429
  126DPPC   C31 6281   0.408   5.188   3.676  0.4616 -0.0477  0.0533
  126DPPC   C32 6282  -0.307   5.778   4.590  0.4739  0.5101 -0.3520
  126DPPC   O33 6283  -0.437   5.733   4.549  0.3309  0.2810  0.3428
  126DPPC   C34 6284  -0.518   5.829   4.497 -0.2244 -0.3823 -0.0229
  126DPPC   O35 6285  -0.468   5.926   4.442 -0.7435  0.1951  0.5061
  126DPPC   C36 6286  -0.667   5.796   4.484 -0.4730  0.4881  0.4968
  126DPPC   C37 6287  -0.753   5.892   4.402 -0.6401 -0.1711 -0.1089
  126DPPC   C38 6288  -0.718   5.889   4.253 -0.7307 -0.0740 -0.1321
  126DPPC   C39 6289  -0.819   5.981   4.185 -0.5036  0.4213  0.1986
  126DPPC   C40 6290  -0.843   5.972   4.034 -0.1732  0.0818  0.1686
  126DPPC   C41 6291  -0.945   6.080   3.999 -0.4191 -0.3495 -0.4650
  126DPPC   C42 6292  -0.968   6.109   3.851  0.0747  0.6516 -0.3530
  126DPPC   C43 6293  -1.000   5.971   3.794 -0.0080  0.4999  0.0600
  126DPPC   C44 6294  -1.033   5.989   3.646  0.1539 -0.5176 -0.1092
  126DPPC   C45 6295  -0.928   6.077   3.578 -0.0345 -0.3721 -0.2122
  126DPPC   C46 6296  -0.979   6.116   3.439  0.4158 -0.0438 -0.2858
  126DPPC   C47 6297  -1.112   6.193   3.443  0.1348 -0.5408 -0.0721
  126DPPC   C48 6298  -1.148   6.240   3.303  0.6419 -0.0764 -0.0488
  126DPPC   C49 6299  -1.029   6.324   3.254  0.6002 -0.0307 -0.0741
  126DPPC   C50 6300  -1.056   6.355   3.107  0.0363 -0.0111  0.0279
  127DPPC    C1 6301   5.948   6.277   5.056  0.3850  0.3141  0.0521
  127DPPC    C2 6302   5.964   6.148   4.856  0.2740  0.0355 -0.4116
  127DPPC    C3 6303   6.112   6.335   4.891  0.0030  0.3999  0.4497
  127DPPC    N4 6304   6.041   6.224   4.955 -0.0243  0.0454 -0.1848
  127DPPC    C5 6305   6.132   6.121   5.007 -0.3050 -0.0664  0.0908
  127DPPC    C6 6306   6.228   6.162   5.119 -0.2251  0.0825 -0.0319
  127DPPC    O7 6307   6.315   6.056   5.161 -0.4854 -0.1635 -0.1111
  127DPPC    P8 6308   6.427   6.106   5.266 -0.2215 -0.3366 -0.3085
  127DPPC    O9 6309   6.397   6.245   5.304 -0.4097 -0.3152 -0.5321
  127DPPC   O10 6310   6.477   6.007   5.365 -0.3362 -0.6152 -0.5264
  127DPPC   O11 6311   6.552   6.128   5.168  0.0744 -0.4805  0.0344
  127DPPC   C12 6312   6.549   6.069   5.038  0.1087  0.1956 -0.2751
  127DPPC   C13 6313   6.671   6.103   4.951  0.3620  0.1558  0.0631
  127DPPC   O14 6314   6.781   6.012   4.960  0.1420 -0.1171  0.0302
  127DPPC   C15 6315   6.777   5.891   4.898  0.1440 -0.2420  0.2740
  127DPPC   O16 6316   6.676   5.836   4.856  0.2901 -0.3936  0.1237
  127DPPC   C17 6317   6.914   5.824   4.882  0.2796  0.2288 -0.5619
  127DPPC   C18 6318   7.006   5.909   4.794  0.1432  0.0760 -0.8526
  127DPPC   C19 6319   7.137   5.830   4.797  0.2261  0.2498  0.1845
  127DPPC   C20 6320   7.247   5.888   4.708 -0.0017 -0.0818 -0.3172
  127DPPC   C21 6321   7.375   5.804   4.708  0.1717  0.1801 -0.3935
  127DPPC   C22 6322   7.492   5.879   4.645  0.1679  0.3438 -0.2061
  127DPPC   C23 6323   7.453   5.909   4.500  0.3703 -0.5082 -0.4424
  127DPPC   C24 6324   7.558   5.954   4.398  0.2333  0.0354 -0.3496
  127DPPC   C25 6325   7.505   6.006   4.264 -0.3598 -0.9220 -0.5036
  127DPPC   C26 6326   7.615   6.033   4.161  0.1793 -0.5997  0.1486
  127DPPC   C27 6327   7.568   6.139   4.062  0.4132 -0.3083  0.3476
  127DPPC   C28 6328   7.454   6.094   3.970  0.1456  0.5049  0.2713
  127DPPC   C29 6329   7.401   6.192   3.865  0.2016 -0.0812 -0.3091
  127DPPC   C30 6330   7.278   6.120   3.811  0.1953 -0.2613 -0.0549
  127DPPC   C31 6331   7.285   6.063   3.669 -0.3773  0.2587 -0.2976
  127DPPC   C32 6332   6.692   6.250   4.987 -0.1929  0.1350  0.4950
  127DPPC   O33 6333   6.589   6.331   4.928  0.0342  0.0971  0.0432
  127DPPC   C34 6334   6.590   6.461   4.966 -0.1506  0.2230 -0.3753
  127DPPC   O35 6335   6.676   6.501   5.045 -0.2791 -0.2718  0.0182
  127DPPC   C36 6336   6.511   6.555   4.874  0.4759  0.2404 -0.9089
  127DPPC   C37 6337   6.588   6.675   4.819  0.3785  0.6052 -0.2589
  127DPPC   C38 6338   6.508   6.768   4.729  0.2390  0.3630 -0.3849
  127DPPC   C39 6339   6.503   6.684   4.600  0.5027  0.5897 -0.5427
  127DPPC   C40 6340   6.391   6.727   4.506 -0.2168 -0.1476 -0.0310
  127DPPC   C41 6341   6.340   6.623   4.405  0.0747 -0.0957 -0.2332
  127DPPC   C42 6342   6.273   6.693   4.287 -0.3159  0.1568  0.1327
  127DPPC   C43 6343   6.217   6.584   4.195  0.8807 -0.1589 -0.2366
  127DPPC   C44 6344   6.138   6.638   4.077 -0.2578  0.1011  0.6300
  127DPPC   C45 6345   6.054   6.535   4.001  0.4203 -0.0842  0.1209
  127DPPC   C46 6346   5.940   6.583   3.910  0.0634 -0.6290  0.2777
  127DPPC   C47 6347   5.896   6.476   3.808 -0.1774  0.0352 -0.3244
  127DPPC   C48 6348   5.786   6.525   3.714 -0.6297 -0.0709  0.1418
  127DPPC   C49 6349   5.732   6.416   3.620  0.0719 -0.0321 -0.3165
  127DPPC   C50 6350   5.820   6.341   3.520  0.9696  0.0063  0.4256
  128DPPC    C1 6351   0.011   0.599   5.004 -0.2081 -0.4184  0.0319
  128DPPC    C2 6352  -0.081   0.686   4.806  0.9642  0.2990  0.2230
  128DPPC    C3 6353  -0.082   0.824   5.001  0.2752 -0.3382  0.7705
  128DPPC    N4 6354  -0.095   0.686   4.952  0.0050 -0.0926  0.1378
  128DPPC    C5 6355  -0.224   0.643   5.008 -0.5122  0.3777 -0.6797
  128DPPC    C6 6356  -0.275   0.500   4.991  0.1834  0.0825 -0.2985
  128DPPC    O7 6357  -0.310   0.446   4.863 -0.0137 -0.3725 -0.0569
  128DPPC    P8 6358  -0.395   0.315   4.900  0.0472 -0.3655  0.1106
  128DPPC    O9 6359  -0.309   0.232   4.988  0.2662 -0.6105 -0.3287
  128DPPC   O10 6360  -0.518   0.389   4.937  0.0793 -0.2121 -0.0840
  128DPPC   O11 6361  -0.396   0.253   4.751  0.4409  0.0900 -0.0833
  128DPPC   C12 6362  -0.471   0.334   4.661  0.1023 -0.0727  0.0499
  128DPPC   C13 6363  -0.469   0.262   4.526 -0.4262 -0.1254  0.0671
  128DPPC   O14 6364  -0.536   0.330   4.418 -0.1638 -0.6549 -0.4359
  128DPPC   C15 6365  -0.665   0.374   4.421  0.2092  0.4187  0.3973
  128DPPC   O16 6366  -0.749   0.347   4.506  0.5227 -0.2149  0.5089
  128DPPC   C17 6367  -0.693   0.468   4.304 -0.5322  0.0281  0.2566
  128DPPC   C18 6368  -0.736   0.389   4.180  0.0517 -0.2036  0.1982
  128DPPC   C19 6369  -0.761   0.489   4.067 -0.4829 -0.5868 -0.0266
  128DPPC   C20 6370  -0.795   0.419   3.936 -0.3251 -0.4604 -0.1354
  128DPPC   C21 6371  -0.714   0.469   3.816  0.2780 -0.7083  0.1607
  128DPPC   C22 6372  -0.743   0.400   3.682 -0.1297  0.0253 -0.1314
  128DPPC   C23 6373  -0.682   0.480   3.566  0.2023  0.0355  0.0478
  128DPPC   C24 6374  -0.752   0.459   3.431 -0.1072  0.1213  0.1935
  128DPPC   C25 6375  -0.689   0.543   3.320  0.3527 -0.3562  0.0861
  128DPPC   C26 6376  -0.752   0.531   3.181  0.1436  0.3883  0.1123
  128DPPC   C27 6377  -0.758   0.386   3.133 -0.6553  0.4493  0.0227
  128DPPC   C28 6378  -0.807   0.362   2.990  0.4423 -0.5552 -0.1953
  128DPPC   C29 6379  -0.863   0.220   2.979  0.0747 -0.4224 -0.0566
  128DPPC   C30 6380  -0.906   0.199   2.834 -0.1428 -0.7265  0.0531
  128DPPC   C31 6381  -0.796   0.196   2.728  0.0738 -0.1176  0.2575
  128DPPC   C32 6382  -0.507   0.115   4.547 -0.6478 -0.0659  0.0830
  128DPPC   O33 6383  -0.464   0.028   4.441 -0.0523 -0.0991  0.3486
  128DPPC   C34 6384  -0.469  -0.105   4.469 -0.0597 -0.0612  0.5366
  128DPPC   O35 6385  -0.538  -0.144   4.562 -0.2095 -0.9256  0.0778
  128DPPC   C36 6386  -0.390  -0.196   4.375  0.1669  0.3338  0.3424
  128DPPC   C37 6387  -0.467  -0.234   4.248  0.2965  0.6197  0.1763
  128DPPC   C38 6388  -0.361  -0.282   4.149 -0.0398 -0.4557  0.3193
  128DPPC   C39 6389  -0.418  -0.343   4.021  0.4144 -0.0738 -0.0733
  128DPPC   C40 6390  -0.313  -0.360   3.912  0.1898 -0.2685 -0.2608
  128DPPC   C41 6391  -0.350  -0.432   3.782 -0.2934  0.3330 -0.4593
  128DPPC   C42 6392  -0.223  -0.407   3.701  0.3553 -0.2822  0.3534
  128DPPC   C43 6393  -0.259  -0.431   3.554  0.5111 -0.3516  0.3263
  128DPPC   C44 6394  -0.229  -0.576   3.515 -0.2274 -0.2961 -0.4709
  128DPPC   C45 6395  -0.272  -0.607   3.372  0.0938  0.7054 -0.7901
  128DPPC   C46 6396  -0.263  -0.756   3.340  0.1295  0.4169  0.5315
  128DPPC   C47 6397  -0.208  -0.765   3.198 -0.4191 -0.2769  0.3573
  128DPPC   C48 6398  -0.171  -0.908   3.157  0.4689  0.1056 -0.1900
  128DPPC   C49 6399  -0.105  -0.901   3.019  0.0071 -0.2366 -0.4304
  128DPPC   C50 6400  -0.055  -1.040   2.980 -0.6855 -0.6713  0.2224
  129SOL     OW 6401   5.206   1.088   0.441 -0.0735 -0.0664 -0.1894
  129SOL    HW1 6402   5.205   1.143   0.524  1.8381  0.0856 -0.2113
  129SOL    HW2 6403   5.145   1.009   0.452  1.5446 -1.1080  2.1352
  130SOL     OW 6404   5.638   5.919   5.508 -0.0489  0.0371 -0.4466
  130SOL    HW1 6405   5.703   5.959   5.573  0.5110  0.1155 -1.0510
  130SOL    HW2 6406   5.591   5.842   5.551  1.4412 -0.9158 -0.4398
  131SOL     OW 6407   3.638   4.866   4.629  0.0037 -0.0795  0.5267
  131SOL    HW1 6408   3.680   4.821   4.550 -1.1440 -1.8714  0.8827
  131SOL    HW2 6409   3.655   4.964   4.624  1.7088 -0.3958 -0.8462
  132SOL     OW 6410   4.467   4.766   0.732 -0.4173  0.6899 -0.4598
  132SOL    HW1 6411   4.498   4.844   0.786  0.3899  1.4909 -2.0010
  132SOL    HW2 6412   4.373   4.743   0.757 -0.3773  1.6265  0.6096
  133SOL     OW 6413   2.410   4.680   5.870  0.2847  0.0697 -0.5782
  133SOL    HW1 6414   2.445   4.597   5.913 -1.4152 -0.7786 -0.7267
  133SOL    HW2 6415   2.412   4.756   5.935 -0.2886 -0.6750  0.3294
  134SOL     OW 6416   5.291   2.213   5.123 -0.0370  0.6316 -0.4792
  134SOL    HW1 6417   5.322   2.133   5.071 -0.6545  0.3174 -0.3825
  134SOL    HW2 6418   5.309   2.296   5.070 -1.6249  0.2439 -1.7199
  135SOL     OW 6419   1.418   4.690   5.523  0.3204 -0.3072  0.3733
  135SOL    HW1 6420   1.418   4.597   5.485 -2.7103  0.3055 -1.4360
  135SOL    HW2 6421   1.433   4.755   5.449  0.5729  0.7287  1.3210
  136SOL     OW 6422   2.961   1.555   0.362  0.4446  1.2741  0.2150
  136SOL    HW1 6423   2.994   1.464   0.341 -0.7064  1.3131 -2.0654
  136SOL    HW2 6424   2.996   1.621   0.295 -3.4195  1.4117 -1.9969
  137SOL     OW 6425   0.243   1.586   0.024  0.2328 -0.2388 -0.0022
  137SOL    HW1 6426   0.157   1.610   0.068 -0.0245 -1.1049 -0.0218
  137SOL    HW2 6427   0.290   1.516   0.077  0.3494 -0.6359 -0.6232
  138SOL     OW 6428   3.035   1.955   5.425 -0.7929  0.1084  0.7300
  138SOL    HW1 6429   2.985   1.886   5.477  1.5663 -0.9802  1.6926
  138SOL    HW2 6430   3.051   1.922   5.332 -0.2068 -0.3755  1.0012
  139SOL     OW 6431   6.417   0.360   0.144 -0.1304  0.4884  0.5388
  139SOL    HW1 6432   6.377   0.332   0.231  1.4814 -1.0064  0.8754
  139SOL    HW2 6433   6.377   0.306   0.070 -0.8486  1.1205  0.4531
  140SOL     OW 6434   1.604   5.981   1.191 -0.3980  0.1544  0.4210
  140SOL    HW1 6435   1.625   5.888   1.224 -1.6256 -0.3765 -0.2443
  140SOL    HW2 6436   1.530   5.977   1.124 -0.5961  1.6457  0.5188
  141SOL     OW 6437   3.959   0.242   4.559  0.2674  0.3097 -0.6395
  141SOL    HW1 6438   3.959   0.298   4.642  0.8364  1.4052 -1.3582
  141SOL    HW2 6439   3.906   0.289   4.488 -1.3405 -1.2300 -0.5165
  142SOL     OW 6440   1.653   3.860   5.598  0.7273  0.9730  0.0043
  142SOL    HW1 6441   1.650   3.960   5.587 -0.0601  0.7077 -2.9849
  142SOL    HW2 6442   1.704   3.819   5.522  0.6866 -0.9480  0.9518
  143SOL     OW 6443   3.867   3.360   0.060 -0.4413  0.1883 -0.1927
  143SOL    HW1 6444   3.964   3.359   0.037 -0.9015 -1.0978 -2.3123
  143SOL    HW2 6445   3.825   3.273   0.034 -2.2690  0.8877  0.2405
  144SOL     OW 6446   1.220   5.947   0.414  0.0757  0.1416  0.0180
  144SOL    HW1 6447   1.261   5.967   0.325 -0.0368  1.6298  0.2752
  144SOL    HW2 6448   1.293   5.934   0.482  0.1486 -0.2916 -0.1371
  145SOL     OW 6449   6.189   4.747   5.451  0.1344  0.6923 -0.0197
  145SOL    HW1 6450   6.231   4.834   5.480 -0.8446  1.0836  0.2819
  145SOL    HW2 6451   6.220   4.724   5.359  0.3679  1.3935 -0.1250
  146SOL     OW 6452   4.747   4.848   0.682 -0.2601 -0.0630 -0.1034
  146SOL    HW1 6453   4.656   4.851   0.642  0.2469  1.9040 -1.1940
  146SOL    HW2 6454   4.815   4.829   0.611  0.5456  2.4981 -0.1102
  147SOL     OW 6455   1.338   2.201   6.246  0.2464 -0.3302 -0.8571
  147SOL    HW1 6456   1.342   2.257   6.329 -1.8805  2.7346 -2.6197
  147SOL    HW2 6457   1.262   2.136   6.254 -0.2630  0.2884 -0.5880
  148SOL     OW 6458   3.142   0.706   4.796  0.4591  0.7183  0.3178
  148SOL    HW1 6459   3.045   0.728   4.800 -0.4445 -2.7810  1.2975
  148SOL    HW2 6460   3.161   0.653   4.714  1.0539 -0.4389  1.1709
  149SOL     OW 6461   3.371   4.871   0.142  0.4866  0.2694  0.0571
  149SOL    HW1 6462   3.430   4.821   0.079  0.8966  0.3099  0.4114
  149SOL    HW2 6463   3.292   4.813   0.166  0.4710  0.1507 -0.2725
  150SOL     OW 6464   2.632   5.575   6.129 -0.0678  0.4484 -0.1282
  150SOL    HW1 6465   2.656   5.609   6.038 -0.8433 -0.5915 -0.7493
  150SOL    HW2 6466   2.567   5.499   6.120 -2.0349  1.8286  1.3811
  151SOL     OW 6467   4.556   5.953   6.338 -0.4175 -0.2913 -0.5352
  151SOL    HW1 6468   4.613   5.968   6.257 -0.4005 -1.9460 -0.8595
  151SOL    HW2 6469   4.475   5.900   6.312 -0.2721 -1.0887  0.5810
  152SOL     OW 6470   3.241   2.278   0.001  0.2293  0.3130  0.1849
  152SOL    HW1 6471   3.202   2.369  -0.013 -0.3063  0.1303  0.4784
  152SOL    HW2 6472   3.244   2.229  -0.086  0.2614  0.5077  0.0761
  153SOL     OW 6473   0.174   2.812   0.205 -0.2196  0.0156  0.2083
  153SOL    HW1 6474   0.142   2.726   0.246 -1.8269 -0.2372 -1.3985
  153SOL    HW2 6475   0.245   2.792   0.138  0.0847  0.0551  0.5176
  154SOL     OW 6476   1.343   6.272   0.249  0.0017 -0.4391 -0.5164
  154SOL    HW1 6477   1.439   6.261   0.272 -0.3370 -0.4559  0.9549
  154SOL    HW2 6478   1.333   6.342   0.179  1.0356 -0.0968 -0.3305
  155SOL     OW 6479   4.922   0.041   4.777  0.0923  0.1174  0.6596
  155SOL    HW1 6480   5.020   0.021   4.786  0.4913  2.3600  1.9056
  155SOL    HW2 6481   4.910   0.123   4.720 -1.1000 -0.2599  0.3378
  156SOL     OW 6482   2.273   1.701   6.089 -0.0014  0.4254  0.3043
  156SOL    HW1 6483   2.328   1.760   6.147 -0.8391  0.6571  0.8918
  156SOL    HW2 6484   2.178   1.733   6.089 -0.6014 -1.1972  1.0519
  157SOL     OW 6485   2.832   3.477   4.742  1.2530 -0.2577 -0.4172
  157SOL    HW1 6486   2.884   3.561   4.761 -0.5854  0.7851  0.2588
  157SOL    HW2 6487   2.738   3.488   4.774  0.7715 -2.3488 -0.9547
  158SOL     OW 6488   1.698   0.053   0.883 -0.2064 -0.3961  0.3431
  158SOL    HW1 6489   1.717   0.106   0.966 -1.6124 -1.5936  1.5003
  158SOL    HW2 6490   1.606   0.075   0.850 -0.0525 -0.6869 -0.2956
  159SOL     OW 6491   4.225   3.000   6.425  0.2291  0.1060  0.2031
  159SOL    HW1 6492   4.314   3.046   6.417  0.6921 -0.8299 -0.1336
  159SOL    HW2 6493   4.166   3.028   6.349  1.1233 -1.1504 -1.0060
  160SOL     OW 6494   3.342   5.077   5.317  0.3684 -0.9869 -0.3759
  160SOL    HW1 6495   3.411   5.056   5.247  3.2354  2.5428  1.0990
  160SOL    HW2 6496   3.360   5.022   5.399  2.8115  1.1504  0.6546
  161SOL     OW 6497   1.499   3.529   6.515 -0.1094 -0.3085 -0.4751
  161SOL    HW1 6498   1.568   3.497   6.451  0.9984 -1.8722  1.4053
  161SOL    HW2 6499   1.516   3.626   6.537  0.8388 -0.3836 -0.8418
  162SOL     OW 6500   1.689   5.253   6.369 -0.1212  0.4672  0.0145
  162SOL    HW1 6501   1.774   5.301   6.393 -0.4796  1.3540 -0.4467
  162SOL    HW2 6502   1.711   5.164   6.329  0.5494  0.1189  1.1129
  163SOL     OW 6503   1.116   6.332   0.635 -0.3716 -0.1255  0.5499
  163SOL    HW1 6504   1.194   6.274   0.659  0.9955  1.8223  0.9894
  163SOL    HW2 6505   1.041   6.314   0.700  0.5346 -0.3869  1.5547
  164SOL     OW 6506   1.478   2.675   0.800  0.8296  0.2395 -0.0621
  164SOL    HW1 6507   1.538   2.600   0.830 -0.7579 -0.7432  0.7811
  164SOL    HW2 6508   1.514   2.713   0.715  1.6582 -1.5285 -0.5618
  165SOL     OW 6509   2.926   0.037   6.558 -0.0109  0.0673 -0.4015
  165SOL    HW1 6510   2.876   0.122   6.542 -0.7190 -0.0932  0.9066
  165SOL    HW2 6511   2.983   0.046   6.640 -1.5851 -1.3349  0.9074
  166SOL     OW 6512   2.368   3.501   0.150  1.1582 -0.3643  1.1059
  166SOL    HW1 6513   2.296   3.570   0.143  2.1538  0.7282  1.4218
  166SOL    HW2 6514   2.348   3.441   0.228  1.5992  1.1747  2.4501
  167SOL     OW 6515   4.751   5.255   0.338  0.1272  0.5742  0.7932
  167SOL    HW1 6516   4.691   5.271   0.417 -0.2303 -0.6271  0.7904
  167SOL    HW2 6517   4.698   5.266   0.254 -0.1608 -0.6304  0.7936
  168SOL     OW 6518   4.354   5.556   0.960 -0.2859 -0.0397 -0.0471
  168SOL    HW1 6519   4.296   5.633   0.988  0.2237  1.4104 -2.6343
  168SOL    HW2 6520   4.297   5.483   0.924 -0.6611  0.0277  0.3993
  169SOL     OW 6521   1.538   0.542   0.267 -0.0116  0.2818 -0.0963
  169SOL    HW1 6522   1.477   0.608   0.311  0.6741  0.0814  1.2115
  169SOL    HW2 6523   1.487   0.491   0.197 -0.6358  1.9444 -0.9117
  170SOL     OW 6524   3.510   4.705   6.251  0.0424 -0.8113  0.1639
  170SOL    HW1 6525   3.452   4.626   6.230  0.6007 -1.6910  1.7666
  170SOL    HW2 6526   3.590   4.705   6.191 -0.3699 -0.9958 -0.3897
  171SOL     OW 6527   5.208   0.838   5.784  0.9376  0.0812  0.3188
  171SOL    HW1 6528   5.156   0.753   5.768 -0.3582  0.6868  1.1229
  171SOL    HW2 6529   5.276   0.849   5.712  0.7600 -1.3667 -0.1079
  172SOL     OW 6530   4.133   0.358   6.405  0.6442 -0.0152 -0.5860
  172SOL    HW1 6531   4.202   0.288   6.388  0.7599 -0.0739  0.0966
  172SOL    HW2 6532   4.048   0.334   6.357  1.0152 -0.0750 -1.2144
  173SOL     OW 6533   1.481   6.280   1.053  0.0225  0.7603  0.2628
  173SOL    HW1 6534   1.447   6.187   1.041  0.0150  0.7097  0.6768
  173SOL    HW2 6535   1.474   6.329   0.966 -0.6821  0.6151  0.2371
  174SOL     OW 6536   0.766   3.788   1.111 -0.8341  0.0411 -0.2301
  174SOL    HW1 6537   0.790   3.882   1.138  1.4707 -0.0803 -1.5676
  174SOL    HW2 6538   0.783   3.727   1.188  0.0952  0.4190 -0.1176
  175SOL     OW 6539   1.071   3.590   5.896 -0.8887 -0.2397 -0.4484
  175SOL    HW1 6540   1.109   3.677   5.864 -1.2561  0.3419  0.6210
  175SOL    HW2 6541   1.137   3.517   5.880  0.1077  0.5164  0.0850
  176SOL     OW 6542   4.415   2.705   0.780 -0.5399 -0.5417  0.2343
  176SOL    HW1 6543   4.404   2.691   0.878 -0.5873  2.4776  0.7308
  176SOL    HW2 6544   4.504   2.667   0.752  0.6229  0.7107  1.9751
  177SOL     OW 6545   4.650   0.313   5.572  0.4386 -0.5263 -0.3278
  177SOL    HW1 6546   4.725   0.289   5.634 -0.0191 -1.7580 -0.2411
  177SOL    HW2 6547   4.680   0.389   5.514  2.2650 -1.8244 -1.2038
  178SOL     OW 6548   3.125   1.346   6.584  0.3841  0.1343  0.5691
  178SOL    HW1 6549   3.220   1.319   6.602  0.1123 -1.6478 -0.3651
  178SOL    HW2 6550   3.070   1.331   6.666  0.9888  1.6673  1.2730
  179SOL     OW 6551   5.932   2.164   0.760  0.6781 -0.5038  0.0223
  179SOL    HW1 6552   5.973   2.116   0.682 -1.1993 -2.2564  0.0291
  179SOL    HW2 6553   6.002   2.218   0.807  2.5421 -1.9222 -1.0072
  180SOL     OW 6554   4.859   4.585   5.791 -0.0768  0.1743  0.1439
  180SOL    HW1 6555   4.786   4.516   5.792 -2.1852  2.2628  0.9728
  180SOL    HW2 6556   4.818   4.676   5.782  2.5812  1.3701 -0.8168
  181SOL     OW 6557   4.260   4.038   4.346  0.2081  0.1263  0.1307
  181SOL    HW1 6558   4.240   3.988   4.262 -0.5299 -0.5405  0.6810
  181SOL    HW2 6559   4.324   3.984   4.402  1.4072  0.9747 -0.3788
  182SOL     OW 6560   4.467   3.280   4.959 -0.4955  0.3752 -0.5814
  182SOL    HW1 6561   4.472   3.361   5.018  0.7517 -0.0572 -0.0677
  182SOL    HW2 6562   4.430   3.307   4.870  3.7522  2.5174 -2.0114
  183SOL     OW 6563   1.449   5.677   0.712 -0.1625  0.0391 -0.3356
  183SOL    HW1 6564   1.365   5.622   0.715 -0.4844  0.4752 -1.2180
  183SOL    HW2 6565   1.436   5.755   0.651  1.6359 -1.1323 -2.3604
  184SOL     OW 6566   4.658   2.582   0.622  0.6392  0.4711 -0.1302
  184SOL    HW1 6567   4.580   2.611   0.566  1.7392  0.5117 -1.7176
  184SOL    HW2 6568   4.741   2.585   0.566  2.2428  2.8724  2.1252
  185SOL     OW 6569   1.486   5.005   6.579 -0.5835  0.4767  0.0810
  185SOL    HW1 6570   1.538   4.980   6.498 -1.0404 -1.1138  0.2345
  185SOL    HW2 6571   1.392   5.027   6.553 -0.7637 -0.1574  0.1765
  186SOL     OW 6572   4.351   5.357   0.330  0.5343  0.4004  0.5598
  186SOL    HW1 6573   4.347   5.456   0.343  1.7247  0.4158  0.9382
  186SOL    HW2 6574   4.319   5.334   0.238 -1.5319  0.9409  1.0840
  187SOL     OW 6575   0.898   4.385   6.378  0.0294 -0.7698 -0.2524
  187SOL    HW1 6576   0.923   4.301   6.426  3.6735 -0.5566 -1.4695
  187SOL    HW2 6577   0.902   4.370   6.279  1.4135  0.9170 -0.5062
  188SOL     OW 6578   2.099   0.483   2.097 -0.4394 -0.2075  0.3193
  188SOL    HW1 6579   2.139   0.395   2.125  1.2820  0.3063 -0.3868
  188SOL    HW2 6580   2.129   0.504   2.004 -0.4010  1.3727  0.6719
  189SOL     OW 6581   3.985   5.702   0.916  0.1116 -0.6578  0.4285
  189SOL    HW1 6582   3.974   5.797   0.884  0.1132 -1.3246 -1.6843
  189SOL    HW2 6583   4.060   5.698   0.982  2.1561  0.3582 -1.7256
  190SOL     OW 6584   4.120   5.756   5.841  0.7829 -0.0631  0.2328
  190SOL    HW1 6585   4.111   5.745   5.940 -0.4484 -0.4565  0.0958
  190SOL    HW2 6586   4.081   5.844   5.813  1.4299  0.1949  0.1325
  191SOL     OW 6587   1.278   2.951   0.853  0.2178  0.2146  0.2089
  191SOL    HW1 6588   1.339   2.906   0.919  0.0103  0.0304  0.2750
  191SOL    HW2 6589   1.265   3.047   0.879  3.0981  1.2486 -1.5584
  192SOL     OW 6590   2.619   4.797   6.415 -0.5169 -0.7953 -0.0644
  192SOL    HW1 6591   2.690   4.838   6.357  0.5404 -0.6979  1.2391
  192SOL    HW2 6592   2.589   4.864   6.483 -1.2889 -1.1067 -0.0900
  193SOL     OW 6593   1.970   6.089   6.017 -0.3782  0.0955  0.2729
  193SOL    HW1 6594   1.877   6.124   6.028 -0.6985 -0.9310  0.9991
  193SOL    HW2 6595   2.036   6.163   6.031 -1.0638  0.6658  0.5230
  194SOL     OW 6596   3.008   4.411   0.231 -0.2919  0.0624  0.6338
  194SOL    HW1 6597   2.941   4.350   0.189  0.1742 -0.7897  1.1206
  194SOL    HW2 6598   3.001   4.405   0.331  0.5557 -0.0884  0.6888
  195SOL     OW 6599   1.374   5.713   6.189 -0.1460  0.2924  0.1799
  195SOL    HW1 6600   1.442   5.641   6.181 -0.2260  0.2706 -0.2865
  195SOL    HW2 6601   1.294   5.678   6.238  0.0057  0.1987  0.3620
  196SOL     OW 6602   6.024   2.506   6.290  0.3744 -0.6015  0.3059
  196SOL    HW1 6603   5.935   2.499   6.245  0.6204  0.0043 -0.2925
  196SOL    HW2 6604   6.054   2.602   6.291  1.5058 -0.9178 -0.4850
  197SOL     OW 6605   5.516   2.772   4.985  0.1626  0.0654 -0.6266
  197SOL    HW1 6606   5.459   2.691   5.003 -2.0315  1.2774 -1.7312
  197SOL    HW2 6607   5.550   2.769   4.892  1.9334 -0.5960 -0.0067
  198SOL     OW 6608   3.000   6.375   4.917  0.3018 -0.1876 -0.4621
  198SOL    HW1 6609   2.952   6.310   4.858 -0.4572 -0.3576  0.3286
  198SOL    HW2 6610   2.940   6.404   4.991  0.6120  1.4531 -0.8126
  199SOL     OW 6611   1.979   0.031   0.182  0.4535 -0.3298 -0.3405
  199SOL    HW1 6612   2.059  -0.028   0.165  0.0435 -1.0290  0.1036
  199SOL    HW2 6613   2.010   0.119   0.218  1.0757 -0.2731 -0.9975
  200SOL     OW 6614   4.803   1.003   0.653  0.2340 -0.1932  0.0764
  200SOL    HW1 6615   4.807   1.103   0.658  1.4359  0.0998 -3.6240
  200SOL    HW2 6616   4.881   0.964   0.701 -0.2472  0.5987  1.5632
  201SOL     OW 6617   4.534   0.551   1.372 -0.4784 -0.3596 -0.2391
  201SOL    HW1 6618   4.613   0.595   1.413  1.1387 -2.2210 -1.1896
  201SOL    HW2 6619   4.467   0.529   1.443 -0.1531  1.1762  0.5824
  202SOL     OW 6620   1.055   0.910   0.279 -0.0041 -0.1809  0.0103
  202SOL    HW1 6621   1.147   0.903   0.241 -0.1821  0.4465 -0.5583
  202SOL    HW2 6622   1.047   0.996   0.331 -0.5451  0.2377 -0.7464
  203SOL     OW 6623   0.769   3.384   1.156  0.3117 -0.6710 -0.1898
  203SOL    HW1 6624   0.747   3.327   1.235  1.8536 -1.3062 -0.1853
  203SOL    HW2 6625   0.823   3.463   1.185 -0.6912  0.1021 -0.3793
  204SOL     OW 6626   0.835   6.358   0.672  0.0681  0.0769 -0.1367
  204SOL    HW1 6627   0.797   6.294   0.605 -2.9943  2.2351 -0.7029
  204SOL    HW2 6628   0.826   6.452   0.636  1.6948  1.0719  1.8494
  205SOL     OW 6629   2.026   1.492   5.932  0.1880  0.0671  0.5411
  205SOL    HW1 6630   2.038   1.491   6.031  0.4015  1.5955  0.5602
  205SOL    HW2 6631   1.930   1.504   5.909  0.1141 -0.4878  0.5570
  206SOL     OW 6632   1.284   4.190   0.982 -0.6004  0.1851 -0.3189
  206SOL    HW1 6633   1.211   4.258   0.978  1.9000  3.1130 -0.3385
  206SOL    HW2 6634   1.308   4.172   1.077 -0.9692 -0.3145 -0.3220
  207SOL     OW 6635   3.018   5.398   4.983  0.0682 -1.0526  0.0398
  207SOL    HW1 6636   3.104   5.348   4.977  0.4172 -0.3911 -0.7514
  207SOL    HW2 6637   3.032   5.485   5.029 -0.0897 -0.7904 -0.3917
  208SOL     OW 6638   2.100   2.138   6.569 -0.6370  0.4985  0.0914
  208SOL    HW1 6639   2.146   2.059   6.530  0.9514  1.3860  0.0615
  208SOL    HW2 6640   2.038   2.178   6.502 -0.3151  0.1612 -0.4089
  209SOL     OW 6641   1.643   0.324   6.014  0.2609 -0.5876 -0.1217
  209SOL    HW1 6642   1.551   0.336   5.977  0.5536  1.0603 -0.4079
  209SOL    HW2 6643   1.671   0.229   6.004 -0.9240 -0.8521 -1.1866
  210SOL     OW 6644   4.312   4.221   6.356  0.0450  0.3722 -0.4182
  210SOL    HW1 6645   4.371   4.265   6.289 -0.5606  0.1488 -1.1059
  210SOL    HW2 6646   4.319   4.270   6.443  0.7773  0.7104 -0.6546
  211SOL     OW 6647   6.232   3.291   0.356 -0.1860 -0.1033 -0.0501
  211SOL    HW1 6648   6.303   3.293   0.426 -0.3693 -0.1995  0.1414
  211SOL    HW2 6649   6.146   3.324   0.395 -0.2584 -0.0393 -0.2644
  212SOL     OW 6650   6.014   1.564   5.040  0.4288  0.2219  0.1025
  212SOL    HW1 6651   6.088   1.611   4.991  0.3933 -0.5790 -0.7501
  212SOL    HW2 6652   5.935   1.555   4.979  0.5638 -1.2454  0.1260
  213SOL     OW 6653   3.135   2.743   6.213  0.1408  0.1901  0.1176
  213SOL    HW1 6654   3.099   2.664   6.163 -0.2011 -0.6169  1.5613
  213SOL    HW2 6655   3.059   2.796   6.251  0.3991  0.3249  0.4517
  214SOL     OW 6656   2.327   2.291   5.489  0.2500 -1.0856  0.1976
  214SOL    HW1 6657   2.342   2.227   5.565 -0.4440 -0.8900  0.5051
  214SOL    HW2 6658   2.328   2.240   5.402  2.9967 -1.0567  0.1263
  215SOL     OW 6659   2.579   0.640   6.372 -0.4855  0.5043  0.0440
  215SOL    HW1 6660   2.565   0.648   6.273 -0.2063 -0.1954 -0.0527
  215SOL    HW2 6661   2.492   0.656   6.419 -0.9073 -0.4679 -0.3861
  216SOL     OW 6662   3.183   3.927   1.254  0.2417  0.3931 -0.3170
  216SOL    HW1 6663   3.137   3.842   1.279 -1.4954  1.2822 -0.3592
  216SOL    HW2 6664   3.177   3.992   1.329 -1.5158  1.6718 -1.4811
  217SOL     OW 6665   1.735   0.888   5.757  0.2924  0.0415 -0.1797
  217SOL    HW1 6666   1.783   0.962   5.805 -0.1751 -0.0835  0.4890
  217SOL    HW2 6667   1.671   0.927   5.691 -0.6841  0.2578  0.8837
  218SOL     OW 6668   1.654   2.901   6.347  0.1496 -0.6830 -0.4065
  218SOL    HW1 6669   1.723   2.836   6.377 -1.2378 -2.6775 -1.3053
  218SOL    HW2 6670   1.679   2.993   6.378  2.3402 -1.5580  0.6440
  219SOL     OW 6671   1.665   2.329   0.658  0.3106  0.0597 -0.4699
  219SOL    HW1 6672   1.691   2.402   0.595  0.4358  0.8705  0.4901
  219SOL    HW2 6673   1.569   2.305   0.645  0.5183 -0.2753 -1.4379
  220SOL     OW 6674   0.770   6.380   0.923  0.5514 -0.0131  0.1950
  220SOL    HW1 6675   0.788   6.367   0.825 -1.1784  1.4307 -0.3614
  220SOL    HW2 6676   0.814   6.463   0.955 -1.7953  1.5368 -0.3089
  221SOL     OW 6677   3.908   0.091   1.031 -0.0409  0.6406 -0.2025
  221SOL    HW1 6678   3.860   0.059   0.950 -1.5480  0.1808  0.8293
  221SOL    HW2 6679   3.974   0.162   1.005 -0.9673  0.9794 -1.7356
  222SOL     OW 6680   2.706   5.549   5.610  0.4901  0.9355  0.0783
  222SOL    HW1 6681   2.789   5.581   5.564 -0.4333  0.4682 -2.0239
  222SOL    HW2 6682   2.633   5.536   5.543 -0.4714 -1.3918  1.4429
  223SOL     OW 6683   1.569   5.870   6.362 -0.2597  0.4038 -0.3308
  223SOL    HW1 6684   1.614   5.867   6.273 -0.6379  1.7491 -0.6005
  223SOL    HW2 6685   1.479   5.826   6.355 -0.0558  0.0083 -0.4675
  224SOL     OW 6686   1.128   5.244   5.783  0.5925 -0.6700  0.8079
  224SOL    HW1 6687   1.181   5.310   5.836  1.4745 -0.8565  0.1795
  224SOL    HW2 6688   1.098   5.169   5.841 -0.6050  0.3596  1.5864
  225SOL     OW 6689   5.868   0.396   1.029 -0.3949  0.5269  0.0324
  225SOL    HW1 6690   5.806   0.324   0.996 -0.7531  0.2211  1.3121
  225SOL    HW2 6691   5.940   0.412   0.961 -0.2557 -1.0964 -0.2421
  226SOL     OW 6692   0.003   0.339   0.929  0.2494  0.4742 -0.5108
  226SOL    HW1 6693   0.047   0.399   0.862 -1.5480  0.9302 -1.3466
  226SOL    HW2 6694   0.039   0.246   0.919  1.5990  0.9841 -0.5768
  227SOL     OW 6695   3.511   5.645   5.993  0.1619  0.2769  0.0661
  227SOL    HW1 6696   3.513   5.596   6.080  0.9005  0.3602  0.1008
  227SOL    HW2 6697   3.488   5.741   6.009  1.9143  0.6818  0.3764
  228SOL     OW 6698   1.816   6.104   6.309 -0.1100  0.2889  0.0243
  228SOL    HW1 6699   1.754   6.126   6.234 -0.2700 -0.9211 -0.2274
  228SOL    HW2 6700   1.765   6.061   6.383  0.5222 -1.7737 -0.6459
  229SOL     OW 6701   4.153   5.705   5.293  1.0058  0.2129  0.3691
  229SOL    HW1 6702   4.192   5.614   5.285  0.9225  0.2964 -1.5306
  229SOL    HW2 6703   4.054   5.699   5.305  1.0241  0.0586  0.4386
  230SOL     OW 6704   1.396   0.180   1.118 -0.1676 -0.1297  0.2722
  230SOL    HW1 6705   1.450   0.101   1.148 -1.1019 -0.6431  0.6731
  230SOL    HW2 6706   1.434   0.264   1.156  0.6777 -0.4130  0.0692
  231SOL     OW 6707   5.711   4.240   5.530  0.4587 -0.1522  0.0129
  231SOL    HW1 6708   5.768   4.239   5.611  1.1543 -1.7565 -0.4546
  231SOL    HW2 6709   5.768   4.247   5.448 -0.0149 -1.1318 -0.4291
  232SOL     OW 6710   1.349   1.050   6.263  0.5184 -0.2223 -0.1932
  232SOL    HW1 6711   1.308   0.971   6.309 -1.9879  1.3227  0.3980
  232SOL    HW2 6712   1.423   1.086   6.320 -1.1399  0.3683  1.7368
  233SOL     OW 6713   0.434   3.450   0.603  0.0754 -0.0253  0.4449
  233SOL    HW1 6714   0.386   3.366   0.580 -2.0390  1.2126  0.0648
  233SOL    HW2 6715   0.480   3.485   0.521  0.0902 -0.2699  0.3482
  234SOL     OW 6716   1.055   5.384   5.148 -0.3967  0.3129  0.4580
  234SOL    HW1 6717   1.099   5.298   5.118  0.2876  1.2060 -1.2861
  234SOL    HW2 6718   0.978   5.404   5.087 -0.7221  0.8092  1.0292
  235SOL     OW 6719   2.658   5.234   0.892  0.2975 -0.1350  0.1752
  235SOL    HW1 6720   2.751   5.200   0.878  1.3151  2.0624  1.1106
  235SOL    HW2 6721   2.619   5.262   0.805  1.0551  0.1924 -0.0688
  236SOL     OW 6722   1.177   0.958   6.051 -0.3956 -0.0257 -0.3078
  236SOL    HW1 6723   1.254   0.996   6.102 -0.3471 -0.3649 -0.1226
  236SOL    HW2 6724   1.211   0.902   5.975 -0.4708  1.2825 -1.3271
  237SOL     OW 6725   2.597   2.189   6.436  0.2077  0.1335  0.0920
  237SOL    HW1 6726   2.521   2.201   6.500 -0.0928  0.6042 -0.3474
  237SOL    HW2 6727   2.636   2.278   6.414 -0.6994  0.1485 -1.5980
  238SOL     OW 6728   0.037   2.760   1.294  0.0395 -0.1398 -0.2137
  238SOL    HW1 6729   0.122   2.731   1.339  0.7748 -0.5380 -1.7925
  238SOL    HW2 6730  -0.033   2.775   1.363  1.3726  0.1649  1.1406
  239SOL     OW 6731   2.608   5.284   1.156  0.3210 -0.2433 -0.6220
  239SOL    HW1 6732   2.622   5.287   1.057 -0.5383 -0.6783 -0.7653
  239SOL    HW2 6733   2.696   5.294   1.202  0.7606 -0.2760 -1.4341
  240SOL     OW 6734   1.462   0.614   5.656  0.8946  0.2466  0.1639
  240SOL    HW1 6735   1.514   0.665   5.588  1.3308  0.3608  0.5760
  240SOL    HW2 6736   1.497   0.521   5.662 -0.6922 -0.5073 -1.4640
  241SOL     OW 6737   3.219   4.084   0.691  0.2942  0.1247  0.0822
  241SOL    HW1 6738   3.310   4.096   0.731  0.8257 -1.9833 -0.3694
  241SOL    HW2 6739   3.157   4.044   0.759 -1.0318  3.5554  1.1199
  242SOL     OW 6740   4.028   1.573   0.611  0.1532 -0.6946  0.1172
  242SOL    HW1 6741   4.006   1.661   0.654 -1.5080 -0.0998 -1.8069
  242SOL    HW2 6742   4.096   1.586   0.540 -0.5903 -0.8133 -0.6342
  243SOL     OW 6743   6.338   2.179   5.160 -0.2643  0.4573  0.0201
  243SOL    HW1 6744   6.435   2.187   5.136 -0.2626  0.9286  0.1777
  243SOL    HW2 6745   6.282   2.217   5.086 -0.4812 -2.5449 -1.5007
  244SOL     OW 6746   2.217   0.342   0.022 -0.6638  0.1607  0.4091
  244SOL    HW1 6747   2.166   0.399  -0.043  1.6046  0.5928 -1.0799
  244SOL    HW2 6748   2.255   0.263  -0.026 -0.2746 -0.3870  1.5883
  245SOL     OW 6749   0.276   2.250   5.577 -0.0084  0.1993  0.5521
  245SOL    HW1 6750   0.308   2.337   5.614  0.5452  0.4621 -0.4976
  245SOL    HW2 6751   0.227   2.267   5.491  1.0173 -0.5919 -0.2142
  246SOL     OW 6752   3.620   1.788   5.776 -0.4606  0.2449 -0.2731
  246SOL    HW1 6753   3.715   1.773   5.803 -0.7890 -0.4780  0.5174
  246SOL    HW2 6754   3.571   1.835   5.850 -1.1700 -1.0224  0.0785
  247SOL     OW 6755   3.537   4.346   0.702 -0.0878 -0.0866  0.3981
  247SOL    HW1 6756   3.461   4.358   0.766 -0.3678 -1.2010  0.2909
  247SOL    HW2 6757   3.588   4.432   0.695  0.9666 -0.3415  3.4159
  248SOL     OW 6758   4.028   4.916   0.174  0.0837  0.7466  0.2684
  248SOL    HW1 6759   3.998   4.821   0.177  2.4004 -0.0243  1.2046
  248SOL    HW2 6760   3.962   4.974   0.223 -1.0019 -0.4539  0.2720
  249SOL     OW 6761   1.593   3.987   0.719  0.3669  0.1501  0.0658
  249SOL    HW1 6762   1.524   3.933   0.671  0.7773  1.2119 -1.8129
  249SOL    HW2 6763   1.608   3.948   0.810 -1.6909 -0.9162  0.0215
  250SOL     OW 6764   2.059   5.130   0.928 -0.1622  0.2479 -0.0298
  250SOL    HW1 6765   1.979   5.131   0.988 -0.5706 -0.9703 -0.5127
  250SOL    HW2 6766   2.141   5.154   0.980 -0.4753 -0.9755  1.0896
  251SOL     OW 6767   0.522   1.605   0.771 -0.4684  0.4473  0.0021
  251SOL    HW1 6768   0.616   1.638   0.760 -0.0907 -0.4823  0.3407
  251SOL    HW2 6769   0.518   1.508   0.747 -1.5391  0.7000 -0.8966
  252SOL     OW 6770   3.758   4.905   0.960  0.4418 -0.1280 -0.0084
  252SOL    HW1 6771   3.689   4.867   1.021 -0.9243  1.7170 -0.3354
  252SOL    HW2 6772   3.849   4.874   0.989 -0.4179 -1.8703  0.9709
  253SOL     OW 6773   5.831   5.116   0.109 -0.6866  0.0035 -0.3861
  253SOL    HW1 6774   5.763   5.178   0.148  0.7794  0.9082  0.8308
  253SOL    HW2 6775   5.842   5.037   0.170 -0.9838 -0.3774 -0.8243
  254SOL     OW 6776   0.231   5.993   0.563  0.1933 -0.7261  0.1220
  254SOL    HW1 6777   0.288   5.914   0.543  0.8973 -0.0525 -0.5716
  254SOL    HW2 6778   0.167   6.009   0.487 -0.4053 -1.0224  0.5565
  255SOL     OW 6779   5.347   6.141   6.096 -0.1970 -0.6235  0.3966
  255SOL    HW1 6780   5.371   6.178   6.186 -0.3664 -0.5392  0.4064
  255SOL    HW2 6781   5.396   6.190   6.025 -1.4080  0.5021  0.3050
  256SOL     OW 6782   5.470   4.737   1.715 -0.8707 -0.5114 -0.0572
  256SOL    HW1 6783   5.539   4.665   1.720 -1.0733 -0.6044  2.3624
  256SOL    HW2 6784   5.380   4.696   1.701 -0.6876 -0.5127 -1.3434
  257SOL     OW 6785   6.170   2.984   6.526  0.0796  0.1189 -0.2780
  257SOL    HW1 6786   6.161   3.017   6.620  0.5842 -0.7428  0.0889
  257SOL    HW2 6787   6.246   3.031   6.482 -1.1418  1.7007 -0.8132
  258SOL     OW 6788   4.092   5.029   6.289 -0.1010  0.1385 -0.1106
  258SOL    HW1 6789   4.019   4.961   6.281  0.8588 -0.9875  0.2501
  258SOL    HW2 6790   4.053   5.120   6.302 -1.4521 -0.1627 -1.6925
  259SOL     OW 6791   3.903   0.004   5.027 -0.6572 -0.1557 -0.7626
  259SOL    HW1 6792   3.874  -0.057   5.101  1.0260 -0.8175 -0.6105
  259SOL    HW2 6793   3.822   0.047   4.986 -1.7296 -0.9360  0.4505
  260SOL     OW 6794   3.031   2.347   0.508 -0.0798  0.4078 -0.6827
  260SOL    HW1 6795   3.067   2.263   0.468  0.5720  1.0409 -1.4643
  260SOL    HW2 6796   3.095   2.380   0.578  0.1557  0.7591 -1.0563
  261SOL     OW 6797   5.805   0.076   4.929 -0.3163  0.0846 -0.8085
  261SOL    HW1 6798   5.761  -0.011   4.907  0.8209 -0.5734 -0.5466
  261SOL    HW2 6799   5.768   0.111   5.016  1.8320 -2.0636  1.1040
  262SOL     OW 6800   5.527   3.077   6.221  0.6431 -0.5152 -0.1062
  262SOL    HW1 6801   5.455   3.071   6.152  1.7708  0.6208 -1.4369
  262SOL    HW2 6802   5.550   2.985   6.253 -0.0956 -1.0361 -1.0102
  263SOL     OW 6803   3.844   1.191   0.669 -0.3174  0.1859 -0.4767
  263SOL    HW1 6804   3.882   1.101   0.647 -0.7080 -0.3209  0.8238
  263SOL    HW2 6805   3.801   1.229   0.587  1.6387  0.1331 -1.6097
  264SOL     OW 6806   5.345   3.036   0.045  0.1300 -0.1670  0.2926
  264SOL    HW1 6807   5.337   3.110  -0.021  0.4060 -0.0707  0.3685
  264SOL    HW2 6808   5.291   3.059   0.126 -1.8066 -1.1393 -0.6539
  265SOL     OW 6809   3.552   3.067   0.082  0.5015 -0.3729  0.6312
  265SOL    HW1 6810   3.641   3.102   0.052 -0.8770  3.5342  0.5261
  265SOL    HW2 6811   3.525   2.990   0.024  4.0285 -2.2147  1.1380
  266SOL     OW 6812   3.031   5.671   0.897 -0.3197 -0.0111 -0.1693
  266SOL    HW1 6813   2.958   5.725   0.855  0.0108  0.0194 -0.7179
  266SOL    HW2 6814   3.108   5.665   0.834 -0.7790 -2.0673 -0.5863
  267SOL     OW 6815   6.398   4.463   5.923  0.1001 -0.5589  0.1610
  267SOL    HW1 6816   6.325   4.516   5.967  0.3671  0.8454 -0.9839
  267SOL    HW2 6817   6.485   4.512   5.934 -0.1003  0.9318 -3.4442
  268SOL     OW 6818   5.606   3.285   0.709 -0.9744 -0.1063  0.4828
  268SOL    HW1 6819   5.627   3.263   0.614 -0.3663  1.1210  0.3177
  268SOL    HW2 6820   5.507   3.294   0.719 -1.0034  0.4614 -0.2047
  269SOL     OW 6821   5.165   4.123   0.642  0.2604  0.0588  0.8075
  269SOL    HW1 6822   5.146   4.141   0.739  1.6850 -1.7914  1.4854
  269SOL    HW2 6823   5.079   4.113   0.593 -0.4968  0.1900  2.0563
  270SOL     OW 6824   1.253   0.675   5.480 -0.1972  0.2279 -0.0127
  270SOL    HW1 6825   1.225   0.592   5.431  0.2599  0.8758 -1.4377
  270SOL    HW2 6826   1.327   0.654   5.543 -0.6735 -0.6058  0.2753
  271SOL     OW 6827   5.967   3.332   6.479  0.1088 -0.5018 -0.2291
  271SOL    HW1 6828   5.898   3.262   6.492  1.3533 -1.8068 -0.4158
  271SOL    HW2 6829   6.045   3.314   6.539  0.0097  1.3724  0.5477
  272SOL     OW 6830   1.568   5.500   1.375  0.0833 -0.3489 -0.2931
  272SOL    HW1 6831   1.629   5.437   1.325  0.3048 -0.7290  0.4466
  272SOL    HW2 6832   1.477   5.460   1.381  0.4466 -1.0434  0.9717
  273SOL     OW 6833   1.580   3.797   6.564  0.7313 -0.2991 -0.3654
  273SOL    HW1 6834   1.611   3.867   6.628 -0.1122 -1.3338  1.2549
  273SOL    HW2 6835   1.598   3.827   6.470  0.5855  1.9760  0.2717
  274SOL     OW 6836   1.086   1.718   6.397 -0.2855  0.3253  0.5813
  274SOL    HW1 6837   1.126   1.690   6.310 -0.6110  1.4201  0.0558
  274SOL    HW2 6838   1.143   1.789   6.439  0.4494 -0.9510  1.8075
  275SOL     OW 6839   2.404   3.932   0.636 -0.7566 -0.2841  0.3442
  275SOL    HW1 6840   2.439   3.848   0.677 -2.5043 -0.4305  1.6320
  275SOL    HW2 6841   2.474   4.003   0.642 -0.0462 -1.0351  1.2621
  276SOL     OW 6842   3.573   5.908   5.424  0.0348 -0.2139  0.3386
  276SOL    HW1 6843   3.669   5.928   5.406  0.2143 -0.7749  0.6389
  276SOL    HW2 6844   3.534   5.856   5.348 -0.2485  0.6840 -0.1374
  277SOL     OW 6845   0.424   1.776   0.954 -0.3055 -0.4067  0.4924
  277SOL    HW1 6846   0.484   1.844   0.996 -1.3905  1.0866 -0.2902
  277SOL    HW2 6847   0.480   1.706   0.909  0.8850  1.2891 -0.7866
  278SOL     OW 6848   1.961   5.755   5.904  0.1186 -0.2420 -0.9051
  278SOL    HW1 6849   1.991   5.664   5.875  1.1279 -0.1341 -0.2723
  278SOL    HW2 6850   2.031   5.796   5.963 -1.0055  0.3332  0.0775
  279SOL     OW 6851   1.927   0.936   0.497  0.4528  0.4964  0.2656
  279SOL    HW1 6852   2.025   0.947   0.484  0.4116  1.0731  0.4182
  279SOL    HW2 6853   1.910   0.876   0.576  0.6804 -0.8272 -0.6487
  280SOL     OW 6854   0.233   2.666   1.464  0.6707  0.2918  0.2819
  280SOL    HW1 6855   0.243   2.764   1.484  0.1336  0.1834  1.1715
  280SOL    HW2 6856   0.224   2.616   1.550  2.3540 -0.7246 -0.1043
  281SOL     OW 6857   5.457   4.999   0.061 -0.0948  0.4169  0.2844
  281SOL    HW1 6858   5.468   5.029  -0.034 -1.2159  0.4883  0.1676
  281SOL    HW2 6859   5.488   5.072   0.122  3.0791 -0.5660  0.0272
  282SOL     OW 6860   0.717   3.378   0.886 -0.4960 -0.3571 -0.1188
  282SOL    HW1 6861   0.740   3.375   0.983 -0.0608 -0.0875 -0.2079
  282SOL    HW2 6862   0.654   3.453   0.868  0.8014  0.7288 -0.3089
  283SOL     OW 6863   0.111   5.340   5.601 -0.0200 -0.1277  0.1208
  283SOL    HW1 6864   0.034   5.282   5.628 -0.3206  0.6945  1.1027
  283SOL    HW2 6865   0.081   5.405   5.531 -0.6440  1.1477  1.5182
  284SOL     OW 6866   3.042   4.881   0.750  0.1157  0.6993 -0.0492
  284SOL    HW1 6867   2.986   4.922   0.822 -1.4055  2.8592 -2.3015
  284SOL    HW2 6868   2.985   4.861   0.671  2.1080  0.6942 -1.5625
  285SOL     OW 6869   1.147   4.540   6.349  0.3755  0.0162 -0.1461
  285SOL    HW1 6870   1.173   4.623   6.398 -2.2240  0.4193  0.6954
  285SOL    HW2 6871   1.055   4.512   6.376  0.6712 -2.4545 -1.3540
  286SOL     OW 6872   2.650   3.709   6.358  0.0336  0.3438  0.0303
  286SOL    HW1 6873   2.635   3.643   6.431  0.8706  0.6352  0.4830
  286SOL    HW2 6874   2.696   3.790   6.394  1.9548 -0.1764 -1.0577
  287SOL     OW 6875   4.812   2.403   0.994  0.4583  0.2330  0.4850
  287SOL    HW1 6876   4.878   2.405   1.068 -0.1936  1.3638  1.0545
  287SOL    HW2 6877   4.860   2.389   0.907  1.4754  1.2094  0.8590
  288SOL     OW 6878   5.360   3.121   0.992  0.1669  0.1777 -0.1075
  288SOL    HW1 6879   5.272   3.083   0.966  0.2640 -0.7114  0.7892
  288SOL    HW2 6880   5.364   3.218   0.967 -0.5925 -0.0687 -1.2431
  289SOL     OW 6881   6.172   0.052   0.907  0.2689  0.2446 -0.0895
  289SOL    HW1 6882   6.212  -0.039   0.920  1.9411  1.0750  1.0345
  289SOL    HW2 6883   6.222   0.101   0.836  0.0951  0.6580  0.0671
  290SOL     OW 6884   4.544   2.145   6.273 -0.1854  0.4650  0.2868
  290SOL    HW1 6885   4.537   2.236   6.316 -0.8320  0.3706  0.3891
  290SOL    HW2 6886   4.591   2.153   6.185 -2.2131  1.2768 -0.7885
  291SOL     OW 6887   5.101   0.342   4.417  0.8806 -0.1475  0.3650
  291SOL    HW1 6888   5.149   0.313   4.334 -0.0910  0.7697 -0.5525
  291SOL    HW2 6889   5.074   0.438   4.409  2.3720  0.5355  2.5418
  292SOL     OW 6890   3.053   0.313   6.198  0.3734  0.1099 -0.1265
  292SOL    HW1 6891   2.978   0.299   6.134 -1.4144  0.0970  1.8637
  292SOL    HW2 6892   3.080   0.410   6.196 -0.6021  0.3978  0.0568
  293SOL     OW 6893   4.038   0.727   0.096 -0.3583  0.0612  0.2795
  293SOL    HW1 6894   4.021   0.629   0.084  1.1520 -0.3481  1.1752
  293SOL    HW2 6895   4.107   0.757   0.030 -1.3027  0.6951 -0.4422
  294SOL     OW 6896   1.338   4.636   6.088  0.1354 -0.0732  0.1140
  294SOL    HW1 6897   1.279   4.569   6.133 -1.2599  1.0735  0.0851
  294SOL    HW2 6898   1.347   4.614   5.991 -1.2220  0.3366 -0.1330
  295SOL     OW 6899   3.832   1.385   0.042  0.0485 -0.2260 -0.1819
  295SOL    HW1 6900   3.840   1.292   0.079  1.8274 -0.5472 -1.2627
  295SOL    HW2 6901   3.881   1.391  -0.045 -3.0530  0.8082 -1.9922
  296SOL     OW 6902   5.286   4.847   0.360  0.2545 -0.1410  0.5074
  296SOL    HW1 6903   5.367   4.801   0.394  0.1364 -0.1541  0.7745
  296SOL    HW2 6904   5.302   4.946   0.357  0.7742 -0.2429 -0.7843
  297SOL     OW 6905   4.034   1.381   0.790  0.3229  0.1678 -0.3501
  297SOL    HW1 6906   3.956   1.318   0.795  0.9171 -0.5901 -0.3564
  297SOL    HW2 6907   4.016   1.451   0.722  0.0210 -0.5355 -1.0094
  298SOL     OW 6908   3.566   6.119   0.223 -0.7503 -0.5153 -0.0156
  298SOL    HW1 6909   3.635   6.053   0.192 -0.1005 -0.6195  1.5775
  298SOL    HW2 6910   3.552   6.188   0.152  0.8892 -0.5812 -0.4464
  299SOL     OW 6911   4.226   4.723   0.867  0.4192 -0.3507  0.0253
  299SOL    HW1 6912   4.147   4.768   0.826  2.8023  1.5094 -2.9282
  299SOL    HW2 6913   4.204   4.627   0.886 -2.7984  0.3575  0.3768
  300SOL     OW 6914   5.258   5.846   0.841 -0.0072 -0.1558 -0.0298
  300SOL    HW1 6915   5.324   5.921   0.842 -0.1538  0.0034 -1.1246
  300SOL    HW2 6916   5.185   5.866   0.906  1.5598 -0.8689  2.0353
  301SOL     OW 6917   3.313   1.255   0.508 -0.3203 -0.1137 -0.0675
  301SOL    HW1 6918   3.309   1.157   0.491 -1.7451  0.0924 -1.1684
  301SOL    HW2 6919   3.328   1.303   0.421 -1.3767  0.7055  0.1765
  302SOL     OW 6920   4.924   1.905   0.980 -0.0616  0.1279  0.3498
  302SOL    HW1 6921   4.869   1.824   0.999 -0.3447  0.1127 -0.4844
  302SOL    HW2 6922   4.975   1.931   1.062 -0.4914 -0.4874  0.8200
  303SOL     OW 6923   5.365   5.992   4.658  0.3376 -0.3457  0.3055
  303SOL    HW1 6924   5.393   5.899   4.630  3.3738  0.4854  0.2420
  303SOL    HW2 6925   5.380   6.055   4.582 -0.1447  0.4596  0.8658
  304SOL     OW 6926   3.640   4.100   6.356 -0.4279 -0.1415  0.3590
  304SOL    HW1 6927   3.556   4.151   6.371 -0.5366 -0.4648  0.8934
  304SOL    HW2 6928   3.674   4.066   6.444 -0.3387 -0.9514  0.0187
  305SOL     OW 6929   5.590   5.557   0.360  0.8557 -0.5098  0.2112
  305SOL    HW1 6930   5.492   5.571   0.366  0.3881 -3.1779  0.0993
  305SOL    HW2 6931   5.622   5.588   0.270 -0.0968 -0.6364 -0.1864
  306SOL     OW 6932   0.494   1.572   5.632  0.0992 -0.0601  0.2473
  306SOL    HW1 6933   0.394   1.576   5.638  0.2179  1.3518  1.7115
  306SOL    HW2 6934   0.533   1.658   5.663  1.8239 -0.8697  0.4224
  307SOL     OW 6935   1.649   2.931   0.842 -0.3926 -0.2433  0.1736
  307SOL    HW1 6936   1.582   2.907   0.911 -1.2226  1.8114  0.1536
  307SOL    HW2 6937   1.631   2.880   0.758 -0.1386 -1.8272  1.0546
  308SOL     OW 6938   4.498   0.977   5.623 -0.3863 -0.0781 -0.5542
  308SOL    HW1 6939   4.578   0.935   5.579  0.6024  1.3666 -0.2251
  308SOL    HW2 6940   4.526   1.019   5.709 -1.7847 -0.6142  0.1902
  309SOL     OW 6941   6.103   2.767   0.893 -0.1773  0.1929 -0.2105
  309SOL    HW1 6942   6.104   2.744   0.990  2.6962  0.5535 -0.0387
  309SOL    HW2 6943   6.044   2.846   0.878 -0.7417  0.0669  1.2243
  310SOL     OW 6944   4.088   3.528   6.086  0.0575  0.4004 -0.0645
  310SOL    HW1 6945   3.996   3.510   6.053 -0.2852  1.7377  0.1053
  310SOL    HW2 6946   4.090   3.614   6.136  1.4030  0.4098 -0.0762
  311SOL     OW 6947   4.284   3.294   5.774 -0.2567  0.4152  0.4227
  311SOL    HW1 6948   4.227   3.294   5.692 -1.3473  0.4480  1.1591
  311SOL    HW2 6949   4.371   3.249   5.754 -0.5738  0.2614 -0.6940
  312SOL     OW 6950   4.452   5.846   0.361 -0.5435 -0.4648 -0.6317
  312SOL    HW1 6951   4.506   5.902   0.298 -1.0112 -0.0809 -0.6911
  312SOL    HW2 6952   4.474   5.871   0.455 -0.8608 -0.0705 -0.6588
  313SOL     OW 6953   4.270   5.298   0.078 -0.0811 -0.2003 -0.0549
  313SOL    HW1 6954   4.175   5.321   0.056 -0.0849 -0.9471 -0.8683
  313SOL    HW2 6955   4.314   5.259  -0.003  1.0190  0.4322  0.2134
  314SOL     OW 6956   3.867   1.278   6.362 -0.2818 -0.5019 -0.4213
  314SOL    HW1 6957   3.776   1.254   6.330 -0.1458 -1.1877 -0.3062
  314SOL    HW2 6958   3.936   1.243   6.298 -0.1255  1.2149 -1.2624
  315SOL     OW 6959   1.550   4.311   5.863 -0.3496  0.2794 -0.2959
  315SOL    HW1 6960   1.556   4.354   5.953  0.0519  0.6653 -0.5040
  315SOL    HW2 6961   1.641   4.278   5.836 -0.0432  1.8723 -1.3856
  316SOL     OW 6962   4.058   0.508   0.530 -1.2686 -0.3311  0.1167
  316SOL    HW1 6963   4.103   0.562   0.600  1.0357 -0.8789 -0.8479
  316SOL    HW2 6964   4.037   0.417   0.566  1.5410 -1.2339 -0.3155
  317SOL     OW 6965   5.295   4.419   6.020  0.0888 -0.0579  0.4173
  317SOL    HW1 6966   5.231   4.397   6.094 -1.5756 -0.1525 -0.9844
  317SOL    HW2 6967   5.244   4.453   5.941  1.8151  0.1075 -0.6770
  318SOL     OW 6968   1.014   5.783   5.297 -0.0348  0.1415 -0.0561
  318SOL    HW1 6969   0.999   5.843   5.218 -0.3313 -1.6334 -1.4001
  318SOL    HW2 6970   0.960   5.700   5.286  1.0102 -0.7555  1.3401
  319SOL     OW 6971   2.504   0.211   5.807  0.1780 -0.2583  0.9006
  319SOL    HW1 6972   2.500   0.201   5.906  2.2436 -0.0398  1.0462
  319SOL    HW2 6973   2.557   0.136   5.768 -0.2459 -0.1029 -0.0029
  320SOL     OW 6974   2.505   3.355   0.642 -0.0290  0.1535 -0.5896
  320SOL    HW1 6975   2.556   3.340   0.557  0.4339  1.0450 -0.4841
  320SOL    HW2 6976   2.484   3.267   0.684  1.9297 -0.2534 -0.3549
  321SOL     OW 6977   2.606   4.267   0.050 -0.4032 -0.3656 -0.3520
  321SOL    HW1 6978   2.616   4.367   0.049 -0.3294 -0.3011  1.9982
  321SOL    HW2 6979   2.678   4.226  -0.006 -1.5949  0.8994 -3.0127
  322SOL     OW 6980   0.373   2.553   0.641  0.0220 -0.2009 -0.4989
  322SOL    HW1 6981   0.312   2.617   0.688  0.4302 -0.4774  0.4418
  322SOL    HW2 6982   0.380   2.468   0.694 -1.0631 -1.3264 -2.0785
  323SOL     OW 6983   1.905   5.659   0.228  0.2225 -0.1342  0.0147
  323SOL    HW1 6984   1.983   5.612   0.269 -0.2874  0.4915  1.7666
  323SOL    HW2 6985   1.919   5.665   0.129  2.3814 -0.0406  0.2748
  324SOL     OW 6986   0.084   1.808   5.628  0.7503 -0.4849  0.3385
  324SOL    HW1 6987   0.135   1.880   5.675  0.0868 -0.3369  0.8511
  324SOL    HW2 6988   0.085   1.825   5.530  0.5839  0.2425  0.4552
  325SOL     OW 6989   2.569   6.022   6.092  0.1013 -0.4553 -0.4149
  325SOL    HW1 6990   2.508   5.943   6.081 -0.6333  0.0618 -0.1395
  325SOL    HW2 6991   2.524   6.104   6.058  1.4379 -0.3695 -2.0643
  326SOL     OW 6992   5.878   2.029   6.403 -0.3766  0.4029 -0.6544
  326SOL    HW1 6993   5.850   1.942   6.444 -2.0688  1.2334  0.0395
  326SOL    HW2 6994   5.919   2.012   6.314 -0.5366 -1.1195 -0.4595
  327SOL     OW 6995   3.430   4.960   6.230 -0.2294 -0.2359  0.4467
  327SOL    HW1 6996   3.460   4.873   6.270  0.0734 -1.1369 -1.5973
  327SOL    HW2 6997   3.344   4.946   6.181  1.3339 -0.2455 -2.5601
  328SOL     OW 6998   1.419   3.583   0.693  0.4880 -0.0165 -0.3588
  328SOL    HW1 6999   1.516   3.563   0.700  0.1714 -1.9156 -0.9379
  328SOL    HW2 7000   1.385   3.616   0.782  1.0104 -2.5437  0.8593
  329SOL     OW 7001   0.750   4.592   0.185 -0.5329 -0.3777  0.2851
  329SOL    HW1 7002   0.722   4.520   0.122  1.2043 -0.8586  0.0155
  329SOL    HW2 7003   0.771   4.552   0.275 -0.2212 -0.1133  0.3327
  330SOL     OW 7004   1.700   3.418   6.356 -0.6017  0.8063 -0.5980
  330SOL    HW1 7005   1.714   3.326   6.320 -2.6216  0.4216 -0.5234
  330SOL    HW2 7006   1.779   3.444   6.412  0.2462 -0.6422 -1.0585
  331SOL     OW 7007   4.005   3.235   6.392 -0.2154  0.1872  0.5357
  331SOL    HW1 7008   3.960   3.147   6.404  0.8244 -0.3679  0.4476
  331SOL    HW2 7009   3.967   3.281   6.311  1.8750 -1.9117 -1.7932
  332SOL     OW 7010   6.181   1.745   4.941 -0.0111  0.5640 -0.2883
  332SOL    HW1 7011   6.279   1.739   4.920  0.0316  1.6337 -0.4107
  332SOL    HW2 7012   6.152   1.840   4.939 -1.2810  0.1905 -1.2766
  333SOL     OW 7013   4.571   3.381   6.441 -0.5706  0.0053 -0.7485
  333SOL    HW1 7014   4.670   3.392   6.446 -0.8019  2.3921  0.2610
  333SOL    HW2 7015   4.536   3.428   6.360 -1.1733  3.1898  1.1596
  334SOL     OW 7016   1.342   4.067   5.490 -0.0949 -0.1024 -0.0991
  334SOL    HW1 7017   1.431   4.101   5.461  0.1149  0.3003  0.9634
  334SOL    HW2 7018   1.280   4.145   5.505  0.6012 -0.0209  3.0497
  335SOL     OW 7019   1.009   0.583   5.337 -0.0329 -0.4083 -0.1512
  335SOL    HW1 7020   0.965   0.664   5.376  1.9663  0.8370 -0.3283
  335SOL    HW2 7021   1.048   0.606   5.247  0.3213 -1.6524 -0.3400
  336SOL     OW 7022   2.071   0.864   1.423  0.3194 -0.2300  0.1046
  336SOL    HW1 7023   2.100   0.921   1.500 -1.5243  1.2580 -0.2542
  336SOL    HW2 7024   2.009   0.793   1.456 -0.0074  0.0410  0.0716
  337SOL     OW 7025   5.782   2.484   6.107  0.6162 -0.0722 -0.0428
  337SOL    HW1 7026   5.719   2.443   6.174  0.3025 -1.8349 -1.3367
  337SOL    HW2 7027   5.732   2.505   6.023  1.7425 -1.6994 -1.1800
  338SOL     OW 7028   1.646   6.350   0.549 -0.2116  0.2399  0.0128
  338SOL    HW1 7029   1.630   6.295   0.630 -2.1893  2.8690  1.5978
  338SOL    HW2 7030   1.744   6.361   0.534  0.2106  0.0747  2.3515
  339SOL     OW 7031   5.112   4.000   1.265  0.1667  0.4600  0.0183
  339SOL    HW1 7032   5.015   3.982   1.281  0.3036 -0.7973 -0.4358
  339SOL    HW2 7033   5.125   4.031   1.171 -0.0462  3.0282  0.7479
  340SOL     OW 7034   3.010   6.213   6.061  0.2708  0.8299  0.6609
  340SOL    HW1 7035   3.090   6.238   6.006  1.3370  1.1359  2.2771
  340SOL    HW2 7036   2.945   6.289   6.062  0.2964  0.8746 -0.0320
  341SOL     OW 7037   0.598   4.964   5.563 -0.5496 -0.0401  0.4766
  341SOL    HW1 7038   0.697   4.981   5.559 -0.5346  0.3519  2.0554
  341SOL    HW2 7039   0.548   5.047   5.540 -0.6146 -0.8582 -2.9897
  342SOL     OW 7040   3.204   5.694   0.197  0.0346  0.7013 -0.1660
  342SOL    HW1 7041   3.229   5.626   0.128  1.0789 -2.0734  2.7045
  342SOL    HW2 7042   3.284   5.749   0.221  0.0293  0.7350 -0.2276
  343SOL     OW 7043   0.888   4.869   1.064 -0.1402 -0.8845 -0.0751
  343SOL    HW1 7044   0.925   4.785   1.025 -0.3152 -2.0402  2.1148
  343SOL    HW2 7045   0.947   4.901   1.138 -0.6339  0.3319 -0.1840
  344SOL     OW 7046   4.261   1.651   6.300 -0.0124 -0.3309  0.2997
  344SOL    HW1 7047   4.328   1.580   6.280 -1.4311 -2.1033  1.5118
  344SOL    HW2 7048   4.210   1.674   6.217 -0.8378 -2.1857  0.2465
  345SOL     OW 7049   4.319   1.915   5.892  0.0064 -0.1113 -0.1199
  345SOL    HW1 7050   4.262   1.925   5.811 -1.5988  1.3342  1.1182
  345SOL    HW2 7051   4.269   1.863   5.962  0.4816  0.5328  0.7172
  346SOL     OW 7052   1.431   0.107   0.864 -0.0714 -0.0678  0.0752
  346SOL    HW1 7053   1.415   0.144   0.955  2.0001  0.3831  0.3041
  346SOL    HW2 7054   1.346   0.109   0.811 -0.8800  1.4020  1.3716
  347SOL     OW 7055   0.285   0.987   1.515 -0.3536 -0.2394 -0.0888
  347SOL    HW1 7056   0.295   1.015   1.611 -1.4216  0.6833 -0.2216
  347SOL    HW2 7057   0.375   0.969   1.476  0.5171  3.2117 -0.0141
  348SOL     OW 7058   2.722   1.923   5.727  0.3666  0.0662 -0.2788
  348SOL    HW1 7059   2.779   1.869   5.666  0.6548 -1.0172  0.8952
  348SOL    HW2 7060   2.658   1.862   5.776 -0.2735  0.9734  0.0408
  349SOL     OW 7061   5.967   4.800   5.926 -0.0318  0.4537  0.2034
  349SOL    HW1 7062   6.014   4.752   6.000 -0.2453  0.0014  0.0483
  349SOL    HW2 7063   5.997   4.764   5.838 -1.6364 -0.7937  0.1173
  350SOL     OW 7064   3.324   3.558   0.118  0.4106 -0.0013  0.2991
  350SOL    HW1 7065   3.227   3.549   0.142  0.3297  1.9960  0.9165
  350SOL    HW2 7066   3.362   3.468   0.098 -1.4044 -0.8987  0.6826
  351SOL     OW 7067   3.304   3.963   5.243  0.4045 -0.5846  0.2092
  351SOL    HW1 7068   3.327   4.028   5.171 -1.1360 -0.1370  0.0720
  351SOL    HW2 7069   3.209   3.934   5.232  0.6599 -1.8292  1.0698
  352SOL     OW 7070   5.120   5.772   5.788  0.1198  0.2063  0.0454
  352SOL    HW1 7071   5.155   5.812   5.873  2.0605  0.2421 -0.7149
  352SOL    HW2 7072   5.176   5.803   5.711  1.1012 -3.0736 -0.7283
  353SOL     OW 7073   5.294   5.225   0.976 -0.1832 -0.1119  0.4781
  353SOL    HW1 7074   5.386   5.187   0.984 -1.1217 -2.7256 -0.0416
  353SOL    HW2 7075   5.295   5.302   0.912  1.4549 -0.7528 -0.3257
  354SOL     OW 7076   2.409   1.517   5.841  0.0641  0.6573 -0.3306
  354SOL    HW1 7077   2.331   1.534   5.902 -0.8600 -2.5711 -0.4305
  354SOL    HW2 7078   2.378   1.520   5.746  0.4528  1.0857 -0.4450
  355SOL     OW 7079   6.069   0.951   4.876 -0.3761 -0.1205  0.3118
  355SOL    HW1 7080   5.989   0.898   4.846 -0.6632  0.2908  0.3391
  355SOL    HW2 7081   6.046   1.002   4.958  0.0084 -0.2251  0.4869
  356SOL     OW 7082   0.531   3.006   0.318 -0.3643 -0.0440 -0.0183
  356SOL    HW1 7083   0.574   2.919   0.339 -2.4584 -0.5885  2.4503
  356SOL    HW2 7084   0.555   3.073   0.388 -1.7212  0.2589  0.1864
  357SOL     OW 7085   1.748   1.989   5.929 -0.3073 -0.3787  0.2284
  357SOL    HW1 7086   1.666   2.047   5.920 -1.1227 -1.4501  0.5966
  357SOL    HW2 7087   1.793   2.007   6.016  2.1047  3.0077 -1.4997
  358SOL     OW 7088   2.114   1.288   0.257 -0.2610 -0.7841 -0.6309
  358SOL    HW1 7089   2.016   1.297   0.241 -0.3929 -1.3440 -0.1676
  358SOL    HW2 7090   2.162   1.365   0.215 -1.0775  0.5389  0.7541
  359SOL     OW 7091   4.011   6.014   5.769 -0.3018  0.5536 -0.3633
  359SOL    HW1 7092   3.994   5.971   5.680 -1.8919 -1.7350  0.9435
  359SOL    HW2 7093   3.924   6.036   5.813  0.3593 -0.2757  1.4678
  360SOL     OW 7094   3.591   4.783   1.162 -0.3617 -0.5707 -0.1030
  360SOL    HW1 7095   3.653   4.775   1.240 -0.2477  0.1227 -0.1174
  360SOL    HW2 7096   3.528   4.705   1.161 -0.8790 -0.1892  1.1248
  361SOL     OW 7097   4.304   1.848   0.645  0.4057  0.4401 -0.0747
  361SOL    HW1 7098   4.258   1.880   0.727 -0.6315  0.6663 -0.7201
  361SOL    HW2 7099   4.314   1.749   0.648 -0.9628  0.2666 -0.3060
  362SOL     OW 7100   5.668   0.927   5.807  0.2872  0.3849  0.1173
  362SOL    HW1 7101   5.675   1.018   5.766  1.7348  1.0613  1.7143
  362SOL    HW2 7102   5.753   0.906   5.854  0.1210 -1.9990 -0.5295
  363SOL     OW 7103   4.206   4.923   4.902  0.5770 -0.4594  0.1495
  363SOL    HW1 7104   4.226   4.975   4.985 -3.3320  0.8220  0.4926
  363SOL    HW2 7105   4.215   4.984   4.822  3.3114 -1.4195 -0.3846
  364SOL     OW 7106   0.164   5.039   0.606 -0.1614 -0.3492  0.0462
  364SOL    HW1 7107   0.251   5.025   0.558  1.1087  1.0771  1.7814
  364SOL    HW2 7108   0.120   4.951   0.623  1.5498 -1.2213  0.1838
  365SOL     OW 7109   6.081   4.736   0.669 -0.0976  0.6165 -0.0976
  365SOL    HW1 7110   5.987   4.746   0.702 -0.1085  1.1237 -0.2784
  365SOL    HW2 7111   6.144   4.743   0.747 -0.1212  1.8837 -0.1748
  366SOL     OW 7112   4.329   1.215   0.349  0.3225  0.2023  0.1709
  366SOL    HW1 7113   4.278   1.257   0.424  0.9549  0.9745  0.1965
  366SOL    HW2 7114   4.309   1.118   0.344  0.6293  0.0403  1.6603
  367SOL     OW 7115   0.083   0.934   1.350 -0.0880 -0.5269 -0.1611
  367SOL    HW1 7116   0.005   0.993   1.369  0.7338  1.3713 -2.2456
  367SOL    HW2 7117   0.151   0.945   1.423  0.0818  1.2500 -0.5389
  368SOL     OW 7118   0.547   4.485   5.517  0.5530  0.0363 -0.0251
  368SOL    HW1 7119   0.510   4.562   5.569 -2.1926  0.6479 -2.5913
  368SOL    HW2 7120   0.536   4.401   5.569 -1.0776  0.7358  0.8311
  369SOL     OW 7121   1.856   6.066   0.124 -0.2034 -0.3393 -0.0011
  369SOL    HW1 7122   1.912   6.069   0.042 -2.1552 -0.2357 -1.3932
  369SOL    HW2 7123   1.892   6.131   0.191  1.1052 -0.0102 -0.9812
  370SOL     OW 7124   1.193   3.233   0.907 -1.2199 -0.2685 -0.3292
  370SOL    HW1 7125   1.291   3.236   0.927 -1.3954 -0.7313  0.6657
  370SOL    HW2 7126   1.141   3.257   0.990 -1.9720 -2.1220 -0.2128
  371SOL     OW 7127   3.708   3.776   0.966 -0.0609 -0.5633 -0.5047
  371SOL    HW1 7128   3.675   3.727   0.885 -1.4006 -1.0394  0.3079
  371SOL    HW2 7129   3.740   3.710   1.034  2.3771 -0.1418 -1.1192
  372SOL     OW 7130   0.284   6.255   0.727 -0.1303  0.3171  0.1455
  372SOL    HW1 7131   0.294   6.325   0.656 -2.7186 -0.2754 -0.9125
  372SOL    HW2 7132   0.272   6.165   0.683 -0.8294 -0.1931  1.3418
  373SOL     OW 7133   4.916   1.807   4.536  0.2348 -0.0811  0.2801
  373SOL    HW1 7134   4.915   1.901   4.571 -1.1287  0.0414  0.0033
  373SOL    HW2 7135   4.884   1.745   4.607  1.1288 -0.3380  0.4603
  374SOL     OW 7136   5.575   6.349   4.876  0.2597  0.6003 -0.4062
  374SOL    HW1 7137   5.605   6.290   4.801  1.1589 -0.5062  0.7673
  374SOL    HW2 7138   5.490   6.313   4.914  0.3344  0.5772 -0.2619
  375SOL     OW 7139   3.632   5.085   5.745 -0.0383 -0.0183  0.2670
  375SOL    HW1 7140   3.577   5.018   5.795 -3.0084 -0.3330 -3.0135
  375SOL    HW2 7141   3.696   5.037   5.685 -1.7021 -0.0609 -1.5858
  376SOL     OW 7142   4.097   6.309   5.328  0.1057  0.5742 -0.4736
  376SOL    HW1 7143   4.055   6.377   5.388  1.5643  0.1484  1.1247
  376SOL    HW2 7144   4.145   6.356   5.253 -0.3176  1.2007 -0.3645
  377SOL     OW 7145   5.485   3.853   6.277 -0.1506 -0.4369  0.4192
  377SOL    HW1 7146   5.494   3.872   6.374 -0.4516  1.1422  0.1633
  377SOL    HW2 7147   5.413   3.910   6.238  0.7575 -0.1626 -0.9530
  378SOL     OW 7148   4.773   4.397   0.866 -0.3319 -0.1752 -0.1250
  378SOL    HW1 7149   4.786   4.492   0.895 -0.7045  0.7411 -2.7200
  378SOL    HW2 7150   4.706   4.352   0.926 -0.0412  1.1141  1.2267
  379SOL     OW 7151   1.863   3.948   0.599  0.2221  0.0778 -0.9036
  379SOL    HW1 7152   1.778   3.933   0.649  1.3860  1.4070  1.6210
  379SOL    HW2 7153   1.914   3.862   0.594  0.0994 -0.0751  0.2507
  380SOL     OW 7154   4.659   3.554   5.010  0.1933  0.7124 -0.2753
  380SOL    HW1 7155   4.586   3.623   5.007 -0.1049  0.3865 -0.5734
  380SOL    HW2 7156   4.720   3.567   4.932 -0.0834  0.4058 -0.5493
  381SOL     OW 7157   2.325   0.817   1.100 -0.2765  0.2093  0.3975
  381SOL    HW1 7158   2.265   0.872   1.159 -0.7329  1.3609 -1.0669
  381SOL    HW2 7159   2.353   0.734   1.149 -2.6016 -0.0967  1.3471
  382SOL     OW 7160   1.616   2.422   0.018 -0.0914 -0.1405 -0.8235
  382SOL    HW1 7161   1.682   2.419   0.092  0.7395  0.8065 -1.4938
  382SOL    HW2 7162   1.545   2.489   0.039  0.2051  0.2088 -0.9168
  383SOL     OW 7163   3.153   4.874   6.126 -0.5231  0.1367 -0.3754
  383SOL    HW1 7164   3.110   4.919   6.048 -0.8070 -0.7895 -0.7698
  383SOL    HW2 7165   3.118   4.780   6.135  0.2573 -0.1162  0.2448
  384SOL     OW 7166   5.210   1.879   5.778  0.8047  0.4144  0.1212
  384SOL    HW1 7167   5.236   1.821   5.855  1.7249 -0.5175 -0.8560
  384SOL    HW2 7168   5.289   1.890   5.716 -0.8307 -1.9909 -2.6449
  385SOL     OW 7169   0.015   6.185   6.437 -0.1293 -0.3310 -0.6453
  385SOL    HW1 7170  -0.030   6.225   6.357  2.2828  2.0298 -0.9590
  385SOL    HW2 7171   0.110   6.215   6.440  0.1676 -1.2530  2.5461
  386SOL     OW 7172   1.049   0.107   6.507  0.9657 -0.1858  0.3087
  386SOL    HW1 7173   1.018   0.159   6.587  0.2880  1.6993 -1.1091
  386SOL    HW2 7174   1.149   0.107   6.506  1.2095  4.4613 -1.4973
  387SOL     OW 7175   0.518   5.915   5.888 -0.5155  0.2343 -0.6921
  387SOL    HW1 7176   0.461   5.850   5.938 -0.3661  0.0577 -0.7502
  387SOL    HW2 7177   0.466   5.953   5.812 -0.8278  0.6958 -0.2531
  388SOL     OW 7178   3.411   4.677   5.380  0.4802  0.2864 -0.3451
  388SOL    HW1 7179   3.363   4.590   5.380 -0.4448  0.7793 -0.7637
  388SOL    HW2 7180   3.410   4.716   5.472  2.6851 -1.0659  0.3286
  389SOL     OW 7181   0.788   1.681   0.677 -0.6647  0.2019  0.7972
  389SOL    HW1 7182   0.881   1.715   0.663 -0.1692 -0.2687  2.7588
  389SOL    HW2 7183   0.778   1.592   0.633 -0.0108 -0.0004  1.0493
  390SOL     OW 7184   2.970   4.543   0.658  0.0314  0.2285 -0.0944
  390SOL    HW1 7185   2.944   4.476   0.588  2.0273  0.3313 -0.9979
  390SOL    HW2 7186   3.051   4.511   0.707  0.9489  1.8621 -0.4419
  391SOL     OW 7187   5.359   1.268   0.281 -0.4262  0.1601  0.5747
  391SOL    HW1 7188   5.294   1.210   0.329 -1.1765 -0.9491 -1.6616
  391SOL    HW2 7189   5.337   1.271   0.183  2.9881 -0.5055 -0.3694
  392SOL     OW 7190   4.553   3.223   5.721  0.6730  0.3458 -0.6020
  392SOL    HW1 7191   4.611   3.143   5.704  0.6294  0.5460 -1.8091
  392SOL    HW2 7192   4.590   3.275   5.798  0.2651 -1.2259  0.7042
  393SOL     OW 7193   5.900   0.981   0.839 -0.3304 -0.2211  0.0267
  393SOL    HW1 7194   5.813   0.977   0.789  0.0510  0.8461 -0.7434
  393SOL    HW2 7195   5.905   1.067   0.889  0.1326 -0.4435  0.3720
  394SOL     OW 7196   0.318   3.811   0.462 -0.0430 -0.0140 -0.1357
  394SOL    HW1 7197   0.261   3.747   0.514 -0.8163 -1.3137 -2.4460
  394SOL    HW2 7198   0.401   3.764   0.432 -0.7958 -0.1516 -2.1864
  395SOL     OW 7199   1.405   1.441   5.777  0.0117 -0.0261 -0.0243
  395SOL    HW1 7200   1.488   1.457   5.723  0.6433 -0.5244  0.7700
  395SOL    HW2 7201   1.376   1.528   5.818  0.2357  0.1176 -0.1645
  396SOL     OW 7202   0.701   2.525   1.245 -0.5374  0.2984 -0.0143
  396SOL    HW1 7203   0.612   2.511   1.287 -0.7898  1.2533 -0.2218
  396SOL    HW2 7204   0.718   2.623   1.232  1.2555  0.2796  1.5855
  397SOL     OW 7205   1.785   3.489   5.963  0.4593 -0.7258  0.1303
  397SOL    HW1 7206   1.785   3.392   5.940  0.3102 -0.6742 -0.0935
  397SOL    HW2 7207   1.731   3.539   5.895  0.3199 -0.5223  0.3882
  398SOL     OW 7208   4.854   5.565   1.805 -0.0742 -0.0636  0.3718
  398SOL    HW1 7209   4.851   5.660   1.834 -1.6182 -0.0627  0.2778
  398SOL    HW2 7210   4.819   5.507   1.879  0.8706 -0.5619  0.4368
  399SOL     OW 7211   5.028   0.747   1.014 -0.4625 -0.2807 -0.6963
  399SOL    HW1 7212   5.044   0.763   1.111  1.1292  0.8116 -1.0964
  399SOL    HW2 7213   5.019   0.649   0.998  1.2788 -0.6517  0.3030
  400SOL     OW 7214   6.339   3.076   5.994  0.2912  0.6241  0.1631
  400SOL    HW1 7215   6.335   3.009   5.921 -0.3225  0.3351  0.4551
  400SOL    HW2 7216   6.377   3.162   5.959  3.2616 -0.5204  0.2942
  401SOL     OW 7217   2.967   4.188   1.266  0.2346  0.2454 -0.1001
  401SOL    HW1 7218   2.948   4.244   1.347  1.1165 -0.5619  0.6898
  401SOL    HW2 7219   3.060   4.151   1.272 -0.1059 -0.7998 -0.8906
  402SOL     OW 7220   4.129   2.169   0.132  0.4665  0.2842 -0.2040
  402SOL    HW1 7221   4.099   2.190   0.039 -1.7245 -0.1630  0.3585
  402SOL    HW2 7222   4.225   2.196   0.143  0.3462  1.6525 -2.1436
  403SOL     OW 7223   3.884   1.532   5.346 -0.3098  0.1268  0.4810
  403SOL    HW1 7224   3.882   1.632   5.338  1.4718  0.2132  0.6738
  403SOL    HW2 7225   3.841   1.491   5.266 -0.7215  1.0517  0.2200
  404SOL     OW 7226   4.866   0.248   6.478  0.4902  0.0128  0.3894
  404SOL    HW1 7227   4.867   0.348   6.477  2.2325  0.0405  1.1744
  404SOL    HW2 7228   4.908   0.213   6.394  1.6043  0.0066  0.9195
  405SOL     OW 7229   1.815   6.141   1.168  0.0358  0.6547  0.2948
  405SOL    HW1 7230   1.795   6.225   1.218 -1.0570  0.9431 -0.5847
  405SOL    HW2 7231   1.733   6.085   1.163  0.1572  0.5722 -1.0346
  406SOL     OW 7232   2.403   3.501   6.056 -0.6990  0.3312 -0.2141
  406SOL    HW1 7233   2.500   3.483   6.073 -0.8343 -0.4161 -0.1985
  406SOL    HW2 7234   2.353   3.495   6.142 -0.8634  0.0259 -0.3309
  407SOL     OW 7235   4.904   4.664   0.242  0.5220 -0.0868  0.0653
  407SOL    HW1 7236   4.900   4.681   0.340  2.1996  0.3646  0.0801
  407SOL    HW2 7237   4.846   4.730   0.194  1.0808  0.8415  0.6454
  408SOL     OW 7238   5.048   2.881   0.572 -0.4108 -0.6221 -0.4381
  408SOL    HW1 7239   4.981   2.809   0.590  0.1325 -1.2099 -0.7526
  408SOL    HW2 7240   5.003   2.970   0.579 -0.6951 -0.8969  1.7378
  409SOL     OW 7241   0.166   3.223   0.762  0.7621 -0.2931 -0.2738
  409SOL    HW1 7242   0.099   3.257   0.696 -0.5128 -1.0359  0.5858
  409SOL    HW2 7243   0.159   3.124   0.770  0.6085 -0.1955  1.2184
  410SOL     OW 7244   1.958   0.612   0.941 -0.3468  0.3251 -0.4165
  410SOL    HW1 7245   1.908   0.685   0.894 -3.9277 -1.4563  0.2371
  410SOL    HW2 7246   1.978   0.641   1.035  0.0811  1.1717 -0.7606
  411SOL     OW 7247   0.467   2.367   0.829  0.2703  0.1881  0.7299
  411SOL    HW1 7248   0.527   2.362   0.909 -2.1330 -2.8793  2.5687
  411SOL    HW2 7249   0.498   2.302   0.760  0.0538 -0.1187  0.9213
  412SOL     OW 7250   2.132   6.285   6.117  0.3962 -0.1693 -0.6460
  412SOL    HW1 7251   2.089   6.309   6.204  0.9654 -2.8222  0.4543
  412SOL    HW2 7252   2.208   6.347   6.099  0.7876 -0.0757  1.1668
  413SOL     OW 7253   6.047   6.289   5.549 -0.2727  0.7541 -0.1971
  413SOL    HW1 7254   6.050   6.354   5.625  2.0050 -0.5258  0.9279
  413SOL    HW2 7255   6.107   6.320   5.475  1.9226 -0.5784  0.9084
  414SOL     OW 7256   3.579   1.258   0.563 -0.1284 -0.1167  0.1053
  414SOL    HW1 7257   3.577   1.203   0.647 -1.3897  1.4529  1.1742
  414SOL    HW2 7258   3.527   1.342   0.577 -0.9642 -0.1066 -2.4986
  415SOL     OW 7259   3.936   4.947   4.875 -0.0204  0.2160  0.2107
  415SOL    HW1 7260   4.035   4.952   4.863 -0.1562  1.8133 -0.4374
  415SOL    HW2 7261   3.891   4.957   4.787 -0.7842  0.5931  0.6294
  416SOL     OW 7262   2.589   4.010   5.890  0.2246 -0.0079 -0.0642
  416SOL    HW1 7263   2.539   4.048   5.968  0.9557 -1.2451  1.0458
  416SOL    HW2 7264   2.591   3.910   5.896  1.4722 -0.0704 -0.9285
  417SOL     OW 7265   5.528   3.076   1.232  0.4451 -0.2298 -0.0950
  417SOL    HW1 7266   5.597   3.144   1.257  1.9177 -1.8365  0.3821
  417SOL    HW2 7267   5.500   3.090   1.137  0.4907  1.2119  0.0869
  418SOL     OW 7268   0.689   3.967   6.086  0.1441  0.1059  0.4492
  418SOL    HW1 7269   0.747   4.041   6.052  2.6697 -0.8171  2.4636
  418SOL    HW2 7270   0.689   3.891   6.021 -1.0554  1.1164 -0.8015
  419SOL     OW 7271   5.074   4.681   5.930 -0.1371 -0.2144  0.3753
  419SOL    HW1 7272   4.994   4.649   5.878 -0.9925 -0.3134  1.7126
  419SOL    HW2 7273   5.118   4.755   5.879 -0.8978 -0.3516 -0.5332
  420SOL     OW 7274   4.545   4.536   0.546  0.8663  0.9489  0.3857
  420SOL    HW1 7275   4.513   4.533   0.451  1.6048  1.0105  0.1281
  420SOL    HW2 7276   4.539   4.630   0.580  3.6782  1.6052 -0.7081
  421SOL     OW 7277   2.806   2.845   6.078  0.1507  0.3427 -0.0986
  421SOL    HW1 7278   2.720   2.870   6.033 -0.1037  0.0370  0.1999
  421SOL    HW2 7279   2.879   2.839   6.011 -0.2569 -0.2821 -0.5023
  422SOL     OW 7280   0.733   5.477   0.848  0.0203  0.0107 -0.6891
  422SOL    HW1 7281   0.727   5.461   0.947  0.7754  0.4729 -0.5562
  422SOL    HW2 7282   0.665   5.545   0.821  0.1261  0.2302 -0.4050
  423SOL     OW 7283   0.936   5.366   6.543 -0.3447 -0.1801 -0.4033
  423SOL    HW1 7284   0.959   5.433   6.473 -0.7827 -0.2564 -0.6224
  423SOL    HW2 7285   1.007   5.365   6.613 -0.5111  0.7785 -0.2097
  424SOL     OW 7286   3.350   3.337   6.370 -0.1981  0.5419 -0.3967
  424SOL    HW1 7287   3.256   3.312   6.392 -0.8970  3.7546  0.8254
  424SOL    HW2 7288   3.365   3.434   6.392  3.4113  0.1577 -0.5655
  425SOL     OW 7289   3.706   4.708   0.615 -0.5384  0.1688 -0.4820
  425SOL    HW1 7290   3.641   4.783   0.627 -0.5497 -0.1354  1.7909
  425SOL    HW2 7291   3.718   4.689   0.518 -3.3476  0.6656 -1.0014
  426SOL     OW 7292   4.800   4.652   0.951  0.3451  0.4958  0.1589
  426SOL    HW1 7293   4.723   4.682   0.894 -0.1341 -1.0602 -0.0538
  426SOL    HW2 7294   4.883   4.702   0.924 -0.5593  2.2180  0.4071
  427SOL     OW 7295   3.268   6.217   5.474  0.4011  0.1449  0.1683
  427SOL    HW1 7296   3.263   6.188   5.379  0.4880  1.9160 -0.3993
  427SOL    HW2 7297   3.325   6.153   5.526  2.2695  0.4191 -1.4642
  428SOL     OW 7298   2.851   1.272   5.889  0.0314  0.5838  0.7639
  428SOL    HW1 7299   2.874   1.368   5.879  1.0153  0.1423 -2.2453
  428SOL    HW2 7300   2.752   1.260   5.880  0.1859  1.0549 -2.4562
  429SOL     OW 7301   1.049   3.075   5.568  0.0731 -0.2834  0.9537
  429SOL    HW1 7302   0.991   2.995   5.582 -0.3168  0.0172  1.0780
  429SOL    HW2 7303   1.122   3.075   5.636  0.5760 -0.9764  0.4273
  430SOL     OW 7304   4.347   0.725   6.109 -0.2466 -0.7011  0.3104
  430SOL    HW1 7305   4.433   0.678   6.128 -1.1466 -2.7915 -0.3944
  430SOL    HW2 7306   4.275   0.688   6.168 -1.2917 -1.2696 -1.2603
  431SOL     OW 7307   5.477   6.012   5.318  0.4507  0.1506  0.0680
  431SOL    HW1 7308   5.537   5.972   5.387  1.7334 -0.7865 -1.5325
  431SOL    HW2 7309   5.401   5.949   5.300  0.5998 -0.0160  0.0100
  432SOL     OW 7310   0.359   6.005   5.669  0.0285 -0.2533  0.0914
  432SOL    HW1 7311   0.363   6.087   5.613 -2.2313  2.1849  3.1566
  432SOL    HW2 7312   0.264   5.974   5.677  0.4386 -1.2366  1.5782
  433SOL     OW 7313   1.995   2.369   6.249  0.0128 -0.1955  0.4287
  433SOL    HW1 7314   1.971   2.442   6.185 -0.9110 -2.0037 -1.4368
  433SOL    HW2 7315   1.912   2.333   6.291  0.5638  0.5625  2.2480
  434SOL     OW 7316   4.200   2.168   0.974 -0.3405 -0.0217  0.5693
  434SOL    HW1 7317   4.213   2.253   0.924  2.7079 -1.4404 -1.3678
  434SOL    HW2 7318   4.183   2.188   1.070 -1.8639  2.7503 -0.1683
  435SOL     OW 7319   3.234   4.651   0.717  0.8017 -0.0130  0.0078
  435SOL    HW1 7320   3.160   4.713   0.743 -0.2425 -1.1701 -0.1034
  435SOL    HW2 7321   3.294   4.637   0.796 -0.4512 -0.8801  0.8615
  436SOL     OW 7322   5.225   4.373   5.504  0.8717  0.8871  0.0948
  436SOL    HW1 7323   5.182   4.456   5.468 -0.0992  0.3759  0.0136
  436SOL    HW2 7324   5.261   4.319   5.428 -1.1118 -0.1556 -0.1923
  437SOL     OW 7325   3.906   5.207   1.095 -0.2972 -0.2121 -0.4994
  437SOL    HW1 7326   3.936   5.121   1.135 -0.3588  0.1928  0.4359
  437SOL    HW2 7327   3.981   5.273   1.098 -0.2982 -0.1746 -1.0773
  438SOL     OW 7328   1.850   5.072   5.792 -0.2838  0.2222  0.8713
  438SOL    HW1 7329   1.941   5.032   5.797 -0.5295 -0.5095 -0.0984
  438SOL    HW2 7330   1.804   5.038   5.710 -1.6378  0.1480  1.6389
  439SOL     OW 7331   1.107   2.026   6.223  0.3345  0.0091  0.0853
  439SOL    HW1 7332   1.013   2.019   6.191  0.0781 -0.2608  0.8815
  439SOL    HW2 7333   1.146   1.934   6.234  1.8708  0.0531 -3.5374
  440SOL     OW 7334   1.211   4.203   0.679  0.6436 -0.5800  0.2170
  440SOL    HW1 7335   1.204   4.118   0.732  1.4642  0.3161  1.8769
  440SOL    HW2 7336   1.131   4.260   0.696  0.0922 -0.9976 -0.8969
  441SOL     OW 7337   0.861   4.920   0.260 -0.3236  0.6319 -0.0342
  441SOL    HW1 7338   0.840   4.851   0.329 -1.2070  0.7412 -0.1789
  441SOL    HW2 7339   0.888   4.874   0.175 -1.0026  0.4565 -0.1599
  442SOL     OW 7340   1.671   4.378   6.153 -0.2105 -0.1110  0.0328
  442SOL    HW1 7341   1.684   4.475   6.176  3.1251 -0.5001  0.2206
  442SOL    HW2 7342   1.685   4.322   6.235 -1.1102 -0.8459 -0.2972
  443SOL     OW 7343   0.982   4.769   5.696 -0.3596  0.0061 -0.2181
  443SOL    HW1 7344   0.962   4.671   5.706  0.8769 -0.2654 -0.2390
  443SOL    HW2 7345   1.081   4.782   5.691 -0.5572  1.0975 -2.0313
  444SOL     OW 7346   5.056   0.182   0.169  0.8107  0.0084 -0.5791
  444SOL    HW1 7347   5.043   0.269   0.217  0.9749  0.8006 -1.9256
  444SOL    HW2 7348   4.969   0.131   0.168  0.0493  1.2472 -1.8126
  445SOL     OW 7349   6.232   4.083   0.424 -0.2782 -0.2951 -0.3141
  445SOL    HW1 7350   6.210   4.180   0.421  0.4578 -0.1422 -2.2377
  445SOL    HW2 7351   6.327   4.072   0.453 -0.4896 -0.4787  0.3225
  446SOL     OW 7352   5.443   5.265   5.789  0.4914  0.2958 -0.6079
  446SOL    HW1 7353   5.527   5.242   5.741 -0.7559 -1.9794 -1.8756
  446SOL    HW2 7354   5.368   5.276   5.723 -0.5085  0.9463  0.5742
  447SOL     OW 7355   1.500   3.057   0.384  0.2772 -0.1850 -0.9663
  447SOL    HW1 7356   1.503   2.996   0.306 -2.3581  1.5311 -2.5964
  447SOL    HW2 7357   1.404   3.081   0.404  0.8605 -0.3183  2.6480
  448SOL     OW 7358   4.584   4.465   5.979  0.2940  0.5460  0.1687
  448SOL    HW1 7359   4.610   4.429   5.889 -0.5635 -1.7015  0.7584
  448SOL    HW2 7360   4.667   4.483   6.033  0.7722  0.3340 -0.4860
  449SOL     OW 7361   3.612   1.536   0.579 -0.0397 -0.0547  0.1911
  449SOL    HW1 7362   3.686   1.481   0.541  0.4806  0.3770  0.5777
  449SOL    HW2 7363   3.647   1.593   0.653 -0.5119  0.9969 -0.3746
  450SOL     OW 7364   4.205   0.251   0.245 -0.1198  0.1211 -0.0140
  450SOL    HW1 7365   4.250   0.256   0.334  0.6757 -0.2024 -0.3885
  450SOL    HW2 7366   4.269   0.217   0.177 -0.8155  0.0569 -0.6541
  451SOL     OW 7367   2.583   0.801   0.019  0.7147  0.3522 -0.6969
  451SOL    HW1 7368   2.650   0.777  -0.051  0.7602  0.9863 -0.8770
  451SOL    HW2 7369   2.628   0.807   0.108  0.1374 -3.6212  0.0386
  452SOL     OW 7370   1.462   0.112   0.566  0.7518  0.0961 -0.9758
  452SOL    HW1 7371   1.539   0.060   0.529  0.6487 -0.2385 -0.7223
  452SOL    HW2 7372   1.470   0.116   0.666  1.6011  1.8724 -1.0700
  453SOL     OW 7373   4.404   5.425   1.676  0.3658 -0.8095  0.2952
  453SOL    HW1 7374   4.493   5.386   1.650  0.4360 -1.3476  1.2916
  453SOL    HW2 7375   4.411   5.470   1.764 -0.3564 -0.8664  0.3924
  454SOL     OW 7376   2.593   1.986   0.714  0.5712  0.0493 -0.4367
  454SOL    HW1 7377   2.532   1.958   0.789  0.7823  0.1870 -0.2123
  454SOL    HW2 7378   2.680   1.939   0.723  0.2074 -0.8023 -1.2482
  455SOL     OW 7379   1.556   5.044   0.658  0.3014  0.2852  0.5495
  455SOL    HW1 7380   1.461   5.042   0.626  0.1439  1.0448  0.9298
  455SOL    HW2 7381   1.581   4.954   0.694 -0.2936  0.0939  0.5016
  456SOL     OW 7382   1.394   0.467   5.291 -0.1896 -0.2036  0.1722
  456SOL    HW1 7383   1.483   0.471   5.336 -0.2033  0.6571  0.1330
  456SOL    HW2 7384   1.406   0.446   5.194  0.0599  1.0423 -0.0784
  457SOL     OW 7385   2.861   0.121   5.300  0.0243 -0.5037  0.1590
  457SOL    HW1 7386   2.953   0.111   5.340  0.2842 -1.2403 -0.5890
  457SOL    HW2 7387   2.847   0.216   5.272  1.0752 -0.6425 -0.9178
  458SOL     OW 7388   6.220   0.276   0.694 -0.1901 -0.8668  0.6305
  458SOL    HW1 7389   6.310   0.311   0.722 -0.2185 -0.4048  0.1480
  458SOL    HW2 7390   6.232   0.210   0.620 -0.3503  0.3852 -0.5492
  459SOL     OW 7391   5.520   5.510   5.165 -0.0430 -1.1168  0.1092
  459SOL    HW1 7392   5.593   5.577   5.177  1.5857 -2.9174  0.6874
  459SOL    HW2 7393   5.464   5.535   5.087  0.3743  1.0150  0.4435
  460SOL     OW 7394   3.976   0.035   0.297 -0.2517  0.5847  0.2150
  460SOL    HW1 7395   4.042   0.111   0.293  3.0588 -2.0451  0.5623
  460SOL    HW2 7396   3.967   0.004   0.392 -1.1379  0.1735  0.0028
  461SOL     OW 7397   1.532   6.438   5.436 -0.5946 -0.3512 -0.2376
  461SOL    HW1 7398   1.562   6.473   5.347 -0.8874 -1.1390 -0.6635
  461SOL    HW2 7399   1.480   6.354   5.422  2.1897 -2.4491  0.8309
  462SOL     OW 7400   0.028   5.895   4.761  0.4789  0.3521  0.3274
  462SOL    HW1 7401   0.001   5.820   4.702 -0.1112  2.0885 -1.7639
  462SOL    HW2 7402   0.116   5.875   4.805 -0.3993 -2.1379  1.0715
  463SOL     OW 7403   0.919   0.125   5.299 -0.0003  0.1306  0.3647
  463SOL    HW1 7404   1.010   0.167   5.310 -0.4001  1.1051  0.0525
  463SOL    HW2 7405   0.918   0.071   5.215  0.8952 -1.5710  1.3816
  464SOL     OW 7406   5.761   5.690   1.110 -0.3415  0.0755  0.4162
  464SOL    HW1 7407   5.761   5.590   1.119  0.7475  0.0676  0.4408
  464SOL    HW2 7408   5.700   5.717   1.035  0.8633 -0.7526 -0.9182
  465SOL     OW 7409   0.699   0.778   0.452 -0.3376  0.0941  0.4413
  465SOL    HW1 7410   0.601   0.793   0.442 -0.6366 -1.8750 -0.0895
  465SOL    HW2 7411   0.714   0.690   0.498  1.1404 -0.8737 -1.7390
  466SOL     OW 7412   1.447   1.765   5.541 -0.5108 -0.3209  0.1970
  466SOL    HW1 7413   1.367   1.704   5.544 -1.0567  0.4131  1.2475
  466SOL    HW2 7414   1.490   1.759   5.450 -0.3471 -2.4944  0.3586
  467SOL     OW 7415   1.074   0.935   0.959  0.0968 -0.6267  0.0066
  467SOL    HW1 7416   1.162   0.898   0.988  1.4402 -0.0974 -3.0662
  467SOL    HW2 7417   1.027   0.974   1.038  2.7267 -0.6295  1.6920
  468SOL     OW 7418   4.912   4.632   6.139 -0.2725 -0.0488  0.2692
  468SOL    HW1 7419   4.846   4.702   6.113 -1.5815 -1.3763 -0.1815
  468SOL    HW2 7420   4.982   4.623   6.068  0.3712  1.3203  0.7126
  469SOL     OW 7421   3.862   5.216   4.938 -0.0597 -0.0930  0.0562
  469SOL    HW1 7422   3.885   5.248   4.846  0.9158 -1.6807 -0.2979
  469SOL    HW2 7423   3.885   5.119   4.946  1.5844  0.4092  2.5435
  470SOL     OW 7424   5.425   0.696   5.156  0.1163  0.4840 -0.0873
  470SOL    HW1 7425   5.490   0.768   5.182  1.6625 -0.5494 -0.9336
  470SOL    HW2 7426   5.412   0.697   5.057  0.8461 -0.9133 -0.2300
  471SOL     OW 7427   2.984   1.260   1.521 -0.2788  0.1754  0.6844
  471SOL    HW1 7428   3.043   1.186   1.488 -2.4323 -0.8434 -1.1886
  471SOL    HW2 7429   2.912   1.222   1.579 -0.4658  1.0543  1.0386
  472SOL     OW 7430   5.262   1.120   6.111  0.3847  0.3624  0.2298
  472SOL    HW1 7431   5.206   1.046   6.073  0.5852  0.7525 -0.8553
  472SOL    HW2 7432   5.218   1.208   6.093 -0.0808  0.5092  1.9087
  473SOL     OW 7433   2.876   0.017   6.095  0.1589  0.0452 -0.5613
  473SOL    HW1 7434   2.848   0.099   6.045  0.7848  0.6503  0.0574
  473SOL    HW2 7435   2.945   0.042   6.163  0.3722 -1.0044 -0.3841
  474SOL     OW 7436   0.094   4.083   6.053 -0.4328 -0.4515 -0.2746
  474SOL    HW1 7437   0.030   4.043   5.987 -1.6245  1.8339 -0.5888
  474SOL    HW2 7438   0.044   4.128   6.126  0.8665 -0.3017  0.5628
  475SOL     OW 7439   2.459   3.265   5.690  0.5450 -0.4967 -0.0003
  475SOL    HW1 7440   2.484   3.360   5.673  1.2534 -0.5632  0.6245
  475SOL    HW2 7441   2.542   3.208   5.690  0.2276 -0.9690  0.5302
  476SOL     OW 7442   2.092   5.445   6.442 -0.1212  0.4840  0.1343
  476SOL    HW1 7443   2.039   5.361   6.431  0.1053  0.4817 -1.1181
  476SOL    HW2 7444   2.181   5.423   6.480  0.1572  0.0685 -0.7368
  477SOL     OW 7445   0.129   0.977   0.944 -0.3767  0.6488 -0.2591
  477SOL    HW1 7446   0.051   1.034   0.971 -1.8486 -0.6233 -1.5845
  477SOL    HW2 7447   0.135   0.897   1.004 -1.6037 -0.4557 -1.5131
  478SOL     OW 7448   0.536   5.967   5.454  0.7024 -0.1906 -0.8518
  478SOL    HW1 7449   0.475   6.043   5.477  3.3137  1.4637  1.1154
  478SOL    HW2 7450   0.523   5.893   5.520  2.3262  1.1208  1.0470
  479SOL     OW 7451   4.044   5.518   0.733 -0.4776 -0.0574  0.2057
  479SOL    HW1 7452   4.046   5.580   0.654 -1.3826  0.2630  0.4207
  479SOL    HW2 7453   4.003   5.566   0.811  1.5804  0.0730  1.2729
  480SOL     OW 7454   3.039   2.660   1.252  0.2335  0.5131  0.0795
  480SOL    HW1 7455   3.067   2.575   1.206  0.3022  1.6676 -2.1233
  480SOL    HW2 7456   2.996   2.637   1.339 -0.1648 -1.8210 -0.6487
  481SOL     OW 7457   3.736   2.162   0.030 -0.6575 -0.0623 -0.7289
  481SOL    HW1 7458   3.727   2.260   0.046 -1.9286 -0.3094  0.2537
  481SOL    HW2 7459   3.770   2.117   0.113  0.5919 -0.3878 -1.3920
  482SOL     OW 7460   0.509   5.921   1.464  0.1751 -0.1012 -0.0690
  482SOL    HW1 7461   0.546   5.900   1.555 -1.1702  1.7323  0.9808
  482SOL    HW2 7462   0.531   6.016   1.440 -1.6110  0.2438 -0.5084
  483SOL     OW 7463   0.883   5.814   0.725  0.5665  0.0829  0.2307
  483SOL    HW1 7464   0.960   5.751   0.735  0.1337 -0.4467  0.2374
  483SOL    HW2 7465   0.799   5.763   0.709  0.4963  0.7233 -1.7085
  484SOL     OW 7466   2.994   3.813   1.638  0.6296  0.0570 -0.2614
  484SOL    HW1 7467   2.938   3.825   1.556  0.4526 -1.2456 -0.3424
  484SOL    HW2 7468   3.056   3.891   1.647  1.4958 -0.3396 -2.2989
  485SOL     OW 7469   2.398   2.587   0.615  0.2212 -0.8552 -0.0675
  485SOL    HW1 7470   2.332   2.562   0.685  0.0585 -0.1218  0.0502
  485SOL    HW2 7471   2.454   2.664   0.647 -0.7688  0.3998 -1.2410
  486SOL     OW 7472   5.970   0.222   0.368 -0.1004  0.6045 -0.0121
  486SOL    HW1 7473   5.959   0.202   0.271 -0.6510  1.9963 -0.2655
  486SOL    HW2 7474   5.881   0.244   0.408  0.2371  0.8496  0.6118
  487SOL     OW 7475   1.366   5.647   0.172 -0.2944 -0.7588  0.3446
  487SOL    HW1 7476   1.387   5.742   0.195  0.4405 -0.8507  0.0585
  487SOL    HW2 7477   1.385   5.589   0.251 -1.6789 -0.5587  0.8573
  488SOL     OW 7478   5.758   1.582   4.854 -0.0523 -0.2401 -0.0188
  488SOL    HW1 7479   5.786   1.497   4.809  0.7733  0.8720 -1.7390
  488SOL    HW2 7480   5.738   1.651   4.784  0.9735  1.4969  1.3397
  489SOL     OW 7481   4.447   1.213   1.141  0.0005 -0.0211  0.2216
  489SOL    HW1 7482   4.450   1.179   1.235  0.5119 -2.4487 -0.5986
  489SOL    HW2 7483   4.535   1.253   1.117  0.6228 -1.3532  0.1567
  490SOL     OW 7484   1.479   4.876   6.135  0.8070  0.3056  0.3622
  490SOL    HW1 7485   1.431   4.941   6.077 -0.3338 -0.3451  0.5351
  490SOL    HW2 7486   1.431   4.788   6.134  1.6944 -0.2085  0.9852
  491SOL     OW 7487   4.355   3.909   0.028  0.4373  0.0708  0.0941
  491SOL    HW1 7488   4.439   3.861   0.053  1.2155  1.0933 -0.4811
  491SOL    HW2 7489   4.322   3.961   0.107  0.6222  0.0616  0.1782
  492SOL     OW 7490   2.130   4.427   6.321 -0.7070  0.3109  0.3435
  492SOL    HW1 7491   2.093   4.426   6.228 -2.5726 -0.5886  1.0427
  492SOL    HW2 7492   2.143   4.522   6.350 -0.5550  0.6057 -0.6561
  493SOL     OW 7493   3.451   2.231   0.146  0.7111  0.1065 -0.0293
  493SOL    HW1 7494   3.498   2.301   0.200  1.2867  0.4057 -0.8873
  493SOL    HW2 7495   3.381   2.273   0.089  0.8805 -0.0389 -0.3542
  494SOL     OW 7496   4.568   2.557   1.731  1.1279  0.2062 -0.2721
  494SOL    HW1 7497   4.619   2.615   1.667  1.4981  1.1467  0.8457
  494SOL    HW2 7498   4.631   2.498   1.781  0.6971 -1.8524 -1.9722
  495SOL     OW 7499   6.017   3.838   6.100 -0.3791 -0.0571 -0.1155
  495SOL    HW1 7500   6.073   3.815   6.021  0.2156  0.4526  0.1459
  495SOL    HW2 7501   6.054   3.920   6.145 -0.4415 -0.5911  0.9452
  496SOL     OW 7502   4.685   5.339   0.605  0.1959 -0.2187  0.1676
  496SOL    HW1 7503   4.608   5.285   0.573  0.8280 -0.7906 -0.4201
  496SOL    HW2 7504   4.670   5.435   0.581  0.4819 -0.5771 -1.5712
  497SOL     OW 7505   2.996   2.099   0.285  0.1975  0.1647 -0.4456
  497SOL    HW1 7506   2.970   2.100   0.188 -0.0227 -1.9852 -0.4523
  497SOL    HW2 7507   3.095   2.082   0.292  0.2578  0.5765 -0.2972
  498SOL     OW 7508   4.104   5.585   6.062 -0.2465  0.0091 -0.2782
  498SOL    HW1 7509   4.050   5.644   6.123  0.4902  0.9149 -0.4813
  498SOL    HW2 7510   4.043   5.542   5.995 -0.7363  0.9645 -0.4639
  499SOL     OW 7511   3.847   2.368   6.186 -0.5612 -0.1694 -0.1589
  499SOL    HW1 7512   3.770   2.317   6.150 -0.9144  0.1501  0.1246
  499SOL    HW2 7513   3.883   2.321   6.267 -0.9973  0.1055  0.2070
  500SOL     OW 7514   2.460   4.116   0.907 -0.5728  0.2292  1.0723
  500SOL    HW1 7515   2.414   4.028   0.917 -0.2294 -0.1013 -0.0628
  500SOL    HW2 7516   2.494   4.147   0.995  1.2555 -1.8448  1.1720
  501SOL     OW 7517   6.082   0.766   0.444  0.0204  0.2472 -0.0649
  501SOL    HW1 7518   6.168   0.790   0.398  1.4369 -1.2785  1.6446
  501SOL    HW2 7519   6.095   0.770   0.543 -1.5370 -1.2452  0.2434
  502SOL     OW 7520   3.295   3.672   0.415  0.5602 -0.3156 -0.2094
  502SOL    HW1 7521   3.274   3.769   0.416 -0.3878 -0.4987  1.3769
  502SOL    HW2 7522   3.388   3.657   0.448  0.5847  0.0335 -0.1214
  503SOL     OW 7523   4.217   0.557   0.301 -0.2321  0.0064  0.2269
  503SOL    HW1 7524   4.176   0.522   0.385 -0.4467  0.4879  0.3247
  503SOL    HW2 7525   4.148   0.561   0.229  0.0075 -0.6406 -0.0512
  504SOL     OW 7526   1.163   1.823   0.157 -0.2409 -0.9079 -0.4754
  504SOL    HW1 7527   1.199   1.730   0.158  0.2470 -0.7271 -0.5834
  504SOL    HW2 7528   1.210   1.876   0.086  0.6245 -0.1522  0.6315
  505SOL     OW 7529   2.229   0.444   0.752  0.1432 -0.1464 -0.6275
  505SOL    HW1 7530   2.142   0.428   0.799  0.6241 -0.3654  0.2048
  505SOL    HW2 7531   2.279   0.517   0.799  0.0650  0.5469 -1.5829
  506SOL     OW 7532   5.381   4.929   2.221  0.2359  0.2432  0.2508
  506SOL    HW1 7533   5.420   4.895   2.135 -2.5095  0.1774 -1.0819
  506SOL    HW2 7534   5.316   4.862   2.256 -0.7979  1.5144  0.8328
  507SOL     OW 7535   4.762   2.952   5.142 -0.3416 -0.8055 -0.1446
  507SOL    HW1 7536   4.759   2.899   5.057 -0.4053  0.2069 -0.7882
  507SOL    HW2 7537   4.670   2.983   5.165 -0.1361  0.0660 -0.4549
  508SOL     OW 7538   5.462   5.104   0.648  0.0475  0.0109 -0.3531
  508SOL    HW1 7539   5.446   5.201   0.664  0.6952  0.2835 -1.2821
  508SOL    HW2 7540   5.439   5.081   0.553  0.6339 -0.5687 -0.3688
  509SOL     OW 7541   2.961   6.104   0.396  0.8545  0.0702 -0.4534
  509SOL    HW1 7542   2.898   6.026   0.393  0.4581  0.3691  0.0694
  509SOL    HW2 7543   2.935   6.171   0.327  0.3919  0.3530 -0.0030
  510SOL     OW 7544   4.192   0.426   1.548 -0.7607  0.0927  0.1481
  510SOL    HW1 7545   4.130   0.504   1.537  0.9850  1.5655  0.2661
  510SOL    HW2 7546   4.281   0.458   1.581 -0.0483 -2.0001  0.4339
  511SOL     OW 7547   2.318   1.503   5.569 -0.7158  0.7704  0.2824
  511SOL    HW1 7548   2.340   1.569   5.496 -1.4352  1.1000  0.3613
  511SOL    HW2 7549   2.352   1.413   5.542 -1.3274  0.8026 -0.6542
  512SOL     OW 7550   3.938   5.482   5.901  0.3199  0.2082 -0.1880
  512SOL    HW1 7551   3.863   5.420   5.876  0.5624 -0.1193 -0.0995
  512SOL    HW2 7552   3.988   5.508   5.819  1.2006 -0.9771 -0.0332
  513SOL     OW 7553   3.767   6.331   6.102 -0.0834 -0.5912  0.3086
  513SOL    HW1 7554   3.720   6.413   6.071  2.1198  0.4992 -0.3159
  513SOL    HW2 7555   3.706   6.278   6.161 -1.3488  1.8009  1.2665
  514SOL     OW 7556   6.113   0.293   5.771 -0.0114  0.4164  0.4690
  514SOL    HW1 7557   6.155   0.272   5.858  1.4533 -0.6475 -0.4506
  514SOL    HW2 7558   6.159   0.372   5.729  0.2716  0.0143  0.0099
  515SOL     OW 7559   5.681   2.001   0.138 -0.6971  0.0230  0.6578
  515SOL    HW1 7560   5.634   2.070   0.193 -2.5621 -3.2107  3.5163
  515SOL    HW2 7561   5.614   1.937   0.101  1.0645 -1.8148  0.4652
  516SOL     OW 7562   2.364   3.330   0.375 -0.5358 -0.0814 -0.1303
  516SOL    HW1 7563   2.283   3.315   0.432 -0.2462 -3.6440 -0.3882
  516SOL    HW2 7564   2.441   3.355   0.433 -0.7902 -1.2984  0.7675
  517SOL     OW 7565   3.838   4.736   4.497 -0.4384  0.2102 -0.3713
  517SOL    HW1 7566   3.837   4.717   4.399  1.0115  2.1660 -0.8303
  517SOL    HW2 7567   3.933   4.744   4.528 -0.8892  0.4077  1.0203
  518SOL     OW 7568   3.492   5.619   0.806 -0.0685  0.7543  0.9970
  518SOL    HW1 7569   3.521   5.533   0.847 -1.0352  0.5156  1.2041
  518SOL    HW2 7570   3.394   5.617   0.789  0.2404  0.9419 -1.1442
  519SOL     OW 7571   5.378   4.897   0.800 -0.2378 -0.7365 -0.5061
  519SOL    HW1 7572   5.432   4.958   0.742 -3.0423  0.3090 -2.2708
  519SOL    HW2 7573   5.365   4.940   0.890  0.0247  0.0422 -0.8265
  520SOL     OW 7574   1.183   1.170   5.478 -0.6703  0.2020  0.0576
  520SOL    HW1 7575   1.128   1.219   5.411 -0.1601 -1.2274 -1.4737
  520SOL    HW2 7576   1.155   1.073   5.479 -0.2358  0.0673  1.4694
  521SOL     OW 7577   5.616   1.152   0.174  0.2608  0.9730 -0.2656
  521SOL    HW1 7578   5.593   1.178   0.080  2.3242  0.2716 -1.0284
  521SOL    HW2 7579   5.552   1.196   0.237  0.1078  3.2145 -1.8561
  522SOL     OW 7580   5.455   5.195   5.438 -0.1365 -0.3921 -0.2801
  522SOL    HW1 7581   5.491   5.257   5.507 -1.9309 -0.6869  0.9924
  522SOL    HW2 7582   5.472   5.232   5.347 -0.7466  1.7456  0.4366
  523SOL     OW 7583   5.463   6.032   0.893  0.0781  0.4593  0.2329
  523SOL    HW1 7584   5.449   6.117   0.944 -0.4339  0.0786  0.7403
  523SOL    HW2 7585   5.503   6.053   0.804  0.6098  1.1681  0.6306
  524SOL     OW 7586   1.927   4.114   6.035  0.0491 -0.3258 -0.4347
  524SOL    HW1 7587   1.883   4.166   5.961 -1.5105 -1.6858 -0.5292
  524SOL    HW2 7588   1.929   4.017   6.010  0.0702 -0.7219  1.0409
  525SOL     OW 7589   0.604   5.984   0.575  0.0039 -0.1077 -0.5182
  525SOL    HW1 7590   0.657   5.932   0.643  1.1139  1.7582  0.1480
  525SOL    HW2 7591   0.586   5.927   0.496 -0.9530 -2.2354  1.1457
  526SOL     OW 7592   2.686   2.390   6.271  0.5387 -0.0583 -0.7195
  526SOL    HW1 7593   2.730   2.362   6.186  0.8945  1.3707 -1.0305
  526SOL    HW2 7594   2.689   2.490   6.279 -1.4906  0.0010 -0.1121
  527SOL     OW 7595   4.246   0.313   5.258  0.0417 -0.0765  0.3072
  527SOL    HW1 7596   4.230   0.285   5.353  1.4039 -1.6529  0.1333
  527SOL    HW2 7597   4.213   0.241   5.196  1.1389 -0.0889 -0.2973
  528SOL     OW 7598   5.281   0.238   0.033 -0.4921 -0.5012 -0.1500
  528SOL    HW1 7599   5.357   0.225   0.097 -0.1987  0.0562 -0.3809
  528SOL    HW2 7600   5.194   0.222   0.081 -0.4482  2.3183  1.1217
  529SOL     OW 7601   1.976   0.831   1.822  1.0686  0.0452 -0.2500
  529SOL    HW1 7602   1.994   0.810   1.918  1.8698  0.7872 -0.2284
  529SOL    HW2 7603   1.891   0.787   1.794  0.6655  0.0632  0.8887
  530SOL     OW 7604   5.418   0.357   4.376 -0.4501  0.4052 -0.2328
  530SOL    HW1 7605   5.510   0.323   4.359 -1.1378 -2.1326  0.6523
  530SOL    HW2 7606   5.423   0.446   4.422  1.5678  0.0792  0.2826
  531SOL     OW 7607   1.432   2.120   6.552  0.7455 -0.8959  0.6216
  531SOL    HW1 7608   1.514   2.112   6.609  1.7309  0.6725 -0.4967
  531SOL    HW2 7609   1.421   2.215   6.522  0.0045 -1.5774 -1.4283
  532SOL     OW 7610   3.213   2.981   6.534  0.1408 -0.2774  0.3300
  532SOL    HW1 7611   3.282   3.030   6.587  1.0451 -0.7434 -0.3979
  532SOL    HW2 7612   3.211   2.885   6.562 -1.8474  0.1601  1.9772
  533SOL     OW 7613   0.373   4.090   0.728 -0.1055 -0.6669 -0.0697
  533SOL    HW1 7614   0.398   3.994   0.711  0.5998 -1.2460  3.4796
  533SOL    HW2 7615   0.443   4.133   0.785 -0.7453  1.7996 -1.0542
  534SOL     OW 7616   6.107   5.841   0.472  0.4936 -0.0290 -0.1871
  534SOL    HW1 7617   6.083   5.936   0.490  1.2777  0.3286 -1.0076
  534SOL    HW2 7618   6.154   5.803   0.552  1.8519  0.8422 -0.5477
  535SOL     OW 7619   0.578   2.232   1.355 -0.7816 -0.2979  0.2504
  535SOL    HW1 7620   0.576   2.279   1.443  0.3615 -2.2476  1.3957
  535SOL    HW2 7621   0.671   2.200   1.337 -1.4686 -1.9688 -0.5053
  536SOL     OW 7622   3.936   0.421   0.170  0.9150  0.2282 -0.1786
  536SOL    HW1 7623   3.861   0.411   0.236  0.8535  0.9831 -0.1267
  536SOL    HW2 7624   4.016   0.372   0.204 -0.1203 -2.3936 -1.2084
  537SOL     OW 7625   2.901   3.270   0.827 -0.4321 -0.4042  0.2003
  537SOL    HW1 7626   2.918   3.274   0.925  0.0882 -2.0536  0.2118
  537SOL    HW2 7627   2.803   3.275   0.809 -0.6352 -1.5227  0.9229
  538SOL     OW 7628   1.589   6.230   0.306  0.0640 -0.2552  0.3028
  538SOL    HW1 7629   1.609   6.278   0.392  1.2433  0.7991 -0.5230
  538SOL    HW2 7630   1.622   6.285   0.230 -0.6575 -1.3441 -0.8204
  539SOL     OW 7631   1.607   1.823   1.036 -0.1001 -0.5711 -0.2776
  539SOL    HW1 7632   1.702   1.854   1.048 -0.4838  0.2214  0.9178
  539SOL    HW2 7633   1.569   1.797   1.125 -0.8824 -1.2774 -0.8044
  540SOL     OW 7634   2.524   4.313   1.112 -0.3833  0.7064  0.0542
  540SOL    HW1 7635   2.579   4.235   1.144 -1.6970  0.3876  1.6550
  540SOL    HW2 7636   2.509   4.376   1.188 -1.0454  1.5133 -0.7278
  541SOL     OW 7637   1.750   4.804   4.959 -0.1445 -0.2910  0.3434
  541SOL    HW1 7638   1.831   4.793   4.902 -0.7190 -1.1060 -0.3498
  541SOL    HW2 7639   1.761   4.883   5.019  1.1561 -0.3979  0.2636
  542SOL     OW 7640   4.580   1.119   5.863  0.6570 -0.0162  0.0885
  542SOL    HW1 7641   4.580   1.139   5.961 -1.1543  0.4892  0.0258
  542SOL    HW2 7642   4.581   1.205   5.811  1.1163 -0.2711 -0.3364
  543SOL     OW 7643   5.975   0.230   5.511 -0.4280 -0.2869 -0.2263
  543SOL    HW1 7644   6.001   0.252   5.605  2.5670 -0.7388 -0.8262
  543SOL    HW2 7645   5.952   0.314   5.462  3.1297  0.7656 -0.3843
  544SOL     OW 7646   2.882   4.159   0.229  0.0741  0.4171 -0.1139
  544SOL    HW1 7647   2.800   4.104   0.242 -0.3702  0.5497 -2.1091
  544SOL    HW2 7648   2.955   4.124   0.287 -0.4059 -1.8494 -0.7962
  545SOL     OW 7649   4.132   1.279   1.281  0.5975  0.1691  0.8168
  545SOL    HW1 7650   4.226   1.243   1.286 -0.1494 -2.3487 -0.9548
  545SOL    HW2 7651   4.114   1.308   1.187 -0.9565 -1.1377  0.6864
  546SOL     OW 7652   3.114   0.770   0.760  0.2164  0.1396 -0.2680
  546SOL    HW1 7653   3.207   0.761   0.725  1.1572 -2.2100  2.4242
  546SOL    HW2 7654   3.103   0.858   0.807  2.0038 -0.5890  1.6387
  547SOL     OW 7655   2.005   2.330   4.567 -0.5575  0.3860 -0.9666
  547SOL    HW1 7656   2.052   2.242   4.572 -1.9671 -0.3810 -0.7413
  547SOL    HW2 7657   1.926   2.329   4.627 -0.4946  1.8958 -0.8149
  548SOL     OW 7658   6.276   2.778   1.517 -0.0371  0.1752 -0.2868
  548SOL    HW1 7659   6.182   2.786   1.484 -0.2397 -0.7118  0.0365
  548SOL    HW2 7660   6.278   2.718   1.597  0.8239  0.0687 -0.3782
  549SOL     OW 7661   2.838   0.669   1.398 -0.1356 -0.2689 -0.0542
  549SOL    HW1 7662   2.787   0.710   1.473  0.8340  1.0960 -0.1122
  549SOL    HW2 7663   2.918   0.726   1.376  2.5169 -3.1640  1.2486
  550SOL     OW 7664   2.604   2.292   5.805 -0.1568  0.0389 -0.2423
  550SOL    HW1 7665   2.676   2.242   5.756 -1.7007 -1.0808 -1.4613
  550SOL    HW2 7666   2.548   2.227   5.857 -0.5549  0.8373  0.3466
  551SOL     OW 7667   4.679   5.225   0.066  0.0929 -0.2634 -0.6378
  551SOL    HW1 7668   4.730   5.173  -0.001  0.2190 -1.1507  0.1358
  551SOL    HW2 7669   4.601   5.269   0.022 -0.9248 -2.3641 -1.0557
  552SOL     OW 7670   5.938   1.354   5.207  0.1812  0.3870  0.2765
  552SOL    HW1 7671   5.987   1.427   5.158  3.8511 -2.3858 -0.6166
  552SOL    HW2 7672   5.961   1.358   5.304 -1.0951  1.4126  0.5650
  553SOL     OW 7673   0.361   4.731   6.282  0.1264  0.3147 -0.7376
  553SOL    HW1 7674   0.432   4.775   6.336 -0.4171 -0.2550  0.5055
  553SOL    HW2 7675   0.278   4.786   6.284 -0.5135 -0.6183  0.7125
  554SOL     OW 7676   4.794   6.242   0.057  0.0027  0.0780  0.2244
  554SOL    HW1 7677   4.892   6.231   0.043  0.0669  1.4222 -0.5083
  554SOL    HW2 7678   4.744   6.197  -0.017  0.1168  0.5635 -0.1530
  555SOL     OW 7679   3.795   5.178   6.080  0.3057 -0.7373  0.1994
  555SOL    HW1 7680   3.852   5.147   6.005  2.3575  1.7639  0.5681
  555SOL    HW2 7681   3.699   5.181   6.051  0.7513 -1.9545 -1.5281
  556SOL     OW 7682   3.084   5.646   5.899 -0.1675  0.3327 -0.1187
  556SOL    HW1 7683   3.018   5.571   5.893 -0.2834  0.1311  2.5291
  556SOL    HW2 7684   3.045   5.721   5.952  2.0068 -0.2702  2.6070
  557SOL     OW 7685   4.223   6.315   0.784 -0.1043  0.3169  0.0377
  557SOL    HW1 7686   4.171   6.262   0.852  0.0800 -0.1164 -0.1533
  557SOL    HW2 7687   4.319   6.288   0.787 -0.0121  0.6282 -0.0809
  558SOL     OW 7688   1.289   5.244   0.257 -0.0055  0.3379  0.1490
  558SOL    HW1 7689   1.216   5.175   0.256 -1.0107  1.3597 -0.9941
  558SOL    HW2 7690   1.250   5.334   0.277  0.6821  1.1266 -1.7387
  559SOL     OW 7691   5.935   4.790   0.087 -0.8572  0.9494 -0.2564
  559SOL    HW1 7692   6.032   4.810   0.074 -0.7865  0.4076 -0.6259
  559SOL    HW2 7693   5.894   4.767  -0.001 -0.9712 -0.2721  0.0944
  560SOL     OW 7694   1.191   5.943   6.352 -0.2721  0.4863  0.2023
  560SOL    HW1 7695   1.196   5.935   6.252 -1.1206  2.5525 -0.0475
  560SOL    HW2 7696   1.209   5.853   6.393 -0.3596 -0.5098 -1.8048
  561SOL     OW 7697   4.180   1.529   0.329  0.6653  0.1825  0.4209
  561SOL    HW1 7698   4.232   1.447   0.353  0.0642 -0.2332  0.3007
  561SOL    HW2 7699   4.102   1.505   0.273  1.2558  0.9998 -0.8041
  562SOL     OW 7700   1.309   0.700   0.834  0.1434 -0.1166  1.1322
  562SOL    HW1 7701   1.332   0.771   0.768  2.3081  1.4017  3.3394
  562SOL    HW2 7702   1.229   0.649   0.803  1.6292 -0.1955 -3.0999
  563SOL     OW 7703   0.749   1.671   0.967  0.4237  0.1593  0.5153
  563SOL    HW1 7704   0.835   1.710   1.001  1.2001 -1.6427  0.7607
  563SOL    HW2 7705   0.753   1.664   0.867 -0.1761  1.6716  0.3642
  564SOL     OW 7706   5.318   2.454   5.983 -0.5973  0.4077  0.3503
  564SOL    HW1 7707   5.348   2.479   6.075 -0.3608  0.7818  0.1792
  564SOL    HW2 7708   5.370   2.374   5.951  0.3588  1.1372  0.0022
  565SOL     OW 7709   3.186   2.547   0.848  0.3553 -0.5075  0.5634
  565SOL    HW1 7710   3.188   2.463   0.795  0.6766 -0.0452 -0.1741
  565SOL    HW2 7711   3.268   2.553   0.905  1.2937  0.1821 -0.8014
  566SOL     OW 7712   0.974   5.050   6.336  0.0915  0.0366  0.0951
  566SOL    HW1 7713   0.885   5.057   6.290  1.1167 -0.2172 -2.0482
  566SOL    HW2 7714   1.044   5.096   6.281  1.4454 -0.5067  1.2894
  567SOL     OW 7715   3.343   3.736   2.272  0.2361  0.3015  0.1451
  567SOL    HW1 7716   3.246   3.711   2.274  0.2803 -1.0847 -4.0988
  567SOL    HW2 7717   3.354   3.824   2.226  1.0037  0.8327  1.2949
  568SOL     OW 7718   0.997   3.967   6.036 -0.4273  0.0969  0.1181
  568SOL    HW1 7719   0.957   3.880   6.065  1.0577 -0.6038  0.1579
  568SOL    HW2 7720   1.093   3.953   6.011  0.4319  2.0598  1.9805
  569SOL     OW 7721   1.283   0.844   1.099 -0.2095  0.0204  0.0276
  569SOL    HW1 7722   1.280   0.789   1.183  3.6296  0.5995  0.7488
  569SOL    HW2 7723   1.326   0.790   1.026 -0.5111  0.5905 -0.5812
  570SOL     OW 7724   0.732   0.273   6.481 -0.3931  0.3870  0.0930
  570SOL    HW1 7725   0.725   0.181   6.520 -1.7351  0.0796 -0.7972
  570SOL    HW2 7726   0.796   0.272   6.404  0.4468  0.4711  0.7696
  571SOL     OW 7727   6.168   5.201   0.451 -0.7631  0.3258  0.0317
  571SOL    HW1 7728   6.094   5.248   0.499 -0.6687  0.7698 -0.2537
  571SOL    HW2 7729   6.256   5.238   0.482 -0.7295  1.4373 -1.3033
  572SOL     OW 7730   6.217   0.193   6.011  0.1947  0.1331 -0.2253
  572SOL    HW1 7731   6.244   0.100   6.033  1.3107  0.7873  1.3479
  572SOL    HW2 7732   6.299   0.250   6.000 -0.4614  0.9324 -1.2359
  573SOL     OW 7733   6.040   4.973   6.352  0.2243  0.3674  0.4426
  573SOL    HW1 7734   5.959   5.011   6.395 -1.1315 -1.4361 -0.3913
  573SOL    HW2 7735   6.106   4.946   6.422 -0.8452 -0.1869  1.2541
  574SOL     OW 7736   0.401   2.020   5.498 -0.0706 -0.3695 -0.2490
  574SOL    HW1 7737   0.366   2.107   5.533  0.2716  0.1306 -1.1049
  574SOL    HW2 7738   0.375   2.010   5.402  1.5564 -0.2935 -0.7256
  575SOL     OW 7739   6.062   4.068   6.236  0.1843 -0.4624  0.6100
  575SOL    HW1 7740   6.059   4.069   6.336 -2.1676 -0.2147  0.6033
  575SOL    HW2 7741   6.023   4.153   6.201  1.8456 -0.1351 -0.5645
  576SOL     OW 7742   2.968   0.866   2.109 -0.5746  0.0686 -0.4733
  576SOL    HW1 7743   3.045   0.828   2.162  1.4589  3.1206 -0.9865
  576SOL    HW2 7744   2.998   0.882   2.015 -1.5356  2.0774 -0.4796
  577SOL     OW 7745   1.646   5.735   1.271 -0.0813 -0.2559 -0.1617
  577SOL    HW1 7746   1.599   5.656   1.311  1.0334 -0.6509  0.4348
  577SOL    HW2 7747   1.728   5.703   1.222  0.8750  0.5763  0.8349
  578SOL     OW 7748   5.429   5.507   5.514 -0.5874 -0.2123  0.1594
  578SOL    HW1 7749   5.362   5.537   5.446 -0.1926  2.4076  0.7789
  578SOL    HW2 7750   5.385   5.449   5.582 -1.6353 -0.5565 -0.7950
  579SOL     OW 7751   3.956   0.941   6.357  0.2021 -0.1805  0.1678
  579SOL    HW1 7752   3.920   0.881   6.429 -0.5128 -0.4284 -0.3753
  579SOL    HW2 7753   4.024   1.003   6.395  0.1146 -0.5707  0.9748
  580SOL     OW 7754   5.610   0.392   0.327  0.1161  0.2904  0.2487
  580SOL    HW1 7755   5.694   0.446   0.339 -0.1982  0.5244  1.5135
  580SOL    HW2 7756   5.532   0.445   0.358 -0.5639  0.1868 -1.2028
  581SOL     OW 7757   1.855   3.724   1.409 -0.0247 -0.5682 -0.0807
  581SOL    HW1 7758   1.772   3.749   1.460 -1.5223 -0.4431 -2.4366
  581SOL    HW2 7759   1.936   3.750   1.463 -1.4826  0.1989  1.8804
  582SOL     OW 7760   0.070   4.074   0.484  0.4013 -0.2154 -0.4613
  582SOL    HW1 7761   0.099   4.150   0.542  0.3532 -0.1360 -0.5414
  582SOL    HW2 7762   0.146   4.044   0.428 -0.3435  1.8067 -2.7116
  583SOL     OW 7763   4.197   3.217   6.021 -0.2213 -0.4672 -0.2051
  583SOL    HW1 7764   4.227   3.284   6.088 -1.4763 -0.1328  0.0458
  583SOL    HW2 7765   4.226   3.246   5.930  0.8384 -0.5449  0.0953
  584SOL     OW 7766   4.220   1.885   0.904  0.7812 -0.3443 -0.3631
  584SOL    HW1 7767   4.215   1.984   0.916 -3.4900 -0.4807  0.8182
  584SOL    HW2 7768   4.255   1.843   0.988 -1.6160  0.0947  0.9618
  585SOL     OW 7769   2.680   5.768   5.440  1.0909  0.6354 -0.0804
  585SOL    HW1 7770   2.637   5.784   5.351 -1.1935 -0.9491  0.6360
  585SOL    HW2 7771   2.779   5.757   5.428  1.2230  3.0634 -2.0130
  586SOL     OW 7772   1.713   3.127   4.803  0.5968 -0.1812 -0.1894
  586SOL    HW1 7773   1.755   3.039   4.822 -1.2900 -1.0894  0.0387
  586SOL    HW2 7774   1.707   3.140   4.704 -0.4684 -1.0328 -0.2552
  587SOL     OW 7775   3.315   4.549   5.647 -0.0002 -0.0342  0.1702
  587SOL    HW1 7776   3.218   4.525   5.657 -0.1745  1.0594  1.3914
  587SOL    HW2 7777   3.354   4.500   5.569 -1.3779 -0.9574  0.0366
  588SOL     OW 7778   5.178   0.471   6.515  0.5571 -0.0224 -0.2110
  588SOL    HW1 7779   5.192   0.402   6.585  2.0760  1.6838  1.2772
  588SOL    HW2 7780   5.262   0.481   6.461  1.1938  2.0760  1.0215
  589SOL     OW 7781   5.763   2.983   5.378  0.4692 -0.3162  0.6562
  589SOL    HW1 7782   5.844   2.926   5.367  0.2186 -0.4728 -0.5422
  589SOL    HW2 7783   5.790   3.080   5.381  0.7980 -0.4282  1.5790
  590SOL     OW 7784   2.825   1.931   1.385 -0.8105  0.6134 -0.5036
  590SOL    HW1 7785   2.875   1.870   1.323 -0.0239  0.8540 -0.1233
  590SOL    HW2 7786   2.890   1.978   1.445 -1.4567  1.3690 -0.3789
  591SOL     OW 7787   0.309   3.909   5.280  0.2198  0.1142  0.1600
  591SOL    HW1 7788   0.326   3.824   5.330  1.4141  0.0131 -0.4079
  591SOL    HW2 7789   0.283   3.888   5.186 -3.5089  0.2307  0.9998
  592SOL     OW 7790   5.011   2.039   0.736  0.1660  0.4408 -0.5600
  592SOL    HW1 7791   5.053   2.118   0.780  0.5345  0.7839 -1.5105
  592SOL    HW2 7792   4.984   1.973   0.806  3.1046 -0.2091  0.1066
  593SOL     OW 7793   1.608   0.434   6.348  0.9028 -0.0895 -0.1260
  593SOL    HW1 7794   1.622   0.335   6.355  0.5072 -0.3007 -1.9572
  593SOL    HW2 7795   1.548   0.454   6.271 -0.6797  1.4603  1.3928
  594SOL     OW 7796   1.832   2.690   5.102  0.2919 -0.3350 -0.0605
  594SOL    HW1 7797   1.793   2.770   5.056  1.0109  0.8550  1.3188
  594SOL    HW2 7798   1.904   2.650   5.045  0.5937  0.5856 -0.3352
  595SOL     OW 7799   0.330   3.182   0.251 -0.5684  0.1326 -0.5344
  595SOL    HW1 7800   0.364   3.238   0.175  0.1835 -2.0606 -1.8971
  595SOL    HW2 7801   0.400   3.118   0.279 -1.1781  0.2716  1.4398
  596SOL     OW 7802   2.122   3.573   1.940 -0.1007 -0.3727  0.5657
  596SOL    HW1 7803   2.149   3.656   1.890 -0.0965 -0.8543 -0.2541
  596SOL    HW2 7804   2.024   3.574   1.955 -0.2988 -0.8310 -0.6121
  597SOL     OW 7805   0.055   0.004   1.587  0.0242 -0.6141 -0.2823
  597SOL    HW1 7806   0.065   0.099   1.618 -0.3430 -1.1505  1.5520
  597SOL    HW2 7807   0.118  -0.054   1.637 -0.1851 -1.4498 -0.9695
  598SOL     OW 7808   3.531   3.980   0.991 -0.3003 -0.3982 -0.7364
  598SOL    HW1 7809   3.545   4.028   1.078  1.3433  0.6453 -1.5268
  598SOL    HW2 7810   3.591   3.900   0.988 -1.4908 -1.3326 -0.3004
  599SOL     OW 7811   3.020   2.099   0.903  0.5426  0.3187  0.1719
  599SOL    HW1 7812   3.072   2.063   0.826 -1.3651  2.1360 -2.1191
  599SOL    HW2 7813   3.079   2.159   0.958  1.1856  1.6137 -1.8183
  600SOL     OW 7814   3.690   2.991   0.598 -0.0290  0.1236  0.2428
  600SOL    HW1 7815   3.654   2.962   0.509 -2.3892  2.0590  0.4454
  600SOL    HW2 7816   3.737   2.914   0.642  2.2869 -0.5917 -3.0915
  601SOL     OW 7817   1.213   0.250   5.458  0.1034  0.7916 -0.8594
  601SOL    HW1 7818   1.240   0.346   5.450 -0.7975  1.1940  0.5697
  601SOL    HW2 7819   1.251   0.198   5.381  3.2534  1.6741 -0.0513
  602SOL     OW 7820   0.318   0.205   0.775 -0.4935 -0.6178 -0.3937
  602SOL    HW1 7821   0.360   0.273   0.714 -0.0628 -0.5127  0.0147
  602SOL    HW2 7822   0.379   0.188   0.852 -0.7252 -1.2684 -0.3508
  603SOL     OW 7823   3.761   1.943   5.596  0.5309 -0.5306 -0.2902
  603SOL    HW1 7824   3.792   1.890   5.517 -0.8490 -0.3233 -0.9910
  603SOL    HW2 7825   3.688   1.894   5.643 -0.1940  0.3569 -0.4649
  604SOL     OW 7826   5.459   3.134   5.583 -0.5447 -0.0229  0.3978
  604SOL    HW1 7827   5.513   3.193   5.522 -1.4367 -0.8495 -1.2629
  604SOL    HW2 7828   5.484   3.038   5.567 -1.5226 -0.3198  0.6147
  605SOL     OW 7829   0.022   1.815   1.198  0.2348 -0.8470  0.0055
  605SOL    HW1 7830   0.014   1.834   1.296  1.6172 -2.1602  0.4038
  605SOL    HW2 7831  -0.066   1.831   1.154 -0.1658  0.7362  1.2694
  606SOL     OW 7832   5.176   2.175   5.992 -0.0535  0.7685 -0.3358
  606SOL    HW1 7833   5.250   2.193   5.927  0.1653 -0.3898 -0.4279
  606SOL    HW2 7834   5.215   2.147   6.080 -0.3468 -0.9691 -0.7133
  607SOL     OW 7835   5.189   5.023   6.162 -0.2381 -0.0680  0.1947
  607SOL    HW1 7836   5.250   5.084   6.214 -0.1071  0.9098 -1.0575
  607SOL    HW2 7837   5.167   4.943   6.218  0.3761  0.6473  1.5206
  608SOL     OW 7838   1.086   2.453   5.917 -0.2819 -0.8341 -0.3752
  608SOL    HW1 7839   1.007   2.505   5.950 -1.0619 -2.3360  0.2401
  608SOL    HW2 7840   1.160   2.516   5.895 -1.1944  0.5299  0.2574
  609SOL     OW 7841   0.016   0.296   5.167 -0.1035  0.5477 -0.1155
  609SOL    HW1 7842   0.067   0.322   5.249  0.1492 -2.4695  0.8003
  609SOL    HW2 7843  -0.081   0.290   5.189 -0.1778  0.8411 -0.3605
  610SOL     OW 7844   1.751   5.687   5.482 -0.5312 -0.0540 -0.2087
  610SOL    HW1 7845   1.776   5.770   5.431  1.0994 -1.1622 -1.3261
  610SOL    HW2 7846   1.747   5.708   5.580  1.4387  1.0423 -0.3093
  611SOL     OW 7847   2.787   5.998   0.976 -0.4552  0.0009  0.6786
  611SOL    HW1 7848   2.868   6.046   1.011 -0.4335  0.8870 -0.5175
  611SOL    HW2 7849   2.719   6.065   0.948 -1.1508 -0.7230  0.6248
  612SOL     OW 7850   1.077   4.755   0.805  0.0849 -0.4073  0.4368
  612SOL    HW1 7851   1.078   4.853   0.822  0.7339 -0.4171  0.5028
  612SOL    HW2 7852   1.071   4.706   0.892  2.4317 -0.4449  0.6408
  613SOL     OW 7853   3.657   3.605   0.726 -0.5327 -0.0917 -0.1018
  613SOL    HW1 7854   3.726   3.534   0.711  1.1111  1.4410 -0.2531
  613SOL    HW2 7855   3.584   3.596   0.659 -0.5148 -1.8034  0.0779
  614SOL     OW 7856   2.450   4.089   6.511  0.5713 -0.2893 -0.3474
  614SOL    HW1 7857   2.429   4.145   6.431 -1.8783 -0.9267 -0.2268
  614SOL    HW2 7858   2.470   4.149   6.589 -0.1523  0.4045 -0.6814
  615SOL     OW 7859   0.711   2.321   6.212  0.5388 -0.2268  0.0520
  615SOL    HW1 7860   0.750   2.407   6.245 -0.7584  0.7634 -0.9035
  615SOL    HW2 7861   0.670   2.334   6.122  0.3081 -1.8509 -0.1227
  616SOL     OW 7862   4.484   6.215   0.759  0.1797 -0.4103  0.1681
  616SOL    HW1 7863   4.556   6.150   0.734  1.2065 -0.5712  3.1393
  616SOL    HW2 7864   4.525   6.306   0.771 -0.1437 -0.4289  1.5579
  617SOL     OW 7865   4.121   4.524   1.526 -0.6969 -0.1426  0.0830
  617SOL    HW1 7866   4.195   4.489   1.583 -1.1533  0.3322  0.9884
  617SOL    HW2 7867   4.138   4.499   1.430  0.9122  0.4552  0.1852
  618SOL     OW 7868   5.399   0.718   4.810  0.7779  0.6441 -0.3285
  618SOL    HW1 7869   5.380   0.808   4.850  1.0375 -0.1428  1.6541
  618SOL    HW2 7870   5.497   0.709   4.793  0.8864  0.3745  0.4186
  619SOL     OW 7871   3.375   3.671   6.012 -0.0442  0.0769 -0.4275
  619SOL    HW1 7872   3.412   3.685   6.104  0.8817  1.7106 -1.0147
  619SOL    HW2 7873   3.318   3.589   6.012  1.0777 -0.7728  1.2570
  620SOL     OW 7874   3.830   1.454   0.478  0.3326  0.1902  0.6552
  620SOL    HW1 7875   3.907   1.508   0.512 -1.0410  2.1293  0.7750
  620SOL    HW2 7876   3.798   1.493   0.392 -1.5533  0.4176  1.4305
  621SOL     OW 7877   3.678   0.406   0.342  0.6526 -0.0971  0.2704
  621SOL    HW1 7878   3.647   0.495   0.374  1.2707 -0.1103  0.9189
  621SOL    HW2 7879   3.656   0.336   0.410 -0.2968 -0.5369 -0.4610
  622SOL     OW 7880   2.468   4.139   0.285 -0.2357  0.2212  0.6002
  622SOL    HW1 7881   2.454   4.189   0.370 -3.3947  0.4549  0.0564
  622SOL    HW2 7882   2.502   4.201   0.214 -2.9169  1.4681  0.2702
  623SOL     OW 7883   3.306   4.650   1.575 -0.2659 -1.0765  0.7409
  623SOL    HW1 7884   3.277   4.595   1.497  0.7608  0.1775 -0.5778
  623SOL    HW2 7885   3.405   4.665   1.570 -0.4798  0.6436  1.2096
  624SOL     OW 7886   3.669   6.380   1.118 -0.1988 -0.1140 -0.2280
  624SOL    HW1 7887   3.760   6.418   1.104  1.9106 -3.7873  1.9461
  624SOL    HW2 7888   3.649   6.376   1.216 -3.4786  2.0018 -0.6782
  625SOL     OW 7889   3.641   2.056   5.294 -0.5870  0.5982 -0.0738
  625SOL    HW1 7890   3.627   2.139   5.347  1.9222 -0.5832  2.7546
  625SOL    HW2 7891   3.733   2.055   5.256 -0.3331 -1.0819  0.4779
  626SOL     OW 7892   1.636   4.020   0.131  0.3664 -0.5633 -0.1024
  626SOL    HW1 7893   1.691   4.015   0.214  0.4049 -0.8886 -0.1468
  626SOL    HW2 7894   1.559   4.082   0.145  2.2271  2.1213 -0.8803
  627SOL     OW 7895   6.190   0.757   6.221  0.3955 -0.0870  0.0860
  627SOL    HW1 7896   6.282   0.734   6.190  1.3693  1.1766  1.8561
  627SOL    HW2 7897   6.195   0.817   6.300 -1.9753 -0.1959  0.4114
  628SOL     OW 7898   5.936   3.600   0.032 -0.1881  0.3696 -0.0669
  628SOL    HW1 7899   6.019   3.551   0.059  0.4128  0.5614 -1.4998
  628SOL    HW2 7900   5.913   3.577  -0.062 -0.5571  1.9531 -0.3899
  629SOL     OW 7901   4.087   3.793   0.503  0.0981  0.2723 -0.0286
  629SOL    HW1 7902   4.058   3.830   0.415  1.5842  0.7759 -0.3366
  629SOL    HW2 7903   4.050   3.850   0.577 -0.9599 -0.0193 -0.3036
  630SOL     OW 7904   5.829   1.859   5.038  0.7120 -0.1259  0.5289
  630SOL    HW1 7905   5.792   1.928   4.976 -0.6135  1.0171  2.4733
  630SOL    HW2 7906   5.921   1.886   5.066  0.8289  0.0042  0.0279
  631SOL     OW 7907   0.559   5.569   6.035  0.2894 -0.0697  0.6076
  631SOL    HW1 7908   0.641   5.529   5.993 -0.1793  0.2443 -0.6398
  631SOL    HW2 7909   0.505   5.615   5.965 -1.1876 -0.6378  1.3483
  632SOL     OW 7910   2.848   0.028   0.617  0.5384 -0.3680  0.5705
  632SOL    HW1 7911   2.801   0.112   0.587  1.7360 -0.2325 -1.1021
  632SOL    HW2 7912   2.798  -0.051   0.584  0.9502 -0.2378 -0.4091
  633SOL     OW 7913   4.799   1.781   1.410 -0.0281 -0.4261 -0.2637
  633SOL    HW1 7914   4.848   1.838   1.475  0.7960 -0.3562 -0.9214
  633SOL    HW2 7915   4.708   1.760   1.445 -0.4355  1.4488 -0.0788
  634SOL     OW 7916   5.492   1.757   0.225 -0.2402  0.7631 -0.0179
  634SOL    HW1 7917   5.562   1.694   0.260 -1.6765 -1.2728 -0.6601
  634SOL    HW2 7918   5.411   1.752   0.283 -0.1950  2.5154  0.2530
  635SOL     OW 7919   2.912   1.104   0.744 -0.0923  0.0454 -0.6019
  635SOL    HW1 7920   2.840   1.157   0.698 -0.2589  0.3244 -0.0228
  635SOL    HW2 7921   2.947   1.156   0.822  1.9978  0.7199 -1.9005
  636SOL     OW 7922   3.675   2.100   0.728  0.5274 -0.3916  0.0108
  636SOL    HW1 7923   3.677   2.039   0.649  0.1358 -0.9120  0.3958
  636SOL    HW2 7924   3.580   2.116   0.755  0.4712  1.9419 -1.2623
  637SOL     OW 7925   4.214   0.393   6.048 -0.1296  0.6516  0.0247
  637SOL    HW1 7926   4.178   0.405   5.956  1.5185  0.9073 -0.6212
  637SOL    HW2 7927   4.175   0.462   6.109 -0.7476  0.8785 -0.6183
  638SOL     OW 7928   1.324   0.280   0.393  0.4546 -0.4260 -0.4134
  638SOL    HW1 7929   1.386   0.218   0.441  1.8258  0.9734 -0.3105
  638SOL    HW2 7930   1.330   0.264   0.294  1.1642 -0.1378 -0.4191
  639SOL     OW 7931   0.840   5.877   0.209 -0.3283  0.0195 -0.3651
  639SOL    HW1 7932   0.891   5.928   0.279 -1.0972  0.4755 -0.1247
  639SOL    HW2 7933   0.782   5.941   0.158  1.6916  0.0679 -2.7966
  640SOL     OW 7934   4.767   3.769   6.357 -0.5302  0.6951 -0.4063
  640SOL    HW1 7935   4.678   3.794   6.319 -0.4266 -0.8355 -1.8108
  640SOL    HW2 7936   4.832   3.752   6.282  0.1132 -1.0290  0.4678
  641SOL     OW 7937   1.968   3.046   6.188  0.3485 -0.0905 -0.2167
  641SOL    HW1 7938   1.996   3.056   6.284  0.5954 -0.5228 -0.2452
  641SOL    HW2 7939   2.046   3.064   6.129  1.2313 -3.4590 -0.2587
  642SOL     OW 7940   1.909   2.807   6.489 -0.3844  0.1788 -0.1691
  642SOL    HW1 7941   1.923   2.894   6.537 -2.9329  0.5126  0.0821
  642SOL    HW2 7942   1.997   2.759   6.480  1.0299  2.6040 -0.0356
  643SOL     OW 7943   1.656   3.828   0.953 -0.1891 -0.2802  0.0142
  643SOL    HW1 7944   1.684   3.901   1.016  0.0038 -0.8493  0.6002
  643SOL    HW2 7945   1.575   3.782   0.990 -0.3204 -0.3559 -0.3653
  644SOL     OW 7946   3.367   2.319   6.203 -0.1022 -0.4169  0.0314
  644SOL    HW1 7947   3.428   2.240   6.200  0.6273  0.1417 -0.2933
  644SOL    HW2 7948   3.272   2.289   6.208  0.2364 -1.3262  2.0444
  645SOL     OW 7949   1.513   0.960   0.455  0.1502  1.2638  0.6001
  645SOL    HW1 7950   1.532   0.877   0.507  3.4109  1.5585  0.0840
  645SOL    HW2 7951   1.555   1.038   0.501  0.5551  1.9847 -0.9562
  646SOL     OW 7952   3.887   0.703   0.442  0.3244  0.0822  0.5733
  646SOL    HW1 7953   3.937   0.622   0.471 -1.4631 -0.6458  1.8182
  646SOL    HW2 7954   3.811   0.719   0.505 -0.5160  1.5993 -0.7645
  647SOL     OW 7955   6.148   5.860   5.823  0.7463 -0.2585 -0.6212
  647SOL    HW1 7956   6.118   5.769   5.795 -2.2184  0.2344  0.5018
  647SOL    HW2 7957   6.171   5.914   5.742  2.2455 -1.8579 -1.3174
  648SOL     OW 7958   3.031   5.914   5.974  0.6003  0.0577 -0.4350
  648SOL    HW1 7959   2.931   5.918   5.974  0.4954  0.2464  2.7282
  648SOL    HW2 7960   3.068   6.003   5.947 -0.2114  0.9940  1.3689
  649SOL     OW 7961   1.657   4.588   0.527 -0.0996  0.1207  0.1208
  649SOL    HW1 7962   1.750   4.564   0.499  0.2308  0.8349  0.5664
  649SOL    HW2 7963   1.635   4.680   0.495  0.1071  0.7659  1.6987
  650SOL     OW 7964   6.280   6.246   0.913 -0.2634  0.1860  0.5628
  650SOL    HW1 7965   6.368   6.255   0.958  0.1121 -1.3386  0.1849
  650SOL    HW2 7966   6.291   6.199   0.826 -1.2320  1.4485 -0.2865
  651SOL     OW 7967   4.023   5.920   5.121  0.1458 -0.3583 -0.5628
  651SOL    HW1 7968   3.984   5.827   5.117 -0.2767 -0.1509 -1.4893
  651SOL    HW2 7969   4.026   5.958   5.029 -1.4800  1.2750  0.0012
  652SOL     OW 7970   5.451   4.881   1.207  0.3137 -0.2285  0.2347
  652SOL    HW1 7971   5.468   4.782   1.198  0.9503 -0.2972  1.8229
  652SOL    HW2 7972   5.362   4.896   1.251 -0.0292 -0.0680 -0.4989
  653SOL     OW 7973   1.315   2.150   0.200 -0.7199 -0.1285 -0.0387
  653SOL    HW1 7974   1.401   2.124   0.243 -0.2250 -0.5175 -1.2303
  653SOL    HW2 7975   1.317   2.125   0.103 -1.5908  1.1979 -0.4268
  654SOL     OW 7976   4.392   2.637   1.187 -0.1010 -0.1021 -0.3710
  654SOL    HW1 7977   4.312   2.602   1.236 -1.3278  1.3135 -1.2863
  654SOL    HW2 7978   4.473   2.627   1.245 -1.1767 -0.2009  1.1922
  655SOL     OW 7979   5.246   0.086   5.795 -0.0362  0.3104  0.1519
  655SOL    HW1 7980   5.235   0.115   5.890  1.2167  0.3718  0.3065
  655SOL    HW2 7981   5.161   0.046   5.761  0.3978 -3.0002  2.4625
  656SOL     OW 7982   2.759   2.964   5.203  0.3218  0.6362  0.5110
  656SOL    HW1 7983   2.675   3.006   5.168  0.7906  2.4713  1.4466
  656SOL    HW2 7984   2.835   3.027   5.189  1.7262 -1.2267 -0.8746
  657SOL     OW 7985   0.993   1.527   1.124 -0.4402  0.0302 -0.6091
  657SOL    HW1 7986   1.018   1.477   1.042  1.4213  0.8950 -0.6114
  657SOL    HW2 7987   0.940   1.467   1.185  0.8005 -1.5873 -1.0742
  658SOL     OW 7988   1.049   3.479   0.072 -0.2278  0.1185  0.0327
  658SOL    HW1 7989   1.131   3.518   0.031 -0.5556 -0.3878 -1.1510
  658SOL    HW2 7990   0.976   3.475   0.004 -0.5180 -1.5874  0.3813
  659SOL     OW 7991   3.434   2.970   4.739  0.1636 -0.1914  0.4181
  659SOL    HW1 7992   3.522   2.950   4.782 -0.5200  0.4491  2.2169
  659SOL    HW2 7993   3.390   2.885   4.711  0.1325 -0.7480  2.0815
  660SOL     OW 7994   1.764   2.104   0.789 -0.2288  0.2481 -0.2103
  660SOL    HW1 7995   1.734   2.181   0.733  0.5297  1.1691  0.5950
  660SOL    HW2 7996   1.764   2.131   0.886 -0.7502 -1.0436  0.1665
  661SOL     OW 7997   5.541   4.021   6.487 -0.4047 -0.0189 -0.2238
  661SOL    HW1 7998   5.640   4.010   6.483 -0.5106 -0.7831 -1.8302
  661SOL    HW2 7999   5.518   4.101   6.542  1.0384 -0.4368  1.0555
  662SOL     OW 8000   2.159   5.924   1.389  0.3380  0.2939 -0.1397
  662SOL    HW1 8001   2.130   5.829   1.392  1.5512 -0.1731 -1.8124
  662SOL    HW2 8002   2.197   5.950   1.478  0.4540 -0.9225  0.1842
  663SOL     OW 8003   5.158   6.114   0.596 -0.1869 -0.4873 -0.5875
  663SOL    HW1 8004   5.116   6.162   0.673 -1.7093 -2.8326  0.1453
  663SOL    HW2 8005   5.254   6.095   0.617  0.1612  1.2336 -0.4726
  664SOL     OW 8006   2.994   2.443   5.422 -0.1026 -0.7063  0.0433
  664SOL    HW1 8007   2.961   2.492   5.342 -0.1283 -0.1450  0.3971
  664SOL    HW2 8008   2.931   2.369   5.445 -0.0708 -0.8976 -0.4812
  665SOL     OW 8009   4.834   4.391   0.175  0.1111 -0.4597 -0.1157
  665SOL    HW1 8010   4.907   4.345   0.125  1.1811  0.5825  0.4543
  665SOL    HW2 8011   4.866   4.480   0.208 -0.4709 -1.1654  2.6142
  666SOL     OW 8012   5.812   0.654   0.108 -0.0388  0.2223 -0.4749
  666SOL    HW1 8013   5.767   0.743   0.122 -1.9092 -0.6051 -0.9194
  666SOL    HW2 8014   5.852   0.623   0.194 -1.7881  0.2415  0.3815
  667SOL     OW 8015   4.252   3.538   5.470 -0.3432 -0.2168  0.4507
  667SOL    HW1 8016   4.341   3.517   5.510  0.0365 -0.5896 -0.5562
  667SOL    HW2 8017   4.265   3.572   5.376 -1.1961  0.7615  0.6701
  668SOL     OW 8018   3.759   3.848   5.317 -0.3094 -0.0688  0.5557
  668SOL    HW1 8019   3.805   3.901   5.246  0.1866  1.2803  1.8256
  668SOL    HW2 8020   3.767   3.751   5.297 -0.4053  0.2803 -1.3457
  669SOL     OW 8021   4.793   1.170   5.576  1.1570  0.3109  0.2789
  669SOL    HW1 8022   4.851   1.095   5.541  1.7502  0.6787  0.4573
  669SOL    HW2 8023   4.750   1.217   5.499  0.0034 -0.8014  0.1944
  670SOL     OW 8024   6.418   3.784   6.527  0.7203 -0.4472 -0.0076
  670SOL    HW1 8025   6.351   3.743   6.465 -0.1337  1.9391 -0.7816
  670SOL    HW2 8026   6.507   3.785   6.483  0.3134  0.3754 -0.8455
  671SOL     OW 8027   2.394   5.809   6.099  0.4448 -0.4107  0.6893
  671SOL    HW1 8028   2.309   5.833   6.052  2.7990 -0.4442 -4.1220
  671SOL    HW2 8029   2.390   5.714   6.130 -1.5258 -0.1357  1.3847
  672SOL     OW 8030   2.044   5.787   0.981 -0.7392 -0.4788  0.0949
  672SOL    HW1 8031   2.058   5.864   1.043 -1.1776 -1.0489  0.9241
  672SOL    HW2 8032   1.987   5.718   1.026  0.9903 -2.0347  0.0114
  673SOL     OW 8033   4.817   4.128   5.887 -0.5458  0.3832 -0.5983
  673SOL    HW1 8034   4.747   4.057   5.886  0.5772 -0.7802 -1.5196
  673SOL    HW2 8035   4.884   4.109   5.814  1.4910  0.6477  1.1111
  674SOL     OW 8036   0.318   2.430   0.007 -0.1555  0.0851 -0.3453
  674SOL    HW1 8037   0.262   2.381  -0.060 -1.5809  0.5623  0.4375
  674SOL    HW2 8038   0.272   2.516   0.031  0.8156  0.3760  0.5157
  675SOL     OW 8039   2.221   2.793   5.911  0.0810 -0.5227  0.6116
  675SOL    HW1 8040   2.239   2.720   5.845 -1.6794 -2.1766  1.8695
  675SOL    HW2 8041   2.179   2.870   5.864 -0.8480 -1.5353 -0.2659
  676SOL     OW 8042   0.780   1.332   1.068 -0.1243  0.3214 -0.2259
  676SOL    HW1 8043   0.840   1.280   1.008  0.9967  1.1215  0.1822
  676SOL    HW2 8044   0.774   1.426   1.035  0.0889  0.6354  0.6214
  677SOL     OW 8045   0.034   1.902   0.008  0.6579 -0.0101  0.2694
  677SOL    HW1 8046  -0.049   1.937  -0.037  0.4313 -1.1075 -0.2097
  677SOL    HW2 8047   0.073   1.973   0.066 -0.3200  0.7047  0.0825
  678SOL     OW 8048   6.142   5.408   1.309  0.8100 -0.1263  0.3358
  678SOL    HW1 8049   6.094   5.338   1.257  0.4898  1.0996 -1.0798
  678SOL    HW2 8050   6.207   5.364   1.372  0.0574 -1.6951  0.0606
  679SOL     OW 8051   4.938   1.617   5.598 -0.0885  0.7885 -0.1803
  679SOL    HW1 8052   4.974   1.668   5.520  0.6336  0.6848  0.0841
  679SOL    HW2 8053   5.007   1.554   5.632 -1.0181 -0.5354 -0.6250
  680SOL     OW 8054   3.306   1.303   4.858 -0.7278  0.1909 -0.0134
  680SOL    HW1 8055   3.332   1.307   4.761  1.3255 -1.1170  0.4027
  680SOL    HW2 8056   3.287   1.395   4.892  0.9263  0.9734 -1.0982
  681SOL     OW 8057   0.036   3.670   0.863 -0.2048 -0.3139  0.3570
  681SOL    HW1 8058   0.049   3.753   0.808 -0.3142 -1.9244 -2.2967
  681SOL    HW2 8059   0.119   3.614   0.857 -0.8423 -1.2847  0.4564
  682SOL     OW 8060   3.844   1.802   6.298  0.0654 -0.3733  0.0713
  682SOL    HW1 8061   3.867   1.792   6.395 -1.3580 -0.5711  0.4142
  682SOL    HW2 8062   3.852   1.714   6.253  2.2560  0.0074 -0.3803
  683SOL     OW 8063   2.348   5.437   6.541  0.5514 -0.0509 -0.0207
  683SOL    HW1 8064   2.404   5.364   6.503  0.4911 -0.4077  0.5686
  683SOL    HW2 8065   2.400   5.522   6.543  0.7551 -0.1674 -0.3314
  684SOL     OW 8066   4.864   2.074   4.642 -0.1980  0.0206 -0.0556
  684SOL    HW1 8067   4.794   2.142   4.665 -1.0045 -0.5574 -0.7392
  684SOL    HW2 8068   4.954   2.112   4.662 -0.6963  0.7073  1.0479
  685SOL     OW 8069   3.967   0.328   5.043  0.1920 -0.2778 -0.2223
  685SOL    HW1 8070   3.925   0.418   5.049 -0.2511 -0.5595  1.0689
  685SOL    HW2 8071   3.981   0.304   4.947 -2.1508  0.0247 -0.6794
  686SOL     OW 8072   1.234   0.195   1.995  0.1151 -0.1692 -0.3607
  686SOL    HW1 8073   1.254   0.290   2.018 -1.0127  0.0100 -0.0530
  686SOL    HW2 8074   1.138   0.176   2.015 -0.0374 -0.9767 -1.7272
  687SOL     OW 8075   4.108   6.173   6.203  0.0495  0.1034 -0.1573
  687SOL    HW1 8076   4.152   6.155   6.291 -0.2104 -0.4825 -0.1411
  687SOL    HW2 8077   4.024   6.225   6.217 -1.2060 -1.9087  0.1904
  688SOL     OW 8078   0.154   5.571   6.110  0.3538 -0.8882 -0.0002
  688SOL    HW1 8079   0.073   5.616   6.073  0.9422 -0.4514 -0.7939
  688SOL    HW2 8080   0.149   5.569   6.209 -0.5502 -0.7187 -0.0383
  689SOL     OW 8081   4.875   3.616   0.952 -0.2995 -0.4869 -0.5946
  689SOL    HW1 8082   4.785   3.658   0.938 -0.1196 -0.5277 -1.9892
  689SOL    HW2 8083   4.946   3.679   0.920  0.1896 -0.4258  0.5584
  690SOL     OW 8084   3.515   2.112   0.435 -0.3763  0.3422 -0.0471
  690SOL    HW1 8085   3.589   2.045   0.443 -2.3436 -1.7361  2.5809
  690SOL    HW2 8086   3.506   2.140   0.339  2.6380 -0.5987 -0.7162
  691SOL     OW 8087   0.808   2.294   0.381 -0.1796  0.8519  0.1332
  691SOL    HW1 8088   0.755   2.216   0.347 -0.0160  1.2230 -1.0428
  691SOL    HW2 8089   0.898   2.263   0.411 -0.6713  0.3708  1.1662
  692SOL     OW 8090   0.383   2.580   0.360 -0.0973 -0.2218  0.2554
  692SOL    HW1 8091   0.410   2.503   0.302  1.5290  0.0385  0.6184
  692SOL    HW2 8092   0.405   2.560   0.455  2.0742  1.3497  0.1580
  693SOL     OW 8093   1.883   0.034   5.510  0.4735  0.1914  0.6397
  693SOL    HW1 8094   1.867   0.003   5.604  1.4298  0.8546  1.0366
  693SOL    HW2 8095   1.828  -0.021   5.447 -2.1263  1.3239  1.7637
  694SOL     OW 8096   0.697   2.839   6.242  0.1660 -0.1203  0.3816
  694SOL    HW1 8097   0.768   2.910   6.243  0.0209  0.0337  1.3621
  694SOL    HW2 8098   0.628   2.860   6.312 -0.7341 -0.3833 -0.4140
  695SOL     OW 8099   0.166   3.569   0.558  0.2545  0.5477  0.1133
  695SOL    HW1 8100   0.242   3.566   0.623 -1.3650 -1.2615  2.0860
  695SOL    HW2 8101   0.190   3.517   0.476  1.6514  1.2372  0.0602
  696SOL     OW 8102   5.371   5.008   5.928  0.2846 -0.2918 -0.4845
  696SOL    HW1 8103   5.320   5.032   6.010  0.5073 -0.2611 -0.3540
  696SOL    HW2 8104   5.383   5.090   5.871 -1.6498 -0.6923 -1.5556
  697SOL     OW 8105   4.372   5.870   5.275  0.6197 -0.2322 -0.4568
  697SOL    HW1 8106   4.282   5.829   5.263  0.7521 -0.5075 -0.5100
  697SOL    HW2 8107   4.368   5.966   5.246 -0.3800  0.6108  2.1996
  698SOL     OW 8108   2.357   2.619   5.722  0.3777  0.9535  0.0016
  698SOL    HW1 8109   2.434   2.558   5.703 -0.6620 -0.6667  0.8055
  698SOL    HW2 8110   2.280   2.594   5.664 -0.2560  1.1332  0.7585
  699SOL     OW 8111   1.389   1.052   1.259  0.6507  0.0132 -0.2261
  699SOL    HW1 8112   1.326   1.126   1.234  1.1460  0.3649 -0.4476
  699SOL    HW2 8113   1.370   0.972   1.203 -0.5375 -0.3705  0.6817
  700SOL     OW 8114   0.299   0.414   6.137 -0.1433  0.3612 -0.5351
  700SOL    HW1 8115   0.383   0.467   6.150 -0.1311 -0.0015  1.0696
  700SOL    HW2 8116   0.252   0.405   6.224 -0.4485 -1.7483 -0.8735
  701SOL     OW 8117   2.006   3.166   5.151 -0.4378  0.2051  0.1140
  701SOL    HW1 8118   2.063   3.248   5.162  1.2979 -1.2291  2.8115
  701SOL    HW2 8119   2.009   3.111   5.235 -2.7695 -1.9041 -1.0456
  702SOL     OW 8120   2.464   2.400   0.036  0.3902  0.2944  0.1127
  702SOL    HW1 8121   2.518   2.370   0.115 -0.2684 -0.3345  0.3275
  702SOL    HW2 8122   2.521   2.460  -0.021  1.7018 -1.2106 -0.2453
  703SOL     OW 8123   4.324   4.099   1.889 -0.3737 -0.5580  0.2179
  703SOL    HW1 8124   4.382   4.138   1.817 -0.6306 -2.6789 -1.2144
  703SOL    HW2 8125   4.281   4.015   1.855 -1.6630 -0.8314  2.3868
  704SOL     OW 8126   4.912   0.181   5.316  0.5592  0.8461  0.6161
  704SOL    HW1 8127   4.816   0.199   5.338  0.0946 -1.4567  0.6748
  704SOL    HW2 8128   4.935   0.226   5.229 -0.6366  1.2176  0.4680
  705SOL     OW 8129   2.383   6.069   5.631 -0.0852 -0.2716 -0.2301
  705SOL    HW1 8130   2.335   6.104   5.712 -0.9882 -1.5188 -0.2087
  705SOL    HW2 8131   2.335   5.989   5.595  0.2952  0.2623 -2.0280
  706SOL     OW 8132   4.397   3.313   4.705  0.0077  0.1037 -0.2855
  706SOL    HW1 8133   4.327   3.263   4.653  0.0214 -0.8147  0.5499
  706SOL    HW2 8134   4.485   3.303   4.661  0.0122 -0.6438 -0.1279
  707SOL     OW 8135   3.400   2.182   0.846  0.4438  0.5943  0.5960
  707SOL    HW1 8136   3.325   2.216   0.902 -1.4234 -1.9127 -0.2071
  707SOL    HW2 8137   3.481   2.238   0.862 -1.6564  3.7699  1.1366
  708SOL     OW 8138   1.031   0.599   1.023 -0.4410 -0.0496 -0.2471
  708SOL    HW1 8139   1.014   0.629   0.930 -1.3251  0.0169 -0.0685
  708SOL    HW2 8140   1.113   0.541   1.025 -1.3644 -1.4744 -1.3664
  709SOL     OW 8141   5.742   3.699   0.204 -0.2544 -0.2107 -0.0961
  709SOL    HW1 8142   5.806   3.662   0.136  0.7891  0.1801  0.6595
  709SOL    HW2 8143   5.793   3.746   0.276 -1.4690  1.2903 -0.1773
  710SOL     OW 8144   0.329   4.177   5.339  0.4443 -0.0967  0.6676
  710SOL    HW1 8145   0.428   4.184   5.356  0.5995 -1.4476  0.4402
  710SOL    HW2 8146   0.306   4.082   5.317 -0.4184  0.6984 -2.3591
  711SOL     OW 8147   0.625   3.848   6.466  0.2611  0.3177 -0.0108
  711SOL    HW1 8148   0.709   3.849   6.411 -1.6776  1.6964 -3.2510
  711SOL    HW2 8149   0.590   3.755   6.472  1.3302 -0.0782  0.2770
  712SOL     OW 8150   3.861   3.372   0.736  0.1425  0.2613  0.1393
  712SOL    HW1 8151   3.836   3.332   0.648 -0.4623 -0.0958  0.4630
  712SOL    HW2 8152   3.931   3.442   0.722 -0.3618  0.6188 -0.6943
  713SOL     OW 8153   3.769   0.827   4.990  0.1396  0.5877 -0.1941
  713SOL    HW1 8154   3.718   0.742   4.977  1.3325 -0.5544  1.9618
  713SOL    HW2 8155   3.863   0.806   5.018  0.6751  2.6285 -0.2837
  714SOL     OW 8156   1.009   1.134   5.970  0.7740 -0.1159  0.0852
  714SOL    HW1 8157   1.050   1.225   5.970  0.6943 -0.0793 -0.0522
  714SOL    HW2 8158   1.073   1.068   6.009  0.0194  0.3612  2.2866
  715SOL     OW 8159   4.688   0.556   5.427  0.2910 -0.4801  0.8691
  715SOL    HW1 8160   4.592   0.548   5.401 -0.3457  0.9610  2.5740
  715SOL    HW2 8161   4.738   0.609   5.358 -0.4797  0.0014  0.6716
  716SOL     OW 8162   2.526   5.246   5.766  0.1581  0.4337 -0.3083
  716SOL    HW1 8163   2.610   5.285   5.805  0.4381  0.0538 -0.5217
  716SOL    HW2 8164   2.541   5.149   5.745 -0.3548  0.3476 -0.2922
  717SOL     OW 8165   2.304   5.925   1.631  0.1065 -0.0807  1.6957
  717SOL    HW1 8166   2.247   5.860   1.681  1.0125 -1.2858  1.2165
  717SOL    HW2 8167   2.347   5.989   1.695 -0.7617  0.0380  2.1778
  718SOL     OW 8168   4.099   3.550   0.213  0.0007  0.2463 -0.1104
  718SOL    HW1 8169   4.185   3.499   0.214 -0.6318 -0.9672 -2.2690
  718SOL    HW2 8170   4.023   3.488   0.232 -0.6772  0.5719 -1.6356
  719SOL     OW 8171   5.420   5.195   6.225 -0.6501  0.7260 -0.4051
  719SOL    HW1 8172   5.393   5.252   6.302 -0.1705 -0.0938  0.3888
  719SOL    HW2 8173   5.455   5.253   6.151 -1.5720  1.5529 -0.2090
  720SOL     OW 8174   0.064   4.875   6.158 -0.1545  0.5130  0.3210
  720SOL    HW1 8175   0.109   4.912   6.239  0.7360  0.4190 -0.1156
  720SOL    HW2 8176   0.115   4.902   6.077 -0.9169  0.4246 -0.1970
  721SOL     OW 8177   0.592   1.856   0.537  0.3761 -0.3761  0.2332
  721SOL    HW1 8178   0.560   1.800   0.460  0.4703  1.0807 -0.9091
  721SOL    HW2 8179   0.669   1.811   0.582  1.8531 -0.2058 -1.9888
  722SOL     OW 8180   3.981   3.484   5.006  0.4697 -0.2859  0.2748
  722SOL    HW1 8181   4.038   3.556   4.967 -0.1904  1.2877  2.0657
  722SOL    HW2 8182   3.888   3.492   4.971  0.4938 -0.5434  0.1505
  723SOL     OW 8183   3.650   5.815   5.148 -0.0059  0.8459 -0.2043
  723SOL    HW1 8184   3.585   5.754   5.193  1.5733  0.2308  1.3161
  723SOL    HW2 8185   3.617   5.836   5.055 -0.8916 -1.8291 -0.5618
  724SOL     OW 8186   0.582   4.847   0.017 -0.2432  0.2110  0.3620
  724SOL    HW1 8187   0.536   4.759   0.028 -2.9887  1.0723 -2.6999
  724SOL    HW2 8188   0.603   4.862  -0.080  2.0490  2.1069  1.0412
  725SOL     OW 8189   4.571   3.105   2.077  0.1405 -0.5472  0.5768
  725SOL    HW1 8190   4.473   3.090   2.062 -0.1908  0.6363  1.3503
  725SOL    HW2 8191   4.621   3.021   2.058 -1.0790 -1.3229  0.6574
  726SOL     OW 8192   5.871   4.271   5.741 -0.2696  0.4627 -0.3397
  726SOL    HW1 8193   5.933   4.333   5.693  0.1324  0.7516  0.5321
  726SOL    HW2 8194   5.810   4.324   5.800 -0.7410  0.1138 -0.5036
  727SOL     OW 8195   1.792   5.556   6.149 -0.0411 -0.1396  0.4367
  727SOL    HW1 8196   1.700   5.516   6.146  0.2067 -0.7747  0.9546
  727SOL    HW2 8197   1.800   5.614   6.230 -0.1188  0.2622  0.1590
  728SOL     OW 8198   5.478   5.786   4.850 -0.2393  0.1069  0.4215
  728SOL    HW1 8199   5.409   5.714   4.856  0.5848 -0.6462  1.1650
  728SOL    HW2 8200   5.463   5.852   4.924 -2.0217  1.6721 -1.2547
  729SOL     OW 8201   4.951   1.390   6.069 -0.6751 -0.2657  0.3860
  729SOL    HW1 8202   4.981   1.446   5.992  0.5514 -2.7607 -1.1134
  729SOL    HW2 8203   5.025   1.383   6.136  0.1874 -2.0057 -0.6628
  730SOL     OW 8204   0.894   5.739   6.049  0.6994 -0.0976  0.1916
  730SOL    HW1 8205   0.915   5.651   6.008  1.9254 -0.4675  1.5719
  730SOL    HW2 8206   0.854   5.726   6.140 -2.1226  0.7087 -0.8014
  731SOL     OW 8207   0.651   3.905   0.244 -0.6149 -0.2270 -0.6367
  731SOL    HW1 8208   0.600   3.839   0.189  0.8317 -0.5184 -1.6880
  731SOL    HW2 8209   0.716   3.955   0.186 -0.0535  0.4758  0.5508
  732SOL     OW 8210   2.326   6.384   0.894 -0.3430  0.1910  0.8285
  732SOL    HW1 8211   2.294   6.296   0.929 -1.8136 -0.0028 -0.8888
  732SOL    HW2 8212   2.357   6.374   0.800 -0.2248  1.4493  0.7132
  733SOL     OW 8213   3.059   4.112   0.453  0.0300 -0.3093 -0.1905
  733SOL    HW1 8214   3.103   4.133   0.540  0.2728  0.5993 -0.5214
  733SOL    HW2 8215   3.065   4.013   0.436 -1.1010 -0.6869  1.3866
  734SOL     OW 8216   4.121   1.824   5.499 -0.2696  0.2832 -0.4285
  734SOL    HW1 8217   4.123   1.924   5.498  2.1780  0.3306  0.7889
  734SOL    HW2 8218   4.102   1.792   5.592  0.6958 -0.3180 -0.4137
  735SOL     OW 8219   2.856   5.496   0.145 -0.4550  0.1624  0.6807
  735SOL    HW1 8220   2.892   5.580   0.186 -0.2578 -0.4114  1.7289
  735SOL    HW2 8221   2.855   5.505   0.046  0.2060  1.1433  0.7468
  736SOL     OW 8222   4.994   0.667   5.743 -0.6449 -0.6479 -0.4647
  736SOL    HW1 8223   5.020   0.686   5.649  1.4140  0.5040  0.2687
  736SOL    HW2 8224   4.900   0.697   5.759 -1.1890 -1.3009 -2.2344
  737SOL     OW 8225   4.486   4.055   5.611  0.1148 -0.0600  0.1101
  737SOL    HW1 8226   4.497   4.145   5.570  0.9194 -0.4758 -0.6368
  737SOL    HW2 8227   4.486   3.986   5.539 -0.8406 -0.6346  0.6495
  738SOL     OW 8228   4.488   3.964   0.371  0.0766  0.4560 -0.2075
  738SOL    HW1 8229   4.528   3.917   0.292  0.6359  0.5950 -0.0092
  738SOL    HW2 8230   4.389   3.971   0.358 -0.1740 -1.6763  0.2337
  739SOL     OW 8231   1.012   4.592   0.589 -0.3687  0.0053  0.1681
  739SOL    HW1 8232   1.022   4.637   0.678  0.0676  1.3148 -0.5095
  739SOL    HW2 8233   1.100   4.594   0.541 -0.7651 -0.0467 -0.5681
  740SOL     OW 8234   1.080   1.967   0.398 -0.4973 -0.1465  0.7296
  740SOL    HW1 8235   1.069   2.066   0.403 -0.0631  0.0420 -1.2780
  740SOL    HW2 8236   1.112   1.941   0.307 -0.3064 -2.1183  1.3026
  741SOL     OW 8237   4.602   1.835   0.760  0.2952 -0.5419  0.3905
  741SOL    HW1 8238   4.598   1.753   0.816  1.3305 -1.9338 -1.4505
  741SOL    HW2 8239   4.512   1.855   0.722 -0.2551  0.0087  1.9294
  742SOL     OW 8240   3.421   6.443   0.979 -0.2723 -0.5282 -0.1614
  742SOL    HW1 8241   3.496   6.440   1.045 -1.2732  1.9773  1.2327
  742SOL    HW2 8242   3.344   6.388   1.013 -0.0120 -1.0155 -0.3452
  743SOL     OW 8243   6.089   1.620   5.963  0.3372 -0.3564  0.2391
  743SOL    HW1 8244   5.999   1.641   6.002  0.1156  0.0054 -0.4493
  743SOL    HW2 8245   6.160   1.661   6.021  0.2423 -2.7621  2.2278
  744SOL     OW 8246   1.779   4.530   1.151  0.1167 -0.1170  0.0927
  744SOL    HW1 8247   1.809   4.438   1.175  0.0654  0.2194  1.5635
  744SOL    HW2 8248   1.850   4.595   1.177 -1.2502  0.5689  2.3537
  745SOL     OW 8249   1.586   5.791   0.919  0.7024  0.2921 -0.7070
  745SOL    HW1 8250   1.538   5.744   0.845  1.1287 -0.0372 -0.7801
  745SOL    HW2 8251   1.673   5.744   0.937  0.1283 -0.2965  0.7126
  746SOL     OW 8252   2.771   0.529   5.671 -0.0253  0.9531 -0.8449
  746SOL    HW1 8253   2.754   0.568   5.580  1.4095  0.8406 -1.1845
  746SOL    HW2 8254   2.685   0.497   5.710 -0.4142 -1.0626 -3.1160
  747SOL     OW 8255   3.556   2.892   0.344 -0.2640 -0.2918 -0.2076
  747SOL    HW1 8256   3.589   2.952   0.271  0.3787  2.0438  1.8705
  747SOL    HW2 8257   3.457   2.899   0.351 -0.2625 -0.0374 -0.4526
  748SOL     OW 8258   5.527   2.805   0.170 -0.0492  0.7598  0.0678
  748SOL    HW1 8259   5.472   2.866   0.114 -0.4828 -1.0971 -1.6326
  748SOL    HW2 8260   5.484   2.795   0.260  0.0859  2.9613  0.4106
  749SOL     OW 8261   2.883   5.213   0.032 -0.5813 -0.1314  0.0032
  749SOL    HW1 8262   2.967   5.249  -0.009 -1.3674  1.2643 -0.4276
  749SOL    HW2 8263   2.844   5.281   0.095 -1.5925 -0.5998 -0.0979
  750SOL     OW 8264   0.783   0.824   0.200 -0.3055 -0.4174 -0.4831
  750SOL    HW1 8265   0.750   0.781   0.284  0.7521 -1.2312 -0.4577
  750SOL    HW2 8266   0.872   0.866   0.218  0.1363 -0.9891 -1.2940
  751SOL     OW 8267   0.621   2.048   0.367 -0.1436  0.1033 -0.9674
  751SOL    HW1 8268   0.593   1.978   0.433  0.6239 -2.1878 -2.9131
  751SOL    HW2 8269   0.605   2.014   0.274  1.7834  1.8639 -2.0138
  752SOL     OW 8270   3.767   4.981   5.527 -0.1661 -0.3431 -0.7199
  752SOL    HW1 8271   3.865   4.997   5.516  0.0165 -1.0508 -0.2109
  752SOL    HW2 8272   3.746   4.886   5.504 -1.0652  0.2781 -2.7611
  753SOL     OW 8273   4.546   5.399   1.120  0.1952  0.2490  0.3388
  753SOL    HW1 8274   4.514   5.383   1.214 -0.0081 -3.1912 -0.1919
  753SOL    HW2 8275   4.480   5.456   1.072 -0.2325  1.1967  1.9557
  754SOL     OW 8276   6.104   0.104   6.513 -0.6854 -0.8979  0.4620
  754SOL    HW1 8277   6.081   0.059   6.427 -1.2460 -1.1961  0.7583
  754SOL    HW2 8278   6.059   0.194   6.517 -1.2072 -1.1644  0.7203
  755SOL     OW 8279   0.571   2.025   0.992 -0.1429  0.7953 -0.1689
  755SOL    HW1 8280   0.592   2.069   0.905 -2.7993 -0.1414 -1.3941
  755SOL    HW2 8281   0.656   1.997   1.037  1.2997  1.0999 -2.5603
  756SOL     OW 8282   0.721   5.269   6.302  0.3136  0.1577 -0.4745
  756SOL    HW1 8283   0.790   5.321   6.353  0.8793 -1.7132  0.7773
  756SOL    HW2 8284   0.630   5.299   6.329  0.6062 -0.5216  1.4136
  757SOL     OW 8285   5.357   1.503   5.734  0.0200  0.1515  0.6337
  757SOL    HW1 8286   5.448   1.466   5.711  1.1828  2.9262  0.3004
  757SOL    HW2 8287   5.298   1.498   5.653 -1.0463 -3.7747  1.4568
  758SOL     OW 8288   3.803   6.393   0.820  0.0602 -0.4106  0.6105
  758SOL    HW1 8289   3.776   6.306   0.860  1.4778 -0.3268  1.8428
  758SOL    HW2 8290   3.868   6.377   0.746 -0.7138 -0.4421 -0.0797
  759SOL     OW 8291   1.044   1.057   0.706  1.0535  0.8349 -0.1844
  759SOL    HW1 8292   1.050   1.001   0.788 -2.1571  2.2258  1.1869
  759SOL    HW2 8293   0.975   1.020   0.645  1.6294  1.2025 -1.0780
  760SOL     OW 8294   4.302   2.641   1.989 -0.4504 -0.1760  0.3047
  760SOL    HW1 8295   4.227   2.582   1.961 -0.9482  0.2099  0.8016
  760SOL    HW2 8296   4.360   2.593   2.055 -1.0561 -0.0012  0.9815
  761SOL     OW 8297   2.253   5.004   0.558  0.1609 -0.3441 -0.2451
  761SOL    HW1 8298   2.243   4.908   0.584 -0.4093 -0.4539 -0.8381
  761SOL    HW2 8299   2.167   5.052   0.574  0.5824  0.1897  0.4996
  762SOL     OW 8300   1.656   0.714   1.112 -0.5953  0.1180  0.1690
  762SOL    HW1 8301   1.674   0.621   1.082 -1.2336 -0.4385  1.4042
  762SOL    HW2 8302   1.620   0.712   1.206 -2.8287  1.4275 -0.5744
  763SOL     OW 8303   0.072   1.900   5.370 -0.9189 -0.0743  0.1568
  763SOL    HW1 8304   0.149   1.961   5.353  0.3527 -1.5412  0.4650
  763SOL    HW2 8305   0.066   1.833   5.297 -2.1422  0.2354 -0.0458
  764SOL     OW 8306   2.443   0.013   0.315  0.6960  0.4772 -0.5148
  764SOL    HW1 8307   2.370   0.067   0.358  1.0764 -0.0312  0.8204
  764SOL    HW2 8308   2.517   0.073   0.287  1.2508  0.6559  1.2312
  765SOL     OW 8309   5.141   4.867   1.679 -0.3543  0.4390  1.1848
  765SOL    HW1 8310   5.194   4.934   1.628  0.7916 -1.0247  0.3701
  765SOL    HW2 8311   5.153   4.884   1.777  1.0268  0.6107  1.0082
  766SOL     OW 8312   5.635   0.690   5.453 -0.3050  0.4255  0.0428
  766SOL    HW1 8313   5.629   0.596   5.419 -0.8328  0.4399  0.0897
  766SOL    HW2 8314   5.631   0.753   5.375 -1.9172  0.4739  0.1217
  767SOL     OW 8315   4.418   3.131   5.505  0.0374 -0.0818 -0.1890
  767SOL    HW1 8316   4.438   3.140   5.407 -0.5637 -0.6069 -0.3726
  767SOL    HW2 8317   4.478   3.191   5.558 -0.4813  1.1604 -0.9667
  768SOL     OW 8318   3.466   3.536   1.272  0.4669 -0.0901 -0.4068
  768SOL    HW1 8319   3.409   3.486   1.338  0.4944 -1.1761 -1.1764
  768SOL    HW2 8320   3.451   3.498   1.180  1.7993  0.1739 -0.7533
  769SOL     OW 8321   3.064   1.292   0.281 -0.0747  0.2286  0.1701
  769SOL    HW1 8322   3.058   1.210   0.338  0.0448  0.8823  1.1459
  769SOL    HW2 8323   3.160   1.317   0.270  0.0194 -0.7675 -1.6300
  770SOL     OW 8324   5.259   3.805   4.984  0.4926  0.2004  0.1159
  770SOL    HW1 8325   5.265   3.875   4.912 -1.3766  0.3440  0.0371
  770SOL    HW2 8326   5.349   3.792   5.026  0.6834  3.7881  1.1895
  771SOL     OW 8327   2.066   6.057   5.742 -0.0574  0.1155 -0.0063
  771SOL    HW1 8328   2.096   5.975   5.694  0.5004 -1.4215  2.7203
  771SOL    HW2 8329   1.998   6.032   5.811 -0.7591  2.1712  0.1233
  772SOL     OW 8330   5.742   3.684   0.582 -0.2319  0.1508 -0.6308
  772SOL    HW1 8331   5.733   3.584   0.588 -0.9875  0.0925 -2.1176
  772SOL    HW2 8332   5.818   3.707   0.521 -0.1322  0.4833 -0.3816
  773SOL     OW 8333   6.352   3.567   0.323  0.1864 -0.3872 -0.1632
  773SOL    HW1 8334   6.395   3.578   0.234 -2.1657  0.7468 -1.2530
  773SOL    HW2 8335   6.366   3.651   0.377  0.0231 -0.3282 -0.2117
  774SOL     OW 8336   5.520   4.349   0.869  0.6867 -0.4025 -0.5008
  774SOL    HW1 8337   5.443   4.405   0.836  0.9805 -0.0428 -0.5801
  774SOL    HW2 8338   5.561   4.393   0.948 -0.4601 -1.6113  0.8227
  775SOL     OW 8339   1.180   0.381   5.066  0.1984 -0.0287  0.5211
  775SOL    HW1 8340   1.162   0.354   5.160 -1.2475 -1.2122 -0.0649
  775SOL    HW2 8341   1.272   0.351   5.040  0.0530 -1.0152  1.1025
  776SOL     OW 8342   5.624   1.040   1.130  0.5008 -0.1906  0.4383
  776SOL    HW1 8343   5.554   1.040   1.201 -0.1666  1.3529 -0.1652
  776SOL    HW2 8344   5.651   1.135   1.110 -0.5177 -0.4135 -2.4871
  777SOL     OW 8345   3.864   2.184   0.897 -0.6278  0.5922 -0.0935
  777SOL    HW1 8346   3.901   2.120   0.965  2.1504  3.0520  0.9035
  777SOL    HW2 8347   3.802   2.134   0.836  0.1297 -2.6637  1.5266
  778SOL     OW 8348   5.669   4.213   1.193 -0.1720  0.7294 -0.2249
  778SOL    HW1 8349   5.695   4.194   1.288 -1.4423  0.3044  0.0586
  778SOL    HW2 8350   5.628   4.131   1.153 -0.2547  1.1082 -0.9324
  779SOL     OW 8351   3.458   2.855   5.936 -0.1191 -0.5442 -0.0631
  779SOL    HW1 8352   3.476   2.950   5.959 -2.5846 -0.0726  0.1713
  779SOL    HW2 8353   3.524   2.796   5.983  0.0417  0.9063  1.6185
  780SOL     OW 8354   4.728   3.246   5.455  0.4900 -0.4036 -0.3458
  780SOL    HW1 8355   4.683   3.293   5.378  2.1923  0.6603 -0.7439
  780SOL    HW2 8356   4.778   3.167   5.420 -1.9012 -2.3016  0.2499
  781SOL     OW 8357   0.393   0.955   5.553 -0.1212 -0.1445 -0.3031
  781SOL    HW1 8358   0.479   0.922   5.513  1.3791  1.7975  1.1236
  781SOL    HW2 8359   0.353   1.025   5.494  1.2495  1.5574  0.6741
  782SOL     OW 8360   1.834   4.248   5.804 -0.2007  0.3658 -0.3206
  782SOL    HW1 8361   1.863   4.214   5.715  1.2878 -0.6821  0.5228
  782SOL    HW2 8362   1.841   4.348   5.805  1.0711  0.3001 -0.9551
  783SOL     OW 8363   6.075   1.919   5.261  0.1605 -0.3242 -0.2741
  783SOL    HW1 8364   6.083   1.997   5.199 -2.1722  1.1859  1.1571
  783SOL    HW2 8365   5.984   1.920   5.304  0.8972 -2.5385  1.5230
  784SOL     OW 8366   4.142   5.364   1.238  0.0128 -0.2908  0.0804
  784SOL    HW1 8367   4.125   5.417   1.321 -1.4780  1.3626 -1.1886
  784SOL    HW2 8368   4.196   5.419   1.174 -3.8076  1.0464 -2.3607
  785SOL     OW 8369   2.545   5.452   5.404 -0.3945 -0.1721  0.3896
  785SOL    HW1 8370   2.506   5.528   5.351 -2.6323 -1.3942  0.1334
  785SOL    HW2 8371   2.480   5.424   5.475  0.8959 -1.0867  1.2502
  786SOL     OW 8372   0.751   5.053   0.915  0.0324  0.3844 -0.7157
  786SOL    HW1 8373   0.790   4.988   0.979 -1.1679  0.7448  0.4137
  786SOL    HW2 8374   0.816   5.128   0.899  0.3511  0.2702  0.0370
  787SOL     OW 8375   4.041   5.044   0.500 -0.2064 -0.2166  0.2100
  787SOL    HW1 8376   4.112   5.036   0.571  0.7674  0.0513 -0.7161
  787SOL    HW2 8377   4.027   5.140   0.477  0.6856 -0.3916 -1.1358
  788SOL     OW 8378   4.901   2.412   5.914  0.2090 -0.1420  0.0734
  788SOL    HW1 8379   4.874   2.322   5.879  0.3105 -0.2067  0.1610
  788SOL    HW2 8380   4.824   2.453   5.963  1.3896 -2.1015  3.9795
  789SOL     OW 8381   2.570   6.143   0.878 -0.2813 -0.2203  0.2175
  789SOL    HW1 8382   2.471   6.139   0.894 -0.0723  0.4622  1.9729
  789SOL    HW2 8383   2.591   6.103   0.789 -2.6922  4.2437 -2.7635
  790SOL     OW 8384   2.339   4.104   1.376  0.0889 -0.1785  0.3923
  790SOL    HW1 8385   2.268   4.162   1.335 -0.5378 -1.1848  0.0374
  790SOL    HW2 8386   2.369   4.146   1.462 -0.2410  0.7536  0.0757
  791SOL     OW 8387   2.403   4.729   0.118  0.2762  0.6689  0.0803
  791SOL    HW1 8388   2.423   4.816   0.073  1.3601  1.0861  1.2983
  791SOL    HW2 8389   2.313   4.696   0.089 -1.0393  3.1597  1.0490
  792SOL     OW 8390   3.175   0.871   0.202  0.3918  0.8116  0.1162
  792SOL    HW1 8391   3.178   0.864   0.102 -0.2904 -0.7535  0.1826
  792SOL    HW2 8392   3.085   0.902   0.231  0.2127  0.1527  0.2846
  793SOL     OW 8393   5.415   4.957   5.524  0.1508  0.3609  0.7886
  793SOL    HW1 8394   5.362   4.955   5.609 -0.6012  0.4412  0.3335
  793SOL    HW2 8395   5.434   5.051   5.498 -1.9254  0.5035 -0.4971
  794SOL     OW 8396   1.366   4.129   0.201  0.5108 -0.5643 -0.3400
  794SOL    HW1 8397   1.285   4.109   0.145  0.5633  1.7380 -1.3360
  794SOL    HW2 8398   1.340   4.130   0.298 -0.0789 -2.3015 -0.4481
  795SOL     OW 8399   5.837   2.863   5.765 -0.9405 -0.8598  0.6114
  795SOL    HW1 8400   5.869   2.788   5.706 -0.7484 -1.5563  1.5797
  795SOL    HW2 8401   5.875   2.852   5.856  0.3088  1.2679  0.4097
  796SOL     OW 8402   3.844   2.521   0.631 -0.1509 -0.5978  0.7740
  796SOL    HW1 8403   3.825   2.436   0.583  1.0791 -0.3629 -0.1725
  796SOL    HW2 8404   3.894   2.502   0.715 -1.3003 -0.9123  1.4168
  797SOL     OW 8405   4.097   3.515   1.513  0.0255  0.6877  0.0307
  797SOL    HW1 8406   4.003   3.544   1.527 -0.6162 -1.4138  0.4904
  797SOL    HW2 8407   4.113   3.499   1.416 -0.2134  0.7015 -0.0105
  798SOL     OW 8408   6.087   0.505   6.208  0.2886 -0.7035 -0.0503
  798SOL    HW1 8409   6.122   0.599   6.208  0.1625 -0.6429 -1.4520
  798SOL    HW2 8410   6.030   0.490   6.128 -0.4572 -1.7162  0.6426
  799SOL     OW 8411   5.352   4.658   5.674 -0.0182  0.2435 -0.3523
  799SOL    HW1 8412   5.431   4.620   5.722 -1.7591 -0.7547  1.8978
  799SOL    HW2 8413   5.301   4.585   5.629  1.1211  1.0634 -3.2676
  800SOL     OW 8414   0.388   1.750   6.174 -0.8538  0.7139  0.1526
  800SOL    HW1 8415   0.443   1.824   6.213  0.6875  0.1613 -0.8519
  800SOL    HW2 8416   0.293   1.761   6.202 -0.8252  3.4526 -0.5119
  801SOL     OW 8417   5.067   3.842   4.589 -0.4163 -0.1263  0.1100
  801SOL    HW1 8418   4.991   3.892   4.631 -1.7248 -2.3208  0.5347
  801SOL    HW2 8419   5.041   3.816   4.496  0.4256  0.3160 -0.2638
  802SOL     OW 8420   0.660   3.183   6.159 -0.0756  0.0307 -0.5788
  802SOL    HW1 8421   0.708   3.115   6.104 -1.3888 -1.1011 -0.4092
  802SOL    HW2 8422   0.584   3.138   6.207 -0.1184  1.3589  0.6569
  803SOL     OW 8423   0.515   4.030   6.292 -0.2286  0.2130  0.2700
  803SOL    HW1 8424   0.575   4.016   6.213 -0.0539  2.3431 -0.0447
  803SOL    HW2 8425   0.545   3.973   6.368  0.1886 -1.1644 -0.8777
  804SOL     OW 8426   3.850   1.442   1.084 -0.8152  0.5084  0.3906
  804SOL    HW1 8427   3.864   1.541   1.091  0.7869  0.2703  1.2159
  804SOL    HW2 8428   3.938   1.398   1.064 -1.2605 -0.8366  1.2818
  805SOL     OW 8429   0.711   5.734   6.258  0.2478  0.0571  0.1287
  805SOL    HW1 8430   0.639   5.731   6.189  2.5529  3.0664 -2.7748
  805SOL    HW2 8431   0.685   5.796   6.332  0.3957  2.5918 -1.8106
  806SOL     OW 8432   3.990   4.618   0.537 -0.3850  0.4106 -0.3350
  806SOL    HW1 8433   3.904   4.587   0.495 -0.4698  0.7397 -0.4086
  806SOL    HW2 8434   3.972   4.701   0.589  0.0092  0.8371 -0.8648
  807SOL     OW 8435   1.314   3.061   5.694 -0.0129 -0.6111  0.3074
  807SOL    HW1 8436   1.365   3.143   5.718 -1.2313  0.0881  0.6071
  807SOL    HW2 8437   1.359   3.014   5.619 -0.1089  1.1828 -0.9355
  808SOL     OW 8438   2.465   0.570   5.480 -0.8637 -0.0953 -0.0261
  808SOL    HW1 8439   2.531   0.500   5.507 -0.9077 -0.1721 -0.1167
  808SOL    HW2 8440   2.440   0.625   5.560 -0.5591  0.0444 -0.0262
  809SOL     OW 8441   3.557   3.261   6.217 -0.1483  0.0362 -0.4436
  809SOL    HW1 8442   3.487   3.292   6.282  0.6383 -2.1654  1.5821
  809SOL    HW2 8443   3.645   3.300   6.243  0.3570 -1.6640  0.4999
  810SOL     OW 8444   1.445   3.311   0.120  0.5118  0.2174 -0.2827
  810SOL    HW1 8445   1.454   3.343   0.214  0.6702  0.9804 -0.5524
  810SOL    HW2 8446   1.442   3.390   0.058 -1.2614 -0.1874 -0.7753
  811SOL     OW 8447   2.662   2.558   5.151  0.0991 -0.2555  0.4299
  811SOL    HW1 8448   2.626   2.527   5.064 -1.3002  1.7192  0.2389
  811SOL    HW2 8449   2.762   2.556   5.149  0.0846 -2.0058 -0.4950
  812SOL     OW 8450   0.172   2.052   5.721 -0.1581  0.1627  0.0436
  812SOL    HW1 8451   0.233   2.117   5.675  3.1524 -1.5165  1.6379
  812SOL    HW2 8452   0.156   2.082   5.814  0.4850 -0.6769  0.4450
  813SOL     OW 8453   6.084   0.777   0.727  0.3390  0.4651  0.0009
  813SOL    HW1 8454   6.019   0.848   0.753 -0.5691  0.0754 -1.1029
  813SOL    HW2 8455   6.176   0.816   0.724  0.0046  1.3148  0.4665
  814SOL     OW 8456   0.949   1.014   1.194  0.8994  0.3590 -0.0919
  814SOL    HW1 8457   0.916   1.058   1.278 -0.4854 -0.9408  0.0950
  814SOL    HW2 8458   0.904   0.926   1.183  3.1028 -0.7406 -0.7929
  815SOL     OW 8459   0.556   4.450   5.049  0.4591 -0.1913 -0.0566
  815SOL    HW1 8460   0.638   4.429   5.102 -0.0399 -0.8548  0.4611
  815SOL    HW2 8461   0.500   4.368   5.040 -0.6669  0.4893  0.5096
  816SOL     OW 8462   1.229   4.271   1.434  0.1624 -0.1061 -0.0329
  816SOL    HW1 8463   1.135   4.267   1.399  0.0182  0.4058  0.2913
  816SOL    HW2 8464   1.265   4.364   1.422  0.5769 -0.2616 -0.0151
  817SOL     OW 8465   4.835   5.136   0.815  0.3897  0.3572  0.2210
  817SOL    HW1 8466   4.831   5.054   0.758  0.2807  1.2333 -1.0809
  817SOL    HW2 8467   4.901   5.122   0.889 -2.5067 -2.3860  2.5426
  818SOL     OW 8468   0.492   5.446   1.216  0.0786  0.2712  0.2880
  818SOL    HW1 8469   0.571   5.456   1.155 -1.1157  1.5010 -1.1488
  818SOL    HW2 8470   0.494   5.520   1.284  0.1410  0.3320  0.2213
  819SOL     OW 8471   2.334   0.344   6.288  0.1424 -0.2844  0.4741
  819SOL    HW1 8472   2.317   0.442   6.279 -1.8778 -0.6023  0.4546
  819SOL    HW2 8473   2.256   0.292   6.252  1.9741 -1.9611 -1.3324
  820SOL     OW 8474   4.395   3.457   0.449  0.3623  0.2945 -0.0623
  820SOL    HW1 8475   4.386   3.540   0.504  0.8421  0.8564 -0.8168
  820SOL    HW2 8476   4.331   3.388   0.482 -0.4361  1.1540  0.2190
  821SOL     OW 8477   2.907   1.817   4.475  0.0371 -0.2943 -0.3686
  821SOL    HW1 8478   2.967   1.896   4.481  1.3263 -1.2132 -0.7673
  821SOL    HW2 8479   2.817   1.846   4.441  0.0979  1.1602  0.6418
  822SOL     OW 8480   2.533   1.249   0.872 -0.0292  0.4816  0.4075
  822SOL    HW1 8481   2.455   1.199   0.909  1.1236 -1.2025  0.7302
  822SOL    HW2 8482   2.600   1.184   0.837  0.9068  1.9027 -0.5535
  823SOL     OW 8483   4.770   3.133   0.968  0.2336 -0.2228  0.7749
  823SOL    HW1 8484   4.782   3.228   0.938  0.6747  0.2381  2.3177
  823SOL    HW2 8485   4.823   3.073   0.908 -0.0104  0.5015 -0.1950
  824SOL     OW 8486   5.097   5.769   1.289 -0.0728  0.9006  0.1216
  824SOL    HW1 8487   5.092   5.867   1.309 -3.7415  1.0378 -0.7493
  824SOL    HW2 8488   5.078   5.717   1.372  1.3469  0.8890  0.4649
  825SOL     OW 8489   5.499   2.004   5.023  0.6654 -0.4236 -0.0988
  825SOL    HW1 8490   5.539   2.025   5.113  0.2510  1.3678 -0.2979
  825SOL    HW2 8491   5.564   2.030   4.951  1.1912 -2.2880 -0.3535
  826SOL     OW 8492   1.791   1.539   0.906  0.3571  0.3105 -0.2282
  826SOL    HW1 8493   1.794   1.548   1.005 -0.4863  0.7054 -0.2280
  826SOL    HW2 8494   1.794   1.442   0.880 -1.8933  0.0448  0.3104
  827SOL     OW 8495   3.443   3.898   6.238 -0.3231  0.8602 -1.1335
  827SOL    HW1 8496   3.395   3.968   6.184  0.2584  0.0043 -2.8484
  827SOL    HW2 8497   3.540   3.919   6.241 -0.4167  1.1777  0.0768
  828SOL     OW 8498   3.113   6.373   6.339  0.1171  0.5424 -0.3594
  828SOL    HW1 8499   3.075   6.415   6.421 -0.1516 -0.7894  0.2333
  828SOL    HW2 8500   3.072   6.283   6.326  0.7516  0.3981 -1.5112
  829SOL     OW 8501   2.764   0.419   6.410  0.2135  0.7566  0.0414
  829SOL    HW1 8502   2.774   0.461   6.320 -1.2788  0.7518 -0.1498
  829SOL    HW2 8503   2.687   0.460   6.457 -0.6754 -1.0607  0.2593
  830SOL     OW 8504   0.345   0.479   0.024 -0.2968  0.3451  0.4197
  830SOL    HW1 8505   0.436   0.482  -0.016 -0.5586 -1.5282 -0.4462
  830SOL    HW2 8506   0.329   0.388   0.062 -1.1442  1.1998  2.2380
  831SOL     OW 8507   2.965   5.469   6.314  0.2960  0.7343  0.2037
  831SOL    HW1 8508   3.059   5.498   6.298 -0.2667  2.1438 -0.8281
  831SOL    HW2 8509   2.915   5.543   6.359 -0.8801  0.9738 -1.3952
  832SOL     OW 8510   5.758   2.784   0.983 -0.3707 -0.7125  0.2766
  832SOL    HW1 8511   5.812   2.865   0.963  1.0052 -1.8653 -0.8762
  832SOL    HW2 8512   5.789   2.744   1.069  1.2630 -1.8215 -0.7693
  833SOL     OW 8513   5.737   5.697   5.167  0.4845  0.2799 -0.1799
  833SOL    HW1 8514   5.753   5.795   5.173  0.9886  0.3000 -1.6027
  833SOL    HW2 8515   5.785   5.659   5.088 -1.5777 -0.6986 -1.0388
  834SOL     OW 8516   3.553   0.638   0.455 -0.5054 -0.3441  0.3297
  834SOL    HW1 8517   3.457   0.653   0.433 -0.1953  0.1669 -0.7803
  834SOL    HW2 8518   3.580   0.698   0.531 -0.6803  0.7253 -0.4207
  835SOL     OW 8519   5.745   3.028   5.094 -0.4425 -0.6212  0.0360
  835SOL    HW1 8520   5.740   2.994   5.188  1.9763 -0.5776  0.2399
  835SOL    HW2 8521   5.766   2.952   5.032  1.2130 -0.1646 -0.0049
  836SOL     OW 8522   2.211   2.576   0.831 -0.3125 -0.5735 -0.0312
  836SOL    HW1 8523   2.246   2.583   0.924  1.3851  0.2146 -0.6748
  836SOL    HW2 8524   2.113   2.595   0.830  0.0199  1.5626  1.3362
  837SOL     OW 8525   2.754   4.308   6.158 -0.8952  0.3010 -0.2368
  837SOL    HW1 8526   2.792   4.215   6.162  1.7039  1.2835  0.3666
  837SOL    HW2 8527   2.796   4.364   6.229 -0.6678  2.5034 -1.9773
  838SOL     OW 8528   4.528   4.600   6.421  0.3030  0.0341  0.3848
  838SOL    HW1 8529   4.467   4.620   6.497  0.1022  1.3675 -0.0935
  838SOL    HW2 8530   4.612   4.558   6.455  1.0825  2.4339  1.6121
  839SOL     OW 8531   3.453   3.592   6.475 -0.4460  0.6524 -0.4800
  839SOL    HW1 8532   3.433   3.569   6.571 -0.5590 -0.7339 -0.8129
  839SOL    HW2 8533   3.517   3.669   6.472  0.2388  0.1667  0.7368
  840SOL     OW 8534   0.524   1.290   6.455 -0.1197 -0.3321 -0.0628
  840SOL    HW1 8535   0.500   1.193   6.443  0.5484 -0.3771 -1.1965
  840SOL    HW2 8536   0.449   1.347   6.422 -0.3765 -0.4690  0.2877
  841SOL     OW 8537   4.394   3.414   1.357 -0.3673  0.3815  0.0506
  841SOL    HW1 8538   4.335   3.494   1.360  0.6480  1.1194  1.6157
  841SOL    HW2 8539   4.482   3.435   1.399 -0.3694 -1.7634  1.3166
  842SOL     OW 8540   3.198   5.070   1.054  0.5770 -0.2182  0.0653
  842SOL    HW1 8541   3.218   5.166   1.069 -0.2168  0.1687 -1.2580
  842SOL    HW2 8542   3.101   5.059   1.031  0.2610 -1.5263  1.8060
  843SOL     OW 8543   2.574   1.846   5.261  0.8507 -0.1637 -0.0790
  843SOL    HW1 8544   2.532   1.882   5.178 -1.2580 -1.0391  0.5571
  843SOL    HW2 8545   2.664   1.809   5.240  1.0502  1.1068 -1.6339
  844SOL     OW 8546   5.199   4.883   5.765  0.3077 -0.2165  0.4135
  844SOL    HW1 8547   5.265   4.814   5.733 -0.4647 -1.0362  0.5587
  844SOL    HW2 8548   5.232   4.922   5.851  1.3095  0.4220 -0.2343
  845SOL     OW 8549   3.058   4.513   5.684  0.6856 -0.3315 -0.1643
  845SOL    HW1 8550   2.997   4.458   5.741  0.3371 -1.7450 -1.7870
  845SOL    HW2 8551   3.004   4.558   5.612  1.2750  0.3099 -0.2181
  846SOL     OW 8552   0.059   1.442   0.338 -0.3829 -0.5053  0.3904
  846SOL    HW1 8553   0.013   1.388   0.268  0.9789 -1.0477 -0.1141
  846SOL    HW2 8554   0.038   1.404   0.428 -1.5629 -0.2347  0.2515
  847SOL     OW 8555   4.611   5.087   1.892  0.4542  0.2600  0.0996
  847SOL    HW1 8556   4.655   5.142   1.963  0.1539 -2.6068  2.7243
  847SOL    HW2 8557   4.516   5.114   1.882  0.0850 -0.1966  1.9537
  848SOL     OW 8558   6.023   4.871   1.101 -0.3860 -0.5199 -0.5323
  848SOL    HW1 8559   6.030   4.864   1.200  0.2617 -0.4128 -0.5625
  848SOL    HW2 8560   6.106   4.914   1.065 -0.3931 -1.0168 -1.1643
  849SOL     OW 8561   4.050   5.040   5.527 -0.0319 -0.0685  0.3592
  849SOL    HW1 8562   4.040   5.117   5.464 -0.5684 -0.0780  0.4268
  849SOL    HW2 8563   4.069   4.956   5.475 -0.7678 -0.1308  0.1838
  850SOL     OW 8564   4.025   0.230   0.655 -0.5144 -0.7345  0.2939
  850SOL    HW1 8565   4.116   0.243   0.616 -0.8879  0.2243 -0.2822
  850SOL    HW2 8566   3.984   0.148   0.616 -1.1761  0.5866 -1.9640
  851SOL     OW 8567   2.615   1.234   1.768 -0.1908 -0.4672  0.1892
  851SOL    HW1 8568   2.528   1.240   1.817  0.2880 -0.5029  1.0663
  851SOL    HW2 8569   2.669   1.317   1.785  0.5660 -1.0786  0.8894
  852SOL     OW 8570   0.543   5.555   0.151  0.2069 -0.3524  0.5751
  852SOL    HW1 8571   0.448   5.545   0.181  0.6565 -1.8990  1.5428
  852SOL    HW2 8572   0.549   5.539   0.053 -0.6742  0.8802  0.2869
  853SOL     OW 8573   0.694   1.538   5.876 -0.4633 -0.0675  0.0437
  853SOL    HW1 8574   0.774   1.561   5.820 -1.4594 -0.2776 -1.4998
  853SOL    HW2 8575   0.671   1.442   5.863 -1.1331  0.0575  0.2922
  854SOL     OW 8576   1.010   0.716   0.474  0.1119 -0.2574  0.2647
  854SOL    HW1 8577   1.018   0.803   0.427 -0.0900 -0.1789  0.3749
  854SOL    HW2 8578   0.921   0.710   0.518  1.5369  1.2099  3.6916
  855SOL     OW 8579   3.807   0.534   0.972  0.5362  0.1720 -0.2108
  855SOL    HW1 8580   3.854   0.605   1.025 -0.9337  0.1629  1.1759
  855SOL    HW2 8581   3.873   0.463   0.947  1.8647  1.5985 -0.9281
  856SOL     OW 8582   6.182   5.208   1.499 -0.5947 -0.6530  0.1709
  856SOL    HW1 8583   6.222   5.177   1.586  1.0510 -1.5944 -0.8740
  856SOL    HW2 8584   6.086   5.183   1.496 -0.5129 -1.2107  1.4403
  857SOL     OW 8585   3.004   1.410   1.166  0.2962  0.6218  0.4670
  857SOL    HW1 8586   3.080   1.460   1.206  1.1077  2.4366 -2.8989
  857SOL    HW2 8587   2.923   1.421   1.223  1.9044  0.6943  2.8901
  858SOL     OW 8588   5.187   4.525   0.237  0.1245 -0.5330 -0.6862
  858SOL    HW1 8589   5.286   4.539   0.244  0.2406 -0.6004 -1.9569
  858SOL    HW2 8590   5.140   4.601   0.281  0.6847 -1.7304  2.2570
  859SOL     OW 8591   3.063   5.228   1.440 -0.2352 -0.8439  0.0092
  859SOL    HW1 8592   3.072   5.228   1.540  0.9781  0.5423 -0.0615
  859SOL    HW2 8593   3.077   5.321   1.406 -1.3482 -1.1686 -1.4076
  860SOL     OW 8594   3.920   4.001   5.079  0.0587  0.7302  0.9609
  860SOL    HW1 8595   3.833   4.043   5.052 -2.1587 -3.7126  0.3678
  860SOL    HW2 8596   3.970   3.973   4.997  1.8251  2.5855  1.3231
  861SOL     OW 8597   3.375   1.014   6.386  0.5351 -0.5382  0.3797
  861SOL    HW1 8598   3.379   0.932   6.328  3.8456  1.2715 -2.2992
  861SOL    HW2 8599   3.455   1.018   6.445  0.3687  0.7209  0.5529
  862SOL     OW 8600   6.053   5.590   5.829 -0.6567  0.4300 -0.4178
  862SOL    HW1 8601   5.966   5.634   5.851 -0.5131  0.9112 -0.8031
  862SOL    HW2 8602   6.050   5.495   5.858 -1.4490  0.3427 -0.7759
  863SOL     OW 8603   1.296   0.618   1.272  0.2682 -0.2016 -0.2255
  863SOL    HW1 8604   1.201   0.625   1.244  0.5170 -1.1645 -1.4176
  863SOL    HW2 8605   1.302   0.592   1.368 -0.6655  0.1258 -0.0787
  864SOL     OW 8606   4.636   2.289   0.283 -0.0412 -0.7486 -0.4918
  864SOL    HW1 8607   4.573   2.366   0.278  1.3921  0.4835 -0.3415
  864SOL    HW2 8608   4.656   2.269   0.379  1.0096 -0.0580 -0.5453
  865SOL     OW 8609   0.062   0.738   6.113  0.0622  0.4701 -0.1313
  865SOL    HW1 8610   0.125   0.716   6.188  0.3980  0.1682 -0.4970
  865SOL    HW2 8611   0.094   0.695   6.029  0.2800  1.7021 -0.6950
  866SOL     OW 8612   0.350   1.219   0.605  0.2420 -0.0614 -0.3909
  866SOL    HW1 8613   0.292   1.167   0.542  0.6268 -2.3590  1.0494
  866SOL    HW2 8614   0.311   1.216   0.697  0.6450  1.7146 -0.1124
  867SOL     OW 8615   0.634   5.721   0.687 -0.3620 -0.0505  0.5830
  867SOL    HW1 8616   0.637   5.660   0.609 -1.2821  3.9951 -3.0016
  867SOL    HW2 8617   0.539   5.737   0.714 -0.1349 -0.1350  1.4741
  868SOL     OW 8618   1.491   0.135   0.002 -0.8031  0.0817 -0.2971
  868SOL    HW1 8619   1.555   0.124  -0.073 -0.6467 -0.4104 -0.0924
  868SOL    HW2 8620   1.531   0.099   0.087 -1.1733  0.1670 -0.0808
  869SOL     OW 8621   6.104   4.968   5.666 -0.5617  0.9380 -0.2420
  869SOL    HW1 8622   6.093   4.886   5.721  0.2495  0.8316 -0.2245
  869SOL    HW2 8623   6.148   5.039   5.721 -1.1305  1.3384 -0.2979
  870SOL     OW 8624   4.699   6.385   1.305 -0.2281  0.0035  0.0300
  870SOL    HW1 8625   4.703   6.473   1.352 -0.0335 -0.4227  0.8368
  870SOL    HW2 8626   4.788   6.339   1.314 -0.9639 -1.2377  1.5743
  871SOL     OW 8627   2.448   0.962   0.514  0.0073 -0.1260  0.3107
  871SOL    HW1 8628   2.468   0.879   0.462 -1.1028  1.4952 -2.9488
  871SOL    HW2 8629   2.522   0.978   0.581  2.2904 -1.6722 -1.6774
  872SOL     OW 8630   3.527   5.198   6.063 -0.1914  0.0995 -0.2007
  872SOL    HW1 8631   3.487   5.177   5.973  0.9177 -2.1277 -0.2409
  872SOL    HW2 8632   3.511   5.122   6.125 -0.7227  1.5112  1.4648
  873SOL     OW 8633   0.561   1.321   0.748  0.3996 -0.5306 -0.2351
  873SOL    HW1 8634   0.508   1.260   0.689  0.7749 -1.7616  0.6609
  873SOL    HW2 8635   0.629   1.268   0.798  1.4301  0.7938 -0.1800
  874SOL     OW 8636   5.749   4.576   6.201 -0.3355  0.3733  0.5748
  874SOL    HW1 8637   5.744   4.505   6.271 -0.1234 -0.0452  0.1712
  874SOL    HW2 8638   5.657   4.605   6.176 -0.4357 -0.0533  0.4470
  875SOL     OW 8639   3.641   0.510   5.613  0.9630 -0.6940 -0.0625
  875SOL    HW1 8640   3.621   0.588   5.552  0.3066 -0.6395  0.2124
  875SOL    HW2 8641   3.739   0.508   5.633  0.7984  1.0166  1.1788
  876SOL     OW 8642   0.750   5.410   5.944 -0.7034  0.1461  0.0232
  876SOL    HW1 8643   0.838   5.407   5.992  0.8111 -1.2016 -2.5960
  876SOL    HW2 8644   0.763   5.380   5.850 -3.6019  2.0933 -1.1363
  877SOL     OW 8645   3.614   1.288   0.294 -0.3373 -0.0009 -0.0301
  877SOL    HW1 8646   3.605   1.280   0.393 -3.4740  0.7393 -0.1480
  877SOL    HW2 8647   3.625   1.384   0.269  0.8422 -0.2214 -0.4051
  878SOL     OW 8648   3.286   0.960   0.424  0.1254 -0.5226  0.4189
  878SOL    HW1 8649   3.366   0.911   0.459 -0.0997 -1.2110 -0.0183
  878SOL    HW2 8650   3.259   0.922   0.336 -0.5289 -0.1147  0.4332
  879SOL     OW 8651   2.093   4.330   5.593  0.2108 -0.0627  0.1267
  879SOL    HW1 8652   2.015   4.269   5.578  0.0989  0.0513  0.2434
  879SOL    HW2 8653   2.159   4.285   5.654  0.2090 -0.1361  0.0736
  880SOL     OW 8654   4.402   3.481   5.145  0.0655  0.0999 -0.1403
  880SOL    HW1 8655   4.460   3.451   5.221 -1.4226  1.5647  1.6823
  880SOL    HW2 8656   4.324   3.419   5.135 -1.9725  2.0219  2.3712
  881SOL     OW 8657   1.322   1.338   1.326  0.1313  0.1944 -0.1467
  881SOL    HW1 8658   1.417   1.368   1.335  0.3926 -0.7972  0.5743
  881SOL    HW2 8659   1.263   1.397   1.382  0.6820 -0.7620  1.5280
  882SOL     OW 8660   6.082   3.044   0.668  0.1714 -0.0917 -0.7420
  882SOL    HW1 8661   6.054   3.001   0.582 -2.2828  0.1804 -0.1599
  882SOL    HW2 8662   6.096   3.142   0.654 -0.7419  0.0469 -0.7663
  883SOL     OW 8663   4.862   4.407   1.215  0.2215  0.6049 -0.2862
  883SOL    HW1 8664   4.818   4.325   1.250  0.4060  0.7162  0.2292
  883SOL    HW2 8665   4.821   4.434   1.128  0.8704 -0.6340 -1.0001
  884SOL     OW 8666   1.947   5.468   5.417 -0.3496  0.2016  0.5954
  884SOL    HW1 8667   2.029   5.487   5.363 -1.1750 -1.1788 -1.2777
  884SOL    HW2 8668   1.887   5.547   5.415  0.4741  0.8605  1.1465
  885SOL     OW 8669   6.243   0.997   0.568 -0.3989  0.2839  0.5679
  885SOL    HW1 8670   6.282   1.047   0.490  2.3223  0.6052  2.0042
  885SOL    HW2 8671   6.186   1.059   0.622 -1.0628  0.4677 -0.3196
  886SOL     OW 8672   1.044   2.527   6.312  0.4866 -0.3208 -0.1110
  886SOL    HW1 8673   1.039   2.434   6.346 -0.0869 -0.1206  0.3636
  886SOL    HW2 8674   1.100   2.530   6.229  1.0980 -0.9688  0.2744
  887SOL     OW 8675   2.629   4.552   0.090 -0.3756  0.0288  0.6064
  887SOL    HW1 8676   2.701   4.603   0.044  1.5989 -2.6325  0.5574
  887SOL    HW2 8677   2.551   4.613   0.107  1.0951  2.5321 -1.0061
  888SOL     OW 8678   3.816   3.784   5.776 -0.0539  0.3095 -1.1780
  888SOL    HW1 8679   3.735   3.812   5.827 -0.3351 -2.4469  0.0585
  888SOL    HW2 8680   3.789   3.726   5.699  0.7008 -0.7356 -0.6886
  889SOL     OW 8681   0.182   5.792   0.119  0.3858  0.4580  0.2754
  889SOL    HW1 8682   0.097   5.809   0.168 -0.8201 -0.3509 -1.4663
  889SOL    HW2 8683   0.163   5.772   0.023  2.2525 -2.8625  0.4502
  890SOL     OW 8684   4.409   3.734   0.845  0.0701 -0.0876 -0.0895
  890SOL    HW1 8685   4.320   3.716   0.887 -0.1027  0.2275 -0.3132
  890SOL    HW2 8686   4.395   3.781   0.758  0.4529 -0.1432 -0.1818
  891SOL     OW 8687   3.122   4.151   6.292  0.3166 -0.4660  0.0089
  891SOL    HW1 8688   3.084   4.228   6.343  1.1062 -1.1294  1.6800
  891SOL    HW2 8689   3.177   4.094   6.353  2.3431 -0.6534 -1.8282
  892SOL     OW 8690   1.694   3.532   0.700  0.2076 -0.2313 -0.2030
  892SOL    HW1 8691   1.707   3.550   0.797 -1.3784  3.9886 -0.5552
  892SOL    HW2 8692   1.784   3.528   0.655  0.9205 -1.3742  1.2318
  893SOL     OW 8693   5.630   2.130   5.987 -0.8112  1.1041 -0.3640
  893SOL    HW1 8694   5.726   2.156   5.981 -0.8037  0.9439 -0.9816
  893SOL    HW2 8695   5.609   2.101   6.080  0.0770 -0.1780 -0.5438
  894SOL     OW 8696   4.052   2.387   0.300  0.0591 -0.2682 -0.5972
  894SOL    HW1 8697   4.038   2.476   0.255 -0.7915 -0.1496 -0.1309
  894SOL    HW2 8698   4.065   2.316   0.230  2.0495  0.4002 -0.9614
  895SOL     OW 8699   4.566   2.820   6.166 -0.2208 -0.1420  0.0501
  895SOL    HW1 8700   4.615   2.874   6.234  1.1053  1.5252 -2.0619
  895SOL    HW2 8701   4.479   2.788   6.203  1.0626 -0.5412  2.9256
  896SOL     OW 8702   2.064   1.525   4.631 -0.6789  0.2161 -0.2423
  896SOL    HW1 8703   2.116   1.457   4.580  1.0318 -0.9550  2.8129
  896SOL    HW2 8704   1.966   1.509   4.617 -0.2993 -1.1923 -1.6110
  897SOL     OW 8705   5.114   5.449   6.086 -0.1897  0.4971  0.4820
  897SOL    HW1 8706   5.082   5.515   6.155 -3.2637  2.0101 -2.1254
  897SOL    HW2 8707   5.066   5.362   6.100  0.4926  0.2212  1.2143
  898SOL     OW 8708   2.374   1.003   0.056  0.2669 -0.4635 -0.4578
  898SOL    HW1 8709   2.336   1.035   0.142  0.3784 -1.5360  0.0020
  898SOL    HW2 8710   2.436   0.926   0.073 -1.2288 -1.9992 -1.6496
  899SOL     OW 8711   2.929   0.180   4.478  0.3545  0.0629 -0.3051
  899SOL    HW1 8712   2.878   0.099   4.448  1.2955 -0.0430 -1.6784
  899SOL    HW2 8713   2.910   0.256   4.416  0.2532  0.6180  0.3993
  900SOL     OW 8714   5.275   5.883   5.587 -0.1975 -0.1700  0.0698
  900SOL    HW1 8715   5.277   5.850   5.492  0.6130  1.3722 -0.4879
  900SOL    HW2 8716   5.361   5.862   5.632  0.4783  1.3863 -0.4078
  901SOL     OW 8717   2.098   2.598   5.627  0.3408  0.1509  0.2650
  901SOL    HW1 8718   2.082   2.561   5.718  1.0023 -1.0043 -0.0766
  901SOL    HW2 8719   2.045   2.546   5.560  1.2069 -0.1401 -0.2106
  902SOL     OW 8720   5.246   0.158   6.377  0.0334  0.2290  0.6950
  902SOL    HW1 8721   5.261   0.194   6.469 -0.3489 -0.0593  0.8711
  902SOL    HW2 8722   5.174   0.089   6.379  0.2350 -0.0045  0.2306
  903SOL     OW 8723   4.736   2.990   0.539 -0.3480  0.7110  0.1029
  903SOL    HW1 8724   4.806   3.032   0.482  0.5236 -0.5125  0.2335
  903SOL    HW2 8725   4.682   3.061   0.584  1.9364  1.7490  1.3888
  904SOL     OW 8726   3.417   3.532   5.658 -0.3380  0.4573 -0.4416
  904SOL    HW1 8727   3.447   3.519   5.563  0.0241 -2.1849 -0.0319
  904SOL    HW2 8728   3.491   3.509   5.720 -0.4947  2.4141  0.5269
  905SOL     OW 8729   4.893   3.106   2.191 -0.3305 -1.0233  0.4597
  905SOL    HW1 8730   4.956   3.176   2.158 -1.2669 -0.6864 -0.6920
  905SOL    HW2 8731   4.802   3.122   2.152 -1.4309 -0.8585  2.8974
  906SOL     OW 8732   2.776   3.830   0.055  0.3861  0.1825 -0.3299
  906SOL    HW1 8733   2.761   3.875   0.143 -2.0851 -1.6349  0.2837
  906SOL    HW2 8734   2.726   3.879  -0.016  1.9391  1.3241 -0.7175
  907SOL     OW 8735   2.015   1.504   6.557  0.5938 -0.1574  0.4206
  907SOL    HW1 8736   2.065   1.418   6.558  1.4635  0.3417  0.4095
  907SOL    HW2 8737   2.078   1.580   6.542 -0.3196  0.3790 -0.9299
  908SOL     OW 8738   0.645   1.563   1.213  0.5654  0.4788  0.0133
  908SOL    HW1 8739   0.677   1.592   1.123  1.1084  0.3693  0.1614
  908SOL    HW2 8740   0.723   1.525   1.264  0.0800 -0.3076  0.1882
  909SOL     OW 8741   1.837   2.428   0.219  0.5873  0.5460  0.5836
  909SOL    HW1 8742   1.872   2.338   0.196  0.0854  0.7924 -1.2546
  909SOL    HW2 8743   1.912   2.494   0.224  0.5536  0.9848 -2.8899
  910SOL     OW 8744   0.856   5.606   0.251  0.2753 -0.2197  0.2332
  910SOL    HW1 8745   0.786   5.565   0.192  1.1303 -0.3692 -0.7046
  910SOL    HW2 8746   0.853   5.705   0.242 -1.3753 -0.0495  2.0233
  911SOL     OW 8747   4.526   1.384   6.397 -0.6069 -0.1922  0.1657
  911SOL    HW1 8748   4.527   1.381   6.497 -0.2685 -0.6586  0.1540
  911SOL    HW2 8749   4.620   1.386   6.364 -0.7159 -0.3505 -0.1523
  912SOL     OW 8750   4.733   6.332   4.905 -0.0838  0.3552  0.3491
  912SOL    HW1 8751   4.652   6.312   4.850  0.7995 -1.1036 -0.5004
  912SOL    HW2 8752   4.802   6.376   4.848  0.7051 -0.8395  0.3439
  913SOL     OW 8753   4.671   6.019   0.216 -0.7285  0.1338 -0.0475
  913SOL    HW1 8754   4.709   6.068   0.138  1.7721 -0.3618  0.7759
  913SOL    HW2 8755   4.699   6.063   0.301 -0.9445 -0.9931  0.6406
  914SOL     OW 8756   4.802   1.914   0.596  0.3171  0.2867  0.0374
  914SOL    HW1 8757   4.874   1.968   0.640  0.2307  0.3473  0.1035
  914SOL    HW2 8758   4.746   1.869   0.665  2.7397 -3.1020  0.0645
  915SOL     OW 8759   0.592   0.508   6.527 -0.1489 -0.0614  0.4727
  915SOL    HW1 8760   0.667   0.574   6.527  0.7597 -1.0092  2.2524
  915SOL    HW2 8761   0.628   0.417   6.506 -0.4667 -0.7746  2.7316
  916SOL     OW 8762   6.117   3.501   1.239 -0.1984 -0.5080 -0.0464
  916SOL    HW1 8763   6.196   3.547   1.198 -1.1089  1.7168  0.5049
  916SOL    HW2 8764   6.121   3.512   1.338 -1.5732  0.3523 -0.0601
  917SOL     OW 8765   4.899   5.556   6.510 -0.3389 -0.2336  0.2221
  917SOL    HW1 8766   4.811   5.602   6.495 -0.4613 -0.3918  0.4654
  917SOL    HW2 8767   4.954   5.563   6.426 -1.1356 -1.3503 -0.4211
  918SOL     OW 8768   0.777   0.604   6.192  0.4390  0.0582 -0.2368
  918SOL    HW1 8769   0.786   0.686   6.136 -1.8050 -1.1920 -2.6423
  918SOL    HW2 8770   0.686   0.604   6.236  0.9914 -0.4597  0.9604
  919SOL     OW 8771   1.961   3.344   5.438  0.1120  0.6166  0.2441
  919SOL    HW1 8772   2.054   3.355   5.403  0.1505  1.9438  0.7104
  919SOL    HW2 8773   1.953   3.255   5.482  1.4311  0.8097  0.9361
  920SOL     OW 8774   4.878   3.590   6.009 -0.0160  0.9765  0.0037
  920SOL    HW1 8775   4.792   3.546   5.982  0.0434  0.2073  0.9997
  920SOL    HW2 8776   4.955   3.539   5.970  0.0578  0.0514  1.2600
  921SOL     OW 8777   4.077   2.828   1.802  0.9207  0.0052  0.7718
  921SOL    HW1 8778   3.995   2.817   1.746  2.2395  0.1386 -1.2786
  921SOL    HW2 8779   4.083   2.752   1.867 -0.4014 -0.4125  0.4398
  922SOL     OW 8780   1.737   2.568   6.424 -0.4682 -0.3539 -0.2231
  922SOL    HW1 8781   1.813   2.616   6.467  0.2094 -0.9440 -0.7109
  922SOL    HW2 8782   1.688   2.515   6.492  1.1043 -1.9490 -0.2343
  923SOL     OW 8783   2.397   2.352   6.230 -0.0049 -0.1346 -0.2765
  923SOL    HW1 8784   2.493   2.379   6.237 -0.0809 -0.1111  1.0134
  923SOL    HW2 8785   2.341   2.421   6.275 -0.6022 -0.3116 -0.7429
  924SOL     OW 8786   4.058   4.044   6.580 -0.1448  0.6783  0.1770
  924SOL    HW1 8787   4.104   4.125   6.617  0.1277  1.8158 -2.4229
  924SOL    HW2 8788   4.106   4.014   6.498 -1.3973 -0.9707  0.0016
  925SOL     OW 8789   2.960   3.042   0.141  0.0894  0.6140 -0.3391
  925SOL    HW1 8790   3.006   3.131   0.139  0.9538  0.1794 -0.3446
  925SOL    HW2 8791   2.880   3.047   0.201  0.6749  1.1380  0.4125
  926SOL     OW 8792   5.840   5.466   0.464  0.0918  0.0893 -0.2808
  926SOL    HW1 8793   5.812   5.388   0.521 -0.4120  0.8031  0.4741
  926SOL    HW2 8794   5.759   5.504   0.419  0.2796  0.4014 -0.3513
  927SOL     OW 8795   5.374   0.201   5.167  0.3441  0.5443 -0.2662
  927SOL    HW1 8796   5.314   0.151   5.104  0.5035  0.4600 -0.3502
  927SOL    HW2 8797   5.457   0.148   5.184  1.2837  1.5147 -1.6624
  928SOL     OW 8798   0.775   0.217   1.670 -0.2962 -0.4140 -0.4752
  928SOL    HW1 8799   0.768   0.263   1.758 -0.1829 -1.5942  0.1719
  928SOL    HW2 8800   0.774   0.285   1.596  4.6834  1.1956  0.5250
  929SOL     OW 8801   1.870   0.447   2.249  0.0194 -0.0324 -0.1490
  929SOL    HW1 8802   1.819   0.528   2.276 -0.3533 -0.0746 -0.7045
  929SOL    HW2 8803   1.963   0.472   2.225 -0.0821  0.2308 -0.2731
  930SOL     OW 8804   3.585   1.543   4.748  0.5445  0.7233 -0.0467
  930SOL    HW1 8805   3.660   1.580   4.692 -0.1153  0.8534 -0.8622
  930SOL    HW2 8806   3.535   1.474   4.695 -0.8345  1.7062 -0.0607
  931SOL     OW 8807   4.754   2.622   6.582 -0.0463 -0.4018  0.0443
  931SOL    HW1 8808   4.761   2.619   6.482 -1.6495 -0.0504 -0.1043
  931SOL    HW2 8809   4.703   2.703   6.610  0.4774 -0.4363  1.1699
  932SOL     OW 8810   5.491   1.458   5.978  0.8691  0.3450 -0.4920
  932SOL    HW1 8811   5.527   1.539   6.023 -1.6582  1.6069 -0.5575
  932SOL    HW2 8812   5.408   1.482   5.928 -0.3813 -2.4122  0.0819
  933SOL     OW 8813   6.389   5.168   6.399 -0.9962 -0.3549  0.1384
  933SOL    HW1 8814   6.422   5.178   6.493 -2.5830  0.8997  0.6176
  933SOL    HW2 8815   6.361   5.257   6.364 -2.0126 -1.0535 -0.9120
  934SOL     OW 8816   4.684   3.033   1.387 -0.2042 -0.1584 -0.6005
  934SOL    HW1 8817   4.665   2.996   1.478 -3.4233  1.6797 -0.4095
  934SOL    HW2 8818   4.613   3.004   1.323  0.5628  0.7694 -1.9272
  935SOL     OW 8819   3.513   5.310   1.203 -0.5135  0.2440 -0.0281
  935SOL    HW1 8820   3.592   5.284   1.257 -0.7769 -0.0839  0.1980
  935SOL    HW2 8821   3.462   5.382   1.250 -0.3183  0.5004 -0.2035
  936SOL     OW 8822   0.438   4.406   0.501  0.9331 -0.0074 -0.6317
  936SOL    HW1 8823   0.526   4.374   0.537  0.6998 -0.3975 -0.4050
  936SOL    HW2 8824   0.420   4.361   0.413  0.7321 -0.2967 -0.4432
  937SOL     OW 8825   3.315   4.715   0.452 -0.4823  0.0367  0.2037
  937SOL    HW1 8826   3.290   4.676   0.541  0.9228  0.7436  0.9471
  937SOL    HW2 8827   3.403   4.763   0.461 -0.2657  0.0200 -1.6003
  938SOL     OW 8828   5.961   2.991   0.904 -0.0167  0.1082  0.1238
  938SOL    HW1 8829   5.878   3.037   0.935  0.2675  0.8630 -0.2144
  938SOL    HW2 8830   5.997   3.038   0.824  0.6138 -0.3533  0.1295
  939SOL     OW 8831   0.874   3.820   6.345  0.3483 -0.1646 -0.9551
  939SOL    HW1 8832   0.842   3.832   6.251 -1.7180 -2.6827 -0.6945
  939SOL    HW2 8833   0.932   3.739   6.351 -0.6552 -0.8467  0.1095
  940SOL     OW 8834   3.515   1.468   6.165  0.3779 -0.0553 -0.2696
  940SOL    HW1 8835   3.519   1.391   6.228  1.9679 -1.5096 -2.0321
  940SOL    HW2 8836   3.546   1.439   6.074  0.1268  2.4434 -1.2440
  941SOL     OW 8837   6.281   0.202   1.336 -0.8257  0.3469 -0.5827
  941SOL    HW1 8838   6.211   0.152   1.284 -0.9563 -0.0868 -0.0148
  941SOL    HW2 8839   6.261   0.300   1.334 -0.5008  0.3914 -1.8152
  942SOL     OW 8840   2.723   5.918   0.048 -0.5658  0.4935 -0.1504
  942SOL    HW1 8841   2.800   5.908  -0.016  0.5587  1.5875  0.9912
  942SOL    HW2 8842   2.735   5.854   0.124  1.0525  2.8355  1.7267
  943SOL     OW 8843   4.306   1.258   6.276  0.3575 -0.4393  0.1819
  943SOL    HW1 8844   4.336   1.166   6.249  0.8031 -0.8456  1.9585
  943SOL    HW2 8845   4.381   1.305   6.323  0.4571  1.2305 -1.5132
  944SOL     OW 8846   5.316   6.350   5.447 -0.2586  0.1705 -0.5528
  944SOL    HW1 8847   5.226   6.389   5.424 -0.1112  2.4703  2.2280
  944SOL    HW2 8848   5.303   6.268   5.502 -0.6304 -0.2683 -1.2812
  945SOL     OW 8849   5.322   2.651   0.828  0.0987  0.5907  0.6217
  945SOL    HW1 8850   5.408   2.602   0.812  0.2768  0.9871  0.3237
  945SOL    HW2 8851   5.283   2.680   0.740  0.2410  1.3784  0.8051
  946SOL     OW 8852   2.191   0.737   5.282  0.0592  0.1762 -0.4197
  946SOL    HW1 8853   2.234   0.825   5.263  1.5300  0.1383  2.2479
  946SOL    HW2 8854   2.256   0.663   5.263 -0.9606 -0.3503 -2.0689
  947SOL     OW 8855   1.283   5.681   1.502  0.2537 -0.1384  0.4279
  947SOL    HW1 8856   1.286   5.589   1.464 -1.1222  0.3762 -1.0920
  947SOL    HW2 8857   1.273   5.747   1.427 -1.4578  1.0331  1.5947
  948SOL     OW 8858   0.504   5.228   0.588  0.4400 -0.2869  0.4927
  948SOL    HW1 8859   0.445   5.296   0.543  2.0792  0.0678 -1.2635
  948SOL    HW2 8860   0.500   5.240   0.687  0.3314  2.0996  0.2498
  949SOL     OW 8861   1.640   5.959   0.435  0.5182 -0.0603  0.4976
  949SOL    HW1 8862   1.602   5.879   0.389  1.8982 -1.2499  1.3320
  949SOL    HW2 8863   1.644   6.036   0.371 -2.4202 -0.1014  0.1565
  950SOL     OW 8864   3.494   2.681   4.954  0.0125  0.0275 -0.4562
  950SOL    HW1 8865   3.577   2.737   4.948 -0.5843  0.8237 -1.6379
  950SOL    HW2 8866   3.449   2.678   4.865 -1.0080 -0.7534  0.0600
  951SOL     OW 8867   5.114   2.567   0.960  0.4162  0.5505  0.2326
  951SOL    HW1 8868   5.051   2.595   0.887  1.0018 -0.3223 -0.6297
  951SOL    HW2 8869   5.207   2.596   0.937  0.7252 -0.3928  0.2509
  952SOL     OW 8870   0.676   4.046   5.754 -0.7637  0.2471  0.0488
  952SOL    HW1 8871   0.762   4.054   5.704 -0.2310  2.0818  1.2132
  952SOL    HW2 8872   0.663   3.951   5.782  1.5775  0.1700  1.0550
  953SOL     OW 8873   5.836   0.305   5.212 -0.2980  0.4895 -0.2287
  953SOL    HW1 8874   5.773   0.239   5.254 -0.5416  0.1573 -1.0867
  953SOL    HW2 8875   5.792   0.346   5.131  0.3312  0.7602 -0.4393
  954SOL     OW 8876   4.948   3.109   0.154  0.0903  0.2449 -0.1744
  954SOL    HW1 8877   4.964   3.092   0.056 -1.0630 -1.9615 -0.0385
  954SOL    HW2 8878   5.030   3.085   0.205  0.3641  0.4401 -0.5159
  955SOL     OW 8879   4.089   0.074   5.888  0.2335  0.4884 -0.2177
  955SOL    HW1 8880   4.054  -0.019   5.879  2.0862 -0.1412 -1.7031
  955SOL    HW2 8881   4.176   0.081   5.840  1.1360  2.4859  1.5597
  956SOL     OW 8882   5.718   2.946   0.606  0.2744  0.3944  0.0922
  956SOL    HW1 8883   5.745   2.959   0.701 -1.4520 -0.5664  0.7493
  956SOL    HW2 8884   5.706   2.849   0.587  0.3458  0.5896 -1.0431
  957SOL     OW 8885   3.238   1.561   0.618  0.6018 -0.1205 -0.0839
  957SOL    HW1 8886   3.161   1.590   0.674  1.3119  0.2656  0.7250
  957SOL    HW2 8887   3.232   1.463   0.601 -0.5138  0.0601 -0.7497
  958SOL     OW 8888   0.087   2.857   5.519 -0.2007  0.0756 -0.0465
  958SOL    HW1 8889   0.104   2.955   5.514  0.6092 -0.0613 -0.0940
  958SOL    HW2 8890  -0.002   2.841   5.561 -0.2018  0.8240  0.2554
  959SOL     OW 8891   4.339   3.563   5.970 -0.6530  0.5107 -0.9408
  959SOL    HW1 8892   4.249   3.586   6.006 -1.0240 -1.9465 -0.0852
  959SOL    HW2 8893   4.329   3.508   5.887 -0.1342 -2.3624  0.7700
  960SOL     OW 8894   4.504   4.654   0.127  0.3835 -0.2138 -0.2493
  960SOL    HW1 8895   4.537   4.690   0.214  0.3968  2.4632 -1.2702
  960SOL    HW2 8896   4.409   4.682   0.113  0.9753  1.1619 -1.9160
  961SOL     OW 8897   4.236   0.154   5.509  0.2358 -0.5087  0.8816
  961SOL    HW1 8898   4.140   0.126   5.503  0.3357 -0.5733 -0.8743
  961SOL    HW2 8899   4.262   0.163   5.605 -0.7960 -2.9452  1.4610
  962SOL     OW 8900   3.365   5.267   5.677  0.7924 -0.3327 -0.1390
  962SOL    HW1 8901   3.352   5.340   5.745  0.2812 -0.0655 -0.5164
  962SOL    HW2 8902   3.349   5.178   5.720  0.5979 -0.1739  0.1253
  963SOL     OW 8903   5.624   4.895   1.557 -0.3850 -0.2694  0.1145
  963SOL    HW1 8904   5.558   4.840   1.607 -1.6363  0.3671 -0.8033
  963SOL    HW2 8905   5.657   4.844   1.478  0.4106 -0.6676  0.6866
  964SOL     OW 8906   3.805   4.939   6.252 -0.5941 -0.0051  0.2653
  964SOL    HW1 8907   3.814   5.034   6.222  1.0163 -0.0164  0.6460
  964SOL    HW2 8908   3.810   4.935   6.351 -0.3873 -0.5017  0.2360
  965SOL     OW 8909   5.914   5.400   6.464  0.1909 -0.2254  0.0249
  965SOL    HW1 8910   5.820   5.420   6.492  0.1123 -0.7757  0.1622
  965SOL    HW2 8911   5.926   5.301   6.454  0.7412 -0.1577 -0.0414
  966SOL     OW 8912   1.400   5.208   6.316  0.1123 -0.6468  0.4445
  966SOL    HW1 8913   1.336   5.142   6.355  0.5795 -0.7358  1.0809
  966SOL    HW2 8914   1.487   5.203   6.365  0.9036 -1.1205 -0.9442
  967SOL     OW 8915   4.973   4.711   0.530 -0.0685 -0.6358 -0.0799
  967SOL    HW1 8916   5.015   4.789   0.575  0.9426 -0.0017 -2.0172
  967SOL    HW2 8917   5.013   4.626   0.565 -1.0336 -0.3162  1.8925
  968SOL     OW 8918   3.114   0.960   0.966 -0.2517  0.1683  0.1312
  968SOL    HW1 8919   3.164   0.891   1.017 -0.0382 -1.1041 -1.6824
  968SOL    HW2 8920   3.164   1.046   0.968 -0.0938  0.0705  1.7295
  969SOL     OW 8921   4.293   0.307   0.512  0.7702 -0.8965 -0.5072
  969SOL    HW1 8922   4.360   0.378   0.536  1.5683 -1.2595 -1.5876
  969SOL    HW2 8923   4.325   0.219   0.547  1.6051 -1.3137 -2.2478
  970SOL     OW 8924   4.222   2.820   5.878 -0.1618  0.3997  0.2669
  970SOL    HW1 8925   4.317   2.803   5.906 -0.5518 -0.6403  0.9626
  970SOL    HW2 8926   4.223   2.867   5.789  1.0061  0.7331  0.4270
  971SOL     OW 8927   1.359   1.204   0.302 -0.1083  0.1932  0.8058
  971SOL    HW1 8928   1.420   1.257   0.361  1.0615 -0.7176  0.4552
  971SOL    HW2 8929   1.406   1.182   0.217 -0.8135 -0.8334  0.6641
  972SOL     OW 8930   1.230   5.491   5.873  0.2291 -0.5959 -0.2210
  972SOL    HW1 8931   1.318   5.478   5.918  1.3618 -1.4266 -2.5340
  972SOL    HW2 8932   1.227   5.582   5.830 -0.8928  0.2472  1.5307
  973SOL     OW 8933   2.303   4.427   0.921 -0.0533 -0.3893  0.5423
  973SOL    HW1 8934   2.224   4.369   0.938  0.5595 -0.6709  2.8205
  973SOL    HW2 8935   2.378   4.399   0.981  1.6992  0.0806 -1.2904
  974SOL     OW 8936   3.005   5.920   5.506  0.0232  0.4099 -0.7370
  974SOL    HW1 8937   2.985   5.934   5.409 -1.7433  0.4324 -0.3998
  974SOL    HW2 8938   3.011   6.009   5.552 -0.0891  0.3753 -0.6544
  975SOL     OW 8939   2.123   4.897   6.579 -0.0672  0.0655 -0.0295
  975SOL    HW1 8940   2.026   4.888   6.558 -0.1258 -1.5379  0.7600
  975SOL    HW2 8941   2.144   4.847   6.663  1.5162  0.0055 -0.4249
  976SOL     OW 8942   0.802   3.866   0.455 -0.1068 -0.1650  0.0637
  976SOL    HW1 8943   0.759   3.909   0.376 -0.0753 -0.1215  0.0699
  976SOL    HW2 8944   0.855   3.935   0.506  1.6535 -0.5952 -1.0827
  977SOL     OW 8945   3.898   0.249   5.285  0.9640 -0.5706 -0.3954
  977SOL    HW1 8946   3.938   0.191   5.357 -0.5571 -1.2623 -0.0574
  977SOL    HW2 8947   3.954   0.242   5.202  1.2366 -1.9477 -0.1260
  978SOL     OW 8948   3.667   0.142   5.327  0.4001 -0.3623  0.7636
  978SOL    HW1 8949   3.599   0.212   5.345  1.0435  0.6163 -0.3945
  978SOL    HW2 8950   3.756   0.185   5.313  0.8869 -1.4440  0.3847
  979SOL     OW 8951   1.188   4.012   0.004  0.4311  0.6519 -0.3843
  979SOL    HW1 8952   1.181   3.923   0.050  2.1256 -0.1384 -1.5653
  979SOL    HW2 8953   1.100   4.035  -0.038  0.2699 -1.0276 -1.0286
  980SOL     OW 8954   1.966   3.755   0.296 -0.0472 -0.3559 -0.8546
  980SOL    HW1 8955   2.053   3.743   0.249  0.3403  1.0753 -0.5429
  980SOL    HW2 8956   1.927   3.844   0.271 -2.5384 -1.8520 -2.7678
  981SOL     OW 8957   6.197   5.536   0.864 -0.4046 -0.6274  0.2787
  981SOL    HW1 8958   6.098   5.545   0.861 -0.2402  2.4018  0.0814
  981SOL    HW2 8959   6.225   5.497   0.952 -1.7512 -0.9991  0.5568
  982SOL     OW 8960   0.465   2.321   0.213 -0.1343  0.1923 -0.0859
  982SOL    HW1 8961   0.556   2.295   0.181  0.8396  1.3747  1.5809
  982SOL    HW2 8962   0.414   2.362   0.137 -0.1376 -2.4242 -1.6090
  983SOL     OW 8963   3.253   0.337   6.429 -0.9436  0.3477 -0.2113
  983SOL    HW1 8964   3.260   0.430   6.394  1.5170 -0.8659 -3.3628
  983SOL    HW2 8965   3.189   0.285   6.372  2.0455 -1.2894 -2.3409
  984SOL     OW 8966   2.484   1.569   0.069 -0.1093 -0.2002 -0.1906
  984SOL    HW1 8967   2.504   1.626   0.148 -0.1849 -1.2904  0.6434
  984SOL    HW2 8968   2.569   1.548   0.021  0.0306 -0.1358  0.0294
  985SOL     OW 8969   2.834   0.549   0.665 -0.2798 -0.6865 -0.1767
  985SOL    HW1 8970   2.864   0.600   0.584  0.8540 -2.5784 -1.0125
  985SOL    HW2 8971   2.880   0.585   0.746  0.2071 -0.1470 -0.6845
  986SOL     OW 8972   5.917   1.375   6.227 -0.2389  0.2559 -0.2875
  986SOL    HW1 8973   5.826   1.381   6.269  0.6111  0.8387  1.5664
  986SOL    HW2 8974   5.934   1.458   6.173 -0.2972  0.7833  0.4834
  987SOL     OW 8975   2.231   1.007   1.269  0.4315  0.2899  0.0238
  987SOL    HW1 8976   2.275   1.060   1.341  2.1463 -1.3584  0.2619
  987SOL    HW2 8977   2.160   0.949   1.309 -0.0286  0.8723  0.0633
  988SOL     OW 8978   1.204   1.604   5.588  0.1919  0.3295 -0.4073
  988SOL    HW1 8979   1.226   1.511   5.558 -1.9599 -0.6397  0.8123
  988SOL    HW2 8980   1.116   1.632   5.550 -0.6421  0.6481  1.5994
  989SOL     OW 8981   2.577   1.324   5.938  0.3773 -0.2330 -0.6670
  989SOL    HW1 8982   2.538   1.403   5.891 -1.0087  0.6306  1.7517
  989SOL    HW2 8983   2.514   1.293   6.009  2.3112 -1.4734  0.6132
  990SOL     OW 8984   3.178   5.136   0.297  0.4102  0.1221  0.1642
  990SOL    HW1 8985   3.134   5.049   0.276 -1.1745  0.5490  1.5134
  990SOL    HW2 8986   3.111   5.210   0.290  0.5761  0.7010  3.1118
  991SOL     OW 8987   3.174   3.225   0.715  0.1131  0.4783  0.2985
  991SOL    HW1 8988   3.098   3.232   0.780  1.0465  0.4719  1.4226
  991SOL    HW2 8989   3.140   3.190   0.628 -0.8603 -1.4443  1.3899
  992SOL     OW 8990   0.902   5.268   0.786  0.1520  0.5426 -0.4391
  992SOL    HW1 8991   0.854   5.349   0.820 -2.5629 -1.8017  1.7842
  992SOL    HW2 8992   0.868   5.244   0.695 -0.5397  0.7268 -0.2282
  993SOL     OW 8993   5.555   3.189   1.711 -0.4516  0.3270 -0.1767
  993SOL    HW1 8994   5.646   3.161   1.683 -0.3198 -0.7992  1.2655
  993SOL    HW2 8995   5.561   3.267   1.774 -0.5438  0.6214 -0.5221
  994SOL     OW 8996   0.484   2.302   6.385  0.3235  0.1533 -0.7391
  994SOL    HW1 8997   0.580   2.285   6.362  0.5180  2.9494 -2.2712
  994SOL    HW2 8998   0.479   2.366   6.462 -0.3018  0.6260 -1.1665
  995SOL     OW 8999   0.095   1.877   0.839 -0.0505  0.0238 -0.0819
  995SOL    HW1 9000   0.152   1.815   0.785  0.1314 -1.6314  1.8838
  995SOL    HW2 9001   0.027   1.823   0.890 -1.7328  1.7285 -0.4254
  996SOL     OW 9002   2.165   5.425   4.750  0.1835 -0.4067  0.0927
  996SOL    HW1 9003   2.230   5.425   4.674 -0.1122 -1.5678 -0.1786
  996SOL    HW2 9004   2.083   5.375   4.723 -1.8235  2.7817 -0.3642
  997SOL     OW 9005   0.512   4.365   1.438  0.0513  0.0904  0.4753
  997SOL    HW1 9006   0.606   4.364   1.470  0.0295 -1.2201  0.5655
  997SOL    HW2 9007   0.491   4.454   1.399  0.8701  0.8716  1.7564
  998SOL     OW 9008   1.520   6.250   1.574  0.1818  0.3570 -0.5503
  998SOL    HW1 9009   1.581   6.329   1.576  1.1831 -0.3906 -0.6351
  998SOL    HW2 9010   1.506   6.216   1.667  0.0018  0.4456 -0.5448
  999SOL     OW 9011   2.240   1.925   5.239 -0.3647 -0.0681 -0.1982
  999SOL    HW1 9012   2.230   2.020   5.269  0.1642 -0.2381  0.5242
  999SOL    HW2 9013   2.314   1.919   5.172 -0.0408 -0.0603  0.1596
 1000SOL     OW 9014   3.499   4.908   0.580 -0.4900  0.0270 -0.1404
 1000SOL    HW1 9015   3.413   4.912   0.632 -0.8262  0.5516 -0.7206
 1000SOL    HW2 9016   3.552   4.990   0.599 -0.6179  0.2245 -0.6222
 1001SOL     OW 9017   4.778   0.623   1.547 -0.2147 -0.2374  0.0057
 1001SOL    HW1 9018   4.750   0.563   1.621  0.2810  0.0125  0.4056
 1001SOL    HW2 9019   4.877   0.636   1.551 -0.4094  1.3167  0.4888
 1002SOL     OW 9020   2.785   3.035   0.352  0.4505  0.0998  0.0782
 1002SOL    HW1 9021   2.774   2.935   0.351  2.4882 -0.1685 -1.5010
 1002SOL    HW2 9022   2.835   3.062   0.434  1.2911 -0.3834 -0.2588
 1003SOL     OW 9023   2.274   1.138   5.193 -0.2356  0.3628  0.2843
 1003SOL    HW1 9024   2.177   1.128   5.170  0.3792 -1.6124 -1.7565
 1003SOL    HW2 9025   2.316   1.204   5.130  0.0943 -0.0718  0.0472
 1004SOL     OW 9026   5.362   4.733   0.001  0.2642  0.5178  0.1179
 1004SOL    HW1 9027   5.389   4.829   0.012  0.5047  0.3382  1.3045
 1004SOL    HW2 9028   5.272   4.719   0.043  0.1946  0.2459 -0.1235
 1005SOL     OW 9029   3.428   1.492   5.277 -0.0770  0.3687  0.7250
 1005SOL    HW1 9030   3.380   1.571   5.241  0.0396  0.2403  0.2836
 1005SOL    HW2 9031   3.435   1.422   5.206 -0.1269 -0.0124  1.0947
 1006SOL     OW 9032   0.205   0.639   5.882  0.4338  0.3243  0.5725
 1006SOL    HW1 9033   0.210   0.707   5.809  2.3287 -0.0138  0.3191
 1006SOL    HW2 9034   0.293   0.592   5.890  0.2101  0.1465  2.9013
 1007SOL     OW 9035   6.056   2.779   6.349 -0.4503 -0.3585 -0.4353
 1007SOL    HW1 9036   6.118   2.857   6.364 -0.4447 -0.3374 -0.5659
 1007SOL    HW2 9037   5.961   2.811   6.354 -0.4774 -0.5912  0.8872
 1008SOL     OW 9038   1.291   3.401   5.905  0.1300  0.4908  0.2491
 1008SOL    HW1 9039   1.372   3.353   5.939  0.0027 -0.9047 -1.2342
 1008SOL    HW2 9040   1.284   3.386   5.806 -1.9876  0.4737  0.3566
 1009SOL     OW 9041   5.058   0.959   6.004 -0.0398  0.0066  0.1699
 1009SOL    HW1 9042   4.986   1.025   5.984 -2.0746 -2.0592  0.2493
 1009SOL    HW2 9043   5.088   0.916   5.918 -0.2726 -0.4704  0.3245
 1010SOL     OW 9044   3.101   1.163   5.158  0.1614 -0.5389  0.0984
 1010SOL    HW1 9045   3.104   1.234   5.228 -1.2258 -1.1645  0.8338
 1010SOL    HW2 9046   3.013   1.115   5.162  0.7151 -1.7255 -0.9558
 1011SOL     OW 9047   4.234   6.110   5.199  0.2195  0.0162 -0.0107
 1011SOL    HW1 9048   4.188   6.169   5.265 -0.2703 -0.4456  0.0617
 1011SOL    HW2 9049   4.170   6.043   5.162 -0.1624  1.6865 -2.6737
 1012SOL     OW 9050   6.093   1.175   0.717 -0.1315  0.0150 -0.2301
 1012SOL    HW1 9051   6.078   1.135   0.807  1.0154  0.2918  0.1053
 1012SOL    HW2 9052   6.050   1.266   0.713 -0.0486  0.0684  0.0954
 1013SOL     OW 9053   0.688   2.746   5.929 -0.3349 -0.3335  0.6292
 1013SOL    HW1 9054   0.629   2.765   6.008  0.8272 -0.2736  1.5016
 1013SOL    HW2 9055   0.714   2.833   5.886  0.1792 -0.2836  1.0385
 1014SOL     OW 9056   5.888   5.062   5.514  0.0140 -0.1963 -0.8169
 1014SOL    HW1 9057   5.930   5.004   5.583 -0.7944 -0.9930 -0.9769
 1014SOL    HW2 9058   5.960   5.103   5.457  0.6900  0.5260  0.5182
 1015SOL     OW 9059   1.803   5.372   5.025 -0.3774 -0.1129 -0.1539
 1015SOL    HW1 9060   1.780   5.444   5.091 -0.1185  0.8379 -1.0731
 1015SOL    HW2 9061   1.802   5.284   5.071 -2.0475  0.3091  0.6978
 1016SOL     OW 9062   3.904   2.037   0.226 -0.3518 -0.3933 -0.4218
 1016SOL    HW1 9063   3.924   1.986   0.310 -1.1753  0.1200  0.1023
 1016SOL    HW2 9064   3.989   2.075   0.189  0.1628 -1.4695 -0.3907
 1017SOL     OW 9065   3.567   4.543   5.989  0.2565  0.3245 -0.1440
 1017SOL    HW1 9066   3.555   4.561   5.891 -0.8948  0.7235  0.0594
 1017SOL    HW2 9067   3.630   4.611   6.027 -0.8451  1.4152 -0.2193
 1018SOL     OW 9068   4.721   4.178   6.576  0.1770  0.0326 -0.0470
 1018SOL    HW1 9069   4.712   4.226   6.664  1.6388 -0.9268  0.6541
 1018SOL    HW2 9070   4.695   4.082   6.587  1.8623 -0.4839 -0.2395
 1019SOL     OW 9071   1.297   2.501   0.384  0.3432  0.3325  1.2305
 1019SOL    HW1 9072   1.356   2.581   0.389 -0.1735  1.0204 -1.8439
 1019SOL    HW2 9073   1.284   2.475   0.288 -1.8702 -1.6561  1.9813
 1020SOL     OW 9074   5.458   3.708   5.110 -0.0285 -0.6328  0.3718
 1020SOL    HW1 9075   5.471   3.780   5.178  0.8304 -1.1825  0.7977
 1020SOL    HW2 9076   5.533   3.642   5.116 -1.5030 -2.3196  0.9174
 1021SOL     OW 9077   0.408   4.186   0.278  0.2616 -0.4445 -0.1036
 1021SOL    HW1 9078   0.479   4.187   0.207 -1.5155 -1.3681 -2.0025
 1021SOL    HW2 9079   0.441   4.133   0.356  1.4255 -1.5192 -1.2440
 1022SOL     OW 9080   2.932   5.615   1.329  0.0506  0.4919 -0.0858
 1022SOL    HW1 9081   2.913   5.705   1.367 -0.0605  0.8508 -0.9684
 1022SOL    HW2 9082   3.015   5.578   1.370  1.1174  1.7871 -1.0043
 1023SOL     OW 9083   0.896   3.602   5.677  0.0468 -0.1447 -0.3121
 1023SOL    HW1 9084   0.946   3.673   5.628  2.6070 -1.4970  0.1774
 1023SOL    HW2 9085   0.939   3.585   5.766 -0.4600 -2.3185 -0.4096
 1024SOL     OW 9086   3.890   5.682   5.170 -0.1966  0.7508  0.3481
 1024SOL    HW1 9087   3.813   5.746   5.177 -1.2389 -0.4109 -0.1376
 1024SOL    HW2 9088   3.861   5.600   5.121  0.7690 -0.6100  1.9351
 1025SOL     OW 9089   6.060   4.424   5.618  0.4523 -0.0989  0.0499
 1025SOL    HW1 9090   6.075   4.441   5.521  1.2650  1.9511  0.4877
 1025SOL    HW2 9091   6.143   4.385   5.658  0.6936  0.6003  0.2371
 1026SOL     OW 9092   2.318   3.891   0.341  0.0976  0.2448 -0.5934
 1026SOL    HW1 9093   2.389   3.959   0.318 -0.5399  1.0490 -0.2191
 1026SOL    HW2 9094   2.251   3.933   0.402 -0.6526 -0.5429 -0.8740
 1027SOL     OW 9095   5.723   2.058   0.934 -0.1890 -0.2808 -0.0717
 1027SOL    HW1 9096   5.774   2.136   0.898 -1.9378  0.3674 -1.3326
 1027SOL    HW2 9097   5.772   1.973   0.914  0.2187  0.2791 -1.5881
 1028SOL     OW 9098   1.927   3.529   6.545 -0.1156  0.0820  0.1497
 1028SOL    HW1 9099   1.990   3.506   6.619  1.1808 -1.1837 -1.2715
 1028SOL    HW2 9100   1.977   3.529   6.458 -1.8744  0.1002 -0.9008
 1029SOL     OW 9101   6.342   1.062   0.330 -0.6371  0.2824  0.9796
 1029SOL    HW1 9102   6.313   0.967   0.323 -0.8989  0.3567  1.0803
 1029SOL    HW2 9103   6.297   1.116   0.259  0.4773  0.0954  0.0848
 1030SOL     OW 9104   3.659   4.424   0.246  0.6835 -0.0391  0.4436
 1030SOL    HW1 9105   3.614   4.382   0.325  1.5852 -0.7697  0.5941
 1030SOL    HW2 9106   3.707   4.507   0.275  0.4192  0.0853  0.5226
 1031SOL     OW 9107   3.562   2.916   6.430 -0.0445 -0.1453  0.1123
 1031SOL    HW1 9108   3.645   2.954   6.390 -1.4211  1.4886 -1.3410
 1031SOL    HW2 9109   3.518   2.856   6.364 -0.2389 -0.7070  0.7369
 1032SOL     OW 9110   3.788   5.622   5.562  0.0410  0.0373 -0.6835
 1032SOL    HW1 9111   3.718   5.619   5.633  0.1588  2.2598 -0.4054
 1032SOL    HW2 9112   3.877   5.598   5.602  0.3304  2.4407  0.3316
 1033SOL     OW 9113   1.108   0.369   5.947 -0.3161 -0.2450 -0.0025
 1033SOL    HW1 9114   1.105   0.467   5.930 -0.4148 -0.4496 -1.2563
 1033SOL    HW2 9115   1.172   0.326   5.883 -0.8770 -1.1042 -0.0057
 1034SOL     OW 9116   4.943   3.816   6.139  0.0541  0.0506 -0.2302
 1034SOL    HW1 9117   4.914   3.740   6.080 -1.0052  0.7569 -0.6579
 1034SOL    HW2 9118   4.894   3.899   6.112  0.6826  0.7317  0.6773
 1035SOL     OW 9119   5.799   3.669   6.138  0.0974  0.1389 -0.0825
 1035SOL    HW1 9120   5.767   3.675   6.233  0.3861  0.9399 -0.0357
 1035SOL    HW2 9121   5.888   3.712   6.129  0.4243 -0.6046 -0.5710
 1036SOL     OW 9122   1.410   3.656   5.840 -0.2737  0.0283  0.2488
 1036SOL    HW1 9123   1.341   3.712   5.795 -1.8309 -2.4065 -0.6078
 1036SOL    HW2 9124   1.364   3.584   5.893  1.5602 -1.7998 -0.5083
 1037SOL     OW 9125   6.330   4.177   6.224 -0.7552 -0.3243 -0.3785
 1037SOL    HW1 9126   6.246   4.125   6.207 -0.4941 -0.6441 -0.7144
 1037SOL    HW2 9127   6.306   4.266   6.264 -1.1634 -1.0200  1.0169
 1038SOL     OW 9128   3.348   6.103   5.226 -0.0596  0.3146 -0.5051
 1038SOL    HW1 9129   3.448   6.102   5.229 -0.0650  0.9613  0.1313
 1038SOL    HW2 9130   3.318   6.143   5.139  0.2243 -0.4214 -0.9509
 1039SOL     OW 9131   4.411   2.520   5.907 -0.0342  0.1822 -0.0251
 1039SOL    HW1 9132   4.455   2.459   5.973 -1.4283 -0.4701  0.3383
 1039SOL    HW2 9133   4.450   2.612   5.915  0.1924 -0.0148  1.3328
 1040SOL     OW 9134   5.113   3.657   4.789  0.5265  0.1664 -0.2705
 1040SOL    HW1 9135   5.121   3.712   4.706  2.1928  0.1574 -0.1330
 1040SOL    HW2 9136   5.166   3.699   4.863 -0.0980 -0.3769  0.5086
 1041SOL     OW 9137   6.020   4.727   6.189 -0.0982  0.1200 -0.3842
 1041SOL    HW1 9138   5.941   4.666   6.203  1.0613 -1.3007  0.3193
 1041SOL    HW2 9139   6.015   4.803   6.254 -0.8375  0.0047 -0.2903
 1042SOL     OW 9140   6.138   3.454   0.139 -0.3482  0.1002  0.0343
 1042SOL    HW1 9141   6.061   3.417   0.190 -0.0936  2.6058  2.4541
 1042SOL    HW2 9142   6.214   3.473   0.201  0.0054  3.3290 -1.1624
 1043SOL     OW 9143   0.285   6.265   6.425  0.2761 -0.3910  0.1075
 1043SOL    HW1 9144   0.360   6.288   6.363 -0.2928 -0.5243 -0.6450
 1043SOL    HW2 9145   0.317   6.271   6.519  1.4436 -1.1927 -0.2212
 1044SOL     OW 9146   5.111   4.483   0.671 -0.1464 -0.1709 -0.0303
 1044SOL    HW1 9147   5.039   4.415   0.658  1.6230 -1.9599 -1.0114
 1044SOL    HW2 9148   5.124   4.501   0.768 -1.4919 -0.2359  0.1836
 1045SOL     OW 9149   0.336   1.180   5.863 -1.0896  0.1485  0.4634
 1045SOL    HW1 9150   0.379   1.222   5.943  1.1163 -2.5434  0.8234
 1045SOL    HW2 9151   0.378   1.215   5.780  0.0356 -0.5293  0.7225
 1046SOL     OW 9152   0.027   5.347   0.250  0.1030 -0.1990 -0.3735
 1046SOL    HW1 9153  -0.048   5.400   0.288 -0.1005  0.7665 -2.0384
 1046SOL    HW2 9154   0.008   5.249   0.261 -0.3004  0.0311  1.2309
 1047SOL     OW 9155   4.627   3.467   5.889  0.3453  0.2515  0.5203
 1047SOL    HW1 9156   4.658   3.543   5.832  0.5901  0.6055  1.1136
 1047SOL    HW2 9157   4.538   3.489   5.929  0.7160  0.5011  1.2116
 1048SOL     OW 9158   4.567   5.677   0.116 -0.2070  0.9755 -0.1126
 1048SOL    HW1 9159   4.653   5.691   0.067 -0.6723  3.0279 -0.4503
 1048SOL    HW2 9160   4.528   5.589   0.089  2.1347 -0.3929  0.6842
 1049SOL     OW 9161   2.010   0.284   1.235  0.2251 -0.1765  0.2937
 1049SOL    HW1 9162   2.070   0.362   1.253 -0.7075  1.2020 -2.0789
 1049SOL    HW2 9163   1.932   0.287   1.298  0.0114  1.0630  0.0019
 1050SOL     OW 9164   4.585   6.144   5.931  0.6053 -0.0440  0.4265
 1050SOL    HW1 9165   4.602   6.185   6.020  1.6786 -0.0721  0.2443
 1050SOL    HW2 9166   4.506   6.082   5.938 -0.4344  1.2959  0.9152
 1051SOL     OW 9167   0.801   2.185   5.493 -0.3953 -0.4592  0.5373
 1051SOL    HW1 9168   0.838   2.273   5.523 -0.3737 -0.3663  0.2421
 1051SOL    HW2 9169   0.759   2.138   5.571 -0.3168 -0.2334  0.7169
 1052SOL     OW 9170   4.404   0.168   0.075  0.8808 -0.0915 -0.0144
 1052SOL    HW1 9171   4.414   0.069   0.085 -0.6748 -0.4902 -1.7807
 1052SOL    HW2 9172   4.423   0.194  -0.020 -1.4077  0.8563 -0.2805
 1053SOL     OW 9173   0.006   3.901   0.718  0.3055  0.0068  0.1375
 1053SOL    HW1 9174  -0.040   3.988   0.738  2.5108  1.2955 -0.0340
 1053SOL    HW2 9175   0.042   3.904   0.625 -0.7577 -1.6899 -0.3662
 1054SOL     OW 9176   2.918   5.240   0.749 -0.0604  0.2737  0.2051
 1054SOL    HW1 9177   2.874   5.232   0.659 -1.2992 -2.0605  0.9273
 1054SOL    HW2 9178   3.011   5.275   0.737 -0.3770  0.5689 -1.9243
 1055SOL     OW 9179   3.238   2.721   6.562  0.7879  0.6110  0.1104
 1055SOL    HW1 9180   3.332   2.690   6.576  0.5910  0.0108  0.1399
 1055SOL    HW2 9181   3.178   2.642   6.550 -0.1884  0.7939  2.9538
 1056SOL     OW 9182   3.755   2.461   1.185  0.2648 -0.8454 -0.2832
 1056SOL    HW1 9183   3.715   2.397   1.251  1.1979 -0.4787  0.6710
 1056SOL    HW2 9184   3.850   2.479   1.210 -0.4659  2.3934  0.6327
 1057SOL     OW 9185   3.741   3.917   1.324 -0.3365  0.0118  0.6068
 1057SOL    HW1 9186   3.804   3.839   1.320  0.3140  0.5167  0.8191
 1057SOL    HW2 9187   3.649   3.887   1.296  0.6944  0.0589 -3.4321
 1058SOL     OW 9188   1.712   4.407   0.030  0.3069  0.5431 -0.1260
 1058SOL    HW1 9189   1.708   4.311   0.003  1.4786 -1.3502  5.2552
 1058SOL    HW2 9190   1.625   4.434   0.070  0.1027  1.7358 -1.2893
 1059SOL     OW 9191   3.375   2.802   6.281 -0.5870 -0.1697  0.3129
 1059SOL    HW1 9192   3.364   2.897   6.309 -2.1653  0.8526 -3.1826
 1059SOL    HW2 9193   3.286   2.762   6.258  0.3456 -0.4657 -3.6937
 1060SOL     OW 9194   5.414   0.575   6.330  0.1622 -0.1043 -0.1313
 1060SOL    HW1 9195   5.437   0.503   6.265 -0.3498  1.5208 -2.2008
 1060SOL    HW2 9196   5.498   0.620   6.362  0.3286  0.6169 -1.5242
 1061SOL     OW 9197   0.103   4.740   0.552  0.2340 -0.3238  0.0297
 1061SOL    HW1 9198   0.017   4.781   0.521 -0.9710 -2.3568  0.5057
 1061SOL    HW2 9199   0.153   4.704   0.473 -1.7785 -3.5228  0.0370
 1062SOL     OW 9200   4.285   0.975   5.452 -0.2033 -0.7595 -0.7216
 1062SOL    HW1 9201   4.365   0.984   5.511  1.3605 -2.0877 -2.5202
 1062SOL    HW2 9202   4.279   1.055   5.393  0.3395 -1.0577 -1.1896
 1063SOL     OW 9203   2.592   3.749   5.883 -0.1294  0.2418  0.0558
 1063SOL    HW1 9204   2.594   3.653   5.911 -0.8001 -0.2394 -1.4711
 1063SOL    HW2 9205   2.648   3.763   5.802 -0.1849  1.1110  0.1492
 1064SOL     OW 9206   3.385   0.038   4.786  0.5041 -0.4644 -0.2460
 1064SOL    HW1 9207   3.359  -0.057   4.769  0.2272 -0.7859  1.7093
 1064SOL    HW2 9208   3.337   0.098   4.723 -0.8978 -1.4742 -0.1824
 1065SOL     OW 9209   4.585   0.727   0.481  0.3611 -0.6810 -0.2653
 1065SOL    HW1 9210   4.515   0.754   0.415 -0.7335  1.3215  1.5775
 1065SOL    HW2 9211   4.658   0.796   0.482 -0.2678  0.0246  1.4128
 1066SOL     OW 9212   3.281   5.826   5.716 -0.0612 -0.5647  0.3527
 1066SOL    HW1 9213   3.322   5.824   5.808 -0.6382 -1.5838  0.6037
 1066SOL    HW2 9214   3.185   5.802   5.723 -0.1943 -0.2702 -0.4850
 1067SOL     OW 9215   2.138   1.270   6.516 -0.0208 -0.1980  0.2892
 1067SOL    HW1 9216   2.131   1.204   6.441  0.6498  2.3590 -2.1631
 1067SOL    HW2 9217   2.234   1.278   6.544  0.2141  1.1363 -0.8178
 1068SOL     OW 9218   5.702   2.241   6.519 -0.0462 -0.4432  0.3457
 1068SOL    HW1 9219   5.608   2.213   6.500  0.5001 -1.2658 -1.4171
 1068SOL    HW2 9220   5.760   2.159   6.527  0.7949  0.0674 -0.2892
 1069SOL     OW 9221   4.905   4.000   0.798  0.1900  0.5719  0.5403
 1069SOL    HW1 9222   4.947   3.911   0.779 -0.9445 -0.0288  0.7566
 1069SOL    HW2 9223   4.971   4.058   0.845  1.5281  0.4726 -1.1071
 1070SOL     OW 9224   4.381   5.150   1.745  0.3270  0.3848 -0.4803
 1070SOL    HW1 9225   4.362   5.248   1.743  1.1192  0.5317 -1.2736
 1070SOL    HW2 9226   4.354   5.109   1.657 -3.3046 -0.7860  0.9723
 1071SOL     OW 9227   2.780   5.881   0.387 -0.2978  0.0519 -0.7029
 1071SOL    HW1 9228   2.709   5.951   0.381  0.2118  0.5317 -1.5052
 1071SOL    HW2 9229   2.762   5.821   0.464 -0.3922  1.4725  0.4246
 1072SOL     OW 9230   5.908   0.028   0.849 -0.0690  0.4639  0.2756
 1072SOL    HW1 9231   6.000   0.034   0.889 -0.1135  1.2025  0.2713
 1072SOL    HW2 9232   5.875  -0.066   0.859  0.4770  0.3081  0.7421
 1073SOL     OW 9233   5.426   5.618   0.764 -0.2446  0.2041 -0.4550
 1073SOL    HW1 9234   5.360   5.545   0.779 -0.2635  0.4598  0.8200
 1073SOL    HW2 9235   5.382   5.707   0.776 -0.1979  0.4344 -1.8861
 1074SOL     OW 9236   1.078   5.071   0.219  0.1877  0.1245  0.4205
 1074SOL    HW1 9237   1.132   4.994   0.186 -0.3157  0.3313 -0.9398
 1074SOL    HW2 9238   0.981   5.051   0.208  0.0466  0.8819  0.1929
 1075SOL     OW 9239   2.980   4.961   0.147  0.1315  0.2051  0.4517
 1075SOL    HW1 9240   2.959   5.046   0.098  1.2245  0.1840 -0.0954
 1075SOL    HW2 9241   2.902   4.934   0.203 -1.0061  0.4863 -0.9351
 1076SOL     OW 9242   4.471   5.941   5.669 -0.5095  0.4187 -0.1922
 1076SOL    HW1 9243   4.462   5.916   5.765 -1.3236  1.6174  0.0524
 1076SOL    HW2 9244   4.393   5.906   5.617 -0.3699  0.2835 -0.3134
 1077SOL     OW 9245   3.141   5.883   6.207  0.2550  0.3976 -0.7473
 1077SOL    HW1 9246   3.064   5.901   6.268  0.2904 -1.0679 -0.2355
 1077SOL    HW2 9247   3.111   5.895   6.112 -0.9084 -1.0119 -0.6097
 1078SOL     OW 9248   5.114   6.366   0.288  0.3703 -0.0588 -0.2449
 1078SOL    HW1 9249   5.213   6.358   0.299  0.3955  0.1590 -0.2990
 1078SOL    HW2 9250   5.094   6.443   0.228  0.0986  1.2076  1.3960
 1079SOL     OW 9251   2.903   5.460   5.883  0.1516 -0.3868 -1.0252
 1079SOL    HW1 9252   2.815   5.507   5.872  0.2508 -0.3954 -1.9835
 1079SOL    HW2 9253   2.917   5.437   5.979 -0.7644 -0.1323 -0.8207
 1080SOL     OW 9254   2.453   3.786   6.178  0.2073  0.3952 -0.2719
 1080SOL    HW1 9255   2.474   3.723   6.103  1.0537  0.5740 -0.1975
 1080SOL    HW2 9256   2.503   3.758   6.260 -1.4610 -0.3723  0.5235
 1081SOL     OW 9257   2.071   3.561   0.889 -0.4113  0.0286 -0.0609
 1081SOL    HW1 9258   2.152   3.537   0.942 -1.3542 -2.0512  0.5439
 1081SOL    HW2 9259   2.079   3.655   0.856  1.9083  0.0937  0.5513
 1082SOL     OW 9260   3.936   4.001   0.629 -0.9899 -0.5017 -0.1510
 1082SOL    HW1 9261   3.849   4.049   0.619 -0.5253  0.4326  0.1820
 1082SOL    HW2 9262   4.011   4.061   0.600 -0.5487 -1.7968 -1.8285
 1083SOL     OW 9263   1.398   2.787   6.255  0.2163  0.0463  0.2059
 1083SOL    HW1 9264   1.335   2.781   6.332  0.3420 -2.7178  0.2034
 1083SOL    HW2 9265   1.490   2.809   6.288 -0.2289  1.6543  0.4710
 1084SOL     OW 9266   1.814   1.161   5.833 -1.0026  0.5038  0.0807
 1084SOL    HW1 9267   1.742   1.206   5.781 -0.1447 -0.8122 -2.4030
 1084SOL    HW2 9268   1.902   1.175   5.788 -0.1926 -0.6671  1.2052
 1085SOL     OW 9269   3.311   1.154   0.955  0.7946 -1.1084 -0.1347
 1085SOL    HW1 9270   3.386   1.102   0.915  1.7172  0.9832 -1.2625
 1085SOL    HW2 9271   3.326   1.165   1.053  2.2424 -0.3079 -0.4250
 1086SOL     OW 9272   2.712   6.300   6.511  0.0549 -0.6642  0.4142
 1086SOL    HW1 9273   2.791   6.361   6.506  0.5051 -1.3023 -0.9928
 1086SOL    HW2 9274   2.738   6.210   6.474 -1.1754 -1.0627  0.4748
 1087SOL     OW 9275   1.875   2.607   4.727  0.2936  0.3530  0.2696
 1087SOL    HW1 9276   1.857   2.544   4.803  1.1964  0.9775  1.0370
 1087SOL    HW2 9277   1.964   2.586   4.687 -1.1516 -1.4702 -2.1967
 1088SOL     OW 9278   0.955   4.504   5.773  0.0143 -0.7750 -0.4091
 1088SOL    HW1 9279   0.974   4.412   5.739 -1.0670 -1.7874  1.5262
 1088SOL    HW2 9280   0.983   4.510   5.869  1.3087  1.3754 -0.8744
 1089SOL     OW 9281   1.615   2.450   5.537 -0.4186 -0.4410  0.7559
 1089SOL    HW1 9282   1.651   2.374   5.592 -1.2922 -2.0590 -0.8129
 1089SOL    HW2 9283   1.535   2.419   5.486  0.4523  0.9159 -1.5829
 1090SOL     OW 9284   2.704   4.651   6.098  1.1629 -0.1144  0.0246
 1090SOL    HW1 9285   2.695   4.733   6.042  0.5041  1.1349  1.8703
 1090SOL    HW2 9286   2.641   4.581   6.065 -1.2493  1.5645  0.8154
 1091SOL     OW 9287   5.764   2.435   0.358 -0.1571 -0.5856 -0.2404
 1091SOL    HW1 9288   5.712   2.445   0.273  0.4724  1.4813 -0.4476
 1091SOL    HW2 9289   5.859   2.459   0.342 -0.1733  0.5707  1.1929
 1092SOL     OW 9290   6.324   4.325   5.213 -1.2196  0.0180  0.1721
 1092SOL    HW1 9291   6.240   4.371   5.243 -1.6719 -1.0227  0.5362
 1092SOL    HW2 9292   6.352   4.363   5.125 -1.0093  1.6928  0.9308
 1093SOL     OW 9293   5.581   5.034   6.382  0.4052  0.6336  0.1135
 1093SOL    HW1 9294   5.526   5.087   6.317 -0.5862 -0.0585  0.3717
 1093SOL    HW2 9295   5.622   4.956   6.335 -1.2222 -0.5076  0.5218
 1094SOL     OW 9296   3.011   0.674   0.385 -0.1387  0.3475 -0.3474
 1094SOL    HW1 9297   3.013   0.705   0.479 -1.9751 -1.4928  0.3819
 1094SOL    HW2 9298   3.098   0.632   0.361  0.8918  2.2165 -0.0319
 1095SOL     OW 9299   3.881   2.723   5.798 -0.0646 -0.1238  0.4270
 1095SOL    HW1 9300   3.909   2.652   5.862  2.4014  0.3473 -0.0344
 1095SOL    HW2 9301   3.822   2.683   5.727  0.6612 -1.5541  0.6022
 1096SOL     OW 9302   1.654   0.722   5.979  0.7555  0.3169 -0.7905
 1096SOL    HW1 9303   1.674   0.752   5.886  0.7231 -0.5087 -1.0702
 1096SOL    HW2 9304   1.672   0.797   6.043  3.4808  0.1010 -1.1579
 1097SOL     OW 9305   0.115   0.318   0.496 -0.0481 -0.4828  0.4456
 1097SOL    HW1 9306   0.033   0.298   0.442  1.3668 -1.5354 -1.4666
 1097SOL    HW2 9307   0.164   0.233   0.515  1.9511  0.2800 -0.8403
 1098SOL     OW 9308   1.288   0.736   0.100 -0.4008  0.0882  0.1428
 1098SOL    HW1 9309   1.304   0.673   0.024  1.6003  0.7141 -0.0103
 1098SOL    HW2 9310   1.259   0.684   0.180  2.0814 -1.2032  0.2942
 1099SOL     OW 9311   1.631   4.819   1.154 -0.6590  0.2647 -1.0337
 1099SOL    HW1 9312   1.588   4.831   1.244  0.4987  0.4847 -0.4855
 1099SOL    HW2 9313   1.677   4.731   1.150  1.3327  1.2261 -0.4916
 1100SOL     OW 9314   5.143   1.267   6.393 -0.2984  0.3242 -0.1658
 1100SOL    HW1 9315   5.061   1.323   6.394 -1.0319 -0.6911  1.3680
 1100SOL    HW2 9316   5.125   1.181   6.345  0.1034  0.4116 -0.4812
 1101SOL     OW 9317   2.903   0.147   4.762  0.3126  0.5411  0.3379
 1101SOL    HW1 9318   2.944   0.166   4.673  0.9951  2.5266  1.0227
 1101SOL    HW2 9319   2.957   0.077   4.809  1.4707  1.3119  0.1965
 1102SOL     OW 9320   3.557   3.812   5.875 -0.5465  0.0265  0.3880
 1102SOL    HW1 9321   3.571   3.893   5.932  3.0988 -0.2963  0.1437
 1102SOL    HW2 9322   3.499   3.747   5.924 -2.3061  2.0939  1.2159
 1103SOL     OW 9323   2.681   3.982   6.441 -0.6960  0.2093 -0.1978
 1103SOL    HW1 9324   2.595   4.019   6.476 -0.9408  0.2100 -0.7763
 1103SOL    HW2 9325   2.713   4.040   6.366 -0.3093  0.0812 -0.1290
 1104SOL     OW 9326   2.251   1.380   1.040  0.3318  0.0622 -0.0770
 1104SOL    HW1 9327   2.258   1.427   1.129  0.9788 -0.0182 -0.0805
 1104SOL    HW2 9328   2.302   1.431   0.972 -2.8645  2.0181 -1.2431
 1105SOL     OW 9329   6.075   2.070   1.300 -0.5870 -0.1194  0.2294
 1105SOL    HW1 9330   6.128   2.107   1.376  0.0202  0.8759 -0.6521
 1105SOL    HW2 9331   5.999   2.132   1.279 -0.8501 -0.4724  0.1290
 1106SOL     OW 9332   5.284   1.655   5.939 -0.0025 -0.2709 -0.5809
 1106SOL    HW1 9333   5.186   1.636   5.949 -0.4479  0.9990 -2.0348
 1106SOL    HW2 9334   5.319   1.606   5.859  1.2136 -2.7973  1.4020
 1107SOL     OW 9335   3.905   4.994   5.766  0.1826 -0.1175 -0.7765
 1107SOL    HW1 9336   3.938   5.050   5.842 -2.8696  2.7332 -1.3201
 1107SOL    HW2 9337   3.972   4.995   5.692  1.0761  1.2139  0.0151
 1108SOL     OW 9338   2.769   6.215   0.549  0.2766 -0.4127 -0.5863
 1108SOL    HW1 9339   2.730   6.132   0.590 -1.4692 -0.2774 -1.8539
 1108SOL    HW2 9340   2.850   6.191   0.495 -0.0338 -1.2500 -0.6984
 1109SOL     OW 9341   3.492   2.629   6.592  0.2237 -0.0636 -0.2819
 1109SOL    HW1 9342   3.518   2.714   6.546 -2.7471  0.3727 -1.3276
 1109SOL    HW2 9343   3.496   2.553   6.527  0.0003 -0.2012 -0.1355
 1110SOL     OW 9344   3.518   2.646   1.272  0.1289 -0.2902  0.2267
 1110SOL    HW1 9345   3.544   2.741   1.290  1.6572 -0.9536  1.7111
 1110SOL    HW2 9346   3.594   2.598   1.228 -0.6764 -0.8366 -0.6285
 1111SOL     OW 9347   1.602   2.566   5.777 -0.0091  0.2118  0.5118
 1111SOL    HW1 9348   1.673   2.520   5.830  1.1689  1.5073  0.1381
 1111SOL    HW2 9349   1.603   2.532   5.683  2.1418  2.1852 -0.2765
 1112SOL     OW 9350   1.572   0.757   5.432 -0.3535 -0.2812  0.4759
 1112SOL    HW1 9351   1.589   0.840   5.485  1.5428 -0.8000  0.7621
 1112SOL    HW2 9352   1.618   0.763   5.344 -0.2922 -0.9718  0.4487
 1113SOL     OW 9353   1.247   2.940   0.580  0.7032  0.0156  0.2196
 1113SOL    HW1 9354   1.251   3.036   0.554 -0.0705  0.1671  0.6185
 1113SOL    HW2 9355   1.256   2.932   0.680 -3.5180  0.1041  0.7917
 1114SOL     OW 9356   1.977   0.396   1.673  0.4000  0.3622  0.3766
 1114SOL    HW1 9357   1.988   0.492   1.647 -0.2535  0.3023 -0.1585
 1114SOL    HW2 9358   2.056   0.367   1.727  1.8238  0.5021 -1.5479
 1115SOL     OW 9359   4.218   5.861   5.524  0.0635  0.2388  0.7170
 1115SOL    HW1 9360   4.151   5.933   5.538 -0.9187 -0.7928  1.4747
 1115SOL    HW2 9361   4.183   5.794   5.458  1.1003  0.5968 -0.2292
 1116SOL     OW 9362   0.530   3.593   0.117 -0.1066 -0.2009  0.2209
 1116SOL    HW1 9363   0.531   3.542   0.031  0.3592 -0.6574  0.4809
 1116SOL    HW2 9364   0.504   3.688   0.100 -0.1292 -0.3128 -0.4036
 1117SOL     OW 9365   3.435   2.493   0.936 -0.4410  0.8114 -0.0628
 1117SOL    HW1 9366   3.503   2.448   0.994  0.2190 -0.2361 -1.5794
 1117SOL    HW2 9367   3.478   2.522   0.850 -1.6473  1.2437 -0.5467
 1118SOL     OW 9368   4.181   2.568   0.983  0.2288  0.1002  0.5136
 1118SOL    HW1 9369   4.235   2.542   1.063  0.4780 -0.4470  0.1715
 1118SOL    HW2 9370   4.131   2.653   1.003  0.6835  0.2451  1.0662
 1119SOL     OW 9371   4.319   4.950   5.603 -0.5120 -0.3437  0.2716
 1119SOL    HW1 9372   4.242   5.012   5.615 -1.3370 -1.3372  0.2691
 1119SOL    HW2 9373   4.375   4.980   5.526 -1.3825 -0.0985 -0.2669
 1120SOL     OW 9374   2.223   5.092   6.396 -0.2149  0.2661 -0.0278
 1120SOL    HW1 9375   2.178   5.039   6.468  0.3214  1.9433  1.6292
 1120SOL    HW2 9376   2.320   5.068   6.393 -0.4816 -0.7444 -1.1248
 1121SOL     OW 9377   2.750   1.309   0.663  0.1107  0.2412 -0.0375
 1121SOL    HW1 9378   2.687   1.364   0.608 -0.0906 -0.1502 -0.2041
 1121SOL    HW2 9379   2.818   1.369   0.705 -1.4408  0.9250  1.6292
 1122SOL     OW 9380   4.602   2.923   1.626 -0.3241 -0.9185  0.0423
 1122SOL    HW1 9381   4.534   2.897   1.695  1.5512 -1.8450  1.6620
 1122SOL    HW2 9382   4.646   2.841   1.590  1.0938 -0.3168  0.3240
 1123SOL     OW 9383   4.364   3.715   0.532  0.1994 -0.0870  0.2755
 1123SOL    HW1 9384   4.271   3.747   0.515  0.0847 -0.5881 -0.0761
 1123SOL    HW2 9385   4.429   3.786   0.505 -0.0788  0.2732  0.5427
 1124SOL     OW 9386   4.735   2.852   4.896  0.3304 -0.4595  0.4465
 1124SOL    HW1 9387   4.798   2.842   4.819  0.7153  0.9268  0.5578
 1124SOL    HW2 9388   4.658   2.790   4.885 -0.5092  0.9056 -1.9751
 1125SOL     OW 9389   0.727   2.125   6.586  1.0990  0.2640 -0.6392
 1125SOL    HW1 9390   0.820   2.154   6.611  1.0889 -0.2774  0.0499
 1125SOL    HW2 9391   0.732   2.052   6.518  1.1993 -0.2312 -0.1056
 1126SOL     OW 9392   2.627   0.903   5.187 -0.1105 -0.3909  0.5249
 1126SOL    HW1 9393   2.625   0.845   5.106 -0.0096 -1.1292  1.0383
 1126SOL    HW2 9394   2.540   0.895   5.236 -0.2196  0.1503  0.4249
 1127SOL     OW 9395   1.468   3.332   1.287  0.0964 -0.7300 -0.4865
 1127SOL    HW1 9396   1.510   3.294   1.369 -0.5644 -2.5531 -0.9469
 1127SOL    HW2 9397   1.523   3.306   1.207  1.4139  2.0347 -0.5962
 1128SOL     OW 9398   0.748   0.607   4.857  0.1914  0.9098  0.3914
 1128SOL    HW1 9399   0.822   0.540   4.863 -0.2009  0.3655 -0.6204
 1128SOL    HW2 9400   0.782   0.691   4.814  0.4559  1.0230  0.8187
 1129SOL     OW 9401   2.938   3.582   0.031  0.6344  0.1285  0.4284
 1129SOL    HW1 9402   2.886   3.667   0.038 -3.4231 -2.1571  1.1223
 1129SOL    HW2 9403   2.946   3.556  -0.065  0.3560  0.4302  0.3211
 1130SOL     OW 9404   1.094   0.318   0.144  0.3126  0.1037  0.7032
 1130SOL    HW1 9405   1.017   0.372   0.110  1.5424  1.7773  0.4693
 1130SOL    HW2 9406   1.072   0.282   0.235 -1.4986 -1.1641 -0.1802
 1131SOL     OW 9407   5.111   0.842   0.344 -0.3247 -0.0341 -0.2403
 1131SOL    HW1 9408   5.108   0.759   0.288  0.1292 -0.4681  0.3637
 1131SOL    HW2 9409   5.152   0.917   0.292  2.3320 -1.0419  0.2568
 1132SOL     OW 9410   0.174   4.491   5.690  0.0001 -0.1054 -0.2161
 1132SOL    HW1 9411   0.193   4.478   5.593 -0.3401 -0.3704 -0.2522
 1132SOL    HW2 9412   0.103   4.561   5.701  2.2136  2.2520  0.0072
 1133SOL     OW 9413   6.270   2.810   0.692  0.3039 -0.0433  0.0786
 1133SOL    HW1 9414   6.216   2.795   0.775 -0.3958  0.0079 -0.3630
 1133SOL    HW2 9415   6.236   2.892   0.645 -0.4468 -1.0347 -1.1617
 1134SOL     OW 9416   0.488   0.873   1.192  0.1746  0.3027  0.3458
 1134SOL    HW1 9417   0.554   0.893   1.265  0.4623  0.2241  0.1046
 1134SOL    HW2 9418   0.459   0.778   1.198  1.0145 -0.0046 -0.3007
 1135SOL     OW 9419   1.723   0.454   5.740  0.0633  0.1393  0.0801
 1135SOL    HW1 9420   1.715   0.429   5.836  1.8684 -2.9628 -0.4297
 1135SOL    HW2 9421   1.779   0.536   5.732  0.4387  0.0724  1.6524
 1136SOL     OW 9422   2.333   3.159   0.157 -0.4055 -0.0228 -0.1200
 1136SOL    HW1 9423   2.320   3.208   0.243 -2.4561 -0.8296  0.0793
 1136SOL    HW2 9424   2.429   3.133   0.147 -0.4472 -1.8327  2.9971
 1137SOL     OW 9425   0.266   2.096   0.937  0.0489 -0.5341 -1.2936
 1137SOL    HW1 9426   0.347   2.056   0.979 -1.0413 -0.8222  0.6608
 1137SOL    HW2 9427   0.192   2.028   0.935 -0.9975  0.5357 -0.4316
 1138SOL     OW 9428   0.392   2.681   6.118 -0.1596 -0.2296 -0.5579
 1138SOL    HW1 9429   0.401   2.689   6.217 -1.9324  0.3543 -0.3976
 1138SOL    HW2 9430   0.330   2.605   6.096 -0.0316 -0.1571 -1.1982
 1139SOL     OW 9431   4.922   5.141   5.833 -0.2860 -0.2399  0.0850
 1139SOL    HW1 9432   4.951   5.045   5.832  0.7852  0.0576  0.6617
 1139SOL    HW2 9433   4.981   5.193   5.894 -2.7692  0.2255  2.2520
 1140SOL     OW 9434   5.159   2.966   0.300 -0.6264  0.3013 -0.2377
 1140SOL    HW1 9435   5.107   2.933   0.379 -1.4740  0.8886 -0.5372
 1140SOL    HW2 9436   5.253   2.985   0.328  0.2733 -3.4044 -0.3041
 1141SOL     OW 9437   4.638   5.997   0.705 -0.2060  0.9555 -0.3346
 1141SOL    HW1 9438   4.565   5.930   0.719  0.8344 -0.2172 -0.3519
 1141SOL    HW2 9439   4.725   5.959   0.735  0.2011  2.9179  1.2273
 1142SOL     OW 9440   2.080   1.086   6.316 -0.7626 -0.0679  0.1199
 1142SOL    HW1 9441   2.003   1.107   6.257 -0.3908  0.5469 -0.1493
 1142SOL    HW2 9442   2.054   1.012   6.379 -1.6066  0.2163  0.1218
 1143SOL     OW 9443   6.304   5.560   5.678  0.1926  0.3221 -0.0043
 1143SOL    HW1 9444   6.223   5.570   5.736  0.1311  1.5548 -0.2811
 1143SOL    HW2 9445   6.386   5.572   5.733  0.1573  0.5016  0.0087
 1144SOL     OW 9446   2.307   5.112   5.701  0.0372 -0.1661 -0.2277
 1144SOL    HW1 9447   2.371   5.169   5.752 -0.2379  0.4684 -0.5744
 1144SOL    HW2 9448   2.221   5.162   5.688 -0.9368 -1.4111  1.1774
 1145SOL     OW 9449   0.161   5.586   6.372  0.4365  0.2865 -0.4055
 1145SOL    HW1 9450   0.163   5.666   6.433 -3.8532  0.7423 -0.6028
 1145SOL    HW2 9451   0.125   5.507   6.421  1.9821 -0.8528 -1.0073
 1146SOL     OW 9452   4.589   6.434   6.426  0.5112  0.0829  0.3556
 1146SOL    HW1 9453   4.564   6.531   6.424  0.6565  0.1418  1.1944
 1146SOL    HW2 9454   4.547   6.390   6.505  1.8535 -0.1457  0.9573
 1147SOL     OW 9455   3.414   1.287   0.024 -0.1203 -0.0465  0.1538
 1147SOL    HW1 9456   3.499   1.237   0.042  1.3581  2.2898  0.0345
 1147SOL    HW2 9457   3.434   1.368  -0.032 -2.6186 -0.0086 -0.7924
 1148SOL     OW 9458   3.984   5.001   1.268  0.0482  0.0429  0.7297
 1148SOL    HW1 9459   4.066   5.047   1.301  0.0227  0.7187 -0.1244
 1148SOL    HW2 9460   3.924   4.981   1.345  0.8337 -0.1068  1.3150
 1149SOL     OW 9461   3.964   4.313   0.075 -0.7133  0.2771 -0.0195
 1149SOL    HW1 9462   3.899   4.347   0.143 -1.4071  0.1718 -0.6172
 1149SOL    HW2 9463   3.957   4.370  -0.007 -0.6378 -0.2380 -0.3847
 1150SOL     OW 9464   5.430   3.672   6.544  0.7479 -0.2687  0.7272
 1150SOL    HW1 9465   5.505   3.733   6.520  0.0089  0.1488 -0.7089
 1150SOL    HW2 9466   5.382   3.645   6.460 -1.0254 -0.0814  1.6320
 1151SOL     OW 9467   2.442   6.342   0.614 -0.6488  0.0322 -0.2675
 1151SOL    HW1 9468   2.517   6.278   0.598 -0.8269 -0.7684  1.8022
 1151SOL    HW2 9469   2.370   6.326   0.546 -0.1275 -1.0669 -0.5866
 1152SOL     OW 9470   4.182   5.506   1.493 -0.0038  0.1759 -0.3484
 1152SOL    HW1 9471   4.258   5.467   1.545  0.6736 -0.2943 -1.6504
 1152SOL    HW2 9472   4.197   5.604   1.480 -1.5460  0.9232  2.6496
 1153SOL     OW 9473   4.379   4.044   0.773  0.5085 -0.1164 -0.3086
 1153SOL    HW1 9474   4.298   4.049   0.714  1.7888  0.5830 -2.1100
 1153SOL    HW2 9475   4.432   4.128   0.763  2.4784 -1.3646 -0.7479
 1154SOL     OW 9476   5.427   2.557   0.035 -0.0444  0.4258  0.6301
 1154SOL    HW1 9477   5.507   2.505   0.065  1.0084  2.2433  1.1068
 1154SOL    HW2 9478   5.444   2.655   0.048 -2.0754  0.8965  0.0545
 1155SOL     OW 9479   1.827   0.731   1.438  0.3222  0.8978 -0.5149
 1155SOL    HW1 9480   1.820   0.748   1.537 -0.7517 -0.8169 -0.2669
 1155SOL    HW2 9481   1.739   0.698   1.404  1.1201 -0.0075 -1.7556
 1156SOL     OW 9482   0.809   0.168   0.591 -0.2036 -0.2392  0.1199
 1156SOL    HW1 9483   0.827   0.234   0.664 -1.2961  0.0503  0.1490
 1156SOL    HW2 9484   0.892   0.154   0.538  0.6461 -0.5198  1.4573
 1157SOL     OW 9485   5.802   5.681   5.881  0.3558 -0.5127  0.4870
 1157SOL    HW1 9486   5.710   5.717   5.865  0.2903 -0.1362  1.5775
 1157SOL    HW2 9487   5.813   5.662   5.979  1.7032  0.1841  0.4948
 1158SOL     OW 9488   4.851   1.584   0.681 -0.3525 -0.7315 -0.7144
 1158SOL    HW1 9489   4.835   1.552   0.774 -0.9490 -0.9159 -0.8770
 1158SOL    HW2 9490   4.768   1.572   0.626 -0.4208  0.5707 -0.9365
 1159SOL     OW 9491   4.385   1.749   0.341  0.2668 -0.0636 -0.1030
 1159SOL    HW1 9492   4.338   1.837   0.344 -0.4345 -0.4536  0.5898
 1159SOL    HW2 9493   4.319   1.675   0.353  1.0121 -0.6339  0.5999
 1160SOL     OW 9494   4.500   3.449   0.971 -0.1790  0.2490  0.3688
 1160SOL    HW1 9495   4.533   3.452   0.876 -1.2453  2.6758  0.0098
 1160SOL    HW2 9496   4.560   3.390   1.025  3.3633  2.4960 -0.7631
 1161SOL     OW 9497   6.331   0.417   6.371 -0.3730  0.1078  0.2449
 1161SOL    HW1 9498   6.334   0.317   6.375  0.7861  0.1025 -0.3582
 1161SOL    HW2 9499   6.266   0.444   6.300 -0.1675 -0.2320 -0.0779
 1162SOL     OW 9500   1.000   6.405   5.854  0.2544  0.1062  0.1848
 1162SOL    HW1 9501   0.913   6.440   5.816  1.1614  1.8383 -0.4238
 1162SOL    HW2 9502   1.059   6.376   5.779  0.8135  0.4756  0.4770
 1163SOL     OW 9503   3.507   3.475   0.964 -0.4443 -0.1310  0.5328
 1163SOL    HW1 9504   3.468   3.384   0.974  1.5314 -1.0241  0.5228
 1163SOL    HW2 9505   3.524   3.494   0.867 -1.1782  0.4246  0.4990
 1164SOL     OW 9506   6.108   1.832   0.191 -0.0877  0.1206  0.3477
 1164SOL    HW1 9507   6.120   1.930   0.175 -2.5833  0.3903 -0.3806
 1164SOL    HW2 9508   6.082   1.816   0.286  1.2843  0.0342  0.7210
 1165SOL     OW 9509   4.585   5.602   0.547  0.9049 -0.0042  0.0148
 1165SOL    HW1 9510   4.488   5.611   0.523  1.1044  1.5971 -0.3215
 1165SOL    HW2 9511   4.599   5.624   0.643  1.0062  0.3458 -0.0782
 1166SOL     OW 9512   2.003   1.622   1.403  0.8001 -0.0724  0.1374
 1166SOL    HW1 9513   1.945   1.701   1.424  1.3486  0.1365  0.9001
 1166SOL    HW2 9514   1.990   1.551   1.472 -1.1701 -1.5221 -1.5815
 1167SOL     OW 9515   2.832   0.692   0.014 -0.1659  0.0425 -0.1218
 1167SOL    HW1 9516   2.851   0.748  -0.066 -1.9956  0.6012 -0.2093
 1167SOL    HW2 9517   2.885   0.608   0.009 -0.7266 -0.2432 -2.2932
 1168SOL     OW 9518   0.748   1.934   6.407  0.0111  0.5760  0.1308
 1168SOL    HW1 9519   0.763   1.835   6.402  0.0435  0.3558  2.8256
 1168SOL    HW2 9520   0.788   1.979   6.328 -1.0137 -1.6529 -1.7491
 1169SOL     OW 9521   1.498   1.607   6.183 -0.4794  0.4317 -0.0754
 1169SOL    HW1 9522   1.518   1.512   6.160 -2.2384  0.3274 -1.3863
 1169SOL    HW2 9523   1.577   1.665   6.160  0.0118 -0.4971 -0.7964
 1170SOL     OW 9524   2.880   4.377   0.470 -0.4480  0.6024  0.0939
 1170SOL    HW1 9525   2.782   4.372   0.456 -0.6261 -2.2111  1.5489
 1170SOL    HW2 9526   2.920   4.286   0.456  1.7993  1.4669  0.5007
 1171SOL     OW 9527   2.211   0.570   0.329 -0.5445 -0.3778 -0.0966
 1171SOL    HW1 9528   2.288   0.529   0.279  0.4834  0.6323  0.5863
 1171SOL    HW2 9529   2.173   0.644   0.274 -0.1841 -0.0457  0.0907
 1172SOL     OW 9530   0.632   2.017   5.333  0.5050  0.1912  0.3903
 1172SOL    HW1 9531   0.713   2.062   5.370  0.3497 -1.5263  3.1013
 1172SOL    HW2 9532   0.560   2.015   5.403 -2.1397  2.0555 -2.0677
 1173SOL     OW 9533   3.385   0.544   1.090 -0.1710  0.2265  0.3430
 1173SOL    HW1 9534   3.350   0.450   1.094 -2.6193  1.1024  1.5769
 1173SOL    HW2 9535   3.396   0.580   1.183 -1.1110  1.7597 -0.0952
 1174SOL     OW 9536   4.131   4.178   0.911  0.2257  0.4402 -0.5472
 1174SOL    HW1 9537   4.062   4.122   0.956 -0.8257  0.8199 -1.6344
 1174SOL    HW2 9538   4.214   4.124   0.898 -0.8133 -0.9549 -1.7252
 1175SOL     OW 9539   2.251   5.135   1.147  0.2410  0.4237  1.1206
 1175SOL    HW1 9540   2.342   5.110   1.115  0.5880  0.0795  2.3121
 1175SOL    HW2 9541   2.241   5.108   1.243 -1.6143 -0.8317  0.6243
 1176SOL     OW 9542   5.525   0.185   0.180  0.0217  0.3614 -0.0565
 1176SOL    HW1 9543   5.602   0.131   0.146  0.2951  2.0056 -2.2539
 1176SOL    HW2 9544   5.557   0.248   0.250  0.4249  0.2166 -0.1066
 1177SOL     OW 9545   4.941   0.604   0.493  0.4874  0.2189  0.6389
 1177SOL    HW1 9546   5.005   0.659   0.546  1.3947 -0.3118  0.1279
 1177SOL    HW2 9547   4.905   0.531   0.551  0.8022  0.1688  0.7763
 1178SOL     OW 9548   5.110   3.078   0.882  0.2840  0.1730 -0.3608
 1178SOL    HW1 9549   5.052   3.009   0.840  0.2392  0.0681 -0.1290
 1178SOL    HW2 9550   5.066   3.168   0.874 -2.4391 -0.4382  4.1178
 1179SOL     OW 9551   0.831   3.263   0.247  0.0110 -0.1371 -0.1202
 1179SOL    HW1 9552   0.842   3.255   0.148 -1.8643  2.8123 -0.6977
 1179SOL    HW2 9553   0.889   3.337   0.281  0.7655 -1.2331  1.0690
 1180SOL     OW 9554   0.653   5.041   5.849 -0.5857  0.1928 -0.1782
 1180SOL    HW1 9555   0.594   5.041   5.768 -0.7878 -2.0785 -0.0958
 1180SOL    HW2 9556   0.611   5.096   5.921 -0.4709  2.1541 -1.5052
 1181SOL     OW 9557   4.168   2.624   6.087  0.0858  0.4742  0.5714
 1181SOL    HW1 9558   4.172   2.703   6.025 -0.9682  1.3130  1.5233
 1181SOL    HW2 9559   4.102   2.558   6.052 -1.6972  1.6616  1.5204
 1182SOL     OW 9560   1.257   3.630   6.552 -0.0665 -0.6812 -0.5756
 1182SOL    HW1 9561   1.346   3.586   6.536  0.9886  0.6487  1.1942
 1182SOL    HW2 9562   1.262   3.684   6.636 -1.7725  1.4929 -1.7796
 1183SOL     OW 9563   3.903   5.658   6.288  0.0697 -0.4060 -0.6515
 1183SOL    HW1 9564   3.810   5.623   6.280  0.1192 -0.3300 -1.7310
 1183SOL    HW2 9565   3.900   5.757   6.306 -0.0566 -0.5788  0.2992
 1184SOL     OW 9566   5.770   4.153   6.190 -0.2634  0.5515 -0.4346
 1184SOL    HW1 9567   5.705   4.226   6.168 -0.6474  0.0499 -1.0000
 1184SOL    HW2 9568   5.742   4.068   6.144  0.0837  0.0037  0.3430
 1185SOL     OW 9569   4.446   0.660   1.135  0.1970 -0.0443 -0.2246
 1185SOL    HW1 9570   4.475   0.622   1.223  1.6492  2.2908  0.3808
 1185SOL    HW2 9571   4.347   0.675   1.136  0.2366  0.2853  1.1660
 1186SOL     OW 9572   1.807   0.567   0.602  0.2710 -0.2817  0.0940
 1186SOL    HW1 9573   1.746   0.490   0.582  0.9416 -0.3220 -2.1722
 1186SOL    HW2 9574   1.901   0.541   0.581  0.5340  1.0638 -0.5473
 1187SOL     OW 9575   2.056   0.297   0.232 -0.0449  0.1920 -0.4725
 1187SOL    HW1 9576   2.062   0.344   0.320 -0.3747  0.7965 -0.7717
 1187SOL    HW2 9577   2.117   0.341   0.166 -1.5850  1.2885 -1.2316
 1188SOL     OW 9578   5.570   0.000   0.411 -0.4302 -0.3955  0.0957
 1188SOL    HW1 9579   5.552  -0.093   0.380 -0.1137 -0.5071  0.2430
 1188SOL    HW2 9580   5.551   0.065   0.337 -0.5368 -0.5867 -0.0436
 1189SOL     OW 9581   3.045   0.948   5.707 -0.3676 -0.1625  0.2634
 1189SOL    HW1 9582   2.976   0.876   5.720  1.4780 -2.0469  0.1785
 1189SOL    HW2 9583   3.051   1.004   5.790 -3.5268  1.5437 -0.5205
 1190SOL     OW 9584   4.239   5.005   0.654  0.7932 -0.5190 -0.8881
 1190SOL    HW1 9585   4.242   5.043   0.746  0.2401  2.5889 -2.0386
 1190SOL    HW2 9586   4.305   4.930   0.647  1.0232 -0.6838  1.9219
 1191SOL     OW 9587   5.347   3.397   0.882 -0.1538 -0.5560 -0.0620
 1191SOL    HW1 9588   5.334   3.471   0.948  1.6561  0.7728 -1.1382
 1191SOL    HW2 9589   5.267   3.393   0.821  0.5994  1.9919 -1.3560
 1192SOL     OW 9590   1.626   4.882   6.357  0.2061  0.2564  0.0335
 1192SOL    HW1 9591   1.631   4.783   6.374 -0.1765  0.0365 -1.0523
 1192SOL    HW2 9592   1.565   4.899   6.279  0.3997  1.3410  0.1091
 1193SOL     OW 9593   4.372   4.321   5.457 -0.0179  0.0114 -0.1165
 1193SOL    HW1 9594   4.362   4.296   5.361  1.2516 -0.5113 -0.1277
 1193SOL    HW2 9595   4.293   4.376   5.486  0.1622  1.2216 -1.7856
 1194SOL     OW 9596   0.965   3.823   0.067  0.6652  0.0453 -0.7146
 1194SOL    HW1 9597   0.921   3.754   0.125 -2.0103  2.2965  0.1357
 1194SOL    HW2 9598   0.961   3.793  -0.028  0.0126 -1.1942 -0.3266
 1195SOL     OW 9599   6.185   4.510   1.122 -0.4355  0.8194  0.0734
 1195SOL    HW1 9600   6.267   4.533   1.175 -0.3431  0.5646  0.0399
 1195SOL    HW2 9601   6.105   4.516   1.181 -0.3683  0.8511  0.1621
 1196SOL     OW 9602   3.392   0.648   5.803 -0.3556 -0.2149 -0.4364
 1196SOL    HW1 9603   3.392   0.548   5.801 -0.6227 -0.2802  1.3165
 1196SOL    HW2 9604   3.429   0.683   5.717  1.0315 -1.8400 -0.5558
 1197SOL     OW 9605   5.389   6.034   6.449 -0.4469  0.0227 -0.4857
 1197SOL    HW1 9606   5.375   6.125   6.410  1.4642  0.5821  0.0080
 1197SOL    HW2 9607   5.371   5.964   6.380  1.2879  0.9298 -1.9463
 1198SOL     OW 9608   1.400   1.162   0.018 -0.4917 -0.3466  0.2507
 1198SOL    HW1 9609   1.410   1.075   0.067 -0.2646  0.4119  1.6053
 1198SOL    HW2 9610   1.304   1.189   0.020 -1.0212 -1.7390 -2.3314
 1199SOL     OW 9611   6.380   0.564   0.392  0.2111 -0.2751  0.3219
 1199SOL    HW1 9612   6.453   0.565   0.324 -0.3220 -0.0830 -0.2500
 1199SOL    HW2 9613   6.401   0.631   0.464  0.6296 -0.2704  0.1977
 1200SOL     OW 9614   1.790   2.790   0.242  0.3894  0.1443 -0.8035
 1200SOL    HW1 9615   1.837   2.707   0.213  1.2030  0.3605 -0.1726
 1200SOL    HW2 9616   1.845   2.836   0.312 -0.2916  0.9465 -0.7775
 1201SOL     OW 9617   0.877   5.503   5.383 -0.0650 -0.1312 -0.3060
 1201SOL    HW1 9618   0.878   5.538   5.290  1.3392 -0.9319 -0.6142
 1201SOL    HW2 9619   0.813   5.426   5.389 -0.0887 -0.1367 -0.6242
 1202SOL     OW 9620   0.200   2.348   0.839  0.1379  0.2116  0.0438
 1202SOL    HW1 9621   0.203   2.251   0.865 -0.0844 -0.3592 -1.8709
 1202SOL    HW2 9622   0.292   2.386   0.843  0.1955 -0.0040  1.0269
 1203SOL     OW 9623   3.066   3.572   5.383  0.2934  0.2361  0.2460
 1203SOL    HW1 9624   3.025   3.661   5.404 -1.1586  0.3057 -2.3372
 1203SOL    HW2 9625   3.161   3.585   5.356  0.0277  1.0827 -0.3389
 1204SOL     OW 9626   1.949   5.382   0.111 -0.4532  0.1523  0.0051
 1204SOL    HW1 9627   2.012   5.415   0.181  0.6789 -0.0541 -0.8941
 1204SOL    HW2 9628   1.950   5.445   0.033 -0.3736 -0.5376 -0.5609
 1205SOL     OW 9629   1.242   3.211   0.466  0.1222 -0.4515  0.2324
 1205SOL    HW1 9630   1.282   3.256   0.386 -0.8619 -1.3624 -0.7973
 1205SOL    HW2 9631   1.186   3.276   0.517  0.0947 -0.0720 -0.2806
 1206SOL     OW 9632   1.234   6.031   1.692  0.0839 -0.5377  0.1093
 1206SOL    HW1 9633   1.174   5.998   1.765  0.6017 -1.3436  0.1821
 1206SOL    HW2 9634   1.178   6.066   1.617 -0.4563  0.9064  1.1365
 1207SOL     OW 9635   6.404   0.486   1.155  0.2587 -0.1687  0.3528
 1207SOL    HW1 9636   6.426   0.424   1.080  0.3848 -0.0261  0.2704
 1207SOL    HW2 9637   6.306   0.483   1.174  0.3144 -0.6621  0.5898
 1208SOL     OW 9638   3.770   4.715   5.083 -0.1379 -0.0613 -0.0228
 1208SOL    HW1 9639   3.715   4.756   5.011  0.3805 -1.1183 -1.0553
 1208SOL    HW2 9640   3.840   4.780   5.113  1.5147 -0.5467 -2.5450
 1209SOL     OW 9641   0.747   0.557   0.588  0.1215 -0.4676  0.4158
 1209SOL    HW1 9642   0.742   0.476   0.530 -2.4746  0.4298 -0.7659
 1209SOL    HW2 9643   0.661   0.570   0.637  0.6661  1.2567  1.0109
 1210SOL     OW 9644   1.178   3.224   0.109  0.2444 -0.5327 -0.6736
 1210SOL    HW1 9645   1.140   3.311   0.075  1.2804 -0.5158 -1.8643
 1210SOL    HW2 9646   1.277   3.231   0.113  0.3807 -1.8439 -1.3184
 1211SOL     OW 9647   0.685   4.414   6.529 -0.3171 -0.4947 -0.4391
 1211SOL    HW1 9648   0.753   4.399   6.457  0.2706 -0.3130  0.0716
 1211SOL    HW2 9649   0.624   4.488   6.502  0.1790 -0.1243 -0.5615
 1212SOL     OW 9650   0.145   3.058   5.757 -0.4197 -0.8400  0.2648
 1212SOL    HW1 9651   0.145   2.959   5.767  2.6826 -1.0678 -1.0401
 1212SOL    HW2 9652   0.201   3.100   5.828 -2.8724  0.2120  1.7144
 1213SOL     OW 9653   5.072   1.987   4.922 -0.0411 -0.1274  0.5160
 1213SOL    HW1 9654   5.074   2.063   4.857  1.6098 -0.4524  0.1365
 1213SOL    HW2 9655   5.093   1.901   4.875  1.8965 -0.2751  1.5535
 1214SOL     OW 9656   4.000   4.752   5.397  0.3140 -0.2405 -0.1023
 1214SOL    HW1 9657   3.997   4.799   5.309  1.0965 -1.1684 -0.6507
 1214SOL    HW2 9658   3.908   4.725   5.424  0.2713 -2.2081 -1.9284
 1215SOL     OW 9659   1.191   1.556   0.565 -0.1830  0.3953 -0.0525
 1215SOL    HW1 9660   1.122   1.484   0.562 -2.8716  2.7373  0.8117
 1215SOL    HW2 9661   1.259   1.534   0.634 -2.6440 -0.0192  2.4327
 1216SOL     OW 9662   5.383   1.478   6.412  0.0738  0.0577  0.3806
 1216SOL    HW1 9663   5.355   1.569   6.382 -0.7549 -0.6798 -1.2224
 1216SOL    HW2 9664   5.303   1.430   6.449  0.2504 -0.4094  0.1584
 1217SOL     OW 9665   0.228   2.724   0.875  0.8280 -0.2141  0.2373
 1217SOL    HW1 9666   0.182   2.665   0.809  1.2333  0.6466 -0.8587
 1217SOL    HW2 9667   0.249   2.673   0.958 -0.1414 -1.1944 -0.1029
 1218SOL     OW 9668   0.595   0.256   6.047  0.0345  0.1929 -0.6591
 1218SOL    HW1 9669   0.554   0.280   5.959 -0.6073 -2.1418 -1.0582
 1218SOL    HW2 9670   0.688   0.293   6.051 -1.2227  3.6888 -0.6369
 1219SOL     OW 9671   0.279   5.006   1.137  0.5240 -0.5886 -0.9007
 1219SOL    HW1 9672   0.340   5.040   1.210 -0.1470 -1.3964  0.0638
 1219SOL    HW2 9673   0.306   5.047   1.050  0.7478  1.1683 -0.0563
 1220SOL     OW 9674   5.788   3.125   6.487 -0.0095 -0.0974  0.8805
 1220SOL    HW1 9675   5.695   3.161   6.477  0.0672  0.0526  0.6933
 1220SOL    HW2 9676   5.791   3.062   6.564 -0.3285 -0.3136  0.7183
 1221SOL     OW 9677   4.694   2.186   0.527  0.6909  0.3762  0.1456
 1221SOL    HW1 9678   4.731   2.094   0.512  3.0216  1.2198  0.2682
 1221SOL    HW2 9679   4.596   2.180   0.544  0.8361 -2.1084  0.5064
 1222SOL     OW 9680   3.581   5.536   4.902 -0.0341  0.0167 -0.2740
 1222SOL    HW1 9681   3.608   5.631   4.913  1.7317 -0.3560 -1.0608
 1222SOL    HW2 9682   3.534   5.525   4.814  0.5808  0.0105 -0.6082
 1223SOL     OW 9683   4.879   0.829   6.382  0.3648  0.0704  0.2338
 1223SOL    HW1 9684   4.851   0.772   6.304 -0.6314  0.9563 -0.0828
 1223SOL    HW2 9685   4.797   0.861   6.431  0.9852 -0.8120  1.9177
 1224SOL     OW 9686   4.582   2.921   0.893  0.0145  0.0473 -0.0379
 1224SOL    HW1 9687   4.609   3.010   0.855  1.4721 -0.7942 -1.0775
 1224SOL    HW2 9688   4.657   2.886   0.949 -0.6328 -0.4477  0.5304
 1225SOL     OW 9689   1.545   3.750   0.295 -0.0057  0.0459  0.3218
 1225SOL    HW1 9690   1.610   3.674   0.298 -2.7578 -2.5655 -0.8650
 1225SOL    HW2 9691   1.581   3.822   0.235  2.0522 -0.9748  0.2470
 1226SOL     OW 9692   4.112   2.282   1.517  0.0887  0.0746 -1.1672
 1226SOL    HW1 9693   4.192   2.327   1.556 -0.9807  1.2353 -0.2298
 1226SOL    HW2 9694   4.051   2.251   1.590 -0.2664 -0.9134 -1.8604
 1227SOL     OW 9695   1.443   2.024   5.601  0.2378 -0.1164  0.3637
 1227SOL    HW1 9696   1.437   1.924   5.603 -1.4310 -0.0953  3.0400
 1227SOL    HW2 9697   1.395   2.061   5.681 -0.5676  2.9137 -1.3706
 1228SOL     OW 9698   4.074   3.149   4.722 -0.3555  0.3303  0.2341
 1228SOL    HW1 9699   4.090   3.131   4.819  0.9517  1.2409  0.2128
 1228SOL    HW2 9700   3.988   3.106   4.694 -0.2643 -0.7713  1.5459
 1229SOL     OW 9701   6.063   1.038   5.680  0.0836  0.3602 -0.0499
 1229SOL    HW1 9702   6.103   1.090   5.604  0.8507 -1.1205 -0.6978
 1229SOL    HW2 9703   6.004   0.967   5.644 -0.7419  0.5845  0.8203
 1230SOL     OW 9704   2.311   4.652   4.627  0.2376 -0.0723 -0.2153
 1230SOL    HW1 9705   2.335   4.594   4.705 -0.5772 -1.0806 -0.6972
 1230SOL    HW2 9706   2.388   4.656   4.563  0.8888  0.7119  0.5926
 1231SOL     OW 9707   5.062   1.505   1.155  0.5537  0.1506 -0.3151
 1231SOL    HW1 9708   4.986   1.487   1.217  1.1181 -0.6339  0.1598
 1231SOL    HW2 9709   5.126   1.569   1.197 -0.1898  1.3892 -1.0057
 1232SOL     OW 9710   1.185   4.083   0.436  0.2676  0.5591  0.0506
 1232SOL    HW1 9711   1.207   4.128   0.523  0.8728 -1.8859  1.2434
 1232SOL    HW2 9712   1.149   3.992   0.454  0.4290 -0.0361 -2.2983
 1233SOL     OW 9713   6.045   1.736   0.438 -0.3706  0.2652  0.1461
 1233SOL    HW1 9714   5.946   1.749   0.446 -1.0120 -2.6072 -1.4348
 1233SOL    HW2 9715   6.081   1.702   0.525 -1.2160 -0.6943  0.1459
 1234SOL     OW 9716   5.030   0.470   6.099 -0.2078 -0.0575  0.2909
 1234SOL    HW1 9717   5.097   0.438   6.031 -0.4279 -0.0962  0.0916
 1234SOL    HW2 9718   5.043   0.568   6.114 -0.5459  0.0793 -0.2572
 1235SOL     OW 9719   2.443   1.944   5.030 -0.4865  0.3564 -0.3033
 1235SOL    HW1 9720   2.519   1.998   4.994  0.6230 -2.3450 -2.3743
 1235SOL    HW2 9721   2.357   1.982   4.996  0.2884  0.5694 -2.1958
 1236SOL     OW 9722   3.125   4.068   1.729 -0.1039 -0.1060  0.8708
 1236SOL    HW1 9723   3.030   4.094   1.717  0.6749  1.8776 -2.2280
 1236SOL    HW2 9724   3.162   4.112   1.812 -1.3538  0.7762  0.9835
 1237SOL     OW 9725   6.162   1.579   0.029 -0.7109 -0.2621 -0.3372
 1237SOL    HW1 9726   6.144   1.587   0.128  0.1173  0.3303 -0.2254
 1237SOL    HW2 9727   6.138   1.487  -0.002 -0.9911 -0.4517  0.4149
 1238SOL     OW 9728   2.360   0.014   6.157 -0.5976 -0.3672  0.5596
 1238SOL    HW1 9729   2.450   0.031   6.196  1.0352  0.1564 -2.9799
 1238SOL    HW2 9730   2.311   0.101   6.147 -0.7371 -0.4137  0.8331
 1239SOL     OW 9731   1.608   2.839   0.545  0.0653 -0.1143 -0.4399
 1239SOL    HW1 9732   1.646   2.771   0.483  1.3177 -0.7192  0.9217
 1239SOL    HW2 9733   1.556   2.907   0.493 -1.4757 -2.2298 -1.8405
 1240SOL     OW 9734   0.401   0.669   0.938 -0.1764  0.6174  0.3925
 1240SOL    HW1 9735   0.489   0.715   0.942  0.2703 -0.2109  0.3611
 1240SOL    HW2 9736   0.368   0.652   1.031 -0.0826  0.5169  0.4072
 1241SOL     OW 9737   1.116   0.362   0.559  1.0465  0.9743 -0.3315
 1241SOL    HW1 9738   1.195   0.337   0.504 -0.4514 -1.2195 -1.6110
 1241SOL    HW2 9739   1.047   0.405   0.500 -0.1961 -0.5445 -0.0353
 1242SOL     OW 9740   1.768   3.744   5.391 -0.1117  0.4277  0.8607
 1242SOL    HW1 9741   1.862   3.733   5.357  0.0230  2.6728  0.3147
 1242SOL    HW2 9742   1.704   3.726   5.316 -0.0472  0.2715  0.8428
 1243SOL     OW 9743   2.130   4.678   5.925 -0.5817  0.0375 -0.4125
 1243SOL    HW1 9744   2.116   4.754   5.861 -0.1114 -0.7116 -1.4280
 1243SOL    HW2 9745   2.226   4.650   5.924 -0.8166 -0.8001 -0.3199
 1244SOL     OW 9746   2.896   2.187   5.449 -0.8111  0.2199 -0.0597
 1244SOL    HW1 9747   2.954   2.106   5.448  0.0932  0.8218  1.2107
 1244SOL    HW2 9748   2.877   2.215   5.355  2.3683  0.9835 -0.5865
 1245SOL     OW 9749   2.346   3.868   0.957  0.4313 -0.5710 -0.8834
 1245SOL    HW1 9750   2.344   3.805   1.035 -1.6263 -0.2179 -0.5851
 1245SOL    HW2 9751   2.365   3.816   0.873 -0.1009 -1.4295 -0.4902
 1246SOL     OW 9752   3.493   3.827   1.256 -0.5085  0.3125  0.4326
 1246SOL    HW1 9753   3.398   3.856   1.247 -0.0951  1.2817 -1.3453
 1246SOL    HW2 9754   3.505   3.737   1.214 -0.4408  0.6605 -0.2995
 1247SOL     OW 9755   3.855   4.033   0.927  0.0509 -0.0389 -0.1082
 1247SOL    HW1 9756   3.864   4.060   0.831 -2.4680  1.8847  0.0668
 1247SOL    HW2 9757   3.837   3.935   0.932 -0.1020 -0.1258 -1.6477
 1248SOL     OW 9758   6.060   5.317   5.900 -0.1872  0.0119  0.4382
 1248SOL    HW1 9759   6.137   5.259   5.871 -0.9675  0.1892 -2.3059
 1248SOL    HW2 9760   6.020   5.281   5.984  0.9670 -1.8754  0.2325
 1249SOL     OW 9761   2.594   2.520   5.651  0.1038  0.3371  0.1589
 1249SOL    HW1 9762   2.599   2.430   5.692  2.9936  0.7091  0.8329
 1249SOL    HW2 9763   2.616   2.514   5.553 -0.3818  0.2410  0.0540
 1250SOL     OW 9764   0.133   6.272   0.965 -0.0688 -0.8184 -0.0838
 1250SOL    HW1 9765   0.206   6.239   0.905 -1.0683 -2.0364 -0.6829
 1250SOL    HW2 9766   0.153   6.245   1.059  0.3215 -1.0127 -0.2178
 1251SOL     OW 9767   0.047   0.058   0.172 -0.2843 -0.4060  0.6104
 1251SOL    HW1 9768   0.136   0.104   0.163 -0.8602  0.4944 -0.9874
 1251SOL    HW2 9769   0.054  -0.014   0.240  0.8369  1.6527  2.8614
 1252SOL     OW 9770   1.535   2.394   0.932  0.0517 -0.7183  0.0688
 1252SOL    HW1 9771   1.496   2.332   1.001 -0.0452  0.8056  1.4515
 1252SOL    HW2 9772   1.606   2.346   0.881 -0.1455 -2.0214  0.9609
 1253SOL     OW 9773   4.775   1.059   1.090  0.0761  0.5296 -0.0327
 1253SOL    HW1 9774   4.728   0.971   1.099  1.9250 -0.6884 -1.5440
 1253SOL    HW2 9775   4.852   1.063   1.154  0.3190  0.8483 -0.3415
 1254SOL     OW 9776   5.553   2.889   5.498 -0.1300 -0.0168  0.2001
 1254SOL    HW1 9777   5.631   2.929   5.449  0.3397 -0.6607  0.4197
 1254SOL    HW2 9778   5.491   2.846   5.433  0.1214 -0.2287  0.0984
 1255SOL     OW 9779   4.281   0.887   5.818  0.1317 -0.1608 -0.1719
 1255SOL    HW1 9780   4.342   0.954   5.775  1.0502  0.1611  1.5424
 1255SOL    HW2 9781   4.317   0.863   5.908 -2.2142 -0.0858  0.8367
 1256SOL     OW 9782   2.067   1.498   5.406 -0.5342  0.3612  0.3339
 1256SOL    HW1 9783   2.094   1.401   5.415  0.3137  0.6356  0.9748
 1256SOL    HW2 9784   2.149   1.553   5.386 -0.9655  0.9820  0.2630
 1257SOL     OW 9785   0.932   4.087   6.475 -0.1147 -0.9631  0.0069
 1257SOL    HW1 9786   0.929   3.996   6.435  3.5628 -2.1602  1.9389
 1257SOL    HW2 9787   0.887   4.086   6.565 -0.2597 -0.8293 -0.0645
 1258SOL     OW 9788   6.261   5.018   1.056  0.7917  0.0674 -0.1082
 1258SOL    HW1 9789   6.298   5.085   0.992  0.9557  1.4945  1.4255
 1258SOL    HW2 9790   6.332   4.951   1.077  0.6938 -0.5127 -1.4842
 1259SOL     OW 9791   4.696   5.394   1.942  0.4016  0.8806 -0.5212
 1259SOL    HW1 9792   4.607   5.437   1.955  0.5715  1.0457  0.1306
 1259SOL    HW2 9793   4.745   5.391   2.029  0.1183 -1.2567 -0.3667
 1260SOL     OW 9794   5.587   5.834   0.460  0.3679  0.2339  0.0942
 1260SOL    HW1 9795   5.680   5.800   0.450  0.2238 -0.6176  1.3860
 1260SOL    HW2 9796   5.524   5.772   0.413  0.1985 -0.8539  1.6651
 1261SOL     OW 9797   2.990   0.740   5.143  0.4312 -0.0843  0.2723
 1261SOL    HW1 9798   3.060   0.805   5.114 -0.3476  0.3803 -0.6226
 1261SOL    HW2 9799   2.936   0.712   5.064 -1.1409  0.4729  1.1148
 1262SOL     OW 9800   5.081   3.873   1.970 -0.7268 -0.3097  0.3373
 1262SOL    HW1 9801   5.085   3.962   1.926 -1.7964 -0.5026 -0.1800
 1262SOL    HW2 9802   5.108   3.882   2.066  0.4425  0.3221 -0.0229
 1263SOL     OW 9803   0.787   5.123   0.017  0.1522  0.3324  0.0676
 1263SOL    HW1 9804   0.746   5.059  -0.047 -0.4231  0.9402 -0.1853
 1263SOL    HW2 9805   0.852   5.182  -0.031  1.8335 -1.0286  0.5776
 1264SOL     OW 9806   2.505   1.899   0.946  0.7481  0.3214  0.0694
 1264SOL    HW1 9807   2.558   1.928   1.026  1.3368 -0.1996 -0.1249
 1264SOL    HW2 9808   2.477   1.804   0.958  0.5213  0.3581 -0.1773
 1265SOL     OW 9809   0.488   0.947   0.469  0.0741  0.2499  0.5766
 1265SOL    HW1 9810   0.508   1.013   0.541  2.8587 -1.6250  1.7156
 1265SOL    HW2 9811   0.508   0.987   0.380 -0.0137  1.4721  1.0889
 1266SOL     OW 9812   3.736   0.826   1.133  0.5018  0.3491 -0.3958
 1266SOL    HW1 9813   3.725   0.790   1.226  0.8349 -0.0229 -0.4916
 1266SOL    HW2 9814   3.823   0.793   1.096 -1.2004 -2.6525 -2.2064
 1267SOL     OW 9815   2.777   5.045   0.587  0.8413 -0.1848 -0.3405
 1267SOL    HW1 9816   2.826   4.963   0.557  1.0519 -0.3754  0.5036
 1267SOL    HW2 9817   2.706   5.019   0.653  1.2739  0.3686  0.3523
 1268SOL     OW 9818   0.595   2.629   6.584 -0.3404  0.1706 -0.0704
 1268SOL    HW1 9819   0.678   2.605   6.535  0.3164  1.6138  0.2732
 1268SOL    HW2 9820   0.517   2.579   6.546  0.3930  0.1491 -1.5933
 1269SOL     OW 9821   1.506   5.945   5.403 -0.1568 -0.0571 -0.1739
 1269SOL    HW1 9822   1.604   5.965   5.414 -0.0737 -0.9038  0.8092
 1269SOL    HW2 9823   1.454   6.030   5.408  0.4175  0.2478  0.8359
 1270SOL     OW 9824   2.061   3.814   0.811 -0.4892  0.4008  0.0025
 1270SOL    HW1 9825   2.048   3.784   0.716 -0.3564 -0.6981  0.3204
 1270SOL    HW2 9826   2.109   3.901   0.811 -0.3482  0.3421 -0.9452
 1271SOL     OW 9827   3.360   3.427   0.688  0.6754  0.1985 -0.7824
 1271SOL    HW1 9828   3.278   3.370   0.700  2.4681 -2.5638 -0.6445
 1271SOL    HW2 9829   3.333   3.523   0.683 -2.5248 -0.5530 -0.5404
 1272SOL     OW 9830   4.443   0.217   5.709 -0.3456 -0.3751 -0.1703
 1272SOL    HW1 9831   4.451   0.129   5.662  0.7910 -1.4015  1.8159
 1272SOL    HW2 9832   4.515   0.278   5.678  0.2574 -0.9608  0.0608
 1273SOL     OW 9833   0.743   3.784   5.464  0.3756 -0.1864  0.3579
 1273SOL    HW1 9834   0.647   3.758   5.470  0.0357  1.1826  1.5482
 1273SOL    HW2 9835   0.790   3.725   5.398 -1.2455 -0.9330 -0.1805
 1274SOL     OW 9836   1.284   2.646   5.606 -0.3069 -0.6140  0.3052
 1274SOL    HW1 9837   1.293   2.622   5.702 -1.3083 -0.8215  0.3465
 1274SOL    HW2 9838   1.324   2.737   5.591  0.1030 -0.6989  0.8511
 1275SOL     OW 9839   4.597   0.641   0.162  0.1610  1.1041  0.4198
 1275SOL    HW1 9840   4.691   0.651   0.194  0.6910 -0.3994 -0.5478
 1275SOL    HW2 9841   4.556   0.559   0.203  0.0640  0.4688 -0.8809
 1276SOL     OW 9842   5.459   1.300   1.003 -0.2500  0.6553  0.0994
 1276SOL    HW1 9843   5.436   1.354   1.084 -0.1226  1.5979 -0.4849
 1276SOL    HW2 9844   5.378   1.289   0.946 -1.1326 -2.5041  1.7176
 1277SOL     OW 9845   2.360   2.667   1.052  0.2416 -0.3482  0.3962
 1277SOL    HW1 9846   2.438   2.723   1.079 -0.0433 -0.5349  1.6672
 1277SOL    HW2 9847   2.377   2.571   1.077 -0.2144 -0.4589  0.2945
 1278SOL     OW 9848   0.890   3.712   6.047 -0.1294 -0.0118  0.2946
 1278SOL    HW1 9849   0.821   3.646   6.077 -0.2486 -1.0849 -2.1261
 1278SOL    HW2 9850   0.974   3.663   6.023  0.0676  0.7955 -0.7274
 1279SOL     OW 9851   4.216   2.969   5.631  0.1585 -0.2563  0.2357
 1279SOL    HW1 9852   4.269   3.053   5.625 -0.3740  0.2846  2.2470
 1279SOL    HW2 9853   4.167   2.954   5.545 -0.9610  2.3486  0.3276
 1280SOL     OW 9854   4.363   3.738   1.207  0.0218 -0.3783  0.3114
 1280SOL    HW1 9855   4.436   3.670   1.195  0.1589 -0.2293  0.2929
 1280SOL    HW2 9856   4.370   3.806   1.134  0.9708  0.6442  1.3259
 1281SOL     OW 9857   4.233   0.602   0.693  0.3567  0.4727 -0.0227
 1281SOL    HW1 9858   4.304   0.544   0.654 -0.0276 -0.5602  0.7880
 1281SOL    HW2 9859   4.234   0.595   0.793 -1.4122 -0.2510 -0.0077
 1282SOL     OW 9860   4.385   4.249   1.268 -0.5033  0.1677  0.8177
 1282SOL    HW1 9861   4.310   4.204   1.316  0.6739 -0.4061  2.1998
 1282SOL    HW2 9862   4.469   4.241   1.322  0.5668  0.7953 -0.6695
 1283SOL     OW 9863   2.673   1.558   1.174 -0.5988 -1.0279 -0.5454
 1283SOL    HW1 9864   2.682   1.511   1.262  0.4456  0.3004  0.1036
 1283SOL    HW2 9865   2.599   1.624   1.179  0.3159  0.0023 -0.1767
 1284SOL     OW 9866   2.477   4.061   6.139 -0.3085 -0.2041 -0.0897
 1284SOL    HW1 9867   2.496   4.110   6.224 -0.4183 -0.8333  0.3079
 1284SOL    HW2 9868   2.487   3.962   6.155  0.0063 -0.3084 -0.8941
 1285SOL     OW 9869   4.757   5.077   6.215 -0.1889  0.3635  0.4141
 1285SOL    HW1 9870   4.664   5.111   6.201 -1.3509 -1.2873  3.2969
 1285SOL    HW2 9871   4.769   4.990   6.167 -0.4807  0.0651  0.8842
 1286SOL     OW 9872   4.232   5.009   5.179 -0.7601  0.5963 -0.0655
 1286SOL    HW1 9873   4.310   4.954   5.150 -2.1478 -1.6467  0.1890
 1286SOL    HW2 9874   4.262   5.079   5.243  0.9252 -0.8578  0.8124
 1287SOL     OW 9875   5.126   5.029   0.121 -0.4710  0.2913 -0.2183
 1287SOL    HW1 9876   5.039   4.998   0.159 -0.9138 -1.8727 -2.6962
 1287SOL    HW2 9877   5.201   4.991   0.175 -1.0305  0.6059  0.8137
 1288SOL     OW 9878   4.142   1.278   0.060 -0.4693  0.1583 -0.1321
 1288SOL    HW1 9879   4.171   1.372   0.041  0.4988 -0.2855 -0.8884
 1288SOL    HW2 9880   4.086   1.277   0.143 -1.8191  1.6333 -0.9623
 1289SOL     OW 9881   1.533   4.150   0.484 -0.1340  0.5729  0.4406
 1289SOL    HW1 9882   1.444   4.115   0.512 -0.9562 -1.7146 -4.1075
 1289SOL    HW2 9883   1.605   4.092   0.522 -0.9397 -0.5493  0.2981
 1290SOL     OW 9884   0.891   0.805   0.786  0.6306  0.1371 -0.0956
 1290SOL    HW1 9885   0.963   0.841   0.845  1.2394 -2.7518  1.1242
 1290SOL    HW2 9886   0.803   0.807   0.835  0.2665  1.6456 -0.7612
 1291SOL     OW 9887   2.825   3.476   1.036  0.1604 -0.1964 -0.4181
 1291SOL    HW1 9888   2.896   3.535   0.996  1.0989  0.0490  1.5066
 1291SOL    HW2 9889   2.867   3.392   1.071 -0.6354 -0.4464 -0.0377
 1292SOL     OW 9890   2.851   4.134   1.757 -0.2675 -0.4810  0.4590
 1292SOL    HW1 9891   2.776   4.112   1.820 -0.3813 -0.6352  0.2707
 1292SOL    HW2 9892   2.815   4.147   1.665 -0.1090 -0.1806  0.4398
 1293SOL     OW 9893   2.121   2.146   0.454  0.5597 -0.0914  0.3977
 1293SOL    HW1 9894   2.087   2.056   0.425 -1.4810  0.5569  0.5923
 1293SOL    HW2 9895   2.058   2.185   0.521  1.1300  1.6894 -0.0451
 1294SOL     OW 9896   6.255   5.815   6.332  0.5949  0.0493  0.2123
 1294SOL    HW1 9897   6.291   5.767   6.253  0.8636  0.1783  0.2566
 1294SOL    HW2 9898   6.158   5.791   6.344  0.9180 -1.0994  0.6933
 1295SOL     OW 9899   2.282   1.243   0.476 -0.7155  0.1727  0.2544
 1295SOL    HW1 9900   2.246   1.275   0.388  0.8757 -1.2184 -0.9883
 1295SOL    HW2 9901   2.224   1.170   0.512 -2.4542  2.0328  1.3959
 1296SOL     OW 9902   5.923   2.042   5.916 -0.2786 -0.0456  0.0326
 1296SOL    HW1 9903   5.954   1.962   5.865 -1.4664 -0.8847  0.5760
 1296SOL    HW2 9904   5.948   2.032   6.012  0.3532  0.6755 -0.0468
 1297SOL     OW 9905   4.606   5.117   1.166 -0.1557  0.2974 -0.4396
 1297SOL    HW1 9906   4.564   5.202   1.136 -0.9731  0.2676  0.5637
 1297SOL    HW2 9907   4.696   5.136   1.206  0.5317  0.4411 -1.9675
 1298SOL     OW 9908   6.288   0.765   5.665 -0.7400  0.1115 -0.0278
 1298SOL    HW1 9909   6.317   0.843   5.610 -1.1756  0.5981  0.4278
 1298SOL    HW2 9910   6.233   0.796   5.742 -0.5610 -0.6092  0.4050
 1299SOL     OW 9911   4.020   4.432   6.038 -0.0343  0.5141 -0.1114
 1299SOL    HW1 9912   3.926   4.436   6.074  0.1790  1.7936  0.3811
 1299SOL    HW2 9913   4.049   4.525   6.015  0.5524 -0.0638 -1.7570
 1300SOL     OW 9914   1.030   5.111   0.492 -0.0799 -0.1463  0.2783
 1300SOL    HW1 9915   0.945   5.160   0.507 -0.0438 -0.0223  0.0884
 1300SOL    HW2 9916   1.034   5.080   0.397  0.2298  0.1286  0.1978
 1301SOL     OW 9917   3.098   0.336   5.871  0.9079  0.1515  0.5389
 1301SOL    HW1 9918   3.098   0.241   5.901 -1.7350 -0.3677 -0.8731
 1301SOL    HW2 9919   3.160   0.346   5.792 -0.4303 -0.9382 -0.6956
 1302SOL     OW 9920   2.890   1.840   6.159 -0.3844 -0.0203  0.0197
 1302SOL    HW1 9921   2.910   1.852   6.062  0.1065 -0.1885  0.0963
 1302SOL    HW2 9922   2.859   1.747   6.176  2.1828 -0.9080  0.4171
 1303SOL     OW 9923   1.662   2.219   5.688 -0.6282 -0.3866  0.2298
 1303SOL    HW1 9924   1.578   2.181   5.647 -2.3039 -0.0753  3.0492
 1303SOL    HW2 9925   1.659   2.204   5.787  2.9009 -0.6820  0.3977
 1304SOL     OW 9926   3.377   6.401   6.458  0.2868  0.3671  0.3976
 1304SOL    HW1 9927   3.410   6.495   6.457  2.2257 -0.2326 -1.8608
 1304SOL    HW2 9928   3.306   6.389   6.388  1.1884 -0.1684 -0.4500
 1305SOL     OW 9929   4.505   5.924   4.820 -0.1198  0.0907  0.3494
 1305SOL    HW1 9930   4.422   5.876   4.848  0.1418  0.5769  2.0913
 1305SOL    HW2 9931   4.489   6.023   4.823 -0.0808  0.1735 -1.3411
 1306SOL     OW 9932   4.656   0.827   1.159  0.0076 -0.5086  0.1643
 1306SOL    HW1 9933   4.725   0.769   1.203  0.5034 -1.0751 -1.3000
 1306SOL    HW2 9934   4.573   0.774   1.142  0.8280 -1.1969 -2.1406
 1307SOL     OW 9935   6.042   2.344   5.144 -0.2054  0.0150 -0.4039
 1307SOL    HW1 9936   5.960   2.372   5.193 -1.1134 -2.1544 -0.5624
 1307SOL    HW2 9937   6.073   2.419   5.085 -1.0182  1.4874  0.9679
 1308SOL     OW 9938   0.389   0.161   6.216 -0.2438  0.0042 -0.0584
 1308SOL    HW1 9939   0.421   0.254   6.199 -0.6601  0.6487  2.2426
 1308SOL    HW2 9940   0.317   0.164   6.286 -0.6027 -2.0049 -0.3069
 1309SOL     OW 9941   3.768   4.199   1.358  0.4679 -0.0871  0.2148
 1309SOL    HW1 9942   3.750   4.221   1.454 -2.1335 -0.1599 -0.2033
 1309SOL    HW2 9943   3.776   4.100   1.347 -3.8572 -0.5856 -0.1834
 1310SOL     OW 9944   2.286   1.918   0.632 -0.4406 -0.2552 -0.0963
 1310SOL    HW1 9945   2.365   1.978   0.646  0.6831 -1.2398 -1.9033
 1310SOL    HW2 9946   2.296   1.869   0.546 -2.1529 -1.7925  0.5201
 1311SOL     OW 9947   2.516   2.860   5.968 -0.3401  0.1893  0.4606
 1311SOL    HW1 9948   2.460   2.801   5.910  0.0889  0.1965  0.0289
 1311SOL    HW2 9949   2.473   2.949   5.977 -1.4877 -0.4812  1.9165
 1312SOL     OW 9950   3.364   1.640   5.658  0.3770  0.3471  0.3484
 1312SOL    HW1 9951   3.398   1.550   5.630  2.6548  1.1400  0.3425
 1312SOL    HW2 9952   3.436   1.688   5.708 -0.6837  2.2733  0.1038
 1313SOL     OW 9953   6.354   5.316   5.038  0.2594 -0.4237  0.3604
 1313SOL    HW1 9954   6.284   5.329   4.968 -0.7947 -1.5056  1.1608
 1313SOL    HW2 9955   6.317   5.343   5.127  1.4015  0.4446  0.5830
 1314SOL     OW 9956   4.167   4.403   5.780 -0.2923 -0.2900 -0.4573
 1314SOL    HW1 9957   4.113   4.443   5.707 -0.7709  1.2554  0.7045
 1314SOL    HW2 9958   4.106   4.368   5.851  0.1077 -3.0568 -1.3571
 1315SOL     OW 9959   1.525   5.492   6.112 -0.0934 -0.7804  0.6004
 1315SOL    HW1 9960   1.524   5.394   6.091  0.6344 -0.7546  0.4451
 1315SOL    HW2 9961   1.500   5.544   6.030 -0.8390 -0.8487  0.7791
 1316SOL     OW 9962   3.182   5.175   6.255 -0.2429  0.2382 -0.6762
 1316SOL    HW1 9963   3.101   5.185   6.197 -0.8774  0.9743  0.3117
 1316SOL    HW2 9964   3.252   5.239   6.224 -0.3436  0.1820 -1.0228
 1317SOL     OW 9965   5.676   5.210   0.487  0.6467 -0.5573 -0.5232
 1317SOL    HW1 9966   5.735   5.153   0.544  2.3378  0.1240 -1.5064
 1317SOL    HW2 9967   5.612   5.260   0.545  0.4512 -1.9502  0.5112
 1318SOL     OW 9968   3.014   1.541   6.018 -0.5274  0.5600  0.1412
 1318SOL    HW1 9969   3.099   1.549   6.071  0.0113  2.3225 -0.9288
 1318SOL    HW2 9970   2.986   1.445   6.017  1.1626  0.0027  0.9636
 1319SOL     OW 9971   2.050   0.365   0.940  0.6438 -0.3105 -0.0425
 1319SOL    HW1 9972   2.007   0.293   0.995  0.8221 -1.6987 -1.6405
 1319SOL    HW2 9973   2.000   0.451   0.954 -2.5059 -1.7266 -1.4789
 1320SOL     OW 9974   4.141   2.864   0.314 -0.1129 -0.1978 -0.4645
 1320SOL    HW1 9975   4.173   2.945   0.264 -1.4350  0.0549 -0.9416
 1320SOL    HW2 9976   4.209   2.839   0.383  1.5683 -0.2812 -2.0558
 1321SOL     OW 9977   2.691   1.539   6.370  0.2055 -0.1404  0.6395
 1321SOL    HW1 9978   2.728   1.627   6.398  0.0401  0.0122  0.3875
 1321SOL    HW2 9979   2.627   1.553   6.294  2.1791 -0.7458 -1.2345
 1322SOL     OW 9980   5.207   3.975   1.529 -0.3612  0.1330  0.2846
 1322SOL    HW1 9981   5.171   4.059   1.571  0.6954  1.3479 -1.1441
 1322SOL    HW2 9982   5.198   3.981   1.430  0.0358 -1.3120  0.1457
 1323SOL     OW 9983   2.985   2.110   6.253 -0.2360  0.5749 -0.0921
 1323SOL    HW1 9984   2.948   2.052   6.180 -0.5472  0.0082  0.5133
 1323SOL    HW2 9985   2.944   2.085   6.340 -0.5862  1.8912  0.1518
 1324SOL     OW 9986   5.235   2.479   0.386 -0.4348 -0.3647  1.0980
 1324SOL    HW1 9987   5.188   2.496   0.299  0.1648 -0.5178  0.7402
 1324SOL    HW2 9988   5.232   2.561   0.442 -0.4462 -0.1307  0.7568
 1325SOL     OW 9989   3.787   4.685   0.342 -0.9551 -0.2266 -0.0634
 1325SOL    HW1 9990   3.863   4.665   0.280  1.0432  0.9873  1.8210
 1325SOL    HW2 9991   3.777   4.784   0.351 -0.8382 -0.3477  1.8546
 1326SOL     OW 9992   3.208   3.083   6.035 -0.3109  0.0892  0.7556
 1326SOL    HW1 9993   3.252   2.996   6.014 -0.2074  0.5299 -1.0751
 1326SOL    HW2 9994   3.278   3.155   6.040 -0.2480 -0.0637  3.4477
 1327SOL     OW 9995   5.760   2.910   0.049 -0.1141 -0.4580 -0.3416
 1327SOL    HW1 9996   5.813   2.833   0.014  0.4866 -0.9029  1.4253
 1327SOL    HW2 9997   5.677   2.876   0.093  0.8366 -0.2792  1.6860
 1328SOL     OW 9998   3.417   3.592   2.043 -0.2626  0.2852 -0.0119
 1328SOL    HW1 9999   3.517   3.587   2.050 -0.2699  1.8279  1.9016
 1328SOL    HW210000   3.379   3.627   2.128 -2.4947 -0.4961 -0.6150
 1329SOL     OW10001   3.864   2.095   5.864  0.1103 -0.0666 -0.3848
 1329SOL    HW110002   3.960   2.096   5.834  0.1274 -2.2915 -0.5806
 1329SOL    HW210003   3.808   2.057   5.791 -0.2137 -3.2388  1.3648
 1330SOL     OW10004   2.809   1.441   1.386  0.2295  0.1807 -0.4812
 1330SOL    HW110005   2.800   1.524   1.442 -0.3458 -0.1838 -0.0123
 1330SOL    HW210006   2.888   1.389   1.416 -0.8427 -0.7061  0.9690
 1331SOL     OW10007   4.122   4.440   1.273  0.0068 -0.1860  0.2308
 1331SOL    HW110008   4.054   4.444   1.200 -2.2519  1.7183  2.2703
 1331SOL    HW210009   4.152   4.345   1.286 -4.5399 -1.7240  1.1242
 1332SOL     OW10010   0.864   5.207   1.223  0.7662  0.1880 -0.1491
 1332SOL    HW110011   0.907   5.228   1.135 -0.6358  0.8147 -0.7345
 1332SOL    HW210012   0.933   5.207   1.295  1.9584 -0.3930 -1.2505
 1333SOL     OW10013   0.819   1.207   0.350  0.4338  0.1022  0.4079
 1333SOL    HW110014   0.765   1.230   0.269  2.3517  2.3853 -0.3259
 1333SOL    HW210015   0.915   1.195   0.324  0.8025 -0.9396  2.1103
 1334SOL     OW10016   3.581   3.114   5.980 -0.1120 -0.0640 -0.3001
 1334SOL    HW110017   3.681   3.122   5.978  0.0051 -0.9018  0.8326
 1334SOL    HW210018   3.545   3.158   6.062 -0.7888  1.0257 -1.1459
 1335SOL     OW10019   1.133   0.001   5.571 -0.6960 -0.8292  0.1555
 1335SOL    HW110020   1.138  -0.049   5.485  0.9210 -2.0338  0.8877
 1335SOL    HW210021   1.163   0.095   5.557  0.1682 -1.1914 -0.4777
 1336SOL     OW10022   3.556   0.623   0.873 -0.4806  0.0021 -0.6294
 1336SOL    HW110023   3.646   0.586   0.895 -0.1777 -1.5718 -3.8974
 1336SOL    HW210024   3.495   0.612   0.951  0.9026 -3.3023  0.1277
 1337SOL     OW10025   2.612   5.261   0.106 -0.5025  0.2216 -0.3665
 1337SOL    HW110026   2.618   5.318   0.024  2.3062  0.3391 -0.1860
 1337SOL    HW210027   2.678   5.186   0.099 -1.8331 -1.1232  0.8265
 1338SOL     OW10028   5.552   5.383   0.662 -0.2463 -0.0226 -0.0831
 1338SOL    HW110029   5.507   5.470   0.684 -2.4533 -1.2447  0.5075
 1338SOL    HW210030   5.616   5.359   0.735  1.9747  2.0449 -1.2242
 1339SOL     OW10031   3.984   4.791   1.076 -0.4076  0.3114  0.6260
 1339SOL    HW110032   3.977   4.847   1.158 -1.1541  0.1409  0.6850
 1339SOL    HW210033   3.990   4.695   1.102  0.0477  0.3062  0.5012
 1340SOL     OW10034   6.262   4.829   0.481 -0.0677  0.2409  0.4260
 1340SOL    HW110035   6.257   4.928   0.467 -0.5664  0.3240  1.1495
 1340SOL    HW210036   6.180   4.798   0.529 -0.5159 -0.7137 -0.8757
 1341SOL     OW10037   0.935   1.604   5.759 -0.0122  0.2274 -1.0747
 1341SOL    HW110038   1.004   1.534   5.776  1.0742  0.8762 -2.6381
 1341SOL    HW210039   0.909   1.603   5.663 -1.5064  0.6339 -0.7134
 1342SOL     OW10040   5.948   5.224   4.792  0.1848 -0.5643 -0.2182
 1342SOL    HW110041   6.015   5.166   4.839  1.2366  2.1000  1.8159
 1342SOL    HW210042   5.989   5.263   4.710  0.7181  0.0138  0.3104
 1343SOL     OW10043   1.650   6.137   0.775 -0.4349 -0.2420  0.0044
 1343SOL    HW110044   1.687   6.069   0.713 -1.5618 -1.7317  0.8979
 1343SOL    HW210045   1.685   6.121   0.867 -1.9717 -0.6713  0.5466
 1344SOL     OW10046   0.143   3.555   0.131 -0.5082 -0.0688  0.2637
 1344SOL    HW110047   0.164   3.491   0.056 -2.1176 -0.5642  0.1932
 1344SOL    HW210048   0.206   3.632   0.128  0.9967 -1.2740 -0.1200
 1345SOL     OW10049   5.613   2.774   6.082 -0.1529  0.4969 -0.5822
 1345SOL    HW110050   5.707   2.749   6.056 -0.6209 -0.6842 -1.2092
 1345SOL    HW210051   5.548   2.718   6.030 -1.2539  2.2134 -1.1372
 1346SOL     OW10052   5.850   1.672   6.113  0.5215  0.7481 -0.0472
 1346SOL    HW110053   5.848   1.705   6.207  0.1967 -2.7958  1.3642
 1346SOL    HW210054   5.760   1.683   6.071 -0.1880 -0.3000  1.1542
 1347SOL     OW10055   1.318   1.690   5.821 -0.3064  0.1876 -0.4606
 1347SOL    HW110056   1.265   1.673   5.738 -1.3477 -1.4622  0.5054
 1347SOL    HW210057   1.309   1.786   5.847 -0.8704  0.4668 -1.6219
 1348SOL     OW10058   6.258   1.636   0.687 -0.1697 -0.1614 -0.2732
 1348SOL    HW110059   6.307   1.700   0.627  0.5049 -1.0484 -0.6919
 1348SOL    HW210060   6.323   1.570   0.725 -0.8839 -0.7312 -0.0281
 1349SOL     OW10061   4.412   4.202   5.184  0.0681  0.8003  0.3298
 1349SOL    HW110062   4.369   4.180   5.097 -0.7874 -2.9492  1.5036
 1349SOL    HW210063   4.510   4.180   5.179 -0.3816 -1.6528  0.8346
 1350SOL     OW10064   2.467   4.206   1.579  0.0342 -0.4594  0.1317
 1350SOL    HW110065   2.477   4.174   1.673  0.3675  0.2842  0.3634
 1350SOL    HW210066   2.555   4.199   1.532 -0.7653 -3.7874 -1.1485
 1351SOL     OW10067   1.719   2.946   5.844  0.4644  0.0895  0.3689
 1351SOL    HW110068   1.626   2.909   5.835  0.8550 -0.9057  0.3013
 1351SOL    HW210069   1.759   2.914   5.930  1.2928 -0.7744 -0.3130
 1352SOL     OW10070   2.701   4.852   0.938  0.0989  0.6748  0.4177
 1352SOL    HW110071   2.637   4.864   0.863  0.7754  0.4334 -0.2149
 1352SOL    HW210072   2.715   4.754   0.954  0.6603  0.7189  0.2287
 1353SOL     OW10073   3.700   3.603   5.572 -0.6329  0.0189 -0.2454
 1353SOL    HW110074   3.792   3.615   5.536 -0.3049 -2.3541 -0.3484
 1353SOL    HW210075   3.634   3.607   5.497 -0.5572  0.8792 -0.2802
 1354SOL     OW10076   6.290   0.540   5.397 -0.2490 -0.0186  0.0239
 1354SOL    HW110077   6.204   0.496   5.372 -0.1171 -1.4732  1.8518
 1354SOL    HW210078   6.317   0.510   5.489  1.9647  0.7774 -0.2973
 1355SOL     OW10079   6.045   2.495   0.249  0.5513 -0.2049  0.3198
 1355SOL    HW110080   6.020   2.573   0.192 -0.2313 -0.5258  0.2060
 1355SOL    HW210081   6.009   2.411   0.207 -0.0996 -0.4402  1.3271
 1356SOL     OW10082   5.071   4.391   5.730  0.1050 -0.3187  0.4507
 1356SOL    HW110083   5.020   4.477   5.732 -0.5416 -0.6801 -0.1693
 1356SOL    HW210084   5.131   4.390   5.650  0.2850 -0.3538  0.5850
 1357SOL     OW10085   3.908   2.426   6.581 -0.0784  1.0114 -1.1862
 1357SOL    HW110086   3.868   2.493   6.518 -0.1719  0.9496 -1.1916
 1357SOL    HW210087   3.946   2.473   6.660 -1.0875  0.9818 -0.6747
 1358SOL     OW10088   3.707   0.939   5.751  0.4365 -0.4997  0.1774
 1358SOL    HW110089   3.622   0.964   5.798  0.6283 -1.6386  1.1802
 1358SOL    HW210090   3.742   0.852   5.788  2.2733  0.1578  0.0935
 1359SOL     OW10091   3.225   0.401   5.393 -0.7655 -0.4080  0.3938
 1359SOL    HW110092   3.207   0.499   5.383 -1.0679 -0.5427 -0.4714
 1359SOL    HW210093   3.321   0.387   5.419 -0.3179  0.0579 -0.9424
 1360SOL     OW10094   5.974   3.742   1.192 -0.4124  0.4186 -0.2535
 1360SOL    HW110095   6.023   3.654   1.200 -0.2584  0.5770  0.6593
 1360SOL    HW210096   5.876   3.727   1.206 -0.4804  0.2924 -0.8224
 1361SOL     OW10097   0.599   6.219   5.877 -0.3204 -0.1202 -0.3409
 1361SOL    HW110098   0.606   6.276   5.959 -0.2001 -1.6301  0.7415
 1361SOL    HW210099   0.503   6.199   5.858 -0.3042 -0.6245  0.0717
 1362SOL     OW10100   2.591   1.733   5.878  0.0398 -0.0536 -0.8670
 1362SOL    HW110101   2.584   1.785   5.963  0.8655 -1.3077  0.0243
 1362SOL    HW210102   2.552   1.642   5.892 -1.0884  0.1785 -2.2813
 1363SOL     OW10103   4.760   3.979   1.055 -0.0910  0.0893  0.0068
 1363SOL    HW110104   4.812   4.003   0.973 -0.6258 -0.3923 -0.4836
 1363SOL    HW210105   4.685   3.917   1.030 -0.9027  0.7601  0.7001
 1364SOL     OW10106   1.902   0.556   6.046  0.7215 -0.4960  0.0190
 1364SOL    HW110107   1.822   0.614   6.032  0.2061 -1.5486 -1.7388
 1364SOL    HW210108   1.877   0.477   6.102  1.4599  0.9360  2.5477
 1365SOL     OW10109   5.069   6.088   0.027  0.2374 -0.4346  0.0777
 1365SOL    HW110110   5.061   6.021  -0.047  1.6310  0.8120 -1.2720
 1365SOL    HW210111   5.022   6.054   0.108 -1.0682 -1.9903 -1.2694
 1366SOL     OW10112   4.899   1.674   6.079 -0.0790  0.8123  0.6888
 1366SOL    HW110113   4.869   1.580   6.094  0.4300  0.6816  0.9152
 1366SOL    HW210114   4.855   1.711   5.997 -0.5964  0.5187  0.8288
 1367SOL     OW10115   1.070   6.157   1.512 -0.1315 -0.0657 -0.0095
 1367SOL    HW110116   0.978   6.190   1.533 -0.7872 -1.2244 -0.9304
 1367SOL    HW210117   1.138   6.223   1.545 -1.2766  0.7490  0.7950
 1368SOL     OW10118   2.126   5.632   4.944 -0.0676  0.6121  0.0269
 1368SOL    HW110119   2.223   5.657   4.934  0.1443  0.5146  1.4992
 1368SOL    HW210120   2.105   5.554   4.885  0.1572  2.0242 -1.9879
 1369SOL     OW10121   5.898   2.268   1.273  0.0327  0.0184  0.6033
 1369SOL    HW110122   5.937   2.348   1.227 -0.5051 -0.2925 -0.4133
 1369SOL    HW210123   5.917   2.274   1.371  3.5511 -0.6654  0.0834
 1370SOL     OW10124   2.830   1.350   6.218  0.0595  0.2991 -0.1279
 1370SOL    HW110125   2.775   1.332   6.137  0.8615  0.7446 -0.7888
 1370SOL    HW210126   2.782   1.412   6.279 -1.0295 -0.8999  0.2857
 1371SOL     OW10127   1.845   2.822   6.041 -0.0744 -0.3302 -0.7167
 1371SOL    HW110128   1.865   2.905   6.093  0.0996 -0.5103 -0.4969
 1371SOL    HW210129   1.903   2.747   6.073 -0.6198 -0.6803 -0.5324
 1372SOL     OW10130   0.079   3.703   5.850 -0.4947 -0.5003 -0.2179
 1372SOL    HW110131   0.135   3.786   5.853  0.2480 -1.0008  0.0754
 1372SOL    HW210132   0.071   3.672   5.755 -0.3350 -0.3829 -0.2698
 1373SOL     OW10133   0.474   1.490   1.595 -0.0586  0.8972 -0.1746
 1373SOL    HW110134   0.509   1.565   1.652 -0.6745  1.4581 -0.5162
 1373SOL    HW210135   0.512   1.403   1.627  2.4979  1.5448 -1.1673
 1374SOL     OW10136   5.430   1.259   5.556 -0.1743  0.0038 -0.1997
 1374SOL    HW110137   5.379   1.244   5.471 -0.0509 -1.3112 -0.0625
 1374SOL    HW210138   5.373   1.235   5.634  0.8363 -2.2139 -0.0714
 1375SOL     OW10139   4.487   3.886   5.009  0.1386  0.5059 -0.3766
 1375SOL    HW110140   4.399   3.860   5.050 -0.1836  1.5605 -0.3708
 1375SOL    HW210141   4.500   3.985   5.017 -0.1022  0.8391 -3.0713
 1376SOL     OW10142   4.050   5.547   5.658  0.4221  0.5514 -0.0505
 1376SOL    HW110143   4.106   5.615   5.705 -0.1686  1.3126 -0.4160
 1376SOL    HW210144   4.098   5.513   5.578  1.0263 -0.0235  0.5446
 1377SOL     OW10145   5.921   2.204   0.371 -1.0749  0.1582  0.6074
 1377SOL    HW110146   5.889   2.173   0.282 -0.1990 -0.7365  0.5794
 1377SOL    HW210147   5.852   2.263   0.413 -2.0770 -0.4927 -0.0822
 1378SOL     OW10148   4.367   3.387   4.367 -0.1797  0.5465  0.6702
 1378SOL    HW110149   4.355   3.289   4.382  0.9642 -0.0691 -1.8108
 1378SOL    HW210150   4.281   3.434   4.384 -1.0789 -1.0680  0.8033
 1379SOL     OW10151   5.723   4.401   6.396  0.6714  0.1971  0.2784
 1379SOL    HW110152   5.785   4.324   6.417  2.3625  0.9946 -1.4233
 1379SOL    HW210153   5.634   4.385   6.439  2.3045 -0.5103  3.7668
 1380SOL     OW10154   6.052   6.387   6.295  0.6975 -0.0285  0.1130
 1380SOL    HW110155   6.113   6.307   6.294  0.2890 -0.3506 -1.3356
 1380SOL    HW210156   5.979   6.373   6.229  0.5582  1.5128 -0.0812
 1381SOL     OW10157   4.473   2.859   5.495 -0.2365  0.0481  0.0988
 1381SOL    HW110158   4.399   2.804   5.458 -0.1684  0.1396 -0.1730
 1381SOL    HW210159   4.449   2.956   5.490  0.7634  0.2386 -1.9618
 1382SOL     OW10160   4.531   6.099   6.567  0.2465 -0.5303  0.2615
 1382SOL    HW110161   4.490   6.032   6.630  1.4928 -1.5651  0.0164
 1382SOL    HW210162   4.528   6.062   6.474  0.3388  0.0644  0.0201
 1383SOL     OW10163   1.540   3.529   1.538  0.8383 -0.1301 -0.3722
 1383SOL    HW110164   1.447   3.564   1.528  0.9075 -0.3805 -2.5240
 1383SOL    HW210165   1.537   3.430   1.546  0.7145  0.0391  4.5615
 1384SOL     OW10166   5.815   2.419   0.744 -0.3116  0.8364  0.3911
 1384SOL    HW110167   5.834   2.322   0.757 -0.7678  0.3968 -1.7571
 1384SOL    HW210168   5.901   2.470   0.744  0.2662 -0.0336 -1.4391
 1385SOL     OW10169   2.131   5.893   6.059  0.1685 -0.4610  0.2965
 1385SOL    HW110170   2.113   5.866   6.154  0.8400 -1.6289  0.1196
 1385SOL    HW210171   2.079   5.975   6.037  0.0275 -0.1449  1.6860
 1386SOL     OW10172   1.295   4.029   5.911 -0.0664 -0.6251 -0.1431
 1386SOL    HW110173   1.284   4.104   5.846 -0.1340 -2.8990 -2.9336
 1386SOL    HW210174   1.320   4.066   6.000 -0.1320  2.6771 -1.3602
 1387SOL     OW10175   3.801   5.728   0.407 -0.1601 -0.0374  0.0338
 1387SOL    HW110176   3.737   5.801   0.432  0.2463 -0.1884  1.6708
 1387SOL    HW210177   3.754   5.640   0.413 -0.6877  0.0618 -2.0733
 1388SOL     OW10178   3.332   6.353   0.151  0.1425 -0.1597 -0.0209
 1388SOL    HW110179   3.354   6.444   0.188 -0.4092  0.0836 -0.2790
 1388SOL    HW210180   3.367   6.345   0.058  0.2060 -0.2175  0.0079
 1389SOL     OW10181   4.863   4.511   1.703 -0.3653 -0.3772 -0.1976
 1389SOL    HW110182   4.891   4.569   1.780 -3.5813  1.5539 -0.3376
 1389SOL    HW210183   4.866   4.415   1.731  0.2852  0.1569  1.7140
 1390SOL     OW10184   1.239   5.836   5.526  0.2523 -0.0579  0.2866
 1390SOL    HW110185   1.326   5.876   5.495  0.8912 -2.5575 -1.4523
 1390SOL    HW210186   1.165   5.865   5.466  0.9687 -2.4625 -1.9193
 1391SOL     OW10187   5.142   6.085   1.050 -0.0325  0.1172  0.5434
 1391SOL    HW110188   5.181   6.105   1.139 -0.6470 -0.9425  1.0718
 1391SOL    HW210189   5.065   6.022   1.061 -1.9153  2.1246 -0.4513
 1392SOL     OW10190   4.303   3.132   4.464 -0.6746  0.2439  0.4972
 1392SOL    HW110191   4.207   3.138   4.437 -0.6599  0.4900  0.4914
 1392SOL    HW210192   4.320   3.044   4.508 -0.1466 -1.1663 -2.3519
 1393SOL     OW10193   0.190   2.103   6.019  0.1845 -0.2970 -0.2954
 1393SOL    HW110194   0.148   2.194   6.029 -0.6163 -0.8218  1.5241
 1393SOL    HW210195   0.280   2.103   6.061 -0.0124 -0.4632  0.1314
 1394SOL     OW10196   1.551   0.001   1.251  0.4048  0.3260 -0.0346
 1394SOL    HW110197   1.511  -0.052   1.177 -1.5709 -0.5156  1.5427
 1394SOL    HW210198   1.636  -0.043   1.282 -0.2046 -0.8680 -0.0132
 1395SOL     OW10199   2.780   0.021   5.041  0.6259  0.4448 -0.1325
 1395SOL    HW110200   2.761   0.097   4.980  1.0435  0.7996  0.1692
 1395SOL    HW210201   2.766   0.049   5.136 -5.1966 -1.4766 -0.0174
 1396SOL     OW10202   0.970   4.222   0.259 -0.2704  0.8589  0.2761
 1396SOL    HW110203   1.053   4.172   0.283  0.0912  0.1573 -2.1329
 1396SOL    HW210204   0.945   4.284   0.333 -1.1403 -3.2561  3.8521
 1397SOL     OW10205   4.028   1.476   4.972  0.6627  0.3859 -0.3596
 1397SOL    HW110206   3.942   1.448   5.014  0.0700 -0.5165 -2.0711
 1397SOL    HW210207   4.065   1.399   4.919  0.5603  1.8606 -2.7057
 1398SOL     OW10208   4.692   5.577   1.598  0.2862 -0.3528  0.1050
 1398SOL    HW110209   4.617   5.628   1.639  1.3746  0.9379  0.5467
 1398SOL    HW210210   4.766   5.567   1.664  1.0545 -0.4215 -0.7521
 1399SOL     OW10211   4.552   0.841   4.876 -0.3534  0.1852 -0.1103
 1399SOL    HW110212   4.626   0.873   4.936 -0.7163 -0.2117  0.5736
 1399SOL    HW210213   4.578   0.853   4.781  1.0393 -0.8884  0.1049
 1400SOL     OW10214   4.562   4.388   0.169  0.0194 -0.2412 -0.5394
 1400SOL    HW110215   4.513   4.455   0.113 -1.2620 -0.1127  0.7004
 1400SOL    HW210216   4.661   4.405   0.162 -0.0579 -0.3626 -2.8965
 1401SOL     OW10217   5.188   5.472   0.317 -0.3415  0.5531  0.1959
 1401SOL    HW110218   5.136   5.525   0.383  2.5145  3.2960  0.4732
 1401SOL    HW210219   5.125   5.426   0.253 -3.0438  1.1937  2.2260
 1402SOL     OW10220   4.870   2.742   5.577  0.0442 -0.8352 -0.3547
 1402SOL    HW110221   4.906   2.693   5.497 -0.2516 -0.5054 -0.6953
 1402SOL    HW210222   4.930   2.726   5.655  2.0565  1.2288 -1.3511
 1403SOL     OW10223   6.398   1.985   0.345  0.0048  0.1174  0.4262
 1403SOL    HW110224   6.412   2.036   0.430  0.8197  1.2113 -0.3365
 1403SOL    HW210225   6.468   2.011   0.279  0.5470 -2.1054  0.0359
 1404SOL     OW10226   0.240   1.510   6.197 -0.4017 -0.4691 -0.1158
 1404SOL    HW110227   0.306   1.574   6.156  0.3503 -1.2045 -0.0784
 1404SOL    HW210228   0.147   1.539   6.175 -0.1024  1.0336  0.4716
 1405SOL     OW10229   1.295   3.791   6.164 -0.6607  0.3836  0.3821
 1405SOL    HW110230   1.328   3.885   6.153  0.4809 -0.1765 -1.2126
 1405SOL    HW210231   1.279   3.750   6.075 -0.0949 -1.3015  1.0199
 1406SOL     OW10232   3.044   4.934   4.728 -0.2686 -0.1398  0.1537
 1406SOL    HW110233   3.021   4.837   4.730  1.1841 -0.5779 -1.5137
 1406SOL    HW210234   3.131   4.948   4.776  1.2751 -0.2928 -2.4124
 1407SOL     OW10235   6.321   3.680   6.036  0.1756 -0.2908 -0.4318
 1407SOL    HW110236   6.403   3.706   5.984 -0.3197  0.2622 -0.9469
 1407SOL    HW210237   6.245   3.664   5.973 -0.2599 -0.2484  0.0801
 1408SOL     OW10238   0.527   1.720   6.586 -0.4162 -0.2407 -0.0973
 1408SOL    HW110239   0.606   1.660   6.598 -0.2957 -0.1034 -0.2096
 1408SOL    HW210240   0.461   1.676   6.525  0.2827  0.3198 -1.2942
 1409SOL     OW10241   0.495   1.801   4.945 -0.3205 -0.0246  0.0382
 1409SOL    HW110242   0.591   1.774   4.944  0.0084  1.0723  0.2314
 1409SOL    HW210243   0.489   1.900   4.956 -1.4534  0.0434 -1.0329
 1410SOL     OW10244   6.283   6.107   0.655 -0.4737 -0.4279  0.0519
 1410SOL    HW110245   6.352   6.111   0.583 -1.8630  2.1668 -1.2803
 1410SOL    HW210246   6.192   6.101   0.615 -1.2426  0.1252  1.6085
 1411SOL     OW10247   0.445   5.053   6.185 -0.4187 -0.1930  0.3024
 1411SOL    HW110248   0.401   5.110   6.254  2.5518  1.0466  1.3776
 1411SOL    HW210249   0.450   5.103   6.098 -0.3120  0.0629  0.4529
 1412SOL     OW10250   3.739   3.743   0.350 -0.0388  0.2468  0.0197
 1412SOL    HW110251   3.826   3.755   0.396  0.0807 -2.8605  0.8368
 1412SOL    HW210252   3.750   3.684   0.270 -1.5259 -1.1967  0.8163
 1413SOL     OW10253   1.471   3.994   5.197  0.4986  0.5803 -0.4562
 1413SOL    HW110254   1.550   3.945   5.159 -0.2533 -0.0612 -1.2447
 1413SOL    HW210255   1.454   4.076   5.144  0.6909  0.7712 -0.2248
 1414SOL     OW10256   1.754   0.361   5.217  0.0759  0.0262  0.3369
 1414SOL    HW110257   1.763   0.452   5.179  0.3900 -0.5182 -0.9468
 1414SOL    HW210258   1.803   0.296   5.159 -0.1051 -0.9504  1.2498
 1415SOL     OW10259   0.253   0.776   6.280 -0.0888  0.4498  0.4755
 1415SOL    HW110260   0.275   0.777   6.378 -0.5644 -1.1105  0.6237
 1415SOL    HW210261   0.255   0.869   6.245  1.8602  0.8824  1.5734
 1416SOL     OW10262   1.916   2.892   0.501 -0.0101  0.0981 -0.0661
 1416SOL    HW110263   1.843   2.899   0.569  1.5537  1.4081  1.5838
 1416SOL    HW210264   1.949   2.983   0.479  4.1386 -0.4794  2.7489
 1417SOL     OW10265   5.117   4.101   0.955  0.0117 -0.2434 -0.1467
 1417SOL    HW110266   5.215   4.083   0.951  0.2231  0.0591  2.3704
 1417SOL    HW210267   5.100   4.184   1.008 -1.6375 -0.5586 -0.1272
 1418SOL     OW10268   5.442   0.090   5.617  0.7222  0.2164  0.1663
 1418SOL    HW110269   5.380   0.103   5.695  2.0609  1.1501  1.1059
 1418SOL    HW210270   5.397   0.032   5.549 -0.8654  0.1935  1.1742
 1419SOL     OW10271   2.586   0.704   0.718  0.8308 -0.7653  0.6389
 1419SOL    HW110272   2.545   0.741   0.634  0.7077  1.4874  1.6372
 1419SOL    HW210273   2.681   0.678   0.699  1.3303  1.2657  0.1581
 1420SOL     OW10274   3.257   0.262   0.648  0.0410 -0.0083  0.0789
 1420SOL    HW110275   3.178   0.287   0.592  0.0541  0.3513  0.2217
 1420SOL    HW210276   3.341   0.270   0.595  0.0005 -0.2089 -0.0165
 1421SOL     OW10277   1.019   1.833   1.734  0.4149  0.3166 -0.0992
 1421SOL    HW110278   0.965   1.902   1.685 -0.1347 -1.1211 -1.6316
 1421SOL    HW210279   0.958   1.777   1.790  0.7526  0.5401  0.5054
 1422SOL     OW10280   4.267   2.215   6.180  0.3521 -0.2528 -0.3721
 1422SOL    HW110281   4.344   2.166   6.222 -0.5253 -1.5690 -0.2396
 1422SOL    HW210282   4.286   2.229   6.083 -0.3801 -3.1291 -1.0240
 1423SOL     OW10283   3.323   0.170   5.711  0.4728 -0.0148 -0.4119
 1423SOL    HW110284   3.318   0.110   5.790 -0.2549  0.0582 -0.3993
 1423SOL    HW210285   3.337   0.115   5.628 -0.2041 -0.2134 -0.4019
 1424SOL     OW10286   4.776   6.055   0.470 -0.1448 -0.3364 -0.3204
 1424SOL    HW110287   4.787   5.956   0.458  0.0713 -0.3692  0.1205
 1424SOL    HW210288   4.736   6.073   0.560  0.5610  0.0174 -0.0711
 1425SOL     OW10289   3.152   5.916   5.155 -0.0182  0.2306  0.2760
 1425SOL    HW110290   3.241   5.956   5.177  0.1937 -0.4882  0.7455
 1425SOL    HW210291   3.090   5.988   5.122  0.4675  0.8762  0.7667
 1426SOL     OW10292   0.042   4.611   1.214 -0.5249 -0.5991  0.3595
 1426SOL    HW110293   0.060   4.618   1.312  2.1435  0.4930 -0.1343
 1426SOL    HW210294   0.032   4.704   1.176  0.5888 -0.9151 -0.7396
 1427SOL     OW10295   5.271   3.892   0.112 -0.1762 -0.2366 -0.2502
 1427SOL    HW110296   5.368   3.894   0.090  0.2879  5.6324  0.6069
 1427SOL    HW210297   5.259   3.885   0.211 -0.4525  0.3701 -0.2310
 1428SOL     OW10298   1.671   3.721   5.848 -0.4354  0.3462  0.7669
 1428SOL    HW110299   1.578   3.692   5.872 -0.5801  0.5771  0.4868
 1428SOL    HW210300   1.670   3.767   5.760 -0.4591  2.5975  1.8711
 1429SOL     OW10301   0.818   5.610   5.147  0.3217  0.1226  0.1731
 1429SOL    HW110302   0.722   5.627   5.121  0.2171 -0.2502  0.3089
 1429SOL    HW210303   0.866   5.569   5.070  0.3359  0.1826  0.1506
 1430SOL     OW10304   2.150   0.480   6.005 -0.8044 -0.3677  0.0098
 1430SOL    HW110305   2.058   0.516   6.019 -0.2281  0.9930  0.5199
 1430SOL    HW210306   2.208   0.507   6.082 -0.2447 -2.1915  0.2756
 1431SOL     OW10307   2.889   0.381   1.351  0.0654  0.0286 -0.1695
 1431SOL    HW110308   2.848   0.463   1.390 -1.4772 -0.9746  0.3847
 1431SOL    HW210309   2.899   0.393   1.252  1.0309  1.3421  0.0627
 1432SOL     OW10310   0.454   3.411   4.970 -0.3075  0.8546 -0.0399
 1432SOL    HW110311   0.521   3.485   4.984 -0.8996  0.9549  2.9400
 1432SOL    HW210312   0.362   3.450   4.969 -0.4844  0.5722 -2.9292
 1433SOL     OW10313   5.984   2.029   1.656 -0.3353  0.3028  0.7219
 1433SOL    HW110314   5.975   1.935   1.688  1.8867  0.1821  1.1519
 1433SOL    HW210315   5.986   2.091   1.736  1.5336  0.3549  0.6790
 1434SOL     OW10316   4.608   6.352   1.036  0.1801 -0.2435  0.4917
 1434SOL    HW110317   4.690   6.338   0.981  0.7597  0.1164  1.2677
 1434SOL    HW210318   4.633   6.375   1.129 -0.7997 -1.3589  1.0615
 1435SOL     OW10319   3.419   0.004   5.164 -0.1440  0.0335  0.2098
 1435SOL    HW110320   3.393  -0.072   5.105 -0.5924  2.4941 -3.0129
 1435SOL    HW210321   3.518   0.012   5.167 -0.1215  0.1355 -0.6132
 1436SOL     OW10322   4.584   3.319   0.129 -0.2017  0.1484 -0.2155
 1436SOL    HW110323   4.567   3.338   0.032 -2.0010 -0.6273 -0.0714
 1436SOL    HW210324   4.580   3.404   0.181 -2.3087  0.2040 -0.4114
 1437SOL     OW10325   5.832   5.105   6.446  0.7032  0.2369  0.4357
 1437SOL    HW110326   5.844   5.114   6.544  0.4094 -2.5872  0.8076
 1437SOL    HW210327   5.737   5.084   6.425  0.9077  0.0827 -0.3982
 1438SOL     OW10328   1.387   5.919   6.003 -0.1350  0.1448  0.2961
 1438SOL    HW110329   1.401   5.834   6.052 -0.0849 -0.5824 -0.9458
 1438SOL    HW210330   1.289   5.938   5.998 -0.4757 -1.8531 -2.6484
 1439SOL     OW10331   0.522   1.986   0.098 -0.6259 -0.2654 -0.3313
 1439SOL    HW110332   0.525   1.897   0.054 -0.2041  0.3899 -1.6650
 1439SOL    HW210333   0.609   2.033   0.084  0.6882 -1.0965  3.5627
 1440SOL     OW10334   4.222   3.550   0.973  0.3747  0.0083 -0.2368
 1440SOL    HW110335   4.314   3.513   0.958  0.6880  0.0536  1.4513
 1440SOL    HW210336   4.199   3.547   1.070 -1.1635  0.6107 -0.5433
 1441SOL     OW10337   3.058   1.866   5.132  0.3905  0.4489  0.1046
 1441SOL    HW110338   3.046   1.784   5.076  1.6618  0.5290 -0.3213
 1441SOL    HW210339   3.045   1.947   5.074 -2.7071  0.6437  0.8974
 1442SOL     OW10340   1.589   5.254   5.754  0.3266 -0.0438  0.3170
 1442SOL    HW110341   1.676   5.290   5.720 -0.3105  2.2714  0.9816
 1442SOL    HW210342   1.593   5.245   5.853 -0.5362  1.1924  0.4860
 1443SOL     OW10343   2.339   4.667   0.406  0.0862 -0.3179  0.1180
 1443SOL    HW110344   2.250   4.648   0.447 -1.2793 -0.2457 -2.5559
 1443SOL    HW210345   2.329   4.674   0.306  2.7685  1.6513 -0.1345
 1444SOL     OW10346   2.619   0.987   0.774  0.2532 -0.2410  0.4060
 1444SOL    HW110347   2.550   0.918   0.797  0.0532 -0.5263 -0.9647
 1444SOL    HW210348   2.709   0.955   0.804  0.0022 -0.5595  0.8320
 1445SOL     OW10349   0.320   6.347   0.278 -0.2414 -0.6497  0.0719
 1445SOL    HW110350   0.359   6.439   0.274  0.5830 -0.9062  1.5115
 1445SOL    HW210351   0.361   6.290   0.207  0.3870 -0.3172  0.1652
 1446SOL     OW10352   2.359   2.040   0.117 -0.4864 -0.0173 -0.1267
 1446SOL    HW110353   2.338   1.984   0.197  0.4580  0.5501  0.5339
 1446SOL    HW210354   2.316   2.130   0.127 -1.7771 -0.4892 -1.0627
 1447SOL     OW10355   0.985   3.622   0.975  0.2254  0.2829  0.4126
 1447SOL    HW110356   1.028   3.580   1.055  2.0433  0.0119 -0.6529
 1447SOL    HW210357   0.887   3.632   0.992  0.0171 -2.5454  1.4984
 1448SOL     OW10358   3.702   4.463   6.402 -0.3459  0.3046  0.3216
 1448SOL    HW110359   3.741   4.448   6.311  2.7923 -0.8992  1.7078
 1448SOL    HW210360   3.643   4.386   6.427  0.7944 -0.6285  0.2273
 1449SOL     OW10361   0.647   2.328   1.057  0.4418 -0.3425 -0.3159
 1449SOL    HW110362   0.653   2.236   1.093 -0.7200  0.0215  0.9007
 1449SOL    HW210363   0.650   2.394   1.132 -0.4441  0.5154 -0.9919
 1450SOL     OW10364   5.341   5.185   2.252  0.1657 -0.3422 -0.0968
 1450SOL    HW110365   5.253   5.229   2.264 -0.1941 -1.1727  0.3993
 1450SOL    HW210366   5.329   5.086   2.250  1.1790 -0.5057  0.8301
 1451SOL     OW10367   1.836   1.828   6.496  0.4305  0.5781  0.6878
 1451SOL    HW110368   1.801   1.744   6.539  1.0371  0.5533  1.1311
 1451SOL    HW210369   1.787   1.907   6.533 -0.2113  0.4232  0.1990
 1452SOL     OW10370   4.222   4.440   0.841  0.3002  0.0208  0.3800
 1452SOL    HW110371   4.314   4.442   0.801  1.2980  0.5993  2.5210
 1452SOL    HW210372   4.193   4.346   0.856  1.1718 -0.1683  0.9526
 1453SOL     OW10373   0.361   1.336   0.107 -0.7282 -0.6017  0.4917
 1453SOL    HW110374   0.318   1.249   0.132  0.3719 -1.3419 -0.1162
 1453SOL    HW210375   0.356   1.348   0.008 -0.1205 -0.3843  0.4845
 1454SOL     OW10376   1.660   0.317   0.594 -0.1294  0.2420  0.1707
 1454SOL    HW110377   1.621   0.270   0.515 -0.9490  0.5065  0.4110
 1454SOL    HW210378   1.740   0.267   0.626 -1.0602 -1.0759  0.5105
 1455SOL     OW10379   2.782   2.754   0.342  0.1868 -0.3980 -0.6070
 1455SOL    HW110380   2.870   2.714   0.317  0.4557  0.4252 -1.0008
 1455SOL    HW210381   2.711   2.684   0.335  1.3843 -2.5857  4.3386
 1456SOL     OW10382   5.825   1.814   0.878  1.0854 -0.0485  0.4045
 1456SOL    HW110383   5.839   1.798   0.976  1.5596 -3.3204 -0.0791
 1456SOL    HW210384   5.888   1.757   0.825 -0.4493  0.1652 -1.8232
 1457SOL     OW10385   2.725   0.380   5.240 -0.2761  0.2063 -0.9393
 1457SOL    HW110386   2.714   0.432   5.325 -0.4857 -1.2027 -0.0683
 1457SOL    HW210387   2.635   0.363   5.199 -0.1787  0.8449 -1.4351
 1458SOL     OW10388   6.279   3.140   0.138 -0.3666  0.2196 -0.4401
 1458SOL    HW110389   6.268   3.201   0.216  0.0619  1.3845 -1.2595
 1458SOL    HW210390   6.365   3.090   0.147 -0.4305  0.1772 -0.0551
 1459SOL     OW10391   4.348   1.525   4.702 -0.2030 -0.2918  0.2093
 1459SOL    HW110392   4.381   1.487   4.615  1.3259  1.2670  0.0466
 1459SOL    HW210393   4.358   1.456   4.774  0.8173 -0.8011 -0.3942
 1460SOL     OW10394   3.777   4.051   6.563 -0.9897 -0.4461  0.2193
 1460SOL    HW110395   3.866   4.058   6.519 -1.6987 -1.6786 -1.5538
 1460SOL    HW210396   3.782   4.087   6.656  1.3078 -0.3849  0.1189
 1461SOL     OW10397   5.249   3.110   6.087 -0.0725  0.0744  0.3559
 1461SOL    HW110398   5.196   3.087   6.006  2.2221  0.0143 -1.2290
 1461SOL    HW210399   5.281   3.205   6.081  0.2517  0.0251  1.1149
 1462SOL     OW10400   4.741   5.597   5.101 -0.3419 -0.0536 -0.0784
 1462SOL    HW110401   4.773   5.683   5.061 -0.4434 -0.0901 -0.2408
 1462SOL    HW210402   4.649   5.578   5.068 -0.4848 -0.0111  0.2879
 1463SOL     OW10403   2.801   4.163   5.849  0.3192  0.0996  0.7670
 1463SOL    HW110404   2.715   4.118   5.871  0.4389 -0.7586 -0.4398
 1463SOL    HW210405   2.871   4.095   5.827  0.9704  0.8213  0.5239
 1464SOL     OW10406   5.819   4.562   5.937 -0.7090 -0.0070  0.1478
 1464SOL    HW110407   5.881   4.639   5.922 -0.8641  0.1835  0.4597
 1464SOL    HW210408   5.813   4.543   6.034  1.4738 -2.2232 -0.0604
 1465SOL     OW10409   0.847   1.908   1.507 -0.1055 -0.1830  0.3505
 1465SOL    HW110410   0.857   1.987   1.446 -0.4478 -0.4421 -0.0530
 1465SOL    HW210411   0.905   1.833   1.473 -0.7736 -0.5371 -0.0223
 1466SOL     OW10412   5.105   6.206   5.869  0.5113  0.6025  0.3210
 1466SOL    HW110413   5.023   6.148   5.861  0.9427  0.1690 -1.6621
 1466SOL    HW210414   5.083   6.288   5.921 -1.1805  0.4723 -0.1291
 1467SOL     OW10415   2.414   5.632   5.199 -0.2078  0.1225 -0.0123
 1467SOL    HW110416   2.388   5.690   5.277  0.2156  0.4972 -0.1434
 1467SOL    HW210417   2.512   5.641   5.182 -0.5812  1.6604 -1.8474
 1468SOL     OW10418   5.855   5.756   0.505  0.5853  0.2238 -0.6546
 1468SOL    HW110419   5.843   5.657   0.492 -0.5601  0.5297 -2.1853
 1468SOL    HW210420   5.948   5.782   0.479  0.4336 -0.2454 -1.7022
 1469SOL     OW10421   5.047   4.446   6.434  0.4195 -0.1749  0.6579
 1469SOL    HW110422   5.054   4.391   6.518 -1.9024 -0.4680  0.7230
 1469SOL    HW210423   5.059   4.387   6.354  1.4921 -0.0967  0.7436
 1470SOL     OW10424   0.290   1.032   6.153 -0.1200  0.0027 -0.5187
 1470SOL    HW110425   0.288   1.056   6.056 -2.1363  2.0087 -0.0572
 1470SOL    HW210426   0.343   1.099   6.204  1.5160 -1.4132 -0.2466
 1471SOL     OW10427   0.502   5.253   5.977 -0.0091 -0.3724 -0.3903
 1471SOL    HW110428   0.460   5.290   5.893 -1.1884 -3.0386 -1.0782
 1471SOL    HW210429   0.553   5.325   6.023  0.0690  1.3773 -3.0125
 1472SOL     OW10430   3.760   6.056   1.293 -0.0360 -0.3703  0.5042
 1472SOL    HW110431   3.855   6.085   1.283 -0.6015  1.1474 -0.9105
 1472SOL    HW210432   3.712   6.121   1.352 -0.6513  0.0159 -0.4034
 1473SOL     OW10433   2.978   2.383   6.329  0.3573  0.2017 -0.0253
 1473SOL    HW110434   2.881   2.408   6.321  0.3107 -0.0679 -0.3164
 1473SOL    HW210435   2.996   2.301   6.275  0.2998 -0.9698  1.6285
 1474SOL     OW10436   3.822   3.587   6.020 -0.2587  0.2908 -0.2091
 1474SOL    HW110437   3.852   3.627   5.933  0.3451  2.5143  0.9556
 1474SOL    HW210438   3.758   3.648   6.065  0.0642 -0.4295  1.3098
 1475SOL     OW10439   2.525   0.520   5.841 -0.3933  0.1377  0.6268
 1475SOL    HW110440   2.484   0.430   5.830 -0.6165  0.4078 -0.9708
 1475SOL    HW210441   2.454   0.590   5.832 -0.5903  0.4837  3.7623
 1476SOL     OW10442   0.173   3.163   6.370  0.4564  0.0072 -0.2460
 1476SOL    HW110443   0.153   3.119   6.457  0.4631  1.8567  0.7303
 1476SOL    HW210444   0.088   3.201   6.332  0.3035 -1.4674 -1.4780
 1477SOL     OW10445   5.207   0.413   0.593 -0.2702 -0.1405 -0.2278
 1477SOL    HW110446   5.181   0.365   0.676  0.2422 -0.6806 -0.3751
 1477SOL    HW210447   5.151   0.380   0.516  0.6382 -1.1296 -0.4965
 1478SOL     OW10448   6.316   1.124   0.993  0.2828 -0.2592  0.0808
 1478SOL    HW110449   6.289   1.176   0.912  2.0114 -0.7839 -0.8879
 1478SOL    HW210450   6.325   1.186   1.071  0.2656  0.5492 -0.5452
 1479SOL     OW10451   3.457   2.627   5.649 -0.2590  0.0310  0.1921
 1479SOL    HW110452   3.412   2.565   5.585 -0.9678  0.8009 -0.0789
 1479SOL    HW210453   3.389   2.668   5.710  0.5442 -1.6439  2.3349
 1480SOL     OW10454   1.174   3.585   0.578  0.5718 -0.0467 -0.3882
 1480SOL    HW110455   1.266   3.566   0.614  0.5730 -1.3504 -1.0232
 1480SOL    HW210456   1.119   3.501   0.581 -1.1456  1.0315  1.4403
 1481SOL     OW10457   5.328   3.605   0.521  0.2954  0.0514  0.2020
 1481SOL    HW110458   5.413   3.611   0.573  0.9497 -0.5351 -0.7792
 1481SOL    HW210459   5.288   3.696   0.511  0.7995  0.3262  0.6667
 1482SOL     OW10460   2.161   4.012   0.537 -0.8656 -0.2790  0.2270
 1482SOL    HW110461   2.242   3.991   0.592 -0.8019  0.0644  0.2668
 1482SOL    HW210462   2.085   4.036   0.598 -1.5082 -2.3035  0.2733
 1483SOL     OW10463   2.600   1.380   5.267  0.2314 -0.6374 -0.5097
 1483SOL    HW110464   2.682   1.323   5.255  1.2699  0.5536  0.6284
 1483SOL    HW210465   2.539   1.336   5.333  1.6297  0.1096  1.3737
 1484SOL     OW10466   1.635   5.726   5.053  0.1881  0.4544 -0.1414
 1484SOL    HW110467   1.690   5.808   5.062  0.5273  0.2573 -0.4025
 1484SOL    HW210468   1.587   5.726   4.965  0.1095  0.4239 -0.0985
 1485SOL     OW10469   2.297   5.224   5.390 -0.1198 -0.5057  0.4139
 1485SOL    HW110470   2.253   5.254   5.305  2.4655  1.3582 -0.4004
 1485SOL    HW210471   2.307   5.125   5.390  0.7405 -0.4765 -1.9872
 1486SOL     OW10472   1.131   3.352   5.623  0.6476 -0.4621  0.0444
 1486SOL    HW110473   1.092   3.267   5.588 -0.3536 -0.1147  0.2807
 1486SOL    HW210474   1.132   3.420   5.550 -0.2155 -0.1441  0.3086
 1487SOL     OW10475   5.125   3.329   1.171 -0.0163 -0.3152 -0.2845
 1487SOL    HW110476   5.174   3.366   1.092  0.3063  0.8657  0.4391
 1487SOL    HW210477   5.061   3.397   1.206 -0.7479 -1.1264 -0.0189
 1488SOL     OW10478   2.811   2.559   0.581  0.3607  0.4434  0.3427
 1488SOL    HW110479   2.733   2.507   0.547  0.3660  1.2079 -0.8785
 1488SOL    HW210480   2.892   2.500   0.585 -0.1230 -0.1965  1.0662
 1489SOL     OW10481   1.700   2.071   0.046  0.5537 -1.0869  0.2818
 1489SOL    HW110482   1.782   2.091   0.100  0.2854 -0.9237  0.6294
 1489SOL    HW210483   1.644   2.003   0.092 -0.1847 -0.2069  0.7287
 1490SOL     OW10484   3.524   5.468   0.152  0.3406  0.0756 -0.2435
 1490SOL    HW110485   3.466   5.387   0.141 -0.1226  0.3745 -0.0007
 1490SOL    HW210486   3.526   5.494   0.248 -0.8317  1.3309 -0.5390
 1491SOL     OW10487   5.077   5.392   5.302  0.4054 -0.0543  0.0890
 1491SOL    HW110488   5.110   5.297   5.303  0.7864  0.0659 -0.6494
 1491SOL    HW210489   5.142   5.450   5.350 -0.8756 -0.4763  2.4793
 1492SOL     OW10490   4.575   5.198   5.631  0.1097  0.1137 -0.2205
 1492SOL    HW110491   4.593   5.136   5.708  0.3657  0.6656  0.1675
 1492SOL    HW210492   4.533   5.146   5.557  0.3187 -0.5301  0.0991
 1493SOL     OW10493   6.136   4.684   5.750 -0.9127  0.3614  0.1538
 1493SOL    HW110494   6.232   4.704   5.736 -0.7709 -0.2458  0.2195
 1493SOL    HW210495   6.110   4.604   5.696 -1.2013  0.0936  0.6746
 1494SOL     OW10496   6.081   5.433   6.228  0.5984  0.3171 -0.2290
 1494SOL    HW110497   6.053   5.425   6.324  0.2162 -0.8895 -0.4283
 1494SOL    HW210498   6.089   5.342   6.188  2.0304  0.7396 -0.9919
 1495SOL     OW10499   1.943   0.214   6.547  0.0974  0.3475 -0.5652
 1495SOL    HW110500   1.968   0.165   6.631 -0.2881 -0.7569 -1.0794
 1495SOL    HW210501   1.950   0.313   6.563  0.9827  0.1341  0.4637
 1496SOL     OW10502   2.656   3.326   0.421 -0.2611  0.1560 -0.4351
 1496SOL    HW110503   2.712   3.390   0.369  0.1441  0.2186  0.0806
 1496SOL    HW210504   2.694   3.233   0.411 -0.2291  0.1563 -0.3114
 1497SOL     OW10505   3.923   1.794   6.569 -0.1170  0.0221 -0.5092
 1497SOL    HW110506   4.010   1.812   6.615  0.9145 -0.3163 -2.2068
 1497SOL    HW210507   3.852   1.776   6.637  0.7908  1.7297  0.9712
 1498SOL     OW10508   1.801   2.210   6.391 -0.2095  0.4269  0.1745
 1498SOL    HW110509   1.777   2.198   6.487  0.2386 -0.2568  0.2006
 1498SOL    HW210510   1.730   2.265   6.346 -0.3731  0.8296  0.9121
 1499SOL     OW10511   6.168   4.147   6.566  0.5373 -0.5997  0.5208
 1499SOL    HW110512   6.187   4.065   6.621  0.1442 -2.0588 -1.3773
 1499SOL    HW210513   6.253   4.191   6.541  0.9133 -1.7337 -0.2639
 1500SOL     OW10514   3.171   0.590   6.247 -0.2014 -0.1162  0.2209
 1500SOL    HW110515   3.238   0.655   6.283 -0.4310  0.7536 -0.8782
 1500SOL    HW210516   3.186   0.579   6.149 -0.7737 -1.0139  0.2291
 1501SOL     OW10517   2.594   2.410   0.539 -0.3052  0.2811 -0.1755
 1501SOL    HW110518   2.521   2.465   0.580 -1.7775 -2.3758  1.0329
 1501SOL    HW210519   2.642   2.359   0.611  0.6651 -0.4060 -1.2681
 1502SOL     OW10520   2.719   1.688   0.903 -0.2921  0.1726  0.0032
 1502SOL    HW110521   2.755   1.780   0.920 -0.7355  0.3790 -0.1656
 1502SOL    HW210522   2.683   1.650   0.988 -0.3304  0.2518  0.0227
 1503SOL     OW10523   3.511   4.733   6.535  0.2665  0.1003 -0.1348
 1503SOL    HW110524   3.487   4.731   6.438 -0.2660  0.7721 -0.0283
 1503SOL    HW210525   3.527   4.640   6.567  1.0491 -0.0834 -1.0011
 1504SOL     OW10526   0.069   2.324   0.584  0.2843 -0.0826 -1.0559
 1504SOL    HW110527   0.107   2.339   0.675 -0.7278  1.8292 -0.9111
 1504SOL    HW210528   0.141   2.337   0.516  1.3132 -2.5545 -0.5600
 1505SOL     OW10529   2.013   0.650   1.215 -0.0870 -0.1213 -0.2626
 1505SOL    HW110530   2.000   0.713   1.291 -2.1765  0.2625 -0.8684
 1505SOL    HW210531   2.059   0.567   1.247 -0.4404  0.2519  1.2851
 1506SOL     OW10532   6.295   1.761   6.143 -0.4686  0.3313  0.0150
 1506SOL    HW110533   6.381   1.807   6.165 -0.3989  0.5481 -0.6875
 1506SOL    HW210534   6.267   1.704   6.220  0.9401 -0.6997 -0.2036
 1507SOL     OW10535   3.426   2.206   5.527  0.4671  0.3172 -0.8471
 1507SOL    HW110536   3.411   2.110   5.500  0.1284  0.1378 -0.0354
 1507SOL    HW210537   3.516   2.236   5.495  0.5227 -0.2319 -1.2200
 1508SOL     OW10538   3.893   2.159   5.492  0.2575  0.5685 -0.6715
 1508SOL    HW110539   3.985   2.119   5.496 -0.1035 -0.2565 -0.2793
 1508SOL    HW210540   3.828   2.095   5.532 -0.2540  1.8712  0.6738
 1509SOL     OW10541   3.986   1.933   4.939  0.2239  0.3156  0.2653
 1509SOL    HW110542   4.023   1.968   4.853 -0.9875 -0.8606 -0.7903
 1509SOL    HW210543   3.901   1.884   4.921 -0.4447  0.6561  2.2495
 1510SOL     OW10544   2.020   6.006   1.885  0.2562  0.2544  0.0351
 1510SOL    HW110545   2.097   5.943   1.874 -0.1924 -0.7348  2.0697
 1510SOL    HW210546   2.054   6.098   1.905  0.9028  0.1717 -0.6486
 1511SOL     OW10547   1.036   3.465   0.336 -0.8241 -0.3049  0.0123
 1511SOL    HW110548   1.048   3.553   0.381  0.8521 -0.0260 -0.9256
 1511SOL    HW210549   1.049   3.476   0.237  0.5475 -1.7895  0.0005
 1512SOL     OW10550   1.692   6.394   0.117  0.3669 -0.0751 -0.0389
 1512SOL    HW110551   1.690   6.377   0.019 -0.5465  0.6587 -0.1531
 1512SOL    HW210552   1.780   6.435   0.142  0.5549 -0.1531 -0.5658
 1513SOL     OW10553   0.085   2.978   6.576 -0.8603  0.0274 -0.0979
 1513SOL    HW110554   0.078   2.927   6.662  0.5440 -0.7791 -0.4290
 1513SOL    HW210555   0.028   2.933   6.507  0.2520 -1.0531 -0.3463
 1514SOL     OW10556   0.417   3.701   6.047 -0.1922  0.5496  0.0858
 1514SOL    HW110557   0.416   3.799   6.061 -0.5873  0.2379  2.7150
 1514SOL    HW210558   0.324   3.665   6.056  0.0752 -0.1625  0.0639
 1515SOL     OW10559   1.608   3.157   6.579 -0.1778 -0.9023  0.1865
 1515SOL    HW110560   1.614   3.190   6.485  0.1214 -0.7410  0.2626
 1515SOL    HW210561   1.537   3.208   6.628  0.8258  0.2045  0.5365
 1516SOL     OW10562   6.285   5.657   5.424 -0.2204 -0.3762  0.0426
 1516SOL    HW110563   6.271   5.756   5.421 -1.5374 -0.5719 -1.1546
 1516SOL    HW210564   6.301   5.629   5.519  1.3737  1.1056  0.2695
 1517SOL     OW10565   3.787   2.482   5.263  0.2107  0.4226  0.1502
 1517SOL    HW110566   3.754   2.576   5.272 -1.2543 -0.0367 -0.1462
 1517SOL    HW210567   3.843   2.474   5.180  0.4623  1.0572  0.2556
 1518SOL     OW10568   1.761   6.300   5.309 -0.4831  0.0921 -0.4951
 1518SOL    HW110569   1.805   6.364   5.247  0.1056  0.8065  0.6133
 1518SOL    HW210570   1.662   6.307   5.300 -0.4863  2.1106  0.4607
 1519SOL     OW10571   6.027   2.964   5.250 -0.8728 -0.1488 -0.2977
 1519SOL    HW110572   6.044   3.062   5.234  0.1477 -0.5958 -2.2525
 1519SOL    HW210573   5.971   2.928   5.176  0.8018 -1.5484 -0.9348
 1520SOL     OW10574   4.910   2.648   0.808  0.4599  0.1460  0.4025
 1520SOL    HW110575   4.835   2.602   0.761  1.1047 -3.4615  2.4869
 1520SOL    HW210576   4.886   2.661   0.905  2.6914 -2.0719  1.3789
 1521SOL     OW10577   0.640   4.251   0.590  0.0959  0.0896  0.4862
 1521SOL    HW110578   0.679   4.222   0.677  0.2662 -0.0276  0.3709
 1521SOL    HW210579   0.605   4.171   0.541 -0.0750  0.1651  0.4836
 1522SOL     OW10580   4.446   0.236   6.065 -0.0916 -0.9422  0.6441
 1522SOL    HW110581   4.465   0.245   5.967 -1.0137 -2.5591  0.2783
 1522SOL    HW210582   4.351   0.263   6.083  0.0865 -0.6186  1.0882
 1523SOL     OW10583   1.278   0.654   6.183  0.0182  0.1955 -0.2308
 1523SOL    HW110584   1.183   0.625   6.195 -0.2783  0.5271 -1.5890
 1523SOL    HW210585   1.314   0.617   6.098  0.8132  0.8311 -0.1876
 1524SOL     OW10586   2.926   5.274   6.130 -0.2503  0.1965 -0.5122
 1524SOL    HW110587   2.951   5.333   6.207  1.7051 -0.7364 -0.3735
 1524SOL    HW210588   2.853   5.212   6.158  1.5106 -1.2491  1.2232
 1525SOL     OW10589   0.222   2.510   1.712  0.1240  0.1886  0.0380
 1525SOL    HW110590   0.272   2.514   1.799 -0.1433  0.1793  0.1955
 1525SOL    HW210591   0.125   2.492   1.731  0.1965 -0.6090 -0.3017
 1526SOL     OW10592   4.899   5.977   0.989  0.0099 -0.1813  0.0575
 1526SOL    HW110593   4.835   6.054   0.996  0.2170  0.0019 -0.0555
 1526SOL    HW210594   4.921   5.961   0.893 -1.3130 -1.4375 -0.0765
 1527SOL     OW10595   3.826   5.922   6.378  0.3206 -0.0961  0.2627
 1527SOL    HW110596   3.900   5.941   6.443 -0.0297  0.1019  0.6124
 1527SOL    HW210597   3.747   5.888   6.428  0.2000 -0.3754 -0.1181
 1528SOL     OW10598   0.999   3.421   6.236  0.0125 -0.2388  0.1784
 1528SOL    HW110599   1.051   3.366   6.171 -0.1612 -0.0582 -0.1120
 1528SOL    HW210600   1.039   3.512   6.242 -0.8526  0.2229 -0.7881
 1529SOL     OW10601   0.763   2.567   0.912 -0.3829 -0.4687 -0.1193
 1529SOL    HW110602   0.711   2.647   0.881  0.6235  0.2647  0.0203
 1529SOL    HW210603   0.716   2.524   0.989  0.5772  1.8892  1.9326
 1530SOL     OW10604   2.282   3.316   6.536  0.4791  0.0448 -0.2695
 1530SOL    HW110605   2.290   3.256   6.616 -0.5480 -0.3965 -0.4797
 1530SOL    HW210606   2.317   3.407   6.559 -0.5020  0.1436  0.9303
 1531SOL     OW10607   0.807   0.822   5.985  0.3727  0.0083  0.8527
 1531SOL    HW110608   0.840   0.839   5.892 -1.0924 -0.9374  0.1232
 1531SOL    HW210609   0.758   0.903   6.018  1.2970  0.5198  1.0083
 1532SOL     OW10610   1.771   5.100   6.056  0.2359 -0.5243 -0.3629
 1532SOL    HW110611   1.800   5.023   6.112 -0.2522 -0.4768 -0.0459
 1532SOL    HW210612   1.803   5.086   5.962 -0.0166 -1.2051 -0.3514
 1533SOL     OW10613   0.425   2.896   1.310  0.2895 -0.0543  0.0624
 1533SOL    HW110614   0.359   2.912   1.384  0.4158  1.4663 -0.1266
 1533SOL    HW210615   0.518   2.915   1.344  0.3981  0.0965 -0.3177
 1534SOL     OW10616   5.437   2.768   5.264  0.5618  0.2887  0.3398
 1534SOL    HW110617   5.517   2.715   5.292 -0.5733 -2.2020 -0.8220
 1534SOL    HW210618   5.435   2.777   5.164 -0.1910  1.0579  0.4027
 1535SOL     OW10619   0.803   3.899   1.413 -0.4105 -0.0498 -0.1939
 1535SOL    HW110620   0.742   3.972   1.443  0.0681 -0.2381  1.2961
 1535SOL    HW210621   0.880   3.938   1.362 -1.0495  0.2989 -0.9204
 1536SOL     OW10622   1.962   5.314   6.113 -0.0859 -0.0953 -0.0132
 1536SOL    HW110623   1.920   5.400   6.139 -0.0581  0.5028 -1.8090
 1536SOL    HW210624   1.894   5.241   6.117 -0.7197  0.4406 -0.6821
 1537SOL     OW10625   0.867   2.596   6.054  0.6592  0.3131  0.3458
 1537SOL    HW110626   0.877   2.651   6.137  0.0645 -0.5089  0.9791
 1537SOL    HW210627   0.810   2.645   5.988  3.0869  2.0444 -0.5841
 1538SOL     OW10628   2.249   2.200   5.217  0.8456 -0.0795 -0.0345
 1538SOL    HW110629   2.246   2.146   5.133 -0.1947 -2.0121  1.1648
 1538SOL    HW210630   2.159   2.240   5.234  1.2597  0.9486 -0.2261
 1539SOL     OW10631   3.354   1.104   6.066 -0.3975  0.3974  0.5976
 1539SOL    HW110632   3.401   1.122   5.979 -2.0009  0.3159 -0.3313
 1539SOL    HW210633   3.347   1.189   6.118  2.1736  0.1171  1.5389
 1540SOL     OW10634   3.965   1.913   0.544 -0.0625 -0.2461 -0.3977
 1540SOL    HW110635   3.953   1.844   0.615  1.1666 -1.5663 -1.4090
 1540SOL    HW210636   3.989   2.001   0.587  1.1778 -1.1262  0.8306
 1541SOL     OW10637   3.844   2.898   6.414  0.7015 -0.2801  0.2333
 1541SOL    HW110638   3.872   2.876   6.320  1.5436 -1.9826  0.8440
 1541SOL    HW210639   3.906   2.853   6.479 -1.2439 -1.0789  1.6192
 1542SOL     OW10640   0.094   0.153   6.350  0.0188  0.2043 -0.0089
 1542SOL    HW110641   0.138   0.240   6.370 -0.9324  0.5541  0.6478
 1542SOL    HW210642   0.029   0.131   6.423  0.8781 -1.4942  0.2949
 1543SOL     OW10643   1.724   1.656   0.681  0.7772  0.3101 -0.4606
 1543SOL    HW110644   1.754   1.630   0.773  0.7480 -0.4057 -0.6481
 1543SOL    HW210645   1.749   1.751   0.664 -0.1991  0.8077  0.7041
 1544SOL     OW10646   1.947   1.038   0.837  0.2477  0.1596  0.2001
 1544SOL    HW110647   1.908   0.949   0.813  0.0153  0.7909 -2.0827
 1544SOL    HW210648   2.047   1.031   0.840  0.3657  0.1300 -1.8458
 1545SOL     OW10649   4.026   6.083   5.466 -0.3313  0.5780  0.0462
 1545SOL    HW110650   3.946   6.041   5.423  0.1912 -1.0906  0.6198
 1545SOL    HW210651   4.045   6.170   5.422 -0.8762 -0.2265 -1.9146
 1546SOL     OW10652   0.271   5.519   0.200  0.4824 -0.0993 -0.5805
 1546SOL    HW110653   0.250   5.615   0.183  0.4273 -0.1313 -0.6979
 1546SOL    HW210654   0.191   5.475   0.241  0.5000 -0.1000 -0.5474
 1547SOL     OW10655   0.070   6.012   1.664 -0.2162 -0.1311 -0.1462
 1547SOL    HW110656   0.161   6.007   1.705 -0.9900 -3.3082  1.6146
 1547SOL    HW210657   0.039   6.107   1.661  2.2970  0.8176  1.1681
 1548SOL     OW10658   3.414   5.451   0.513 -0.2373 -0.2429 -0.2786
 1548SOL    HW110659   3.381   5.359   0.534 -0.7577 -0.6465 -2.6693
 1548SOL    HW210660   3.337   5.513   0.504  0.1497  0.8376  2.6494
 1549SOL     OW10661   1.341   2.563   6.139  0.5657 -0.3502 -0.5968
 1549SOL    HW110662   1.361   2.500   6.213  0.7718 -1.1946 -1.3482
 1549SOL    HW210663   1.359   2.657   6.169  0.8659 -0.6976  0.3369
 1550SOL     OW10664   0.293   4.333   6.023  0.4044 -0.6968 -0.3142
 1550SOL    HW110665   0.235   4.414   6.016  2.9285  1.0921 -2.4703
 1550SOL    HW210666   0.246   4.255   5.982 -0.5828  0.6263 -1.8303
 1551SOL     OW10667   3.126   0.212   0.893  0.0799  0.5762 -0.2899
 1551SOL    HW110668   3.149   0.240   0.800 -1.5799  1.2084 -0.5439
 1551SOL    HW210669   3.045   0.154   0.891  0.3364  0.1658  0.7300
 1552SOL     OW10670   5.652   0.183   5.449  0.1389 -0.1382 -0.2510
 1552SOL    HW110671   5.563   0.144   5.471  0.0501 -1.2901 -2.4063
 1552SOL    HW210672   5.721   0.111   5.449  0.4750  0.1485 -1.5821
 1553SOL     OW10673   1.984   5.728   5.156  0.2035 -0.3523 -0.0046
 1553SOL    HW110674   2.008   5.746   5.061  0.1507  0.7286  0.1728
 1553SOL    HW210675   2.047   5.660   5.194  0.7354 -0.1905 -0.5768
 1554SOL     OW10676   1.906   1.184   6.111 -0.0802  0.0335 -0.5930
 1554SOL    HW110677   1.897   1.177   6.012  3.2403 -1.4433 -0.9480
 1554SOL    HW210678   1.958   1.266   6.134 -0.5350  0.1843 -0.0838
 1555SOL     OW10679   3.419   6.031   5.609  0.0026  0.0739 -0.3318
 1555SOL    HW110680   3.475   5.979   5.543 -0.5140  0.0572 -0.7636
 1555SOL    HW210681   3.348   5.971   5.646 -1.0059  0.6189 -1.3132
 1556SOL     OW10682   3.831   3.570   5.230  0.3318  0.1264  0.5805
 1556SOL    HW110683   3.747   3.516   5.233 -0.4896  1.2880 -0.4833
 1556SOL    HW210684   3.890   3.537   5.156  0.0001  0.4476  0.1729
 1557SOL     OW10685   4.553   0.313   6.480  0.1421 -0.0431 -0.1802
 1557SOL    HW110686   4.573   0.404   6.442  0.0078 -0.0990 -0.3877
 1557SOL    HW210687   4.626   0.287   6.542 -0.2766  0.6019  0.5988
 1558SOL     OW10688   2.125   2.292   4.943 -0.6886  0.2196 -0.7559
 1558SOL    HW110689   2.194   2.352   4.902  1.5288 -2.0573 -0.6162
 1558SOL    HW210690   2.035   2.333   4.932  0.5210  2.7996 -1.9966
 1559SOL     OW10691   0.909   0.342   0.800  0.0138  0.1472 -0.6094
 1559SOL    HW110692   0.838   0.386   0.855  0.1074 -0.0312 -0.3446
 1559SOL    HW210693   0.999   0.371   0.833  0.1802 -2.1905  1.2868
 1560SOL     OW10694   1.588   0.405   5.451 -0.8728 -0.2254  0.1851
 1560SOL    HW110695   1.651   0.440   5.521 -1.3665 -0.0225  0.5361
 1560SOL    HW210696   1.639   0.383   5.368 -0.2882 -0.4071  0.5888
 1561SOL     OW10697   1.282   6.334   5.802  0.2082  0.2574  0.5806
 1561SOL    HW110698   1.296   6.408   5.867  1.9055  0.5899 -0.1112
 1561SOL    HW210699   1.222   6.365   5.728 -1.7484 -0.1311  1.9266
 1562SOL     OW10700   3.133   0.075   5.973 -0.3047  0.2684 -0.1914
 1562SOL    HW110701   3.176  -0.012   5.947  1.1264  1.7972 -3.3750
 1562SOL    HW210702   3.182   0.113   6.052  1.5673 -0.0281 -1.1487
 1563SOL     OW10703   6.039   0.895   5.287  0.4604 -0.1075  0.1758
 1563SOL    HW110704   6.034   0.969   5.220 -0.5940 -1.2661 -1.0893
 1563SOL    HW210705   6.134   0.879   5.312  0.8846  0.3272 -1.0758
 1564SOL     OW10706   2.144   4.704   6.365  0.4046 -0.0325  0.5006
 1564SOL    HW110707   2.176   4.751   6.447  0.1643  1.0044  0.0220
 1564SOL    HW210708   2.057   4.743   6.336 -0.9362 -2.2620  1.3097
 1565SOL     OW10709   1.712   0.895   6.175 -0.5089 -0.6062  0.0890
 1565SOL    HW110710   1.742   0.985   6.208  0.5659 -1.0896  0.5149
 1565SOL    HW210711   1.635   0.863   6.231 -0.7513 -0.0516  0.0793
 1566SOL     OW10712   0.600   4.875   6.331  0.0254 -0.4524 -0.0285
 1566SOL    HW110713   0.578   4.952   6.271  2.6900 -0.0276 -0.5724
 1566SOL    HW210714   0.657   4.809   6.281  4.0222  0.8413  2.3646
 1567SOL     OW10715   0.268   1.781   6.421  0.5767  0.2751  0.8181
 1567SOL    HW110716   0.219   1.867   6.439 -0.0146 -0.1685  1.3673
 1567SOL    HW210717   0.248   1.715   6.493  1.8594  0.0120  0.9559
 1568SOL     OW10718   3.633   5.875   6.552  1.0015  0.4272 -0.5567
 1568SOL    HW110719   3.680   5.879   6.641  1.7397 -0.9111 -0.8403
 1568SOL    HW210720   3.577   5.792   6.549  1.0104  0.4481 -1.3444
 1569SOL     OW10721   2.293   1.504   5.199 -0.4303 -0.6052 -0.1750
 1569SOL    HW110722   2.368   1.569   5.215 -0.9249  0.3197 -1.4113
 1569SOL    HW210723   2.324   1.434   5.134 -1.2213  1.0510 -2.4925
 1570SOL     OW10724   5.612   0.881   0.087 -0.1824  0.0164  0.0963
 1570SOL    HW110725   5.537   0.837   0.136 -1.7222  0.3709 -1.7986
 1570SOL    HW210726   5.609   0.980   0.104  0.2276 -0.0337  0.4748
 1571SOL     OW10727   4.758   5.738   0.325  0.0037  0.1803 -0.0987
 1571SOL    HW110728   4.708   5.765   0.243  0.0316  0.5591  0.0068
 1571SOL    HW210729   4.695   5.701   0.393 -0.1444  0.7161  0.0589
 1572SOL     OW10730   0.121   0.502   0.746  0.1509 -0.0612 -0.3084
 1572SOL    HW110731   0.157   0.428   0.689  1.0071  1.4286 -1.7952
 1572SOL    HW210732   0.117   0.587   0.692 -2.0200  0.7095  0.9446
 1573SOL     OW10733   5.080   6.104   0.352 -0.2735  0.7578 -0.2082
 1573SOL    HW110734   5.119   6.093   0.443  0.5820  1.3764 -0.4926
 1573SOL    HW210735   5.090   6.198   0.321 -1.6109  0.8388 -0.4826
 1574SOL     OW10736   2.123   1.652   5.725  0.0466  0.0730  0.4273
 1574SOL    HW110737   2.086   1.606   5.805 -0.6041 -1.1014 -0.5146
 1574SOL    HW210738   2.173   1.586   5.668  0.2469  0.8169 -0.2918
 1575SOL     OW10739   5.385   4.099   0.942 -0.5201 -0.1951 -0.7756
 1575SOL    HW110740   5.446   4.063   1.012  0.0679 -3.3352 -2.6916
 1575SOL    HW210741   5.433   4.167   0.887  0.5807 -1.0857 -0.9413
 1576SOL     OW10742   3.329   4.486   6.110 -0.5870 -0.4505  0.6156
 1576SOL    HW110743   3.407   4.511   6.053  0.1952 -2.6140  0.6427
 1576SOL    HW210744   3.247   4.477   6.053 -0.5029  0.4191  0.3508
 1577SOL     OW10745   0.606   1.295   0.214 -0.3180 -0.4616 -0.2130
 1577SOL    HW110746   0.530   1.289   0.149 -1.0092 -1.5956  0.6504
 1577SOL    HW210747   0.571   1.328   0.302  0.1428 -1.1420  0.2382
 1578SOL     OW10748   6.071   0.414   5.298  0.3049 -0.7660  0.2021
 1578SOL    HW110749   5.994   0.360   5.265  0.6351  0.1677 -2.2998
 1578SOL    HW210750   6.043   0.510   5.307  1.0506 -0.4844 -0.3711
 1579SOL     OW10751   3.428   6.069   6.522 -0.1425 -0.5203  0.5420
 1579SOL    HW110752   3.389   6.158   6.496 -2.9811 -1.3590  1.5690
 1579SOL    HW210753   3.515   6.084   6.569 -1.2864  1.8768  2.1302
 1580SOL     OW10754   5.512   5.734   5.659  0.2490 -0.4304 -0.5785
 1580SOL    HW110755   5.481   5.645   5.628 -1.6201  0.3144 -0.9973
 1580SOL    HW210756   5.535   5.731   5.756 -1.5381 -0.9699 -0.1478
 1581SOL     OW10757   4.895   1.484   0.943  0.3358  0.1739  0.1610
 1581SOL    HW110758   4.929   1.396   0.909 -0.9538 -0.2843  0.0309
 1581SOL    HW210759   4.950   1.513   1.022 -0.2930 -1.5816  1.2874
 1582SOL     OW10760   1.361   0.382   0.112  0.2167 -0.1660  0.4624
 1582SOL    HW110761   1.268   0.349   0.131  0.2684  0.2193  1.4176
 1582SOL    HW210762   1.411   0.312   0.061  0.1477 -1.3844  1.9935
 1583SOL     OW10763   2.282   3.427   1.726  0.5091  0.3895  0.0606
 1583SOL    HW110764   2.217   3.480   1.780 -1.0857 -2.2932  0.9813
 1583SOL    HW210765   2.371   3.427   1.771 -0.1070  0.3500  1.3232
 1584SOL     OW10766   3.419   3.318   0.040  0.3289  0.6308  0.4121
 1584SOL    HW110767   3.452   3.246   0.101 -2.0119 -1.4604 -0.6007
 1584SOL    HW210768   3.425   3.287  -0.055 -2.1386  1.0920  0.0391
 1585SOL     OW10769   1.070   1.191   0.267  0.4235  0.6117  0.3225
 1585SOL    HW110770   1.150   1.205   0.325  1.5518 -1.9731 -0.4524
 1585SOL    HW210771   1.095   1.209   0.172  0.6121 -1.6962 -0.1170
 1586SOL     OW10772   4.393   0.773   0.275 -0.6735 -0.6535  0.2900
 1586SOL    HW110773   4.456   0.746   0.202 -0.4398  0.9769 -0.1560
 1586SOL    HW210774   4.321   0.704   0.284 -1.1115 -0.5665 -1.9663
 1587SOL     OW10775   1.947   5.258   4.792 -0.4053  0.3754  0.0892
 1587SOL    HW110776   1.880   5.184   4.782  0.1302  0.0588 -1.5971
 1587SOL    HW210777   1.908   5.332   4.846 -0.6132 -1.5178  2.6776
 1588SOL     OW10778   5.733   0.371   0.017  0.6084 -0.1198  0.1564
 1588SOL    HW110779   5.653   0.315   0.040 -0.3802  0.8664 -0.8104
 1588SOL    HW210780   5.713   0.467   0.035  0.5635  0.4622 -2.6481
 1589SOL     OW10781   5.625   3.270   0.416 -0.3811  0.1127  0.0155
 1589SOL    HW110782   5.616   3.348   0.353 -2.1565  0.2343  0.3726
 1589SOL    HW210783   5.679   3.198   0.372  0.0683  0.9677 -0.8782
 1590SOL     OW10784   5.082   3.426   0.220  0.2944 -0.4119 -0.2386
 1590SOL    HW110785   5.046   3.520   0.215  0.2684 -0.4783 -1.4356
 1590SOL    HW210786   5.033   3.368   0.155  0.2121 -1.3035  0.5993
 1591SOL     OW10787   2.619   5.756   4.408  0.6209  0.2740 -0.0139
 1591SOL    HW110788   2.554   5.687   4.441  1.0087  0.7936  1.9557
 1591SOL    HW210789   2.575   5.846   4.406  1.1143  0.5469  0.8657
 1592SOL     OW10790   1.120   3.714   5.528 -0.3613  0.1755  0.2082
 1592SOL    HW110791   1.073   3.708   5.440  0.5466  0.9712 -0.3471
 1592SOL    HW210792   1.219   3.706   5.513 -0.1107  1.5776  1.0174
 1593SOL     OW10793   1.013   1.513   0.310 -1.0524 -0.0144  0.2030
 1593SOL    HW110794   1.076   1.540   0.382 -0.7620  0.5414 -0.2426
 1593SOL    HW210795   0.966   1.429   0.335  0.8062 -1.1636 -0.0023
 1594SOL     OW10796   4.301   2.749   6.269  0.5249  0.1625 -0.2526
 1594SOL    HW110797   4.237   2.826   6.264 -0.3738 -0.5242  0.2643
 1594SOL    HW210798   4.271   2.677   6.206  0.2031 -0.5767  0.7220
 1595SOL     OW10799   2.641   5.983   0.654  1.0293 -0.4446  1.0386
 1595SOL    HW110800   2.699   5.921   0.707  1.2978  0.9598  2.4746
 1595SOL    HW210801   2.555   5.937   0.632  2.1723 -2.1591 -0.1178
 1596SOL     OW10802   2.203   0.930   0.833 -0.3406  0.0459  0.3351
 1596SOL    HW110803   2.177   0.839   0.868  0.7225 -0.9361 -1.2895
 1596SOL    HW210804   2.256   0.978   0.902  1.5476 -1.7572  0.2444
 1597SOL     OW10805   4.653   3.371   5.229  0.2995 -0.1249  0.0726
 1597SOL    HW110806   4.612   3.288   5.190 -1.7695  0.3219  1.1676
 1597SOL    HW210807   4.689   3.428   5.155 -1.1788 -0.4951 -0.9819
 1598SOL     OW10808   1.939   1.941   0.384  0.1271  0.2966  0.4417
 1598SOL    HW110809   1.852   1.934   0.433 -0.3978  1.1630 -0.3234
 1598SOL    HW210810   1.995   1.860   0.402 -1.3167 -0.8216  0.0386
 1599SOL     OW10811   4.477   0.259   1.251 -0.2377 -0.2282  0.8688
 1599SOL    HW110812   4.554   0.230   1.308 -0.4341 -0.9393  0.7763
 1599SOL    HW210813   4.412   0.310   1.307  0.5168  0.7921  0.8507
 1600SOL     OW10814   0.492   1.966   6.341 -0.4529 -0.0542 -0.2775
 1600SOL    HW110815   0.455   1.901   6.408  0.7646  0.5068  0.9778
 1600SOL    HW210816   0.591   1.971   6.351 -0.1787 -0.2753 -2.4514
 1601SOL     OW10817   2.603   5.615   0.256  0.5358 -0.2113  0.1962
 1601SOL    HW110818   2.677   5.574   0.204  0.3926  1.7148 -1.6600
 1601SOL    HW210819   2.542   5.665   0.194 -0.5825  0.8379  2.0333
 1602SOL     OW10820   3.199   1.290   0.737 -0.0540 -0.3951  0.3637
 1602SOL    HW110821   3.251   1.250   0.813  0.3525  0.1224  0.3607
 1602SOL    HW210822   3.227   1.248   0.651  1.1756  0.6621  0.2267
 1603SOL     OW10823   2.615   0.040   5.405  0.5120 -0.0675 -0.1059
 1603SOL    HW110824   2.559   0.036   5.322  0.7361  0.0507 -0.2617
 1603SOL    HW210825   2.706   0.074   5.383  0.0141  1.7698  0.4982
 1604SOL     OW10826   2.938   0.032   0.878 -0.1994 -0.3152 -0.2446
 1604SOL    HW110827   2.921   0.011   0.781 -1.3471 -1.6517  0.2010
 1604SOL    HW210828   2.882  -0.029   0.935 -2.5936  2.9834  1.2596
 1605SOL     OW10829   0.593   6.425   1.118  0.1265 -0.6648  0.6338
 1605SOL    HW110830   0.652   6.407   1.197  1.0306 -0.3227  0.0539
 1605SOL    HW210831   0.644   6.406   1.034  0.3670  2.2069  0.0408
 1606SOL     OW10832   6.108   5.927   5.330  0.5926  0.5854  0.0167
 1606SOL    HW110833   6.032   5.991   5.344  0.8417  0.7260  0.7707
 1606SOL    HW210834   6.105   5.892   5.236  0.7181  2.0502 -0.5662
 1607SOL     OW10835   3.819   3.455   1.521 -0.4827  0.4521 -0.0613
 1607SOL    HW110836   3.745   3.395   1.491  1.0753 -1.4154 -0.4175
 1607SOL    HW210837   3.850   3.428   1.612  0.3512  0.5977 -0.2920
 1608SOL     OW10838   1.119   6.109   6.583 -0.6468 -0.3898 -1.1319
 1608SOL    HW110839   1.168   6.056   6.652 -2.0435  0.6514  0.7310
 1608SOL    HW210840   1.164   6.097   6.494  0.8423 -2.2526 -0.2010
 1609SOL     OW10841   1.534   0.186   5.633  0.2289  0.0989  0.1397
 1609SOL    HW110842   1.558   0.274   5.590 -1.6673  0.7888  0.4109
 1609SOL    HW210843   1.538   0.114   5.565  0.9183  0.5476 -0.3071
 1610SOL     OW10844   3.542   2.554   6.341  0.2122  0.5056  0.0888
 1610SOL    HW110845   3.506   2.639   6.301 -1.0193 -0.3714 -0.7195
 1610SOL    HW210846   3.489   2.476   6.308  2.0914 -0.7355 -0.1629
 1611SOL     OW10847   3.959   1.263   0.344  0.0227  0.0351  0.1190
 1611SOL    HW110848   3.924   1.323   0.416 -1.9767  0.7945 -1.3775
 1611SOL    HW210849   3.886   1.246   0.277  1.1019 -2.5697 -0.5037
 1612SOL     OW10850   2.632   2.758   0.669  0.2441 -0.1789 -0.5219
 1612SOL    HW110851   2.628   2.743   0.768 -0.2393  1.2961 -0.2884
 1612SOL    HW210852   2.699   2.696   0.629  1.3360  0.0057  0.9089
 1613SOL     OW10853   3.550   3.590   0.480  0.9199  0.6691  0.4850
 1613SOL    HW110854   3.633   3.637   0.450  0.6765  1.4707  1.0386
 1613SOL    HW210855   3.540   3.505   0.429  0.2877  2.1496 -2.0600
 1614SOL     OW10856   6.033   1.802   5.787 -0.2637 -0.0792 -0.1358
 1614SOL    HW110857   6.088   1.807   5.704  0.0268  1.2737  0.1046
 1614SOL    HW210858   6.050   1.716   5.835  1.2718  0.1107 -0.3197
 1615SOL     OW10859   5.912   0.971   0.441  0.1392  0.1241  0.6675
 1615SOL    HW110860   5.975   0.894   0.437 -0.5551 -0.4509  0.5539
 1615SOL    HW210861   5.901   1.010   0.349  0.6073  0.4559  0.7521
 1616SOL     OW10862   2.771   1.159   5.246  0.0828 -0.5851 -0.2582
 1616SOL    HW110863   2.821   1.121   5.323  0.8995  0.0772 -0.4409
 1616SOL    HW210864   2.710   1.089   5.208  0.0149 -1.0559  0.6820
 1617SOL     OW10865   0.833   4.843   5.916  0.2247  0.0796 -0.2669
 1617SOL    HW110866   0.768   4.906   5.875  1.2700  2.0488  0.9592
 1617SOL    HW210867   0.905   4.822   5.849  1.6199  2.8291  0.2281
 1618SOL     OW10868   5.131   4.573   0.921 -0.3014 -0.1380 -0.4001
 1618SOL    HW110869   5.227   4.593   0.938 -0.0699 -0.5023 -1.2388
 1618SOL    HW210870   5.086   4.654   0.883 -0.6848  0.4938  1.2971
 1619SOL     OW10871   5.431   2.238   5.821 -0.6913 -0.3308 -0.2395
 1619SOL    HW110872   5.431   2.183   5.738  1.7100  0.3620 -0.7890
 1619SOL    HW210873   5.510   2.213   5.877  0.6607  2.5932 -0.6230
 1620SOL     OW10874   3.525   6.119   5.845 -0.3838  0.7247 -0.7609
 1620SOL    HW110875   3.622   6.096   5.853 -0.3203  0.8181 -1.2525
 1620SOL    HW210876   3.489   6.085   5.758 -1.4854 -1.7723  0.5510
 1621SOL     OW10877   0.111   6.183   1.223 -0.0273 -0.2580 -0.5915
 1621SOL    HW110878   0.157   6.169   1.310  0.6448  1.4584 -0.6391
 1621SOL    HW210879   0.015   6.206   1.240  0.2865  0.8357 -0.2517
 1622SOL     OW10880   0.700   4.624   1.381  0.4396 -0.1687  0.0395
 1622SOL    HW110881   0.768   4.652   1.448  1.3254 -0.0700 -0.8828
 1622SOL    HW210882   0.678   4.701   1.321 -1.1296  0.0530  0.8317
 1623SOL     OW10883   2.895   4.732   5.543 -0.1860  0.3297  0.1739
 1623SOL    HW110884   2.815   4.740   5.602  0.5543  1.7706  1.0230
 1623SOL    HW210885   2.866   4.708   5.450 -1.4811 -0.4151  0.7464
 1624SOL     OW10886   3.764   3.532   1.121 -0.5166  0.2579 -0.0917
 1624SOL    HW110887   3.821   3.458   1.085 -0.6009 -0.2619  0.8105
 1624SOL    HW210888   3.670   3.519   1.089 -0.6915 -0.4796  0.6840
 1625SOL     OW10889   3.011   3.472   6.382  0.4621  0.0311  0.3102
 1625SOL    HW110890   3.085   3.536   6.364 -1.4336  1.8830 -1.4116
 1625SOL    HW210891   2.991   3.420   6.299 -1.1408  0.6569  0.2771
 1626SOL     OW10892   0.341   3.953   6.093 -0.1069  0.7655 -0.3503
 1626SOL    HW110893   0.393   3.978   6.175 -0.1638  1.7822 -0.6075
 1626SOL    HW210894   0.256   4.006   6.090 -0.8732 -0.4036 -0.2702
 1627SOL     OW10895   0.067   2.409   6.440  0.1746  0.4947  0.0433
 1627SOL    HW110896  -0.023   2.435   6.476 -0.1478 -0.2881 -0.1817
 1627SOL    HW210897   0.126   2.490   6.437 -0.7100  1.1430 -0.3715
 1628SOL     OW10898   5.309   3.952   0.434 -1.0031  0.2699  0.4517
 1628SOL    HW110899   5.404   3.977   0.414 -1.2398 -0.6104 -2.2244
 1628SOL    HW210900   5.290   3.969   0.530  1.3692  1.9827  0.7136
 1629SOL     OW10901   2.588   4.500   6.397 -0.2254  0.5224  0.0446
 1629SOL    HW110902   2.584   4.532   6.492  0.0995  0.8258 -0.0429
 1629SOL    HW210903   2.607   4.577   6.337 -2.1245  0.6625 -0.4541
 1630SOL     OW10904   2.765   5.109   0.315  0.1355  0.1239  0.3112
 1630SOL    HW110905   2.819   5.192   0.319 -0.9637  0.8426  0.6649
 1630SOL    HW210906   2.758   5.069   0.406  1.6763 -1.0585 -0.0451
 1631SOL     OW10907   2.588   1.921   1.213  0.7403 -0.4582 -0.1122
 1631SOL    HW110908   2.502   1.870   1.223 -0.4249  1.3918 -0.2517
 1631SOL    HW210909   2.641   1.914   1.298  0.8615 -2.2675 -0.2973
 1632SOL     OW10910   3.246   0.546   0.329 -0.7612  0.2396 -0.4189
 1632SOL    HW110911   3.204   0.494   0.254 -2.4190 -0.0653  0.6731
 1632SOL    HW210912   3.332   0.587   0.297  0.0477 -2.2089 -1.6498
 1633SOL     OW10913   2.486   4.973   0.015  0.6714 -0.1747  0.2097
 1633SOL    HW110914   2.494   5.012  -0.077 -2.1322  0.7060  0.2432
 1633SOL    HW210915   2.495   5.046   0.082 -1.9429  0.0603  0.3854
 1634SOL     OW10916   4.044   2.628   0.176  0.0799 -0.9944 -0.2296
 1634SOL    HW110917   4.067   2.683   0.257  1.7833 -2.4951  0.3899
 1634SOL    HW210918   4.128   2.608   0.125 -0.7747 -1.3396 -1.5408
 1635SOL     OW10919   6.264   5.692   0.658 -0.5251  0.1074  0.1172
 1635SOL    HW110920   6.245   5.622   0.727 -0.0894 -0.8256 -0.6732
 1635SOL    HW210921   6.308   5.771   0.701  2.7739 -1.7606  0.5209
 1636SOL     OW10922   0.749   1.995   5.050  0.2286  0.3915  0.4865
 1636SOL    HW110923   0.653   2.021   5.059 -0.0446 -0.4589  0.1282
 1636SOL    HW210924   0.755   1.900   5.019  1.1609  0.8309 -0.7649
 1637SOL     OW10925   0.346   2.682   1.172 -0.0429 -0.4929 -0.4267
 1637SOL    HW110926   0.357   2.769   1.220  0.8076  0.7303 -2.7146
 1637SOL    HW210927   0.392   2.610   1.224 -0.3036  0.4982  1.2425
 1638SOL     OW10928   4.149   4.032   5.959  0.1278 -0.5714 -0.4953
 1638SOL    HW110929   4.236   4.068   5.924  0.0885 -0.4567 -0.4758
 1638SOL    HW210930   4.115   4.093   6.031  0.4806 -1.0860  0.1186
 1639SOL     OW10931   5.316   3.857   0.807  0.2994 -0.0530  0.0936
 1639SOL    HW110932   5.396   3.797   0.799 -0.3257 -0.7605 -1.1022
 1639SOL    HW210933   5.332   3.924   0.880  0.4527 -2.5443  2.5409
 1640SOL     OW10934   0.022   0.942   5.543 -0.3281 -0.1157 -0.3190
 1640SOL    HW110935   0.047   1.028   5.586  0.9759  0.1311 -1.4891
 1640SOL    HW210936   0.078   0.868   5.580 -2.2741 -0.7459  1.5703
 1641SOL     OW10937   5.328   6.008   4.936  0.3813  0.8526  0.2034
 1641SOL    HW110938   5.328   6.108   4.946 -0.7231  1.0208 -1.1264
 1641SOL    HW210939   5.334   5.985   4.839  0.3264 -0.3757  0.4803
 1642SOL     OW10940   4.680   5.621   6.351  0.1331  0.1682 -0.2315
 1642SOL    HW110941   4.666   5.581   6.261  0.1975 -0.4565  0.0272
 1642SOL    HW210942   4.591   5.646   6.390  0.0407 -0.2331 -0.1749
 1643SOL     OW10943   3.700   5.754   0.942 -0.0754  0.6216  1.3858
 1643SOL    HW110944   3.624   5.728   0.881  0.9212  1.3790 -0.2285
 1643SOL    HW210945   3.786   5.723   0.903  0.6770  1.9301  1.9510
 1644SOL     OW10946   6.266   6.302   1.347  0.6662 -0.5281  0.3428
 1644SOL    HW110947   6.206   6.363   1.295  0.1500 -0.3726  1.1099
 1644SOL    HW210948   6.292   6.346   1.433  0.4220 -1.3111  0.8283
 1645SOL     OW10949   2.836   2.146   5.710 -0.4703  0.0765 -0.4227
 1645SOL    HW110950   2.865   2.164   5.616  0.7020  0.3248 -0.0234
 1645SOL    HW210951   2.778   2.064   5.712  0.1090 -0.3672 -1.2522
 1646SOL     OW10952   3.388   5.112   6.504  0.3702  0.1809  0.4315
 1646SOL    HW110953   3.415   5.099   6.409  2.0750 -0.0389  0.9022
 1646SOL    HW210954   3.374   5.023   6.547 -1.3236  0.2878  0.1842
 1647SOL     OW10955   2.230   5.561   6.221 -0.0422  0.1063 -0.2297
 1647SOL    HW110956   2.188   5.480   6.262  1.9818  0.4966  2.9652
 1647SOL    HW210957   2.198   5.643   6.269  1.3401  0.7507 -0.3592
 1648SOL     OW10958   5.853   5.927   6.350  0.4937 -0.4579 -0.3768
 1648SOL    HW110959   5.764   5.884   6.371 -0.5167  1.7035  0.0427
 1648SOL    HW210960   5.926   5.868   6.384 -0.8630 -0.9528  1.9546
 1649SOL     OW10961   1.661   4.836   0.411  0.0813  0.0931  0.5294
 1649SOL    HW110962   1.707   4.913   0.455  0.9817 -1.0575  1.6656
 1649SOL    HW210963   1.586   4.871   0.354  0.2492  1.7787  1.2648
 1650SOL     OW10964   1.726   6.053   5.090  0.2184  0.1729 -0.2790
 1650SOL    HW110965   1.678   6.136   5.063  1.2739  0.4219 -1.5191
 1650SOL    HW210966   1.800   6.036   5.025  2.1340  0.1094  1.7979
 1651SOL     OW10967   6.290   4.280   5.696  0.0888 -0.7904 -0.1861
 1651SOL    HW110968   6.359   4.347   5.723  1.1434 -1.0581 -2.0603
 1651SOL    HW210969   6.247   4.243   5.778  1.0690  0.5060  0.9819
 1652SOL     OW10970   3.228   0.684   5.380 -0.0758 -0.1502  0.7760
 1652SOL    HW110971   3.146   0.739   5.369 -0.3995 -0.5047  1.4092
 1652SOL    HW210972   3.292   0.704   5.305  0.3810  2.0573  1.6785
 1653SOL     OW10973   0.221   0.761   5.628  0.3820  0.4913 -0.4736
 1653SOL    HW110974   0.245   0.696   5.555  1.5114  0.5111 -0.1441
 1653SOL    HW210975   0.291   0.833   5.632 -0.7041  1.5979 -0.6554
 1654SOL     OW10976   0.778   2.865   0.579  0.3537  0.3171  0.2922
 1654SOL    HW110977   0.824   2.953   0.573 -0.7818  1.0379  1.5688
 1654SOL    HW210978   0.810   2.805   0.505  1.5165  1.6045 -0.2850
 1655SOL     OW10979   2.942   0.420   0.090  0.4803 -0.2597  0.0630
 1655SOL    HW110980   2.892   0.419   0.003  1.5783 -1.8849 -0.6198
 1655SOL    HW210981   2.881   0.390   0.163 -0.0582 -0.3465 -0.4097
 1656SOL     OW10982   0.073   3.054   0.304  0.2531  0.8349  0.7153
 1656SOL    HW110983   0.156   3.103   0.277  2.0260 -1.1419  2.1938
 1656SOL    HW210984   0.092   2.956   0.305 -1.9007  0.3635  1.8612
 1657SOL     OW10985   5.456   5.111   4.816  1.1917  0.1700 -0.1827
 1657SOL    HW110986   5.419   5.196   4.856  0.6870 -0.5075  0.8375
 1657SOL    HW210987   5.554   5.121   4.802  1.5646  0.1913  2.0170
 1658SOL     OW10988   2.011   3.273   5.766 -0.7086 -0.3030  0.0913
 1658SOL    HW110989   2.036   3.190   5.816  0.2882  0.4370  0.8625
 1658SOL    HW210990   1.911   3.282   5.765 -0.7623 -0.1648  2.2755
 1659SOL     OW10991   2.751   0.719   0.272  0.6936  0.2386 -0.1436
 1659SOL    HW110992   2.829   0.691   0.328  0.7124  2.4776  1.0604
 1659SOL    HW210993   2.777   0.714   0.175  2.8276  2.0736  0.2332
 1660SOL     OW10994   4.596   3.212   0.633 -0.0018  0.3322 -1.3900
 1660SOL    HW110995   4.588   3.307   0.665 -2.1280 -0.4984  0.8799
 1660SOL    HW210996   4.507   3.168   0.637  1.2268 -2.2779 -0.6255
 1661SOL     OW10997   2.388   4.829   1.191 -0.4320  0.3857  0.2403
 1661SOL    HW110998   2.333   4.768   1.134  0.1950 -1.3915  1.4531
 1661SOL    HW210999   2.413   4.910   1.138 -2.8813  0.5478 -0.8255
 1662SOL     OW11000   0.244   0.238   0.162  0.5956 -0.1510 -0.2067
 1662SOL    HW111001   0.167   0.301   0.177 -0.2210 -0.8282 -1.3841
 1662SOL    HW211002   0.304   0.239   0.242 -0.4253  0.6931  0.5762
 1663SOL     OW11003   5.108   4.941   1.097  0.0538  0.0616  0.4105
 1663SOL    HW111004   5.105   4.961   1.195  0.4313  0.4501  0.3458
 1663SOL    HW211005   5.083   5.023   1.045 -0.8148 -0.3333  0.1946
 1664SOL     OW11006   1.838   0.804   0.755 -0.1173  0.7616 -0.2212
 1664SOL    HW111007   1.750   0.848   0.773 -0.1168 -0.0048  1.9825
 1664SOL    HW211008   1.823   0.718   0.705 -0.8992 -0.3741  1.8357
 1665SOL     OW11009   2.911   5.078   5.385  0.4032 -0.2241  0.4255
 1665SOL    HW111010   2.848   5.149   5.355  1.7267  0.4917 -0.7908
 1665SOL    HW211011   2.863   4.990   5.387 -0.5084  0.2040 -1.0116
 1666SOL     OW11012   2.997   2.505   0.264 -0.4694  0.6288  0.6073
 1666SOL    HW111013   3.026   2.460   0.349  0.7976 -0.6712 -0.4632
 1666SOL    HW211014   2.934   2.445   0.215  2.0727 -0.6141 -1.3664
 1667SOL     OW11015   2.965   3.041   6.196 -0.3964 -0.7274 -0.0364
 1667SOL    HW111016   2.905   2.984   6.140  0.5018  0.3755 -2.2536
 1667SOL    HW211017   3.061   3.024   6.171  0.0095  0.0826  0.8933
 1668SOL     OW11018   0.648   0.904   1.398  0.9195 -0.3286 -0.6297
 1668SOL    HW111019   0.728   0.851   1.426  0.5883 -0.7754 -0.5248
 1668SOL    HW211020   0.642   0.986   1.456  0.6144 -0.9137  0.1929
 1669SOL     OW11021   1.110   2.252   0.363 -0.0153  0.0081 -0.7868
 1669SOL    HW111022   1.122   2.349   0.342  1.1377  0.1172  0.2902
 1669SOL    HW211023   1.197   2.205   0.352 -0.6256 -0.9918 -1.5862
 1670SOL     OW11024   1.057   5.970   0.935 -0.5059  0.4075 -0.1223
 1670SOL    HW111025   1.047   5.951   1.032  1.9825 -2.1870 -0.2374
 1670SOL    HW211026   1.014   5.897   0.882 -0.1221  0.7408 -0.9189
 1671SOL     OW11027   0.014   5.437   6.589 -0.1615 -0.2819  0.1979
 1671SOL    HW111028   0.024   5.384   6.673  0.4287 -1.3983 -0.5322
 1671SOL    HW211029  -0.083   5.446   6.566 -0.3037 -0.3845  0.7547
 1672SOL     OW11030   1.805   6.335   6.468 -0.6367 -0.7802 -0.1786
 1672SOL    HW111031   1.784   6.283   6.385 -0.4291  0.5339 -1.0828
 1672SOL    HW211032   1.904   6.346   6.477 -0.6738 -0.6375  0.0737
 1673SOL     OW11033   0.314   0.795   6.570 -0.0215 -0.1474 -0.1354
 1673SOL    HW111034   0.360   0.707   6.556 -0.5420 -0.2118 -1.6298
 1673SOL    HW211035   0.220   0.780   6.598  0.6114 -0.0150  2.2944
 1674SOL     OW11036   4.257   2.315   0.514 -0.3654  0.1158  0.2860
 1674SOL    HW111037   4.209   2.383   0.459 -0.1690 -0.2616 -0.3645
 1674SOL    HW211038   4.268   2.349   0.608 -0.8614  0.6904  0.1409
 1675SOL     OW11039   0.209   3.360   5.686 -0.6626  0.0081  0.1471
 1675SOL    HW111040   0.157   3.295   5.630 -1.4229  1.5829 -1.0305
 1675SOL    HW211041   0.171   3.451   5.676 -1.0045  0.3782  3.4720
 1676SOL     OW11042   3.754   1.815   0.196  0.3948  0.1273 -0.1007
 1676SOL    HW111043   3.660   1.845   0.180  0.2040 -1.2520 -1.7813
 1676SOL    HW211044   3.817   1.891   0.179 -0.3598  0.9278  0.5981
 1677SOL     OW11045   5.680   4.465   1.056  0.9062 -0.1584 -0.0821
 1677SOL    HW111046   5.758   4.471   0.994  1.6587  1.5844  0.9628
 1677SOL    HW211047   5.691   4.385   1.115  2.0663  0.2196  0.2431
 1678SOL     OW11048   2.252   1.502   0.201 -0.2972  0.0066  0.7260
 1678SOL    HW111049   2.332   1.538   0.151 -1.3537 -0.1115 -1.1283
 1678SOL    HW211050   2.176   1.565   0.190 -1.2632 -1.2280  0.0943
 1679SOL     OW11051   2.071   0.070   6.329  0.5778  0.0724  0.4053
 1679SOL    HW111052   2.034   0.107   6.414  1.0514 -2.2124  1.6903
 1679SOL    HW211053   2.155   0.019   6.349  1.1598  0.1749 -1.5653
 1680SOL     OW11054   5.738   4.154   1.455 -0.5806  0.0279  0.3046
 1680SOL    HW111055   5.679   4.101   1.516 -0.7634  1.2457  1.2163
 1680SOL    HW211056   5.781   4.228   1.507  1.3070 -0.4724 -0.4695
 1681SOL     OW11057   5.930   0.638   5.311  0.1417  0.2051 -0.4215
 1681SOL    HW111058   5.963   0.732   5.321 -1.2766  0.6705  0.0087
 1681SOL    HW211059   5.830   0.637   5.312  0.1398 -1.3410 -0.1345
 1682SOL     OW11060   0.532   3.643   0.412  0.3450 -0.8358 -0.6302
 1682SOL    HW111061   0.526   3.628   0.314 -0.1836 -2.4634 -0.3759
 1682SOL    HW211062   0.628   3.654   0.439  0.4229  0.8028 -1.4542
 1683SOL     OW11063   5.202   0.769   0.598 -0.9008  0.4511  0.2183
 1683SOL    HW111064   5.220   0.816   0.511 -0.4857  0.1931  0.1604
 1683SOL    HW211065   5.213   0.671   0.586  1.7891  0.5513  1.1286
 1684SOL     OW11066   1.669   4.245   6.379  0.0123 -0.4712  0.3291
 1684SOL    HW111067   1.580   4.204   6.361  0.3468 -1.6208  1.1880
 1684SOL    HW211068   1.741   4.177   6.364  0.6189 -0.0466  1.2575
 1685SOL     OW11069   1.805   1.456   4.564  0.2249  0.4479 -0.4128
 1685SOL    HW111070   1.742   1.380   4.578  0.3225  0.6938  1.8662
 1685SOL    HW211071   1.754   1.541   4.554  0.0937  0.1135 -3.4881
 1686SOL     OW11072   1.496   3.034   6.130  0.0434 -0.0732 -0.4366
 1686SOL    HW111073   1.487   2.996   6.038 -1.6374 -1.8690  0.4148
 1686SOL    HW211074   1.491   2.960   6.197  2.5206  1.0245  1.1108
 1687SOL     OW11075   6.231   1.248   6.040 -0.0200  0.1693 -0.4460
 1687SOL    HW111076   6.323   1.211   6.051  1.2557  2.2559 -2.9266
 1687SOL    HW211077   6.177   1.186   5.983  0.1487 -0.5885  0.1995
 1688SOL     OW11078   4.073   3.110   1.073  0.5092 -0.3244  0.6975
 1688SOL    HW111079   4.075   3.117   0.973 -0.6019  0.4230  0.7105
 1688SOL    HW211080   4.162   3.137   1.109  0.3964  1.1257 -0.0182
 1689SOL     OW11081   3.615   5.645   6.307 -0.4798 -0.7450  0.3024
 1689SOL    HW111082   3.548   5.719   6.296  1.0735  0.6618 -0.0072
 1689SOL    HW211083   3.621   5.619   6.403 -1.6400 -1.0664  0.3016
 1690SOL     OW11084   1.504   4.657   5.834 -0.1968 -0.1329 -0.0306
 1690SOL    HW111085   1.470   4.743   5.871 -1.2687 -0.3673 -0.4463
 1690SOL    HW211086   1.458   4.637   5.747  1.7996  0.1042 -1.2141
 1691SOL     OW11087   5.490   0.577   6.051 -0.0394  0.2076 -0.1339
 1691SOL    HW111088   5.476   0.672   6.024 -2.6887 -0.0672 -0.0108
 1691SOL    HW211089   5.576   0.568   6.100 -0.8259  3.0621  2.0413
 1692SOL     OW11090   3.771   5.927   0.183 -0.0553  0.2648  0.2478
 1692SOL    HW111091   3.803   5.835   0.205  0.0051  0.3021  0.3145
 1692SOL    HW211092   3.848   5.990   0.179 -0.0552  0.2455 -0.1435
 1693SOL     OW11093   1.675   6.170   6.085  0.3515 -0.0633  0.3608
 1693SOL    HW111094   1.651   6.099   6.019  2.9464 -0.3873 -0.3443
 1693SOL    HW211095   1.600   6.235   6.093 -1.0699 -1.4757 -0.8855
 1694SOL     OW11096   3.171   0.842   6.512  0.3077  0.4347  0.2461
 1694SOL    HW111097   3.239   0.915   6.500  2.0758 -1.2731 -0.7686
 1694SOL    HW211098   3.091   0.861   6.455 -0.2389  2.5820  1.6000
 1695SOL     OW11099   3.408   2.397   0.490 -0.0435  0.1415 -0.3318
 1695SOL    HW111100   3.412   2.459   0.412 -0.8551 -0.7670 -1.1247
 1695SOL    HW211101   3.443   2.307   0.464  0.3335  0.0163  0.5574
 1696SOL     OW11102   4.462   2.923   1.258  0.9730  0.0298 -0.1484
 1696SOL    HW111103   4.477   2.824   1.255 -0.1740 -0.2267  1.3125
 1696SOL    HW211104   4.404   2.951   1.181 -0.8161 -0.8787  0.8070
 1697SOL     OW11105   2.656   4.920   5.960 -0.2476 -0.5947  0.0745
 1697SOL    HW111106   2.557   4.931   5.965 -0.0798  1.6373 -0.3203
 1697SOL    HW211107   2.687   4.943   5.867  0.7797  0.2737  0.6153
 1698SOL     OW11108   4.427   1.822   5.493  0.0631 -0.1918  0.3848
 1698SOL    HW111109   4.351   1.758   5.483 -0.8506  0.8522  0.3885
 1698SOL    HW211110   4.513   1.776   5.470 -0.9445 -0.3066 -3.9498
 1699SOL     OW11111   2.229   5.117   0.296 -0.0738  0.0286  0.7058
 1699SOL    HW111112   2.274   5.067   0.369  0.1753  0.7301  1.0364
 1699SOL    HW211113   2.282   5.199   0.273 -1.0560  0.7532  0.9608
 1700SOL     OW11114   3.851   5.898   5.594 -0.2172  0.2912 -0.5592
 1700SOL    HW111115   3.807   5.845   5.666 -1.3054  1.4982 -0.2827
 1700SOL    HW211116   3.855   5.843   5.510 -0.9935 -0.3614 -0.1861
 1701SOL     OW11117   3.047   3.849   0.382 -0.4987  0.2815  0.6555
 1701SOL    HW111118   3.076   3.842   0.477 -1.6007  2.6879  1.2298
 1701SOL    HW211119   2.960   3.801   0.370 -0.3721 -0.0010  0.8543
 1702SOL     OW11120   4.500   4.194   2.263 -0.6271 -0.0003  0.3772
 1702SOL    HW111121   4.446   4.231   2.338  2.4236  2.6138  1.5031
 1702SOL    HW211122   4.537   4.269   2.208  2.1436 -1.5385 -0.0625
 1703SOL     OW11123   5.090   1.463   5.821  0.2030 -0.1063 -0.4362
 1703SOL    HW111124   5.035   1.384   5.793 -0.5686  0.8030 -1.5748
 1703SOL    HW211125   5.181   1.457   5.779 -0.0721 -0.0702 -1.0422
 1704SOL     OW11126   0.067   2.497   5.837  0.1927  0.5759 -0.3118
 1704SOL    HW111127   0.133   2.480   5.764  2.6010 -0.5999  1.9693
 1704SOL    HW211128   0.062   2.595   5.856 -0.6349  0.9178 -2.1244
 1705SOL     OW11129   5.733   2.628   5.599 -0.0403  0.0436  0.3867
 1705SOL    HW111130   5.830   2.649   5.585  0.1097 -1.7102 -1.8125
 1705SOL    HW211131   5.679   2.669   5.526 -0.6279 -0.8773  0.2800
 1706SOL     OW11132   2.615   6.105   0.276  0.5646 -0.8155  0.1727
 1706SOL    HW111133   2.568   6.189   0.248 -1.3772 -1.6407  0.7896
 1706SOL    HW211134   2.667   6.069   0.200 -0.7755 -0.4768 -0.9485
 1707SOL     OW11135   1.102   0.901   5.486  0.5212 -0.0519 -0.1280
 1707SOL    HW111136   1.009   0.885   5.453  0.3219 -0.7369  0.7409
 1707SOL    HW211137   1.148   0.814   5.502  0.7551  0.2548  0.9749
 1708SOL     OW11138   2.286   5.180   0.755 -0.4610  0.0655  0.1873
 1708SOL    HW111139   2.304   5.119   0.679  0.5944 -1.4898  1.6185
 1708SOL    HW211140   2.207   5.148   0.807 -1.2704  1.1989 -0.2903
 1709SOL     OW11141   2.241   5.863   5.064  0.0596  0.2257 -0.2779
 1709SOL    HW111142   2.334   5.889   5.092  0.2829  0.7981 -1.4964
 1709SOL    HW211143   2.241   5.768   5.034  0.3659  0.3576 -0.7106
 1710SOL     OW11144   1.981   4.470   0.120  0.5412 -0.2505  0.0996
 1710SOL    HW111145   1.888   4.476   0.085  0.5336 -0.7806  0.0222
 1710SOL    HW211146   2.029   4.395   0.075  0.3990 -1.2137  1.4837
 1711SOL     OW11147   0.862   1.716   0.164 -0.1355 -0.6254 -0.6977
 1711SOL    HW111148   0.925   1.793   0.168 -2.9150  1.7878  1.5706
 1711SOL    HW211149   0.909   1.633   0.194  2.6709  0.3146 -2.1109
 1712SOL     OW11150   2.259   6.329   6.410 -0.5294  0.0371  0.6771
 1712SOL    HW111151   2.279   6.245   6.360  1.3126  0.7010  0.1847
 1712SOL    HW211152   2.343   6.362   6.454 -1.3465  1.3034  1.3568
 1713SOL     OW11153   5.269   2.061   5.357 -0.4446 -0.5638 -0.1992
 1713SOL    HW111154   5.194   2.047   5.420  0.5039  2.3333  1.7728
 1713SOL    HW211155   5.234   2.099   5.271 -1.3528 -0.2793  0.2867
 1714SOL     OW11156   5.200   2.057   1.485 -0.2147 -0.1758  0.0993
 1714SOL    HW111157   5.233   1.980   1.430 -2.4630 -0.3736 -1.0644
 1714SOL    HW211158   5.124   2.027   1.542  1.0681  0.4198  2.2692
 1715SOL     OW11159   1.108   1.220   1.147  0.4755  0.1312 -0.5066
 1715SOL    HW111160   1.148   1.246   1.235 -1.6030  0.2527  0.4617
 1715SOL    HW211161   1.031   1.158   1.162 -0.5876  0.9823 -2.1487
 1716SOL     OW11162   6.266   6.084   4.696 -0.1223  0.1716 -0.8670
 1716SOL    HW111163   6.299   6.137   4.617  1.0428 -0.8811 -1.1201
 1716SOL    HW211164   6.330   6.010   4.715  0.5061  1.3365  2.0970
 1717SOL     OW11165   2.352   3.086   5.899  0.0831 -0.1516  0.1093
 1717SOL    HW111166   2.392   3.165   5.854 -1.6716  0.5728 -0.2790
 1717SOL    HW211167   2.267   3.061   5.852 -0.6164 -0.7851  1.6538
 1718SOL     OW11168   2.661   3.158   0.831  0.1590  0.4074 -0.1420
 1718SOL    HW111169   2.617   3.102   0.760 -0.9078  0.2583  0.6001
 1718SOL    HW211170   2.725   3.101   0.883  0.2149  0.2640 -0.3672
 1719SOL     OW11171   2.125   1.234   5.472  0.1545 -0.0893  0.6222
 1719SOL    HW111172   2.222   1.214   5.457 -0.2401 -2.3628  0.8064
 1719SOL    HW211173   2.071   1.152   5.455 -1.6773  0.9349  1.2562
 1720SOL     OW11174   2.405   5.367   6.169 -0.1817  0.0752  0.1383
 1720SOL    HW111175   2.380   5.278   6.132  0.2581  0.2696 -0.6439
 1720SOL    HW211176   2.327   5.429   6.165 -0.5500 -0.3238  0.8760
 1721SOL     OW11177   5.865   4.465   0.877  0.4788 -0.2087 -0.4573
 1721SOL    HW111178   5.820   4.464   0.788  0.4959  1.2241 -0.5067
 1721SOL    HW211179   5.964   4.463   0.864  0.4754 -1.1465 -0.4172
 1722SOL     OW11180   2.750   2.641   6.265 -0.6887  0.1033  0.0726
 1722SOL    HW111181   2.763   2.712   6.196 -0.3009  0.9825  1.0189
 1722SOL    HW211182   2.771   2.679   6.356 -1.8836 -0.8109  0.7544
 1723SOL     OW11183   5.786   4.926   1.781  0.1104  0.0731  0.2112
 1723SOL    HW111184   5.709   4.884   1.734  0.1660 -0.5041  0.6231
 1723SOL    HW211185   5.867   4.867   1.772  1.0243  1.4986 -1.7412
 1724SOL     OW11186   4.707   0.392   1.120  0.1735  0.1436  0.4679
 1724SOL    HW111187   4.611   0.409   1.142  0.3427 -0.0299  1.3830
 1724SOL    HW211188   4.765   0.429   1.192  0.7061 -1.2566  0.7924
 1725SOL     OW11189   3.934   2.985   5.763 -0.2069 -0.5395  0.2470
 1725SOL    HW111190   3.922   2.886   5.767  0.3733 -0.6216  0.1551
 1725SOL    HW211191   4.031   3.006   5.750 -0.5185  0.0003 -1.3967
 1726SOL     OW11192   0.123   5.688   5.754 -0.2103  0.3490  0.2459
 1726SOL    HW111193   0.077   5.775   5.737  0.3810  0.7352  0.5879
 1726SOL    HW211194   0.161   5.653   5.668 -1.9742 -0.4806 -0.2463
 1727SOL     OW11195   5.249   1.384   6.126 -1.0066  0.0452 -0.3662
 1727SOL    HW111196   5.280   1.370   6.220 -1.1716  1.4129 -0.0837
 1727SOL    HW211197   5.321   1.432   6.075 -0.7841 -0.9798 -1.0430
 1728SOL     OW11198   0.133   4.437   6.319 -0.4108  0.0386  0.5804
 1728SOL    HW111199   0.066   4.433   6.245  1.0289 -0.0686 -0.7506
 1728SOL    HW211200   0.187   4.353   6.321 -1.1095 -0.4337  2.4687
 1729SOL     OW11201   4.722   0.795   5.540  0.0173  0.8709  0.5384
 1729SOL    HW111202   4.807   0.834   5.506 -0.8052  1.1417 -1.3734
 1729SOL    HW211203   4.711   0.702   5.504 -0.5397  0.8841  0.6543
 1730SOL     OW11204   2.326   5.348   0.207 -0.3791  0.4809  0.2248
 1730SOL    HW111205   2.407   5.387   0.251  0.4873 -0.2112 -0.7281
 1730SOL    HW211206   2.312   5.392   0.118 -1.0939  0.6409  0.4123
 1731SOL     OW11207   2.946   5.722   0.220  0.4433 -0.1288 -0.5444
 1731SOL    HW111208   2.909   5.795   0.278 -0.8768 -0.8567 -0.4507
 1731SOL    HW211209   3.046   5.719   0.231  0.4358  1.1423  0.0478
 1732SOL     OW11210   4.767   6.361   5.818  0.2495 -0.3925 -0.1050
 1732SOL    HW111211   4.724   6.275   5.845  0.3038 -0.2260  0.5224
 1732SOL    HW211212   4.721   6.437   5.862 -0.4246 -0.0066 -1.4155
 1733SOL     OW11213   3.986   6.275   5.884  0.1816 -0.1843  0.0624
 1733SOL    HW111214   3.909   6.266   5.947  1.0794  0.6393  1.3485
 1733SOL    HW211215   3.996   6.192   5.831 -1.1656 -0.5590  0.3594
 1734SOL     OW11216   0.143   1.405   1.035  0.8763 -0.1482 -0.4374
 1734SOL    HW111217   0.069   1.372   1.094  1.2023 -0.2739 -0.1004
 1734SOL    HW211218   0.163   1.500   1.056  1.8678 -0.5592  0.5524
 1735SOL     OW11219   5.558   2.350   0.566 -0.3889  0.3093 -0.3065
 1735SOL    HW111220   5.580   2.391   0.478 -1.7493  0.8434 -0.4304
 1735SOL    HW211221   5.602   2.401   0.639  0.9854 -0.3139 -0.6788
 1736SOL     OW11222   4.209   4.593   0.390  0.0201 -0.0030 -0.0833
 1736SOL    HW111223   4.270   4.673   0.393 -0.7085  0.5565 -0.0524
 1736SOL    HW211224   4.139   4.601   0.461  0.2191 -0.9102  0.2388
 1737SOL     OW11225   4.894   2.584   0.482 -0.4401  0.6368  0.0682
 1737SOL    HW111226   4.956   2.525   0.535  1.9667  1.1491 -2.0028
 1737SOL    HW211227   4.870   2.539   0.396 -2.0563  0.9548  0.3267
 1738SOL     OW11228   0.849   2.525   0.244 -0.2024 -0.0691 -0.3667
 1738SOL    HW111229   0.777   2.591   0.263  0.6116  0.5577  0.6785
 1738SOL    HW211230   0.822   2.435   0.279  0.3241  0.5896  1.9060
 1739SOL     OW11231   3.935   4.027   5.803 -0.2927  0.1423  0.0660
 1739SOL    HW111232   3.901   3.934   5.792  2.8704 -0.9219 -2.2099
 1739SOL    HW211233   4.008   4.029   5.871 -0.8989  1.1908  0.7262
 1740SOL     OW11234   5.628   5.790   6.420  0.4793 -0.4477  0.4627
 1740SOL    HW111235   5.573   5.771   6.502 -2.1918  1.0731 -0.8584
 1740SOL    HW211236   5.622   5.711   6.358  2.1177 -1.4058  1.4572
 1741SOL     OW11237   4.817   3.162   5.901  0.3627 -0.1845  0.0023
 1741SOL    HW111238   4.792   3.066   5.914 -2.8858  0.6457  0.8001
 1741SOL    HW211239   4.822   3.208   5.989  1.7814  0.4690 -0.3807
 1742SOL     OW11240   4.336   4.930   6.110  0.6637  0.6025  0.2145
 1742SOL    HW111241   4.326   4.898   6.016  0.1953  1.2366  0.0436
 1742SOL    HW211242   4.250   4.969   6.142  0.7085  0.0376  1.0467
 1743SOL     OW11243   4.733   1.771   5.835 -0.1119 -0.1992  0.2767
 1743SOL    HW111244   4.728   1.702   5.762 -0.9508 -0.5244  0.6187
 1743SOL    HW211245   4.653   1.760   5.895  0.4097  0.2642  1.0604
 1744SOL     OW11246   0.790   2.577   6.399  0.0926  0.0772  0.0467
 1744SOL    HW111247   0.887   2.555   6.387 -0.5718 -2.5215 -1.3396
 1744SOL    HW211248   0.757   2.627   6.319  0.1409  0.4877  0.2780
 1745SOL     OW11249   0.755   3.378   5.325  0.2086 -0.0431  0.4438
 1745SOL    HW111250   0.707   3.336   5.248  1.9721  1.2237 -1.4467
 1745SOL    HW211251   0.711   3.465   5.348  0.1908 -0.0125  0.2954
 1746SOL     OW11252   3.668   0.345   5.954 -0.3254 -0.2815 -0.2268
 1746SOL    HW111253   3.710   0.421   6.004  0.5182  0.5319 -2.0706
 1746SOL    HW211254   3.741   0.287   5.917 -0.9101 -0.5206 -1.0096
 1747SOL     OW11255   6.306   5.393   1.077 -0.1469  0.0438  0.4361
 1747SOL    HW111256   6.250   5.463   1.122 -0.3217  0.3579 -0.2447
 1747SOL    HW211257   6.321   5.317   1.139 -0.5158  0.3948  0.9648
 1748SOL     OW11258   3.119   5.460   5.574 -0.2824 -1.4143  0.4307
 1748SOL    HW111259   3.121   5.396   5.498  1.7984 -2.5269  1.3376
 1748SOL    HW211260   3.188   5.434   5.642 -1.0981  0.3485  2.0370
 1749SOL     OW11261   5.744   3.148   0.941 -0.0317 -0.3151 -0.4241
 1749SOL    HW111262   5.792   3.210   1.003  0.7597 -0.6246 -0.7143
 1749SOL    HW211263   5.671   3.198   0.894  0.8481  0.5005 -0.9547
 1750SOL     OW11264   4.743   4.827   5.780 -0.0937  0.2533  0.6114
 1750SOL    HW111265   4.811   4.855   5.712 -0.0585  1.1122  0.9876
 1750SOL    HW211266   4.673   4.897   5.788 -1.1545 -0.7119  0.0834
 1751SOL     OW11267   0.610   5.488   6.485  0.4087 -0.5722  0.0353
 1751SOL    HW111268   0.547   5.513   6.411  0.4318  0.9913  0.4967
 1751SOL    HW211269   0.702   5.519   6.463  0.1323  1.3970  1.3581
 1752SOL     OW11270   4.160   0.951   0.298 -0.1394  0.0487 -0.0643
 1752SOL    HW111271   4.078   0.908   0.260  0.9985 -2.8110  0.4810
 1752SOL    HW211272   4.240   0.919   0.248  1.0333 -0.7793  2.2239
 1753SOL     OW11273   1.505   2.178   5.927 -0.0188  0.3832 -0.2644
 1753SOL    HW111274   1.411   2.208   5.910 -0.0439 -0.2113 -1.2905
 1753SOL    HW211275   1.541   2.225   6.007 -1.4243  0.1347  0.5558
 1754SOL     OW11276   3.988   0.316   5.541  0.1903 -0.2728 -0.0679
 1754SOL    HW111277   4.045   0.398   5.533  0.0196 -0.1434  0.0339
 1754SOL    HW211278   3.912   0.322   5.476 -1.1950  0.7756  1.5296
 1755SOL     OW11279   0.873   5.285   0.265 -0.0485 -0.0789 -0.5770
 1755SOL    HW111280   0.835   5.235   0.187  0.2742 -1.7068  0.2598
 1755SOL    HW211281   0.971   5.298   0.251 -0.1144  0.2465 -0.7489
 1756SOL     OW11282   1.373   2.300   0.596  0.2024 -0.3754 -0.3922
 1756SOL    HW111283   1.334   2.321   0.685  2.0346 -1.1459  0.6569
 1756SOL    HW211284   1.347   2.371   0.530 -0.2820  0.8180  1.0344
 1757SOL     OW11285   5.127   2.968   6.317  0.3401  0.2901  0.2090
 1757SOL    HW111286   5.165   3.022   6.242 -0.5364 -1.3336 -1.5138
 1757SOL    HW211287   5.200   2.918   6.363  0.7150 -0.2927 -0.9612
 1758SOL     OW11288   1.277   3.759   0.200 -0.2268 -0.2960 -0.4592
 1758SOL    HW111289   1.371   3.745   0.232 -0.0917 -2.2204 -1.5551
 1758SOL    HW211290   1.219   3.786   0.277  0.8851 -0.7993  0.5822
 1759SOL     OW11291   0.330   3.848   0.066  0.3639  0.1481  0.2256
 1759SOL    HW111292   0.287   3.929   0.105 -2.7262 -2.1027  2.0413
 1759SOL    HW211293   0.287   3.826  -0.022 -0.3488 -0.6105  0.7446
 1760SOL     OW11294   1.257   5.010   0.649 -0.2145 -0.1699  0.5063
 1760SOL    HW111295   1.171   5.005   0.600  0.4111 -2.0419 -0.4857
 1760SOL    HW211296   1.244   5.060   0.735 -1.3780  3.0651 -1.3937
 1761SOL     OW11297   6.286   4.987   1.370 -0.1787 -0.2429  0.0968
 1761SOL    HW111298   6.202   4.933   1.357 -1.2157  1.3321 -0.1062
 1761SOL    HW211299   6.261   5.078   1.403  1.5060  0.1714  0.3030
 1762SOL     OW11300   3.760   2.862   6.093  0.1595  0.1988  0.4538
 1762SOL    HW111301   3.784   2.890   6.000 -1.2507 -0.6635 -0.1976
 1762SOL    HW211302   3.705   2.779   6.089  0.6816 -0.2570  2.1123
 1763SOL     OW11303   0.811   1.673   6.350  0.8558 -0.9037 -0.9424
 1763SOL    HW111304   0.779   1.601   6.412  0.1602  0.6721  0.6252
 1763SOL    HW211305   0.901   1.704   6.379  1.1070 -1.0470 -1.5482
 1764SOL     OW11306   2.379   4.514   4.851  0.9205  0.4155  0.0527
 1764SOL    HW111307   2.371   4.542   4.947 -0.6114  2.8545 -0.7085
 1764SOL    HW211308   2.319   4.435   4.835 -1.6481  2.1807  0.3886
 1765SOL     OW11309   4.863   3.026   5.385 -0.9202  0.4601  0.4088
 1765SOL    HW111310   4.829   2.950   5.441 -0.6241  0.7245  0.9559
 1765SOL    HW211311   4.826   3.018   5.292 -0.2663 -0.7879  0.2344
 1766SOL     OW11312   1.182   1.510   1.475 -0.3914  0.8705 -0.0140
 1766SOL    HW111313   1.127   1.593   1.465 -0.4972  0.7406 -0.5331
 1766SOL    HW211314   1.257   1.527   1.539 -1.4832  0.8223  1.3117
 1767SOL     OW11315   5.801   6.249   6.479 -0.2857 -0.1523 -0.3271
 1767SOL    HW111316   5.828   6.160   6.442  0.6448  0.6333 -1.6107
 1767SOL    HW211317   5.843   6.322   6.426 -1.1453  1.0817  0.6108
 1768SOL     OW11318   0.604   2.726   0.236 -0.4052  0.3312  0.0716
 1768SOL    HW111319   0.593   2.732   0.137  1.1866  0.5839 -0.1163
 1768SOL    HW211320   0.519   2.694   0.277 -0.9167 -0.3253 -1.4261
 1769SOL     OW11321   4.319   3.106   0.650 -0.0882 -0.2771  0.0911
 1769SOL    HW111322   4.264   3.183   0.619  0.5897  0.0566 -0.2997
 1769SOL    HW211323   4.314   3.100   0.750 -0.9048 -0.3139  0.0565
 1770SOL     OW11324   4.647   0.328   0.430 -0.4328  0.7393 -0.2230
 1770SOL    HW111325   4.734   0.376   0.417 -0.9769  2.1427  0.9931
 1770SOL    HW211326   4.582   0.360   0.361 -0.1477  0.0197 -0.8482
 1771SOL     OW11327   3.392   5.987   6.267 -0.1989  0.2164  0.8268
 1771SOL    HW111328   3.310   5.932   6.251  2.1173 -3.1851 -0.6263
 1771SOL    HW211329   3.397   6.013   6.363 -3.5904  1.8131  0.6872
 1772SOL     OW11330   3.186   2.144   6.002  0.1568 -0.3285 -0.1259
 1772SOL    HW111331   3.188   2.044   6.002 -0.7739 -0.3654  0.6761
 1772SOL    HW211332   3.248   2.179   5.931 -0.3572 -1.4786 -1.1725
 1773SOL     OW11333   6.219   6.127   0.139 -0.3024 -0.0332  0.5415
 1773SOL    HW111334   6.317   6.114   0.124 -0.2334 -1.2736  1.8840
 1773SOL    HW211335   6.172   6.040   0.127 -1.9027  1.1645 -4.0401
 1774SOL     OW11336   5.032   4.237   0.015 -0.1995  0.0625 -0.7682
 1774SOL    HW111337   5.085   4.240   0.100  0.1633 -0.0669 -0.9891
 1774SOL    HW211338   5.065   4.162  -0.042  0.7175  1.2035 -1.7789
 1775SOL     OW11339   5.819   5.929   0.906  0.6661 -0.5991  0.4857
 1775SOL    HW111340   5.772   5.844   0.882  0.1810 -0.3920  0.6900
 1775SOL    HW211341   5.917   5.918   0.890  1.3527 -2.7978  4.6540
 1776SOL     OW11342   2.861   5.241   5.673  0.2078  0.3679 -0.1592
 1776SOL    HW111343   2.887   5.312   5.738  1.3211 -0.6879  0.5755
 1776SOL    HW211344   2.924   5.243   5.595  0.5921 -0.1570  0.1299
 1777SOL     OW11345   4.211   6.056   5.980 -0.9346  0.3083  0.6248
 1777SOL    HW111346   4.156   6.092   6.055  0.1014  1.9159  0.6726
 1777SOL    HW211347   4.152   6.024   5.906 -1.9338  1.6299  0.8252
 1778SOL     OW11348   1.432   0.522   5.970 -0.6449  0.1649  1.1722
 1778SOL    HW111349   1.496   0.598   5.977 -0.3172 -0.0499  0.6558
 1778SOL    HW211350   1.382   0.529   5.883  1.5754 -1.8209 -0.4116
 1779SOL     OW11351   3.523   4.182   0.413  0.1643 -0.1058  0.0160
 1779SOL    HW111352   3.476   4.192   0.326 -0.2077  0.1484  0.2468
 1779SOL    HW211353   3.470   4.122   0.473 -0.7425  1.5430  0.9059
 1780SOL     OW11354   5.529   2.141   5.580 -0.5367  0.2747 -0.8910
 1780SOL    HW111355   5.538   2.043   5.594 -1.8820  0.3549  0.7807
 1780SOL    HW211356   5.620   2.182   5.569  0.2794 -0.7447  1.5002
 1781SOL     OW11357   4.504   3.509   5.575  0.4765 -0.2568 -0.3791
 1781SOL    HW111358   4.545   3.574   5.639  3.8215 -0.4367 -2.0614
 1781SOL    HW211359   4.519   3.416   5.608  0.4196 -0.2956 -0.4639
 1782SOL     OW11360   2.022   2.532   0.518  0.0301 -0.1060 -0.4342
 1782SOL    HW111361   2.018   2.442   0.563 -2.0945 -0.8898 -2.0365
 1782SOL    HW211362   2.073   2.523   0.432 -1.8391 -0.2872 -1.5642
 1783SOL     OW11363   2.867   4.044   6.244 -0.3418  0.4002  0.1024
 1783SOL    HW111364   2.959   4.082   6.248 -1.1331  2.4057  0.5111
 1783SOL    HW211365   2.866   3.963   6.185  0.8944  2.7955 -3.5131
 1784SOL     OW11366   2.081   1.027   1.665  0.0175  0.3173  0.1947
 1784SOL    HW111367   2.026   0.965   1.721 -1.0341 -0.8418 -2.0003
 1784SOL    HW211368   2.037   1.117   1.662 -0.9825 -0.1701 -0.3073
 1785SOL     OW11369   1.519   1.715   6.504 -0.3905  0.2295  0.5266
 1785SOL    HW111370   1.502   1.655   6.425  0.0509 -0.0526  0.6417
 1785SOL    HW211371   1.607   1.691   6.545 -1.7143 -1.3114  2.6342
 1786SOL     OW11372   1.264   4.098   6.196  0.5912 -0.9654  0.3063
 1786SOL    HW111373   1.313   4.136   6.274  0.4587  0.3394 -0.2312
 1786SOL    HW211374   1.165   4.101   6.214  0.5176  0.1007 -0.2369
 1787SOL     OW11375   5.903   0.766   6.297 -0.1719  0.0661 -0.0754
 1787SOL    HW111376   5.833   0.780   6.367  0.9544 -0.7857  1.2664
 1787SOL    HW211377   5.986   0.731   6.339  0.5531 -0.4793 -1.8506
 1788SOL     OW11378   3.837   4.489   5.726 -0.4188  0.6069 -0.2805
 1788SOL    HW111379   3.768   4.504   5.655 -1.6966 -0.3232  0.7241
 1788SOL    HW211380   3.822   4.401   5.769  1.2313  0.5300  0.1897
 1789SOL     OW11381   5.675   1.154   5.622  0.3655 -0.3204 -0.3964
 1789SOL    HW111382   5.698   1.114   5.534  0.8632  2.2477 -1.4999
 1789SOL    HW211383   5.590   1.206   5.614  0.3880 -0.0993  0.6735
 1790SOL     OW11384   4.853   5.154   1.268 -0.2579  0.0105  0.3493
 1790SOL    HW111385   4.874   5.173   1.364 -0.7398 -2.0263  0.9079
 1790SOL    HW211386   4.926   5.190   1.210 -0.0548  1.4373  1.4365
 1791SOL     OW11387   2.302   2.963   0.470 -0.4615 -0.1597  0.0079
 1791SOL    HW111388   2.249   2.900   0.526 -1.1712  0.2474 -0.1969
 1791SOL    HW211389   2.275   3.057   0.490 -1.1409 -0.0302 -1.4036
 1792SOL     OW11390   4.372   0.047   0.591  0.3854  0.3018 -0.1432
 1792SOL    HW111391   4.450   0.054   0.653  0.3554 -1.8936  0.2244
 1792SOL    HW211392   4.320  -0.036   0.612  0.7684 -0.9554 -3.5288
 1793SOL     OW11393   0.929   3.101   0.007  0.2896  0.0269  0.5407
 1793SOL    HW111394   1.013   3.133   0.052 -0.0130 -1.0890  1.9650
 1793SOL    HW211395   0.899   3.016   0.050 -1.0403 -0.1059 -0.6078
 1794SOL     OW11396   5.689   2.491   5.851 -0.2044 -0.5586 -0.3787
 1794SOL    HW111397   5.722   2.554   5.781  0.9124 -1.3588 -0.6163
 1794SOL    HW211398   5.687   2.398   5.813  2.0669 -1.2970  1.0750
 1795SOL     OW11399   3.398   0.165   0.262  0.0058 -0.5015 -0.3295
 1795SOL    HW111400   3.464   0.209   0.323  1.0965 -0.9748 -1.1235
 1795SOL    HW211401   3.334   0.233   0.228  0.4039  0.0774  0.0518
 1796SOL     OW11402   3.289   2.788   1.244 -0.0749 -0.3841  0.4428
 1796SOL    HW111403   3.206   2.731   1.247  0.7401 -1.5865  2.7272
 1796SOL    HW211404   3.369   2.730   1.255  1.0092  0.9311 -0.2628
 1797SOL     OW11405   5.652   1.534   0.344  0.1048 -0.4092 -0.2243
 1797SOL    HW111406   5.675   1.620   0.390  0.3337 -0.9226  0.6362
 1797SOL    HW211407   5.736   1.488   0.315  0.1492 -1.5040  1.4886
 1798SOL     OW11408   3.070   0.086   0.186  0.1207 -0.6023 -0.3546
 1798SOL    HW111409   3.164   0.058   0.167  0.3971 -0.4339  0.6782
 1798SOL    HW211410   3.060   0.102   0.284 -1.0940 -1.0104 -0.3994
 1799SOL     OW11411   3.586   0.830   6.433  0.3006  0.0759  0.8403
 1799SOL    HW111412   3.565   0.733   6.447 -0.4214  0.4041  2.1926
 1799SOL    HW211413   3.641   0.840   6.350  1.4391 -1.6084  1.3418
 1800SOL     OW11414   0.951   0.112   0.338  0.6609  0.1039 -0.0990
 1800SOL    HW111415   0.864   0.066   0.351  0.5324  1.1664  4.0227
 1800SOL    HW211416   1.026   0.050   0.361  0.7437  0.3760  0.3908
 1801SOL     OW11417   6.042   2.761   0.081 -0.1586 -0.7130 -0.0105
 1801SOL    HW111418   6.082   2.810   0.158 -1.5130 -0.6411  0.6734
 1801SOL    HW211419   6.093   2.781  -0.002  0.7844 -0.0943  0.7051
 1802SOL     OW11420   3.741   1.170   0.950  0.0440  0.0712 -0.1056
 1802SOL    HW111421   3.767   1.264   0.975 -0.0194  0.0560  0.0167
 1802SOL    HW211422   3.787   1.145   0.865  0.8172 -0.1202  0.3535
 1803SOL     OW11423   0.264   5.209   0.054  0.1130 -0.1475 -0.3026
 1803SOL    HW111424   0.361   5.191   0.038  0.3145 -0.6235  1.3553
 1803SOL    HW211425   0.252   5.304   0.082  0.2829 -0.4707  0.8891
 1804SOL     OW11426   0.428   2.883   5.979 -0.2137 -0.1802  0.3597
 1804SOL    HW111427   0.447   2.858   5.884 -0.8855  1.5737 -0.2674
 1804SOL    HW211428   0.429   2.800   6.036  0.9718 -1.1651 -1.0199
 1805SOL     OW11429   5.646   1.839   5.305  0.3319  0.3768  0.1209
 1805SOL    HW111430   5.600   1.928   5.317  1.2637  0.8717  0.0862
 1805SOL    HW211431   5.722   1.849   5.242 -0.0587 -0.6448 -0.5295
 1806SOL     OW11432   5.547   5.851   5.901 -0.5894  0.2538 -0.5421
 1806SOL    HW111433   5.580   5.933   5.948 -2.7354  1.2497 -0.6956
 1806SOL    HW211434   5.457   5.826   5.936 -0.4726 -1.3707 -1.3140
 1807SOL     OW11435   4.648   3.961   6.147  0.3190 -0.6657  0.1310
 1807SOL    HW111436   4.688   4.032   6.205  0.5226 -0.9213  0.3080
 1807SOL    HW211437   4.577   3.913   6.199  1.4095 -1.7750  0.6450
 1808SOL     OW11438   6.395   0.981   5.970 -0.1017  0.1338  0.4645
 1808SOL    HW111439   6.295   0.980   5.973 -0.0864 -0.5534  0.7315
 1808SOL    HW211440   6.432   0.912   6.032  0.5603  0.9789  1.0330
 1809SOL     OW11441   0.293   4.867   0.075 -0.5611  0.5290  0.2675
 1809SOL    HW111442   0.269   4.865   0.172 -0.8020  0.7872  0.2129
 1809SOL    HW211443   0.391   4.885   0.066 -0.6862  1.3375  0.4450
 1810SOL     OW11444   3.424   3.248   1.081 -0.1606 -0.2252  0.4473
 1810SOL    HW111445   3.331   3.231   1.115  0.3755 -2.6229  0.8683
 1810SOL    HW211446   3.490   3.225   1.152  0.7975  1.1105  0.0176
 1811SOL     OW11447   0.303   1.424   6.426  0.1677  0.0027 -0.2432
 1811SOL    HW111448   0.274   1.456   6.336  0.5865  0.1211 -0.3402
 1811SOL    HW211449   0.275   1.489   6.496 -2.4221 -1.2955  0.0449
 1812SOL     OW11450   3.099   2.807   0.262 -0.1888  0.2810 -0.3259
 1812SOL    HW111451   3.059   2.888   0.220  0.0744  0.0995 -0.9323
 1812SOL    HW211452   3.083   2.727   0.204 -0.5622 -0.1317  0.3272
 1813SOL     OW11453   3.734   4.128   0.221 -0.0291  0.5645  0.0841
 1813SOL    HW111454   3.673   4.051   0.241  0.2259  0.3593  0.0598
 1813SOL    HW211455   3.679   4.212   0.215 -0.4560  0.2289 -0.9525
 1814SOL     OW11456   2.210   5.152   6.126 -0.7799 -0.1981  0.0777
 1814SOL    HW111457   2.194   5.132   6.223  1.3384  0.1413  0.5493
 1814SOL    HW211458   2.127   5.187   6.085 -1.9117 -0.9866  1.5983
 1815SOL     OW11459   2.989   6.259   5.616  0.2569 -0.0311 -0.4804
 1815SOL    HW111460   2.948   6.318   5.686 -1.7207  0.3148 -1.8355
 1815SOL    HW211461   3.054   6.313   5.561 -2.3370  1.3566 -2.4093
 1816SOL     OW11462   4.595   0.037   0.764  0.0176  0.1154  0.2935
 1816SOL    HW111463   4.680   0.082   0.736 -1.0254  1.2099 -1.2609
 1816SOL    HW211464   4.568   0.071   0.854  1.1782 -0.2297  0.7996
 1817SOL     OW11465   3.276   3.560   1.834  0.0159  0.0725  0.3365
 1817SOL    HW111466   3.340   3.506   1.778  0.7738  0.6586  0.6086
 1817SOL    HW211467   3.323   3.591   1.917 -0.6070  0.5848  0.5066
 1818SOL     OW11468   3.437   0.765   5.555 -0.2096  0.1544 -0.2854
 1818SOL    HW111469   3.504   0.762   5.481  0.7917 -0.5860  0.6183
 1818SOL    HW211470   3.346   0.743   5.519 -0.3109  2.7521 -1.8388
 1819SOL     OW11471   6.321   5.686   6.040  0.1339 -0.0607 -0.2521
 1819SOL    HW111472   6.327   5.778   6.002 -0.0404 -0.0490 -0.2556
 1819SOL    HW211473   6.233   5.645   6.014  1.1485 -1.1135 -2.2083
 1820SOL     OW11474   0.738   1.468   0.494 -0.0873  0.1891 -0.4385
 1820SOL    HW111475   0.744   1.520   0.408 -0.7291  0.8405 -0.1069
 1820SOL    HW211476   0.657   1.410   0.492  0.7413 -0.9728 -0.8877
 1821SOL     OW11477   2.904   1.332   5.567  0.8470  0.9990 -0.0554
 1821SOL    HW111478   2.998   1.322   5.599  0.4181  1.4880  1.4111
 1821SOL    HW211479   2.847   1.371   5.639 -1.2244 -2.2313  0.2839
 1822SOL     OW11480   5.212   3.491   5.060  0.6621 -0.2214 -0.9623
 1822SOL    HW111481   5.235   3.585   5.034 -2.3966  1.2403  0.9279
 1822SOL    HW211482   5.170   3.445   4.982 -3.6988  2.3416 -0.5034
 1823SOL     OW11483   5.284   3.567   1.064  0.3240  0.1351 -0.3580
 1823SOL    HW111484   5.199   3.614   1.084  0.2566  0.6022 -1.6480
 1823SOL    HW211485   5.361   3.623   1.094  0.2072  0.3500 -0.4587
 1824SOL     OW11486   0.141   2.969   0.848 -0.0403 -0.0579  0.3916
 1824SOL    HW111487   0.047   2.939   0.829  0.1671 -1.1051  0.9256
 1824SOL    HW211488   0.199   2.889   0.861  1.2233  0.5500 -1.1978
 1825SOL     OW11489   3.167   2.489   5.783 -0.0318 -0.9246 -0.0151
 1825SOL    HW111490   3.127   2.534   5.703 -2.0538  1.7673  2.3036
 1825SOL    HW211491   3.109   2.412   5.811 -2.6969  1.5665  1.9754
 1826SOL     OW11492   2.189   3.993   5.367  0.6124  0.1587 -0.0972
 1826SOL    HW111493   2.226   3.944   5.288  2.0893 -0.4136  0.9022
 1826SOL    HW211494   2.227   4.085   5.370  2.2205 -0.4881  1.0297
 1827SOL     OW11495   2.027   4.300   0.942  0.0673  0.2258  0.2710
 1827SOL    HW111496   1.928   4.292   0.947  0.2353 -1.7175  1.9209
 1827SOL    HW211497   2.069   4.210   0.961  2.1383  0.8452 -0.9869
 1828SOL     OW11498   5.586   3.336   5.402 -0.3887 -0.0408 -0.4064
 1828SOL    HW111499   5.629   3.329   5.312 -1.2126  2.2420 -1.0413
 1828SOL    HW211500   5.653   3.316   5.473  1.1889  1.3669 -1.4400
 1829SOL     OW11501   4.561   0.560   0.912  0.0176  0.0497 -0.1872
 1829SOL    HW111502   4.660   0.570   0.927 -0.1148  0.2037  0.6378
 1829SOL    HW211503   4.513   0.576   0.998 -0.8480  1.7564 -0.9274
 1830SOL     OW11504   0.771   1.722   5.029 -0.1139  0.1764 -0.1825
 1830SOL    HW111505   0.864   1.745   5.002  0.6766 -0.9397  1.3973
 1830SOL    HW211506   0.733   1.655   4.966  0.5034 -0.0474 -0.3218
 1831SOL     OW11507   2.084   5.668   0.008  0.1040 -0.5273  0.4258
 1831SOL    HW111508   2.156   5.730   0.040 -0.2709  0.8112 -1.2052
 1831SOL    HW211509   2.119   5.611  -0.066 -0.1039 -0.9300  0.6325
 1832SOL     OW11510   2.407   1.539   0.872  0.6737 -0.6719  0.4470
 1832SOL    HW111511   2.469   1.488   0.812  2.4758  1.5643  0.3128
 1832SOL    HW211512   2.333   1.578   0.817 -0.6281 -2.8813  0.5242
 1833SOL     OW11513   0.260   4.662   0.317 -0.0528  0.3531  0.0452
 1833SOL    HW111514   0.249   4.621   0.227 -0.7288  3.1901 -1.2528
 1833SOL    HW211515   0.354   4.651   0.348  0.0843 -0.9935 -0.7956
 1834SOL     OW11516   4.454   1.963   1.444  0.1720  0.7312  0.7636
 1834SOL    HW111517   4.501   1.876   1.457 -0.9329  0.3423  2.4441
 1834SOL    HW211518   4.356   1.947   1.429  0.1828  1.6249 -0.3894
 1835SOL     OW11519   5.586   4.779   0.255  0.2379 -0.4595 -0.4547
 1835SOL    HW111520   5.686   4.772   0.252  0.4588  1.9279 -3.1148
 1835SOL    HW211521   5.550   4.775   0.162 -1.7381  2.3861  0.0591
 1836SOL     OW11522   5.392   5.469   0.090  0.6117  0.5683 -0.2089
 1836SOL    HW111523   5.338   5.520   0.156  0.0568 -0.2510 -0.0121
 1836SOL    HW211524   5.331   5.415   0.031  1.2236 -2.4507  1.6883
 1837SOL     OW11525   4.632   0.159   5.353 -0.0933 -0.1582 -0.0928
 1837SOL    HW111526   4.632   0.220   5.432 -0.1881 -2.9628  2.2113
 1837SOL    HW211527   4.538   0.133   5.331  0.0655 -0.9169  0.1220
 1838SOL     OW11528   4.690   4.947   0.252 -0.0799 -0.1153 -0.3699
 1838SOL    HW111529   4.653   4.916   0.165  0.9774  0.4765 -1.0498
 1838SOL    HW211530   4.719   5.043   0.244 -1.6385  0.5426  1.1578
 1839SOL     OW11531   2.539   4.824   0.440 -0.4581  0.2108 -0.6349
 1839SOL    HW111532   2.530   4.922   0.424 -0.0664  0.4296  0.4131
 1839SOL    HW211533   2.450   4.780   0.427 -0.9937  0.9474  0.4017
 1840SOL     OW11534   4.703   2.898   0.068  0.0177  0.0463 -0.4348
 1840SOL    HW111535   4.656   2.922   0.153 -0.4290 -0.3168 -0.5695
 1840SOL    HW211536   4.792   2.857   0.089  0.2230  0.6223 -0.1710
 1841SOL     OW11537   2.198   1.699   0.753 -0.1529  0.0336 -0.1404
 1841SOL    HW111538   2.139   1.623   0.722  1.6332 -1.3207 -0.3724
 1841SOL    HW211539   2.202   1.769   0.682  0.8470 -1.2592 -1.4006
 1842SOL     OW11540   4.846   0.723   5.237  0.4591 -0.2045 -0.2333
 1842SOL    HW111541   4.839   0.676   5.149  2.3130 -0.8351 -0.0836
 1842SOL    HW211542   4.909   0.800   5.229  0.3765 -0.0619  0.4551
 1843SOL     OW11543   5.469   4.318   5.634 -0.1921 -0.3820 -0.3461
 1843SOL    HW111544   5.540   4.281   5.575 -0.0581  0.7569 -0.9363
 1843SOL    HW211545   5.380   4.310   5.589 -0.0438  0.8282 -0.9176
 1844SOL     OW11546   2.079   4.713   0.538  0.3806  0.5686  0.5809
 1844SOL    HW111547   2.012   4.639   0.538 -0.3284  1.1687  1.7162
 1844SOL    HW211548   2.045   4.788   0.481  0.6497  0.3943  0.1930
 1845SOL     OW11549   1.841   3.175   0.705  0.1256  0.5051  0.6711
 1845SOL    HW111550   1.921   3.136   0.749 -1.0103 -0.8164  1.6476
 1845SOL    HW211551   1.760   3.161   0.763 -0.6832  2.5980  0.1540
 1846SOL     OW11552   4.451   1.314   5.442  0.6734 -0.5342  0.2836
 1846SOL    HW111553   4.440   1.315   5.541  0.5932 -2.4084  0.3212
 1846SOL    HW211554   4.543   1.284   5.419  0.1866 -1.6936 -0.2086
 1847SOL     OW11555   3.605   5.175   0.538  0.2311 -0.1726 -0.5168
 1847SOL    HW111556   3.539   5.247   0.557  0.1347 -0.1597 -0.8829
 1847SOL    HW211557   3.685   5.186   0.597 -0.0280 -0.0961 -0.1833
 1848SOL     OW11558   4.434   3.981   2.117 -0.0079  0.0330  0.5816
 1848SOL    HW111559   4.456   4.068   2.161  3.2376 -0.1395 -0.4309
 1848SOL    HW211560   4.357   3.994   2.054 -0.1953  1.9110  1.1412
 1849SOL     OW11561   0.629   5.779   0.378 -0.0540  0.3624 -0.5857
 1849SOL    HW111562   0.711   5.813   0.334 -0.4046  0.7586 -0.9435
 1849SOL    HW211563   0.634   5.679   0.387  0.0608  0.2898 -1.4302
 1850SOL     OW11564   5.686   0.490   4.999 -0.2911  0.0903  0.0853
 1850SOL    HW111565   5.773   0.452   4.970 -1.5370 -0.5939 -3.1000
 1850SOL    HW211566   5.665   0.571   4.944 -1.4793  0.5589  1.1647
 1851SOL     OW11567   3.012   5.192   1.700 -0.3929  0.0751  0.2151
 1851SOL    HW111568   2.948   5.130   1.745  0.7977 -0.5264  1.1482
 1851SOL    HW211569   3.082   5.222   1.766 -0.0047  1.1193 -0.6375
 1852SOL     OW11570   3.731   1.805   4.881 -0.4695 -0.5278  0.5528
 1852SOL    HW111571   3.675   1.888   4.873  1.0215  0.5893  1.3457
 1852SOL    HW211572   3.673   1.725   4.866 -1.6612  0.6539 -1.8365
 1853SOL     OW11573   3.903   4.202   1.122 -0.3501 -0.8099 -0.4467
 1853SOL    HW111574   3.878   4.142   1.045 -2.0449  0.5881 -1.0547
 1853SOL    HW211575   3.827   4.206   1.187  1.0952 -2.0475  1.4352
 1854SOL     OW11576   3.428   5.491   4.697 -0.1331  0.1938  0.2716
 1854SOL    HW111577   3.373   5.556   4.643 -0.6023 -0.1008  0.3891
 1854SOL    HW211578   3.490   5.443   4.636 -0.8710 -0.3493 -0.0647
 1855SOL     OW11579   4.160   3.321   5.155 -0.0849  0.0768  0.2271
 1855SOL    HW111580   4.109   3.376   5.088 -0.5225 -0.2437  0.2919
 1855SOL    HW211581   4.096   3.270   5.212  0.1509  1.9853  2.3578
 1856SOL     OW11582   5.891   1.381   0.331  0.0607 -0.4650  0.4917
 1856SOL    HW111583   5.982   1.424   0.328  0.4276 -1.0536  2.1631
 1856SOL    HW211584   5.882   1.328   0.415 -1.0466 -2.2137 -0.6731
 1857SOL     OW11585   6.255   3.911   0.102 -0.1187 -0.1391 -0.3776
 1857SOL    HW111586   6.308   3.963   0.170 -0.1517 -1.7108  0.9016
 1857SOL    HW211587   6.316   3.852   0.050 -0.5156 -2.0269  1.1654
 1858SOL     OW11588   1.197   1.477   5.268 -0.0328  0.6880  0.6449
 1858SOL    HW111589   1.153   1.399   5.311  2.3360 -2.3128 -1.9070
 1858SOL    HW211590   1.290   1.486   5.301  1.1097 -0.3286 -2.0006
 1859SOL     OW11591   3.488   0.844   5.953 -0.1148 -0.6611 -0.3409
 1859SOL    HW111592   3.420   0.917   5.959  0.4838  0.1420 -2.4131
 1859SOL    HW211593   3.452   0.770   5.896  0.3990 -0.6192 -0.7298
 1860SOL     OW11594   5.782   3.062   0.346 -0.6493 -0.1616  0.1138
 1860SOL    HW111595   5.775   3.021   0.436  3.9273 -1.1603  0.2679
 1860SOL    HW211596   5.787   2.991   0.276  1.4546  0.2609 -0.2420
 1861SOL     OW11597   5.877   4.147   0.986 -0.6512 -0.1921 -0.2321
 1861SOL    HW111598   5.943   4.219   0.962  1.0645 -1.0525  1.6047
 1861SOL    HW211599   5.809   4.184   1.050 -0.8714  0.2444 -0.7131
 1862SOL     OW11600   6.302   2.055   0.955  0.3027  0.0707 -0.0771
 1862SOL    HW111601   6.371   1.996   0.911 -1.6228 -1.6613 -0.9491
 1862SOL    HW211602   6.233   1.997   0.999 -1.5243  1.6816 -0.7101
 1863SOL     OW11603   3.530   4.668   5.725  0.0705 -0.0012 -0.7865
 1863SOL    HW111604   3.445   4.618   5.707  1.5366 -2.5124 -1.2001
 1863SOL    HW211605   3.599   4.641   5.658  1.8996  0.1405  0.9453
 1864SOL     OW11606   5.014   5.628   1.560  0.2663  0.4542 -0.1799
 1864SOL    HW111607   5.074   5.562   1.604 -0.7441 -1.7220 -1.8777
 1864SOL    HW211608   4.950   5.665   1.628  1.4705  0.4559  0.9953
 1865SOL     OW11609   4.253   5.110   1.278 -0.1212 -0.0256  0.3318
 1865SOL    HW111610   4.286   5.039   1.215  2.5584  1.2557  0.1488
 1865SOL    HW211611   4.217   5.187   1.225  0.7531  0.4173  0.3486
 1866SOL     OW11612   3.221   5.541   6.538 -0.3015 -0.2494 -0.1858
 1866SOL    HW111613   3.190   5.573   6.448 -1.9936  1.0143  0.7676
 1866SOL    HW211614   3.173   5.457   6.562 -1.5742  0.6066  0.4190
 1867SOL     OW11615   0.840   3.498   6.459 -0.2082  0.2936  0.0551
 1867SOL    HW111616   0.892   3.479   6.376 -0.1339 -1.4395  0.4658
 1867SOL    HW211617   0.778   3.422   6.478 -0.2379  0.6648  1.5643
 1868SOL     OW11618   4.736   2.611   6.039 -0.0966 -0.0156  0.1085
 1868SOL    HW111619   4.766   2.697   5.998  1.9683 -0.1974  1.0745
 1868SOL    HW211620   4.694   2.628   6.128  0.7300 -0.0073  0.5080
 1869SOL     OW11621   4.536   5.103   0.778 -0.2662 -0.0363 -0.5612
 1869SOL    HW111622   4.530   5.130   0.682  1.6224 -1.5364 -1.1523
 1869SOL    HW211623   4.631   5.108   0.808 -0.3086 -2.6968  0.2458
 1870SOL     OW11624   4.216   3.761   5.703 -0.4472 -0.6490 -1.0091
 1870SOL    HW111625   4.204   3.664   5.686  0.1527 -0.6839 -1.2753
 1870SOL    HW211626   4.266   3.775   5.788 -0.2908 -0.5891 -1.1082
 1871SOL     OW11627   1.835   4.983   5.139  0.5010  0.4266  0.0768
 1871SOL    HW111628   1.930   4.992   5.109  0.3055  1.2475 -0.3004
 1871SOL    HW211629   1.821   5.037   5.222  0.7749 -1.0179  1.1166
 1872SOL     OW11630   3.411   1.933   5.190 -0.0541 -0.0549  0.2842
 1872SOL    HW111631   3.491   1.974   5.234  0.3543  1.1999 -1.5189
 1872SOL    HW211632   3.432   1.840   5.160  0.7054  0.2310 -0.0886
 1873SOL     OW11633   4.494   3.121   6.477  0.1309  0.3356 -0.2044
 1873SOL    HW111634   4.505   3.219   6.461  1.8802  0.2315  0.2487
 1873SOL    HW211635   4.564   3.071   6.427 -2.1666 -0.9410 -2.4337
 1874SOL     OW11636   1.492   6.192   5.688  0.3821 -0.1721 -0.4034
 1874SOL    HW111637   1.442   6.246   5.755  1.6351 -0.4380  0.7954
 1874SOL    HW211638   1.477   6.230   5.596  1.8882  2.7951  0.4631
 1875SOL     OW11639   5.060   2.705   6.565  0.5185 -1.0199 -0.1419
 1875SOL    HW111640   5.000   2.662   6.497  0.4131 -1.4537  0.2192
 1875SOL    HW211641   5.154   2.703   6.532  0.5965 -2.0227  0.0870
 1876SOL     OW11642   0.785   4.748   0.484  0.0180 -0.3797  0.2071
 1876SOL    HW111643   0.737   4.807   0.550  1.4679  1.8235 -0.6049
 1876SOL    HW211644   0.854   4.695   0.533  0.8513  0.9815  0.5797
 1877SOL     OW11645   2.996   3.109   5.772 -0.5348  0.4205  0.1992
 1877SOL    HW111646   3.000   3.026   5.828 -1.6451 -0.0204 -0.3427
 1877SOL    HW211647   3.068   3.172   5.801  0.7110 -0.9573  0.2342
 1878SOL     OW11648   3.633   3.456   5.789  0.0948 -0.5460  0.5031
 1878SOL    HW111649   3.672   3.469   5.880  0.9020 -1.2280  0.2756
 1878SOL    HW211650   3.664   3.530   5.729 -1.2770  0.4819  1.0234
 1879SOL     OW11651   2.450   0.180   6.474 -0.1942  0.0806  0.0959
 1879SOL    HW111652   2.409   0.236   6.401  3.9772  1.9498 -1.1488
 1879SOL    HW211653   2.501   0.105   6.433 -0.3987 -0.7919  1.3862
 1880SOL     OW11654   4.778   1.727   1.150  0.4990 -0.8936 -0.9336
 1880SOL    HW111655   4.794   1.761   1.243 -0.2583 -0.6292 -0.8945
 1880SOL    HW211656   4.733   1.638   1.155 -0.4243 -0.4421 -1.0435
 1881SOL     OW11657   1.001   5.457   6.043  0.1367  0.0895 -0.5787
 1881SOL    HW111658   1.056   5.463   5.960  1.9428 -0.8503  0.4886
 1881SOL    HW211659   1.050   5.403   6.111 -0.9751  1.4316  1.3660
 1882SOL     OW11660   1.869   0.695   0.106  0.5834  0.5171  0.4036
 1882SOL    HW111661   1.793   0.742   0.151  1.7697  2.0393  0.9316
 1882SOL    HW211662   1.839   0.606   0.072 -1.6075  1.3716 -0.0401
 1883SOL     OW11663   1.360   2.617   5.878  0.3610 -0.4279  0.4603
 1883SOL    HW111664   1.325   2.588   5.968 -0.9036 -0.9862 -0.1815
 1883SOL    HW211665   1.457   2.593   5.871  0.6459  0.1927  1.9050
 1884SOL     OW11666   1.547   0.692   1.343  0.2654 -0.0924 -0.0836
 1884SOL    HW111667   1.533   0.707   1.441  0.2271 -2.3026  0.3132
 1884SOL    HW211668   1.459   0.679   1.298  0.3557 -0.5974 -0.1194
 1885SOL     OW11669   2.378   4.817   6.288  0.1001  0.1908  0.4937
 1885SOL    HW111670   2.456   4.789   6.344  0.0099 -1.3746 -0.1090
 1885SOL    HW211671   2.306   4.748   6.296 -0.8455  1.1287  0.2708
 1886SOL     OW11672   2.998   1.915   5.915  0.8067  0.7850 -0.3077
 1886SOL    HW111673   2.923   1.918   5.848 -1.7440  0.1803  2.3250
 1886SOL    HW211674   3.070   1.855   5.881 -1.0921 -0.7642 -1.8961
 1887SOL     OW11675   3.161   5.375   0.769 -0.0319  0.3824  0.3418
 1887SOL    HW111676   3.191   5.339   0.681 -0.9829  0.0474  0.1447
 1887SOL    HW211677   3.220   5.338   0.842  2.4820  2.7232 -0.3426
 1888SOL     OW11678   1.935   5.929   0.764  0.0881  0.0242 -0.3590
 1888SOL    HW111679   1.907   5.867   0.690 -1.0947 -0.6286  0.5961
 1888SOL    HW211680   1.969   5.875   0.841  1.9545  0.7265 -0.6368
 1889SOL     OW11681   3.004   2.298   5.871 -0.2799  0.5750  0.2610
 1889SOL    HW111682   2.952   2.245   5.805 -1.0275  1.1805  0.3496
 1889SOL    HW211683   3.045   2.237   5.939  1.2367 -0.1478 -1.2461
 1890SOL     OW11684   3.157   2.663   0.483 -0.1958 -0.2762  0.3769
 1890SOL    HW111685   3.238   2.609   0.461 -0.2464 -1.0108  1.8764
 1890SOL    HW211686   3.123   2.708   0.400  0.5236 -1.6156 -0.6727
 1891SOL     OW11687   1.929   4.845   0.306  0.6642 -0.3121 -0.2427
 1891SOL    HW111688   1.899   4.940   0.304  1.5745 -0.0236 -1.5610
 1891SOL    HW211689   1.860   4.788   0.261 -0.3209 -0.4373  1.3687
 1892SOL     OW11690   4.411   4.011   1.636  0.1775 -0.0816 -0.0362
 1892SOL    HW111691   4.436   3.944   1.566  0.3159  1.1198 -1.1805
 1892SOL    HW211692   4.313   4.031   1.629  0.2437  0.2337 -0.0719
 1893SOL     OW11693   5.386   1.465   0.454  0.5885  0.0924 -0.4030
 1893SOL    HW111694   5.474   1.507   0.431  0.1816  0.4526 -1.3788
 1893SOL    HW211695   5.359   1.404   0.380 -0.2427  0.4187 -0.3730
 1894SOL     OW11696   4.689   4.353   5.759 -0.1552 -0.2593  0.3059
 1894SOL    HW111697   4.726   4.364   5.667 -1.2811 -0.6055 -0.2122
 1894SOL    HW211698   4.737   4.278   5.806  0.0685 -0.4346 -0.1967
 1895SOL     OW11699   5.600   2.383   0.139  0.0666  0.4313 -0.1396
 1895SOL    HW111700   5.633   2.366   0.046 -3.1202  0.0314 -1.3259
 1895SOL    HW211701   5.569   2.296   0.180 -1.2831  0.9921  0.0962
 1896SOL     OW11702   2.055   4.715   4.975  0.1770 -0.7071 -0.5479
 1896SOL    HW111703   2.067   4.728   4.877 -0.1983  1.6756 -0.3335
 1896SOL    HW211704   2.134   4.751   5.024 -0.0178 -1.0974  0.0745
 1897SOL     OW11705   2.597   3.302   5.283  0.0444  0.6424 -0.2895
 1897SOL    HW111706   2.593   3.231   5.213  0.1368  1.0737 -0.7397
 1897SOL    HW211707   2.524   3.368   5.267 -0.5546  0.2136  0.6108
 1898SOL     OW11708   2.534   5.388   0.413 -0.5940  0.2446  0.4428
 1898SOL    HW111709   2.563   5.314   0.351  1.3618  0.0494  1.4917
 1898SOL    HW211710   2.569   5.475   0.378  0.8498  0.0862  1.4038
 1899SOL     OW11711   3.766   2.752   0.696 -0.7768  0.1377 -0.2478
 1899SOL    HW111712   3.752   2.749   0.795  1.2278  3.2502  0.2494
 1899SOL    HW211713   3.803   2.664   0.665 -1.4250 -0.8840  1.7227
 1900SOL     OW11714   4.050   1.261   6.148 -0.4262  0.0935 -0.1323
 1900SOL    HW111715   4.075   1.188   6.084  0.6311  1.7103 -1.6808
 1900SOL    HW211716   4.133   1.299   6.189 -0.6683  2.0174 -1.2680
 1901SOL     OW11717   2.093   4.790   5.474  0.5563  0.2278  0.3745
 1901SOL    HW111718   2.134   4.715   5.525  0.1747 -0.2909 -0.0709
 1901SOL    HW211719   2.163   4.858   5.451  0.7541  0.4017  1.4598
 1902SOL     OW11720   2.355   5.401   5.597  0.5504 -0.3364 -0.2542
 1902SOL    HW111721   2.437   5.369   5.645  1.1607 -0.4583 -1.3545
 1902SOL    HW211722   2.307   5.323   5.558 -0.2229 -0.2869  0.5696
 1903SOL     OW11723   6.212   4.718   0.912  0.3496 -0.1748 -0.4367
 1903SOL    HW111724   6.198   4.684   1.005  0.1583 -0.1031 -0.4388
 1903SOL    HW211725   6.301   4.688   0.878  0.6268  0.1974 -0.0522
 1904SOL     OW11726   2.776   3.891   1.014  0.0470  0.6888 -0.7255
 1904SOL    HW111727   2.738   3.974   1.054  0.9764  0.0596  1.6325
 1904SOL    HW211728   2.770   3.816   1.080 -1.0807 -1.2725 -2.8841
 1905SOL     OW11729   0.032   0.799   0.549  0.4809 -0.4599  0.4348
 1905SOL    HW111730  -0.046   0.860   0.564 -1.6091 -2.6470 -0.7514
 1905SOL    HW211731   0.087   0.794   0.633  0.4024  2.4533  0.7602
 1906SOL     OW11732   3.815   4.112   6.132 -0.1385  0.6540  0.0046
 1906SOL    HW111733   3.753   4.105   6.210 -0.5178  1.9914 -0.1536
 1906SOL    HW211734   3.910   4.108   6.165 -0.1777 -2.9628  0.1134
 1907SOL     OW11735   6.021   0.023   5.762 -0.7357 -0.0283  0.6038
 1907SOL    HW111736   5.922   0.029   5.756 -0.6469  1.4680 -0.0511
 1907SOL    HW211737   6.058   0.112   5.791  0.4949  0.0154 -0.9260
 1908SOL     OW11738   5.535   5.232   5.177  0.6519 -0.6566  0.0346
 1908SOL    HW111739   5.621   5.203   5.135  0.2594 -0.0360 -1.2445
 1908SOL    HW211740   5.530   5.332   5.178  0.1279 -0.6807  0.4943
 1909SOL     OW11741   3.981   0.032   5.477 -0.4789  0.0255 -0.5747
 1909SOL    HW111742   3.957   0.124   5.510  1.1771  0.5239 -0.6809
 1909SOL    HW211743   3.908  -0.032   5.501 -1.9960  1.4813 -1.0890
 1910SOL     OW11744   3.066   1.106   5.918  0.3683  0.3847 -0.2377
 1910SOL    HW111745   3.141   1.125   5.981  0.2851 -1.1761  0.3706
 1910SOL    HW211746   2.996   1.177   5.927  1.6130  1.7090 -0.6140
 1911SOL     OW11747   4.582   2.550   6.287 -0.6207 -0.4741  0.5531
 1911SOL    HW111748   4.537   2.473   6.331 -3.9263  0.3160 -1.1137
 1911SOL    HW211749   4.564   2.634   6.338 -0.9613 -0.1634 -0.0621
 1912SOL     OW11750   0.808   3.637   0.181  0.1967  1.1484  0.5474
 1912SOL    HW111751   0.733   3.583   0.144  0.6908  0.1240  0.9901
 1912SOL    HW211752   0.806   3.634   0.281  1.8073 -0.3675  0.5911
 1913SOL     OW11753   1.623   1.355   0.042 -0.0873  0.5335 -0.4741
 1913SOL    HW111754   1.702   1.295   0.029  0.5056  0.6281  2.0801
 1913SOL    HW211755   1.539   1.301   0.034  0.3297 -0.0892 -0.7516
 1914SOL     OW11756   2.614   2.546   0.279  0.0449 -0.1281  0.4543
 1914SOL    HW111757   2.528   2.570   0.232 -0.2025  1.2550  1.5428
 1914SOL    HW211758   2.596   2.476   0.348 -0.1622 -0.0215  0.5100
 1915SOL     OW11759   1.255   3.057   1.199  0.1342 -0.0842 -0.8514
 1915SOL    HW111760   1.163   3.096   1.202  0.1749  0.0916 -1.7983
 1915SOL    HW211761   1.283   3.031   1.292 -1.1843 -0.8840 -0.6537
 1916SOL     OW11762   3.545   0.962   1.003  0.1130 -0.1439 -0.0115
 1916SOL    HW111763   3.589   1.049   0.981  0.1585 -0.1382  0.1034
 1916SOL    HW211764   3.614   0.894   1.028  0.2351 -0.7256 -1.8065
 1917SOL     OW11765   4.326   3.246   1.130 -0.0626 -0.3779  0.1538
 1917SOL    HW111766   4.369   3.309   1.194  0.7942 -1.5526  0.7634
 1917SOL    HW211767   4.391   3.175   1.103 -0.0623  0.6130 -2.8156
 1918SOL     OW11768   3.895   3.058   0.255  0.4452  0.2921  0.2707
 1918SOL    HW111769   3.955   2.978   0.247 -1.6860 -1.3642  0.0583
 1918SOL    HW211770   3.852   3.059   0.345 -0.9550  0.1221 -0.3693
 1919SOL     OW11771   4.674   1.313   1.048  0.6291  0.4070  0.1306
 1919SOL    HW111772   4.741   1.243   1.072 -1.4367 -1.5576  0.5442
 1919SOL    HW211773   4.720   1.389   1.002  3.0436 -0.9877  0.0632
 1920SOL     OW11774   1.456   1.185   5.455  0.1236  0.1756  0.4089
 1920SOL    HW111775   1.363   1.173   5.491  0.1797 -0.8100  0.2499
 1920SOL    HW211776   1.451   1.208   5.358  0.0523 -1.1699  0.0681
 1921SOL     OW11777   2.995   2.550   6.076  0.1914  0.1674 -0.0333
 1921SOL    HW111778   3.011   2.469   6.133 -0.0114  0.0207 -0.1833
 1921SOL    HW211779   2.919   2.603   6.114  0.3254  0.2906  0.0664
 1922SOL     OW11780   0.709   1.076   5.589  0.1398  0.1493  0.1868
 1922SOL    HW111781   0.728   1.137   5.513 -0.7007 -0.5391 -0.6046
 1922SOL    HW211782   0.677   0.988   5.554  1.1577 -0.6999  1.3039
 1923SOL     OW11783   3.711   1.917   0.472 -0.3100 -0.1218  0.1657
 1923SOL    HW111784   3.811   1.923   0.478 -0.4270  1.4814  0.8431
 1923SOL    HW211785   3.686   1.870   0.387  1.0142  1.8032 -1.3938
 1924SOL     OW11786   5.003   2.413   1.191 -0.7649  0.2807 -0.3846
 1924SOL    HW111787   4.935   2.464   1.243 -1.4416  0.6439 -1.5836
 1924SOL    HW211788   5.043   2.472   1.121  0.1681 -0.1729 -0.2457
 1925SOL     OW11789   0.126   5.092   1.466  0.2729 -0.4375  0.4645
 1925SOL    HW111790   0.163   5.117   1.556  0.8329 -1.6190  0.5891
 1925SOL    HW211791   0.065   5.013   1.477 -0.5840  0.1422 -0.0476
 1926SOL     OW11792   5.012   1.042   6.590  0.3284  0.1839 -0.0718
 1926SOL    HW111793   5.096   0.988   6.593  1.5543  1.9636 -0.8693
 1926SOL    HW211794   4.992   1.068   6.495  0.2037  1.7207  0.3413
 1927SOL     OW11795   5.564   6.267   5.329 -0.0777  0.7558  0.6135
 1927SOL    HW111796   5.571   6.168   5.318  0.7360  0.9722 -1.0381
 1927SOL    HW211797   5.474   6.290   5.365  0.3661 -0.6901  2.8368
 1928SOL     OW11798   3.517   1.934   0.168 -0.3206 -0.4289 -0.6894
 1928SOL    HW111799   3.458   1.863   0.129  0.3847 -1.3236 -0.1776
 1928SOL    HW211800   3.476   2.024   0.152 -1.0380 -0.9127 -1.7077
 1929SOL     OW11801   5.984   2.202   6.577  0.6212  0.3633 -0.3131
 1929SOL    HW111802   5.962   2.127   6.514 -1.9028 -1.0070  2.0094
 1929SOL    HW211803   6.038   2.166   6.653 -0.4158  0.9056  0.7060
 1930SOL     OW11804   1.145   5.250   6.200 -0.3010  0.6381 -0.2729
 1930SOL    HW111805   1.137   5.187   6.123 -1.5139 -1.1439  1.2345
 1930SOL    HW211806   1.241   5.256   6.228 -0.4632 -4.1624  2.2798
 1931SOL     OW11807   5.858   4.753   0.895  0.2569  0.4266 -0.0971
 1931SOL    HW111808   5.921   4.778   0.968 -0.8122 -1.8619  1.7364
 1931SOL    HW211809   5.835   4.656   0.902 -3.3041  1.0737 -0.7703
 1932SOL     OW11810   5.494   3.913   5.352 -0.4171  0.1746 -0.1814
 1932SOL    HW111811   5.533   3.983   5.292 -1.5490  1.0367  0.0630
 1932SOL    HW211812   5.509   3.939   5.447  1.3170 -1.1598 -0.0432
 1933SOL     OW11813   0.780   5.985   5.968 -0.4144  0.2006  0.4595
 1933SOL    HW111814   0.687   6.006   5.939  0.1534 -0.6416 -2.2057
 1933SOL    HW211815   0.783   5.890   6.002 -1.0754  1.1807  3.5919
 1934SOL     OW11816   1.432   1.281   5.991 -0.1039  0.0129 -0.2754
 1934SOL    HW111817   1.492   1.322   6.059 -0.4451  0.2059 -0.0860
 1934SOL    HW211818   1.431   1.337   5.908  0.7926 -0.5475 -0.6816
 1935SOL     OW11819   4.991   0.261   4.637  0.8348 -0.2934 -0.0523
 1935SOL    HW111820   5.038   0.277   4.550  0.2397  1.9706 -0.0105
 1935SOL    HW211821   4.939   0.342   4.663  0.1588 -1.2830  1.9270
 1936SOL     OW11822   3.666   0.897   6.181 -0.8111  0.3016 -0.0704
 1936SOL    HW111823   3.612   0.860   6.106  0.0105 -2.1411  0.4469
 1936SOL    HW211824   3.763   0.896   6.156 -0.4945 -0.8193  1.0728
 1937SOL     OW11825   1.238   5.740   5.786 -0.2483 -0.2630 -0.1688
 1937SOL    HW111826   1.338   5.737   5.783 -0.2472 -1.1138  0.4254
 1937SOL    HW211827   1.203   5.762   5.696  0.5154  1.6627 -0.0497
 1938SOL     OW11828   2.198   5.174   1.455  0.1403  0.2032 -0.1681
 1938SOL    HW111829   2.182   5.272   1.449  0.1067  0.1129 -1.7224
 1938SOL    HW211830   2.196   5.147   1.552 -0.6880  1.5704  0.2324
 1939SOL     OW11831   1.963   1.280   1.585  0.2980  0.0368  0.7073
 1939SOL    HW111832   1.968   1.367   1.635 -0.3026 -0.1904  1.1728
 1939SOL    HW211833   2.028   1.282   1.510 -0.0863  1.1041  0.3828
 1940SOL     OW11834   5.364   5.743   6.296  0.5712 -0.2879 -0.2443
 1940SOL    HW111835   5.354   5.652   6.256 -0.0762 -0.5246  0.4207
 1940SOL    HW211836   5.422   5.737   6.377 -1.0280 -0.4929  0.9435
 1941SOL     OW11837   0.975   2.759   0.842  0.0312 -0.4122 -0.2148
 1941SOL    HW111838   1.072   2.734   0.842  0.2545  0.3716 -1.3832
 1941SOL    HW211839   0.920   2.678   0.859  0.8107 -1.3703 -1.9601
 1942SOL     OW11840   3.989   4.751   1.487 -0.3918 -0.0974  0.3215
 1942SOL    HW111841   4.018   4.657   1.501 -2.8447 -0.8967  0.4177
 1942SOL    HW211842   4.014   4.806   1.567 -0.1168 -0.9686  0.8476
 1943SOL     OW11843   0.929   3.603   5.323 -0.1538 -0.1544  0.0179
 1943SOL    HW111844   0.867   3.526   5.336 -0.0446 -0.2390  0.0372
 1943SOL    HW211845   0.983   3.589   5.239  0.2958 -0.3925  0.3419
 1944SOL     OW11846   6.196   6.003   5.583 -0.5446  0.3232 -0.6508
 1944SOL    HW111847   6.161   6.095   5.596  2.3823  1.6403 -1.3395
 1944SOL    HW211848   6.187   5.977   5.487 -0.7823  0.1437 -0.5808
 1945SOL     OW11849   0.575   2.554   5.750 -0.2492  0.8503 -0.0845
 1945SOL    HW111850   0.602   2.620   5.681 -1.4586  1.1179 -0.3238
 1945SOL    HW211851   0.583   2.594   5.841 -1.3561  1.4973 -0.2486
 1946SOL     OW11852   4.447   5.072   5.395 -0.0662 -0.1194 -0.0844
 1946SOL    HW111853   4.382   5.147   5.379  1.0499  1.3003  1.6252
 1946SOL    HW211854   4.523   5.080   5.330 -0.0957  0.0371 -0.1015
 1947SOL     OW11855   0.334   5.907   1.789 -0.3387 -0.6134  0.1316
 1947SOL    HW111856   0.392   5.868   1.718 -1.5569 -2.4604  0.0958
 1947SOL    HW211857   0.341   5.852   1.872 -3.3319 -2.0181 -0.4121
 1948SOL     OW11858   0.736   6.236   6.313  0.1725 -0.3571  0.3661
 1948SOL    HW111859   0.636   6.241   6.316  0.1650  1.5556 -1.1638
 1948SOL    HW211860   0.775   6.326   6.333  1.5584 -0.8777  0.1121
 1949SOL     OW11861   2.602   0.962   5.764  0.8241 -0.2622  0.6700
 1949SOL    HW111862   2.625   1.017   5.845  0.6423  1.6231 -0.4823
 1949SOL    HW211863   2.685   0.923   5.725  1.0537 -0.2385  1.1373
 1950SOL     OW11864   1.353   5.694   1.150 -0.2129  0.6102  0.1627
 1950SOL    HW111865   1.351   5.738   1.060  0.0656 -0.1643 -0.2230
 1950SOL    HW211866   1.320   5.759   1.219 -1.2823  0.9153 -0.6156
 1951SOL     OW11867   5.455   4.829   1.968  0.0860  0.3596 -0.5142
 1951SOL    HW111868   5.477   4.794   1.877 -2.8150 -1.5270 -0.6288
 1951SOL    HW211869   5.356   4.827   1.982  0.3704  1.2066  2.4875
 1952SOL     OW11870   6.199   0.926   6.432 -0.1307 -0.4122  0.1106
 1952SOL    HW111871   6.180   1.009   6.380  2.4741 -0.6993 -1.5256
 1952SOL    HW211872   6.183   0.942   6.529 -2.8879  0.8935 -0.4713
 1953SOL     OW11873   2.742   0.522   6.034 -0.0915  0.0719  0.1097
 1953SOL    HW111874   2.661   0.546   5.981  1.8999  1.5190 -2.4966
 1953SOL    HW211875   2.770   0.600   6.090 -0.9908 -0.7606  1.7937
 1954SOL     OW11876   5.029   5.342   6.416  0.1051  0.6084 -0.3994
 1954SOL    HW111877   4.952   5.369   6.474  0.5085  0.0194  0.4388
 1954SOL    HW211878   4.997   5.283   6.343 -0.4281  1.4296 -0.8464
 1955SOL     OW11879   4.170   2.090   5.455  0.2836  0.3889 -0.1957
 1955SOL    HW111880   4.257   2.095   5.504 -0.7497 -0.9276  1.9051
 1955SOL    HW211881   4.184   2.114   5.359  3.1466 -0.7546 -0.1443
 1956SOL     OW11882   3.074   1.806   6.381 -0.2843 -0.0053 -0.0149
 1956SOL    HW111883   3.057   1.817   6.283 -2.2164  0.3314  0.3344
 1956SOL    HW211884   3.172   1.822   6.399 -0.2514  2.0344 -1.6016
 1957SOL     OW11885   4.272   6.348   1.210 -0.1964 -0.2269 -0.3929
 1957SOL    HW111886   4.242   6.400   1.130  0.2241  0.0053 -0.4028
 1957SOL    HW211887   4.262   6.404   1.292  2.6022  0.8437 -0.6839
 1958SOL     OW11888   4.073   3.850   1.213  0.2095  0.1065  0.6736
 1958SOL    HW111889   4.007   3.803   1.271 -0.2454  0.8924  0.8054
 1958SOL    HW211890   4.165   3.813   1.229  0.0051 -0.0576  1.4823
 1959SOL     OW11891   1.749   3.039   1.486 -0.0312 -0.0410  0.3623
 1959SOL    HW111892   1.716   3.033   1.392 -1.2134  0.6212  0.7175
 1959SOL    HW211893   1.736   2.951   1.532 -1.7260  0.3074  0.6107
 1960SOL     OW11894   4.806   0.070   0.238 -0.8608 -0.0610  0.1653
 1960SOL    HW111895   4.811   0.016   0.322 -2.2015  0.3570  0.5265
 1960SOL    HW211896   4.788   0.009   0.160 -1.7166 -0.2239  0.4816
 1961SOL     OW11897   5.487   6.324   5.910  0.0508 -0.0109 -0.1233
 1961SOL    HW111898   5.531   6.360   5.828  0.9612 -1.6725 -0.4053
 1961SOL    HW211899   5.394   6.359   5.916 -0.0121  0.1999 -1.8364
 1962SOL     OW11900   1.079   5.458   0.210  0.4563  0.1162  0.3597
 1962SOL    HW111901   0.994   5.510   0.218  0.9365  0.7208  1.9784
 1962SOL    HW211902   1.155   5.522   0.200  0.8114 -0.3950 -0.2908
 1963SOL     OW11903   5.770   5.002   0.851 -0.5301 -0.0069  0.3567
 1963SOL    HW111904   5.804   4.911   0.876  2.5609  1.2444  1.1995
 1963SOL    HW211905   5.803   5.025   0.759 -1.1657  0.3568  0.2151
 1964SOL     OW11906   5.680   0.985   0.649 -0.3100  0.3111  0.3960
 1964SOL    HW111907   5.751   0.972   0.580  1.4792 -0.2229  2.2500
 1964SOL    HW211908   5.633   1.072   0.631  1.2923  1.0502 -0.4880
 1965SOL     OW11909   0.421   5.518   6.315 -0.4765 -0.1461 -0.2926
 1965SOL    HW111910   0.451   5.509   6.220 -1.4028  0.0074 -0.6077
 1965SOL    HW211911   0.348   5.586   6.321  2.5077  3.2365  1.1813
 1966SOL     OW11912   3.113   3.579   1.601  0.0182 -0.0101  0.3070
 1966SOL    HW111913   3.087   3.675   1.595  3.4761  1.0066 -1.8413
 1966SOL    HW211914   3.159   3.563   1.689  0.3336  0.6249  0.2705
 1967SOL     OW11915   4.514   4.305   0.729  0.2123  0.5329  0.1172
 1967SOL    HW111916   4.522   4.333   0.634 -1.2786  0.5887 -0.0215
 1967SOL    HW211917   4.574   4.361   0.786  3.1904 -1.2536 -1.0540
 1968SOL     OW11918   2.687   3.501   6.124 -0.2997 -0.0094 -0.1461
 1968SOL    HW111919   2.776   3.466   6.095 -0.1829 -1.1058  1.3864
 1968SOL    HW211920   2.700   3.581   6.182 -0.1377 -1.1818  1.5269
 1969SOL     OW11921   5.025   5.187   1.013  0.1676 -0.4704 -0.4421
 1969SOL    HW111922   4.975   5.274   1.011  1.4456  0.2680 -0.8979
 1969SOL    HW211923   5.123   5.205   1.020  0.4035 -1.8978  0.2534
 1970SOL     OW11924   4.147   4.148   0.545 -0.4149  0.1557 -0.3069
 1970SOL    HW111925   4.186   4.081   0.481  1.1570  1.1068 -0.4079
 1970SOL    HW211926   4.158   4.240   0.508 -0.1563  0.6698  0.9692
 1971SOL     OW11927   0.599   1.746   0.265 -0.1620  0.3530 -0.3654
 1971SOL    HW111928   0.688   1.741   0.219 -0.8418  1.3483 -1.8929
 1971SOL    HW211929   0.535   1.796   0.206 -1.6831 -0.1893  0.7831
 1972SOL     OW11930   0.613   2.733   0.751  0.2085 -0.3731 -0.2039
 1972SOL    HW111931   0.557   2.667   0.702 -1.8167  1.2930 -0.2806
 1972SOL    HW211932   0.678   2.775   0.689 -0.6225 -0.0817 -0.8917
 1973SOL     OW11933   4.310   5.849   1.040  0.3057  0.2188 -0.0989
 1973SOL    HW111934   4.267   5.883   1.123  1.5726  1.1051  0.2302
 1973SOL    HW211935   4.293   5.913   0.965 -1.5712 -1.0040 -0.7937
 1974SOL     OW11936   5.557   5.135   0.961 -0.1336  0.5668 -0.5840
 1974SOL    HW111937   5.624   5.098   0.897 -2.4312 -1.2800 -2.0883
 1974SOL    HW211938   5.538   5.066   1.032  1.0835  1.9170  1.1348
 1975SOL     OW11939   1.549   1.476   4.791  0.2169 -0.0126 -0.0396
 1975SOL    HW111940   1.539   1.397   4.731 -1.7671 -0.8318  1.2760
 1975SOL    HW211941   1.586   1.553   4.738  0.6981 -1.3256 -1.7166
 1976SOL     OW11942   6.010   5.706   6.378 -0.0570  0.2867 -0.1599
 1976SOL    HW111943   6.008   5.650   6.295 -1.3163  0.8226 -0.5148
 1976SOL    HW211944   5.947   5.668   6.445  0.4536  0.2414  0.2969
 1977SOL     OW11945   6.032   5.483   0.275  0.2215  0.5266  0.2681
 1977SOL    HW111946   5.963   5.472   0.346  0.6281  0.3204  0.6334
 1977SOL    HW211947   6.010   5.423   0.198 -0.5331  1.1693 -0.0363
 1978SOL     OW11948   2.724   4.119   1.494  0.5717 -0.3015  0.1545
 1978SOL    HW111949   2.747   4.198   1.437  0.7294  0.1117  0.7773
 1978SOL    HW211950   2.780   4.041   1.467 -0.2888 -0.5089 -1.1458
 1979SOL     OW11951   2.560   3.387   1.825 -0.0781  0.3678 -0.5299
 1979SOL    HW111952   2.636   3.446   1.851 -0.9705  0.5662  1.9390
 1979SOL    HW211953   2.581   3.293   1.849 -0.9548  0.5676  1.2161
 1980SOL     OW11954   4.218   1.311   0.584 -0.4544 -0.1796  0.0059
 1980SOL    HW111955   4.284   1.377   0.620  1.6134 -1.7959 -0.6240
 1980SOL    HW211956   4.159   1.279   0.658 -0.0562  0.7499  0.7479
 1981SOL     OW11957   0.805   1.815   5.316 -0.7813 -0.6306 -0.0726
 1981SOL    HW111958   0.790   1.760   5.234 -1.8615 -0.9038  0.2982
 1981SOL    HW211959   0.746   1.896   5.314  3.1615  2.5834 -2.3289
 1982SOL     OW11960   4.168   4.492   6.301  0.4940 -0.8005 -0.0838
 1982SOL    HW111961   4.123   4.528   6.219  0.3785 -2.8563 -0.9678
 1982SOL    HW211962   4.260   4.461   6.277  0.0612 -2.4348  0.3081
 1983SOL     OW11963   2.625   6.417   5.746  0.6280 -0.3088  0.2071
 1983SOL    HW111964   2.592   6.362   5.669  0.6842  1.1641 -0.9122
 1983SOL    HW211965   2.725   6.416   5.747  0.6356  0.0768 -0.0492
 1984SOL     OW11966   4.344   6.183   1.024  0.1534  0.4033  0.5721
 1984SOL    HW111967   4.310   6.235   1.102 -0.6598  0.1438  0.3970
 1984SOL    HW211968   4.403   6.242   0.969  0.3813  0.7163  1.1412
 1985SOL     OW11969   3.833   5.953   5.314 -0.3795 -0.1001  0.5211
 1985SOL    HW111970   3.909   5.945   5.250 -0.6289  0.4280  0.1503
 1985SOL    HW211971   3.747   5.961   5.264 -0.8027 -1.7435  0.9475
 1986SOL     OW11972   3.600   1.202   6.269 -0.6641  0.0511  0.5795
 1986SOL    HW111973   3.551   1.174   6.351  0.4742  0.7270  1.5133
 1986SOL    HW211974   3.594   1.130   6.200  1.9121 -2.4976  2.7795
 1987SOL     OW11975   1.779   3.572   0.969  0.4584 -0.2935 -0.2452
 1987SOL    HW111976   1.873   3.573   0.936 -0.2006 -0.0223 -2.3018
 1987SOL    HW211977   1.744   3.665   0.973  0.0070 -0.4507 -0.4112
 1988SOL     OW11978   4.166   1.777   6.039  0.1446 -0.2255 -0.4634
 1988SOL    HW111979   4.152   1.711   5.965  0.3336  2.2528 -2.8856
 1988SOL    HW211980   4.078   1.818   6.064  0.2718 -0.0223 -0.3458
 1989SOL     OW11981   1.456   0.995   5.926 -0.3759 -0.2312 -0.0335
 1989SOL    HW111982   1.545   0.993   5.973 -0.4985  0.7150  0.2585
 1989SOL    HW211983   1.416   1.086   5.935 -1.5099 -0.7257  0.0708
 1990SOL     OW11984   0.543   1.231   1.661 -0.4798  0.0579  0.5990
 1990SOL    HW111985   0.484   1.153   1.681  1.4290 -1.9237 -0.9833
 1990SOL    HW211986   0.638   1.201   1.661  0.4442  2.7142  1.1693
 1991SOL     OW11987   4.239   5.321   6.193  0.2282  0.5431 -0.1958
 1991SOL    HW111988   4.213   5.393   6.128  0.1409  0.8310  0.1558
 1991SOL    HW211989   4.248   5.361   6.285  0.7873  0.2277 -0.1085
 1992SOL     OW11990   0.280   6.205   5.939  0.0083 -0.3543 -0.7460
 1992SOL    HW111991   0.267   6.304   5.936  0.1944 -0.3312 -0.7915
 1992SOL    HW211992   0.197   6.160   5.906 -0.4963 -0.2378  0.3139
 1993SOL     OW11993   4.063   4.220   6.206 -0.0151 -0.9010 -0.3091
 1993SOL    HW111994   4.127   4.249   6.278 -0.8924 -0.8483  0.4790
 1993SOL    HW211995   4.029   4.301   6.158  1.4182 -0.9984 -1.5752
 1994SOL     OW11996   1.852   4.943   6.573  0.1782 -0.2209  0.8005
 1994SOL    HW111997   1.766   4.904   6.538  1.0310  0.5186 -2.3877
 1994SOL    HW211998   1.833   4.994   6.657 -1.9854 -2.3537  1.7318
 1995SOL     OW11999   6.185   4.927   0.063 -0.1499  0.2857 -0.1957
 1995SOL    HW112000   6.251   4.853   0.065  0.0418  0.4526 -0.2838
 1995SOL    HW212001   6.224   5.008   0.107  0.0631  0.6694 -1.0744
 1996SOL     OW12002   1.277   0.798   5.778  0.6045 -0.4954 -0.4715
 1996SOL    HW112003   1.344   0.864   5.812 -0.0783  1.0579 -1.9914
 1996SOL    HW212004   1.322   0.731   5.720  1.1708 -0.8630  0.3706
 1997SOL     OW12005   1.735   3.181   6.237 -0.0106  1.0811  1.0582
 1997SOL    HW112006   1.830   3.166   6.211  0.3771  0.9405  2.4821
 1997SOL    HW212007   1.676   3.120   6.185  0.7992  0.2585  1.0940
 1998SOL     OW12008   1.922   0.894   6.477  0.0029  0.4182  0.6202
 1998SOL    HW112009   1.825   0.913   6.489  0.2429  1.1124  1.6164
 1998SOL    HW212010   1.949   0.815   6.531 -0.0919 -0.0728 -0.0341
 1999SOL     OW12011   5.295   6.265   0.078 -0.3502  0.3111 -0.1124
 1999SOL    HW112012   5.216   6.221   0.037  0.3326 -0.2803 -0.8180
 1999SOL    HW212013   5.376   6.249   0.021 -0.3370  3.8498 -1.3473
 2000SOL     OW12014   0.852   2.864   0.128  0.1920 -0.6625  0.2561
 2000SOL    HW112015   0.801   2.790   0.172  0.9427  0.0327  2.3914
 2000SOL    HW212016   0.941   2.873   0.171  0.1101  1.5024  0.0736
 2001SOL     OW12017   4.804   3.612   4.808  0.2023  0.4156  0.5650
 2001SOL    HW112018   4.760   3.692   4.767  1.5755  1.2859  0.7240
 2001SOL    HW212019   4.903   3.619   4.797  0.4291 -0.6514  1.6967
 2002SOL     OW12020   5.600   3.944   0.322  0.1150  0.5067  0.0091
 2002SOL    HW112021   5.624   3.849   0.302 -0.8589 -0.1322  1.6433
 2002SOL    HW212022   5.585   3.993   0.236  0.4414 -0.8721 -0.8705
 2003SOL     OW12023   6.149   0.361   0.962  0.3849  0.1511  0.6389
 2003SOL    HW112024   6.127   0.272   0.921 -1.6352  0.0743  1.7471
 2003SOL    HW212025   6.248   0.374   0.962  0.6134 -1.0312 -1.6925
 2004SOL     OW12026   5.435   2.854   0.439 -0.0652 -0.1721 -0.2783
 2004SOL    HW112027   5.515   2.807   0.477  0.2850  0.8935  0.3418
 2004SOL    HW212028   5.439   2.951   0.463 -1.9850 -0.2470  0.4695
 2005SOL     OW12029   3.048   3.928   0.868  0.3471  0.1557 -0.3703
 2005SOL    HW112030   2.970   3.947   0.928  0.0427 -1.7002 -0.1281
 2005SOL    HW212031   3.130   3.918   0.924  0.7961  2.0262 -0.6183
 2006SOL     OW12032   4.726   5.852   4.963 -0.0058  0.6965 -0.1645
 2006SOL    HW112033   4.634   5.860   4.925 -0.0344  1.9919  0.1614
 2006SOL    HW212034   4.793   5.873   4.892 -0.0346  2.0836  0.1934
 2007SOL     OW12035   2.428   0.592   5.213  0.0092  0.1997 -0.4383
 2007SOL    HW112036   2.446   0.604   5.311 -0.5891 -0.3919 -0.2429
 2007SOL    HW212037   2.484   0.518   5.178  0.7940  0.9141 -0.7331
 2008SOL     OW12038   6.045   5.641   1.167  0.2470  0.1893  0.3078
 2008SOL    HW112039   5.953   5.674   1.148  0.7478  0.6625 -1.4325
 2008SOL    HW212040   6.040   5.559   1.223 -1.2247  0.2562  0.3056
 2009SOL     OW12041   5.234   5.296   0.533 -0.2124  0.1738 -0.4073
 2009SOL    HW112042   5.144   5.264   0.561  0.3600 -0.2787  1.0123
 2009SOL    HW212043   5.224   5.365   0.462 -1.7951  1.4072  0.9183
 2010SOL     OW12044   6.134   4.391   0.863 -0.3958  0.8135  0.2206
 2010SOL    HW112045   6.181   4.307   0.835 -0.4994  1.0346 -0.6459
 2010SOL    HW212046   6.180   4.430   0.942 -0.5482 -0.2427  0.8557
 2011SOL     OW12047   2.208   3.352   5.328 -0.6501 -0.4645 -0.5631
 2011SOL    HW112048   2.258   3.433   5.359 -2.5145  0.8829 -0.8743
 2011SOL    HW212049   2.259   3.308   5.254 -0.2663  1.3275 -1.4300
 2012SOL     OW12050   4.227   4.262   0.042 -0.1479  0.3188  0.3147
 2012SOL    HW112051   4.297   4.286   0.109 -0.1539  0.8037  0.1540
 2012SOL    HW212052   4.140   4.303   0.068 -0.2966 -0.0042  0.3355
 2013SOL     OW12053   1.009   1.857   0.857 -0.5664 -0.2968 -0.4775
 2013SOL    HW112054   0.978   1.947   0.826 -1.0962 -0.7916 -1.4613
 2013SOL    HW212055   1.032   1.801   0.777 -0.2926 -1.0525  0.1167
 2014SOL     OW12056   4.911   1.365   0.398  0.4388  0.1810 -0.2856
 2014SOL    HW112057   4.992   1.420   0.375  0.4774 -0.0284 -0.6691
 2014SOL    HW212058   4.829   1.418   0.382  0.5055  0.4772  0.3352
 2015SOL     OW12059   4.080   1.354   5.461  0.5361  0.2254  0.3189
 2015SOL    HW112060   4.135   1.313   5.389  1.8418  1.1759  0.7361
 2015SOL    HW212061   4.025   1.428   5.423 -0.3985 -0.6494 -0.0761
 2016SOL     OW12062   4.240   1.202   5.287  0.6199  0.0547 -0.2804
 2016SOL    HW112063   4.325   1.247   5.314  0.2095  0.6272  0.0844
 2016SOL    HW212064   4.246   1.173   5.192  0.8633  0.9683 -0.5501
 2017SOL     OW12065   3.150   4.729   0.205  0.2434 -0.1864  0.1496
 2017SOL    HW112066   3.202   4.722   0.290 -1.1578 -0.2247  1.0297
 2017SOL    HW212067   3.069   4.785   0.220  0.4443  0.5891 -1.4188
 2018SOL     OW12068   2.360   5.896   0.713  0.3098  0.6176 -0.3247
 2018SOL    HW112069   2.282   5.838   0.733  0.1859  0.9425  0.1537
 2018SOL    HW212070   2.337   5.959   0.638 -0.4900  1.8743  0.9359
 2019SOL     OW12071   3.264   5.466   5.838 -0.1591 -0.1429  0.0947
 2019SOL    HW112072   3.204   5.542   5.860 -0.7479 -0.1829 -1.2373
 2019SOL    HW212073   3.293   5.420   5.922  0.1562  1.4904  0.9182
 2020SOL     OW12074   0.234   1.581   5.630  0.2312  0.1426  0.2501
 2020SOL    HW112075   0.192   1.497   5.665  0.9460 -2.3906 -4.1555
 2020SOL    HW212076   0.165   1.652   5.623 -1.1544 -1.0205  1.3672
 2021SOL     OW12077   4.872   1.154   5.998 -0.2088  0.2645 -0.0440
 2021SOL    HW112078   4.772   1.156   5.988 -0.1139  2.1009 -0.9598
 2021SOL    HW212079   4.905   1.244   6.025  0.9238 -1.1351  3.9818
 2022SOL     OW12080   5.865   6.085   5.347 -0.0315  0.1568 -0.1249
 2022SOL    HW112081   5.854   6.099   5.445  1.2943  0.3635  0.0227
 2022SOL    HW212082   5.790   6.029   5.312 -0.3681 -0.1554  1.0515
 2023SOL     OW12083   2.312   2.036   5.606 -0.1796  1.2359  0.0327
 2023SOL    HW112084   2.372   2.028   5.526 -0.4446 -2.2739  0.0261
 2023SOL    HW212085   2.335   1.965   5.672 -2.7431  1.3387  1.1393
 2024SOL     OW12086   5.654   4.460   1.582 -0.2643 -0.0063 -0.2153
 2024SOL    HW112087   5.637   4.468   1.681 -1.1172  0.4761 -0.3971
 2024SOL    HW212088   5.743   4.416   1.568 -1.6248 -3.4179  0.7771
 2025SOL     OW12089   3.763   3.599   0.122 -0.5485 -0.8189  0.0378
 2025SOL    HW112090   3.777   3.501   0.111  1.4340 -0.5881  0.1326
 2025SOL    HW212091   3.847   3.648   0.098 -1.2077  0.8017  0.8585
 2026SOL     OW12092   3.782   5.187   0.845 -0.2467  0.4530  0.6112
 2026SOL    HW112093   3.740   5.096   0.852 -1.4739  0.8613 -0.7537
 2026SOL    HW212094   3.838   5.205   0.925 -0.3803 -1.3114  1.1361
 2027SOL     OW12095   3.653   3.781   6.508 -0.3816  0.1398 -0.3327
 2027SOL    HW112096   3.696   3.705   6.557  0.1532 -0.0416 -1.0650
 2027SOL    HW212097   3.656   3.863   6.565 -0.3501 -0.2172  0.1925
 2028SOL     OW12098   5.479   5.789   1.044  0.1391  0.3635  0.0530
 2028SOL    HW112099   5.501   5.860   0.976 -2.0536  0.8488 -0.2446
 2028SOL    HW212100   5.413   5.826   1.110 -0.8593 -1.3032  0.0443
 2029SOL     OW12101   2.202   1.002   0.571  0.4387  0.0408 -0.3980
 2029SOL    HW112102   2.298   0.982   0.549  0.0205  0.5921 -3.0469
 2029SOL    HW212103   2.185   0.980   0.667  2.3873 -3.1935 -0.6373
 2030SOL     OW12104   5.623   1.894   5.593 -0.6303 -0.0086  0.0328
 2030SOL    HW112105   5.663   1.825   5.654 -2.0827 -1.6530 -0.7851
 2030SOL    HW212106   5.555   1.851   5.534 -2.0289  2.2501 -0.1241
 2031SOL     OW12107   2.959   2.051   0.029 -0.4377 -0.7648 -1.0702
 2031SOL    HW112108   3.052   2.044  -0.007 -1.3423  0.3248 -3.8959
 2031SOL    HW212109   2.910   1.965   0.013  0.2505 -1.6684  1.2356
 2032SOL     OW12110   0.810   3.553   0.507  0.5992 -0.0793  0.8078
 2032SOL    HW112111   0.824   3.642   0.551 -1.3274  0.3079  0.6824
 2032SOL    HW212112   0.853   3.482   0.564 -0.4564  0.5918  2.5439
 2033SOL     OW12113   5.100   3.475   5.851  0.1192  0.3754  0.6799
 2033SOL    HW112114   5.124   3.536   5.775 -3.2697  1.0107 -0.0649
 2033SOL    HW212115   5.032   3.408   5.819 -0.2977 -0.2817  2.8090
 2034SOL     OW12116   3.359   4.626   1.180 -0.2193  0.4823 -0.6087
 2034SOL    HW112117   3.311   4.713   1.195  0.8805  0.8505  1.0394
 2034SOL    HW212118   3.316   4.554   1.234  0.5761  0.6556  0.2922
 2035SOL     OW12119   2.047   2.524   5.916  0.3435 -0.4071 -0.6553
 2035SOL    HW112120   2.122   2.457   5.921 -0.6926 -1.5400  0.6020
 2035SOL    HW212121   2.048   2.581   5.998 -2.1050 -2.6867  1.1324
 2036SOL     OW12122   3.969   2.437   0.850  0.0766  0.3147 -0.3474
 2036SOL    HW112123   3.931   2.353   0.889 -2.1753  0.9267 -1.0803
 2036SOL    HW212124   4.046   2.468   0.907  1.4435 -2.5505 -0.4472
 2037SOL     OW12125   3.176   0.922   5.076  0.2162 -0.1736  0.2789
 2037SOL    HW112126   3.260   0.909   5.024  0.2079  0.0194  0.2167
 2037SOL    HW212127   3.180   1.008   5.126  0.2902 -0.4347  0.7262
 2038SOL     OW12128   0.501   5.197   0.897  0.1853  0.4991  0.0520
 2038SOL    HW112129   0.417   5.143   0.895  1.6248 -1.8590 -1.0165
 2038SOL    HW212130   0.578   5.140   0.925  1.5716  2.4217  0.4144
 2039SOL     OW12131   2.792   3.812   6.063 -0.1877  0.2152 -0.5562
 2039SOL    HW112132   2.819   3.740   5.999 -1.3725 -0.7898  0.0091
 2039SOL    HW212133   2.716   3.864   6.024 -1.4754 -0.9347  0.3055
 2040SOL     OW12134   6.102   4.306   0.595 -0.2142 -0.2319 -0.1275
 2040SOL    HW112135   6.099   4.377   0.525 -0.7016 -0.5994 -0.4879
 2040SOL    HW212136   6.111   4.348   0.685 -1.7136  0.3542 -0.2280
 2041SOL     OW12137   5.904   3.917   5.629  0.0236  0.1233  0.2642
 2041SOL    HW112138   5.874   3.992   5.689  1.3455 -0.5701  1.8579
 2041SOL    HW212139   5.892   3.945   5.533 -2.3229  1.1950  0.7836
 2042SOL     OW12140   2.782   5.189   4.570  0.2201  0.4507 -0.1700
 2042SOL    HW112141   2.796   5.172   4.667  2.7487 -0.9239 -0.6987
 2042SOL    HW212142   2.743   5.108   4.527 -1.1847  1.1594 -0.2935
 2043SOL     OW12143   0.412   6.183   0.076 -0.1397 -0.2757 -0.4285
 2043SOL    HW112144   0.382   6.088   0.078  1.6173 -0.8476  1.2453
 2043SOL    HW212145   0.507   6.188   0.047 -0.6153  1.1398 -1.9109
 2044SOL     OW12146   4.555   4.766   6.195  0.2291  0.5927  0.3601
 2044SOL    HW112147   4.484   4.835   6.188  0.4912  0.8894  0.5925
 2044SOL    HW212148   4.539   4.709   6.276  0.7858  1.2710  0.9570
 2045SOL     OW12149   4.546   3.133   5.176 -0.1918 -0.5285  0.0196
 2045SOL    HW112150   4.515   3.180   5.093  1.5644 -0.1426 -0.4851
 2045SOL    HW212151   4.476   3.070   5.207 -1.4826  0.3761 -0.9246
 2046SOL     OW12152   1.993   5.890   5.375 -0.6896  0.2478  0.1952
 2046SOL    HW112153   1.903   5.930   5.391 -0.9494  0.0140 -0.6331
 2046SOL    HW212154   1.990   5.831   5.294 -0.2177 -1.1372  1.1378
 2047SOL     OW12155   6.344   1.718   0.432  0.1933  0.1619  0.3026
 2047SOL    HW112156   6.391   1.657   0.368 -0.0459 -0.6216  0.8597
 2047SOL    HW212157   6.365   1.813   0.408  0.5955 -0.1280 -0.5611
 2048SOL     OW12158   3.034   1.371   5.337 -0.3424  0.0204 -0.2378
 2048SOL    HW112159   3.095   1.449   5.348 -0.9962  0.6970 -1.2954
 2048SOL    HW212160   2.979   1.359   5.420  0.3005  0.1972  0.2172
 2049SOL     OW12161   3.995   4.816   0.715 -0.1821 -0.0560  0.0709
 2049SOL    HW112162   4.014   4.888   0.648  2.1235 -1.5499 -1.0130
 2049SOL    HW212163   3.904   4.829   0.753  0.0670  3.3077 -0.1880
 2050SOL     OW12164   5.813   4.222   6.587 -0.3705 -0.3502 -0.3494
 2050SOL    HW112165   5.778   4.307   6.626 -0.3128 -0.3741 -0.2460
 2050SOL    HW212166   5.856   4.168   6.659  0.1955 -0.1591 -0.5431
 2051SOL     OW12167   5.860   0.529   0.432  0.1225  0.0591 -0.0230
 2051SOL    HW112168   5.906   0.441   0.443 -1.6357 -1.1465 -1.6142
 2051SOL    HW212169   5.908   0.599   0.484  1.0533 -1.9982  2.0500
 2052SOL     OW12170   5.162   4.887   0.619 -0.2006  0.3770  0.3762
 2052SOL    HW112171   5.197   4.854   0.531 -2.5344  1.0133 -0.8908
 2052SOL    HW212172   5.237   4.891   0.685  1.6428 -0.1647 -1.5430
 2053SOL     OW12173   0.442   5.920   0.121 -0.3505  0.2362  0.2657
 2053SOL    HW112174   0.513   5.893   0.186 -0.6526 -0.4327  0.3250
 2053SOL    HW212175   0.360   5.865   0.136 -1.5188  2.1636  1.3529
 2054SOL     OW12176   4.638   3.730   0.979 -0.2216  0.4393  0.1015
 2054SOL    HW112177   4.551   3.748   0.934  0.0003  1.5279  0.0732
 2054SOL    HW212178   4.624   3.670   1.058 -0.5807 -1.7978 -1.5621
 2055SOL     OW12179   1.812   2.650   5.564 -0.3306 -0.6695  0.0678
 2055SOL    HW112180   1.847   2.576   5.506 -1.0044 -1.0743  0.1655
 2055SOL    HW212181   1.840   2.634   5.658  0.4444 -0.2119 -0.0735
 2056SOL     OW12182   3.051   4.962   5.882  0.5646 -0.2810  0.1173
 2056SOL    HW112183   3.085   4.900   5.811  1.6841 -1.3395  1.5322
 2056SOL    HW212184   2.983   5.023   5.842  0.9422 -1.0317 -1.7982
 2057SOL     OW12185   3.263   2.060   0.372  0.1970 -0.0349  0.6051
 2057SOL    HW112186   3.337   2.112   0.415 -0.8412 -0.5438  3.2102
 2057SOL    HW212187   3.248   1.975   0.422 -1.3661 -0.5062 -0.5782
 2058SOL     OW12188   1.349   5.699   6.510 -0.1311  0.0069  1.1795
 2058SOL    HW112189   1.351   5.716   6.608  2.7026 -0.0926  1.2425
 2058SOL    HW212190   1.382   5.607   6.491  0.8713  0.5432  0.1160
 2059SOL     OW12191   5.706   1.776   6.459  0.1003  0.2713  0.3340
 2059SOL    HW112192   5.794   1.748   6.498  0.5652  1.1883 -0.0272
 2059SOL    HW212193   5.672   1.706   6.397  1.3704  0.5852 -0.7663
 2060SOL     OW12194   2.577   4.139   1.828 -0.1452 -0.1258 -0.0442
 2060SOL    HW112195   2.542   4.047   1.844 -0.4902 -0.1731 -0.9797
 2060SOL    HW212196   2.528   4.204   1.886 -1.4424 -0.2659 -0.9426
 2061SOL     OW12197   6.064   4.397   0.054  0.4431 -0.2947  0.4819
 2061SOL    HW112198   6.113   4.315   0.026 -0.6515 -0.3627 -1.3985
 2061SOL    HW212199   5.968   4.374   0.071  0.0491  0.6204 -0.3718
 2062SOL     OW12200   5.220   1.270   5.345  0.0431  0.4422  0.1172
 2062SOL    HW112201   5.185   1.273   5.251 -2.2988 -0.3588  0.8800
 2062SOL    HW212202   5.198   1.181   5.385  0.8953  0.8218  1.4656
 2063SOL     OW12203   4.279   2.827   0.575  0.3739 -0.1433  0.5214
 2063SOL    HW112204   4.290   2.927   0.580  2.4666 -0.3124  0.0518
 2063SOL    HW212205   4.328   2.784   0.651  3.0351 -0.9485 -1.4921
 2064SOL     OW12206   5.081   6.138   6.148 -0.5412  0.0719  0.1327
 2064SOL    HW112207   5.068   6.219   6.204 -1.7474  2.7268 -3.6173
 2064SOL    HW212208   5.162   6.150   6.089 -0.8901 -1.2940 -0.6810
 2065SOL     OW12209   3.264   3.896   0.991 -0.4305 -0.0533  0.5158
 2065SOL    HW112210   3.243   3.902   1.089 -1.2134 -1.0151  0.4270
 2065SOL    HW212211   3.361   3.919   0.976 -0.1033 -0.6449  1.6111
 2066SOL     OW12212   4.699   0.906   6.541 -0.8389  0.1499  0.0236
 2066SOL    HW112213   4.638   0.963   6.596 -1.6079 -0.5075 -0.1264
 2066SOL    HW212214   4.745   0.839   6.599 -1.8394 -0.7087 -0.1375
 2067SOL     OW12215   5.690   5.967   5.159  0.2786  1.0417  0.2357
 2067SOL    HW112216   5.598   5.987   5.190  0.2997  4.7138 -1.5842
 2067SOL    HW212217   5.687   5.919   5.071  0.0437  1.9188 -0.2458
 2068SOL     OW12218   2.458   1.361   0.653 -0.2473  0.2768  0.1276
 2068SOL    HW112219   2.396   1.313   0.592 -1.0101  0.4871  0.7187
 2068SOL    HW212220   2.476   1.305   0.735  0.5029  0.1350 -0.1236
 2069SOL     OW12221   5.607   2.341   6.260  0.1188 -0.2701  0.3173
 2069SOL    HW112222   5.592   2.245   6.236 -0.3290  0.0316 -0.6667
 2069SOL    HW212223   5.656   2.346   6.347  2.5594 -1.4446 -0.8837
 2070SOL     OW12224   1.399   4.947   1.278 -0.3995  0.1581  0.0599
 2070SOL    HW112225   1.431   4.925   1.370 -2.7893 -2.0143  0.4847
 2070SOL    HW212226   1.357   5.038   1.277  1.0014  0.8284  0.7091
 2071SOL     OW12227   2.054   3.129   6.453  0.0818  0.2769 -0.6895
 2071SOL    HW112228   2.110   3.211   6.466  1.0116 -0.4482  0.0193
 2071SOL    HW212229   1.976   3.132   6.514 -0.1475  0.8580 -1.0080
 2072SOL     OW12230   6.090   5.175   0.172 -0.2096 -0.9100 -0.2661
 2072SOL    HW112231   6.007   5.127   0.143 -1.3618  0.0630  1.2443
 2072SOL    HW212232   6.112   5.151   0.266  0.8871 -0.7060 -0.4600
 2073SOL     OW12233   4.984   5.197   5.567  0.4155  0.1918  0.3174
 2073SOL    HW112234   4.935   5.141   5.500  0.2385  1.4937 -0.6810
 2073SOL    HW212235   4.959   5.168   5.659 -2.2661  0.7879 -0.1417
 2074SOL     OW12236   4.943   2.428   6.568 -0.6363  0.4015 -0.2141
 2074SOL    HW112237   4.943   2.455   6.472 -2.0429  0.3302 -0.2530
 2074SOL    HW212238   4.886   2.490   6.621  0.1961  0.4933  0.6156
 2075SOL     OW12239   2.296   1.088   6.044 -0.0145  0.4468 -0.2111
 2075SOL    HW112240   2.201   1.072   6.069 -0.1746  1.1820 -0.3185
 2075SOL    HW212241   2.309   1.067   5.947  0.0526 -0.1440 -0.0734
 2076SOL     OW12242   0.178   1.125   0.421  0.4854 -0.3883  0.0964
 2076SOL    HW112243   0.087   1.134   0.381  0.0301  0.7193  1.2903
 2076SOL    HW212244   0.240   1.086   0.354 -1.0631 -2.0375 -0.4578
 2077SOL     OW12245   2.957   2.064   4.952  0.3021  0.3964  0.1593
 2077SOL    HW112246   2.975   2.163   4.958 -0.2599  0.4541  1.2136
 2077SOL    HW212247   2.981   2.031   4.861 -1.1718  1.8400 -0.8038
 2078SOL     OW12248   6.391   5.767   0.298  0.8688 -0.0592  0.3625
 2078SOL    HW112249   6.458   5.740   0.367  1.3547  0.9420  0.2974
 2078SOL    HW212250   6.299   5.754   0.334  1.0906 -0.9707  0.6354
 2079SOL     OW12251   6.052   5.175   1.190 -0.2281  0.1889  0.5689
 2079SOL    HW112252   5.972   5.186   1.132  0.5024  1.1788 -0.2846
 2079SOL    HW212253   6.110   5.102   1.154  0.5977  1.2930 -0.4368
 2080SOL     OW12254   4.312   6.036   0.590 -0.1796 -0.5196 -0.1418
 2080SOL    HW112255   4.300   6.096   0.511 -0.1754 -0.1170  0.1595
 2080SOL    HW212256   4.372   6.080   0.657  0.8679 -1.3986 -0.4731
 2081SOL     OW12257   3.419   5.433   6.154  0.2145  0.0107 -0.4236
 2081SOL    HW112258   3.476   5.448   6.234 -1.0553 -0.8182  0.6857
 2081SOL    HW212259   3.442   5.344   6.112  2.5197  1.4546 -2.4718
 2082SOL     OW12260   4.247   5.281   5.839  0.7760 -0.1485  0.3142
 2082SOL    HW112261   4.287   5.358   5.889 -2.0727  0.3818  2.0378
 2082SOL    HW212262   4.234   5.307   5.744  0.7295  1.1976  0.6618
 2083SOL     OW12263   3.703   0.120   0.143  0.7872  0.1313 -0.1990
 2083SOL    HW112264   3.623   0.178   0.157  0.4658 -0.5645  0.9900
 2083SOL    HW212265   3.772   0.140   0.213  2.0160  1.2660 -1.6611
 2084SOL     OW12266   6.063   2.039   0.521  0.2631  0.2853 -0.1413
 2084SOL    HW112267   6.052   1.946   0.485 -1.3355 -0.5239  2.2130
 2084SOL    HW212268   6.012   2.103   0.463 -0.9590 -0.7278 -0.2427
 2085SOL     OW12269   5.339   3.425   5.319 -0.5292  0.7358  0.0357
 2085SOL    HW112270   5.431   3.386   5.323 -1.7880 -2.5661 -0.3184
 2085SOL    HW212271   5.307   3.428   5.225 -1.3318  0.4135  0.2829
 2086SOL     OW12272   3.411   1.437   1.196 -0.1261  0.2817 -0.0435
 2086SOL    HW112273   3.375   1.346   1.217 -1.3234  0.7017 -0.1632
 2086SOL    HW212274   3.433   1.485   1.281 -1.1432  0.4970  0.1213
 2087SOL     OW12275   4.348   4.499   4.922 -0.2573  0.0234  0.0946
 2087SOL    HW112276   4.442   4.466   4.912 -0.0648  0.3725  0.6790
 2087SOL    HW212277   4.322   4.551   4.842  0.3451  0.6299  0.2856
 2088SOL     OW12278   1.941   0.681   2.060  0.0291  0.1736  0.7390
 2088SOL    HW112279   1.861   0.677   2.120 -0.6255 -0.8289 -0.1669
 2088SOL    HW212280   1.999   0.602   2.078  0.1180  0.1693  0.4289
 2089SOL     OW12281   4.750   4.435   6.215  0.1447  0.1446  0.1705
 2089SOL    HW112282   4.833   4.487   6.194  1.5511 -2.4342 -1.2026
 2089SOL    HW212283   4.718   4.457   6.307  0.9783  2.8910 -0.1268
 2090SOL     OW12284   3.841   1.721   5.912  0.2987  0.4228  0.5389
 2090SOL    HW112285   3.864   1.806   5.959 -0.5123  0.3608  1.0733
 2090SOL    HW212286   3.823   1.650   5.980 -1.3416  0.4418  0.1614
 2091SOL     OW12287   1.267   6.330   1.614 -0.0943  0.2588 -0.1442
 2091SOL    HW112288   1.243   6.413   1.665 -2.3758  0.9362 -2.1014
 2091SOL    HW212289   1.366   6.326   1.601  0.1622  2.1719  0.8302
 2092SOL     OW12290   0.656   3.548   6.088  0.1589  0.1550 -0.1854
 2092SOL    HW112291   0.577   3.607   6.068  0.5491  1.2420  1.3220
 2092SOL    HW212292   0.625   3.453   6.095 -0.9500  0.5092 -0.0525
 2093SOL     OW12293   2.377   4.432   5.200 -0.0584 -0.3623  0.4880
 2093SOL    HW112294   2.315   4.411   5.125 -1.4906  0.6592  1.3277
 2093SOL    HW212295   2.451   4.491   5.167 -0.5906 -0.0458 -0.1596
 2094SOL     OW12296   1.244   0.637   0.341 -0.2434 -0.4036  0.0882
 2094SOL    HW112297   1.246   0.537   0.344  0.4272 -0.3825  0.4165
 2094SOL    HW212298   1.164   0.670   0.391 -0.7533 -0.7814 -0.4426
 2095SOL     OW12299   1.183   4.818   0.170 -0.3731  0.1180  0.3902
 2095SOL    HW112300   1.104   4.775   0.127  0.8228 -1.7428 -0.0621
 2095SOL    HW212301   1.197   4.779   0.261 -0.3668  0.9372  0.7499
 2096SOL     OW12302   4.051   1.043   5.926 -0.0988  0.6993  0.4412
 2096SOL    HW112303   4.105   0.975   5.876 -0.7825  0.7643 -0.4128
 2096SOL    HW212304   3.985   1.085   5.864 -0.7996  0.9711  1.3458
 2097SOL     OW12305   5.203   3.510   6.328  0.1270 -0.3179 -0.7540
 2097SOL    HW112306   5.122   3.476   6.375 -0.9261  2.1359 -0.6301
 2097SOL    HW212307   5.229   3.445   6.257 -1.3358 -1.6570 -0.1409
 2098SOL     OW12308   2.595   5.349   6.437  0.1415  0.1390  0.3417
 2098SOL    HW112309   2.630   5.437   6.404 -0.2712  0.4698  0.7650
 2098SOL    HW212310   2.583   5.287   6.360 -1.7330  1.2233 -0.2883
 2099SOL     OW12311   0.538   1.732   5.948  0.1548  0.3248  0.0723
 2099SOL    HW112312   0.505   1.707   6.040  0.6193  0.4336  0.2695
 2099SOL    HW212313   0.591   1.657   5.910 -0.0807  0.2611 -0.1276
 2100SOL     OW12314   2.503   2.265   5.196  0.8716 -0.5211  0.0458
 2100SOL    HW112315   2.523   2.326   5.120  0.3299 -1.2273 -0.6861
 2100SOL    HW212316   2.404   2.255   5.206  0.9439 -1.5946 -0.1271
 2101SOL     OW12317   2.510   5.926   5.135  0.2477  0.2193 -0.2954
 2101SOL    HW112318   2.549   5.887   5.052  1.6370 -0.4834  0.6349
 2101SOL    HW212319   2.570   5.998   5.170  0.3282 -0.3173  0.7303
 2102SOL     OW12320   1.985   2.295   0.641 -0.5359 -0.3335 -0.0492
 2102SOL    HW112321   1.999   2.286   0.740  0.2439  1.9518  0.1036
 2102SOL    HW212322   1.888   2.283   0.620 -0.5832 -1.7889  0.8339
 2103SOL     OW12323   5.660   1.355   0.800  0.0201  0.3978  0.2382
 2103SOL    HW112324   5.615   1.341   0.888  0.3602 -2.4018  0.0723
 2103SOL    HW212325   5.621   1.291   0.733  1.9134  0.2467 -0.7827
 2104SOL     OW12326   3.403   6.313   0.511  0.0967 -0.1897 -0.1432
 2104SOL    HW112327   3.357   6.238   0.464 -0.1929 -0.6527  0.8571
 2104SOL    HW212328   3.393   6.397   0.457  0.5272 -0.8773 -1.3312
 2105SOL     OW12329   2.208   5.704   0.798  0.9160  0.3686  0.3609
 2105SOL    HW112330   2.265   5.628   0.828  0.5471  0.6371  1.7832
 2105SOL    HW212331   2.158   5.742   0.875 -2.0243 -0.4902 -0.9608
 2106SOL     OW12332   2.013   0.805   6.094  0.5587  0.3501  0.3724
 2106SOL    HW112333   1.996   0.708   6.075  1.1623  0.1325  0.9148
 2106SOL    HW212334   1.926   0.851   6.113  0.4980 -0.8188  3.4165
 2107SOL     OW12335   0.965   2.312   0.946 -0.6171  0.4235 -0.4557
 2107SOL    HW112336   0.970   2.297   1.045  0.5572 -0.3911 -0.6160
 2107SOL    HW212337   0.898   2.383   0.927 -0.0757  1.3800  1.0099
 2108SOL     OW12338   0.546   3.552   6.459 -0.0712 -0.0372 -0.3177
 2108SOL    HW112339   0.478   3.539   6.387  1.6065  0.9488 -2.1785
 2108SOL    HW212340   0.637   3.555   6.419  0.8319  2.0542  1.6673
 2109SOL     OW12341   6.286   2.124   6.483  0.0540 -0.4582 -0.9754
 2109SOL    HW112342   6.354   2.197   6.491 -1.5100  1.1754 -1.9529
 2109SOL    HW212343   6.217   2.150   6.415 -0.4118 -2.9864 -1.5578
 2110SOL     OW12344   0.969   5.599   0.505  0.5718  0.4372 -0.2555
 2110SOL    HW112345   0.929   5.613   0.415  0.9417  0.8716 -0.3549
 2110SOL    HW212346   0.952   5.505   0.535 -1.5616  0.9112  0.2238
 2111SOL     OW12347   2.071   4.784   4.711  0.2075 -0.3312 -1.1553
 2111SOL    HW112348   2.167   4.755   4.702  0.8318  1.7181 -1.8075
 2111SOL    HW212349   2.021   4.759   4.628  1.0620  1.4725 -2.2771
 2112SOL     OW12350   3.460   5.698   5.288  0.7163  0.0882  0.5882
 2112SOL    HW112351   3.427   5.675   5.380  1.0562  0.0595  0.7057
 2112SOL    HW212352   3.401   5.655   5.220  0.0496  0.6868  0.7838
 2113SOL     OW12353   3.366   2.207   5.803  0.1319 -0.0060  0.1626
 2113SOL    HW112354   3.377   2.206   5.704 -0.0694 -2.3297  0.0965
 2113SOL    HW212355   3.456   2.204   5.847  0.2003 -0.2033  0.0112
 2114SOL     OW12356   2.421   1.009   5.562  0.1078 -0.2039  0.1560
 2114SOL    HW112357   2.348   1.032   5.627  0.3334  0.8268  0.0678
 2114SOL    HW212358   2.495   0.962   5.609  0.6957  1.3704  0.8746
 2115SOL     OW12359   1.426   4.394   0.112  0.7675 -0.6364 -0.6248
 2115SOL    HW112360   1.436   4.446   0.197 -0.0556 -0.7189 -0.4725
 2115SOL    HW212361   1.406   4.299   0.133 -1.7060 -0.2223 -0.8807
 2116SOL     OW12362   4.580   2.194   1.551  0.9210 -0.2586 -0.0612
 2116SOL    HW112363   4.615   2.146   1.632  1.2076  1.3843  0.8363
 2116SOL    HW212364   4.587   2.134   1.472  1.7011 -1.5240  0.9136
 2117SOL     OW12365   1.415   5.075   5.647  0.1221 -0.8918 -0.0651
 2117SOL    HW112366   1.413   5.090   5.548  1.5745 -0.3320 -0.0436
 2117SOL    HW212367   1.495   5.122   5.686 -0.3573 -1.2007  1.3593
 2118SOL     OW12368   2.311   2.846   6.185 -0.1396  0.0124  0.0748
 2118SOL    HW112369   2.294   2.855   6.087 -0.9385 -1.4469  0.0504
 2118SOL    HW212370   2.408   2.827   6.200 -0.1160 -0.3120 -0.4728
 2119SOL     OW12371   3.015   3.626   0.934 -0.0732 -0.4645 -0.1785
 2119SOL    HW112372   3.011   3.726   0.925 -0.1847 -0.5335 -0.9340
 2119SOL    HW212373   3.074   3.589   0.863 -0.8697 -1.0298 -0.5500
 2120SOL     OW12374   5.216   0.205   6.036  0.0795 -0.2773 -0.5132
 2120SOL    HW112375   5.208   0.209   6.136 -0.4674  0.2701 -0.5736
 2120SOL    HW212376   5.233   0.297   6.001  1.4399 -0.6290 -0.8388
 2121SOL     OW12377   0.932   1.618   5.457  0.1892 -0.5189 -0.3889
 2121SOL    HW112378   0.899   1.705   5.419 -0.7700 -0.5272  0.3596
 2121SOL    HW212379   0.891   1.542   5.407  1.0366 -0.5481 -1.0501
 2122SOL     OW12380   2.751   2.324   6.033  0.6564 -0.0590  0.0421
 2122SOL    HW112381   2.847   2.314   6.006  0.6170  0.0140 -0.1315
 2122SOL    HW212382   2.697   2.347   5.952  0.6402  0.8316  0.2906
 2123SOL     OW12383   6.348   4.507   5.450 -0.2052 -0.2504  0.0622
 2123SOL    HW112384   6.399   4.425   5.424 -0.4241 -0.3407 -0.0857
 2123SOL    HW212385   6.263   4.512   5.397  1.4676  1.9770 -2.7188
 2124SOL     OW12386   5.140   1.943   6.264 -0.2885 -0.5139 -0.3478
 2124SOL    HW112387   5.152   2.026   6.320 -2.0160 -0.4588  0.0068
 2124SOL    HW212388   5.043   1.919   6.262 -0.0977 -1.2454 -2.3243
 2125SOL     OW12389   4.838   2.296   0.719 -0.3676  0.3902  0.1770
 2125SOL    HW112390   4.784   2.265   0.641 -0.8099  1.8671 -0.1377
 2125SOL    HW212391   4.930   2.321   0.689 -0.2025 -0.0302  0.3229
 2126SOL     OW12392   4.815   3.367   4.698 -0.3225  0.1762  0.4162
 2126SOL    HW112393   4.765   3.345   4.614  0.0169  0.9646 -0.0026
 2126SOL    HW212394   4.802   3.464   4.720  2.2573  0.8422 -0.5941
 2127SOL     OW12395   0.837   0.354   6.061 -0.1670 -0.3484 -0.8534
 2127SOL    HW112396   0.936   0.342   6.051 -0.3237 -2.9375 -0.0238
 2127SOL    HW212397   0.819   0.425   6.129  1.2502 -2.1112  1.5022
 2128SOL     OW12398   1.014   2.223   0.064  0.0997  0.8832 -0.3628
 2128SOL    HW112399   1.044   2.312   0.096 -0.5889  0.7939  0.5479
 2128SOL    HW212400   1.057   2.151   0.119 -0.0656  0.6815 -0.4941
 2129SOL     OW12401   2.209   1.806   1.423  0.0568  0.0178  0.3229
 2129SOL    HW112402   2.159   1.876   1.474 -0.7285 -1.0221  1.0278
 2129SOL    HW212403   2.156   1.721   1.423  0.4212 -0.2559 -1.5494
 2130SOL     OW12404   2.664   4.100   1.164  0.3798  0.4901  0.3804
 2130SOL    HW112405   2.641   4.017   1.216 -0.0708  0.7503  0.5999
 2130SOL    HW212406   2.759   4.123   1.180  1.1413 -1.1806 -1.3254
 2131SOL     OW12407   5.715   5.944   4.836 -0.4253 -0.6566 -0.1773
 2131SOL    HW112408   5.670   5.855   4.843  0.0114 -0.9491 -0.9446
 2131SOL    HW212409   5.655   6.008   4.788 -0.2108 -0.9243 -0.8171
 2132SOL     OW12410   1.878   6.323   0.969  0.2064  0.1737  0.2331
 2132SOL    HW112411   1.857   6.239   1.018  1.2211 -1.3816 -1.8734
 2132SOL    HW212412   1.793   6.369   0.944 -0.3611 -0.2976  1.2249
 2133SOL     OW12413   4.876   3.376   0.836 -0.7426 -0.9628 -0.1612
 2133SOL    HW112414   4.879   3.459   0.892 -1.1700 -0.1912 -1.2573
 2133SOL    HW212415   4.787   3.370   0.790 -1.2848 -2.7937  1.0125
 2134SOL     OW12416   0.267   0.073   0.537 -0.2261 -0.5535 -0.5796
 2134SOL    HW112417   0.301   0.110   0.623  1.9076 -2.9513 -0.2690
 2134SOL    HW212418   0.319   0.112   0.461 -1.8373  1.2514 -0.8495
 2135SOL     OW12419   4.225   4.889   0.350 -0.3154  0.0279 -0.2424
 2135SOL    HW112420   4.180   4.944   0.420 -0.4016 -0.8580  0.4176
 2135SOL    HW212421   4.164   4.878   0.271  0.1002  1.7309 -0.8519
 2136SOL     OW12422   0.835   5.110   6.077  0.4275 -0.5802  0.5189
 2136SOL    HW112423   0.789   5.185   6.125 -0.6855  0.9819 -2.7302
 2136SOL    HW212424   0.767   5.046   6.041  0.8557  0.3423 -2.1167
 2137SOL     OW12425   2.312   0.775   1.565 -0.3923 -0.2481  0.2368
 2137SOL    HW112426   2.330   0.864   1.607 -2.4218 -0.4801  1.7740
 2137SOL    HW212427   2.258   0.787   1.482 -0.4335 -0.0188  0.2963
 2138SOL     OW12428   2.499   5.094   6.339 -0.4902 -0.0300 -0.3466
 2138SOL    HW112429   2.594   5.111   6.311  0.4877 -1.5476  1.7332
 2138SOL    HW212430   2.450   5.048   6.265  0.5453  0.2870 -1.2596
 2139SOL     OW12431   2.134   0.639   1.730  0.2204  0.0979 -0.0030
 2139SOL    HW112432   2.078   0.714   1.765  1.0450  0.7822 -0.1319
 2139SOL    HW212433   2.212   0.675   1.680 -0.0882 -0.8529 -1.2374
 2140SOL     OW12434   2.570   4.894   1.693  0.7441 -0.3156 -0.4378
 2140SOL    HW112435   2.477   4.913   1.726  0.5654 -0.7787 -0.6685
 2140SOL    HW212436   2.627   4.864   1.770  1.1000  1.3653 -0.0170
 2141SOL     OW12437   5.030   5.937   6.406  0.3100 -0.2676  0.0125
 2141SOL    HW112438   5.092   5.860   6.422  1.2823  0.3436 -0.7363
 2141SOL    HW212439   5.043   5.972   6.313 -1.5827 -0.4912 -0.3642
 2142SOL     OW12440   6.416   3.318   5.901  0.0889 -0.0021 -0.8041
 2142SOL    HW112441   6.506   3.296   5.865 -0.5711 -4.3188 -0.3362
 2142SOL    HW212442   6.358   3.352   5.827  0.7866 -1.8306 -2.2620
 2143SOL     OW12443   4.310   3.747   5.180 -0.0296 -0.8044 -0.1165
 2143SOL    HW112444   4.213   3.742   5.160 -0.1254 -0.8767  0.3580
 2143SOL    HW212445   4.356   3.666   5.144 -0.1966 -0.9294 -0.0465
 2144SOL     OW12446   5.683   5.174   5.708  0.1317  0.4572  0.5170
 2144SOL    HW112447   5.719   5.124   5.787 -1.3443 -0.4449  0.6467
 2144SOL    HW212448   5.744   5.161   5.630  1.1788  0.6913  1.2721
 2145SOL     OW12449   4.003   4.865   5.149  0.7021 -0.5526 -0.2477
 2145SOL    HW112450   4.087   4.917   5.160  0.8195 -0.4850 -1.3782
 2145SOL    HW212451   3.968   4.877   5.056 -1.4427  0.7278  0.6685
 2146SOL     OW12452   1.999   6.202   0.714  0.2579 -0.3983  0.2170
 2146SOL    HW112453   1.981   6.104   0.723 -0.7313 -0.2549 -0.1101
 2146SOL    HW212454   1.955   6.251   0.789 -0.8362 -0.0367 -0.6329
 2147SOL     OW12455   1.364   2.201   1.049 -0.6288 -0.5283 -0.1678
 2147SOL    HW112456   1.416   2.187   1.133  0.7042 -0.7762 -1.0014
 2147SOL    HW212457   1.347   2.113   1.005  0.9206 -0.2628 -1.4192
 2148SOL     OW12458   2.936   1.052   5.445 -0.1852 -0.5972 -0.6861
 2148SOL    HW112459   2.941   0.986   5.520 -4.0966 -0.4588 -0.0764
 2148SOL    HW212460   2.960   1.143   5.480  1.5982 -1.0525 -0.6143
 2149SOL     OW12461   4.100   3.303   5.552  0.1900  0.0988  0.1397
 2149SOL    HW112462   4.150   3.379   5.510 -0.6818  1.0094  0.7209
 2149SOL    HW212463   4.087   3.231   5.483  2.1881 -0.1381 -0.0555
 2150SOL     OW12464   3.490   3.992   0.722 -0.4149 -0.2195  0.0002
 2150SOL    HW112465   3.502   4.005   0.821 -1.5855 -0.1273  0.1462
 2150SOL    HW212466   3.572   4.022   0.674 -0.7811  2.1810  0.7622
 2151SOL     OW12467   5.115   3.777   1.711  0.1927  0.6558  0.5195
 2151SOL    HW112468   5.104   3.816   1.803 -1.3271  2.1498 -0.2478
 2151SOL    HW212469   5.131   3.850   1.645 -1.5882 -0.0835 -0.8101
 2152SOL     OW12470   4.981   5.372   0.683  0.6608  0.2955 -0.6042
 2152SOL    HW112471   4.929   5.288   0.696  1.1947  0.2361  1.4954
 2152SOL    HW212472   4.951   5.417   0.599 -2.7578  0.2287  0.4061
 2153SOL     OW12473   4.749   4.782   0.028 -0.3930  0.3463  0.6172
 2153SOL    HW112474   4.688   4.704   0.020 -0.0481  0.1813 -0.6512
 2153SOL    HW212475   4.714   4.857  -0.028 -0.2152  0.7765  1.0742
 2154SOL     OW12476   1.502   1.245   5.198  0.3916 -0.3670  0.0005
 2154SOL    HW112477   1.459   1.312   5.137  1.0266 -0.6694 -0.8062
 2154SOL    HW212478   1.596   1.228   5.167  0.0650 -2.0247 -0.1201
 2155SOL     OW12479   4.271   0.361   1.007  0.5103 -0.5830 -0.4536
 2155SOL    HW112480   4.367   0.332   1.005  0.8479  0.5193 -0.9150
 2155SOL    HW212481   4.266   0.461   1.011 -0.6208 -0.6561  0.6505
 2156SOL     OW12482   1.046   3.532   1.211 -0.0697 -0.1316 -0.0775
 2156SOL    HW112483   1.112   3.481   1.266 -2.0339 -2.2959  0.4166
 2156SOL    HW212484   0.983   3.581   1.271 -1.3161 -1.3159 -0.3635
 2157SOL     OW12485   1.582   3.668   5.221  0.5299 -0.0185 -0.0518
 2157SOL    HW112486   1.609   3.753   5.175 -1.5398  0.6924 -0.0715
 2157SOL    HW212487   1.485   3.651   5.204  0.4541 -1.3939  1.5372
 2158SOL     OW12488   3.709   2.742   5.321 -0.2014  0.2379 -0.1877
 2158SOL    HW112489   3.759   2.829   5.322 -0.2677  0.2758 -0.1672
 2158SOL    HW212490   3.625   2.753   5.268  0.1918 -0.0351 -0.8891
 2159SOL     OW12491   3.188   5.598   0.453 -0.5440  0.1509  0.1591
 2159SOL    HW112492   3.182   5.657   0.373 -0.1690 -0.1627 -0.1043
 2159SOL    HW212493   3.099   5.556   0.471 -0.8966  1.0413  0.5460
 2160SOL     OW12494   5.588   3.440   6.462 -0.0426 -0.5009  0.0345
 2160SOL    HW112495   5.611   3.525   6.415 -1.8939 -0.4702 -0.9275
 2160SOL    HW212496   5.536   3.460   6.545 -1.0451 -0.6755 -0.5327
 2161SOL     OW12497   0.524   1.866   5.683 -0.2525 -0.3809 -0.3021
 2161SOL    HW112498   0.486   1.831   5.769  0.7878 -0.4975  0.1204
 2161SOL    HW212499   0.463   1.935   5.645 -0.4661  0.0552  0.8030
 2162SOL     OW12500   5.707   1.616   0.674  0.2823  0.0299 -0.6237
 2162SOL    HW112501   5.738   1.662   0.757 -1.7409  0.2693  0.0424
 2162SOL    HW212502   5.678   1.523   0.696  0.3482 -0.1340 -1.1993
 2163SOL     OW12503   3.734   0.664   5.840 -0.3027  0.0047  0.0139
 2163SOL    HW112504   3.682   0.606   5.776 -0.5819 -0.3081  0.5200
 2163SOL    HW212505   3.699   0.650   5.933  0.2056  0.3433  0.2556
 2164SOL     OW12506   1.422   4.080   6.476 -0.2800 -0.1002  0.3357
 2164SOL    HW112507   1.330   4.052   6.503 -0.2707 -1.6248 -1.0720
 2164SOL    HW212508   1.488   4.040   6.539 -0.5359  0.6411  1.0928
 2165SOL     OW12509   0.764   6.178   0.455  0.2042  0.0287  0.1281
 2165SOL    HW112510   0.860   6.152   0.442  0.6756  0.8547  1.6184
 2165SOL    HW212511   0.712   6.098   0.484 -0.1701 -1.0353 -3.1629
 2166SOL     OW12512   4.836   6.036   5.887  0.2498  0.0586 -0.1266
 2166SOL    HW112513   4.742   6.070   5.878 -0.6203 -1.8133  1.1674
 2166SOL    HW212514   4.842   5.977   5.968  2.4680 -0.1613 -0.3982
 2167SOL     OW12515   2.296   1.839   0.363  0.3043 -0.2557 -0.0651
 2167SOL    HW112516   2.387   1.798   0.369 -0.3752 -1.6512  3.3847
 2167SOL    HW212517   2.227   1.767   0.362 -0.8077  0.7716 -0.1694
 2168SOL     OW12518   4.766   4.168   1.572 -0.4648 -0.1195 -0.2566
 2168SOL    HW112519   4.823   4.208   1.644 -0.3802 -1.7772  0.6350
 2168SOL    HW212520   4.676   4.213   1.572 -0.4787 -0.1142  0.9185
 2169SOL     OW12521   4.045   0.901   5.570 -0.4921  0.2429 -0.7338
 2169SOL    HW112522   4.124   0.962   5.555 -0.4290  0.5601  0.7088
 2169SOL    HW212523   3.963   0.944   5.532 -0.0988  0.2463 -1.6044
 2170SOL     OW12524   3.071   0.125   0.463  0.4592  0.1208  0.1495
 2170SOL    HW112525   2.995   0.089   0.519  0.8856  0.0799  0.7138
 2170SOL    HW212526   3.156   0.118   0.515  0.8331  0.2704 -0.4409
 2171SOL     OW12527   5.150   4.015   6.512  0.4660  0.0400  0.3160
 2171SOL    HW112528   5.113   3.946   6.450 -1.9893  1.2750  0.2558
 2171SOL    HW212529   5.201   3.971   6.585 -2.3683 -2.0617  1.2120
 2172SOL     OW12530   3.687   3.572   2.056 -0.6322 -0.3613  0.5989
 2172SOL    HW112531   3.725   3.659   2.085 -0.0935  0.2137 -1.6381
 2172SOL    HW212532   3.739   3.497   2.097  0.0135  0.3794  1.1632
 2173SOL     OW12533   5.855   4.522   0.359 -0.2171  0.1660 -0.2567
 2173SOL    HW112534   5.829   4.609   0.399 -1.2492  0.2497 -1.0767
 2173SOL    HW212535   5.955   4.515   0.356 -0.1235  1.3500 -0.2603
 2174SOL     OW12536   0.398   3.380   6.048  0.3301  0.2072 -0.1959
 2174SOL    HW112537   0.385   3.355   6.144  0.4793  2.5611  0.5015
 2174SOL    HW212538   0.339   3.458   6.026  3.2377  2.4011 -0.7935
 2175SOL     OW12539   3.397   3.269   5.169  0.1357 -0.6295 -0.3403
 2175SOL    HW112540   3.341   3.188   5.185  0.3907 -0.9449 -1.0068
 2175SOL    HW212541   3.397   3.291   5.071 -0.1285  0.3229 -0.1323
 2176SOL     OW12542   4.234   3.951   6.371  0.0749  0.4904  0.4392
 2176SOL    HW112543   4.234   4.049   6.352 -1.1623  0.7307  1.5838
 2176SOL    HW212544   4.266   3.935   6.464 -1.0311 -0.0738  0.7348
 2177SOL     OW12545   3.253   4.432   1.366 -0.0722 -0.0813 -0.1842
 2177SOL    HW112546   3.163   4.401   1.398  0.0798  0.4254  0.7607
 2177SOL    HW212547   3.324   4.389   1.421  0.1260  2.5254  1.7758
 2178SOL     OW12548   1.844   2.096   6.164 -0.0468 -0.0840  0.0183
 2178SOL    HW112549   1.943   2.085   6.159  0.3179  2.3429  0.7934
 2178SOL    HW212550   1.817   2.118   6.258 -1.0905  1.0240 -0.5136
 2179SOL     OW12551   3.715   5.778   1.216 -0.2616  0.3109 -0.6179
 2179SOL    HW112552   3.735   5.873   1.241 -0.9667  0.2211  0.3093
 2179SOL    HW212553   3.712   5.770   1.116  0.2159  1.1737 -0.7091
 2180SOL     OW12554   4.400   2.097   5.563  0.1162 -0.1759  0.0271
 2180SOL    HW112555   4.471   2.139   5.620  0.1587  1.6773 -1.3059
 2180SOL    HW212556   4.423   2.001   5.547  0.5864 -0.5159  2.2876
 2181SOL     OW12557   2.620   4.750   5.594  0.7657 -0.4888  0.6878
 2181SOL    HW112558   2.579   4.693   5.523 -1.8313  1.1927  0.7118
 2181SOL    HW212559   2.581   4.726   5.683  1.0820  0.0234  0.9719
 2182SOL     OW12560   4.949   0.496   6.395  0.1851  0.4508 -0.2340
 2182SOL    HW112561   5.031   0.486   6.451  0.5943 -0.2263 -0.9368
 2182SOL    HW212562   4.975   0.523   6.303 -0.3113 -0.6376 -0.7038
 2183SOL     OW12563   2.594   4.137   0.662  0.4896 -0.7138 -0.0535
 2183SOL    HW112564   2.539   4.118   0.743 -0.6634 -0.8427 -0.8240
 2183SOL    HW212565   2.659   4.210   0.681  1.6715 -2.1126  1.5622
 2184SOL     OW12566   2.015   0.451   5.067 -0.1667  0.1486 -0.0364
 2184SOL    HW112567   1.942   0.518   5.061 -0.3921  0.1661  2.1378
 2184SOL    HW212568   1.976   0.359   5.058 -0.1715  0.2179 -0.7745
 2185SOL     OW12569   0.666   0.799   0.981  0.4049  0.6599 -0.1361
 2185SOL    HW112570   0.586   0.857   0.998 -0.6315 -1.0864  1.3681
 2185SOL    HW212571   0.722   0.796   1.064 -0.6010 -1.9368  0.5349
 2186SOL     OW12572   1.772   3.981   1.142  0.0779  0.1910 -0.5542
 2186SOL    HW112573   1.864   4.019   1.157  0.2360 -0.3636 -0.1041
 2186SOL    HW212574   1.720   3.984   1.227 -0.1252 -0.0330 -0.6698
 2187SOL     OW12575   6.129   1.009   0.097 -0.1521 -1.0035 -0.4521
 2187SOL    HW112576   6.168   0.926   0.138  0.5803 -1.5655 -2.1949
 2187SOL    HW212577   6.040   1.028   0.138 -0.6305 -3.0405 -0.4577
 2188SOL     OW12578   3.449   2.083   4.968  0.2455  0.2528 -0.1734
 2188SOL    HW112579   3.420   2.020   5.039 -1.0250  0.6234 -0.3373
 2188SOL    HW212580   3.452   2.035   4.880 -0.7975  0.4144 -0.3120
 2189SOL     OW12581   1.388   1.713   0.909  0.3989  0.2623 -1.1178
 2189SOL    HW112582   1.488   1.721   0.913  0.3285  1.0590 -0.6303
 2189SOL    HW212583   1.358   1.640   0.970  0.6122  0.8345 -0.3001
 2190SOL     OW12584   2.160   6.047   4.844 -0.4597  0.2736 -0.9119
 2190SOL    HW112585   2.189   5.966   4.895 -2.6025  0.0120 -0.0063
 2190SOL    HW212586   2.060   6.053   4.845 -0.3652  3.4796 -0.0767
 2191SOL     OW12587   6.389   3.674   1.484 -0.2177 -0.4798 -0.5579
 2191SOL    HW112588   6.310   3.617   1.506 -0.4273 -0.4117 -1.1112
 2191SOL    HW212589   6.443   3.630   1.412  1.2887 -1.4427  1.0715
 2192SOL     OW12590   5.021   1.660   0.479 -0.4120  0.0929 -0.7561
 2192SOL    HW112591   4.968   1.667   0.563  0.2631 -0.4419 -0.2701
 2192SOL    HW212592   4.991   1.729   0.414  0.8974  2.4118  0.9493
 2193SOL     OW12593   3.545   1.296   5.048  1.0868 -0.0035  0.6966
 2193SOL    HW112594   3.551   1.218   5.110  3.4655  0.2044  0.8446
 2193SOL    HW212595   3.459   1.293   4.997  0.5444 -1.9684  1.6519
 2194SOL     OW12596   5.058   2.441   6.130 -0.0124 -0.4242 -0.8330
 2194SOL    HW112597   4.995   2.472   6.059 -0.2179  1.3489  0.0649
 2194SOL    HW212598   5.152   2.440   6.095  0.5426  4.4664 -0.1859
 2195SOL     OW12599   2.335   2.242   0.308  0.4423  0.3205  0.4326
 2195SOL    HW112600   2.350   2.340   0.324  0.5569  0.1836  1.1933
 2195SOL    HW212601   2.258   2.210   0.364  2.0442 -0.5806  2.2034
 2196SOL     OW12602   3.415   0.754   0.228 -0.1798  0.4365 -0.0708
 2196SOL    HW112603   3.329   0.783   0.185 -0.7858 -1.0900  0.0618
 2196SOL    HW212604   3.461   0.834   0.266 -1.8455  1.2182  0.4086
 2197SOL     OW12605   6.033   5.120   1.764  0.4948  0.2828  0.3171
 2197SOL    HW112606   6.052   5.027   1.796  2.0004  0.5252  0.1945
 2197SOL    HW212607   6.005   5.117   1.669 -1.0807 -0.1767  0.7719
 2198SOL     OW12608   5.717   0.228   5.907 -0.0369  0.7802  0.3086
 2198SOL    HW112609   5.709   0.155   5.838  0.8945  0.9451  0.0070
 2198SOL    HW212610   5.797   0.210   5.965 -0.4468  0.9838  0.9446
 2199SOL     OW12611   4.755   1.755   0.074  0.4473 -0.4725  0.2385
 2199SOL    HW112612   4.843   1.796   0.050 -0.1473  0.1382 -0.9323
 2199SOL    HW212613   4.713   1.715  -0.007  0.0943 -1.6618  0.9825
 2200SOL     OW12614   0.832   4.046   0.116 -0.1789 -0.1693 -0.0411
 2200SOL    HW112615   0.893   3.967   0.117  0.9416  0.6739  0.4842
 2200SOL    HW212616   0.867   4.116   0.178 -0.7778  1.0149 -1.0004
 2201SOL     OW12617   1.435   3.845   0.539  0.0283  0.1634  0.1823
 2201SOL    HW112618   1.433   3.761   0.593  1.6320  1.2268  2.0305
 2201SOL    HW212619   1.493   3.831   0.458 -0.5186 -0.7823 -0.0537
 2202SOL     OW12620   3.843   2.584   6.360 -0.3483 -0.0997  0.4967
 2202SOL    HW112621   3.883   2.558   6.272 -2.4626 -0.2644 -0.4891
 2202SOL    HW212622   3.743   2.584   6.352 -0.6057 -0.2712  2.9634
 2203SOL     OW12623   4.264   2.266   5.893 -0.6701  0.4943 -0.1839
 2203SOL    HW112624   4.342   2.219   5.853 -1.6994 -1.0782 -0.4151
 2203SOL    HW212625   4.287   2.363   5.908  1.5666 -0.0969  0.5220
 2204SOL     OW12626   3.483   3.310   0.461 -0.2274  0.0002  0.5828
 2204SOL    HW112627   3.411   3.281   0.398  1.5276  1.0950 -2.1145
 2204SOL    HW212628   3.442   3.338   0.548 -2.6755 -2.5265  0.3678
 2205SOL     OW12629   1.301   3.744   0.907  0.4316  0.0693 -0.2209
 2205SOL    HW112630   1.351   3.777   0.987 -1.2081  2.4720 -0.0965
 2205SOL    HW212631   1.221   3.693   0.937  0.0402  0.6180 -0.3211
 2206SOL     OW12632   6.072   5.886   0.835  0.0433 -0.0639  0.5550
 2206SOL    HW112633   6.160   5.919   0.869  0.8230  1.5744 -2.6522
 2206SOL    HW212634   6.076   5.787   0.822  0.8001 -0.2368  1.9241
 2207SOL     OW12635   1.631   1.008   5.539 -0.2070  0.3168  0.0690
 2207SOL    HW112636   1.555   1.072   5.525  0.2475  0.6566 -0.9631
 2207SOL    HW212637   1.715   1.059   5.554  0.5806  0.0981 -2.9150
 2208SOL     OW12638   1.503   3.417   0.380  0.0993 -1.0075 -0.3522
 2208SOL    HW112639   1.587   3.465   0.357 -0.9621 -0.1234 -2.7338
 2208SOL    HW212640   1.472   3.446   0.471  1.8540 -0.6928  0.1844
 2209SOL     OW12641   2.286   3.126   5.508 -0.3509  0.1339 -0.3523
 2209SOL    HW112642   2.262   3.199   5.444 -0.1399  0.2065 -0.3520
 2209SOL    HW212643   2.352   3.161   5.575 -1.0664  0.2399  0.3092
 2210SOL     OW12644   4.186   5.124   1.552 -0.4680 -0.1714  0.3509
 2210SOL    HW112645   4.207   5.139   1.455 -0.2426 -1.3959  0.1874
 2210SOL    HW212646   4.095   5.159   1.572  0.2657  1.9707  0.2138
 2211SOL     OW12647   0.169   2.126   0.185  0.1579  0.3891 -0.0389
 2211SOL    HW112648   0.191   2.187   0.261  0.4225 -1.0149  1.0585
 2211SOL    HW212649   0.239   2.134   0.114  0.9626  0.3260  0.7289
 2212SOL     OW12650   2.172   3.298   1.010  0.1122  0.3156 -0.0697
 2212SOL    HW112651   2.216   3.384   0.983 -0.7279 -0.0513 -2.9654
 2212SOL    HW212652   2.242   3.228   1.025  0.7071  0.9872  0.3579
 2213SOL     OW12653   4.214   0.475   5.776 -0.3289  0.7869  0.3768
 2213SOL    HW112654   4.284   0.419   5.730 -1.5368 -1.3324  0.9901
 2213SOL    HW212655   4.241   0.571   5.771  1.5613  0.2605 -1.2443
 2214SOL     OW12656   5.447   0.852   6.013 -0.1594  0.2954  0.0324
 2214SOL    HW112657   5.376   0.874   5.947  0.1461  2.5605  0.3972
 2214SOL    HW212658   5.535   0.887   5.981  0.9026 -2.5396 -0.4659
 2215SOL     OW12659   3.304   1.874   6.092 -0.0130 -0.2480  0.4911
 2215SOL    HW112660   3.291   1.776   6.106 -1.2285 -0.4425 -1.6195
 2215SOL    HW212661   3.320   1.893   5.995  5.8063  1.1412  1.3258
 2216SOL     OW12662   3.378   0.749   0.708  0.0493 -0.3599 -0.1616
 2216SOL    HW112663   3.428   0.817   0.654 -1.0106 -0.3001 -1.1224
 2216SOL    HW212664   3.439   0.708   0.776  0.7441  1.4429  0.3556
 2217SOL     OW12665   4.485   4.800   0.360 -0.2614  0.3319  0.1485
 2217SOL    HW112666   4.397   4.845   0.350 -0.5117 -0.3879 -1.2122
 2217SOL    HW212667   4.558   4.864   0.338 -0.5892  0.2449 -1.2873
 2218SOL     OW12668   2.684   2.702   0.955  0.2842  0.6542 -0.0028
 2218SOL    HW112669   2.640   2.748   1.032 -0.0144 -0.3154  0.4270
 2218SOL    HW212670   2.778   2.679   0.979 -0.1625 -0.6990  0.5406
 2219SOL     OW12671   0.043   6.092   0.343  0.1236 -0.0381  0.0875
 2219SOL    HW112672   0.053   6.094   0.244  1.0558 -1.4515  0.1244
 2219SOL    HW212673  -0.031   6.030   0.368 -0.9472  1.2652  0.2584
 2220SOL     OW12674   3.804   1.077   5.545  0.3137  0.6572 -0.2673
 2220SOL    HW112675   3.772   1.039   5.632  0.2086 -0.0834 -0.6193
 2220SOL    HW212676   3.795   1.176   5.547  0.6418  0.6834  0.6995
 2221SOL     OW12677   5.468   4.619   6.169 -0.8552  0.2338  0.1495
 2221SOL    HW112678   5.420   4.569   6.096  1.5557 -2.1449  0.0269
 2221SOL    HW212679   5.420   4.607   6.255  0.0229 -3.2253  0.3029
 2222SOL     OW12680   2.680   4.597   1.038 -0.0170 -0.3010 -0.3736
 2222SOL    HW112681   2.627   4.524   1.081  0.8677  0.1907  1.6345
 2222SOL    HW212682   2.754   4.557   0.984 -1.0391 -0.9177 -1.3743
 2223SOL     OW12683   5.897   4.947   0.337  0.2964 -0.0770  0.5927
 2223SOL    HW112684   5.850   4.864   0.366 -2.1149  0.3750 -1.6892
 2223SOL    HW212685   5.953   4.927   0.256 -0.9236  0.6156 -0.4578
 2224SOL     OW12686   0.047   6.357   0.413 -0.1776  0.4075 -0.1510
 2224SOL    HW112687   0.134   6.395   0.446 -1.2264  0.6964  2.6174
 2224SOL    HW212688   0.056   6.259   0.399  0.2476  0.1504  1.6716
 2225SOL     OW12689   0.263   1.664   0.680 -0.0532 -0.1997 -0.4453
 2225SOL    HW112690   0.274   1.640   0.584 -0.3355 -0.9263 -0.2999
 2225SOL    HW212691   0.351   1.656   0.727  0.0180 -0.1524 -0.5707
 2226SOL     OW12692   4.685   2.196   5.648  0.3809 -0.0832 -0.1120
 2226SOL    HW112693   4.760   2.140   5.613  0.8943 -0.0289  0.8926
 2226SOL    HW212694   4.652   2.157   5.734 -0.8978 -0.2354 -0.6345
 2227SOL     OW12695   5.053   3.380   4.846 -0.3371 -0.3565  0.2078
 2227SOL    HW112696   5.089   3.471   4.823  0.4750 -0.4431  1.0535
 2227SOL    HW212697   4.979   3.357   4.784 -1.1535  1.2721  0.5266
 2228SOL     OW12698   2.602   1.018   6.254  0.6012 -0.4650  0.2878
 2228SOL    HW112699   2.695   1.035   6.287 -0.0599 -0.4756  2.2596
 2228SOL    HW212700   2.551   1.104   6.252  0.4885 -0.5385 -0.3305
 2229SOL     OW12701   1.785   1.279   0.821 -0.2493 -0.0846 -0.5686
 2229SOL    HW112702   1.845   1.202   0.845  3.6243  2.9745  0.5068
 2229SOL    HW212703   1.778   1.286   0.721  1.9283 -0.1010 -0.7639
 2230SOL     OW12704   1.759   6.009   5.364  0.1117 -0.5265 -0.3415
 2230SOL    HW112705   1.720   6.000   5.272 -0.0474 -1.5778 -0.1879
 2230SOL    HW212706   1.773   6.105   5.385 -1.6735 -0.1417 -0.7103
 2231SOL     OW12707   3.055   1.093   0.500 -0.0201  0.1256 -0.3122
 2231SOL    HW112708   3.032   1.102   0.597  0.1965  1.1872 -0.3499
 2231SOL    HW212709   3.136   1.036   0.491 -0.0332  0.0306  0.1369
 2232SOL     OW12710   5.422   6.260   1.036 -0.5032 -0.1275 -0.2279
 2232SOL    HW112711   5.480   6.325   1.085  1.2918 -1.3537 -0.6288
 2232SOL    HW212712   5.370   6.204   1.102  0.9161 -0.9003  0.2687
 2233SOL     OW12713   5.846   3.085   1.285 -0.2058 -0.3487  0.0014
 2233SOL    HW112714   5.787   3.160   1.254 -0.4621 -0.2343  0.7571
 2233SOL    HW212715   5.792   3.020   1.338  0.2604 -0.4763  0.3234
 2234SOL     OW12716   1.479   4.416   0.388  0.0935  0.0322 -0.2793
 2234SOL    HW112717   1.488   4.325   0.430 -0.8791 -0.2426 -0.6374
 2234SOL    HW212718   1.561   4.470   0.409 -0.3469 -0.0678  2.0051
 2235SOL     OW12719   1.169   6.316   6.138 -0.0667 -0.3511 -0.5468
 2235SOL    HW112720   1.091   6.314   6.200 -2.9130  2.9620 -3.6436
 2235SOL    HW212721   1.139   6.295   6.045  3.1441 -0.6064 -1.6690
 2236SOL     OW12722   0.534   5.259   0.017  0.3098  0.1999 -0.0803
 2236SOL    HW112723   0.606   5.199   0.054  1.4503  1.9598  0.6706
 2236SOL    HW212724   0.576   5.334  -0.033 -1.1458 -0.5253 -2.5596
 2237SOL     OW12725   3.725   2.641   5.592 -0.1890 -0.2141  0.2900
 2237SOL    HW112726   3.630   2.610   5.598 -0.1025 -1.2198 -2.4579
 2237SOL    HW212727   3.742   2.679   5.501  2.2136 -0.5975  0.5290
 2238SOL     OW12728   2.206   5.859   5.579  0.3495  0.4975  0.1738
 2238SOL    HW112729   2.147   5.884   5.502  1.0059  0.3857 -0.3742
 2238SOL    HW212730   2.178   5.769   5.614 -1.5541  1.6121  1.6984
 2239SOL     OW12731   5.498   2.159   0.266 -0.3105  0.3149  0.0298
 2239SOL    HW112732   5.404   2.155   0.232 -0.2944  1.0251 -0.1153
 2239SOL    HW212733   5.498   2.150   0.365 -0.3715 -1.5986 -0.1018
 2240SOL     OW12734   5.806   6.354   6.130 -0.2654  0.4222  0.2174
 2240SOL    HW112735   5.854   6.426   6.080  0.6115 -0.9942 -1.0966
 2240SOL    HW212736   5.710   6.380   6.141 -0.2032  1.3592 -1.1119
 2241SOL     OW12737   1.165   3.980   0.825  0.2512  0.4230  0.1214
 2241SOL    HW112738   1.207   3.891   0.839 -0.7137 -0.2854 -1.1581
 2241SOL    HW212739   1.214   4.050   0.877  0.4160 -0.9989  1.9656
 2242SOL     OW12740   0.222   0.783   0.757  0.5718  0.0283  0.0342
 2242SOL    HW112741   0.201   0.864   0.811 -2.2183 -1.7953  1.9692
 2242SOL    HW212742   0.285   0.724   0.808  1.2249  0.1702 -0.5932
 2243SOL     OW12743   0.460   2.529   1.347 -1.1171  0.3284  0.1885
 2243SOL    HW112744   0.421   2.437   1.354  0.1810 -0.2938 -0.3543
 2243SOL    HW212745   0.401   2.594   1.394 -0.7654 -1.1831  2.9518
 2244SOL     OW12746   1.156   3.020   0.269 -1.0295  0.7346  0.1354
 2244SOL    HW112747   1.176   3.095   0.205  0.1457  0.7185  0.4476
 2244SOL    HW212748   1.138   3.058   0.359  2.3063  0.6488  0.9962
 2245SOL     OW12749   2.114   4.049   1.009 -0.2239  0.0214  0.2662
 2245SOL    HW112750   2.095   4.046   1.107 -3.6971  1.2494 -0.2072
 2245SOL    HW212751   2.184   3.982   0.986  1.7861  0.7146  3.7312
 2246SOL     OW12752   1.613   3.905   6.295  0.0402 -0.4433  0.0609
 2246SOL    HW112753   1.525   3.951   6.303  0.7545  1.2946 -1.4767
 2246SOL    HW212754   1.608   3.834   6.225 -0.6725 -1.8263  1.4534
 2247SOL     OW12755   0.661   3.267   1.383  0.0815  0.6532 -0.5659
 2247SOL    HW112756   0.670   3.168   1.384  1.0375  0.6569 -2.8594
 2247SOL    HW212757   0.633   3.299   1.474 -2.3114 -1.8601 -0.2685
 2248SOL     OW12758   5.692   2.880   1.348 -0.0217 -0.3893  0.3654
 2248SOL    HW112759   5.610   2.926   1.312  2.2075  2.3837 -1.6353
 2248SOL    HW212760   5.728   2.818   1.279  0.0498 -0.9517  0.9049
 2249SOL     OW12761   2.221   0.230   6.011 -0.6902  0.8598 -0.2379
 2249SOL    HW112762   2.182   0.166   5.945  0.1397  0.9428 -0.8258
 2249SOL    HW212763   2.187   0.322   5.993 -0.5836  0.8563 -0.4537
 2250SOL     OW12764   0.012   4.963   5.610  0.2525  0.0921  0.5856
 2250SOL    HW112765  -0.046   5.030   5.564 -2.8720 -1.1001  2.4117
 2250SOL    HW212766   0.046   5.001   5.696 -0.8695 -0.3443  1.2425
 2251SOL     OW12767   0.046   6.438   6.105  0.4848 -0.0283  0.4475
 2251SOL    HW112768   0.027   6.457   6.202 -0.5893  0.3508  0.1791
 2251SOL    HW212769  -0.011   6.361   6.076 -0.3116  0.8038 -0.2559
 2252SOL     OW12770   2.562   2.260   0.809 -0.3091 -0.0361 -0.4827
 2252SOL    HW112771   2.463   2.269   0.794 -0.5928 -2.8229 -0.8194
 2252SOL    HW212772   2.594   2.174   0.768  2.7163  1.8259 -2.4391
 2253SOL     OW12773   4.234   0.190   1.665 -0.1717  0.0059  0.7756
 2253SOL    HW112774   4.143   0.149   1.672  0.7153 -2.1417  0.3753
 2253SOL    HW212775   4.225   0.282   1.627 -2.1537 -0.2657  0.4445
 2254SOL     OW12776   5.710   4.451   0.629 -0.4481 -0.1895  0.7413
 2254SOL    HW112777   5.683   4.544   0.656 -1.3070 -0.0893 -0.3760
 2254SOL    HW212778   5.633   4.406   0.584  0.2205 -1.1498  0.5329
 2255SOL     OW12779   0.782   5.563   5.624  0.1647  0.3143 -0.2953
 2255SOL    HW112780   0.813   5.578   5.530 -1.5272  1.8125 -0.6768
 2255SOL    HW212781   0.791   5.466   5.648 -0.5005 -0.3141 -2.4276
 2256SOL     OW12782   0.549   0.283   0.638  0.3052 -0.2588  0.3368
 2256SOL    HW112783   0.558   0.370   0.688 -1.3640  1.5672 -2.2779
 2256SOL    HW212784   0.639   0.255   0.604  1.0014 -0.0546  1.9047
 2257SOL     OW12785   2.146   5.038   4.809 -0.0874 -0.4846  0.5764
 2257SOL    HW112786   2.119   5.125   4.768 -1.3423 -0.0102  2.3366
 2257SOL    HW212787   2.109   4.963   4.754 -1.1131  0.1156  0.4189
 2258SOL     OW12788   1.692   2.797   1.620 -0.6813  0.5121 -0.1455
 2258SOL    HW112789   1.776   2.746   1.638  1.2342  4.0908  1.9845
 2258SOL    HW212790   1.621   2.766   1.682 -0.1431 -0.6824 -0.0928
 2259SOL     OW12791   0.119   1.862   6.114 -0.2378 -0.2854 -0.3514
 2259SOL    HW112792   0.134   1.798   6.039 -2.1668  0.0482 -1.0921
 2259SOL    HW212793   0.157   1.951   6.091 -1.9120  0.1681 -1.5513
 2260SOL     OW12794   1.073   4.946   1.252  0.3596  0.4740  0.1977
 2260SOL    HW112795   1.030   4.940   1.342  1.2639 -0.5120  0.5925
 2260SOL    HW212796   1.162   4.991   1.261  1.4157 -1.5115  0.1961
 2261SOL     OW12797   1.229   2.590   0.878  0.0268  0.7412 -0.0915
 2261SOL    HW112798   1.320   2.625   0.853  0.5971  1.1339  2.2867
 2261SOL    HW212799   1.224   2.493   0.857  2.5436 -0.2904  3.2994
 2262SOL     OW12800   3.193   5.607   6.265 -0.3093 -0.7895  0.1255
 2262SOL    HW112801   3.222   5.573   6.176  1.5411 -0.4586  0.5760
 2262SOL    HW212802   3.163   5.702   6.257  2.0325  0.0170  0.1859
 2263SOL     OW12803   4.856   0.365   0.626  0.1384 -0.6499  0.6140
 2263SOL    HW112804   4.768   0.348   0.582  0.2768  1.9793 -0.8972
 2263SOL    HW212805   4.840   0.411   0.714 -0.0800  1.6509 -0.5446
 2264SOL     OW12806   2.130   0.164   0.667 -0.3107 -0.0511 -0.7021
 2264SOL    HW112807   2.059   0.128   0.727  0.0397 -1.5328 -1.1275
 2264SOL    HW212808   2.169   0.246   0.707 -2.5129  1.0578 -0.6414
 2265SOL     OW12809   4.820   6.026   5.610 -0.4726  0.0223 -0.0830
 2265SOL    HW112810   4.745   6.087   5.584 -0.5434  1.0015  2.1767
 2265SOL    HW212811   4.833   6.030   5.709  0.1370 -2.9647  0.0611
 2266SOL     OW12812   4.111   0.573   5.464 -0.0607  0.4637  0.0084
 2266SOL    HW112813   4.145   0.636   5.394 -0.4238  1.8471  1.0182
 2266SOL    HW212814   4.031   0.615   5.509 -1.6180 -1.6231 -0.6637
 2267SOL     OW12815   4.767   0.358   6.072  0.0297 -0.6565 -0.1722
 2267SOL    HW112816   4.858   0.396   6.084  0.3213 -1.8494  1.8318
 2267SOL    HW212817   4.699   0.418   6.114  0.0052 -0.3594 -0.6233
 2268SOL     OW12818   1.464   4.197   1.259  0.6176 -0.7145 -0.2817
 2268SOL    HW112819   1.528   4.123   1.283  0.0172 -1.3110 -0.4787
 2268SOL    HW212820   1.384   4.191   1.319 -0.4913 -1.6607 -1.8039
 2269SOL     OW12821   5.263   1.833   5.087 -0.5540  0.0636  0.4014
 2269SOL    HW112822   5.352   1.870   5.059 -0.9853  0.2610 -0.7917
 2269SOL    HW212823   5.193   1.904   5.075 -1.1546 -0.6525 -0.4430
 2270SOL     OW12824   3.942   2.030   5.202 -0.0884 -0.2199 -0.2294
 2270SOL    HW112825   3.930   2.025   5.103 -0.4215  1.3273 -0.2973
 2270SOL    HW212826   4.030   2.073   5.222 -0.4431  0.3464  0.1278
 2271SOL     OW12827   5.772   4.446   0.124 -0.0481  0.4311  0.4313
 2271SOL    HW112828   5.716   4.518   0.081 -1.3472 -0.5323  0.4416
 2271SOL    HW212829   5.797   4.476   0.216 -1.3424  0.5304  0.7760
 2272SOL     OW12830   5.911   1.126   0.204 -0.1941  0.1810  0.0561
 2272SOL    HW112831   5.824   1.092   0.168  0.4774 -0.3689 -1.0959
 2272SOL    HW212832   5.902   1.223   0.227 -0.8973  0.3282 -0.7868
 2273SOL     OW12833   3.316   0.985   5.703 -0.4557 -0.4976 -0.1796
 2273SOL    HW112834   3.358   0.912   5.649 -0.3387  0.6814 -1.7589
 2273SOL    HW212835   3.218   0.967   5.713 -0.5528 -0.5677 -1.1286
 2274SOL     OW12836   6.354   0.167   6.548 -0.0536  0.1018 -0.0930
 2274SOL    HW112837   6.257   0.153   6.530 -0.7737  1.8324  2.0213
 2274SOL    HW212838   6.380   0.119   6.632  0.4600  1.0616  0.3161
 2275SOL     OW12839   1.692   1.501   5.155  0.0901  0.1698 -0.2998
 2275SOL    HW112840   1.752   1.429   5.121  0.3012  1.4116 -2.7754
 2275SOL    HW212841   1.602   1.492   5.114 -1.0351 -0.7213  2.1540
 2276SOL     OW12842   6.315   2.608   0.245  0.4865 -0.5211 -0.5512
 2276SOL    HW112843   6.220   2.606   0.277  0.1910  0.4599 -1.2928
 2276SOL    HW212844   6.376   2.593   0.322 -0.2436  0.2603  0.2132
 2277SOL     OW12845   4.217   0.339   4.571  0.3592  0.3241 -0.0293
 2277SOL    HW112846   4.124   0.306   4.552  1.3803 -2.8790 -0.1077
 2277SOL    HW212847   4.237   0.415   4.510 -1.0707 -1.1404 -2.5434
 2278SOL     OW12848   5.339   4.524   6.397 -0.1434  0.6726 -0.5250
 2278SOL    HW112849   5.242   4.501   6.391 -0.0142 -0.4621  1.0545
 2278SOL    HW212850   5.350   4.609   6.448 -0.2535 -0.5578  1.6983
 2279SOL     OW12851   0.032   4.064   5.776 -0.0566  0.1390 -0.8557
 2279SOL    HW112852  -0.038   4.128   5.742  0.9060  1.8175  0.1952
 2279SOL    HW212853   0.121   4.109   5.778  0.5678 -1.0490  0.4672
 2280SOL     OW12854   0.883   6.022   6.415 -0.4308 -0.8942 -0.7223
 2280SOL    HW112855   0.969   6.001   6.368 -0.2625  0.0736 -0.8657
 2280SOL    HW212856   0.825   6.077   6.355  0.1116  1.0370  0.4514
 2281SOL     OW12857   5.664   0.476   0.704  0.1530 -0.0981 -0.2043
 2281SOL    HW112858   5.728   0.401   0.690 -1.5124 -1.4265 -0.9915
 2281SOL    HW212859   5.662   0.535   0.623  0.7752  0.2821  0.0490
 2282SOL     OW12860   2.715   6.332   1.019  0.0117  0.2264 -0.6354
 2282SOL    HW112861   2.651   6.275   0.968 -1.4527 -0.4834  1.7963
 2282SOL    HW212862   2.741   6.285   1.103  2.0834  1.4333 -0.5315
 2283SOL     OW12863   2.428   4.651   5.360  0.1340  0.4099  0.0144
 2283SOL    HW112864   2.446   4.692   5.270  0.3753 -1.4451 -0.8323
 2283SOL    HW212865   2.374   4.568   5.348 -0.9849  0.8288  1.7332
 2284SOL     OW12866   0.328   5.709   5.955  0.3215 -0.2050 -0.2722
 2284SOL    HW112867   0.256   5.722   5.886  0.4033  3.7243  0.1088
 2284SOL    HW212868   0.297   5.645   6.024 -1.5749 -0.8881 -1.6771
 2285SOL     OW12869   5.617   1.648   1.113 -0.3408  0.3056  0.4810
 2285SOL    HW112870   5.569   1.584   1.174 -1.0303  1.3790  1.1126
 2285SOL    HW212871   5.568   1.736   1.113  0.3650  0.7121 -0.6612
 2286SOL     OW12872   1.024   0.631   5.068 -0.2607  0.6177  0.5534
 2286SOL    HW112873   1.069   0.545   5.044 -0.2230  0.3695  1.4976
 2286SOL    HW212874   1.002   0.681   4.984  0.4215  0.0532  0.0289
 2287SOL     OW12875   4.770   6.102   6.190 -0.2958  0.1748 -0.0734
 2287SOL    HW112876   4.714   6.180   6.217 -0.3195 -0.0842  0.6415
 2287SOL    HW212877   4.854   6.134   6.147 -1.0473  0.5682 -1.2910
 2288SOL     OW12878   4.564   4.131   4.766 -0.4953  0.2318  0.1350
 2288SOL    HW112879   4.493   4.077   4.720  0.6240 -2.1150  1.0047
 2288SOL    HW212880   4.546   4.133   4.864 -0.2742  1.1106  0.1638
 2289SOL     OW12881   3.350   2.498   6.001  0.2071 -0.3194  0.0460
 2289SOL    HW112882   3.350   2.432   6.076  0.5075  1.0073  1.2799
 2289SOL    HW212883   3.336   2.451   5.914  0.9767 -2.0487  0.8044
 2290SOL     OW12884   2.367   4.927   6.027 -0.3580 -0.3610  0.2009
 2290SOL    HW112885   2.304   5.002   6.009 -2.0699 -1.9418 -0.7441
 2290SOL    HW212886   2.346   4.886   6.116 -0.9993 -1.1692 -0.3076
 2291SOL     OW12887   5.219   4.956   1.371 -0.0118 -0.1693  0.0936
 2291SOL    HW112888   5.231   5.021   1.446  0.6996 -0.4648  0.2416
 2291SOL    HW212889   5.129   4.912   1.379  0.3719 -0.7989  1.2518
 2292SOL     OW12890   3.984   4.436   1.023  0.0653  0.0780 -0.0132
 2292SOL    HW112891   3.959   4.340   1.036 -0.6695  0.1231 -0.9545
 2292SOL    HW212892   4.048   4.444   0.947 -2.3133  0.5875 -2.0931
 2293SOL     OW12893   3.322   4.801   1.842  0.2627 -0.1526 -1.0852
 2293SOL    HW112894   3.294   4.740   1.768 -1.3879 -0.9134  0.1178
 2293SOL    HW212895   3.422   4.800   1.849  0.3981 -0.8610 -2.6172
 2294SOL     OW12896   1.869   1.230   0.554 -0.2636 -0.2610  0.1343
 2294SOL    HW112897   1.893   1.134   0.540  1.4540  0.3909 -2.0917
 2294SOL    HW212898   1.824   1.266   0.472 -0.6371  0.8933  0.8181
 2295SOL     OW12899   3.718   4.161   0.614  0.7948  0.3672  0.5086
 2295SOL    HW112900   3.673   4.154   0.525  0.3273  0.0774  0.7624
 2295SOL    HW212901   3.674   4.232   0.669  0.4983 -0.0638  0.8374
 2296SOL     OW12902   3.217   4.073   1.463 -0.3337  0.0129  0.0481
 2296SOL    HW112903   3.177   4.058   1.553 -0.0679 -1.3504 -0.0361
 2296SOL    HW212904   3.294   4.137   1.471 -2.1058  2.2289  0.2851
 2297SOL     OW12905   0.933   4.751   0.043 -0.5179  0.0696 -0.2217
 2297SOL    HW112906   0.866   4.694   0.091 -0.0114 -0.7437 -0.4456
 2297SOL    HW212907   0.935   4.726  -0.054  1.1031 -0.9543  0.0326
 2298SOL     OW12908   3.779   6.340   5.241 -0.1390  0.0916 -0.4973
 2298SOL    HW112909   3.749   6.435   5.248 -2.0835 -0.5963  1.3477
 2298SOL    HW212910   3.807   6.307   5.332 -2.7008 -2.0344 -0.3711
 2299SOL     OW12911   0.766   0.888   6.372 -0.0422  0.1932 -0.2908
 2299SOL    HW112912   0.757   0.975   6.421  0.6965 -0.3186  0.8169
 2299SOL    HW212913   0.859   0.880   6.336 -0.4934  0.4253 -1.5382
 2300SOL     OW12914   3.875   1.179   5.208  0.0412  0.6887 -0.1065
 2300SOL    HW112915   3.782   1.144   5.200 -0.3527  1.7976 -0.6432
 2300SOL    HW212916   3.938   1.104   5.226 -0.6073 -0.4393 -2.2538
 2301SOL     OW12917   3.299   1.399   0.279 -0.3867 -0.4043 -0.0904
 2301SOL    HW112918   3.365   1.344   0.228 -1.2876 -2.2866  0.6797
 2301SOL    HW212919   3.337   1.490   0.296  0.7356 -0.3946 -2.3067
 2302SOL     OW12920   0.247   3.256   5.377 -0.1048  0.3029 -0.2361
 2302SOL    HW112921   0.163   3.244   5.430  0.4106  0.7291  0.6933
 2302SOL    HW212922   0.224   3.255   5.279 -1.3530  1.5988  0.0084
 2303SOL     OW12923   1.549   5.463   6.480 -0.5326 -0.3414  0.5077
 2303SOL    HW112924   1.552   5.400   6.557  0.2094 -0.9312  0.0218
 2303SOL    HW212925   1.590   5.419   6.400  0.0797  0.7856  0.1705
 2304SOL     OW12926   4.939   1.449   6.454  0.4782 -0.6056  0.1499
 2304SOL    HW112927   4.928   1.547   6.436  2.9962 -0.5731 -1.7919
 2304SOL    HW212928   4.991   1.436   6.538 -1.4929 -0.4102  1.4723
 2305SOL     OW12929   3.507   0.257   6.512 -0.1225  0.0576  0.2705
 2305SOL    HW112930   3.425   0.306   6.481  0.6272  0.1893 -1.6553
 2305SOL    HW212931   3.585   0.319   6.513 -0.1469  0.1126  2.8058
 2306SOL     OW12932   1.380   6.168   0.744 -0.1596  0.9764 -0.1834
 2306SOL    HW112933   1.346   6.146   0.836  1.0348  0.4434  0.1608
 2306SOL    HW212934   1.474   6.202   0.751  0.2452  0.1504 -1.2678
 2307SOL     OW12935   1.545   5.244   6.030  0.4552  0.1851  0.3577
 2307SOL    HW112936   1.641   5.219   6.047  1.9194  3.5783 -1.7631
 2307SOL    HW212937   1.494   5.162   6.003  3.2266 -1.4938 -0.2777
 2308SOL     OW12938   3.964   5.639   0.103 -0.5553 -0.0480 -0.0008
 2308SOL    HW112939   3.942   5.547   0.069  0.3459 -0.1265 -0.4015
 2308SOL    HW212940   3.975   5.636   0.203  1.6245 -0.8619 -0.2169
 2309SOL     OW12941   3.983   6.016   0.895 -0.3328 -0.1751  0.4200
 2309SOL    HW112942   3.999   6.106   0.935 -0.5427  0.9149 -1.8261
 2309SOL    HW212943   3.886   6.007   0.872 -0.3320 -1.0328  0.7003
 2310SOL     OW12944   3.323   5.629   5.517  0.5065 -0.4131 -0.1156
 2310SOL    HW112945   3.308   5.707   5.577  1.2313 -0.2634 -0.1170
 2310SOL    HW212946   3.243   5.569   5.519 -0.2258  0.5355 -0.4339
 2311SOL     OW12947   3.614   2.918   1.256  0.1010 -0.3054 -0.5793
 2311SOL    HW112948   3.618   3.018   1.257 -0.4343 -0.2589 -1.8238
 2311SOL    HW212949   3.695   2.881   1.302 -0.5384  0.6902  1.4823
 2312SOL     OW12950   4.365   0.901   5.096 -0.0834  0.4032 -0.2322
 2312SOL    HW112951   4.284   0.956   5.077 -0.4164 -0.3767 -1.1440
 2312SOL    HW212952   4.421   0.893   5.013 -0.5389 -1.4198 -0.4069
 2313SOL     OW12953   1.864   0.199   0.764 -0.2277  0.0070  0.3292
 2313SOL    HW112954   1.814   0.129   0.815 -2.2277  0.2821 -1.1755
 2313SOL    HW212955   1.929   0.245   0.826 -1.0227 -1.1209  2.0651
 2314SOL     OW12956   2.209   2.045   4.974 -0.4641  0.1983  0.2733
 2314SOL    HW112957   2.124   2.009   5.013 -1.8333  0.1243 -2.5293
 2314SOL    HW212958   2.198   2.142   4.952  0.0735  0.1222 -0.3786
 2315SOL     OW12959   6.137   0.452   1.222  0.0598  0.1752 -0.9029
 2315SOL    HW112960   6.051   0.444   1.273  0.0817 -1.2882 -1.0490
 2315SOL    HW212961   6.120   0.436   1.125  0.4339  0.3212 -0.9946
 2316SOL     OW12962   4.946   1.930   5.712 -0.0005 -0.1169  0.0180
 2316SOL    HW112963   4.887   1.853   5.737  0.2830 -0.1494  0.6016
 2316SOL    HW212964   5.040   1.910   5.738 -0.0005  0.6294  0.6366
 2317SOL     OW12965   5.020   2.632   5.788 -0.6993  0.0312  0.6079
 2317SOL    HW112966   4.967   2.560   5.832  0.0335 -0.4581  0.7116
 2317SOL    HW212967   5.088   2.667   5.851 -1.3352  1.1339  0.6991
 2318SOL     OW12968   0.446   6.332   6.222 -0.2535 -0.1126 -0.0772
 2318SOL    HW112969   0.392   6.280   6.156  0.3207  0.3338 -0.9193
 2318SOL    HW212970   0.429   6.430   6.209  1.7069  0.1380 -1.2841
 2319SOL     OW12971   4.498   1.032   0.049 -0.1831  0.0572  0.0139
 2319SOL    HW112972   4.408   0.999   0.080 -0.3317  0.7132  0.2910
 2319SOL    HW212973   4.496   1.131   0.038  0.2387 -0.0319 -0.9157
 2320SOL     OW12974   3.683   6.054   6.195 -0.3261  0.3128 -0.0937
 2320SOL    HW112975   3.589   6.047   6.228 -1.0336  0.1454 -2.0499
 2320SOL    HW212976   3.745   6.020   6.266 -1.6005  1.5431  1.7098
 2321SOL     OW12977   1.168   2.782   6.430 -0.2330 -0.3039  0.0309
 2321SOL    HW112978   1.149   2.849   6.358 -0.7346  1.1037  1.4439
 2321SOL    HW212979   1.092   2.717   6.436 -0.6639  0.1949 -0.0084
 2322SOL     OW12980   1.090   5.066   6.004 -0.2312 -0.8417  0.1500
 2322SOL    HW112981   0.991   5.079   6.010 -0.2286 -0.7739  0.0402
 2322SOL    HW212982   1.111   4.968   6.008 -0.2730 -0.8316  0.6236
 2323SOL     OW12983   2.531   6.029   4.339  0.1771 -0.5073 -0.3774
 2323SOL    HW112984   2.438   6.063   4.321  0.2446 -0.0113  0.1772
 2323SOL    HW212985   2.597   6.102   4.321  0.3783 -0.5455  0.2024
 2324SOL     OW12986   3.508   5.898   1.657 -0.1073  0.3155  0.0833
 2324SOL    HW112987   3.408   5.893   1.657 -0.0943 -0.0059  0.4777
 2324SOL    HW212988   3.538   5.964   1.726 -0.0203 -0.3366  0.6787
 2325SOL     OW12989   2.969   3.411   5.604 -0.3144  0.6331 -0.1418
 2325SOL    HW112990   2.998   3.468   5.527 -0.8889  2.0917  0.6802
 2325SOL    HW212991   2.885   3.364   5.580  1.5615 -2.1597 -1.8520
 2326SOL     OW12992   3.261   2.011   0.084  0.2541  0.4440  0.3969
 2326SOL    HW112993   3.262   2.025   0.183  1.9749 -0.3847  0.5282
 2326SOL    HW212994   3.288   2.096   0.038 -0.1194  0.7016  0.6432
 2327SOL     OW12995   1.765   4.216   0.976 -0.1930  0.1235  0.2671
 2327SOL    HW112996   1.769   4.261   1.065 -0.3436  0.4161  0.1292
 2327SOL    HW212997   1.715   4.130   0.983 -1.5002  0.8571  0.1738
 2328SOL     OW12998   0.369   3.733   1.467  0.6786  0.1162  0.3719
 2328SOL    HW112999   0.385   3.684   1.553 -1.3422  1.1371  1.4174
 2328SOL    HW213000   0.337   3.826   1.488 -0.1529  0.2909 -1.4736
 2329SOL     OW13001   3.447   2.622   0.293 -0.4454 -0.3162 -0.4274
 2329SOL    HW113002   3.465   2.615   0.195 -0.1257 -0.2635 -0.3744
 2329SOL    HW213003   3.463   2.716   0.323  0.5257 -0.5612 -0.1221
 2330SOL     OW13004   0.625   5.507   0.490  0.1359 -0.1541 -0.1200
 2330SOL    HW113005   0.680   5.430   0.455 -0.6894 -0.8247  0.0235
 2330SOL    HW213006   0.528   5.482   0.488 -0.0398  0.3622  1.2698
 2331SOL     OW13007   1.344   5.026   5.921  0.4384  0.8434 -0.3161
 2331SOL    HW113008   1.249   5.047   5.947  0.3986  0.2100  0.0751
 2331SOL    HW213009   1.352   5.025   5.821 -0.7710 -2.3186 -0.5161
 2332SOL     OW13010   1.584   1.152   6.388 -0.4729 -0.4762  0.0890
 2332SOL    HW113011   1.536   1.162   6.475 -0.0487 -1.1914  0.4119
 2332SOL    HW213012   1.670   1.203   6.391  0.1172 -1.4684  0.5392
 2333SOL     OW13013   2.922   3.081   0.571 -0.2508 -0.8110 -0.0025
 2333SOL    HW113014   2.865   3.125   0.641  0.6055  0.6982 -0.2287
 2333SOL    HW213015   2.918   2.982   0.584 -1.2439 -0.6364  1.2921
 2334SOL     OW13016   1.894   2.916   5.652 -0.2162  0.6832  0.0878
 2334SOL    HW113017   1.822   2.916   5.722  0.2455 -0.2904  0.5844
 2334SOL    HW213018   1.884   2.834   5.595 -1.1821  1.9324 -1.6388
 2335SOL     OW13019   2.319   6.138   1.029 -0.7540 -0.3010 -0.3651
 2335SOL    HW113020   2.381   6.148   1.107 -0.4812 -1.7807 -0.3665
 2335SOL    HW213021   2.235   6.093   1.058 -1.5936  1.1395 -0.4938
 2336SOL     OW13022   2.705   4.917   5.344  0.3601 -0.0200 -0.6341
 2336SOL    HW113023   2.711   4.885   5.249  0.4036 -0.7398 -0.3978
 2336SOL    HW213024   2.625   4.876   5.388  0.8543 -0.4354 -0.0947
 2337SOL     OW13025   1.431   2.914   5.908  0.1278 -0.3460 -0.2512
 2337SOL    HW113026   1.394   2.833   5.953  1.2974  0.2098  1.7895
 2337SOL    HW213027   1.357   2.961   5.859 -0.9628 -1.5388  0.1949
 2338SOL     OW13028   2.116   4.151   6.236 -0.0729 -0.3290  0.8094
 2338SOL    HW113029   2.108   4.246   6.266 -0.7947 -0.6198  1.5773
 2338SOL    HW213030   2.035   4.127   6.182  0.2889 -0.3975  0.2938
 2339SOL     OW13031   4.128   5.512   6.390 -0.4109 -0.1216 -0.0031
 2339SOL    HW113032   4.151   5.571   6.468 -0.5364 -0.5296  0.3441
 2339SOL    HW213033   4.039   5.541   6.352 -0.1554  0.3434 -0.2612
 2340SOL     OW13034   4.459   5.220   0.536  0.0772  0.3179 -0.0928
 2340SOL    HW113035   4.388   5.190   0.600 -0.5533 -3.0724 -2.1581
 2340SOL    HW213036   4.416   5.263   0.457  0.5276  0.5769 -0.1997
 2341SOL     OW13037   0.851   5.298   5.688  0.3691  0.0559  0.3007
 2341SOL    HW113038   0.946   5.293   5.718  0.6635  2.7914  0.0502
 2341SOL    HW213039   0.836   5.235   5.612  1.6435 -1.2795  1.1177
 2342SOL     OW13040   2.704   5.649   5.868  0.1389 -0.1254 -0.1387
 2342SOL    HW113041   2.723   5.747   5.870  1.9462 -0.4535  0.6918
 2342SOL    HW213042   2.674   5.623   5.776  0.2431  1.0892 -0.5299
 2343SOL     OW13043   4.769   2.753   1.034  0.0706  0.2054 -0.3700
 2343SOL    HW113044   4.709   2.675   1.016  0.2975  0.3279 -1.7604
 2343SOL    HW213045   4.780   2.764   1.133 -0.5143 -1.0992 -0.1311
 2344SOL     OW13046   2.418   4.285   0.493 -0.2958 -0.6021  0.1506
 2344SOL    HW113047   2.352   4.352   0.529 -2.5345 -2.3236 -0.5229
 2344SOL    HW213048   2.468   4.244   0.569 -0.3820  0.3455  0.7405
 2345SOL     OW13049   3.351   0.279   1.066 -0.3488  0.0595  0.3879
 2345SOL    HW113050   3.265   0.272   1.015  0.5502  0.3226 -1.2615
 2345SOL    HW213051   3.410   0.203   1.041  0.8320  1.2067 -0.4287
 2346SOL     OW13052   5.131   3.380   0.723 -0.1360  0.3304 -0.4808
 2346SOL    HW113053   5.136   3.387   0.624 -2.7519  1.4946 -0.6092
 2346SOL    HW213054   5.036   3.365   0.751  0.4665  0.4526  1.8774
 2347SOL     OW13055   4.629   3.518   0.725 -0.0325  0.0715 -0.2228
 2347SOL    HW113056   4.632   3.601   0.782 -2.1117  0.6207 -0.8270
 2347SOL    HW213057   4.648   3.543   0.630  0.4598 -0.3488 -0.2355
 2348SOL     OW13058   5.339   5.706   0.340 -0.2025  0.0305  0.8803
 2348SOL    HW113059   5.314   5.790   0.291 -0.4074 -0.3984  0.2248
 2348SOL    HW213060   5.262   5.642   0.337  0.6227 -0.9590 -0.3895
 2349SOL     OW13061   3.035   4.811   6.523 -0.0419 -0.2629  0.3150
 2349SOL    HW113062   3.131   4.794   6.502  0.2168 -2.4909  2.7341
 2349SOL    HW213063   3.028   4.865   6.607 -0.9552  1.5521 -0.8836
 2350SOL     OW13064   0.315   2.009   0.649  0.3487  0.2533 -0.0794
 2350SOL    HW113065   0.237   2.028   0.709  1.8964  0.3114  2.0379
 2350SOL    HW213066   0.332   1.910   0.647  0.0377  0.2120 -0.7914
 2351SOL     OW13067   4.257   1.922   6.379 -0.2016 -0.8023 -0.6209
 2351SOL    HW113068   4.180   1.979   6.351  0.4690  1.1369  1.1919
 2351SOL    HW213069   4.229   1.826   6.381 -2.0724 -0.3174 -1.5125
 2352SOL     OW13070   6.412   3.194   5.514  0.2009 -0.4178 -0.5278
 2352SOL    HW113071   6.365   3.128   5.455 -0.3349 -1.4526  0.9792
 2352SOL    HW213072   6.356   3.211   5.595  0.5141  1.6464 -0.7137
 2353SOL     OW13073   3.795   5.458   5.022  0.0521 -0.2446  0.2117
 2353SOL    HW113074   3.821   5.364   5.000  0.8749  0.4383 -2.0331
 2353SOL    HW213075   3.723   5.488   4.959  1.2365  1.2716 -0.4814
 2354SOL     OW13076   5.608   0.087   6.136 -0.3754 -0.2141  0.6064
 2354SOL    HW113077   5.646   0.160   6.192 -2.3698  0.4504  1.1663
 2354SOL    HW213078   5.542   0.125   6.071  1.2624 -1.0730 -1.6916
 2355SOL     OW13079   0.889   2.343   5.724 -0.1065  0.7160 -0.6282
 2355SOL    HW113080   0.902   2.273   5.794 -0.3986  0.0847 -1.1974
 2355SOL    HW213081   0.979   2.380   5.698  0.2393 -0.6306 -1.4988
 2356SOL     OW13082   5.283   3.094   1.604  0.4734  0.4215  0.0982
 2356SOL    HW113083   5.378   3.080   1.632 -0.1913  0.0144  2.3277
 2356SOL    HW213084   5.228   3.121   1.683 -1.6984 -1.5174 -0.6303
 2357SOL     OW13085   4.162   1.114   6.464  0.1423 -0.2340  0.2350
 2357SOL    HW113086   4.214   1.141   6.383  0.6160 -1.2240  0.1987
 2357SOL    HW213087   4.168   1.187   6.533 -0.2363  0.6016 -0.5906
 2358SOL     OW13088   1.071   3.331   0.664 -0.0157 -0.1823  0.2484
 2358SOL    HW113089   1.103   3.298   0.753 -0.5713 -1.7965 -0.1161
 2358SOL    HW213090   0.980   3.295   0.646 -0.8292  1.9034 -0.0492
 2359SOL     OW13091   6.301   2.797   5.839 -0.0775  0.1452 -0.0163
 2359SOL    HW113092   6.265   2.805   5.746  0.7793 -1.0380 -0.4741
 2359SOL    HW213093   6.401   2.793   5.837  0.0377  1.4996  1.0876
 2360SOL     OW13094   6.008   1.604   0.814  0.4092 -0.2032  0.1450
 2360SOL    HW113095   6.091   1.603   0.758 -1.0319 -0.2131 -2.1254
 2360SOL    HW213096   6.008   1.524   0.875  3.2517  1.2042  2.2236
 2361SOL     OW13097   5.791   5.685   6.152 -0.0948  0.2408  0.3532
 2361SOL    HW113098   5.723   5.621   6.188  0.7077 -0.3156  0.9086
 2361SOL    HW213099   5.784   5.772   6.201 -0.9820  0.4912 -0.1933
 2362SOL     OW13100   2.669   6.071   6.343  0.5707  0.0988  0.0546
 2362SOL    HW113101   2.649   5.992   6.402 -0.5485 -0.5269 -1.1026
 2362SOL    HW213102   2.621   6.059   6.256  0.7371  1.8687 -0.3000
 2363SOL     OW13103   4.731   0.946   0.383 -0.0284 -0.3402  0.1025
 2363SOL    HW113104   4.755   1.012   0.312 -0.2074  2.9765  2.8850
 2363SOL    HW213105   4.764   0.978   0.472 -2.1830 -2.8352  1.9905
 2364SOL     OW13106   4.732   3.889   4.845  0.0242 -0.1466  0.0546
 2364SOL    HW113107   4.755   3.918   4.752  2.2954 -1.4023  0.1584
 2364SOL    HW213108   4.633   3.877   4.852 -0.7102  3.7677 -1.0219
 2365SOL     OW13109   3.426   4.228   6.217 -0.2622  0.0919 -0.0807
 2365SOL    HW113110   3.385   4.299   6.160 -2.1508 -1.3497 -0.5856
 2365SOL    HW213111   3.424   4.258   6.313  0.1041  1.2070 -0.3957
 2366SOL     OW13112   2.371   0.823   6.184  0.5168  0.3779  0.0807
 2366SOL    HW113113   2.311   0.891   6.143  1.5493  0.3541 -1.5947
 2366SOL    HW213114   2.457   0.867   6.212  1.3304 -0.2198 -1.3299
 2367SOL     OW13115   4.411   2.111   0.594 -0.3556  0.2450 -0.7379
 2367SOL    HW113116   4.365   2.023   0.580 -1.1885  0.7565 -1.2526
 2367SOL    HW213117   4.362   2.183   0.546  0.7669  0.8764 -0.9790
 2368SOL     OW13118   1.400   4.542   6.486  0.2986  0.3363  0.0665
 2368SOL    HW113119   1.394   4.487   6.570  2.1611 -0.3360 -0.1940
 2368SOL    HW213120   1.346   4.498   6.414  1.3035 -0.8864  0.0283
 2369SOL     OW13121   1.256   4.499   0.504  0.4167  0.4834  0.0716
 2369SOL    HW113122   1.216   4.417   0.545 -0.1781  0.5754 -0.3100
 2369SOL    HW213123   1.334   4.473   0.448 -0.2167  0.0780 -0.6511
 2370SOL     OW13124   4.123   0.832   0.637  0.1386  0.4171  0.3690
 2370SOL    HW113125   4.184   0.758   0.666  1.3100  0.6612 -1.2917
 2370SOL    HW213126   4.078   0.806   0.551 -2.3224  0.1709  1.6310
 2371SOL     OW13127   5.672   1.498   5.662  0.2495  0.9631 -0.0244
 2371SOL    HW113128   5.700   1.426   5.725 -0.6610  3.0951  3.0228
 2371SOL    HW213129   5.753   1.541   5.622  0.8050 -1.5413 -1.8103
 2372SOL     OW13130   5.803   5.224   6.055  0.1566 -0.1850  0.2273
 2372SOL    HW113131   5.786   5.140   6.004  0.9331 -0.7224  0.8226
 2372SOL    HW213132   5.862   5.204   6.134 -0.4687  0.7357  0.9571
 2373SOL     OW13133   0.360   0.524   0.491  0.0600  0.0092  0.1806
 2373SOL    HW113134   0.288   0.454   0.492  0.5607 -0.5222 -0.0818
 2373SOL    HW213135   0.322   0.610   0.458 -0.0649 -0.7351 -1.7978
 2374SOL     OW13136   3.952   5.054   4.524  0.1703 -0.7020  0.2844
 2374SOL    HW113137   3.962   5.020   4.430  1.2368  1.5008 -0.4782
 2374SOL    HW213138   3.856   5.068   4.544 -0.0487 -0.7335 -0.6671
 2375SOL     OW13139   4.285   2.544   0.079  0.2901  0.0932  0.4234
 2375SOL    HW113140   4.323   2.616   0.022  2.4967  1.1821  3.0252
 2375SOL    HW213141   4.332   2.458   0.060  1.6447  0.6488  1.1517
 2376SOL     OW13142   4.098   3.274   0.253  0.3815 -0.4862 -0.0632
 2376SOL    HW113143   4.008   3.235   0.232 -0.1355  1.6566 -2.2843
 2376SOL    HW213144   4.169   3.211   0.224 -0.4220 -0.9349 -1.1287
 2377SOL     OW13145   0.723   4.451   6.138 -0.3826  0.4963  0.1059
 2377SOL    HW113146   0.656   4.442   6.211 -0.5794 -1.1678 -0.2621
 2377SOL    HW213147   0.702   4.388   6.063  2.2890 -1.0612  0.5292
 2378SOL     OW13148   0.448   4.826   5.751 -0.6160 -0.3715 -0.3441
 2378SOL    HW113149   0.456   4.727   5.742  0.9891 -0.2205 -0.9995
 2378SOL    HW213150   0.508   4.870   5.684 -0.2735  1.0197  0.8282
 2379SOL     OW13151   1.995   2.300   5.730  0.3644 -0.4568 -0.8144
 2379SOL    HW113152   1.900   2.290   5.759  0.9005 -1.0868  0.8588
 2379SOL    HW213153   1.998   2.341   5.639 -1.5555 -1.8198 -1.5584
 2380SOL     OW13154   0.830   3.637   1.324 -0.1467 -0.0651  0.7127
 2380SOL    HW113155   0.750   3.581   1.303 -1.6609  2.1545  0.2121
 2380SOL    HW213156   0.802   3.718   1.376  1.8690  0.4854  1.0431
 2381SOL     OW13157   3.718   5.352   5.810 -0.1139  0.1536 -0.7439
 2381SOL    HW113158   3.695   5.257   5.789  0.9919  0.1296 -2.0412
 2381SOL    HW213159   3.641   5.411   5.787 -0.5040 -0.3526 -0.7411
 2382SOL     OW13160   0.678   1.257   6.237 -0.4867 -0.0556  0.6394
 2382SOL    HW113161   0.621   1.284   6.315 -1.1360  3.2276 -0.8067
 2382SOL    HW213162   0.773   1.279   6.257 -0.8379  2.2217  0.0220
 2383SOL     OW13163   0.988   0.179   2.047 -0.6037  0.5258  0.2282
 2383SOL    HW113164   0.900   0.214   2.014 -1.4628 -0.7965  0.9713
 2383SOL    HW213165   0.985   0.079   2.047  1.3669  0.4152 -0.8689
 2384SOL     OW13166   1.860   5.371   5.675  0.1290  0.4799  0.3026
 2384SOL    HW113167   1.901   5.409   5.592 -1.5569 -2.3770 -2.0507
 2384SOL    HW213168   1.924   5.307   5.717 -0.0162 -0.2265 -0.5078
 2385SOL     OW13169   4.960   4.910   5.652 -0.3867  0.0234 -0.3121
 2385SOL    HW113170   5.051   4.896   5.693 -0.5496  0.9402  0.4028
 2385SOL    HW213171   4.968   4.908   5.552  0.5498  0.8081 -0.2693
 2386SOL     OW13172   3.741   4.895   6.539  0.1293  0.3554 -0.2709
 2386SOL    HW113173   3.718   4.981   6.584  3.3808  0.4851  1.4998
 2386SOL    HW213174   3.666   4.830   6.550 -0.5294  1.4464  2.6244
 2387SOL     OW13175   0.581   5.747   5.646  0.2787 -0.7991  0.0205
 2387SOL    HW113176   0.645   5.671   5.633  0.6302 -0.7468  1.3629
 2387SOL    HW213177   0.564   5.761   5.743  0.7325  1.2575 -0.1540
 2388SOL     OW13178   2.750   4.709   0.303 -0.3931  0.1745  0.2564
 2388SOL    HW113179   2.722   4.614   0.294 -1.7292  0.2168  2.9458
 2388SOL    HW213180   2.671   4.765   0.327  0.4935  1.8816 -0.5928
 2389SOL     OW13181   4.005   4.788   6.454  0.3834 -1.1387 -0.1639
 2389SOL    HW113182   3.978   4.851   6.527  1.1645 -0.4468 -0.4569
 2389SOL    HW213183   3.925   4.738   6.422 -0.3659  0.0899 -0.2747
 2390SOL     OW13184   2.817   1.827   0.111  0.7209  0.1452  0.0483
 2390SOL    HW113185   2.902   1.839   0.162  0.1167 -0.1431  1.1651
 2390SOL    HW213186   2.740   1.821   0.176 -0.4039  2.3126 -0.9713
 2391SOL     OW13187   2.234   2.806   6.489 -0.0490 -0.4286 -0.1874
 2391SOL    HW113188   2.256   2.820   6.392  1.9079  0.2974  0.3080
 2391SOL    HW213189   2.234   2.895   6.536 -1.0041 -0.7703  0.4776
 2392SOL     OW13190   2.550   5.730   6.370  0.0902  0.0744  0.0863
 2392SOL    HW113191   2.495   5.791   6.313 -1.0481 -1.9451 -1.0880
 2392SOL    HW213192   2.608   5.674   6.311  1.1501  0.0310  1.1397
 2393SOL     OW13193   3.629   5.402   0.965 -0.2851  0.1347 -0.2476
 2393SOL    HW113194   3.594   5.373   1.054 -1.0263 -0.0388 -0.5917
 2393SOL    HW213195   3.681   5.327   0.923 -0.0913  0.1547 -0.0434
 2394SOL     OW13196   0.764   6.126   0.048 -0.2595 -0.1048  0.6957
 2394SOL    HW113197   0.837   6.168   0.104 -0.3041 -1.7558  2.0603
 2394SOL    HW213198   0.805   6.067  -0.021 -0.2718 -1.4706  1.8206
 2395SOL     OW13199   1.088   3.787   0.427 -0.3774  0.1043 -0.1454
 2395SOL    HW113200   1.122   3.708   0.476 -0.3114 -0.4236 -1.0156
 2395SOL    HW213201   1.010   3.826   0.476 -0.4566 -0.5449  0.2518
 2396SOL     OW13202   3.974   4.646   0.152  0.0520  0.3885  0.2236
 2396SOL    HW113203   3.961   4.624   0.055 -1.0828  0.8618  0.2570
 2396SOL    HW213204   4.059   4.604   0.184  0.0183 -0.4824 -0.7611
 2397SOL     OW13205   3.549   0.922   0.547  0.0145 -0.3614 -0.6201
 2397SOL    HW113206   3.633   0.882   0.586 -0.2908  1.2689  1.9994
 2397SOL    HW213207   3.573   1.002   0.492  0.2382  0.2290  0.2947
 2398SOL     OW13208   6.188   2.873   0.304  0.2463 -0.5305 -0.4575
 2398SOL    HW113209   6.263   2.815   0.337 -0.1935 -0.7731  0.1277
 2398SOL    HW213210   6.216   2.969   0.308  0.5640 -0.6272 -0.3350
 2399SOL     OW13211   6.298   4.516   6.536  0.3338 -0.4567  0.1388
 2399SOL    HW113212   6.204   4.488   6.557  0.4570 -0.2655  0.9812
 2399SOL    HW213213   6.318   4.498   6.440 -2.2194  3.9096 -1.5246
 2400SOL     OW13214   1.827   1.003   0.224 -0.0708  0.3159 -0.0872
 2400SOL    HW113215   1.881   0.955   0.155 -0.2431 -1.0331  0.6785
 2400SOL    HW213216   1.848   0.966   0.314  0.1076  2.0004  0.6118
 2401SOL     OW13217   0.550   4.091   1.413 -0.7037  0.2080  0.1946
 2401SOL    HW113218   0.490   4.047   1.480 -0.4558 -0.3728  0.0373
 2401SOL    HW213219   0.547   4.190   1.427  1.5170  0.0257  2.9640
 2402SOL     OW13220   1.675   1.283   5.621 -0.7934  0.1159 -0.2207
 2402SOL    HW113221   1.602   1.258   5.557 -0.5579  2.4604 -1.5269
 2402SOL    HW213222   1.743   1.340   5.573  2.9975 -3.4448  0.3751
 2403SOL     OW13223   4.099   4.759   4.576 -0.1349 -0.2660 -0.5247
 2403SOL    HW113224   4.160   4.688   4.611 -1.2247  1.2597  5.6424
 2403SOL    HW213225   4.150   4.844   4.564 -0.2746 -0.0323  0.4870
 2404SOL     OW13226   4.645   2.751   0.389 -0.5068  0.5435  0.4271
 2404SOL    HW113227   4.727   2.760   0.332 -0.3208 -0.1886  0.5669
 2404SOL    HW213228   4.649   2.817   0.464 -0.8632  1.6867 -0.5123
 2405SOL     OW13229   2.971   5.890   6.501 -0.4258 -0.3646  0.5406
 2405SOL    HW113230   2.973   5.980   6.457  0.5430 -0.4763  0.3471
 2405SOL    HW213231   3.064   5.858   6.517 -0.7455 -1.6953 -0.0956
 2406SOL     OW13232   2.733   3.722   0.402  0.5030 -0.4026 -0.0355
 2406SOL    HW113233   2.721   3.681   0.493  0.7374 -0.5554 -0.0729
 2406SOL    HW213234   2.762   3.652   0.337 -2.0337 -0.8457 -0.8015
 2407SOL     OW13235   0.425   2.931   6.435 -0.2376 -0.2968  0.0288
 2407SOL    HW113236   0.510   2.967   6.474  0.3523  0.6961 -2.0271
 2407SOL    HW213237   0.405   2.978   6.349 -2.5490 -0.9710  0.1276
 2408SOL     OW13238   2.095   5.519   5.983  0.1555  0.0693  0.1845
 2408SOL    HW113239   2.164   5.541   6.053  1.4899  0.5636 -1.2282
 2408SOL    HW213240   2.037   5.445   6.016  1.5686 -0.5958  1.3146
 2409SOL     OW13241   3.601   0.116   4.938 -0.1313  0.9300  0.3164
 2409SOL    HW113242   3.519   0.089   4.888 -0.7453 -0.3726  1.9294
 2409SOL    HW213243   3.585   0.206   4.980 -0.7298  0.6948  0.6068
 2410SOL     OW13244   1.260   0.459   0.974 -0.2059 -0.4596 -0.0637
 2410SOL    HW113245   1.336   0.441   1.037 -0.4561  0.4505  0.5103
 2410SOL    HW213246   1.297   0.495   0.888  0.0804 -0.9606 -0.1550
 2411SOL     OW13247   0.128   2.627   0.414  0.4444 -0.3082 -0.1509
 2411SOL    HW113248   0.106   2.645   0.510  2.0172 -0.7717  0.3150
 2411SOL    HW213249   0.227   2.627   0.402  0.2568  0.6914 -1.9708
 2412SOL     OW13250   1.997   1.500   6.256  0.0653 -0.2071 -0.1048
 2412SOL    HW113251   1.995   1.596   6.228 -1.1361  0.4984  2.1954
 2412SOL    HW213252   2.035   1.493   6.348 -2.0213 -1.6347  0.7221
 2413SOL     OW13253   2.624   3.339   6.350 -0.0028 -0.0873  0.4111
 2413SOL    HW113254   2.549   3.281   6.319 -0.7471  0.5284  1.0434
 2413SOL    HW213255   2.641   3.411   6.283  0.2338 -0.4042  0.1246
 2414SOL     OW13256   2.886   1.010   0.292 -0.2248 -0.0130  0.0202
 2414SOL    HW113257   2.867   0.916   0.319  1.4208 -0.0015  1.3856
 2414SOL    HW213258   2.923   1.060   0.371 -2.1716  2.1292 -0.3365
 2415SOL     OW13259   4.200   2.283   6.443  0.6377  0.1959  0.0430
 2415SOL    HW113260   4.116   2.331   6.469  1.7639  1.6058  1.2945
 2415SOL    HW213261   4.194   2.254   6.347 -1.8146 -1.0230  0.4970
 2416SOL     OW13262   2.064   3.100   0.870 -0.1535 -0.1278 -0.7615
 2416SOL    HW113263   2.134   3.030   0.852 -1.8650 -2.1153 -0.0156
 2416SOL    HW213264   2.105   3.175   0.921  1.6773 -0.7343 -1.2549
 2417SOL     OW13265   1.734   3.229   5.847  0.2718  0.4783  0.5402
 2417SOL    HW113266   1.661   3.245   5.781  0.0954  0.1680  0.6564
 2417SOL    HW213267   1.754   3.131   5.852  0.0394  0.4600  1.2056
 2418SOL     OW13268   0.065   6.083   0.084  0.7607  0.2093 -0.2616
 2418SOL    HW113269   0.034   6.138   0.007  0.9579 -0.6875 -0.9926
 2418SOL    HW213270   0.162   6.063   0.073  0.3080 -1.8363 -0.9993
 2419SOL     OW13271   3.415   6.223   0.775 -0.1574 -0.4255 -0.1384
 2419SOL    HW113272   3.423   6.266   0.685  0.2137  0.4860  0.3202
 2419SOL    HW213273   3.412   6.293   0.846  2.2926 -1.1471  0.7952
 2420SOL     OW13274   3.242   5.999   0.703 -0.2342 -0.2410 -0.1591
 2420SOL    HW113275   3.171   6.004   0.633 -1.5122 -1.1147  1.0003
 2420SOL    HW213276   3.292   6.085   0.707 -0.5812  0.0541 -1.6599
 2421SOL     OW13277   4.213   3.404   6.302 -0.0275  0.0994  0.4519
 2421SOL    HW113278   4.152   3.356   6.364 -0.7948 -1.2984 -1.2999
 2421SOL    HW213279   4.158   3.451   6.232  0.8393  0.7937  0.2226
 2422SOL     OW13280   4.276   3.707   1.634  0.0010 -0.0049  0.0131
 2422SOL    HW113281   4.200   3.642   1.631  0.1678 -0.3597  1.9166
 2422SOL    HW213282   4.240   3.800   1.640 -0.2386  0.0777 -2.0511
 2423SOL     OW13283   4.038   2.834   0.724 -0.3793  0.1533 -0.4508
 2423SOL    HW113284   4.125   2.819   0.676 -0.3551  0.0459 -0.3733
 2423SOL    HW213285   3.967   2.778   0.681 -0.7530  1.3811 -1.4899
 2424SOL     OW13286   1.353   2.390   5.396 -0.0324 -0.2546 -0.2817
 2424SOL    HW113287   1.344   2.475   5.448  0.3366 -0.8256  0.7271
 2424SOL    HW213288   1.337   2.409   5.299 -1.1000  0.7522  0.0720
 2425SOL     OW13289   1.592   2.659   5.261 -0.0708 -0.0358  0.8173
 2425SOL    HW113290   1.679   2.640   5.216  0.7272  0.9632  1.9009
 2425SOL    HW213291   1.575   2.591   5.333 -1.3349 -1.6180 -0.8707
 2426SOL     OW13292   1.823   4.065   6.295  0.6373  0.0450  0.2041
 2426SOL    HW113293   1.845   4.086   6.200  1.8860  1.2780  0.7209
 2426SOL    HW213294   1.758   3.990   6.299  2.0990 -1.4209 -1.5824
 2427SOL     OW13295   5.252   2.688   0.560 -0.3155  0.1258 -0.1076
 2427SOL    HW113296   5.339   2.737   0.559  0.3575 -0.9400  1.5435
 2427SOL    HW213297   5.183   2.741   0.511  0.7655  1.9332  0.2508
 2428SOL     OW13298   4.634   3.312   4.476 -0.1537  0.8425  0.0319
 2428SOL    HW113299   4.570   3.368   4.423 -2.1664  0.8400  2.2833
 2428SOL    HW213300   4.598   3.220   4.486 -0.9917  1.3849  3.0881
 2429SOL     OW13301   4.805   5.063   6.485 -0.1305  0.2704  0.5140
 2429SOL    HW113302   4.793   5.072   6.386 -0.0234 -0.9634  0.3654
 2429SOL    HW213303   4.862   4.982   6.504 -0.2431  0.4296  1.5876
 2430SOL     OW13304   2.643   2.461   5.403 -0.2471  0.0317  0.4631
 2430SOL    HW113305   2.653   2.495   5.310 -1.6013  0.6266  0.5081
 2430SOL    HW213306   2.620   2.364   5.401 -0.0886 -0.0014  0.1842
 2431SOL     OW13307   0.476   0.878   5.804 -0.5193 -0.0047 -0.2116
 2431SOL    HW113308   0.452   0.898   5.709  0.2216  0.7297 -0.2618
 2431SOL    HW213309   0.482   0.964   5.855 -0.2786 -0.3456  0.3421
 2432SOL     OW13310   1.529   5.258   0.107 -0.2311  0.6393  0.3414
 2432SOL    HW113311   1.444   5.258   0.159  0.1500 -0.6349  1.0048
 2432SOL    HW213312   1.547   5.166   0.071  1.6305  0.4917  1.5144
 2433SOL     OW13313   2.184   5.407   1.132  0.0643 -0.3206  0.3888
 2433SOL    HW113314   2.219   5.329   1.185 -0.0440 -0.9564 -0.4597
 2433SOL    HW213315   2.085   5.411   1.139 -0.3815 -2.5575 -2.5171
 2434SOL     OW13316   0.382   5.343   5.717 -0.0410 -0.6039  0.1165
 2434SOL    HW113317   0.393   5.264   5.657  0.9791 -0.6297  0.3149
 2434SOL    HW213318   0.305   5.398   5.685  0.4524 -0.6341 -1.2145
 2435SOL     OW13319   5.953   3.651   0.399  0.2754  0.0643 -0.5545
 2435SOL    HW113320   5.967   3.588   0.323 -1.2400 -0.7348 -0.2071
 2435SOL    HW213321   6.032   3.712   0.407  0.4584  0.1894 -2.7669
 2436SOL     OW13322   0.144   4.482   0.006  0.6541  0.1522 -0.2137
 2436SOL    HW113323   0.045   4.495   0.012  0.7028  0.3699  0.1070
 2436SOL    HW213324   0.169   4.465  -0.089  0.1018 -1.5918 -0.0903
 2437SOL     OW13325   5.463   0.921   0.459 -0.0045  0.1488 -0.1784
 2437SOL    HW113326   5.389   0.952   0.399 -0.3441 -1.2137 -0.4924
 2437SOL    HW213327   5.489   0.996   0.521  1.2216  2.0667 -2.8059
 2438SOL     OW13328   5.385   0.730   0.179 -0.6504 -0.2539  0.7972
 2438SOL    HW113329   5.300   0.716   0.128  0.1768 -0.2337 -0.6451
 2438SOL    HW213330   5.399   0.653   0.242 -0.4405 -1.7015 -0.8980
 2439SOL     OW13331   4.067   4.087   1.326  0.2300 -0.3087  0.4639
 2439SOL    HW113332   4.059   3.996   1.284  0.1086 -0.5155  0.9234
 2439SOL    HW213333   4.001   4.149   1.285  1.0677 -0.1211 -0.6356
 2440SOL     OW13334   0.363   4.934   0.447  0.2879  0.1858  0.6922
 2440SOL    HW113335   0.446   4.968   0.401 -0.5440 -0.8757 -1.7852
 2440SOL    HW213336   0.342   4.843   0.412 -1.9286  0.4284  1.2981
 2441SOL     OW13337   5.148   2.185   6.408  0.2906  0.4222 -0.8542
 2441SOL    HW113338   5.228   2.161   6.462  1.1243  2.1881 -1.2589
 2441SOL    HW213339   5.133   2.283   6.411 -2.6886  0.0236  0.3011
 2442SOL     OW13340   1.809   2.415   5.902 -0.0401 -0.0157 -0.2426
 2442SOL    HW113341   1.898   2.460   5.890  0.7201 -1.6473 -0.9431
 2442SOL    HW213342   1.806   2.373   5.993 -0.1014  0.0446 -0.2168
 2443SOL     OW13343   3.554   5.295   1.835  0.4628 -0.0944  0.1926
 2443SOL    HW113344   3.566   5.230   1.910 -2.6437 -0.2667  0.6694
 2443SOL    HW213345   3.473   5.351   1.852  0.8519  1.2968 -2.0864
 2444SOL     OW13346   6.303   3.486   0.670  1.0338  0.3950  0.4373
 2444SOL    HW113347   6.386   3.526   0.708  0.8251  3.0674 -1.6164
 2444SOL    HW213348   6.317   3.466   0.573 -1.0807  2.3572 -0.3656
 2445SOL     OW13349   4.896   1.449   5.253  0.2944  0.3808 -0.0102
 2445SOL    HW113350   4.927   1.524   5.311 -0.5155  0.3569  0.4612
 2445SOL    HW213351   4.975   1.407   5.207  0.8424  0.9438  0.4150
 2446SOL     OW13352   5.735   1.743   5.790  0.3793 -0.3268  0.3036
 2446SOL    HW113353   5.834   1.759   5.780  0.3651 -0.7592 -0.6632
 2446SOL    HW213354   5.719   1.645   5.803 -0.0365 -0.5583 -1.6340
 2447SOL     OW13355   0.363   5.768   0.525  0.4644 -0.0884  0.4417
 2447SOL    HW113356   0.311   5.684   0.540  0.4422  0.1051  1.4977
 2447SOL    HW213357   0.456   5.744   0.497  0.4379 -0.4648  0.6662
 2448SOL     OW13358   4.609   4.402   4.888 -0.5638  0.4953 -0.3950
 2448SOL    HW113359   4.587   4.326   4.827  0.0232 -0.7102  0.8263
 2448SOL    HW213360   4.675   4.463   4.845  1.5517 -1.5153 -0.2266
 2449SOL     OW13361   0.327   3.873   5.822 -0.0501 -0.0898 -0.2223
 2449SOL    HW113362   0.354   3.827   5.906 -0.0548 -1.3210 -0.8851
 2449SOL    HW213363   0.289   3.963   5.845  2.1797  0.6441  0.9053
 2450SOL     OW13364   3.658   0.665   5.392  0.1972 -0.6152 -0.3531
 2450SOL    HW113365   3.691   0.591   5.334 -0.0383 -1.0925  0.1240
 2450SOL    HW213366   3.720   0.744   5.383 -0.7135 -0.0614 -2.5225
 2451SOL     OW13367   5.397   0.540   0.435 -0.1566 -0.1291  0.2201
 2451SOL    HW113368   5.328   0.507   0.500 -0.0937 -1.0702 -0.1833
 2451SOL    HW213369   5.478   0.571   0.485  0.0764 -1.2759  0.5783
 2452SOL     OW13370   2.842   3.509   0.282  0.2146  0.0636 -0.0645
 2452SOL    HW113371   2.859   3.529   0.186 -1.3987  2.3050  0.0357
 2452SOL    HW213372   2.928   3.489   0.328  1.0866 -0.4244 -1.8306
 2453SOL     OW13373   3.858   0.411   4.743  0.2118 -0.7159 -0.0763
 2453SOL    HW113374   3.771   0.419   4.694 -0.2404  0.3451  0.8533
 2453SOL    HW213375   3.863   0.482   4.814  1.5658 -1.1627  0.3046
 2454SOL     OW13376   5.533   6.142   0.332  0.0978 -0.1896 -0.1814
 2454SOL    HW113377   5.523   6.127   0.234 -1.1081  1.2726 -0.3151
 2454SOL    HW213378   5.504   6.060   0.381 -0.8579 -0.3650 -1.0002
 2455SOL     OW13379   1.467   3.332   5.682 -1.0488 -0.3225  0.2354
 2455SOL    HW113380   1.485   3.421   5.723 -0.3690 -0.0496 -0.6326
 2455SOL    HW213381   1.424   3.345   5.592  1.2612 -0.7559 -1.0068
 2456SOL     OW13382   2.833   0.804   5.776  0.3458 -0.0498  0.1403
 2456SOL    HW113383   2.785   0.828   5.861  1.2656  0.3086  0.5803
 2456SOL    HW213384   2.843   0.705   5.770 -1.5373 -0.2324 -0.5902
 2457SOL     OW13385   3.259   3.837   0.128 -0.1390 -0.0621  0.3916
 2457SOL    HW113386   3.210   3.875   0.207 -0.9400 -1.4458  0.5819
 2457SOL    HW213387   3.298   3.748   0.152  2.7333  1.0754  0.3153
 2458SOL     OW13388   5.706   0.018   5.729  0.5071 -0.1144 -0.4454
 2458SOL    HW113389   5.736  -0.029   5.646  0.0327  0.7596 -1.1267
 2458SOL    HW213390   5.614   0.054   5.716 -0.2401 -1.3657  1.0572
 2459SOL     OW13391   6.221   6.158   6.220 -0.3256  0.2996  0.7377
 2459SOL    HW113392   6.139   6.112   6.186  0.9777  0.5186 -3.1903
 2459SOL    HW213393   6.289   6.089   6.247  1.0632 -0.3342 -3.7065
 2460SOL     OW13394   1.245   4.845   5.650  0.2487 -0.2660  0.0870
 2460SOL    HW113395   1.313   4.918   5.640 -0.7063  0.3700 -2.6419
 2460SOL    HW213396   1.269   4.769   5.590 -0.3674 -0.9298  0.6695
 2461SOL     OW13397   1.361   0.073   6.018 -0.3244  0.4308 -0.4508
 2461SOL    HW113398   1.317  -0.008   6.056  1.2291 -0.2697 -0.0476
 2461SOL    HW213399   1.336   0.154   6.071 -0.5886 -0.0584  0.1745
 2462SOL     OW13400   4.478   2.349   6.446  0.2474  0.3257  0.1177
 2462SOL    HW113401   4.391   2.306   6.465  0.6058 -0.5798 -0.2460
 2462SOL    HW213402   4.542   2.332   6.521  0.2750  0.5529  0.1487
 2463SOL     OW13403   1.233   4.727   4.977  0.4449 -0.4691  0.2589
 2463SOL    HW113404   1.231   4.810   4.922  0.4891 -1.4903 -1.3430
 2463SOL    HW213405   1.319   4.723   5.029 -0.7726  1.8824  2.7226
 2464SOL     OW13406   2.319   0.722   6.518  0.3645 -0.2640  0.1702
 2464SOL    HW113407   2.398   0.782   6.504  1.7637 -1.5729  1.9677
 2464SOL    HW213408   2.268   0.754   6.598  0.1106 -0.4825  0.0946
 2465SOL     OW13409   0.884   3.313   5.950  0.1607 -0.2051 -0.3793
 2465SOL    HW113410   0.822   3.298   6.028  0.3387  1.8707  0.2269
 2465SOL    HW213411   0.889   3.411   5.931  0.3777 -0.6496 -2.8330
 2466SOL     OW13412   1.920   6.353   0.509 -0.3688  0.4957  0.1126
 2466SOL    HW113413   1.948   6.316   0.597 -1.7493 -0.8001  0.0706
 2466SOL    HW213414   1.959   6.296   0.436 -1.4286 -0.1193  0.0022
 2467SOL     OW13415   3.152   1.575   1.346  0.0841 -0.1853  0.4004
 2467SOL    HW113416   3.249   1.552   1.355  0.1420  0.2859  1.0845
 2467SOL    HW213417   3.107   1.562   1.434 -0.4111 -0.1164  0.1564
 2468SOL     OW13418   5.688   4.051   5.865 -0.4232  0.5419  0.7731
 2468SOL    HW113419   5.685   3.979   5.934  0.0676  1.0408  1.3240
 2468SOL    HW213420   5.603   4.103   5.868 -0.3647  0.6209  1.0680
 2469SOL     OW13421   1.424   5.924   0.599 -0.0477  0.0892 -0.4611
 2469SOL    HW113422   1.393   6.011   0.638  1.1434 -0.3710  1.6659
 2469SOL    HW213423   1.513   5.936   0.555 -0.1011  0.0510 -0.5791
 2470SOL     OW13424   1.552   1.839   0.168  0.9060 -0.1689  0.6226
 2470SOL    HW113425   1.509   1.765   0.117  0.3958  0.2362  0.4587
 2470SOL    HW213426   1.559   1.813   0.265 -0.7477  0.1909  0.8714
 2471SOL     OW13427   6.348   3.611   1.125 -0.1100  0.1505  0.5917
 2471SOL    HW113428   6.389   3.647   1.041 -2.3128  0.1858 -0.5309
 2471SOL    HW213429   6.415   3.554   1.173  0.3070 -2.6706 -2.9115
 2472SOL     OW13430   4.411   1.000   6.222  0.0563 -0.3881 -0.2445
 2472SOL    HW113431   4.413   0.970   6.318  2.3449 -0.5073 -0.2765
 2472SOL    HW213432   4.387   0.923   6.163 -1.1014 -0.3757  0.1740
 2473SOL     OW13433   1.133   2.449   5.579 -0.0214  0.0452  0.2789
 2473SOL    HW113434   1.183   2.534   5.589  0.9652 -0.3781 -0.9361
 2473SOL    HW213435   1.046   2.466   5.534  0.6686  0.2636 -1.0006
 2474SOL     OW13436   4.459   2.004   6.529  0.2468  0.2940  0.0940
 2474SOL    HW113437   4.519   2.058   6.471 -0.5103  0.4721 -0.5366
 2474SOL    HW213438   4.377   1.978   6.478  1.0035 -2.2925  0.0337
 2475SOL     OW13439   6.308   5.915   1.346 -0.0161  0.1698 -0.4960
 2475SOL    HW113440   6.238   5.957   1.403  1.3117 -0.6125  1.8609
 2475SOL    HW213441   6.398   5.933   1.385  0.8186 -2.0403 -1.2552
 2476SOL     OW13442   4.874   2.456   0.243 -0.6379 -0.0541  0.3499
 2476SOL    HW113443   4.774   2.459   0.240 -0.6082  1.6434  0.2121
 2476SOL    HW213444   4.907   2.388   0.177 -1.6486  1.2932 -1.6553
 2477SOL     OW13445   5.753   1.807   0.487 -0.4107  0.3421  0.4146
 2477SOL    HW113446   5.736   1.903   0.509 -0.3221  0.9377 -1.7885
 2477SOL    HW213447   5.741   1.751   0.568  0.3427  2.3025  1.9620
 2478SOL     OW13448   5.545   5.987   0.089  0.4070  0.0355 -0.2724
 2478SOL    HW113449   5.645   5.983   0.085  0.4129  0.1769 -0.2686
 2478SOL    HW213450   5.508   5.975  -0.003  0.3553 -1.9045 -0.0415
 2479SOL     OW13451   4.867   4.869   1.759 -0.4849 -0.6750 -0.3034
 2479SOL    HW113452   4.931   4.839   1.687 -1.5797  0.2698 -1.7392
 2479SOL    HW213453   4.777   4.829   1.742 -0.8351 -0.1812  0.3482
 2480SOL     OW13454   3.991   5.357   6.593 -0.2011  0.2174 -0.0446
 2480SOL    HW113455   4.011   5.355   6.495  1.0176 -1.4479  0.1831
 2480SOL    HW213456   3.905   5.309   6.611  0.3957 -0.9400 -0.1764
 2481SOL     OW13457   0.901   2.089   0.759  0.0801 -0.1939 -0.7337
 2481SOL    HW113458   0.930   2.149   0.834 -0.3705 -0.5234 -0.2926
 2481SOL    HW213459   0.821   2.129   0.714  0.8759  0.4605 -1.6316
 2482SOL     OW13460   1.877   0.698   5.602  0.0947 -0.1519 -0.1822
 2482SOL    HW113461   1.830   0.772   5.651 -0.0827 -0.8188  0.6837
 2482SOL    HW213462   1.861   0.707   5.504  0.7999  1.4639 -0.1750
 2483SOL     OW13463   4.337   6.200   0.373  0.3315  0.1715 -0.0012
 2483SOL    HW113464   4.320   6.158   0.283  1.2886 -0.2446 -0.0072
 2483SOL    HW213465   4.428   6.241   0.374  0.8135 -0.8589  1.1446
 2484SOL     OW13466   0.854   5.011   5.631  0.3400  0.2654 -0.2056
 2484SOL    HW113467   0.903   4.925   5.645 -0.3802 -0.3174 -1.1848
 2484SOL    HW213468   0.801   5.033   5.713  0.1120 -0.5091 -0.1361
 2485SOL     OW13469   5.123   2.242   0.920  0.1706 -0.5820 -0.1306
 2485SOL    HW113470   5.220   2.266   0.917  0.3251 -0.5413  2.6343
 2485SOL    HW213471   5.096   2.227   1.015 -2.3892 -1.2750 -0.9077
 2486SOL     OW13472   5.095   1.828   0.060 -0.0150 -0.1396  0.3332
 2486SOL    HW113473   5.124   1.857  -0.031  0.8871  1.6715  1.1528
 2486SOL    HW213474   5.083   1.908   0.118 -2.6992 -1.1041  1.2398
 2487SOL     OW13475   5.820   5.859   0.073 -0.0726  0.0301 -0.4230
 2487SOL    HW113476   5.890   5.883   0.007  0.2030 -0.1538 -0.1994
 2487SOL    HW213477   5.852   5.881   0.166 -0.5773  0.5761 -0.3723
 2488SOL     OW13478   0.880   4.025   5.534  0.1644  0.0873  0.0583
 2488SOL    HW113479   0.846   3.932   5.547 -1.5113  0.7057  0.3884
 2488SOL    HW213480   0.847   4.061   5.447 -2.3195  1.5894  1.4979
 2489SOL     OW13481   3.102   5.960   1.484  0.0876  0.4669  0.1453
 2489SOL    HW113482   3.102   6.059   1.470 -0.3420  0.6449  1.2748
 2489SOL    HW213483   3.144   5.938   1.572 -1.1495 -0.2226  0.6050
 2490SOL     OW13484   5.164   4.244   0.256 -0.4751 -0.3033 -0.6107
 2490SOL    HW113485   5.190   4.340   0.253 -0.5815 -0.2863 -1.1201
 2490SOL    HW213486   5.102   4.228   0.333  0.3255 -0.1676  0.0775
 2491SOL     OW13487   2.191   3.876   1.369 -0.2512 -0.2200  0.3753
 2491SOL    HW113488   2.254   3.953   1.372  1.6118 -1.7205  1.9948
 2491SOL    HW213489   2.110   3.902   1.316 -0.1335  3.1340  1.5661
 2492SOL     OW13490   4.424   1.551   0.671 -0.3467  0.7340 -0.0496
 2492SOL    HW113491   4.495   1.559   0.601 -0.1675 -1.5249 -0.2052
 2492SOL    HW213492   4.464   1.563   0.762 -0.2117  1.6978 -0.2279
 2493SOL     OW13493   4.536   4.697   1.119  0.7422  0.0619  0.0618
 2493SOL    HW113494   4.526   4.613   1.065  1.7370  0.8572 -1.4424
 2493SOL    HW213495   4.633   4.722   1.123  0.7083  0.0409  2.2917
 2494SOL     OW13496   1.258   4.772   0.443  0.0381 -0.3558 -0.0016
 2494SOL    HW113497   1.352   4.800   0.463  0.3473 -0.9241 -0.6373
 2494SOL    HW213498   1.227   4.708   0.514 -0.3861  0.9096  1.0022
 2495SOL     OW13499   1.966   3.416   0.644  0.2449 -0.4188  0.0680
 2495SOL    HW113500   2.022   3.421   0.726 -0.6582  0.0988  0.6787
 2495SOL    HW213501   1.906   3.335   0.649 -0.9443  0.4717  0.6941
 2496SOL     OW13502   0.001   2.495   6.208 -0.1441 -0.2344 -0.4821
 2496SOL    HW113503  -0.096   2.474   6.200 -0.5904  0.4834  1.9757
 2496SOL    HW213504   0.034   2.465   6.298  2.3066 -1.8060 -1.8121
 2497SOL     OW13505   2.523   4.423   6.003  0.0576 -0.4836 -0.1616
 2497SOL    HW113506   2.435   4.380   6.022  0.7087 -1.4193  0.8948
 2497SOL    HW213507   2.594   4.380   6.059  0.9151  1.3371  0.2400
 2498SOL     OW13508   1.202   2.776   0.116 -0.5252  0.0761  0.0028
 2498SOL    HW113509   1.190   2.787   0.018  2.3550 -2.0191 -0.6993
 2498SOL    HW213510   1.176   2.862   0.162 -0.3384  1.7081 -2.7166
 2499SOL     OW13511   1.892   3.824   6.017  0.3873 -0.2386  0.3168
 2499SOL    HW113512   1.862   3.804   6.111 -0.2684  0.2231  0.2124
 2499SOL    HW213513   1.824   3.789   5.952  1.2553 -1.3301 -0.0413
 2500SOL     OW13514   3.205   0.180   4.613 -0.4465 -0.5918 -0.0026
 2500SOL    HW113515   3.283   0.203   4.555  0.3701 -1.5782  0.6489
 2500SOL    HW213516   3.123   0.170   4.557  0.3374 -1.6246 -1.0095
 2501SOL     OW13517   3.244   6.201   4.988  0.8360  0.6603 -0.1761
 2501SOL    HW113518   3.163   6.259   4.995 -0.6998 -1.2009 -1.4744
 2501SOL    HW213519   3.268   6.189   4.891  1.1745 -0.7351  0.0603
 2502SOL     OW13520   5.589   5.573   1.748 -0.3266 -0.7115  0.0368
 2502SOL    HW113521   5.502   5.526   1.729  0.0602 -1.8775  0.9749
 2502SOL    HW213522   5.571   5.668   1.771 -1.5647 -1.3244  1.8660
 2503SOL     OW13523   3.924   2.466   5.959  0.1135  0.7008  0.1973
 2503SOL    HW113524   3.916   2.429   6.052  3.0633  1.1534  0.7275
 2503SOL    HW213525   3.834   2.467   5.916 -1.3748  0.5019  3.0479
 2504SOL     OW13526   5.795   4.746   0.495  0.1163  0.2191  0.3333
 2504SOL    HW113527   5.726   4.742   0.567  0.0538  0.7244  0.3058
 2504SOL    HW213528   5.885   4.756   0.537  0.3269 -1.6063  0.4240
 2505SOL     OW13529   3.345   5.071   1.947 -0.4957 -0.4253 -0.5766
 2505SOL    HW113530   3.427   5.045   1.997  1.4275  1.4765 -2.5283
 2505SOL    HW213531   3.305   4.991   1.902  1.0620 -1.1642 -0.6873
 2506SOL     OW13532   6.261   5.256   4.785  0.9636 -0.1774 -0.3675
 2506SOL    HW113533   6.321   5.195   4.837  0.6027  0.6668  1.1034
 2506SOL    HW213534   6.316   5.319   4.732  1.5011  1.3989  1.9090
 2507SOL     OW13535   2.178   4.583   5.604  0.1387 -0.7677  0.1713
 2507SOL    HW113536   2.137   4.492   5.603 -2.4202  0.2733  1.6859
 2507SOL    HW213537   2.189   4.615   5.698  4.6021 -0.8947 -0.0799
 2508SOL     OW13538   1.099   2.177   5.985  0.3404  0.6130 -0.5308
 2508SOL    HW113539   1.131   2.164   6.079 -0.5449  0.5219 -0.2374
 2508SOL    HW213540   1.083   2.274   5.968  0.0888  0.5843 -0.4537
 2509SOL     OW13541   3.427   6.402   5.914 -0.0847  0.4126  0.1417
 2509SOL    HW113542   3.479   6.321   5.888 -0.0504  0.1460  0.9909
 2509SOL    HW213543   3.484   6.462   5.969  0.7668  2.3648 -2.6810
 2510SOL     OW13544   3.933   1.766   0.763 -0.3565 -0.6324 -0.0949
 2510SOL    HW113545   3.991   1.725   0.834  0.3982 -1.5964 -1.2153
 2510SOL    HW213546   3.837   1.759   0.791  0.0027  0.5853  1.5947
 2511SOL     OW13547   4.381   6.393   5.568  0.0367  0.1319  0.3354
 2511SOL    HW113548   4.338   6.470   5.521 -2.2678 -0.0935  1.8925
 2511SOL    HW213549   4.387   6.315   5.506 -0.2376  0.6964 -0.4178
 2512SOL     OW13550   3.464   3.514   5.395  0.3790 -0.1044 -0.1921
 2512SOL    HW113551   3.512   3.465   5.322  0.6161  0.1693 -0.2197
 2512SOL    HW213552   3.395   3.574   5.355  0.1718 -0.3235 -0.1646
 2513SOL     OW13553   0.768   4.723   6.162 -0.2651  0.1777  0.8721
 2513SOL    HW113554   0.751   4.625   6.157  0.9295 -0.1274  2.1378
 2513SOL    HW213555   0.796   4.757   6.072 -1.8304 -0.3881  0.1446
 2514SOL     OW13556   5.905   5.043   1.508  0.2885 -0.4263 -0.0877
 2514SOL    HW113557   5.867   5.131   1.481  0.7789  0.7012  2.5766
 2514SOL    HW213558   5.849   5.004   1.581  1.1681 -1.3856  0.0948
 2515SOL     OW13559   3.734   4.523   0.823  0.0819 -1.2645 -0.4004
 2515SOL    HW113560   3.746   4.617   0.790 -1.7728 -1.2616 -1.1755
 2515SOL    HW213561   3.819   4.492   0.867  1.0086  0.4525 -0.8905
 2516SOL     OW13562   2.614   3.156   1.210  0.0162 -0.0777 -0.2422
 2516SOL    HW113563   2.539   3.152   1.276  2.1664  0.0692  2.3908
 2516SOL    HW213564   2.598   3.229   1.144 -1.1369  1.3854  1.5816
 2517SOL     OW13565   3.559   4.834   4.909 -0.4602 -0.1253 -0.1351
 2517SOL    HW113566   3.501   4.916   4.912 -0.5873 -0.2262  0.0977
 2517SOL    HW213567   3.583   4.816   4.814  2.3943  2.1770  0.0098
 2518SOL     OW13568   5.577   6.358   6.536 -0.0898 -0.5064 -0.0265
 2518SOL    HW113569   5.662   6.310   6.516  0.3898  0.8798 -1.4820
 2518SOL    HW213570   5.597   6.450   6.569 -0.9951  0.0071 -0.8489
 2519SOL     OW13571   5.274   3.401   6.056 -0.2116 -0.4456 -0.4477
 2519SOL    HW113572   5.338   3.469   6.092 -1.6601 -0.4465  2.4370
 2519SOL    HW213573   5.195   3.448   6.016 -1.2101 -0.3170  1.5409
 2520SOL     OW13574   5.926   3.390   1.054 -0.0493  0.1858  0.2484
 2520SOL    HW113575   5.980   3.412   1.135 -0.6453 -1.1813  1.0569
 2520SOL    HW213576   5.843   3.446   1.052  0.9422  1.6800 -0.5431
 2521SOL     OW13577   1.910   5.648   1.193  0.3007 -0.1841 -0.3464
 2521SOL    HW113578   1.974   5.678   1.264  0.0567  0.2336 -0.3030
 2521SOL    HW213579   1.910   5.548   1.189  0.5516 -0.2024  0.0251
 2522SOL     OW13580   2.751   2.051   0.431  0.5483 -0.4375 -0.2471
 2522SOL    HW113581   2.840   2.080   0.396  0.5977  0.0738  0.2812
 2522SOL    HW213582   2.764   1.981   0.502  0.8121  2.1300  2.4328
 2523SOL     OW13583   1.348   2.941   1.432 -0.1567  0.1353  0.3152
 2523SOL    HW113584   1.426   2.883   1.406  0.2282 -0.3252  2.3402
 2523SOL    HW213585   1.354   2.964   1.529 -1.2041  2.2408 -0.0629
 2524SOL     OW13586   4.532   0.171   0.999  0.0459  0.4357  0.2636
 2524SOL    HW113587   4.487   0.104   1.057  1.6654 -2.0090 -1.1520
 2524SOL    HW213588   4.613   0.207   1.046 -0.3091  0.7044  0.6709
 2525SOL     OW13589   1.840   3.993   0.314  0.0505 -0.0004 -0.5569
 2525SOL    HW113590   1.897   4.055   0.260  0.6191 -1.9242 -2.2796
 2525SOL    HW213591   1.875   3.990   0.408  0.2148  1.9503 -0.4970
 2526SOL     OW13592   3.444   2.786   5.217 -0.3885 -0.5352  0.3474
 2526SOL    HW113593   3.361   2.840   5.223 -1.0425 -1.5943  1.1458
 2526SOL    HW213594   3.466   2.769   5.120 -0.8221  0.1451  0.1256
 2527SOL     OW13595   1.667   5.527   0.614  0.3710  0.0445  0.0102
 2527SOL    HW113596   1.666   5.441   0.563 -1.0494  0.4981 -0.7913
 2527SOL    HW213597   1.573   5.557   0.630  0.8142  1.9378 -0.6068
 2528SOL     OW13598   1.355   0.285   1.583  0.7744 -0.0552  0.2827
 2528SOL    HW113599   1.273   0.244   1.624  0.1582 -1.4133 -2.0794
 2528SOL    HW213600   1.337   0.381   1.561  0.2875  0.0178  0.9658
 2529SOL     OW13601   6.362   5.402   6.254  0.3996  0.3862  0.2828
 2529SOL    HW113602   6.266   5.422   6.234 -0.0186 -2.0523 -0.4725
 2529SOL    HW213603   6.420   5.440   6.182 -0.1045  0.8414  0.1099
 2530SOL     OW13604   2.776   0.637   5.404  0.0314  0.0241 -0.2732
 2530SOL    HW113605   2.685   0.678   5.398  0.2414  0.2878 -2.1094
 2530SOL    HW213606   2.835   0.677   5.335  1.5549 -0.1800  0.8658
 2531SOL     OW13607   1.974   4.768   0.974 -0.2448  0.2384 -0.0763
 2531SOL    HW113608   1.974   4.689   0.912  0.1356 -0.7427  1.1414
 2531SOL    HW213609   1.917   4.840   0.935 -0.7341 -0.6879 -1.1428
 2532SOL     OW13610   5.623   0.697   0.491  0.9640 -0.3353  0.1763
 2532SOL    HW113611   5.706   0.707   0.436  0.6180  0.9447 -0.1423
 2532SOL    HW213612   5.568   0.780   0.485 -0.0311 -0.9087  0.9177
 2533SOL     OW13613   4.904   3.315   5.717 -0.0125 -0.3183 -0.3097
 2533SOL    HW113614   4.884   3.250   5.790  1.1471 -0.7142 -0.3277
 2533SOL    HW213615   4.847   3.293   5.637  0.5885 -1.5322 -0.4271
 2534SOL     OW13616   4.460   0.824   6.414  0.0750  0.0701 -0.5442
 2534SOL    HW113617   4.443   0.726   6.417 -1.1625  0.2988  1.1463
 2534SOL    HW213618   4.533   0.848   6.478 -0.3703  0.3764 -0.1460
 2535SOL     OW13619   2.976   1.735   1.226  0.0303 -0.0200 -0.4974
 2535SOL    HW113620   2.925   1.668   1.170 -0.4158  0.2267 -0.3927
 2535SOL    HW213621   3.052   1.689   1.271 -0.6815 -0.6200  0.1254
 2536SOL     OW13622   2.785   1.161   0.094 -0.1638  0.3208  0.2392
 2536SOL    HW113623   2.820   1.115   0.176 -0.8495  0.9251  0.8924
 2536SOL    HW213624   2.724   1.235   0.122 -0.7150  0.2846 -0.8319
 2537SOL     OW13625   5.481   4.356   0.290  0.0156  0.0559 -0.1663
 2537SOL    HW113626   5.480   4.314   0.381 -0.1462  0.9026  0.2259
 2537SOL    HW213627   5.554   4.424   0.285 -0.6287  0.7498 -0.3325
 2538SOL     OW13628   0.517   0.248   0.986  0.1724  0.0194  0.1260
 2538SOL    HW113629   0.552   0.165   1.031  0.2139  0.5805  1.1596
 2538SOL    HW213630   0.593   0.310   0.968  0.0123  0.2648  0.2882
 2539SOL     OW13631   0.915   5.092   5.201 -0.4765  0.3792 -0.8396
 2539SOL    HW113632   0.858   5.024   5.156  0.3456  0.3118 -1.8039
 2539SOL    HW213633   0.990   5.120   5.141  0.0971  1.0064  0.1151
 2540SOL     OW13634   3.953   1.374   5.832  0.1940  0.3982 -0.1072
 2540SOL    HW113635   3.950   1.325   5.919  0.3348  0.1879 -0.2191
 2540SOL    HW213636   4.013   1.325   5.769 -1.9037 -0.9242 -1.2090
 2541SOL     OW13637   3.420   5.214   0.162 -0.2041  0.3217 -0.1095
 2541SOL    HW113638   3.357   5.169   0.225  0.3168  0.0639  0.2418
 2541SOL    HW213639   3.405   5.180   0.069 -1.7981  1.5880 -0.3514
 2542SOL     OW13640   6.046   4.849   1.355 -0.3104 -0.4412 -0.3412
 2542SOL    HW113641   5.992   4.766   1.346 -0.5828 -0.1574 -1.4601
 2542SOL    HW213642   5.992   4.919   1.401 -0.6808 -0.3632 -0.8865
 2543SOL     OW13643   2.968   1.353   0.885  0.2181 -0.2911 -0.8090
 2543SOL    HW113644   3.063   1.346   0.855  0.2147  1.0499 -1.2176
 2543SOL    HW213645   2.965   1.391   0.977  0.0510  1.3526 -1.4601
 2544SOL     OW13646   2.087   0.078   5.844 -0.1371 -0.2083  0.8637
 2544SOL    HW113647   2.146   0.000   5.822 -0.0748  0.3007 -0.9189
 2544SOL    HW213648   1.994   0.058   5.813 -0.1573  0.3580  0.5582
 2545SOL     OW13649   3.366   0.038   5.467 -0.4528 -0.1140 -0.2069
 2545SOL    HW113650   3.312  -0.045   5.460 -0.0802 -0.5080  1.1469
 2545SOL    HW213651   3.426   0.047   5.387 -0.2743 -1.3184 -0.2226
 2546SOL     OW13652   5.730   3.174   6.033 -0.8405  0.2087 -0.5367
 2546SOL    HW113653   5.653   3.156   6.096 -1.1385 -1.0177 -1.2155
 2546SOL    HW213654   5.709   3.135   5.943  0.7656 -0.5774 -0.6128
 2547SOL     OW13655   3.836   0.394   4.363 -0.5614  0.2200  0.4504
 2547SOL    HW113656   3.740   0.380   4.387 -0.6081  0.3406  0.3380
 2547SOL    HW213657   3.844   0.472   4.302 -0.5177 -0.4600 -0.4356
 2548SOL     OW13658   2.818   0.937   0.983  0.1373 -0.4008 -0.3053
 2548SOL    HW113659   2.897   0.880   1.006  1.1366  1.1290  0.1899
 2548SOL    HW213660   2.841   0.998   0.908 -1.0570 -0.9158 -1.1136
 2549SOL     OW13661   2.917   3.490   0.644 -0.0239  0.1187  0.6726
 2549SOL    HW113662   2.825   3.527   0.651 -1.2766 -2.4887 -0.6738
 2549SOL    HW213663   2.924   3.406   0.697  1.0647 -0.6021 -0.5453
 2550SOL     OW13664   6.218   2.253   0.645 -0.5225 -0.0096  0.3172
 2550SOL    HW113665   6.189   2.168   0.603 -0.0427  0.3582 -0.7873
 2550SOL    HW213666   6.315   2.269   0.625 -0.8640  1.3114 -0.4058
 2551SOL     OW13667   5.682   3.897   6.094  0.1716  0.5109  0.0273
 2551SOL    HW113668   5.609   3.879   6.160  0.1568 -0.6843 -0.2802
 2551SOL    HW213669   5.753   3.827   6.104 -0.1107 -0.0565 -1.5942
 2552SOL     OW13670   2.660   2.096   4.952  0.4328  0.3570  0.0094
 2552SOL    HW113671   2.656   2.191   4.922 -2.8236  1.2601  2.7274
 2552SOL    HW213672   2.750   2.077   4.991  1.3158  2.1286 -1.0284
 2553SOL     OW13673   4.890   2.932   0.820 -0.2992 -0.6717  0.5011
 2553SOL    HW113674   4.827   2.960   0.747 -1.0510 -0.3396  1.2721
 2553SOL    HW213675   4.879   2.834   0.837 -0.2589 -0.7115  0.3013
 2554SOL     OW13676   5.903   1.960   5.482 -0.6364  0.3253 -0.0849
 2554SOL    HW113677   5.965   1.910   5.543  0.1333 -2.6702 -3.0636
 2554SOL    HW213678   5.809   1.949   5.514 -0.1222  0.7954  1.7481
 2555SOL     OW13679   3.278   1.659   5.162  0.3861 -0.3194 -0.1088
 2555SOL    HW113680   3.202   1.715   5.195  0.1515 -0.4840 -0.3598
 2555SOL    HW213681   3.247   1.604   5.085  0.4729 -1.1725  0.4550
 2556SOL     OW13682   1.368   2.750   0.378 -0.1521  0.5100 -0.7733
 2556SOL    HW113683   1.312   2.756   0.295 -1.1763 -0.9031 -0.2291
 2556SOL    HW213684   1.321   2.793   0.454  0.4326  1.0989 -0.7329
 2557SOL     OW13685   5.646   2.610   0.797 -0.3922  0.2375 -0.0755
 2557SOL    HW113686   5.723   2.547   0.783  0.3069  0.7540  1.3108
 2557SOL    HW213687   5.666   2.671   0.873 -0.9149  2.3738 -1.5538
 2558SOL     OW13688   0.602   0.658   5.878  0.5129 -0.1382  0.0509
 2558SOL    HW113689   0.571   0.747   5.844  1.8419  0.5880  0.6515
 2558SOL    HW213690   0.675   0.672   5.945 -0.3972 -1.6288  1.4152
 2559SOL     OW13691   5.104   4.332   1.090 -0.3825 -0.0609 -0.3295
 2559SOL    HW113692   5.086   4.410   1.030  1.6165  0.2080 -0.6497
 2559SOL    HW213693   5.031   4.325   1.158  0.2521  3.2605  0.8922
 2560SOL     OW13694   5.776   6.331   5.501  0.2955 -0.0928  0.3573
 2560SOL    HW113695   5.712   6.291   5.435  0.4058  0.6540 -0.2159
 2560SOL    HW213696   5.866   6.291   5.489 -0.3833 -2.3876  2.2815
 2561SOL     OW13697   4.140   4.712   1.868  0.1155 -0.3371 -0.3267
 2561SOL    HW113698   4.080   4.789   1.847 -1.7157 -0.6388  3.0331
 2561SOL    HW213699   4.208   4.741   1.936  1.6530 -0.8821 -1.5750
 2562SOL     OW13700   0.651   4.921   0.686  0.2426  0.0622  0.4651
 2562SOL    HW113701   0.610   4.982   0.618 -1.7493 -0.7097  0.8850
 2562SOL    HW213702   0.694   4.975   0.758 -1.9371  1.0653  1.1021
 2563SOL     OW13703   1.305   1.945   5.881  0.1895 -0.1307 -0.0714
 2563SOL    HW113704   1.375   2.015   5.887 -0.4081  0.3341  2.3407
 2563SOL    HW213705   1.219   1.979   5.919 -0.4903 -1.7288 -0.0558
 2564SOL     OW13706   5.353   2.822   1.052 -0.8785 -0.0450  0.1329
 2564SOL    HW113707   5.363   2.770   0.967  0.7512 -0.5731  0.6277
 2564SOL    HW213708   5.402   2.909   1.044  0.6208 -0.7696  1.0534
 2565SOL     OW13709   2.337   1.116   1.038  0.3409  1.0303 -0.2154
 2565SOL    HW113710   2.302   1.063   1.115  1.0089  0.7474 -0.1038
 2565SOL    HW213711   2.297   1.207   1.040 -0.1372  0.8207  0.0978
 2566SOL     OW13712   3.428   4.129   0.129 -0.3092  1.0047  0.1901
 2566SOL    HW113713   3.331   4.115   0.108  0.6748 -0.7841 -4.1292
 2566SOL    HW213714   3.472   4.041   0.144  1.2021  1.4657 -1.2265
 2567SOL     OW13715   3.870   0.561   6.068  0.0056  0.3329 -0.2339
 2567SOL    HW113716   3.905   0.569   5.975  0.8646  1.7683  0.1634
 2567SOL    HW213717   3.884   0.648   6.116 -1.3187 -0.0596  0.9367
 2568SOL     OW13718   3.546   3.891   0.222  0.1318  0.2438 -0.0288
 2568SOL    HW113719   3.451   3.869   0.247  0.5986 -2.2638 -0.1882
 2568SOL    HW213720   3.608   3.839   0.280  1.4890  2.6086  0.7387
 2569SOL     OW13721   3.301   3.971   2.066 -0.1647  0.3984 -0.2433
 2569SOL    HW113722   3.266   4.062   2.045 -1.8499 -0.0782  0.3600
 2569SOL    HW213723   3.246   3.902   2.020  1.6284 -0.3291 -1.4180
 2570SOL     OW13724   5.932   0.177   6.065  0.0018 -0.1740 -0.1787
 2570SOL    HW113725   6.019   0.200   6.108 -0.3395 -0.3104  0.6088
 2570SOL    HW213726   5.857   0.215   6.119 -0.4347 -0.1346 -0.8006
 2571SOL     OW13727   4.418   5.365   1.359 -0.2826  0.3197 -0.0894
 2571SOL    HW113728   4.328   5.331   1.385 -0.0383 -0.7260 -0.5466
 2571SOL    HW213729   4.485   5.337   1.428  0.0779 -1.0001 -0.9245
 2572SOL     OW13730   4.235   0.033   1.449  0.3571 -0.7775 -0.0788
 2572SOL    HW113731   4.231   0.104   1.519 -0.8999  0.1844 -1.0875
 2572SOL    HW213732   4.166  -0.037   1.470 -1.5840  0.6052 -1.4225
 2573SOL     OW13733   0.964   5.936   0.483  0.5023 -0.6266 -0.0556
 2573SOL    HW113734   0.939   5.876   0.559  0.4329  0.3690  0.7407
 2573SOL    HW213735   1.063   5.932   0.468  0.8719  0.8771  1.6453
 2574SOL     OW13736   2.154   2.558   4.645  0.6495 -0.4754 -0.2455
 2574SOL    HW113737   2.096   2.495   4.594 -2.1607  0.8026  1.1519
 2574SOL    HW213738   2.218   2.507   4.701 -0.0956 -2.0098 -0.7537
 2575SOL     OW13739   5.845   2.952   6.274  0.2444  0.3750  0.0055
 2575SOL    HW113740   5.818   3.003   6.356  0.1681 -0.6927  0.6679
 2575SOL    HW213741   5.876   3.016   6.204  1.0856  1.2767  1.1526
 2576SOL     OW13742   6.103   5.178   6.161 -0.4726 -0.1114  0.4359
 2576SOL    HW113743   6.074   5.102   6.219  0.3449  0.3770  1.5128
 2576SOL    HW213744   6.193   5.159   6.122 -0.2183  0.3509  0.7943
 2577SOL     OW13745   4.239   0.863   6.555  0.3193  0.0680  0.5194
 2577SOL    HW113746   4.322   0.858   6.500 -0.5948  0.1774 -0.9261
 2577SOL    HW213747   4.201   0.956   6.549  0.8223  0.4384  2.3346
 2578SOL     OW13748   5.862   0.881   6.020  0.0581 -0.2677  0.1522
 2578SOL    HW113749   5.891   0.826   6.098  0.0673  0.7311  0.8820
 2578SOL    HW213750   5.834   0.972   6.053 -1.2297 -0.2738 -0.8517
 2579SOL     OW13751   2.199   2.575   6.369  0.2633 -0.3376  0.1285
 2579SOL    HW113752   2.233   2.660   6.409 -1.3472  0.8427 -0.8973
 2579SOL    HW213753   2.159   2.517   6.440  0.7169  0.0780  0.7296
 2580SOL     OW13754   6.273   0.788   0.231 -0.0647  0.2097 -0.1468
 2580SOL    HW113755   6.257   0.693   0.255  0.8281 -0.2008 -1.1278
 2580SOL    HW213756   6.363   0.798   0.190  0.4742  1.7339  1.2790
 2581SOL     OW13757   0.587   1.027   0.214 -0.1635 -0.2369 -0.3860
 2581SOL    HW113758   0.656   0.956   0.204  0.6220  0.8177 -3.4682
 2581SOL    HW213759   0.631   1.116   0.228 -0.8369  0.3791 -1.9222
 2582SOL     OW13760   4.752   4.473   6.475 -0.0201  0.0917 -0.1137
 2582SOL    HW113761   4.749   4.383   6.518 -1.0464  1.0003  1.8374
 2582SOL    HW213762   4.848   4.503   6.468  0.1857  0.6730  3.4040
 2583SOL     OW13763   3.999   6.340   0.611  0.1594 -0.5974 -0.4101
 2583SOL    HW113764   4.086   6.317   0.653 -0.7792  1.2621  2.9639
 2583SOL    HW213765   3.961   6.260   0.565  1.7304 -2.6486  1.6632
 2584SOL     OW13766   4.171   3.307   0.526 -0.1033  0.4917  0.8048
 2584SOL    HW113767   4.140   3.397   0.556  2.3084  1.9073 -0.5989
 2584SOL    HW213768   4.163   3.301   0.426 -2.4115 -1.8168  1.0349
 2585SOL     OW13769   6.363   1.362   0.564 -0.2933 -0.2317 -0.1010
 2585SOL    HW113770   6.277   1.332   0.603 -0.4498  0.7739  0.3690
 2585SOL    HW213771   6.428   1.382   0.638 -0.0761  0.1940 -0.3984
 2586SOL     OW13772   6.024   3.074   5.718  0.2129 -0.0802 -0.4923
 2586SOL    HW113773   5.953   3.008   5.741  0.7373 -0.6950 -0.6148
 2586SOL    HW213774   6.083   3.036   5.647  0.9102  0.2637 -0.1050
 2587SOL     OW13775   1.277   0.565   6.481  0.1544 -0.1413 -0.5291
 2587SOL    HW113776   1.292   0.476   6.526  0.0527 -0.1789 -0.5696
 2587SOL    HW213777   1.328   0.568   6.395  2.2719  0.7954  0.6596
 2588SOL     OW13778   1.983   4.554   0.831 -0.4393 -0.2166 -0.5651
 2588SOL    HW113779   1.999   4.551   0.732  0.5549 -0.0111 -0.4216
 2588SOL    HW213780   1.993   4.462   0.869 -2.9750 -0.7220 -0.9402
 2589SOL     OW13781   4.855   0.450   0.878  0.8385  0.1535  0.0907
 2589SOL    HW113782   4.799   0.414   0.953 -0.7402  0.8843 -0.6915
 2589SOL    HW213783   4.936   0.495   0.916 -0.9310  2.3542  1.5794
 2590SOL     OW13784   0.075   5.293   1.282  0.0487  0.0299  0.3381
 2590SOL    HW113785   0.154   5.291   1.220 -0.2375  0.5111 -0.0467
 2590SOL    HW213786   0.079   5.214   1.343  0.2099 -0.5881 -0.4579
 2591SOL     OW13787   6.202   3.415   6.089  0.2390  0.1930  0.3742
 2591SOL    HW113788   6.217   3.508   6.123  3.7154 -0.0075 -0.3137
 2591SOL    HW213789   6.271   3.392   6.020 -1.1828 -2.5595 -0.3069
 2592SOL     OW13790   4.572   5.656   0.808  0.1771  0.1250  0.1930
 2592SOL    HW113791   4.494   5.636   0.868 -0.1276  2.0678  0.5299
 2592SOL    HW213792   4.644   5.589   0.823 -0.6364 -0.5196  1.3818
 2593SOL     OW13793   2.892   4.437   5.890 -0.3197 -0.3795  0.4647
 2593SOL    HW113794   2.851   4.349   5.865 -0.5640 -0.3207  0.6537
 2593SOL    HW213795   2.873   4.456   5.987 -0.9310  0.2394  0.2294
 2594SOL     OW13796   1.591   5.979   0.060  0.1773  0.3060  0.5891
 2594SOL    HW113797   1.682   6.004   0.094  0.5957  1.3252 -1.1611
 2594SOL    HW213798   1.599   5.941  -0.033 -0.9716 -1.8486  1.2923
 2595SOL     OW13799   6.273   5.513   0.370  0.1371 -0.0700 -0.6589
 2595SOL    HW113800   6.263   5.545   0.464  1.4693 -1.8478  0.1675
 2595SOL    HW213801   6.187   5.473   0.339 -0.4510  0.9618 -0.3896
 2596SOL     OW13802   4.218   4.028   0.316  0.5127 -0.2892  0.5077
 2596SOL    HW113803   4.131   4.007   0.272  0.5973 -0.1319  0.2674
 2596SOL    HW213804   4.225   4.127   0.330  0.9806 -0.2323 -0.1455
 2597SOL     OW13805   2.890   0.817   0.604 -0.5540 -0.5491  0.1475
 2597SOL    HW113806   2.865   0.914   0.611 -1.2575 -0.7137 -0.0558
 2597SOL    HW213807   2.974   0.801   0.657 -0.1216  0.2744 -0.2623
 2598SOL     OW13808   4.605   3.585   1.209 -0.3107 -0.2006  0.4299
 2598SOL    HW113809   4.604   3.578   1.309 -1.9010 -1.0033  0.3794
 2598SOL    HW213810   4.584   3.496   1.169 -1.0100  0.4097 -0.6058
 2599SOL     OW13811   0.676   3.252   6.434 -0.5438  0.2070  0.3123
 2599SOL    HW113812   0.705   3.206   6.518 -0.8407 -0.2437  0.1694
 2599SOL    HW213813   0.722   3.210   6.355 -0.1932  0.6905  0.2525
 2600SOL     OW13814   1.927   4.748   1.252  0.2622  0.3591 -0.6192
 2600SOL    HW113815   1.907   4.821   1.318 -0.2101 -0.3619  0.0538
 2600SOL    HW213816   1.942   4.788   1.162  0.0113  1.2914 -0.2593
 2601SOL     OW13817   6.294   2.568   6.589  0.4753 -0.1505 -0.6511
 2601SOL    HW113818   6.335   2.586   6.679  2.2430  0.6514 -1.5851
 2601SOL    HW213819   6.211   2.513   6.602  2.3831 -2.8680  1.2507
 2602SOL     OW13820   4.971   3.694   0.210 -0.3094 -0.4468 -0.2994
 2602SOL    HW113821   5.002   3.766   0.271 -0.4686 -0.3417 -0.3403
 2602SOL    HW213822   4.892   3.727   0.158 -1.3487 -1.1513  0.7714
 2603SOL     OW13823   4.940   5.446   1.040  0.3869 -0.0924 -0.1077
 2603SOL    HW113824   5.014   5.512   1.029  1.9664 -1.7535 -0.0347
 2603SOL    HW213825   4.872   5.460   0.968  0.7409  1.4854 -0.1749
 2604SOL     OW13826   3.239   3.248   0.327  0.3785 -0.0751 -0.1242
 2604SOL    HW113827   3.216   3.323   0.389 -0.0175 -0.9771  0.8603
 2604SOL    HW213828   3.182   3.253   0.245  1.7315  1.8188 -1.0158
 2605SOL     OW13829   0.444   4.602   6.577 -0.0950  0.0753  0.2431
 2605SOL    HW113830   0.413   4.625   6.484 -2.0743  1.3329  1.1327
 2605SOL    HW213831   0.367   4.564   6.629  1.0026 -0.6810  1.3651
 2606SOL     OW13832   0.193   0.429   6.390 -0.3633  0.4405 -0.3015
 2606SOL    HW113833   0.094   0.423   6.403 -0.2320 -0.0109  0.5475
 2606SOL    HW213834   0.232   0.489   6.461  0.2067 -0.9683  0.6162
 2607SOL     OW13835   5.812   5.294   0.765  0.0290  0.5977  0.1502
 2607SOL    HW113836   5.868   5.218   0.732 -0.4933  0.2939 -0.0427
 2607SOL    HW213837   5.801   5.288   0.864  0.3647  0.6793  0.1935
 2608SOL     OW13838   5.925   1.546   5.479  0.1658 -0.0094  0.7154
 2608SOL    HW113839   5.971   1.485   5.543 -0.4245 -1.3069 -0.0674
 2608SOL    HW213840   5.992   1.590   5.419  0.4061 -2.8182 -1.2453
 2609SOL     OW13841   0.631   3.221   0.465 -0.2071  0.0732  0.6579
 2609SOL    HW113842   0.686   3.185   0.540  2.3558 -0.1355 -1.1723
 2609SOL    HW213843   0.691   3.265   0.398 -2.4052  0.5668 -1.1224
 2610SOL     OW13844   0.852   5.517   6.316 -0.5287  0.7216  0.3376
 2610SOL    HW113845   0.791   5.589   6.282 -1.8445  0.2978  1.6731
 2610SOL    HW213846   0.945   5.553   6.324 -1.5813  3.1705  3.3979
 2611SOL     OW13847   5.754   6.190   0.537  0.0532 -0.1728 -0.0168
 2611SOL    HW113848   5.708   6.173   0.450 -0.7984  2.3010 -0.1261
 2611SOL    HW213849   5.798   6.280   0.535 -1.0183  0.5097  2.4850
 2612SOL     OW13850   4.978   5.887   0.205  0.2516  0.3351 -0.4929
 2612SOL    HW113851   4.888   5.855   0.236  0.4627 -2.6933 -2.5710
 2612SOL    HW213852   5.017   5.948   0.273 -2.7173  0.5201  1.1857
 2613SOL     OW13853   5.091   2.930   5.894  0.6099 -0.5101 -0.6987
 2613SOL    HW113854   5.131   2.998   5.832  2.0636 -1.0408 -0.3688
 2613SOL    HW213855   5.154   2.853   5.905  1.2931  0.3810  2.8751
 2614SOL     OW13856   5.930   5.076   0.609 -0.6968 -0.0134  0.7408
 2614SOL    HW113857   5.944   5.043   0.516 -0.4015  1.5142  0.2180
 2614SOL    HW213858   5.998   5.034   0.670 -0.4727 -0.5251  0.1465
 2615SOL     OW13859   5.720   0.646   5.725 -0.1236 -0.0439  0.0418
 2615SOL    HW113860   5.743   0.548   5.728  1.2254  0.2597  0.3716
 2615SOL    HW213861   5.684   0.669   5.635  0.4454 -0.6709 -0.3575
 2616SOL     OW13862   3.131   5.238   5.410 -0.1742 -0.0901 -0.5189
 2616SOL    HW113863   3.050   5.181   5.396  0.2092 -1.4998  2.3950
 2616SOL    HW213864   3.212   5.186   5.384 -0.0479  1.0444 -2.6718
 2617SOL     OW13865   5.370   6.282   6.324 -0.5501  0.3573 -0.2062
 2617SOL    HW113866   5.431   6.305   6.399 -1.2869  1.0160  0.2085
 2617SOL    HW213867   5.313   6.361   6.302 -2.4439 -0.7156  0.5528
 2618SOL     OW13868   1.361   5.999   0.195  0.4308  0.4776 -0.4877
 2618SOL    HW113869   1.356   6.099   0.196  0.9400  0.5112 -0.8732
 2618SOL    HW213870   1.451   5.970   0.161  0.2038 -0.1146 -0.6015
 2619SOL     OW13871   4.798   3.282   6.132  0.1937 -0.1435  0.0245
 2619SOL    HW113872   4.859   3.359   6.154  0.8249  0.2349 -2.6669
 2619SOL    HW213873   4.703   3.312   6.136  0.4140  0.6519 -0.4884
 2620SOL     OW13874   5.523   2.096   6.230  0.3550 -0.0658 -0.1624
 2620SOL    HW113875   5.509   2.097   6.329 -1.6201  0.6438 -0.3953
 2620SOL    HW213876   5.486   2.011   6.192 -1.6835  0.9523 -0.5800
 2621SOL     OW13877   4.982   4.132   5.668 -0.8394  0.4420  0.2742
 2621SOL    HW113878   4.973   4.128   5.568 -2.5665  0.0285  0.4159
 2621SOL    HW213879   5.028   4.217   5.694  0.9883 -0.1190 -0.9225
 2622SOL     OW13880   4.205   0.085   0.991 -0.0219 -0.0022 -0.6892
 2622SOL    HW113881   4.190   0.063   0.895 -2.2544  0.7647 -0.5683
 2622SOL    HW213882   4.247   0.176   0.998 -0.7979  0.3812 -0.9293
 2623SOL     OW13883   3.570   4.072   6.019 -0.4684 -0.0932 -0.6041
 2623SOL    HW113884   3.519   4.118   6.092  0.0526 -1.0342  0.3740
 2623SOL    HW213885   3.668   4.089   6.030 -0.4923  1.4260 -2.2847
 2624SOL     OW13886   1.790   1.463   5.444 -0.1023 -0.6310  0.3106
 2624SOL    HW113887   1.751   1.480   5.353 -0.5971 -2.0264  0.2385
 2624SOL    HW213888   1.889   1.478   5.440  0.0365 -1.6480 -0.7442
 2625SOL     OW13889   4.842   6.400   1.662  0.0505 -0.0430 -0.5064
 2625SOL    HW113890   4.895   6.318   1.640 -1.2666 -0.6657 -1.5112
 2625SOL    HW213891   4.840   6.461   1.582  0.2790  0.5565 -0.0603
 2626SOL     OW13892   2.240   0.381   1.808 -0.0944  0.2895 -0.5026
 2626SOL    HW113893   2.236   0.477   1.778  5.2851  1.2535  0.8043
 2626SOL    HW213894   2.315   0.335   1.760 -1.2041 -2.6963  0.4513
 2627SOL     OW13895   4.073   1.611   4.677  0.8258  0.0960  0.0284
 2627SOL    HW113896   4.026   1.545   4.736  1.1828 -0.0971  0.0940
 2627SOL    HW213897   4.172   1.602   4.688  0.8806  1.3195  0.8086
 2628SOL     OW13898   5.362   1.886   6.111 -0.2375 -0.3449 -0.6666
 2628SOL    HW113899   5.354   1.794   6.072  2.1600 -1.3169  0.8889
 2628SOL    HW213900   5.273   1.913   6.149 -1.0508 -1.9229 -1.3226
 2629SOL     OW13901   6.310   4.154   0.835 -0.4881 -0.5135  0.4400
 2629SOL    HW113902   6.354   4.214   0.903 -2.2606  1.2958  0.1057
 2629SOL    HW213903   6.343   4.178   0.744 -4.0407  2.9659 -0.1690
 2630SOL     OW13904   5.183   3.376   0.454 -0.8083  0.1113  0.0350
 2630SOL    HW113905   5.234   3.459   0.477 -1.2490  0.6540 -0.8576
 2630SOL    HW213906   5.140   3.388   0.364 -1.3242 -0.8839  0.1378
 2631SOL     OW13907   2.089   4.893   5.735  0.6401 -0.0003  0.0884
 2631SOL    HW113908   2.090   4.839   5.651 -0.4113 -0.0644  0.0982
 2631SOL    HW213909   2.148   4.973   5.725  1.7497 -0.8241 -0.1420
 2632SOL     OW13910   0.938   4.747   6.372 -0.5349  0.1838 -0.1067
 2632SOL    HW113911   0.969   4.842   6.375 -1.2274  0.4171 -0.1461
 2632SOL    HW213912   0.860   4.739   6.310  0.7038 -0.7664 -1.6265
 2633SOL     OW13913   4.460   3.800   1.461 -0.1700  0.1942  0.5482
 2633SOL    HW113914   4.408   3.742   1.524  0.4259  1.8215  2.6461
 2633SOL    HW213915   4.433   3.780   1.367 -0.4984 -2.9410  1.1941
 2634SOL     OW13916   4.811   4.163   6.298 -0.6817 -0.0353 -0.1035
 2634SOL    HW113917   4.773   4.256   6.286 -2.2343 -0.5791  0.2879
 2634SOL    HW213918   4.805   4.138   6.395  3.2006  0.8181  0.5157
 2635SOL     OW13919   2.715   5.701   5.160 -0.5180  0.7687 -0.0477
 2635SOL    HW113920   2.746   5.739   5.073  0.7935  2.4123  1.0815
 2635SOL    HW213921   2.779   5.630   5.190  0.6294  2.1672  0.9015
 2636SOL     OW13922   2.811   1.096   1.649 -0.4633 -0.4384 -0.0513
 2636SOL    HW113923   2.728   1.137   1.687 -0.1466  0.1540  0.0193
 2636SOL    HW213924   2.850   1.032   1.715 -1.0814 -1.0329 -0.2466
 2637SOL     OW13925   1.621   5.717   0.344  0.0288  0.4214  0.3818
 2637SOL    HW113926   1.716   5.721   0.314 -0.0744  0.2110  0.0122
 2637SOL    HW213927   1.587   5.623   0.334 -0.3240  0.5689  0.1569
 2638SOL     OW13928   6.060   1.909   1.090 -0.0386 -0.2453  0.1748
 2638SOL    HW113929   5.986   1.843   1.104 -0.8155  0.5376 -0.1655
 2638SOL    HW213930   6.062   1.974   1.167  1.2997 -1.1668  0.9727
 2639SOL     OW13931   2.686   3.979   0.289 -0.3279  0.2605  0.2385
 2639SOL    HW113932   2.673   3.883   0.311  2.4669  0.0571  1.3745
 2639SOL    HW213933   2.600   4.028   0.305 -1.5428 -1.8494  0.5660
 2640SOL     OW13934   2.848   5.860   1.435 -0.3238  0.7811 -0.6801
 2640SOL    HW113935   2.935   5.898   1.465 -0.1860  0.7468 -1.0330
 2640SOL    HW213936   2.788   5.935   1.405 -0.3404  0.7870 -0.6318
 2641SOL     OW13937   3.258   3.416   1.384  0.2737 -0.2840  0.3115
 2641SOL    HW113938   3.182   3.466   1.425 -0.1249 -1.1081  0.5922
 2641SOL    HW213939   3.224   3.358   1.310  0.1443 -2.7304  2.1705
 2642SOL     OW13940   5.176   5.108   5.306  0.3098 -0.4521 -0.0144
 2642SOL    HW113941   5.269   5.096   5.340  0.8718  1.6608 -0.6778
 2642SOL    HW213942   5.119   5.032   5.338  1.8818 -0.9792  1.7165
 2643SOL     OW13943   4.189   0.046   5.083  0.5338  0.1975 -0.5003
 2643SOL    HW113944   4.092   0.060   5.063  0.7355  3.7749  0.3310
 2643SOL    HW213945   4.242   0.051   4.998  0.2682  1.9071 -0.5877
 2644SOL     OW13946   4.114   2.081   5.759  0.1775 -0.0908  0.2566
 2644SOL    HW113947   4.140   2.079   5.663 -1.1947 -0.1326 -0.1416
 2644SOL    HW213948   4.146   2.166   5.801 -1.6064  1.3019 -1.0032
 2645SOL     OW13949   2.092   0.062   0.999 -0.1985 -0.4503  0.0084
 2645SOL    HW113950   2.020  -0.008   1.002 -0.8327  0.1223 -1.1625
 2645SOL    HW213951   2.169   0.029   0.945 -0.7880 -0.0096 -1.1312
 2646SOL     OW13952   3.792   2.657   0.971 -0.4814  0.1413 -0.2209
 2646SOL    HW113953   3.792   2.579   1.034  0.1315  0.7173  0.5141
 2646SOL    HW213954   3.869   2.717   0.993  0.3052 -0.0925 -2.1031
 2647SOL     OW13955   2.273   2.727   4.842  0.5057 -0.0347 -0.1516
 2647SOL    HW113956   2.234   2.662   4.776 -0.8263  0.0484  0.5216
 2647SOL    HW213957   2.268   2.820   4.804 -1.5708  0.2046  0.5725
 2648SOL     OW13958   2.553   3.527   6.536 -0.2140  0.4053  0.0925
 2648SOL    HW113959   2.512   3.526   6.628  0.1620 -1.3027  0.2737
 2648SOL    HW213960   2.564   3.433   6.503  3.8298  0.6531  0.2109
 2649SOL     OW13961   4.590   1.230   0.375 -0.6898 -0.2650  0.0450
 2649SOL    HW113962   4.624   1.154   0.320 -1.8780  1.0019 -2.6522
 2649SOL    HW213963   4.491   1.236   0.367 -0.6516  1.3723  0.4304
 2650SOL     OW13964   6.159   1.270   6.525  0.2090  0.5203 -0.4385
 2650SOL    HW113965   6.130   1.195   6.584 -1.9351  0.0684 -1.9649
 2650SOL    HW213966   6.163   1.238   6.430 -0.4373  2.2353 -1.0792
 2651SOL     OW13967   5.149   3.795   6.322  0.1326  0.2590 -0.1382
 2651SOL    HW113968   5.069   3.818   6.267 -0.3465 -0.9533  0.0253
 2651SOL    HW213969   5.169   3.698   6.313 -0.3781 -0.1354  2.3506
 2652SOL     OW13970   2.801   1.726   5.197  0.3648  0.0028  0.4195
 2652SOL    HW113971   2.864   1.702   5.123  0.5825 -1.6529  1.1030
 2652SOL    HW213972   2.812   1.662   5.273 -1.1788  0.5133  1.1266
 2653SOL     OW13973   3.409   1.713   0.059 -0.4384 -0.0752  0.0233
 2653SOL    HW113974   3.455   1.642   0.005  1.5025  0.9230  0.2892
 2653SOL    HW213975   3.407   1.686   0.155 -3.5755 -1.6867 -0.3833
 2654SOL     OW13976   0.732   1.102   0.846  0.7729 -0.1820  0.0440
 2654SOL    HW113977   0.775   1.045   0.776  0.4096  0.4091 -0.6787
 2654SOL    HW213978   0.796   1.118   0.921  1.6325  0.2458 -0.7650
 2655SOL     OW13979   2.566   2.843   1.145  0.1281 -0.1064  0.5064
 2655SOL    HW113980   2.493   2.882   1.200  0.4595 -0.1187  0.9614
 2655SOL    HW213981   2.643   2.907   1.141 -0.0064  0.0178 -0.1818
 2656SOL     OW13982   0.126   4.241   0.683 -0.0785 -0.3000  0.0417
 2656SOL    HW113983   0.129   4.340   0.665  1.4968 -0.4526 -0.6843
 2656SOL    HW213984   0.207   4.215   0.735  0.7186 -1.5693 -1.7510
 2657SOL     OW13985   2.732   3.732   5.608  0.0489  0.2686  0.3082
 2657SOL    HW113986   2.658   3.734   5.540 -1.2416  0.2266  1.6733
 2657SOL    HW213987   2.820   3.740   5.561 -0.8951  3.5700 -1.1308
 2658SOL     OW13988   4.338   0.666   5.637  0.2081 -0.3413 -0.0432
 2658SOL    HW113989   4.317   0.760   5.665 -3.2219 -0.8915 -0.3691
 2658SOL    HW213990   4.261   0.628   5.586  2.1694 -2.8322 -1.3797
 2659SOL     OW13991   3.326   0.616   6.465 -0.4659  0.5054  0.7611
 2659SOL    HW113992   3.267   0.695   6.484  0.9772  1.6626  0.6690
 2659SOL    HW213993   3.399   0.611   6.534  0.9871  0.8559 -0.6742
 2660SOL     OW13994   4.535   6.289   6.213 -0.2084 -0.0168  0.3178
 2660SOL    HW113995   4.446   6.307   6.171  0.4529  1.7675 -0.4120
 2660SOL    HW213996   4.555   6.361   6.280  0.7546 -0.2866  0.3332
 2661SOL     OW13997   1.119   5.958   6.064 -0.1058  0.1982 -0.4701
 2661SOL    HW113998   1.070   6.042   6.040 -1.0478 -0.1630  0.1437
 2661SOL    HW213999   1.054   5.883   6.075  0.7625 -0.7318 -1.4342
 2662SOL     OW14000   1.704   2.867   5.393 -0.2174  0.3830  0.2084
 2662SOL    HW114001   1.677   2.803   5.321 -0.8662  0.8724  0.0025
 2662SOL    HW214002   1.744   2.817   5.470  2.7690  0.0252 -1.4535
 2663SOL     OW14003   4.651   6.222   5.479 -0.1880 -0.0746  0.1849
 2663SOL    HW114004   4.564   6.200   5.435 -1.6362  2.0384  1.7640
 2663SOL    HW214005   4.661   6.321   5.485  2.3639 -0.2670  0.0651
 2664SOL     OW14006   1.087   4.745   6.039 -0.0068  0.1512  0.4217
 2664SOL    HW114007   0.998   4.757   6.084 -0.0194  0.3728  0.3429
 2664SOL    HW214008   1.116   4.650   6.047  0.1643  0.2664  1.2182
 2665SOL     OW14009   4.818   1.288   0.647  0.1460 -0.2864 -0.1675
 2665SOL    HW114010   4.857   1.315   0.559  0.9136  0.4804  0.3880
 2665SOL    HW214011   4.888   1.296   0.719 -0.7568  0.1900  0.6932
 2666SOL     OW14012   0.142   5.984   1.016  0.7021 -0.3004 -0.2063
 2666SOL    HW114013   0.164   5.905   1.073 -0.6567 -1.5003 -1.2793
 2666SOL    HW214014   0.098   6.054   1.072  0.5913 -0.9078  0.4876
 2667SOL     OW14015   3.090   1.785   0.207 -0.3681  0.5812 -0.3411
 2667SOL    HW114016   3.145   1.813   0.129  2.5480 -1.2610  0.8914
 2667SOL    HW214017   3.104   1.849   0.283  1.5023 -0.7378  0.4996
 2668SOL     OW14018   2.272   2.756   0.264  0.1557 -0.5566  0.2788
 2668SOL    HW114019   2.360   2.787   0.230  0.9194 -2.2472  0.6230
 2668SOL    HW214020   2.245   2.811   0.343 -0.3389  1.6110 -1.3087
 2669SOL     OW14021   1.019   0.259   6.290 -0.1772  0.0075 -0.0340
 2669SOL    HW114022   1.025   0.205   6.374 -0.4453 -0.1181 -0.0955
 2669SOL    HW214023   0.978   0.204   6.217 -1.4096  0.6153  0.1751
 2670SOL     OW14024   4.417   2.536   5.299  0.4670 -0.1949 -0.0973
 2670SOL    HW114025   4.417   2.443   5.262 -0.3896 -0.8985  1.5712
 2670SOL    HW214026   4.365   2.596   5.238  1.1417 -0.7357 -1.2633
 2671SOL     OW14027   4.686   3.101   0.259  0.2382  0.4048  0.2695
 2671SOL    HW114028   4.780   3.093   0.226  0.6911  1.8949  1.1158
 2671SOL    HW214029   4.639   3.173   0.208 -1.2525 -1.8459 -1.7867
 2672SOL     OW14030   5.081   4.689   6.578  0.7572  0.1130  0.4083
 2672SOL    HW114031   5.095   4.601   6.532 -2.5634 -0.5150  0.3441
 2672SOL    HW214032   5.042   4.673   6.669  2.9688  1.5004  1.7007
 2673SOL     OW14033   0.173   2.772   5.858 -0.2351  0.9268  0.1591
 2673SOL    HW114034   0.209   2.785   5.950  0.9653 -0.4672 -0.0899
 2673SOL    HW214035   0.247   2.786   5.791 -0.9109  1.1671 -0.5508
 2674SOL     OW14036   2.958   4.578   6.135  0.0126  0.6257 -0.1174
 2674SOL    HW114037   2.957   4.500   6.198 -1.7851  1.4442  0.9366
 2674SOL    HW214038   2.870   4.626   6.139  1.3801  3.2949 -0.0114
 2675SOL     OW14039   3.758   4.399   6.137 -0.3965  0.0283  0.3309
 2675SOL    HW114040   3.695   4.442   6.073  1.4494  0.8217 -1.0628
 2675SOL    HW214041   3.761   4.301   6.120  0.4902  0.2941 -1.2652
 2676SOL     OW14042   3.301   3.671   5.241 -0.0495 -0.2421 -0.4008
 2676SOL    HW114043   3.267   3.665   5.148  1.6719 -1.1974 -1.0214
 2676SOL    HW214044   3.329   3.766   5.260 -1.8915  0.3006 -0.2575
 2677SOL     OW14045   3.028   1.935   4.732 -0.2382 -0.1799  1.0274
 2677SOL    HW114046   3.051   1.989   4.650 -1.0441  0.1994  1.0417
 2677SOL    HW214047   3.027   1.838   4.708 -0.8790 -0.0453  0.4822
 2678SOL     OW14048   6.295   0.484   5.689 -0.3409 -0.0547 -0.0429
 2678SOL    HW114049   6.288   0.583   5.683  0.3731  0.1356  1.7491
 2678SOL    HW214050   6.359   0.459   5.761  0.8389 -1.8308 -1.6004
 2679SOL     OW14051   2.571   1.792   0.525 -0.8051 -0.2341 -0.3540
 2679SOL    HW114052   2.529   1.870   0.571  0.0117  0.4026 -0.6624
 2679SOL    HW214053   2.584   1.718   0.591  0.4637  0.7096  0.4926
 2680SOL     OW14054   3.048   2.502   6.582  0.0739  0.5812 -0.8977
 2680SOL    HW114055   2.997   2.492   6.668  2.0265 -1.5904  0.1016
 2680SOL    HW214056   3.002   2.452   6.510 -0.7846  1.1812 -0.7886
 2681SOL     OW14057   0.813   3.203   0.656 -0.3233  0.5333  0.0139
 2681SOL    HW114058   0.768   3.264   0.721  1.1043  0.5386  1.0655
 2681SOL    HW214059   0.863   3.132   0.707  0.3975  0.2199 -1.0952
 2682SOL     OW14060   3.247   1.277   6.240 -0.4360 -0.2668  0.0444
 2682SOL    HW114061   3.259   1.193   6.293 -1.7732 -0.4044  0.1596
 2682SOL    HW214062   3.230   1.354   6.302  1.7051  0.3183  0.0039
 2683SOL     OW14063   6.411   1.682   0.130  0.3798  0.2950  0.6016
 2683SOL    HW114064   6.313   1.663   0.135  0.3349  0.3014 -0.1507
 2683SOL    HW214065   6.426   1.770   0.085  0.7918 -0.6109 -1.1011
 2684SOL     OW14066   2.222   1.046   5.742 -0.0134 -0.0294 -0.3425
 2684SOL    HW114067   2.161   1.125   5.741 -0.2190 -0.1846 -0.1242
 2684SOL    HW214068   2.171   0.964   5.770  0.7833  0.2599  2.2760
 2685SOL     OW14069   2.952   0.334   1.103 -0.3775 -0.1945 -0.2052
 2685SOL    HW114070   2.987   0.246   1.070 -1.4183 -0.8284  0.3247
 2685SOL    HW214071   2.972   0.405   1.036  1.7557 -0.5367 -0.0234
 2686SOL     OW14072   3.544   4.892   5.229  0.8303 -0.4925  0.0957
 2686SOL    HW114073   3.525   4.810   5.283  0.0491  0.2686  1.0312
 2686SOL    HW214074   3.592   4.867   5.145  1.6575 -1.7658  0.9130
 2687SOL     OW14075   3.094   0.845   1.583  0.2458 -0.2837 -0.3640
 2687SOL    HW114076   3.080   0.825   1.680  0.5869 -0.6570 -0.3877
 2687SOL    HW214077   3.085   0.944   1.568 -3.4206 -0.5015 -0.5621
 2688SOL     OW14078   0.403   3.312   6.337 -0.2958 -0.4418  0.3002
 2688SOL    HW114079   0.338   3.237   6.348 -1.5101  0.4662 -0.4618
 2688SOL    HW214080   0.492   3.284   6.371 -0.8547 -2.0441  0.5164
 2689SOL     OW14081   2.406   0.482   0.154  0.1724 -0.0080 -0.5724
 2689SOL    HW114082   2.422   0.573   0.115  0.5591  0.3956  0.5082
 2689SOL    HW214083   2.332   0.438   0.103 -0.6591  1.2739 -0.5372
 2690SOL     OW14084   3.491   0.322   5.475  0.2426  0.0362  0.8408
 2690SOL    HW114085   3.426   0.290   5.545 -2.4983  3.3554  0.0831
 2690SOL    HW214086   3.563   0.376   5.519 -0.6469  0.8973  1.2883
 2691SOL     OW14087   4.820   4.366   5.520 -0.3246 -0.1558 -0.1341
 2691SOL    HW114088   4.912   4.397   5.545 -0.4794  0.2866 -0.1120
 2691SOL    HW214089   4.819   4.339   5.424  0.0094 -0.8614  0.0483
 2692SOL     OW14090   4.140   3.874   0.781 -0.6144 -0.0618  0.0034
 2692SOL    HW114091   4.155   3.883   0.880 -2.0560 -0.9540  0.3374
 2692SOL    HW214092   4.046   3.902   0.759  0.3395  2.2391 -1.4766
 2693SOL     OW14093   6.211   6.200   5.856  0.2951 -0.0134 -0.1488
 2693SOL    HW114094   6.181   6.133   5.924 -0.7213 -0.0400 -0.6052
 2693SOL    HW214095   6.138   6.266   5.839  0.4161 -0.2002 -1.4606
 2694SOL     OW14096   2.595   3.352   1.031 -0.0349 -0.1149  0.5273
 2694SOL    HW114097   2.613   3.290   0.955 -1.8588  0.4297 -0.4069
 2694SOL    HW214098   2.675   3.410   1.047  0.4115 -0.3034 -0.9170
 2695SOL     OW14099   3.454   5.915   6.013 -0.1235  0.0562 -0.4344
 2695SOL    HW114100   3.490   5.993   5.962 -1.6514  0.9862 -0.1371
 2695SOL    HW214101   3.443   5.940   6.109 -0.0320 -0.7477 -0.2074
 2696SOL     OW14102   2.850   0.270   5.684 -0.3738 -0.1827 -0.3863
 2696SOL    HW114103   2.948   0.276   5.670 -0.2913 -1.0065 -0.2130
 2696SOL    HW214104   2.810   0.362   5.681  0.7485  0.4796  2.0971
 2697SOL     OW14105   5.230   3.129   5.719  0.1913  1.0562  0.5668
 2697SOL    HW114106   5.306   3.122   5.655 -0.3516 -0.2826  0.0335
 2697SOL    HW214107   5.185   3.218   5.709  1.3613  1.6563  0.5396
 2698SOL     OW14108   4.136   4.259   4.444 -0.0773 -0.7758 -0.5215
 2698SOL    HW114109   4.162   4.346   4.402  0.4478 -0.5101  0.3352
 2698SOL    HW214110   4.190   4.185   4.405  1.9507 -0.2628  1.0993
 2699SOL     OW14111   5.866   3.379   6.182 -0.0686  0.1877  0.0487
 2699SOL    HW114112   5.814   3.317   6.123 -0.1010  0.3339 -0.0765
 2699SOL    HW214113   5.874   3.339   6.273  0.4511 -0.2946 -0.1996
 2700SOL     OW14114   4.961   1.078   6.318 -0.2820 -1.2938  0.2962
 2700SOL    HW114115   4.941   0.987   6.354  0.6879 -1.6804 -0.1202
 2700SOL    HW214116   4.918   1.088   6.228  1.6648 -2.2836 -0.7919
 2701SOL     OW14117   2.099   1.464   0.632  0.1703 -0.3012 -0.3687
 2701SOL    HW114118   2.152   1.404   0.572  1.0499 -1.4168  1.4431
 2701SOL    HW214119   2.036   1.409   0.686 -1.1811  0.7717 -0.8104
 2702SOL     OW14120   0.538   3.603   5.308  0.2439  0.0038  0.3938
 2702SOL    HW114121   0.443   3.602   5.341  0.3792 -0.7504  0.7744
 2702SOL    HW214122   0.539   3.624   5.210 -0.3980 -1.0532  0.1465
 2703SOL     OW14123   2.572   6.149   5.340 -0.3734  0.5165 -0.4262
 2703SOL    HW114124   2.612   6.102   5.419 -0.1274 -1.7874 -1.8377
 2703SOL    HW214125   2.640   6.211   5.301 -0.4618  1.6058  1.0477
 2704SOL     OW14126   3.883   1.828   5.366 -0.1640 -0.2290 -0.1726
 2704SOL    HW114127   3.890   1.883   5.283  1.0493 -3.4965 -2.4366
 2704SOL    HW214128   3.970   1.829   5.415  0.3616 -1.2450 -1.0449
 2705SOL     OW14129   6.246   4.434   6.248 -0.0740 -0.4022  0.5235
 2705SOL    HW114130   6.268   4.505   6.181  0.3007  0.2935  1.3659
 2705SOL    HW214131   6.165   4.384   6.218  0.8315 -0.9761 -1.0939
 2706SOL     OW14132   2.958   3.015   5.519  0.0266  0.7200  0.4771
 2706SOL    HW114133   3.029   2.945   5.513 -0.3257  0.4291 -0.6060
 2706SOL    HW214134   2.951   3.048   5.613  1.6232  0.7993  0.5944
 2707SOL     OW14135   3.322   5.060   5.882 -0.2469 -1.0522 -0.1943
 2707SOL    HW114136   3.388   4.988   5.901  0.2654 -0.5902 -0.1914
 2707SOL    HW214137   3.229   5.025   5.894 -0.0286 -1.9300 -0.9757
 2708SOL     OW14138   6.092   1.654   5.275  0.2828  0.1244 -0.4921
 2708SOL    HW114139   6.104   1.753   5.274 -0.6204  0.2518 -2.6724
 2708SOL    HW214140   6.075   1.621   5.182  1.1627 -2.1696  0.0872
 2709SOL     OW14141   0.117   5.862   0.779 -0.1935  0.7887 -0.5855
 2709SOL    HW114142   0.116   5.908   0.868  0.8800  0.9115 -0.6274
 2709SOL    HW214143   0.138   5.929   0.708  0.0240  0.4843 -0.8065
 2710SOL     OW14144   0.684   1.490   6.557 -0.0217 -0.2684 -0.1627
 2710SOL    HW114145   0.634   1.409   6.530 -1.0558  0.1527  0.4518
 2710SOL    HW214146   0.719   1.479   6.650  0.9497 -0.5121 -0.5417
 2711SOL     OW14147   5.801   0.003   0.199 -0.1617 -0.1223  0.0558
 2711SOL    HW114148   5.877  -0.021   0.138 -2.2375 -0.4303 -2.5639
 2711SOL    HW214149   5.747  -0.079   0.217  0.2571  0.0202  2.2052
 2712SOL     OW14150   4.132   5.966   4.854  0.3320 -0.3925 -0.3440
 2712SOL    HW114151   4.202   6.032   4.880  0.2985 -1.1452  1.7893
 2712SOL    HW214152   4.109   5.979   4.757  0.6867  2.3747 -0.1321
 2713SOL     OW14153   5.101   5.517   5.825 -0.2644  0.4186  0.5705
 2713SOL    HW114154   5.079   5.494   5.920  0.6971 -1.2207  0.4381
 2713SOL    HW214155   5.138   5.609   5.820  0.7103  0.1270  1.9606
 2714SOL     OW14156   1.988   2.264   0.907 -0.2998 -0.4077  0.3810
 2714SOL    HW114157   2.061   2.254   0.974  0.8161  2.1297 -0.3437
 2714SOL    HW214158   1.901   2.278   0.953  0.2790  0.2476  1.2967
 2715SOL     OW14159   1.096   1.782   1.105 -0.7604  0.4868 -0.1419
 2715SOL    HW114160   1.094   1.814   1.010  0.1094  1.9654  0.3065
 2715SOL    HW214161   1.098   1.682   1.106 -1.1430  0.4283 -1.6628
 2716SOL     OW14162   5.636   4.127   0.504 -0.3255 -0.3601  0.0448
 2716SOL    HW114163   5.622   4.062   0.429  1.7382  0.0798 -0.7881
 2716SOL    HW214164   5.713   4.186   0.483 -2.4530  2.8066  0.5197
 2717SOL     OW14165   2.851   2.953   0.881 -0.0728  0.7240 -0.4558
 2717SOL    HW114166   2.865   2.854   0.885 -0.7939  0.6522  0.6828
 2717SOL    HW214167   2.939   2.999   0.894 -0.0357  0.2359  1.2852
 2718SOL     OW14168   1.703   0.475   0.933 -0.0431  0.2166 -0.2892
 2718SOL    HW114169   1.665   0.411   0.865  1.3713 -0.1572 -0.7531
 2718SOL    HW214170   1.782   0.521   0.894  1.0452 -0.2908  1.2461
 2719SOL     OW14171   4.929   2.207   6.267  0.2841 -0.2048  0.3178
 2719SOL    HW114172   4.957   2.292   6.221 -0.2920  1.1179  2.2399
 2719SOL    HW214173   5.003   2.177   6.328 -0.1242 -0.1396  0.8555
 2720SOL     OW14174   4.815   0.058   6.240 -0.3268 -0.2353 -0.5033
 2720SOL    HW114175   4.771   0.075   6.152  0.0544  1.5071 -0.3839
 2720SOL    HW214176   4.746   0.042   6.310 -0.6592 -0.4814 -0.8858
 2721SOL     OW14177   3.318   2.988   0.334  0.2512  0.0139 -1.5520
 2721SOL    HW114178   3.323   3.087   0.320 -0.5095  0.0706 -1.4577
 2721SOL    HW214179   3.222   2.961   0.346  0.6129 -0.4329  0.6747
 2722SOL     OW14180   2.016   6.150   6.505 -0.1253 -0.8094  0.6150
 2722SOL    HW114181   2.090   6.082   6.506  0.1982 -0.4750  0.0937
 2722SOL    HW214182   1.971   6.149   6.416 -0.5519 -0.8003  0.8296
 2723SOL     OW14183   5.392   0.906   6.284  0.1351 -0.9022  0.1116
 2723SOL    HW114184   5.348   0.993   6.260 -1.1799 -1.0310  1.9099
 2723SOL    HW214185   5.401   0.850   6.201 -0.6622  0.1983 -0.7499
 2724SOL     OW14186   5.797   2.235   5.532 -0.4671 -0.0827  0.1873
 2724SOL    HW114187   5.786   2.297   5.454 -2.4938 -0.7597 -0.1560
 2724SOL    HW214188   5.858   2.160   5.506 -1.7693 -0.7546 -1.1122
 2725SOL     OW14189   0.820   1.011   0.541  0.4205 -0.6413 -0.1358
 2725SOL    HW114190   0.810   1.093   0.485  1.1110 -0.0676  0.5623
 2725SOL    HW214191   0.767   0.937   0.501 -1.4014  0.5354  0.0050
 2726SOL     OW14192   5.644   5.400   6.552 -0.3652  0.2437 -0.0984
 2726SOL    HW114193   5.664   5.470   6.621  0.2459 -0.1636  0.1491
 2726SOL    HW214194   5.561   5.351   6.577 -1.4612  1.6509 -0.8883
 2727SOL     OW14195   0.783   5.243   0.535  0.5918  0.1584  0.4288
 2727SOL    HW114196   0.688   5.212   0.537  0.6824 -0.0663  1.8361
 2727SOL    HW214197   0.809   5.261   0.440 -0.1125 -2.0502 -0.2446
 2728SOL     OW14198   2.378   0.926   5.277  0.5172  0.5037 -0.0892
 2728SOL    HW114199   2.329   1.006   5.244  1.6290  0.9196 -0.7652
 2728SOL    HW214200   2.383   0.929   5.377 -0.0638  0.9021 -0.0665
 2729SOL     OW14201   0.103   5.578   1.167 -0.3087  0.0541  0.2399
 2729SOL    HW114202   0.027   5.632   1.131  0.5170 -0.8949 -3.2665
 2729SOL    HW214203   0.073   5.484   1.181  0.0568 -0.2246 -0.7528
 2730SOL     OW14204   4.409   5.629   6.478  0.3616  0.4381  0.0853
 2730SOL    HW114205   4.363   5.541   6.468  0.2613  0.6551 -1.6425
 2730SOL    HW214206   4.348   5.702   6.449  1.7142  0.7302 -2.2713
 2731SOL     OW14207   2.843   1.136   6.404 -0.3556  0.7397 -0.5853
 2731SOL    HW114208   2.851   1.213   6.342  0.4314  0.4715 -0.8235
 2731SOL    HW214209   2.852   1.168   6.499  3.0502  0.6256 -0.7433
 2732SOL     OW14210   0.856   0.439   0.077 -0.1837  0.0675  0.1402
 2732SOL    HW114211   0.847   0.532   0.043 -0.1967 -0.7759 -2.3764
 2732SOL    HW214212   0.804   0.377   0.020  1.5746 -1.7618  0.3905
 2733SOL     OW14213   1.512   4.676   5.022  0.4125 -0.5664 -0.0395
 2733SOL    HW114214   1.595   4.710   4.979 -0.4694  0.2497 -1.1696
 2733SOL    HW214215   1.494   4.582   4.993  1.2757 -0.9995  0.7558
 2734SOL     OW14216   5.093   4.841   6.327  0.9770  0.0851  0.5290
 2734SOL    HW114217   5.083   4.809   6.421  1.3679  0.6472  0.7664
 2734SOL    HW214218   5.041   4.781   6.266 -0.5071  0.5636  1.2615
 2735SOL     OW14219   2.345   1.720   5.365  0.4021  0.1689  0.0066
 2735SOL    HW114220   2.297   1.799   5.327 -0.6983 -0.2258  0.5330
 2735SOL    HW214221   2.408   1.751   5.437  0.5377  0.6302 -0.3038
 2736SOL     OW14222   0.948   3.119   6.318 -0.1837 -0.0255  0.9795
 2736SOL    HW114223   0.938   3.105   6.416  0.3610 -3.2398  0.6878
 2736SOL    HW214224   0.966   3.215   6.300  1.0084  0.4713  4.1429
 2737SOL     OW14225   2.844   3.358   5.862 -0.4832  0.3702 -0.2375
 2737SOL    HW114226   2.764   3.312   5.823 -0.7417  1.1038 -0.5912
 2737SOL    HW214227   2.926   3.328   5.813 -0.5951 -0.0375 -0.1800
 2738SOL     OW14228   2.912   5.529   5.237  0.3926  0.2867 -0.7536
 2738SOL    HW114229   2.972   5.571   5.169 -0.2208  0.5020 -1.1748
 2738SOL    HW214230   2.931   5.568   5.327 -0.4571  1.8355 -1.1969
 2739SOL     OW14231   2.421   2.169   5.992  0.1548  0.2528 -0.2148
 2739SOL    HW114232   2.419   2.208   6.084 -1.6728 -0.5886  0.1443
 2739SOL    HW214233   2.347   2.208   5.937 -0.0349 -0.7203 -0.6805
 2740SOL     OW14234   4.752   5.310   5.943  0.0632 -1.0998 -0.4929
 2740SOL    HW114235   4.808   5.236   5.905 -1.6553 -1.9864 -1.3975
 2740SOL    HW214236   4.700   5.354   5.870 -1.3862 -1.1462  0.4817
 2741SOL     OW14237   3.967   0.108   6.145  0.9692  0.1507 -0.3332
 2741SOL    HW114238   4.040   0.130   6.081  1.5962  0.3931  0.4569
 2741SOL    HW214239   3.938   0.013   6.132  0.9840  0.2432 -1.0707
 2742SOL     OW14240   0.408   0.614   1.211  0.2369 -0.7476  0.4552
 2742SOL    HW114241   0.490   0.575   1.254  0.0799  0.4787  1.9780
 2742SOL    HW214242   0.339   0.632   1.281  0.6078  2.9422  0.0800
 2743SOL     OW14243   3.892   5.318   0.630 -0.5619 -0.0298 -0.7019
 2743SOL    HW114244   3.844   5.262   0.698 -1.1907  0.5807 -0.6390
 2743SOL    HW214245   3.943   5.390   0.677 -2.2524  1.3796 -0.9094
 2744SOL     OW14246   2.880   6.331   0.245  0.1539  0.1312  0.3432
 2744SOL    HW114247   2.794   6.356   0.292 -0.0837  3.2923 -1.4561
 2744SOL    HW214248   2.926   6.415   0.215  2.7965 -1.5864 -0.7126
 2745SOL     OW14249   5.423   4.645   0.925 -0.1058 -0.7195 -0.5653
 2745SOL    HW114250   5.399   4.724   0.869 -0.8663 -0.7696 -0.3133
 2745SOL    HW214251   5.508   4.664   0.975  0.3155 -0.4932 -1.3520
 2746SOL     OW14252   1.643   4.615   6.374 -0.2493  0.3787 -0.1319
 2746SOL    HW114253   1.695   4.544   6.420  0.5921 -2.4902 -4.8779
 2746SOL    HW214254   1.545   4.596   6.382 -0.0198 -1.7356 -1.7154
 2747SOL     OW14255   5.779   5.316   1.016  0.7371  0.5558 -0.0412
 2747SOL    HW114256   5.781   5.355   1.108 -0.0005 -0.5776  0.4768
 2747SOL    HW214257   5.707   5.246   1.011  0.2174  1.1776 -1.7173
 2748SOL     OW14258   3.932   0.673   5.649  0.2359 -0.0543  0.5824
 2748SOL    HW114259   3.871   0.686   5.728  2.3546 -1.9440  2.6685
 2748SOL    HW214260   3.993   0.752   5.641  1.4309 -0.7489  2.2647
 2749SOL     OW14261   4.573   1.600   0.261  0.0654 -0.2667  0.3276
 2749SOL    HW114262   4.633   1.663   0.210  0.2228 -1.5852 -1.1867
 2749SOL    HW214263   4.507   1.654   0.315  2.0215  1.2085  1.3829
 2750SOL     OW14264   5.297   5.302   6.474 -0.3457  0.2462  0.2643
 2750SOL    HW114265   5.304   5.202   6.483  0.8920  0.4672  2.3876
 2750SOL    HW214266   5.201   5.328   6.462 -0.7660 -1.1382  0.4713
 2751SOL     OW14267   1.334   0.318   6.109  0.0292  0.0191  0.3420
 2751SOL    HW114268   1.366   0.394   6.053 -0.4382  1.0254  1.4079
 2751SOL    HW214269   1.234   0.314   6.105  0.0526 -0.6120  0.2204
 2752SOL     OW14270   1.826   5.544   0.887  0.5729  0.2027 -0.1432
 2752SOL    HW114271   1.804   5.507   0.797  0.3083  0.2616 -0.1023
 2752SOL    HW214272   1.923   5.571   0.888  0.9440 -1.0490  0.0236
 2753SOL     OW14273   4.658   3.841   2.156  0.0800 -0.2675 -0.0710
 2753SOL    HW114274   4.573   3.881   2.122 -0.6586 -2.1702 -0.5970
 2753SOL    HW214275   4.647   3.816   2.252 -0.0424 -0.7025 -0.1948
 2754SOL     OW14276   4.291   1.588   5.445 -0.1268 -0.0595  0.0354
 2754SOL    HW114277   4.310   1.493   5.423  0.4820 -0.2035  1.1209
 2754SOL    HW214278   4.244   1.593   5.533 -0.3827  0.6344 -0.1320
 2755SOL     OW14279   4.037   3.101   0.806 -0.5392 -0.1846 -0.2743
 2755SOL    HW114280   3.994   3.163   0.740 -1.2218 -0.4987 -0.1272
 2755SOL    HW214281   4.037   3.008   0.770 -2.2917 -0.6408  0.7699
 2756SOL     OW14282   5.541   4.638   1.203 -0.0028 -0.0413  0.1855
 2756SOL    HW114283   5.603   4.645   1.281  0.1123  0.5355  0.0513
 2756SOL    HW214284   5.581   4.576   1.135 -0.1206 -0.5720  0.5904
 2757SOL     OW14285   5.427   4.126   5.862 -0.3892 -0.3749  0.2328
 2757SOL    HW114286   5.361   4.096   5.930 -0.0235  0.2198  0.8617
 2757SOL    HW214287   5.394   4.209   5.816 -0.3698 -0.4404  0.0987
 2758SOL     OW14288   0.975   2.174   5.001 -0.1916 -0.1636  0.3788
 2758SOL    HW114289   0.971   2.234   4.921 -0.6855 -0.6939 -0.0098
 2758SOL    HW214290   0.895   2.114   5.001 -0.6221  0.3812  1.7266
 2759SOL     OW14291   3.743   5.200   1.353 -0.2243 -0.2404  0.3905
 2759SOL    HW114292   3.797   5.217   1.270 -1.5981  1.1460 -0.2648
 2759SOL    HW214293   3.804   5.205   1.433  0.4751  2.7412 -0.1945
 2760SOL     OW14294   5.318   1.265   0.010 -0.4917  0.5337  0.2201
 2760SOL    HW114295   5.401   1.230  -0.033 -0.7019  0.3087 -0.0100
 2760SOL    HW214296   5.240   1.253  -0.053 -0.9786 -0.6699  1.0304
 2761SOL     OW14297   3.589   0.099   0.721  0.1736  0.0018  0.0038
 2761SOL    HW114298   3.675   0.059   0.752  0.2320 -2.5881 -3.0559
 2761SOL    HW214299   3.514   0.068   0.780  1.0413  1.1665  1.8384
 2762SOL     OW14300   4.569   5.022   5.841 -0.1510 -0.3004  0.1551
 2762SOL    HW114301   4.470   5.013   5.839 -0.4496  1.5270  2.2764
 2762SOL    HW214302   4.597   5.064   5.928  1.9492  4.0586 -2.2635
 2763SOL     OW14303   2.907   1.630   0.617 -0.2666 -0.3786 -0.3192
 2763SOL    HW114304   2.928   1.591   0.527  0.9251  0.5208 -0.4666
 2763SOL    HW214305   2.808   1.633   0.630 -0.4315 -1.4086 -1.1970
 2764SOL     OW14306   4.686   0.160   4.996 -0.1554 -0.2931 -0.1370
 2764SOL    HW114307   4.781   0.191   4.994  0.2537 -1.5265 -0.4991
 2764SOL    HW214308   4.683   0.062   4.979 -1.4135 -0.4781  1.0346
 2765SOL     OW14309   2.124   5.287   5.148 -0.4679  0.2423  0.0677
 2765SOL    HW114310   2.046   5.248   5.199 -0.9192 -0.0588 -0.8386
 2765SOL    HW214311   2.090   5.352   5.080  0.1037  0.3462 -0.1193
 2766SOL     OW14312   1.620   2.326   6.244 -0.0098  0.3592  0.5510
 2766SOL    HW114313   1.549   2.261   6.218  0.5216  0.2743 -0.7883
 2766SOL    HW214314   1.606   2.412   6.193  0.7439  0.3893  0.3831
 2767SOL     OW14315   3.917   3.338   0.998  0.2110  0.1178  0.4378
 2767SOL    HW114316   3.904   3.338   0.899 -2.1391 -1.3362  0.6772
 2767SOL    HW214317   3.968   3.256   1.025  0.7025  0.4275  0.4640
 2768SOL     OW14318   5.060   6.393   5.402  0.2736  0.3882 -0.2129
 2768SOL    HW114319   5.018   6.483   5.399 -0.6440 -0.0314 -0.4453
 2768SOL    HW214320   5.059   6.359   5.496 -0.2480  0.2296 -0.2735
 2769SOL     OW14321   5.353   4.586   0.576  0.0996 -0.2878 -0.1032
 2769SOL    HW114322   5.262   4.569   0.614  0.5963  0.1942  1.3865
 2769SOL    HW214323   5.397   4.500   0.554 -0.5679 -0.5410 -0.4713
 2770SOL     OW14324   5.980   1.080   5.106  0.1396 -1.0240  0.5237
 2770SOL    HW114325   5.882   1.076   5.087 -0.2391 -2.1413  2.4277
 2770SOL    HW214326   6.010   1.175   5.102 -0.9800 -0.6846 -0.2720
 2771SOL     OW14327   6.067   1.949   6.198  0.4567  0.0313 -0.4059
 2771SOL    HW114328   6.121   2.023   6.157  0.4926 -1.7000 -3.7501
 2771SOL    HW214329   6.127   1.871   6.217 -0.3606 -0.9385 -1.6688
 2772SOL     OW14330   3.309   5.360   5.213 -0.4947 -0.0903  0.1219
 2772SOL    HW114331   3.230   5.360   5.274 -1.0934  0.7362 -0.6272
 2772SOL    HW214332   3.286   5.311   5.128  0.5678 -1.8912  0.8092
 2773SOL     OW14333   3.748   1.394   5.573 -0.1129 -0.2041  0.4604
 2773SOL    HW114334   3.798   1.446   5.504 -1.3911  0.1381 -0.2223
 2773SOL    HW214335   3.787   1.414   5.663  0.6671  0.4227  0.0042
 2774SOL     OW14336   3.239   2.341   0.693  0.0028  0.0970 -0.4710
 2774SOL    HW114337   3.299   2.377   0.622  1.3385  0.9914  1.0628
 2774SOL    HW214338   3.287   2.270   0.745 -0.3538  0.5960  0.5736
 2775SOL     OW14339   3.587   1.464   6.457  0.0393 -0.1993 -0.2145
 2775SOL    HW114340   3.680   1.448   6.488  0.2336 -2.4499 -1.7326
 2775SOL    HW214341   3.589   1.490   6.360 -0.8828  0.5854 -0.0370
 2776SOL     OW14342   2.770   2.797   5.403 -0.2181 -0.0379  0.5453
 2776SOL    HW114343   2.767   2.860   5.325  3.0447  1.5890  1.5491
 2776SOL    HW214344   2.752   2.847   5.487  0.1315 -0.9314  1.1682
 2777SOL     OW14345   2.315   2.525   0.360 -0.7195  0.6352  0.1107
 2777SOL    HW114346   2.277   2.595   0.299  0.1252  0.9530 -0.0601
 2777SOL    HW214347   2.354   2.568   0.441  0.2826  0.4211 -0.2437
 2778SOL     OW14348   1.294   4.240   5.763 -0.0709 -0.3751 -0.3262
 2778SOL    HW114349   1.372   4.294   5.796 -0.4754 -0.6195  1.0579
 2778SOL    HW214350   1.271   4.270   5.670  1.9833 -0.6374 -0.9809
 2779SOL     OW14351   5.667   3.081   5.783  0.0332 -0.5583  0.1852
 2779SOL    HW114352   5.579   3.060   5.738  0.0967 -0.1929 -0.1182
 2779SOL    HW214353   5.726   3.001   5.779  0.2865 -0.3321 -0.9880
 2780SOL     OW14354   5.144   3.667   5.665  0.6120 -0.0428 -0.2608
 2780SOL    HW114355   5.180   3.675   5.572 -2.7307  4.4255 -1.5164
 2780SOL    HW214356   5.168   3.749   5.717 -0.2609 -0.9834  1.7185
 2781SOL     OW14357   4.171   5.721   6.554  0.1742 -0.1358 -0.0628
 2781SOL    HW114358   4.082   5.685   6.582  0.9705 -1.9569  0.2873
 2781SOL    HW214359   4.225   5.743   6.636  0.5262 -0.3180 -0.2434
 2782SOL     OW14360   1.131   3.241   6.049  0.6075 -0.6572 -0.8505
 2782SOL    HW114361   1.046   3.251   5.998  1.2912 -1.5246 -2.2435
 2782SOL    HW214362   1.198   3.307   6.016  0.9757 -1.0576 -0.9239
 2783SOL     OW14363   3.684   6.145   0.899  0.5271  0.5059 -0.0430
 2783SOL    HW114364   3.646   6.171   0.988  1.1092  1.0062  0.0668
 2783SOL    HW214365   3.612   6.145   0.831 -0.2078 -1.2100  0.6760
 2784SOL     OW14366   0.482   0.642   6.130  0.1558  0.7268  0.4565
 2784SOL    HW114367   0.418   0.675   6.199 -0.5360 -1.7901  1.1351
 2784SOL    HW214368   0.502   0.715   6.065 -2.0129  2.1050  1.2388
 2785SOL     OW14369   3.279   3.997   6.460  0.2285  0.7731  0.3470
 2785SOL    HW114370   3.267   3.927   6.530  2.1535  0.7574  0.7168
 2785SOL    HW214371   3.360   3.976   6.405  0.4711  2.3341  0.0529
 2786SOL     OW14372   1.475   0.456   1.136 -0.7459 -0.3749 -0.3528
 2786SOL    HW114373   1.538   0.495   1.069 -0.0350 -0.7224  0.1086
 2786SOL    HW214374   1.415   0.528   1.172  0.2855  0.2294  0.1967
 2787SOL     OW14375   3.624   2.299   0.987  0.2584 -0.3928 -0.5234
 2787SOL    HW114376   3.700   2.279   0.925  0.7194  2.0626 -0.8387
 2787SOL    HW214377   3.659   2.337   1.072 -0.5936  2.1665 -1.2296
 2788SOL     OW14378   4.447   3.937   5.364 -0.2296  0.2799 -0.3874
 2788SOL    HW114379   4.478   4.013   5.307 -0.8790  1.5464  0.8809
 2788SOL    HW214380   4.415   3.863   5.306  0.2667  1.0371 -1.6705
 2789SOL     OW14381   0.275   5.789   1.190 -1.1533  0.0119 -0.1834
 2789SOL    HW114382   0.258   5.833   1.279 -1.2413  1.0231 -0.6907
 2789SOL    HW214383   0.215   5.710   1.181 -0.8229 -0.3838  0.8456
 2790SOL     OW14384   6.029   4.312   6.132 -0.4351  0.8673 -0.3928
 2790SOL    HW114385   6.044   4.295   6.034 -0.2931 -0.2708 -0.1854
 2790SOL    HW214386   5.931   4.317   6.150 -0.5464 -0.7096 -0.3458
 2791SOL     OW14387   1.557   2.909   0.132 -0.0265  0.4074 -0.2993
 2791SOL    HW114388   1.577   2.978   0.063  1.3351 -0.7643 -1.1360
 2791SOL    HW214389   1.641   2.882   0.178 -0.7226  0.2069  0.9177
 2792SOL     OW14390   0.386   5.458   0.931  0.2177 -0.1594 -0.4410
 2792SOL    HW114391   0.380   5.473   1.029 -0.7722  1.1287 -0.6802
 2792SOL    HW214392   0.446   5.379   0.913  1.9593  0.7438  1.0839
 2793SOL     OW14393   6.007   0.345   6.484  0.2119 -0.0392  0.4078
 2793SOL    HW114394   6.007   0.375   6.388 -0.7154 -1.6892 -0.1468
 2793SOL    HW214395   5.934   0.392   6.533 -1.0812 -1.1308 -0.3942
 2794SOL     OW14396   2.766   5.949   5.938  0.0922  0.8922 -0.3196
 2794SOL    HW114397   2.717   5.934   5.852 -0.1536 -2.5029  0.3038
 2794SOL    HW214398   2.701   5.981   6.008 -0.7408 -0.8431 -0.2440
 2795SOL     OW14399   5.094   2.025   0.253  0.8968 -0.1725 -0.3503
 2795SOL    HW114400   5.129   2.046   0.344  1.3359 -0.3030 -0.4841
 2795SOL    HW214401   5.007   1.976   0.260  0.4381  0.6727 -0.0185
 2796SOL     OW14402   1.746   1.907   0.582  0.2013 -0.6404  0.1482
 2796SOL    HW114403   1.761   1.974   0.655  1.8447 -1.3374  0.4941
 2796SOL    HW214404   1.649   1.904   0.559 -0.2707 -0.0226  1.9268
 2797SOL     OW14405   6.035   2.550   0.756  0.5784  0.2068  0.4028
 2797SOL    HW114406   6.098   2.545   0.679 -0.4241  1.7229 -0.5893
 2797SOL    HW214407   6.050   2.635   0.806  0.4643 -0.2395  1.2125
 2798SOL     OW14408   1.459   2.642   0.058 -0.1356 -0.0929 -0.2939
 2798SOL    HW114409   1.499   2.728   0.025  0.1600  1.0513  2.7178
 2798SOL    HW214410   1.377   2.663   0.112 -0.8535 -1.8558 -0.6417
 2799SOL     OW14411   1.652   0.909   6.546 -1.1206 -0.1367 -0.1444
 2799SOL    HW114412   1.618   0.940   6.458 -1.2466  0.2285  0.0296
 2799SOL    HW214413   1.588   0.936   6.618  0.1498  1.7955  0.3605
 2800SOL     OW14414   2.539   2.836   0.105 -0.2024  0.0205  0.2310
 2800SOL    HW114415   2.628   2.814   0.146  0.1205  0.0445 -0.4495
 2800SOL    HW214416   2.516   2.931   0.125  0.2841  0.2402 -0.2295
 2801SOL     OW14417   3.161   5.280   6.504 -0.0827  0.2500 -0.4005
 2801SOL    HW114418   3.124   5.227   6.427 -0.2262  0.1411 -0.2551
 2801SOL    HW214419   3.249   5.241   6.532  0.8797  1.3660 -1.6919
 2802SOL     OW14420   0.805   0.686   6.563 -0.4479  0.2119  0.2605
 2802SOL    HW114421   0.799   0.741   6.480 -1.5167 -0.6002 -0.2139
 2802SOL    HW214422   0.767   0.738   6.640 -3.1860 -0.4713 -0.5228
 2803SOL     OW14423   5.762   0.562   6.141  0.2078 -0.2217  0.1141
 2803SOL    HW114424   5.810   0.536   6.058  0.7166 -0.7782  0.5713
 2803SOL    HW214425   5.816   0.630   6.191 -0.8041  1.2708 -0.7454
 2804SOL     OW14426   1.115   2.505   0.166  0.4754 -0.5957  0.3228
 2804SOL    HW114427   1.020   2.514   0.196  0.3046 -2.2831  0.4093
 2804SOL    HW214428   1.156   2.595   0.155 -0.4599  0.1521  2.4487
 2805SOL     OW14429   1.816   4.228   0.660  0.3908  0.0053  0.6609
 2805SOL    HW114430   1.835   4.148   0.604 -2.7670  0.8756 -1.9314
 2805SOL    HW214431   1.774   4.199   0.746  1.0563 -1.1534  0.6219
 2806SOL     OW14432   3.827   1.525   6.158 -0.2958  0.2662 -0.1603
 2806SOL    HW114433   3.908   1.469   6.177  1.2879  2.2517 -0.6954
 2806SOL    HW214434   3.750   1.465   6.136  1.4076 -1.7144 -1.1802
 2807SOL     OW14435   3.550   5.527   5.751  0.1693 -0.5472 -0.1089
 2807SOL    HW114436   3.466   5.545   5.701  0.3658 -0.3247 -0.3639
 2807SOL    HW214437   3.543   5.565   5.844  1.1285  2.3254 -1.0813
 2808SOL     OW14438   0.965   1.695   1.359  0.5273 -0.0043  0.0414
 2808SOL    HW114439   0.997   1.733   1.272 -2.8965  1.0819 -0.9288
 2808SOL    HW214440   0.925   1.605   1.344  1.2123 -0.4452  0.7943
 2809SOL     OW14441   6.314   1.283   0.170 -0.1852 -0.0004  0.1114
 2809SOL    HW114442   6.278   1.279   0.077  0.8590  1.1323 -0.3682
 2809SOL    HW214443   6.254   1.340   0.227  0.9334  2.1969 -0.7752
 2810SOL     OW14444   3.041   2.674   5.562  0.5503  0.1807 -0.2620
 2810SOL    HW114445   2.964   2.712   5.614  2.1929  1.0655  1.6858
 2810SOL    HW214446   3.013   2.590   5.517 -1.8325  1.0494 -0.5202
 2811SOL     OW14447   6.149   6.052   1.521 -0.0047 -0.1805 -0.0888
 2811SOL    HW114448   6.204   6.135   1.526  0.8573 -0.6333 -1.6293
 2811SOL    HW214449   6.177   5.989   1.593 -0.4995  0.7451  0.9382
 2812SOL     OW14450   3.710   0.092   6.409  0.0149 -0.3988 -0.5100
 2812SOL    HW114451   3.627   0.120   6.458  0.3607 -0.3049  0.0320
 2812SOL    HW214452   3.790   0.130   6.455  0.2703  1.1557 -2.1433
 2813SOL     OW14453   0.846   4.432   0.437  0.6297  0.1484  0.4020
 2813SOL    HW114454   0.897   4.482   0.508  0.2810 -1.4545  1.8584
 2813SOL    HW214455   0.766   4.389   0.478  0.4538 -0.8970 -0.9715
 2814SOL     OW14456   5.726   3.707   6.399 -0.0844  0.1475 -0.8840
 2814SOL    HW114457   5.817   3.708   6.442 -0.3105  0.1370 -0.4038
 2814SOL    HW214458   5.690   3.800   6.394 -0.1050  0.1358 -0.9454
 2815SOL     OW14459   0.568   2.176   0.638 -0.2779 -0.5676 -0.2023
 2815SOL    HW114460   0.611   2.185   0.548 -1.1162 -0.7956 -0.6367
 2815SOL    HW214461   0.482   2.126   0.629  0.1893 -1.6205  0.9062
 2816SOL     OW14462   4.364   3.052   4.846 -0.0054 -0.0066  0.1554
 2816SOL    HW114463   4.429   3.123   4.871 -0.8208  0.3753  1.3052
 2816SOL    HW214464   4.271   3.082   4.868 -0.3775 -1.3971  0.6239
 2817SOL     OW14465   3.113   4.115   5.987  0.5074  0.0646  0.4613
 2817SOL    HW114466   3.119   4.112   6.086 -1.9617  0.5605  0.6721
 2817SOL    HW214467   3.112   4.210   5.956  0.6429 -0.0826 -0.0104
 2818SOL     OW14468   2.243   0.185   0.414 -0.4156 -0.7227 -0.6418
 2818SOL    HW114469   2.176   0.199   0.341 -2.0648 -0.4381  0.8492
 2818SOL    HW214470   2.196   0.158   0.498  1.1596  1.1057  0.9347
 2819SOL     OW14471   0.776   0.439   1.032  0.1579  0.7780 -0.5544
 2819SOL    HW114472   0.835   0.512   0.997 -0.0296  1.0154 -0.3802
 2819SOL    HW214473   0.727   0.472   1.113  0.9160  0.0967  0.1935
 2820SOL     OW14474   2.613   5.926   5.697 -0.5911  0.2367 -0.2352
 2820SOL    HW114475   2.525   5.970   5.677 -1.0168 -0.8796 -0.9219
 2820SOL    HW214476   2.663   5.913   5.611 -0.2907 -0.2263  0.0066
 2821SOL     OW14477   3.905   0.875   0.786  0.3902 -0.4216 -0.2763
 2821SOL    HW114478   3.944   0.898   0.875 -0.1207  1.2640 -0.4527
 2821SOL    HW214479   3.978   0.844   0.725  0.9490 -0.3342  0.3377
 2822SOL     OW14480   2.069   5.163   5.603 -0.5923  0.3562 -0.1596
 2822SOL    HW114481   1.996   5.095   5.588 -0.0909 -0.1298 -0.4540
 2822SOL    HW214482   2.102   5.195   5.514  1.5476 -1.6095 -0.1848
 2823SOL     OW14483   3.153   3.537   6.094 -0.2432  0.1271 -0.1389
 2823SOL    HW114484   3.155   3.577   6.186 -0.9104 -1.1357  0.4476
 2823SOL    HW214485   3.115   3.445   6.099  0.9262 -0.4529 -1.5089
 2824SOL     OW14486   3.097   4.507   1.726 -0.4343 -0.2415 -0.3340
 2824SOL    HW114487   3.145   4.571   1.665 -2.5880 -0.8994 -2.9093
 2824SOL    HW214488   3.139   4.510   1.817  2.1884  1.7045 -1.4738
 2825SOL     OW14489   3.912   0.859   6.108  0.0507 -0.1719  0.5935
 2825SOL    HW114490   3.970   0.918   6.053  0.9592 -2.7800 -1.4787
 2825SOL    HW214491   3.928   0.876   6.205 -0.3984  3.4492  0.1548
 2826SOL     OW14492   4.382   2.861   1.804  0.5937 -0.1939  0.4001
 2826SOL    HW114493   4.431   2.818   1.879  1.3162 -1.4250 -0.7364
 2826SOL    HW214494   4.293   2.817   1.792  0.5928 -0.1776  0.3454
 2827SOL     OW14495   4.770   1.291   6.308 -0.9530  0.2582  0.6669
 2827SOL    HW114496   4.825   1.362   6.353 -0.5033 -1.1267  2.4069
 2827SOL    HW214497   4.810   1.202   6.326 -1.5960 -0.4878 -1.3552
 2828SOL     OW14498   3.941   6.227   0.240 -0.7749  0.1027 -0.0414
 2828SOL    HW114499   3.923   6.187   0.330 -2.1755  1.5049  0.3496
 2828SOL    HW214500   3.952   6.326   0.249 -0.8463  0.2590 -1.4068
 2829SOL     OW14501   2.938   5.668   5.491 -0.6744 -0.6395  0.7162
 2829SOL    HW114502   2.997   5.606   5.543 -2.5101 -1.4149  1.9746
 2829SOL    HW214503   2.966   5.762   5.508  1.8830 -0.9892 -0.8832
 2830SOL     OW14504   3.526   4.892   5.884  0.0827 -0.4195 -0.5584
 2830SOL    HW114505   3.540   4.805   5.836 -0.8710 -2.0926  1.9910
 2830SOL    HW214506   3.557   4.884   5.978 -2.8232  0.9513  0.6400
 2831SOL     OW14507   3.644   4.009   2.017 -0.1449 -0.6417 -0.2120
 2831SOL    HW114508   3.681   3.937   2.077  0.6610 -0.3508 -0.3503
 2831SOL    HW214509   3.576   4.062   2.067  1.1755  0.1785  0.7648
 2832SOL     OW14510   6.052   5.990   6.081 -0.0012  0.1100  0.2423
 2832SOL    HW114511   6.067   5.923   6.009 -0.0760 -0.6914  0.9554
 2832SOL    HW214512   5.959   5.982   6.116 -0.2409  1.0733 -0.1441
 2833SOL     OW14513   2.683   3.625   0.656  0.4957  0.1228 -0.2427
 2833SOL    HW114514   2.635   3.563   0.717  2.0619  0.7664  1.7881
 2833SOL    HW214515   2.660   3.720   0.681  0.1740  0.3948 -1.5312
 2834SOL     OW14516   2.097   5.885   0.328 -0.0462 -0.3997 -0.1548
 2834SOL    HW114517   2.027   5.837   0.275 -1.8143  2.6288 -0.8011
 2834SOL    HW214518   2.118   5.833   0.411 -3.2239 -1.3790  0.1772
 2835SOL     OW14519   6.356   5.123   6.106  0.3281  0.2431  0.0778
 2835SOL    HW114520   6.369   5.025   6.121  0.7459  0.0891 -1.1759
 2835SOL    HW214521   6.423   5.175   6.161  1.0052 -0.2295 -0.2923
 2836SOL     OW14522   4.894   4.096   0.516 -0.3768  0.1077 -0.0476
 2836SOL    HW114523   4.872   4.188   0.550 -0.8486 -0.8267  2.4212
 2836SOL    HW214524   4.830   4.031   0.555 -1.4737 -1.0957 -3.5047
 2837SOL     OW14525   2.949   3.327   6.167 -0.8910  0.0861  0.4586
 2837SOL    HW114526   2.920   3.242   6.211  0.0615  0.6551  2.2583
 2837SOL    HW214527   2.918   3.327   6.072 -2.7093 -1.3370  1.0003
 2838SOL     OW14528   5.240   6.149   5.645  0.1015  0.1004  0.3822
 2838SOL    HW114529   5.192   6.152   5.733  0.3646 -0.9144  0.5804
 2838SOL    HW214530   5.260   6.053   5.622  1.3924  0.4655 -0.0543
 2839SOL     OW14531   0.657   5.083   1.409 -0.7527  0.5665 -0.3787
 2839SOL    HW114532   0.638   5.150   1.480 -0.2004  0.3025  0.0184
 2839SOL    HW214533   0.726   5.120   1.347  1.2032 -0.4722  1.0924
 2840SOL     OW14534   4.161   2.944   6.117 -0.2667  0.5541  0.2891
 2840SOL    HW114535   4.192   3.038   6.105  2.1527 -0.1282  0.6410
 2840SOL    HW214536   4.177   2.892   6.033 -0.4840  0.1735  0.4785
 2841SOL     OW14537   1.813   4.947   5.559 -0.7177  0.0030 -0.1918
 2841SOL    HW114538   1.778   4.981   5.471  0.6196 -0.2989 -0.8587
 2841SOL    HW214539   1.885   4.880   5.543  1.7252  2.1269  1.0830
 2842SOL     OW14540   3.947   4.519   6.517 -0.6958  0.0351  0.8311
 2842SOL    HW114541   3.854   4.516   6.480 -0.5413  2.6386  0.0074
 2842SOL    HW214542   4.012   4.536   6.443  0.0446  1.4725  1.7410
 2843SOL     OW14543   2.168   5.608   5.690 -0.7756  0.3642 -0.4132
 2843SOL    HW114544   2.245   5.554   5.656  0.5642  1.9524 -0.0508
 2843SOL    HW214545   2.138   5.571   5.778  1.3424  1.2185  0.7558
 2844SOL     OW14546   2.850   1.895   0.656  0.1571  0.6681 -0.1085
 2844SOL    HW114547   2.896   1.810   0.633 -0.4050 -0.0755  1.3694
 2844SOL    HW214548   2.901   1.943   0.727 -1.8510 -0.8205  2.5470
 2845SOL     OW14549   3.912   3.174   6.014 -0.7095  0.3054 -0.2499
 2845SOL    HW114550   4.001   3.213   5.991 -0.2718 -1.2137 -1.3534
 2845SOL    HW214551   3.920   3.074   6.018 -2.2905  0.1587 -0.0206
 2846SOL     OW14552   0.860   1.570   6.095  0.5944  0.3956 -0.5299
 2846SOL    HW114553   0.831   1.634   6.166 -0.6762 -0.3782 -0.2980
 2846SOL    HW214554   0.802   1.582   6.014  0.4798 -0.2926 -0.5574
 2847SOL     OW14555   1.295   0.562   1.561 -0.5863  0.3283  0.3024
 2847SOL    HW114556   1.206   0.561   1.605 -0.0261  2.0048  1.6174
 2847SOL    HW214557   1.350   0.636   1.600  1.6563 -1.1274  0.0797
 2848SOL     OW14558   4.744   2.435   4.830  0.0339  0.4956  0.5250
 2848SOL    HW114559   4.712   2.353   4.783  0.2326 -0.9652  2.7757
 2848SOL    HW214560   4.678   2.509   4.818 -0.3108 -0.0637 -1.2796
 2849SOL     OW14561   1.340   2.389   6.446 -0.3748  0.8057  0.1311
 2849SOL    HW114562   1.243   2.415   6.451 -0.6056 -0.0129 -0.0712
 2849SOL    HW214563   1.390   2.436   6.519 -1.0640  0.6401  0.7258
 2850SOL     OW14564   4.740   2.198   6.069 -0.4940 -0.0922 -0.0423
 2850SOL    HW114565   4.785   2.214   6.157 -1.6003  0.3182  0.4832
 2850SOL    HW214566   4.806   2.164   6.002  0.8464  1.6589  0.3307
 2851SOL     OW14567   6.259   5.147   5.845  0.0622  0.2011 -0.1774
 2851SOL    HW114568   6.333   5.153   5.778 -0.3858  1.3838 -0.5858
 2851SOL    HW214569   6.297   5.121   5.934  0.7810 -0.4818 -0.6707
 2852SOL     OW14570   2.362   3.727   1.202 -0.5840  0.1879 -0.5250
 2852SOL    HW114571   2.294   3.777   1.255 -0.1833 -1.4949  1.7422
 2852SOL    HW214572   2.454   3.762   1.224 -0.1855 -2.1033  2.0168
 2853SOL     OW14573   0.077   1.376   5.677 -0.0773  0.6584  0.1422
 2853SOL    HW114574   0.069   1.278   5.658 -1.4153  0.8635 -0.4781
 2853SOL    HW214575   0.024   1.398   5.760  0.0525  0.8877  0.1639
 2854SOL     OW14576   3.567   4.706   1.644  0.1752  0.6009  0.0199
 2854SOL    HW114577   3.597   4.723   1.738  1.0164  0.9571 -0.3029
 2854SOL    HW214578   3.608   4.621   1.611  2.1545  1.8720 -0.9534
 2855SOL     OW14579   2.854   2.573   5.803 -0.6266 -0.0513 -0.2504
 2855SOL    HW114580   2.892   2.498   5.858  0.4355 -0.1866 -1.1171
 2855SOL    HW214581   2.761   2.551   5.776 -0.2890 -1.1378 -0.5859
 2856SOL     OW14582   4.983   5.620   0.429 -0.2413 -0.2231  0.3542
 2856SOL    HW114583   5.035   5.695   0.469  0.1046  0.5145 -1.3866
 2856SOL    HW214584   4.905   5.657   0.378  0.5081 -0.9203 -1.3840
 2857SOL     OW14585   0.382   4.218   6.428 -0.2281  0.1812  0.0170
 2857SOL    HW114586   0.411   4.173   6.513  1.2527 -1.0658 -1.0969
 2857SOL    HW214587   0.407   4.161   6.350 -2.8823  0.5852 -1.2345
 2858SOL     OW14588   6.042   2.078   5.068 -0.5723  0.4050 -0.2823
 2858SOL    HW114589   6.010   2.158   5.117 -1.8532  0.1683 -0.7092
 2858SOL    HW214590   6.109   2.105   4.999  1.3198  0.7340  1.5782
 2859SOL     OW14591   5.427   4.305   0.569 -0.3894 -0.0385 -0.4961
 2859SOL    HW114592   5.507   4.251   0.596 -0.8844 -0.4373  0.1980
 2859SOL    HW214593   5.345   4.248   0.571 -1.2853  1.1647  2.3943
 2860SOL     OW14594   5.872   1.724   1.149  0.7393 -0.0540  0.1671
 2860SOL    HW114595   5.880   1.635   1.105  1.9646  0.1914 -0.1444
 2860SOL    HW214596   5.778   1.739   1.177  0.5254 -1.4789  0.2925
 2861SOL     OW14597   5.216   2.424   6.574  0.1378  0.6660 -1.0703
 2861SOL    HW114598   5.135   2.476   6.603  0.5438  0.4669  0.4549
 2861SOL    HW214599   5.298   2.478   6.590  0.5200 -0.1996 -0.0443
 2862SOL     OW14600   5.278   1.765   0.438 -0.2310 -0.9465 -0.4295
 2862SOL    HW114601   5.238   1.857   0.448  1.1245 -0.1137 -2.1935
 2862SOL    HW214602   5.206   1.696   0.452 -0.9589  0.2560  2.5688
 2863SOL     OW14603   5.597   0.018   5.156 -0.0944  0.2466 -0.1052
 2863SOL    HW114604   5.590  -0.055   5.224 -2.8664 -0.4287 -0.9816
 2863SOL    HW214605   5.572  -0.018   5.066  0.4789  1.8344 -0.9431
 2864SOL     OW14606   2.232   2.349   5.853  0.3214 -0.7356  0.5418
 2864SOL    HW114607   2.148   2.309   5.816 -0.8056  1.1588  0.9267
 2864SOL    HW214608   2.300   2.356   5.780 -0.9381  0.4800 -0.5712
 2865SOL     OW14609   6.223   2.577   1.702 -0.0524  0.2906  0.2467
 2865SOL    HW114610   6.129   2.545   1.719 -0.0829 -2.0017 -3.1983
 2865SOL    HW214611   6.288   2.508   1.735  0.4851  1.6127  2.1060
 2866SOL     OW14612   4.072   6.150   1.286 -0.0886 -0.0444 -0.3457
 2866SOL    HW114613   4.023   6.197   1.359  0.5015 -1.9977  1.4141
 2866SOL    HW214614   4.154   6.202   1.262  0.5452 -0.0863  1.5397
 2867SOL     OW14615   0.821   2.061   6.176 -0.0066 -0.0355 -0.6278
 2867SOL    HW114616   0.812   2.160   6.181  0.5662 -0.0472  0.9554
 2867SOL    HW214617   0.813   2.032   6.080  1.6087  1.7055 -1.3334
 2868SOL     OW14618   3.661   2.305   5.423 -0.1980 -0.3593  0.0874
 2868SOL    HW114619   3.743   2.253   5.446 -0.2620 -1.1531 -1.3058
 2868SOL    HW214620   3.683   2.374   5.354 -0.6674 -0.5086 -0.2211
 2869SOL     OW14621   3.421   5.838   0.298  0.1917  0.1029  0.2964
 2869SOL    HW114622   3.463   5.820   0.387 -1.6279 -1.5830  0.8959
 2869SOL    HW214623   3.447   5.929   0.267  1.2027  0.5855  2.3603
 2870SOL     OW14624   0.927   1.172   6.424 -0.3346  0.8481 -0.7511
 2870SOL    HW114625   0.953   1.097   6.363  3.7026  1.7442 -0.4631
 2870SOL    HW214626   0.905   1.253   6.369 -1.4225  0.3909 -1.0159
 2871SOL     OW14627   0.513   5.658   1.409  0.0365  0.3894 -0.0037
 2871SOL    HW114628   0.530   5.756   1.415  2.5269 -0.0331  1.4135
 2871SOL    HW214629   0.528   5.616   1.499 -2.8100 -1.1050 -0.1094
 2872SOL     OW14630   1.885   1.045   5.461 -0.2665  0.5285 -0.8802
 2872SOL    HW114631   1.938   0.976   5.412  0.4880  0.5949 -0.1875
 2872SOL    HW214632   1.791   1.045   5.428 -0.1756 -0.5452 -1.1784
 2873SOL     OW14633   5.006   6.375   5.679  0.4176 -0.3890  0.4586
 2873SOL    HW114634   5.053   6.322   5.750 -0.4283 -1.9859 -0.1288
 2873SOL    HW214635   4.908   6.361   5.687  0.2255  0.5119 -0.1962
 2874SOL     OW14636   2.508   2.035   5.427  0.5151 -0.1437 -0.4137
 2874SOL    HW114637   2.539   1.962   5.366 -1.3830 -0.6034 -0.8861
 2874SOL    HW214638   2.519   2.123   5.382  1.0015 -0.3003 -0.6100
 2875SOL     OW14639   1.881   1.206   0.022  0.3226 -0.3720 -0.0583
 2875SOL    HW114640   1.977   1.192  -0.005  0.0280 -2.5110 -0.1310
 2875SOL    HW214641   1.862   1.155   0.105 -0.5857  0.7000  0.4192
 2876SOL     OW14642   4.519   2.367   6.094 -0.1773 -0.0537  0.2407
 2876SOL    HW114643   4.533   2.454   6.142 -1.3382 -0.1150  0.7189
 2876SOL    HW214644   4.607   2.320   6.085  0.3490  0.8252  0.6449
 2877SOL     OW14645   2.798   4.576   5.298 -0.3958 -0.7635  0.4221
 2877SOL    HW114646   2.880   4.527   5.327  0.5226  0.5394  0.0991
 2877SOL    HW214647   2.783   4.562   5.201  0.4834  0.4232  0.0973
 2878SOL     OW14648   3.017   4.651   1.284 -0.5103  1.3139 -1.0068
 2878SOL    HW114649   2.924   4.643   1.320  0.3328  1.2623  1.2540
 2878SOL    HW214650   3.032   4.578   1.217 -1.1065 -0.6833  0.9220
 2879SOL     OW14651   2.250   4.663   1.034 -0.2899 -0.3057 -0.3112
 2879SOL    HW114652   2.155   4.696   1.033  0.2532  1.8139  3.2018
 2879SOL    HW214653   2.253   4.570   0.997 -3.5628 -0.1262 -1.3421
 2880SOL     OW14654   3.067   1.509   1.589 -0.0552  0.4597  0.8092
 2880SOL    HW114655   3.128   1.514   1.668  0.7253 -2.3069  0.4719
 2880SOL    HW214656   3.036   1.415   1.576 -3.5538  1.5517  0.2574
 2881SOL     OW14657   4.293   2.400   0.810  0.0114  0.6516 -0.6794
 2881SOL    HW114658   4.240   2.468   0.862  2.1576  0.6943  1.6304
 2881SOL    HW214659   4.388   2.403   0.839  0.6343 -1.8102 -2.1833
 2882SOL     OW14660   2.117   4.717   0.171 -0.2820 -0.3215  0.4596
 2882SOL    HW114661   2.084   4.623   0.159  1.5118 -0.9144 -0.2191
 2882SOL    HW214662   2.054   4.768   0.229 -2.1486 -1.4514 -0.5104
 2883SOL     OW14663   2.684   1.506   0.377 -0.3314  0.2654 -0.4220
 2883SOL    HW114664   2.653   1.571   0.447 -0.3552  2.3740 -2.2443
 2883SOL    HW214665   2.784   1.514   0.367 -0.1741 -0.8856  0.1581
 2884SOL     OW14666   1.788   4.935   0.902  0.4770 -0.6585  0.3946
 2884SOL    HW114667   1.689   4.937   0.891  0.5005  0.6502  0.2805
 2884SOL    HW214668   1.815   5.003   0.971  1.2402 -1.5033  0.9607
 2885SOL     OW14669   3.817   6.254   5.529 -0.8198 -0.0409  0.1035
 2885SOL    HW114670   3.722   6.231   5.551 -0.3265  0.4675  3.0824
 2885SOL    HW214671   3.875   6.173   5.539 -0.3104  0.5777  2.7567
 2886SOL     OW14672   5.632   1.366   6.302 -0.3859  0.5835 -0.1304
 2886SOL    HW114673   5.581   1.334   6.222  0.0274 -2.5913  0.7155
 2886SOL    HW214674   5.570   1.409   6.367 -0.8030  2.7841 -1.8547
 2887SOL     OW14675   1.218   1.671   6.158 -0.2464  0.4669 -0.6002
 2887SOL    HW114676   1.312   1.642   6.174 -0.6823 -0.6716 -0.0056
 2887SOL    HW214677   1.192   1.650   6.064 -0.3891 -0.6348 -0.3223
 2888SOL     OW14678   2.048   2.627   0.160  0.2327  0.3439 -0.0074
 2888SOL    HW114679   2.107   2.701   0.193  0.3973  0.2139 -0.0077
 2888SOL    HW214680   2.103   2.563   0.106  0.1146  0.1564  0.0943
 2889SOL     OW14681   5.362   2.821   6.440  0.2204  0.4620  0.9795
 2889SOL    HW114682   5.454   2.795   6.411  0.5795 -0.7506  2.9846
 2889SOL    HW214683   5.369   2.889   6.512 -0.3468 -0.7459  2.2148
 2890SOL     OW14684   5.463   2.038   0.897 -0.2966 -0.4849 -0.2724
 2890SOL    HW114685   5.563   2.035   0.899 -0.2703  0.4403  0.5855
 2890SOL    HW214686   5.426   2.005   0.985 -0.5491  3.3389  1.2614
 2891SOL     OW14687   3.074   5.493   1.111  0.8575 -0.1558 -0.3572
 2891SOL    HW114688   3.063   5.555   1.034 -1.8313  0.5237  0.4682
 2891SOL    HW214689   3.033   5.533   1.192 -0.8510 -2.8991  0.2662
 2892SOL     OW14690   6.110   1.016   5.935  0.6006  0.4725  0.1273
 2892SOL    HW114691   6.104   1.017   5.836  0.0565  2.3480  0.1468
 2892SOL    HW214692   6.022   0.989   5.974  0.3202  1.2934  0.0917
 2893SOL     OW14693   3.755   3.782   6.226  0.2277  0.3420  0.0775
 2893SOL    HW114694   3.724   3.765   6.319 -0.2150  0.7080  0.0031
 2893SOL    HW214695   3.855   3.790   6.224  0.4358 -1.8376  0.1724
 2894SOL     OW14696   1.126   5.550   1.087 -0.0810 -0.3805  0.2193
 2894SOL    HW114697   1.212   5.580   1.127  0.3367 -0.9216 -0.2556
 2894SOL    HW214698   1.050   5.581   1.144  0.5593 -2.4723  2.3454
 2895SOL     OW14699   1.846   4.505   5.876 -0.1129 -0.2038 -0.7381
 2895SOL    HW114700   1.906   4.584   5.868  1.7919 -1.5200 -0.1553
 2895SOL    HW214701   1.757   4.534   5.913  1.4698  1.3059  2.2598
 2896SOL     OW14702   2.603   1.942   6.303 -0.2891  0.4143  0.8476
 2896SOL    HW114703   2.596   2.038   6.330  0.1110  0.5081  0.6252
 2896SOL    HW214704   2.679   1.899   6.352  2.1546  1.2517 -1.9391
 2897SOL     OW14705   2.687   1.875   1.591  0.0161 -0.3647  0.2394
 2897SOL    HW114706   2.625   1.952   1.610  1.0971  0.4592  0.5155
 2897SOL    HW214707   2.756   1.904   1.525  0.5614 -1.0414  0.5102
 2898SOL     OW14708   2.882   4.592   6.582 -0.1650  0.2963 -0.0254
 2898SOL    HW114709   2.938   4.558   6.657 -0.2224  0.4951  0.1093
 2898SOL    HW214710   2.925   4.672   6.541  0.7735 -0.8801 -1.3882
 2899SOL     OW14711   2.267   4.259   5.384 -0.6028 -0.0500 -0.2575
 2899SOL    HW114712   2.198   4.306   5.439  1.3702 -0.2567  2.6526
 2899SOL    HW214713   2.315   4.324   5.326 -0.6714  0.8132  0.6302
 2900SOL     OW14714   6.039   3.124   6.060 -0.3635  0.2313  0.3406
 2900SOL    HW114715   6.041   3.224   6.069 -0.8142  0.3601 -0.7894
 2900SOL    HW214716   6.118   3.094   6.006  1.5941 -0.3853  3.3522
 2901SOL     OW14717   5.774   0.296   6.281 -0.6984 -0.0191  0.2860
 2901SOL    HW114718   5.803   0.313   6.376 -1.2278  1.1382  0.2619
 2901SOL    HW214719   5.748   0.383   6.239 -0.9477 -0.5956 -0.7685
 2902SOL     OW14720   3.985   3.753   0.053 -0.4282  0.0807  0.2293
 2902SOL    HW114721   4.060   3.719   0.109  0.3636  0.9558 -0.2744
 2902SOL    HW214722   4.005   3.846   0.023 -2.8252  1.3574  2.1727
 2903SOL     OW14723   3.095   0.154   5.468  0.3036 -0.2141  0.9474
 2903SOL    HW114724   3.126   0.240   5.426  2.0895 -1.8798 -1.4492
 2903SOL    HW214725   3.151   0.135   5.548  0.2289  0.6191  1.2057
 2904SOL     OW14726   0.612   2.983   0.029  0.2467 -0.3108  0.3684
 2904SOL    HW114727   0.672   2.902   0.030 -1.2009 -1.4408  1.5109
 2904SOL    HW214728   0.572   2.995   0.120 -2.5087 -0.5937 -0.7149
 2905SOL     OW14729   1.461   4.916   0.259  0.6505  0.6082  0.3278
 2905SOL    HW114730   1.464   4.939   0.162 -1.0321 -2.7227 -0.6625
 2905SOL    HW214731   1.373   4.943   0.297  1.5239  2.4614  1.2143
 2906SOL     OW14732   2.095   5.467   0.328  0.1452 -0.6110 -0.4672
 2906SOL    HW114733   2.067   5.481   0.423 -2.2465 -0.2728 -1.1406
 2906SOL    HW214734   2.183   5.420   0.326  1.2104  1.0956  1.8824
 2907SOL     OW14735   5.230   1.501   5.501  0.4814 -0.1778  1.1819
 2907SOL    HW114736   5.203   1.420   5.450 -0.2654 -0.2254  1.6463
 2907SOL    HW214737   5.243   1.577   5.438 -2.9563  0.4678  1.0686
 2908SOL     OW14738   5.420   3.221   6.456  0.3509 -0.3719 -0.5309
 2908SOL    HW114739   5.482   3.300   6.461  0.4425 -0.4690 -0.0909
 2908SOL    HW214740   5.439   3.169   6.372  1.6908 -1.0655  0.1613
 2909SOL     OW14741   4.005   6.267   0.990 -0.4478  0.2725 -0.3291
 2909SOL    HW114742   3.967   6.223   1.072  2.0782 -2.4314 -0.4503
 2909SOL    HW214743   4.012   6.366   1.006 -1.1300 -0.0104  2.2489
 2910SOL     OW14744   4.139   4.470   5.452 -0.5295 -0.0845  0.3035
 2910SOL    HW114745   4.106   4.564   5.459 -1.2762 -0.3392  0.2278
 2910SOL    HW214746   4.164   4.450   5.357  0.3344  0.2624  0.4444
 2911SOL     OW14747   1.662   2.573   6.147  0.1923 -0.7293 -0.0288
 2911SOL    HW114748   1.675   2.611   6.239 -0.2691  0.2770 -0.3590
 2911SOL    HW214749   1.673   2.646   6.079 -1.6009 -0.9795 -0.6433
 2912SOL     OW14750   1.709   5.515   5.864  0.0701  0.5469 -0.5589
 2912SOL    HW114751   1.775   5.463   5.809  0.1095  1.0754 -1.0212
 2912SOL    HW214752   1.751   5.539   5.951  0.6309  1.2013 -0.9996
 2913SOL     OW14753   4.433   3.527   6.226  0.3063  0.2251  0.4119
 2913SOL    HW114754   4.415   3.563   6.135 -0.6515 -1.5197 -0.1311
 2913SOL    HW214755   4.351   3.481   6.261  1.3066 -1.0191  1.2293
 2914SOL     OW14756   2.503   5.316   0.689  0.2818  0.6047 -0.0698
 2914SOL    HW114757   2.489   5.362   0.601 -0.1191 -0.7854 -0.7495
 2914SOL    HW214758   2.429   5.251   0.706  1.6532 -0.9823  0.0879
 2915SOL     OW14759   3.240   1.971   0.766  0.5406  0.1331 -0.3511
 2915SOL    HW114760   3.295   1.888   0.760 -0.9481 -1.1490  1.9907
 2915SOL    HW214761   3.299   2.051   0.777  1.9857 -1.0818  1.2004
 2916SOL     OW14762   2.341   1.016   1.718 -0.2521  0.2070  0.1968
 2916SOL    HW114763   2.242   1.028   1.712 -0.5275 -0.4209  2.4655
 2916SOL    HW214764   2.378   1.082   1.784  0.5457 -0.7531  0.7388
 2917SOL     OW14765   3.688   2.428   5.850  0.4280 -0.3470  0.6124
 2917SOL    HW114766   3.650   2.469   5.767  0.6920 -0.8276  0.2476
 2917SOL    HW214767   3.659   2.333   5.857  0.2614 -0.2639  1.1723
 2918SOL     OW14768   0.327   2.488   5.677  0.4163  0.1195  0.7589
 2918SOL    HW114769   0.419   2.504   5.713 -1.1572  1.8788  4.5268
 2918SOL    HW214770   0.297   2.569   5.626 -0.0174  0.7225  1.9467
 2919SOL     OW14771   0.260   4.220   5.749 -0.0424  0.0977 -0.2509
 2919SOL    HW114772   0.211   4.300   5.714  2.3115  1.0928 -1.5340
 2919SOL    HW214773   0.357   4.229   5.729  0.5737 -2.2834  1.1917
 2920SOL     OW14774   3.766   5.978   5.949  0.1573  0.3960  0.3451
 2920SOL    HW114775   3.767   5.880   5.933  1.1237  0.3494  0.6299
 2920SOL    HW214776   3.718   5.998   6.035  0.9176  0.0756  0.8498
 2921SOL     OW14777   2.381   3.411   1.415 -0.0547  0.6161 -0.8491
 2921SOL    HW114778   2.379   3.315   1.388  0.5008  0.5629 -0.7092
 2921SOL    HW214779   2.359   3.418   1.512 -3.1438  0.8944 -1.4595
 2922SOL     OW14780   1.672   0.182   6.396 -0.5754 -0.4486  0.2531
 2922SOL    HW114781   1.763   0.173   6.436 -0.8732  1.7722  1.5746
 2922SOL    HW214782   1.670   0.136   6.307  2.2501  0.6074 -0.4624
 2923SOL     OW14783   2.817   5.894   4.981 -0.0587  0.0475  0.0986
 2923SOL    HW114784   2.730   5.893   4.931  0.1098  0.4578 -0.2061
 2923SOL    HW214785   2.891   5.919   4.918  0.0420  1.4339  0.7481
 2924SOL     OW14786   3.031   0.574   1.000 -0.3788  0.8469 -0.0258
 2924SOL    HW114787   3.105   0.567   0.933 -0.1850  0.9114  0.1793
 2924SOL    HW214788   3.047   0.654   1.059 -1.1854  1.5101 -0.6797
 2925SOL     OW14789   1.002   0.080   0.996 -0.0885 -0.1393 -0.2030
 2925SOL    HW114790   1.062   0.001   1.005  0.3309  0.1347 -0.5953
 2925SOL    HW214791   1.024   0.130   0.913  0.5346  1.1176  0.6713
 2926SOL     OW14792   1.226   5.043   6.432 -0.7329  0.1120 -0.2341
 2926SOL    HW114793   1.130   5.060   6.410 -0.4171  1.1749 -0.8502
 2926SOL    HW214794   1.238   4.946   6.453 -2.1402  0.1523  0.9396
 2927SOL     OW14795   4.380   4.573   5.801  0.7497 -0.3316 -0.2078
 2927SOL    HW114796   4.444   4.529   5.863  0.3768  0.3646  0.6976
 2927SOL    HW214797   4.299   4.516   5.789  0.0414  0.2972  1.3603
 2928SOL     OW14798   1.117   5.551   6.396  0.1790 -0.3058  0.0858
 2928SOL    HW114799   1.131   5.585   6.489 -0.1241  0.9033 -0.2854
 2928SOL    HW214800   1.179   5.475   6.378 -0.4756 -1.2494  1.6141
 2929SOL     OW14801   5.481   3.590   6.139 -0.1376 -0.2349  0.4011
 2929SOL    HW114802   5.579   3.578   6.125  0.0070  0.9200  0.2839
 2929SOL    HW214803   5.466   3.664   6.205 -0.8897 -2.3529  2.7654
 2930SOL     OW14804   2.073   0.825   5.778 -0.5381  0.0351  0.9413
 2930SOL    HW114805   2.080   0.762   5.855 -0.9106  0.3520  1.2385
 2930SOL    HW214806   2.007   0.791   5.711 -0.8252  0.1625  1.1570
 2931SOL     OW14807   0.524   3.881   0.714  0.0332  0.4703  0.0300
 2931SOL    HW114808   0.586   3.845   0.783  0.0038  0.2201 -0.0715
 2931SOL    HW214809   0.576   3.928   0.643 -0.0082  1.6667  0.7612
 2932SOL     OW14810   5.361   5.493   6.169  0.6685  0.5619  0.1594
 2932SOL    HW114811   5.431   5.435   6.127  1.6072  1.5154  0.3692
 2932SOL    HW214812   5.271   5.466   6.135  1.2464  0.1812 -1.1432
 2933SOL     OW14813   1.425   6.086   1.362 -0.2237  0.3000 -0.0329
 2933SOL    HW114814   1.413   6.138   1.447 -1.4344  2.7736 -1.6095
 2933SOL    HW214815   1.513   6.108   1.322 -0.2574  0.2374 -0.1417
 2934SOL     OW14816   1.516   4.893   0.947  0.4737  0.2859 -0.5653
 2934SOL    HW114817   1.582   4.868   1.018  1.9730  2.5325 -1.0330
 2934SOL    HW214818   1.423   4.881   0.981  1.1514 -0.0797  1.2488
 2935SOL     OW14819   1.438   3.827   1.147  0.5645  0.0439  0.6076
 2935SOL    HW114820   1.454   3.760   1.220 -0.0396 -0.4478  0.2995
 2935SOL    HW214821   1.362   3.887   1.173 -0.9226 -1.3355 -0.3973
 2936SOL     OW14822   0.178   4.631   5.991  0.2362  0.3499 -0.3092
 2936SOL    HW114823   0.179   4.728   5.969 -1.5126  0.5940  0.4954
 2936SOL    HW214824   0.252   4.610   6.055  0.1615  1.3104  0.1055
 2937SOL     OW14825   0.601   3.233   5.145 -0.3472 -0.4066 -0.0935
 2937SOL    HW114826   0.531   3.275   5.088  1.6071  2.0898 -0.8531
 2937SOL    HW214827   0.607   3.136   5.125 -0.9902  0.0396 -2.8263
 2938SOL     OW14828   5.374   3.138   0.467 -0.6787 -0.2939  0.0846
 2938SOL    HW114829   5.298   3.203   0.462 -1.0971 -0.6766  1.2405
 2938SOL    HW214830   5.460   3.187   0.450 -1.1140  0.2759 -0.5304
 2939SOL     OW14831   1.590   6.000   5.854 -0.1658 -0.5658 -0.1640
 2939SOL    HW114832   1.554   6.068   5.790  0.7030 -0.2752 -0.3589
 2939SOL    HW214833   1.514   5.955   5.902 -0.7640  0.2248 -0.3544
 2940SOL     OW14834   3.554   2.527   0.694  0.4923  0.0856  0.0269
 2940SOL    HW114835   3.508   2.502   0.609 -0.2833 -2.0096  0.9996
 2940SOL    HW214836   3.652   2.540   0.677  0.8454 -2.9972 -0.7477
 2941SOL     OW14837   4.463   5.582   5.000 -0.1707 -0.4090 -0.6794
 2941SOL    HW114838   4.398   5.640   4.951 -0.4149 -0.3857 -0.3293
 2941SOL    HW214839   4.437   5.486   4.989  1.0442 -0.5828 -2.4635
 2942SOL     OW14840   0.997   1.887   5.677  0.0407  0.5001  0.4054
 2942SOL    HW114841   0.908   1.931   5.672 -0.1608 -0.0326 -1.4700
 2942SOL    HW214842   0.989   1.799   5.724 -1.0302 -0.8308 -2.1026
 2943SOL     OW14843   4.437   4.405   6.220  0.4277 -0.3821 -0.8785
 2943SOL    HW114844   4.475   4.475   6.281  0.3349 -0.6204 -0.5420
 2943SOL    HW214845   4.472   4.419   6.128  1.6974 -0.8703 -0.4857
 2944SOL     OW14846   4.338   4.847   5.850 -0.3523  0.1897  0.0672
 2944SOL    HW114847   4.300   4.877   5.763 -0.7932  1.7212  0.7457
 2944SOL    HW214848   4.382   4.758   5.839  2.0958  1.5353 -2.3765
 2945SOL     OW14849   1.080   5.680   0.855  0.5879  0.0458 -0.9005
 2945SOL    HW114850   1.115   5.615   0.787  0.2628 -0.8786 -0.2143
 2945SOL    HW214851   1.097   5.643   0.947  1.6595  1.5948 -0.4392
 2946SOL     OW14852   5.851   3.426   0.741  0.4667 -0.5350 -0.1450
 2946SOL    HW114853   5.836   3.458   0.834 -1.1715  0.0673 -0.5913
 2946SOL    HW214854   5.773   3.372   0.710 -0.0246  1.0406 -1.8793
 2947SOL     OW14855   0.016   0.369   5.935  0.3032  0.3712 -0.2656
 2947SOL    HW114856   0.086   0.297   5.940 -0.1790 -0.0289  0.9423
 2947SOL    HW214857   0.034   0.437   6.006  0.7242  1.4415 -1.3688
 2948SOL     OW14858   3.008   3.755   0.649  0.3674 -0.4539  0.0666
 2948SOL    HW114859   2.949   3.675   0.644  0.7932 -0.8089  0.6786
 2948SOL    HW214860   2.975   3.817   0.720  1.6616 -1.4296  1.5631
 2949SOL     OW14861   5.840   6.203   0.826  0.5929 -0.2367 -0.5893
 2949SOL    HW114862   5.800   6.230   0.739  0.7032  2.3503  0.0763
 2949SOL    HW214863   5.827   6.105   0.840 -1.1707 -0.3522 -2.5838
 2950SOL     OW14864   5.834   0.290   0.689  0.0530  0.1976 -0.6253
 2950SOL    HW114865   5.914   0.346   0.670 -0.6069  2.2664  2.0919
 2950SOL    HW214866   5.863   0.197   0.714  1.6903  1.0458  0.8176
 2951SOL     OW14867   0.161   5.108   5.827 -0.2384 -0.3164  0.0610
 2951SOL    HW114868   0.147   5.182   5.893 -2.6280  0.7025 -1.4539
 2951SOL    HW214869   0.212   5.034   5.870  0.3021  1.2522  2.3086
 2952SOL     OW14870   4.511   0.604   5.869 -0.3519 -0.0799  0.2985
 2952SOL    HW114871   4.603   0.636   5.848  0.5318 -1.6923  1.4995
 2952SOL    HW214872   4.467   0.574   5.784  0.4849  0.0545 -0.2004
 2953SOL     OW14873   5.504   6.068   0.608  0.5976  0.2293  0.3651
 2953SOL    HW114874   5.524   5.976   0.573 -1.3546 -0.5971  1.2397
 2953SOL    HW214875   5.577   6.131   0.581  2.1549 -1.6274 -0.0020
 2954SOL     OW14876   6.156   2.505   0.525 -0.0062  0.0540 -0.2691
 2954SOL    HW114877   6.123   2.484   0.433  0.1837  1.1498 -0.6065
 2954SOL    HW214878   6.209   2.428   0.560  0.6297 -0.0487 -1.4200
 2955SOL     OW14879   1.955   2.171   0.188  0.2272 -0.3219  0.1288
 2955SOL    HW114880   1.974   2.097   0.253  1.0640 -0.0419  0.2086
 2955SOL    HW214881   1.995   2.148   0.099 -1.6881 -1.1378 -0.5954
 2956SOL     OW14882   0.202   0.183   5.965 -0.3626 -0.0121 -0.3500
 2956SOL    HW114883   0.156   0.107   6.010 -0.6783 -0.7750 -1.8991
 2956SOL    HW214884   0.279   0.213   6.022 -0.8389 -0.8026  0.7605
 2957SOL     OW14885   1.956   5.190   6.432 -0.1361  0.7915  0.7100
 2957SOL    HW114886   1.901   5.153   6.506 -1.8792 -1.3727 -1.5255
 2957SOL    HW214887   2.044   5.142   6.428 -0.2546  0.5497  1.0500
 2958SOL     OW14888   4.958   0.249   5.042  0.0842 -0.2489  0.6270
 2958SOL    HW114889   4.981   0.334   4.994 -1.2630 -1.1095 -1.7123
 2958SOL    HW214890   5.032   0.183   5.030 -0.2520 -0.4636 -0.3200
 2959SOL     OW14891   3.997   6.128   6.571 -0.5112  0.4265 -0.0352
 2959SOL    HW114892   3.974   6.202   6.509 -0.2817  0.5436  0.0186
 2959SOL    HW214893   4.002   6.163   6.665 -0.8618  0.2503  0.0515
 2960SOL     OW14894   1.017   4.228   5.957 -0.0796  0.0113  0.1540
 2960SOL    HW114895   0.993   4.138   5.993  0.7571  0.7038  2.6902
 2960SOL    HW214896   1.016   4.226   5.857  0.3317 -2.8878  0.1333
 2961SOL     OW14897   1.844   6.370   5.796  0.2261 -0.3825  0.4198
 2961SOL    HW114898   1.757   6.394   5.839  0.4637 -0.2158  0.8072
 2961SOL    HW214899   1.856   6.271   5.798 -0.4690 -0.5097 -0.6300
 2962SOL     OW14900   4.282   4.965   1.913  0.4969 -0.3678  0.0755
 2962SOL    HW114901   4.378   4.945   1.929  0.8855  1.0333 -0.3901
 2962SOL    HW214902   4.273   5.042   1.849 -0.9307 -0.6508 -0.1148
 2963SOL     OW14903   4.679   3.946   0.586 -0.3593 -0.0842 -0.5457
 2963SOL    HW114904   4.605   3.970   0.525  0.3963  1.5222 -0.8624
 2963SOL    HW214905   4.663   3.986   0.676 -0.6068 -1.0042 -0.1624
 2964SOL     OW14906   3.330   4.322   0.914  0.4006 -0.0761  0.3415
 2964SOL    HW114907   3.333   4.421   0.924 -1.0712  0.1967 -1.3532
 2964SOL    HW214908   3.311   4.280   1.002 -0.5360  1.2697  0.8109
 2965SOL     OW14909   3.622   3.385   5.238 -0.2228 -0.1050 -0.6142
 2965SOL    HW114910   3.538   3.332   5.230 -0.4079 -0.7238  3.2808
 2965SOL    HW214911   3.697   3.325   5.265  1.4714  0.5254 -3.5041
 2966SOL     OW14912   5.016   4.812   0.860 -0.0510  0.3324 -0.4741
 2966SOL    HW114913   5.042   4.871   0.937  2.0640 -0.0292 -0.8499
 2966SOL    HW214914   5.049   4.851   0.775 -1.6997  0.3311 -1.1489
 2967SOL     OW14915   4.927   5.265   1.498 -0.0135 -0.2860 -0.2147
 2967SOL    HW114916   4.996   5.329   1.531 -0.7381  0.3323  0.1307
 2967SOL    HW214917   4.887   5.215   1.575  0.4267 -1.0395 -0.4637
 2968SOL     OW14918   1.183   0.139   1.730 -0.4840 -0.8532  0.3299
 2968SOL    HW114919   1.202   0.183   1.818  0.0803 -0.8534  0.2149
 2968SOL    HW214920   1.104   0.080   1.739 -0.5137 -0.7483  0.8056
 2969SOL     OW14921   5.021   5.296   0.181  0.3045 -0.2003  0.8156
 2969SOL    HW114922   5.022   5.250   0.092  0.9981  1.1024  0.1183
 2969SOL    HW214923   4.929   5.293   0.219 -0.2121 -0.0397 -0.3533
 2970SOL     OW14924   0.113   1.099   5.741 -0.5755 -0.7405 -0.2938
 2970SOL    HW114925   0.051   1.072   5.814 -1.3131  2.8009  0.5516
 2970SOL    HW214926   0.199   1.131   5.780 -0.2905 -0.5102 -1.0881
 2971SOL     OW14927   3.878   0.875   0.230  0.2042 -0.2686 -0.5267
 2971SOL    HW114928   3.868   0.823   0.314  0.0822 -0.2383 -0.5220
 2971SOL    HW214929   3.919   0.817   0.159 -1.9252 -1.0707 -1.1782
 2972SOL     OW14930   2.630   3.474   5.630 -0.2186 -0.0646  0.1392
 2972SOL    HW114931   2.672   3.563   5.648 -1.2569  0.4608  0.0196
 2972SOL    HW214932   2.687   3.422   5.566 -0.6598  1.3617 -1.4667
 2973SOL     OW14933   0.301   1.015   0.204  0.1358  0.5796 -0.0666
 2973SOL    HW114934   0.257   0.949   0.143 -0.3748 -0.5056  1.4249
 2973SOL    HW214935   0.400   1.003   0.201 -0.0253 -1.9857  1.9829
 2974SOL     OW14936   4.941   2.570   6.337 -0.6464 -0.2614 -0.1725
 2974SOL    HW114937   5.007   2.523   6.279 -1.5177 -1.0911 -0.5007
 2974SOL    HW214938   4.890   2.637   6.283 -1.3686 -0.9450 -0.3626
 2975SOL     OW14939   2.995   0.816   6.133  0.0858  1.2012 -0.0022
 2975SOL    HW114940   3.037   0.899   6.096 -0.8060  1.6948  0.0599
 2975SOL    HW214941   3.053   0.737   6.114  0.8073  1.8002 -0.3129
 2976SOL     OW14942   0.982   1.775   4.894 -0.6602 -0.5351  0.6970
 2976SOL    HW114943   1.046   1.827   4.837 -0.3248 -1.8533 -0.1572
 2976SOL    HW214944   1.011   1.679   4.898 -0.9997 -0.5927  2.6285
 2977SOL     OW14945   2.163   5.575   5.296  0.3347  0.1012  0.2213
 2977SOL    HW114946   2.226   5.573   5.218 -1.2071 -0.6477 -1.0668
 2977SOL    HW214947   2.211   5.609   5.377  1.9767  0.9961 -1.0604
 2978SOL     OW14948   2.272   3.891   6.520  0.5770 -0.1500 -0.0268
 2978SOL    HW114949   2.233   3.879   6.429  0.3524 -0.7731  0.1513
 2978SOL    HW214950   2.353   3.950   6.514  0.1818  0.3522 -0.5321
 2979SOL     OW14951   2.946   4.911   1.825 -0.2163  0.5827 -0.3823
 2979SOL    HW114952   2.852   4.886   1.851  0.5494 -0.6141  1.5052
 2979SOL    HW214953   3.009   4.845   1.866  1.6659  3.1192  1.0865
 2980SOL     OW14954   6.112   0.042   1.181 -0.0659  0.1870  0.2621
 2980SOL    HW114955   6.014   0.023   1.175 -0.7025  3.3366 -1.7255
 2980SOL    HW214956   6.146   0.071   1.092  2.0008  2.0039  1.5236
 2981SOL     OW14957   5.034   6.435   5.976  0.5687 -0.7421  0.1390
 2981SOL    HW114958   5.089   6.491   6.039 -1.2966  1.8402 -0.3675
 2981SOL    HW214959   4.937   6.455   5.990 -0.0144 -1.9710 -1.8614
 2982SOL     OW14960   3.899   0.362   6.265 -0.3418  0.4350  0.2703
 2982SOL    HW114961   3.899   0.274   6.218 -1.3606  0.4177  0.2811
 2982SOL    HW214962   3.882   0.435   6.198 -2.4677  0.3582  0.6325
 2983SOL     OW14963   4.508   2.120   5.848 -0.5083  0.4656  0.4251
 2983SOL    HW114964   4.561   2.154   5.926 -1.4565 -0.4175  1.4917
 2983SOL    HW214965   4.450   2.044   5.878 -0.7041 -0.0752 -1.2129
 2984SOL     OW14966   6.157   1.494   0.356 -0.3610  0.7397  0.2969
 2984SOL    HW114967   6.142   1.589   0.383 -0.6613  0.8465 -0.2303
 2984SOL    HW214968   6.228   1.453   0.414 -2.5760  0.2252  2.8376
 2985SOL     OW14969   2.798   0.109   1.409  0.2088 -0.3407  0.0408
 2985SOL    HW114970   2.812   0.205   1.433  1.5652 -0.1839 -1.2684
 2985SOL    HW214971   2.864   0.052   1.458 -0.0803 -0.5416  0.2087
 2986SOL     OW14972   4.110   1.371   1.039 -0.1075 -0.1774  0.0243
 2986SOL    HW114973   4.192   1.429   1.043 -0.3258  0.0548  1.3231
 2986SOL    HW214974   4.084   1.358   0.943  1.3458 -0.1150 -0.4042
 2987SOL     OW14975   4.189   1.799   0.088  0.1000 -0.7819  0.1230
 2987SOL    HW114976   4.246   1.865   0.039  0.6827 -2.3313 -1.3721
 2987SOL    HW214977   4.206   1.806   0.186 -1.8109  3.1071  0.3699
 2988SOL     OW14978   3.284   1.600   6.113  0.1905  0.3107  0.0150
 2988SOL    HW114979   3.230   1.581   6.194  1.0313  0.2761  0.5828
 2988SOL    HW214980   3.369   1.547   6.115  1.3808  2.0968  0.3642
 2989SOL     OW14981   4.730   4.185   1.275 -0.0541 -0.3703  0.0347
 2989SOL    HW114982   4.742   4.163   1.372 -1.6758  0.3841  0.4598
 2989SOL    HW214983   4.719   4.100   1.222 -1.1667 -0.7517  0.8409
 2990SOL     OW14984   5.291   3.676   5.434 -0.2880  0.1369 -0.1893
 2990SOL    HW114985   5.297   3.590   5.383  1.1886 -0.0006  0.2003
 2990SOL    HW214986   5.351   3.744   5.392 -0.5236  0.6112  0.2355
 2991SOL     OW14987   2.202   1.927   6.227  0.4606 -0.2867 -0.4139
 2991SOL    HW114988   2.192   2.020   6.191  0.5383 -0.7775 -1.7308
 2991SOL    HW214989   2.242   1.932   6.319  0.0066  1.0005 -0.2614
 2992SOL     OW14990   1.947   5.133   0.210 -0.4026  0.4525  0.0223
 2992SOL    HW114991   1.924   5.219   0.163 -2.0134 -0.0129 -0.1075
 2992SOL    HW214992   2.046   5.122   0.213 -0.1985  0.8145 -2.7376
 2993SOL     OW14993   4.943   5.922   0.727 -0.1831  0.4677 -0.1637
 2993SOL    HW114994   4.987   6.010   0.705 -0.3378  0.4398 -0.5927
 2993SOL    HW214995   4.951   5.860   0.649 -0.1161  0.1130  0.1219
 2994SOL     OW14996   1.859   3.041   0.037 -0.0021  0.1236  0.8829
 2994SOL    HW114997   1.772   3.084   0.012 -0.7157 -0.7981  1.7309
 2994SOL    HW214998   1.858   3.017   0.134  0.4676 -1.5461  0.5047
 2995SOL     OW14999   2.092   5.773   6.312  0.4018  0.1623  0.5360
 2995SOL    HW115000   2.001   5.753   6.347 -0.6708  1.2853 -1.4195
 2995SOL    HW215001   2.148   5.811   6.385 -1.4342  1.6189  1.2725
 2996SOL     OW15002   0.751   5.452   1.124 -0.2147 -0.1635  0.3760
 2996SOL    HW115003   0.794   5.367   1.153  1.3773  0.3881 -0.2242
 2996SOL    HW215004   0.814   5.529   1.141 -0.4956  0.5519 -1.5250
 2997SOL     OW15005   4.349   2.378   1.588 -0.0744 -0.0811 -0.5176
 2997SOL    HW115006   4.417   2.308   1.610 -0.6960 -0.1612  1.2894
 2997SOL    HW215007   4.396   2.465   1.570  0.6210 -0.6508 -1.6256
 2998SOL     OW15008   0.054   4.878   1.164 -0.1675 -0.0927 -0.6309
 2998SOL    HW115009   0.000   4.915   1.240 -1.3488 -0.2172 -1.3704
 2998SOL    HW215010   0.143   4.923   1.161 -0.9591  1.5521 -0.5431
 2999SOL     OW15011   6.254   2.401   5.945  0.0608  0.7233 -0.3286
 2999SOL    HW115012   6.333   2.430   5.892  0.1826 -0.4690 -0.8290
 2999SOL    HW215013   6.194   2.479   5.963  1.2235  1.5872 -0.1452
 3000SOL     OW15014   2.039   2.582   4.961 -0.0463  0.0004  0.2252
 3000SOL    HW115015   2.065   2.554   5.053 -0.0248  1.7599  0.7957
 3000SOL    HW215016   2.109   2.642   4.923 -0.7549  0.4957 -0.3446
 3001SOL     OW15017   0.737   1.082   6.024  0.1583 -0.6134  0.0901
 3001SOL    HW115018   0.835   1.091   6.007 -0.1656  1.3671 -1.0935
 3001SOL    HW215019   0.711   1.139   6.102 -0.3130  0.5140 -0.8486
 3002SOL     OW15020   5.452   0.482   5.739  0.1217  0.1526  0.2473
 3002SOL    HW115021   5.502   0.569   5.740  0.1675  0.1319  1.6262
 3002SOL    HW215022   5.517   0.407   5.729 -0.0617  0.3124 -2.9335
 3003SOL     OW15023   2.913   5.038   0.926 -0.3230  0.0706 -0.3143
 3003SOL    HW115024   2.829   4.984   0.926 -0.4773  0.2942 -1.0493
 3003SOL    HW215025   2.904   5.113   0.860  0.3800  0.2093 -0.2581
 3004SOL     OW15026   2.875   2.845   6.423 -0.2182 -0.5698 -0.2871
 3004SOL    HW115027   2.880   2.900   6.339 -1.2433 -0.9540 -0.6100
 3004SOL    HW215028   2.955   2.864   6.479 -0.0712  0.5279 -0.8363
 3005SOL     OW15029   1.955   0.848   5.287  0.2453  0.1016 -0.2435
 3005SOL    HW115030   1.931   0.852   5.190  0.3972  0.0193 -0.2853
 3005SOL    HW215031   2.032   0.786   5.299  0.4583  0.3906 -0.1163
 3006SOL     OW15032   4.185   5.354   0.909 -0.0598 -0.1714  0.2643
 3006SOL    HW115033   4.130   5.396   0.837 -0.4198 -1.4063 -0.2089
 3006SOL    HW215034   4.192   5.256   0.893 -0.6687 -0.5885  2.2660
 3007SOL     OW15035   3.754   4.227   5.826  0.3076 -0.1845  0.2188
 3007SOL    HW115036   3.832   4.165   5.835  0.3114  0.0293  2.0823
 3007SOL    HW215037   3.673   4.184   5.866  0.4219  1.1293  2.0133
 3008SOL     OW15038   3.766   5.706   5.896  0.3917  0.0876  0.2573
 3008SOL    HW115039   3.676   5.682   5.931 -0.2317 -0.6507 -1.7015
 3008SOL    HW215040   3.820   5.623   5.883  0.5339  0.3058 -0.6348
 3009SOL     OW15041   6.306   1.566   6.388  0.0600  0.6982  0.2338
 3009SOL    HW115042   6.375   1.494   6.397  0.0629  0.3970 -1.7608
 3009SOL    HW215043   6.265   1.584   6.478  2.1637  0.3504  1.3380
 3010SOL     OW15044   1.741   5.828   5.721  0.3086 -0.4463 -0.2138
 3010SOL    HW115045   1.821   5.821   5.780  1.4710  0.2353 -1.6232
 3010SOL    HW215046   1.681   5.901   5.754  1.8695  1.1973 -0.8657
 3011SOL     OW15047   4.346   2.878   1.026  0.2524  0.2908  0.3916
 3011SOL    HW115048   4.426   2.892   0.967  1.1554  0.6682  1.6315
 3011SOL    HW215049   4.354   2.790   1.073 -1.8846 -1.3604 -2.1001
 3012SOL     OW15050   0.213   1.655   1.093 -0.1033 -0.3145  0.4774
 3012SOL    HW115051   0.284   1.704   1.043  2.4768 -2.5436  1.6989
 3012SOL    HW215052   0.148   1.720   1.132  0.8902  1.7783 -1.1858
 3013SOL     OW15053   2.855   0.275   6.006 -0.3721 -0.0591  0.1756
 3013SOL    HW115054   2.810   0.365   6.010  0.1482  0.3244 -1.7487
 3013SOL    HW215055   2.867   0.248   5.911  1.7449 -1.0283  0.6629
 3014SOL     OW15056   5.595   5.541   6.308 -0.3604  0.2366  0.0811
 3014SOL    HW115057   5.518   5.502   6.257  0.3953 -0.9174 -0.2092
 3014SOL    HW215058   5.597   5.502   6.401 -0.1462  0.2850  0.0977
 3015SOL     OW15059   1.807   5.775   0.559 -0.3754 -0.2452  0.2887
 3015SOL    HW115060   1.775   5.840   0.491 -0.3317  1.1438  1.5338
 3015SOL    HW215061   1.747   5.695   0.561 -1.5985  0.6502  0.0654
 3016SOL     OW15062   6.187   3.008   5.514  0.0344  0.5161 -0.0292
 3016SOL    HW115063   6.221   2.917   5.536  3.7520  1.4981 -1.0105
 3016SOL    HW215064   6.132   3.004   5.430 -0.4510 -0.8751  0.3260
 3017SOL     OW15065   3.938   0.140   6.541 -0.4459 -0.2932  0.1269
 3017SOL    HW115066   3.895   0.103   6.624  0.6130  0.7800  1.1927
 3017SOL    HW215067   4.022   0.188   6.566  0.2862 -0.5890 -1.6841
 3018SOL     OW15068   2.465   0.312   0.635  0.5778 -0.0957 -0.0420
 3018SOL    HW115069   2.388   0.356   0.680  0.9580  0.9600 -0.3864
 3018SOL    HW215070   2.433   0.268   0.551 -0.1547 -2.1847  1.2519
 3019SOL     OW15071   5.489   4.316   6.473  0.0336 -0.0319 -0.0281
 3019SOL    HW115072   5.448   4.269   6.551 -1.0724 -2.1905 -1.8235
 3019SOL    HW215073   5.437   4.400   6.454 -0.0937  0.1637  1.1119
 3020SOL     OW15074   3.613   1.962   6.390  0.6034 -0.0213 -0.1148
 3020SOL    HW115075   3.682   1.902   6.351  0.5180 -1.4448  1.7878
 3020SOL    HW215076   3.648   2.005   6.473 -0.3792  0.1768  0.2184
 3021SOL     OW15077   1.458   1.493   5.354  0.0812  0.0471  0.0599
 3021SOL    HW115078   1.527   1.566   5.346  0.8781 -0.3577  2.4706
 3021SOL    HW215079   1.500   1.405   5.331  0.6072 -0.2770  2.0818
 3022SOL     OW15080   4.195   4.409   5.197  0.2257  0.6844 -0.0537
 3022SOL    HW115081   4.120   4.470   5.175  0.6834  1.6502  0.9535
 3022SOL    HW215082   4.263   4.412   5.123  0.9245  2.5376  0.5940
 3023SOL     OW15083   4.143   1.226   5.720 -0.7674  0.2692  0.2907
 3023SOL    HW115084   4.122   1.267   5.631  0.1896 -0.8797 -0.4905
 3023SOL    HW215085   4.239   1.199   5.722 -0.7114  0.5283  1.7876
 3024SOL     OW15086   0.617   5.861   6.456 -0.3742 -0.0183 -0.0043
 3024SOL    HW115087   0.523   5.864   6.490 -0.3814 -1.3849  0.1452
 3024SOL    HW215088   0.673   5.923   6.510 -0.9097 -0.2409  0.8301
 3025SOL     OW15089   1.001   2.793   0.393  0.2963  0.0647  0.2142
 3025SOL    HW115090   1.077   2.855   0.408 -1.6616  3.3098 -1.9382
 3025SOL    HW215091   1.022   2.704   0.433  3.5797  1.8222  2.9383
 3026SOL     OW15092   2.792   6.111   5.520  0.3168 -0.3342  0.2970
 3026SOL    HW115093   2.856   6.162   5.578 -0.1126  2.6325 -1.6080
 3026SOL    HW215094   2.839   6.080   5.437  0.3918 -2.5818  1.1122
 3027SOL     OW15095   0.158   1.677   5.915 -0.9898 -0.0270 -0.3778
 3027SOL    HW115096   0.236   1.654   5.857 -1.4324  0.0800 -1.0277
 3027SOL    HW215097   0.074   1.642   5.874 -1.1981 -0.8888  0.7527
 3028SOL     OW15098   4.338   5.566   5.918 -0.2059  0.3381  0.3972
 3028SOL    HW115099   4.258   5.584   5.975 -0.4656 -0.9071  0.4482
 3028SOL    HW215100   4.322   5.605   5.827 -2.1783 -2.3055 -0.5394
 3029SOL     OW15101   2.232   6.295   5.738 -0.4002  0.9693 -0.3421
 3029SOL    HW115102   2.283   6.331   5.660 -0.1911  0.6524 -0.3515
 3029SOL    HW215103   2.154   6.241   5.706 -0.5001  1.1035 -0.3288
 3030SOL     OW15104   1.929   2.601   0.793  0.1001  0.1621  0.5263
 3030SOL    HW115105   1.858   2.614   0.863 -0.2526  0.6550  0.0898
 3030SOL    HW215106   1.887   2.610   0.702  0.8189  0.9744  0.2690
 3031SOL     OW15107   1.419   1.443   5.045  0.7483  0.1763  0.0903
 3031SOL    HW115108   1.405   1.440   4.946  0.9236 -1.3326  0.0908
 3031SOL    HW215109   1.352   1.504   5.087  0.1779  0.2301 -0.8734
 3032SOL     OW15110   3.132   4.796   5.686 -0.2674  0.3598  0.6275
 3032SOL    HW115111   3.194   4.717   5.683  0.3249  0.8474 -0.7956
 3032SOL    HW215112   3.049   4.775   5.635  0.6035  1.1875 -1.2389
 3033SOL     OW15113   0.860   0.765   1.180 -0.5487 -0.7162  0.6514
 3033SOL    HW115114   0.789   0.716   1.232 -1.6058 -0.7164 -0.7147
 3033SOL    HW215115   0.937   0.704   1.164 -0.6018 -1.0009  1.4419
 3034SOL     OW15116   2.051   4.239   0.324 -0.0577  0.6181 -0.0828
 3034SOL    HW115117   2.107   4.192   0.392 -0.4648  1.4247  0.8320
 3034SOL    HW215118   2.091   4.226   0.233  0.9215  0.1664  0.3948
 3035SOL     OW15119   2.171   6.272   0.126 -0.0053 -0.5457  0.1291
 3035SOL    HW115120   2.259   6.259   0.080 -0.2138 -0.1806 -0.3861
 3035SOL    HW215121   2.097   6.242   0.065 -0.2731 -0.2587  0.3104
 3036SOL     OW15122   0.229   3.397   0.369  0.0080 -0.5627  0.3505
 3036SOL    HW115123   0.283   3.331   0.318 -2.0127 -0.9605 -1.4184
 3036SOL    HW215124   0.199   3.470   0.308 -1.1124 -0.1626  1.3472
 3037SOL     OW15125   1.791   3.103   0.980  0.4616 -0.2168 -0.5713
 3037SOL    HW115126   1.738   3.036   0.928 -0.7935 -0.1072  0.5163
 3037SOL    HW215127   1.888   3.097   0.954  0.3738 -2.3862 -0.5366
 3038SOL     OW15128   0.507   4.461   6.317  0.4353 -0.0023 -0.0192
 3038SOL    HW115129   0.461   4.380   6.351  0.3304  1.3422  3.3890
 3038SOL    HW215130   0.444   4.539   6.318  1.6162  0.9752  0.6896
 3039SOL     OW15131   3.420   1.629   0.325  0.6424  0.3061 -0.2470
 3039SOL    HW115132   3.356   1.672   0.389  0.4500  0.0058 -0.2385
 3039SOL    HW215133   3.501   1.598   0.375  0.6086  0.3077 -0.1908
 3040SOL     OW15134   1.737   2.556   1.030  0.4292  0.1536 -0.5878
 3040SOL    HW115135   1.748   2.544   1.128  0.3552 -0.3653 -0.6391
 3040SOL    HW215136   1.657   2.504   0.999 -0.7500  1.9091 -0.5974
 3041SOL     OW15137   2.006   3.081   0.329  0.3870 -0.1293  0.0501
 3041SOL    HW115138   2.056   3.083   0.243 -0.5252  1.7808 -0.4938
 3041SOL    HW215139   1.915   3.121   0.316  0.5825  1.1547  2.0904
 3042SOL     OW15140   0.337   2.129   6.548  0.0251 -0.9325 -0.0081
 3042SOL    HW115141   0.387   2.185   6.482  0.6330 -0.2792  0.9862
 3042SOL    HW215142   0.401   2.073   6.600 -0.5985 -3.0171 -1.3473
 3043SOL     OW15143   1.766   1.591   6.588  0.0131  0.1424  0.5997
 3043SOL    HW115144   1.859   1.574   6.554 -0.9423  1.1841 -2.9284
 3043SOL    HW215145   1.721   1.503   6.603  1.4892 -0.3802  2.3260
 3044SOL     OW15146   1.083   0.580   0.745 -0.1937 -0.3797 -0.2079
 3044SOL    HW115147   1.017   0.651   0.719  1.2869  0.9856 -0.3479
 3044SOL    HW215148   1.100   0.520   0.667 -2.9062 -2.1834  0.4355
 3045SOL     OW15149   3.285   4.997   0.783  0.6841 -0.4410  0.5333
 3045SOL    HW115150   3.202   4.942   0.777 -0.0347  0.4326  1.9988
 3045SOL    HW215151   3.306   5.016   0.879  0.9967  1.7156  0.0847
 3046SOL     OW15152   2.250   3.413   6.292  0.3457 -0.1397 -0.4274
 3046SOL    HW115153   2.233   3.336   6.230  0.4004 -0.9553  0.5310
 3046SOL    HW215154   2.311   3.383   6.366  1.3119  1.1604 -0.6640
 3047SOL     OW15155   2.295   4.772   0.780 -0.3671 -0.0278  0.1762
 3047SOL    HW115156   2.315   4.745   0.874  1.1266  0.0377 -0.1020
 3047SOL    HW215157   2.198   4.758   0.761 -0.4324 -1.2834  1.3107
 3048SOL     OW15158   5.835   0.016   0.541 -0.0764 -0.4286 -0.2985
 3048SOL    HW115159   5.929   0.018   0.506  0.3473  0.9478  0.8663
 3048SOL    HW215160   5.772   0.043   0.467  0.5587 -0.0535 -0.7132
 3049SOL     OW15161   2.591   3.127   0.171 -0.1082 -0.2731 -0.5605
 3049SOL    HW115162   2.655   3.148   0.097 -1.0658 -2.4156 -2.1253
 3049SOL    HW215163   2.641   3.113   0.256  1.1179  1.4397 -0.9618
 3050SOL     OW15164   0.279   6.191   1.469 -0.1504  0.5196 -0.1422
 3050SOL    HW115165   0.254   6.232   1.557 -0.1099  1.1318 -0.4084
 3050SOL    HW215166   0.379   6.186   1.462 -0.1059 -2.3013  1.0943
 3051SOL     OW15167   0.457   1.398   0.425 -0.1504 -0.2573 -0.1364
 3051SOL    HW115168   0.396   1.476   0.409 -1.2700 -1.0366  0.2307
 3051SOL    HW215169   0.405   1.324   0.468  1.0182 -1.0192 -0.0152
 3052SOL     OW15170   1.688   4.715   6.017 -0.0313 -0.1304 -0.4545
 3052SOL    HW115171   1.630   4.750   6.091 -0.4140 -3.2455  0.8961
 3052SOL    HW215172   1.631   4.691   5.938  0.0656  0.9679 -0.8750
 3053SOL     OW15173   0.528   4.214   5.606  0.2450 -0.7525 -0.2410
 3053SOL    HW115174   0.587   4.155   5.661  0.2957 -1.4183 -1.0047
 3053SOL    HW215175   0.548   4.201   5.509  0.7303  1.0111 -0.4158
 3054SOL     OW15176   1.374   3.802   5.515 -0.3159 -0.2773  0.1973
 3054SOL    HW115177   1.352   3.894   5.481 -0.7070 -0.8372 -1.1412
 3054SOL    HW215178   1.466   3.802   5.555  0.2010  0.4286 -0.9341
 3055SOL     OW15179   1.352   3.500   5.472  0.2259 -0.4555 -0.2715
 3055SOL    HW115180   1.413   3.557   5.527 -2.7475  1.3497  1.4419
 3055SOL    HW215181   1.367   3.519   5.375  0.9116  1.5712  0.1809
 3056SOL     OW15182   0.686   1.261   5.790  0.0029 -0.3521  0.0771
 3056SOL    HW115183   0.708   1.205   5.710 -3.0770  0.6247 -1.5944
 3056SOL    HW215184   0.678   1.203   5.871 -0.6164 -1.9725 -1.0959
 3057SOL     OW15185   2.219   3.733   0.167 -0.1005  0.0838 -0.0343
 3057SOL    HW115186   2.262   3.790   0.236 -0.7221  0.4173  0.0831
 3057SOL    HW215187   2.217   3.781   0.079 -1.2182  0.5300  0.2165
 3058SOL     OW15188   6.262   1.753   0.981 -0.8476 -0.7437  0.1977
 3058SOL    HW115189   6.245   1.698   0.899 -0.0037 -2.4346  1.1078
 3058SOL    HW215190   6.182   1.810   1.000 -0.6479  0.5721 -2.4136
 3059SOL     OW15191   2.632   0.606   1.188  0.2170  0.1333  0.4133
 3059SOL    HW115192   2.692   0.648   1.256 -0.4182  0.5063  0.7501
 3059SOL    HW215193   2.538   0.608   1.220  0.1553 -1.5327  0.4130
 3060SOL     OW15194   4.263   4.647   6.499  0.4291 -0.2731 -0.3175
 3060SOL    HW115195   4.191   4.716   6.510  0.6805 -0.0687  0.1055
 3060SOL    HW215196   4.234   4.578   6.434  0.1697  0.2339 -0.7428
 3061SOL     OW15197   4.618   2.626   5.435  0.2354  0.2303  0.4282
 3061SOL    HW115198   4.592   2.714   5.475  0.4985  1.0117 -1.0465
 3061SOL    HW215199   4.542   2.589   5.383  0.9133  0.8657 -1.0759
 3062SOL     OW15200   4.724   5.426   0.886  0.1548  0.4629 -0.0184
 3062SOL    HW115201   4.741   5.380   0.799  1.8754  1.5639 -0.3193
 3062SOL    HW215202   4.650   5.380   0.935  0.4346 -1.3213 -1.2062
 3063SOL     OW15203   4.426   6.336   0.091 -0.3711 -0.0482 -0.1173
 3063SOL    HW115204   4.433   6.344   0.190  0.9639  0.1836 -0.2174
 3063SOL    HW215205   4.461   6.247   0.062 -2.3108 -0.8327 -0.2671
 3064SOL     OW15206   2.704   3.096   5.715  0.5083  0.1039 -0.5820
 3064SOL    HW115207   2.793   3.088   5.759  0.2181 -0.7053 -0.1073
 3064SOL    HW215208   2.675   3.006   5.682 -0.9209 -0.0236  0.8677
 3065SOL     OW15209   1.597   3.978   1.372  0.6744  0.4013  0.2847
 3065SOL    HW115210   1.516   3.920   1.377  1.8567 -1.7485 -2.5624
 3065SOL    HW215211   1.642   3.982   1.461  0.3307 -2.8604  0.7142
 3066SOL     OW15212   4.676   0.108   5.992 -0.3025  0.2445  0.5994
 3066SOL    HW115213   4.580   0.099   6.017 -0.4115  2.0677  0.9755
 3066SOL    HW215214   4.705   0.203   6.003  1.6425 -0.3149  0.8191
 3067SOL     OW15215   4.432   0.502   5.342  0.0848 -0.9839  0.2858
 3067SOL    HW115216   4.370   0.578   5.364  0.2948 -1.0442  1.1396
 3067SOL    HW215217   4.378   0.420   5.323 -0.2018 -0.3195 -2.0195
 3068SOL     OW15218   1.294   1.907   6.476 -0.0022  0.3746  0.4295
 3068SOL    HW115219   1.364   1.842   6.505  1.2876  0.4886 -2.1213
 3068SOL    HW215220   1.331   2.000   6.478 -0.9985  0.7693  1.5993
 3069SOL     OW15221   1.970   1.997   5.059 -0.8141  0.5167 -0.3280
 3069SOL    HW115222   1.952   2.093   5.039 -2.3401  0.8024  2.0109
 3069SOL    HW215223   1.885   1.951   5.084  0.1797 -0.9152  0.5971
 3070SOL     OW15224   4.483   5.158   6.195  0.0808 -0.3306  0.1308
 3070SOL    HW115225   4.425   5.080   6.169 -0.7060  0.2189  0.2006
 3070SOL    HW215226   4.439   5.243   6.167  0.3966  0.1509  1.0460
 3071SOL     OW15227   6.045   2.459   6.549  0.3574  0.2344  0.7232
 3071SOL    HW115228   6.045   2.493   6.455 -0.3506  2.4002  1.4395
 3071SOL    HW215229   6.007   2.367   6.551  0.6798  0.0135 -1.1345
 3072SOL     OW15230   4.286   5.112   0.916  0.0014  0.0153 -0.2509
 3072SOL    HW115231   4.383   5.118   0.895  0.1484 -0.3793  0.2766
 3072SOL    HW215232   4.272   5.040   0.985 -0.8946 -1.3340 -1.7771
 3073SOL     OW15233   3.645   6.327   1.387  0.1525 -0.1788  0.0469
 3073SOL    HW115234   3.691   6.307   1.473  1.1954  1.6934 -0.0288
 3073SOL    HW215235   3.559   6.274   1.382  0.3274 -0.7183  1.9613
 3074SOL     OW15236   4.893   4.616   1.455 -0.0774  0.6461  1.5276
 3074SOL    HW115237   4.911   4.584   1.547 -1.0667  0.8844  1.8213
 3074SOL    HW215238   4.879   4.538   1.394 -0.1690  0.4923  1.7470
 3075SOL     OW15239   2.572   0.238   0.141 -0.6864  0.3029  0.4086
 3075SOL    HW115240   2.532   0.205   0.056 -0.3248 -0.0779  0.3862
 3075SOL    HW215241   2.511   0.307   0.181 -0.5706  0.9255 -0.4536
 3076SOL     OW15242   0.212   5.251   6.057 -0.0844  0.1722  0.2900
 3076SOL    HW115243   0.217   5.340   6.012 -1.6379  0.6987  1.0865
 3076SOL    HW215244   0.238   5.261   6.153 -1.0536 -0.0684  0.5819
 3077SOL     OW15245   6.322   0.581   6.590 -0.0127 -0.2543 -0.7355
 3077SOL    HW115246   6.371   0.523   6.655  0.2481  0.7268 -0.0318
 3077SOL    HW215247   6.308   0.531   6.504  2.0607 -0.6128 -0.9055
 3078SOL     OW15248   2.852   4.441   0.877  0.2392  0.3064  0.4926
 3078SOL    HW115249   2.765   4.400   0.849 -0.6597  1.3592  1.6263
 3078SOL    HW215250   2.900   4.476   0.797 -0.7743  0.4627 -0.0622
 3079SOL     OW15251   4.745   5.103   5.314 -0.3295 -0.0100 -0.2074
 3079SOL    HW115252   4.733   5.062   5.224 -0.3148  1.4789 -0.9144
 3079SOL    HW215253   4.722   5.200   5.310 -0.0915  0.1365  1.3421
 3080SOL     OW15254   2.600   4.424   0.758 -0.3312 -0.8727  0.0789
 3080SOL    HW115255   2.622   4.439   0.661  0.4180 -2.0224  0.0552
 3080SOL    HW215256   2.508   4.457   0.777 -0.8197 -1.4535 -1.2314
 3081SOL     OW15257   2.975   5.324   0.306  0.0969 -0.1325  0.2299
 3081SOL    HW115258   2.946   5.399   0.247 -0.4410 -1.1028 -0.7664
 3081SOL    HW215259   2.967   5.353   0.402  2.0522  1.8509 -0.1379
 3082SOL     OW15260   0.958   0.482   0.377  0.3423  0.5022  0.4669
 3082SOL    HW115261   0.993   0.575   0.370 -2.0702  1.5000  0.6876
 3082SOL    HW215262   0.899   0.463   0.298 -0.3033 -0.3182  1.1283
 3083SOL     OW15263   2.266   4.465   0.653  0.1031 -0.4455 -0.2503
 3083SOL    HW115264   2.215   4.548   0.630  0.2307 -0.7064 -1.5422
 3083SOL    HW215265   2.278   4.460   0.752 -2.1484 -0.2457  0.0838
 3084SOL     OW15266   2.413   5.730   5.445  0.2476  0.0369 -0.4222
 3084SOL    HW115267   2.510   5.735   5.472  1.1170 -0.7601 -3.0506
 3084SOL    HW215268   2.357   5.779   5.512  2.3642 -0.0725  1.5578
 3085SOL     OW15269   3.435   1.223   5.770 -0.2546 -0.5718 -0.2575
 3085SOL    HW115270   3.453   1.290   5.698 -0.0413  0.1333  0.4327
 3085SOL    HW215271   3.382   1.147   5.732  1.0432 -0.9082 -1.4671
 3086SOL     OW15272   2.028   3.688   5.301  0.4216 -0.1418 -0.0918
 3086SOL    HW115273   2.125   3.707   5.288 -0.1280  2.1705 -1.2769
 3086SOL    HW215274   2.012   3.590   5.286  2.7342 -0.8993  1.6488
 3087SOL     OW15275   4.068   1.074   0.562  0.1007 -0.0765  0.2037
 3087SOL    HW115276   4.066   1.072   0.462  0.3742  0.1047  0.1910
 3087SOL    HW215277   4.093   0.984   0.597 -0.2265 -0.2010  0.1169
 3088SOL     OW15278   3.166   1.217   5.601 -0.4789  0.1127  0.3425
 3088SOL    HW115279   3.251   1.265   5.583 -0.2086  0.7628  2.9604
 3088SOL    HW215280   3.186   1.121   5.621 -0.1703  0.5261  2.1555
 3089SOL     OW15281   3.622   2.184   5.937  0.4389  0.5219  0.0837
 3089SOL    HW115282   3.587   2.158   6.026 -0.1699  2.8306  0.5839
 3089SOL    HW215283   3.721   2.175   5.936  0.4365  0.3322  0.9299
 3090SOL     OW15284   4.538   4.245   0.415 -0.2199  0.3253 -0.4043
 3090SOL    HW115285   4.535   4.299   0.331 -1.1193  0.4960 -0.2779
 3090SOL    HW215286   4.525   4.148   0.393 -0.4592  0.3704 -0.4679
 3091SOL     OW15287   1.449   0.956   0.167 -0.2667  0.2375 -0.5147
 3091SOL    HW115288   1.387   0.882   0.143  0.4407 -0.9343  1.0571
 3091SOL    HW215289   1.480   0.945   0.262 -0.8013  3.0387  0.1037
 3092SOL     OW15290   1.337   1.989   0.891  0.6219  0.4210  0.4326
 3092SOL    HW115291   1.341   2.006   0.792 -0.9574  0.6507  0.3816
 3092SOL    HW215292   1.340   1.891   0.908 -2.8435  0.0915 -0.1566
 3093SOL     OW15293   1.744   1.555   5.900 -0.3510  0.1304  0.4668
 3093SOL    HW115294   1.728   1.613   5.980  3.3573  1.7541  0.2215
 3093SOL    HW215295   1.702   1.597   5.820  0.0100  1.0604  0.7564
 3094SOL     OW15296   2.349   5.494   0.915  0.2162 -0.1821 -0.1065
 3094SOL    HW115297   2.305   5.453   0.995  1.7612 -0.1907  0.7856
 3094SOL    HW215298   2.378   5.421   0.852 -0.8016 -0.1874 -0.5877
 3095SOL     OW15299   2.051   0.501   6.473  0.1549 -0.0406 -0.3307
 3095SOL    HW115300   2.068   0.508   6.375 -0.7462 -1.0711 -0.5853
 3095SOL    HW215301   1.971   0.557   6.497 -0.1931 -0.5185 -0.3608
 3096SOL     OW15302   1.467   2.997   1.050 -0.0394  0.0980 -0.4950
 3096SOL    HW115303   1.381   2.998   1.102  0.5173 -0.1806  0.4687
 3096SOL    HW215304   1.475   3.080   0.996 -1.6336 -0.5499 -1.8276
 3097SOL     OW15305   1.515   1.342   0.481 -0.2728  1.0466 -0.0952
 3097SOL    HW115306   1.601   1.390   0.461  0.1122  0.0597 -0.8602
 3097SOL    HW215307   1.475   1.380   0.565  0.4680  2.0960 -0.1971
 3098SOL     OW15308   5.970   1.245   5.445 -0.5066  0.0727  0.1508
 3098SOL    HW115309   5.888   1.259   5.499 -0.2712  1.5477  0.1759
 3098SOL    HW215310   5.948   1.191   5.363 -0.9425 -1.8181  1.4531
 3099SOL     OW15311   5.608   0.458   5.329 -0.1740  0.0927 -0.0582
 3099SOL    HW115312   5.605   0.367   5.370  0.9489 -0.4611 -1.1664
 3099SOL    HW215313   5.599   0.451   5.230 -3.6650  1.4715  0.0296
 3100SOL     OW15314   3.158   1.821   0.480  0.1807 -0.0678  0.5896
 3100SOL    HW115315   3.193   1.730   0.504  0.7598 -0.7181 -2.3330
 3100SOL    HW215316   3.059   1.822   0.489  0.0441 -1.4010 -0.4510
 3101SOL     OW15317   5.305   5.926   0.186  0.3608 -0.0887  0.0526
 3101SOL    HW115318   5.402   5.942   0.166  0.8884  0.8262  2.8278
 3101SOL    HW215319   5.252   6.007   0.164  0.6261  0.2380  0.5930
 3102SOL     OW15320   0.443   4.558   5.763  0.0525 -0.6866 -0.3109
 3102SOL    HW115321   0.500   4.488   5.806 -0.9142 -1.9369 -0.9949
 3102SOL    HW215322   0.347   4.531   5.767 -0.4990  1.2411  0.5444
 3103SOL     OW15323   0.323   2.260   1.175 -0.4395  0.2397 -0.2219
 3103SOL    HW115324   0.402   2.271   1.235  0.5350 -1.3718 -1.1622
 3103SOL    HW215325   0.350   2.210   1.093 -2.5650 -0.8152 -0.3267
 3104SOL     OW15326   5.590   4.694   0.655  0.3328  0.4319 -0.4303
 3104SOL    HW115327   5.562   4.769   0.716 -0.3227 -0.0091 -0.1742
 3104SOL    HW215328   5.510   4.661   0.605  0.3896 -0.8602  0.3057
 3105SOL     OW15329   1.895   1.848   1.513 -0.1345 -0.0361  0.2397
 3105SOL    HW115330   1.831   1.895   1.574 -0.1552  0.6576 -0.3121
 3105SOL    HW215331   1.988   1.857   1.549 -0.3161 -1.0009  1.0150
 3106SOL     OW15332   5.568   1.182   6.491 -0.0865  0.1108  0.1570
 3106SOL    HW115333   5.592   1.246   6.418 -0.0537 -0.4011 -0.2852
 3106SOL    HW215334   5.597   1.090   6.466  0.6180  0.0464  1.1565
 3107SOL     OW15335   5.037   3.909   0.381  0.2399 -0.3394  0.1841
 3107SOL    HW115336   4.979   3.980   0.420 -0.5003  0.0900 -1.6282
 3107SOL    HW215337   5.133   3.938   0.386  0.0068  0.4727  0.1072
 3108SOL     OW15338   5.777   1.128   6.098 -0.3733 -0.2455 -0.5646
 3108SOL    HW115339   5.687   1.168   6.085  0.6108  1.7288 -1.7704
 3108SOL    HW215340   5.843   1.201   6.119  1.3504 -1.3117 -2.0049
 3109SOL     OW15341   3.044   3.300   0.064  0.7070 -0.3793  0.4309
 3109SOL    HW115342   3.085   3.279  -0.024 -0.4606 -0.7734 -0.0277
 3109SOL    HW215343   2.975   3.372   0.053 -1.4553 -2.3398  0.4844
 3110SOL     OW15344   2.999   6.161   1.192 -0.4281 -0.2604 -0.3100
 3110SOL    HW115345   2.903   6.161   1.223  0.0062  0.2797  1.1281
 3110SOL    HW215346   3.058   6.190   1.268  0.7588  0.7647 -1.5864
 3111SOL     OW15347   4.610   6.078   1.143 -0.0260 -0.2539 -0.1652
 3111SOL    HW115348   4.649   6.168   1.163 -1.2533 -0.2806  2.8661
 3111SOL    HW215349   4.524   6.088   1.094 -1.2751  0.4188  2.0708
 3112SOL     OW15350   4.788   2.400   5.470  0.1592  0.3106 -0.1654
 3112SOL    HW115351   4.751   2.339   5.541  1.2942  0.4940  0.6153
 3112SOL    HW215352   4.739   2.488   5.473 -0.7622 -0.1677 -0.5878
 3113SOL     OW15353   2.646   2.826   5.667 -0.0317 -0.3452 -0.0297
 3113SOL    HW115354   2.624   2.730   5.650  1.1944 -0.8515  1.0580
 3113SOL    HW215355   2.608   2.854   5.755  1.0735 -0.3690  0.4771
 3114SOL     OW15356   3.775   0.907   5.346 -0.6969  0.2931 -0.1007
 3114SOL    HW115357   3.844   0.915   5.275 -0.9964 -0.7683 -0.5208
 3114SOL    HW215358   3.793   0.975   5.418 -0.6319  1.6548 -1.3656
 3115SOL     OW15359   1.654   3.646   6.154  0.2797 -0.1617  0.9873
 3115SOL    HW115360   1.711   3.618   6.077 -1.4217 -0.3915 -0.2535
 3115SOL    HW215361   1.662   3.579   6.228  1.7298 -0.0842  0.9120
 3116SOL     OW15362   5.766   3.296   5.179 -0.1337 -0.0594 -0.0912
 3116SOL    HW115363   5.857   3.318   5.212 -0.8870  0.9451  1.3900
 3116SOL    HW215364   5.771   3.216   5.118  1.6585 -0.2388  0.2461
 3117SOL     OW15365   4.451   5.582   5.253  0.1465 -0.0024  0.1231
 3117SOL    HW115366   4.473   5.678   5.272 -0.7732  0.3213 -0.3374
 3117SOL    HW215367   4.457   5.566   5.154 -2.2287  0.3144 -0.1548
 3118SOL     OW15368   0.940   1.382   6.270 -0.2241 -0.5603  0.2268
 3118SOL    HW115369   1.035   1.411   6.280 -0.4316  0.2120  0.0597
 3118SOL    HW215370   0.890   1.451   6.217  0.2585 -3.1498 -4.1380
 3119SOL     OW15371   3.354   4.939   5.556  0.0543  0.6695  0.0495
 3119SOL    HW115372   3.286   4.951   5.628  0.2232 -0.0060  0.3369
 3119SOL    HW215373   3.433   4.998   5.573  0.3554  0.0810  0.7617
 3120SOL     OW15374   5.026   4.279   5.979 -0.3475 -0.4055 -0.1596
 3120SOL    HW115375   4.943   4.226   5.961 -0.0199 -1.1808  0.5455
 3120SOL    HW215376   5.044   4.340   5.902 -0.1441 -2.0797 -1.5032
 3121SOL     OW15377   2.989   2.827   5.835  0.0128  0.5673  0.3833
 3121SOL    HW115378   2.934   2.745   5.820  0.6556  0.1871  0.0741
 3121SOL    HW215379   3.086   2.805   5.828  0.3289  0.7947  2.9551
 3122SOL     OW15380   4.702   2.276   6.594 -0.0405 -0.3288 -0.2469
 3122SOL    HW115381   4.789   2.309   6.558 -0.3895 -0.2408 -1.0205
 3122SOL    HW215382   4.715   2.243   6.688  0.9198 -0.7380 -0.5145
 3123SOL     OW15383   6.045   6.363   0.372 -0.2059  0.3283  0.1681
 3123SOL    HW115384   6.136   6.404   0.374  0.9149 -1.9850  0.3614
 3123SOL    HW215385   6.015   6.352   0.277  0.7558 -0.9262 -0.0218
 3124SOL     OW15386   3.739   4.721   5.422  0.2974  0.3413  0.1615
 3124SOL    HW115387   3.691   4.649   5.472 -1.2137  1.9157  1.0907
 3124SOL    HW215388   3.713   4.717   5.325 -0.1955 -0.0572  0.3071
 3125SOL     OW15389   5.880   1.310   5.733  0.1048  0.3990 -0.0191
 3125SOL    HW115390   5.953   1.250   5.768 -0.7028  0.3873  1.7702
 3125SOL    HW215391   5.806   1.254   5.696  1.0755  0.4136 -2.1551
 3126SOL     OW15392   0.192   4.782   0.891  0.4063  0.2966  0.1337
 3126SOL    HW115393   0.127   4.719   0.848  0.4868  1.9050 -2.5660
 3126SOL    HW215394   0.149   4.824   0.971 -0.7370 -0.9282  0.2062
 3127SOL     OW15395   2.066   2.669   6.140 -0.2667  0.7515  0.0770
 3127SOL    HW115396   2.122   2.752   6.140  1.0265 -0.0857 -0.8324
 3127SOL    HW215397   2.095   2.610   6.216  1.1439 -0.3295 -1.2434
 3128SOL     OW15398   5.583   4.527   5.784 -0.1599 -0.3680  0.3445
 3128SOL    HW115399   5.657   4.530   5.851 -1.6497 -1.8737  2.1777
 3128SOL    HW215400   5.569   4.432   5.755 -0.6371  0.0572 -0.8712
 3129SOL     OW15401   1.828   4.926   1.435  0.6073  0.6564  0.4756
 3129SOL    HW115402   1.848   5.019   1.406 -2.1299  0.8817 -1.0726
 3129SOL    HW215403   1.740   4.925   1.484  0.5378 -1.0962  0.3712
 3130SOL     OW15404   4.494   3.790   6.278  0.4166  0.1785  0.1585
 3130SOL    HW115405   4.427   3.837   6.335 -0.2423  0.6990 -0.9970
 3130SOL    HW215406   4.468   3.694   6.270 -1.0892  0.6399 -1.4207
 3131SOL     OW15407   2.061   1.274   5.729  0.0332  0.1302 -0.3635
 3131SOL    HW115408   2.039   1.364   5.766  1.6615 -0.5743  2.7519
 3131SOL    HW215409   2.066   1.279   5.629  0.5834  3.6121 -0.3013
 3132SOL     OW15410   6.193   6.390   5.356 -0.3054 -0.3732 -0.0177
 3132SOL    HW115411   6.278   6.337   5.349  0.9163  0.9631  2.9385
 3132SOL    HW215412   6.206   6.480   5.314 -0.1356 -0.0754  0.6573
 3133SOL     OW15413   0.512   0.553   0.710 -0.6032 -0.6127  0.0285
 3133SOL    HW115414   0.463   0.543   0.623 -1.3522  2.7170 -0.0656
 3133SOL    HW215415   0.448   0.582   0.781  0.8473  2.7278  0.1706
 3134SOL     OW15416   1.561   5.290   0.538 -0.1163 -0.0023  0.4276
 3134SOL    HW115417   1.587   5.275   0.443 -1.7929 -1.0765  0.0861
 3134SOL    HW215418   1.576   5.205   0.590 -0.9884 -0.0171  0.6675
 3135SOL     OW15419   3.630   6.128   5.153 -0.1701 -1.1493  0.0429
 3135SOL    HW115420   3.635   6.102   5.057  0.7782 -0.0995 -0.2049
 3135SOL    HW215421   3.694   6.202   5.171  0.3811 -1.9752  1.7004
 3136SOL     OW15422   3.606   1.075   6.547 -0.3110 -0.8582 -0.3507
 3136SOL    HW115423   3.690   1.093   6.597 -0.6217 -0.4643  0.0326
 3136SOL    HW215424   3.602   0.977   6.523  0.1065 -0.9365 -0.1082
 3137SOL     OW15425   0.388   4.549   5.291 -0.0766 -0.2640 -0.0640
 3137SOL    HW115426   0.435   4.512   5.372  2.4450  2.8898  0.1438
 3137SOL    HW215427   0.422   4.504   5.209 -0.8088 -1.7643  0.4208
 3138SOL     OW15428   0.688   6.400   0.278  0.1758  0.1205 -0.8310
 3138SOL    HW115429   0.730   6.369   0.193 -1.1219 -0.4914 -1.2738
 3138SOL    HW215430   0.686   6.324   0.344 -0.2740  0.1265 -0.8342
 3139SOL     OW15431   5.598   1.752   6.043  0.0653  0.4246 -0.1515
 3139SOL    HW115432   5.531   1.814   6.082 -0.0113  1.1891 -1.4607
 3139SOL    HW215433   5.636   1.791   5.959  0.6402 -0.9146 -0.5456
 3140SOL     OW15434   4.956   3.121   6.468 -0.5783 -0.3473 -0.6040
 3140SOL    HW115435   5.013   3.063   6.410  0.4832 -1.1367  1.1497
 3140SOL    HW215436   4.860   3.095   6.456 -0.3822 -0.5259 -1.9301
 3141SOL     OW15437   2.891   4.948   6.331 -0.4754 -0.4645  0.1039
 3141SOL    HW115438   2.915   4.884   6.403  0.8784 -0.0141  0.0693
 3141SOL    HW215439   2.967   4.957   6.266  0.0720  2.3878  0.9907
 3142SOL     OW15440   3.419   1.737   0.745  0.0680 -0.3698  0.5612
 3142SOL    HW115441   3.514   1.704   0.746  0.3846  0.4626 -0.6879
 3142SOL    HW215442   3.358   1.660   0.725  0.4351 -0.9725  1.6572
 3143SOL     OW15443   2.335   3.516   1.011 -0.0946  0.1686  0.6505
 3143SOL    HW115444   2.430   3.485   1.003 -0.9039 -3.2576  2.5319
 3143SOL    HW215445   2.322   3.564   1.098 -0.4358 -1.1192  1.3376
 3144SOL     OW15446   0.064   0.775   1.121 -0.5743  0.6148  0.2748
 3144SOL    HW115447   0.047   0.678   1.139 -0.4329  0.4593 -0.4047
 3144SOL    HW215448   0.057   0.826   1.207  0.2366 -0.1190  0.8035
 3145SOL     OW15449   4.748   0.800   5.829 -0.6436 -0.3024  0.1054
 3145SOL    HW115450   4.741   0.802   5.729  2.0448  1.3964 -0.1537
 3145SOL    HW215451   4.762   0.893   5.863  1.3091 -1.1164  1.7325
 3146SOL     OW15452   0.519   4.021   0.457  0.5925  0.0077  0.0481
 3146SOL    HW115453   0.435   3.967   0.450 -0.8272  2.1510 -0.3337
 3146SOL    HW215454   0.584   3.990   0.388 -1.8475  1.4748 -3.1562
 3147SOL     OW15455   4.526   1.765   6.029  0.3485  0.2944 -0.2963
 3147SOL    HW115456   4.536   1.806   6.119 -0.2770  0.1168 -0.1450
 3147SOL    HW215457   4.462   1.820   5.974 -0.3281 -0.3532 -0.1645
 3148SOL     OW15458   5.084   0.403   0.356 -0.4118 -0.0493  0.5927
 3148SOL    HW115459   5.134   0.469   0.301  0.9531 -0.4940  1.2518
 3148SOL    HW215460   5.000   0.445   0.391  0.5506  1.4339  1.2216
 3149SOL     OW15461   3.716   0.731   0.664 -0.4698 -0.1655 -0.1638
 3149SOL    HW115462   3.648   0.687   0.722 -0.6712  1.0582  0.5657
 3149SOL    HW215463   3.789   0.769   0.721  1.4768 -2.4308 -0.9782
 3150SOL     OW15464   4.641   3.290   1.159  0.2561  0.5242 -0.1141
 3150SOL    HW115465   4.663   3.276   1.255 -2.2367 -1.0283  0.3320
 3150SOL    HW215466   4.669   3.209   1.106 -2.5099 -0.7766  0.2080
 3151SOL     OW15467   5.110   0.631   0.167  0.2090 -0.2334 -0.0188
 3151SOL    HW115468   5.126   0.618   0.069 -0.6771 -1.8735  0.0267
 3151SOL    HW215469   5.019   0.667   0.182  0.8071  1.2723  0.1624
 3152SOL     OW15470   6.052   6.133   0.519 -0.0123 -0.4554  0.0450
 3152SOL    HW115471   6.073   6.209   0.457 -0.3988  0.5329  1.0806
 3152SOL    HW215472   5.962   6.147   0.559  0.9674 -0.0649  2.2347
 3153SOL     OW15473   2.838   6.008   5.276 -0.3244 -0.0628 -0.5221
 3153SOL    HW115474   2.825   5.953   5.193 -0.9816 -0.6368 -0.0491
 3153SOL    HW215475   2.834   6.105   5.253 -1.2154 -0.2240 -1.0550
 3154SOL     OW15476   1.281   5.292   0.570  0.3659  0.5355  0.1328
 3154SOL    HW115477   1.378   5.283   0.548  0.2363 -0.9388  0.0972
 3154SOL    HW215478   1.235   5.204   0.556 -0.5132  0.5553  2.4333
 3155SOL     OW15479   0.301   5.253   6.333  0.0424 -0.0420 -0.1356
 3155SOL    HW115480   0.258   5.222   6.418 -0.4350 -2.2784 -1.1153
 3155SOL    HW215481   0.346   5.341   6.348 -0.4656 -0.1353  2.2764
 3156SOL     OW15482   1.651   5.542   5.254 -0.0481  0.0323  0.2003
 3156SOL    HW115483   1.674   5.584   5.341  0.0661  0.0864  0.1443
 3156SOL    HW215484   1.637   5.612   5.185  0.1354 -0.0220  0.1088
 3157SOL     OW15485   1.834   0.289   1.440 -0.4408 -0.5444  0.0860
 3157SOL    HW115486   1.868   0.342   1.518 -1.1302  0.5750 -0.3459
 3157SOL    HW215487   1.863   0.194   1.449  2.4111  0.2058  0.0022
 3158SOL     OW15488   6.200   1.791   5.546 -0.5948 -0.7714 -0.2196
 3158SOL    HW115489   6.297   1.784   5.568 -0.8086 -0.6975  0.8019
 3158SOL    HW215490   6.189   1.809   5.448  0.4443  0.0900 -0.1977
 3159SOL     OW15491   4.970   1.238   5.763  0.4532 -1.2202  0.0007
 3159SOL    HW115492   4.936   1.188   5.843 -1.0236 -2.5714 -1.4063
 3159SOL    HW215493   4.914   1.217   5.684  0.0696  2.3190 -0.8404
 3160SOL     OW15494   0.017   1.663   5.246  0.1003 -0.3554 -0.2665
 3160SOL    HW115495  -0.049   1.628   5.312 -0.1238 -1.5986 -1.1130
 3160SOL    HW215496  -0.026   1.671   5.156  0.5928  0.6156 -0.4320
 3161SOL     OW15497   1.638   1.362   6.127 -0.4245 -0.3114 -0.0316
 3161SOL    HW115498   1.701   1.384   6.053  0.9991 -0.6160  1.0371
 3161SOL    HW215499   1.690   1.329   6.206 -1.9197 -0.3032  0.9973
 3162SOL     OW15500   2.919   4.401   6.360 -0.6274 -0.6893 -0.7267
 3162SOL    HW115501   2.908   4.322   6.419 -1.0768 -0.7145 -0.8427
 3162SOL    HW215502   2.924   4.484   6.415  0.3205 -0.8364 -0.5752
 3163SOL     OW15503   3.088   1.670   5.764 -0.3977 -0.4397  0.1057
 3163SOL    HW115504   3.082   1.622   5.851  0.1685 -0.7037  0.0019
 3163SOL    HW215505   3.176   1.650   5.721 -1.1558 -1.3183 -1.1004
 3164SOL     OW15506   2.520   1.026   4.649 -0.1087 -0.2208 -0.3894
 3164SOL    HW115507   2.444   1.042   4.586 -0.4162  0.5419  0.1701
 3164SOL    HW215508   2.504   1.074   4.735  0.4490 -1.0185  0.1750
 3165SOL     OW15509   4.703   2.972   6.387  0.1411  0.2357  0.0946
 3165SOL    HW115510   4.777   2.922   6.342 -0.7322  0.2539 -1.4366
 3165SOL    HW215511   4.691   2.938   6.480  1.0568 -0.8211 -0.1500
 3166SOL     OW15512   0.829   5.928   5.159  0.3211 -0.1774  0.0438
 3166SOL    HW115513   0.871   5.844   5.124  0.3040 -0.2279  0.1440
 3166SOL    HW215514   0.821   5.994   5.085 -0.3669 -0.5413 -0.2122
 3167SOL     OW15515   5.151   0.820   6.511 -0.3158 -0.2860  0.6045
 3167SOL    HW115516   5.077   0.803   6.446  0.0632 -0.2362  0.1534
 3167SOL    HW215517   5.237   0.785   6.474  0.0683  0.5436  0.6757
 3168SOL     OW15518   3.076   1.657   0.916 -0.4683 -0.4713 -0.2326
 3168SOL    HW115519   2.999   1.656   0.853 -1.1759  0.3800  0.5860
 3168SOL    HW215520   3.131   1.575   0.903  0.1399  0.2599 -2.8239
 3169SOL     OW15521   3.728   5.342   1.638 -0.3242  0.2560  0.1964
 3169SOL    HW115522   3.819   5.303   1.626 -0.2986  0.3950 -0.0746
 3169SOL    HW215523   3.695   5.323   1.730  0.2672  0.8115  0.5284
 3170SOL     OW15524   0.290   5.617   5.527 -0.5377  0.2558 -0.6528
 3170SOL    HW115525   0.376   5.647   5.568 -0.8711 -2.3673  2.4506
 3170SOL    HW215526   0.305   5.532   5.476 -1.2926 -0.6028  0.4864
 3171SOL     OW15527   1.465   6.191   6.452 -0.1107 -0.3885  0.3671
 3171SOL    HW115528   1.431   6.153   6.365 -1.3772 -0.8307  1.0292
 3171SOL    HW215529   1.527   6.125   6.494  0.1328 -0.3792  0.0312
 3172SOL     OW15530   4.790   5.161   1.698  0.2136 -0.1284 -0.2560
 3172SOL    HW115531   4.826   5.071   1.723 -2.4618 -1.4568 -0.7531
 3172SOL    HW215532   4.703   5.176   1.745 -0.9393  0.7988 -2.5404
 3173SOL     OW15533   3.596   6.042   0.504  0.4674 -0.9474  0.5356
 3173SOL    HW115534   3.553   6.083   0.423 -0.7743 -2.8117  0.1803
 3173SOL    HW215535   3.525   6.013   0.568  1.1066 -3.9386  0.0276
 3174SOL     OW15536   5.352   1.853   5.524 -0.2985 -0.0750  0.5391
 3174SOL    HW115537   5.281   1.792   5.489 -0.5310 -0.0020  0.8809
 3174SOL    HW215538   5.348   1.941   5.475  0.1919 -0.4079 -0.1198
 3175SOL     OW15539   3.149   3.715   4.997  0.7433 -0.0144  0.5218
 3175SOL    HW115540   3.165   3.813   4.988  0.4248  0.0968  1.1192
 3175SOL    HW215541   3.116   3.678   4.910 -1.5708  0.8892  0.9451
 3176SOL     OW15542   4.672   1.569   5.617 -0.6025 -0.2661 -0.7578
 3176SOL    HW115543   4.636   1.620   5.538  0.5564  0.9667 -0.5214
 3176SOL    HW215544   4.772   1.567   5.612 -0.4308  0.8718  1.2585
 3177SOL     OW15545   4.964   4.872   1.369 -0.1082  0.5994 -0.3418
 3177SOL    HW115546   4.885   4.909   1.319 -1.1819  0.4694  1.2022
 3177SOL    HW215547   4.939   4.785   1.410  0.5421  1.0071  0.9616
 3178SOL     OW15548   3.854   0.624   6.410  0.1757 -0.5492  0.5317
 3178SOL    HW115549   3.931   0.565   6.387 -0.9636 -2.1612  0.6987
 3178SOL    HW215550   3.783   0.570   6.455 -1.1953  0.8222  0.0960
 3179SOL     OW15551   1.823   1.340   0.260  0.2540  0.0653 -0.6155
 3179SOL    HW115552   1.804   1.431   0.296 -0.0704 -0.2789  0.1213
 3179SOL    HW215553   1.743   1.305   0.212 -1.9814 -2.1386  4.0773
 3180SOL     OW15554   4.856   3.860   0.033  0.4444  0.3589  0.3217
 3180SOL    HW115555   4.917   3.935   0.006  0.0899  0.0084 -1.5888
 3180SOL    HW215556   4.826   3.810  -0.049 -0.2024 -1.1990  1.4616
 3181SOL     OW15557   5.539   3.711   0.748 -0.1845  0.2256 -0.1271
 3181SOL    HW115558   5.625   3.713   0.697  1.3932  2.0645  2.3290
 3181SOL    HW215559   5.547   3.647   0.825 -1.6684 -0.8036 -0.7784
 3182SOL     OW15560   1.196   6.207   1.267 -0.3715 -0.7465 -0.5390
 3182SOL    HW115561   1.291   6.182   1.289 -0.2213  0.4194  0.2660
 3182SOL    HW215562   1.138   6.188   1.346 -0.6677 -0.7610 -0.7603
 3183SOL     OW15563   5.100   2.461   0.668 -0.7083 -0.3700 -0.1557
 3183SOL    HW115564   5.130   2.449   0.763  1.1673  0.6220 -0.5713
 3183SOL    HW215565   5.138   2.546   0.632 -1.7914 -0.4917 -1.6582
 3184SOL     OW15566   3.233   3.675   0.738 -0.2366  0.3021 -0.4222
 3184SOL    HW115567   3.161   3.707   0.677 -1.5042  0.6428  1.1561
 3184SOL    HW215568   3.267   3.752   0.793 -1.9618 -0.5566  2.0585
 3185SOL     OW15569   5.006   4.628   1.899  0.6027  0.5552 -0.3980
 3185SOL    HW115570   4.968   4.560   1.962 -1.4111  0.6148 -1.4748
 3185SOL    HW215571   4.987   4.720   1.933 -1.6254  0.6114 -1.6350
 3186SOL     OW15572   5.232   5.353   5.620 -0.0408  0.0247  0.1970
 3186SOL    HW115573   5.171   5.413   5.672  0.2269 -2.3006  3.5033
 3186SOL    HW215574   5.178   5.279   5.579  0.1843 -0.3754  0.6113
 3187SOL     OW15575   6.091   4.170   5.861  0.6194 -0.2177  0.2003
 3187SOL    HW115576   6.008   4.211   5.823  0.8538  1.2566  1.1866
 3187SOL    HW215577   6.069   4.080   5.898 -0.6424  0.2916  0.7601
 3188SOL     OW15578   5.107   4.293   6.241 -0.2910 -0.0841  0.7001
 3188SOL    HW115579   5.064   4.287   6.150  0.2082  1.3849  0.3438
 3188SOL    HW215580   5.178   4.223   6.249 -0.2107 -0.1070 -0.1229
 3189SOL     OW15581   1.569   0.953   0.773 -0.2300  0.0638 -0.5790
 3189SOL    HW115582   1.480   0.999   0.765  0.3040  0.8631 -2.4993
 3189SOL    HW215583   1.571   0.874   0.711  0.6239  0.4753 -1.0873
 3190SOL     OW15584   3.732   4.749   1.371 -0.2165 -0.0857  0.2323
 3190SOL    HW115585   3.823   4.743   1.412  0.4182 -0.7435 -1.1937
 3190SOL    HW215586   3.680   4.666   1.390  0.2344 -0.5730 -0.6342
 3191SOL     OW15587   3.636   2.372   0.306  0.6048  0.5076  0.2082
 3191SOL    HW115588   3.628   2.472   0.302  0.7326  0.4744 -1.1449
 3191SOL    HW215589   3.712   2.347   0.365  1.9199  1.2823 -1.1014
 3192SOL     OW15590   2.903   0.864   6.420  0.3222  0.2700  0.1028
 3192SOL    HW115591   2.931   0.831   6.330  2.1496  0.0934  0.6958
 3192SOL    HW215592   2.873   0.959   6.413 -0.7792 -0.1256 -0.8829
 3193SOL     OW15593   2.522   0.725   0.403  0.2571 -0.1041  0.2000
 3193SOL    HW115594   2.608   0.740   0.354  0.9830  0.7169  1.6431
 3193SOL    HW215595   2.515   0.629   0.430  0.1264 -0.4360 -0.9570
 3194SOL     OW15596   3.516   0.552   0.038  0.2237 -0.0808 -0.4298
 3194SOL    HW115597   3.536   0.605   0.120  1.2114 -0.1456 -0.6265
 3194SOL    HW215598   3.601   0.518  -0.002 -0.2958 -0.6016 -1.1149
 3195SOL     OW15599   4.390   3.985   1.062  0.0077 -0.0802 -0.5421
 3195SOL    HW115600   4.387   4.000   0.964 -0.2574  1.1687 -0.3523
 3195SOL    HW215601   4.403   4.072   1.110 -0.1565 -0.6283  0.5460
 3196SOL     OW15602   2.232   2.866   0.889 -0.2588 -0.4432  0.0434
 3196SOL    HW115603   2.269   2.783   0.931  1.7361  0.8463  0.9351
 3196SOL    HW215604   2.241   2.859   0.789  0.5594 -0.9875  0.1459
 3197SOL     OW15605   4.651   5.367   5.262  0.2436 -0.0547 -0.1273
 3197SOL    HW115606   4.702   5.431   5.204  1.3760 -0.2869  0.5811
 3197SOL    HW215607   4.556   5.397   5.269  0.4542  0.8277 -0.8497
 3198SOL     OW15608   5.253   2.185   0.108 -0.0894 -0.4690  0.1721
 3198SOL    HW115609   5.201   2.267   0.084  0.4306  0.9476  3.3633
 3198SOL    HW215610   5.194   2.122   0.159  0.4067 -0.4488  0.7853
 3199SOL     OW15611   2.781   5.300   5.314 -0.1456 -0.0809  0.3663
 3199SOL    HW115612   2.694   5.333   5.351  0.6169  2.4132  0.1533
 3199SOL    HW215613   2.840   5.378   5.296  2.0595 -1.6975  0.2485
 3200SOL     OW15614   1.143   1.374   5.728 -0.0727 -0.6068 -0.3819
 3200SOL    HW115615   1.239   1.398   5.734 -0.4843  0.9589  0.3482
 3200SOL    HW215616   1.133   1.289   5.676  1.6534 -0.5868 -0.7951
 3201SOL     OW15617   2.961   2.666   0.983 -0.8098 -0.3909  0.1154
 3201SOL    HW115618   3.033   2.612   0.939 -1.1513 -1.9394  1.3712
 3201SOL    HW215619   2.983   2.679   1.080 -0.7378  1.7862 -0.1413
 3202SOL     OW15620   4.397   6.140   5.441  0.4354  0.5649  0.6774
 3202SOL    HW115621   4.344   6.078   5.383 -2.2344  0.8249  2.6618
 3202SOL    HW215622   4.416   6.096   5.528  0.9144  1.5439  1.0778
 3203SOL     OW15623   5.875   1.062   6.404  0.1256  0.0976 -0.4061
 3203SOL    HW115624   5.950   0.998   6.385 -0.2304  0.0347 -1.7430
 3203SOL    HW215625   5.874   1.133   6.334  0.1377  1.2380  0.7231
 3204SOL     OW15626   2.958   2.814   0.582 -0.7910 -0.8119  0.0043
 3204SOL    HW115627   2.860   2.796   0.576 -0.4092 -2.7231 -1.5868
 3204SOL    HW215628   3.009   2.731   0.559  1.2477 -0.3062  2.2590
 3205SOL     OW15629   4.944   2.647   5.339 -0.6203  0.1692 -0.3169
 3205SOL    HW115630   4.850   2.630   5.312 -0.8545  0.4383  0.3209
 3205SOL    HW215631   5.006   2.592   5.282 -1.2626 -1.6705  0.7078
 3206SOL     OW15632   5.660   5.633   0.106 -0.3354 -0.6525  0.0592
 3206SOL    HW115633   5.738   5.695   0.113  0.7275 -1.9041 -0.4183
 3206SOL    HW215634   5.577   5.687   0.089  0.7268  0.5915 -1.6191
 3207SOL     OW15635   5.023   3.670   0.519  0.7006 -0.4978 -0.2388
 3207SOL    HW115636   5.063   3.598   0.462  1.1335 -0.3678 -0.0998
 3207SOL    HW215637   5.022   3.756   0.469 -2.4761 -1.1487 -1.5401
 3208SOL     OW15638   2.247   6.121   0.566 -0.3074 -0.4146  0.2824
 3208SOL    HW115639   2.187   6.105   0.488 -0.3003  1.0048 -0.0417
 3208SOL    HW215640   2.192   6.127   0.650 -0.6125  0.5988  0.0249
 3209SOL     OW15641   3.373   0.833   4.874 -0.5837  0.3357  0.0643
 3209SOL    HW115642   3.434   0.762   4.910 -2.3485 -0.4309  1.7017
 3209SOL    HW215643   3.288   0.791   4.841 -1.5707  1.6579  0.8253
 3210SOL     OW15644   1.578   0.104   1.559 -0.1470 -0.1307  0.0587
 3210SOL    HW115645   1.648   0.149   1.503 -0.3420  0.6407  0.4303
 3210SOL    HW215646   1.489   0.147   1.543 -0.0535  0.6853  1.6082
 3211SOL     OW15647   5.511   1.204   0.585  0.8040 -0.0772 -0.3161
 3211SOL    HW115648   5.412   1.197   0.576  0.7516  0.2650  0.0167
 3211SOL    HW215649   5.546   1.269   0.517  0.7186  0.3564  0.0507
 3212SOL     OW15650   1.914   4.474   0.535  0.9063 -0.1104  0.2367
 3212SOL    HW115651   1.940   4.440   0.445 -1.1050  1.3463 -0.9929
 3212SOL    HW215652   1.869   4.402   0.587  0.2703 -0.4373 -0.7436
 3213SOL     OW15653   4.982   5.184   6.109 -0.3674  0.6995  0.0930
 3213SOL    HW115654   4.904   5.144   6.157 -1.3044 -0.6965 -2.4199
 3213SOL    HW215655   5.060   5.123   6.117  0.7959  2.3368  3.0538
 3214SOL     OW15656   5.528   1.208   6.090  0.2303 -0.2648 -0.3935
 3214SOL    HW115657   5.446   1.150   6.094  0.7168 -0.9534 -0.3443
 3214SOL    HW215658   5.507   1.291   6.037 -0.9758  0.3638  0.9770
 3215SOL     OW15659   0.225   4.396   5.447 -0.0006 -0.3534  0.2657
 3215SOL    HW115660   0.254   4.309   5.408 -0.9495 -0.8587  0.6453
 3215SOL    HW215661   0.237   4.469   5.379 -1.9099 -1.2599 -1.1389
 3216SOL     OW15662   2.093   5.735   0.549 -0.7288 -0.9633  0.4522
 3216SOL    HW115663   1.994   5.731   0.545 -0.7045 -1.8953  0.6506
 3216SOL    HW215664   2.124   5.712   0.642 -0.3568  0.1386  0.6248
 3217SOL     OW15665   0.542   3.571   1.321  0.4804  0.3523 -0.5603
 3217SOL    HW115666   0.494   3.490   1.287 -0.4421  0.6513 -0.0128
 3217SOL    HW215667   0.478   3.631   1.369  1.7183 -0.2192  2.0347
 3218SOL     OW15668   2.325   3.636   0.485 -0.1569  0.1987 -0.0433
 3218SOL    HW115669   2.332   3.725   0.440 -1.7204  0.4390  0.1167
 3218SOL    HW215670   2.342   3.564   0.419  1.9716  0.5968  0.0094
 3219SOL     OW15671   2.067   2.915   4.993  0.4136  0.0095 -0.1089
 3219SOL    HW115672   2.166   2.925   4.983  0.4313 -0.4659 -0.4429
 3219SOL    HW215673   2.030   2.992   5.045  0.5950  1.4896 -2.0844
 3220SOL     OW15674   3.884   4.733   5.861  0.6841 -0.4087 -0.1124
 3220SOL    HW115675   3.894   4.653   5.801 -0.0358  0.3604 -1.2769
 3220SOL    HW215676   3.899   4.816   5.809  0.1687  0.2838  0.8113
 3221SOL     OW15677   2.518   1.919   6.043  0.7963  0.1948 -0.2183
 3221SOL    HW115678   2.541   1.934   6.139 -1.9716 -0.0012  0.5495
 3221SOL    HW215679   2.480   2.004   6.004  0.8480 -0.0512 -0.8194
 3222SOL     OW15680   5.040   3.763   0.780 -0.1646  0.3196  0.1814
 3222SOL    HW115681   5.134   3.796   0.782 -0.1952  0.5623 -1.1237
 3222SOL    HW215682   5.029   3.700   0.703 -1.1261  0.4898  0.1700
 3223SOL     OW15683   0.570   4.970   0.253 -0.0422 -0.3351  0.0087
 3223SOL    HW115684   0.589   4.915   0.171 -1.0121 -0.3578 -0.2121
 3223SOL    HW215685   0.656   5.005   0.290  0.4401 -0.5983 -0.8313
 3224SOL     OW15686   2.529   1.770   5.564  0.1525  0.0089  0.3176
 3224SOL    HW115687   2.549   1.868   5.558 -0.1035  0.0239 -0.4627
 3224SOL    HW215688   2.560   1.734   5.652  0.4772  0.7378  0.5038
 3225SOL     OW15689   1.244   5.870   1.313 -0.4893  0.3028  0.2171
 3225SOL    HW115690   1.304   5.948   1.328  0.2389 -0.3889  1.0514
 3225SOL    HW215691   1.155   5.901   1.279  0.5450  1.2938 -1.7135
 3226SOL     OW15692   5.971   0.757   5.802  0.2569 -0.6940  0.0201
 3226SOL    HW115693   5.967   0.813   5.885  1.4605 -0.2788 -0.1778
 3226SOL    HW215694   5.879   0.731   5.774 -0.1941 -0.4331  1.2151
 3227SOL     OW15695   1.236   2.025   0.643  0.0841 -0.3043  0.2073
 3227SOL    HW115696   1.161   1.970   0.606 -0.1552  0.6905 -0.8484
 3227SOL    HW215697   1.200   2.113   0.673  0.3786 -0.8623  2.3490
 3228SOL     OW15698   6.287   4.661   6.103  0.3487 -0.0987  0.0376
 3228SOL    HW115699   6.339   4.741   6.130  0.5049 -1.0441  2.8463
 3228SOL    HW215700   6.189   4.680   6.111  0.3784  0.0014  0.1652
 3229SOL     OW15701   2.270   2.290   0.752 -0.5418  0.9861  1.0050
 3229SOL    HW115702   2.197   2.233   0.714 -1.3126  2.1749  0.6701
 3229SOL    HW215703   2.264   2.382   0.714  1.7106  0.8915  0.2385
 3230SOL     OW15704   4.461   2.943   0.309  0.3611  0.0847 -0.0035
 3230SOL    HW115705   4.500   2.853   0.325  0.5131 -0.0033 -0.8207
 3230SOL    HW215706   4.531   3.013   0.327 -0.0056  0.1068  1.4719
 3231SOL     OW15707   4.562   1.823   6.315 -0.0298  0.0722  0.6247
 3231SOL    HW115708   4.475   1.790   6.353  1.0412 -0.2294  3.0366
 3231SOL    HW215709   4.559   1.922   6.307 -0.7236  0.0353  0.3071
 3232SOL     OW15710   4.148   1.686   1.210 -0.6124  0.2546  0.0912
 3232SOL    HW115711   4.066   1.664   1.156 -0.2524 -0.0104 -0.3487
 3232SOL    HW215712   4.228   1.644   1.169 -0.2461  0.5130  0.5240
 3233SOL     OW15713   5.541   4.808   5.979  0.1394 -0.0270 -0.1479
 3233SOL    HW115714   5.471   4.878   5.969  1.0833  1.0601  0.5279
 3233SOL    HW215715   5.514   4.742   6.049  0.2999  1.0709  0.9740
 3234SOL     OW15716   3.306   1.941   5.490 -0.0318 -0.3193 -0.1091
 3234SOL    HW115717   3.343   1.906   5.404  1.9593 -1.8845  1.3023
 3234SOL    HW215718   3.207   1.952   5.481  0.0607 -0.8558 -2.4383
 3235SOL     OW15719   3.892   3.091   1.275 -0.1771 -0.2075 -0.1238
 3235SOL    HW115720   3.958   3.098   1.200 -0.6376  0.9534 -0.4349
 3235SOL    HW215721   3.875   2.995   1.295 -0.8163 -0.5845 -2.1939
 3236SOL     OW15722   1.949   1.774   6.256 -0.0809  0.3456  0.1686
 3236SOL    HW115723   1.907   1.799   6.343  2.3115  1.4072  1.1155
 3236SOL    HW215724   2.029   1.832   6.240  0.2219 -0.6186 -2.1961
 3237SOL     OW15725   5.493   0.820   5.633  0.1703 -0.0372 -0.9095
 3237SOL    HW115726   5.556   0.800   5.558  0.3068 -1.7794 -0.3714
 3237SOL    HW215727   5.544   0.857   5.711  0.6674 -1.8412 -0.3168
 3238SOL     OW15728   6.199   3.814   0.383  0.2520  0.8793  0.1776
 3238SOL    HW115729   6.203   3.911   0.403 -0.4626  1.2268 -1.2368
 3238SOL    HW215730   6.187   3.801   0.284 -2.3464 -0.5870  0.6170
 3239SOL     OW15731   2.098   4.119   0.026  0.2788  0.2924  0.2830
 3239SOL    HW115732   2.002   4.100   0.008  0.7317 -0.5814 -1.4146
 3239SOL    HW215733   2.151   4.035   0.019  1.1539  0.7086  1.4797
 3240SOL     OW15734   5.547   2.104   5.292  0.4375 -0.1372  0.3677
 3240SOL    HW115735   5.580   2.185   5.341 -0.4134  0.2706  0.3018
 3240SOL    HW215736   5.451   2.088   5.316  1.1855 -2.4629  2.0992
 3241SOL     OW15737   0.633   2.007   5.967 -0.0488 -0.1035 -0.4444
 3241SOL    HW115738   0.574   2.067   6.020  0.0276 -0.2154 -0.2307
 3241SOL    HW215739   0.607   1.912   5.983  0.2303 -0.1556 -0.3009
 3242SOL     OW15740   4.139   0.594   6.280 -0.0235 -0.0206  0.0431
 3242SOL    HW115741   4.172   0.506   6.316  2.2824  0.7380 -0.0217
 3242SOL    HW215742   4.117   0.655   6.355  0.1593 -0.0478  0.1194
 3243SOL     OW15743   5.309   2.266   0.530  0.1945  0.2799  0.1306
 3243SOL    HW115744   5.396   2.306   0.559  0.4363  1.8933 -2.4465
 3243SOL    HW215745   5.257   2.334   0.478 -2.2444 -0.9331  0.8503
 3244SOL     OW15746   4.537   6.437   0.350  0.0722 -0.0529 -0.1076
 3244SOL    HW115747   4.499   6.446   0.442 -1.3852  1.4423 -0.8038
 3244SOL    HW215748   4.623   6.487   0.343 -0.4324  0.8639  0.1321
 3245SOL     OW15749   2.776   1.507   5.738 -0.7675  0.5725  0.3237
 3245SOL    HW115750   2.751   1.551   5.652  1.4793  1.3272  0.0031
 3245SOL    HW215751   2.738   1.560   5.815 -1.3297  0.8714 -0.1526
 3246SOL     OW15752   0.269   5.050   0.869  1.0735 -0.8624  0.2016
 3246SOL    HW115753   0.255   4.955   0.897 -0.7883 -0.4675  0.6936
 3246SOL    HW215754   0.231   5.064   0.777 -2.2544  0.2600  1.6160
 3247SOL     OW15755   6.187   0.183   5.238  0.2069 -0.4713 -0.1519
 3247SOL    HW115756   6.173   0.202   5.141  2.5389 -0.1974 -0.5104
 3247SOL    HW215757   6.132   0.246   5.293 -1.2529 -0.7216 -1.2690
 3248SOL     OW15758   4.146   4.666   6.015 -0.5008 -0.0676 -0.3407
 3248SOL    HW115759   4.075   4.719   5.969 -0.4948  0.8072  0.6303
 3248SOL    HW215760   4.236   4.705   5.994 -0.4718  0.1108  0.1095
 3249SOL     OW15761   3.940   4.509   5.216  0.6729 -0.5878  0.1319
 3249SOL    HW115762   3.882   4.575   5.170  1.5908  0.6258  0.6711
 3249SOL    HW215763   3.887   4.458   5.284 -0.1748 -0.8590 -0.7147
 3250SOL     OW15764   3.405   0.385   5.871  0.1000 -0.4475 -0.4434
 3250SOL    HW115765   3.493   0.382   5.918 -0.3038 -1.6163  0.3019
 3250SOL    HW215766   3.395   0.303   5.815 -1.0581 -1.0447  0.5681
 3251SOL     OW15767   6.348   2.974   6.280 -0.5021  0.4530  0.2732
 3251SOL    HW115768   6.368   2.903   6.213 -0.8989  0.8139 -0.2343
 3251SOL    HW215769   6.359   3.064   6.238  1.1610  0.7395  1.2357
 3252SOL     OW15770   0.379   5.738   0.828  0.2658 -0.4240 -0.1728
 3252SOL    HW115771   0.285   5.773   0.817 -0.0662 -0.1473  2.8052
 3252SOL    HW215772   0.377   5.653   0.881  1.7870  0.7549  1.9222
 3253SOL     OW15773   0.043   3.240   0.491  0.1662  0.1208  0.0647
 3253SOL    HW115774   0.032   3.160   0.431  0.7854  0.7249 -0.8721
 3253SOL    HW215775   0.099   3.308   0.446 -0.4933  1.1709  0.7896
 3254SOL     OW15776   2.863   1.914   1.009  0.0724 -0.0148  0.2646
 3254SOL    HW115777   2.913   1.868   1.082  0.4359 -0.1459 -0.0703
 3254SOL    HW215778   2.910   1.998   0.984 -1.1720  1.1780  1.6614
 3255SOL     OW15779   1.196   1.481   6.474  0.1202  0.0995  0.0223
 3255SOL    HW115780   1.227   1.432   6.393  2.6794  0.9919  0.3833
 3255SOL    HW215781   1.173   1.575   6.450  1.1996  0.4589  0.3663
 3256SOL     OW15782   3.358   1.850   6.412 -0.0228 -0.4412  0.6845
 3256SOL    HW115783   3.358   1.799   6.498 -1.2431  0.7832  1.4579
 3256SOL    HW215784   3.452   1.877   6.389  0.2412 -0.1432  2.0313
 3257SOL     OW15785   5.150   1.745   1.225 -0.0419 -0.4723 -0.4425
 3257SOL    HW115786   5.075   1.798   1.186 -1.1842 -1.0137  0.8942
 3257SOL    HW215787   5.206   1.804   1.283 -0.0710 -0.2789 -0.6110
 3258SOL     OW15788   2.041   6.154   0.336 -0.9044 -0.1076 -0.1820
 3258SOL    HW115789   2.057   6.055   0.340 -1.2706 -0.1412  0.5285
 3258SOL    HW215790   2.115   6.198   0.285 -0.0771 -0.6015  0.5829
 3259SOL     OW15791   5.069   1.521   0.132 -0.3460 -0.2680 -0.5377
 3259SOL    HW115792   4.999   1.558   0.193 -0.1116  1.1905 -1.1002
 3259SOL    HW215793   5.135   1.593   0.109  1.5383 -1.6562  0.1971
 3260SOL     OW15794   3.074   0.918   1.861  0.6079 -0.0274  0.3636
 3260SOL    HW115795   3.161   0.869   1.853  0.5130 -0.0296 -0.8657
 3260SOL    HW215796   3.092   1.016   1.867  0.7485 -0.1208  1.6714
 3261SOL     OW15797   3.308   0.817   1.072  0.3023 -0.2033  0.1732
 3261SOL    HW115798   3.340   0.723   1.078  1.8800  0.4109  3.0446
 3261SOL    HW215799   3.386   0.878   1.059  0.2023  1.1036  4.3523
 3262SOL     OW15800   1.125   1.264   0.010 -0.2011  0.0324 -0.3406
 3262SOL    HW115801   1.141   1.350  -0.038  0.9462  0.3207  0.5139
 3262SOL    HW215802   1.051   1.214  -0.034 -2.5711  2.5338  0.5086
 3263SOL     OW15803   2.835   5.645   6.468 -0.4260 -0.2912 -0.1997
 3263SOL    HW115804   2.744   5.688   6.463  0.3809  1.4697 -0.5042
 3263SOL    HW215805   2.901   5.712   6.503  1.0257 -1.1240 -1.2562
 3264SOL     OW15806   3.493   5.633   6.550  0.1725 -0.3322 -0.8371
 3264SOL    HW115807   3.403   5.615   6.509 -0.7198  1.8227  0.0597
 3264SOL    HW215808   3.511   5.564   6.621 -1.0588 -0.4185 -0.5820
 3265SOL     OW15809   3.216   3.643   6.345 -0.1779  0.0244  0.0496
 3265SOL    HW115810   3.228   3.736   6.311  2.6036 -0.7528 -1.4501
 3265SOL    HW215811   3.295   3.618   6.402 -0.6768 -1.5563  0.1099
 3266SOL     OW15812   4.018   0.350   0.904  0.1214 -0.2452  0.2595
 3266SOL    HW115813   4.017   0.315   0.811 -1.8809 -1.6595  0.7573
 3266SOL    HW215814   4.113   0.359   0.935  0.7988 -0.3327 -1.6661
 3267SOL     OW15815   4.588   4.820   1.799  0.1621  0.1950  0.1133
 3267SOL    HW115816   4.593   4.913   1.833 -1.0348  0.9908 -1.7330
 3267SOL    HW215817   4.540   4.762   1.865 -0.9174  1.3662  0.3884
 3268SOL     OW15818   2.689   1.590   5.430 -0.5139 -0.7784  0.1929
 3268SOL    HW115819   2.612   1.653   5.444 -0.3310 -0.7082  0.9681
 3268SOL    HW215820   2.660   1.514   5.373 -0.5451  0.3597 -1.3596
 3269SOL     OW15821   0.216   2.634   5.473 -0.5470 -0.0598  0.2350
 3269SOL    HW115822   0.199   2.606   5.378 -0.9931 -1.7760  0.7850
 3269SOL    HW215823   0.163   2.717   5.493  0.7415  1.2399 -1.4375
 3270SOL     OW15824   2.340   3.083   1.010 -0.0178 -0.1064  0.1199
 3270SOL    HW115825   2.439   3.070   1.013 -0.2451 -2.0550 -0.0483
 3270SOL    HW215826   2.295   2.997   0.988 -1.7139  0.9649 -0.8518
 3271SOL     OW15827   2.238   3.176   6.144 -0.1504  0.2273 -0.3978
 3271SOL    HW115828   2.283   3.139   6.225  1.0530  0.5688 -0.8936
 3271SOL    HW215829   2.294   3.159   6.063 -1.6892 -0.7688 -1.2972
 3272SOL     OW15830   4.385   6.347   5.852 -0.1766  0.0799  0.1438
 3272SOL    HW115831   4.386   6.365   5.754 -2.6005 -1.6590 -0.2820
 3272SOL    HW215832   4.459   6.283   5.875 -0.3052 -0.4185 -0.7717
 3273SOL     OW15833   1.635   2.933   1.260  0.1444 -0.6793  0.3187
 3273SOL    HW115834   1.582   2.875   1.321 -0.2829 -1.6668 -0.9384
 3273SOL    HW215835   1.584   2.949   1.176  1.0599 -0.0632 -0.1479
 3274SOL     OW15836   5.716   3.560   5.154  0.4331  0.6190  0.3889
 3274SOL    HW115837   5.725   3.463   5.129  0.4673  1.3536 -2.9339
 3274SOL    HW215838   5.807   3.601   5.160  0.3943  1.0044 -1.1037
 3275SOL     OW15839   2.369   3.683   0.743  0.0732 -0.5459 -0.1123
 3275SOL    HW115840   2.401   3.606   0.798 -1.2516 -1.1308 -0.1232
 3275SOL    HW215841   2.345   3.651   0.652  0.2144  0.0228 -0.3529
 3276SOL     OW15842   2.203   4.940   5.052 -0.9114 -0.1854 -0.2035
 3276SOL    HW115843   2.300   4.921   5.063 -1.2559 -2.3438 -0.5039
 3276SOL    HW215844   2.187   4.982   4.963 -0.1748  1.0164  0.2128
 3277SOL     OW15845   1.501   5.681   5.805 -0.5428 -0.4005  0.5326
 3277SOL    HW115846   1.555   5.738   5.744 -1.2138 -1.4573 -1.1121
 3277SOL    HW215847   1.555   5.603   5.836 -0.7798 -0.8955 -0.2756
 3278SOL     OW15848   6.306   0.001   0.598  0.7185  0.2018  0.4399
 3278SOL    HW115849   6.359  -0.010   0.514 -1.6165 -1.6785 -0.9350
 3278SOL    HW215850   6.276  -0.090   0.629 -4.3992  1.1069 -0.8599
 3279SOL     OW15851   4.417   2.208   0.144  0.5974  0.0676  0.3606
 3279SOL    HW115852   4.422   2.136   0.074 -0.3111  1.1689 -0.8710
 3279SOL    HW215853   4.508   2.223   0.182  1.3209  0.1511 -1.3286
 3280SOL     OW15854   1.702   0.284   0.236  0.8222  0.0971  0.1844
 3280SOL    HW115855   1.676   0.378   0.257 -1.0562 -0.3756  0.1974
 3280SOL    HW215856   1.775   0.255   0.298  0.7733  1.2550  0.8082
 3281SOL     OW15857   0.799   1.972   1.105  0.2766 -0.1824 -0.0882
 3281SOL    HW115858   0.889   1.953   1.068  0.4710 -1.7400  1.1144
 3281SOL    HW215859   0.808   2.016   1.194 -0.1856  0.7502 -0.4786
 3282SOL     OW15860   5.366   3.506   0.140 -0.2098  0.2528  0.8661
 3282SOL    HW115861   5.384   3.581   0.076 -0.7750  0.1279  0.5478
 3282SOL    HW215862   5.267   3.496   0.153 -0.2184 -1.2362 -0.0705
 3283SOL     OW15863   4.057   1.644   5.770 -0.1003  0.4830  0.2045
 3283SOL    HW115864   3.979   1.683   5.818 -0.2821  0.3461  0.0259
 3283SOL    HW215865   4.054   1.544   5.778  0.6388  0.5204  1.0866
 3284SOL     OW15866   6.243   4.700   5.175  0.1452  0.4847 -0.3471
 3284SOL    HW115867   6.182   4.733   5.104  0.3150  0.6764 -0.4059
 3284SOL    HW215868   6.331   4.674   5.134 -0.0028 -0.0905 -0.3101
 3285SOL     OW15869   2.562   1.862   0.244 -0.3961 -0.4478 -0.7230
 3285SOL    HW115870   2.592   1.868   0.339  0.5577 -2.8236 -0.8051
 3285SOL    HW215871   2.548   1.954   0.207  0.4184  0.5465  1.3183
 3286SOL     OW15872   5.218   4.597   1.709  0.2121  0.5612 -0.4136
 3286SOL    HW115873   5.191   4.689   1.683 -1.5952 -0.1611 -1.2812
 3286SOL    HW215874   5.155   4.562   1.779  1.5563  0.3536  0.7640
 3287SOL     OW15875   4.659   2.851   5.708  0.2952  0.1829  0.4274
 3287SOL    HW115876   4.580   2.869   5.649  0.4687  0.3286  0.2378
 3287SOL    HW215877   4.719   2.784   5.663  0.6949  0.6867  0.1927
 3288SOL     OW15878   3.818   3.102   6.594 -0.0413 -0.6014  0.0703
 3288SOL    HW115879   3.824   3.019   6.539  1.8233 -0.4866  0.0617
 3288SOL    HW215880   3.846   3.083   6.688  0.2179 -0.0229  0.1157
 3289SOL     OW15881   0.661   3.770   5.811 -0.4384 -0.1370 -0.2506
 3289SOL    HW115882   0.603   3.750   5.732 -0.5120 -0.5519 -0.0928
 3289SOL    HW215883   0.748   3.722   5.802  0.6663  1.9580 -1.4142
 3290SOL     OW15884   4.340   5.989   0.149  0.2547 -0.0104  0.3865
 3290SOL    HW115885   4.322   5.934   0.230  0.2422 -0.7013 -0.0788
 3290SOL    HW215886   4.253   6.022   0.111 -0.0254 -2.2997 -1.1338
 3291SOL     OW15887   1.302   6.393   6.589  0.1229 -0.3864  0.0265
 3291SOL    HW115888   1.376   6.461   6.589  0.2368 -0.5098 -0.0311
 3291SOL    HW215889   1.321   6.323   6.520 -0.2652 -0.1862 -0.2871
 3292SOL     OW15890   1.553   5.002   1.495  0.2485 -0.4278 -0.6887
 3292SOL    HW115891   1.504   4.951   1.565  0.5514 -0.0829 -0.2170
 3292SOL    HW215892   1.555   5.099   1.520  2.1179 -0.5658 -0.1113
 3293SOL     OW15893   2.350   0.649   0.873 -0.4525 -0.2260  0.0392
 3293SOL    HW115894   2.341   0.707   0.953 -2.3492 -1.8116  1.0906
 3293SOL    HW215895   2.434   0.671   0.824 -0.1972  2.0854  1.3727
 3294SOL     OW15896   4.795   4.843   6.044 -0.1824  0.0132  0.4645
 3294SOL    HW115897   4.705   4.803   6.063 -0.7632  1.3807  0.7267
 3294SOL    HW215898   4.810   4.844   5.945 -2.5533  3.9288 -0.0452
 3295SOL     OW15899   1.467   6.138   1.795 -0.2221 -0.0239  0.1444
 3295SOL    HW115900   1.373   6.106   1.784 -0.7032  0.6612  1.9261
 3295SOL    HW215901   1.504   6.102   1.880  0.2102  1.8113  0.7751
 3296SOL     OW15902   3.475   4.287   6.472  0.3032 -0.3569  0.1215
 3296SOL    HW115903   3.460   4.375   6.519 -0.6799 -0.2222 -0.4167
 3296SOL    HW215904   3.454   4.212   6.535  0.1477 -0.1882  0.2722
 3297SOL     OW15905   1.539   1.016   1.492  0.3750  0.2325  0.1659
 3297SOL    HW115906   1.493   1.029   1.405  1.6556 -0.4775 -0.6493
 3297SOL    HW215907   1.520   0.924   1.526  1.4876 -0.2103 -0.3779
 3298SOL     OW15908   3.334   1.888   5.792  0.0283 -0.0941 -0.4778
 3298SOL    HW115909   3.320   1.827   5.715 -1.1030  0.3419 -0.6304
 3298SOL    HW215910   3.315   1.982   5.764  0.4618  0.1728  0.1014
 3299SOL     OW15911   5.150   2.032   0.499  0.0780  0.5695 -0.6634
 3299SOL    HW115912   5.084   2.043   0.573 -0.7039  1.0242 -1.4118
 3299SOL    HW215913   5.224   2.099   0.509 -0.0784  0.6958 -0.3586
 3300SOL     OW15914   5.605   2.750   6.364 -0.1740  0.0450  0.3393
 3300SOL    HW115915   5.641   2.759   6.270 -0.9541  0.6421  0.0862
 3300SOL    HW215916   5.679   2.721   6.425  0.4683  0.1435 -0.3722
 3301SOL     OW15917   4.326   5.623   0.403  0.4051  0.0760 -0.2899
 3301SOL    HW115918   4.383   5.697   0.367  0.8994 -0.1132  0.0967
 3301SOL    HW215919   4.239   5.661   0.435  1.0247  0.6479  0.7897
 3302SOL     OW15920   0.038   1.528   0.804  0.2061  0.1169 -0.0081
 3302SOL    HW115921   0.070   1.483   0.887 -0.6067  2.3001  1.6091
 3302SOL    HW215922   0.110   1.589   0.769 -0.6300  1.9406  1.2756
 3303SOL     OW15923   2.604   6.418   6.284 -0.0685  0.2630  0.0637
 3303SOL    HW115924   2.640   6.378   6.369  1.0004 -0.0399 -0.5073
 3303SOL    HW215925   2.658   6.385   6.207 -0.9130  0.6844 -0.7211
 3304SOL     OW15926   0.969   4.260   5.630  0.5693  0.8152 -0.2492
 3304SOL    HW115927   1.056   4.282   5.586  0.1793  0.9273 -0.9743
 3304SOL    HW215928   0.929   4.179   5.587  0.3517  0.7137  0.1381
 3305SOL     OW15929   5.926   2.290   1.541 -0.5817  0.3613 -0.1616
 3305SOL    HW115930   5.986   2.354   1.588  0.2478 -0.2741 -0.3291
 3305SOL    HW215931   5.936   2.199   1.582 -0.7044  0.0458 -0.8180
 3306SOL     OW15932   3.195   6.264   5.816  0.5781  0.6243 -0.4410
 3306SOL    HW115933   3.294   6.263   5.828  0.5229  0.8332  0.0804
 3306SOL    HW215934   3.172   6.256   5.719  1.1003  0.4076 -0.5442
 3307SOL     OW15935   1.111   6.336   0.357  0.4395  0.2639 -0.0509
 3307SOL    HW115936   1.102   6.317   0.454 -0.0193  0.8638  0.0308
 3307SOL    HW215937   1.206   6.321   0.328  0.3894 -0.7781  0.2859
 3308SOL     OW15938   1.144   2.955   6.225  0.0475 -0.0171 -0.3115
 3308SOL    HW115939   1.068   3.008   6.263  0.1113  0.2595 -0.5629
 3308SOL    HW215940   1.211   3.017   6.186  0.5230 -0.2507  0.1259
 3309SOL     OW15941   0.174   3.798   6.289  0.0560 -0.1125 -0.0793
 3309SOL    HW115942   0.122   3.715   6.265  0.2506 -0.4007  0.4838
 3309SOL    HW215943   0.204   3.843   6.205  0.7650 -1.1340 -0.4012
 3310SOL     OW15944   3.232   5.854   6.503 -0.4384 -0.2330 -0.1276
 3310SOL    HW115945   3.248   5.953   6.510  0.5239 -0.3656 -0.2524
 3310SOL    HW215946   3.284   5.808   6.575  0.2466 -0.7492 -0.9432
 3311SOL     OW15947   4.178   2.174   1.268  0.3971  0.0329  0.1146
 3311SOL    HW115948   4.136   2.210   1.351  1.4662  0.1152  0.6316
 3311SOL    HW215949   4.212   2.081   1.286  1.5726  0.4424  0.1012
 3312SOL     OW15950   1.728   5.845   6.093 -0.3476 -0.0609  0.0621
 3312SOL    HW115951   1.678   5.881   6.015  1.1525  1.0493 -0.4224
 3312SOL    HW215952   1.807   5.792   6.061 -1.4327 -2.2334  0.7973
 3313SOL     OW15953   0.826   6.418   6.491  0.6029 -0.1670 -0.3679
 3313SOL    HW115954   0.923   6.441   6.494  0.7453 -0.8556  1.0517
 3313SOL    HW215955   0.810   6.331   6.538 -0.9864  1.0939  1.6652
 3314SOL     OW15956   0.186   2.356   5.352 -0.2399 -0.5016 -0.1522
 3314SOL    HW115957   0.256   2.307   5.299 -1.6950 -3.2246  0.2873
 3314SOL    HW215958   0.145   2.427   5.294  1.3662 -0.3121 -1.1191
 3315SOL     OW15959   1.823   1.311   6.379  0.5712  0.3574 -0.0103
 3315SOL    HW115960   1.863   1.280   6.465 -0.5507  1.7830  1.0545
 3315SOL    HW215961   1.881   1.383   6.340 -0.0583  1.2734  0.7048
 3316SOL     OW15962   6.235   5.653   0.117  0.2484  0.8055  0.0080
 3316SOL    HW115963   6.315   5.646   0.176  0.2165  0.2468 -0.0067
 3316SOL    HW215964   6.200   5.561   0.097  0.5325  0.9487 -1.2522
 3317SOL     OW15965   2.386   1.887   6.474  0.0860  0.1478  0.4082
 3317SOL    HW115966   2.393   1.943   6.557 -0.5691 -0.6070  0.9858
 3317SOL    HW215967   2.470   1.896   6.421  1.4923 -1.0916  2.2908
 3318SOL     OW15968   0.948   6.260   0.171 -0.0083 -0.5129 -0.0597
 3318SOL    HW115969   1.000   6.307   0.242 -1.1108  1.5538 -0.5416
 3318SOL    HW215970   1.010   6.232   0.098  0.4214  3.0906 -1.2655
 3319SOL     OW15971   5.067   6.397   6.317  0.5960  0.0655 -0.1996
 3319SOL    HW115972   4.996   6.457   6.280 -0.6615 -0.5169  1.1764
 3319SOL    HW215973   5.038   6.362   6.406  2.2850 -0.8196  0.0402
 3320SOL     OW15974   6.347   1.574   5.831  0.5807  0.2070  0.0094
 3320SOL    HW115975   6.278   1.570   5.903  0.8146 -0.4771  0.2039
 3320SOL    HW215976   6.306   1.611   5.748  0.6167  2.2011  0.8301
 3321SOL     OW15977   5.172   0.686   6.187 -0.8066 -0.1347 -0.1196
 3321SOL    HW115978   5.151   0.781   6.210 -0.4296  0.6483 -2.7369
 3321SOL    HW215979   5.248   0.654   6.243 -1.2447  0.9209  1.1205
 3322SOL     OW15980   5.471   4.274   4.991 -0.4350  0.4663  0.3711
 3322SOL    HW115981   5.374   4.297   5.000  0.3025  3.8626  1.1086
 3322SOL    HW215982   5.507   4.315   4.907  0.4334 -0.4981  0.2616
 3323SOL     OW15983   6.090   3.310   0.654 -0.5829  0.3134  1.4856
 3323SOL    HW115984   6.014   3.357   0.698 -0.0649  0.3329  2.3942
 3323SOL    HW215985   6.175   3.357   0.677 -0.1978 -0.2712  1.2784
 3324SOL     OW15986   3.252   2.856   5.484 -0.4515  0.1465  0.2924
 3324SOL    HW115987   3.219   2.835   5.392 -0.2539 -2.3810  0.7399
 3324SOL    HW215988   3.230   2.781   5.546  3.7310 -0.5615  1.2013
 3325SOL     OW15989   1.479   3.291   6.058  0.0937 -0.0292 -0.6768
 3325SOL    HW115990   1.469   3.194   6.080 -0.8180  0.3799  0.8447
 3325SOL    HW215991   1.552   3.330   6.113 -0.8049  0.5538  0.1193
 3326SOL     OW15992   1.777   0.460   6.580  0.1018  0.2871 -0.0913
 3326SOL    HW115993   1.758   0.385   6.643 -0.4188  0.8967  0.4868
 3326SOL    HW215994   1.710   0.460   6.506 -0.9972  1.2278  0.8652
 3327SOL     OW15995   1.851   4.059   6.583 -0.2802  0.4172 -0.0664
 3327SOL    HW115996   1.762   4.041   6.625  0.0726 -1.8860 -0.2198
 3327SOL    HW215997   1.845   4.049   6.484 -0.0874  1.4494 -0.2001
 3328SOL     OW15998   0.475   0.153   0.368  0.8232 -0.2529  0.2543
 3328SOL    HW115999   0.545   0.112   0.309  0.8485 -2.0993  1.4959
 3328SOL    HW216000   0.518   0.185   0.453  0.5620  1.1505 -0.1100
 3329SOL     OW16001   0.911   4.023   0.650 -0.6036 -0.6517 -0.4625
 3329SOL    HW116002   0.865   4.089   0.708 -2.5929 -0.9418 -1.6298
 3329SOL    HW216003   0.991   3.986   0.698 -1.5232 -0.0734  1.6026
 3330SOL     OW16004   4.425   3.615   4.849  0.3236  0.0719 -0.2254
 3330SOL    HW116005   4.441   3.519   4.826 -0.5815 -0.0296 -0.4802
 3330SOL    HW216006   4.479   3.674   4.789 -1.2961 -0.2053 -2.0667
 3331SOL     OW16007   5.761   4.990   5.913 -0.0281  0.4409  0.0543
 3331SOL    HW116008   5.839   4.928   5.923 -1.3087 -1.2873 -0.2526
 3331SOL    HW216009   5.677   4.937   5.905 -1.1050  2.2193 -1.0722
 3332SOL     OW16010   1.456   1.479   0.712  0.8694 -0.1568  0.0328
 3332SOL    HW116011   1.428   1.480   0.808  1.9458 -2.6250  0.4518
 3332SOL    HW216012   1.529   1.546   0.698  1.5192 -0.5692  1.2386
 3333SOL     OW16013   0.533   3.573   0.832  0.3049 -0.0090 -0.0103
 3333SOL    HW116014   0.481   3.527   0.760  0.2485 -2.0535  1.2716
 3333SOL    HW216015   0.601   3.633   0.790 -1.1466  0.5173 -1.7330
 3334SOL     OW16016   0.065   3.544   6.196 -0.1252 -0.4048 -0.1176
 3334SOL    HW116017   0.048   3.446   6.198 -0.4209 -0.3466  0.7494
 3334SOL    HW216018   0.001   3.589   6.134  0.3264 -0.8075 -0.8894
 3335SOL     OW16019   4.701   1.314   5.367 -0.6831  0.1020  0.2402
 3335SOL    HW116020   4.669   1.403   5.400  1.8111  0.8174  0.9781
 3335SOL    HW216021   4.786   1.327   5.315 -1.0774 -1.7305 -0.9562
 3336SOL     OW16022   3.288   4.479   0.214 -0.5843  0.1650  0.3082
 3336SOL    HW116023   3.316   4.538   0.290  0.1650  0.2431 -0.0138
 3336SOL    HW216024   3.189   4.482   0.204 -0.6748  0.2870  1.1730
 3337SOL     OW16025   5.263   2.733   5.933 -0.3213 -0.3271 -0.6357
 3337SOL    HW116026   5.269   2.650   5.988  0.0978 -0.6121 -1.1029
 3337SOL    HW216027   5.355   2.761   5.905 -0.2890  1.1688  0.8057
 3338SOL     OW16028   6.116   5.879   0.035 -0.4982 -0.3014  0.1937
 3338SOL    HW116029   6.139   5.897  -0.061 -1.4875  2.1133  0.3389
 3338SOL    HW216030   6.160   5.794   0.064  3.6265  1.1123 -1.0881
 3339SOL     OW16031   1.994   3.794   1.099 -0.5257 -0.3433  0.0816
 3339SOL    HW116032   2.009   3.828   1.007  1.7851  0.1792  0.5830
 3339SOL    HW216033   1.907   3.829   1.134 -0.4978  1.0990 -1.1832
 3340SOL     OW16034   5.033   0.908   0.791 -0.3292  0.4601  0.2634
 3340SOL    HW116035   5.029   0.857   0.877 -2.9486 -0.1513 -0.1323
 3340SOL    HW216036   5.077   0.853   0.720  0.2645  0.2846  0.7584
 3341SOL     OW16037   2.790   2.804   4.954 -0.4745  0.1894  0.3086
 3341SOL    HW116038   2.850   2.725   4.945 -1.1639 -0.1428 -1.8526
 3341SOL    HW216039   2.797   2.841   5.047  1.0421 -1.4307  0.8832
 3342SOL     OW16040   3.742   4.719   6.079  0.2437  0.3019  0.9732
 3342SOL    HW116041   3.763   4.804   6.127  0.7419  1.6284 -1.4183
 3342SOL    HW216042   3.802   4.710   6.000 -2.5272 -0.1135 -1.2591
 3343SOL     OW16043   0.279   2.197   0.408  0.1453  0.5899 -0.4292
 3343SOL    HW116044   0.358   2.218   0.350 -0.0042  0.2389 -0.7631
 3343SOL    HW216045   0.300   2.119   0.466 -0.2836 -0.1224 -1.2061
 3344SOL     OW16046   2.644   3.883   0.765 -0.0789  0.9777 -0.3273
 3344SOL    HW116047   2.644   3.884   0.865  0.5997 -1.8789 -0.2109
 3344SOL    HW216048   2.666   3.974   0.731  0.4632  1.8476  2.1213
 3345SOL     OW16049   1.029   1.786   0.591 -0.1780  0.2826 -0.2719
 3345SOL    HW116050   1.021   1.834   0.503  0.7014  0.0457 -0.4931
 3345SOL    HW216051   1.095   1.711   0.582  0.2890  0.5592  0.7143
 3346SOL     OW16052   4.088   0.217   4.817 -1.1564 -0.1637 -0.0974
 3346SOL    HW116053   4.148   0.258   4.748 -1.2308 -0.1933 -0.1797
 3346SOL    HW216054   4.118   0.124   4.835 -1.1554 -0.1663 -0.1117
 3347SOL     OW16055   4.031   5.966   0.642  0.2830  0.1892 -0.2334
 3347SOL    HW116056   4.003   5.977   0.737 -0.7442  2.4229 -0.7262
 3347SOL    HW216057   4.130   5.969   0.635  0.3285  1.1622  0.6679
 3348SOL     OW16058   1.703   1.752   6.083 -0.0066  0.9397  0.1909
 3348SOL    HW116059   1.770   1.769   6.155  0.5213  0.1018 -0.0845
 3348SOL    HW216060   1.703   1.828   6.018  1.2565  0.6080 -0.2257
 3349SOL     OW16061   1.466   1.842   0.606  0.3467 -0.0591  0.2874
 3349SOL    HW116062   1.430   1.787   0.682 -1.6257  1.1914  0.3407
 3349SOL    HW216063   1.393   1.900   0.570  1.1373 -0.7813 -2.7627
 3350SOL     OW16064   3.462   0.718   5.195 -0.1256 -0.1121  0.5681
 3350SOL    HW116065   3.502   0.708   5.104 -1.0996  3.4052 -0.4076
 3350SOL    HW216066   3.531   0.698   5.265  0.9149 -1.9303 -0.9025
 3351SOL     OW16067   5.805   3.985   6.421 -0.1179 -0.3712 -0.5567
 3351SOL    HW116068   5.855   4.042   6.486  0.6303 -0.9985 -0.5539
 3351SOL    HW216069   5.817   4.021   6.329  3.2135 -2.2638 -1.0667
 3352SOL     OW16070   0.116   0.085   0.906 -0.1335 -0.3255  0.2277
 3352SOL    HW116071   0.194   0.088   0.844  1.1242  0.3215  1.7899
 3352SOL    HW216072   0.092  -0.010   0.925 -1.1367 -0.5743 -1.8875
 3353SOL     OW16073   4.603   5.495   6.118 -0.0479  0.0115  0.4255
 3353SOL    HW116074   4.541   5.516   6.043 -0.5087 -0.5115  0.6468
 3353SOL    HW216075   4.658   5.415   6.095 -0.8203 -0.7043  0.9771
 3354SOL     OW16076   1.925   5.196   5.332  0.2589 -0.2375  0.4276
 3354SOL    HW116077   1.845   5.146   5.366 -0.2349  0.4882  0.3595
 3354SOL    HW216078   1.926   5.288   5.372  0.9322 -0.1558  0.2392
 3355SOL     OW16079   1.461   3.598   1.295 -0.6494 -0.5398 -0.3849
 3355SOL    HW116080   1.413   3.522   1.252 -0.0956 -1.2812  0.2772
 3355SOL    HW216081   1.532   3.562   1.355 -0.9618  0.4773  0.6277
 3356SOL     OW16082   2.058   4.430   6.058  0.0466 -0.1758 -0.0534
 3356SOL    HW116083   2.094   4.513   6.015  1.8589 -0.8861  0.0353
 3356SOL    HW216084   1.974   4.403   6.011  0.9022  0.1759 -1.8772
 3357SOL     OW16085   3.175   6.312   1.019 -0.1796 -0.0903  0.1184
 3357SOL    HW116086   3.121   6.364   0.953 -0.8901 -3.4490 -2.1991
 3357SOL    HW216087   3.114   6.254   1.074  0.7978 -1.3468 -0.0916
 3358SOL     OW16088   5.974   3.565   6.343  0.6384  0.4190 -0.4300
 3358SOL    HW116089   5.989   3.488   6.405  1.7470  0.8666 -0.1327
 3358SOL    HW216090   5.938   3.530   6.256 -1.1545 -0.1966  0.4982
 3359SOL     OW16091   5.589   0.496   1.107 -0.5526  0.2050  0.0552
 3359SOL    HW116092   5.680   0.463   1.080 -0.9102 -0.5405 -0.2591
 3359SOL    HW216093   5.589   0.519   1.204 -0.0231  0.2447  0.0499
 3360SOL     OW16094   4.859   0.625   1.272  0.0697 -0.1033 -0.3112
 3360SOL    HW116095   4.919   0.685   1.325  0.0566  0.9229 -1.4093
 3360SOL    HW216096   4.832   0.547   1.328  0.2768  0.7953  1.0927
 3361SOL     OW16097   0.955   6.179   6.046  0.1849 -0.4953  0.2180
 3361SOL    HW116098   0.919   6.258   5.997  0.8101  0.4714  1.2651
 3361SOL    HW216099   0.884   6.108   6.052 -0.3056 -0.1269 -0.9340
 3362SOL     OW16100   6.396   5.280   0.578 -0.4876  0.2870  0.1562
 3362SOL    HW116101   6.443   5.193   0.588 -0.4413  0.1742 -0.8524
 3362SOL    HW216102   6.459   5.355   0.598  0.3805  0.1645 -1.8744
 3363SOL     OW16103   2.204   2.394   6.589  0.3996 -0.0896 -0.7776
 3363SOL    HW116104   2.164   2.305   6.612  0.3613  0.3545  0.9631
 3363SOL    HW216105   2.295   2.402   6.628 -1.5332  2.6002  4.0317
 3364SOL     OW16106   5.552   5.345   6.036  0.0195 -0.1458 -0.6469
 3364SOL    HW116107   5.503   5.332   5.949 -1.5548 -1.1792  0.3477
 3364SOL    HW216108   5.649   5.324   6.023  0.6599  3.4237 -3.0616
 3365SOL     OW16109   5.117   1.346   5.081 -0.9169 -0.2796  0.6293
 3365SOL    HW116110   5.114   1.430   5.027  1.4456 -0.5902 -0.1118
 3365SOL    HW216111   5.089   1.269   5.024  0.8178 -0.5019  0.0380
 3366SOL     OW16112   5.291   1.731   6.402 -0.1059  0.0712 -0.6285
 3366SOL    HW116113   5.233   1.789   6.345  1.6973 -0.7205 -3.4817
 3366SOL    HW216114   5.368   1.786   6.437 -0.1597  0.1117 -0.5720
 3367SOL     OW16115   0.139   4.590   5.063  0.9670  0.1343 -0.2152
 3367SOL    HW116116   0.142   4.686   5.036  0.4954  0.3998  0.6444
 3367SOL    HW216117   0.087   4.538   4.995  0.3993  0.6608 -0.1928
 3368SOL     OW16118   3.172   0.595   5.990 -0.7277  0.3597  0.0365
 3368SOL    HW116119   3.145   0.512   5.942  0.5886  0.3219 -0.6837
 3368SOL    HW216120   3.259   0.628   5.954 -0.3196  1.0388  1.5490
 3369SOL     OW16121   2.921   0.026   5.795 -0.3409  0.1711 -0.0433
 3369SOL    HW116122   2.886   0.113   5.761 -0.4973  1.0409  2.1955
 3369SOL    HW216123   2.998   0.043   5.857 -0.3142 -1.2921  0.3596
 3370SOL     OW16124   3.472   1.398   5.546  0.3293 -0.4254 -0.0934
 3370SOL    HW116125   3.454   1.432   5.453 -1.8320  0.2107  0.4995
 3370SOL    HW216126   3.570   1.395   5.561  0.7817 -1.0900 -2.5974
 3371SOL     OW16127   0.014   4.086   6.507  0.1031  0.4654 -0.1672
 3371SOL    HW116128   0.019   4.087   6.407  0.4836  2.3946 -0.1673
 3371SOL    HW216129   0.030   3.993   6.540  2.8730  0.2557 -1.7876
 3372SOL     OW16130   3.822   3.109   1.536 -0.7676  0.0546  0.0971
 3372SOL    HW116131   3.836   3.156   1.449 -1.0726 -0.4253 -0.2177
 3372SOL    HW216132   3.778   3.171   1.601 -0.1787  0.5408  0.0417
 3373SOL     OW16133   1.470   2.093   0.413  0.7450  0.6118 -0.1268
 3373SOL    HW116134   1.397   2.152   0.449 -0.9826 -0.8749 -1.0017
 3373SOL    HW216135   1.504   2.034   0.486 -1.3447 -1.0079 -0.3588
 3374SOL     OW16136   1.825   5.068   0.456 -0.2120  0.4658  0.7044
 3374SOL    HW116137   1.874   5.111   0.381 -0.8023 -0.4858 -0.2566
 3374SOL    HW216138   1.884   5.063   0.537  1.5010 -1.1260 -0.5604
 3375SOL     OW16139   3.684   1.673   0.858  0.4065  0.5175  0.0667
 3375SOL    HW116140   3.681   1.750   0.922  0.0308  0.8463 -0.3447
 3375SOL    HW216141   3.670   1.588   0.909 -0.4617  0.8200  0.3508
 3376SOL     OW16142   4.303   6.170   4.938  0.2131 -0.0795  0.1224
 3376SOL    HW116143   4.278   6.182   5.034 -2.4357  2.2301 -0.7189
 3376SOL    HW216144   4.379   6.232   4.915  1.2797 -1.0883  0.7959
 3377SOL     OW16145   1.614   0.070   5.874  0.4403 -0.3004  0.9222
 3377SOL    HW116146   1.594   0.110   5.784  1.3610  1.1299  1.3006
 3377SOL    HW216147   1.531   0.068   5.929  0.0770 -0.2356  0.3852
 3378SOL     OW16148   2.616   1.586   0.667 -0.5274  0.3428  0.0436
 3378SOL    HW116149   2.627   1.599   0.766  2.1381 -1.0445  0.0313
 3378SOL    HW216150   2.547   1.515   0.651 -2.3773  1.8781  0.7488
 3379SOL     OW16151   0.082   2.749   6.148 -0.1805  0.6318  0.1595
 3379SOL    HW116152   0.133   2.758   6.234 -0.0253  0.5191  0.0796
 3379SOL    HW216153   0.040   2.659   6.143 -0.0642  0.5845  0.0481
 3380SOL     OW16154   5.353   5.105   0.371  0.1260  0.7952 -0.5154
 3380SOL    HW116155   5.300   5.173   0.421  0.5548  1.1954 -0.6025
 3380SOL    HW216156   5.431   5.149   0.327  0.4924  0.2226 -0.4493
 3381SOL     OW16157   3.643   1.034   5.156 -0.1543 -0.0712  0.3749
 3381SOL    HW116158   3.641   0.968   5.081  1.0379 -0.0341  0.2834
 3381SOL    HW216159   3.655   0.986   5.243 -3.2905 -0.2644  0.8092
 3382SOL     OW16160   0.181   4.930   6.412 -0.3658 -0.6202 -0.4266
 3382SOL    HW116161   0.250   4.971   6.471  0.8940 -3.1246 -0.0140
 3382SOL    HW216162   0.091   4.967   6.435  0.6690  2.2216 -0.5148
 3383SOL     OW16163   2.265   4.167   5.741  0.3736 -0.5934 -0.0089
 3383SOL    HW116164   2.258   4.196   5.836  0.1824  1.3395 -0.5759
 3383SOL    HW216165   2.192   4.103   5.720 -1.0556  0.8032  0.5348
 3384SOL     OW16166   3.136   3.769   1.935  0.1197  0.7363 -0.3471
 3384SOL    HW116167   3.040   3.791   1.916  0.6931  0.8462 -3.5250
 3384SOL    HW216168   3.165   3.693   1.878  1.8149  0.3200  0.9786
 3385SOL     OW16169   1.397   5.991   1.001 -0.2397 -0.2454 -0.0057
 3385SOL    HW116170   1.300   5.967   0.991 -0.1295 -0.2121 -1.4545
 3385SOL    HW216171   1.448   5.952   0.924  0.4846  1.8297 -0.6474
 3386SOL     OW16172   6.240   5.874   1.715 -0.0097 -0.1443 -0.5575
 3386SOL    HW116173   6.224   5.785   1.757  1.4790  0.9851  2.7399
 3386SOL    HW216174   6.338   5.891   1.708 -0.2528  1.4745 -0.5577
 3387SOL     OW16175   6.130   2.659   6.023  0.2787  0.6747 -0.1421
 3387SOL    HW116176   6.049   2.713   6.048 -0.7204 -0.6275 -0.4756
 3387SOL    HW216177   6.197   2.719   5.981 -2.2458  1.2171 -3.9025
 3388SOL     OW16178   3.216   5.277   1.864 -0.5203 -0.6791 -0.5274
 3388SOL    HW116179   3.244   5.348   1.929 -1.0669 -0.2763 -0.7233
 3388SOL    HW216180   3.258   5.190   1.890  0.6097 -0.1674 -0.6216
 3389SOL     OW16181   4.303   5.741   4.877  0.4810  0.4608 -0.7878
 3389SOL    HW116182   4.260   5.685   4.806  0.2404 -0.8288  0.3380
 3389SOL    HW216183   4.236   5.803   4.917 -0.0363 -0.6180  0.0549
 3390SOL     OW16184   2.540   4.889   0.723 -0.1916 -0.0874 -0.1378
 3390SOL    HW116185   2.447   4.861   0.747 -0.1780  0.4553  0.5637
 3390SOL    HW216186   2.566   4.845   0.637 -0.1822 -2.2388  0.9010
 3391SOL     OW16187   0.846   3.022   6.034  0.5271  0.0330 -0.0765
 3391SOL    HW116188   0.834   2.991   5.940 -0.6349 -1.1601  0.4299
 3391SOL    HW216189   0.944   3.028   6.055  0.7953 -0.8678 -0.9806
 3392SOL     OW16190   4.615   0.590   6.474  0.1003  0.1041  0.3183
 3392SOL    HW116191   4.700   0.602   6.423 -0.0822  1.6437  0.3207
 3392SOL    HW216192   4.634   0.594   6.572  0.1013 -0.1445  0.3283
 3393SOL     OW16193   3.271   2.455   5.486 -0.0192 -0.5474 -0.0678
 3393SOL    HW116194   3.172   2.452   5.499 -0.1929 -2.2522 -1.3195
 3393SOL    HW216195   3.312   2.371   5.522  0.6190 -1.0155 -1.7634
 3394SOL     OW16196   0.273   2.709   6.521 -0.0818 -0.1375 -0.6878
 3394SOL    HW116197   0.321   2.791   6.488  0.7394  0.0702  0.9241
 3394SOL    HW216198   0.176   2.716   6.498 -0.5609  2.5503  1.5786
 3395SOL     OW16199   3.793   1.411   5.113 -0.0334  0.3210 -0.0955
 3395SOL    HW116200   3.701   1.406   5.073 -0.1062  0.9536 -0.0154
 3395SOL    HW216201   3.821   1.320   5.143 -0.5257  0.0755 -0.3655
 3396SOL     OW16202   5.827   2.661   6.521  0.1160 -0.1711  0.2021
 3396SOL    HW116203   5.910   2.693   6.566  0.8971 -0.8158 -0.7288
 3396SOL    HW216204   5.852   2.595   6.449 -1.1823 -0.1779 -0.2594
 3397SOL     OW16205   0.737   2.028   5.702 -0.1036 -0.0075  0.6179
 3397SOL    HW116206   0.745   2.031   5.802 -0.1012  1.5696  0.6002
 3397SOL    HW216207   0.660   1.969   5.676 -0.9517  0.6269  1.6130
 3398SOL     OW16208   4.544   0.526   6.122  0.5664 -0.1994  0.1066
 3398SOL    HW116209   4.515   0.545   6.028 -4.4821  0.2229  1.4817
 3398SOL    HW216210   4.497   0.445   6.156  3.5082 -1.3117  1.9164
 3399SOL     OW16211   1.279   0.111   5.215 -0.0254 -0.1763  0.4318
 3399SOL    HW116212   1.235   0.021   5.212 -0.6973  0.1569 -1.5157
 3399SOL    HW216213   1.372   0.103   5.178  0.1042 -0.1539  0.7493
 3400SOL     OW16214   0.007   5.094   0.060 -0.5316  0.4680  0.1778
 3400SOL    HW116215  -0.001   4.995   0.064 -1.3358  0.5387  0.4528
 3400SOL    HW216216   0.102   5.121   0.079 -0.6954 -0.1494  2.0875
 3401SOL     OW16217   2.082   3.722   1.579  0.3920  0.2808  0.3592
 3401SOL    HW116218   2.122   3.732   1.670 -0.8833  2.4988  0.7407
 3401SOL    HW216219   2.132   3.779   1.514 -0.7271  1.3194  0.3867
 3402SOL     OW16220   4.836   0.061   0.659  0.5709  0.5904  0.0415
 3402SOL    HW116221   4.850  -0.025   0.611 -0.1257 -0.5443  1.7402
 3402SOL    HW216222   4.881   0.136   0.610  0.2499 -0.5409 -2.0673
 3403SOL     OW16223   0.441   1.307   6.062 -0.1027  0.2428 -0.1798
 3403SOL    HW116224   0.536   1.296   6.092  0.3781  0.9776 -1.3681
 3403SOL    HW216225   0.396   1.375   6.119 -0.4552 -1.2781  1.4713
 3404SOL     OW16226   1.537   0.725   0.614  0.0075 -0.2372 -0.2263
 3404SOL    HW116227   1.604   0.682   0.553  1.0270  1.1322 -0.1196
 3404SOL    HW216228   1.485   0.654   0.662  2.1099 -1.3836  0.4720
 3405SOL     OW16229   3.008   4.354   1.504 -0.0870  0.2011  0.1215
 3405SOL    HW116230   2.911   4.372   1.516  0.0191  2.8353 -2.1389
 3405SOL    HW216231   3.053   4.349   1.594 -2.2853 -1.6115  1.2282
 3406SOL     OW16232   4.891   2.786   0.236  0.0081  0.2106 -0.3191
 3406SOL    HW116233   4.916   2.689   0.229  1.3956  0.3700  1.5897
 3406SOL    HW216234   4.969   2.843   0.210 -0.6272  0.8391 -0.9062
 3407SOL     OW16235   5.714   4.684   1.418 -0.1050  0.1227  0.1940
 3407SOL    HW116236   5.700   4.630   1.501  0.3512  1.4225  1.1370
 3407SOL    HW216237   5.800   4.656   1.374  0.1361  0.0989  0.6799
 3408SOL     OW16238   1.277   4.795   6.508 -0.1437  0.7923  0.1470
 3408SOL    HW116239   1.274   4.805   6.607  0.9433 -0.2956  0.3038
 3408SOL    HW216240   1.342   4.723   6.483  0.1787  1.5832 -1.3945
 3409SOL     OW16241   3.850   3.343   6.188 -0.1736  0.1227 -0.0695
 3409SOL    HW116242   3.847   3.432   6.144  1.2034 -0.0736 -0.6268
 3409SOL    HW216243   3.879   3.274   6.121  4.0921  0.1182  1.4311
 3410SOL     OW16244   4.299   0.132   6.308  0.2147  0.7110 -0.6004
 3410SOL    HW116245   4.391   0.116   6.272  0.3948 -0.3439  0.2832
 3410SOL    HW216246   4.237   0.061   6.274  0.3678 -0.2456  1.0388
 3411SOL     OW16247   1.652   5.414   0.274 -0.0597  0.0260 -0.7582
 3411SOL    HW116248   1.712   5.477   0.225  0.1263 -0.0871 -0.6780
 3411SOL    HW216249   1.631   5.337   0.214  0.8323 -0.5239 -0.3896
 3412SOL     OW16250   5.684   3.501   0.951  0.1627 -0.2429  0.0011
 3412SOL    HW116251   5.593   3.486   0.912  0.1012 -0.4367  0.2146
 3412SOL    HW216252   5.692   3.595   0.983  0.0615 -0.2072 -0.0780
 3413SOL     OW16253   2.847   5.192   4.839 -0.5765 -0.5603  0.1383
 3413SOL    HW116254   2.925   5.132   4.821 -0.5462  0.0150 -1.8921
 3413SOL    HW216255   2.878   5.271   4.892 -0.2113 -1.3027  1.0668
 3414SOL     OW16256   3.508   5.710   0.526  0.4774  0.4333 -0.1273
 3414SOL    HW116257   3.478   5.615   0.514  1.0050  0.1951  0.3921
 3414SOL    HW216258   3.516   5.730   0.624  1.3713  0.6903 -0.2458
 3415SOL     OW16259   2.053   3.596   6.313  0.1427 -0.0042 -0.4105
 3415SOL    HW116260   2.136   3.542   6.315  0.2076  0.1151  0.2357
 3415SOL    HW216261   2.072   3.688   6.347  0.1396  0.5888 -1.9139
 3416SOL     OW16262   0.050   6.118   5.836 -0.1059 -0.2148 -0.2234
 3416SOL    HW116263   0.047   6.056   5.757 -0.0690  0.1686 -0.5237
 3416SOL    HW216264  -0.042   6.152   5.855 -0.2961 -1.0927  0.5282
 3417SOL     OW16265   0.883   2.852   5.551  0.6094 -0.6081 -0.5161
 3417SOL    HW116266   0.927   2.813   5.470  1.1131  0.7314 -0.9070
 3417SOL    HW216267   0.785   2.834   5.548  0.9072 -2.4936 -0.2908
 3418SOL     OW16268   6.310   3.341   6.532  0.5071  0.5015 -0.4553
 3418SOL    HW116269   6.260   3.414   6.580  1.3509  0.9903 -0.2965
 3418SOL    HW216270   6.314   3.260   6.591  0.2401  0.5867 -0.3154
 3419SOL     OW16271   0.137   5.530   0.640 -0.1452  0.1043  0.1141
 3419SOL    HW116272   0.126   5.499   0.734  0.4681  0.3030  0.2543
 3419SOL    HW216273   0.086   5.616   0.628 -2.4706 -1.2637 -0.4770
 3420SOL     OW16274   6.405   4.778   0.026 -0.3775 -0.1051  0.1807
 3420SOL    HW116275   6.505   4.781   0.028 -0.2964 -1.7965  0.2553
 3420SOL    HW216276   6.376   4.693  -0.016 -1.8005  0.2192  0.4666
 3421SOL     OW16277   5.181   4.013   6.018  0.1204 -0.7025  0.6433
 3421SOL    HW116278   5.147   4.107   6.015  1.1412 -0.2844  1.3963
 3421SOL    HW216279   5.148   3.968   6.101 -0.6885 -1.1480  0.0880
 3422SOL     OW16280   0.410   3.033   6.203  0.3740 -0.1569 -0.1092
 3422SOL    HW116281   0.437   2.992   6.116  0.3985  1.7004 -1.0345
 3422SOL    HW216282   0.313   3.056   6.201  0.2850 -0.4438  0.5205
 3423SOL     OW16283   1.189   3.365   1.409  0.3609  0.3136  0.7354
 3423SOL    HW116284   1.158   3.295   1.474  0.6061 -0.5795 -0.0768
 3423SOL    HW216285   1.284   3.349   1.385  1.5030  2.9370  3.0683
 3424SOL     OW16286   0.434   5.167   1.288 -0.1030  0.2306 -0.2232
 3424SOL    HW116287   0.512   5.142   1.346  0.1488  0.1104 -0.6137
 3424SOL    HW216288   0.446   5.260   1.254 -1.2555  1.0899  1.5918
 3425SOL     OW16289   3.916   2.243   6.402 -0.3831 -0.5941  0.0048
 3425SOL    HW116290   3.871   2.157   6.425 -0.0070 -0.2019  2.5241
 3425SOL    HW216291   3.915   2.303   6.482  1.5432  0.7931 -0.9398
 3426SOL     OW16292   5.893   4.221   0.442  0.6162 -0.0557 -0.0850
 3426SOL    HW116293   5.872   4.314   0.412  0.6854 -0.0214 -0.0299
 3426SOL    HW216294   5.953   4.225   0.522  0.0638 -0.1430  0.3363
 3427SOL     OW16295   4.201   1.895   1.405 -0.1521 -0.3040  0.6810
 3427SOL    HW116296   4.202   1.825   1.333  1.5437 -0.8625  1.1944
 3427SOL    HW216297   4.143   1.863   1.481 -0.3201 -0.6186  0.4266
 3428SOL     OW16298   4.680   0.636   4.501 -0.3902  0.3836  0.0312
 3428SOL    HW116299   4.777   0.625   4.481 -0.5399  1.4521 -1.5120
 3428SOL    HW216300   4.664   0.725   4.544 -0.7638  0.6152 -0.5599
 3429SOL     OW16301   2.723   0.138   0.330  0.1529  0.1485 -0.1486
 3429SOL    HW116302   2.693   0.182   0.246  3.1969  0.4544 -1.2082
 3429SOL    HW216303   2.725   0.204   0.404 -0.4725  0.4191 -0.3673
 3430SOL     OW16304   0.248   5.852   1.484  0.3416 -0.3356 -0.2518
 3430SOL    HW116305   0.204   5.924   1.538  0.7017  2.0146 -2.8334
 3430SOL    HW216306   0.344   5.875   1.470  0.3683 -1.0890 -1.4813
 3431SOL     OW16307   2.149   2.783   0.611  0.4356  0.4964  0.4261
 3431SOL    HW116308   2.059   2.816   0.582  0.5327  0.3097 -0.1090
 3431SOL    HW216309   2.144   2.686   0.632  0.6683  0.3065 -0.3464
 3432SOL     OW16310   4.442   5.207   6.467 -0.0818  0.1562 -0.2400
 3432SOL    HW116311   4.405   5.114   6.469  0.1232  0.0775 -0.0841
 3432SOL    HW216312   4.475   5.228   6.374  0.5212 -0.1855 -0.1080
 3433SOL     OW16313   3.032   3.665   1.292  0.3161  0.0657  0.0006
 3433SOL    HW116314   3.035   3.591   1.225  2.1404 -1.0698  1.2217
 3433SOL    HW216315   2.937   3.692   1.309 -0.3469 -1.5361 -0.9690
 3434SOL     OW16316   4.029   3.254   4.448  0.3527  0.1943  0.0946
 3434SOL    HW116317   4.061   3.232   4.541  2.0582 -0.1083 -0.5190
 3434SOL    HW216318   4.027   3.354   4.437  1.3418  0.2241  0.0903
 3435SOL     OW16319   0.299   3.357   6.588  0.5237 -0.2422 -0.5639
 3435SOL    HW116320   0.387   3.379   6.547 -0.7778  2.1234 -2.3544
 3435SOL    HW216321   0.236   3.327   6.516 -0.4747 -0.7670  0.4999
 3436SOL     OW16322   0.550   4.319   5.924 -0.3620  0.8768 -0.0330
 3436SOL    HW116323   0.550   4.234   5.872  1.7738 -1.2626  3.1336
 3436SOL    HW216324   0.460   4.334   5.964 -0.4365 -0.6122  0.4067
 3437SOL     OW16325   3.025   4.439   1.100  0.2952  0.3625  0.0879
 3437SOL    HW116326   2.962   4.437   1.022 -2.2360  1.8209  1.9363
 3437SOL    HW216327   3.025   4.350   1.145  0.2626  0.0985 -0.4236
 3438SOL     OW16328   2.600   4.487   0.471 -0.1120  0.6205  0.7962
 3438SOL    HW116329   2.568   4.579   0.494 -2.1453  0.9833 -2.8416
 3438SOL    HW216330   2.522   4.428   0.451  1.2463 -1.2490  0.7430
 3439SOL     OW16331   1.125   1.451   5.997 -0.2503  0.0524  0.0105
 3439SOL    HW116332   1.151   1.444   5.901  0.3273 -0.3625  0.1938
 3439SOL    HW216333   1.037   1.499   6.004 -0.2217  0.2261 -0.7090
 3440SOL     OW16334   3.588   1.449   0.995 -0.1999 -0.0946  0.1717
 3440SOL    HW116335   3.673   1.440   1.047  0.1362  1.3835 -0.0539
 3440SOL    HW216336   3.510   1.448   1.057  0.0936  0.0176  0.5463
 3441SOL     OW16337   0.216   4.090   0.134  0.1897 -0.1713 -0.1271
 3441SOL    HW116338   0.142   4.146   0.097 -0.0173 -0.3771 -0.0262
 3441SOL    HW216339   0.287   4.150   0.171  0.0574  0.0275 -0.1916
 3442SOL     OW16340   6.085   3.839   5.836  0.4620 -0.4833  0.1490
 3442SOL    HW116341   6.089   3.740   5.825 -0.8023 -0.6917  1.2629
 3442SOL    HW216342   6.032   3.878   5.761  0.1507 -0.7732  0.2125
 3443SOL     OW16343   1.294   0.921   0.677  0.0313 -0.0864  0.8670
 3443SOL    HW116344   1.339   0.936   0.589  0.6577 -0.5260  1.1110
 3443SOL    HW216345   1.209   0.974   0.679 -0.7172 -1.1396 -0.5388
 3444SOL     OW16346   6.105   1.169   6.282 -0.2444  0.0458 -0.6428
 3444SOL    HW116347   6.139   1.183   6.189  0.4381 -0.3389 -0.4622
 3444SOL    HW216348   6.034   1.235   6.302 -0.5386  0.0073 -1.5113
 3445SOL     OW16349   6.368   3.287   6.268  0.1851 -0.3212 -0.6044
 3445SOL    HW116350   6.337   3.286   6.363  1.3258 -1.9021 -0.2012
 3445SOL    HW216351   6.294   3.319   6.209 -0.8956 -0.3274  0.7060
 3446SOL     OW16352   1.935   4.837   6.094  0.0331  0.4704  0.7408
 3446SOL    HW116353   2.016   4.780   6.084 -0.5053 -0.3631  1.0577
 3446SOL    HW216354   1.865   4.807   6.029 -0.4533  0.4125  1.2898
 3447SOL     OW16355   5.650   5.097   1.236  0.1951  0.3794  0.1458
 3447SOL    HW116356   5.587   5.019   1.235  0.0366  0.5080 -1.1984
 3447SOL    HW216357   5.727   5.076   1.296  0.6304 -1.2161 -0.9049
 3448SOL     OW16358   0.623   4.215   0.121  0.3835 -0.2212 -0.3028
 3448SOL    HW116359   0.688   4.141   0.105 -0.2964 -1.1986  1.1951
 3448SOL    HW216360   0.637   4.288   0.054  1.5892 -1.3549 -1.3253
 3449SOL     OW16361   5.144   5.666   1.043  0.1466  0.2236  0.2365
 3449SOL    HW116362   5.152   5.714   1.130  1.8884  2.5855 -1.1050
 3449SOL    HW216363   5.208   5.706   0.976  1.1782 -3.4794 -1.2892
 3450SOL     OW16364   0.527   4.701   0.373 -0.5919 -0.2842  0.1673
 3450SOL    HW116365   0.541   4.792   0.333  0.2046  0.3322  1.7475
 3450SOL    HW216366   0.614   4.666   0.407 -1.5634  0.8584  4.5624
 3451SOL     OW16367   4.262   5.895   6.324 -0.2791 -0.0238 -0.0391
 3451SOL    HW116368   4.246   5.983   6.369 -0.5539  0.4624 -1.0678
 3451SOL    HW216369   4.200   5.826   6.361 -2.1131  0.9096 -1.2335
 3452SOL     OW16370   4.686   3.697   5.758 -0.1100  0.1122  0.3266
 3452SOL    HW116371   4.773   3.688   5.710 -0.4773 -0.4330 -0.2522
 3452SOL    HW216372   4.675   3.791   5.791 -0.7438  1.0811 -2.4209
 3453SOL     OW16373   3.727   0.465   5.224 -0.2129 -0.1710 -0.1321
 3453SOL    HW116374   3.671   0.445   5.144 -1.0176 -0.8841  0.5928
 3453SOL    HW216375   3.792   0.390   5.239 -0.5997 -0.4109  0.3409
 3454SOL     OW16376   5.270   4.230   5.253  0.0223 -0.6065 -0.0184
 3454SOL    HW116377   5.344   4.163   5.260 -0.8656 -1.8503 -1.8072
 3454SOL    HW216378   5.272   4.272   5.162 -0.3823  0.6911  0.5475
 3455SOL     OW16379   4.870   6.317   0.410 -0.1925 -0.0244 -0.3406
 3455SOL    HW116380   4.967   6.341   0.415 -0.2733  1.0433 -2.7299
 3455SOL    HW216381   4.861   6.221   0.384  0.1758 -0.4517  1.0082
 3456SOL     OW16382   3.603   5.020   0.158 -0.6004 -0.4032  0.3613
 3456SOL    HW116383   3.550   4.943   0.192 -0.5410 -1.1330 -1.0885
 3456SOL    HW216384   3.549   5.104   0.165 -1.8816 -1.0865 -0.8328
 3457SOL     OW16385   2.517   2.884   6.414  0.2659 -0.4817 -0.4013
 3457SOL    HW116386   2.614   2.905   6.429  0.1427  0.8755 -1.2686
 3457SOL    HW216387   2.481   2.832   6.491  1.0584  1.1596  1.1585
 3458SOL     OW16388   5.058   5.656   6.312 -0.0817 -0.1518 -0.0640
 3458SOL    HW116389   4.998   5.730   6.281  0.0058 -0.3770 -0.7850
 3458SOL    HW216390   5.148   5.693   6.334 -0.4734  0.1889  1.0256
 3459SOL     OW16391   2.181   3.888   6.274 -0.4830 -0.2184 -0.2289
 3459SOL    HW116392   2.160   3.982   6.247  1.3647  0.0534 -0.8993
 3459SOL    HW216393   2.268   3.861   6.233 -0.1502 -1.6435  1.3152
 3460SOL     OW16394   5.935   2.880   6.025  0.1176  0.0876  0.4077
 3460SOL    HW116395   5.987   2.962   6.004 -0.6364  0.3970 -0.3160
 3460SOL    HW216396   5.895   2.888   6.116 -1.7619  1.5262 -0.4724
 3461SOL     OW16397   4.983   3.530   1.277 -0.1656 -0.2153  0.3623
 3461SOL    HW116398   4.920   3.570   1.209  0.5202  2.3995  1.1386
 3461SOL    HW216399   4.931   3.503   1.358 -0.6078 -0.6161 -0.0437
 3462SOL     OW16400   0.642   2.350   5.950  0.1360 -0.4192 -0.0420
 3462SOL    HW116401   0.622   2.414   5.875  0.3743  1.1207  1.1615
 3462SOL    HW216402   0.688   2.269   5.913  1.3484  0.8344 -1.4128
 3463SOL     OW16403   6.180   2.113   0.135 -0.1190 -0.1376 -0.1814
 3463SOL    HW116404   6.250   2.082   0.200 -1.2490 -2.3080  0.0818
 3463SOL    HW216405   6.218   2.113   0.042  0.8028  0.7245  0.1688
 3464SOL     OW16406   6.034   6.333   0.107 -0.3677  0.0661  0.2523
 3464SOL    HW116407   6.060   6.401   0.039  1.4314  0.8162  1.6057
 3464SOL    HW216408   6.109   6.269   0.122  0.1449  1.1406  2.9178
 3465SOL     OW16409   0.450   0.442   5.894  0.1008  0.5136  0.2559
 3465SOL    HW116410   0.502   0.520   5.928  1.1059 -0.7322  1.7283
 3465SOL    HW216411   0.368   0.430   5.949  1.1942 -0.8725  1.6943
 3466SOL     OW16412   3.203   4.854   1.236  0.0948 -0.3221 -0.7050
 3466SOL    HW116413   3.193   4.933   1.174 -1.7182  1.0904  1.2288
 3466SOL    HW216414   3.130   4.788   1.217  1.3726 -1.4043 -2.0532
 3467SOL     OW16415   4.834   2.864   5.947 -0.3208  0.1571 -0.2556
 3467SOL    HW116416   4.790   2.839   5.860 -0.3911  0.5689 -0.3388
 3467SOL    HW216417   4.924   2.903   5.928  0.0668 -0.6350 -0.0891
 3468SOL     OW16418   5.022   2.028   5.456  0.4289  0.0671  0.0796
 3468SOL    HW116419   5.006   1.998   5.550  0.5518 -2.1687 -0.5655
 3468SOL    HW216420   4.948   1.995   5.397 -0.1468  2.2449 -0.5024
 3469SOL     OW16421   1.517   6.390   5.156 -0.1156 -0.4105  0.0231
 3469SOL    HW116422   1.596   6.439   5.119  0.8358 -2.0069 -0.1189
 3469SOL    HW216423   1.492   6.316   5.094 -0.7959 -0.8508  0.8080
 3470SOL     OW16424   4.859   1.123   0.212 -0.2738 -0.3147  0.1518
 3470SOL    HW116425   4.909   1.190   0.268 -2.0500  1.3314 -0.1211
 3470SOL    HW216426   4.915   1.096   0.134 -0.2204  2.4984 -0.8940
 3471SOL     OW16427   5.191   1.714   5.362  0.1123 -0.1339 -0.2042
 3471SOL    HW116428   5.231   1.791   5.313  0.5523 -0.2463 -0.0215
 3471SOL    HW216429   5.095   1.703   5.334 -0.5570  1.6766  1.1314
 3472SOL     OW16430   5.547   3.954   5.619  0.1404  0.6313  0.2200
 3472SOL    HW116431   5.599   4.040   5.624  1.4500 -0.1491  0.7142
 3472SOL    HW216432   5.497   3.941   5.704  0.7338  0.4381  0.5452
 3473SOL     OW16433   3.868   6.129   0.473  0.2327  0.8062  0.1559
 3473SOL    HW116434   3.773   6.098   0.479 -0.0650  1.7361  0.3756
 3473SOL    HW216435   3.928   6.059   0.513 -0.2528 -0.2072 -0.8394
 3474SOL     OW16436   3.937   6.320   6.401  0.1747  0.2013 -0.1904
 3474SOL    HW116437   3.845   6.280   6.402  0.5825 -0.7531 -0.0254
 3474SOL    HW216438   3.930   6.419   6.418 -0.9058  0.3372 -1.2731
 3475SOL     OW16439   3.806   4.945   0.370 -0.3183  0.1489  0.3476
 3475SOL    HW116440   3.864   4.989   0.440 -1.3119  0.6714  0.8720
 3475SOL    HW216441   3.723   4.999   0.358 -0.6222 -0.4964 -0.5167
 3476SOL     OW16442   3.075   0.814   1.305 -0.2002  0.9178  0.1208
 3476SOL    HW116443   3.087   0.898   1.252 -1.2754  1.7184  1.0986
 3476SOL    HW216444   3.115   0.826   1.396 -0.3926  0.3771  0.2807
 3477SOL     OW16445   1.722   3.477   5.486  0.4135  0.2082 -0.2956
 3477SOL    HW116446   1.720   3.568   5.444  0.4525  1.0032  1.3354
 3477SOL    HW216447   1.814   3.438   5.477  0.2560  0.0521 -1.4929
 3478SOL     OW16448   5.152   5.814   0.547  0.5223  0.1906  0.0456
 3478SOL    HW116449   5.239   5.794   0.502  1.4252 -0.9008  2.1052
 3478SOL    HW216450   5.166   5.882   0.619 -0.2922 -0.1689  0.5613
 3479SOL     OW16451   2.935   5.524   0.544  0.2954 -0.8896  0.9474
 3479SOL    HW116452   2.959   5.498   0.637  0.9099 -0.1742  1.0015
 3479SOL    HW216453   2.856   5.585   0.545  1.4620  0.6647  1.1732
 3480SOL     OW16454   6.158   5.379   0.006 -0.0861  0.2690  0.0344
 3480SOL    HW116455   6.081   5.402  -0.052 -1.8063  0.3165  2.2018
 3480SOL    HW216456   6.137   5.296   0.059  2.3749 -1.1903 -1.0708
 3481SOL     OW16457   2.902   1.766   5.566 -0.7116  0.3137  0.0705
 3481SOL    HW116458   2.844   1.704   5.513 -1.7797  1.0193  0.3965
 3481SOL    HW216459   2.939   1.718   5.646 -2.5157  0.4115  0.9958
 3482SOL     OW16460   6.265   0.322   0.376 -0.2072  0.0873  0.0104
 3482SOL    HW116461   6.273   0.414   0.413  1.1626  0.0490 -0.1301
 3482SOL    HW216462   6.170   0.291   0.383 -0.6641  1.4565  0.1498
 3483SOL     OW16463   4.909   0.172   1.080 -0.2887 -0.0413  0.0792
 3483SOL    HW116464   4.829   0.228   1.104  0.5394  1.4029 -0.4228
 3483SOL    HW216465   4.992   0.219   1.109  0.4836 -0.5587 -1.2303
 3484SOL     OW16466   5.675   2.075   0.608 -0.3249  0.3793  0.4188
 3484SOL    HW116467   5.705   2.081   0.703 -0.2856  1.5450  0.3478
 3484SOL    HW216468   5.617   2.153   0.586  1.2119  1.1929 -1.0393
 3485SOL     OW16469   1.490   1.636   0.385  0.3231 -0.2906  0.6318
 3485SOL    HW116470   1.415   1.631   0.318  2.0008  1.1936 -1.5013
 3485SOL    HW216471   1.469   1.707   0.452 -0.5023 -0.4123  0.5174
 3486SOL     OW16472   0.782   2.964   5.785  0.4416 -0.0653 -0.0397
 3486SOL    HW116473   0.703   2.985   5.728  0.3291 -0.3602  0.0070
 3486SOL    HW216474   0.847   2.908   5.734  0.5456  0.0400 -0.0241
 3487SOL     OW16475   3.952   3.602   5.487  0.1592  0.5448 -0.3440
 3487SOL    HW116476   4.046   3.573   5.506 -0.6410 -1.9284  0.2601
 3487SOL    HW216477   3.930   3.581   5.392 -0.0457  0.3178 -0.2461
 3488SOL     OW16478   0.987   1.390   0.574  0.3158 -0.0318 -0.3056
 3488SOL    HW116479   0.974   1.310   0.633 -0.9885  0.1830 -0.2872
 3488SOL    HW216480   0.898   1.424   0.543  0.9641 -0.6668 -3.1303
 3489SOL     OW16481   5.007   1.975   1.224 -0.6755 -0.5915  0.2003
 3489SOL    HW116482   4.973   1.952   1.314 -1.0965 -1.2261 -0.1161
 3489SOL    HW216483   5.076   2.047   1.232 -1.3849  0.0222  0.9314
 3490SOL     OW16484   4.863   6.385   0.913 -0.0136  0.0528 -0.2444
 3490SOL    HW116485   4.848   6.432   0.826 -1.0148 -0.7274 -0.5164
 3490SOL    HW216486   4.910   6.446   0.976 -0.1496  0.9710 -1.0025
 3491SOL     OW16487   0.122   5.408   0.875 -0.2722  0.2428 -0.0938
 3491SOL    HW116488   0.219   5.416   0.897 -0.4600  0.4818  0.6587
 3491SOL    HW216489   0.068   5.414   0.958 -1.0742  2.1925 -0.7096
 3492SOL     OW16490   5.297   5.832   6.047 -0.4627 -0.5905  0.6332
 3492SOL    HW116491   5.324   5.790   6.134  0.1047 -0.4929  0.5091
 3492SOL    HW216492   5.309   5.931   6.053  0.5231 -0.6679  0.1233
 3493SOL     OW16493   3.786   1.607   4.575 -0.3811 -0.7057  0.4893
 3493SOL    HW116494   3.881   1.626   4.598 -0.8006  1.0282  0.9031
 3493SOL    HW216495   3.754   1.672   4.506 -1.5054 -0.7053  0.9886
 3494SOL     OW16496   4.267   4.328   0.380 -0.7522 -0.1220  0.0090
 3494SOL    HW116497   4.232   4.421   0.378 -0.1005  0.1332  0.1019
 3494SOL    HW216498   4.367   4.330   0.389 -0.7714 -0.8305  0.4791
 3495SOL     OW16499   2.453   4.275   6.335  0.4175  0.3970 -0.0218
 3495SOL    HW116500   2.360   4.296   6.305  0.3468 -0.1166 -0.1634
 3495SOL    HW216501   2.500   4.360   6.358 -0.3541  0.6094  0.8473
 3496SOL     OW16502   5.974   1.746   6.534  0.2191  0.9663 -0.1958
 3496SOL    HW116503   6.044   1.676   6.549  1.6995  2.1399 -1.2977
 3496SOL    HW216504   5.971   1.806   6.614 -1.4562 -0.6034  1.0030
 3497SOL     OW16505   2.368   0.755   5.737 -0.3856 -0.0798 -0.4692
 3497SOL    HW116506   2.437   0.824   5.759  0.9237 -1.5735  0.3302
 3497SOL    HW216507   2.277   0.795   5.748  0.2991  1.1195  1.4837
 3498SOL     OW16508   2.519   3.002   0.656  0.6323 -0.2579  0.1379
 3498SOL    HW116509   2.445   3.009   0.589  0.7938  1.5915  0.1129
 3498SOL    HW216510   2.580   2.926   0.631 -0.4591 -0.9150 -0.6152
 3499SOL     OW16511   4.866   5.823   6.168  0.7711  0.0106 -0.3592
 3499SOL    HW116512   4.808   5.755   6.213  1.5487  0.9793  2.3244
 3499SOL    HW216513   4.843   5.914   6.203  2.2484  0.6898 -1.0859
 3500SOL     OW16514   4.436   1.398   4.493  0.0194  0.3163 -0.5265
 3500SOL    HW116515   4.445   1.300   4.512 -2.6197 -0.1576 -1.3398
 3500SOL    HW216516   4.511   1.427   4.433  1.0644 -1.0854  0.0438
 3501SOL     OW16517   1.180   0.846   6.465 -0.7585 -0.2231  0.1112
 3501SOL    HW116518   1.159   0.842   6.563 -0.8548  0.2351  0.1099
 3501SOL    HW216519   1.180   0.754   6.428  0.6130 -0.5532  0.8250
 3502SOL     OW16520   2.677   0.220   4.902  0.2882  0.1815  0.4996
 3502SOL    HW116521   2.654   0.316   4.918 -0.0511  0.1732  0.0788
 3502SOL    HW216522   2.738   0.213   4.823 -0.8901 -0.0652 -0.4159
 3503SOL     OW16523   2.199   2.191   6.203 -0.0847  0.4164  0.1761
 3503SOL    HW116524   2.124   2.256   6.190  0.1172  0.5391 -0.3975
 3503SOL    HW216525   2.283   2.241   6.225 -0.2244  0.2624  1.0841
 3504SOL     OW16526   2.399   3.131   6.366 -0.1642 -0.0812 -0.0822
 3504SOL    HW116527   2.457   3.057   6.399 -1.1735 -0.0735  1.8560
 3504SOL    HW216528   2.382   3.195   6.441 -0.0789  1.6433 -1.4677
 3505SOL     OW16529   0.470   1.305   5.622 -0.0506  0.1349  0.1461
 3505SOL    HW116530   0.494   1.401   5.613  1.1842 -0.1659  0.0020
 3505SOL    HW216531   0.533   1.261   5.687  1.6240 -1.2928 -2.2820
 3506SOL     OW16532   2.401   1.262   5.438 -0.2447  0.1417 -0.3764
 3506SOL    HW116533   2.418   1.188   5.504 -2.1410 -0.1985 -0.1979
 3506SOL    HW216534   2.363   1.223   5.355  0.8982  0.7158 -1.1935
 3507SOL     OW16535   5.223   5.052   6.453 -0.2599  0.6960  0.3201
 3507SOL    HW116536   5.173   4.980   6.406  1.5230 -0.1952 -0.3165
 3507SOL    HW216537   5.201   5.050   6.551  1.2764 -2.1365  0.7134
 3508SOL     OW16538   4.393   4.101   5.853 -0.3158  0.8549  0.6820
 3508SOL    HW116539   4.425   4.078   5.761 -2.4025 -0.6177  0.2351
 3508SOL    HW216540   4.465   4.147   5.903  0.4419  3.0487 -2.1718
 3509SOL     OW16541   0.992   3.723   0.712  0.6067  0.2409 -0.0177
 3509SOL    HW116542   0.995   3.695   0.808  0.5447  2.9769  0.8799
 3509SOL    HW216543   1.075   3.691   0.666  0.0908 -2.1434  0.5600
 3510SOL     OW16544   1.200   0.153   0.712  0.1852 -0.3063 -0.4472
 3510SOL    HW116545   1.200   0.073   0.653 -1.2293  0.0769 -1.0285
 3510SOL    HW216546   1.143   0.225   0.671 -0.0153  0.3503  0.8956
 3511SOL     OW16547   5.180   3.904   5.773  0.0641  0.2767  0.1301
 3511SOL    HW116548   5.123   3.967   5.721  0.9271 -0.6715 -2.1109
 3511SOL    HW216549   5.194   3.940   5.865 -0.4944  2.7085 -0.6519
 3512SOL     OW16550   2.292   1.861   5.834 -0.0534  0.3883  0.0507
 3512SOL    HW116551   2.359   1.821   5.896  1.0023  0.0717 -1.2338
 3512SOL    HW216552   2.224   1.792   5.808 -1.1864  0.8219  1.6854
 3513SOL     OW16553   3.089   3.185   6.431 -0.0528  0.5003  0.1687
 3513SOL    HW116554   3.064   3.174   6.334 -1.6346 -1.2774  0.6953
 3513SOL    HW216555   3.116   3.096   6.468 -1.5688  0.6647  1.8496
 3514SOL     OW16556   1.441   0.444   0.721  1.1370  0.5449  0.2624
 3514SOL    HW116557   1.356   0.394   0.708  0.4620  1.7080  0.0932
 3514SOL    HW216558   1.514   0.398   0.670  0.2351  0.5087 -1.0545
 3515SOL     OW16559   3.033   3.938   5.804  0.0175  0.2571  0.3865
 3515SOL    HW116560   3.014   3.852   5.851  0.4623 -0.6825 -1.0839
 3515SOL    HW216561   3.067   4.005   5.870  0.8200 -1.0601  1.3649
 3516SOL     OW16562   1.007   3.195   1.163  0.2489  0.1579 -0.3802
 3516SOL    HW116563   0.940   3.121   1.167  1.4713 -0.9654  0.0552
 3516SOL    HW216564   0.962   3.282   1.188 -1.2523 -0.3703 -1.0962
 3517SOL     OW16565   0.200   2.375   6.035  0.1896 -0.4726  0.7383
 3517SOL    HW116566   0.143   2.420   6.104 -1.1572  0.7671 -1.0751
 3517SOL    HW216567   0.159   2.388   5.945  0.3431 -4.4443 -0.0841
 3518SOL     OW16568   0.649   0.005   6.098 -0.3281 -0.2691 -0.3782
 3518SOL    HW116569   0.614   0.098   6.098 -1.4607 -0.6716 -0.4263
 3518SOL    HW216570   0.605  -0.048   6.171  3.2177  0.2156  2.3375
 3519SOL     OW16571   5.646   3.437   0.194  0.1642  0.2750  0.3640
 3519SOL    HW116572   5.546   3.441   0.181  0.2077  1.2893  0.2315
 3519SOL    HW216573   5.684   3.528   0.181  1.0142  0.0662  1.2773
 3520SOL     OW16574   3.162   4.378   5.920  0.3531 -0.0480  0.5132
 3520SOL    HW116575   3.205   4.431   5.847 -2.6168 -2.4477 -3.3320
 3520SOL    HW216576   3.066   4.405   5.929  0.0355 -1.4765  1.8453
 3521SOL     OW16577   2.699   5.020   5.710  0.4313  0.2684 -0.0416
 3521SOL    HW116578   2.702   4.947   5.641  1.5887 -1.0330  1.2949
 3521SOL    HW216579   2.758   5.095   5.680 -1.1855  0.9456 -1.6895
 3522SOL     OW16580   4.483   2.782   5.922  0.1661 -0.0989 -0.4876
 3522SOL    HW116581   4.518   2.810   6.011  0.5348 -0.8156 -0.4077
 3522SOL    HW216582   4.550   2.804   5.851 -0.0379  0.2771 -0.5670
 3523SOL     OW16583   3.122   1.509   6.363 -0.2037  0.0539 -0.0723
 3523SOL    HW116584   3.109   1.443   6.436 -0.6982  0.0381 -0.1683
 3523SOL    HW216585   3.099   1.601   6.396  1.5283  0.3529  0.3820
 3524SOL     OW16586   2.287   6.092   6.215 -0.6294  0.1327  0.7979
 3524SOL    HW116587   2.247   6.170   6.165  2.3977  0.8445 -0.7624
 3524SOL    HW216588   2.297   6.015   6.152 -2.8016 -1.3069  2.1181
 3525SOL     OW16589   3.236   2.102   6.381  0.2779  0.1391  0.6889
 3525SOL    HW116590   3.157   2.072   6.329 -0.0086  1.5237  0.2961
 3525SOL    HW216591   3.297   2.024   6.397 -0.3362 -0.5968 -0.4477
 3526SOL     OW16592   5.693   5.718   0.779  0.5187 -0.1333 -0.4905
 3526SOL    HW116593   5.723   5.728   0.684 -0.0329  1.9139 -0.4957
 3526SOL    HW216594   5.596   5.695   0.782  0.0845  1.5929 -0.4488
 3527SOL     OW16595   4.247   6.142   6.440  0.2543  0.4344  0.1571
 3527SOL    HW116596   4.325   6.197   6.469  0.6387 -0.7829  1.5581
 3527SOL    HW216597   4.168   6.165   6.497 -0.2806  1.2373 -0.8653
 3528SOL     OW16598   4.443   5.914   5.948  0.0736  0.4775  0.5052
 3528SOL    HW116599   4.378   5.989   5.960  1.4636  1.7796  0.3081
 3528SOL    HW216600   4.416   5.837   6.005 -2.6955  0.2009 -1.0375
 3529SOL     OW16601   5.307   4.110   6.314 -0.4121 -0.0546 -0.0478
 3529SOL    HW116602   5.258   4.092   6.399 -0.0040  2.6298  0.8542
 3529SOL    HW216603   5.405   4.120   6.334 -0.4367  1.6174 -0.5954
 3530SOL     OW16604   5.946   5.558   0.845  0.0782 -0.3520 -0.0688
 3530SOL    HW116605   5.916   5.504   0.767 -2.8929 -0.2566  0.8798
 3530SOL    HW216606   5.872   5.621   0.872  1.5911  0.6985  1.8707
 3531SOL     OW16607   4.187   1.546   6.596  0.3490 -0.1152 -0.6622
 3531SOL    HW116608   4.186   1.544   6.496 -0.8811 -0.8931 -0.6492
 3531SOL    HW216609   4.177   1.640   6.628  2.8963  0.4346 -1.2460
 3532SOL     OW16610   4.033   2.144   0.648  0.4280  0.1681 -0.3463
 3532SOL    HW116611   4.021   2.159   0.746 -1.3000 -0.7546 -0.3867
 3532SOL    HW216612   4.115   2.192   0.617  0.1574  1.7508  1.2380
 3533SOL     OW16613   3.622   0.991   0.260 -0.6769  0.1798 -0.8846
 3533SOL    HW116614   3.711   0.963   0.225 -0.0059  0.7315  0.2981
 3533SOL    HW216615   3.620   1.091   0.270 -0.5620  0.0361  1.1865
 3534SOL     OW16616   2.808   6.296   5.261 -0.0055 -0.4293 -0.1001
 3534SOL    HW116617   2.848   6.357   5.330  0.8623 -2.5929  1.4283
 3534SOL    HW216618   2.808   6.342   5.172  1.9235  1.2695  0.6949
 3535SOL     OW16619   5.617   4.641   0.010 -0.2830 -0.3791  0.5972
 3535SOL    HW116620   5.656   4.605  -0.074  0.9996  1.4867  0.3455
 3535SOL    HW216621   5.528   4.683  -0.009  0.1933  0.4108  0.0574
 3536SOL     OW16622   5.578   5.225   0.204  0.1971  0.3351  0.0104
 3536SOL    HW116623   5.533   5.313   0.188  0.1347  0.2529 -0.2838
 3536SOL    HW216624   5.608   5.219   0.299 -0.0107  0.5761  0.0909
 3537SOL     OW16625   1.118   6.260   0.997 -0.0146  0.0233 -0.6921
 3537SOL    HW116626   1.108   6.169   0.957 -1.4128  0.2052 -0.8023
 3537SOL    HW216627   1.153   6.253   1.090  0.4321 -0.5794 -0.8999
 3538SOL     OW16628   2.153   1.008   0.292 -0.5516  0.2944 -0.0514
 3538SOL    HW116629   2.187   0.999   0.386 -0.6099  2.2853  0.2016
 3538SOL    HW216630   2.141   1.105   0.270 -0.0405 -0.0967 -2.3134
 3539SOL     OW16631   3.359   3.933   0.470 -0.0802 -0.2017 -0.5315
 3539SOL    HW116632   3.442   3.894   0.509 -0.7856 -0.2718  0.9471
 3539SOL    HW216633   3.320   4.000   0.533 -0.4121  0.8586 -1.8072
 3540SOL     OW16634   3.875   3.665   1.338 -0.1292 -0.9431 -0.5721
 3540SOL    HW116635   3.836   3.613   1.414 -1.1752 -1.4447 -1.4274
 3540SOL    HW216636   3.832   3.636   1.253 -0.3170  0.9112 -1.1516
 3541SOL     OW16637   1.744   2.551   0.510 -0.1308 -0.1156 -0.1260
 3541SOL    HW116638   1.707   2.549   0.417 -1.4251  0.1946  0.3637
 3541SOL    HW216639   1.844   2.544   0.506 -0.0562  1.2240 -1.6156
 3542SOL     OW16640   4.188   2.471   1.269  0.5755 -0.2677  0.1141
 3542SOL    HW116641   4.175   2.391   1.327  0.4971 -1.1290 -1.0685
 3542SOL    HW216642   4.100   2.509   1.242  0.6013 -0.4236 -0.1928
 3543SOL     OW16643   5.396   2.529   6.237 -0.7074  0.1977 -0.5311
 3543SOL    HW116644   5.387   2.597   6.310 -0.3698 -0.1794 -0.1302
 3543SOL    HW216645   5.461   2.458   6.266 -0.8211 -0.1279 -1.0689
 3544SOL     OW16646   2.929   6.063   6.284  0.0668 -0.2206 -0.3590
 3544SOL    HW116647   2.830   6.071   6.287  0.0378 -0.7579  0.1522
 3544SOL    HW216648   2.963   6.103   6.199 -0.6076 -0.2956 -0.6672
 3545SOL     OW16649   4.716   0.699   6.211  0.1794  0.3961 -0.1684
 3545SOL    HW116650   4.683   0.760   6.139  1.4362 -0.1074 -1.2156
 3545SOL    HW216651   4.664   0.613   6.209 -0.7651  0.9354  0.5026
 3546SOL     OW16652   6.257   3.665   6.358  0.4459 -0.2894 -0.1917
 3546SOL    HW116653   6.251   3.736   6.287  2.5168  1.6938  1.4923
 3546SOL    HW216654   6.165   3.642   6.389 -0.3601  4.6498  1.9344
 3547SOL     OW16655   1.674   3.319   1.091  0.8699 -0.0603  0.2564
 3547SOL    HW116656   1.736   3.395   1.069  2.6096 -1.4879 -0.0381
 3547SOL    HW216657   1.714   3.234   1.058 -1.6970 -0.9895 -0.6965
 3548SOL     OW16658   2.457   6.010   0.035 -0.2042 -0.2044 -0.2536
 3548SOL    HW116659   2.551   5.992   0.004  0.3530  0.1201  1.1429
 3548SOL    HW216660   2.456   6.093   0.091 -0.9181 -1.2685  1.4019
 3549SOL     OW16661   2.773   2.242   5.208 -0.1924 -0.3653  0.3279
 3549SOL    HW116662   2.805   2.273   5.118  0.4364 -0.8179  0.3885
 3549SOL    HW216663   2.674   2.239   5.208 -0.1912 -0.7949 -0.5079
 3550SOL     OW16664   4.649   1.475   0.485 -0.1178 -0.3532  0.1719
 3550SOL    HW116665   4.629   1.377   0.483  1.3050 -0.6867  1.0868
 3550SOL    HW216666   4.614   1.517   0.402 -0.8663 -1.6082 -0.1838
 3551SOL     OW16667   4.098   3.113   4.982 -0.3068  0.3311 -0.0723
 3551SOL    HW116668   4.090   3.198   5.033  0.5584  1.1127 -1.1797
 3551SOL    HW216669   4.111   3.037   5.045  0.5474  1.2403  0.8909
 3552SOL     OW16670   1.757   1.566   0.439 -0.0025  0.1349  0.1573
 3552SOL    HW116671   1.682   1.613   0.393  0.2238  0.8419  0.4946
 3552SOL    HW216672   1.751   1.582   0.537 -0.5899 -1.5166  0.4142
 3553SOL     OW16673   2.082   6.012   1.139 -0.0354  0.5648 -0.8413
 3553SOL    HW116674   2.110   6.005   1.234  2.8801  1.1834 -1.5545
 3553SOL    HW216675   1.991   6.052   1.133 -0.2061  0.6541  1.6486
 3554SOL     OW16676   2.107   3.970   5.627  0.4144  0.2308 -0.2880
 3554SOL    HW116677   2.011   3.992   5.611 -0.5179 -3.5293 -0.7316
 3554SOL    HW216678   2.158   3.975   5.541  0.6363  1.9071 -0.1068
 3555SOL     OW16679   1.435   2.937   5.461 -0.0757 -0.2583  0.1034
 3555SOL    HW116680   1.411   2.862   5.399 -0.4549 -0.6665  0.7389
 3555SOL    HW216681   1.529   2.926   5.492 -0.0923 -0.4035  0.1025
 3556SOL     OW16682   0.044   5.925   5.621  0.3076 -0.9239  0.3674
 3556SOL    HW116683  -0.053   5.947   5.630  0.4817 -0.7293  2.0292
 3556SOL    HW216684   0.077   5.956   5.531 -1.1672 -1.0749 -0.2572
 3557SOL     OW16685   3.571   0.100   6.096  0.4158 -0.9030  0.6814
 3557SOL    HW116686   3.596   0.188   6.058 -2.3148 -0.3658 -0.1139
 3557SOL    HW216687   3.526   0.113   6.185 -1.3561 -1.2660 -0.1065
 3558SOL     OW16688   1.505   0.776   6.319 -0.3375 -0.1860  0.0173
 3558SOL    HW116689   1.563   0.695   6.327 -0.5835 -0.4599 -0.9664
 3558SOL    HW216690   1.413   0.749   6.290 -0.7011  0.3485  0.6445
 3559SOL     OW16691   2.401   1.726   1.263 -0.9580 -0.2172  0.0438
 3559SOL    HW116692   2.372   1.631   1.251  0.1376 -0.6886  0.9061
 3559SOL    HW216693   2.335   1.773   1.322 -0.9003 -0.7759  0.5648
 3560SOL     OW16694   6.267   2.074   6.009 -0.3814  0.1614  0.0063
 3560SOL    HW116695   6.300   2.125   6.089  1.8040 -0.8196 -0.2114
 3560SOL    HW216696   6.313   1.986   6.004 -0.4694  0.1883 -2.3560
 3561SOL     OW16697   4.519   2.541   0.261  0.8426 -0.3716  0.5548
 3561SOL    HW116698   4.439   2.578   0.215  1.8617 -1.1004 -1.9641
 3561SOL    HW216699   4.567   2.614   0.310  0.3316  0.6768 -0.4888
 3562SOL     OW16700   2.076   1.643   0.444 -0.5934  0.5686 -0.0309
 3562SOL    HW116701   1.981   1.644   0.410 -1.1265 -1.5384  1.2271
 3562SOL    HW216702   2.084   1.577   0.518  0.2510  5.3003  4.7684
 3563SOL     OW16703   2.264   1.646   6.522 -0.0289 -0.2505  0.2290
 3563SOL    HW116704   2.341   1.596   6.562  0.0480  0.4636  1.0024
 3563SOL    HW216705   2.295   1.737   6.493 -0.0036 -0.8580 -1.7871
 3564SOL     OW16706   1.004   0.927   6.280 -0.3108  0.3412  0.0468
 3564SOL    HW116707   1.060   0.944   6.199  0.2409  1.0380  0.5631
 3564SOL    HW216708   1.062   0.895   6.355 -0.4146  1.9293  0.8623
 3565SOL     OW16709   1.294   0.317   5.735 -0.2421 -0.0528 -0.0081
 3565SOL    HW116710   1.249   0.314   5.646 -1.4056 -0.1810  0.5503
 3565SOL    HW216711   1.369   0.251   5.738  1.3685  1.6101 -1.6518
 3566SOL     OW16712   3.758   1.555   0.243  0.3170  0.3285  0.1052
 3566SOL    HW116713   3.779   1.524   0.151 -2.1223 -0.6906 -0.1949
 3566SOL    HW216714   3.732   1.651   0.241  0.0715  0.2534 -0.3175
 3567SOL     OW16715   0.529   5.659   1.680  0.0262 -0.6625 -0.3233
 3567SOL    HW116716   0.471   5.627   1.755 -0.1209 -0.8624 -0.5208
 3567SOL    HW216717   0.570   5.747   1.705  0.3073 -0.9252  0.1586
 3568SOL     OW16718   3.641   3.195   1.280  0.6998  0.0268  0.0959
 3568SOL    HW116719   3.612   3.238   1.366 -1.0838 -2.4140  0.8399
 3568SOL    HW216720   3.740   3.182   1.280  0.8088  0.7268  1.4368
 3569SOL     OW16721   3.498   4.503   0.052 -0.0623  0.5203 -0.6843
 3569SOL    HW116722   3.576   4.487   0.112  1.4403 -2.0177 -3.0776
 3569SOL    HW216723   3.413   4.490   0.104  1.1477 -2.3181  0.8438
 3570SOL     OW16724   3.424   4.589   0.916 -0.2522  0.5034  0.3572
 3570SOL    HW116725   3.413   4.631   1.006 -0.0262 -1.0179  1.1288
 3570SOL    HW216726   3.520   4.568   0.900 -0.1982  1.3444 -0.5409
 3571SOL     OW16727   2.146   2.991   5.726  0.7086  0.2179 -0.1583
 3571SOL    HW116728   2.057   2.964   5.691  1.2834 -1.6597 -0.2832
 3571SOL    HW216729   2.199   3.033   5.652 -0.3570  2.2475  0.1500
 3572SOL     OW16730   4.605   5.429   5.766 -0.1273 -0.4413  0.1130
 3572SOL    HW116731   4.570   5.343   5.729  1.8777 -0.4554 -1.9650
 3572SOL    HW216732   4.530   5.495   5.773 -2.2685 -2.8576  3.9735
 3573SOL     OW16733   4.472   0.500   0.636 -0.0351 -0.7892  0.4065
 3573SOL    HW116734   4.518   0.563   0.574 -1.0731 -1.1360 -0.7589
 3573SOL    HW216735   4.514   0.505   0.726 -0.2105  1.7142  0.4057
 3574SOL     OW16736   1.212   1.327   6.232 -0.2847  0.2071 -0.0707
 3574SOL    HW116737   1.273   1.250   6.214 -1.2678 -0.4678 -0.6575
 3574SOL    HW216738   1.188   1.371   6.145 -0.3752  0.6573  0.1827
 3575SOL     OW16739   5.846   6.012   5.660 -0.9910 -0.2159  0.5108
 3575SOL    HW116740   5.935   5.967   5.669  0.0632  1.5389 -0.7080
 3575SOL    HW216741   5.832   6.074   5.737 -1.0182 -0.2254  0.5134
 3576SOL     OW16742   5.444   2.135   6.489  0.1672 -0.0049  0.0481
 3576SOL    HW116743   5.449   2.042   6.524 -1.5151 -0.5134 -0.9446
 3576SOL    HW216744   5.403   2.195   6.558  0.8845 -0.0717  0.5382
 3577SOL     OW16745   4.438   2.714   6.493  0.3371  0.1734  0.2519
 3577SOL    HW116746   4.390   2.707   6.405 -0.1230 -0.9562  0.5713
 3577SOL    HW216747   4.420   2.803   6.533 -0.2938  0.3222 -0.3306
 3578SOL     OW16748   6.112   4.988   0.786 -0.0654 -0.3655 -0.0529
 3578SOL    HW116749   6.105   4.924   0.862  1.5485 -1.8615 -1.0840
 3578SOL    HW216750   6.194   5.045   0.797 -1.4132  1.4991  0.7876
 3579SOL     OW16751   3.012   3.671   5.897  0.3206 -0.4188 -0.0279
 3579SOL    HW116752   3.071   3.636   5.970 -0.8748 -1.6069  0.4106
 3579SOL    HW216753   2.973   3.594   5.846 -0.8842  0.3264 -0.2665
 3580SOL     OW16754   0.469   3.751   5.600 -0.0600 -0.1499 -0.1242
 3580SOL    HW116755   0.446   3.832   5.654 -0.1377 -0.2065 -0.0723
 3580SOL    HW216756   0.399   3.736   5.531 -0.8862 -1.0752  0.8682
 3581SOL     OW16757   5.161   2.198   1.193 -0.1492  0.3032  0.0297
 3581SOL    HW116758   5.214   2.191   1.278 -1.8210 -2.1458  0.9829
 3581SOL    HW216759   5.097   2.274   1.199 -0.3982  0.0206  1.0635
 3582SOL     OW16760   5.665   6.136   6.017 -0.3806 -0.5317 -0.7526
 3582SOL    HW116761   5.725   6.196   6.069 -0.6108  0.3161 -1.4397
 3582SOL    HW216762   5.603   6.191   5.961  0.2766 -1.3963 -2.4060
 3583SOL     OW16763   0.274   1.606   0.413  0.0871  0.1204 -0.4287
 3583SOL    HW116764   0.297   1.674   0.344 -1.8622  0.4617 -0.7732
 3583SOL    HW216765   0.197   1.550   0.382 -0.5653  0.0151  1.2765
 3584SOL     OW16766   6.292   5.733   1.167  0.0501 -0.1435  0.2430
 3584SOL    HW116767   6.302   5.808   1.233 -1.5458  0.5300 -0.2175
 3584SOL    HW216768   6.195   5.723   1.143  0.4617 -1.1395 -1.1108
 3585SOL     OW16769   1.141   5.022   0.912  0.0091 -0.0450 -0.2546
 3585SOL    HW116770   1.092   5.089   0.967  0.9535  1.0264 -0.6774
 3585SOL    HW216771   1.193   4.961   0.972  0.6142  0.7872  0.0904
 3586SOL     OW16772   2.602   1.342   0.189 -0.2005 -0.4165 -0.0844
 3586SOL    HW116773   2.522   1.396   0.160 -0.7620 -1.1474  0.0699
 3586SOL    HW216774   2.639   1.381   0.273 -0.3941 -0.0700 -0.1554
 3587SOL     OW16775   4.579   4.319   1.080  0.3450  0.5912 -0.0941
 3587SOL    HW116776   4.489   4.314   1.125  0.4932  0.0735  0.1490
 3587SOL    HW216777   4.645   4.266   1.133  0.9049  1.3458 -0.0246
 3588SOL     OW16778   1.306   1.512   1.108  0.1339 -0.1672 -0.4926
 3588SOL    HW116779   1.316   1.541   1.203  0.4448 -0.5431 -0.4041
 3588SOL    HW216780   1.262   1.422   1.106  0.3709 -0.2798 -0.6867
 3589SOL     OW16781   5.884   1.375   0.640  0.0717  0.9126 -0.9431
 3589SOL    HW116782   5.852   1.469   0.630 -1.8523  0.2075 -1.9413
 3589SOL    HW216783   5.821   1.325   0.701  1.6272  0.4934  0.4024
 3590SOL     OW16784   3.950   3.928   0.282 -0.2611 -0.2806  0.2103
 3590SOL    HW116785   3.937   3.875   0.198 -0.9910  1.0106 -0.5345
 3590SOL    HW216786   3.888   4.007   0.281 -0.2936 -0.2436  1.9824
 3591SOL     OW16787   1.220   2.299   0.842 -0.6740 -0.1551  0.1833
 3591SOL    HW116788   1.266   2.265   0.924 -0.9117  0.1463  0.4467
 3591SOL    HW216789   1.121   2.291   0.854 -0.6846 -1.5000 -0.6848
 3592SOL     OW16790   4.068   3.546   0.657 -0.4092 -0.4645 -0.2589
 3592SOL    HW116791   4.095   3.568   0.751  1.4293 -0.1464 -0.8350
 3592SOL    HW216792   4.093   3.621   0.596 -1.3282 -0.7920 -1.0677
 3593SOL     OW16793   0.940   5.200   5.445  0.4959  0.1425 -0.2935
 3593SOL    HW116794   0.926   5.121   5.505  2.2399 -0.0465 -0.0662
 3593SOL    HW216795   0.943   5.168   5.350  1.2592 -0.0855 -0.1974
 3594SOL     OW16796   1.863   0.186   0.448 -0.3044  0.4461  0.6157
 3594SOL    HW116797   1.915   0.201   0.533 -0.0733 -0.5796  0.6674
 3594SOL    HW216798   1.858   0.088   0.429  0.8491  0.7083 -1.2911
 3595SOL     OW16799   0.011   0.841   6.565  0.3996  0.2330 -0.0114
 3595SOL    HW116800  -0.026   0.898   6.491 -0.7498  1.0547  1.1421
 3595SOL    HW216801  -0.045   0.758   6.573 -0.9466  1.2106  1.3637
 3596SOL     OW16802   4.835   4.346   0.598 -0.2885 -0.6226  0.3857
 3596SOL    HW116803   4.801   4.343   0.692  1.0857 -0.4910  0.9151
 3596SOL    HW216804   4.778   4.408   0.543 -0.7407 -0.2346  1.2767
 3597SOL     OW16805   2.769   3.261   5.494  0.3559 -0.4869  0.3222
 3597SOL    HW116806   2.704   3.261   5.419  2.8828  2.1826 -2.1257
 3597SOL    HW216807   2.820   3.175   5.495 -1.4369 -1.5976  0.7465
 3598SOL     OW16808   6.182   2.273   6.196 -0.2802 -0.4783 -0.3629
 3598SOL    HW116809   6.176   2.298   6.100  0.7198 -2.0491 -0.8721
 3598SOL    HW216810   6.109   2.318   6.247 -0.5038  0.7998 -1.7467
 3599SOL     OW16811   2.810   5.779   0.819 -0.2245  0.2865  0.3320
 3599SOL    HW116812   2.828   5.857   0.880 -0.9008 -0.0330  0.9539
 3599SOL    HW216813   2.714   5.752   0.827  0.2668 -1.3384  0.9838
 3600SOL     OW16814   6.183   2.366   0.922  0.2975  0.3890  0.0462
 3600SOL    HW116815   6.221   2.283   0.882  0.6455  0.8325 -0.5598
 3600SOL    HW216816   6.140   2.421   0.850  3.1646  2.4474 -0.2771
 3601SOL     OW16817   3.928   5.264   6.306 -0.0609 -0.0277  0.6713
 3601SOL    HW116818   3.982   5.343   6.276  0.5796 -0.7739 -0.1780
 3601SOL    HW216819   3.855   5.247   6.241 -0.1590 -0.1788  0.8204
 3602SOL     OW16820   6.036   0.474   0.647 -0.6249 -0.9403 -0.1801
 3602SOL    HW116821   6.041   0.560   0.699 -0.1468 -0.9371 -0.2263
 3602SOL    HW216822   6.113   0.415   0.672 -0.2192 -0.8175 -1.0911
 3603SOL     OW16823   1.220   1.688   5.085  0.8120  0.0098  0.3376
 3603SOL    HW116824   1.208   1.644   4.996  1.5407 -0.8313  0.6447
 3603SOL    HW216825   1.177   1.633   5.156  0.4375  0.5591  0.5469
 3604SOL     OW16826   3.227   0.355   0.140 -0.2757  0.0157  0.7254
 3604SOL    HW116827   3.130   0.344   0.119 -0.1786  0.6317 -0.0718
 3604SOL    HW216828   3.278   0.369   0.055  0.6617 -1.3545  1.0288
 3605SOL     OW16829   5.912   4.075   0.203 -0.1798  0.6888 -0.3271
 3605SOL    HW116830   5.989   4.013   0.214  0.3725  1.4613  0.2697
 3605SOL    HW216831   5.896   4.124   0.289 -0.8642  1.0764 -0.6642
 3606SOL     OW16832   0.934   0.070   6.110  0.3039  0.2812  0.7538
 3606SOL    HW116833   0.840   0.037   6.105  0.2029  0.5712  0.7320
 3606SOL    HW216834   0.979   0.053   6.022 -0.5210  2.4955 -0.1689
 3607SOL     OW16835   2.247   0.600   6.287 -0.1865  0.2132  0.0140
 3607SOL    HW116836   2.238   0.609   6.387 -0.5622 -0.9051  0.1005
 3607SOL    HW216837   2.296   0.678   6.251  1.0653  0.0346  1.2479
 3608SOL     OW16838   2.822   2.343   0.077  0.0081  0.3575  0.4530
 3608SOL    HW116839   2.743   2.302   0.124 -0.2004  0.0301 -0.1670
 3608SOL    HW216840   2.875   2.271   0.032  1.1869  0.4684  1.6211
 3609SOL     OW16841   1.015   4.326   0.767  0.3791 -0.4767  0.4038
 3609SOL    HW116842   0.920   4.297   0.773  0.1540  0.1032 -0.2179
 3609SOL    HW216843   1.048   4.354   0.857  0.0121 -0.8153  0.6449
 3610SOL     OW16844   6.020   2.198   1.850  0.0078 -0.1899  0.0364
 3610SOL    HW116845   6.019   2.297   1.836 -1.2974 -0.1301  0.4752
 3610SOL    HW216846   6.079   2.176   1.928 -0.6738  0.3581  0.7166
 3611SOL     OW16847   4.478   1.354   5.731  0.5665  0.4646  0.1743
 3611SOL    HW116848   4.549   1.419   5.706  1.8787 -0.2141  1.8950
 3611SOL    HW216849   4.450   1.369   5.826 -1.7073  0.7633 -0.4736
 3612SOL     OW16850   4.873   0.425   5.771  0.2275  0.5276  0.0529
 3612SOL    HW116851   4.928   0.509   5.770  0.0972  0.6182  0.2641
 3612SOL    HW216852   4.856   0.398   5.866  2.3492 -1.1229  0.0274
 3613SOL     OW16853   5.522   4.297   6.164 -0.6153 -0.2553 -0.1613
 3613SOL    HW116854   5.466   4.326   6.086 -1.1139 -2.1340 -0.5440
 3613SOL    HW216855   5.465   4.291   6.246 -0.4411  0.1318 -0.0080
 3614SOL     OW16856   5.230   5.427   0.823  0.0908  0.5663 -0.2640
 3614SOL    HW116857   5.205   5.385   0.736 -1.4471  1.5200 -0.3178
 3614SOL    HW216858   5.156   5.486   0.855  1.0141  0.9948  1.2251
 3615SOL     OW16859   6.405   4.693   5.655 -0.2230  0.0103 -0.8566
 3615SOL    HW116860   6.409   4.784   5.615 -0.3586 -0.4657 -1.9779
 3615SOL    HW216861   6.379   4.626   5.585 -0.8161 -0.7946  0.1073
 3616SOL     OW16862   4.554   2.456   0.911 -0.2156 -0.4013  0.1473
 3616SOL    HW116863   4.641   2.446   0.960  0.2626 -0.8723 -0.7692
 3616SOL    HW216864   4.573   2.479   0.816 -1.1315  1.1439  0.2936
 3617SOL     OW16865   1.729   5.632   6.409 -0.2061 -0.0808  0.1835
 3617SOL    HW116866   1.717   5.722   6.451 -0.2429  0.5984 -1.2330
 3617SOL    HW216867   1.658   5.570   6.443 -1.7253  1.1223 -0.6518
 3618SOL     OW16868   5.894   3.336   0.234  0.9730  0.2127  0.2489
 3618SOL    HW116869   5.888   3.275   0.313  0.7239  0.0572  0.1122
 3618SOL    HW216870   5.803   3.347   0.193  1.1294  0.1627 -0.1141
 3619SOL     OW16871   3.387   6.216   4.704 -0.0462  0.0124 -0.3599
 3619SOL    HW116872   3.438   6.135   4.735  0.5258 -0.0762 -1.4744
 3619SOL    HW216873   3.305   6.187   4.654 -0.5809  0.1477  0.4198
 3620SOL     OW16874   3.288   5.323   1.045 -0.2729 -0.3332 -1.1731
 3620SOL    HW116875   3.227   5.397   1.073 -1.0323 -1.7997  1.3286
 3620SOL    HW216876   3.375   5.330   1.095  0.1213 -0.4542 -1.8264
 3621SOL     OW16877   0.444   2.132   6.128  0.1087 -0.0390  0.4555
 3621SOL    HW116878   0.451   2.229   6.153  1.6394 -0.2485  0.9689
 3621SOL    HW216879   0.447   2.076   6.211  0.3158 -0.5616  0.1004
 3622SOL     OW16880   2.541   5.703   0.781 -0.1909  0.5202  0.3290
 3622SOL    HW116881   2.501   5.622   0.825 -0.4421 -0.3341 -1.3751
 3622SOL    HW216882   2.471   5.773   0.769 -0.0151  0.9566  1.6489
 3623SOL     OW16883   2.604   2.240   0.230 -0.8599 -0.7645 -0.0081
 3623SOL    HW116884   2.512   2.227   0.266 -1.0547 -0.5318 -0.4084
 3623SOL    HW216885   2.662   2.164   0.259 -1.8008 -2.2523 -1.7384
 3624SOL     OW16886   5.026   4.103   5.385 -0.3561 -0.5282 -0.0496
 3624SOL    HW116887   5.082   4.174   5.341 -0.1751 -0.9415 -0.4976
 3624SOL    HW216888   4.942   4.090   5.332 -0.3540 -0.7043 -0.0084
 3625SOL     OW16889   2.466   5.718   0.051 -0.0377  0.3987  0.1402
 3625SOL    HW116890   2.468   5.726  -0.049 -1.7722  1.6280  0.1470
 3625SOL    HW216891   2.467   5.809   0.092 -1.5325  0.0254  1.1174
 3626SOL     OW16892   4.591   1.176   6.129  0.6215 -0.2709 -0.1604
 3626SOL    HW116893   4.525   1.112   6.169  2.2321 -3.0775 -1.6410
 3626SOL    HW216894   4.642   1.221   6.203 -0.9463 -0.2432  0.9529
 3627SOL     OW16895   4.341   4.956   6.448  0.1226 -0.1327 -0.4365
 3627SOL    HW116896   4.352   4.857   6.456 -0.0533 -0.0797  0.7866
 3627SOL    HW216897   4.257   4.977   6.399 -0.3560 -0.6046  0.1716
 3628SOL     OW16898   3.255   2.747   5.783  0.1849 -0.8661  0.1624
 3628SOL    HW116899   3.309   2.794   5.853 -3.5123  0.7376  2.2469
 3628SOL    HW216900   3.224   2.658   5.819 -0.2460 -0.8488 -0.1594
 3629SOL     OW16901   0.038   2.578   0.712  0.2932 -0.4971 -0.3918
 3629SOL    HW116902  -0.034   2.645   0.696  2.3378  1.6206 -1.2789
 3629SOL    HW216903   0.026   2.500   0.650 -1.1398 -0.1597 -0.5769
 3630SOL     OW16904   0.028   2.726   6.428  0.0276  0.4371 -0.0106
 3630SOL    HW116905  -0.045   2.668   6.463  0.0695  0.4753  0.1412
 3630SOL    HW216906  -0.012   2.806   6.383 -0.0185  0.6972  0.4854
 3631SOL     OW16907   5.421   5.719   6.578 -0.7188  1.4695  0.0046
 3631SOL    HW116908   5.419   5.619   6.582 -0.1024  1.3373 -2.1056
 3631SOL    HW216909   5.328   5.755   6.591 -0.9529  0.6404  0.7277
 3632SOL     OW16910   3.924   0.285   5.829 -0.5902 -0.0652 -0.1049
 3632SOL    HW116911   3.973   0.198   5.830  1.6021  1.0813  2.4673
 3632SOL    HW216912   3.962   0.344   5.758 -0.8880 -0.5170 -0.6564
 3633SOL     OW16913   1.061   0.502   6.225  0.4624 -0.3919 -0.2569
 3633SOL    HW116914   0.968   0.538   6.218  0.5267  0.3449  2.0175
 3633SOL    HW216915   1.058   0.409   6.262  0.6219 -0.6177 -0.7944
 3634SOL     OW16916   3.490   2.074   6.166  0.3031  0.1303 -0.1196
 3634SOL    HW116917   3.527   2.038   6.252 -0.2281  1.1747  0.5721
 3634SOL    HW216918   3.418   2.013   6.132  0.2948 -0.1302  0.3548
 3635SOL     OW16919   3.729   0.403   6.512  0.0517  0.3548  0.4484
 3635SOL    HW116920   3.761   0.358   6.429  1.1212  1.7278  0.0807
 3635SOL    HW216921   3.803   0.407   6.579 -0.4016  0.4680  0.9479
 3636SOL     OW16922   0.202   0.624   0.223 -0.3274  0.0345  0.2958
 3636SOL    HW116923   0.286   0.608   0.172  0.4707  0.0193  1.5726
 3636SOL    HW216924   0.213   0.704   0.282 -1.3556  0.2845  0.1728
 3637SOL     OW16925   3.094   3.491   0.426  0.4027  0.1674  0.3168
 3637SOL    HW116926   3.163   3.564   0.426 -1.8901  2.4821  0.9779
 3637SOL    HW216927   3.046   3.492   0.514  0.9236 -2.8692  0.7307
 3638SOL     OW16928   2.062   0.490   0.555  0.4023 -0.2908  0.2311
 3638SOL    HW116929   2.123   0.482   0.634  2.0329 -1.2676 -1.0924
 3638SOL    HW216930   2.114   0.521   0.476 -0.8034 -1.2113 -0.9530
 3639SOL     OW16931   5.237   0.210   4.209 -0.3300 -0.3237  0.0222
 3639SOL    HW116932   5.255   0.116   4.179  1.2968  0.2670 -0.9673
 3639SOL    HW216933   5.316   0.245   4.258 -0.5843  0.8168 -0.3661
 3640SOL     OW16934   5.271   0.437   5.930  0.6392 -0.0516  0.2925
 3640SOL    HW116935   5.314   0.450   5.840 -0.0978  1.4591  0.1328
 3640SOL    HW216936   5.326   0.483   6.000  0.8275 -0.6204  0.5262
 3641SOL     OW16937   1.407   6.179   6.170  0.1123  0.4366  0.1179
 3641SOL    HW116938   1.324   6.234   6.174  0.6822  1.3164  0.0283
 3641SOL    HW216939   1.383   6.085   6.144 -0.7753  0.8488 -0.6053
 3642SOL     OW16940   2.720   0.290   0.582  0.1516  0.7580 -0.0517
 3642SOL    HW116941   2.621   0.291   0.600 -0.1779  0.1880 -1.6558
 3642SOL    HW216942   2.760   0.376   0.613 -0.7738  0.8374  0.9832
 3643SOL     OW16943   3.097   5.666   5.081  0.2586 -0.2140 -1.0916
 3643SOL    HW116944   3.186   5.622   5.072  0.1220 -0.7383 -0.0721
 3643SOL    HW216945   3.109   5.765   5.090  0.7514 -0.2945 -0.8390
 3644SOL     OW16946   3.946   1.923   6.074  0.6451 -0.2247  0.0587
 3644SOL    HW116947   3.955   2.001   6.012  1.9299 -2.6750 -3.1164
 3644SOL    HW216948   3.882   1.945   6.147 -0.8761  2.9337 -2.0293
 3645SOL     OW16949   2.799   1.810   6.445 -0.2207  0.3292  0.1428
 3645SOL    HW116950   2.893   1.806   6.411 -0.5822  1.3991 -1.0786
 3645SOL    HW216951   2.799   1.804   6.544  1.2940  1.9021  0.2915
 3646SOL     OW16952   6.288   0.816   5.354 -0.1415  0.4293  0.2856
 3646SOL    HW116953   6.349   0.879   5.402 -0.4916 -0.2643  1.6912
 3646SOL    HW216954   6.314   0.722   5.375  0.8050  0.0202 -2.3210
 3647SOL     OW16955   2.400   6.345   5.538  0.1934  0.2224 -1.1678
 3647SOL    HW116956   2.478   6.378   5.484  0.2285  0.6808 -0.8410
 3647SOL    HW216957   2.417   6.250   5.565  0.9882  0.5368 -0.4822
 3648SOL     OW16958   3.199   3.378   5.754  0.5332 -0.6577  0.6070
 3648SOL    HW116959   3.121   3.383   5.692  1.4669 -1.9001 -0.7477
 3648SOL    HW216960   3.273   3.436   5.718  0.3607  0.3094  1.7435
 3649SOL     OW16961   4.921   5.391   5.055  0.2103 -0.0278  0.1438
 3649SOL    HW116962   4.851   5.462   5.045  0.1928 -0.1895 -1.0652
 3649SOL    HW216963   4.958   5.393   5.147 -2.1067 -0.6104  1.1549
 3650SOL     OW16964   5.943   0.475   5.937 -0.5295 -0.3477  0.5826
 3650SOL    HW116965   5.993   0.389   5.928  0.6903  0.2118  1.6428
 3650SOL    HW216966   5.976   0.541   5.870 -0.3120 -0.1914  0.8415
 3651SOL     OW16967   4.621   5.327   1.556 -0.6131  0.0608 -0.2656
 3651SOL    HW116968   4.699   5.268   1.576  0.1843  0.9178 -0.7629
 3651SOL    HW216969   4.649   5.422   1.558 -1.6137  0.3820 -0.6229
 3652SOL     OW16970   3.299   5.196   0.561 -0.0545  0.2727  0.5502
 3652SOL    HW116971   3.274   5.122   0.623 -1.2306  2.1721  2.4657
 3652SOL    HW216972   3.271   5.172   0.468 -1.2245 -1.2976  1.2638
 3653SOL     OW16973   1.279   4.836   1.054  0.1495  0.4890  0.2066
 3653SOL    HW116974   1.333   4.862   1.134 -0.4877  0.9368  0.4982
 3653SOL    HW216975   1.249   4.741   1.064 -1.0649  0.9481  1.1621
 3654SOL     OW16976   4.611   3.792   0.179 -0.4588 -0.1532 -0.2912
 3654SOL    HW116977   4.695   3.804   0.125  1.3748 -0.7169  2.2516
 3654SOL    HW216978   4.603   3.696   0.206  0.2944  0.5190  2.7013
 3655SOL     OW16979   4.066   5.118   5.975 -0.5453 -0.4110 -0.2590
 3655SOL    HW116980   4.131   5.180   5.930 -0.0496 -1.2947 -0.7850
 3655SOL    HW216981   4.079   5.124   6.075  0.5654 -0.7868 -0.3593
 3656SOL     OW16982   0.513   5.584   5.173  0.4222 -0.0609 -0.7452
 3656SOL    HW116983   0.467   5.532   5.245  2.4983 -0.7887  0.1256
 3656SOL    HW216984   0.508   5.682   5.194 -1.5661 -0.0002 -1.2395
 3657SOL     OW16985   1.994   5.051   0.670 -0.2818 -0.2039 -0.7179
 3657SOL    HW116986   1.971   4.958   0.700  1.0148 -0.4147 -0.2937
 3657SOL    HW216987   2.016   5.107   0.751 -1.3179  0.5608 -0.9477
 3658SOL     OW16988   3.667   6.311   6.586 -0.1824  1.3058  0.1050
 3658SOL    HW116989   3.686   6.362   6.671 -1.5700  0.1521  1.1595
 3658SOL    HW216990   3.637   6.375   6.515  0.3350  2.2159  0.6752
 3659SOL     OW16991   1.466   3.241   0.930  0.0269  0.4409  0.4493
 3659SOL    HW116992   1.534   3.298   0.976  3.0727 -1.5030 -1.3013
 3659SOL    HW216993   1.470   3.259   0.831 -0.9228 -0.8183  0.1580
 3660SOL     OW16994   4.137   3.680   4.897 -0.4691 -0.3532 -0.5235
 3660SOL    HW116995   4.229   3.641   4.900  0.4862  1.6943 -1.2688
 3660SOL    HW216996   4.142   3.778   4.917 -2.5932 -0.3142  0.0647
 3661SOL     OW16997   2.024   3.713   0.567 -0.7304 -0.3879  0.0304
 3661SOL    HW116998   2.044   3.726   0.470 -2.6947  1.2515 -0.2301
 3661SOL    HW216999   2.077   3.636   0.602 -0.2437 -1.2650 -2.4255
 3662SOL     OW17000   2.478   6.284   0.105  0.0365 -0.1259 -0.3784
 3662SOL    HW117001   2.463   6.330   0.193 -1.3339  0.4985 -0.9093
 3662SOL    HW217002   2.562   6.319   0.064  0.5389 -0.2140  0.5390
 3663SOL     OW17003   0.383   2.354   1.545  0.4620 -0.1401  0.1798
 3663SOL    HW117004   0.324   2.419   1.593  0.6329  0.4630 -0.4140
 3663SOL    HW217005   0.449   2.315   1.609  1.7701  1.8935  0.1539
 3664SOL     OW17006   0.230   1.226   0.852 -0.4402 -0.1118 -0.4511
 3664SOL    HW117007   0.211   1.297   0.920  1.3976  0.5806 -0.6024
 3664SOL    HW217008   0.211   1.136   0.893  3.0854  0.0698  2.0783
 3665SOL     OW17009   1.277   2.248   5.705  0.6012  0.4741 -0.2970
 3665SOL    HW117010   1.234   2.327   5.661 -1.7103  1.8998  3.9664
 3665SOL    HW217011   1.207   2.186   5.738  2.0967 -0.3743  1.4808
 3666SOL     OW17012   2.790   1.634   1.565  0.1375  0.2771 -0.3863
 3666SOL    HW117013   2.738   1.719   1.553 -0.8285 -0.2453 -0.0136
 3666SOL    HW217014   2.763   1.590   1.650  1.4452  0.1379 -0.0141
 3667SOL     OW17015   2.999   2.039   1.525 -0.4069 -0.0113  0.1417
 3667SOL    HW117016   3.046   1.964   1.572  1.6253  0.2971 -1.2816
 3667SOL    HW217017   3.021   2.125   1.571  2.0976  0.3693 -1.6068
 3668SOL     OW17018   2.574   0.318   5.552  0.2053  0.4472 -0.7803
 3668SOL    HW117019   2.610   0.250   5.489 -1.9416 -1.7904  0.2024
 3668SOL    HW217020   2.559   0.276   5.642 -1.2245  2.2127 -0.1143
 3669SOL     OW17021   0.678   4.858   1.268  0.2763 -0.8661  0.5569
 3669SOL    HW117022   0.675   4.938   1.328  1.3627  0.1229 -0.6717
 3669SOL    HW217023   0.737   4.877   1.190  2.0034 -3.4805  1.1079
 3670SOL     OW17024   3.342   3.215   4.865 -0.3074  0.2577 -0.4398
 3670SOL    HW117025   3.291   3.248   4.785  2.5080  1.8631 -1.7038
 3670SOL    HW217026   3.389   3.130   4.842 -0.5303  0.0147 -0.0221
 3671SOL     OW17027   1.110   3.648   6.310  0.3081  0.1405 -0.0928
 3671SOL    HW117028   1.171   3.617   6.383  1.4476  1.6936 -0.3176
 3671SOL    HW217029   1.160   3.710   6.249 -1.3891  1.1579 -0.5359
 3672SOL     OW17030   3.605   2.643   6.033  0.6200 -0.0398 -0.3807
 3672SOL    HW117031   3.519   2.594   6.045  0.6439  0.1518  0.6549
 3672SOL    HW217032   3.676   2.578   6.004  0.0828 -0.1448 -1.5469
 3673SOL     OW17033   3.352   5.580   5.059  0.6996  0.5138  0.5547
 3673SOL    HW117034   3.438   5.575   5.009  1.0900 -2.1498  1.3284
 3673SOL    HW217035   3.333   5.492   5.103 -2.6413  0.8472  0.0954
 3674SOL     OW17036   5.665   2.680   0.550  0.6895  0.2092  0.1922
 3674SOL    HW117037   5.719   2.627   0.485  1.4866 -0.3134  1.2550
 3674SOL    HW217038   5.674   2.640   0.641  1.1520  2.0192  0.9875
 3675SOL     OW17039   2.913   4.797   0.520  0.3000 -0.0735 -0.2157
 3675SOL    HW117040   2.879   4.763   0.432  4.1436  0.8988 -2.2854
 3675SOL    HW217041   2.947   4.720   0.574  1.7587 -0.3593 -1.4719
 3676SOL     OW17042   1.816   2.869   4.857 -0.2406  0.2025 -0.1769
 3676SOL    HW117043   1.908   2.867   4.895 -0.6591 -2.2249  0.8716
 3676SOL    HW217044   1.803   2.791   4.796 -2.4029 -1.2037  1.8803
 3677SOL     OW17045   4.350   5.619   5.629 -0.3187  0.5500  0.2996
 3677SOL    HW117046   4.316   5.710   5.607  1.4424  1.4811  1.1574
 3677SOL    HW217047   4.311   5.551   5.567 -2.8900  1.6344  0.6393
 3678SOL     OW17048   0.883   0.933   5.744  0.1470  0.1630  0.0570
 3678SOL    HW117049   0.938   0.995   5.799  1.7426 -0.9116 -0.2343
 3678SOL    HW217050   0.839   0.984   5.670 -0.6867  1.3372  1.3448
 3679SOL     OW17051   4.294   6.365   6.119  0.0996 -0.3385 -0.2039
 3679SOL    HW117052   4.255   6.274   6.133  2.8356 -1.5169  0.5452
 3679SOL    HW217053   4.307   6.381   6.021 -0.1109 -0.9164 -0.3340
 3680SOL     OW17054   5.424   4.157   0.109 -0.4573  0.0054  0.2549
 3680SOL    HW117055   5.456   4.227   0.174 -0.0073  3.4686 -3.2860
 3680SOL    HW217056   5.343   4.112   0.146 -0.5795  2.1537  2.9763
 3681SOL     OW17057   4.945   3.167   0.476 -0.2854 -0.4424  0.5310
 3681SOL    HW117058   4.901   3.250   0.512  0.0690 -0.4598  1.0179
 3681SOL    HW217059   5.024   3.193   0.420  0.2881 -0.4587  1.3075
 3682SOL     OW17060   3.609   1.404   5.917 -0.2583 -0.5956 -0.3740
 3682SOL    HW117061   3.687   1.381   5.858 -0.6672  2.2850 -2.2711
 3682SOL    HW217062   3.527   1.357   5.883  0.1098 -1.4920 -0.0562
 3683SOL     OW17063   0.929   3.034   0.825 -0.1647 -0.5158  0.4112
 3683SOL    HW117064   1.019   3.062   0.857  0.5760 -1.5565 -0.6545
 3683SOL    HW217065   0.914   2.938   0.849  0.0517 -1.0665 -1.5163
 3684SOL     OW17066   4.116   3.434   1.232  0.7628 -0.0504 -0.1689
 3684SOL    HW117067   4.038   3.471   1.182  0.1671 -0.1143  0.6795
 3684SOL    HW217068   4.149   3.352   1.186 -3.0318 -3.2403  2.0830
 3685SOL     OW17069   1.544   3.226   1.521 -0.0567  0.0739  0.0354
 3685SOL    HW117070   1.477   3.191   1.586 -0.5686 -1.4520 -1.2342
 3685SOL    HW217071   1.628   3.172   1.527  1.5028  2.5021  2.2132
 3686SOL     OW17072   2.439   1.248   6.221  0.2369 -0.0170 -0.1753
 3686SOL    HW117073   2.372   1.181   6.191  0.1515 -1.0334  2.0919
 3686SOL    HW217074   2.439   1.254   6.321  1.1283  2.4790 -0.2386
 3687SOL     OW17075   6.130   4.482   0.348 -0.1905 -0.0883 -0.3161
 3687SOL    HW117076   6.144   4.421   0.270  2.3448  0.8820 -0.7381
 3687SOL    HW217077   6.176   4.569   0.330  1.1539 -0.0862  2.5605
 3688SOL     OW17078   2.505   5.060   1.066 -0.3317  0.2520 -0.1861
 3688SOL    HW117079   2.567   5.068   0.988  1.3234  1.1119  1.1577
 3688SOL    HW217080   2.517   5.139   1.127 -0.8990 -0.8534  1.4212
 3689SOL     OW17081   0.966   1.227   0.905  1.0538  0.2897 -0.1395
 3689SOL    HW117082   0.991   1.197   0.813  3.9892  2.5420 -0.2300
 3689SOL    HW217083   1.038   1.199   0.969  0.1110  0.6000  1.0909
 3690SOL     OW17084   2.741   0.894   6.048  0.4522 -0.4040  0.0266
 3690SOL    HW117085   2.837   0.884   6.073 -0.0744 -0.7131  2.0507
 3690SOL    HW217086   2.692   0.941   6.121 -1.1205 -1.0078 -0.5986
 3691SOL     OW17087   4.824   1.740   6.370 -0.3606  0.0725  0.3715
 3691SOL    HW117088   4.734   1.781   6.359  0.9962  3.4253  0.5224
 3691SOL    HW217089   4.864   1.721   6.280 -0.8797 -0.7132  0.2959
 3692SOL     OW17090   1.755   3.158   0.284 -0.0490 -0.5181 -0.2421
 3692SOL    HW117091   1.683   3.188   0.221  0.4532  1.4596  0.0583
 3692SOL    HW217092   1.714   3.137   0.373 -0.4032 -0.5592 -0.4117
 3693SOL     OW17093   0.839   0.030   5.652 -0.2140 -0.1805  0.2424
 3693SOL    HW117094   0.745   0.005   5.627 -0.2126  1.0853 -1.1961
 3693SOL    HW217095   0.897   0.024   5.571  1.1555 -1.6793  1.2759
 3694SOL     OW17096   4.237   3.061   0.170  0.5753  0.0712  0.5160
 3694SOL    HW117097   4.219   3.072   0.072 -0.2747 -0.9555  0.5450
 3694SOL    HW217098   4.336   3.060   0.186  0.7371 -0.6765 -0.4491
 3695SOL     OW17099   4.889   2.839   6.242 -0.5210 -1.1355 -0.1111
 3695SOL    HW117100   4.968   2.873   6.293  0.1527 -2.4523 -0.2415
 3695SOL    HW217101   4.900   2.859   6.145 -1.9937  1.7375  0.2111
 3696SOL     OW17102   4.470   1.369   0.095  0.0037 -0.4154  0.1153
 3696SOL    HW117103   4.501   1.446   0.150  1.0054 -1.0923  0.5159
 3696SOL    HW217104   4.411   1.310   0.150 -0.9588  0.1704 -0.2605
 3697SOL     OW17105   5.086   6.227   0.828 -0.4872  0.0122  0.2932
 3697SOL    HW117106   5.123   6.185   0.910 -1.4536  0.1631  0.8221
 3697SOL    HW217107   5.024   6.301   0.854 -1.7040 -0.6893 -0.5325
 3698SOL     OW17108   5.586   5.252   2.308 -0.1572  0.4008  0.1222
 3698SOL    HW117109   5.603   5.233   2.404 -1.0405  0.7429  0.3548
 3698SOL    HW217110   5.491   5.231   2.285  1.0012 -3.7645 -1.7260
 3699SOL     OW17111   1.316   1.566   0.202  0.2499 -0.9366  0.0768
 3699SOL    HW117112   1.389   1.538   0.139  0.9560  0.3637  0.2916
 3699SOL    HW217113   1.245   1.495   0.204  0.8376 -1.5913 -1.1868
 3700SOL     OW17114   1.949   0.313   6.219 -0.3398  0.1307 -0.2281
 3700SOL    HW117115   1.907   0.278   6.303 -0.5438 -0.7546 -0.6810
 3700SOL    HW217116   2.000   0.239   6.174  0.0693  0.6902 -0.6946
 3701SOL     OW17117   4.882   1.872   0.333  0.3360  0.2867  0.1956
 3701SOL    HW117118   4.807   1.857   0.269 -0.1274 -0.8449  0.9670
 3701SOL    HW217119   4.848   1.862   0.427  1.3437  0.2934  0.5710
 3702SOL     OW17120   1.063   2.253   6.386 -0.4707 -0.6398 -0.5185
 3702SOL    HW117121   1.039   2.244   6.483  3.4426 -0.3094  0.6444
 3702SOL    HW217122   1.089   2.164   6.350 -0.0749 -0.4445 -0.7107
 3703SOL     OW17123   3.253   5.723   0.716  0.0512  0.0714  0.2199
 3703SOL    HW117124   3.264   5.818   0.688  1.6675 -0.0661  0.3083
 3703SOL    HW217125   3.195   5.676   0.650 -0.6624  1.0781  0.1016
 3704SOL     OW17126   2.864   5.336   1.231  0.1425  0.7320 -0.5335
 3704SOL    HW117127   2.912   5.379   1.154 -1.1406  2.4446 -0.4414
 3704SOL    HW217128   2.930   5.318   1.305  0.8731  1.9068 -0.8659
 3705SOL     OW17129   5.654   6.172   4.673 -0.2500  0.5848  0.6797
 3705SOL    HW117130   5.742   6.203   4.636  0.1705 -1.3577 -0.0761
 3705SOL    HW217131   5.581   6.195   4.609 -0.0531  0.6157  0.4658
 3706SOL     OW17132   0.498   5.866   5.218 -0.1523 -0.1481  0.3098
 3706SOL    HW117133   0.520   5.914   5.303 -0.1490 -0.5268  0.5234
 3706SOL    HW217134   0.494   5.932   5.143 -0.2524  0.2023  0.6209
 3707SOL     OW17135   4.201   5.890   1.276 -0.2768 -0.2159  0.1058
 3707SOL    HW117136   4.143   5.968   1.298  0.3263  0.0421  0.8175
 3707SOL    HW217137   4.239   5.851   1.360  0.1211 -0.7392 -0.3055
 3708SOL     OW17138   4.026   2.810   1.019  0.6222  0.3069  0.2857
 3708SOL    HW117139   4.021   2.821   0.919 -0.1435 -0.2069  0.2636
 3708SOL    HW217140   4.083   2.882   1.057  0.5474  0.7805 -0.4779
 3709SOL     OW17141   4.159   1.915   0.371  0.4351  0.1249  0.2674
 3709SOL    HW117142   4.091   1.899   0.442 -0.8140 -0.8977 -1.0663
 3709SOL    HW217143   4.141   2.002   0.325  0.2509  0.0314  0.1621
 3710SOL     OW17144   3.892   5.568   1.287 -0.3598 -0.0812  0.4773
 3710SOL    HW117145   3.854   5.483   1.251 -0.4110 -0.0138  0.3709
 3710SOL    HW217146   3.820   5.637   1.294 -0.1940  0.1527 -0.0435
 3711SOL     OW17147   0.263   0.788   0.443 -0.2800 -0.4016  0.3987
 3711SOL    HW117148   0.173   0.805   0.481 -0.7528  0.9804 -1.2175
 3711SOL    HW217149   0.329   0.853   0.481  0.0587 -1.3582  1.5169
 3712SOL     OW17150   0.436   1.024   6.460  0.5754  0.0946  0.4103
 3712SOL    HW117151   0.490   0.961   6.404  0.3848 -1.6610  2.0782
 3712SOL    HW217152   0.389   0.972   6.532 -3.1979  1.5115 -0.7791
 3713SOL     OW17153   4.467   0.420   0.237  0.7339 -0.2865 -0.2308
 3713SOL    HW117154   4.374   0.434   0.270  0.6476 -0.6331 -0.3182
 3713SOL    HW217155   4.465   0.359   0.157  1.0992 -0.8250  0.1679
 3714SOL     OW17156   1.748   3.603   0.386 -0.4640 -0.1029 -0.8080
 3714SOL    HW117157   1.769   3.577   0.480 -2.5906  0.6991 -0.0601
 3714SOL    HW217158   1.824   3.657   0.348  1.4641 -2.4010 -0.4322
 3715SOL     OW17159   2.416   1.250   6.490  0.0675  0.3349 -0.3708
 3715SOL    HW117160   2.481   1.299   6.549 -1.4509 -0.3493  2.0335
 3715SOL    HW217161   2.398   1.160   6.528  0.5565 -1.0266 -3.1152
 3716SOL     OW17162   2.009   3.057   5.438 -0.1222 -0.0362 -0.0401
 3716SOL    HW117163   1.949   3.029   5.513 -0.7157 -1.2305 -0.9365
 3716SOL    HW217164   2.105   3.041   5.464 -0.3899 -2.2103 -0.1857
 3717SOL     OW17165   3.022   1.792   1.624 -0.3243  0.1036 -0.4825
 3717SOL    HW117166   3.097   1.731   1.598 -0.1548 -0.6365  1.6062
 3717SOL    HW217167   2.939   1.738   1.640 -0.7273  0.6722 -0.6326
 3718SOL     OW17168   2.730   5.099   6.158 -0.8822  0.4164  0.3331
 3718SOL    HW117169   2.781   5.033   6.213  1.1122  2.0390  0.5560
 3718SOL    HW217170   2.710   5.060   6.068  1.4979 -0.0574 -0.0603
 3719SOL     OW17171   4.083   3.849   6.170 -0.2224  0.0307 -0.2002
 3719SOL    HW117172   4.102   3.885   6.078  0.4480 -1.3368 -0.6242
 3719SOL    HW217173   4.133   3.902   6.238  0.5301  0.0746 -0.7780
 3720SOL     OW17174   0.228   4.505   0.652  0.0411  0.1757  0.3810
 3720SOL    HW117175   0.200   4.601   0.658  0.3401  0.3513 -0.7804
 3720SOL    HW217176   0.295   4.494   0.578  0.8301 -0.7466  1.1961
 3721SOL     OW17177   4.913   2.123   5.887  0.6517  0.3195 -0.1306
 3721SOL    HW117178   4.932   2.052   5.819 -0.8704 -0.2384 -0.0096
 3721SOL    HW217179   4.999   2.153   5.929  1.2899 -2.1763  0.5174
 3722SOL     OW17180   4.387   1.465   5.990  0.2143  0.3893 -0.0850
 3722SOL    HW117181   4.410   1.397   6.061  0.7314 -0.1455 -0.7480
 3722SOL    HW217182   4.435   1.550   6.010  0.6021  0.1448  0.0435
 3723SOL     OW17183   1.681   1.622   5.620  0.2258  0.0415  0.7649
 3723SOL    HW117184   1.587   1.654   5.606 -1.3705 -2.5484  3.9379
 3723SOL    HW217185   1.710   1.567   5.542 -0.9299  0.7466 -0.1937
 3724SOL     OW17186   5.121   5.722   6.594 -0.0805  0.3456 -0.3227
 3724SOL    HW117187   5.070   5.638   6.575 -0.9278  0.7726 -0.0001
 3724SOL    HW217188   5.071   5.776   6.663 -0.7509  2.1747 -2.1375
 3725SOL     OW17189   4.647   3.939   5.878 -0.0623  0.3427  0.4298
 3725SOL    HW117190   4.562   3.951   5.825 -0.3485 -0.7862  0.5958
 3725SOL    HW217191   4.624   3.929   5.975  0.3861  1.4520  0.6554
 3726SOL     OW17192   0.069   5.849   6.480 -0.6722  0.0437  0.5349
 3726SOL    HW117193   0.046   5.940   6.514  0.9460  1.1104 -0.9857
 3726SOL    HW217194  -0.009   5.811   6.429 -0.4692  1.8913 -1.2868
 3727SOL     OW17195   5.392   2.307   0.890  0.1215 -0.6019 -0.5542
 3727SOL    HW117196   5.407   2.349   0.800  0.9801  2.4609  0.8902
 3727SOL    HW217197   5.413   2.209   0.885  0.8962 -0.3767 -3.4810
 3728SOL     OW17198   2.465   1.527   6.199 -0.7772  0.1716 -0.0475
 3728SOL    HW117199   2.442   1.431   6.186 -1.2938  0.1219  1.1235
 3728SOL    HW217200   2.396   1.584   6.155 -1.3797  0.0020  0.6568
 3729SOL     OW17201   2.325   4.927   5.497  0.4656  0.6435 -0.3254
 3729SOL    HW117202   2.327   4.966   5.589 -0.3275  1.5802 -0.6797
 3729SOL    HW217203   2.335   4.828   5.502  0.0396  0.6428  0.8068
 3730SOL     OW17204   1.071   0.648   5.916  0.4291 -0.1599 -0.4453
 3730SOL    HW117205   1.121   0.721   5.868  1.1062 -1.0689 -1.1781
 3730SOL    HW217206   0.995   0.688   5.967 -1.2936  0.7681 -3.4673
 3731SOL     OW17207   5.222   1.168   5.697  0.3590  0.4084  0.1671
 3731SOL    HW117208   5.198   1.116   5.615  2.1773  0.8159 -0.6794
 3731SOL    HW217209   5.140   1.210   5.735 -0.4242  0.9680 -1.9748
 3732SOL     OW17210   0.236   3.494   0.862  0.0727  0.7127 -0.5042
 3732SOL    HW117211   0.223   3.400   0.830  1.6058  0.1333  0.4524
 3732SOL    HW217212   0.320   3.499   0.917  0.5146  2.8447 -1.2856
 3733SOL     OW17213   2.156   3.247   0.540 -0.5151 -0.5331  0.3729
 3733SOL    HW117214   2.099   3.193   0.478 -0.9956 -0.9928  1.1873
 3733SOL    HW217215   2.103   3.324   0.576  0.5720  1.3564 -1.8348
 3734SOL     OW17216   4.738   3.691   0.503  0.2197  0.8608  0.2744
 3734SOL    HW117217   4.837   3.676   0.492  0.1838  1.6039 -1.4119
 3734SOL    HW217218   4.723   3.781   0.544  0.2377  0.4531  1.2017
 3735SOL     OW17219   3.608   0.168   0.454  0.6160 -0.7396  0.5196
 3735SOL    HW117220   3.671   0.106   0.408  0.6739 -1.2205  1.2491
 3735SOL    HW217221   3.605   0.148   0.552 -1.3988 -1.3791  0.3800
 3736SOL     OW17222   4.290   4.892   1.079  0.3679  0.1025 -0.4903
 3736SOL    HW117223   4.202   4.855   1.051  0.4740  0.1636 -0.9075
 3736SOL    HW217224   4.360   4.820   1.073  0.0774 -0.3865  1.3095
 3737SOL     OW17225   2.142   0.760   0.140  0.3361 -0.1916  0.1329
 3737SOL    HW117226   2.139   0.856   0.168 -0.5647 -0.6641  1.7353
 3737SOL    HW217227   2.049   0.726   0.128  0.6434 -0.3908 -2.3082
 3738SOL     OW17228   2.309   4.237   6.016 -0.7122  0.7081  0.0816
 3738SOL    HW117229   2.224   4.229   6.068  0.0647 -2.6232  1.0792
 3738SOL    HW217230   2.371   4.163   6.041  1.8316  1.9868 -1.8994
 3739SOL     OW17231   2.247   5.964   6.460  0.8375  0.4013 -0.4253
 3739SOL    HW117232   2.278   6.017   6.381  0.6172 -0.1261 -0.8790
 3739SOL    HW217233   2.309   5.978   6.537  0.7944  1.2864 -0.5424
 3740SOL     OW17234   0.360   5.443   0.468  0.2043 -0.9177 -0.8694
 3740SOL    HW117235   0.276   5.454   0.522  0.6450  0.7985 -0.4596
 3740SOL    HW217236   0.342   5.474   0.374 -0.0805 -2.2306 -1.2646
 3741SOL     OW17237   0.747   3.745   0.839  0.2040  0.2714  0.0770
 3741SOL    HW117238   0.777   3.761   0.932 -0.0007  2.0717 -0.1256
 3741SOL    HW217239   0.825   3.752   0.776  0.2701 -0.5248  0.0575
 3742SOL     OW17240   1.213   5.529   0.656  0.3943 -0.2636 -0.4133
 3742SOL    HW117241   1.241   5.436   0.633 -1.2931 -0.7297 -0.6431
 3742SOL    HW217242   1.140   5.559   0.595  0.2310  0.8437  0.2920
 3743SOL     OW17243   1.769   0.237   1.078 -0.7123  0.4433 -0.0833
 3743SOL    HW117244   1.730   0.328   1.064 -0.3348  0.3684 -1.8514
 3743SOL    HW217245   1.846   0.243   1.142 -0.0530  1.5590 -0.9362
 3744SOL     OW17246   4.038   3.769   5.184  0.4077 -0.6486  0.1857
 3744SOL    HW117247   4.010   3.847   5.128 -0.9057 -0.7682  0.6322
 3744SOL    HW217248   3.961   3.706   5.193 -0.0474  0.1562  3.4471
 3745SOL     OW17249   3.596   4.813   1.908  0.1960  0.1450 -0.2403
 3745SOL    HW117250   3.615   4.763   1.993 -2.4630 -1.5343 -0.5231
 3745SOL    HW217251   3.632   4.906   1.916  4.2175 -1.3003  0.8085
 3746SOL     OW17252   0.937   6.443   1.718  0.1460 -0.3680  0.2096
 3746SOL    HW117253   0.854   6.497   1.707  0.8733  0.5440 -1.1443
 3746SOL    HW217254   0.921   6.349   1.687  0.4663  0.6393 -3.4303
 3747SOL     OW17255   4.897   3.566   5.608  0.2710 -0.3776  0.5663
 3747SOL    HW117256   4.870   3.486   5.662  0.9186  0.2618  1.8892
 3747SOL    HW217257   4.994   3.584   5.623  0.8360 -0.9926 -1.9364
 3748SOL     OW17258   5.815   3.252   5.544 -0.2323  0.0522 -0.4276
 3748SOL    HW117259   5.822   3.184   5.618  0.8051 -1.5294 -1.9008
 3748SOL    HW217260   5.891   3.316   5.550 -0.8903  0.7745  0.6218
 3749SOL     OW17261   0.032   4.555   0.841 -0.2709 -0.2757 -0.5258
 3749SOL    HW117262   0.018   4.488   0.914 -1.5255 -0.6098 -1.0569
 3749SOL    HW217263   0.112   4.528   0.787  0.0079 -0.6270  0.0497
 3750SOL     OW17264   2.740   3.155   6.553 -0.4443  0.3671  0.3732
 3750SOL    HW117265   2.834   3.132   6.577  0.1068  2.5070  0.3783
 3750SOL    HW217266   2.738   3.208   6.468 -1.5250  1.3240  0.9596
 3751SOL     OW17267   2.895   4.188   6.549  0.1950 -0.0138 -0.3711
 3751SOL    HW117268   2.888   4.189   6.648  1.7694  1.6373 -0.2279
 3751SOL    HW217269   2.922   4.098   6.517  0.7187 -0.2741  0.7869
 3752SOL     OW17270   5.793   5.149   5.076  1.0907  0.2199 -0.2426
 3752SOL    HW117271   5.825   5.093   5.000  0.5999 -1.2597  0.5850
 3752SOL    HW217272   5.832   5.241   5.070  1.2179  0.0679 -2.1397
 3753SOL     OW17273   4.286   0.747   5.309 -0.0725 -0.2152 -0.3989
 3753SOL    HW117274   4.297   0.808   5.388  0.0587 -0.5436 -0.1594
 3753SOL    HW217275   4.329   0.788   5.229  1.5931 -0.7758  0.1599
 3754SOL     OW17276   2.477   6.257   6.012 -0.0785  0.1647  0.3757
 3754SOL    HW117277   2.420   6.318   6.068  0.0516 -2.1668  3.2804
 3754SOL    HW217278   2.488   6.297   5.920 -4.4297  1.8455  0.3377
 3755SOL     OW17279   1.124   4.456   6.093  0.3653 -0.4597  0.7944
 3755SOL    HW117280   1.104   4.455   6.191 -0.3402 -0.8398  0.6545
 3755SOL    HW217281   1.099   4.367   6.054 -1.3580  0.3740 -0.1064
 3756SOL     OW17282   4.851   0.722   0.270  0.2820  0.5168 -0.3689
 3756SOL    HW117283   4.800   0.804   0.296 -1.8953 -0.6656 -0.6183
 3756SOL    HW217284   4.882   0.675   0.353  1.1044  1.3102 -0.2131
 3757SOL     OW17285   1.374   2.823   5.196 -0.1334 -0.3696  0.5411
 3757SOL    HW117286   1.305   2.753   5.211 -0.2030 -0.5169 -0.3677
 3757SOL    HW217287   1.465   2.783   5.204 -0.1483 -0.1933  1.6568
 3758SOL     OW17288   0.279   4.884   5.963  0.5182  0.0987  0.2520
 3758SOL    HW117289   0.346   4.852   5.897  0.8773 -2.5963  1.7819
 3758SOL    HW217290   0.325   4.936   6.035  0.4309  1.1159 -0.3999
 3759SOL     OW17291   4.017   0.957   5.221  0.4171 -0.1423  0.0671
 3759SOL    HW117292   4.098   0.956   5.280  1.1760 -0.0350 -0.9539
 3759SOL    HW217293   4.038   0.912   5.134  0.3892  2.6553 -1.5019
 3760SOL     OW17294   5.736   4.837   6.267 -0.3580  0.1093 -0.3256
 3760SOL    HW117295   5.746   4.739   6.246 -0.8048 -0.0333  0.0881
 3760SOL    HW217296   5.796   4.890   6.208 -1.0014 -0.3242 -1.4078
 3761SOL     OW17297   4.117   5.659   1.158 -0.3737 -0.6901 -0.3021
 3761SOL    HW117298   4.048   5.615   1.216 -0.6906  0.9580  0.6262
 3761SOL    HW217299   4.151   5.741   1.203 -0.8792  0.8574 -2.5937
 3762SOL     OW17300   5.688   0.368   5.685  0.2164  0.2172 -0.2205
 3762SOL    HW117301   5.682   0.312   5.603  0.0954  1.5090 -1.1156
 3762SOL    HW217302   5.699   0.308   5.765  0.8987 -1.0332 -1.2089
 3763SOL     OW17303   5.487   2.801   5.787  0.0482  0.6207  0.0312
 3763SOL    HW117304   5.581   2.798   5.820 -0.5148 -0.4789  1.6594
 3763SOL    HW217305   5.485   2.842   5.696  2.0371  1.0402  0.1311
 3764SOL     OW17306   5.617   0.759   6.436  0.2706  0.1616  0.0181
 3764SOL    HW117307   5.636   0.793   6.528  2.4647 -0.3435 -0.2134
 3764SOL    HW217308   5.562   0.827   6.387  0.3736  1.1219  1.1715
 3765SOL     OW17309   3.715   5.451   0.442  0.0783 -0.2152  0.0273
 3765SOL    HW117310   3.792   5.402   0.482 -0.1575 -1.9085 -1.4632
 3765SOL    HW217311   3.630   5.405   0.467 -0.0798 -1.2462 -2.2209
 3766SOL     OW17312   1.384   3.084   1.671 -0.3325  0.0666  0.0420
 3766SOL    HW117313   1.370   3.011   1.738 -0.9572  0.3099  0.1868
 3766SOL    HW217314   1.295   3.121   1.644  0.0176  2.1560  1.5195
 3767SOL     OW17315   0.301   1.812   0.232 -0.5618 -0.3240  0.6994
 3767SOL    HW117316   0.259   1.901   0.215 -0.2827 -0.3918 -0.3651
 3767SOL    HW217317   0.294   1.755   0.151 -1.1922 -1.4753  1.5340
 3768SOL     OW17318   1.039   5.276   1.024  0.5417 -0.1709 -0.3832
 3768SOL    HW117319   1.003   5.293   0.932  0.6997 -1.4890 -0.7109
 3768SOL    HW217320   1.085   5.359   1.057 -0.2454  0.5970 -1.1322
 3769SOL     OW17321   4.596   3.555   0.290 -0.3524 -0.2276 -0.0497
 3769SOL    HW117322   4.512   3.522   0.333 -1.8721  2.6676 -0.5762
 3769SOL    HW217323   4.650   3.606   0.358 -0.6203  0.6539 -0.4898
 3770SOL     OW17324   6.338   5.166   0.852  0.5950  0.1811  1.1010
 3770SOL    HW117325   6.285   5.251   0.844 -0.2508 -0.3183  1.3200
 3770SOL    HW217326   6.435   5.187   0.840  0.4204  1.2120  1.3484
 3771SOL     OW17327   3.852   2.304   0.468  0.3743 -0.0391  0.1427
 3771SOL    HW117328   3.925   2.326   0.404  0.4826  1.4751  0.7501
 3771SOL    HW217329   3.886   2.236   0.534  0.2880 -1.5452 -1.2754
 3772SOL     OW17330   5.854   5.397   5.010 -0.0088 -0.0091 -0.1361
 3772SOL    HW117331   5.866   5.350   4.923  2.3771 -2.0038  1.1339
 3772SOL    HW217332   5.893   5.489   5.004  2.9623 -1.1781 -0.4390
 3773SOL     OW17333   3.210   6.192   0.353 -0.0656 -0.5052 -0.3535
 3773SOL    HW117334   3.230   6.241   0.268  1.1068  0.3264  0.3638
 3773SOL    HW217335   3.120   6.150   0.347  0.7869 -2.2473 -2.7985
 3774SOL     OW17336   4.222   5.017   4.626  0.1957  0.1462 -0.7608
 3774SOL    HW117337   4.149   5.067   4.580 -1.0742 -1.7065 -0.8599
 3774SOL    HW217338   4.278   5.081   4.679 -0.3678  1.8512 -2.1477
 3775SOL     OW17339   5.334   4.817   5.310 -0.3320  0.3664  0.1010
 3775SOL    HW117340   5.367   4.858   5.395 -2.6668 -0.2879  1.3907
 3775SOL    HW217341   5.278   4.738   5.330 -1.2685  0.4007 -2.0489
 3776SOL     OW17342   5.599   4.162   5.203 -0.3251  0.0147  0.2486
 3776SOL    HW117343   5.561   4.185   5.113 -0.3307  2.0551  0.7376
 3776SOL    HW217344   5.677   4.222   5.223 -1.2273  0.5920  2.2178
 3777SOL     OW17345   3.749   3.251   0.519 -0.2994  0.4942  0.2923
 3777SOL    HW117346   3.734   3.159   0.556  0.2577  0.3376  0.1286
 3777SOL    HW217347   3.673   3.275   0.459 -0.8274  0.4414  0.9276
 3778SOL     OW17348   4.072   5.713   0.513  0.4362 -0.3026  0.5853
 3778SOL    HW117349   4.061   5.788   0.578  0.5471  0.3251 -0.0984
 3778SOL    HW217350   3.991   5.706   0.455  1.3806  0.9367 -0.9961
 3779SOL     OW17351   2.928   2.634   5.262 -0.4614 -0.1936 -0.3143
 3779SOL    HW117352   3.001   2.698   5.238 -1.0672  0.2561 -0.9735
 3779SOL    HW217353   2.854   2.684   5.307 -0.2388 -0.7010  0.6607
 3780SOL     OW17354   3.855   1.124   0.092  0.4626 -0.1154  0.3860
 3780SOL    HW117355   3.934   1.149   0.036 -0.9417  2.0916 -0.7708
 3780SOL    HW217356   3.859   1.027   0.113  2.4864 -0.4710 -1.2398
 3781SOL     OW17357   5.469   1.873   6.559 -0.0380 -0.1224 -0.5290
 3781SOL    HW117358   5.558   1.839   6.530 -0.0213 -1.0241  0.5079
 3781SOL    HW217359   5.453   1.847   6.655 -1.8137 -0.7807 -0.9692
 3782SOL     OW17360   1.168   3.816   5.808  0.0930  0.3716  0.4413
 3782SOL    HW117361   1.121   3.832   5.721 -0.4175 -0.5568  0.5307
 3782SOL    HW217362   1.232   3.891   5.826  0.0544  0.6783 -0.6325
 3783SOL     OW17363   2.691   5.664   0.543  0.1386  0.3897  0.1067
 3783SOL    HW117364   2.634   5.644   0.622 -0.6755  1.6280 -0.1574
 3783SOL    HW217365   2.645   5.635   0.459  0.0294  1.0994 -0.0838
   6.41840   6.44350   6.59650
