[ C34 ]
  34   84  134  184  234  284  334  384  434  484  534  584  634  684  734 
 784  834  884  934  984 1034 1084 1134 1184 1234 1284 1334 1384 1434 1484 
1534 1584 1634 1684 1734 1784 1834 1884 1934 1984 2034 2084 2134 2184 2234 
2284 2334 2384 2434 2484 2534 2584 2634 2684 2734 2784 2834 2884 2934 2984 
3034 3084 3134 3184 3234 3284 3334 3384 3434 3484 3534 3584 3634 3684 3734 
3784 3834 3884 3934 3984 4034 4084 4134 4184 4234 4284 4334 4384 4434 4484 
4534 4584 4634 4684 4734 4784 4834 4884 4934 4984 5034 5084 5134 5184 5234 
5284 5334 5384 5434 5484 5534 5584 5634 5684 5734 5784 5834 5884 5934 5984 
6034 6084 6134 6184 6234 6284 6334 6384 
[ C36 ]
  36   86  136  186  236  286  336  386  436  486  536  586  636  686  736 
 786  836  886  936  986 1036 1086 1136 1186 1236 1286 1336 1386 1436 1486 
1536 1586 1636 1686 1736 1786 1836 1886 1936 1986 2036 2086 2136 2186 2236 
2286 2336 2386 2436 2486 2536 2586 2636 2686 2736 2786 2836 2886 2936 2986 
3036 3086 3136 3186 3236 3286 3336 3386 3436 3486 3536 3586 3636 3686 3736 
3786 3836 3886 3936 3986 4036 4086 4136 4186 4236 4286 4336 4386 4436 4486 
4536 4586 4636 4686 4736 4786 4836 4886 4936 4986 5036 5086 5136 5186 5236 
5286 5336 5386 5436 5486 5536 5586 5636 5686 5736 5786 5836 5886 5936 5986 
6036 6086 6136 6186 6236 6286 6336 6386 
[ C37 ]
  37   87  137  187  237  287  337  387  437  487  537  587  637  687  737 
 787  837  887  937  987 1037 1087 1137 1187 1237 1287 1337 1387 1437 1487 
1537 1587 1637 1687 1737 1787 1837 1887 1937 1987 2037 2087 2137 2187 2237 
2287 2337 2387 2437 2487 2537 2587 2637 2687 2737 2787 2837 2887 2937 2987 
3037 3087 3137 3187 3237 3287 3337 3387 3437 3487 3537 3587 3637 3687 3737 
3787 3837 3887 3937 3987 4037 4087 4137 4187 4237 4287 4337 4387 4437 4487 
4537 4587 4637 4687 4737 4787 4837 4887 4937 4987 5037 5087 5137 5187 5237 
5287 5337 5387 5437 5487 5537 5587 5637 5687 5737 5787 5837 5887 5937 5987 
6037 6087 6137 6187 6237 6287 6337 6387 
[ C38 ]
  38   88  138  188  238  288  338  388  438  488  538  588  638  688  738 
 788  838  888  938  988 1038 1088 1138 1188 1238 1288 1338 1388 1438 1488 
1538 1588 1638 1688 1738 1788 1838 1888 1938 1988 2038 2088 2138 2188 2238 
2288 2338 2388 2438 2488 2538 2588 2638 2688 2738 2788 2838 2888 2938 2988 
3038 3088 3138 3188 3238 3288 3338 3388 3438 3488 3538 3588 3638 3688 3738 
3788 3838 3888 3938 3988 4038 4088 4138 4188 4238 4288 4338 4388 4438 4488 
4538 4588 4638 4688 4738 4788 4838 4888 4938 4988 5038 5088 5138 5188 5238 
5288 5338 5388 5438 5488 5538 5588 5638 5688 5738 5788 5838 5888 5938 5988 
6038 6088 6138 6188 6238 6288 6338 6388 
[ C39 ]
  39   89  139  189  239  289  339  389  439  489  539  589  639  689  739 
 789  839  889  939  989 1039 1089 1139 1189 1239 1289 1339 1389 1439 1489 
1539 1589 1639 1689 1739 1789 1839 1889 1939 1989 2039 2089 2139 2189 2239 
2289 2339 2389 2439 2489 2539 2589 2639 2689 2739 2789 2839 2889 2939 2989 
3039 3089 3139 3189 3239 3289 3339 3389 3439 3489 3539 3589 3639 3689 3739 
3789 3839 3889 3939 3989 4039 4089 4139 4189 4239 4289 4339 4389 4439 4489 
4539 4589 4639 4689 4739 4789 4839 4889 4939 4989 5039 5089 5139 5189 5239 
5289 5339 5389 5439 5489 5539 5589 5639 5689 5739 5789 5839 5889 5939 5989 
6039 6089 6139 6189 6239 6289 6339 6389 
[ C40 ]
  40   90  140  190  240  290  340  390  440  490  540  590  640  690  740 
 790  840  890  940  990 1040 1090 1140 1190 1240 1290 1340 1390 1440 1490 
1540 1590 1640 1690 1740 1790 1840 1890 1940 1990 2040 2090 2140 2190 2240 
2290 2340 2390 2440 2490 2540 2590 2640 2690 2740 2790 2840 2890 2940 2990 
3040 3090 3140 3190 3240 3290 3340 3390 3440 3490 3540 3590 3640 3690 3740 
3790 3840 3890 3940 3990 4040 4090 4140 4190 4240 4290 4340 4390 4440 4490 
4540 4590 4640 4690 4740 4790 4840 4890 4940 4990 5040 5090 5140 5190 5240 
5290 5340 5390 5440 5490 5540 5590 5640 5690 5740 5790 5840 5890 5940 5990 
6040 6090 6140 6190 6240 6290 6340 6390 
[ C41 ]
  41   91  141  191  241  291  341  391  441  491  541  591  641  691  741 
 791  841  891  941  991 1041 1091 1141 1191 1241 1291 1341 1391 1441 1491 
1541 1591 1641 1691 1741 1791 1841 1891 1941 1991 2041 2091 2141 2191 2241 
2291 2341 2391 2441 2491 2541 2591 2641 2691 2741 2791 2841 2891 2941 2991 
3041 3091 3141 3191 3241 3291 3341 3391 3441 3491 3541 3591 3641 3691 3741 
3791 3841 3891 3941 3991 4041 4091 4141 4191 4241 4291 4341 4391 4441 4491 
4541 4591 4641 4691 4741 4791 4841 4891 4941 4991 5041 5091 5141 5191 5241 
5291 5341 5391 5441 5491 5541 5591 5641 5691 5741 5791 5841 5891 5941 5991 
6041 6091 6141 6191 6241 6291 6341 6391 
[ C42 ]
  42   92  142  192  242  292  342  392  442  492  542  592  642  692  742 
 792  842  892  942  992 1042 1092 1142 1192 1242 1292 1342 1392 1442 1492 
1542 1592 1642 1692 1742 1792 1842 1892 1942 1992 2042 2092 2142 2192 2242 
2292 2342 2392 2442 2492 2542 2592 2642 2692 2742 2792 2842 2892 2942 2992 
3042 3092 3142 3192 3242 3292 3342 3392 3442 3492 3542 3592 3642 3692 3742 
3792 3842 3892 3942 3992 4042 4092 4142 4192 4242 4292 4342 4392 4442 4492 
4542 4592 4642 4692 4742 4792 4842 4892 4942 4992 5042 5092 5142 5192 5242 
5292 5342 5392 5442 5492 5542 5592 5642 5692 5742 5792 5842 5892 5942 5992 
6042 6092 6142 6192 6242 6292 6342 6392 
[ C43 ]
  43   93  143  193  243  293  343  393  443  493  543  593  643  693  743 
 793  843  893  943  993 1043 1093 1143 1193 1243 1293 1343 1393 1443 1493 
1543 1593 1643 1693 1743 1793 1843 1893 1943 1993 2043 2093 2143 2193 2243 
2293 2343 2393 2443 2493 2543 2593 2643 2693 2743 2793 2843 2893 2943 2993 
3043 3093 3143 3193 3243 3293 3343 3393 3443 3493 3543 3593 3643 3693 3743 
3793 3843 3893 3943 3993 4043 4093 4143 4193 4243 4293 4343 4393 4443 4493 
4543 4593 4643 4693 4743 4793 4843 4893 4943 4993 5043 5093 5143 5193 5243 
5293 5343 5393 5443 5493 5543 5593 5643 5693 5743 5793 5843 5893 5943 5993 
6043 6093 6143 6193 6243 6293 6343 6393 
[ C44 ]
  44   94  144  194  244  294  344  394  444  494  544  594  644  694  744 
 794  844  894  944  994 1044 1094 1144 1194 1244 1294 1344 1394 1444 1494 
1544 1594 1644 1694 1744 1794 1844 1894 1944 1994 2044 2094 2144 2194 2244 
2294 2344 2394 2444 2494 2544 2594 2644 2694 2744 2794 2844 2894 2944 2994 
3044 3094 3144 3194 3244 3294 3344 3394 3444 3494 3544 3594 3644 3694 3744 
3794 3844 3894 3944 3994 4044 4094 4144 4194 4244 4294 4344 4394 4444 4494 
4544 4594 4644 4694 4744 4794 4844 4894 4944 4994 5044 5094 5144 5194 5244 
5294 5344 5394 5444 5494 5544 5594 5644 5694 5744 5794 5844 5894 5944 5994 
6044 6094 6144 6194 6244 6294 6344 6394 
[ C45 ]
  45   95  145  195  245  295  345  395  445  495  545  595  645  695  745 
 795  845  895  945  995 1045 1095 1145 1195 1245 1295 1345 1395 1445 1495 
1545 1595 1645 1695 1745 1795 1845 1895 1945 1995 2045 2095 2145 2195 2245 
2295 2345 2395 2445 2495 2545 2595 2645 2695 2745 2795 2845 2895 2945 2995 
3045 3095 3145 3195 3245 3295 3345 3395 3445 3495 3545 3595 3645 3695 3745 
3795 3845 3895 3945 3995 4045 4095 4145 4195 4245 4295 4345 4395 4445 4495 
4545 4595 4645 4695 4745 4795 4845 4895 4945 4995 5045 5095 5145 5195 5245 
5295 5345 5395 5445 5495 5545 5595 5645 5695 5745 5795 5845 5895 5945 5995 
6045 6095 6145 6195 6245 6295 6345 6395 
[ C46 ]
  46   96  146  196  246  296  346  396  446  496  546  596  646  696  746 
 796  846  896  946  996 1046 1096 1146 1196 1246 1296 1346 1396 1446 1496 
1546 1596 1646 1696 1746 1796 1846 1896 1946 1996 2046 2096 2146 2196 2246 
2296 2346 2396 2446 2496 2546 2596 2646 2696 2746 2796 2846 2896 2946 2996 
3046 3096 3146 3196 3246 3296 3346 3396 3446 3496 3546 3596 3646 3696 3746 
3796 3846 3896 3946 3996 4046 4096 4146 4196 4246 4296 4346 4396 4446 4496 
4546 4596 4646 4696 4746 4796 4846 4896 4946 4996 5046 5096 5146 5196 5246 
5296 5346 5396 5446 5496 5546 5596 5646 5696 5746 5796 5846 5896 5946 5996 
6046 6096 6146 6196 6246 6296 6346 6396 
[ C47 ]
  47   97  147  197  247  297  347  397  447  497  547  597  647  697  747 
 797  847  897  947  997 1047 1097 1147 1197 1247 1297 1347 1397 1447 1497 
1547 1597 1647 1697 1747 1797 1847 1897 1947 1997 2047 2097 2147 2197 2247 
2297 2347 2397 2447 2497 2547 2597 2647 2697 2747 2797 2847 2897 2947 2997 
3047 3097 3147 3197 3247 3297 3347 3397 3447 3497 3547 3597 3647 3697 3747 
3797 3847 3897 3947 3997 4047 4097 4147 4197 4247 4297 4347 4397 4447 4497 
4547 4597 4647 4697 4747 4797 4847 4897 4947 4997 5047 5097 5147 5197 5247 
5297 5347 5397 5447 5497 5547 5597 5647 5697 5747 5797 5847 5897 5947 5997 
6047 6097 6147 6197 6247 6297 6347 6397 
[ C48 ]
  48   98  148  198  248  298  348  398  448  498  548  598  648  698  748 
 798  848  898  948  998 1048 1098 1148 1198 1248 1298 1348 1398 1448 1498 
1548 1598 1648 1698 1748 1798 1848 1898 1948 1998 2048 2098 2148 2198 2248 
2298 2348 2398 2448 2498 2548 2598 2648 2698 2748 2798 2848 2898 2948 2998 
3048 3098 3148 3198 3248 3298 3348 3398 3448 3498 3548 3598 3648 3698 3748 
3798 3848 3898 3948 3998 4048 4098 4148 4198 4248 4298 4348 4398 4448 4498 
4548 4598 4648 4698 4748 4798 4848 4898 4948 4998 5048 5098 5148 5198 5248 
5298 5348 5398 5448 5498 5548 5598 5648 5698 5748 5798 5848 5898 5948 5998 
6048 6098 6148 6198 6248 6298 6348 6398 
[ C49 ]
  49   99  149  199  249  299  349  399  449  499  549  599  649  699  749 
 799  849  899  949  999 1049 1099 1149 1199 1249 1299 1349 1399 1449 1499 
1549 1599 1649 1699 1749 1799 1849 1899 1949 1999 2049 2099 2149 2199 2249 
2299 2349 2399 2449 2499 2549 2599 2649 2699 2749 2799 2849 2899 2949 2999 
3049 3099 3149 3199 3249 3299 3349 3399 3449 3499 3549 3599 3649 3699 3749 
3799 3849 3899 3949 3999 4049 4099 4149 4199 4249 4299 4349 4399 4449 4499 
4549 4599 4649 4699 4749 4799 4849 4899 4949 4999 5049 5099 5149 5199 5249 
5299 5349 5399 5449 5499 5549 5599 5649 5699 5749 5799 5849 5899 5949 5999 
6049 6099 6149 6199 6249 6299 6349 6399 
[ C50 ]
  50  100  150  200  250  300  350  400  450  500  550  600  650  700  750 
 800  850  900  950 1000 1050 1100 1150 1200 1250 1300 1350 1400 1450 1500 
1550 1600 1650 1700 1750 1800 1850 1900 1950 2000 2050 2100 2150 2200 2250 
2300 2350 2400 2450 2500 2550 2600 2650 2700 2750 2800 2850 2900 2950 3000 
3050 3100 3150 3200 3250 3300 3350 3400 3450 3500 3550 3600 3650 3700 3750 
3800 3850 3900 3950 4000 4050 4100 4150 4200 4250 4300 4350 4400 4450 4500 
4550 4600 4650 4700 4750 4800 4850 4900 4950 5000 5050 5100 5150 5200 5250 
5300 5350 5400 5450 5500 5550 5600 5650 5700 5750 5800 5850 5900 5950 6000 
6050 6100 6150 6200 6250 6300 6350 6400 
