title       = Umbrella pulling simulation 
define      = -DCNT -DDOX
; Run parameters
integrator  = md
dt          = 0.002
tinit       = 0
nsteps      = 350000    ; 500 ps
nstcomm     = 10
; Output parameters
nstxout     = 5000      ; every 10 ps
nstvout     = 5000 
nstfout     = 500
nstxtcout   = 500       ; every 1 ps
nstenergy   = 500
; Bond parameters
constraint_algorithm    = lincs
constraints             = all-bonds
continuation            = yes       ; continuing from NPT 
; Single-range cutoff scheme
nstlist     = 5
ns_type     = grid 
rlist       = 1.4
rcoulomb    = 1.4
rvdw        = 1.4
; PME electrostatics parameters
coulombtype     = PME
fourierspacing  = 0.12
fourier_nx      = 0
fourier_ny      = 0
fourier_nz      = 0
pme_order       = 4
ewald_rtol      = 1e-5
optimize_fft    = yes
energygrps= RNA V3OU SOL
; Berendsen temperature coupling is on in two groups
Tcoupl      = V-rescale
tc_grps     = RNA SOL_NA V3OU
tau_t       = 0.1 0.1 0.1
ref_t       = 310  310     310
; Pressure coupling is on
Pcoupl          = Berendsen 
pcoupltype      = isotropic
tau_p           = 1.0       
compressibility = 4.5e-5
ref_p           = 1.0
refcoord_scaling = com
; Generate velocities is off
gen_vel     = no 
; Periodic boundary conditions are on in all directions
pbc     = xyz
; Long-range dispersion correction
DispCorr    = EnerPres
; Pull code
pull                    = yes
pull_ngroups            = 2
pull_ncoords            = 1
pull_group1_name        = RNA
pull_group2_name        = V3OU
pull_coord1_type        = umbrella      ; harmonic biasing force
pull_coord1_geometry    = direction      ; simple distance increase
pull_coord1_vec      = 0 0 1
pull_coord1_groups      = 1 2
pull_coord1_dim         = N N Y
pull_coord1_rate        = 0.01          ; 0.01 nm per ps = 10 nm per ns
pull_coord1_k           = 1000          ; kJ mol^-1 nm^-2
pull_coord1_start       = yes           ; define initial COM distance > 0

