    1V3OU   H29  839   4.756   4.646   0.071
    1V3OU   C27  840   4.729   4.561   0.139
    1V3OU   H27  841   4.633   4.582   0.192
    1V3OU   H28  842   4.722   4.465   0.080
    1V3OU   O11  843   4.839   4.556   0.230
    1V3OU   C15  844   4.831   4.463   0.331
    1V3OU   C13  845   4.935   4.467   0.426
    1V3OU   C14  846   4.936   4.371   0.529
    1V3OU   C16  847   4.834   4.277   0.539
    1V3OU    H6  848   4.835   4.205   0.623
    1V3OU   C12  849   5.047   4.370   0.627
    1V3OU    O2  850   5.033   4.312   0.736
    1V3OU   C10  851   5.171   4.437   0.589
    1V3OU    C8  852   5.292   4.407   0.653
    1V3OU   O10  853   5.308   4.317   0.754
    1V3OU   H26  854   5.223   4.283   0.784
    1V3OU    C6  855   5.414   4.470   0.613
    1V3OU    C5  856   5.413   4.564   0.512
    1V3OU    C4  857   5.538   4.426   0.682
    1V3OU    H4  858   5.523   4.431   0.794
    1V3OU    H5  859   5.556   4.319   0.656
    1V3OU    C2  860   5.664   4.507   0.648
    1V3OU    O6  861   5.682   4.616   0.738
    1V3OU   H21  862   5.612   4.680   0.719
    1V3OU    C3  863   5.663   4.555   0.503
    1V3OU    H2  864   5.753   4.619   0.485
    1V3OU    H3  865   5.670   4.466   0.435
    1V3OU   C25  866   5.786   4.415   0.671
    1V3OU    O7  867   5.826   4.341   0.582
    1V3OU   C26  868   5.854   4.424   0.806
    1V3OU   H22  869   5.916   4.517   0.807
    1V3OU   H23  870   5.921   4.334   0.821
    1V3OU    O8  871   5.765   4.420   0.913
    1V3OU   H24  872   5.715   4.504   0.914
    1V3OU    C1  873   5.538   4.634   0.467
    1V3OU    H1  874   5.535   4.650   0.356
    1V3OU    O3  875   5.546   4.761   0.535
    1V3OU   C19  876   5.531   4.875   0.452
    1V3OU    H9  877   5.448   4.860   0.375
    1V3OU    O4  878   5.649   4.884   0.375
    1V3OU   C20  879   5.766   4.920   0.449
    1V3OU   H10  880   5.792   4.836   0.520
    1V3OU   C24  881   5.503   4.995   0.542
    1V3OU   H16  882   5.415   4.972   0.607
    1V3OU   H17  883   5.480   5.083   0.476
    1V3OU   C23  884   5.626   5.026   0.628
    1V3OU   H15  885   5.649   4.932   0.687
    1V3OU    N1  886   5.606   5.140   0.715
    1V3OU   H19  887   5.675   5.141   0.787
    1V3OU   H20  888   5.515   5.138   0.757
    1V3OU   C21  889   5.747   5.048   0.533
    1V3OU   H11  890   5.840   5.066   0.593
    1V3OU    O5  891   5.727   5.157   0.444
    1V3OU   H18  892   5.699   5.232   0.497
    1V3OU   C22  893   5.876   4.938   0.345
    1V3OU   H12  894   5.852   5.025   0.278
    1V3OU   H13  895   5.886   4.847   0.283
    1V3OU   H14  896   5.973   4.958   0.397
    1V3OU   C11  897   5.042   4.568   0.419
    1V3OU    O1  898   5.026   4.676   0.362
    1V3OU    C9  899   5.170   4.533   0.485
    1V3OU    C7  900   5.289   4.597   0.448
    1V3OU    O9  901   5.301   4.692   0.351
    1V3OU   H25  902   5.215   4.707   0.307
    1V3OU   C17  903   4.728   4.368   0.341
    1V3OU    H7  904   4.646   4.365   0.268
    1V3OU   C18  905   4.730   4.276   0.446
    1V3OU    H8  906   4.650   4.202   0.454
    2V3OU   H29  907   6.250   5.598   7.419
    2V3OU   C27  908   6.198   5.686   7.373
    2V3OU   H27  909   6.105   5.654   7.321
    2V3OU   H28  910   6.177   5.764   7.451
    2V3OU   O11  911   6.294   5.734   7.279
    2V3OU   C15  912   6.256   5.841   7.201
    2V3OU   C13  913   6.349   5.881   7.102
    2V3OU   C14  914   6.319   5.992   7.023
    2V3OU   C16  915   6.198   6.059   7.038
    2V3OU    H6  916   6.174   6.145   6.972
    2V3OU   C12  917   6.415   6.039   6.921
    2V3OU    O2  918   6.378   6.112   6.828
    2V3OU   C10  919   6.555   5.996   6.937
    2V3OU    C8  920   6.659   6.065   6.874
    2V3OU   O10  921   6.645   6.175   6.794
    2V3OU   H26  922   6.552   6.194   6.777
    2V3OU    C6  923   6.795   6.026   6.893
    2V3OU    C5  924   6.825   5.917   6.972
    2V3OU    C4  925   6.899   6.111   6.829
    2V3OU    H4  926   6.874   6.125   6.720
    2V3OU    H5  927   6.896   6.212   6.876
    2V3OU    C2  928   7.043   6.057   6.838
    2V3OU    O6  929   7.074   5.975   6.726
    2V3OU   H21  930   7.022   5.893   6.735
    2V3OU    C3  931   7.067   5.982   6.969
    2V3OU    H2  932   7.170   5.938   6.968
    2V3OU    H3  933   7.061   6.055   7.054
    2V3OU   C25  934   7.138   6.177   6.829
    2V3OU    O7  935   7.171   6.239   6.930
    2V3OU   C26  936   7.193   6.212   6.692
    2V3OU   H22  937   7.273   6.137   6.667
    2V3OU   H23  938   7.236   6.316   6.693
    2V3OU    O8  939   7.094   6.215   6.593
    2V3OU   H24  940   7.065   6.124   6.577
    2V3OU    C1  941   6.966   5.871   6.994
    2V3OU    H1  942   6.978   5.833   7.099
    2V3OU    O3  943   6.995   5.765   6.900
    2V3OU   C19  944   7.013   5.637   6.958
    2V3OU    H9  945   6.938   5.616   7.040
    2V3OU    O4  946   7.137   5.640   7.024
    2V3OU   C20  947   7.252   5.648   6.938
    2V3OU   H10  948   7.251   5.748   6.885
    2V3OU   C24  949   7.003   5.533   6.845
    2V3OU   H16  950   6.906   5.547   6.792
    2V3OU   H17  951   7.007   5.431   6.891
    2V3OU   C23  952   7.121   5.550   6.748
    2V3OU   H15  953   7.117   5.656   6.709
    2V3OU    N1  954   7.118   5.453   6.640
    2V3OU   H19  955   7.177   5.483   6.565
    2V3OU   H20  956   7.024   5.443   6.604
    2V3OU   C21  957   7.252   5.538   6.830
    2V3OU   H11  958   7.341   5.555   6.762
    2V3OU    O5  959   7.266   5.413   6.894
    2V3OU   H18  960   7.250   5.345   6.828
    2V3OU   C22  961   7.373   5.636   7.030
    2V3OU   H12  962   7.375   5.535   7.077
    2V3OU   H13  963   7.369   5.713   7.109
    2V3OU   H14  964   7.466   5.650   6.970
    2V3OU   C11  965   6.475   5.808   7.082
    2V3OU    O1  966   6.489   5.690   7.115
    2V3OU    C9  967   6.585   5.884   7.017
    2V3OU    C7  968   6.719   5.844   7.034
    2V3OU    O9  969   6.760   5.737   7.107
    2V3OU   H25  970   6.685   5.694   7.152
    2V3OU   C17  971   6.135   5.909   7.217
    2V3OU    H7  972   6.062   5.878   7.293
    2V3OU   C18  973   6.106   6.018   7.135
    2V3OU    H8  974   6.011   6.071   7.147
    3V3OU   H29  975   4.047   5.338   3.238
    3V3OU   C27  976   4.115   5.250   3.229
    3V3OU   H27  977   4.059   5.162   3.189
    3V3OU   H28  978   4.203   5.275   3.163
    3V3OU   O11  979   4.157   5.228   3.363
    3V3OU   C15  980   4.239   5.118   3.384
    3V3OU   C13  981   4.272   5.092   3.519
    3V3OU   C14  982   4.358   4.986   3.548
    3V3OU   C16  983   4.408   4.906   3.446
    3V3OU    H6  984   4.474   4.820   3.471
    3V3OU   C12  985   4.398   4.959   3.688
    3V3OU    O2  986   4.445   4.847   3.719
    3V3OU   C10  987   4.381   5.067   3.785
    3V3OU    C8  988   4.452   5.068   3.906
    3V3OU   O10  989   4.539   4.972   3.947
    3V3OU   H26  990   4.540   4.896   3.886
    3V3OU    C6  991   4.439   5.176   3.998
    3V3OU    C5  992   4.353   5.280   3.970
    3V3OU    C4  993   4.523   5.171   4.120
    3V3OU    H4  994   4.511   5.070   4.171
    3V3OU    H5  995   4.631   5.178   4.088
    3V3OU    C2  996   4.495   5.280   4.224
    3V3OU    O6  997   4.398   5.237   4.319
    3V3OU   H21  998   4.313   5.232   4.273
    3V3OU    C3  999   4.453   5.411   4.159
    3V3OU    H2 1000   4.426   5.486   4.238
    3V3OU    H3 1001   4.540   5.452   4.101
    3V3OU   C25 1002   4.624   5.302   4.305
    3V3OU    O7 1003   4.710   5.381   4.267
    3V3OU   C26 1004   4.638   5.225   4.435
    3V3OU   H22 1005   4.573   5.275   4.512
    3V3OU   H23 1006   4.746   5.226   4.469
    3V3OU    O8 1007   4.607   5.090   4.422
    3V3OU   H24 1008   4.511   5.083   4.408
    3V3OU    C1 1009   4.335   5.396   4.064
    3V3OU    H1 1010   4.321   5.491   4.006
    3V3OU    O3 1011   4.218   5.371   4.145
    3V3OU   C19 1012   4.108   5.457   4.121
    3V3OU    H9 1013   4.093   5.477   4.010
    3V3OU    O4 1014   4.144   5.583   4.174
    3V3OU   C20 1015   4.152   5.588   4.318
    3V3OU   H10 1016   4.238   5.523   4.352
    3V3OU   C24 1017   3.984   5.394   4.184
    3V3OU   H16 1018   3.972   5.291   4.143
    3V3OU   H17 1019   3.895   5.456   4.156
    3V3OU   C23 1020   3.999   5.390   4.336
    3V3OU   H15 1021   4.093   5.332   4.359
    3V3OU    N1 1022   3.883   5.332   4.402
    3V3OU   H19 1023   3.905   5.306   4.496
    3V3OU   H20 1024   3.851   5.251   4.352
    3V3OU   C21 1025   4.024   5.535   4.386
    3V3OU   H11 1026   4.040   5.535   4.497
    3V3OU    O5 1027   3.918   5.623   4.354
    3V3OU   H18 1028   3.836   5.581   4.382
    3V3OU   C22 1029   4.177   5.734   4.352
    3V3OU   H12 1030   4.089   5.796   4.322
    3V3OU   H13 1031   4.267   5.770   4.299
    3V3OU   H14 1032   4.193   5.743   4.463
    3V3OU   C11 1033   4.216   5.174   3.629
    3V3OU    O1 1034   4.111   5.237   3.617
    3V3OU    C9 1035   4.294   5.174   3.755
    3V3OU    C7 1036   4.279   5.279   3.848
    3V3OU    O9 1037   4.197   5.387   3.831
    3V3OU   H25 1038   4.153   5.384   3.745
    3V3OU   C17 1039   4.290   5.038   3.282
    3V3OU    H7 1040   4.264   5.058   3.177
    3V3OU   C18 1041   4.373   4.931   3.313
    3V3OU    H8 1042   4.413   4.868   3.233
    4V3OU   H29 1043   5.151   4.335   6.781
    4V3OU   C27 1044   5.084   4.286   6.705
    4V3OU   H27 1045   5.083   4.176   6.720
    4V3OU   H28 1046   4.981   4.329   6.711
    4V3OU   O11 1047   5.146   4.321   6.582
    4V3OU   C15 1048   5.089   4.269   6.468
    4V3OU   C13 1049   5.157   4.296   6.347
    4V3OU   C14 1050   5.101   4.251   6.227
    4V3OU   C16 1051   4.983   4.177   6.226
    4V3OU    H6 1052   4.943   4.139   6.131
    4V3OU   C12 1053   5.168   4.281   6.098
    4V3OU    O2 1054   5.142   4.215   5.996
    4V3OU   C10 1055   5.264   4.393   6.097
    4V3OU    C8 1056   5.299   4.456   5.977
    4V3OU   O10 1057   5.254   4.423   5.853
    4V3OU   H26 1058   5.199   4.342   5.856
    4V3OU    C6 1059   5.389   4.567   5.977
    4V3OU    C5 1060   5.444   4.611   6.095
    4V3OU    C4 1061   5.415   4.632   5.846
    4V3OU    H4 1062   5.445   4.553   5.770
    4V3OU    H5 1063   5.319   4.677   5.810
    4V3OU    C2 1064   5.523   4.740   5.847
    4V3OU    O6 1065   5.651   4.685   5.817
    4V3OU   H21 1066   5.677   4.631   5.894
    4V3OU    C3 1067   5.525   4.817   5.978
    4V3OU    H2 1068   5.611   4.890   5.978
    4V3OU    H3 1069   5.430   4.876   5.988
    4V3OU   C25 1070   5.494   4.837   5.731
    4V3OU    O7 1071   5.418   4.933   5.747
    4V3OU   C26 1072   5.564   4.812   5.599
    4V3OU   H22 1073   5.670   4.846   5.609
    4V3OU   H23 1074   5.513   4.869   5.516
    4V3OU    O8 1075   5.557   4.678   5.559
    4V3OU   H24 1076   5.613   4.626   5.619
    4V3OU    C1 1077   5.539   4.727   6.100
    4V3OU    H1 1078   5.521   4.787   6.193
    4V3OU    O3 1079   5.674   4.675   6.100
    4V3OU   C19 1080   5.746   4.695   6.221
    4V3OU    H9 1081   5.681   4.676   6.313
    4V3OU    O4 1082   5.777   4.832   6.227
    4V3OU   C20 1083   5.873   4.877   6.130
    4V3OU   H10 1084   5.827   4.868   6.027
    4V3OU   C24 1085   5.867   4.602   6.218
    4V3OU   H16 1086   5.833   4.497   6.202
    4V3OU   H17 1087   5.919   4.609   6.318
    4V3OU   C23 1088   5.964   4.645   6.107
    4V3OU   H15 1089   5.906   4.643   6.010
    4V3OU    N1 1090   6.082   4.561   6.101
    4V3OU   H19 1091   6.129   4.573   6.013
    4V3OU   H20 1092   6.058   4.465   6.112
    4V3OU   C21 1093   6.002   4.794   6.132
    4V3OU   H11 1094   6.069   4.830   6.049
    4V3OU    O5 1095   6.066   4.814   6.256
    4V3OU   H18 1096   6.137   4.749   6.263
    4V3OU   C22 1097   5.900   5.023   6.165
    4V3OU   H12 1098   5.949   5.030   6.265
    4V3OU   H13 1099   5.806   5.080   6.167
    4V3OU   H14 1100   5.968   5.067   6.087
    4V3OU   C11 1101   5.284   4.370   6.345
    4V3OU    O1 1102   5.358   4.375   6.444
    4V3OU    C9 1103   5.319   4.438   6.219
    4V3OU    C7 1104   5.410   4.546   6.218
    4V3OU    O9 1105   5.471   4.598   6.328
    4V3OU   H25 1106   5.440   4.553   6.409
    4V3OU   C17 1107   4.969   4.196   6.467
    4V3OU    H7 1108   4.916   4.173   6.561
    4V3OU   C18 1109   4.918   4.149   6.347
    4V3OU    H8 1110   4.824   4.091   6.346
    5V3OU   H29 1111   6.787   2.674   1.893
    5V3OU   C27 1112   6.867   2.624   1.954
    5V3OU   H27 1113   6.962   2.684   1.949
    5V3OU   H28 1114   6.833   2.611   2.060
    5V3OU   O11 1115   6.883   2.499   1.889
    5V3OU   C15 1116   6.982   2.416   1.938
    5V3OU   C13 1117   7.002   2.296   1.867
    5V3OU   C14 1118   7.098   2.205   1.915
    5V3OU   C16 1119   7.174   2.234   2.028
    5V3OU    H6 1120   7.250   2.163   2.062
    5V3OU   C12 1121   7.119   2.076   1.845
    5V3OU    O2 1122   7.224   2.011   1.863
    5V3OU   C10 1123   7.011   2.029   1.757
    5V3OU    C8 1124   7.001   1.895   1.720
    5V3OU   O10 1125   7.087   1.795   1.758
    5V3OU   H26 1126   7.162   1.831   1.807
    5V3OU    C6 1127   6.894   1.849   1.637
    5V3OU    C5 1128   6.800   1.938   1.591
    5V3OU    C4 1129   6.888   1.703   1.610
    5V3OU    H4 1130   6.989   1.667   1.573
    5V3OU    H5 1131   6.869   1.650   1.707
    5V3OU    C2 1132   6.781   1.659   1.509
    5V3OU    O6 1133   6.834   1.658   1.377
    5V3OU   H21 1134   6.849   1.750   1.351
    5V3OU    C3 1135   6.657   1.747   1.517
    5V3OU    H2 1136   6.585   1.716   1.437
    5V3OU    H3 1137   6.607   1.730   1.616
    5V3OU   C25 1138   6.744   1.513   1.540
    5V3OU    O7 1139   6.656   1.487   1.622
    5V3OU   C26 1140   6.817   1.405   1.463
    5V3OU   H22 1141   6.774   1.401   1.359
    5V3OU   H23 1142   6.804   1.306   1.514
    5V3OU    O8 1143   6.956   1.425   1.459
    5V3OU   H24 1144   6.974   1.502   1.403
    5V3OU    C1 1145   6.687   1.896   1.503
    5V3OU    H1 1146   6.595   1.955   1.528
    5V3OU    O3 1147   6.724   1.919   1.365
    5V3OU   C19 1148   6.650   2.021   1.300
    5V3OU    H9 1149   6.633   2.111   1.367
    5V3OU    O4 1150   6.521   1.969   1.278
    5V3OU   C20 1151   6.513   1.864   1.181
    5V3OU   H10 1152   6.568   1.773   1.221
    5V3OU   C24 1153   6.726   2.059   1.173
    5V3OU   H16 1154   6.831   2.087   1.200
    5V3OU   H17 1155   6.675   2.147   1.126
    5V3OU   C23 1156   6.726   1.941   1.075
    5V3OU   H15 1157   6.773   1.853   1.128
    5V3OU    N1 1158   6.796   1.972   0.951
    5V3OU   H19 1159   6.818   1.887   0.902
    5V3OU   H20 1160   6.881   2.022   0.969
    5V3OU   C21 1161   6.579   1.901   1.047
    5V3OU   H11 1162   6.576   1.812   0.979
    5V3OU    O5 1163   6.504   2.007   0.989
    5V3OU   H18 1164   6.554   2.041   0.915
    5V3OU   C22 1165   6.365   1.834   1.164
    5V3OU   H12 1166   6.313   1.923   1.120
    5V3OU   H13 1167   6.319   1.811   1.262
    5V3OU   H14 1168   6.352   1.746   1.096
    5V3OU   C11 1169   6.926   2.265   1.745
    5V3OU    O1 1170   6.875   2.353   1.675
    5V3OU    C9 1171   6.915   2.122   1.709
    5V3OU    C7 1172   6.811   2.077   1.626
    5V3OU    O9 1173   6.714   2.156   1.573
    5V3OU   H25 1174   6.722   2.247   1.603
    5V3OU   C17 1175   7.057   2.445   2.053
    5V3OU    H7 1176   7.042   2.539   2.108
    5V3OU   C18 1177   7.154   2.355   2.096
    5V3OU    H8 1178   7.213   2.377   2.186
    6V3OU   H29 1179   3.857   1.173   3.757
    6V3OU   C27 1180   3.963   1.187   3.792
    6V3OU   H27 1181   4.024   1.235   3.712
    6V3OU   H28 1182   3.964   1.248   3.886
    6V3OU   O11 1183   4.006   1.054   3.817
    6V3OU   C15 1184   4.137   1.039   3.857
    6V3OU   C13 1185   4.181   0.905   3.872
    6V3OU   C14 1186   4.312   0.883   3.917
    6V3OU   C16 1187   4.398   0.989   3.942
    6V3OU    H6 1188   4.502   0.969   3.974
    6V3OU   C12 1189   4.360   0.744   3.938
    6V3OU    O2 1190   4.482   0.720   3.943
    6V3OU   C10 1191   4.258   0.640   3.954
    6V3OU    C8 1192   4.289   0.517   4.014
    6V3OU   O10 1193   4.411   0.481   4.062
    6V3OU   H26 1194   4.478   0.548   4.041
    6V3OU    C6 1195   4.189   0.417   4.033
    6V3OU    C5 1196   4.060   0.440   3.989
    6V3OU    C4 1197   4.230   0.294   4.105
    6V3OU    H4 1198   4.323   0.252   4.057
    6V3OU    H5 1199   4.257   0.322   4.210
    6V3OU    C2 1200   4.124   0.183   4.110
    6V3OU    O6 1201   4.138   0.094   3.999
    6V3OU   H21 1202   4.111   0.143   3.920
    6V3OU    C3 1203   3.982   0.239   4.117
    6V3OU    H2 1204   3.908   0.155   4.113
    6V3OU    H3 1205   3.969   0.292   4.216
    6V3OU   C25 1206   4.152   0.097   4.235
    6V3OU    O7 1207   4.104   0.127   4.344
    6V3OU   C26 1208   4.237  -0.027   4.216
    6V3OU   H22 1209   4.173  -0.106   4.168
    6V3OU   H23 1210   4.274  -0.063   4.316
    6V3OU    O8 1211   4.353  -0.003   4.142
    6V3OU   H24 1212   4.327   0.014   4.050
    6V3OU    C1 1213   3.952   0.338   4.005
    6V3OU    H1 1214   3.854   0.389   4.027
    6V3OU    O3 1215   3.941   0.262   3.883
    6V3OU   C19 1216   3.821   0.283   3.810
    6V3OU    H9 1217   3.790   0.392   3.808
    6V3OU    O4 1218   3.719   0.219   3.883
    6V3OU   C20 1219   3.725   0.075   3.884
    6V3OU   H10 1220   3.818   0.044   3.942
    6V3OU   C24 1221   3.843   0.228   3.669
    6V3OU   H16 1222   3.933   0.277   3.625
    6V3OU   H17 1223   3.753   0.253   3.607
    6V3OU   C23 1224   3.861   0.076   3.674
    6V3OU   H15 1225   3.948   0.055   3.742
    6V3OU    N1 1226   3.881   0.018   3.542
    6V3OU   H19 1227   3.919  -0.074   3.550
    6V3OU   H20 1228   3.943   0.074   3.487
    6V3OU   C21 1229   3.736   0.015   3.743
    6V3OU   H11 1230   3.748  -0.097   3.753
    6V3OU    O5 1231   3.616   0.043   3.674
    6V3OU   H18 1232   3.629   0.020   3.582
    6V3OU   C22 1233   3.599   0.029   3.956
    6V3OU   H12 1234   3.509   0.056   3.895
    6V3OU   H13 1235   3.592   0.077   4.055
    6V3OU   H14 1236   3.603  -0.082   3.968
    6V3OU   C11 1237   4.093   0.791   3.842
    6V3OU    O1 1238   3.997   0.801   3.764
    6V3OU    C9 1239   4.126   0.664   3.908
    6V3OU    C7 1240   4.028   0.564   3.925
    6V3OU    O9 1241   3.899   0.574   3.884
    6V3OU   H25 1242   3.881   0.662   3.846
    6V3OU   C17 1243   4.223   1.146   3.883
    6V3OU    H7 1244   4.190   1.250   3.871
    6V3OU   C18 1245   4.354   1.121   3.925
    6V3OU    H8 1246   4.421   1.204   3.945
    7V3OU   H29 1247   2.559   6.820   3.147
    7V3OU   C27 1248   2.608   6.865   3.238
    7V3OU   H27 1249   2.662   6.959   3.211
    7V3OU   H28 1250   2.531   6.885   3.317
    7V3OU   O11 1251   2.698   6.764   3.279
    7V3OU   C15 1252   2.779   6.794   3.387
    7V3OU   C13 1253   2.875   6.696   3.421
    7V3OU   C14 1254   2.956   6.717   3.533
    7V3OU   C16 1255   2.945   6.834   3.607
    7V3OU    H6 1256   3.012   6.851   3.693
    7V3OU   C12 1257   3.055   6.615   3.573
    7V3OU    O2 1258   3.150   6.645   3.648
    7V3OU   C10 1259   3.035   6.478   3.523
    7V3OU    C8 1260   3.094   6.369   3.586
    7V3OU   O10 1261   3.176   6.374   3.695
    7V3OU   H26 1262   3.196   6.466   3.719
    7V3OU    C6 1263   3.071   6.235   3.539
    7V3OU    C5 1264   2.991   6.215   3.429
    7V3OU    C4 1265   3.133   6.125   3.617
    7V3OU    H4 1266   3.243   6.146   3.631
    7V3OU    H5 1267   3.086   6.124   3.719
    7V3OU    C2 1268   3.119   5.985   3.555
    7V3OU    O6 1269   3.229   5.955   3.471
    7V3OU   H21 1270   3.222   6.012   3.392
    7V3OU    C3 1271   2.987   5.970   3.481
    7V3OU    H2 1272   2.984   5.869   3.431
    7V3OU    H3 1273   2.902   5.974   3.555
    7V3OU   C25 1274   3.126   5.883   3.670
    7V3OU    O7 1275   3.025   5.850   3.731
    7V3OU   C26 1276   3.262   5.822   3.700
    7V3OU   H22 1277   3.284   5.745   3.621
    7V3OU   H23 1278   3.260   5.773   3.801
    7V3OU    O8 1279   3.364   5.917   3.708
    7V3OU   H24 1280   3.380   5.952   3.619
    7V3OU    C1 1281   2.964   6.077   3.375
    7V3OU    H1 1282   2.859   6.071   3.338
    7V3OU    O3 1283   3.056   6.051   3.267
    7V3OU   C19 1284   2.997   6.042   3.138
    7V3OU    H9 1285   2.917   6.121   3.123
    7V3OU    O4 1286   2.927   5.920   3.135
    7V3OU   C20 1287   3.010   5.803   3.136
    7V3OU   H10 1288   3.063   5.796   3.235
    7V3OU   C24 1289   3.109   6.055   3.035
    7V3OU   H16 1290   3.166   6.149   3.053
    7V3OU   H17 1291   3.062   6.059   2.933
    7V3OU   C23 1292   3.203   5.934   3.044
    7V3OU   H15 1293   3.242   5.930   3.149
    7V3OU    N1 1294   3.311   5.939   2.947
    7V3OU   H19 1295   3.383   5.875   2.972
    7V3OU   H20 1296   3.348   6.031   2.941
    7V3OU   C21 1297   3.117   5.805   3.026
    7V3OU   H11 1298   3.182   5.714   3.036
    7V3OU    O5 1299   3.051   5.801   2.900
    7V3OU   H18 1300   3.117   5.819   2.832
    7V3OU   C22 1301   2.914   5.686   3.118
    7V3OU   H12 1302   2.866   5.691   3.017
    7V3OU   H13 1303   2.836   5.688   3.196
    7V3OU   H14 1304   2.971   5.590   3.127
    7V3OU   C11 1305   2.891   6.573   3.341
    7V3OU    O1 1306   2.857   6.567   3.222
    7V3OU    C9 1307   2.952   6.458   3.410
    7V3OU    C7 1308   2.932   6.327   3.362
    7V3OU    O9 1309   2.856   6.294   3.254
    7V3OU   H25 1310   2.814   6.372   3.216
    7V3OU   C17 1311   2.767   6.911   3.463
    7V3OU    H7 1312   2.693   6.988   3.437
    7V3OU   C18 1313   2.851   6.931   3.572
    7V3OU    H8 1314   2.842   7.023   3.631
    8V3OU   H29 1315   2.556   5.165   5.654
    8V3OU   C27 1316   2.467   5.233   5.643
    8V3OU   H27 1317   2.500   5.335   5.610
    8V3OU   H28 1318   2.393   5.190   5.572
    8V3OU   O11 1319   2.414   5.237   5.775
    8V3OU   C15 1320   2.306   5.320   5.796
    8V3OU   C13 1321   2.261   5.330   5.929
    8V3OU   C14 1322   2.148   5.409   5.956
    8V3OU   C16 1323   2.084   5.479   5.854
    8V3OU    H6 1324   1.997   5.543   5.877
    8V3OU   C12 1325   2.095   5.418   6.094
    8V3OU    O2 1326   2.020   5.512   6.126
    8V3OU   C10 1327   2.135   5.313   6.188
    8V3OU    C8 1328   2.061   5.288   6.304
    8V3OU   O10 1329   1.949   5.356   6.343
    8V3OU   H26 1330   1.932   5.432   6.285
    8V3OU    C6 1331   2.097   5.182   6.393
    8V3OU    C5 1332   2.208   5.105   6.367
    8V3OU    C4 1333   2.007   5.159   6.510
    8V3OU    H4 1334   1.991   5.257   6.564
    8V3OU    H5 1335   1.907   5.126   6.471
    8V3OU    C2 1336   2.057   5.056   6.611
    8V3OU    O6 1337   2.135   5.118   6.713
    8V3OU   H21 1338   2.218   5.147   6.673
    8V3OU    C3 1339   2.135   4.943   6.544
    8V3OU    H2 1340   2.177   4.874   6.622
    8V3OU    H3 1341   2.065   4.884   6.479
    8V3OU   C25 1342   1.935   4.997   6.683
    8V3OU    O7 1343   1.874   4.901   6.637
    8V3OU   C26 1344   1.894   5.061   6.815
    8V3OU   H22 1345   1.966   5.026   6.894
    8V3OU   H23 1346   1.789   5.031   6.841
    8V3OU    O8 1347   1.890   5.201   6.808
    8V3OU   H24 1348   1.981   5.233   6.801
    8V3OU    C1 1349   2.250   4.994   6.457
    8V3OU    H1 1350   2.291   4.908   6.397
    8V3OU    O3 1351   2.353   5.044   6.547
    8V3OU   C19 1352   2.482   4.990   6.526
    8V3OU    H9 1353   2.507   4.980   6.416
    8V3OU    O4 1354   2.477   4.857   6.573
    8V3OU   C20 1355   2.464   4.843   6.715
    8V3OU   H10 1356   2.362   4.882   6.746
    8V3OU   C24 1357   2.582   5.080   6.599
    8V3OU   H16 1358   2.569   5.185   6.563
    8V3OU   H17 1359   2.685   5.044   6.574
    8V3OU   C23 1360   2.559   5.072   6.750
    8V3OU   H15 1361   2.452   5.102   6.769
    8V3OU    N1 1362   2.652   5.155   6.825
    8V3OU   H19 1363   2.619   5.169   6.918
    8V3OU   H20 1364   2.664   5.243   6.781
    8V3OU   C21 1365   2.569   4.923   6.793
    8V3OU   H11 1366   2.549   4.913   6.903
    8V3OU    O5 1367   2.697   4.867   6.765
    8V3OU   H18 1368   2.763   4.927   6.800
    8V3OU   C22 1369   2.475   4.694   6.743
    8V3OU   H12 1370   2.578   4.658   6.716
    8V3OU   H13 1371   2.400   4.638   6.683
    8V3OU   H14 1372   2.456   4.675   6.852
    8V3OU   C11 1373   2.329   5.261   6.039
    8V3OU    O1 1374   2.448   5.227   6.032
    8V3OU    C9 1375   2.248   5.234   6.160
    8V3OU    C7 1376   2.285   5.131   6.249
    8V3OU    O9 1377   2.393   5.050   6.234
    8V3OU   H25 1378   2.439   5.068   6.151
    8V3OU   C17 1379   2.241   5.390   5.693
    8V3OU    H7 1380   2.276   5.383   5.589
    8V3OU   C18 1381   2.131   5.470   5.722
    8V3OU    H8 1382   2.080   5.525   5.642
    9V3OU   H29 1383   3.467   6.504   4.927
    9V3OU   C27 1384   3.559   6.454   4.886
    9V3OU   H27 1385   3.538   6.408   4.787
    9V3OU   H28 1386   3.643   6.528   4.879
    9V3OU   O11 1387   3.588   6.355   4.984
    9V3OU   C15 1388   3.695   6.272   4.957
    9V3OU   C13 1389   3.716   6.168   5.051
    9V3OU   C14 1390   3.825   6.083   5.032
    9V3OU   C16 1391   3.910   6.098   4.923
    9V3OU    H6 1392   3.994   6.028   4.908
    9V3OU   C12 1393   3.853   5.975   5.130
    9V3OU    O2 1394   3.925   5.879   5.099
    9V3OU   C10 1395   3.792   5.988   5.263
    9V3OU    C8 1396   3.843   5.919   5.373
    9V3OU   O10 1397   3.948   5.832   5.371
    9V3OU   H26 1398   3.979   5.818   5.280
    9V3OU    C6 1399   3.786   5.935   5.504
    9V3OU    C5 1400   3.678   6.019   5.521
    9V3OU    C4 1401   3.852   5.862   5.615
    9V3OU    H4 1402   3.863   5.753   5.587
    9V3OU    H5 1403   3.955   5.904   5.627
    9V3OU    C2 1404   3.779   5.870   5.750
    9V3OU    O6 1405   3.688   5.762   5.765
    9V3OU   H21 1406   3.615   5.777   5.703
    9V3OU    C3 1407   3.709   6.004   5.769
    9V3OU    H2 1408   3.651   6.002   5.865
    9V3OU    H3 1409   3.787   6.085   5.777
    9V3OU   C25 1410   3.884   5.850   5.861
    9V3OU    O7 1411   3.947   5.946   5.906
    9V3OU   C26 1412   3.903   5.709   5.914
    9V3OU   H22 1413   3.817   5.686   5.982
    9V3OU   H23 1414   4.000   5.703   5.971
    9V3OU    O8 1415   3.915   5.614   5.813
    9V3OU   H24 1416   3.828   5.605   5.770
    9V3OU    C1 1417   3.614   6.039   5.655
    9V3OU    H1 1418   3.581   6.146   5.666
    9V3OU    O3 1419   3.500   5.951   5.666
    9V3OU   C19 1420   3.374   6.015   5.668
    9V3OU    H9 1421   3.369   6.101   5.595
    9V3OU    O4 1422   3.364   6.077   5.795
    9V3OU   C20 1423   3.351   5.987   5.906
    9V3OU   H10 1424   3.447   5.928   5.916
    9V3OU   C24 1425   3.267   5.910   5.640
    9V3OU   H16 1426   3.291   5.859   5.543
    9V3OU   H17 1427   3.168   5.962   5.631
    9V3OU   C23 1428   3.262   5.808   5.754
    9V3OU   H15 1429   3.365   5.763   5.764
    9V3OU    N1 1430   3.161   5.705   5.733
    9V3OU   H19 1431   3.178   5.627   5.794
    9V3OU   H20 1432   3.162   5.674   5.638
    9V3OU   C21 1433   3.237   5.885   5.887
    9V3OU   H11 1434   3.237   5.814   5.973
    9V3OU    O5 1435   3.114   5.957   5.886
    9V3OU   H18 1436   3.045   5.895   5.857
    9V3OU   C22 1437   3.328   6.075   6.027
    9V3OU   H12 1438   3.230   6.128   6.018
    9V3OU   H13 1439   3.409   6.149   6.037
    9V3OU   H14 1440   3.326   6.011   6.119
    9V3OU   C11 1441   3.625   6.147   5.165
    9V3OU    O1 1442   3.508   6.187   5.164
    9V3OU    C9 1443   3.681   6.075   5.281
    9V3OU    C7 1444   3.624   6.089   5.408
    9V3OU    O9 1445   3.517   6.167   5.438
    9V3OU   H25 1446   3.487   6.217   5.360
    9V3OU   C17 1447   3.780   6.288   4.848
    9V3OU    H7 1448   3.764   6.368   4.775
    9V3OU   C18 1449   3.887   6.200   4.830
    9V3OU    H8 1450   3.954   6.212   4.744
   10V3OU   H29 1451   2.966   5.708   1.045
   10V3OU   C27 1452   3.039   5.784   1.084
   10V3OU   H27 1453   3.098   5.827   1.000
   10V3OU   H28 1454   2.985   5.864   1.141
   10V3OU   O11 1455   3.122   5.707   1.171
   10V3OU   C15 1456   3.227   5.774   1.229
   10V3OU   C13 1457   3.314   5.694   1.308
   10V3OU   C14 1458   3.420   5.756   1.374
   10V3OU   C16 1459   3.443   5.893   1.361
   10V3OU    H6 1460   3.529   5.940   1.411
   10V3OU   C12 1461   3.510   5.676   1.460
   10V3OU    O2 1462   3.623   5.720   1.491
   10V3OU   C10 1463   3.461   5.546   1.507
   10V3OU    C8 1464   3.517   5.484   1.619
   10V3OU   O10 1465   3.620   5.532   1.693
   10V3OU   H26 1466   3.658   5.612   1.654
   10V3OU    C6 1467   3.465   5.359   1.667
   10V3OU    C5 1468   3.361   5.298   1.601
   10V3OU    C4 1469   3.527   5.304   1.791
   10V3OU    H4 1470   3.639   5.302   1.779
   10V3OU    H5 1471   3.504   5.375   1.875
   10V3OU    C2 1472   3.480   5.164   1.830
   10V3OU    O6 1473   3.564   5.064   1.773
   10V3OU   H21 1474   3.547   5.064   1.677
   10V3OU    C3 1475   3.334   5.140   1.794
   10V3OU    H2 1476   3.306   5.034   1.817
   10V3OU    H3 1477   3.269   5.208   1.856
   10V3OU   C25 1478   3.498   5.149   1.982
   10V3OU    O7 1479   3.409   5.185   2.060
   10V3OU   C26 1480   3.627   5.087   2.031
   10V3OU   H22 1481   3.620   4.976   2.015
   10V3OU   H23 1482   3.641   5.109   2.141
   10V3OU    O8 1483   3.741   5.140   1.970
   10V3OU   H24 1484   3.741   5.111   1.877
   10V3OU    C1 1485   3.304   5.167   1.647
   10V3OU    H1 1486   3.192   5.167   1.631
   10V3OU    O3 1487   3.365   5.061   1.570
   10V3OU   C19 1488   3.278   4.994   1.481
   10V3OU    H9 1489   3.208   5.065   1.427
   10V3OU    O4 1490   3.193   4.915   1.560
   10V3OU   C20 1491   3.256   4.804   1.626
   10V3OU   H10 1492   3.329   4.844   1.703
   10V3OU   C24 1493   3.365   4.915   1.382
   10V3OU   H16 1494   3.436   4.985   1.333
   10V3OU   H17 1495   3.297   4.870   1.305
   10V3OU   C23 1496   3.440   4.804   1.456
   10V3OU   H15 1497   3.501   4.853   1.537
   10V3OU    N1 1498   3.523   4.725   1.367
   10V3OU   H19 1499   3.590   4.672   1.420
   10V3OU   H20 1500   3.571   4.783   1.302
   10V3OU   C21 1501   3.335   4.715   1.529
   10V3OU   H11 1502   3.388   4.635   1.588
   10V3OU    O5 1503   3.243   4.654   1.439
   10V3OU   H18 1504   3.295   4.613   1.369
   10V3OU   C22 1505   3.143   4.727   1.693
   10V3OU   H12 1506   3.075   4.684   1.616
   10V3OU   H13 1507   3.086   4.793   1.760
   10V3OU   H14 1508   3.187   4.644   1.754
   10V3OU   C11 1509   3.295   5.549   1.320
   10V3OU    O1 1510   3.234   5.483   1.234
   10V3OU    C9 1511   3.353   5.485   1.439
   10V3OU    C7 1512   3.304   5.361   1.485
   10V3OU    O9 1513   3.202   5.291   1.428
   10V3OU   H25 1514   3.164   5.340   1.353
   10V3OU   C17 1515   3.249   5.912   1.217
   10V3OU    H7 1516   3.182   5.974   1.155
   10V3OU   C18 1517   3.357   5.970   1.282
   10V3OU    H8 1518   3.375   6.078   1.272
   11V3OU   H29 1519  -0.199   4.441   4.967
   11V3OU   C27 1520  -0.284   4.470   5.035
   11V3OU   H27 1521  -0.289   4.581   5.044
   11V3OU   H28 1522  -0.380   4.428   4.996
   11V3OU   O11 1523  -0.248   4.410   5.158
   11V3OU   C15 1524  -0.332   4.434   5.265
   11V3OU   C13 1525  -0.290   4.381   5.389
   11V3OU   C14 1526  -0.373   4.397   5.501
   11V3OU   C16 1527  -0.493   4.468   5.490
   11V3OU    H6 1528  -0.555   4.482   5.580
   11V3OU   C12 1529  -0.334   4.340   5.631
   11V3OU    O2 1530  -0.386   4.381   5.737
   11V3OU   C10 1531  -0.234   4.232   5.630
   11V3OU    C8 1532  -0.221   4.144   5.738
   11V3OU   O10 1533  -0.294   4.148   5.853
   11V3OU   H26 1534  -0.351   4.226   5.855
   11V3OU    C6 1535  -0.126   4.037   5.734
   11V3OU    C5 1536  -0.044   4.021   5.625
   11V3OU    C4 1537  -0.125   3.944   5.851
   11V3OU    H4 1538  -0.118   4.005   5.946
   11V3OU    H5 1539  -0.224   3.891   5.854
   11V3OU    C2 1540  -0.013   3.840   5.851
   11V3OU    O6 1541   0.102   3.889   5.919
   11V3OU   H21 1542   0.141   3.960   5.864
   11V3OU    C3 1543   0.023   3.795   5.709
   11V3OU    H2 1544   0.111   3.725   5.714
   11V3OU    H3 1545  -0.064   3.739   5.667
   11V3OU   C25 1546  -0.060   3.720   5.933
   11V3OU    O7 1547  -0.124   3.629   5.880
   11V3OU   C26 1548  -0.022   3.716   6.080
   11V3OU   H22 1549   0.086   3.686   6.087
   11V3OU   H23 1550  -0.086   3.641   6.135
   11V3OU    O8 1551  -0.046   3.837   6.146
   11V3OU   H24 1552   0.018   3.902   6.112
   11V3OU    C1 1553   0.057   3.911   5.616
   11V3OU    H1 1554   0.063   3.873   5.511
   11V3OU    O3 1555   0.185   3.963   5.658
   11V3OU   C19 1556   0.282   3.972   5.555
   11V3OU    H9 1557   0.238   4.010   5.458
   11V3OU    O4 1558   0.322   3.840   5.527
   11V3OU   C20 1559   0.398   3.776   5.630
   11V3OU   H10 1560   0.331   3.761   5.720
   11V3OU   C24 1561   0.394   4.064   5.605
   11V3OU   H16 1562   0.350   4.162   5.636
   11V3OU   H17 1563   0.466   4.080   5.521
   11V3OU   C23 1564   0.467   3.998   5.723
   11V3OU   H15 1565   0.390   3.978   5.803
   11V3OU    N1 1566   0.576   4.080   5.774
   11V3OU   H19 1567   0.603   4.049   5.865
   11V3OU   H20 1568   0.548   4.176   5.779
   11V3OU   C21 1569   0.519   3.859   5.676
   11V3OU   H11 1570   0.569   3.806   5.762
   11V3OU    O5 1571   0.610   3.868   5.568
   11V3OU   H18 1572   0.676   3.934   5.592
   11V3OU   C22 1573   0.441   3.642   5.572
   11V3OU   H12 1574   0.511   3.658   5.487
   11V3OU   H13 1575   0.353   3.585   5.537
   11V3OU   H14 1576   0.493   3.582   5.652
   11V3OU   C11 1577  -0.161   4.310   5.403
   11V3OU    O1 1578  -0.067   4.329   5.325
   11V3OU    C9 1579  -0.150   4.216   5.517
   11V3OU    C7 1580  -0.056   4.112   5.515
   11V3OU    O9 1581   0.031   4.087   5.413
   11V3OU   H25 1582   0.016   4.148   5.339
   11V3OU   C17 1583  -0.453   4.503   5.254
   11V3OU    H7 1584  -0.485   4.545   5.158
   11V3OU   C18 1585  -0.532   4.521   5.367
   11V3OU    H8 1586  -0.627   4.576   5.359
   12V3OU   H29 1587   2.098   5.645   2.246
   12V3OU   C27 1588   2.094   5.602   2.142
   12V3OU   H27 1589   2.071   5.493   2.146
   12V3OU   H28 1590   2.019   5.657   2.080
   12V3OU   O11 1591   2.226   5.624   2.094
   12V3OU   C15 1592   2.254   5.575   1.967
   12V3OU   C13 1593   2.388   5.590   1.925
   12V3OU   C14 1594   2.422   5.547   1.796
   12V3OU   C16 1595   2.327   5.488   1.713
   12V3OU    H6 1596   2.356   5.452   1.613
   12V3OU   C12 1597   2.561   5.564   1.746
   12V3OU    O2 1598   2.601   5.497   1.649
   12V3OU   C10 1599   2.645   5.663   1.815
   12V3OU    C8 1600   2.758   5.717   1.753
   12V3OU   O10 1601   2.803   5.685   1.629
   12V3OU   H26 1602   2.752   5.612   1.590
   12V3OU    C6 1603   2.837   5.816   1.819
   12V3OU    C5 1604   2.803   5.858   1.945
   12V3OU    C4 1605   2.951   5.873   1.742
   12V3OU    H4 1606   3.014   5.788   1.701
   12V3OU    H5 1607   2.910   5.928   1.653
   12V3OU    C2 1608   3.043   5.967   1.820
   12V3OU    O6 1609   3.150   5.896   1.881
   12V3OU   H21 1610   3.112   5.842   1.952
   12V3OU    C3 1611   2.965   6.048   1.924
   12V3OU    H2 1612   3.037   6.110   1.984
   12V3OU    H3 1613   2.895   6.118   1.870
   12V3OU   C25 1614   3.109   6.063   1.720
   12V3OU    O7 1615   3.054   6.167   1.686
   12V3OU   C26 1616   3.246   6.024   1.667
   12V3OU   H22 1617   3.321   6.045   1.747
   12V3OU   H23 1618   3.270   6.083   1.575
   12V3OU    O8 1619   3.252   5.890   1.625
   12V3OU   H24 1620   3.248   5.834   1.705
   12V3OU    C1 1621   2.883   5.961   2.019
   12V3OU    H1 1622   2.815   6.027   2.079
   12V3OU    O3 1623   2.977   5.894   2.106
   12V3OU   C19 1624   2.951   5.909   2.245
   12V3OU    H9 1625   2.841   5.902   2.269
   12V3OU    O4 1626   2.986   6.042   2.277
   12V3OU   C20 1627   3.126   6.071   2.272
   12V3OU   H10 1628   3.160   6.064   2.164
   12V3OU   C24 1629   3.032   5.802   2.319
   12V3OU   H16 1630   3.005   5.702   2.277
   12V3OU   H17 1631   3.004   5.807   2.427
   12V3OU   C23 1632   3.182   5.829   2.303
   12V3OU   H15 1633   3.204   5.830   2.192
   12V3OU    N1 1634   3.264   5.731   2.372
   12V3OU   H19 1635   3.358   5.735   2.339
   12V3OU   H20 1636   3.227   5.639   2.359
   12V3OU   C21 1637   3.211   5.973   2.354
   12V3OU   H11 1638   3.319   5.997   2.339
   12V3OU    O5 1639   3.177   5.990   2.491
   12V3OU   H18 1640   3.217   5.917   2.540
   12V3OU   C22 1641   3.140   6.214   2.323
   12V3OU   H12 1642   3.110   6.219   2.431
   12V3OU   H13 1643   3.076   6.282   2.265
   12V3OU   H14 1644   3.246   6.246   2.313
   12V3OU   C11 1645   2.491   5.648   2.012
   12V3OU    O1 1646   2.481   5.647   2.135
   12V3OU    C9 1647   2.609   5.706   1.945
   12V3OU    C7 1648   2.689   5.802   2.010
   12V3OU    O9 1649   2.666   5.850   2.135
   12V3OU   H25 1650   2.585   5.813   2.173
   12V3OU   C17 1651   2.158   5.517   1.884
   12V3OU    H7 1652   2.054   5.505   1.917
   12V3OU   C18 1653   2.195   5.472   1.757
   12V3OU    H8 1654   2.120   5.427   1.692
