;----------------------------TITLE -----------------------------------------------------------------------------------------
;   Doxorubicin
;
; This file was generated at 23:56 on 2017-10-27 by
;
;                  Automatic Topology Builder  
;
;                   REVISION 2017-10-25 13:58:55
;---------------------------------------------------------------------------------------------------------------------------
; Authors     : Alpeshkumar K. Malde, Le Zuo, Matthew Breeze, Martin Stroet, Alan E. Mark
;
; Institute   : Molecular Dynamics group, 
;               School of Chemistry and Molecular Biosciences (SCMB),
;               The University of Queensland, QLD 4072, Australia
; URL         : http://compbio.biosci.uq.edu.au/atb
; Citation    : Malde AK, Zuo L, Breeze M, Stroet M, Poger D, Nair PC, Oostenbrink C, Mark AE.
;               An Automated force field Topology Builder (ATB) and repository: version 1.0.
;               Journal of Chemical Theory and Computation, 2011, 7(12), 4026-4037.
;               http://pubs.acs.org/doi/abs/10.1021/ct200196m
;
; Disclaimer  : 
;      While every effort has been made to ensure the accuracy and validity of parameters provided below
;      the assignment of parameters is being based on an automated procedure combining data provided by a
;      given user as well as calculations performed using third party software. They are provided as a guide.
;      The authors of the ATB cannot guarantee that the parameters are complete or that the parameters provided
;      are appropriate for use in any specific application. Users are advised to treat these parameters with discretion
;      and to perform additional validation tests for their specific application if required. Neither the authors
;      of the ATB or The University of Queensland except any responsibly for how the parameters may be used.
;
; Release notes and warnings: 
;  (1) The topology is based on a set of atomic coordinates and other data provided by the user after
;      after quantum mechanical optimization of the structure using different levels of theory depending on
;      the nature of the molecule.
;  (2) In some cases the automatic bond, bond angle and dihedral type assignment is ambiguous.
;      In these cases alternative type codes are provided at the end of the line.
;  (3) While bonded parameters are taken where possible from the nominated force field non-standard bond, angle and dihedral
;      type code may be incorporated in cases where an exact match could not be found. These are marked as "non-standard"
;      or "uncertain" in comments.
;  (4) In some cases it is not possible to assign an appropriate parameter automatically. "%%" is used as a place holder
;      for those fields that could not be determined automatically. The parameters in these fields must be assigned manually
;      before the file can be used.
;---------------------------------------------------------------------------------------------------------------------------
; Input Structure : V3OU
; Output          : ALL ATOM topology
;	Use in conjunction with the corresponding all atom PDB file.
;---------------------------------------------------------------------------------------------------------------------------
; Citing this topology file
; ATB molid: 34607
; ATB Topology Hash: 577c2
;---------------------------------------------------------------------------------------------------------------------------
; Initial Guess Topology Generation:
; The topology was generated from AM1 optimized geometry and MOPAC charges.
; Bonded and van der Waals parameters were taken from the GROMOS 54A7 parameter set.
;---------------------------------------------------------------------------------------------------------------------------
;
;
[ moleculetype ]
; Name   nrexcl
V3OU     3
[ atoms ]
;  nr  type  resnr  resid  atom  cgnr  charge    mass    total_charge
    1    HC    1    V3OU    H29    1    0.124742   1.0080
    2     C    1    V3OU    C27    1   -0.109581  12.0110
    3    HC    1    V3OU    H27    1    0.095977   1.0080
    4    HC    1    V3OU    H28    1    0.095736   1.0080
    5    OE    1    V3OU    O11    1   -0.273127  15.9994     ;  0.000
    6     C    1    V3OU    C15    2    0.466870  12.0110
    7     C    1    V3OU    C13    2   -0.363417  12.0110     ;  0.000
    8     C    1    V3OU    C14    3    0.053032  12.0110
    9     C    1    V3OU    C16    3   -0.189820  12.0110
   10    HC    1    V3OU     H6    3    0.160979   1.0080     ;  0.000
   11     C    1    V3OU    C12    4    0.581036  12.0110
   12     O    1    V3OU     O2    4   -0.614349  15.9994
   13     C    1    V3OU    C10    4   -0.286432  12.0110
   14     C    1    V3OU     C8    4    0.459978  12.0110
   15    OA    1    V3OU    O10    4   -0.650645  15.9994
   16     H    1    V3OU    H26    4    0.491121   1.0080     ;  0.000
   17     C    1    V3OU     C6    5    0.024958  12.0110
   18     C    1    V3OU     C5    5   -0.406886  12.0110
   19     C    1    V3OU     C4    5   -0.241805  12.0110
   20    HC    1    V3OU     H4    5    0.107068   1.0080
   21    HC    1    V3OU     H5    5    0.127745   1.0080     ;  0.000
   22     C    1    V3OU     C2    6    0.628583  12.0110
   23    OA    1    V3OU     O6    6   -0.798304  15.9994
   24     H    1    V3OU    H21    6    0.491600   1.0080
   25     C    1    V3OU     C3    6   -0.608377  12.0110
   26    HC    1    V3OU     H2    6    0.194033   1.0080
   27    HC    1    V3OU     H3    6    0.158670   1.0080     ;  0.000
   28     C    1    V3OU    C25    7    0.380734  12.0110
   29     O    1    V3OU     O7    7   -0.557336  15.9994     ;  0.000
   30     C    1    V3OU    C26    8    0.243351  12.0110
   31    HC    1    V3OU    H22    8    0.010307   1.0080
   32    HC    1    V3OU    H23    8    0.060690   1.0080
   33    OA    1    V3OU     O8    8   -0.704925  15.9994
   34     H    1    V3OU    H24    8    0.435838   1.0080     ;  0.000
   35     C    1    V3OU     C1    9    0.638495  12.0110
   36    HC    1    V3OU     H1    9    0.040124   1.0080
   37    OE    1    V3OU     O3    9   -0.533045  15.9994
   38     C    1    V3OU    C19    9    0.326014  12.0110
   39    HC    1    V3OU     H9    9    0.124264   1.0080
   40    OE    1    V3OU     O4    9   -0.567865  15.9994
   41     C    1    V3OU    C20    9    0.472537  12.0110
   42    HC    1    V3OU    H10    9   -0.068979   1.0080     ;  0.000
   43     C    1    V3OU    C24   10   -0.295964  12.0110
   44    HC    1    V3OU    H16   10    0.110959   1.0080
   45    HC    1    V3OU    H17   10    0.113534   1.0080
   46     C    1    V3OU    C23   10    0.473206  12.0110
   47    HC    1    V3OU    H15   10   -0.045478   1.0080
   48    NT    1    V3OU     N1   10   -1.067142  14.0067
   49     H    1    V3OU    H19   10    0.397391   1.0080
   50     H    1    V3OU    H20   10    0.393297   1.0080     ;  0.000
   51     C    1    V3OU    C21   11    0.198572  12.0110
   52    HC    1    V3OU    H11   11    0.016772   1.0080
   53    OA    1    V3OU     O5   11   -0.703286  15.9994
   54     H    1    V3OU    H18   11    0.408197   1.0080     ;  0.000
   55     C    1    V3OU    C22   12   -0.348804  12.0110
   56    HC    1    V3OU    H12   12    0.104606   1.0080
   57    HC    1    V3OU    H13   12    0.095556   1.0080
   58    HC    1    V3OU    H14   12    0.091123   1.0080     ; -0.000
   59     C    1    V3OU    C11   13    0.710350  12.0110
   60     O    1    V3OU     O1   13   -0.661708  15.9994
   61     C    1    V3OU     C9   13   -0.378936  12.0110
   62     C    1    V3OU     C7   13    0.562840  12.0110
   63    OA    1    V3OU     O9   13   -0.695193  15.9994
   64     H    1    V3OU    H25   13    0.518746   1.0080     ;  0.000
   65     C    1    V3OU    C17   14   -0.253800  12.0110
   66    HC    1    V3OU     H7   14    0.171513   1.0080
   67     C    1    V3OU    C18   14   -0.100207  12.0110
   68    HC    1    V3OU     H8   14    0.164268   1.0080     ; -0.000
; total charge of the molecule:   0.000
[ bonds ]
;  ai   aj  funct   c0         c1
    1    2    2   0.1120   3.7000e+07
    2    3    2   0.1120   3.7000e+07
    2    4    2   0.1120   3.7000e+07
    2    5    2   0.1430   8.1800e+06
    5    6    2   0.1380   1.1000e+07
    6    7    2   0.1410   6.5389e+06
    6   65    2   0.1410   6.5389e+06
    7    8    2   0.1400   8.5400e+06
    7   59    2   0.1470   8.7100e+06
    8    9    2   0.1390   8.6600e+06
    8   11    2   0.1480   5.7300e+06
    9   10    2   0.1100   1.2100e+07
    9   67    2   0.1390   8.6600e+06
   11   12    2   0.1250   1.3400e+07
   11   13    2   0.1470   8.7100e+06
   13   14    2   0.1390   8.6600e+06
   13   61    2   0.1420   3.2236e+06
   14   15    2   0.1360   1.0200e+07
   14   17    2   0.1430   8.1800e+06
   15   16    2   0.0971   7.9547e+06
   17   18    2   0.1390   8.6600e+06
   17   19    2   0.1490   1.4189e+07
   18   35    2   0.1500   8.3700e+06
   18   62    2   0.1430   8.1800e+06
   19   20    2   0.1130   7.0483e+06
   19   21    2   0.1130   7.0483e+06
   19   22    2   0.1530   7.1500e+06
   22   23    2   0.1430   8.1800e+06
   22   25    2   0.1530   7.1500e+06
   22   28    2   0.1530   7.1500e+06
   23   24    2   0.0971   7.9547e+06
   25   26    2   0.1120   3.7000e+07
   25   27    2   0.1120   3.7000e+07
   25   35    2   0.1520   5.4300e+06
   28   29    2   0.1230   1.6600e+07
   28   30    2   0.1520   5.4300e+06
   30   31    2   0.1120   3.7000e+07
   30   32    2   0.1120   3.7000e+07
   30   33    2   0.1410   6.5389e+06
   33   34    2   0.0971   7.9547e+06
   35   36    2   0.1130   7.0483e+06
   35   37    2   0.1430   8.1800e+06
   37   38    2   0.1430   8.1800e+06
   38   39    2   0.1130   7.0483e+06
   38   40    2   0.1410   6.5389e+06
   38   43    2   0.1530   7.1500e+06
   40   41    2   0.1430   8.1800e+06
   41   42    2   0.1130   7.0483e+06
   41   51    2   0.1530   7.1500e+06
   41   55    2   0.1520   5.4300e+06
   43   44    2   0.1120   3.7000e+07
   43   45    2   0.1120   3.7000e+07
   43   46    2   0.1530   7.1500e+06
   46   47    2   0.1140   3.8473e+07
   46   48    2   0.1450   5.2319e+06
   46   51    2   0.1560   3.0819e+06
   48   49    2   0.1000   1.8700e+07
   48   50    2   0.1000   1.8700e+07
   51   52    2   0.1130   7.0483e+06
   51   53    2   0.1420   3.2236e+06
   53   54    2   0.0971   7.9547e+06
   55   56    2   0.1120   3.7000e+07
   55   57    2   0.1120   3.7000e+07
   55   58    2   0.1120   3.7000e+07
   59   60    2   0.1250   1.3400e+07
   59   61    2   0.1480   5.7300e+06
   61   62    2   0.1390   8.6600e+06
   62   63    2   0.1380   1.1000e+07
   63   64    2   0.0971   7.9547e+06
   65   66    2   0.1090   1.2300e+07
   65   67    2   0.1390   8.6600e+06
   67   68    2   0.1100   1.2100e+07
[ pairs ]
;  ai   aj  funct  ;  all 1-4 pairs but the ones excluded in GROMOS itp
    1    6    1
    2    7    1
    2   65    1
    3    6    1
    4    6    1
    5    8    1
    5   59    1
    5   66    1
    5   67    1
    6   11    1
    6   60    1
    6   68    1
    7   10    1
    7   12    1
    7   66    1
    8   60    1
    8   68    1
    9   12    1
    9   59    1
    9   66    1
   10   11    1
   10   65    1
   10   68    1
   11   15    1
   11   17    1
   11   59    1
   11   62    1
   11   67    1
   12   14    1
   12   61    1
   13   16    1
   13   19    1
   13   60    1
   13   63    1
   14   20    1
   14   21    1
   14   22    1
   14   35    1
   14   59    1
   15   18    1
   15   19    1
   15   61    1
   16   17    1
   17   23    1
   17   25    1
   17   28    1
   17   36    1
   17   37    1
   17   63    1
   18   20    1
   18   21    1
   18   22    1
   18   26    1
   18   27    1
   18   38    1
   18   59    1
   18   64    1
   19   24    1
   19   26    1
   19   27    1
   19   29    1
   19   30    1
   19   35    1
   19   62    1
   20   23    1
   20   25    1
   20   28    1
   21   23    1
   21   25    1
   21   28    1
   22   31    1
   22   32    1
   22   33    1
   22   36    1
   22   37    1
   23   26    1
   23   27    1
   23   29    1
   23   30    1
   23   35    1
   24   25    1
   24   28    1
   25   29    1
   25   30    1
   25   38    1
   25   62    1
   26   28    1
   26   36    1
   26   37    1
   27   28    1
   27   36    1
   27   37    1
   28   34    1
   28   35    1
   29   31    1
   29   32    1
   29   33    1
   31   34    1
   32   34    1
   35   39    1
   35   40    1
   35   43    1
   35   61    1
   35   63    1
   36   38    1
   36   62    1
   37   41    1
   37   44    1
   37   45    1
   37   46    1
   37   62    1
   38   42    1
   38   47    1
   38   48    1
   38   51    1
   38   55    1
   39   41    1
   39   44    1
   39   45    1
   39   46    1
   40   44    1
   40   45    1
   40   46    1
   40   52    1
   40   53    1
   40   56    1
   40   57    1
   40   58    1
   41   43    1
   41   47    1
   41   48    1
   41   54    1
   42   46    1
   42   52    1
   42   53    1
   42   56    1
   42   57    1
   42   58    1
   43   49    1
   43   50    1
   43   52    1
   43   53    1
   44   47    1
   44   48    1
   44   51    1
   45   47    1
   45   48    1
   45   51    1
   46   54    1
   46   55    1
   47   49    1
   47   50    1
   47   52    1
   47   53    1
   48   52    1
   48   53    1
   49   51    1
   50   51    1
   51   56    1
   51   57    1
   51   58    1
   52   54    1
   52   55    1
   53   55    1
   59   63    1
   59   65    1
   60   62    1
   61   64    1
   66   68    1
[ angles ]
;  ai   aj   ak  funct   angle     fc
    1    2    3    2    111.00   530.00
    1    2    4    2    111.00   530.00
    1    2    5    2    103.00   420.00
    3    2    4    2    111.00   530.00
    3    2    5    2    103.00   420.00
    4    2    5    2    103.00   420.00
    2    5    6    2    117.00   635.00
    5    6    7    2    115.00   610.00
    5    6   65    2    126.00   640.00
    7    6   65    2    120.00   560.00
    6    7    8    2    120.00   560.00
    6    7   59    2    120.00   560.00
    8    7   59    2    120.00   560.00
    7    8    9    2    120.00   560.00
    7    8   11    2    120.00   560.00
    9    8   11    2    120.00   560.00
    8    9   10    2    120.00   505.00
    8    9   67    2    120.00   560.00
   10    9   67    2    120.00   505.00
    8   11   12    2    121.00   685.00
    8   11   13    2    120.00   560.00
   12   11   13    2    121.00   685.00
   11   13   14    2    120.00   560.00
   11   13   61    2    120.00   560.00
   14   13   61    2    120.00   560.00
   13   14   15    2    126.00   640.00
   13   14   17    2    120.00   560.00
   15   14   17    2    115.00   610.00
   14   15   16    2    109.50   450.00
   14   17   18    2    120.00   560.00
   14   17   19    2    120.00   560.00
   18   17   19    2    126.00   640.00
   17   18   35    2    120.00   560.00
   17   18   62    2    120.00   560.00
   35   18   62    2    120.00   560.00
   17   19   20    2    109.50   285.00
   17   19   21    2    107.57   484.00
   17   19   22    2    111.00   530.00
   20   19   21    2    106.75   503.00
   20   19   22    2    108.53   443.00
   21   19   22    2    109.00  1680.51
   19   22   23    2    111.00   530.00
   19   22   25    2    111.00   530.00
   19   22   28    2    109.50   520.00
   23   22   25    2    111.00   530.00
   23   22   28    2    109.50   520.00
   25   22   28    2    109.50   520.00
   22   23   24    2    109.50   450.00
   22   25   26    2    109.00  1680.51
   22   25   27    2    108.53   443.00
   22   25   35    2    111.00   530.00
   26   25   27    2    108.53   443.00
   26   25   35    2    108.53   443.00
   27   25   35    2    109.00  1680.51
   22   28   29    2    121.00   685.00
   22   28   30    2    120.00   560.00
   29   28   30    2    121.00   685.00
   28   30   31    2    107.60   507.00
   28   30   32    2    110.00  4763.46
   28   30   33    2    111.00   530.00
   31   30   32    2    110.30   524.00
   31   30   33    2    111.00   530.00
   32   30   33    2    104.00   490.00
   30   33   34    2    109.50   450.00
   18   35   25    2    111.00   530.00
   18   35   36    2    109.50   285.00
   18   35   37    2    109.50   520.00
   25   35   36    2    109.00  1680.51
   25   35   37    2    109.50   520.00
   36   35   37    2    110.30   524.00
   35   37   38    2    115.00    50.00
   37   38   39    2    111.40   532.00
   37   38   40    2    106.00  1733.55
   37   38   43    2    109.50   520.00
   39   38   40    2    104.00   490.00
   39   38   43    2    111.40   532.00
   40   38   43    2    115.00   610.00
   38   40   41    2    116.00   465.00
   40   41   42    2    108.00   465.00
   40   41   51    2    111.00   530.00
   40   41   55    2    109.50   520.00
   42   41   51    2    107.60   507.00
   42   41   55    2    111.00   530.00
   51   41   55    2    111.00   530.00
   38   43   44    2    109.00  1680.51
   38   43   45    2    107.60   507.00
   38   43   46    2    111.00   530.00
   44   43   45    2    109.00  1680.51
   44   43   46    2    111.00   530.00
   45   43   46    2    109.60   450.00
   43   46   47    2    107.00  2726.16
   43   46   48    2    111.00   530.00
   43   46   51    2    109.50   520.00
   47   46   48    2    111.30   632.00
   47   46   51    2    106.00  1733.55
   48   46   51    2    111.00   530.00
   46   48   49    2    109.50   425.00
   46   48   50    2    109.50   425.00
   49   48   50    2    109.60   450.00
   41   51   46    2    109.50   520.00
   41   51   52    2    108.53   443.00
   41   51   53    2    109.50   520.00
   46   51   52    2    109.60   450.00
   46   51   53    2    111.00   530.00
   52   51   53    2    109.00  1680.51
   51   53   54    2    109.50   450.00
   41   55   56    2    110.00  4763.46
   41   55   57    2    110.00  4763.46
   41   55   58    2    110.00  4763.46
   56   55   57    2    109.50   285.00
   56   55   58    2    109.50   285.00
   57   55   58    2    109.50   285.00
    7   59   60    2    121.00   685.00
    7   59   61    2    120.00   560.00
   60   59   61    2    121.00   685.00
   13   61   59    2    120.00   560.00
   13   61   62    2    120.00   560.00
   59   61   62    2    120.00   560.00
   18   62   61    2    120.00   560.00
   18   62   63    2    115.00   610.00
   61   62   63    2    126.00   640.00
   62   63   64    2    109.50   450.00
    6   65   66    2    120.00   505.00
    6   65   67    2    120.00   560.00
   66   65   67    2    120.00   505.00
    9   67   65    2    120.00   560.00
    9   67   68    2    120.00   505.00
   65   67   68    2    120.00   505.00
[ dihedrals ]
; GROMOS improper dihedrals
;  ai   aj   ak   al  funct   angle     fc
   18   35   17   62    2      0.00   167.36
   17   19   18   14    2      0.00   167.36
   62   18   61   63    2      0.00   167.36
   14   17   13   15    2      0.00   167.36
   61   62   13   59    2      0.00   167.36
   13   14   61   11    2      0.00   167.36
   59   60   61    7    2      0.00   167.36
   11   12   13    8    2      0.00   167.36
    7   59    8    6    2      0.00   167.36
    8   11    7    9    2      0.00   167.36
    6    7   65    5    2      0.00   167.36
    9    8   67   10    2      0.00   167.36
   65    6   67   66    2      0.00   167.36
   67    9   65   68    2      0.00   167.36
   28   22   29   30    2      0.00   167.36
[ dihedrals ]
;  ai   aj   ak   al  funct    ph0      cp     mult
    3    2    5    6    1      0.00     1.26    3
    2    5    6    7    1    180.00    24.00    2
   65    6    7    8    1    180.00    41.80    2
    7    6   65   67    1    180.00    41.80    2
    6    7    8    9    1    180.00    41.80    2
    8    7   59   60    1    180.00     5.86    2
    7    8    9   67    1    180.00    41.80    2
    7    8   11   12    1    180.00     5.86    2
    8    9   67   65    1    180.00    41.80    2
   12   11   13   14    1    180.00     5.86    2
   61   13   14   17    1    180.00    41.80    2
   14   13   61   62    1    180.00    41.80    2
   17   14   15   16    1    180.00    16.70    2
   13   14   17   18    1    180.00    41.80    2
   14   17   18   62    1    180.00    41.80    2
   18   17   19   22    1    180.00     1.00    6
   17   18   35   25    1      0.00     1.00    6
   17   18   62   61    1    180.00    41.80    2
   17   19   22   25    1      0.00     5.92    3
   25   22   23   24    1      0.00     1.26    3
   19   22   25   35    1      0.00     5.92    3
   25   22   28   29    1      0.00     1.00    6
   22   25   35   18    1      0.00     5.92    3
   22   28   30   33    1    180.00     1.00    6
   28   30   33   34    1      0.00     1.26    3
   25   35   37   38    1    180.00     1.00    3
   35   37   38   40    1      0.00     1.26    3
   37   38   40   41    1      0.00     1.26    3
   37   38   43   46    1      0.00     5.92    3
   38   40   41   51    1      0.00     1.26    3
   40   41   51   46    1      0.00     5.92    3
   40   41   55   56    1      0.00     5.92    3
   38   43   46   51    1      0.00     5.92    3
   51   46   48   49    1      0.00     3.77    6
   43   46   51   41    1      0.00     5.92    3
   41   51   53   54    1      0.00     1.26    3
   60   59   61   62    1    180.00     5.86    2
   13   61   62   18    1    180.00    41.80    2
   18   62   63   64    1    180.00    16.70    2
    6   65   67    9    1    180.00    41.80    2
[ exclusions ]
;  ai   aj  funct  ;  GROMOS 1-4 exclusions
    6    9
    6   61
    7   13
    7   62
    7   67
    8   14
    8   61
    8   65
    9   13
   13   18
   14   62
   17   61

#ifdef STRONG_POSRES
#include "strong_posre.itp"
#endif
