CNT in water
33548
    1C        C    1   2.248   4.536   3.288
    1C        C    2   2.122   4.530   3.210
    1C        C    3   1.999   4.537   3.285
    1C        C    4   2.752   4.527   3.299
    1C        C    5   2.627   4.517   3.225
    1C        C    6   2.500   4.531   3.295
    1C        C    7   2.378   4.472   3.082
    1C        C    8   2.375   4.519   3.220
    1C        C    9   2.254   4.449   3.010
    1C        C   10   2.125   4.490   3.069
    1C        C   11   2.016   4.426   2.855
    1C        C   12   2.018   4.507   2.972
    1C        C   13   3.256   4.535   3.305
    1C        C   14   3.131   4.518   3.232
    1C        C   15   3.004   4.529   3.303
    1C        C   16   2.881   4.470   3.090
    1C        C   17   2.879   4.514   3.229
    1C        C   18   2.756   4.444   3.020
    1C        C   19   2.630   4.472   3.086
    1C        C   20   2.506   4.369   2.891
    1C        C   21   2.505   4.445   3.016
    1C        C   22   2.381   4.327   2.830
    1C        C   23   2.255   4.372   2.885
    1C        C   24   2.128   4.238   2.714
    1C        C   25   2.130   4.349   2.811
    1C        C   26   2.007   4.183   2.658
    1C        C   27   3.761   4.545   3.308
    1C        C   28   3.635   4.529   3.235
    1C        C   29   3.508   4.541   3.306
    1C        C   30   3.385   4.473   3.097
    1C        C   31   3.383   4.523   3.234
    1C        C   32   3.260   4.442   3.029
    1C        C   33   3.133   4.469   3.095
    1C        C   34   3.010   4.370   2.897
    1C        C   35   3.008   4.444   3.024
    1C        C   36   2.885   4.327   2.836
    1C        C   37   2.758   4.368   2.895
    1C        C   38   2.633   4.222   2.731
    1C        C   39   2.633   4.326   2.834
    1C        C   40   2.508   4.167   2.682
    1C        C   41   2.381   4.222   2.729
    1C        C   42   2.255   4.050   2.593
    1C        C   43   2.255   4.173   2.674
    1C        C   44   2.128   3.991   2.547
    1C        C   45   2.009   4.070   2.572
    1C        C   46   4.266   4.542   3.314
    1C        C   47   4.141   4.532   3.240
    1C        C   48   4.014   4.549   3.310
    1C        C   49   3.890   4.484   3.099
    1C        C   50   3.888   4.535   3.236
    1C        C   51   3.765   4.449   3.033
    1C        C   52   3.638   4.477   3.099
    1C        C   53   3.514   4.364   2.910
    1C        C   54   3.512   4.444   3.032
    1C        C   55   3.389   4.319   2.850
    1C        C   56   3.262   4.364   2.905
    1C        C   57   3.138   4.223   2.737
    1C        C   58   3.137   4.326   2.840
    1C        C   59   3.012   4.168   2.687
    1C        C   60   2.886   4.224   2.733
    1C        C   61   2.760   4.047   2.602
    1C        C   62   2.760   4.169   2.682
    1C        C   63   2.634   3.983   2.564
    1C        C   64   2.508   4.046   2.601
    1C        C   65   2.381   3.849   2.506
    1C        C   66   2.381   3.984   2.561
    1C        C   67   2.255   3.780   2.481
    1C        C   68   2.125   3.852   2.495
    1C        C   69   2.014   3.644   2.407
    1C        C   70   2.005   3.777   2.453
    1C        C   71   4.771   4.535   3.322
    1C        C   72   4.646   4.521   3.249
    1C        C   73   4.519   4.535   3.319
    1C        C   74   4.395   4.479   3.106
    1C        C   75   4.393   4.525   3.245
    1C        C   76   4.269   4.450   3.038
    1C        C   77   4.142   4.482   3.103
    1C        C   78   4.018   4.369   2.913
    1C        C   79   4.017   4.453   3.034
    1C        C   80   3.893   4.322   2.855
    1C        C   81   3.766   4.365   2.913
    1C        C   82   3.643   4.221   2.745
    1C        C   83   3.641   4.321   2.852
    1C        C   84   3.517   4.166   2.696
    1C        C   85   3.390   4.218   2.746
    1C        C   86   3.266   4.046   2.610
    1C        C   87   3.265   4.167   2.691
    1C        C   88   3.140   3.982   2.573
    1C        C   89   3.013   4.045   2.608
    1C        C   90   2.888   3.848   2.513
    1C        C   91   2.887   3.983   2.569
    1C        C   92   2.762   3.780   2.483
    1C        C   93   2.635   3.849   2.506
    1C        C   94   2.509   3.637   2.452
    1C        C   95   2.508   3.780   2.481
    1C        C   96   2.383   3.564   2.442
    1C        C   97   2.257   3.636   2.451
    1C        C   98   2.130   3.418   2.442
    1C        C   99   2.132   3.564   2.425
    1C        C  100   2.008   3.343   2.462
    1C        C  101   5.016   4.588   3.325
    1C        C  102   4.901   4.488   3.110
    1C        C  103   4.901   4.534   3.250
    1C        C  104   4.774   4.455   3.042
    1C        C  105   4.647   4.479   3.109
    1C        C  106   4.523   4.370   2.919
    1C        C  107   4.522   4.452   3.040
    1C        C  108   4.398   4.324   2.861
    1C        C  109   4.271   4.369   2.917
    1C        C  110   4.147   4.219   2.755
    1C        C  111   4.145   4.324   2.857
    1C        C  112   4.022   4.166   2.702
    1C        C  113   3.895   4.220   2.750
    1C        C  114   3.771   4.050   2.610
    1C        C  115   3.770   4.168   2.696
    1C        C  116   3.645   3.986   2.573
    1C        C  117   3.518   4.047   2.611
    1C        C  118   3.393   3.849   2.518
    1C        C  119   3.392   3.984   2.572
    1C        C  120   3.267   3.779   2.495
    1C        C  121   3.140   3.848   2.518
    1C        C  122   3.015   3.637   2.458
    1C        C  123   3.014   3.779   2.490
    1C        C  124   2.889   3.565   2.444
    1C        C  125   2.762   3.638   2.450
    1C        C  126   2.636   3.419   2.450
    1C        C  127   2.636   3.565   2.441
    1C        C  128   2.510   3.346   2.456
    1C        C  129   2.384   3.418   2.444
    1C        C  130   2.258   3.201   2.485
    1C        C  131   2.258   3.344   2.449
    1C        C  132   2.130   3.129   2.507
    1C        C  133   2.009   3.204   2.491
    1C        C  134   5.025   4.380   2.920
    1C        C  135   5.021   4.463   3.034
    1C        C  136   4.903   4.329   2.860
    1C        C  137   4.775   4.373   2.920
    1C        C  138   4.651   4.212   2.771
    1C        C  139   4.650   4.325   2.863
    1C        C  140   4.526   4.155   2.724
    1C        C  141   4.399   4.214   2.765
    1C        C  142   4.275   4.039   2.633
    1C        C  143   4.274   4.160   2.713
    1C        C  144   4.150   3.980   2.588
    1C        C  145   4.023   4.047   2.617
    1C        C  146   3.898   3.850   2.520
    1C        C  147   3.898   3.986   2.574
    1C        C  148   3.772   3.779   2.499
    1C        C  149   3.646   3.849   2.521
    1C        C  150   3.520   3.635   2.478
    1C        C  151   3.520   3.779   2.498
    1C        C  152   3.394   3.563   2.469
    1C        C  153   3.267   3.635   2.472
    1C        C  154   3.141   3.418   2.465
    1C        C  155   3.142   3.564   2.455
    1C        C  156   3.015   3.347   2.473
    1C        C  157   2.889   3.419   2.457
    1C        C  158   2.762   3.207   2.508
    1C        C  159   2.762   3.347   2.465
    1C        C  160   2.636   3.138   2.529
    1C        C  161   2.510   3.206   2.499
    1C        C  162   2.383   3.014   2.599
    1C        C  163   2.384   3.136   2.520
    1C        C  164   2.257   2.956   2.639
    1C        C  165   2.131   3.001   2.579
    1C        C  166   2.021   2.798   2.669
    1C        C  167   2.031   2.895   2.564
    1C        C  168   5.015   4.193   2.673
    1C        C  169   4.903   4.225   2.756
    1C        C  170   4.780   4.030   2.650
    1C        C  171   4.778   4.157   2.726
    1C        C  172   4.654   3.968   2.611
    1C        C  173   4.527   4.033   2.645
    1C        C  174   4.402   3.843   2.536
    1C        C  175   4.402   3.974   2.600
    1C        C  176   4.276   3.775   2.509
    1C        C  177   4.150   3.845   2.530
    1C        C  178   4.024   3.634   2.476
    1C        C  179   4.024   3.778   2.501
    1C        C  180   3.898   3.562   2.470
    1C        C  181   3.772   3.635   2.478
    1C        C  182   3.646   3.416   2.473
    1C        C  183   3.646   3.562   2.471
    1C        C  184   3.519   3.344   2.480
    1C        C  185   3.393   3.417   2.473
    1C        C  186   3.266   3.204   2.515
    1C        C  187   3.267   3.345   2.476
    1C        C  188   3.139   3.137   2.540
    1C        C  189   3.014   3.207   2.516
    1C        C  190   2.886   3.006   2.598
    1C        C  191   2.887   3.138   2.536
    1C        C  192   2.760   2.942   2.632
    1C        C  193   2.635   3.007   2.594
    1C        C  194   2.507   2.832   2.724
    1C        C  195   2.508   2.947   2.634
    1C        C  196   2.380   2.784   2.777
    1C        C  197   2.255   2.844   2.733
    1C        C  198   2.124   2.697   2.885
    1C        C  199   2.130   2.773   2.759
    1C        C  200   2.007   2.695   2.968
    1C        C  201   5.016   4.079   2.588
    1C        C  202   4.908   3.846   2.533
    1C        C  203   4.906   3.982   2.592
    1C        C  204   4.781   3.776   2.506
    1C        C  205   4.655   3.840   2.541
    1C        C  206   4.528   3.632   2.476
    1C        C  207   4.529   3.775   2.509
    1C        C  208   4.402   3.560   2.468
    1C        C  209   4.276   3.632   2.480
    1C        C  210   4.150   3.414   2.470
    1C        C  211   4.150   3.560   2.467
    1C        C  212   4.024   3.342   2.481
    1C        C  213   3.898   3.415   2.474
    1C        C  214   3.771   3.200   2.513
    1C        C  215   3.772   3.342   2.478
    1C        C  216   3.644   3.132   2.538
    1C        C  217   3.519   3.202   2.516
    1C        C  218   3.391   2.999   2.595
    1C        C  219   3.392   3.133   2.535
    1C        C  220   3.264   2.936   2.630
    1C        C  221   3.138   3.003   2.599
    1C        C  222   3.011   2.825   2.723
    1C        C  223   3.012   2.940   2.634
    1C        C  224   2.884   2.771   2.771
    1C        C  225   2.758   2.826   2.721
    1C        C  226   2.630   2.677   2.881
    1C        C  227   2.632   2.773   2.770
    1C        C  228   2.504   2.638   2.942
    1C        C  229   2.378   2.686   2.885
    1C        C  230   2.248   2.572   3.070
    1C        C  231   2.250   2.643   2.941
    1C        C  232   2.121   2.555   3.143
    1C        C  233   2.005   2.625   3.091
    1C        C  234   5.030   3.635   2.475
    1C        C  235   5.030   3.771   2.516
    1C        C  236   4.908   3.560   2.459
    1C        C  237   4.781   3.634   2.468
    1C        C  238   4.655   3.415   2.473
    1C        C  239   4.654   3.560   2.462
    1C        C  240   4.529   3.342   2.484
    1C        C  241   4.402   3.414   2.474
    1C        C  242   4.276   3.200   2.517
    1C        C  243   4.276   3.341   2.477
    1C        C  244   4.150   3.131   2.541
    1C        C  245   4.024   3.201   2.519
    1C        C  246   3.896   2.997   2.597
    1C        C  247   3.897   3.130   2.536
    1C        C  248   3.770   2.934   2.633
    1C        C  249   3.644   3.000   2.600
    1C        C  250   3.516   2.821   2.722
    1C        C  251   3.517   2.936   2.634
    1C        C  252   3.389   2.767   2.771
    1C        C  253   3.263   2.821   2.721
    1C        C  254   3.136   2.673   2.881
    1C        C  255   3.136   2.767   2.769
    1C        C  256   3.009   2.632   2.941
    1C        C  257   2.883   2.676   2.882
    1C        C  258   2.755   2.565   3.070
    1C        C  259   2.756   2.632   2.940
    1C        C  260   2.629   2.539   3.137
    1C        C  261   2.503   2.571   3.071
    1C        C  262   2.376   2.503   3.278
    1C        C  263   2.375   2.541   3.137
    1C        C  264   2.250   2.488   3.349
    1C        C  265   2.122   2.499   3.278
    1C        C  266   2.010   2.409   3.483
    1C        C  267   2.010   2.431   3.342
    1C        C  268   5.022   3.330   2.433
    1C        C  269   4.907   3.412   2.460
    1C        C  270   4.782   3.202   2.527
    1C        C  271   4.781   3.342   2.481
    1C        C  272   4.656   3.133   2.550
    1C        C  273   4.529   3.201   2.525
    1C        C  274   4.402   2.999   2.606
    1C        C  275   4.403   3.131   2.543
    1C        C  276   4.275   2.936   2.640
    1C        C  277   4.149   2.999   2.604
    1C        C  278   4.022   2.818   2.724
    1C        C  279   4.023   2.934   2.635
    1C        C  280   3.895   2.763   2.771
    1C        C  281   3.769   2.818   2.722
    1C        C  282   3.641   2.671   2.883
    1C        C  283   3.642   2.764   2.770
    1C        C  284   3.514   2.632   2.944
    1C        C  285   3.388   2.676   2.885
    1C        C  286   3.261   2.565   3.072
    1C        C  287   3.261   2.631   2.942
    1C        C  288   3.134   2.535   3.139
    1C        C  289   3.008   2.565   3.071
    1C        C  290   2.881   2.489   3.276
    1C        C  291   2.881   2.534   3.137
    1C        C  292   2.754   2.471   3.347
    1C        C  293   2.628   2.496   3.277
    1C        C  294   2.502   2.460   3.493
    1C        C  295   2.502   2.483   3.349
    1C        C  296   2.376   2.456   3.566
    1C        C  297   2.251   2.466   3.494
    1C        C  298   2.123   2.456   3.709
    1C        C  299   2.125   2.435   3.564
    1C        C  300   2.003   2.484   3.782
    1C        C  301   5.028   3.196   2.479
    1C        C  302   4.910   3.002   2.615
    1C        C  303   4.911   3.130   2.540
    1C        C  304   4.782   2.937   2.650
    1C        C  305   4.656   3.001   2.612
    1C        C  306   4.527   2.818   2.731
    1C        C  307   4.529   2.935   2.643
    1C        C  308   4.400   2.765   2.779
    1C        C  309   4.274   2.820   2.729
    1C        C  310   4.146   2.670   2.887
    1C        C  311   4.147   2.763   2.774
    1C        C  312   4.019   2.628   2.945
    1C        C  313   3.894   2.670   2.884
    1C        C  314   3.766   2.564   3.074
    1C        C  315   3.767   2.628   2.943
    1C        C  316   3.639   2.539   3.142
    1C        C  317   3.513   2.567   3.074
    1C        C  318   3.386   2.493   3.280
    1C        C  319   3.387   2.535   3.140
    1C        C  320   3.259   2.474   3.350
    1C        C  321   3.133   2.493   3.279
    1C        C  322   3.006   2.452   3.493
    1C        C  323   3.007   2.473   3.348
    1C        C  324   2.880   2.444   3.565
    1C        C  325   2.754   2.449   3.492
    1C        C  326   2.628   2.447   3.712
    1C        C  327   2.628   2.445   3.565
    1C        C  328   2.501   2.457   3.785
    1C        C  329   2.376   2.456   3.712
    1C        C  330   2.249   2.485   3.930
    1C        C  331   2.249   2.460   3.784
    1C        C  332   2.120   2.504   4.001
    1C        C  333   2.000   2.473   3.923
    1C        C  334   5.029   2.820   2.742
    1C        C  335   5.029   2.942   2.672
    1C        C  336   4.906   2.757   2.783
    1C        C  337   4.780   2.816   2.734
    1C        C  338   4.651   2.668   2.892
    1C        C  339   4.653   2.762   2.780
    1C        C  340   4.524   2.627   2.951
    1C        C  341   4.399   2.672   2.891
    1C        C  342   4.271   2.563   3.079
    1C        C  343   4.272   2.628   2.948
    1C        C  344   4.144   2.535   3.145
    1C        C  345   4.018   2.563   3.076
    1C        C  346   3.891   2.498   3.284
    1C        C  347   3.891   2.535   3.142
    1C        C  348   3.764   2.484   3.354
    1C        C  349   3.638   2.501   3.283
    1C        C  350   3.511   2.456   3.496
    1C        C  351   3.512   2.479   3.352
    1C        C  352   3.385   2.447   3.568
    1C        C  353   3.259   2.453   3.494
    1C        C  354   3.132   2.456   3.712
    1C        C  355   3.132   2.447   3.567
    1C        C  356   3.005   2.465   3.784
    1C        C  357   2.880   2.452   3.711
    1C        C  358   2.753   2.503   3.924
    1C        C  359   2.753   2.458   3.784
    1C        C  360   2.626   2.530   3.991
    1C        C  361   2.501   2.498   3.925
    1C        C  362   2.373   2.606   4.114
    1C        C  363   2.375   2.518   3.996
    1C        C  364   2.246   2.651   4.169
    1C        C  365   2.119   2.597   4.115
    1C        C  366   1.996   2.772   4.243
    1C        C  367   1.997   2.653   4.168
    1C        C  368   5.019   2.578   2.932
    1C        C  369   4.903   2.652   2.887
    1C        C  370   4.774   2.554   3.081
    1C        C  371   4.775   2.619   2.949
    1C        C  372   4.648   2.527   3.148
    1C        C  373   4.523   2.561   3.082
    1C        C  374   4.395   2.492   3.288
    1C        C  375   4.396   2.533   3.147
    1C        C  376   4.268   2.479   3.358
    1C        C  377   4.143   2.497   3.286
    1C        C  378   4.015   2.463   3.501
    1C        C  379   4.016   2.482   3.356
    1C        C  380   3.889   2.460   3.572
    1C        C  381   3.763   2.465   3.499
    1C        C  382   3.636   2.464   3.716
    1C        C  383   3.637   2.454   3.570
    1C        C  384   3.509   2.471   3.788
    1C        C  385   3.384   2.458   3.714
    1C        C  386   3.256   2.513   3.925
    1C        C  387   3.257   2.467   3.786
    1C        C  388   3.130   2.542   3.991
    1C        C  389   3.005   2.511   3.923
    1C        C  390   2.877   2.621   4.110
    1C        C  391   2.878   2.536   3.990
    1C        C  392   2.750   2.666   4.166
    1C        C  393   2.625   2.616   4.110
    1C        C  394   2.496   2.773   4.259
    1C        C  395   2.498   2.658   4.168
    1C        C  396   2.369   2.832   4.299
    1C        C  397   2.244   2.769   4.258
    1C        C  398   2.115   2.951   4.382
    1C        C  399   2.116   2.831   4.296
    1C        C  400   1.997   3.003   4.448
    1C        C  401   5.019   2.510   3.057
    1C        C  402   4.901   2.479   3.287
    1C        C  403   4.901   2.509   3.142
    1C        C  404   4.773   2.460   3.358
    1C        C  405   4.647   2.481   3.287
    1C        C  406   4.520   2.445   3.503
    1C        C  407   4.521   2.467   3.358
    1C        C  408   4.393   2.445   3.576
    1C        C  409   4.267   2.457   3.502
    1C        C  410   4.140   2.460   3.720
    1C        C  411   4.141   2.453   3.574
    1C        C  412   4.013   2.473   3.792
    1C        C  413   3.888   2.468   3.718
    1C        C  414   3.760   2.517   3.929
    1C        C  415   3.761   2.476   3.789
    1C        C  416   3.634   2.544   3.996
    1C        C  417   3.508   2.515   3.927
    1C        C  418   3.380   2.622   4.117
    1C        C  419   3.382   2.541   3.994
    1C        C  420   3.254   2.669   4.171
    1C        C  421   3.129   2.624   4.111
    1C        C  422   3.000   2.780   4.261
    1C        C  423   3.002   2.669   4.166
    1C        C  424   2.874   2.836   4.306
    1C        C  425   2.748   2.776   4.261
    1C        C  426   2.620   2.958   4.380
    1C        C  427   2.621   2.832   4.305
    1C        C  428   2.493   3.023   4.410
    1C        C  429   2.368   2.959   4.371
    1C        C  430   2.241   3.153   4.471
    1C        C  431   2.242   3.021   4.408
    1C        C  432   2.115   3.213   4.517
    1C        C  433   1.998   3.128   4.516
    1C        C  434   5.021   2.476   3.507
    1C        C  435   5.021   2.488   3.367
    1C        C  436   4.899   2.451   3.581
    1C        C  437   4.772   2.443   3.505
    1C        C  438   4.644   2.448   3.723
    1C        C  439   4.645   2.437   3.577
    1C        C  440   4.518   2.465   3.795
    1C        C  441   4.392   2.456   3.721
    1C        C  442   4.265   2.518   3.931
    1C        C  443   4.266   2.469   3.794
    1C        C  444   4.139   2.547   3.998
    1C        C  445   4.013   2.518   3.931
    1C        C  446   3.885   2.625   4.120
    1C        C  447   3.886   2.544   3.998
    1C        C  448   3.758   2.672   4.175
    1C        C  449   3.632   2.625   4.117
    1C        C  450   3.504   2.778   4.272
    1C        C  451   3.506   2.668   4.176
    1C        C  452   3.378   2.836   4.315
    1C        C  453   3.252   2.779   4.267
    1C        C  454   3.124   2.960   4.389
    1C        C  455   3.126   2.837   4.310
    1C        C  456   2.997   3.023   4.424
    1C        C  457   2.872   2.959   4.384
    1C        C  458   2.744   3.157   4.475
    1C        C  459   2.745   3.022   4.418
    1C        C  460   2.617   3.226   4.495
    1C        C  461   2.492   3.157   4.467
    1C        C  462   2.364   3.365   4.529
    1C        C  463   2.366   3.223   4.495
    1C        C  464   2.237   3.435   4.544
    1C        C  465   2.111   3.358   4.542
    1C        C  466   1.988   3.574   4.568
    1C        C  467   1.989   3.434   4.549
    1C        C  468   5.014   2.437   3.812
    1C        C  469   4.897   2.448   3.728
    1C        C  470   4.769   2.525   3.930
    1C        C  471   4.769   2.464   3.796
    1C        C  472   4.643   2.558   3.994
    1C        C  473   4.517   2.522   3.930
    1C        C  474   4.390   2.634   4.118
    1C        C  475   4.391   2.551   3.997
    1C        C  476   4.263   2.677   4.176
    1C        C  477   4.138   2.628   4.120
    1C        C  478   4.009   2.781   4.275
    1C        C  479   4.011   2.671   4.178
    1C        C  480   3.882   2.840   4.317
    1C        C  481   3.757   2.783   4.270
    1C        C  482   3.629   2.960   4.396
    1C        C  483   3.630   2.837   4.318
    1C        C  484   3.502   3.024   4.429
    1C        C  485   3.377   2.960   4.392
    1C        C  486   3.249   3.158   4.483
    1C        C  487   3.250   3.024   4.427
    1C        C  488   3.122   3.227   4.507
    1C        C  489   2.996   3.157   4.481
    1C        C  490   2.868   3.367   4.539
    1C        C  491   2.869   3.225   4.506
    1C        C  492   2.742   3.440   4.546
    1C        C  493   2.616   3.368   4.529
    1C        C  494   2.488   3.585   4.544
    1C        C  495   2.489   3.439   4.542
    1C        C  496   2.361   3.657   4.538
    1C        C  497   2.236   3.582   4.543
    1C        C  498   2.107   3.787   4.479
    1C        C  499   2.107   3.654   4.541
    1C        C  500   1.992   3.839   4.409
    1C        C  501   5.012   2.481   3.947
    1C        C  502   4.896   2.646   4.111
    1C        C  503   4.895   2.549   4.001
    1C        C  504   4.768   2.692   4.168
    1C        C  505   4.642   2.644   4.112
    1C        C  506   4.514   2.788   4.275
    1C        C  507   4.516   2.684   4.173
    1C        C  508   4.387   2.841   4.323
    1C        C  509   4.262   2.783   4.276
    1C        C  510   4.133   2.961   4.401
    1C        C  511   4.135   2.838   4.322
    1C        C  512   4.006   3.026   4.434
    1C        C  513   3.881   2.963   4.395
    1C        C  514   3.753   3.160   4.487
    1C        C  515   3.754   3.025   4.432
    1C        C  516   3.627   3.230   4.508
    1C        C  517   3.501   3.160   4.484
    1C        C  518   3.374   3.371   4.541
    1C        C  519   3.374   3.228   4.509
    1C        C  520   3.247   3.442   4.551
    1C        C  521   3.121   3.369   4.537
    1C        C  522   2.993   3.587   4.548
    1C        C  523   2.994   3.441   4.550
    1C        C  524   2.867   3.659   4.540
    1C        C  525   2.741   3.586   4.545
    1C        C  526   2.613   3.802   4.509
    1C        C  527   2.614   3.659   4.541
    1C        C  528   2.486   3.871   4.484
    1C        C  529   2.360   3.799   4.502
    1C        C  530   2.233   3.998   4.408
    1C        C  531   2.233   3.864   4.471
    1C        C  532   2.107   4.053   4.354
    1C        C  533   1.992   3.967   4.351
    1C        C  534   5.016   2.811   4.258
    1C        C  535   5.018   2.706   4.163
    1C        C  536   4.893   2.855   4.321
    1C        C  537   4.767   2.796   4.273
    1C        C  538   4.637   2.962   4.411
    1C        C  539   4.639   2.845   4.324
    1C        C  540   4.510   3.024   4.446
    1C        C  541   4.385   2.962   4.405
    1C        C  542   4.257   3.161   4.492
    1C        C  543   4.258   3.025   4.439
    1C        C  544   4.131   3.231   4.511
    1C        C  545   4.005   3.161   4.489
    1C        C  546   3.879   3.372   4.545
    1C        C  547   3.879   3.229   4.514
    1C        C  548   3.752   3.445   4.554
    1C        C  549   3.626   3.372   4.540
    1C        C  550   3.499   3.590   4.562
    1C        C  551   3.500   3.444   4.555
    1C        C  552   3.372   3.662   4.554
    1C        C  553   3.246   3.588   4.554
    1C        C  554   3.119   3.802   4.511
    1C        C  555   3.119   3.661   4.546
    1C        C  556   2.993   3.871   4.485
    1C        C  557   2.866   3.801   4.506
    1C        C  558   2.740   4.000   4.417
    1C        C  559   2.740   3.872   4.486
    1C        C  560   2.614   4.062   4.377
    1C        C  561   2.487   4.000   4.416
    1C        C  562   2.363   4.173   4.280
    1C        C  563   2.361   4.062   4.375
    1C        C  564   2.238   4.228   4.229
    1C        C  565   2.110   4.177   4.275
    1C        C  566   1.996   4.367   4.159
    1C        C  567   1.995   4.263   4.256
    1C        C  568   5.004   3.004   4.502
    1C        C  569   4.890   2.958   4.426
    1C        C  570   4.760   3.154   4.519
    1C        C  571   4.761   3.021   4.458
    1C        C  572   4.634   3.225   4.538
    1C        C  573   4.509   3.158   4.505
    1C        C  574   4.383   3.372   4.550
    1C        C  575   4.383   3.229   4.523
    1C        C  576   4.257   3.446   4.555
    1C        C  577   4.131   3.374   4.540
    1C        C  578   4.005   3.591   4.558
    1C        C  579   4.005   3.445   4.554
    1C        C  580   3.878   3.664   4.554
    1C        C  581   3.752   3.591   4.559
    1C        C  582   3.625   3.805   4.521
    1C        C  583   3.625   3.664   4.558
    1C        C  584   3.499   3.874   4.494
    1C        C  585   3.372   3.804   4.516
    1C        C  586   3.246   3.999   4.417
    1C        C  587   3.246   3.872   4.490
    1C        C  588   3.120   4.059   4.375
    1C        C  589   2.993   3.998   4.414
    1C        C  590   2.868   4.173   4.282
    1C        C  591   2.867   4.062   4.377
    1C        C  592   2.742   4.227   4.232
    1C        C  593   2.615   4.173   4.282
    1C        C  594   2.491   4.324   4.122
    1C        C  595   2.490   4.227   4.231
    1C        C  596   2.366   4.371   4.064
    1C        C  597   2.240   4.328   4.122
    1C        C  598   2.113   4.447   3.941
    1C        C  599   2.115   4.393   4.078
    1C        C  600   1.992   4.464   3.865
    1C        C  601   5.002   3.129   4.570
    1C        C  602   4.889   3.364   4.565
    1C        C  603   4.886   3.217   4.559
    1C        C  604   4.762   3.440   4.569
    1C        C  605   4.635   3.369   4.560
    1C        C  606   4.510   3.590   4.562
    1C        C  607   4.509   3.444   4.564
    1C        C  608   4.384   3.664   4.555
    1C        C  609   4.258   3.592   4.557
    1C        C  610   4.131   3.808   4.524
    1C        C  611   4.131   3.665   4.555
    1C        C  612   4.005   3.876   4.499
    1C        C  613   3.878   3.805   4.519
    1C        C  614   3.752   4.003   4.427
    1C        C  615   3.752   3.875   4.496
    1C        C  616   3.625   4.064   4.387
    1C        C  617   3.499   4.002   4.424
    1C        C  618   3.373   4.175   4.289
    1C        C  619   3.373   4.062   4.381
    1C        C  620   3.247   4.229   4.238
    1C        C  621   3.121   4.172   4.283
    1C        C  622   2.996   4.327   4.127
    1C        C  623   2.995   4.227   4.233
    1C        C  624   2.870   4.374   4.070
    1C        C  625   2.743   4.326   4.125
    1C        C  626   2.618   4.443   3.940
    1C        C  627   2.618   4.371   4.067
    1C        C  628   2.493   4.472   3.871
    1C        C  629   2.366   4.440   3.936
    1C        C  630   2.241   4.515   3.728
    1C        C  631   2.240   4.476   3.871
    1C        C  632   2.114   4.527   3.654
    1C        C  633   1.992   4.504   3.730
    1C        C  634   5.012   3.577   4.540
    1C        C  635   5.008   3.437   4.532
    1C        C  636   4.891   3.657   4.543
    1C        C  637   4.763   3.587   4.560
    1C        C  638   4.638   3.804   4.521
    1C        C  639   4.637   3.662   4.554
    1C        C  640   4.512   3.876   4.502
    1C        C  641   4.385   3.808   4.526
    1C        C  642   4.258   4.010   4.441
    1C        C  643   4.258   3.879   4.507
    1C        C  644   4.131   4.069   4.397
    1C        C  645   4.005   4.005   4.431
    1C        C  646   3.879   4.177   4.296
    1C        C  647   3.878   4.066   4.391
    1C        C  648   3.753   4.229   4.244
    1C        C  649   3.626   4.176   4.292
    1C        C  650   3.501   4.323   4.129
    1C        C  651   3.500   4.229   4.241
    1C        C  652   3.375   4.372   4.073
    1C        C  653   3.248   4.329   4.131
    1C        C  654   3.124   4.455   3.950
    1C        C  655   3.122   4.377   4.074
    1C        C  656   2.998   4.488   3.883
    1C        C  657   2.871   4.452   3.946
    1C        C  658   2.746   4.517   3.736
    1C        C  659   2.745   4.480   3.877
    1C        C  660   2.621   4.526   3.661
    1C        C  661   2.493   4.510   3.731
    1C        C  662   2.370   4.536   3.512
    1C        C  663   2.368   4.529   3.658
    1C        C  664   2.245   4.537   3.436
    1C        C  665   2.116   4.536   3.507
    1C        C  666   1.996   4.541   3.426
    1C        C  667   5.014   3.872   4.484
    1C        C  668   4.892   3.799   4.509
    1C        C  669   4.764   4.002   4.425
    1C        C  670   4.764   3.872   4.493
    1C        C  671   4.638   4.066   4.390
    1C        C  672   4.511   4.006   4.434
    1C        C  673   4.385   4.178   4.300
    1C        C  674   4.385   4.071   4.399
    1C        C  675   4.258   4.227   4.245
    1C        C  676   4.132   4.176   4.297
    1C        C  677   4.006   4.322   4.133
    1C        C  678   4.006   4.230   4.246
    1C        C  679   3.880   4.365   4.073
    1C        C  680   3.754   4.321   4.130
    1C        C  681   3.629   4.440   3.946
    1C        C  682   3.628   4.366   4.072
    1C        C  683   3.503   4.476   3.881
    1C        C  684   3.376   4.447   3.947
    1C        C  685   3.252   4.525   3.742
    1C        C  686   3.251   4.484   3.883
    1C        C  687   3.126   4.539   3.670
    1C        C  688   2.999   4.526   3.741
    1C        C  689   2.875   4.536   3.520
    1C        C  690   2.873   4.535   3.666
    1C        C  691   2.750   4.530   3.445
    1C        C  692   2.623   4.530   3.516
    1C        C  693   2.497   4.534   3.441
    1C        C  694   5.014   3.991   4.408
    1C        C  695   4.890   4.180   4.294
    1C        C  696   4.891   4.063   4.381
    1C        C  697   4.763   4.230   4.243
    1C        C  698   4.637   4.176   4.295
    1C        C  699   4.510   4.329   4.139
    1C        C  700   4.511   4.231   4.248
    1C        C  701   4.384   4.370   4.078
    1C        C  702   4.258   4.321   4.133
    1C        C  703   4.133   4.443   3.951
    1C        C  704   4.132   4.367   4.075
    1C        C  705   4.007   4.475   3.884
    1C        C  706   3.881   4.439   3.947
    1C        C  707   3.756   4.521   3.744
    1C        C  708   3.755   4.473   3.881
    1C        C  709   3.631   4.538   3.672
    1C        C  710   3.504   4.521   3.742
    1C        C  711   3.380   4.548   3.525
    1C        C  712   3.378   4.541   3.671
    1C        C  713   3.254   4.542   3.451
    1C        C  714   3.127   4.542   3.523
    1C        C  715   3.002   4.535   3.449
    1C        C  716   5.005   4.372   4.181
    1C        C  717   5.007   4.262   4.270
    1C        C  718   4.888   4.399   4.099
    1C        C  719   4.762   4.335   4.140
    1C        C  720   4.637   4.456   3.960
    1C        C  721   4.636   4.379   4.084
    1C        C  722   4.511   4.485   3.892
    1C        C  723   4.385   4.446   3.954
    1C        C  724   4.260   4.529   3.750
    1C        C  725   4.259   4.479   3.888
    1C        C  726   4.135   4.546   3.677
    1C        C  727   4.008   4.525   3.747
    1C        C  728   3.885   4.552   3.528
    1C        C  729   3.883   4.542   3.674
    1C        C  730   3.759   4.548   3.454
    1C        C  731   3.632   4.546   3.526
    1C        C  732   3.507   4.547   3.452
    1C        C  733   5.013   4.494   3.895
    1C        C  734   4.891   4.466   3.967
    1C        C  735   4.764   4.542   3.758
    1C        C  736   4.764   4.496   3.899
    1C        C  737   4.639   4.549   3.684
    1C        C  738   4.512   4.530   3.754
    1C        C  739   4.389   4.546   3.535
    1C        C  740   4.387   4.545   3.681
    1C        C  741   4.264   4.546   3.460
    1C        C  742   4.137   4.552   3.531
    1C        C  743   4.012   4.554   3.456
    1C        C  744   5.014   4.547   3.764
    1C        C  745   4.893   4.571   3.541
    1C        C  746   4.892   4.565   3.688
    1C        C  747   4.769   4.546   3.468
    1C        C  748   4.641   4.547   3.539
    1C        C  749   4.516   4.541   3.464
    1C        C  750   5.003   4.622   3.463
    1C        O  751   5.094   2.412   4.037
    1C        H  752   5.175   2.359   4.000
    1C        O  753   5.098   3.151   4.671
    1C        H  754   5.161   3.070   4.691
    1C        O  755   5.119   2.414   3.077
    1C        H  756   5.211   2.430   3.027
    1C        O  757   5.093   4.476   4.215
    1C        H  758   5.166   4.451   4.291
    1C        O  759   5.147   4.549   3.295
    1C        H  760   5.223   4.623   3.319
    1C        O  761   5.156   3.140   2.483
    1C        H  762   5.232   3.192   2.435
    1C        O  763   5.100   4.088   2.476
    1C        H  764   5.156   4.179   2.465
    1C        O  765   1.901   2.386   3.969
    1C        H  766   1.826   2.366   3.895
    1C        O  767   1.924   2.348   3.269
    1C        H  768   1.860   2.295   3.328
    1C        O  769   1.888   3.619   4.655
    1C        H  770   1.817   3.543   4.682
    1C        O  771   2.019   2.840   2.435
    1C        H  772   1.947   2.765   2.424
    1C        O  773   1.874   3.821   2.475
    1C        H  774   1.796   3.752   2.449
    1C        O  775   1.964   4.636   2.955
    1C        H  776   1.886   4.644   2.880
    1C        O  777   1.900   4.467   4.174
    1C        H  778   1.807   4.435   4.218
    1C        H  779   5.111   2.651   4.161
    1C        H  780   5.100   2.880   4.249
    1C        H  781   5.079   2.933   4.532
    1C        H  782   5.080   3.397   4.462
    1C        H  783   5.103   3.614   4.586
    1C        H  784   5.096   2.373   3.783
    1C        H  785   5.104   2.526   3.555
    1C        H  786   5.117   2.511   3.324
    1C        H  787   5.084   2.535   2.857
    1C        H  788   5.120   2.762   2.731
    1C        H  789   5.129   2.977   2.647
    1C        H  790   5.080   3.351   2.345
    1C        H  791   5.118   3.607   2.419
    1C        H  792   5.123   3.821   2.496
    1C        H  793   5.092   4.267   2.655
    1C        H  794   5.117   4.324   2.910
    1C        H  795   5.114   4.514   3.054
    1C        H  796   5.049   4.715   3.492
    1C        H  797   5.104   4.601   3.738
    1C        H  798   5.107   4.451   3.926
    1C        H  799   5.086   4.263   4.343
    1C        H  800   5.097   3.998   4.339
    1C        H  801   5.101   3.860   4.547
    1C        H  802   1.899   3.394   4.506
    1C        H  803   1.920   3.138   4.591
    1C        H  804   1.914   2.939   4.474
    1C        H  805   1.911   2.834   4.220
    1C        H  806   1.910   2.590   4.183
    1C        H  807   1.926   2.546   3.740
    1C        H  808   1.912   2.400   3.527
    1C        H  809   1.908   2.619   3.138
    1C        H  810   1.932   2.772   2.959
    1C        H  811   1.943   2.724   2.659
    1C        H  812   1.913   3.166   2.525
    1C        H  813   1.917   3.393   2.492
    1C        H  814   1.947   3.619   2.327
    1C        H  815   1.916   4.052   2.521
    1C        H  816   1.920   4.414   2.807
    1C        H  817   1.913   4.193   2.712
    1C        H  818   1.904   4.555   3.237
    1C        H  819   1.901   4.573   3.465
    1C        H  820   1.894   4.516   3.688
    1C        H  821   1.894   4.442   3.905
    1C        H  822   1.924   4.274   4.336
    1C        H  823   1.908   3.988   4.285
    1C        H  824   1.894   3.793   4.414
    2V3OU   H29  825   4.757   4.761   0.103
    2V3OU   C27  826   4.721   4.666   0.150
    2V3OU   H27  827   4.636   4.683   0.221
    2V3OU   H28  828   4.702   4.586   0.075
    2V3OU   O11  829   4.832   4.620   0.230
    2V3OU   C15  830   4.831   4.501   0.302
    2V3OU   C13  831   4.952   4.465   0.367
    2V3OU   C14  832   4.952   4.368   0.471
    2V3OU   C16  833   4.832   4.307   0.507
    2V3OU    H6  834   4.830   4.235   0.590
    2V3OU   C12  835   5.079   4.328   0.542
    2V3OU    O2  836   5.087   4.227   0.618
    2V3OU   C10  837   5.201   4.404   0.512
    2V3OU    C8  838   5.319   4.376   0.579
    2V3OU   O10  839   5.332   4.262   0.652
    2V3OU   H26  840   5.231   4.232   0.662
    2V3OU    C6  841   5.441   4.448   0.547
    2V3OU    C5  842   5.438   4.544   0.446
    2V3OU    C4  843   5.571   4.410   0.612
    2V3OU    H4  844   5.554   4.379   0.719
    2V3OU    H5  845   5.611   4.319   0.558
    2V3OU    C2  846   5.678   4.519   0.609
    2V3OU    O6  847   5.631   4.626   0.692
    2V3OU   H21  848   5.589   4.689   0.618
    2V3OU    C3  849   5.683   4.578   0.469
    2V3OU    H2  850   5.761   4.657   0.465
    2V3OU    H3  851   5.713   4.497   0.398
    2V3OU   C25  852   5.817   4.464   0.659
    2V3OU    O7  853   5.905   4.423   0.581
    2V3OU   C26  854   5.847   4.469   0.809
    2V3OU   H22  855   5.953   4.505   0.820
    2V3OU   H23  856   5.838   4.367   0.853
    2V3OU    O8  857   5.759   4.550   0.888
    2V3OU   H24  858   5.693   4.598   0.818
    2V3OU    C1  859   5.553   4.637   0.421
    2V3OU    H1  860   5.564   4.665   0.311
    2V3OU    O3  861   5.535   4.752   0.504
    2V3OU   C19  862   5.529   4.882   0.444
    2V3OU    H9  863   5.461   4.885   0.354
    2V3OU    O4  864   5.658   4.904   0.392
    2V3OU   C20  865   5.767   4.945   0.476
    2V3OU   H10  866   5.798   4.854   0.536
    2V3OU   C24  867   5.487   4.981   0.551
    2V3OU   H16  868   5.396   4.942   0.603
    2V3OU   H17  869   5.462   5.077   0.499
    2V3OU   C23  870   5.601   5.006   0.649
    2V3OU   H15  871   5.626   4.906   0.697
    2V3OU    N1  872   5.548   5.098   0.747
    2V3OU   H19  873   5.592   5.072   0.834
    2V3OU   H20  874   5.451   5.077   0.753
    2V3OU   C21  875   5.733   5.056   0.577
    2V3OU   H11  876   5.816   5.055   0.654
    2V3OU    O5  877   5.721   5.194   0.524
    2V3OU   H18  878   5.650   5.238   0.579
    2V3OU   C22  879   5.880   4.981   0.381
    2V3OU   H12  880   5.848   5.065   0.314
    2V3OU   H13  881   5.907   4.892   0.318
    2V3OU   H14  882   5.970   5.014   0.439
    2V3OU   C11  883   5.080   4.524   0.324
    2V3OU    O1  884   5.095   4.585   0.215
    2V3OU    C9  885   5.201   4.502   0.406
    2V3OU    C7  886   5.318   4.568   0.375
    2V3OU    O9  887   5.328   4.644   0.262
    2V3OU   H25  888   5.229   4.635   0.225
    2V3OU   C17  889   4.713   4.433   0.340
    2V3OU    H7  890   4.622   4.450   0.283
    2V3OU   C18  891   4.714   4.338   0.441
    2V3OU    H8  892   4.621   4.285   0.467
    3V3OU   H29  893   6.232   5.619   0.460
    3V3OU   C27  894   6.183   5.715   0.429
    3V3OU   H27  895   6.078   5.700   0.393
    3V3OU   H28  896   6.193   5.795   0.507
    3V3OU   O11  897   6.258   5.760   0.315
    3V3OU   C15  898   6.233   5.880   0.250
    3V3OU   C13  899   6.322   5.917   0.146
    3V3OU   C14  900   6.292   6.028   0.062
    3V3OU   C16  901   6.177   6.102   0.085
    3V3OU    H6  902   6.155   6.191   0.024
    3V3OU   C12  903   6.383   6.071   6.949
    3V3OU    O2  904   6.364   6.176   6.882
    3V3OU   C10  905   6.507   5.995   6.929
    3V3OU    C8  906   6.599   6.041   6.836
    3V3OU   O10  907   6.564   6.108   6.723
    3V3OU   H26  908   6.466   6.137   6.738
    3V3OU    C6  909   6.738   6.000   6.845
    3V3OU    C5  910   6.775   5.906   6.942
    3V3OU    C4  911   6.841   6.083   6.774
    3V3OU    H4  912   6.815   6.087   6.664
    3V3OU    H5  913   6.830   6.188   6.813
    3V3OU    C2  914   6.987   6.039   6.789
    3V3OU    O6  915   0.012   5.924   6.708
    3V3OU   H21  916   6.982   5.848   6.775
    3V3OU    C3  917   0.009   5.987   6.930
    3V3OU    H2  918   0.115   5.954   6.942
    3V3OU    H3  919   6.991   6.073   0.001
    3V3OU   C25  920   0.082   6.158   6.752
    3V3OU    O7  921   0.124   6.240   6.836
    3V3OU   C26  922   0.120   6.176   6.604
    3V3OU   H22  923   0.174   6.083   6.572
    3V3OU   H23  924   0.189   6.264   6.593
    3V3OU    O8  925   0.012   6.205   6.515
    3V3OU   H24  926   6.968   6.114   6.483
    3V3OU    C1  927   6.918   5.873   6.970
    3V3OU    H1  928   6.935   5.850   0.080
    3V3OU    O3  929   6.955   5.763   6.886
    3V3OU   C19  930   6.989   5.639   6.949
    3V3OU    H9  931   6.914   5.608   0.029
    3V3OU    O4  932   0.109   5.665   0.018
    3V3OU   C20  933   0.230   5.687   6.942
    3V3OU   H10  934   0.215   5.782   6.882
    3V3OU   C24  935   0.005   5.532   6.843
    3V3OU   H16  936   6.911   5.526   6.782
    3V3OU   H17  937   0.021   5.434   6.896
    3V3OU   C23  938   0.126   5.558   6.755
    3V3OU   H15  939   0.108   5.658   6.703
    3V3OU    N1  940   0.124   5.453   6.657
    3V3OU   H19  941   0.154   5.491   6.568
    3V3OU   H20  942   0.029   5.422   6.647
    3V3OU   C21  943   0.263   5.576   6.839
    3V3OU   H11  944   0.337   5.623   6.769
    3V3OU    O5  945   0.326   5.455   6.899
    3V3OU   H18  946   0.321   5.375   6.832
    3V3OU   C22  947   0.338   5.710   0.045
    3V3OU   H12  948   0.351   5.618   0.108
    3V3OU   H13  949   0.309   5.795   0.112
    3V3OU   H14  950   0.435   5.735   6.994
    3V3OU   C11  951   6.454   5.852   0.132
    3V3OU    O1  952   6.499   5.770   0.216
    3V3OU    C9  953   6.548   5.898   0.027
    3V3OU    C7  954   6.678   5.854   0.030
    3V3OU    O9  955   6.717   5.752   0.112
    3V3OU   H25  956   6.627   5.747   0.171
    3V3OU   C17  957   6.118   5.959   0.270
    3V3OU    H7  958   6.053   5.938   0.354
    3V3OU   C18  959   6.090   6.068   0.189
    3V3OU    H8  960   6.004   6.133   0.212
    4V3OU   H29  961   4.128   5.395   3.172
    4V3OU   C27  962   4.161   5.288   3.169
    4V3OU   H27  963   4.075   5.218   3.152
    4V3OU   H28  964   4.247   5.272   3.100
    4V3OU   O11  965   4.210   5.261   3.302
    4V3OU   C15  966   4.243   5.133   3.345
    4V3OU   C13  967   4.287   5.121   3.479
    4V3OU   C14  968   4.362   5.008   3.521
    4V3OU   C16  969   4.389   4.907   3.429
    4V3OU    H6  970   4.454   4.823   3.458
    4V3OU   C12  971   4.417   4.995   3.660
    4V3OU    O2  972   4.498   4.904   3.693
    4V3OU   C10  973   4.383   5.101   3.757
    4V3OU    C8  974   4.444   5.104   3.881
    4V3OU   O10  975   4.529   5.007   3.923
    4V3OU   H26  976   4.534   4.944   3.843
    4V3OU    C6  977   4.417   5.211   3.974
    4V3OU    C5  978   4.321   5.307   3.939
    4V3OU    C4  979   4.507   5.233   4.091
    4V3OU    H4  980   4.525   5.135   4.144
    4V3OU    H5  981   4.607   5.267   4.050
    4V3OU    C2  982   4.459   5.334   4.195
    4V3OU    O6  983   4.355   5.274   4.270
    4V3OU   H21  984   4.271   5.297   4.210
    4V3OU    C3  985   4.391   5.452   4.126
    4V3OU    H2  986   4.351   5.522   4.203
    4V3OU    H3  987   4.468   5.506   4.065
    4V3OU   C25  988   4.580   5.380   4.285
    4V3OU    O7  989   4.673   5.449   4.240
    4V3OU   C26  990   4.583   5.339   4.433
    4V3OU   H22  991   4.590   5.434   4.493
    4V3OU   H23  992   4.673   5.275   4.453
    4V3OU    O8  993   4.473   5.260   4.481
    4V3OU   H24  994   4.406   5.252   4.396
    4V3OU    C1  995   4.277   5.413   4.035
    4V3OU    H1  996   4.238   5.507   3.984
    4V3OU    O3  997   4.178   5.353   4.119
    4V3OU   C19  998   4.043   5.399   4.121
    4V3OU    H9  999   3.998   5.407   4.017
    4V3OU    O4 1000   4.051   5.532   4.168
    4V3OU   C20 1001   4.081   5.554   4.307
    4V3OU   H10 1002   4.183   5.510   4.327
    4V3OU   C24 1003   3.963   5.306   4.212
    4V3OU   H16 1004   3.982   5.200   4.182
    4V3OU   H17 1005   3.854   5.328   4.196
    4V3OU   C23 1006   3.998   5.328   4.358
    4V3OU   H15 1007   4.108   5.302   4.370
    4V3OU    N1 1008   3.918   5.237   4.438
    4V3OU   H19 1009   3.979   5.211   4.513
    4V3OU   H20 1010   3.903   5.154   4.383
    4V3OU   C21 1011   3.983   5.481   4.401
    4V3OU   H11 1012   4.025   5.491   4.506
    4V3OU    O5 1013   3.844   5.538   4.400
    4V3OU   H18 1014   3.778   5.465   4.383
    4V3OU   C22 1015   4.087   5.703   4.329
    4V3OU   H12 1016   3.989   5.750   4.302
    4V3OU   H13 1017   4.168   5.748   4.266
    4V3OU   H14 1018   4.108   5.725   4.437
    4V3OU   C11 1019   4.241   5.218   3.581
    4V3OU    O1 1020   4.168   5.317   3.556
    4V3OU    C9 1021   4.289   5.204   3.721
    4V3OU    C7 1022   4.258   5.302   3.812
    4V3OU    O9 1023   4.159   5.393   3.788
    4V3OU   H25 1024   4.145   5.371   3.685
    4V3OU   C17 1025   4.269   5.025   3.258
    4V3OU    H7 1026   4.224   5.026   3.159
    4V3OU   C18 1027   4.341   4.914   3.299
    4V3OU    H8 1028   4.363   4.833   3.227
    5V3OU   H29 1029   5.120   4.407   6.783
    5V3OU   C27 1030   5.091   4.317   6.723
    5V3OU   H27 1031   5.154   4.227   6.746
    5V3OU   H28 1032   4.981   4.296   6.725
    5V3OU   O11 1033   5.122   4.352   6.587
    5V3OU   C15 1034   5.094   4.271   6.478
    5V3OU   C13 1035   5.141   4.315   6.351
    5V3OU   C14 1036   5.117   4.235   6.236
    5V3OU   C16 1037   5.047   4.115   6.248
    5V3OU    H6 1038   5.029   4.052   6.160
    5V3OU   C12 1039   5.168   4.273   6.099
    5V3OU    O2 1040   5.141   4.207   5.995
    5V3OU   C10 1041   5.258   4.389   6.090
    5V3OU    C8 1042   5.311   4.427   5.968
    5V3OU   O10 1043   5.287   4.356   5.855
    5V3OU   H26 1044   5.230   4.279   5.893
    5V3OU    C6 1045   5.395   4.544   5.956
    5V3OU    C5 1046   5.428   4.615   6.073
    5V3OU    C4 1047   5.425   4.600   5.820
    5V3OU    H4 1048   5.472   4.519   5.757
    5V3OU    H5 1049   5.325   4.624   5.773
    5V3OU    C2 1050   5.515   4.724   5.814
    5V3OU    O6 1051   5.651   4.682   5.817
    5V3OU   H21 1052   5.662   4.670   5.922
    5V3OU    C3 1053   5.503   4.808   5.940
    5V3OU    H2 1054   5.581   4.888   5.938
    5V3OU    H3 1055   5.402   4.856   5.941
    5V3OU   C25 1056   5.478   4.806   5.685
    5V3OU    O7 1057   5.379   4.881   5.680
    5V3OU   C26 1058   5.567   4.791   5.561
    5V3OU   H22 1059   5.616   4.890   5.545
    5V3OU   H23 1060   5.504   4.765   5.472
    5V3OU    O8 1061   5.665   4.687   5.567
    5V3OU   H24 1062   5.678   4.664   5.668
    5V3OU    C1 1063   5.521   4.732   6.069
    5V3OU    H1 1064   5.506   4.803   6.156
    5V3OU    O3 1065   5.655   4.682   6.066
    5V3OU   C19 1066   5.731   4.677   6.186
    5V3OU    H9 1067   5.673   4.629   6.273
    5V3OU    O4 1068   5.749   4.812   6.224
    5V3OU   C20 1069   5.835   4.896   6.145
    5V3OU   H10 1070   5.787   4.905   6.043
    5V3OU   C24 1071   5.862   4.606   6.159
    5V3OU   H16 1072   5.840   4.505   6.114
    5V3OU   H17 1073   5.913   4.591   6.257
    5V3OU   C23 1074   5.951   4.689   6.067
    5V3OU   H15 1075   5.895   4.701   5.969
    5V3OU    N1 1076   6.071   4.612   6.048
    5V3OU   H19 1077   6.099   4.627   5.952
    5V3OU   H20 1078   6.045   4.516   6.058
    5V3OU   C21 1079   5.976   4.837   6.124
    5V3OU   H11 1080   6.023   4.897   6.039
    5V3OU    O5 1081   6.068   4.844   6.241
    5V3OU   H18 1082   6.120   4.758   6.242
    5V3OU   C22 1083   5.835   5.032   6.212
    5V3OU   H12 1084   5.874   5.023   6.316
    5V3OU   H13 1085   5.730   5.073   6.216
    5V3OU   H14 1086   5.900   5.103   6.154
    5V3OU   C11 1087   5.219   4.440   6.336
    5V3OU    O1 1088   5.226   4.529   6.424
    5V3OU    C9 1089   5.288   4.467   6.208
    5V3OU    C7 1090   5.372   4.576   6.197
    5V3OU    O9 1091   5.402   4.654   6.305
    5V3OU   H25 1092   5.335   4.611   6.375
    5V3OU   C17 1093   5.023   4.150   6.484
    5V3OU    H7 1094   4.983   4.117   6.580
    5V3OU   C18 1095   4.999   4.073   6.371
    5V3OU    H8 1096   4.938   3.981   6.378
    6V3OU   H29 1097   6.809   2.702   1.813
    6V3OU   C27 1098   6.857   2.647   1.898
    6V3OU   H27 1099   6.947   2.700   1.938
    6V3OU   H28 1100   6.783   2.618   1.977
    6V3OU   O11 1101   6.904   2.524   1.841
    6V3OU   C15 1102   6.969   2.427   1.915
    6V3OU   C13 1103   6.993   2.305   1.848
    6V3OU   C14 1104   0.097   2.218   1.893
    6V3OU   C16 1105   0.172   2.253   2.005
    6V3OU    H6 1106   0.260   2.193   2.034
    6V3OU   C12 1107   0.116   2.081   1.834
    6V3OU    O2 1108   0.215   2.005   1.861
    6V3OU   C10 1109   0.003   2.024   1.759
    6V3OU    C8 1110   7.000   1.889   1.727
    6V3OU   O10 1111   0.101   1.806   1.762
    6V3OU   H26 1112   0.164   1.872   1.810
    6V3OU    C6 1113   6.885   1.832   1.660
    6V3OU    C5 1114   6.777   1.916   1.628
    6V3OU    C4 1115   6.879   1.685   1.634
    6V3OU    H4 1116   6.980   1.647   1.601
    6V3OU    H5 1117   6.855   1.634   1.731
    6V3OU    C2 1118   6.777   1.641   1.528
    6V3OU    O6 1119   6.825   1.681   1.400
    6V3OU   H21 1120   6.785   1.777   1.392
    6V3OU    C3 1121   6.648   1.721   1.545
    6V3OU    H2 1122   6.576   1.691   1.465
    6V3OU    H3 1123   6.603   1.694   1.644
    6V3OU   C25 1124   6.754   1.487   1.538
    6V3OU    O7 1125   6.696   1.435   1.635
    6V3OU   C26 1126   6.809   1.396   1.428
    6V3OU   H22 1127   6.722   1.362   1.367
    6V3OU   H23 1128   6.862   1.308   1.473
    6V3OU    O8 1129   6.908   1.456   1.343
    6V3OU   H24 1130   6.887   1.562   1.347
    6V3OU    C1 1131   6.666   1.870   1.539
    6V3OU    H1 1132   6.567   1.920   1.564
    6V3OU    O3 1133   6.706   1.899   1.405
    6V3OU   C19 1134   6.633   1.987   1.319
    6V3OU    H9 1135   6.602   2.083   1.372
    6V3OU    O4 1136   6.512   1.919   1.293
    6V3OU   C20 1137   6.513   1.808   1.201
    6V3OU   H10 1138   6.567   1.724   1.253
    6V3OU   C24 1139   6.716   2.014   1.195
    6V3OU   H16 1140   6.816   2.053   1.227
    6V3OU   H17 1141   6.663   2.093   1.136
    6V3OU   C23 1142   6.730   1.890   1.108
    6V3OU   H15 1143   6.781   1.810   1.172
    6V3OU    N1 1144   6.818   1.930   1.001
    6V3OU   H19 1145   6.870   1.849   0.974
    6V3OU   H20 1146   6.884   1.995   1.041
    6V3OU   C21 1147   6.587   1.830   1.066
    6V3OU   H11 1148   6.608   1.727   1.026
    6V3OU    O5 1149   6.510   1.905   0.962
    6V3OU   H18 1150   6.559   1.895   0.872
    6V3OU   C22 1151   6.367   1.771   1.185
    6V3OU   H12 1152   6.310   1.858   1.145
    6V3OU   H13 1153   6.324   1.743   1.285
    6V3OU   H14 1154   6.357   1.685   1.115
    6V3OU   C11 1155   6.891   2.252   1.755
    6V3OU    O1 1156   6.795   2.320   1.709
    6V3OU    C9 1157   6.890   2.107   1.725
    6V3OU    C7 1158   6.781   2.053   1.663
    6V3OU    O9 1159   6.660   2.118   1.662
    6V3OU   H25 1160   6.694   2.215   1.685
    6V3OU   C17 1161   0.044   2.454   2.032
    6V3OU    H7 1162   0.014   2.538   2.095
    6V3OU   C18 1163   0.144   2.369   2.075
    6V3OU    H8 1164   0.198   2.390   2.169
    7V3OU   H29 1165   3.890   1.203   3.715
    7V3OU   C27 1166   3.998   1.212   3.742
    7V3OU   H27 1167   4.062   1.244   3.655
    7V3OU   H28 1168   4.014   1.275   3.833
    7V3OU   O11 1169   4.041   1.079   3.776
    7V3OU   C15 1170   4.167   1.049   3.825
    7V3OU   C13 1171   4.197   0.912   3.850
    7V3OU   C14 1172   4.326   0.876   3.899
    7V3OU   C16 1173   4.421   0.976   3.922
    7V3OU    H6 1174   4.521   0.948   3.959
    7V3OU   C12 1175   4.362   0.735   3.937
    7V3OU    O2 1176   4.478   0.699   3.971
    7V3OU   C10 1177   4.251   0.639   3.945
    7V3OU    C8 1178   4.271   0.517   4.006
    7V3OU   O10 1179   4.393   0.478   4.052
    7V3OU   H26 1180   4.452   0.561   4.028
    7V3OU    C6 1181   4.162   0.423   4.022
    7V3OU    C5 1182   4.036   0.457   3.970
    7V3OU    C4 1183   4.182   0.302   4.107
    7V3OU    H4 1184   4.275   0.248   4.072
    7V3OU    H5 1185   4.203   0.339   4.212
    7V3OU    C2 1186   4.066   0.202   4.111
    7V3OU    O6 1187   4.066   0.127   3.990
    7V3OU   H21 1188   4.007   0.188   3.929
    7V3OU    C3 1189   3.933   0.277   4.106
    7V3OU    H2 1190   3.850   0.202   4.103
    7V3OU    H3 1191   3.924   0.337   4.200
    7V3OU   C25 1192   4.083   0.109   4.235
    7V3OU    O7 1193   4.035   0.135   4.347
    7V3OU   C26 1194   4.173   6.987   4.217
    7V3OU   H22 1195   4.153   6.917   4.302
    7V3OU   H23 1196   4.281   0.017   4.217
    7V3OU    O8 1197   4.155   6.920   4.091
    7V3OU   H24 1198   4.116   6.996   4.026
    7V3OU    C1 1199   3.917   0.368   3.988
    7V3OU    H1 1200   3.822   0.429   4.001
    7V3OU    O3 1201   3.910   0.282   3.874
    7V3OU   C19 1202   3.789   0.279   3.799
    7V3OU    H9 1203   3.736   0.381   3.797
    7V3OU    O4 1204   3.703   0.194   3.871
    7V3OU   C20 1205   3.731   0.053   3.874
    7V3OU   H10 1206   3.830   0.039   3.926
    7V3OU   C24 1207   3.821   0.229   3.659
    7V3OU   H16 1208   3.905   0.289   3.618
    7V3OU   H17 1209   3.730   0.245   3.596
    7V3OU   C23 1210   3.856   0.081   3.659
    7V3OU   H15 1211   3.952   0.070   3.719
    7V3OU    N1 1212   3.878   0.049   3.521
    7V3OU   H19 1213   3.954   6.982   3.516
    7V3OU   H20 1214   3.908   0.132   3.474
    7V3OU   C21 1215   3.745   6.991   3.733
    7V3OU   H11 1216   3.792   6.889   3.749
    7V3OU    O5 1217   3.617   6.972   3.658
    7V3OU   H18 1218   3.570   0.060   3.646
    7V3OU   C22 1219   3.621   6.990   3.957
    7V3OU   H12 1220   3.522   0.007   3.909
    7V3OU   H13 1221   3.620   0.035   4.060
    7V3OU   H14 1222   3.639   6.880   3.966
    7V3OU   C11 1223   4.095   0.806   3.833
    7V3OU    O1 1224   3.985   0.823   3.775
    7V3OU    C9 1225   4.121   0.672   3.892
    7V3OU    C7 1226   4.018   0.581   3.904
    7V3OU    O9 1227   3.896   0.601   3.845
    7V3OU   H25 1228   3.912   0.696   3.804
    7V3OU   C17 1229   4.267   1.145   3.851
    7V3OU    H7 1230   4.245   1.250   3.835
    7V3OU   C18 1231   4.392   1.109   3.899
    7V3OU    H8 1232   4.469   1.186   3.918
    8V3OU   H29 1233   2.515   6.779   3.129
    8V3OU   C27 1234   2.559   6.835   3.215
    8V3OU   H27 1235   2.602   6.934   3.186
    8V3OU   H28 1236   2.490   6.840   3.303
    8V3OU   O11 1237   2.670   6.754   3.258
    8V3OU   C15 1238   2.749   6.783   3.368
    8V3OU   C13 1239   2.846   6.686   3.404
    8V3OU   C14 1240   2.941   6.717   3.506
    8V3OU   C16 1241   2.937   6.842   3.568
    8V3OU    H6 1242   3.016   6.869   3.640
    8V3OU   C12 1243   3.038   6.614   3.558
    8V3OU    O2 1244   3.116   6.639   3.654
    8V3OU   C10 1245   3.029   6.477   3.505
    8V3OU    C8 1246   3.100   6.374   3.564
    8V3OU   O10 1247   3.200   6.395   3.652
    8V3OU   H26 1248   3.207   6.496   3.657
    8V3OU    C6 1249   3.077   6.236   3.525
    8V3OU    C5 1250   2.987   6.210   3.422
    8V3OU    C4 1251   3.134   6.126   3.609
    8V3OU    H4 1252   3.244   6.145   3.627
    8V3OU    H5 1253   3.084   6.131   3.709
    8V3OU    C2 1254   3.120   5.985   3.552
    8V3OU    O6 1255   3.215   5.970   3.447
    8V3OU   H21 1256   3.157   6.002   3.364
    8V3OU    C3 1257   2.986   5.970   3.480
    8V3OU    H2 1258   2.981   5.868   3.433
    8V3OU    H3 1259   2.905   5.977   3.557
    8V3OU   C25 1260   3.136   5.880   3.667
    8V3OU    O7 1261   3.041   5.847   3.740
    8V3OU   C26 1262   3.271   5.807   3.682
    8V3OU   H22 1263   3.249   5.697   3.682
    8V3OU   H23 1264   3.319   5.836   3.779
    8V3OU    O8 1265   3.368   5.838   3.582
    8V3OU   H24 1266   3.315   5.898   3.509
    8V3OU    C1 1267   2.961   6.071   3.373
    8V3OU    H1 1268   2.854   6.059   3.335
    8V3OU    O3 1269   3.058   6.043   3.272
    8V3OU   C19 1270   3.012   6.018   3.140
    8V3OU    H9 1271   2.927   6.087   3.107
    8V3OU    O4 1272   2.952   5.891   3.146
    8V3OU   C20 1273   3.034   5.772   3.149
    8V3OU   H10 1274   3.083   5.768   3.251
    8V3OU   C24 1275   3.132   6.027   3.047
    8V3OU   H16 1276   3.184   6.124   3.065
    8V3OU   H17 1277   3.094   6.025   2.942
    8V3OU   C23 1278   3.225   5.909   3.068
    8V3OU   H15 1279   3.256   5.910   3.178
    8V3OU    N1 1280   3.342   5.934   2.985
    8V3OU   H19 1281   3.420   5.894   3.035
    8V3OU   H20 1282   3.354   6.033   2.986
    8V3OU   C21 1283   3.148   5.770   3.044
    8V3OU   H11 1284   3.219   5.688   3.076
    8V3OU    O5 1285   3.104   5.743   2.905
    8V3OU   H18 1286   3.179   5.692   2.856
    8V3OU   C22 1287   2.938   5.656   3.136
    8V3OU   H12 1288   2.882   5.664   3.039
    8V3OU   H13 1289   2.864   5.658   3.220
    8V3OU   H14 1290   2.994   5.559   3.137
    8V3OU   C11 1291   2.846   6.551   3.344
    8V3OU    O1 1292   2.768   6.515   3.252
    8V3OU    C9 1293   2.935   6.447   3.400
    8V3OU    C7 1294   2.918   6.316   3.359
    8V3OU    O9 1295   2.846   6.283   3.248
    8V3OU   H25 1296   2.800   6.377   3.230
    8V3OU   C17 1297   2.748   6.906   3.436
    8V3OU    H7 1298   2.673   6.980   3.410
    8V3OU   C18 1299   2.841   6.936   3.534
    8V3OU    H8 1300   2.842   0.035   3.582
    9V3OU   H29 1301   2.670   5.201   5.711
    9V3OU   C27 1302   2.585   5.271   5.688
    9V3OU   H27 1303   2.620   5.374   5.664
    9V3OU   H28 1304   2.515   5.229   5.612
    9V3OU   O11 1305   2.509   5.281   5.810
    9V3OU   C15 1306   2.388   5.348   5.820
    9V3OU   C13 1307   2.322   5.342   5.946
    9V3OU   C14 1308   2.199   5.411   5.966
    9V3OU   C16 1309   2.146   5.487   5.862
    9V3OU    H6 1310   2.053   5.544   5.878
    9V3OU   C12 1311   2.115   5.390   6.089
    9V3OU    O2 1312   2.004   5.446   6.109
    9V3OU   C10 1313   2.161   5.288   6.185
    9V3OU    C8 1314   2.084   5.260   6.297
    9V3OU   O10 1315   1.974   5.333   6.327
    9V3OU   H26 1316   1.964   5.392   6.240
    9V3OU    C6 1317   2.124   5.154   6.388
    9V3OU    C5 1318   2.240   5.081   6.359
    9V3OU    C4 1319   2.040   5.124   6.508
    9V3OU    H4 1320   2.015   5.220   6.563
    9V3OU    H5 1321   1.942   5.083   6.470
    9V3OU    C2 1322   2.099   5.027   6.610
    9V3OU    O6 1323   2.197   5.093   6.687
    9V3OU   H21 1324   2.281   5.073   6.631
    9V3OU    C3 1325   2.182   4.921   6.539
    9V3OU    H2 1326   2.228   4.853   6.615
    9V3OU    H3 1327   2.112   4.860   6.476
    9V3OU   C25 1328   1.984   4.967   6.698
    9V3OU    O7 1329   1.918   4.868   6.663
    9V3OU   C26 1330   1.956   5.033   6.834
    9V3OU   H22 1331   2.040   5.005   6.902
    9V3OU   H23 1332   1.859   4.996   6.875
    9V3OU    O8 1333   1.940   5.175   6.830
    9V3OU   H24 1334   2.023   5.216   6.871
    9V3OU    C1 1335   2.291   4.975   6.450
    9V3OU    H1 1336   2.338   4.888   6.393
    9V3OU    O3 1337   2.386   5.041   6.534
    9V3OU   C19 1338   2.524   5.008   6.540
    9V3OU    H9 1339   2.571   4.990   6.437
    9V3OU    O4 1340   2.529   4.884   6.605
    9V3OU   C20 1341   2.493   4.881   6.744
    9V3OU   H10 1342   2.384   4.910   6.751
    9V3OU   C24 1343   2.597   5.118   6.616
    9V3OU   H16 1344   2.581   5.215   6.563
    9V3OU   H17 1345   2.706   5.093   6.615
    9V3OU   C23 1346   2.549   5.124   6.760
    9V3OU   H15 1347   2.436   5.141   6.758
    9V3OU    N1 1348   2.613   5.240   6.817
    9V3OU   H19 1349   2.548   5.277   6.884
    9V3OU   H20 1350   2.617   5.307   6.742
    9V3OU   C21 1351   2.570   4.982   6.835
    9V3OU   H11 1352   2.511   4.987   6.931
    9V3OU    O5 1353   2.711   4.943   6.868
    9V3OU   H18 1354   2.742   5.005   6.948
    9V3OU   C22 1355   2.506   4.736   6.783
    9V3OU   H12 1356   2.609   4.699   6.760
    9V3OU   H13 1357   2.431   4.674   6.726
    9V3OU   H14 1358   2.487   4.723   6.893
    9V3OU   C11 1359   2.375   5.258   6.055
    9V3OU    O1 1360   2.495   5.224   6.068
    9V3OU    C9 1361   2.282   5.213   6.160
    9V3OU    C7 1362   2.319   5.112   6.245
    9V3OU    O9 1363   2.436   5.042   6.229
    9V3OU   H25 1364   2.478   5.099   6.152
    9V3OU   C17 1365   2.327   5.423   5.718
    9V3OU    H7 1366   2.370   5.419   5.618
    9V3OU   C18 1367   2.209   5.493   5.739
    9V3OU    H8 1368   2.166   5.554   5.658
   10V3OU   H29 1369   3.501   6.504   4.911
   10V3OU   C27 1370   3.584   6.448   4.861
   10V3OU   H27 1371   3.546   6.382   4.779
   10V3OU   H28 1372   3.667   6.516   4.828
   10V3OU   O11 1373   3.640   6.363   4.962
   10V3OU   C15 1374   3.728   6.259   4.934
   10V3OU   C13 1375   3.767   6.177   5.044
   10V3OU   C14 1376   3.881   6.093   5.034
   10V3OU   C16 1377   3.952   6.089   4.914
   10V3OU    H6 1378   4.033   6.016   4.901
   10V3OU   C12 1379   3.929   6.009   5.149
   10V3OU    O2 1380   4.041   5.950   5.150
   10V3OU   C10 1381   3.839   5.996   5.265
   10V3OU    C8 1382   3.876   5.917   5.371
   10V3OU   O10 1383   3.989   5.842   5.368
   10V3OU   H26 1384   4.025   5.865   5.274
   10V3OU    C6 1385   3.797   5.913   5.493
   10V3OU    C5 1386   3.679   5.989   5.498
   10V3OU    C4 1387   3.856   5.852   5.615
   10V3OU    H4 1388   3.872   5.742   5.596
   10V3OU    H5 1389   3.959   5.897   5.627
   10V3OU    C2 1390   3.779   5.868   5.746
   10V3OU    O6 1391   3.677   5.768   5.758
   10V3OU   H21 1392   3.600   5.814   5.703
   10V3OU    C3 1393   3.699   5.997   5.746
   10V3OU    H2 1394   3.637   6.002   5.839
   10V3OU    H3 1395   3.771   6.082   5.746
   10V3OU   C25 1396   3.883   5.854   5.863
   10V3OU    O7 1397   3.942   5.951   5.913
   10V3OU   C26 1398   3.917   5.711   5.909
   10V3OU   H22 1399   3.892   5.704   6.018
   10V3OU   H23 1400   4.027   5.691   5.895
   10V3OU    O8 1401   3.852   5.606   5.836
   10V3OU   H24 1402   3.761   5.648   5.802
   10V3OU    C1 1403   3.606   6.011   5.627
   10V3OU    H1 1404   3.559   6.115   5.629
   10V3OU    O3 1405   3.509   5.907   5.639
   10V3OU   C19 1406   3.373   5.948   5.641
   10V3OU    H9 1407   3.353   6.037   5.574
   10V3OU    O4 1408   3.351   5.999   5.770
   10V3OU   C20 1409   3.340   5.907   5.880
   10V3OU   H10 1410   3.441   5.857   5.889
   10V3OU   C24 1411   3.283   5.830   5.605
   10V3OU   H16 1412   3.321   5.783   5.511
   10V3OU   H17 1413   3.180   5.871   5.588
   10V3OU   C23 1414   3.275   5.728   5.717
   10V3OU   H15 1415   3.379   5.682   5.729
   10V3OU    N1 1416   3.177   5.631   5.674
   10V3OU   H19 1417   3.205   5.541   5.707
   10V3OU   H20 1418   3.175   5.628   5.573
   10V3OU   C21 1419   3.237   5.792   5.858
   10V3OU   H11 1420   3.261   5.715   5.938
   10V3OU    O5 1421   3.093   5.827   5.868
   10V3OU   H18 1422   3.049   5.764   5.802
   10V3OU   C22 1423   3.314   5.991   6.003
   10V3OU   H12 1424   3.218   6.048   5.990
   10V3OU   H13 1425   3.397   6.063   6.018
   10V3OU   H14 1426   3.305   5.925   6.093
   10V3OU   C11 1427   3.679   6.165   5.163
   10V3OU    O1 1428   3.569   6.224   5.175
   10V3OU    C9 1429   3.717   6.072   5.272
   10V3OU    C7 1430   3.639   6.065   5.385
   10V3OU    O9 1431   3.509   6.106   5.383
   10V3OU   H25 1432   3.515   6.168   5.297
   10V3OU   C17 1433   3.803   6.249   4.815
   10V3OU    H7 1434   3.773   6.307   4.728
   10V3OU   C18 1435   3.914   6.166   4.805
   10V3OU    H8 1436   3.967   6.155   4.709
   11V3OU   H29 1437   3.080   5.661   0.907
   11V3OU   C27 1438   3.105   5.747   0.974
   11V3OU   H27 1439   3.173   5.821   0.925
   11V3OU   H28 1440   3.013   5.793   1.020
   11V3OU   O11 1441   3.179   5.689   1.083
   11V3OU   C15 1442   3.226   5.762   1.192
   11V3OU   C13 1443   3.298   5.688   1.289
   11V3OU   C14 1444   3.388   5.754   1.377
   11V3OU   C16 1445   3.398   5.893   1.372
   11V3OU    H6 1446   3.472   5.944   1.436
   11V3OU   C12 1447   3.474   5.677   1.474
   11V3OU    O2 1448   3.566   5.730   1.543
   11V3OU   C10 1449   3.438   5.537   1.499
   11V3OU    C8 1450   3.497   5.468   1.603
   11V3OU   O10 1451   3.599   5.521   1.676
   11V3OU   H26 1452   3.609   5.615   1.632
   11V3OU    C6 1453   3.451   5.336   1.641
   11V3OU    C5 1454   3.347   5.277   1.567
   11V3OU    C4 1455   3.501   5.276   1.768
   11V3OU    H4 1456   3.614   5.270   1.765
   11V3OU    H5 1457   3.475   5.348   1.851
   11V3OU    C2 1458   3.447   5.137   1.805
   11V3OU    O6 1459   3.517   5.037   1.730
   11V3OU   H21 1460   3.461   5.036   1.641
   11V3OU    C3 1461   3.302   5.125   1.759
   11V3OU    H2 1462   3.266   5.022   1.780
   11V3OU    H3 1463   3.240   5.198   1.818
   11V3OU   C25 1464   3.467   5.116   1.958
   11V3OU    O7 1465   3.382   5.148   2.043
   11V3OU   C26 1466   3.604   5.064   2.004
   11V3OU   H22 1467   3.591   4.956   2.031
   11V3OU   H23 1468   3.638   5.121   2.094
   11V3OU    O8 1469   3.711   5.079   1.910
   11V3OU   H24 1470   3.674   5.056   1.816
   11V3OU    C1 1471   3.281   5.151   1.612
   11V3OU    H1 1472   3.170   5.154   1.591
   11V3OU    O3 1473   3.345   5.040   1.548
   11V3OU   C19 1474   3.266   4.953   1.468
   11V3OU    H9 1475   3.185   5.007   1.408
   11V3OU    O4 1476   3.194   4.873   1.559
   11V3OU   C20 1477   3.262   4.766   1.629
   11V3OU   H10 1478   3.329   4.815   1.705
   11V3OU   C24 1479   3.359   4.875   1.377
   11V3OU   H16 1480   3.428   4.948   1.326
   11V3OU   H17 1481   3.297   4.824   1.300
   11V3OU   C23 1482   3.441   4.772   1.453
   11V3OU   H15 1483   3.509   4.829   1.525
   11V3OU    N1 1484   3.515   4.702   1.351
   11V3OU   H19 1485   3.608   4.687   1.385
   11V3OU   H20 1486   3.519   4.762   1.270
   11V3OU   C21 1487   3.352   4.675   1.542
   11V3OU   H11 1488   3.422   4.624   1.614
   11V3OU    O5 1489   3.285   4.570   1.460
   11V3OU   H18 1490   3.339   4.566   1.376
   11V3OU   C22 1491   3.152   4.690   1.701
   11V3OU   H12 1492   3.080   4.648   1.626
   11V3OU   H13 1493   3.097   4.758   1.770
   11V3OU   H14 1494   3.197   4.605   1.760
   11V3OU   C11 1495   3.258   5.549   1.319
   11V3OU    O1 1496   3.168   5.489   1.256
   11V3OU    C9 1497   3.331   5.474   1.425
   11V3OU    C7 1498   3.290   5.347   1.458
   11V3OU    O9 1499   3.209   5.274   1.376
   11V3OU   H25 1500   3.174   5.351   1.313
   11V3OU   C17 1501   3.236   5.903   1.196
   11V3OU    H7 1502   3.169   5.962   1.133
   11V3OU   C18 1503   3.321   5.967   1.285
   11V3OU    H8 1504   3.323   6.078   1.291
   12V3OU   H29 1505   6.762   4.378   4.949
   12V3OU   C27 1506   6.709   4.445   5.020
   12V3OU   H27 1507   6.757   4.546   5.030
   12V3OU   H28 1508   6.598   4.450   5.001
   12V3OU   O11 1509   6.723   4.382   5.149
   12V3OU   C15 1510   6.676   4.437   5.267
   12V3OU   C13 1511   6.703   4.363   5.385
   12V3OU   C14 1512   6.627   4.386   5.503
   12V3OU   C16 1513   6.529   4.485   5.503
   12V3OU    H6 1514   6.470   4.504   5.594
   12V3OU   C12 1515   6.644   4.302   5.626
   12V3OU    O2 1516   6.567   4.308   5.726
   12V3OU   C10 1517   6.754   4.205   5.627
   12V3OU    C8 1518   6.773   4.123   5.737
   12V3OU   O10 1519   6.708   4.144   5.855
   12V3OU   H26 1520   6.647   4.223   5.831
   12V3OU    C6 1521   6.870   4.016   5.732
   12V3OU    C5 1522   6.948   3.998   5.618
   12V3OU    C4 1523   6.872   3.915   5.842
   12V3OU    H4 1524   6.851   3.963   5.942
   12V3OU    H5 1525   6.788   3.842   5.822
   12V3OU    C2 1526   0.003   3.838   5.853
   12V3OU    O6 1527   0.105   3.929   5.894
   12V3OU   H21 1528   0.148   3.951   5.799
   12V3OU    C3 1529   0.048   3.793   5.715
   12V3OU    H2 1530   0.145   3.738   5.723
   12V3OU    H3 1531   6.971   3.722   5.675
   12V3OU   C25 1532   6.984   3.722   5.956
   12V3OU    O7 1533   6.955   3.606   5.921
   12V3OU   C26 1534   6.998   3.757   6.105
   12V3OU   H22 1535   0.076   3.690   6.148
   12V3OU   H23 1536   6.900   3.741   6.157
   12V3OU    O8 1537   0.030   3.894   6.130
   12V3OU   H24 1538   0.081   3.926   6.044
   12V3OU    C1 1539   0.066   3.905   5.616
   12V3OU    H1 1540   0.081   3.860   5.513
   12V3OU    O3 1541   0.181   3.975   5.663
   12V3OU   C19 1542   0.289   3.989   5.570
   12V3OU    H9 1543   0.252   4.020   5.467
   12V3OU    O4 1544   0.338   3.860   5.550
   12V3OU   C20 1545   0.424   3.799   5.648
   12V3OU   H10 1546   0.362   3.781   5.740
   12V3OU   C24 1547   0.392   4.088   5.623
   12V3OU   H16 1548   0.340   4.181   5.657
   12V3OU   H17 1549   0.461   4.113   5.538
   12V3OU   C23 1550   0.473   4.026   5.736
   12V3OU   H15 1551   0.400   3.999   5.819
   12V3OU    N1 1552   0.563   4.130   5.782
   12V3OU   H19 1553   0.569   4.119   5.881
   12V3OU   H20 1554   0.517   4.218   5.765
   12V3OU   C21 1555   0.544   3.889   5.691
   12V3OU   H11 1556   0.587   3.842   5.784
   12V3OU    O5 1557   0.653   3.903   5.590
   12V3OU   H18 1558   0.739   3.936   5.640
   12V3OU   C22 1559   0.465   3.666   5.588
   12V3OU   H12 1560   0.520   3.683   5.492
   12V3OU   H13 1561   0.374   3.605   5.567
   12V3OU   H14 1562   0.530   3.611   5.660
   12V3OU   C11 1563   6.819   4.273   5.392
   12V3OU    O1 1564   6.902   4.257   5.299
   12V3OU    C9 1565   6.835   4.184   5.509
   12V3OU    C7 1566   6.928   4.083   5.506
   12V3OU    O9 1567   6.983   4.042   5.388
   12V3OU   H25 1568   6.964   4.132   5.333
   12V3OU   C17 1569   6.578   4.538   5.274
   12V3OU    H7 1570   6.563   4.604   5.188
   12V3OU   C18 1571   6.504   4.561   5.390
   12V3OU    H8 1572   6.423   4.636   5.390
   13V3OU   H29 1573   2.043   5.724   2.227
   13V3OU   C27 1574   2.046   5.653   2.140
   13V3OU   H27 1575   2.041   5.546   2.172
   13V3OU   H28 1576   1.972   5.679   2.060
   13V3OU   O11 1577   2.176   5.672   2.082
   13V3OU   C15 1578   2.223   5.597   1.974
   13V3OU   C13 1579   2.355   5.625   1.929
   13V3OU   C14 1580   2.405   5.559   1.814
   13V3OU   C16 1581   2.325   5.466   1.747
   13V3OU    H6 1582   2.364   5.415   1.657
   13V3OU   C12 1583   2.544   5.584   1.760
   13V3OU    O2 1584   2.590   5.528   1.657
   13V3OU   C10 1585   2.623   5.688   1.827
   13V3OU    C8 1586   2.745   5.725   1.773
   13V3OU   O10 1587   2.804   5.654   1.674
   13V3OU   H26 1588   2.728   5.586   1.650
   13V3OU    C6 1589   2.819   5.837   1.828
   13V3OU    C5 1590   2.770   5.900   1.943
   13V3OU    C4 1591   2.923   5.903   1.744
   13V3OU    H4 1592   2.987   5.825   1.694
   13V3OU    H5 1593   2.870   5.959   1.662
   13V3OU    C2 1594   3.017   5.998   1.818
   13V3OU    O6 1595   3.105   5.920   1.898
   13V3OU   H21 1596   3.050   5.914   1.986
   13V3OU    C3 1597   2.941   6.080   1.921
   13V3OU    H2 1598   3.015   6.137   1.983
   13V3OU    H3 1599   2.877   6.153   1.866
   13V3OU   C25 1600   3.088   6.087   1.710
   13V3OU    O7 1601   3.028   6.178   1.649
   13V3OU   C26 1602   3.233   6.054   1.670
   13V3OU   H22 1603   3.293   6.147   1.689
   13V3OU   H23 1604   3.237   6.028   1.561
   13V3OU    O8 1605   3.292   5.942   1.734
   13V3OU   H24 1606   3.233   5.922   1.820
   13V3OU    C1 1607   2.855   6.000   2.015
   13V3OU    H1 1608   2.793   6.072   2.077
   13V3OU    O3 1609   2.945   5.925   2.095
   13V3OU   C19 1610   2.925   5.922   2.236
   13V3OU    H9 1611   2.815   5.927   2.266
   13V3OU    O4 1612   2.980   6.042   2.284
   13V3OU   C20 1613   3.123   6.058   2.276
   13V3OU   H10 1614   3.149   6.063   2.166
   13V3OU   C24 1615   2.992   5.798   2.292
   13V3OU   H16 1616   2.950   5.708   2.241
   13V3OU   H17 1617   2.968   5.792   2.401
   13V3OU   C23 1618   3.142   5.807   2.274
   13V3OU   H15 1619   3.162   5.812   2.162
   13V3OU    N1 1620   3.193   5.686   2.332
   13V3OU   H19 1621   3.274   5.660   2.278
   13V3OU   H20 1622   3.123   5.616   2.315
   13V3OU   C21 1623   3.205   5.941   2.337
   13V3OU   H11 1624   3.309   5.951   2.294
   13V3OU    O5 1625   3.216   5.937   2.485
   13V3OU   H18 1626   3.204   5.841   2.511
   13V3OU   C22 1627   3.153   6.192   2.340
   13V3OU   H12 1628   3.122   6.191   2.447
   13V3OU   H13 1629   3.095   6.273   2.288
   13V3OU   H14 1630   3.262   6.215   2.332
   13V3OU   C11 1631   2.443   5.719   2.002
   13V3OU    O1 1632   2.416   5.769   2.114
   13V3OU    C9 1633   2.573   5.758   1.943
   13V3OU    C7 1634   2.647   5.860   1.999
   13V3OU    O9 1635   2.609   5.920   2.116
   13V3OU   H25 1636   2.517   5.870   2.130
   13V3OU   C17 1637   2.147   5.503   1.903
   13V3OU    H7 1638   2.047   5.479   1.937
   13V3OU   C18 1639   2.197   5.438   1.791
   13V3OU    H8 1640   2.138   5.359   1.741
   14SOL     OW 1641   0.242   0.696   0.090
   14SOL    HW1 1642   0.151   0.656   0.080
   14SOL    HW2 1643   0.305   0.653   0.026
   15SOL     OW 1644   0.197   0.289   1.005
   15SOL    HW1 1645   0.260   0.248   1.071
   15SOL    HW2 1646   0.106   0.251   1.018
   16SOL     OW 1647   6.999   0.349   0.657
   16SOL    HW1 1648   6.945   0.365   0.739
   16SOL    HW2 1649   0.005   0.251   0.639
   17SOL     OW 1650   0.574   1.354   1.272
   17SOL    HW1 1651   0.504   1.363   1.200
   17SOL    HW2 1652   0.611   1.445   1.292
   18SOL     OW 1653   1.619   1.485   0.733
   18SOL    HW1 1654   1.557   1.453   0.805
   18SOL    HW2 1655   1.567   1.535   0.664
   19SOL     OW 1656   1.121   0.713   0.649
   19SOL    HW1 1657   1.165   0.803   0.650
   19SOL    HW2 1658   1.057   0.707   0.726
   20SOL     OW 1659   1.824   0.575   0.095
   20SOL    HW1 1660   1.799   0.671   0.083
   20SOL    HW2 1661   1.786   0.540   0.181
   21SOL     OW 1662   0.702   1.130   1.099
   21SOL    HW1 1663   0.647   1.163   1.176
   21SOL    HW2 1664   0.746   1.208   1.053
   22SOL     OW 1665   0.909   0.728   1.808
   22SOL    HW1 1666   0.936   0.796   1.877
   22SOL    HW2 1667   0.912   0.770   1.717
   23SOL     OW 1668   0.705   0.971   0.668
   23SOL    HW1 1669   0.771   0.979   0.743
   23SOL    HW2 1670   0.623   1.024   0.689
   24SOL     OW 1671   0.724   1.161   1.865
   24SOL    HW1 1672   0.785   1.229   1.905
   24SOL    HW2 1673   0.647   1.206   1.821
   25SOL     OW 1674   0.387   1.426   1.088
   25SOL    HW1 1675   0.302   1.380   1.062
   25SOL    HW2 1676   0.419   1.482   1.012
   26SOL     OW 1677   1.441   1.507   1.389
   26SOL    HW1 1678   1.501   1.586   1.401
   26SOL    HW2 1679   1.363   1.515   1.453
   27SOL     OW 1680   0.444   0.358   1.457
   27SOL    HW1 1681   0.523   0.303   1.484
   27SOL    HW2 1682   0.366   0.335   1.516
   28SOL     OW 1683   1.640   0.507   0.746
   28SOL    HW1 1684   1.629   0.548   0.656
   28SOL    HW2 1685   1.586   0.559   0.813
   29SOL     OW 1686   0.215   1.758   0.453
   29SOL    HW1 1687   0.242   1.829   0.518
   29SOL    HW2 1688   0.296   1.728   0.401
   30SOL     OW 1689   1.120   1.337   1.717
   30SOL    HW1 1690   1.173   1.324   1.801
   30SOL    HW2 1691   1.062   1.258   1.702
   31SOL     OW 1692   0.320   1.486   0.550
   31SOL    HW1 1693   0.275   1.575   0.549
   31SOL    HW2 1694   0.281   1.430   0.623
   32SOL     OW 1695   0.267   1.107   0.895
   32SOL    HW1 1696   0.261   1.010   0.919
   32SOL    HW2 1697   0.221   1.162   0.964
   33SOL     OW 1698   0.608   1.866   1.396
   33SOL    HW1 1699   0.532   1.829   1.448
   33SOL    HW2 1700   0.653   1.938   1.448
   34SOL     OW 1701   0.568   0.957   0.202
   34SOL    HW1 1702   0.604   0.978   0.111
   34SOL    HW2 1703   0.620   1.007   0.271
   35SOL     OW 1704   1.591   0.080   1.497
   35SOL    HW1 1705   1.683   0.116   1.487
   35SOL    HW2 1706   1.546   0.124   1.575
   36SOL     OW 1707   0.128   0.599   0.579
   36SOL    HW1 1708   0.075   0.522   0.612
   36SOL    HW2 1709   0.112   0.678   0.638
   37SOL     OW 1710   1.863   1.755   0.346
   37SOL    HW1 1711   1.941   1.724   0.400
   37SOL    HW2 1712   1.885   1.844   0.305
   38SOL     OW 1713   7.000   1.538   0.116
   38SOL    HW1 1714   6.981   1.444   0.145
   38SOL    HW2 1715   0.091   1.564   0.146
   39SOL     OW 1716   1.703   0.940   0.651
   39SOL    HW1 1717   1.794   0.899   0.653
   39SOL    HW2 1718   1.688   0.983   0.562
   40SOL     OW 1719   1.655   1.087   0.417
   40SOL    HW1 1720   1.703   1.089   0.329
   40SOL    HW2 1721   1.686   1.163   0.474
   41SOL     OW 1722   0.121   0.783   1.528
   41SOL    HW1 1723   0.135   0.831   1.442
   41SOL    HW2 1724   0.127   0.848   1.604
   42SOL     OW 1725   0.623   1.354   0.763
   42SOL    HW1 1726   0.576   1.265   0.761
   42SOL    HW2 1727   0.614   1.397   0.673
   43SOL     OW 1728   1.252   1.220   1.423
   43SOL    HW1 1729   1.272   1.150   1.355
   43SOL    HW2 1730   1.321   1.217   1.495
   44SOL     OW 1731   0.840   0.049   0.537
   44SOL    HW1 1732   0.904   0.124   0.518
   44SOL    HW2 1733   0.746   0.082   0.528
   45SOL     OW 1734   0.177   0.940   1.310
   45SOL    HW1 1735   0.265   0.902   1.280
   45SOL    HW2 1736   0.120   0.959   1.229
   46SOL     OW 1737   1.428   1.063   0.256
   46SOL    HW1 1738   1.366   0.985   0.269
   46SOL    HW2 1739   1.506   1.053   0.317
   47SOL     OW 1740   1.169   1.796   1.635
   47SOL    HW1 1741   1.190   1.866   1.566
   47SOL    HW2 1742   1.184   1.705   1.597
   48SOL     OW 1743   0.347   0.297   1.885
   48SOL    HW1 1744   0.375   0.377   1.938
   48SOL    HW2 1745   0.248   0.299   1.873
   49SOL     OW 1746   1.434   1.406   0.919
   49SOL    HW1 1747   1.387   1.438   1.002
   49SOL    HW2 1748   1.418   1.309   0.907
   50SOL     OW 1749   1.652   1.891   0.538
   50SOL    HW1 1750   1.644   1.819   0.470
   50SOL    HW2 1751   1.689   1.853   0.623
   51SOL     OW 1752   0.578   0.691   0.265
   51SOL    HW1 1753   0.578   0.787   0.238
   51SOL    HW2 1754   0.520   0.679   0.345
   52SOL     OW 1755   1.297   0.422   0.922
   52SOL    HW1 1756   1.203   0.387   0.929
   52SOL    HW2 1757   1.357   0.367   0.980
   53SOL     OW 1758   1.601   1.689   0.350
   53SOL    HW1 1759   1.700   1.695   0.341
   53SOL    HW2 1760   1.561   1.664   0.262
   54SOL     OW 1761   0.807   0.591   1.465
   54SOL    HW1 1762   0.780   0.548   1.551
   54SOL    HW2 1763   0.781   0.532   1.388
   55SOL     OW 1764   1.373   0.477   1.666
   55SOL    HW1 1765   1.378   0.525   1.754
   55SOL    HW2 1766   1.419   0.389   1.674
   56SOL     OW 1767   0.941   0.882   1.577
   56SOL    HW1 1768   0.999   0.821   1.524
   56SOL    HW2 1769   0.879   0.931   1.515
   57SOL     OW 1770   1.019   0.428   1.170
   57SOL    HW1 1771   0.925   0.442   1.204
   57SOL    HW2 1772   1.016   0.381   1.082
   58SOL     OW 1773   1.040   0.697   0.389
   58SOL    HW1 1774   1.068   0.700   0.485
   58SOL    HW2 1775   0.952   0.651   0.382
   59SOL     OW 1776   0.091   0.802   0.766
   59SOL    HW1 1777   0.179   0.818   0.812
   59SOL    HW2 1778   0.020   0.786   0.835
   60SOL     OW 1779   0.871   0.321   0.228
   60SOL    HW1 1780   0.904   0.376   0.152
   60SOL    HW2 1781   0.870   0.225   0.202
   61SOL     OW 1782   1.664   0.586   1.843
   61SOL    HW1 1783   1.648   0.669   1.789
   61SOL    HW2 1784   1.687   0.510   1.781
   62SOL     OW 1785   1.412   1.177   0.609
   62SOL    HW1 1786   1.503   1.173   0.567
   62SOL    HW2 1787   1.362   1.255   0.572
   63SOL     OW 1788   0.514   0.242   0.929
   63SOL    HW1 1789   0.555   0.246   1.020
   63SOL    HW2 1790   0.520   0.332   0.885
   64SOL     OW 1791   1.017   1.461   0.493
   64SOL    HW1 1792   0.991   1.537   0.433
   64SOL    HW2 1793   0.971   1.471   0.581
   65SOL     OW 1794   0.391   1.826   0.866
   65SOL    HW1 1795   0.423   1.732   0.870
   65SOL    HW2 1796   0.467   1.888   0.889
   66SOL     OW 1797   1.791   1.054   0.891
   66SOL    HW1 1798   1.742   1.036   0.806
   66SOL    HW2 1799   1.725   1.065   0.966
   67SOL     OW 1800   1.196   1.530   1.529
   67SOL    HW1 1801   1.186   1.462   1.601
   67SOL    HW2 1802   1.137   1.507   1.451
   68SOL     OW 1803   0.296   0.936   0.208
   68SOL    HW1 1804   0.395   0.949   0.205
   68SOL    HW2 1805   0.273   0.845   0.173
   69SOL     OW 1806   1.477   0.797   0.702
   69SOL    HW1 1807   1.476   0.748   0.789
   69SOL    HW2 1808   1.560   0.854   0.697
   70SOL     OW 1809   0.511   1.287   1.748
   70SOL    HW1 1810   0.485   1.262   1.655
   70SOL    HW2 1811   0.430   1.316   1.799
   71SOL     OW 1812   1.127   1.753   0.222
   71SOL    HW1 1813   1.050   1.727   0.280
   71SOL    HW2 1814   1.163   1.673   0.174
   72SOL     OW 1815   0.192   0.321   1.582
   72SOL    HW1 1816   0.147   0.405   1.552
   72SOL    HW2 1817   0.166   0.301   1.677
   73SOL     OW 1818   1.664   1.384   0.159
   73SOL    HW1 1819   1.650   1.463   0.099
   73SOL    HW2 1820   1.580   1.366   0.211
   74SOL     OW 1821   0.474   1.743   0.357
   74SOL    HW1 1822   0.519   1.809   0.417
   74SOL    HW2 1823   0.542   1.678   0.322
   75SOL     OW 1824   1.495   0.180   0.383
   75SOL    HW1 1825   1.499   0.081   0.375
   75SOL    HW2 1826   1.580   0.215   0.421
   76SOL     OW 1827   0.222   1.825   1.200
   76SOL    HW1 1828   0.278   1.751   1.236
   76SOL    HW2 1829   0.176   1.794   1.116
   77SOL     OW 1830   0.967   1.682   0.868
   77SOL    HW1 1831   1.059   1.645   0.882
   77SOL    HW2 1832   0.918   1.626   0.801
   78SOL     OW 1833   0.417   0.649   0.487
   78SOL    HW1 1834   0.435   0.553   0.505
   78SOL    HW2 1835   0.322   0.671   0.508
   79SOL     OW 1836   1.491   0.223   1.730
   79SOL    HW1 1837   1.533   0.232   1.820
   79SOL    HW2 1838   1.398   0.189   1.739
   80SOL     OW 1839   0.659   0.110   0.035
   80SOL    HW1 1840   0.754   0.094   0.062
   80SOL    HW2 1841   0.657   0.161   6.949
   81SOL     OW 1842   0.810   0.246   1.761
   81SOL    HW1 1843   0.896   0.202   1.738
   81SOL    HW2 1844   0.764   0.195   1.834
   82SOL     OW 1845   0.893   1.541   1.173
   82SOL    HW1 1846   0.860   1.483   1.099
   82SOL    HW2 1847   0.953   1.488   1.233
   83SOL     OW 1848   1.312   0.594   1.425
   83SOL    HW1 1849   1.343   0.562   1.515
   83SOL    HW2 1850   1.343   0.687   1.410
   84SOL     OW 1851   0.806   1.354   0.975
   84SOL    HW1 1852   0.896   1.356   0.931
   84SOL    HW2 1853   0.735   1.353   0.905
   85SOL     OW 1854   0.935   0.575   0.859
   85SOL    HW1 1855   0.905   0.549   0.768
   85SOL    HW2 1856   0.968   0.494   0.908
   86SOL     OW 1857   0.587   0.141   0.482
   86SOL    HW1 1858   0.511   0.110   0.539
   86SOL    HW2 1859   0.555   0.155   0.388
   87SOL     OW 1860   1.402   1.173   6.993
   87SOL    HW1 1861   1.440   1.121   0.069
   87SOL    HW2 1862   1.311   1.208   0.018
   88SOL     OW 1863   0.243   0.053   0.236
   88SOL    HW1 1864   0.331   0.102   0.236
   88SOL    HW2 1865   0.247   6.979   0.302
   89SOL     OW 1866   0.995   0.266   0.466
   89SOL    HW1 1867   0.949   0.289   0.381
   89SOL    HW2 1868   1.094   0.278   0.454
   90SOL     OW 1869   1.054   0.699   1.409
   90SOL    HW1 1870   0.979   0.639   1.436
   90SOL    HW2 1871   1.140   0.648   1.413
   91SOL     OW 1872   1.223   1.572   0.805
   91SOL    HW1 1873   1.244   1.653   0.751
   91SOL    HW2 1874   1.309   1.528   0.833
   92SOL     OW 1875   0.483   1.120   0.726
   92SOL    HW1 1876   0.410   1.114   0.794
   92SOL    HW2 1877   0.447   1.092   0.637
   93SOL     OW 1878   1.263   1.811   0.651
   93SOL    HW1 1879   1.310   1.880   0.595
   93SOL    HW2 1880   1.176   1.848   0.684
   94SOL     OW 1881   0.975   0.468   0.024
   94SOL    HW1 1882   0.913   0.546   0.016
   94SOL    HW2 1883   1.050   0.492   0.085
   95SOL     OW 1884   0.080   0.534   1.400
   95SOL    HW1 1885   0.174   0.530   1.365
   95SOL    HW2 1886   0.069   0.618   1.453
   96SOL     OW 1887   0.598   0.252   1.190
   96SOL    HW1 1888   0.665   0.199   1.242
   96SOL    HW2 1889   0.506   0.225   1.217
   97SOL     OW 1890   0.883   0.471   0.616
   97SOL    HW1 1891   0.832   0.520   0.545
   97SOL    HW2 1892   0.927   0.391   0.576
   98SOL     OW 1893   0.952   6.986   0.803
   98SOL    HW1 1894   0.905   0.004   0.717
   98SOL    HW2 1895   0.995   6.896   0.800
   99SOL     OW 1896   1.409   1.132   0.883
   99SOL    HW1 1897   1.361   1.048   0.907
   99SOL    HW2 1898   1.410   1.143   0.784
  100SOL     OW 1899   1.465   0.648   0.932
  100SOL    HW1 1900   1.399   0.573   0.937
  100SOL    HW2 1901   1.531   0.639   1.007
  101SOL     OW 1902   1.818   0.807   0.378
  101SOL    HW1 1903   1.890   0.751   0.420
  101SOL    HW2 1904   1.824   0.799   0.279
  102SOL     OW 1905   0.475   1.425   0.217
  102SOL    HW1 1906   0.432   1.369   0.288
  102SOL    HW2 1907   0.455   1.386   0.127
  103SOL     OW 1908   1.728   1.274   0.591
  103SOL    HW1 1909   1.825   1.257   0.612
  103SOL    HW2 1910   1.697   1.354   0.642
  104SOL     OW 1911   1.331   0.505   0.031
  104SOL    HW1 1912   1.268   0.507   0.108
  104SOL    HW2 1913   1.416   0.460   0.058
  105SOL     OW 1914   0.484   0.187   0.229
  105SOL    HW1 1915   0.551   0.157   0.161
  105SOL    HW2 1916   0.468   0.285   0.219
  106SOL     OW 1917   1.743   1.215   1.517
  106SOL    HW1 1918   1.832   1.178   1.493
  106SOL    HW2 1919   1.755   1.306   1.558
  107SOL     OW 1920   1.033   1.367   1.348
  107SOL    HW1 1921   0.947   1.335   1.388
  107SOL    HW2 1922   1.109   1.313   1.385
  108SOL     OW 1923   1.615   1.625   1.679
  108SOL    HW1 1924   1.598   1.670   1.591
  108SOL    HW2 1925   1.691   1.561   1.668
  109SOL     OW 1926   1.144   1.271   1.114
  109SOL    HW1 1927   1.083   1.301   1.187
  109SOL    HW2 1928   1.105   1.298   1.025
  110SOL     OW 1929   1.597   1.098   1.084
  110SOL    HW1 1930   1.590   1.164   1.159
  110SOL    HW2 1931   1.524   1.115   1.018
  111SOL     OW 1932   0.848   0.176   1.314
  111SOL    HW1 1933   0.874   0.148   1.222
  111SOL    HW2 1934   0.930   0.204   1.365
  112SOL     OW 1935   0.960   1.112   1.724
  112SOL    HW1 1936   0.869   1.127   1.762
  112SOL    HW2 1937   0.960   1.031   1.666
  113SOL     OW 1938   0.737   1.063   0.401
  113SOL    HW1 1939   0.724   1.027   0.493
  113SOL    HW2 1940   0.810   1.011   0.355
  114SOL     OW 1941   0.420   0.803   1.277
  114SOL    HW1 1942   0.492   0.811   1.346
  114SOL    HW2 1943   0.381   0.711   1.280
  115SOL     OW 1944   1.263   0.376   1.271
  115SOL    HW1 1945   1.292   0.452   1.328
  115SOL    HW2 1946   1.174   0.396   1.230
  116SOL     OW 1947   0.387   1.045   0.485
  116SOL    HW1 1948   0.364   1.132   0.441
  116SOL    HW2 1949   0.365   0.970   0.422
  117SOL     OW 1950   0.538   0.525   0.878
  117SOL    HW1 1951   0.552   0.580   0.795
  117SOL    HW2 1952   0.604   0.553   0.948
  118SOL     OW 1953   1.285   1.395   0.502
  118SOL    HW1 1954   1.334   1.477   0.532
  118SOL    HW2 1955   1.187   1.413   0.501
  119SOL     OW 1956   1.315   1.484   1.149
  119SOL    HW1 1957   1.362   1.491   1.236
  119SOL    HW2 1958   1.254   1.405   1.150
  120SOL     OW 1959   1.621   0.657   0.508
  120SOL    HW1 1960   1.547   0.706   0.554
  120SOL    HW2 1961   1.683   0.724   0.466
  121SOL     OW 1962   0.389   1.623   1.286
  121SOL    HW1 1963   0.360   1.547   1.228
  121SOL    HW2 1964   0.489   1.625   1.290
  122SOL     OW 1965   0.520   0.684   1.681
  122SOL    HW1 1966   0.548   0.732   1.598
  122SOL    HW2 1967   0.588   0.615   1.705
  123SOL     OW 1968   1.619   0.813   1.700
  123SOL    HW1 1969   1.524   0.845   1.693
  123SOL    HW2 1970   1.670   0.840   1.618
  124SOL     OW 1971   1.029   0.095   1.678
  124SOL    HW1 1972   1.050   0.142   1.593
  124SOL    HW2 1973   1.028   6.996   1.662
  125SOL     OW 1974   0.446   0.049   1.859
  125SOL    HW1 1975   0.374   6.992   1.898
  125SOL    HW2 1976   0.414   0.144   1.856
  126SOL     OW 1977   0.564   0.885   1.053
  126SOL    HW1 1978   0.607   0.974   1.063
  126SOL    HW2 1979   0.511   0.864   1.135
  127SOL     OW 1980   1.306   0.886   0.977
  127SOL    HW1 1981   1.210   0.859   0.966
  127SOL    HW2 1982   1.365   0.805   0.965
  128SOL     OW 1983   1.157   0.499   0.238
  128SOL    HW1 1984   1.198   0.434   0.301
  128SOL    HW2 1985   1.119   0.577   0.289
  129SOL     OW 1986   0.336   0.162   1.205
  129SOL    HW1 1987   0.263   0.150   1.273
  129SOL    HW2 1988   0.350   0.075   1.156
  130SOL     OW 1989   0.140   1.322   1.325
  130SOL    HW1 1990   0.143   1.255   1.400
  130SOL    HW2 1991   0.060   1.381   1.336
  131SOL     OW 1992   0.725   0.661   1.035
  131SOL    HW1 1993   0.789   0.654   0.958
  131SOL    HW2 1994   0.671   0.745   1.025
  132SOL     OW 1995   1.774   0.981   1.857
  132SOL    HW1 1996   1.721   0.914   1.806
  132SOL    HW2 1997   1.722   1.013   1.936
  133SOL     OW 1998   0.367   0.079   0.623
  133SOL    HW1 1999   0.333   0.161   0.668
  133SOL    HW2 2000   0.308   0.001   0.647
  134SOL     OW 2001   1.710   0.478   0.324
  134SOL    HW1 2002   1.739   0.396   0.374
  134SOL    HW2 2003   1.670   0.543   0.388
  135SOL     OW 2004   1.044   0.800   0.969
  135SOL    HW1 2005   1.011   0.811   1.063
  135SOL    HW2 2006   1.011   0.713   0.933
  136SOL     OW 2007   0.981   1.567   1.785
  136SOL    HW1 2008   0.950   1.628   1.712
  136SOL    HW2 2009   1.015   1.482   1.745
  137SOL     OW 2010   1.828   1.469   1.587
  137SOL    HW1 2011   1.842   1.499   1.492
  137SOL    HW2 2012   1.911   1.488   1.639
  138SOL     OW 2013   0.412   0.896   1.824
  138SOL    HW1 2014   0.481   0.935   1.886
  138SOL    HW2 2015   0.453   0.820   1.773
  139SOL     OW 2016   1.522   0.358   0.163
  139SOL    HW1 2017   1.501   0.275   0.214
  139SOL    HW2 2018   1.591   0.412   0.212
  140SOL     OW 2019   1.262   0.774   0.018
  140SOL    HW1 2020   1.293   0.679   0.008
  140SOL    HW2 2021   1.299   0.829   6.943
  141SOL     OW 2022   1.055   1.360   0.868
  141SOL    HW1 2023   1.067   1.278   0.812
  141SOL    HW2 2024   1.115   1.433   0.834
  142SOL     OW 2025   0.313   0.822   0.934
  142SOL    HW1 2026   0.407   0.849   0.953
  142SOL    HW2 2027   0.298   0.729   0.966
  143SOL     OW 2028   0.298   0.541   1.008
  143SOL    HW1 2029   0.252   0.453   0.999
  143SOL    HW2 2030   0.383   0.539   0.955
  144SOL     OW 2031   1.100   0.428   1.654
  144SOL    HW1 2032   1.062   0.443   1.745
  144SOL    HW2 2033   1.197   0.451   1.655
  145SOL     OW 2034   1.077   0.249   1.454
  145SOL    HW1 2035   1.077   0.321   1.523
  145SOL    HW2 2036   1.149   0.268   1.387
  146SOL     OW 2037   6.930   1.284   0.192
  146SOL    HW1 2038   6.888   1.320   0.274
  146SOL    HW2 2039   6.984   1.202   0.215
  147SOL     OW 2040   0.141   1.742   0.951
  147SOL    HW1 2041   0.102   1.671   0.892
  147SOL    HW2 2042   0.230   1.770   0.915
  148SOL     OW 2043   0.505   1.575   0.889
  148SOL    HW1 2044   0.583   1.630   0.919
  148SOL    HW2 2045   0.538   1.495   0.838
  149SOL     OW 2046   0.914   0.819   1.206
  149SOL    HW1 2047   0.970   0.782   1.280
  149SOL    HW2 2048   0.838   0.757   1.188
  150SOL     OW 2049   0.047   0.610   1.126
  150SOL    HW1 2050   0.136   0.591   1.086
  150SOL    HW2 2051   0.049   0.587   1.224
  151SOL     OW 2052   0.250   0.631   1.720
  151SOL    HW1 2053   0.350   0.630   1.715
  151SOL    HW2 2054   0.213   0.683   1.642
  152SOL     OW 2055   1.378   0.928   1.635
  152SOL    HW1 2056   1.399   1.025   1.633
  152SOL    HW2 2057   1.367   0.895   1.541
  153SOL     OW 2058   0.804   0.560   0.360
  153SOL    HW1 2059   0.811   0.471   0.315
  153SOL    HW2 2060   0.722   0.608   0.329
  154SOL     OW 2061   1.660   0.622   1.124
  154SOL    HW1 2062   1.643   0.540   1.179
  154SOL    HW2 2063   1.758   0.638   1.118
  155SOL     OW 2064   0.300   1.617   1.751
  155SOL    HW1 2065   0.215   1.668   1.758
  155SOL    HW2 2066   0.287   1.524   1.787
  156SOL     OW 2067   0.752   0.473   1.227
  156SOL    HW1 2068   0.691   0.394   1.215
  156SOL    HW2 2069   0.733   0.541   1.157
  157SOL     OW 2070   0.863   1.712   1.548
  157SOL    HW1 2071   0.828   1.646   1.482
  157SOL    HW2 2072   0.899   1.792   1.500
  158SOL     OW 2073   0.438   0.453   0.198
  158SOL    HW1 2074   0.489   0.538   0.203
  158SOL    HW2 2075   0.348   0.465   0.238
  159SOL     OW 2076   0.163   1.123   1.512
  159SOL    HW1 2077   0.173   1.069   1.595
  159SOL    HW2 2078   0.164   1.062   1.432
  160SOL     OW 2079   1.270   1.044   1.200
  160SOL    HW1 2080   1.290   0.984   1.123
  160SOL    HW2 2081   1.223   1.126   1.167
  161SOL     OW 2082   1.260   0.850   0.280
  161SOL    HW1 2083   1.190   0.801   0.331
  161SOL    HW2 2084   1.265   0.814   0.187
  162SOL     OW 2085   1.751   1.698   1.150
  162SOL    HW1 2086   1.823   1.720   1.084
  162SOL    HW2 2087   1.713   1.608   1.127
  163SOL     OW 2088   1.270   1.758   1.111
  163SOL    HW1 2089   1.361   1.797   1.097
  163SOL    HW2 2090   1.278   1.659   1.122
  164SOL     OW 2091   0.150   1.295   1.057
  164SOL    HW1 2092   0.157   1.292   1.156
  164SOL    HW2 2093   0.061   1.333   1.031
  165SOL     OW 2094   0.677   1.710   1.745
  165SOL    HW1 2095   0.599   1.772   1.731
  165SOL    HW2 2096   0.746   1.727   1.674
  166SOL     OW 2097   0.916   0.067   0.135
  166SOL    HW1 2098   1.012   0.065   0.107
  166SOL    HW2 2099   0.897   6.990   0.196
  167SOL     OW 2100   1.762   0.245   0.469
  167SOL    HW1 2101   1.811   0.207   0.391
  167SOL    HW2 2102   1.745   0.173   0.536
  168SOL     OW 2103   1.442   1.615   0.563
  168SOL    HW1 2104   1.494   1.641   0.481
  168SOL    HW2 2105   1.380   1.690   0.588
  169SOL     OW 2106   1.262   0.949   0.648
  169SOL    HW1 2107   1.336   0.885   0.667
  169SOL    HW2 2108   1.300   1.035   0.615
  170SOL     OW 2109   0.785   1.289   1.436
  170SOL    HW1 2110   0.771   1.339   1.522
  170SOL    HW2 2111   0.707   1.304   1.376
  171SOL     OW 2112   0.681   1.608   0.223
  171SOL    HW1 2113   0.667   1.663   0.140
  171SOL    HW2 2114   0.624   1.526   0.218
  172SOL     OW 2115   1.615   1.726   1.409
  172SOL    HW1 2116   1.661   1.720   1.320
  172SOL    HW2 2117   1.637   1.814   1.452
  173SOL     OW 2118   1.868   0.126   0.972
  173SOL    HW1 2119   1.881   0.027   0.958
  173SOL    HW2 2120   1.781   0.154   0.932
  174SOL     OW 2121   0.264   0.307   0.736
  174SOL    HW1 2122   0.174   0.334   0.702
  174SOL    HW2 2123   0.260   0.296   0.835
  175SOL     OW 2124   1.229   1.535   0.077
  175SOL    HW1 2125   1.222   1.439   0.103
  175SOL    HW2 2126   1.154   1.558   0.015
  176SOL     OW 2127   0.790   1.016   1.394
  176SOL    HW1 2128   0.831   0.996   1.305
  176SOL    HW2 2129   0.792   1.114   1.411
  177SOL     OW 2130   0.924   0.921   0.268
  177SOL    HW1 2131   0.968   0.942   0.181
  177SOL    HW2 2132   0.969   0.843   0.311
  178SOL     OW 2133   1.477   1.657   0.097
  178SOL    HW1 2134   1.392   1.605   0.100
  178SOL    HW2 2135   1.495   1.687   0.004
  179SOL     OW 2136   0.430   1.243   1.496
  179SOL    HW1 2137   0.464   1.283   1.411
  179SOL    HW2 2138   0.337   1.210   1.481
  180SOL     OW 2139   1.582   1.284   1.296
  180SOL    HW1 2140   1.644   1.252   1.367
  180SOL    HW2 2141   1.521   1.354   1.333
  181SOL     OW 2142   1.066   1.123   0.744
  181SOL    HW1 2143   0.989   1.076   0.788
  181SOL    HW2 2144   1.130   1.055   0.708
  182SOL     OW 2145   1.030   0.306   0.924
  182SOL    HW1 2146   1.009   0.289   0.828
  182SOL    HW2 2147   1.008   0.225   0.978
  183SOL     OW 2148   0.605   1.482   0.523
  183SOL    HW1 2149   0.646   1.436   0.445
  183SOL    HW2 2150   0.506   1.489   0.510
  184SOL     OW 2151   1.842   0.346   1.441
  184SOL    HW1 2152   1.885   0.430   1.408
  184SOL    HW2 2153   1.824   0.286   1.363
  185SOL     OW 2154   0.303   1.279   0.374
  185SOL    HW1 2155   0.212   1.256   0.340
  185SOL    HW2 2156   0.296   1.355   0.438
  186SOL     OW 2157   0.161   0.962   1.733
  186SOL    HW1 2158   0.106   1.006   1.804
  186SOL    HW2 2159   0.251   0.939   1.771
  187SOL     OW 2160   0.671   0.202   1.524
  187SOL    HW1 2161   0.735   0.195   1.448
  187SOL    HW2 2162   0.720   0.234   1.606
  188SOL     OW 2163   6.990   0.578   0.031
  188SOL    HW1 2164   6.931   0.589   0.111
  188SOL    HW2 2165   0.001   0.481   0.010
  189SOL     OW 2166   1.382   0.856   1.371
  189SOL    HW1 2167   1.322   0.917   1.320
  189SOL    HW2 2168   1.473   0.858   1.331
  190SOL     OW 2169   0.054   0.252   0.271
  190SOL    HW1 2170   0.114   0.325   0.306
  190SOL    HW2 2171   0.107   0.167   0.262
  191SOL     OW 2172   1.157   1.242   0.107
  191SOL    HW1 2173   1.070   1.290   0.105
  191SOL    HW2 2174   1.181   1.220   0.201
  192SOL     OW 2175   0.630   0.801   1.453
  192SOL    HW1 2176   0.676   0.889   1.440
  192SOL    HW2 2177   0.697   0.727   1.455
  193SOL     OW 2178   1.528   1.856   1.070
  193SOL    HW1 2179   1.555   1.897   0.983
  193SOL    HW2 2180   1.604   1.803   1.107
  194SOL     OW 2181   0.740   0.517   1.722
  194SOL    HW1 2182   0.800   0.584   1.767
  194SOL    HW2 2183   0.769   0.425   1.747
  195SOL     OW 2184   1.463   1.188   1.618
  195SOL    HW1 2185   1.452   1.213   1.714
  195SOL    HW2 2186   1.558   1.203   1.590
  196SOL     OW 2187   0.404   1.743   1.535
  196SOL    HW1 2188   0.381   1.698   1.449
  196SOL    HW2 2189   0.372   1.687   1.611
  197SOL     OW 2190   1.621   0.872   1.240
  197SOL    HW1 2191   1.637   0.788   1.189
  197SOL    HW2 2192   1.618   0.950   1.177
  198SOL     OW 2193   1.262   0.323   0.422
  198SOL    HW1 2194   1.345   0.270   0.408
  198SOL    HW2 2195   1.271   0.378   0.505
  199SOL     OW 2196   0.599   0.712   0.685
  199SOL    HW1 2197   0.642   0.802   0.677
  199SOL    HW2 2198   0.534   0.700   0.609
  200SOL     OW 2199   1.724   0.368   1.684
  200SOL    HW1 2200   1.764   0.364   1.593
  200SOL    HW2 2201   1.641   0.312   1.686
  201SOL     OW 2202   1.737   0.921   1.482
  201SOL    HW1 2203   1.728   1.019   1.500
  201SOL    HW2 2204   1.701   0.901   1.391
  202SOL     OW 2205   0.933   1.391   0.128
  202SOL    HW1 2206   0.867   1.374   0.202
  202SOL    HW2 2207   0.910   1.477   0.082
  203SOL     OW 2208   0.708   1.741   0.950
  203SOL    HW1 2209   0.686   1.838   0.939
  203SOL    HW2 2210   0.805   1.727   0.931
  204SOL     OW 2211   0.866   0.997   0.891
  204SOL    HW1 2212   0.931   0.928   0.923
  204SOL    HW2 2213   0.813   1.032   0.969
  205SOL     OW 2214   1.066   0.973   0.035
  205SOL    HW1 2215   1.104   1.065   0.047
  205SOL    HW2 2216   1.141   0.907   0.029
  206SOL     OW 2217   1.874   1.505   0.852
  206SOL    HW1 2218   1.784   1.497   0.809
  206SOL    HW2 2219   1.900   1.417   0.891
  207SOL     OW 2220   0.280   1.372   1.870
  207SOL    HW1 2221   0.197   1.339   1.825
  207SOL    HW2 2222   0.274   1.354   1.968
  208SOL     OW 2223   0.184   1.310   0.715
  208SOL    HW1 2224   0.219   1.242   0.780
  208SOL    HW2 2225   0.122   1.266   0.651
  209SOL     OW 2226   0.713   1.443   1.651
  209SOL    HW1 2227   0.639   1.387   1.688
  209SOL    HW2 2228   0.707   1.536   1.688
  210SOL     OW 2229   1.793   0.162   1.245
  210SOL    HW1 2230   1.704   0.124   1.219
  210SOL    HW2 2231   1.853   0.161   1.165
  211SOL     OW 2232   0.441   0.384   0.541
  211SOL    HW1 2233   0.514   0.317   0.528
  211SOL    HW2 2234   0.388   0.361   0.622
  212SOL     OW 2235   1.650   1.458   1.092
  212SOL    HW1 2236   1.582   1.440   1.022
  212SOL    HW2 2237   1.641   1.391   1.166
  213SOL     OW 2238   0.330   0.541   1.290
  213SOL    HW1 2239   0.382   0.474   1.344
  213SOL    HW2 2240   0.339   0.520   1.193
  214SOL     OW 2241   0.831   1.531   0.688
  214SOL    HW1 2242   0.770   1.563   0.615
  214SOL    HW2 2243   0.789   1.456   0.738
  215SOL     OW 2244   1.458   0.284   1.097
  215SOL    HW1 2245   1.495   0.195   1.122
  215SOL    HW2 2246   1.393   0.314   1.167
  216SOL     OW 2247   0.955   0.082   1.067
  216SOL    HW1 2248   0.941   0.039   0.977
  216SOL    HW2 2249   0.984   0.012   1.133
  217SOL     OW 2250   0.790   1.332   0.364
  217SOL    HW1 2251   0.766   1.235   0.375
  217SOL    HW2 2252   0.874   1.351   0.415
  218SOL     OW 2253   0.667   1.616   1.303
  218SOL    HW1 2254   0.660   1.712   1.329
  218SOL    HW2 2255   0.748   1.602   1.247
  219SOL     OW 2256   1.457   0.002   0.076
  219SOL    HW1 2257   1.448   6.904   0.061
  219SOL    HW2 2258   1.367   0.045   0.072
  220SOL     OW 2259   1.264   0.473   0.649
  220SOL    HW1 2260   1.216   0.560   0.642
  220SOL    HW2 2261   1.287   0.454   0.744
  221SOL     OW 2262   1.640   0.258   0.873
  221SOL    HW1 2263   1.577   0.265   0.951
  221SOL    HW2 2264   1.644   0.345   0.825
  222SOL     OW 2265   0.075   1.072   0.302
  222SOL    HW1 2266   0.158   1.025   0.273
  222SOL    HW2 2267   6.998   1.008   0.298
  223SOL     OW 2268   0.906   1.679   0.366
  223SOL    HW1 2269   0.824   1.650   0.316
  223SOL    HW2 2270   0.883   1.757   0.425
  224SOL     OW 2271   0.169   0.741   1.979
  224SOL    HW1 2272   0.163   0.669   2.048
  224SOL    HW2 2273   0.213   0.704   1.897
  225SOL     OW 2274   0.194   0.291   2.855
  225SOL    HW1 2275   0.263   0.251   2.916
  225SOL    HW2 2276   0.105   0.248   2.871
  226SOL     OW 2277   0.004   0.387   2.526
  226SOL    HW1 2278   6.956   0.406   2.612
  226SOL    HW2 2279   6.999   0.289   2.507
  227SOL     OW 2280   0.577   1.319   3.099
  227SOL    HW1 2281   0.491   1.316   3.048
  227SOL    HW2 2282   0.601   1.415   3.118
  228SOL     OW 2283   1.588   1.517   2.553
  228SOL    HW1 2284   1.535   1.478   2.628
  228SOL    HW2 2285   1.529   1.535   2.475
  229SOL     OW 2286   1.122   0.732   2.524
  229SOL    HW1 2287   1.170   0.815   2.493
  229SOL    HW2 2288   1.083   0.749   2.615
  230SOL     OW 2289   1.808   0.576   2.070
  230SOL    HW1 2290   1.761   0.588   1.982
  230SOL    HW2 2291   1.763   0.502   2.120
  231SOL     OW 2292   0.720   1.124   2.957
  231SOL    HW1 2293   0.657   1.166   3.023
  231SOL    HW2 2294   0.764   1.195   2.903
  232SOL     OW 2295   0.900   0.734   3.652
  232SOL    HW1 2296   0.927   0.801   3.721
  232SOL    HW2 2297   0.908   0.773   3.561
  233SOL     OW 2298   0.686   0.969   2.526
  233SOL    HW1 2299   0.754   0.979   2.598
  233SOL    HW2 2300   0.608   1.029   2.545
  234SOL     OW 2301   0.709   1.161   3.713
  234SOL    HW1 2302   0.770   1.228   3.754
  234SOL    HW2 2303   0.631   1.208   3.671
  235SOL     OW 2304   0.348   1.384   2.953
  235SOL    HW1 2305   0.265   1.341   2.919
  235SOL    HW2 2306   0.391   1.438   2.881
  236SOL     OW 2307   1.436   1.505   3.248
  236SOL    HW1 2308   1.495   1.584   3.265
  236SOL    HW2 2309   1.356   1.509   3.308
  237SOL     OW 2310   0.445   0.341   3.318
  237SOL    HW1 2311   0.523   0.286   3.348
  237SOL    HW2 2312   0.365   0.318   3.374
  238SOL     OW 2313   1.631   0.516   2.612
  238SOL    HW1 2314   1.616   0.546   2.518
  238SOL    HW2 2315   1.575   0.569   2.674
  239SOL     OW 2316   0.242   1.727   2.383
  239SOL    HW1 2317   0.264   1.807   2.440
  239SOL    HW2 2318   0.293   1.732   2.297
  240SOL     OW 2319   1.119   1.333   3.578
  240SOL    HW1 2320   1.170   1.321   3.663
  240SOL    HW2 2321   1.060   1.253   3.564
  241SOL     OW 2322   0.341   1.471   2.404
  241SOL    HW1 2323   0.304   1.563   2.414
  241SOL    HW2 2324   0.293   1.409   2.467
  242SOL     OW 2325   0.266   1.102   2.730
  242SOL    HW1 2326   0.275   1.005   2.753
  242SOL    HW2 2327   0.208   1.147   2.797
  243SOL     OW 2328   0.563   1.832   3.266
  243SOL    HW1 2329   0.483   1.811   3.323
  243SOL    HW2 2330   0.615   1.906   3.309
  244SOL     OW 2331   0.583   0.994   2.040
  244SOL    HW1 2332   0.633   1.043   1.969
  244SOL    HW2 2333   0.620   1.017   2.129
  245SOL     OW 2334   1.576   0.081   3.326
  245SOL    HW1 2335   1.657   0.119   3.282
  245SOL    HW2 2336   1.554   0.134   3.408
  246SOL     OW 2337   0.114   0.629   2.433
  246SOL    HW1 2338   0.077   0.543   2.469
  246SOL    HW2 2339   0.093   0.703   2.497
  247SOL     OW 2340   1.861   1.754   2.180
  247SOL    HW1 2341   1.943   1.740   2.235
  247SOL    HW2 2342   1.862   1.846   2.141
  248SOL     OW 2343   6.862   1.530   2.019
  248SOL    HW1 2344   6.942   1.475   1.994
  248SOL    HW2 2345   6.836   1.510   2.113
  249SOL     OW 2346   1.707   0.948   2.529
  249SOL    HW1 2347   1.795   0.901   2.525
  249SOL    HW2 2348   1.696   1.005   2.447
  250SOL     OW 2349   1.686   1.124   2.309
  250SOL    HW1 2350   1.765   1.091   2.257
  250SOL    HW2 2351   1.714   1.199   2.368
  251SOL     OW 2352   0.246   0.726   3.425
  251SOL    HW1 2353   0.346   0.727   3.422
  251SOL    HW2 2354   0.213   0.815   3.457
  252SOL     OW 2355   0.634   1.356   2.609
  252SOL    HW1 2356   0.583   1.271   2.600
  252SOL    HW2 2357   0.628   1.408   2.523
  253SOL     OW 2358   1.238   1.211   3.287
  253SOL    HW1 2359   1.261   1.144   3.217
  253SOL    HW2 2360   1.310   1.212   3.357
  254SOL     OW 2361   0.854   0.070   2.462
  254SOL    HW1 2362   0.897   0.142   2.407
  254SOL    HW2 2363   0.763   0.050   2.426
  255SOL     OW 2364   0.209   0.912   3.142
  255SOL    HW1 2365   0.301   0.874   3.131
  255SOL    HW2 2366   0.144   0.859   3.088
  256SOL     OW 2367   1.572   1.056   2.061
  256SOL    HW1 2368   1.494   0.996   2.080
  256SOL    HW2 2369   1.611   1.088   2.147
  257SOL     OW 2370   1.161   1.785   3.490
  257SOL    HW1 2371   1.177   1.856   3.422
  257SOL    HW2 2372   1.178   1.695   3.449
  258SOL     OW 2373   0.341   0.317   3.731
  258SOL    HW1 2374   0.366   0.372   3.811
  258SOL    HW2 2375   0.241   0.307   3.728
  259SOL     OW 2376   1.437   1.419   2.763
  259SOL    HW1 2377   1.391   1.446   2.848
  259SOL    HW2 2378   1.420   1.322   2.744
  260SOL     OW 2379   1.628   1.844   2.403
  260SOL    HW1 2380   1.621   1.780   2.327
  260SOL    HW2 2381   1.650   1.794   2.487
  261SOL     OW 2382   0.557   0.719   2.138
  261SOL    HW1 2383   0.571   0.812   2.101
  261SOL    HW2 2384   0.497   0.724   2.217
  262SOL     OW 2385   1.284   0.424   2.785
  262SOL    HW1 2386   1.192   0.386   2.793
  262SOL    HW2 2387   1.347   0.370   2.841
  263SOL     OW 2388   1.599   1.679   2.184
  263SOL    HW1 2389   1.697   1.695   2.178
  263SOL    HW2 2390   1.562   1.665   2.092
  264SOL     OW 2391   0.822   0.584   3.321
  264SOL    HW1 2392   0.786   0.548   3.407
  264SOL    HW2 2393   0.790   0.528   3.245
  265SOL     OW 2394   1.371   0.487   3.523
  265SOL    HW1 2395   1.376   0.531   3.613
  265SOL    HW2 2396   1.422   0.400   3.526
  266SOL     OW 2397   0.946   0.890   3.418
  266SOL    HW1 2398   1.006   0.826   3.370
  266SOL    HW2 2399   0.896   0.945   3.351
  267SOL     OW 2400   1.015   0.426   3.035
  267SOL    HW1 2401   0.921   0.440   3.067
  267SOL    HW2 2402   1.013   0.384   2.945
  268SOL     OW 2403   1.028   0.691   2.266
  268SOL    HW1 2404   1.051   0.693   2.363
  268SOL    HW2 2405   0.938   0.650   2.254
  269SOL     OW 2406   0.069   0.822   2.638
  269SOL    HW1 2407   0.163   0.830   2.670
  269SOL    HW2 2408   0.007   0.827   2.716
  270SOL     OW 2409   0.103   1.897   3.492
  270SOL    HW1 2410   0.121   1.866   3.586
  270SOL    HW2 2411   0.005   1.889   3.473
  271SOL     OW 2412   0.843   0.346   2.068
  271SOL    HW1 2413   0.903   0.392   2.003
  271SOL    HW2 2414   0.797   0.270   2.024
  272SOL     OW 2415   1.657   0.600   3.707
  272SOL    HW1 2416   1.639   0.683   3.654
  272SOL    HW2 2417   1.675   0.524   3.645
  273SOL     OW 2418   1.410   1.185   2.423
  273SOL    HW1 2419   1.499   1.172   2.378
  273SOL    HW2 2420   1.355   1.248   2.369
  274SOL     OW 2421   0.502   0.229   2.781
  274SOL    HW1 2422   0.549   0.231   2.869
  274SOL    HW2 2423   0.507   0.319   2.738
  275SOL     OW 2424   0.995   1.466   2.331
  275SOL    HW1 2425   0.979   1.548   2.276
  275SOL    HW2 2426   0.963   1.482   2.425
  276SOL     OW 2427   0.377   1.786   2.738
  276SOL    HW1 2428   0.406   1.691   2.742
  276SOL    HW2 2429   0.451   1.845   2.771
  277SOL     OW 2430   1.787   1.051   2.773
  277SOL    HW1 2431   1.747   1.031   2.684
  277SOL    HW2 2432   1.714   1.068   2.839
  278SOL     OW 2433   1.190   1.520   3.383
  278SOL    HW1 2434   1.182   1.453   3.456
  278SOL    HW2 2435   1.128   1.495   3.308
  279SOL     OW 2436   0.305   0.950   2.109
  279SOL    HW1 2437   0.396   0.967   2.072
  279SOL    HW2 2438   0.263   0.873   2.061
  280SOL     OW 2439   1.474   0.806   2.552
  280SOL    HW1 2440   1.464   0.755   2.637
  280SOL    HW2 2441   1.558   0.859   2.554
  281SOL     OW 2442   0.476   1.299   3.618
  281SOL    HW1 2443   0.458   1.288   3.520
  281SOL    HW2 2444   0.389   1.301   3.667
  282SOL     OW 2445   1.177   1.761   2.117
  282SOL    HW1 2446   1.085   1.748   2.155
  282SOL    HW2 2447   1.194   1.692   2.047
  283SOL     OW 2448   0.189   0.314   3.435
  283SOL    HW1 2449   0.152   0.397   3.393
  283SOL    HW2 2450   0.151   0.304   3.527
  284SOL     OW 2451   1.648   1.391   1.957
  284SOL    HW1 2452   1.620   1.486   1.945
  284SOL    HW2 2453   1.574   1.330   1.929
  285SOL     OW 2454   0.412   1.765   2.175
  285SOL    HW1 2455   0.489   1.810   2.220
  285SOL    HW2 2456   0.445   1.690   2.118
  286SOL     OW 2457   1.380   0.116   2.261
  286SOL    HW1 2458   1.332   0.063   2.190
  286SOL    HW2 2459   1.478   0.104   2.250
  287SOL     OW 2460   0.245   1.766   3.073
  287SOL    HW1 2461   0.281   1.684   3.117
  287SOL    HW2 2462   0.193   1.740   2.992
  288SOL     OW 2463   0.967   1.688   2.743
  288SOL    HW1 2464   1.061   1.653   2.747
  288SOL    HW2 2465   0.916   1.639   2.673
  289SOL     OW 2466   0.388   0.675   2.355
  289SOL    HW1 2467   0.411   0.577   2.363
  289SOL    HW2 2468   0.292   0.689   2.377
  290SOL     OW 2469   1.486   0.224   3.561
  290SOL    HW1 2470   1.512   0.222   3.657
  290SOL    HW2 2471   1.394   0.186   3.551
  291SOL     OW 2472   0.685   0.116   1.976
  291SOL    HW1 2473   0.714   0.037   2.030
  291SOL    HW2 2474   0.600   0.094   1.929
  292SOL     OW 2475   0.802   0.258   3.623
  292SOL    HW1 2476   0.894   0.222   3.607
  292SOL    HW2 2477   0.758   0.207   3.697
  293SOL     OW 2478   0.855   1.513   3.044
  293SOL    HW1 2479   0.834   1.457   2.963
  293SOL    HW2 2480   0.919   1.464   3.103
  294SOL     OW 2481   1.330   0.595   3.273
  294SOL    HW1 2482   1.353   0.565   3.366
  294SOL    HW2 2483   1.349   0.692   3.264
  295SOL     OW 2484   0.812   1.343   2.822
  295SOL    HW1 2485   0.903   1.350   2.781
  295SOL    HW2 2486   0.743   1.345   2.750
  296SOL     OW 2487   0.907   0.546   2.720
  296SOL    HW1 2488   0.881   0.533   2.624
  296SOL    HW2 2489   0.945   0.461   2.756
  297SOL     OW 2490   0.600   0.043   2.330
  297SOL    HW1 2491   0.524   0.027   2.393
  297SOL    HW2 2492   0.584   0.128   2.279
  298SOL     OW 2493   1.434   1.226   1.893
  298SOL    HW1 2494   1.480   1.157   1.948
  298SOL    HW2 2495   1.346   1.248   1.935
  299SOL     OW 2496   0.291   0.121   2.202
  299SOL    HW1 2497   0.372   0.173   2.175
  299SOL    HW2 2498   0.300   0.090   2.297
  300SOL     OW 2499   0.961   0.273   2.308
  300SOL    HW1 2500   0.916   0.297   2.221
  300SOL    HW2 2501   1.058   0.292   2.301
  301SOL     OW 2502   1.065   0.697   3.264
  301SOL    HW1 2503   0.990   0.637   3.292
  301SOL    HW2 2504   1.151   0.646   3.265
  302SOL     OW 2505   1.216   1.579   2.656
  302SOL    HW1 2506   1.231   1.651   2.588
  302SOL    HW2 2507   1.305   1.541   2.683
  303SOL     OW 2508   0.476   1.140   2.559
  303SOL    HW1 2509   0.404   1.123   2.625
  303SOL    HW2 2510   0.438   1.139   2.467
  304SOL     OW 2511   1.242   1.793   2.474
  304SOL    HW1 2512   1.291   1.857   2.416
  304SOL    HW2 2513   1.160   1.838   2.512
  305SOL     OW 2514   1.014   0.496   1.910
  305SOL    HW1 2515   0.981   0.584   1.878
  305SOL    HW2 2516   1.087   0.510   1.977
  306SOL     OW 2517   0.119   0.538   3.257
  306SOL    HW1 2518   0.204   0.519   3.207
  306SOL    HW2 2519   0.135   0.613   3.322
  307SOL     OW 2520   0.601   0.245   3.041
  307SOL    HW1 2521   0.667   0.194   3.095
  307SOL    HW2 2522   0.508   0.218   3.067
  308SOL     OW 2523   0.857   0.477   2.465
  308SOL    HW1 2524   0.807   0.529   2.396
  308SOL    HW2 2525   0.897   0.395   2.423
  309SOL     OW 2526   0.975   6.977   2.690
  309SOL    HW1 2527   0.927   0.009   2.609
  309SOL    HW2 2528   1.015   6.887   2.672
  310SOL     OW 2529   1.402   1.148   2.714
  310SOL    HW1 2530   1.347   1.068   2.738
  310SOL    HW2 2531   1.407   1.157   2.615
  311SOL     OW 2532   1.442   0.656   2.782
  311SOL    HW1 2533   1.376   0.581   2.780
  311SOL    HW2 2534   1.494   0.652   2.867
  312SOL     OW 2535   1.810   0.773   2.256
  312SOL    HW1 2536   1.882   0.749   2.321
  312SOL    HW2 2537   1.810   0.708   2.180
  313SOL     OW 2538   0.483   1.548   2.023
  313SOL    HW1 2539   0.432   1.474   2.067
  313SOL    HW2 2540   0.456   1.554   1.927
  314SOL     OW 2541   1.776   1.310   2.475
  314SOL    HW1 2542   1.871   1.310   2.504
  314SOL    HW2 2543   1.730   1.392   2.509
  315SOL     OW 2544   1.385   0.588   1.913
  315SOL    HW1 2545   1.332   0.567   1.996
  315SOL    HW2 2546   1.482   0.583   1.933
  316SOL     OW 2547   0.528   0.259   2.164
  316SOL    HW1 2548   0.591   0.223   2.096
  316SOL    HW2 2549   0.492   0.347   2.132
  317SOL     OW 2550   1.734   1.223   3.386
  317SOL    HW1 2551   1.824   1.182   3.375
  317SOL    HW2 2552   1.744   1.315   3.423
  318SOL     OW 2553   1.015   1.354   3.214
  318SOL    HW1 2554   0.930   1.328   3.259
  318SOL    HW2 2555   1.090   1.299   3.250
  319SOL     OW 2556   1.609   1.628   3.546
  319SOL    HW1 2557   1.589   1.672   3.458
  319SOL    HW2 2558   1.685   1.564   3.536
  320SOL     OW 2559   1.141   1.279   2.977
  320SOL    HW1 2560   1.077   1.306   3.049
  320SOL    HW2 2561   1.103   1.304   2.888
  321SOL     OW 2562   1.575   1.104   2.937
  321SOL    HW1 2563   1.568   1.172   3.011
  321SOL    HW2 2564   1.507   1.125   2.867
  322SOL     OW 2565   0.848   0.177   3.179
  322SOL    HW1 2566   0.877   0.146   3.089
  322SOL    HW2 2567   0.927   0.206   3.232
  323SOL     OW 2568   0.954   1.110   3.581
  323SOL    HW1 2569   0.860   1.125   3.613
  323SOL    HW2 2570   0.956   1.032   3.518
  324SOL     OW 2571   0.730   1.060   2.267
  324SOL    HW1 2572   0.708   1.026   2.359
  324SOL    HW2 2573   0.817   1.021   2.237
  325SOL     OW 2574   0.449   0.778   3.115
  325SOL    HW1 2575   0.526   0.788   3.178
  325SOL    HW2 2576   0.415   0.684   3.120
  326SOL     OW 2577   1.258   0.370   3.137
  326SOL    HW1 2578   1.292   0.449   3.188
  326SOL    HW2 2579   1.170   0.392   3.096
  327SOL     OW 2580   0.088   1.520   3.272
  327SOL    HW1 2581   0.057   1.567   3.355
  327SOL    HW2 2582   0.186   1.536   3.260
  328SOL     OW 2583   0.369   1.136   2.308
  328SOL    HW1 2584   0.361   1.217   2.249
  328SOL    HW2 2585   0.349   1.054   2.254
  329SOL     OW 2586   0.520   0.517   2.741
  329SOL    HW1 2587   0.532   0.574   2.659
  329SOL    HW2 2588   0.588   0.543   2.809
  330SOL     OW 2589   1.250   1.368   2.276
  330SOL    HW1 2590   1.310   1.445   2.301
  330SOL    HW2 2591   1.156   1.390   2.301
  331SOL     OW 2592   1.324   1.481   3.000
  331SOL    HW1 2593   1.367   1.489   3.090
  331SOL    HW2 2594   1.259   1.405   3.001
  332SOL     OW 2595   1.590   0.637   2.363
  332SOL    HW1 2596   1.524   0.696   2.410
  332SOL    HW2 2597   1.662   0.694   2.323
  333SOL     OW 2598   0.351   1.524   3.186
  333SOL    HW1 2599   0.339   1.470   3.103
  333SOL    HW2 2600   0.446   1.553   3.193
  334SOL     OW 2601   0.519   0.707   3.490
  334SOL    HW1 2602   0.568   0.751   3.414
  334SOL    HW2 2603   0.575   0.633   3.526
  335SOL     OW 2604   1.605   0.824   3.563
  335SOL    HW1 2605   1.510   0.853   3.554
  335SOL    HW2 2606   1.657   0.854   3.483
  336SOL     OW 2607   1.035   0.114   3.561
  336SOL    HW1 2608   1.053   0.156   3.472
  336SOL    HW2 2609   1.031   0.014   3.549
  337SOL     OW 2610   0.446   0.068   3.716
  337SOL    HW1 2611   0.372   0.012   3.752
  337SOL    HW2 2612   0.415   0.163   3.707
  338SOL     OW 2613   0.569   0.887   2.892
  338SOL    HW1 2614   0.614   0.974   2.910
  338SOL    HW2 2615   0.521   0.856   2.974
  339SOL     OW 2616   1.285   0.897   2.818
  339SOL    HW1 2617   1.192   0.864   2.803
  339SOL    HW2 2618   1.349   0.820   2.809
  340SOL     OW 2619   1.199   0.541   2.113
  340SOL    HW1 2620   1.216   0.462   2.172
  340SOL    HW2 2621   1.145   0.609   2.162
  341SOL     OW 2622   0.337   0.162   3.054
  341SOL    HW1 2623   0.264   0.148   3.121
  341SOL    HW2 2624   0.354   0.077   3.004
  342SOL     OW 2625   0.087   1.280   3.148
  342SOL    HW1 2626   0.111   1.205   3.210
  342SOL    HW2 2627   0.082   1.366   3.199
  343SOL     OW 2628   0.715   0.650   2.891
  343SOL    HW1 2629   0.780   0.628   2.818
  343SOL    HW2 2630   0.669   0.737   2.871
  344SOL     OW 2631   1.761   0.976   3.735
  344SOL    HW1 2632   1.706   0.914   3.678
  344SOL    HW2 2633   1.706   1.007   3.812
  345SOL     OW 2634   0.348   0.053   2.461
  345SOL    HW1 2635   0.334   0.139   2.510
  345SOL    HW2 2636   0.286   6.983   2.497
  346SOL     OW 2637   1.618   0.413   2.202
  346SOL    HW1 2638   1.680   0.357   2.257
  346SOL    HW2 2639   1.587   0.491   2.256
  347SOL     OW 2640   1.031   0.776   2.791
  347SOL    HW1 2641   1.011   0.791   2.888
  347SOL    HW2 2642   0.992   0.688   2.762
  348SOL     OW 2643   0.976   1.560   3.645
  348SOL    HW1 2644   0.945   1.621   3.571
  348SOL    HW2 2645   1.014   1.477   3.605
  349SOL     OW 2646   1.823   1.473   3.459
  349SOL    HW1 2647   1.848   1.504   3.368
  349SOL    HW2 2648   1.900   1.489   3.521
  350SOL     OW 2649   0.422   0.890   3.673
  350SOL    HW1 2650   0.489   0.917   3.742
  350SOL    HW2 2651   0.463   0.822   3.612
  351SOL     OW 2652   1.523   0.245   2.004
  351SOL    HW1 2653   1.424   0.256   2.006
  351SOL    HW2 2654   1.565   0.308   2.070
  352SOL     OW 2655   1.275   0.833   1.868
  352SOL    HW1 2656   1.311   0.741   1.878
  352SOL    HW2 2657   1.307   0.872   1.781
  353SOL     OW 2658   1.063   1.359   2.725
  353SOL    HW1 2659   1.077   1.277   2.669
  353SOL    HW2 2660   1.116   1.435   2.688
  354SOL     OW 2661   0.314   0.829   2.773
  354SOL    HW1 2662   0.411   0.848   2.790
  354SOL    HW2 2663   0.294   0.735   2.801
  355SOL     OW 2664   0.270   0.556   2.842
  355SOL    HW1 2665   0.222   0.468   2.840
  355SOL    HW2 2666   0.359   0.546   2.799
  356SOL     OW 2667   1.099   0.439   3.514
  356SOL    HW1 2668   1.059   0.454   3.604
  356SOL    HW2 2669   1.196   0.463   3.516
  357SOL     OW 2670   1.073   0.252   3.323
  357SOL    HW1 2671   1.074   0.328   3.388
  357SOL    HW2 2672   1.144   0.266   3.254
  358SOL     OW 2673   0.042   1.328   2.119
  358SOL    HW1 2674   6.969   1.363   2.177
  358SOL    HW2 2675   0.042   1.228   2.123
  359SOL     OW 2676   0.122   1.720   2.826
  359SOL    HW1 2677   0.093   1.646   2.765
  359SOL    HW2 2678   0.208   1.759   2.792
  360SOL     OW 2679   0.489   1.532   2.770
  360SOL    HW1 2680   0.564   1.589   2.804
  360SOL    HW2 2681   0.526   1.464   2.707
  361SOL     OW 2682   0.935   0.797   3.041
  361SOL    HW1 2683   0.988   0.769   3.121
  361SOL    HW2 2684   0.852   0.741   3.035
  362SOL     OW 2685   0.078   0.690   3.010
  362SOL    HW1 2686   0.144   0.646   2.949
  362SOL    HW2 2687   0.074   0.640   3.097
  363SOL     OW 2688   0.256   0.575   3.652
  363SOL    HW1 2689   0.317   0.496   3.657
  363SOL    HW2 2690   0.273   0.625   3.567
  364SOL     OW 2691   1.362   0.934   3.497
  364SOL    HW1 2692   1.387   1.030   3.496
  364SOL    HW2 2693   1.351   0.901   3.403
  365SOL     OW 2694   0.782   0.577   2.216
  365SOL    HW1 2695   0.791   0.495   2.160
  365SOL    HW2 2696   0.702   0.630   2.186
  366SOL     OW 2697   1.575   0.628   3.016
  366SOL    HW1 2698   1.521   0.576   3.083
  366SOL    HW2 2699   1.668   0.591   3.013
  367SOL     OW 2700   0.252   1.573   3.586
  367SOL    HW1 2701   0.205   1.641   3.643
  367SOL    HW2 2702   0.246   1.483   3.629
  368SOL     OW 2703   0.746   0.470   3.089
  368SOL    HW1 2704   0.689   0.389   3.074
  368SOL    HW2 2705   0.726   0.538   3.018
  369SOL     OW 2706   0.853   1.708   3.416
  369SOL    HW1 2707   0.810   1.638   3.358
  369SOL    HW2 2708   0.888   1.782   3.358
  370SOL     OW 2709   0.415   0.492   2.069
  370SOL    HW1 2710   0.476   0.571   2.077
  370SOL    HW2 2711   0.327   0.512   2.112
  371SOL     OW 2712   0.171   1.095   3.336
  371SOL    HW1 2713   0.181   1.047   3.423
  371SOL    HW2 2714   0.183   1.031   3.260
  372SOL     OW 2715   1.260   1.045   3.052
  372SOL    HW1 2716   1.275   0.988   2.972
  372SOL    HW2 2717   1.216   1.131   3.025
  373SOL     OW 2718   1.346   0.920   2.120
  373SOL    HW1 2719   1.274   0.909   2.188
  373SOL    HW2 2720   1.313   0.887   2.032
  374SOL     OW 2721   1.744   1.697   3.028
  374SOL    HW1 2722   1.820   1.730   2.972
  374SOL    HW2 2723   1.714   1.607   2.995
  375SOL     OW 2724   1.273   1.755   2.982
  375SOL    HW1 2725   1.363   1.797   2.971
  375SOL    HW2 2726   1.281   1.656   2.986
  376SOL     OW 2727   0.104   1.264   2.882
  376SOL    HW1 2728   0.095   1.260   2.981
  376SOL    HW2 2729   0.018   1.296   2.842
  377SOL     OW 2730   0.686   1.727   3.631
  377SOL    HW1 2731   0.615   1.796   3.621
  377SOL    HW2 2732   0.752   1.736   3.557
  378SOL     OW 2733   1.799   0.268   2.342
  378SOL    HW1 2734   1.842   0.234   2.258
  378SOL    HW2 2735   1.765   0.190   2.395
  379SOL     OW 2736   1.403   1.585   2.356
  379SOL    HW1 2737   1.466   1.619   2.286
  379SOL    HW2 2738   1.340   1.658   2.382
  380SOL     OW 2739   0.130   1.781   3.744
  380SOL    HW1 2740   0.083   1.701   3.781
  380SOL    HW2 2741   0.183   1.825   3.817
  381SOL     OW 2742   1.267   0.957   2.467
  381SOL    HW1 2743   1.340   0.896   2.495
  381SOL    HW2 2744   1.305   1.043   2.436
  382SOL     OW 2745   0.761   1.296   3.309
  382SOL    HW1 2746   0.739   1.352   3.389
  382SOL    HW2 2747   0.686   1.300   3.243
  383SOL     OW 2748   0.720   1.688   2.015
  383SOL    HW1 2749   0.733   1.691   1.916
  383SOL    HW2 2750   0.644   1.626   2.037
  384SOL     OW 2751   1.608   1.722   3.277
  384SOL    HW1 2752   1.656   1.711   3.190
  384SOL    HW2 2753   1.629   1.812   3.315
  385SOL     OW 2754   1.867   0.152   2.805
  385SOL    HW1 2755   1.861   0.055   2.829
  385SOL    HW2 2756   1.776   0.185   2.780
  386SOL     OW 2757   0.268   0.291   2.579
  386SOL    HW1 2758   0.182   0.336   2.554
  386SOL    HW2 2759   0.274   0.281   2.678
  387SOL     OW 2760   1.230   1.578   1.921
  387SOL    HW1 2761   1.222   1.483   1.954
  387SOL    HW2 2762   1.152   1.600   1.862
  388SOL     OW 2763   0.805   1.035   3.234
  388SOL    HW1 2764   0.817   1.039   3.135
  388SOL    HW2 2765   0.791   1.127   3.270
  389SOL     OW 2766   0.961   0.946   2.189
  389SOL    HW1 2767   0.987   0.956   2.093
  389SOL    HW2 2768   0.987   0.856   2.222
  390SOL     OW 2769   1.499   1.652   1.925
  390SOL    HW1 2770   1.403   1.624   1.917
  390SOL    HW2 2771   1.541   1.651   1.835
  391SOL     OW 2772   0.379   1.291   3.365
  391SOL    HW1 2773   0.369   1.370   3.305
  391SOL    HW2 2774   0.310   1.222   3.342
  392SOL     OW 2775   1.586   1.293   3.146
  392SOL    HW1 2776   1.649   1.260   3.216
  392SOL    HW2 2777   1.525   1.361   3.186
  393SOL     OW 2778   1.076   1.122   2.598
  393SOL    HW1 2779   0.996   1.074   2.634
  393SOL    HW2 2780   1.132   1.058   2.544
  394SOL     OW 2781   1.025   0.298   2.789
  394SOL    HW1 2782   1.014   0.267   2.694
  394SOL    HW2 2783   1.006   0.221   2.850
  395SOL     OW 2784   0.616   1.497   2.376
  395SOL    HW1 2785   0.656   1.445   2.300
  395SOL    HW2 2786   0.516   1.491   2.371
  396SOL     OW 2787   1.869   0.335   3.337
  396SOL    HW1 2788   1.906   0.419   3.299
  396SOL    HW2 2789   1.838   0.275   3.263
  397SOL     OW 2790   0.304   1.372   2.156
  397SOL    HW1 2791   0.206   1.361   2.145
  397SOL    HW2 2792   0.324   1.412   2.245
  398SOL     OW 2793   0.179   0.964   3.579
  398SOL    HW1 2794   0.132   1.028   3.639
  398SOL    HW2 2795   0.268   0.941   3.618
  399SOL     OW 2796   0.672   0.192   3.388
  399SOL    HW1 2797   0.735   0.189   3.311
  399SOL    HW2 2798   0.719   0.231   3.468
  400SOL     OW 2799   0.072   0.296   1.846
  400SOL    HW1 2800   0.001   0.225   1.845
  400SOL    HW2 2801   0.032   0.384   1.820
  401SOL     OW 2802   1.371   0.865   3.232
  401SOL    HW1 2803   1.309   0.920   3.176
  401SOL    HW2 2804   1.464   0.872   3.196
  402SOL     OW 2805   0.078   0.284   2.129
  402SOL    HW1 2806   0.069   0.278   2.030
  402SOL    HW2 2807   0.147   0.219   2.160
  403SOL     OW 2808   1.186   1.317   2.004
  403SOL    HW1 2809   1.087   1.307   1.997
  403SOL    HW2 2810   1.212   1.320   2.101
  404SOL     OW 2811   0.664   0.804   3.279
  404SOL    HW1 2812   0.711   0.892   3.266
  404SOL    HW2 2813   0.732   0.732   3.292
  405SOL     OW 2814   1.526   1.859   2.950
  405SOL    HW1 2815   1.557   1.909   2.869
  405SOL    HW2 2816   1.601   1.803   2.986
  406SOL     OW 2817   0.723   0.528   3.573
  406SOL    HW1 2818   0.782   0.596   3.616
  406SOL    HW2 2819   0.750   0.436   3.602
  407SOL     OW 2820   1.457   1.191   3.481
  407SOL    HW1 2821   1.451   1.217   3.577
  407SOL    HW2 2822   1.550   1.207   3.448
  408SOL     OW 2823   0.355   1.785   3.444
  408SOL    HW1 2824   0.267   1.832   3.433
  408SOL    HW2 2825   0.339   1.694   3.482
  409SOL     OW 2826   1.613   0.888   3.105
  409SOL    HW1 2827   1.610   0.798   3.061
  409SOL    HW2 2828   1.603   0.960   3.037
  410SOL     OW 2829   1.226   0.338   2.292
  410SOL    HW1 2830   1.289   0.260   2.288
  410SOL    HW2 2831   1.244   0.390   2.376
  411SOL     OW 2832   0.570   0.716   2.557
  411SOL    HW1 2833   0.620   0.802   2.547
  411SOL    HW2 2834   0.504   0.706   2.482
  412SOL     OW 2835   1.710   0.384   3.548
  412SOL    HW1 2836   1.767   0.368   3.468
  412SOL    HW2 2837   1.633   0.321   3.547
  413SOL     OW 2838   1.722   0.940   3.348
  413SOL    HW1 2839   1.711   1.037   3.366
  413SOL    HW2 2840   1.688   0.918   3.257
  414SOL     OW 2841   0.902   1.355   1.969
  414SOL    HW1 2842   0.850   1.364   2.054
  414SOL    HW2 2843   0.906   1.443   1.922
  415SOL     OW 2844   0.693   1.699   2.826
  415SOL    HW1 2845   0.666   1.795   2.815
  415SOL    HW2 2846   0.792   1.691   2.820
  416SOL     OW 2847   0.866   0.993   2.735
  416SOL    HW1 2848   0.923   0.913   2.755
  416SOL    HW2 2849   0.820   1.024   2.818
  417SOL     OW 2850   1.038   0.945   1.930
  417SOL    HW1 2851   1.016   1.018   1.865
  417SOL    HW2 2852   1.126   0.905   1.907
  418SOL     OW 2853   1.802   1.563   2.718
  418SOL    HW1 2854   1.732   1.558   2.647
  418SOL    HW2 2855   1.775   1.507   2.796
  419SOL     OW 2856   0.234   1.328   3.738
  419SOL    HW1 2857   0.147   1.278   3.729
  419SOL    HW2 2858   0.251   1.348   3.835
  420SOL     OW 2859   0.181   1.303   2.559
  420SOL    HW1 2860   0.218   1.233   2.619
  420SOL    HW2 2861   0.112   1.262   2.498
  421SOL     OW 2862   0.681   1.459   3.517
  421SOL    HW1 2863   0.602   1.411   3.554
  421SOL    HW2 2864   0.688   1.549   3.561
  422SOL     OW 2865   1.794   0.153   3.147
  422SOL    HW1 2866   1.732   0.125   3.074
  422SOL    HW2 2867   1.888   0.136   3.120
  423SOL     OW 2868   0.432   0.412   2.390
  423SOL    HW1 2869   0.482   0.345   2.335
  423SOL    HW2 2870   0.383   0.366   2.464
  424SOL     OW 2871   1.664   1.453   2.931
  424SOL    HW1 2872   1.586   1.441   2.870
  424SOL    HW2 2873   1.655   1.390   3.008
  425SOL     OW 2874   0.361   0.515   3.130
  425SOL    HW1 2875   0.403   0.451   3.194
  425SOL    HW2 2876   0.365   0.478   3.037
  426SOL     OW 2877   0.835   1.552   2.549
  426SOL    HW1 2878   0.775   1.585   2.476
  426SOL    HW2 2879   0.791   1.477   2.597
  427SOL     OW 2880   1.446   0.278   2.954
  427SOL    HW1 2881   1.495   0.194   2.979
  427SOL    HW2 2882   1.384   0.303   3.028
  428SOL     OW 2883   0.962   0.079   2.944
  428SOL    HW1 2884   0.958   0.036   2.853
  428SOL    HW2 2885   0.992   0.011   3.011
  429SOL     OW 2886   0.774   1.332   2.216
  429SOL    HW1 2887   0.756   1.236   2.233
  429SOL    HW2 2888   0.858   1.359   2.263
  430SOL     OW 2889   0.620   1.587   3.162
  430SOL    HW1 2890   0.607   1.681   3.193
  430SOL    HW2 2891   0.706   1.580   3.112
  431SOL     OW 2892   1.253   6.974   2.059
  431SOL    HW1 2893   1.313   6.909   2.012
  431SOL    HW2 2894   1.171   6.927   2.090
  432SOL     OW 2895   1.252   0.485   2.517
  432SOL    HW1 2896   1.206   0.574   2.515
  432SOL    HW2 2897   1.272   0.461   2.612
  433SOL     OW 2898   1.627   0.269   2.733
  433SOL    HW1 2899   1.564   0.273   2.810
  433SOL    HW2 2900   1.631   0.359   2.688
  434SOL     OW 2901   0.059   1.057   2.165
  434SOL    HW1 2902   0.152   1.021   2.155
  434SOL    HW2 2903   6.997   0.981   2.184
  435SOL     OW 2904   0.920   1.700   2.206
  435SOL    HW1 2905   0.852   1.694   2.133
  435SOL    HW2 2906   0.893   1.772   2.271
  436SOL     OW 2907   0.177   0.729   3.869
  436SOL    HW1 2908   0.159   0.663   3.941
  436SOL    HW2 2909   0.218   0.683   3.790
  437SOL     OW 2910   0.194   0.296   4.726
  437SOL    HW1 2911   0.263   0.254   4.785
  437SOL    HW2 2912   0.106   0.252   4.742
  438SOL     OW 2913   6.995   0.383   4.389
  438SOL    HW1 2914   6.948   0.402   4.475
  438SOL    HW2 2915   6.991   0.286   4.368
  439SOL     OW 2916   0.580   1.317   4.959
  439SOL    HW1 2917   0.493   1.313   4.910
  439SOL    HW2 2918   0.603   1.413   4.978
  440SOL     OW 2919   1.587   1.517   4.433
  440SOL    HW1 2920   1.542   1.470   4.508
  440SOL    HW2 2921   1.522   1.527   4.357
  441SOL     OW 2922   1.119   0.736   4.388
  441SOL    HW1 2923   1.167   0.819   4.358
  441SOL    HW2 2924   1.079   0.753   4.478
  442SOL     OW 2925   1.794   0.567   3.937
  442SOL    HW1 2926   1.757   0.589   3.847
  442SOL    HW2 2927   1.735   0.501   3.983
  443SOL     OW 2928   0.723   1.128   4.810
  443SOL    HW1 2929   0.663   1.169   4.878
  443SOL    HW2 2930   0.769   1.200   4.758
  444SOL     OW 2931   0.904   0.730   5.522
  444SOL    HW1 2932   0.931   0.798   5.590
  444SOL    HW2 2933   0.911   0.769   5.431
  445SOL     OW 2934   0.687   0.965   4.386
  445SOL    HW1 2935   0.757   0.978   4.456
  445SOL    HW2 2936   0.610   1.027   4.404
  446SOL     OW 2937   0.711   1.162   5.575
  446SOL    HW1 2938   0.773   1.229   5.617
  446SOL    HW2 2939   0.633   1.209   5.535
  447SOL     OW 2940   0.349   1.381   4.817
  447SOL    HW1 2941   0.265   1.340   4.783
  447SOL    HW2 2942   0.393   1.433   4.744
  448SOL     OW 2943   1.443   1.499   5.112
  448SOL    HW1 2944   1.501   1.579   5.126
  448SOL    HW2 2945   1.362   1.506   5.170
  449SOL     OW 2946   0.447   0.344   5.185
  449SOL    HW1 2947   0.526   0.291   5.214
  449SOL    HW2 2948   0.367   0.319   5.239
  450SOL     OW 2949   1.642   0.505   4.457
  450SOL    HW1 2950   1.618   0.534   4.365
  450SOL    HW2 2951   1.594   0.562   4.524
  451SOL     OW 2952   0.258   1.731   4.208
  451SOL    HW1 2953   0.276   1.807   4.270
  451SOL    HW2 2954   0.320   1.736   4.130
  452SOL     OW 2955   1.125   1.332   5.432
  452SOL    HW1 2956   1.200   1.310   5.493
  452SOL    HW2 2957   1.061   1.255   5.427
  453SOL     OW 2958   0.342   1.472   4.253
  453SOL    HW1 2959   0.306   1.565   4.255
  453SOL    HW2 2960   0.294   1.416   4.321
  454SOL     OW 2961   0.272   1.106   4.593
  454SOL    HW1 2962   0.279   1.009   4.615
  454SOL    HW2 2963   0.210   1.150   4.658
  455SOL     OW 2964   0.564   1.827   5.132
  455SOL    HW1 2965   0.484   1.807   5.188
  455SOL    HW2 2966   0.616   1.901   5.173
  456SOL     OW 2967   0.584   0.985   3.895
  456SOL    HW1 2968   0.630   1.038   3.823
  456SOL    HW2 2969   0.625   1.006   3.983
  457SOL     OW 2970   1.607   0.039   5.253
  457SOL    HW1 2971   1.701   0.030   5.287
  457SOL    HW2 2972   1.554   0.096   5.316
  458SOL     OW 2973   0.110   0.622   4.304
  458SOL    HW1 2974   0.069   0.538   4.340
  458SOL    HW2 2975   0.093   0.698   4.367
  459SOL     OW 2976   1.853   1.766   4.037
  459SOL    HW1 2977   1.924   1.739   4.102
  459SOL    HW2 2978   1.857   1.865   4.022
  460SOL     OW 2979   6.994   1.568   3.825
  460SOL    HW1 2980   0.003   1.485   3.880
  460SOL    HW2 2981   6.902   1.572   3.785
  461SOL     OW 2982   1.707   0.950   4.395
  461SOL    HW1 2983   1.796   0.906   4.391
  461SOL    HW2 2984   1.695   1.010   4.316
  462SOL     OW 2985   1.684   1.127   4.177
  462SOL    HW1 2986   1.762   1.090   4.127
  462SOL    HW2 2987   1.715   1.203   4.235
  463SOL     OW 2988   0.247   0.717   5.293
  463SOL    HW1 2989   0.347   0.718   5.291
  463SOL    HW2 2990   0.214   0.806   5.324
  464SOL     OW 2991   0.638   1.355   4.464
  464SOL    HW1 2992   0.587   1.269   4.458
  464SOL    HW2 2993   0.631   1.405   4.378
  465SOL     OW 2994   1.244   1.210   5.147
  465SOL    HW1 2995   1.266   1.142   5.077
  465SOL    HW2 2996   1.315   1.209   5.217
  466SOL     OW 2997   0.870   0.079   4.333
  466SOL    HW1 2998   0.909   0.151   4.275
  466SOL    HW2 2999   0.779   0.055   4.299
  467SOL     OW 3000   0.212   0.911   5.003
  467SOL    HW1 3001   0.303   0.873   4.992
  467SOL    HW2 3002   0.146   0.857   4.950
  468SOL     OW 3003   1.567   1.061   3.932
  468SOL    HW1 3004   1.487   1.004   3.949
  468SOL    HW2 3005   1.606   1.090   4.019
  469SOL     OW 3006   1.168   1.786   5.353
  469SOL    HW1 3007   1.179   1.857   5.284
  469SOL    HW2 3008   1.182   1.696   5.311
  470SOL     OW 3009   0.343   0.303   5.603
  470SOL    HW1 3010   0.364   0.356   5.684
  470SOL    HW2 3011   0.244   0.292   5.594
  471SOL     OW 3012   1.474   1.388   4.645
  471SOL    HW1 3013   1.412   1.425   4.714
  471SOL    HW2 3014   1.445   1.295   4.621
  472SOL     OW 3015   1.663   1.763   4.309
  472SOL    HW1 3016   1.636   1.732   4.217
  472SOL    HW2 3017   1.647   1.689   4.374
  473SOL     OW 3018   0.546   0.707   4.000
  473SOL    HW1 3019   0.562   0.799   3.964
  473SOL    HW2 3020   0.487   0.713   4.080
  474SOL     OW 3021   1.292   0.427   4.650
  474SOL    HW1 3022   1.201   0.386   4.658
  474SOL    HW2 3023   1.355   0.379   4.711
  475SOL     OW 3024   1.595   1.679   4.050
  475SOL    HW1 3025   1.690   1.707   4.041
  475SOL    HW2 3026   1.554   1.670   3.959
  476SOL     OW 3027   0.820   0.584   5.187
  476SOL    HW1 3028   0.785   0.545   5.273
  476SOL    HW2 3029   0.788   0.528   5.111
  477SOL     OW 3030   1.373   0.476   5.394
  477SOL    HW1 3031   1.378   0.523   5.482
  477SOL    HW2 3032   1.421   0.389   5.399
  478SOL     OW 3033   0.945   0.889   5.288
  478SOL    HW1 3034   1.004   0.825   5.238
  478SOL    HW2 3035   0.893   0.944   5.223
  479SOL     OW 3036   1.015   0.427   4.899
  479SOL    HW1 3037   0.921   0.441   4.931
  479SOL    HW2 3038   1.014   0.384   4.809
  480SOL     OW 3039   1.022   0.691   4.131
  480SOL    HW1 3040   1.047   0.694   4.228
  480SOL    HW2 3041   0.932   0.649   4.121
  481SOL     OW 3042   0.071   0.820   4.502
  481SOL    HW1 3043   0.165   0.830   4.534
  481SOL    HW2 3044   0.008   0.827   4.579
  482SOL     OW 3045   0.100   1.891   5.359
  482SOL    HW1 3046   0.118   1.860   5.452
  482SOL    HW2 3047   0.003   1.884   5.339
  483SOL     OW 3048   0.840   0.349   3.933
  483SOL    HW1 3049   0.896   0.395   3.864
  483SOL    HW2 3050   0.793   0.271   3.891
  484SOL     OW 3051   1.659   0.581   5.561
  484SOL    HW1 3052   1.642   0.666   5.510
  484SOL    HW2 3053   1.683   0.508   5.496
  485SOL     OW 3054   1.412   1.183   4.285
  485SOL    HW1 3055   1.502   1.172   4.242
  485SOL    HW2 3056   1.358   1.248   4.232
  486SOL     OW 3057   0.504   0.230   4.647
  486SOL    HW1 3058   0.552   0.233   4.735
  486SOL    HW2 3059   0.508   0.320   4.604
  487SOL     OW 3060   0.999   1.463   4.192
  487SOL    HW1 3061   0.980   1.541   4.132
  487SOL    HW2 3062   0.965   1.483   4.284
  488SOL     OW 3063   0.367   1.773   4.605
  488SOL    HW1 3064   0.401   1.679   4.610
  488SOL    HW2 3065   0.438   1.836   4.638
  489SOL     OW 3066   1.791   1.054   4.640
  489SOL    HW1 3067   1.748   1.036   4.551
  489SOL    HW2 3068   1.720   1.066   4.709
  490SOL     OW 3069   1.192   1.523   5.239
  490SOL    HW1 3070   1.182   1.455   5.312
  490SOL    HW2 3071   1.132   1.499   5.163
  491SOL     OW 3072   0.309   0.954   3.968
  491SOL    HW1 3073   0.401   0.966   3.929
  491SOL    HW2 3074   0.268   0.870   3.932
  492SOL     OW 3075   1.476   0.803   4.409
  492SOL    HW1 3076   1.468   0.751   4.494
  492SOL    HW2 3077   1.559   0.858   4.412
  493SOL     OW 3078   0.478   1.299   5.482
  493SOL    HW1 3079   0.460   1.287   5.384
  493SOL    HW2 3080   0.391   1.301   5.532
  494SOL     OW 3081   1.159   1.776   3.959
  494SOL    HW1 3082   1.071   1.754   4.000
  494SOL    HW2 3083   1.184   1.705   3.893
  495SOL     OW 3084   0.192   0.310   5.300
  495SOL    HW1 3085   0.153   0.393   5.260
  495SOL    HW2 3086   0.153   0.296   5.391
  496SOL     OW 3087   1.654   1.416   3.825
  496SOL    HW1 3088   1.601   1.501   3.825
  496SOL    HW2 3089   1.598   1.341   3.792
  497SOL     OW 3090   0.479   1.768   4.035
  497SOL    HW1 3091   0.525   1.812   4.112
  497SOL    HW2 3092   0.546   1.717   3.982
  498SOL     OW 3093   1.388   0.124   4.144
  498SOL    HW1 3094   1.355   0.072   4.065
  498SOL    HW2 3095   1.487   0.139   4.136
  499SOL     OW 3096   0.236   1.758   4.944
  499SOL    HW1 3097   0.276   1.676   4.985
  499SOL    HW2 3098   0.183   1.733   4.864
  500SOL     OW 3099   0.951   1.698   4.597
  500SOL    HW1 3100   1.045   1.662   4.598
  500SOL    HW2 3101   0.899   1.651   4.525
  501SOL     OW 3102   0.383   0.665   4.220
  501SOL    HW1 3103   0.407   0.569   4.231
  501SOL    HW2 3104   0.287   0.679   4.244
  502SOL     OW 3105   1.494   0.217   5.455
  502SOL    HW1 3106   1.544   0.219   5.541
  502SOL    HW2 3107   1.400   0.188   5.472
  503SOL     OW 3108   0.685   0.121   3.840
  503SOL    HW1 3109   0.713   0.040   3.892
  503SOL    HW2 3110   0.600   0.101   3.791
  504SOL     OW 3111   0.804   0.256   5.495
  504SOL    HW1 3112   0.896   0.220   5.479
  504SOL    HW2 3113   0.762   0.207   5.571
  505SOL     OW 3114   0.858   1.512   4.904
  505SOL    HW1 3115   0.839   1.459   4.821
  505SOL    HW2 3116   0.922   1.463   4.962
  506SOL     OW 3117   1.314   0.597   5.153
  506SOL    HW1 3118   1.345   0.564   5.243
  506SOL    HW2 3119   1.345   0.690   5.139
  507SOL     OW 3120   0.822   1.346   4.677
  507SOL    HW1 3121   0.913   1.359   4.638
  507SOL    HW2 3122   0.754   1.345   4.603
  508SOL     OW 3123   0.913   0.547   4.587
  508SOL    HW1 3124   0.885   0.534   4.491
  508SOL    HW2 3125   0.952   0.462   4.622
  509SOL     OW 3126   0.618   0.041   4.213
  509SOL    HW1 3127   0.547   0.019   4.280
  509SOL    HW2 3128   0.590   0.121   4.160
  510SOL     OW 3129   1.445   1.235   3.757
  510SOL    HW1 3130   1.489   1.165   3.814
  510SOL    HW2 3131   1.356   1.259   3.796
  511SOL     OW 3132   0.337   0.025   4.080
  511SOL    HW1 3133   0.395   0.099   4.047
  511SOL    HW2 3134   0.332   0.029   4.180
  512SOL     OW 3135   0.963   0.281   4.171
  512SOL    HW1 3136   0.918   0.303   4.085
  512SOL    HW2 3137   1.061   0.301   4.164
  513SOL     OW 3138   1.058   0.701   5.126
  513SOL    HW1 3139   0.983   0.640   5.153
  513SOL    HW2 3140   1.145   0.653   5.133
  514SOL     OW 3141   1.211   1.625   4.547
  514SOL    HW1 3142   1.244   1.675   4.468
  514SOL    HW2 3143   1.250   1.664   4.631
  515SOL     OW 3144   0.479   1.139   4.417
  515SOL    HW1 3145   0.407   1.123   4.485
  515SOL    HW2 3146   0.439   1.139   4.326
  516SOL     OW 3147   1.271   1.806   4.337
  516SOL    HW1 3148   1.327   1.870   4.284
  516SOL    HW2 3149   1.187   1.851   4.366
  517SOL     OW 3150   1.003   0.502   3.767
  517SOL    HW1 3151   0.970   0.591   3.733
  517SOL    HW2 3152   1.075   0.517   3.834
  518SOL     OW 3153   0.119   0.535   5.119
  518SOL    HW1 3154   0.204   0.517   5.069
  518SOL    HW2 3155   0.135   0.607   5.186
  519SOL     OW 3156   0.602   0.246   4.907
  519SOL    HW1 3157   0.669   0.196   4.963
  519SOL    HW2 3158   0.510   0.218   4.933
  520SOL     OW 3159   0.857   0.480   4.333
  520SOL    HW1 3160   0.802   0.530   4.266
  520SOL    HW2 3161   0.898   0.400   4.288
  521SOL     OW 3162   0.984   6.979   4.560
  521SOL    HW1 3163   0.938   0.014   4.479
  521SOL    HW2 3164   1.017   6.886   4.542
  522SOL     OW 3165   1.412   1.126   4.585
  522SOL    HW1 3166   1.358   1.046   4.608
  522SOL    HW2 3167   1.411   1.139   4.486
  523SOL     OW 3168   1.454   0.654   4.639
  523SOL    HW1 3169   1.389   0.579   4.643
  523SOL    HW2 3170   1.518   0.648   4.715
  524SOL     OW 3171   1.808   0.766   4.121
  524SOL    HW1 3172   1.884   0.747   4.183
  524SOL    HW2 3173   1.808   0.700   4.046
  525SOL     OW 3174   0.524   1.430   3.871
  525SOL    HW1 3175   0.443   1.407   3.925
  525SOL    HW2 3176   0.519   1.385   3.782
  526SOL     OW 3177   1.783   1.312   4.341
  526SOL    HW1 3178   1.879   1.305   4.368
  526SOL    HW2 3179   1.742   1.394   4.381
  527SOL     OW 3180   1.377   0.589   3.775
  527SOL    HW1 3181   1.323   0.565   3.855
  527SOL    HW2 3182   1.474   0.585   3.798
  528SOL     OW 3183   0.519   0.237   4.037
  528SOL    HW1 3184   0.587   0.210   3.968
  528SOL    HW2 3185   0.478   0.324   4.010
  529SOL     OW 3186   1.740   1.217   5.260
  529SOL    HW1 3187   1.830   1.176   5.253
  529SOL    HW2 3188   1.749   1.311   5.295
  530SOL     OW 3189   1.020   1.353   5.072
  530SOL    HW1 3190   0.934   1.327   5.117
  530SOL    HW2 3191   1.095   1.298   5.110
  531SOL     OW 3192   1.620   1.631   5.409
  531SOL    HW1 3193   1.598   1.675   5.321
  531SOL    HW2 3194   1.697   1.568   5.396
  532SOL     OW 3195   1.147   1.274   4.837
  532SOL    HW1 3196   1.084   1.302   4.910
  532SOL    HW2 3197   1.113   1.306   4.749
  533SOL     OW 3198   1.583   1.091   4.814
  533SOL    HW1 3199   1.576   1.159   4.887
  533SOL    HW2 3200   1.514   1.110   4.744
  534SOL     OW 3201   0.850   0.180   5.046
  534SOL    HW1 3202   0.880   0.149   4.956
  534SOL    HW2 3203   0.930   0.208   5.099
  535SOL     OW 3204   0.958   1.112   5.448
  535SOL    HW1 3205   0.865   1.127   5.480
  535SOL    HW2 3206   0.960   1.033   5.387
  536SOL     OW 3207   0.730   1.049   4.124
  536SOL    HW1 3208   0.709   1.018   4.216
  536SOL    HW2 3209   0.820   1.014   4.096
  537SOL     OW 3210   0.452   0.778   4.975
  537SOL    HW1 3211   0.527   0.789   5.040
  537SOL    HW2 3212   0.417   0.684   4.980
  538SOL     OW 3213   1.259   0.380   5.001
  538SOL    HW1 3214   1.287   0.457   5.058
  538SOL    HW2 3215   1.170   0.398   4.960
  539SOL     OW 3216   0.084   1.515   5.134
  539SOL    HW1 3217   0.047   1.565   5.212
  539SOL    HW2 3218   0.182   1.533   5.127
  540SOL     OW 3219   0.365   1.139   4.169
  540SOL    HW1 3220   0.346   1.221   4.113
  540SOL    HW2 3221   0.349   1.057   4.114
  541SOL     OW 3222   0.521   0.519   4.606
  541SOL    HW1 3223   0.533   0.573   4.523
  541SOL    HW2 3224   0.589   0.545   4.674
  542SOL     OW 3225   1.255   1.369   4.137
  542SOL    HW1 3226   1.314   1.445   4.165
  542SOL    HW2 3227   1.160   1.389   4.162
  543SOL     OW 3228   1.332   1.474   4.864
  543SOL    HW1 3229   1.375   1.480   4.954
  543SOL    HW2 3230   1.267   1.398   4.863
  544SOL     OW 3231   1.584   0.631   4.217
  544SOL    HW1 3232   1.519   0.689   4.266
  544SOL    HW2 3233   1.658   0.687   4.180
  545SOL     OW 3234   0.351   1.520   5.051
  545SOL    HW1 3235   0.339   1.466   4.968
  545SOL    HW2 3236   0.446   1.550   5.058
  546SOL     OW 3237   0.521   0.703   5.356
  546SOL    HW1 3238   0.568   0.747   5.280
  546SOL    HW2 3239   0.578   0.629   5.392
  547SOL     OW 3240   1.611   0.813   5.427
  547SOL    HW1 3241   1.516   0.844   5.420
  547SOL    HW2 3242   1.662   0.845   5.347
  548SOL     OW 3243   1.040   0.113   5.428
  548SOL    HW1 3244   1.058   0.159   5.341
  548SOL    HW2 3245   1.036   0.015   5.414
  549SOL     OW 3246   0.456   0.055   5.585
  549SOL    HW1 3247   0.381   6.995   5.612
  549SOL    HW2 3248   0.423   0.149   5.579
  550SOL     OW 3249   0.572   0.888   4.752
  550SOL    HW1 3250   0.617   0.976   4.769
  550SOL    HW2 3251   0.525   0.858   4.834
  551SOL     OW 3252   1.291   0.886   4.684
  551SOL    HW1 3253   1.198   0.855   4.669
  551SOL    HW2 3254   1.354   0.809   4.672
  552SOL     OW 3255   1.188   0.541   3.971
  552SOL    HW1 3256   1.210   0.463   4.029
  552SOL    HW2 3257   1.135   0.608   4.023
  553SOL     OW 3258   0.339   0.161   4.919
  553SOL    HW1 3259   0.266   0.146   4.985
  553SOL    HW2 3260   0.357   0.077   4.869
  554SOL     OW 3261   0.089   1.276   5.009
  554SOL    HW1 3262   0.113   1.201   5.072
  554SOL    HW2 3263   0.083   1.361   5.060
  555SOL     OW 3264   0.718   0.652   4.755
  555SOL    HW1 3265   0.783   0.629   4.682
  555SOL    HW2 3266   0.672   0.738   4.733
  556SOL     OW 3267   1.765   0.974   5.595
  556SOL    HW1 3268   1.713   0.909   5.539
  556SOL    HW2 3269   1.707   1.008   5.669
  557SOL     OW 3270   0.359   0.053   4.350
  557SOL    HW1 3271   0.341   0.142   4.393
  557SOL    HW2 3272   0.292   6.986   4.382
  558SOL     OW 3273   1.577   0.418   4.037
  558SOL    HW1 3274   1.601   0.336   4.089
  558SOL    HW2 3275   1.558   0.494   4.100
  559SOL     OW 3276   1.031   0.779   4.657
  559SOL    HW1 3277   1.009   0.798   4.753
  559SOL    HW2 3278   0.995   0.690   4.630
  560SOL     OW 3279   0.985   1.557   5.510
  560SOL    HW1 3280   0.952   1.617   5.437
  560SOL    HW2 3281   1.022   1.473   5.470
  561SOL     OW 3282   1.832   1.474   5.319
  561SOL    HW1 3283   1.848   1.502   5.225
  561SOL    HW2 3284   1.916   1.489   5.373
  562SOL     OW 3285   0.422   0.887   5.538
  562SOL    HW1 3286   0.488   0.916   5.607
  562SOL    HW2 3287   0.464   0.819   5.478
  563SOL     OW 3288   1.504   0.234   3.835
  563SOL    HW1 3289   1.406   0.233   3.820
  563SOL    HW2 3290   1.527   0.307   3.900
  564SOL     OW 3291   1.268   0.835   3.732
  564SOL    HW1 3292   1.305   0.743   3.742
  564SOL    HW2 3293   1.297   0.873   3.644
  565SOL     OW 3294   1.078   1.376   4.590
  565SOL    HW1 3295   1.093   1.296   4.531
  565SOL    HW2 3296   1.135   1.452   4.559
  566SOL     OW 3297   0.317   0.832   4.634
  566SOL    HW1 3298   0.414   0.851   4.652
  566SOL    HW2 3299   0.296   0.739   4.663
  567SOL     OW 3300   0.270   0.560   4.705
  567SOL    HW1 3301   0.223   0.472   4.706
  567SOL    HW2 3302   0.360   0.549   4.662
  568SOL     OW 3303   1.098   0.437   5.383
  568SOL    HW1 3304   1.058   0.451   5.473
  568SOL    HW2 3305   1.196   0.459   5.385
  569SOL     OW 3306   1.076   0.253   5.189
  569SOL    HW1 3307   1.075   0.329   5.254
  569SOL    HW2 3308   1.146   0.269   5.120
  570SOL     OW 3309   0.014   1.344   3.983
  570SOL    HW1 3310   6.945   1.374   4.049
  570SOL    HW2 3311   0.017   1.244   3.981
  571SOL     OW 3312   0.112   1.714   4.696
  571SOL    HW1 3313   0.080   1.643   4.633
  571SOL    HW2 3314   0.199   1.750   4.664
  572SOL     OW 3315   0.491   1.525   4.632
  572SOL    HW1 3316   0.564   1.585   4.666
  572SOL    HW2 3317   0.530   1.458   4.568
  573SOL     OW 3318   0.929   0.806   4.905
  573SOL    HW1 3319   0.983   0.776   4.984
  573SOL    HW2 3320   0.848   0.748   4.896
  574SOL     OW 3321   0.079   0.691   4.874
  574SOL    HW1 3322   0.146   0.648   4.813
  574SOL    HW2 3323   0.074   0.639   4.959
  575SOL     OW 3324   0.260   0.564   5.520
  575SOL    HW1 3325   0.321   0.485   5.525
  575SOL    HW2 3326   0.276   0.613   5.435
  576SOL     OW 3327   1.369   0.927   5.361
  576SOL    HW1 3328   1.392   1.024   5.361
  576SOL    HW2 3329   1.359   0.896   5.267
  577SOL     OW 3330   0.776   0.576   4.082
  577SOL    HW1 3331   0.789   0.494   4.027
  577SOL    HW2 3332   0.694   0.624   4.051
  578SOL     OW 3333   1.634   0.615   4.839
  578SOL    HW1 3334   1.605   0.530   4.883
  578SOL    HW2 3335   1.733   0.615   4.829
  579SOL     OW 3336   0.259   1.574   5.458
  579SOL    HW1 3337   0.208   1.640   5.514
  579SOL    HW2 3338   0.250   1.483   5.498
  580SOL     OW 3339   0.746   0.472   4.953
  580SOL    HW1 3340   0.690   0.390   4.938
  580SOL    HW2 3341   0.727   0.539   4.882
  581SOL     OW 3342   0.858   1.704   5.277
  581SOL    HW1 3343   0.816   1.633   5.221
  581SOL    HW2 3344   0.892   1.777   5.217
  582SOL     OW 3345   0.406   0.471   3.946
  582SOL    HW1 3346   0.465   0.552   3.951
  582SOL    HW2 3347   0.319   0.491   3.991
  583SOL     OW 3348   0.175   1.092   5.199
  583SOL    HW1 3349   0.183   1.043   5.285
  583SOL    HW2 3350   0.186   1.029   5.123
  584SOL     OW 3351   1.267   1.040   4.915
  584SOL    HW1 3352   1.281   0.981   4.837
  584SOL    HW2 3353   1.222   1.125   4.886
  585SOL     OW 3354   1.337   0.928   3.982
  585SOL    HW1 3355   1.263   0.920   4.049
  585SOL    HW2 3356   1.307   0.893   3.894
  586SOL     OW 3357   1.746   1.688   4.883
  586SOL    HW1 3358   1.817   1.720   4.821
  586SOL    HW2 3359   1.719   1.595   4.857
  587SOL     OW 3360   1.285   1.734   4.791
  587SOL    HW1 3361   1.371   1.785   4.797
  587SOL    HW2 3362   1.298   1.641   4.826
  588SOL     OW 3363   0.104   1.263   4.743
  588SOL    HW1 3364   0.095   1.258   4.842
  588SOL    HW2 3365   0.018   1.293   4.703
  589SOL     OW 3366   0.686   1.726   5.488
  589SOL    HW1 3367   0.617   1.797   5.478
  589SOL    HW2 3368   0.754   1.735   5.415
  590SOL     OW 3369   1.660   0.191   4.163
  590SOL    HW1 3370   1.747   0.200   4.114
  590SOL    HW2 3371   1.677   0.151   4.253
  591SOL     OW 3372   1.406   1.582   4.227
  591SOL    HW1 3373   1.469   1.615   4.157
  591SOL    HW2 3374   1.352   1.659   4.261
  592SOL     OW 3375   0.127   1.780   5.612
  592SOL    HW1 3376   0.081   1.699   5.649
  592SOL    HW2 3377   0.179   1.825   5.684
  593SOL     OW 3378   1.268   0.959   4.336
  593SOL    HW1 3379   1.341   0.895   4.359
  593SOL    HW2 3380   1.308   1.044   4.303
  594SOL     OW 3381   0.766   1.296   5.168
  594SOL    HW1 3382   0.742   1.351   5.248
  594SOL    HW2 3383   0.691   1.300   5.102
  595SOL     OW 3384   0.688   1.645   3.892
  595SOL    HW1 3385   0.699   1.673   3.796
  595SOL    HW2 3386   0.637   1.559   3.895
  596SOL     OW 3387   1.609   1.720   5.132
  596SOL    HW1 3388   1.659   1.713   5.046
  596SOL    HW2 3389   1.621   1.813   5.169
  597SOL     OW 3390   1.864   0.137   4.721
  597SOL    HW1 3391   1.873   0.045   4.682
  597SOL    HW2 3392   1.786   0.184   4.679
  598SOL     OW 3393   0.261   0.295   4.451
  598SOL    HW1 3394   0.174   0.336   4.422
  598SOL    HW2 3395   0.262   0.287   4.551
  599SOL     OW 3396   1.225   1.580   3.780
  599SOL    HW1 3397   1.218   1.486   3.814
  599SOL    HW2 3398   1.148   1.599   3.719
  600SOL     OW 3399   0.807   1.031   5.101
  600SOL    HW1 3400   0.830   1.031   5.004
  600SOL    HW2 3401   0.793   1.126   5.131
  601SOL     OW 3402   0.967   0.946   4.050
  601SOL    HW1 3403   0.987   0.952   3.952
  601SOL    HW2 3404   0.990   0.854   4.083
  602SOL     OW 3405   1.492   1.652   3.792
  602SOL    HW1 3406   1.396   1.626   3.783
  602SOL    HW2 3407   1.535   1.652   3.702
  603SOL     OW 3408   0.381   1.289   5.229
  603SOL    HW1 3409   0.370   1.368   5.169
  603SOL    HW2 3410   0.313   1.220   5.206
  604SOL     OW 3411   1.591   1.279   5.024
  604SOL    HW1 3412   1.653   1.250   5.098
  604SOL    HW2 3413   1.530   1.351   5.058
  605SOL     OW 3414   1.081   1.135   4.462
  605SOL    HW1 3415   1.001   1.088   4.499
  605SOL    HW2 3416   1.138   1.070   4.411
  606SOL     OW 3417   1.032   0.298   4.654
  606SOL    HW1 3418   1.020   0.267   4.559
  606SOL    HW2 3419   1.014   0.221   4.716
  607SOL     OW 3420   0.618   1.491   4.227
  607SOL    HW1 3421   0.658   1.437   4.153
  607SOL    HW2 3422   0.518   1.487   4.221
  608SOL     OW 3423   1.880   0.313   5.181
  608SOL    HW1 3424   1.910   0.400   5.143
  608SOL    HW2 3425   1.849   0.253   5.107
  609SOL     OW 3426   0.284   1.370   4.011
  609SOL    HW1 3427   0.184   1.368   4.007
  609SOL    HW2 3428   0.313   1.414   4.096
  610SOL     OW 3429   0.179   0.957   5.441
  610SOL    HW1 3430   0.131   1.021   5.500
  610SOL    HW2 3431   0.268   0.935   5.481
  611SOL     OW 3432   0.675   0.198   5.256
  611SOL    HW1 3433   0.738   0.195   5.179
  611SOL    HW2 3434   0.722   0.235   5.336
  612SOL     OW 3435   0.062   0.305   3.698
  612SOL    HW1 3436   6.993   0.234   3.697
  612SOL    HW2 3437   0.020   0.394   3.677
  613SOL     OW 3438   1.379   0.859   5.096
  613SOL    HW1 3439   1.320   0.917   5.040
  613SOL    HW2 3440   1.471   0.858   5.057
  614SOL     OW 3441   0.039   0.267   3.979
  614SOL    HW1 3442   0.047   0.287   3.881
  614SOL    HW2 3443   0.035   0.168   3.992
  615SOL     OW 3444   1.188   1.318   3.864
  615SOL    HW1 3445   1.090   1.302   3.859
  615SOL    HW2 3446   1.216   1.322   3.961
  616SOL     OW 3447   0.662   0.803   5.145
  616SOL    HW1 3448   0.709   0.891   5.133
  616SOL    HW2 3449   0.730   0.731   5.158
  617SOL     OW 3450   1.528   1.861   4.799
  617SOL    HW1 3451   1.559   1.913   4.719
  617SOL    HW2 3452   1.604   1.809   4.837
  618SOL     OW 3453   0.726   0.526   5.441
  618SOL    HW1 3454   0.786   0.593   5.484
  618SOL    HW2 3455   0.753   0.434   5.470
  619SOL     OW 3456   1.457   1.187   5.348
  619SOL    HW1 3457   1.447   1.210   5.445
  619SOL    HW2 3458   1.552   1.203   5.320
  620SOL     OW 3459   0.354   1.783   5.309
  620SOL    HW1 3460   0.266   1.829   5.298
  620SOL    HW2 3461   0.341   1.694   5.350
  621SOL     OW 3462   1.622   0.866   4.969
  621SOL    HW1 3463   1.631   0.780   4.917
  621SOL    HW2 3464   1.613   0.942   4.905
  622SOL     OW 3465   1.229   0.345   4.157
  622SOL    HW1 3466   1.290   0.266   4.155
  622SOL    HW2 3467   1.245   0.398   4.240
  623SOL     OW 3468   0.571   0.713   4.417
  623SOL    HW1 3469   0.620   0.799   4.406
  623SOL    HW2 3470   0.504   0.703   4.344
  624SOL     OW 3471   1.725   0.365   5.400
  624SOL    HW1 3472   1.778   0.349   5.317
  624SOL    HW2 3473   1.643   0.309   5.399
  625SOL     OW 3474   1.729   0.928   5.213
  625SOL    HW1 3475   1.717   1.027   5.228
  625SOL    HW2 3476   1.695   0.904   5.122
  626SOL     OW 3477   0.893   1.345   3.824
  626SOL    HW1 3478   0.846   1.354   3.911
  626SOL    HW2 3479   0.901   1.435   3.781
  627SOL     OW 3480   0.684   1.703   4.688
  627SOL    HW1 3481   0.653   1.798   4.678
  627SOL    HW2 3482   0.783   1.699   4.676
  628SOL     OW 3483   0.871   0.999   4.592
  628SOL    HW1 3484   0.927   0.919   4.615
  628SOL    HW2 3485   0.823   1.030   4.674
  629SOL     OW 3486   1.026   0.942   3.786
  629SOL    HW1 3487   1.007   1.016   3.722
  629SOL    HW2 3488   1.117   0.903   3.767
  630SOL     OW 3489   1.813   1.543   4.590
  630SOL    HW1 3490   1.736   1.545   4.526
  630SOL    HW2 3491   1.790   1.484   4.668
  631SOL     OW 3492   0.235   1.326   5.603
  631SOL    HW1 3493   0.149   1.276   5.591
  631SOL    HW2 3494   0.249   1.345   5.700
  632SOL     OW 3495   0.186   1.310   4.420
  632SOL    HW1 3496   0.226   1.243   4.483
  632SOL    HW2 3497   0.120   1.264   4.361
  633SOL     OW 3498   0.682   1.458   5.377
  633SOL    HW1 3499   0.604   1.409   5.415
  633SOL    HW2 3500   0.688   1.549   5.419
  634SOL     OW 3501   1.801   0.136   4.988
  634SOL    HW1 3502   1.703   0.119   4.985
  634SOL    HW2 3503   1.837   0.142   4.895
  635SOL     OW 3504   0.429   0.404   4.261
  635SOL    HW1 3505   0.475   0.331   4.210
  635SOL    HW2 3506   0.377   0.363   4.337
  636SOL     OW 3507   1.687   1.431   4.810
  636SOL    HW1 3508   1.611   1.414   4.747
  636SOL    HW2 3509   1.678   1.371   4.890
  637SOL     OW 3510   0.362   0.515   4.993
  637SOL    HW1 3511   0.404   0.453   5.059
  637SOL    HW2 3512   0.369   0.476   4.901
  638SOL     OW 3513   0.829   1.556   4.401
  638SOL    HW1 3514   0.770   1.582   4.325
  638SOL    HW2 3515   0.788   1.481   4.453
  639SOL     OW 3516   1.464   0.309   4.833
  639SOL    HW1 3517   1.494   0.214   4.849
  639SOL    HW2 3518   1.395   0.334   4.900
  640SOL     OW 3519   0.969   0.081   4.813
  640SOL    HW1 3520   0.966   0.037   4.723
  640SOL    HW2 3521   0.996   0.013   4.881
  641SOL     OW 3522   0.782   1.322   4.077
  641SOL    HW1 3523   0.761   1.226   4.093
  641SOL    HW2 3524   0.865   1.347   4.126
  642SOL     OW 3525   0.622   1.583   5.023
  642SOL    HW1 3526   0.608   1.677   5.056
  642SOL    HW2 3527   0.708   1.578   4.972
  643SOL     OW 3528   1.264   6.977   3.937
  643SOL    HW1 3529   1.314   6.908   3.885
  643SOL    HW2 3530   1.186   6.933   3.982
  644SOL     OW 3531   1.255   0.492   4.382
  644SOL    HW1 3532   1.206   0.580   4.380
  644SOL    HW2 3533   1.275   0.468   4.477
  645SOL     OW 3534   1.651   0.278   4.616
  645SOL    HW1 3535   1.586   0.291   4.690
  645SOL    HW2 3536   1.652   0.360   4.558
  646SOL     OW 3537   0.067   1.074   4.008
  646SOL    HW1 3538   0.159   1.034   4.003
  646SOL    HW2 3539   0.001   1.002   4.027
  647SOL     OW 3540   0.911   1.687   4.057
  647SOL    HW1 3541   0.832   1.669   3.998
  647SOL    HW2 3542   0.887   1.760   4.122
  648SOL     OW 3543   0.182   0.728   5.730
  648SOL    HW1 3544   0.160   0.664   5.804
  648SOL    HW2 3545   0.222   0.679   5.653
  649SOL     OW 3546   0.173   0.328   6.612
  649SOL    HW1 3547   0.234   0.272   6.668
  649SOL    HW2 3548   0.079   0.319   6.646
  650SOL     OW 3549   6.963   0.363   6.240
  650SOL    HW1 3550   6.905   0.362   6.321
  650SOL    HW2 3551   6.972   0.270   6.203
  651SOL     OW 3552   0.604   1.237   6.821
  651SOL    HW1 3553   0.528   1.252   6.757
  651SOL    HW2 3554   0.616   1.318   6.878
  652SOL     OW 3555   1.603   1.496   6.325
  652SOL    HW1 3556   1.538   1.456   6.390
  652SOL    HW2 3557   1.554   1.522   6.242
  653SOL     OW 3558   1.127   0.706   6.240
  653SOL    HW1 3559   1.164   0.799   6.229
  653SOL    HW2 3560   1.071   0.703   6.323
  654SOL     OW 3561   1.804   0.581   5.788
  654SOL    HW1 3562   1.759   0.591   5.699
  654SOL    HW2 3563   1.761   0.506   5.839
  655SOL     OW 3564   0.740   1.134   6.609
  655SOL    HW1 3565   0.694   1.156   6.695
  655SOL    HW2 3566   0.762   1.218   6.560
  656SOL     OW 3567   0.677   0.964   6.244
  656SOL    HW1 3568   0.753   0.967   6.309
  656SOL    HW2 3569   0.609   1.033   6.268
  657SOL     OW 3570   0.416   1.307   6.628
  657SOL    HW1 3571   0.379   1.230   6.578
  657SOL    HW2 3572   0.447   1.377   6.564
  658SOL     OW 3573   1.600   0.502   6.321
  658SOL    HW1 3574   1.578   0.538   6.231
  658SOL    HW2 3575   1.559   0.561   6.391
  659SOL     OW 3576   0.260   1.738   6.074
  659SOL    HW1 3577   0.278   1.813   6.138
  659SOL    HW2 3578   0.323   1.744   5.996
  660SOL     OW 3579   0.335   1.475   6.118
  660SOL    HW1 3580   0.301   1.569   6.120
  660SOL    HW2 3581   0.290   1.422   6.190
  661SOL     OW 3582   0.303   1.093   6.491
  661SOL    HW1 3583   0.310   0.994   6.500
  661SOL    HW2 3584   0.209   1.123   6.508
  662SOL     OW 3585   0.615   1.770   0.010
  662SOL    HW1 3586   0.525   1.802   0.039
  662SOL    HW2 3587   0.677   1.848   0.003
  663SOL     OW 3588   0.584   0.985   5.754
  663SOL    HW1 3589   0.630   1.038   5.683
  663SOL    HW2 3590   0.625   1.006   5.843
  664SOL     OW 3591   0.089   0.607   6.171
  664SOL    HW1 3592   0.041   0.525   6.201
  664SOL    HW2 3593   0.076   0.680   6.237
  665SOL     OW 3594   1.869   1.745   5.929
  665SOL    HW1 3595   1.950   1.736   5.988
  665SOL    HW2 3596   1.866   1.837   5.890
  666SOL     OW 3597   6.992   1.565   5.691
  666SOL    HW1 3598   0.000   1.480   5.743
  666SOL    HW2 3599   6.901   1.570   5.650
  667SOL     OW 3600   1.711   0.950   6.247
  667SOL    HW1 3601   1.789   0.890   6.228
  667SOL    HW2 3602   1.694   1.009   6.168
  668SOL     OW 3603   1.683   1.128   6.032
  668SOL    HW1 3604   1.763   1.098   5.980
  668SOL    HW2 3605   1.710   1.200   6.096
  669SOL     OW 3606   0.623   1.371   6.293
  669SOL    HW1 3607   0.572   1.285   6.289
  669SOL    HW2 3608   0.618   1.417   6.204
  670SOL     OW 3609   0.859   0.025   6.090
  670SOL    HW1 3610   0.901   0.115   6.081
  670SOL    HW2 3611   0.762   0.036   6.114
  671SOL     OW 3612   0.193   0.917   6.781
  671SOL    HW1 3613   0.291   0.894   6.777
  671SOL    HW2 3614   0.139   0.833   6.771
  672SOL     OW 3615   1.565   1.055   5.788
  672SOL    HW1 3616   1.488   0.995   5.809
  672SOL    HW2 3617   1.605   1.090   5.873
  673SOL     OW 3618   1.413   1.407   6.506
  673SOL    HW1 3619   1.364   1.419   6.592
  673SOL    HW2 3620   1.411   1.310   6.479
  674SOL     OW 3621   1.641   1.861   6.131
  674SOL    HW1 3622   1.634   1.792   6.060
  674SOL    HW2 3623   1.659   1.818   6.219
  675SOL     OW 3624   0.546   0.689   5.879
  675SOL    HW1 3625   0.559   0.780   5.840
  675SOL    HW2 3626   0.481   0.695   5.955
  676SOL     OW 3627   1.312   0.428   6.509
  676SOL    HW1 3628   1.217   0.398   6.519
  676SOL    HW2 3629   1.372   0.367   6.562
  677SOL     OW 3630   1.605   1.675   5.923
  677SOL    HW1 3631   1.704   1.686   5.918
  677SOL    HW2 3632   1.568   1.663   5.831
  678SOL     OW 3633   0.766   0.651   0.015
  678SOL    HW1 3634   0.710   0.673   0.094
  678SOL    HW2 3635   0.717   0.585   6.957
  679SOL     OW 3636   0.995   0.296   6.802
  679SOL    HW1 3637   0.972   0.354   6.881
  679SOL    HW2 3638   0.948   0.208   6.811
  680SOL     OW 3639   1.029   0.673   5.986
  680SOL    HW1 3640   1.061   0.677   6.081
  680SOL    HW2 3641   0.937   0.635   5.983
  681SOL     OW 3642   0.061   0.802   6.373
  681SOL    HW1 3643   0.155   0.814   6.405
  681SOL    HW2 3644   6.999   0.806   6.451
  682SOL     OW 3645   0.040   1.906   0.282
  682SOL    HW1 3646   0.097   1.842   0.334
  682SOL    HW2 3647   6.953   1.862   0.259
  683SOL     OW 3648   0.845   0.344   5.810
  683SOL    HW1 3649   0.897   0.389   5.738
  683SOL    HW2 3650   0.792   0.269   5.771
  684SOL     OW 3651   1.412   1.173   6.151
  684SOL    HW1 3652   1.499   1.163   6.104
  684SOL    HW2 3653   1.356   1.241   6.103
  685SOL     OW 3654   0.492   0.262   6.508
  685SOL    HW1 3655   0.545   0.256   6.593
  685SOL    HW2 3656   0.495   0.357   6.475
  686SOL     OW 3657   1.002   1.472   6.055
  686SOL    HW1 3658   0.982   1.542   5.986
  686SOL    HW2 3659   0.963   1.500   6.143
  687SOL     OW 3660   0.405   1.782   6.468
  687SOL    HW1 3661   0.434   1.686   6.473
  687SOL    HW2 3662   0.470   1.839   6.516
  688SOL     OW 3663   1.811   1.066   6.479
  688SOL    HW1 3664   1.769   1.041   6.392
  688SOL    HW2 3665   1.739   1.074   6.549
  689SOL     OW 3666   0.314   0.949   5.835
  689SOL    HW1 3667   0.405   0.963   5.795
  689SOL    HW2 3668   0.273   0.866   5.796
  690SOL     OW 3669   1.479   0.805   6.279
  690SOL    HW1 3670   1.464   0.762   6.368
  690SOL    HW2 3671   1.562   0.861   6.282
  691SOL     OW 3672   1.163   1.763   5.818
  691SOL    HW1 3673   1.070   1.745   5.851
  691SOL    HW2 3674   1.190   1.692   5.754
  692SOL     OW 3675   1.644   1.387   5.691
  692SOL    HW1 3676   1.617   1.483   5.681
  692SOL    HW2 3677   1.569   1.328   5.660
  693SOL     OW 3678   0.476   1.771   5.896
  693SOL    HW1 3679   0.524   1.816   5.972
  693SOL    HW2 3680   0.542   1.719   5.841
  694SOL     OW 3681   1.436   0.111   5.988
  694SOL    HW1 3682   1.370   0.050   5.946
  694SOL    HW2 3683   1.493   0.153   5.917
  695SOL     OW 3684   0.268   1.766   6.773
  695SOL    HW1 3685   0.312   1.678   6.786
  695SOL    HW2 3686   0.207   1.762   6.693
  696SOL     OW 3687   0.969   1.680   6.461
  696SOL    HW1 3688   1.058   1.634   6.456
  696SOL    HW2 3689   0.910   1.646   6.387
  697SOL     OW 3690   0.369   0.651   6.089
  697SOL    HW1 3691   0.393   0.556   6.109
  697SOL    HW2 3692   0.271   0.664   6.103
  698SOL     OW 3693   0.689   0.117   5.716
  698SOL    HW1 3694   0.724   0.039   5.768
  698SOL    HW2 3695   0.607   0.091   5.666
  699SOL     OW 3696   0.863   1.465   6.750
  699SOL    HW1 3697   0.820   1.458   6.660
  699SOL    HW2 3698   0.935   1.396   6.759
  700SOL     OW 3699   0.803   1.372   6.494
  700SOL    HW1 3700   0.899   1.369   6.463
  700SOL    HW2 3701   0.743   1.377   6.414
  701SOL     OW 3702   0.961   0.569   6.458
  701SOL    HW1 3703   0.923   0.549   6.368
  701SOL    HW2 3704   1.003   0.486   6.495
  702SOL     OW 3705   0.587   0.061   6.117
  702SOL    HW1 3706   0.515   0.058   6.186
  702SOL    HW2 3707   0.555   0.113   6.037
  703SOL     OW 3708   1.426   1.225   5.621
  703SOL    HW1 3709   1.474   1.156   5.675
  703SOL    HW2 3710   1.342   1.252   5.670
  704SOL     OW 3711   0.241   0.076   5.911
  704SOL    HW1 3712   0.332   0.119   5.917
  704SOL    HW2 3713   0.228   0.016   5.990
  705SOL     OW 3714   0.974   0.273   6.046
  705SOL    HW1 3715   0.930   0.302   5.960
  705SOL    HW2 3716   1.073   0.284   6.038
  706SOL     OW 3717   1.217   1.572   6.383
  706SOL    HW1 3718   1.243   1.643   6.318
  706SOL    HW2 3719   1.299   1.527   6.417
  707SOL     OW 3720   0.475   1.146   6.281
  707SOL    HW1 3721   0.410   1.129   6.355
  707SOL    HW2 3722   0.427   1.142   6.194
  708SOL     OW 3723   1.269   1.784   6.204
  708SOL    HW1 3724   1.314   1.848   6.142
  708SOL    HW2 3725   1.186   1.827   6.242
  709SOL     OW 3726   1.004   0.496   5.638
  709SOL    HW1 3727   0.974   0.585   5.605
  709SOL    HW2 3728   1.079   0.507   5.703
  710SOL     OW 3729   0.592   0.208   6.775
  710SOL    HW1 3730   0.627   0.121   6.741
  710SOL    HW2 3731   0.493   0.203   6.786
  711SOL     OW 3732   0.876   0.482   6.214
  711SOL    HW1 3733   0.822   0.525   6.142
  711SOL    HW2 3734   0.916   0.397   6.179
  712SOL     OW 3735   1.055   6.987   6.310
  712SOL    HW1 3736   0.983   6.989   6.240
  712SOL    HW2 3737   1.060   6.896   6.350
  713SOL     OW 3738   1.410   1.136   6.445
  713SOL    HW1 3739   1.353   1.059   6.474
  713SOL    HW2 3740   1.411   1.141   6.345
  714SOL     OW 3741   1.436   0.675   6.513
  714SOL    HW1 3742   1.384   0.590   6.522
  714SOL    HW2 3743   1.506   0.678   6.585
  715SOL     OW 3744   1.799   0.783   5.970
  715SOL    HW1 3745   1.870   0.758   6.036
  715SOL    HW2 3746   1.800   0.718   5.893
  716SOL     OW 3747   0.520   1.429   5.739
  716SOL    HW1 3748   0.438   1.404   5.791
  716SOL    HW2 3749   0.517   1.384   5.650
  717SOL     OW 3750   1.769   1.299   6.215
  717SOL    HW1 3751   1.863   1.292   6.250
  717SOL    HW2 3752   1.722   1.374   6.260
  718SOL     OW 3753   1.381   0.586   5.642
  718SOL    HW1 3754   1.328   0.558   5.722
  718SOL    HW2 3755   1.478   0.582   5.663
  719SOL     OW 3756   0.491   0.206   5.904
  719SOL    HW1 3757   0.563   0.186   5.838
  719SOL    HW2 3758   0.458   0.299   5.890
  720SOL     OW 3759   1.761   1.120   0.164
  720SOL    HW1 3760   1.849   1.116   0.117
  720SOL    HW2 3761   1.725   1.213   0.158
  721SOL     OW 3762   1.068   1.280   6.706
  721SOL    HW1 3763   1.043   1.185   6.722
  721SOL    HW2 3764   1.066   1.299   6.607
  722SOL     OW 3765   1.603   1.110   6.652
  722SOL    HW1 3766   1.591   1.188   6.714
  722SOL    HW2 3767   1.533   1.114   6.580
  723SOL     OW 3768   0.726   1.050   5.984
  723SOL    HW1 3769   0.702   1.019   6.076
  723SOL    HW2 3770   0.813   1.008   5.957
  724SOL     OW 3771   0.457   0.851   6.815
  724SOL    HW1 3772   0.519   0.903   6.873
  724SOL    HW2 3773   0.442   0.760   6.855
  725SOL     OW 3774   1.265   0.306   6.853
  725SOL    HW1 3775   1.290   0.388   6.905
  725SOL    HW2 3776   1.169   0.311   6.827
  726SOL     OW 3777   0.089   1.493   6.860
  726SOL    HW1 3778   0.063   1.519   6.953
  726SOL    HW2 3779   0.185   1.517   6.845
  727SOL     OW 3780   0.354   1.137   6.036
  727SOL    HW1 3781   0.337   1.218   5.980
  727SOL    HW2 3782   0.346   1.055   5.980
  728SOL     OW 3783   0.517   0.542   6.480
  728SOL    HW1 3784   0.515   0.606   6.403
  728SOL    HW2 3785   0.601   0.556   6.533
  729SOL     OW 3786   1.260   1.372   6.020
  729SOL    HW1 3787   1.323   1.444   6.049
  729SOL    HW2 3788   1.166   1.400   6.040
  730SOL     OW 3789   1.290   1.435   6.749
  730SOL    HW1 3790   1.347   1.399   6.823
  730SOL    HW2 3791   1.205   1.383   6.744
  731SOL     OW 3792   1.576   0.646   6.076
  731SOL    HW1 3793   1.518   0.704   6.133
  731SOL    HW2 3794   1.648   0.702   6.034
  732SOL     OW 3795   0.366   1.510   6.804
  732SOL    HW1 3796   0.367   1.443   6.729
  732SOL    HW2 3797   0.458   1.525   6.838
  733SOL     OW 3798   0.647   0.863   6.617
  733SOL    HW1 3799   0.677   0.958   6.607
  733SOL    HW2 3800   0.567   0.860   6.678
  734SOL     OW 3801   1.281   0.908   6.555
  734SOL    HW1 3802   1.186   0.882   6.571
  734SOL    HW2 3803   1.336   0.826   6.541
  735SOL     OW 3804   1.199   0.518   5.838
  735SOL    HW1 3805   1.221   0.441   5.897
  735SOL    HW2 3806   1.144   0.584   5.889
  736SOL     OW 3807   0.324   0.164   6.777
  736SOL    HW1 3808   0.265   0.137   6.853
  736SOL    HW2 3809   0.328   0.090   6.710
  737SOL     OW 3810   0.065   1.227   6.803
  737SOL    HW1 3811   0.119   1.181   6.874
  737SOL    HW2 3812   0.063   1.326   6.821
  738SOL     OW 3813   0.740   0.607   6.622
  738SOL    HW1 3814   0.820   0.593   6.563
  738SOL    HW2 3815   0.715   0.704   6.621
  739SOL     OW 3816   0.353   0.076   6.259
  739SOL    HW1 3817   0.309   0.159   6.293
  739SOL    HW2 3818   0.283   0.012   6.228
  740SOL     OW 3819   1.598   0.423   5.914
  740SOL    HW1 3820   1.660   0.366   5.969
  740SOL    HW2 3821   1.570   0.502   5.968
  741SOL     OW 3822   1.018   0.808   6.602
  741SOL    HW1 3823   0.974   0.818   6.692
  741SOL    HW2 3824   1.002   0.716   6.567
  742SOL     OW 3825   1.946   1.420   0.189
  742SOL    HW1 3826   1.957   1.460   0.098
  742SOL    HW2 3827   1.849   1.402   0.205
  743SOL     OW 3828   1.513   0.230   5.738
  743SOL    HW1 3829   1.418   0.242   5.710
  743SOL    HW2 3830   1.543   0.310   5.790
  744SOL     OW 3831   1.270   0.831   5.596
  744SOL    HW1 3832   1.307   0.739   5.607
  744SOL    HW2 3833   1.300   0.869   5.509
  745SOL     OW 3834   1.067   1.347   6.439
  745SOL    HW1 3835   1.081   1.267   6.382
  745SOL    HW2 3836   1.124   1.423   6.405
  746SOL     OW 3837   0.313   0.816   6.482
  746SOL    HW1 3838   0.390   0.798   6.420
  746SOL    HW2 3839   0.308   0.743   6.551
  747SOL     OW 3840   0.296   0.566   6.634
  747SOL    HW1 3841   0.243   0.482   6.622
  747SOL    HW2 3842   0.379   0.561   6.580
  748SOL     OW 3843   1.206   0.141   0.075
  748SOL    HW1 3844   1.220   0.205   0.150
  748SOL    HW2 3845   1.228   0.186   6.988
  749SOL     OW 3846   0.011   1.334   5.840
  749SOL    HW1 3847   6.943   1.364   5.908
  749SOL    HW2 3848   0.015   1.234   5.840
  750SOL     OW 3849   0.138   1.744   6.527
  750SOL    HW1 3850   0.101   1.678   6.461
  750SOL    HW2 3851   0.232   1.767   6.501
  751SOL     OW 3852   0.512   1.527   6.487
  751SOL    HW1 3853   0.586   1.578   6.530
  751SOL    HW2 3854   0.548   1.474   6.409
  752SOL     OW 3855   0.891   0.851   6.862
  752SOL    HW1 3856   0.956   0.898   6.922
  752SOL    HW2 3857   0.848   0.775   6.911
  753SOL     OW 3858   0.060   0.672   6.767
  753SOL    HW1 3859   0.137   0.624   6.726
  753SOL    HW2 3860   0.040   0.632   6.856
  754SOL     OW 3861   0.777   0.564   5.966
  754SOL    HW1 3862   0.792   0.483   5.909
  754SOL    HW2 3863   0.695   0.611   5.935
  755SOL     OW 3864   1.645   0.672   6.686
  755SOL    HW1 3865   1.638   0.606   6.760
  755SOL    HW2 3866   1.723   0.647   6.627
  756SOL     OW 3867   0.648   0.473   6.841
  756SOL    HW1 3868   0.637   0.375   6.822
  756SOL    HW2 3869   0.687   0.519   6.761
  757SOL     OW 3870   1.020   1.616   6.920
  757SOL    HW1 3871   0.956   1.571   6.858
  757SOL    HW2 3872   1.064   1.692   6.872
  758SOL     OW 3873   0.399   0.455   5.824
  758SOL    HW1 3874   0.463   0.532   5.829
  758SOL    HW2 3875   0.311   0.482   5.863
  759SOL     OW 3876   0.214   1.088   6.986
  759SOL    HW1 3877   0.237   1.039   0.071
  759SOL    HW2 3878   0.205   1.022   6.911
  760SOL     OW 3879   1.338   0.948   6.829
  760SOL    HW1 3880   1.330   0.950   6.729
  760SOL    HW2 3881   1.373   1.036   6.862
  761SOL     OW 3882   1.342   0.916   5.850
  761SOL    HW1 3883   1.272   0.900   5.920
  761SOL    HW2 3884   1.308   0.885   5.761
  762SOL     OW 3885   1.809   1.678   6.774
  762SOL    HW1 3886   1.861   1.713   6.696
  762SOL    HW2 3887   1.728   1.628   6.740
  763SOL     OW 3888   1.253   1.715   6.751
  763SOL    HW1 3889   1.339   1.757   6.721
  763SOL    HW2 3890   1.263   1.615   6.751
  764SOL     OW 3891   0.056   1.212   6.531
  764SOL    HW1 3892   0.068   1.220   6.630
  764SOL    HW2 3893   6.959   1.219   6.508
  765SOL     OW 3894   1.781   0.270   6.045
  765SOL    HW1 3895   1.827   0.241   5.962
  765SOL    HW2 3896   1.745   0.190   6.093
  766SOL     OW 3897   1.433   1.576   6.114
  766SOL    HW1 3898   1.492   1.606   6.039
  766SOL    HW2 3899   1.371   1.650   6.139
  767SOL     OW 3900   1.266   0.944   6.189
  767SOL    HW1 3901   1.340   0.883   6.220
  767SOL    HW2 3902   1.306   1.030   6.158
  768SOL     OW 3903   0.681   1.647   5.748
  768SOL    HW1 3904   0.693   1.673   5.652
  768SOL    HW2 3905   0.630   1.561   5.754
  769SOL     OW 3906   1.834   0.189   6.559
  769SOL    HW1 3907   1.859   0.093   6.571
  769SOL    HW2 3908   1.753   0.195   6.501
  770SOL     OW 3909   0.219   0.304   6.338
  770SOL    HW1 3910   0.132   0.336   6.301
  770SOL    HW2 3911   0.218   0.312   6.438
  771SOL     OW 3912   1.238   1.568   5.642
  771SOL    HW1 3913   1.227   1.476   5.680
  771SOL    HW2 3914   1.160   1.588   5.581
  772SOL     OW 3915   0.654   0.995   6.942
  772SOL    HW1 3916   0.739   0.958   6.905
  772SOL    HW2 3917   0.638   1.087   6.906
  773SOL     OW 3918   0.954   0.928   5.912
  773SOL    HW1 3919   0.981   0.941   5.816
  773SOL    HW2 3920   0.985   0.838   5.942
  774SOL     OW 3921   1.505   1.647   5.658
  774SOL    HW1 3922   1.410   1.617   5.648
  774SOL    HW2 3923   1.549   1.651   5.568
  775SOL     OW 3924   1.580   1.319   6.842
  775SOL    HW1 3925   1.677   1.306   6.863
  775SOL    HW2 3926   1.524   1.267   6.907
  776SOL     OW 3927   1.083   1.115   6.306
  776SOL    HW1 3928   1.004   1.065   6.344
  776SOL    HW2 3929   1.143   1.051   6.258
  777SOL     OW 3930   1.060   0.324   6.539
  777SOL    HW1 3931   1.042   0.240   6.489
  777SOL    HW2 3932   1.034   0.313   6.635
  778SOL     OW 3933   0.616   1.510   6.064
  778SOL    HW1 3934   0.658   1.452   5.993
  778SOL    HW2 3935   0.517   1.505   6.056
  779SOL     OW 3936   1.657   0.488   6.880
  779SOL    HW1 3937   1.702   0.512   6.965
  779SOL    HW2 3938   1.669   0.391   6.861
  780SOL     OW 3939   0.279   1.366   5.877
  780SOL    HW1 3940   0.179   1.362   5.870
  780SOL    HW2 3941   0.305   1.412   5.963
  781SOL     OW 3942   0.065   0.289   5.557
  781SOL    HW1 3943   6.996   0.217   5.561
  781SOL    HW2 3944   0.021   0.377   5.540
  782SOL     OW 3945   0.059   0.273   5.844
  782SOL    HW1 3946   0.049   0.270   5.744
  782SOL    HW2 3947   0.117   0.198   5.874
  783SOL     OW 3948   1.192   1.316   5.746
  783SOL    HW1 3949   1.095   1.300   5.733
  783SOL    HW2 3950   1.213   1.321   5.843
  784SOL     OW 3951   1.497   1.814   6.663
  784SOL    HW1 3952   1.536   1.864   6.585
  784SOL    HW2 3953   1.541   1.725   6.671
  785SOL     OW 3954   1.424   1.333   0.276
  785SOL    HW1 3955   1.373   1.361   0.357
  785SOL    HW2 3956   1.422   1.233   0.269
  786SOL     OW 3957   0.391   1.873   0.129
  786SOL    HW1 3958   0.309   1.931   0.126
  786SOL    HW2 3959   0.399   1.833   0.221
  787SOL     OW 3960   1.756   0.903   6.792
  787SOL    HW1 3961   1.717   0.817   6.757
  787SOL    HW2 3962   1.704   0.980   6.756
  788SOL     OW 3963   1.247   0.317   6.022
  788SOL    HW1 3964   1.316   0.245   6.019
  788SOL    HW2 3965   1.264   0.375   6.102
  789SOL     OW 3966   0.509   0.750   6.300
  789SOL    HW1 3967   0.577   0.819   6.279
  789SOL    HW2 3968   0.463   0.721   6.216
  790SOL     OW 3969   1.775   0.847   0.075
  790SOL    HW1 3970   1.755   0.934   0.119
  790SOL    HW2 3971   1.773   0.859   6.975
  791SOL     OW 3972   0.897   1.343   5.687
  791SOL    HW1 3973   0.850   1.353   5.774
  791SOL    HW2 3974   0.908   1.433   5.644
  792SOL     OW 3975   0.707   1.693   6.575
  792SOL    HW1 3976   0.679   1.788   6.583
  792SOL    HW2 3977   0.805   1.688   6.555
  793SOL     OW 3978   0.882   0.981   6.435
  793SOL    HW1 3979   0.931   0.912   6.488
  793SOL    HW2 3980   0.829   1.038   6.497
  794SOL     OW 3981   1.030   0.941   5.653
  794SOL    HW1 3982   1.010   1.016   5.589
  794SOL    HW2 3983   1.120   0.903   5.632
  795SOL     OW 3984   1.842   1.542   6.469
  795SOL    HW1 3985   1.759   1.528   6.416
  795SOL    HW2 3986   1.871   1.455   6.509
  796SOL     OW 3987   0.165   1.325   6.297
  796SOL    HW1 3988   0.149   1.286   6.388
  796SOL    HW2 3989   0.119   1.269   6.228
  797SOL     OW 3990   1.744   0.229   6.820
  797SOL    HW1 3991   1.677   0.155   6.825
  797SOL    HW2 3992   1.784   0.231   6.728
  798SOL     OW 3993   0.413   0.394   6.160
  798SOL    HW1 3994   0.483   0.323   6.150
  798SOL    HW2 3995   0.346   0.365   6.229
  799SOL     OW 3996   1.584   1.547   6.686
  799SOL    HW1 3997   1.541   1.517   6.601
  799SOL    HW2 3998   1.585   1.472   6.752
  800SOL     OW 3999   0.402   0.593   6.888
  800SOL    HW1 4000   0.486   0.539   6.894
  800SOL    HW2 4001   0.359   0.577   6.798
  801SOL     OW 4002   0.829   1.622   6.230
  801SOL    HW1 4003   0.835   1.711   6.184
  801SOL    HW2 4004   0.749   1.573   6.197
  802SOL     OW 4005   1.449   0.246   6.659
  802SOL    HW1 4006   1.499   0.162   6.683
  802SOL    HW2 4007   1.386   0.269   6.732
  803SOL     OW 4008   0.879   0.041   6.799
  803SOL    HW1 4009   0.813   6.996   6.738
  803SOL    HW2 4010   0.933   6.971   6.846
  804SOL     OW 4011   0.785   1.323   5.939
  804SOL    HW1 4012   0.761   1.227   5.955
  804SOL    HW2 4013   0.866   1.347   5.992
  805SOL     OW 4014   0.627   1.526   6.884
  805SOL    HW1 4015   0.628   1.617   6.925
  805SOL    HW2 4016   0.712   1.510   6.834
  806SOL     OW 4017   1.264   6.971   5.811
  806SOL    HW1 4018   1.316   6.903   5.759
  806SOL    HW2 4019   1.183   6.928   5.850
  807SOL     OW 4020   1.279   0.475   6.238
  807SOL    HW1 4021   1.226   0.560   6.232
  807SOL    HW2 4022   1.301   0.456   6.334
  808SOL     OW 4023   1.598   0.243   6.417
  808SOL    HW1 4024   1.541   0.240   6.499
  808SOL    HW2 4025   1.600   0.337   6.382
  809SOL     OW 4026   0.070   1.066   5.869
  809SOL    HW1 4027   0.162   1.027   5.866
  809SOL    HW2 4028   0.004   0.993   5.888
  810SOL     OW 4029   0.908   1.688   5.904
  810SOL    HW1 4030   0.829   1.667   5.847
  810SOL    HW2 4031   0.884   1.757   5.971
  811SOL     OW 4032   0.226   2.492   0.200
  811SOL    HW1 4033   0.184   2.451   0.281
  811SOL    HW2 4034   0.183   2.453   0.118
  812SOL     OW 4035   0.235   2.070   0.946
  812SOL    HW1 4036   0.274   1.978   0.943
  812SOL    HW2 4037   0.157   2.071   1.008
  813SOL     OW 4038   6.923   2.185   0.728
  813SOL    HW1 4039   6.893   2.115   0.792
  813SOL    HW2 4040   6.961   2.142   0.646
  814SOL     OW 4041   0.597   3.171   1.250
  814SOL    HW1 4042   0.518   3.161   1.189
  814SOL    HW2 4043   0.613   3.268   1.268
  815SOL     OW 4044   1.605   3.371   0.698
  815SOL    HW1 4045   1.547   3.350   0.777
  815SOL    HW2 4046   1.548   3.408   0.625
  816SOL     OW 4047   1.138   2.596   0.686
  816SOL    HW1 4048   1.191   2.680   0.680
  816SOL    HW2 4049   1.091   2.593   0.774
  817SOL     OW 4050   1.787   2.433   0.105
  817SOL    HW1 4051   1.755   2.528   0.097
  817SOL    HW2 4052   1.734   2.386   0.176
  818SOL     OW 4053   0.740   2.975   1.112
  818SOL    HW1 4054   0.678   3.021   1.175
  818SOL    HW2 4055   0.779   3.042   1.049
  819SOL     OW 4056   0.903   2.586   1.794
  819SOL    HW1 4057   0.931   2.652   1.863
  819SOL    HW2 4058   0.907   2.628   1.703
  820SOL     OW 4059   0.708   2.842   0.672
  820SOL    HW1 4060   0.779   2.841   0.743
  820SOL    HW2 4061   0.632   2.899   0.702
  821SOL     OW 4062   0.724   3.031   1.842
  821SOL    HW1 4063   0.783   3.102   1.883
  821SOL    HW2 4064   0.645   3.074   1.799
  822SOL     OW 4065   0.391   3.199   1.071
  822SOL    HW1 4066   0.358   3.114   1.029
  822SOL    HW2 4067   0.416   3.264   1.000
  823SOL     OW 4068   1.431   3.380   1.377
  823SOL    HW1 4069   1.489   3.461   1.389
  823SOL    HW2 4070   1.355   3.383   1.441
  824SOL     OW 4071   0.488   2.210   1.454
  824SOL    HW1 4072   0.577   2.172   1.478
  824SOL    HW2 4073   0.433   2.141   1.407
  825SOL     OW 4074   1.591   2.307   0.731
  825SOL    HW1 4075   1.532   2.320   0.652
  825SOL    HW2 4076   1.564   2.370   0.804
  826SOL     OW 4077   0.204   3.633   0.433
  826SOL    HW1 4078   0.238   3.689   0.509
  826SOL    HW2 4079   0.278   3.575   0.399
  827SOL     OW 4080   1.116   3.199   1.710
  827SOL    HW1 4081   1.165   3.191   1.797
  827SOL    HW2 4082   1.064   3.116   1.693
  828SOL     OW 4083   0.327   3.319   0.663
  828SOL    HW1 4084   0.377   3.364   0.737
  828SOL    HW2 4085   0.253   3.263   0.702
  829SOL     OW 4086   0.306   2.961   0.949
  829SOL    HW1 4087   0.318   2.862   0.945
  829SOL    HW2 4088   0.209   2.982   0.964
  830SOL     OW 4089   0.573   3.693   1.399
  830SOL    HW1 4090   0.490   3.678   1.453
  830SOL    HW2 4091   0.627   3.767   1.441
  831SOL     OW 4092   0.555   2.825   0.207
  831SOL    HW1 4093   0.579   2.850   0.113
  831SOL    HW2 4094   0.609   2.880   0.271
  832SOL     OW 4095   1.680   1.961   1.539
  832SOL    HW1 4096   1.709   2.041   1.486
  832SOL    HW2 4097   1.615   1.990   1.609
  833SOL     OW 4098   0.083   2.412   0.684
  833SOL    HW1 4099   0.010   2.352   0.716
  833SOL    HW2 4100   0.073   2.502   0.728
  834SOL     OW 4101   1.864   3.613   0.348
  834SOL    HW1 4102   1.941   3.583   0.404
  834SOL    HW2 4103   1.885   3.702   0.308
  835SOL     OW 4104   0.001   3.409   0.136
  835SOL    HW1 4105   6.986   3.316   0.167
  835SOL    HW2 4106   0.095   3.436   0.157
  836SOL     OW 4107   1.706   2.789   0.659
  836SOL    HW1 4108   1.798   2.750   0.655
  836SOL    HW2 4109   1.686   2.834   0.572
  837SOL     OW 4110   1.648   2.968   0.437
  837SOL    HW1 4111   1.715   2.972   0.363
  837SOL    HW2 4112   1.678   3.027   0.512
  838SOL     OW 4113   0.232   2.553   1.639
  838SOL    HW1 4114   0.331   2.563   1.654
  838SOL    HW2 4115   0.186   2.638   1.667
  839SOL     OW 4116   0.638   3.208   0.740
  839SOL    HW1 4117   0.586   3.123   0.742
  839SOL    HW2 4118   0.629   3.252   0.651
  840SOL     OW 4119   1.243   3.074   1.421
  840SOL    HW1 4120   1.261   3.002   1.354
  840SOL    HW2 4121   1.314   3.074   1.491
  841SOL     OW 4122   0.844   1.903   0.517
  841SOL    HW1 4123   0.892   1.984   0.485
  841SOL    HW2 4124   0.746   1.921   0.518
  842SOL     OW 4125   0.204   2.789   1.274
  842SOL    HW1 4126   0.293   2.743   1.264
  842SOL    HW2 4127   0.137   2.743   1.216
  843SOL     OW 4128   1.448   2.930   0.242
  843SOL    HW1 4129   1.380   2.860   0.265
  843SOL    HW2 4130   1.528   2.920   0.301
  844SOL     OW 4131   1.170   3.651   1.634
  844SOL    HW1 4132   1.183   3.724   1.566
  844SOL    HW2 4133   1.182   3.562   1.590
  845SOL     OW 4134   1.444   3.297   0.906
  845SOL    HW1 4135   1.392   3.312   0.991
  845SOL    HW2 4136   1.446   3.200   0.885
  846SOL     OW 4137   1.655   3.747   0.536
  846SOL    HW1 4138   1.644   3.679   0.464
  846SOL    HW2 4139   1.698   3.705   0.616
  847SOL     OW 4140   0.629   2.568   0.257
  847SOL    HW1 4141   0.618   2.664   0.231
  847SOL    HW2 4142   0.577   2.550   0.341
  848SOL     OW 4143   1.279   2.258   0.932
  848SOL    HW1 4144   1.187   2.219   0.934
  848SOL    HW2 4145   1.339   2.206   0.992
  849SOL     OW 4146   1.600   3.554   0.338
  849SOL    HW1 4147   1.700   3.557   0.333
  849SOL    HW2 4148   1.562   3.534   0.248
  850SOL     OW 4149   0.779   2.422   1.469
  850SOL    HW1 4150   0.741   2.387   1.555
  850SOL    HW2 4151   0.760   2.357   1.396
  851SOL     OW 4152   1.392   2.336   1.664
  851SOL    HW1 4153   1.396   2.386   1.750
  851SOL    HW2 4154   1.445   2.252   1.672
  852SOL     OW 4155   0.939   2.741   1.562
  852SOL    HW1 4156   0.989   2.670   1.513
  852SOL    HW2 4157   0.886   2.796   1.497
  853SOL     OW 4158   1.010   2.223   1.200
  853SOL    HW1 4159   0.915   2.238   1.229
  853SOL    HW2 4160   1.011   2.178   1.111
  854SOL     OW 4161   1.062   2.583   0.423
  854SOL    HW1 4162   1.085   2.586   0.521
  854SOL    HW2 4163   0.980   2.527   0.411
  855SOL     OW 4164   0.080   2.670   0.808
  855SOL    HW1 4165   0.176   2.679   0.835
  855SOL    HW2 4166   0.022   2.682   0.889
  856SOL     OW 4167   0.105   3.768   1.630
  856SOL    HW1 4168   0.126   3.739   1.723
  856SOL    HW2 4169   0.007   3.754   1.612
  857SOL     OW 4170   0.912   2.201   0.186
  857SOL    HW1 4171   0.944   2.270   0.121
  857SOL    HW2 4172   0.947   2.111   0.160
  858SOL     OW 4173   1.684   2.465   1.856
  858SOL    HW1 4174   1.666   2.546   1.802
  858SOL    HW2 4175   1.702   2.387   1.796
  859SOL     OW 4176   1.393   3.027   0.548
  859SOL    HW1 4177   1.478   3.015   0.497
  859SOL    HW2 4178   1.347   3.110   0.516
  860SOL     OW 4179   0.600   1.998   0.925
  860SOL    HW1 4180   0.590   2.021   1.022
  860SOL    HW2 4181   0.616   2.082   0.873
  861SOL     OW 4182   1.004   3.318   0.496
  861SOL    HW1 4183   0.976   3.396   0.439
  861SOL    HW2 4184   0.971   3.331   0.589
  862SOL     OW 4185   0.369   3.640   0.869
  862SOL    HW1 4186   0.405   3.547   0.880
  862SOL    HW2 4187   0.437   3.706   0.899
  863SOL     OW 4188   1.792   2.885   0.908
  863SOL    HW1 4189   1.746   2.871   0.820
  863SOL    HW2 4190   1.723   2.903   0.978
  864SOL     OW 4191   1.189   3.389   1.519
  864SOL    HW1 4192   1.181   3.320   1.590
  864SOL    HW2 4193   1.129   3.365   1.442
  865SOL     OW 4194   0.305   2.747   0.293
  865SOL    HW1 4195   0.393   2.775   0.254
  865SOL    HW2 4196   0.273   2.663   0.248
  866SOL     OW 4197   1.488   2.632   0.703
  866SOL    HW1 4198   1.484   2.580   0.789
  866SOL    HW2 4199   1.572   2.685   0.700
  867SOL     OW 4200   0.486   3.161   1.746
  867SOL    HW1 4201   0.469   3.145   1.648
  867SOL    HW2 4202   0.398   3.172   1.793
  868SOL     OW 4203   1.120   3.609   0.224
  868SOL    HW1 4204   1.043   3.580   0.281
  868SOL    HW2 4205   1.157   3.531   0.174
  869SOL     OW 4206   0.113   2.159   1.450
  869SOL    HW1 4207   0.065   2.240   1.417
  869SOL    HW2 4208   0.168   2.183   1.530
  870SOL     OW 4209   1.687   3.250   0.147
  870SOL    HW1 4210   1.671   3.310   0.068
  870SOL    HW2 4211   1.602   3.239   0.198
  871SOL     OW 4212   0.478   3.576   0.372
  871SOL    HW1 4213   0.517   3.649   0.429
  871SOL    HW2 4214   0.549   3.537   0.314
  872SOL     OW 4215   1.400   1.981   0.482
  872SOL    HW1 4216   1.388   1.945   0.389
  872SOL    HW2 4217   1.493   1.965   0.512
  873SOL     OW 4218   0.242   3.621   1.210
  873SOL    HW1 4219   0.280   3.534   1.241
  873SOL    HW2 4220   0.186   3.606   1.129
  874SOL     OW 4221   0.961   3.551   0.894
  874SOL    HW1 4222   1.054   3.515   0.902
  874SOL    HW2 4223   0.911   3.499   0.826
  875SOL     OW 4224   0.454   2.538   0.463
  875SOL    HW1 4225   0.431   2.441   0.470
  875SOL    HW2 4226   0.374   2.589   0.432
  876SOL     OW 4227   1.500   2.080   1.724
  876SOL    HW1 4228   1.506   2.101   1.822
  876SOL    HW2 4229   1.422   2.020   1.708
  877SOL     OW 4230   0.765   2.121   1.804
  877SOL    HW1 4231   0.851   2.073   1.789
  877SOL    HW2 4232   0.703   2.063   1.858
  878SOL     OW 4233   0.849   3.364   1.181
  878SOL    HW1 4234   0.831   3.307   1.101
  878SOL    HW2 4235   0.918   3.319   1.239
  879SOL     OW 4236   1.296   2.450   1.434
  879SOL    HW1 4237   1.337   2.418   1.519
  879SOL    HW2 4238   1.327   2.543   1.414
  880SOL     OW 4239   0.812   3.191   0.959
  880SOL    HW1 4240   0.903   3.207   0.923
  880SOL    HW2 4241   0.746   3.191   0.884
  881SOL     OW 4242   0.927   2.340   0.881
  881SOL    HW1 4243   0.904   2.336   0.784
  881SOL    HW2 4244   0.955   2.249   0.912
  882SOL     OW 4245   0.575   1.959   0.494
  882SOL    HW1 4246   0.492   1.958   0.550
  882SOL    HW2 4247   0.560   2.019   0.415
  883SOL     OW 4248   1.404   3.039   6.987
  883SOL    HW1 4249   1.445   2.986   0.062
  883SOL    HW2 4250   1.316   3.075   0.017
  884SOL     OW 4251   0.981   2.125   0.442
  884SOL    HW1 4252   0.950   2.154   0.351
  884SOL    HW2 4253   1.078   2.146   0.452
  885SOL     OW 4254   1.031   2.535   1.413
  885SOL    HW1 4255   0.959   2.470   1.436
  885SOL    HW2 4256   1.120   2.490   1.418
  886SOL     OW 4257   1.218   3.445   0.805
  886SOL    HW1 4258   1.233   3.524   0.746
  886SOL    HW2 4259   1.306   3.407   0.833
  887SOL     OW 4260   0.486   2.985   0.741
  887SOL    HW1 4261   0.420   2.980   0.817
  887SOL    HW2 4262   0.439   2.963   0.655
  888SOL     OW 4263   1.252   3.673   0.644
  888SOL    HW1 4264   1.305   3.743   0.596
  888SOL    HW2 4265   1.166   3.712   0.677
  889SOL     OW 4266   1.008   2.397   0.018
  889SOL    HW1 4267   0.930   2.459   0.024
  889SOL    HW2 4268   1.073   2.418   0.092
  890SOL     OW 4269   0.089   2.442   1.413
  890SOL    HW1 4270   0.174   2.432   1.361
  890SOL    HW2 4271   0.109   2.487   1.501
  891SOL     OW 4272   0.567   2.048   1.191
  891SOL    HW1 4273   0.600   1.973   1.249
  891SOL    HW2 4274   0.470   2.066   1.211
  892SOL     OW 4275   0.873   2.312   0.617
  892SOL    HW1 4276   0.842   2.376   0.547
  892SOL    HW2 4277   0.913   2.231   0.573
  893SOL     OW 4278   1.016   1.913   0.736
  893SOL    HW1 4279   0.954   1.913   0.657
  893SOL    HW2 4280   0.996   1.833   0.793
  894SOL     OW 4281   1.495   3.036   0.836
  894SOL    HW1 4282   1.422   2.989   0.787
  894SOL    HW2 4283   1.571   3.054   0.774
  895SOL     OW 4284   1.464   2.476   0.931
  895SOL    HW1 4285   1.394   2.405   0.943
  895SOL    HW2 4286   1.527   2.473   1.009
  896SOL     OW 4287   1.786   2.661   0.377
  896SOL    HW1 4288   1.860   2.605   0.413
  896SOL    HW2 4289   1.786   2.657   0.277
  897SOL     OW 4290   0.470   3.281   0.212
  897SOL    HW1 4291   0.430   3.246   0.297
  897SOL    HW2 4292   0.440   3.224   0.136
  898SOL     OW 4293   1.705   3.114   0.663
  898SOL    HW1 4294   1.804   3.102   0.667
  898SOL    HW2 4295   1.684   3.212   0.666
  899SOL     OW 4296   1.362   2.390   0.064
  899SOL    HW1 4297   1.293   2.395   0.137
  899SOL    HW2 4298   1.421   2.311   0.080
  900SOL     OW 4299   0.501   2.105   0.272
  900SOL    HW1 4300   0.473   2.035   0.206
  900SOL    HW2 4301   0.496   2.195   0.230
  901SOL     OW 4302   1.714   3.125   1.531
  901SOL    HW1 4303   1.792   3.062   1.534
  901SOL    HW2 4304   1.742   3.215   1.564
  902SOL     OW 4305   1.019   3.212   1.351
  902SOL    HW1 4306   0.936   3.185   1.400
  902SOL    HW2 4307   1.097   3.161   1.386
  903SOL     OW 4308   1.620   3.526   1.667
  903SOL    HW1 4309   1.597   3.563   1.577
  903SOL    HW2 4310   1.697   3.462   1.658
  904SOL     OW 4311   1.141   3.124   1.116
  904SOL    HW1 4312   1.080   3.151   1.190
  904SOL    HW2 4313   1.104   3.156   1.029
  905SOL     OW 4314   1.593   2.955   1.088
  905SOL    HW1 4315   1.582   3.024   1.160
  905SOL    HW2 4316   1.540   2.983   1.007
  906SOL     OW 4317   0.947   1.936   1.398
  906SOL    HW1 4318   0.959   1.915   1.301
  906SOL    HW2 4319   1.032   1.972   1.435
  907SOL     OW 4320   0.966   2.966   1.718
  907SOL    HW1 4321   0.873   2.985   1.750
  907SOL    HW2 4322   0.964   2.886   1.657
  908SOL     OW 4323   0.733   2.927   0.402
  908SOL    HW1 4324   0.720   2.896   0.497
  908SOL    HW2 4325   0.804   2.872   0.358
  909SOL     OW 4326   0.440   2.644   1.262
  909SOL    HW1 4327   0.504   2.658   1.338
  909SOL    HW2 4328   0.398   2.554   1.270
  910SOL     OW 4329   1.263   2.219   1.292
  910SOL    HW1 4330   1.283   2.305   1.340
  910SOL    HW2 4331   1.170   2.222   1.257
  911SOL     OW 4332   0.086   3.352   1.368
  911SOL    HW1 4333   0.057   3.405   1.447
  911SOL    HW2 4334   0.183   3.367   1.351
  912SOL     OW 4335   0.367   2.934   0.503
  912SOL    HW1 4336   0.353   3.025   0.463
  912SOL    HW2 4337   0.345   2.864   0.435
  913SOL     OW 4338   0.494   2.421   0.887
  913SOL    HW1 4339   0.510   2.486   0.812
  913SOL    HW2 4340   0.576   2.417   0.945
  914SOL     OW 4341   1.269   3.257   0.456
  914SOL    HW1 4342   1.319   3.337   0.489
  914SOL    HW2 4343   1.171   3.270   0.471
  915SOL     OW 4344   1.314   3.336   1.138
  915SOL    HW1 4345   1.356   3.350   1.228
  915SOL    HW2 4346   1.255   3.255   1.141
  916SOL     OW 4347   1.579   2.497   0.472
  916SOL    HW1 4348   1.524   2.538   0.545
  916SOL    HW2 4349   1.646   2.565   0.440
  917SOL     OW 4350   0.349   3.365   1.287
  917SOL    HW1 4351   0.348   3.303   1.209
  917SOL    HW2 4352   0.442   3.401   1.301
  918SOL     OW 4353   0.503   2.589   1.690
  918SOL    HW1 4354   0.540   2.631   1.607
  918SOL    HW2 4355   0.562   2.514   1.719
  919SOL     OW 4356   1.631   2.684   1.703
  919SOL    HW1 4357   1.536   2.715   1.696
  919SOL    HW2 4358   1.679   2.706   1.618
  920SOL     OW 4359   0.993   1.990   1.744
  920SOL    HW1 4360   1.056   2.066   1.734
  920SOL    HW2 4361   1.040   1.904   1.723
  921SOL     OW 4362   0.454   1.912   1.749
  921SOL    HW1 4363   0.427   1.864   1.665
  921SOL    HW2 4364   0.378   1.967   1.782
  922SOL     OW 4365   0.664   2.704   1.110
  922SOL    HW1 4366   0.676   2.802   1.098
  922SOL    HW2 4367   0.575   2.686   1.152
  923SOL     OW 4368   1.282   2.687   1.017
  923SOL    HW1 4369   1.192   2.654   0.989
  923SOL    HW2 4370   1.353   2.623   0.986
  924SOL     OW 4371   1.173   2.392   0.258
  924SOL    HW1 4372   1.201   2.316   0.316
  924SOL    HW2 4373   1.141   2.468   0.315
  925SOL     OW 4374   0.316   2.054   1.307
  925SOL    HW1 4375   0.240   2.093   1.359
  925SOL    HW2 4376   0.288   1.966   1.267
  926SOL     OW 4377   0.079   3.106   1.246
  926SOL    HW1 4378   0.111   3.036   1.310
  926SOL    HW2 4379   0.076   3.195   1.291
  927SOL     OW 4380   0.719   2.440   1.038
  927SOL    HW1 4381   0.798   2.418   0.981
  927SOL    HW2 4382   0.714   2.538   1.053
  928SOL     OW 4383   1.763   2.865   1.866
  928SOL    HW1 4384   1.725   2.794   1.807
  928SOL    HW2 4385   1.698   2.888   1.937
  929SOL     OW 4386   0.331   1.942   0.624
  929SOL    HW1 4387   0.291   2.032   0.643
  929SOL    HW2 4388   0.348   1.894   0.710
  930SOL     OW 4389   1.643   2.295   0.298
  930SOL    HW1 4390   1.697   2.228   0.349
  930SOL    HW2 4391   1.608   2.365   0.361
  931SOL     OW 4392   1.027   2.587   0.940
  931SOL    HW1 4393   1.000   2.610   1.034
  931SOL    HW2 4394   0.999   2.494   0.919
  932SOL     OW 4395   0.978   3.430   1.778
  932SOL    HW1 4396   0.945   3.490   1.705
  932SOL    HW2 4397   1.014   3.345   1.738
  933SOL     OW 4398   1.835   3.366   1.592
  933SOL    HW1 4399   1.853   3.383   1.495
  933SOL    HW2 4400   1.919   3.382   1.644
  934SOL     OW 4401   0.398   2.760   1.894
  934SOL    HW1 4402   0.476   2.804   1.939
  934SOL    HW2 4403   0.432   2.695   1.825
  935SOL     OW 4404   1.463   2.141   0.149
  935SOL    HW1 4405   1.441   2.052   0.189
  935SOL    HW2 4406   1.528   2.189   0.208
  936SOL     OW 4407   1.265   2.650   0.038
  936SOL    HW1 4408   1.311   2.561   0.037
  936SOL    HW2 4409   1.291   2.702   6.957
  937SOL     OW 4410   1.063   3.227   0.872
  937SOL    HW1 4411   1.081   3.144   0.820
  937SOL    HW2 4412   1.118   3.302   0.836
  938SOL     OW 4413   0.342   2.691   0.902
  938SOL    HW1 4414   0.408   2.679   0.827
  938SOL    HW2 4415   0.358   2.620   0.971
  939SOL     OW 4416   0.289   2.327   1.031
  939SOL    HW1 4417   0.268   2.232   1.006
  939SOL    HW2 4418   0.362   2.361   0.973
  940SOL     OW 4419   1.151   2.211   1.696
  940SOL    HW1 4420   1.101   2.261   1.767
  940SOL    HW2 4421   1.236   2.259   1.676
  941SOL     OW 4422   1.189   2.036   1.487
  941SOL    HW1 4423   1.170   2.098   1.562
  941SOL    HW2 4424   1.227   2.087   1.410
  942SOL     OW 4425   6.948   3.154   0.216
  942SOL    HW1 4426   6.901   3.182   0.300
  942SOL    HW2 4427   6.998   3.069   0.232
  943SOL     OW 4428   0.112   3.596   0.964
  943SOL    HW1 4429   0.074   3.530   0.899
  943SOL    HW2 4430   0.201   3.628   0.930
  944SOL     OW 4431   0.494   3.387   0.887
  944SOL    HW1 4432   0.560   3.451   0.927
  944SOL    HW2 4433   0.543   3.317   0.834
  945SOL     OW 4434   0.933   2.647   1.181
  945SOL    HW1 4435   0.970   2.612   1.267
  945SOL    HW2 4436   0.834   2.659   1.190
  946SOL     OW 4437   0.055   2.475   1.070
  946SOL    HW1 4438   0.141   2.430   1.046
  946SOL    HW2 4439   6.998   2.412   1.125
  947SOL     OW 4440   0.281   2.272   1.632
  947SOL    HW1 4441   0.368   2.263   1.583
  947SOL    HW2 4442   0.261   2.369   1.646
  948SOL     OW 4443   1.387   2.793   1.638
  948SOL    HW1 4444   1.405   2.892   1.632
  948SOL    HW2 4445   1.373   2.757   1.546
  949SOL     OW 4446   0.846   2.428   0.359
  949SOL    HW1 4447   0.857   2.346   0.303
  949SOL    HW2 4448   0.771   2.484   0.322
  950SOL     OW 4449   1.641   2.466   1.140
  950SOL    HW1 4450   1.615   2.395   1.205
  950SOL    HW2 4451   1.741   2.471   1.133
  951SOL     OW 4452   0.283   3.457   1.729
  951SOL    HW1 4453   0.232   3.523   1.784
  951SOL    HW2 4454   0.272   3.365   1.767
  952SOL     OW 4455   0.739   2.264   1.245
  952SOL    HW1 4456   0.677   2.186   1.232
  952SOL    HW2 4457   0.724   2.331   1.171
  953SOL     OW 4458   0.858   3.577   1.557
  953SOL    HW1 4459   0.812   3.508   1.500
  953SOL    HW2 4460   0.893   3.650   1.499
  954SOL     OW 4461   0.474   2.354   0.170
  954SOL    HW1 4462   0.540   2.427   0.191
  954SOL    HW2 4463   0.383   2.394   0.165
  955SOL     OW 4464   0.177   2.952   1.485
  955SOL    HW1 4465   0.185   2.902   1.572
  955SOL    HW2 4466   0.189   2.888   1.409
  956SOL     OW 4467   1.259   2.889   1.203
  956SOL    HW1 4468   1.270   2.819   1.133
  956SOL    HW2 4469   1.217   2.971   1.163
  957SOL     OW 4470   1.264   2.739   0.297
  957SOL    HW1 4471   1.201   2.688   0.355
  957SOL    HW2 4472   1.267   2.697   0.206
  958SOL     OW 4473   1.749   3.555   1.147
  958SOL    HW1 4474   1.822   3.586   1.086
  958SOL    HW2 4475   1.718   3.464   1.119
  959SOL     OW 4476   1.273   3.612   1.113
  959SOL    HW1 4477   1.363   3.651   1.097
  959SOL    HW2 4478   1.279   3.513   1.119
  960SOL     OW 4479   0.044   3.042   0.984
  960SOL    HW1 4480   0.056   3.069   1.080
  960SOL    HW2 4481   6.948   3.019   0.967
  961SOL     OW 4482   0.689   3.595   1.772
  961SOL    HW1 4483   0.616   3.663   1.761
  961SOL    HW2 4484   0.756   3.606   1.699
  962SOL     OW 4485   1.017   1.968   0.087
  962SOL    HW1 4486   1.095   2.011   0.041
  962SOL    HW2 4487   1.047   1.885   0.135
  963SOL     OW 4488   1.789   2.103   0.427
  963SOL    HW1 4489   1.852   2.065   0.358
  963SOL    HW2 4490   1.740   2.028   0.471
  964SOL     OW 4491   1.416   3.476   0.527
  964SOL    HW1 4492   1.475   3.510   0.453
  964SOL    HW2 4493   1.357   3.551   0.559
  965SOL     OW 4494   0.143   3.651   1.881
  965SOL    HW1 4495   0.095   3.571   1.918
  965SOL    HW2 4496   0.191   3.697   1.955
  966SOL     OW 4497   1.292   2.818   0.678
  966SOL    HW1 4498   1.365   2.750   0.687
  966SOL    HW2 4499   1.323   2.892   0.618
  967SOL     OW 4500   0.773   3.148   1.462
  967SOL    HW1 4501   0.752   3.211   1.537
  967SOL    HW2 4502   0.701   3.153   1.393
  968SOL     OW 4503   0.675   3.468   0.215
  968SOL    HW1 4504   0.664   3.524   0.132
  968SOL    HW2 4505   0.620   3.385   0.205
  969SOL     OW 4506   1.597   3.603   1.394
  969SOL    HW1 4507   1.655   3.595   1.313
  969SOL    HW2 4508   1.587   3.700   1.418
  970SOL     OW 4509   1.843   1.994   0.972
  970SOL    HW1 4510   1.872   1.903   0.943
  970SOL    HW2 4511   1.756   2.018   0.929
  971SOL     OW 4512   0.258   2.194   0.704
  971SOL    HW1 4513   0.201   2.276   0.697
  971SOL    HW2 4514   0.250   2.155   0.795
  972SOL     OW 4515   1.228   3.399   0.071
  972SOL    HW1 4516   1.222   3.303   0.096
  972SOL    HW2 4517   1.154   3.422   0.008
  973SOL     OW 4518   0.792   2.884   1.384
  973SOL    HW1 4519   0.804   2.894   1.285
  973SOL    HW2 4520   0.786   2.974   1.426
  974SOL     OW 4521   0.921   2.778   0.280
  974SOL    HW1 4522   0.971   2.806   0.198
  974SOL    HW2 4523   0.977   2.715   0.333
  975SOL     OW 4524   1.471   3.532   0.089
  975SOL    HW1 4525   1.387   3.477   0.090
  975SOL    HW2 4526   1.489   3.563   6.996
  976SOL     OW 4527   0.384   3.144   1.495
  976SOL    HW1 4528   0.374   3.215   1.425
  976SOL    HW2 4529   0.311   3.076   1.485
  977SOL     OW 4530   1.582   3.162   1.286
  977SOL    HW1 4531   1.637   3.134   1.365
  977SOL    HW2 4532   1.516   3.232   1.315
  978SOL     OW 4533   1.088   2.982   0.767
  978SOL    HW1 4534   1.013   2.928   0.804
  978SOL    HW2 4535   1.161   2.921   0.734
  979SOL     OW 4536   1.030   2.083   0.958
  979SOL    HW1 4537   1.030   2.041   0.866
  979SOL    HW2 4538   1.027   2.011   1.027
  980SOL     OW 4539   0.625   3.348   0.507
  980SOL    HW1 4540   0.673   3.298   0.435
  980SOL    HW2 4541   0.546   3.396   0.468
  981SOL     OW 4542   1.788   2.194   1.421
  981SOL    HW1 4543   1.856   2.267   1.413
  981SOL    HW2 4544   1.806   2.124   1.351
  982SOL     OW 4545   0.316   3.197   0.422
  982SOL    HW1 4546   0.220   3.203   0.393
  982SOL    HW2 4547   0.328   3.244   0.509
  983SOL     OW 4548   0.172   2.822   1.733
  983SOL    HW1 4549   0.095   2.861   1.783
  983SOL    HW2 4550   0.250   2.810   1.795
  984SOL     OW 4551   0.729   2.075   1.525
  984SOL    HW1 4552   0.814   2.042   1.484
  984SOL    HW2 4553   0.742   2.090   1.623
  985SOL     OW 4554   0.136   2.322   6.991
  985SOL    HW1 4555   0.058   2.330   6.929
  985SOL    HW2 4556   0.218   2.355   6.946
  986SOL     OW 4557   1.377   2.709   1.378
  986SOL    HW1 4558   1.316   2.767   1.324
  986SOL    HW2 4559   1.468   2.710   1.337
  987SOL     OW 4560   0.005   2.115   0.461
  987SOL    HW1 4561   0.056   2.196   0.431
  987SOL    HW2 4562   0.019   2.040   0.396
  988SOL     OW 4563   1.166   3.114   0.114
  988SOL    HW1 4564   1.077   3.159   0.109
  988SOL    HW2 4565   1.189   3.097   0.210
  989SOL     OW 4566   0.635   2.662   1.455
  989SOL    HW1 4567   0.689   2.745   1.436
  989SOL    HW2 4568   0.695   2.583   1.456
  990SOL     OW 4569   1.527   3.711   1.065
  990SOL    HW1 4570   1.555   3.762   0.984
  990SOL    HW2 4571   1.605   3.660   1.101
  991SOL     OW 4572   0.701   2.393   1.754
  991SOL    HW1 4573   0.777   2.454   1.774
  991SOL    HW2 4574   0.729   2.298   1.770
  992SOL     OW 4575   1.453   3.059   1.612
  992SOL    HW1 4576   1.443   3.088   1.708
  992SOL    HW2 4577   1.545   3.083   1.580
  993SOL     OW 4578   0.360   3.665   1.572
  993SOL    HW1 4579   0.271   3.709   1.562
  993SOL    HW2 4580   0.348   3.576   1.616
  994SOL     OW 4581   1.616   2.727   1.243
  994SOL    HW1 4582   1.625   2.642   1.192
  994SOL    HW2 4583   1.606   2.803   1.179
  995SOL     OW 4584   1.242   2.205   0.455
  995SOL    HW1 4585   1.301   2.124   0.462
  995SOL    HW2 4586   1.260   2.266   0.532
  996SOL     OW 4587   0.534   2.628   0.708
  996SOL    HW1 4588   0.605   2.698   0.696
  996SOL    HW2 4589   0.506   2.594   0.618
  997SOL     OW 4590   1.723   2.246   1.687
  997SOL    HW1 4591   1.743   2.238   1.589
  997SOL    HW2 4592   1.649   2.183   1.711
  998SOL     OW 4593   1.753   2.761   1.476
  998SOL    HW1 4594   1.805   2.847   1.472
  998SOL    HW2 4595   1.702   2.749   1.390
  999SOL     OW 4596   0.937   3.254   0.120
  999SOL    HW1 4597   0.872   3.237   0.193
  999SOL    HW2 4598   0.912   3.338   0.071
 1000SOL     OW 4599   0.678   3.569   0.959
 1000SOL    HW1 4600   0.651   3.665   0.947
 1000SOL    HW2 4601   0.778   3.562   0.961
 1001SOL     OW 4602   0.888   2.830   0.886
 1001SOL    HW1 4603   0.935   2.742   0.901
 1001SOL    HW2 4604   0.848   2.861   0.972
 1002SOL     OW 4605   1.068   2.848   0.057
 1002SOL    HW1 4606   1.107   2.939   0.064
 1002SOL    HW2 4607   1.141   2.781   0.048
 1003SOL     OW 4608   1.830   3.403   0.854
 1003SOL    HW1 4609   1.761   3.399   0.782
 1003SOL    HW2 4610   1.804   3.343   0.930
 1004SOL     OW 4611   0.244   3.210   1.860
 1004SOL    HW1 4612   0.151   3.176   1.842
 1004SOL    HW2 4613   0.258   3.218   1.959
 1005SOL     OW 4614   0.120   3.168   0.754
 1005SOL    HW1 4615   0.098   3.120   0.839
 1005SOL    HW2 4616   0.088   3.114   0.676
 1006SOL     OW 4617   0.689   3.328   1.655
 1006SOL    HW1 4618   0.607   3.279   1.687
 1006SOL    HW2 4619   0.694   3.417   1.700
 1007SOL     OW 4620   1.847   1.996   1.248
 1007SOL    HW1 4621   1.910   1.920   1.268
 1007SOL    HW2 4622   1.837   2.005   1.149
 1008SOL     OW 4623   0.396   2.273   0.478
 1008SOL    HW1 4624   0.437   2.203   0.420
 1008SOL    HW2 4625   0.369   2.233   0.565
 1009SOL     OW 4626   1.673   3.307   1.068
 1009SOL    HW1 4627   1.593   3.305   1.009
 1009SOL    HW2 4628   1.658   3.247   1.147
 1010SOL     OW 4629   0.336   2.395   1.293
 1010SOL    HW1 4630   0.395   2.333   1.345
 1010SOL    HW2 4631   0.321   2.358   1.202
 1011SOL     OW 4632   0.832   3.411   0.701
 1011SOL    HW1 4633   0.782   3.450   0.623
 1011SOL    HW2 4634   0.781   3.334   0.738
 1012SOL     OW 4635   1.436   2.118   1.106
 1012SOL    HW1 4636   1.458   2.022   1.122
 1012SOL    HW2 4637   1.380   2.152   1.182
 1013SOL     OW 4638   1.017   1.859   1.132
 1013SOL    HW1 4639   0.959   1.781   1.109
 1013SOL    HW2 4640   1.113   1.831   1.130
 1014SOL     OW 4641   0.796   3.191   0.353
 1014SOL    HW1 4642   0.769   3.096   0.368
 1014SOL    HW2 4643   0.877   3.212   0.408
 1015SOL     OW 4644   0.614   3.445   1.294
 1015SOL    HW1 4645   0.604   3.538   1.327
 1015SOL    HW2 4646   0.701   3.436   1.245
 1016SOL     OW 4647   1.371   1.886   0.229
 1016SOL    HW1 4648   1.427   1.814   0.188
 1016SOL    HW2 4649   1.275   1.858   0.230
 1017SOL     OW 4650   1.287   2.359   0.672
 1017SOL    HW1 4651   1.239   2.447   0.672
 1017SOL    HW2 4652   1.286   2.320   0.764
 1018SOL     OW 4653   1.597   2.070   0.883
 1018SOL    HW1 4654   1.541   2.099   0.960
 1018SOL    HW2 4655   1.599   2.141   0.814
 1019SOL     OW 4656   0.082   2.917   0.287
 1019SOL    HW1 4657   0.165   2.861   0.295
 1019SOL    HW2 4658   0.002   2.856   0.288
 1020SOL     OW 4659   0.897   3.535   0.367
 1020SOL    HW1 4660   0.817   3.509   0.314
 1020SOL    HW2 4661   0.876   3.616   0.422
 1021SOL     OW 4662   0.196   2.120   2.848
 1021SOL    HW1 4663   0.248   2.084   2.926
 1021SOL    HW2 4664   0.100   2.097   2.859
 1022SOL     OW 4665   0.025   2.284   2.497
 1022SOL    HW1 4666   6.963   2.261   2.573
 1022SOL    HW2 4667   0.116   2.250   2.517
 1023SOL     OW 4668   0.582   3.173   3.090
 1023SOL    HW1 4669   0.494   3.170   3.042
 1023SOL    HW2 4670   0.605   3.268   3.110
 1024SOL     OW 4671   1.577   3.435   2.559
 1024SOL    HW1 4672   1.534   3.399   2.642
 1024SOL    HW2 4673   1.514   3.426   2.482
 1025SOL     OW 4674   1.151   2.575   2.528
 1025SOL    HW1 4675   1.199   2.660   2.507
 1025SOL    HW2 4676   1.099   2.586   2.613
 1026SOL     OW 4677   1.791   2.463   2.108
 1026SOL    HW1 4678   1.759   2.480   2.015
 1026SOL    HW2 4679   1.731   2.396   2.152
 1027SOL     OW 4680   0.739   2.984   2.956
 1027SOL    HW1 4681   0.672   3.030   3.014
 1027SOL    HW2 4682   0.782   3.051   2.895
 1028SOL     OW 4683   0.903   2.582   3.638
 1028SOL    HW1 4684   0.938   2.643   3.709
 1028SOL    HW2 4685   0.904   2.629   3.550
 1029SOL     OW 4686   0.690   2.828   2.529
 1029SOL    HW1 4687   0.767   2.836   2.592
 1029SOL    HW2 4688   0.624   2.901   2.548
 1030SOL     OW 4689   0.700   3.012   3.712
 1030SOL    HW1 4690   0.757   3.081   3.756
 1030SOL    HW2 4691   0.623   3.056   3.667
 1031SOL     OW 4692   0.351   3.246   2.950
 1031SOL    HW1 4693   0.264   3.210   2.916
 1031SOL    HW2 4694   0.396   3.298   2.878
 1032SOL     OW 4695   1.388   3.384   3.247
 1032SOL    HW1 4696   1.449   3.461   3.263
 1032SOL    HW2 4697   1.310   3.391   3.309
 1033SOL     OW 4698   0.472   2.205   3.300
 1033SOL    HW1 4699   0.553   2.149   3.317
 1033SOL    HW2 4700   0.391   2.157   3.333
 1034SOL     OW 4701   1.553   2.287   2.609
 1034SOL    HW1 4702   1.477   2.287   2.544
 1034SOL    HW2 4703   1.541   2.361   2.675
 1035SOL     OW 4704   0.258   3.601   2.338
 1035SOL    HW1 4705   0.274   3.676   2.402
 1035SOL    HW2 4706   0.319   3.610   2.260
 1036SOL     OW 4707   1.094   3.190   3.576
 1036SOL    HW1 4708   1.164   3.178   3.646
 1036SOL    HW2 4709   1.040   3.107   3.568
 1037SOL     OW 4710   0.343   3.344   2.372
 1037SOL    HW1 4711   0.309   3.438   2.373
 1037SOL    HW2 4712   0.293   3.290   2.440
 1038SOL     OW 4713   0.274   2.990   2.720
 1038SOL    HW1 4714   0.284   2.893   2.743
 1038SOL    HW2 4715   0.213   3.033   2.786
 1039SOL     OW 4716   0.565   3.685   3.267
 1039SOL    HW1 4717   0.483   3.668   3.322
 1039SOL    HW2 4718   0.617   3.760   3.308
 1040SOL     OW 4719   0.618   2.859   2.036
 1040SOL    HW1 4720   0.660   2.910   1.961
 1040SOL    HW2 4721   0.658   2.887   2.123
 1041SOL     OW 4722   1.682   1.966   3.377
 1041SOL    HW1 4723   1.706   2.022   3.298
 1041SOL    HW2 4724   1.632   2.021   3.443
 1042SOL     OW 4725   0.114   2.547   2.443
 1042SOL    HW1 4726   0.071   2.457   2.454
 1042SOL    HW2 4727   0.084   2.607   2.517
 1043SOL     OW 4728   0.004   3.440   1.964
 1043SOL    HW1 4729   0.012   3.353   2.013
 1043SOL    HW2 4730   6.912   3.447   1.925
 1044SOL     OW 4731   1.676   3.032   2.277
 1044SOL    HW1 4732   1.748   2.965   2.259
 1044SOL    HW2 4733   1.714   3.124   2.269
 1045SOL     OW 4734   0.226   2.583   3.441
 1045SOL    HW1 4735   0.326   2.584   3.435
 1045SOL    HW2 4736   0.194   2.670   3.479
 1046SOL     OW 4737   0.643   3.237   2.589
 1046SOL    HW1 4738   0.595   3.149   2.584
 1046SOL    HW2 4739   0.634   3.284   2.501
 1047SOL     OW 4740   1.221   3.047   3.299
 1047SOL    HW1 4741   1.249   2.984   3.227
 1047SOL    HW2 4742   1.286   3.040   3.376
 1048SOL     OW 4743   0.837   1.906   2.371
 1048SOL    HW1 4744   0.880   1.989   2.335
 1048SOL    HW2 4745   0.738   1.915   2.362
 1049SOL     OW 4746   0.202   2.774   3.137
 1049SOL    HW1 4747   0.294   2.738   3.123
 1049SOL    HW2 4748   0.136   2.719   3.086
 1050SOL     OW 4749   1.560   2.934   2.047
 1050SOL    HW1 4750   1.486   2.871   2.070
 1050SOL    HW2 4751   1.600   2.969   2.132
 1051SOL     OW 4752   1.142   3.656   3.496
 1051SOL    HW1 4753   1.167   3.725   3.428
 1051SOL    HW2 4754   1.150   3.565   3.456
 1052SOL     OW 4755   0.329   2.124   3.750
 1052SOL    HW1 4756   0.355   2.202   3.808
 1052SOL    HW2 4757   0.231   2.127   3.733
 1053SOL     OW 4758   1.481   3.305   2.780
 1053SOL    HW1 4759   1.415   3.323   2.853
 1053SOL    HW2 4760   1.459   3.218   2.736
 1054SOL     OW 4761   1.669   3.664   2.413
 1054SOL    HW1 4762   1.652   3.626   2.322
 1054SOL    HW2 4763   1.643   3.597   2.483
 1055SOL     OW 4764   0.579   2.599   2.142
 1055SOL    HW1 4765   0.595   2.690   2.103
 1055SOL    HW2 4766   0.500   2.603   2.204
 1056SOL     OW 4767   1.266   2.242   2.791
 1056SOL    HW1 4768   1.177   2.195   2.790
 1056SOL    HW2 4769   1.327   2.197   2.855
 1057SOL     OW 4770   1.616   3.542   2.169
 1057SOL    HW1 4771   1.708   3.510   2.146
 1057SOL    HW2 4772   1.564   3.554   2.085
 1058SOL     OW 4773   0.781   2.431   3.285
 1058SOL    HW1 4774   0.749   2.403   3.375
 1058SOL    HW2 4775   0.756   2.361   3.218
 1059SOL     OW 4776   1.385   2.333   3.564
 1059SOL    HW1 4777   1.391   2.372   3.656
 1059SOL    HW2 4778   1.446   2.254   3.558
 1060SOL     OW 4779   0.936   2.747   3.410
 1060SOL    HW1 4780   0.987   2.677   3.361
 1060SOL    HW2 4781   0.890   2.808   3.345
 1061SOL     OW 4782   1.000   2.230   3.047
 1061SOL    HW1 4783   0.904   2.242   3.071
 1061SOL    HW2 4784   1.007   2.185   2.958
 1062SOL     OW 4785   1.054   2.548   2.270
 1062SOL    HW1 4786   1.082   2.548   2.366
 1062SOL    HW2 4787   0.961   2.511   2.263
 1063SOL     OW 4788   0.057   2.715   2.659
 1063SOL    HW1 4789   0.150   2.717   2.694
 1063SOL    HW2 4790   6.992   2.715   2.735
 1064SOL     OW 4791   0.094   3.752   3.493
 1064SOL    HW1 4792   0.114   3.719   3.585
 1064SOL    HW2 4793   6.995   3.746   3.477
 1065SOL     OW 4794   0.862   2.245   2.057
 1065SOL    HW1 4795   0.932   2.284   1.997
 1065SOL    HW2 4796   0.795   2.195   2.002
 1066SOL     OW 4797   1.714   2.324   3.780
 1066SOL    HW1 4798   1.673   2.405   3.737
 1066SOL    HW2 4799   1.643   2.259   3.805
 1067SOL     OW 4800   1.416   3.035   2.382
 1067SOL    HW1 4801   1.507   3.032   2.342
 1067SOL    HW2 4802   1.358   3.098   2.329
 1068SOL     OW 4803   0.592   1.954   2.798
 1068SOL    HW1 4804   0.585   1.985   2.893
 1068SOL    HW2 4805   0.618   2.030   2.739
 1069SOL     OW 4806   1.003   3.331   2.340
 1069SOL    HW1 4807   0.984   3.407   2.279
 1069SOL    HW2 4808   0.976   3.355   2.433
 1070SOL     OW 4809   0.362   3.634   2.738
 1070SOL    HW1 4810   0.399   3.542   2.744
 1070SOL    HW2 4811   0.430   3.700   2.773
 1071SOL     OW 4812   1.658   3.005   2.784
 1071SOL    HW1 4813   1.580   3.030   2.726
 1071SOL    HW2 4814   1.624   2.980   2.875
 1072SOL     OW 4815   1.150   3.389   3.388
 1072SOL    HW1 4816   1.145   3.320   3.461
 1072SOL    HW2 4817   1.096   3.358   3.309
 1073SOL     OW 4818   0.272   2.778   2.145
 1073SOL    HW1 4819   0.311   2.766   2.054
 1073SOL    HW2 4820   0.290   2.697   2.200
 1074SOL     OW 4821   1.501   2.658   2.602
 1074SOL    HW1 4822   1.469   2.591   2.669
 1074SOL    HW2 4823   1.564   2.722   2.646
 1075SOL     OW 4824   0.469   3.147   3.613
 1075SOL    HW1 4825   0.453   3.134   3.515
 1075SOL    HW2 4826   0.382   3.153   3.661
 1076SOL     OW 4827   1.168   3.628   2.109
 1076SOL    HW1 4828   1.077   3.607   2.145
 1076SOL    HW2 4829   1.189   3.564   2.035
 1077SOL     OW 4830   0.209   2.109   3.347
 1077SOL    HW1 4831   0.144   2.184   3.343
 1077SOL    HW2 4832   0.172   2.035   3.402
 1078SOL     OW 4833   1.640   3.292   1.938
 1078SOL    HW1 4834   1.599   3.383   1.926
 1078SOL    HW2 4835   1.575   3.222   1.912
 1079SOL     OW 4836   0.485   3.630   2.169
 1079SOL    HW1 4837   0.529   3.673   2.248
 1079SOL    HW2 4838   0.553   3.579   2.117
 1080SOL     OW 4839   1.395   1.962   2.316
 1080SOL    HW1 4840   1.398   1.939   2.219
 1080SOL    HW2 4841   1.481   1.936   2.360
 1081SOL     OW 4842   0.234   3.611   3.072
 1081SOL    HW1 4843   0.274   3.531   3.117
 1081SOL    HW2 4844   0.181   3.582   2.993
 1082SOL     OW 4845   0.950   3.563   2.756
 1082SOL    HW1 4846   1.042   3.523   2.758
 1082SOL    HW2 4847   0.898   3.522   2.682
 1083SOL     OW 4848   0.350   2.564   2.315
 1083SOL    HW1 4849   0.380   2.468   2.311
 1083SOL    HW2 4850   0.261   2.570   2.360
 1084SOL     OW 4851   1.515   2.085   3.580
 1084SOL    HW1 4852   1.531   2.100   3.678
 1084SOL    HW2 4853   1.448   2.011   3.569
 1085SOL     OW 4854   0.617   1.949   1.964
 1085SOL    HW1 4855   0.661   1.864   1.994
 1085SOL    HW2 4856   0.554   1.928   1.889
 1086SOL     OW 4857   0.770   2.126   3.607
 1086SOL    HW1 4858   0.855   2.075   3.606
 1086SOL    HW2 4859   0.709   2.090   3.678
 1087SOL     OW 4860   0.852   3.361   3.038
 1087SOL    HW1 4861   0.837   3.309   2.954
 1087SOL    HW2 4862   0.917   3.312   3.096
 1088SOL     OW 4863   1.279   2.437   3.329
 1088SOL    HW1 4864   1.318   2.407   3.415
 1088SOL    HW2 4865   1.315   2.528   3.305
 1089SOL     OW 4866   0.824   3.199   2.805
 1089SOL    HW1 4867   0.917   3.213   2.772
 1089SOL    HW2 4868   0.759   3.213   2.730
 1090SOL     OW 4869   0.908   2.340   2.727
 1090SOL    HW1 4870   0.888   2.335   2.629
 1090SOL    HW2 4871   0.947   2.254   2.758
 1091SOL     OW 4872   0.565   1.942   2.333
 1091SOL    HW1 4873   0.492   1.940   2.402
 1091SOL    HW2 4874   0.551   2.020   2.272
 1092SOL     OW 4875   1.434   3.113   1.885
 1092SOL    HW1 4876   1.477   3.040   1.938
 1092SOL    HW2 4877   1.344   3.134   1.924
 1093SOL     OW 4878   0.205   1.937   2.126
 1093SOL    HW1 4879   0.214   1.970   2.032
 1093SOL    HW2 4880   0.281   1.876   2.148
 1094SOL     OW 4881   0.965   2.130   2.284
 1094SOL    HW1 4882   0.928   2.167   2.198
 1094SOL    HW2 4883   1.064   2.143   2.285
 1095SOL     OW 4884   1.029   2.544   3.256
 1095SOL    HW1 4885   0.950   2.485   3.267
 1095SOL    HW2 4886   1.112   2.494   3.280
 1096SOL     OW 4887   1.203   3.472   2.680
 1096SOL    HW1 4888   1.228   3.521   2.596
 1096SOL    HW2 4889   1.247   3.515   2.759
 1097SOL     OW 4890   0.489   3.013   2.548
 1097SOL    HW1 4891   0.418   3.004   2.618
 1097SOL    HW2 4892   0.448   3.005   2.457
 1098SOL     OW 4893   1.249   3.652   2.471
 1098SOL    HW1 4894   1.309   3.718   2.425
 1098SOL    HW2 4895   1.170   3.701   2.508
 1099SOL     OW 4896   1.042   2.365   1.892
 1099SOL    HW1 4897   1.005   2.452   1.858
 1099SOL    HW2 4898   1.111   2.385   1.962
 1100SOL     OW 4899   0.096   2.418   3.249
 1100SOL    HW1 4900   0.186   2.400   3.210
 1100SOL    HW2 4901   0.105   2.480   3.327
 1101SOL     OW 4902   0.563   2.027   3.057
 1101SOL    HW1 4903   0.589   1.953   3.118
 1101SOL    HW2 4904   0.465   2.046   3.067
 1102SOL     OW 4905   0.862   2.313   2.464
 1102SOL    HW1 4906   0.822   2.376   2.398
 1102SOL    HW2 4907   0.901   2.235   2.415
 1103SOL     OW 4908   1.009   1.910   2.587
 1103SOL    HW1 4909   0.946   1.910   2.509
 1103SOL    HW2 4910   0.989   1.833   2.647
 1104SOL     OW 4911   1.414   3.068   2.655
 1104SOL    HW1 4912   1.325   3.031   2.682
 1104SOL    HW2 4913   1.424   3.063   2.556
 1105SOL     OW 4914   1.427   2.472   2.794
 1105SOL    HW1 4915   1.360   2.398   2.791
 1105SOL    HW2 4916   1.486   2.461   2.874
 1106SOL     OW 4917   1.859   2.621   2.332
 1106SOL    HW1 4918   1.905   2.564   2.399
 1106SOL    HW2 4919   1.846   2.570   2.247
 1107SOL     OW 4920   0.535   3.282   2.004
 1107SOL    HW1 4921   0.451   3.260   2.053
 1107SOL    HW2 4922   0.533   3.239   1.913
 1108SOL     OW 4923   1.401   2.452   1.911
 1108SOL    HW1 4924   1.351   2.420   1.991
 1108SOL    HW2 4925   1.500   2.446   1.929
 1109SOL     OW 4926   0.523   2.136   2.140
 1109SOL    HW1 4927   0.552   2.062   2.080
 1109SOL    HW2 4928   0.533   2.224   2.093
 1110SOL     OW 4929   1.670   3.113   3.419
 1110SOL    HW1 4930   1.746   3.049   3.407
 1110SOL    HW2 4931   1.705   3.199   3.456
 1111SOL     OW 4932   1.010   3.201   3.212
 1111SOL    HW1 4933   0.923   3.181   3.257
 1111SOL    HW2 4934   1.083   3.147   3.253
 1112SOL     OW 4935   1.577   3.494   3.549
 1112SOL    HW1 4936   1.560   3.532   3.458
 1112SOL    HW2 4937   1.658   3.436   3.547
 1113SOL     OW 4938   1.143   3.116   2.981
 1113SOL    HW1 4939   1.083   3.146   3.055
 1113SOL    HW2 4940   1.109   3.151   2.894
 1114SOL     OW 4941   1.536   2.948   3.024
 1114SOL    HW1 4942   1.555   3.031   3.077
 1114SOL    HW2 4943   1.439   2.925   3.031
 1115SOL     OW 4944   0.933   1.918   3.242
 1115SOL    HW1 4945   0.951   1.899   3.145
 1115SOL    HW2 4946   1.015   1.959   3.283
 1116SOL     OW 4947   0.949   2.954   3.591
 1116SOL    HW1 4948   0.856   2.969   3.626
 1116SOL    HW2 4949   0.948   2.882   3.522
 1117SOL     OW 4950   0.752   2.923   2.272
 1117SOL    HW1 4951   0.727   2.886   2.361
 1117SOL    HW2 4952   0.837   2.881   2.240
 1118SOL     OW 4953   0.444   2.644   3.098
 1118SOL    HW1 4954   0.511   2.663   3.169
 1118SOL    HW2 4955   0.404   2.553   3.112
 1119SOL     OW 4956   1.245   2.223   3.163
 1119SOL    HW1 4957   1.259   2.302   3.222
 1119SOL    HW2 4958   1.154   2.230   3.120
 1120SOL     OW 4959   0.082   3.371   3.272
 1120SOL    HW1 4960   0.041   3.420   3.350
 1120SOL    HW2 4961   0.180   3.391   3.268
 1121SOL     OW 4962   0.336   3.004   2.305
 1121SOL    HW1 4963   0.344   3.075   2.235
 1121SOL    HW2 4964   0.319   2.916   2.260
 1122SOL     OW 4965   0.456   2.407   2.702
 1122SOL    HW1 4966   0.466   2.483   2.638
 1122SOL    HW2 4967   0.537   2.402   2.760
 1123SOL     OW 4968   1.253   3.234   2.259
 1123SOL    HW1 4969   1.315   3.309   2.284
 1123SOL    HW2 4970   1.161   3.255   2.294
 1124SOL     OW 4971   1.311   3.337   2.992
 1124SOL    HW1 4972   1.343   3.355   3.085
 1124SOL    HW2 4973   1.257   3.252   2.992
 1125SOL     OW 4974   1.596   2.510   2.380
 1125SOL    HW1 4975   1.546   2.558   2.453
 1125SOL    HW2 4976   1.681   2.559   2.361
 1126SOL     OW 4977   0.350   3.376   3.189
 1126SOL    HW1 4978   0.339   3.324   3.104
 1126SOL    HW2 4979   0.445   3.405   3.198
 1127SOL     OW 4980   0.504   2.576   3.487
 1127SOL    HW1 4981   0.549   2.622   3.411
 1127SOL    HW2 4982   0.561   2.500   3.519
 1128SOL     OW 4983   1.622   2.568   3.652
 1128SOL    HW1 4984   1.538   2.603   3.610
 1128SOL    HW2 4985   1.702   2.600   3.601
 1129SOL     OW 4986   0.992   1.972   3.615
 1129SOL    HW1 4987   1.059   2.047   3.611
 1129SOL    HW2 4988   1.036   1.887   3.587
 1130SOL     OW 4989   0.487   1.928   3.640
 1130SOL    HW1 4990   0.440   1.877   3.567
 1130SOL    HW2 4991   0.429   2.004   3.670
 1131SOL     OW 4992   0.673   2.704   2.952
 1131SOL    HW1 4993   0.685   2.803   2.943
 1131SOL    HW2 4994   0.585   2.685   2.996
 1132SOL     OW 4995   1.263   2.685   2.876
 1132SOL    HW1 4996   1.172   2.661   2.841
 1132SOL    HW2 4997   1.328   2.614   2.850
 1133SOL     OW 4998   1.214   2.391   2.110
 1133SOL    HW1 4999   1.232   2.310   2.165
 1133SOL    HW2 5000   1.163   2.458   2.164
 1134SOL     OW 5001   0.291   2.031   3.091
 1134SOL    HW1 5002   0.259   2.064   3.180
 1134SOL    HW2 5003   0.275   1.932   3.084
 1135SOL     OW 5004   0.097   3.135   3.141
 1135SOL    HW1 5005   0.108   3.058   3.203
 1135SOL    HW2 5006   0.087   3.220   3.193
 1136SOL     OW 5007   0.682   2.432   2.861
 1136SOL    HW1 5008   0.765   2.405   2.812
 1136SOL    HW2 5009   0.688   2.529   2.886
 1137SOL     OW 5010   1.675   2.824   3.774
 1137SOL    HW1 5011   1.657   2.733   3.737
 1137SOL    HW2 5012   1.599   2.850   3.835
 1138SOL     OW 5013   0.355   1.944   2.516
 1138SOL    HW1 5014   0.325   2.036   2.541
 1138SOL    HW2 5015   0.361   1.888   2.598
 1139SOL     OW 5016   1.595   2.291   2.208
 1139SOL    HW1 5017   1.639   2.214   2.253
 1139SOL    HW2 5018   1.577   2.363   2.275
 1140SOL     OW 5019   1.014   2.591   2.772
 1140SOL    HW1 5020   0.991   2.614   2.866
 1140SOL    HW2 5021   0.981   2.499   2.752
 1141SOL     OW 5022   0.947   3.416   3.643
 1141SOL    HW1 5023   0.919   3.476   3.568
 1141SOL    HW2 5024   0.983   3.330   3.605
 1142SOL     OW 5025   1.802   3.346   3.482
 1142SOL    HW1 5026   1.826   3.372   3.389
 1142SOL    HW2 5027   1.884   3.350   3.540
 1143SOL     OW 5028   0.408   2.753   3.677
 1143SOL    HW1 5029   0.476   2.778   3.746
 1143SOL    HW2 5030   0.448   2.688   3.613
 1144SOL     OW 5031   1.512   2.140   1.986
 1144SOL    HW1 5032   1.468   2.057   2.021
 1144SOL    HW2 5033   1.537   2.199   2.062
 1145SOL     OW 5034   1.278   2.689   1.864
 1145SOL    HW1 5035   1.320   2.599   1.876
 1145SOL    HW2 5036   1.311   2.730   1.780
 1146SOL     OW 5037   1.083   3.226   2.732
 1146SOL    HW1 5038   1.115   3.146   2.681
 1146SOL    HW2 5039   1.134   3.307   2.704
 1147SOL     OW 5040   0.316   2.720   2.758
 1147SOL    HW1 5041   0.378   2.689   2.686
 1147SOL    HW2 5042   0.341   2.676   2.845
 1148SOL     OW 5043   0.252   2.385   2.884
 1148SOL    HW1 5044   0.216   2.292   2.871
 1148SOL    HW2 5045   0.322   2.404   2.815
 1149SOL     OW 5046   1.147   2.195   3.568
 1149SOL    HW1 5047   1.085   2.246   3.628
 1149SOL    HW2 5048   1.234   2.244   3.562
 1150SOL     OW 5049   1.164   2.030   3.345
 1150SOL    HW1 5050   1.152   2.086   3.427
 1150SOL    HW2 5051   1.203   2.085   3.272
 1151SOL     OW 5052   0.022   3.202   2.099
 1151SOL    HW1 5053   6.954   3.231   2.166
 1151SOL    HW2 5054   0.023   3.102   2.094
 1152SOL     OW 5055   0.109   3.557   2.822
 1152SOL    HW1 5056   0.083   3.484   2.758
 1152SOL    HW2 5057   0.194   3.599   2.791
 1153SOL     OW 5058   0.492   3.390   2.765
 1153SOL    HW1 5059   0.561   3.450   2.806
 1153SOL    HW2 5060   0.536   3.330   2.698
 1154SOL     OW 5061   0.943   2.660   3.018
 1154SOL    HW1 5062   0.978   2.624   3.105
 1154SOL    HW2 5063   0.844   2.668   3.022
 1155SOL     OW 5064   0.066   2.556   3.007
 1155SOL    HW1 5065   0.127   2.501   2.950
 1155SOL    HW2 5066   0.057   2.514   3.097
 1156SOL     OW 5067   0.240   2.401   3.641
 1156SOL    HW1 5068   0.307   2.328   3.628
 1156SOL    HW2 5069   0.244   2.463   3.563
 1157SOL     OW 5070   1.419   2.736   3.525
 1157SOL    HW1 5071   1.428   2.835   3.528
 1157SOL    HW2 5072   1.398   2.707   3.432
 1158SOL     OW 5073   0.799   2.452   2.232
 1158SOL    HW1 5074   0.810   2.376   2.168
 1158SOL    HW2 5075   0.721   2.508   2.203
 1159SOL     OW 5076   1.581   2.432   3.012
 1159SOL    HW1 5077   1.528   2.370   3.070
 1159SOL    HW2 5078   1.675   2.398   3.004
 1160SOL     OW 5079   0.262   3.437   3.590
 1160SOL    HW1 5080   0.211   3.502   3.645
 1160SOL    HW2 5081   0.255   3.346   3.631
 1161SOL     OW 5082   0.725   2.258   3.076
 1161SOL    HW1 5083   0.667   2.177   3.079
 1161SOL    HW2 5084   0.696   2.317   3.000
 1162SOL     OW 5085   0.841   3.571   3.416
 1162SOL    HW1 5086   0.792   3.509   3.355
 1162SOL    HW2 5087   0.884   3.643   3.361
 1163SOL     OW 5088   0.559   2.364   1.999
 1163SOL    HW1 5089   0.562   2.452   2.047
 1163SOL    HW2 5090   0.592   2.376   1.906
 1164SOL     OW 5091   0.157   2.949   3.339
 1164SOL    HW1 5092   0.165   2.899   3.425
 1164SOL    HW2 5093   0.171   2.885   3.262
 1165SOL     OW 5094   1.270   2.884   3.063
 1165SOL    HW1 5095   1.261   2.810   2.996
 1165SOL    HW2 5096   1.221   2.965   3.029
 1166SOL     OW 5097   1.348   2.781   2.113
 1166SOL    HW1 5098   1.286   2.750   2.185
 1166SOL    HW2 5099   1.317   2.746   2.025
 1167SOL     OW 5100   1.751   3.601   3.075
 1167SOL    HW1 5101   1.829   3.623   3.016
 1167SOL    HW2 5102   1.709   3.516   3.043
 1168SOL     OW 5103   1.281   3.599   2.914
 1168SOL    HW1 5104   1.371   3.637   2.890
 1168SOL    HW2 5105   1.293   3.509   2.954
 1169SOL     OW 5106   0.102   3.138   2.874
 1169SOL    HW1 5107   0.098   3.126   2.973
 1169SOL    HW2 5108   0.012   3.167   2.841
 1170SOL     OW 5109   0.673   3.588   3.632
 1170SOL    HW1 5110   0.603   3.659   3.624
 1170SOL    HW2 5111   0.740   3.598   3.558
 1171SOL     OW 5112   1.739   2.077   2.304
 1171SOL    HW1 5113   1.799   2.055   2.226
 1171SOL    HW2 5114   1.704   1.992   2.343
 1172SOL     OW 5115   1.406   3.450   2.340
 1172SOL    HW1 5116   1.471   3.488   2.274
 1172SOL    HW2 5117   1.343   3.522   2.370
 1173SOL     OW 5118   0.126   3.637   3.744
 1173SOL    HW1 5119   0.078   3.556   3.777
 1173SOL    HW2 5120   0.177   3.679   3.818
 1174SOL     OW 5121   1.300   2.804   2.483
 1174SOL    HW1 5122   1.376   2.751   2.521
 1174SOL    HW2 5123   1.336   2.881   2.431
 1175SOL     OW 5124   0.755   3.155   3.312
 1175SOL    HW1 5125   0.731   3.213   3.389
 1175SOL    HW2 5126   0.682   3.159   3.244
 1176SOL     OW 5127   0.692   3.503   2.029
 1176SOL    HW1 5128   0.701   3.535   1.935
 1176SOL    HW2 5129   0.642   3.416   2.030
 1177SOL     OW 5130   1.563   3.590   3.286
 1177SOL    HW1 5131   1.628   3.588   3.210
 1177SOL    HW2 5132   1.565   3.680   3.329
 1178SOL     OW 5133   1.850   2.004   2.871
 1178SOL    HW1 5134   1.884   1.915   2.842
 1178SOL    HW2 5135   1.763   2.023   2.826
 1179SOL     OW 5136   0.289   2.202   2.600
 1179SOL    HW1 5137   0.353   2.276   2.623
 1179SOL    HW2 5138   0.249   2.165   2.684
 1180SOL     OW 5139   1.232   3.455   1.906
 1180SOL    HW1 5140   1.222   3.361   1.938
 1180SOL    HW2 5141   1.157   3.478   1.844
 1181SOL     OW 5142   0.801   2.898   3.227
 1181SOL    HW1 5143   0.810   2.912   3.129
 1181SOL    HW2 5144   0.785   2.986   3.272
 1182SOL     OW 5145   0.974   2.798   2.186
 1182SOL    HW1 5146   0.995   2.806   2.089
 1182SOL    HW2 5147   1.006   2.710   2.221
 1183SOL     OW 5148   1.495   3.541   1.911
 1183SOL    HW1 5149   1.401   3.510   1.901
 1183SOL    HW2 5150   1.538   3.547   1.821
 1184SOL     OW 5151   0.374   3.138   3.360
 1184SOL    HW1 5152   0.363   3.219   3.301
 1184SOL    HW2 5153   0.301   3.073   3.340
 1185SOL     OW 5154   1.548   3.172   3.183
 1185SOL    HW1 5155   1.601   3.150   3.265
 1185SOL    HW2 5156   1.481   3.243   3.206
 1186SOL     OW 5157   1.142   2.971   2.640
 1186SOL    HW1 5158   1.054   2.932   2.666
 1186SOL    HW2 5159   1.189   2.909   2.578
 1187SOL     OW 5160   1.029   2.087   2.802
 1187SOL    HW1 5161   1.025   2.045   2.712
 1187SOL    HW2 5162   1.028   2.016   2.872
 1188SOL     OW 5163   0.621   3.365   2.353
 1188SOL    HW1 5164   0.667   3.312   2.281
 1188SOL    HW2 5165   0.522   3.362   2.338
 1189SOL     OW 5166   0.290   3.228   2.134
 1189SOL    HW1 5167   0.191   3.224   2.128
 1189SOL    HW2 5168   0.316   3.280   2.216
 1190SOL     OW 5169   0.161   2.816   3.583
 1190SOL    HW1 5170   0.105   2.874   3.642
 1190SOL    HW2 5171   0.250   2.801   3.625
 1191SOL     OW 5172   0.706   2.046   3.352
 1191SOL    HW1 5173   0.789   2.012   3.308
 1191SOL    HW2 5174   0.728   2.080   3.443
 1192SOL     OW 5175   1.369   2.687   3.257
 1192SOL    HW1 5176   1.309   2.747   3.204
 1192SOL    HW2 5177   1.459   2.683   3.213
 1193SOL     OW 5178   6.946   1.948   2.226
 1193SOL    HW1 5179   6.899   1.901   2.151
 1193SOL    HW2 5180   0.044   1.950   2.206
 1194SOL     OW 5181   1.183   3.194   1.991
 1194SOL    HW1 5182   1.084   3.181   1.985
 1194SOL    HW2 5183   1.210   3.196   2.087
 1195SOL     OW 5184   0.647   2.673   3.276
 1195SOL    HW1 5185   0.702   2.755   3.264
 1195SOL    HW2 5186   0.706   2.592   3.274
 1196SOL     OW 5187   1.526   3.681   2.829
 1196SOL    HW1 5188   1.539   3.771   2.788
 1196SOL    HW2 5189   1.613   3.631   2.827
 1197SOL     OW 5190   0.711   2.394   3.551
 1197SOL    HW1 5191   0.776   2.455   3.596
 1197SOL    HW2 5192   0.731   2.300   3.576
 1198SOL     OW 5193   1.426   3.013   3.507
 1198SOL    HW1 5194   1.401   3.035   3.602
 1198SOL    HW2 5195   1.510   3.060   3.483
 1199SOL     OW 5196   0.352   3.650   3.442
 1199SOL    HW1 5197   0.262   3.693   3.431
 1199SOL    HW2 5198   0.340   3.559   3.484
 1200SOL     OW 5199   1.604   2.692   3.117
 1200SOL    HW1 5200   1.605   2.608   3.064
 1200SOL    HW2 5201   1.595   2.771   3.056
 1201SOL     OW 5202   1.235   2.186   2.299
 1201SOL    HW1 5203   1.292   2.104   2.301
 1201SOL    HW2 5204   1.253   2.241   2.381
 1202SOL     OW 5205   0.484   2.638   2.552
 1202SOL    HW1 5206   0.566   2.694   2.540
 1202SOL    HW2 5207   0.443   2.618   2.463
 1203SOL     OW 5208   1.690   2.832   3.335
 1203SOL    HW1 5209   1.620   2.904   3.347
 1203SOL    HW2 5210   1.668   2.778   3.255
 1204SOL     OW 5211   0.898   3.219   1.959
 1204SOL    HW1 5212   0.851   3.227   2.047
 1204SOL    HW2 5213   0.903   3.309   1.916
 1205SOL     OW 5214   0.679   3.568   2.840
 1205SOL    HW1 5215   0.648   3.662   2.824
 1205SOL    HW2 5216   0.779   3.564   2.835
 1206SOL     OW 5217   0.899   2.844   2.722
 1206SOL    HW1 5218   0.936   2.752   2.732
 1206SOL    HW2 5219   0.862   2.875   2.810
 1207SOL     OW 5220   1.036   2.795   1.923
 1207SOL    HW1 5221   1.016   2.869   1.859
 1207SOL    HW2 5222   1.126   2.756   1.902
 1208SOL     OW 5223   1.798   3.411   2.738
 1208SOL    HW1 5224   1.723   3.399   2.673
 1208SOL    HW2 5225   1.819   3.322   2.780
 1209SOL     OW 5226   0.231   3.190   3.735
 1209SOL    HW1 5227   0.134   3.166   3.724
 1209SOL    HW2 5228   0.250   3.203   3.832
 1210SOL     OW 5229   0.194   3.133   2.503
 1210SOL    HW1 5230   0.215   3.086   2.589
 1210SOL    HW2 5231   0.242   3.088   2.428
 1211SOL     OW 5232   0.666   3.320   3.515
 1211SOL    HW1 5233   0.589   3.269   3.551
 1211SOL    HW2 5234   0.672   3.409   3.561
 1212SOL     OW 5235   1.772   2.092   3.152
 1212SOL    HW1 5236   1.816   2.021   3.098
 1212SOL    HW2 5237   1.780   2.180   3.104
 1213SOL     OW 5238   0.396   2.297   2.332
 1213SOL    HW1 5239   0.439   2.234   2.268
 1213SOL    HW2 5240   0.356   2.245   2.408
 1214SOL     OW 5241   1.641   3.366   3.004
 1214SOL    HW1 5242   1.602   3.347   2.914
 1214SOL    HW2 5243   1.622   3.290   3.066
 1215SOL     OW 5244   0.348   2.394   3.147
 1215SOL    HW1 5245   0.402   2.325   3.195
 1215SOL    HW2 5246   0.331   2.363   3.053
 1216SOL     OW 5247   0.832   3.445   2.545
 1216SOL    HW1 5248   0.790   3.493   2.468
 1216SOL    HW2 5249   0.772   3.370   2.574
 1217SOL     OW 5250   1.422   2.122   2.984
 1217SOL    HW1 5251   1.446   2.026   3.002
 1217SOL    HW2 5252   1.361   2.155   3.056
 1218SOL     OW 5253   1.024   1.865   2.970
 1218SOL    HW1 5254   0.977   1.799   2.913
 1218SOL    HW2 5255   1.118   1.835   2.987
 1219SOL     OW 5256   0.794   3.194   2.215
 1219SOL    HW1 5257   0.777   3.097   2.234
 1219SOL    HW2 5258   0.875   3.224   2.266
 1220SOL     OW 5259   0.621   3.440   3.161
 1220SOL    HW1 5260   0.607   3.534   3.190
 1220SOL    HW2 5261   0.706   3.433   3.109
 1221SOL     OW 5262   1.400   1.896   2.050
 1221SOL    HW1 5263   1.452   1.826   1.999
 1221SOL    HW2 5264   1.309   1.861   2.071
 1222SOL     OW 5265   1.282   2.330   2.527
 1222SOL    HW1 5266   1.236   2.418   2.520
 1222SOL    HW2 5267   1.269   2.292   2.619
 1223SOL     OW 5268   1.600   2.068   2.776
 1223SOL    HW1 5269   1.543   2.102   2.851
 1223SOL    HW2 5270   1.593   2.131   2.698
 1224SOL     OW 5271   0.038   2.926   2.118
 1224SOL    HW1 5272   0.119   2.868   2.124
 1224SOL    HW2 5273   0.003   2.945   2.210
 1225SOL     OW 5274   0.912   3.548   2.197
 1225SOL    HW1 5275   0.835   3.529   2.136
 1225SOL    HW2 5276   0.888   3.620   2.261
 1226SOL     OW 5277   0.189   2.553   3.871
 1226SOL    HW1 5278   0.169   2.486   3.943
 1226SOL    HW2 5279   0.225   2.505   3.791
 1227SOL     OW 5280   0.195   2.102   4.727
 1227SOL    HW1 5281   0.245   2.069   4.807
 1227SOL    HW2 5282   0.098   2.083   4.739
 1228SOL     OW 5283   0.029   2.255   4.388
 1228SOL    HW1 5284   6.964   2.234   4.461
 1228SOL    HW2 5285   0.119   2.221   4.412
 1229SOL     OW 5286   0.579   3.179   4.977
 1229SOL    HW1 5287   0.499   3.174   4.918
 1229SOL    HW2 5288   0.601   3.275   4.995
 1230SOL     OW 5289   1.570   3.383   4.407
 1230SOL    HW1 5290   1.536   3.343   4.492
 1230SOL    HW2 5291   1.493   3.401   4.346
 1231SOL     OW 5292   1.111   2.587   4.377
 1231SOL    HW1 5293   1.157   2.672   4.354
 1231SOL    HW2 5294   1.070   2.595   4.468
 1232SOL     OW 5295   0.726   2.981   4.821
 1232SOL    HW1 5296   0.663   3.018   4.888
 1232SOL    HW2 5297   0.768   3.055   4.769
 1233SOL     OW 5298   0.907   2.579   5.512
 1233SOL    HW1 5299   0.933   2.643   5.585
 1233SOL    HW2 5300   0.909   2.626   5.424
 1234SOL     OW 5301   0.681   2.824   4.382
 1234SOL    HW1 5302   0.752   2.833   4.452
 1234SOL    HW2 5303   0.611   2.893   4.397
 1235SOL     OW 5304   0.695   3.022   5.581
 1235SOL    HW1 5305   0.762   3.084   5.623
 1235SOL    HW2 5306   0.625   3.076   5.534
 1236SOL     OW 5307   0.365   3.228   4.806
 1236SOL    HW1 5308   0.277   3.190   4.777
 1236SOL    HW2 5309   0.402   3.285   4.733
 1237SOL     OW 5310   1.499   3.357   5.103
 1237SOL    HW1 5311   1.546   3.440   5.134
 1237SOL    HW2 5312   1.413   3.347   5.152
 1238SOL     OW 5313   0.472   2.205   5.170
 1238SOL    HW1 5314   0.553   2.148   5.183
 1238SOL    HW2 5315   0.391   2.157   5.204
 1239SOL     OW 5316   1.515   2.310   4.464
 1239SOL    HW1 5317   1.426   2.311   4.418
 1239SOL    HW2 5318   1.518   2.382   4.533
 1240SOL     OW 5319   0.256   3.603   4.219
 1240SOL    HW1 5320   0.275   3.679   4.281
 1240SOL    HW2 5321   0.318   3.607   4.141
 1241SOL     OW 5322   1.120   3.175   5.427
 1241SOL    HW1 5323   1.208   3.139   5.460
 1241SOL    HW2 5324   1.051   3.102   5.431
 1242SOL     OW 5325   0.333   3.339   4.247
 1242SOL    HW1 5326   0.299   3.432   4.252
 1242SOL    HW2 5327   0.287   3.282   4.315
 1243SOL     OW 5328   0.274   2.979   4.591
 1243SOL    HW1 5329   0.285   2.882   4.612
 1243SOL    HW2 5330   0.214   3.021   4.659
 1244SOL     OW 5331   0.575   3.700   5.173
 1244SOL    HW1 5332   0.503   3.642   5.212
 1244SOL    HW2 5333   0.594   3.776   5.235
 1245SOL     OW 5334   0.575   2.838   3.895
 1245SOL    HW1 5335   0.620   2.892   3.824
 1245SOL    HW2 5336   0.618   2.857   3.983
 1246SOL     OW 5337   1.653   1.965   5.244
 1246SOL    HW1 5338   1.696   2.040   5.193
 1246SOL    HW2 5339   1.592   2.003   5.313
 1247SOL     OW 5340   0.106   2.499   4.294
 1247SOL    HW1 5341   0.070   2.413   4.331
 1247SOL    HW2 5342   0.088   2.573   4.359
 1248SOL     OW 5343   1.831   3.607   3.997
 1248SOL    HW1 5344   1.902   3.584   4.064
 1248SOL    HW2 5345   1.841   3.702   3.969
 1249SOL     OW 5346   6.990   3.417   3.809
 1249SOL    HW1 5347   6.997   3.336   3.868
 1249SOL    HW2 5348   6.898   3.422   3.771
 1250SOL     OW 5349   1.687   2.777   4.400
 1250SOL    HW1 5350   1.766   2.716   4.397
 1250SOL    HW2 5351   1.683   2.832   4.317
 1251SOL     OW 5352   1.687   2.945   4.159
 1251SOL    HW1 5353   1.755   2.934   4.087
 1251SOL    HW2 5354   1.694   3.038   4.197
 1252SOL     OW 5355   0.229   2.600   5.304
 1252SOL    HW1 5356   0.329   2.595   5.299
 1252SOL    HW2 5357   0.202   2.691   5.335
 1253SOL     OW 5358   0.633   3.221   4.467
 1253SOL    HW1 5359   0.584   3.134   4.460
 1253SOL    HW2 5360   0.627   3.269   4.380
 1254SOL     OW 5361   1.247   3.047   5.163
 1254SOL    HW1 5362   1.266   2.991   5.082
 1254SOL    HW2 5363   1.328   3.048   5.222
 1255SOL     OW 5364   0.846   1.894   4.227
 1255SOL    HW1 5365   0.884   1.981   4.195
 1255SOL    HW2 5366   0.748   1.903   4.240
 1256SOL     OW 5367   0.209   2.842   5.009
 1256SOL    HW1 5368   0.277   2.774   4.982
 1256SOL    HW2 5369   0.128   2.833   4.951
 1257SOL     OW 5370   1.489   2.901   3.964
 1257SOL    HW1 5371   1.414   2.844   3.995
 1257SOL    HW2 5372   1.551   2.919   4.040
 1258SOL     OW 5373   1.273   3.743   5.379
 1258SOL    HW1 5374   1.235   3.795   5.303
 1258SOL    HW2 5375   1.287   3.648   5.350
 1259SOL     OW 5376   0.331   2.126   5.613
 1259SOL    HW1 5377   0.357   2.204   5.669
 1259SOL    HW2 5378   0.233   2.130   5.593
 1260SOL     OW 5379   1.482   3.274   4.638
 1260SOL    HW1 5380   1.437   3.308   4.721
 1260SOL    HW2 5381   1.452   3.181   4.619
 1261SOL     OW 5382   1.685   3.601   4.278
 1261SOL    HW1 5383   1.646   3.575   4.190
 1261SOL    HW2 5384   1.659   3.534   4.347
 1262SOL     OW 5385   0.536   2.561   3.990
 1262SOL    HW1 5386   0.554   2.652   3.953
 1262SOL    HW2 5387   0.475   2.569   4.069
 1263SOL     OW 5388   1.254   2.269   4.664
 1263SOL    HW1 5389   1.169   2.217   4.662
 1263SOL    HW2 5390   1.321   2.221   4.721
 1264SOL     OW 5391   1.573   3.529   4.032
 1264SOL    HW1 5392   1.668   3.551   4.012
 1264SOL    HW2 5393   1.523   3.518   3.946
 1265SOL     OW 5394   0.774   2.431   5.145
 1265SOL    HW1 5395   0.748   2.405   5.238
 1265SOL    HW2 5396   0.749   2.359   5.081
 1266SOL     OW 5397   1.373   2.338   5.377
 1266SOL    HW1 5398   1.375   2.387   5.464
 1266SOL    HW2 5399   1.432   2.257   5.383
 1267SOL     OW 5400   0.929   2.741   5.283
 1267SOL    HW1 5401   0.981   2.674   5.230
 1267SOL    HW2 5402   0.875   2.798   5.221
 1268SOL     OW 5403   0.990   2.220   4.908
 1268SOL    HW1 5404   0.894   2.232   4.933
 1268SOL    HW2 5405   0.995   2.178   4.817
 1269SOL     OW 5406   1.001   2.535   4.129
 1269SOL    HW1 5407   1.032   2.541   4.224
 1269SOL    HW2 5408   0.910   2.492   4.127
 1270SOL     OW 5409   0.073   2.682   4.508
 1270SOL    HW1 5410   0.164   2.692   4.548
 1270SOL    HW2 5411   0.005   2.680   4.581
 1271SOL     OW 5412   0.129   3.647   5.353
 1271SOL    HW1 5413   0.143   3.572   5.418
 1271SOL    HW2 5414   0.040   3.637   5.309
 1272SOL     OW 5415   0.833   2.209   3.919
 1272SOL    HW1 5416   0.889   2.249   3.846
 1272SOL    HW2 5417   0.781   2.131   3.882
 1273SOL     OW 5418   1.656   2.444   5.561
 1273SOL    HW1 5419   1.644   2.528   5.509
 1273SOL    HW2 5420   1.690   2.371   5.501
 1274SOL     OW 5421   1.390   3.061   4.306
 1274SOL    HW1 5422   1.483   3.080   4.274
 1274SOL    HW2 5423   1.325   3.116   4.254
 1275SOL     OW 5424   0.572   1.954   4.662
 1275SOL    HW1 5425   0.569   1.983   4.757
 1275SOL    HW2 5426   0.597   2.031   4.604
 1276SOL     OW 5427   0.969   3.321   4.212
 1276SOL    HW1 5428   0.947   3.396   4.149
 1276SOL    HW2 5429   0.939   3.345   4.304
 1277SOL     OW 5430   0.361   3.641   4.615
 1277SOL    HW1 5431   0.397   3.547   4.614
 1277SOL    HW2 5432   0.425   3.701   4.663
 1278SOL     OW 5433   1.756   2.829   4.665
 1278SOL    HW1 5434   1.721   2.818   4.572
 1278SOL    HW2 5435   1.694   2.887   4.718
 1279SOL     OW 5436   1.248   3.355   5.210
 1279SOL    HW1 5437   1.220   3.271   5.257
 1279SOL    HW2 5438   1.167   3.404   5.179
 1280SOL     OW 5439   0.287   2.799   3.967
 1280SOL    HW1 5440   0.377   2.818   3.927
 1280SOL    HW2 5441   0.255   2.709   3.936
 1281SOL     OW 5442   1.449   2.644   4.418
 1281SOL    HW1 5443   1.439   2.593   4.504
 1281SOL    HW2 5444   1.537   2.690   4.417
 1282SOL     OW 5445   0.461   3.195   5.479
 1282SOL    HW1 5446   0.437   3.218   5.384
 1282SOL    HW2 5447   0.381   3.160   5.527
 1283SOL     OW 5448   1.122   3.620   3.968
 1283SOL    HW1 5449   1.035   3.596   4.010
 1283SOL    HW2 5450   1.146   3.552   3.898
 1284SOL     OW 5451   0.210   2.106   5.224
 1284SOL    HW1 5452   0.147   2.184   5.224
 1284SOL    HW2 5453   0.172   2.032   5.277
 1285SOL     OW 5454   1.557   3.255   3.792
 1285SOL    HW1 5455   1.521   3.348   3.786
 1285SOL    HW2 5456   1.483   3.189   3.780
 1286SOL     OW 5457   0.472   3.630   4.040
 1286SOL    HW1 5458   0.519   3.675   4.115
 1286SOL    HW2 5459   0.537   3.578   3.986
 1287SOL     OW 5460   1.416   1.983   4.172
 1287SOL    HW1 5461   1.412   1.947   4.079
 1287SOL    HW2 5462   1.511   2.002   4.195
 1288SOL     OW 5463   0.228   3.636   4.927
 1288SOL    HW1 5464   0.282   3.556   4.954
 1288SOL    HW2 5465   0.172   3.612   4.848
 1289SOL     OW 5466   0.951   3.569   4.603
 1289SOL    HW1 5467   1.042   3.528   4.599
 1289SOL    HW2 5468   0.891   3.524   4.536
 1290SOL     OW 5469   0.369   2.532   4.208
 1290SOL    HW1 5470   0.398   2.437   4.220
 1290SOL    HW2 5471   0.271   2.540   4.228
 1291SOL     OW 5472   1.493   2.088   5.440
 1291SOL    HW1 5473   1.508   2.103   5.537
 1291SOL    HW2 5474   1.412   2.030   5.427
 1292SOL     OW 5475   0.674   1.984   3.835
 1292SOL    HW1 5476   0.737   1.908   3.849
 1292SOL    HW2 5477   0.601   1.955   3.773
 1293SOL     OW 5478   0.773   2.126   5.468
 1293SOL    HW1 5479   0.858   2.073   5.468
 1293SOL    HW2 5480   0.712   2.092   5.539
 1294SOL     OW 5481   0.861   3.342   4.939
 1294SOL    HW1 5482   0.834   3.312   4.848
 1294SOL    HW2 5483   0.912   3.269   4.985
 1295SOL     OW 5484   1.277   2.454   5.147
 1295SOL    HW1 5485   1.316   2.420   5.233
 1295SOL    HW2 5486   1.309   2.547   5.129
 1296SOL     OW 5487   0.813   3.206   4.687
 1296SOL    HW1 5488   0.905   3.221   4.653
 1296SOL    HW2 5489   0.748   3.206   4.611
 1297SOL     OW 5490   0.911   2.351   4.588
 1297SOL    HW1 5491   0.884   2.344   4.493
 1297SOL    HW2 5492   0.950   2.264   4.619
 1298SOL     OW 5493   0.575   1.931   4.236
 1298SOL    HW1 5494   0.496   1.926   4.298
 1298SOL    HW2 5495   0.561   2.005   4.171
 1299SOL     OW 5496   1.362   3.061   3.774
 1299SOL    HW1 5497   1.410   3.000   3.838
 1299SOL    HW2 5498   1.280   3.096   3.819
 1300SOL     OW 5499   0.277   1.920   3.932
 1300SOL    HW1 5500   0.309   1.992   3.869
 1300SOL    HW2 5501   0.355   1.868   3.965
 1301SOL     OW 5502   0.957   2.129   4.152
 1301SOL    HW1 5503   0.920   2.160   4.065
 1301SOL    HW2 5504   1.056   2.143   4.154
 1302SOL     OW 5505   1.019   2.553   5.107
 1302SOL    HW1 5506   0.942   2.490   5.121
 1302SOL    HW2 5507   1.105   2.503   5.118
 1303SOL     OW 5508   1.206   3.485   4.549
 1303SOL    HW1 5509   1.230   3.535   4.465
 1303SOL    HW2 5510   1.256   3.523   4.626
 1304SOL     OW 5511   0.478   3.002   4.411
 1304SOL    HW1 5512   0.407   2.992   4.481
 1304SOL    HW2 5513   0.437   2.998   4.320
 1305SOL     OW 5514   1.252   3.666   4.339
 1305SOL    HW1 5515   1.311   3.729   4.290
 1305SOL    HW2 5516   1.168   3.714   4.368
 1306SOL     OW 5517   1.001   2.344   3.745
 1306SOL    HW1 5518   0.971   2.432   3.708
 1306SOL    HW2 5519   1.060   2.360   3.824
 1307SOL     OW 5520   0.090   2.429   5.117
 1307SOL    HW1 5521   0.181   2.408   5.081
 1307SOL    HW2 5522   0.098   2.494   5.192
 1308SOL     OW 5523   0.556   2.023   4.923
 1308SOL    HW1 5524   0.587   1.948   4.982
 1308SOL    HW2 5525   0.459   2.040   4.938
 1309SOL     OW 5526   0.843   2.309   4.330
 1309SOL    HW1 5527   0.788   2.360   4.265
 1309SOL    HW2 5528   0.890   2.234   4.283
 1310SOL     OW 5529   1.025   1.912   4.439
 1310SOL    HW1 5530   0.966   1.910   4.358
 1310SOL    HW2 5531   0.999   1.839   4.502
 1311SOL     OW 5532   1.402   3.008   4.591
 1311SOL    HW1 5533   1.345   2.929   4.616
 1311SOL    HW2 5534   1.395   3.024   4.492
 1312SOL     OW 5535   1.413   2.508   4.657
 1312SOL    HW1 5536   1.347   2.433   4.668
 1312SOL    HW2 5537   1.478   2.508   4.733
 1313SOL     OW 5538   0.521   3.275   3.865
 1313SOL    HW1 5539   0.443   3.250   3.922
 1313SOL    HW2 5540   0.514   3.229   3.777
 1314SOL     OW 5541   1.707   3.196   4.257
 1314SOL    HW1 5542   1.795   3.232   4.225
 1314SOL    HW2 5543   1.661   3.265   4.312
 1315SOL     OW 5544   1.380   2.421   3.829
 1315SOL    HW1 5545   1.295   2.399   3.877
 1315SOL    HW2 5546   1.457   2.404   3.891
 1316SOL     OW 5547   0.536   2.115   4.040
 1316SOL    HW1 5548   0.590   2.067   3.972
 1316SOL    HW2 5549   0.488   2.192   3.998
 1317SOL     OW 5550   1.747   3.062   5.275
 1317SOL    HW1 5551   1.839   3.025   5.265
 1317SOL    HW2 5552   1.752   3.156   5.308
 1318SOL     OW 5553   1.006   3.151   5.073
 1318SOL    HW1 5554   0.927   3.140   5.132
 1318SOL    HW2 5555   1.088   3.115   5.118
 1319SOL     OW 5556   1.628   3.483   5.428
 1319SOL    HW1 5557   1.618   3.528   5.340
 1319SOL    HW2 5558   1.701   3.414   5.422
 1320SOL     OW 5559   1.169   3.162   4.849
 1320SOL    HW1 5560   1.101   3.163   4.923
 1320SOL    HW2 5561   1.125   3.187   4.763
 1321SOL     OW 5562   1.586   2.990   4.802
 1321SOL    HW1 5563   1.608   3.078   4.843
 1321SOL    HW2 5564   1.514   3.002   4.734
 1322SOL     OW 5565   0.937   1.912   5.098
 1322SOL    HW1 5566   0.955   1.895   5.002
 1322SOL    HW2 5567   1.017   1.955   5.140
 1323SOL     OW 5568   0.944   2.961   5.450
 1323SOL    HW1 5569   0.851   2.979   5.481
 1323SOL    HW2 5570   0.945   2.884   5.387
 1324SOL     OW 5571   0.736   2.897   4.118
 1324SOL    HW1 5572   0.714   2.865   4.210
 1324SOL    HW2 5573   0.826   2.863   4.092
 1325SOL     OW 5574   0.419   2.652   4.956
 1325SOL    HW1 5575   0.487   2.673   5.027
 1325SOL    HW2 5576   0.379   2.562   4.973
 1326SOL     OW 5577   1.236   2.217   5.019
 1326SOL    HW1 5578   1.256   2.304   5.063
 1326SOL    HW2 5579   1.145   2.220   4.978
 1327SOL     OW 5580   0.057   3.436   5.096
 1327SOL    HW1 5581   0.005   3.506   5.145
 1327SOL    HW2 5582   0.150   3.469   5.080
 1328SOL     OW 5583   0.360   2.987   4.164
 1328SOL    HW1 5584   0.342   3.068   4.108
 1328SOL    HW2 5585   0.335   2.905   4.113
 1329SOL     OW 5586   0.459   2.390   4.577
 1329SOL    HW1 5587   0.466   2.467   4.513
 1329SOL    HW2 5588   0.540   2.388   4.635
 1330SOL     OW 5589   1.221   3.230   4.157
 1330SOL    HW1 5590   1.282   3.308   4.172
 1330SOL    HW2 5591   1.129   3.253   4.185
 1331SOL     OW 5592   1.361   3.357   4.867
 1331SOL    HW1 5593   1.411   3.356   4.954
 1331SOL    HW2 5594   1.289   3.288   4.869
 1332SOL     OW 5595   1.405   2.544   4.162
 1332SOL    HW1 5596   1.420   2.571   4.256
 1332SOL    HW2 5597   1.354   2.615   4.113
 1333SOL     OW 5598   0.351   3.406   5.008
 1333SOL    HW1 5599   0.346   3.338   4.935
 1333SOL    HW2 5600   0.446   3.433   5.022
 1334SOL     OW 5601   0.506   2.575   5.356
 1334SOL    HW1 5602   0.546   2.618   5.275
 1334SOL    HW2 5603   0.566   2.501   5.387
 1335SOL     OW 5604   1.616   2.674   5.424
 1335SOL    HW1 5605   1.520   2.701   5.417
 1335SOL    HW2 5606   1.665   2.706   5.344
 1336SOL     OW 5607   0.995   1.970   5.479
 1336SOL    HW1 5608   1.059   2.046   5.472
 1336SOL    HW2 5609   1.041   1.885   5.452
 1337SOL     OW 5610   0.488   1.930   5.501
 1337SOL    HW1 5611   0.440   1.878   5.430
 1337SOL    HW2 5612   0.431   2.006   5.532
 1338SOL     OW 5613   0.658   2.701   4.816
 1338SOL    HW1 5614   0.672   2.800   4.807
 1338SOL    HW2 5615   0.570   2.683   4.859
 1339SOL     OW 5616   1.269   2.754   4.685
 1339SOL    HW1 5617   1.176   2.725   4.662
 1339SOL    HW2 5618   1.331   2.676   4.679
 1340SOL     OW 5619   1.154   2.371   3.972
 1340SOL    HW1 5620   1.187   2.299   4.033
 1340SOL    HW2 5621   1.105   2.440   4.026
 1341SOL     OW 5622   0.288   2.021   4.971
 1341SOL    HW1 5623   0.257   2.055   5.059
 1341SOL    HW2 5624   0.269   1.923   4.964
 1342SOL     OW 5625   0.092   3.178   5.017
 1342SOL    HW1 5626   0.120   3.116   5.090
 1342SOL    HW2 5627   0.079   3.270   5.054
 1343SOL     OW 5628   0.684   2.429   4.731
 1343SOL    HW1 5629   0.767   2.408   4.679
 1343SOL    HW2 5630   0.683   2.526   4.754
 1344SOL     OW 5631   1.767   2.837   5.594
 1344SOL    HW1 5632   1.717   2.771   5.538
 1344SOL    HW2 5633   1.708   2.870   5.667
 1345SOL     OW 5634   0.341   1.927   4.383
 1345SOL    HW1 5635   0.315   2.019   4.413
 1345SOL    HW2 5636   0.344   1.866   4.462
 1346SOL     OW 5637   1.543   2.339   4.050
 1346SOL    HW1 5638   1.619   2.318   4.111
 1346SOL    HW2 5639   1.486   2.410   4.090
 1347SOL     OW 5640   1.012   2.606   4.636
 1347SOL    HW1 5641   0.994   2.632   4.730
 1347SOL    HW2 5642   0.982   2.512   4.620
 1348SOL     OW 5643   1.031   3.431   5.420
 1348SOL    HW1 5644   1.019   3.458   5.325
 1348SOL    HW2 5645   1.054   3.334   5.425
 1349SOL     OW 5646   1.839   3.309   5.360
 1349SOL    HW1 5647   1.891   3.347   5.284
 1349SOL    HW2 5648   1.902   3.278   5.432
 1350SOL     OW 5649   0.414   2.758   5.545
 1350SOL    HW1 5650   0.480   2.781   5.616
 1350SOL    HW2 5651   0.454   2.691   5.483
 1351SOL     OW 5652   1.525   2.137   3.856
 1351SOL    HW1 5653   1.478   2.052   3.877
 1351SOL    HW2 5654   1.523   2.197   3.936
 1352SOL     OW 5655   1.292   2.669   3.757
 1352SOL    HW1 5656   1.327   2.579   3.782
 1352SOL    HW2 5657   1.334   2.699   3.672
 1353SOL     OW 5658   1.069   3.240   4.602
 1353SOL    HW1 5659   1.083   3.159   4.545
 1353SOL    HW2 5660   1.128   3.314   4.569
 1354SOL     OW 5661   0.321   2.711   4.635
 1354SOL    HW1 5662   0.387   2.680   4.567
 1354SOL    HW2 5663   0.346   2.675   4.725
 1355SOL     OW 5664   0.259   2.365   4.762
 1355SOL    HW1 5665   0.224   2.272   4.749
 1355SOL    HW2 5666   0.327   2.385   4.692
 1356SOL     OW 5667   1.142   2.196   5.425
 1356SOL    HW1 5668   1.087   2.245   5.492
 1356SOL    HW2 5669   1.222   2.250   5.401
 1357SOL     OW 5670   1.164   2.027   5.205
 1357SOL    HW1 5671   1.147   2.085   5.286
 1357SOL    HW2 5672   1.200   2.084   5.131
 1358SOL     OW 5673   0.013   3.196   3.972
 1358SOL    HW1 5674   6.952   3.232   4.042
 1358SOL    HW2 5675   0.014   3.096   3.976
 1359SOL     OW 5676   0.099   3.582   4.687
 1359SOL    HW1 5677   0.071   3.508   4.627
 1359SOL    HW2 5678   0.188   3.618   4.657
 1360SOL     OW 5679   0.490   3.395   4.628
 1360SOL    HW1 5680   0.562   3.453   4.666
 1360SOL    HW2 5681   0.530   3.329   4.565
 1361SOL     OW 5682   0.932   2.679   4.879
 1361SOL    HW1 5683   0.967   2.641   4.964
 1361SOL    HW2 5684   0.832   2.677   4.880
 1362SOL     OW 5685   0.053   2.528   4.856
 1362SOL    HW1 5686   0.123   2.474   4.811
 1362SOL    HW2 5687   0.051   2.506   4.954
 1363SOL     OW 5688   0.241   2.414   5.501
 1363SOL    HW1 5689   0.314   2.347   5.488
 1363SOL    HW2 5690   0.242   2.479   5.425
 1364SOL     OW 5691   1.370   2.780   5.359
 1364SOL    HW1 5692   1.398   2.876   5.358
 1364SOL    HW2 5693   1.351   2.750   5.266
 1365SOL     OW 5694   0.754   2.417   4.087
 1365SOL    HW1 5695   0.774   2.341   4.026
 1365SOL    HW2 5696   0.676   2.469   4.052
 1366SOL     OW 5697   1.588   2.501   4.865
 1366SOL    HW1 5698   1.559   2.439   4.938
 1366SOL    HW2 5699   1.686   2.490   4.849
 1367SOL     OW 5700   0.160   3.431   5.515
 1367SOL    HW1 5701   0.089   3.438   5.585
 1367SOL    HW2 5702   0.197   3.338   5.513
 1368SOL     OW 5703   0.718   2.252   4.942
 1368SOL    HW1 5704   0.658   2.172   4.943
 1368SOL    HW2 5705   0.692   2.313   4.867
 1369SOL     OW 5706   1.006   3.482   5.148
 1369SOL    HW1 5707   0.952   3.432   5.081
 1369SOL    HW2 5708   1.007   3.579   5.124
 1370SOL     OW 5709   0.399   2.322   3.928
 1370SOL    HW1 5710   0.453   2.407   3.934
 1370SOL    HW2 5711   0.314   2.333   3.978
 1371SOL     OW 5712   0.185   3.010   5.219
 1371SOL    HW1 5713   0.194   2.954   5.302
 1371SOL    HW2 5714   0.199   2.952   5.139
 1372SOL     OW 5715   1.260   2.910   4.915
 1372SOL    HW1 5716   1.264   2.850   4.836
 1372SOL    HW2 5717   1.232   3.002   4.887
 1373SOL     OW 5718   1.272   2.745   4.023
 1373SOL    HW1 5719   1.181   2.774   4.051
 1373SOL    HW2 5720   1.270   2.717   3.927
 1374SOL     OW 5721   1.827   3.586   4.971
 1374SOL    HW1 5722   1.921   3.607   4.946
 1374SOL    HW2 5723   1.781   3.542   4.895
 1375SOL     OW 5724   1.318   3.610   4.769
 1375SOL    HW1 5725   1.397   3.670   4.779
 1375SOL    HW2 5726   1.336   3.523   4.815
 1376SOL     OW 5727   0.109   3.127   4.753
 1376SOL    HW1 5728   0.102   3.136   4.852
 1376SOL    HW2 5729   0.019   3.139   4.712
 1377SOL     OW 5730   0.808   3.554   5.516
 1377SOL    HW1 5731   0.809   3.652   5.498
 1377SOL    HW2 5732   0.894   3.513   5.484
 1378SOL     OW 5733   1.692   2.016   4.213
 1378SOL    HW1 5734   1.769   2.020   4.149
 1378SOL    HW2 5735   1.693   1.928   4.261
 1379SOL     OW 5736   1.380   3.448   4.217
 1379SOL    HW1 5737   1.443   3.478   4.145
 1379SOL    HW2 5738   1.327   3.526   4.250
 1380SOL     OW 5739   1.256   2.824   4.355
 1380SOL    HW1 5740   1.327   2.758   4.380
 1380SOL    HW2 5741   1.299   2.907   4.320
 1381SOL     OW 5742   0.755   3.138   5.191
 1381SOL    HW1 5743   0.744   3.199   5.269
 1381SOL    HW2 5744   0.683   3.155   5.124
 1382SOL     OW 5745   0.668   3.500   3.891
 1382SOL    HW1 5746   0.681   3.532   3.798
 1382SOL    HW2 5747   0.620   3.413   3.891
 1383SOL     OW 5748   1.631   3.589   5.169
 1383SOL    HW1 5749   1.703   3.587   5.100
 1383SOL    HW2 5750   1.606   3.684   5.189
 1384SOL     OW 5751   1.824   1.994   4.719
 1384SOL    HW1 5752   1.855   1.909   4.676
 1384SOL    HW2 5753   1.744   2.029   4.670
 1385SOL     OW 5754   0.295   2.181   4.486
 1385SOL    HW1 5755   0.356   2.257   4.509
 1385SOL    HW2 5756   0.256   2.143   4.570
 1386SOL     OW 5757   1.186   3.430   3.782
 1386SOL    HW1 5758   1.178   3.339   3.823
 1386SOL    HW2 5759   1.106   3.446   3.723
 1387SOL     OW 5760   0.792   2.885   5.098
 1387SOL    HW1 5761   0.825   2.899   5.004
 1387SOL    HW2 5762   0.776   2.974   5.141
 1388SOL     OW 5763   0.979   2.790   4.042
 1388SOL    HW1 5764   0.992   2.791   3.943
 1388SOL    HW2 5765   0.983   2.696   4.075
 1389SOL     OW 5766   1.445   3.518   3.785
 1389SOL    HW1 5767   1.350   3.492   3.772
 1389SOL    HW2 5768   1.492   3.522   3.697
 1390SOL     OW 5769   0.341   3.254   5.241
 1390SOL    HW1 5770   0.341   3.301   5.153
 1390SOL    HW2 5771   0.289   3.169   5.232
 1391SOL     OW 5772   1.680   3.228   4.933
 1391SOL    HW1 5773   1.759   3.186   4.977
 1391SOL    HW2 5774   1.617   3.262   5.002
 1392SOL     OW 5775   1.072   2.997   4.477
 1392SOL    HW1 5776   0.993   2.947   4.510
 1392SOL    HW2 5777   1.133   2.935   4.428
 1393SOL     OW 5778   1.032   2.093   4.658
 1393SOL    HW1 5779   1.032   2.054   4.566
 1393SOL    HW2 5780   1.036   2.019   4.726
 1394SOL     OW 5781   0.609   3.357   4.231
 1394SOL    HW1 5782   0.649   3.299   4.160
 1394SOL    HW2 5783   0.509   3.354   4.223
 1395SOL     OW 5784   1.803   2.187   5.146
 1395SOL    HW1 5785   1.860   2.267   5.125
 1395SOL    HW2 5786   1.828   2.112   5.085
 1396SOL     OW 5787   0.283   3.218   4.010
 1396SOL    HW1 5788   0.184   3.216   4.004
 1396SOL    HW2 5789   0.310   3.268   4.093
 1397SOL     OW 5790   0.178   2.840   5.440
 1397SOL    HW1 5791   0.117   2.887   5.504
 1397SOL    HW2 5792   0.264   2.817   5.486
 1398SOL     OW 5793   0.708   2.041   5.214
 1398SOL    HW1 5794   0.791   2.009   5.169
 1398SOL    HW2 5795   0.731   2.077   5.304
 1399SOL     OW 5796   0.059   2.130   3.720
 1399SOL    HW1 5797   6.994   2.065   3.759
 1399SOL    HW2 5798   0.010   2.214   3.694
 1400SOL     OW 5799   1.354   2.714   5.093
 1400SOL    HW1 5800   1.293   2.772   5.040
 1400SOL    HW2 5801   1.448   2.725   5.059
 1401SOL     OW 5802   0.058   2.074   4.031
 1401SOL    HW1 5803   6.993   2.032   3.967
 1401SOL    HW2 5804   0.145   2.025   4.026
 1402SOL     OW 5805   1.144   3.179   3.889
 1402SOL    HW1 5806   1.045   3.169   3.877
 1402SOL    HW2 5807   1.166   3.185   3.986
 1403SOL     OW 5808   0.630   2.668   5.131
 1403SOL    HW1 5809   0.687   2.750   5.122
 1403SOL    HW2 5810   0.688   2.586   5.129
 1404SOL     OW 5811   1.533   3.788   4.786
 1404SOL    HW1 5812   1.558   3.829   4.698
 1404SOL    HW2 5813   1.609   3.798   4.850
 1405SOL     OW 5814   0.717   2.395   5.415
 1405SOL    HW1 5815   0.781   2.455   5.462
 1405SOL    HW2 5816   0.737   2.300   5.438
 1406SOL     OW 5817   1.466   3.037   5.345
 1406SOL    HW1 5818   1.456   3.063   5.441
 1406SOL    HW2 5819   1.561   3.051   5.316
 1407SOL     OW 5820   0.382   3.545   5.283
 1407SOL    HW1 5821   0.297   3.592   5.311
 1407SOL    HW2 5822   0.368   3.446   5.289
 1408SOL     OW 5823   1.595   2.763   4.969
 1408SOL    HW1 5824   1.603   2.680   4.915
 1408SOL    HW2 5825   1.588   2.842   4.908
 1409SOL     OW 5826   1.226   2.187   4.167
 1409SOL    HW1 5827   1.294   2.114   4.167
 1409SOL    HW2 5828   1.237   2.243   4.248
 1410SOL     OW 5829   0.491   2.626   4.434
 1410SOL    HW1 5830   0.568   2.687   4.417
 1410SOL    HW2 5831   0.448   2.601   4.347
 1411SOL     OW 5832   1.739   2.232   5.407
 1411SOL    HW1 5833   1.762   2.221   5.310
 1411SOL    HW2 5834   1.661   2.173   5.429
 1412SOL     OW 5835   1.725   2.792   5.206
 1412SOL    HW1 5836   1.720   2.889   5.231
 1412SOL    HW2 5837   1.682   2.778   5.117
 1413SOL     OW 5838   0.864   3.206   3.831
 1413SOL    HW1 5839   0.814   3.215   3.917
 1413SOL    HW2 5840   0.868   3.295   3.786
 1414SOL     OW 5841   0.684   3.567   4.703
 1414SOL    HW1 5842   0.647   3.660   4.712
 1414SOL    HW2 5843   0.783   3.572   4.691
 1415SOL     OW 5844   0.866   2.846   4.588
 1415SOL    HW1 5845   0.912   2.758   4.603
 1415SOL    HW2 5846   0.829   2.879   4.675
 1416SOL     OW 5847   1.041   2.775   3.780
 1416SOL    HW1 5848   1.022   2.851   3.718
 1416SOL    HW2 5849   1.134   2.741   3.763
 1417SOL     OW 5850   0.217   3.153   5.596
 1417SOL    HW1 5851   0.130   3.105   5.592
 1417SOL    HW2 5852   0.238   3.177   5.691
 1418SOL     OW 5853   0.185   3.173   4.415
 1418SOL    HW1 5854   0.225   3.108   4.479
 1418SOL    HW2 5855   0.121   3.126   4.354
 1419SOL     OW 5856   0.705   3.309   5.400
 1419SOL    HW1 5857   0.615   3.285   5.435
 1419SOL    HW2 5858   0.728   3.402   5.430
 1420SOL     OW 5859   1.858   1.975   4.990
 1420SOL    HW1 5860   1.928   1.904   4.997
 1420SOL    HW2 5861   1.836   1.991   4.894
 1421SOL     OW 5862   0.428   2.273   4.248
 1421SOL    HW1 5863   0.476   2.210   4.187
 1421SOL    HW2 5864   0.380   2.221   4.319
 1422SOL     OW 5865   1.710   3.442   4.754
 1422SOL    HW1 5866   1.633   3.433   4.690
 1422SOL    HW2 5867   1.711   3.363   4.816
 1423SOL     OW 5868   0.342   2.396   5.021
 1423SOL    HW1 5869   0.399   2.329   5.070
 1423SOL    HW2 5870   0.325   2.364   4.928
 1424SOL     OW 5871   0.810   3.434   4.417
 1424SOL    HW1 5872   0.754   3.459   4.338
 1424SOL    HW2 5873   0.765   3.361   4.467
 1425SOL     OW 5874   1.413   2.121   4.836
 1425SOL    HW1 5875   1.442   2.026   4.853
 1425SOL    HW2 5876   1.355   2.153   4.911
 1426SOL     OW 5877   1.037   1.863   4.819
 1426SOL    HW1 5878   0.981   1.801   4.765
 1426SOL    HW2 5879   1.130   1.827   4.825
 1427SOL     OW 5880   0.762   3.176   4.088
 1427SOL    HW1 5881   0.749   3.077   4.098
 1427SOL    HW2 5882   0.844   3.203   4.139
 1428SOL     OW 5883   0.621   3.454   5.032
 1428SOL    HW1 5884   0.621   3.542   5.080
 1428SOL    HW2 5885   0.713   3.436   4.996
 1429SOL     OW 5886   1.397   1.899   3.907
 1429SOL    HW1 5887   1.445   1.824   3.861
 1429SOL    HW2 5888   1.303   1.872   3.926
 1430SOL     OW 5889   1.247   2.340   4.395
 1430SOL    HW1 5890   1.202   2.428   4.379
 1430SOL    HW2 5891   1.239   2.316   4.491
 1431SOL     OW 5892   1.584   2.083   4.622
 1431SOL    HW1 5893   1.526   2.111   4.698
 1431SOL    HW2 5894   1.573   2.146   4.546
 1432SOL     OW 5895   0.042   2.924   4.003
 1432SOL    HW1 5896   0.132   2.880   3.998
 1432SOL    HW2 5897   6.972   2.853   4.010
 1433SOL     OW 5898   0.879   3.537   4.069
 1433SOL    HW1 5899   0.802   3.523   4.007
 1433SOL    HW2 5900   0.861   3.616   4.128
 1434SOL     OW 5901   0.193   2.566   5.733
 1434SOL    HW1 5902   0.172   2.498   5.804
 1434SOL    HW2 5903   0.230   2.520   5.653
 1435SOL     OW 5904   0.205   2.125   6.626
 1435SOL    HW1 5905   0.261   2.086   6.700
 1435SOL    HW2 5906   0.109   2.101   6.641
 1436SOL     OW 5907   0.036   2.254   6.258
 1436SOL    HW1 5908   6.973   2.238   6.334
 1436SOL    HW2 5909   0.127   2.221   6.282
 1437SOL     OW 5910   0.603   3.102   6.830
 1437SOL    HW1 5911   0.527   3.120   6.767
 1437SOL    HW2 5912   0.626   3.187   6.878
 1438SOL     OW 5913   1.603   3.350   6.324
 1438SOL    HW1 5914   1.537   3.311   6.388
 1438SOL    HW2 5915   1.556   3.379   6.241
 1439SOL     OW 5916   1.130   2.550   6.233
 1439SOL    HW1 5917   1.171   2.641   6.223
 1439SOL    HW2 5918   1.069   2.549   6.312
 1440SOL     OW 5919   1.810   2.435   5.782
 1440SOL    HW1 5920   1.761   2.448   5.696
 1440SOL    HW2 5921   1.763   2.367   5.838
 1441SOL     OW 5922   0.730   2.973   6.621
 1441SOL    HW1 5923   0.690   3.000   6.708
 1441SOL    HW2 5924   0.750   3.054   6.567
 1442SOL     OW 5925   0.696   2.812   6.265
 1442SOL    HW1 5926   0.771   2.807   6.331
 1442SOL    HW2 5927   0.630   2.880   6.296
 1443SOL     OW 5928   0.410   3.172   6.646
 1443SOL    HW1 5929   0.374   3.091   6.600
 1443SOL    HW2 5930   0.438   3.240   6.578
 1444SOL     OW 5931   1.588   2.306   6.336
 1444SOL    HW1 5932   1.512   2.313   6.270
 1444SOL    HW2 5933   1.578   2.378   6.405
 1445SOL     OW 5934   0.317   3.510   6.088
 1445SOL    HW1 5935   0.316   3.590   6.148
 1445SOL    HW2 5936   0.389   3.519   6.020
 1446SOL     OW 5937   0.299   3.218   6.128
 1446SOL    HW1 5938   0.334   3.311   6.136
 1446SOL    HW2 5939   0.244   3.196   6.208
 1447SOL     OW 5940   0.311   2.948   6.524
 1447SOL    HW1 5941   0.324   2.849   6.520
 1447SOL    HW2 5942   0.214   2.968   6.537
 1448SOL     OW 5943   0.611   3.637   0.008
 1448SOL    HW1 5944   0.522   3.668   0.042
 1448SOL    HW2 5945   0.674   3.715   0.002
 1449SOL     OW 5946   0.576   2.844   5.767
 1449SOL    HW1 5947   0.619   2.901   5.697
 1449SOL    HW2 5948   0.618   2.861   5.856
 1450SOL     OW 5949   0.112   2.493   6.151
 1450SOL    HW1 5950   0.077   2.408   6.190
 1450SOL    HW2 5951   0.097   2.568   6.216
 1451SOL     OW 5952   1.861   3.611   5.914
 1451SOL    HW1 5953   1.937   3.601   5.977
 1451SOL    HW2 5954   1.861   3.703   5.875
 1452SOL     OW 5955   6.970   3.437   5.711
 1452SOL    HW1 5956   6.972   3.343   5.745
 1452SOL    HW2 5957   6.959   3.500   5.787
 1453SOL     OW 5958   1.699   2.802   6.255
 1453SOL    HW1 5959   1.790   2.763   6.265
 1453SOL    HW2 5960   1.694   2.854   6.169
 1454SOL     OW 5961   1.683   2.979   6.034
 1454SOL    HW1 5962   1.764   2.952   5.981
 1454SOL    HW2 5963   1.710   3.048   6.101
 1455SOL     OW 5964   0.609   3.229   6.288
 1455SOL    HW1 5965   0.568   3.139   6.299
 1455SOL    HW2 5966   0.593   3.262   6.194
 1456SOL     OW 5967   0.844   1.878   6.099
 1456SOL    HW1 5968   0.890   1.960   6.066
 1456SOL    HW2 5969   0.745   1.895   6.104
 1457SOL     OW 5970   0.161   2.733   6.844
 1457SOL    HW1 5971   0.258   2.724   6.823
 1457SOL    HW2 5972   0.110   2.659   6.798
 1458SOL     OW 5973   1.565   2.919   5.786
 1458SOL    HW1 5974   1.488   2.859   5.805
 1458SOL    HW2 5975   1.606   2.950   5.871
 1459SOL     OW 5976   1.408   3.264   6.501
 1459SOL    HW1 5977   1.359   3.277   6.587
 1459SOL    HW2 5978   1.405   3.167   6.475
 1460SOL     OW 5979   1.638   3.719   6.131
 1460SOL    HW1 5980   1.629   3.650   6.059
 1460SOL    HW2 5981   1.658   3.674   6.218
 1461SOL     OW 5982   0.549   2.559   5.854
 1461SOL    HW1 5983   0.567   2.651   5.820
 1461SOL    HW2 5984   0.487   2.563   5.932
 1462SOL     OW 5985   1.292   2.266   6.501
 1462SOL    HW1 5986   1.202   2.223   6.496
 1462SOL    HW2 5987   1.351   2.211   6.560
 1463SOL     OW 5988   1.599   3.535   5.924
 1463SOL    HW1 5989   1.697   3.550   5.914
 1463SOL    HW2 5990   1.558   3.522   5.833
 1464SOL     OW 5991   0.768   2.528   0.012
 1464SOL    HW1 5992   0.718   2.545   0.097
 1464SOL    HW2 5993   0.715   2.466   6.955
 1465SOL     OW 5994   1.052   2.412   6.743
 1465SOL    HW1 5995   1.028   2.399   6.839
 1465SOL    HW2 5996   0.986   2.365   6.685
 1466SOL     OW 5997   1.028   2.520   5.979
 1466SOL    HW1 5998   1.060   2.521   6.074
 1466SOL    HW2 5999   0.936   2.483   5.975
 1467SOL     OW 6000   0.085   2.674   6.366
 1467SOL    HW1 6001   0.177   2.676   6.404
 1467SOL    HW2 6002   0.017   2.679   6.439
 1468SOL     OW 6003   0.050   3.788   0.266
 1468SOL    HW1 6004   0.103   3.728   0.326
 1468SOL    HW2 6005   6.972   3.738   0.228
 1469SOL     OW 6006   0.847   2.200   5.788
 1469SOL    HW1 6007   0.905   2.243   5.718
 1469SOL    HW2 6008   0.793   2.127   5.745
 1470SOL     OW 6009   1.413   3.018   6.152
 1470SOL    HW1 6010   1.501   3.005   6.107
 1470SOL    HW2 6011   1.360   3.086   6.103
 1471SOL     OW 6012   0.606   1.953   6.570
 1471SOL    HW1 6013   0.599   1.997   6.659
 1471SOL    HW2 6014   0.640   2.018   6.503
 1472SOL     OW 6015   1.010   3.307   6.075
 1472SOL    HW1 6016   0.988   3.387   6.020
 1472SOL    HW2 6017   0.974   3.319   6.168
 1473SOL     OW 6018   0.392   3.631   6.473
 1473SOL    HW1 6019   0.425   3.537   6.481
 1473SOL    HW2 6020   0.456   3.693   6.518
 1474SOL     OW 6021   1.793   2.931   6.488
 1474SOL    HW1 6022   1.748   2.914   6.401
 1474SOL    HW2 6023   1.725   2.929   6.562
 1475SOL     OW 6024   0.295   2.810   5.842
 1475SOL    HW1 6025   0.387   2.831   5.809
 1475SOL    HW2 6026   0.266   2.722   5.807
 1476SOL     OW 6027   1.484   2.635   6.278
 1476SOL    HW1 6028   1.470   2.595   6.369
 1476SOL    HW2 6029   1.563   2.696   6.281
 1477SOL     OW 6030   1.149   3.615   5.823
 1477SOL    HW1 6031   1.067   3.588   5.874
 1477SOL    HW2 6032   1.169   3.546   5.754
 1478SOL     OW 6033   1.636   3.248   5.689
 1478SOL    HW1 6034   1.606   3.343   5.683
 1478SOL    HW2 6035   1.563   3.188   5.656
 1479SOL     OW 6036   0.537   3.587   5.936
 1479SOL    HW1 6037   0.548   3.680   5.971
 1479SOL    HW2 6038   0.605   3.570   5.865
 1480SOL     OW 6039   1.401   1.958   6.038
 1480SOL    HW1 6040   1.403   1.933   5.941
 1480SOL    HW2 6041   1.491   1.942   6.078
 1481SOL     OW 6042   0.269   3.613   6.781
 1481SOL    HW1 6043   0.311   3.525   6.802
 1481SOL    HW2 6044   0.207   3.603   6.704
 1482SOL     OW 6045   0.960   3.538   6.445
 1482SOL    HW1 6046   1.050   3.495   6.442
 1482SOL    HW2 6047   0.899   3.494   6.378
 1483SOL     OW 6048   0.376   2.526   6.064
 1483SOL    HW1 6049   0.401   2.431   6.080
 1483SOL    HW2 6050   0.279   2.538   6.085
 1484SOL     OW 6051   0.676   1.984   5.695
 1484SOL    HW1 6052   0.738   1.907   5.708
 1484SOL    HW2 6053   0.602   1.957   5.634
 1485SOL     OW 6054   0.860   3.319   6.744
 1485SOL    HW1 6055   0.812   3.306   6.657
 1485SOL    HW2 6056   0.933   3.252   6.753
 1486SOL     OW 6057   0.788   3.206   6.495
 1486SOL    HW1 6058   0.883   3.209   6.463
 1486SOL    HW2 6059   0.727   3.215   6.416
 1487SOL     OW 6060   0.914   2.335   6.460
 1487SOL    HW1 6061   0.889   2.336   6.363
 1487SOL    HW2 6062   0.968   2.253   6.479
 1488SOL     OW 6063   0.578   1.932   6.095
 1488SOL    HW1 6064   0.501   1.931   6.158
 1488SOL    HW2 6065   0.566   2.007   6.029
 1489SOL     OW 6066   1.422   3.084   5.615
 1489SOL    HW1 6067   1.470   3.017   5.671
 1489SOL    HW2 6068   1.340   3.116   5.663
 1490SOL     OW 6069   0.273   1.924   5.795
 1490SOL    HW1 6070   0.305   1.995   5.732
 1490SOL    HW2 6071   0.351   1.871   5.828
 1491SOL     OW 6072   0.966   2.110   6.022
 1491SOL    HW1 6073   0.928   2.143   5.936
 1491SOL    HW2 6074   1.064   2.129   6.024
 1492SOL     OW 6075   1.205   3.422   6.375
 1492SOL    HW1 6076   1.228   3.496   6.311
 1492SOL    HW2 6077   1.289   3.380   6.408
 1493SOL     OW 6078   0.492   2.986   6.321
 1493SOL    HW1 6079   0.429   2.976   6.398
 1493SOL    HW2 6080   0.445   2.963   6.236
 1494SOL     OW 6081   1.248   3.638   6.199
 1494SOL    HW1 6082   1.300   3.703   6.144
 1494SOL    HW2 6083   1.161   3.680   6.227
 1495SOL     OW 6084   1.014   2.342   5.618
 1495SOL    HW1 6085   0.982   2.430   5.583
 1495SOL    HW2 6086   1.085   2.358   5.687
 1496SOL     OW 6087   0.585   2.084   6.813
 1496SOL    HW1 6088   0.645   2.048   6.885
 1496SOL    HW2 6089   0.490   2.060   6.834
 1497SOL     OW 6090   0.859   2.307   6.193
 1497SOL    HW1 6091   0.809   2.360   6.124
 1497SOL    HW2 6092   0.902   2.228   6.149
 1498SOL     OW 6093   1.036   1.897   6.301
 1498SOL    HW1 6094   0.969   1.898   6.227
 1498SOL    HW2 6095   1.009   1.828   6.369
 1499SOL     OW 6096   1.404   2.993   6.443
 1499SOL    HW1 6097   1.350   2.914   6.471
 1499SOL    HW2 6098   1.410   2.995   6.343
 1500SOL     OW 6099   1.434   2.517   6.522
 1500SOL    HW1 6100   1.379   2.435   6.530
 1500SOL    HW2 6101   1.510   2.513   6.587
 1501SOL     OW 6102   1.806   2.642   5.960
 1501SOL    HW1 6103   1.867   2.611   6.033
 1501SOL    HW2 6104   1.807   2.576   5.885
 1502SOL     OW 6105   0.505   3.319   5.726
 1502SOL    HW1 6106   0.424   3.299   5.781
 1502SOL    HW2 6107   0.494   3.280   5.634
 1503SOL     OW 6108   1.768   3.142   6.226
 1503SOL    HW1 6109   1.863   3.138   6.255
 1503SOL    HW2 6110   1.724   3.223   6.265
 1504SOL     OW 6111   1.379   2.442   5.629
 1504SOL    HW1 6112   1.330   2.406   5.709
 1504SOL    HW2 6113   1.477   2.432   5.643
 1505SOL     OW 6114   0.539   2.117   5.900
 1505SOL    HW1 6115   0.592   2.070   5.830
 1505SOL    HW2 6116   0.491   2.195   5.858
 1506SOL     OW 6117   1.765   2.982   0.175
 1506SOL    HW1 6118   1.848   2.967   0.120
 1506SOL    HW2 6119   1.735   3.076   0.165
 1507SOL     OW 6120   1.067   3.136   6.700
 1507SOL    HW1 6121   1.051   3.039   6.720
 1507SOL    HW2 6122   1.060   3.152   6.602
 1508SOL     OW 6123   1.578   2.957   6.661
 1508SOL    HW1 6124   1.577   3.041   6.715
 1508SOL    HW2 6125   1.514   2.966   6.584
 1509SOL     OW 6126   0.726   2.894   5.999
 1509SOL    HW1 6127   0.707   2.863   6.092
 1509SOL    HW2 6128   0.810   2.850   5.966
 1510SOL     OW 6129   0.435   2.689   6.816
 1510SOL    HW1 6130   0.492   2.745   6.875
 1510SOL    HW2 6131   0.418   2.601   6.860
 1511SOL     OW 6132   1.293   2.296   6.816
 1511SOL    HW1 6133   1.325   2.345   6.897
 1511SOL    HW2 6134   1.215   2.343   6.776
 1512SOL     OW 6135   0.087   3.351   6.879
 1512SOL    HW1 6136   0.060   3.380   6.971
 1512SOL    HW2 6137   0.185   3.367   6.866
 1513SOL     OW 6138   0.358   2.943   6.090
 1513SOL    HW1 6139   0.333   3.040   6.081
 1513SOL    HW2 6140   0.332   2.895   6.007
 1514SOL     OW 6141   0.471   2.385   6.441
 1514SOL    HW1 6142   0.480   2.458   6.373
 1514SOL    HW2 6143   0.552   2.384   6.499
 1515SOL     OW 6144   1.268   3.222   6.023
 1515SOL    HW1 6145   1.329   3.295   6.052
 1515SOL    HW2 6146   1.174   3.245   6.048
 1516SOL     OW 6147   1.284   3.296   6.744
 1516SOL    HW1 6148   1.338   3.266   6.823
 1516SOL    HW2 6149   1.201   3.241   6.738
 1517SOL     OW 6150   1.581   2.499   6.054
 1517SOL    HW1 6151   1.530   2.540   6.131
 1517SOL    HW2 6152   1.648   2.565   6.020
 1518SOL     OW 6153   0.364   3.358   6.835
 1518SOL    HW1 6154   0.366   3.294   6.759
 1518SOL    HW2 6155   0.457   3.377   6.866
 1519SOL     OW 6156   0.629   2.707   6.619
 1519SOL    HW1 6157   0.663   2.801   6.613
 1519SOL    HW2 6158   0.556   2.703   6.687
 1520SOL     OW 6159   1.288   2.760   6.561
 1520SOL    HW1 6160   1.195   2.735   6.590
 1520SOL    HW2 6161   1.340   2.676   6.543
 1521SOL     OW 6162   1.197   2.366   5.827
 1521SOL    HW1 6163   1.221   2.290   5.888
 1521SOL    HW2 6164   1.143   2.433   5.878
 1522SOL     OW 6165   0.323   2.017   6.853
 1522SOL    HW1 6166   0.275   2.037   6.939
 1522SOL    HW2 6167   0.306   1.922   6.826
 1523SOL     OW 6168   0.016   3.097   6.807
 1523SOL    HW1 6169   0.057   3.037   6.876
 1523SOL    HW2 6170   0.043   3.192   6.826
 1524SOL     OW 6171   0.697   2.441   6.592
 1524SOL    HW1 6172   0.778   2.415   6.542
 1524SOL    HW2 6173   0.688   2.541   6.591
 1525SOL     OW 6174   0.352   1.933   6.251
 1525SOL    HW1 6175   0.320   2.021   6.286
 1525SOL    HW2 6176   0.369   1.871   6.327
 1526SOL     OW 6177   1.630   2.269   5.917
 1526SOL    HW1 6178   1.677   2.206   5.979
 1526SOL    HW2 6179   1.598   2.348   5.969
 1527SOL     OW 6180   1.035   2.675   6.660
 1527SOL    HW1 6181   0.980   2.714   6.735
 1527SOL    HW2 6182   1.053   2.579   6.679
 1528SOL     OW 6183   1.960   3.313   0.175
 1528SOL    HW1 6184   1.971   3.332   0.077
 1528SOL    HW2 6185   1.865   3.288   0.193
 1529SOL     OW 6186   1.529   2.123   5.703
 1529SOL    HW1 6187   1.479   2.045   5.740
 1529SOL    HW2 6188   1.561   2.181   5.778
 1530SOL     OW 6189   1.269   2.688   5.594
 1530SOL    HW1 6190   1.305   2.595   5.605
 1530SOL    HW2 6191   1.300   2.726   5.507
 1531SOL     OW 6192   1.052   3.198   6.431
 1531SOL    HW1 6193   1.074   3.114   6.382
 1531SOL    HW2 6194   1.111   3.272   6.399
 1532SOL     OW 6195   0.330   2.678   6.493
 1532SOL    HW1 6196   0.398   2.658   6.422
 1532SOL    HW2 6197   0.357   2.634   6.578
 1533SOL     OW 6198   0.265   2.389   6.623
 1533SOL    HW1 6199   0.235   2.293   6.625
 1533SOL    HW2 6200   0.334   2.400   6.552
 1534SOL     OW 6201   1.239   2.087   6.988
 1534SOL    HW1 6202   1.317   2.100   0.049
 1534SOL    HW2 6203   1.240   2.157   6.917
 1535SOL     OW 6204   6.988   3.193   5.832
 1535SOL    HW1 6205   6.920   3.217   5.901
 1535SOL    HW2 6206   0.004   3.094   5.834
 1536SOL     OW 6207   0.128   3.583   6.539
 1536SOL    HW1 6208   0.089   3.518   6.474
 1536SOL    HW2 6209   0.220   3.610   6.509
 1537SOL     OW 6210   0.504   3.380   6.490
 1537SOL    HW1 6211   0.580   3.432   6.529
 1537SOL    HW2 6212   0.536   3.328   6.411
 1538SOL     OW 6213   0.879   2.748   6.885
 1538SOL    HW1 6214   0.946   2.790   6.947
 1538SOL    HW2 6215   0.842   2.665   6.927
 1539SOL     OW 6216   0.035   2.522   6.706
 1539SOL    HW1 6217   0.114   2.476   6.665
 1539SOL    HW2 6218   6.975   2.454   6.748
 1540SOL     OW 6219   0.774   2.416   5.948
 1540SOL    HW1 6220   0.789   2.337   5.889
 1540SOL    HW2 6221   0.696   2.469   5.914
 1541SOL     OW 6222   1.661   2.507   6.678
 1541SOL    HW1 6223   1.654   2.433   6.744
 1541SOL    HW2 6224   1.757   2.533   6.666
 1542SOL     OW 6225   0.630   2.355   6.841
 1542SOL    HW1 6226   0.620   2.256   6.836
 1542SOL    HW2 6227   0.657   2.391   6.752
 1543SOL     OW 6228   1.024   3.474   6.905
 1543SOL    HW1 6229   0.957   3.430   6.845
 1543SOL    HW2 6230   1.075   3.543   6.853
 1544SOL     OW 6231   0.403   2.326   5.788
 1544SOL    HW1 6232   0.459   2.409   5.796
 1544SOL    HW2 6233   0.317   2.340   5.836
 1545SOL     OW 6234   0.140   2.951   0.003
 1545SOL    HW1 6235   0.114   2.929   0.097
 1545SOL    HW2 6236   0.144   2.867   6.949
 1546SOL     OW 6237   1.316   2.817   6.835
 1546SOL    HW1 6238   1.323   2.811   6.735
 1546SOL    HW2 6239   1.363   2.899   6.866
 1547SOL     OW 6240   1.343   2.777   5.844
 1547SOL    HW1 6241   1.283   2.744   5.917
 1547SOL    HW2 6242   1.310   2.744   5.756
 1548SOL     OW 6243   1.800   3.539   6.771
 1548SOL    HW1 6244   1.852   3.576   6.693
 1548SOL    HW2 6245   1.720   3.490   6.737
 1549SOL     OW 6246   1.241   3.573   6.735
 1549SOL    HW1 6247   1.326   3.618   6.706
 1549SOL    HW2 6248   1.254   3.474   6.737
 1550SOL     OW 6249   0.042   2.990   6.554
 1550SOL    HW1 6250   0.027   3.032   6.643
 1550SOL    HW2 6251   6.986   2.907   6.545
 1551SOL     OW 6252   1.781   2.087   6.058
 1551SOL    HW1 6253   1.830   2.059   5.976
 1551SOL    HW2 6254   1.731   2.009   6.095
 1552SOL     OW 6255   1.429   3.436   6.116
 1552SOL    HW1 6256   1.487   3.466   6.041
 1552SOL    HW2 6257   1.363   3.507   6.138
 1553SOL     OW 6258   1.273   2.786   6.201
 1553SOL    HW1 6259   1.347   2.724   6.227
 1553SOL    HW2 6260   1.312   2.872   6.167
 1554SOL     OW 6261   0.723   3.475   5.761
 1554SOL    HW1 6262   0.753   3.509   5.672
 1554SOL    HW2 6263   0.647   3.412   5.749
 1555SOL     OW 6264   1.838   2.004   6.602
 1555SOL    HW1 6265   1.878   1.917   6.574
 1555SOL    HW2 6266   1.756   2.023   6.548
 1556SOL     OW 6267   0.297   2.179   6.367
 1556SOL    HW1 6268   0.362   2.253   6.384
 1556SOL    HW2 6269   0.258   2.148   6.453
 1557SOL     OW 6270   1.223   3.432   5.630
 1557SOL    HW1 6271   1.216   3.339   5.666
 1557SOL    HW2 6272   1.163   3.441   5.551
 1558SOL     OW 6273   0.624   2.854   6.941
 1558SOL    HW1 6274   0.716   2.823   6.914
 1558SOL    HW2 6275   0.610   2.948   6.910
 1559SOL     OW 6276   0.948   2.774   5.908
 1559SOL    HW1 6277   0.975   2.789   5.813
 1559SOL    HW2 6278   0.981   2.684   5.939
 1560SOL     OW 6279   1.492   3.505   5.664
 1560SOL    HW1 6280   1.398   3.477   5.648
 1560SOL    HW2 6281   1.542   3.507   5.577
 1561SOL     OW 6282   1.587   3.178   6.837
 1561SOL    HW1 6283   1.683   3.158   6.855
 1561SOL    HW2 6284   1.529   3.128   6.901
 1562SOL     OW 6285   1.087   2.954   6.325
 1562SOL    HW1 6286   1.014   2.901   6.369
 1562SOL    HW2 6287   1.148   2.892   6.276
 1563SOL     OW 6288   1.064   2.104   6.492
 1563SOL    HW1 6289   1.062   2.053   6.406
 1563SOL    HW2 6290   1.061   2.041   6.569
 1564SOL     OW 6291   0.598   3.336   6.044
 1564SOL    HW1 6292   0.657   3.277   5.989
 1564SOL    HW2 6293   0.574   3.418   5.992
 1565SOL     OW 6294   1.673   2.319   6.870
 1565SOL    HW1 6295   1.700   2.355   6.959
 1565SOL    HW2 6296   1.692   2.220   6.866
 1566SOL     OW 6297   0.261   3.239   5.855
 1566SOL    HW1 6298   0.161   3.241   5.852
 1566SOL    HW2 6299   0.291   3.229   5.950
 1567SOL     OW 6300   0.752   2.008   0.020
 1567SOL    HW1 6301   0.848   1.982   0.024
 1567SOL    HW2 6302   0.735   2.082   0.086
 1568SOL     OW 6303   0.061   2.131   5.578
 1568SOL    HW1 6304   6.996   2.066   5.618
 1568SOL    HW2 6305   0.013   2.216   5.554
 1569SOL     OW 6306   0.056   2.081   5.890
 1569SOL    HW1 6307   6.990   2.039   5.828
 1569SOL    HW2 6308   0.143   2.031   5.886
 1570SOL     OW 6309   1.196   3.182   5.748
 1570SOL    HW1 6310   1.100   3.157   5.738
 1570SOL    HW2 6311   1.220   3.184   5.845
 1571SOL     OW 6312   1.487   3.673   6.653
 1571SOL    HW1 6313   1.529   3.727   6.580
 1571SOL    HW2 6314   1.534   3.585   6.660
 1572SOL     OW 6315   1.448   3.201   0.259
 1572SOL    HW1 6316   1.382   3.231   0.328
 1572SOL    HW2 6317   1.445   3.102   0.250
 1573SOL     OW 6318   0.390   3.733   0.141
 1573SOL    HW1 6319   0.315   3.797   0.123
 1573SOL    HW2 6320   0.380   3.695   0.233
 1574SOL     OW 6321   1.650   2.740   6.834
 1574SOL    HW1 6322   1.642   2.657   6.779
 1574SOL    HW2 6323   1.625   2.819   6.778
 1575SOL     OW 6324   1.236   2.178   6.030
 1575SOL    HW1 6325   1.294   2.096   6.030
 1575SOL    HW2 6326   1.265   2.239   6.104
 1576SOL     OW 6327   0.503   2.613   6.290
 1576SOL    HW1 6328   0.580   2.676   6.279
 1576SOL    HW2 6329   0.462   2.594   6.201
 1577SOL     OW 6330   1.731   2.707   0.095
 1577SOL    HW1 6331   1.733   2.798   0.136
 1577SOL    HW2 6332   1.699   2.714   0.000
 1578SOL     OW 6333   0.882   3.194   5.701
 1578SOL    HW1 6334   0.846   3.184   5.794
 1578SOL    HW2 6335   0.871   3.289   5.671
 1579SOL     OW 6336   0.701   3.549   6.567
 1579SOL    HW1 6337   0.671   3.644   6.575
 1579SOL    HW2 6338   0.799   3.547   6.545
 1580SOL     OW 6339   0.895   2.817   6.467
 1580SOL    HW1 6340   0.945   2.753   6.525
 1580SOL    HW2 6341   0.835   2.873   6.524
 1581SOL     OW 6342   1.025   2.790   5.650
 1581SOL    HW1 6343   1.003   2.865   5.588
 1581SOL    HW2 6344   1.117   2.756   5.631
 1582SOL     OW 6345   1.843   3.397   6.468
 1582SOL    HW1 6346   1.759   3.383   6.415
 1582SOL    HW2 6347   1.872   3.309   6.507
 1583SOL     OW 6348   0.113   3.144   6.331
 1583SOL    HW1 6349   0.092   3.092   6.414
 1583SOL    HW2 6350   0.069   3.100   6.253
 1584SOL     OW 6351   1.775   2.057   6.864
 1584SOL    HW1 6352   1.734   1.973   6.900
 1584SOL    HW2 6353   1.800   2.043   6.768
 1585SOL     OW 6354   0.425   2.266   6.113
 1585SOL    HW1 6355   0.473   2.205   6.050
 1585SOL    HW2 6356   0.382   2.212   6.186
 1586SOL     OW 6357   1.579   3.405   6.680
 1586SOL    HW1 6358   1.534   3.375   6.596
 1586SOL    HW2 6359   1.585   3.330   6.745
 1587SOL     OW 6360   0.363   2.425   6.874
 1587SOL    HW1 6361   0.456   2.391   6.883
 1587SOL    HW2 6362   0.332   2.413   6.780
 1588SOL     OW 6363   0.813   3.425   6.248
 1588SOL    HW1 6364   0.799   3.471   6.161
 1588SOL    HW2 6365   0.738   3.360   6.264
 1589SOL     OW 6366   1.431   2.105   6.678
 1589SOL    HW1 6367   1.422   2.014   6.717
 1589SOL    HW2 6368   1.391   2.172   6.740
 1590SOL     OW 6369   1.055   1.874   6.647
 1590SOL    HW1 6370   1.010   1.806   6.589
 1590SOL    HW2 6371   1.132   1.831   6.695
 1591SOL     OW 6372   0.794   3.160   5.955
 1591SOL    HW1 6373   0.768   3.066   5.974
 1591SOL    HW2 6374   0.876   3.183   6.008
 1592SOL     OW 6375   0.632   3.388   6.889
 1592SOL    HW1 6376   0.631   3.482   6.922
 1592SOL    HW2 6377   0.715   3.373   6.835
 1593SOL     OW 6378   1.400   1.888   5.773
 1593SOL    HW1 6379   1.450   1.816   5.726
 1593SOL    HW2 6380   1.305   1.859   5.787
 1594SOL     OW 6381   1.314   2.339   6.239
 1594SOL    HW1 6382   1.256   2.419   6.226
 1594SOL    HW2 6383   1.307   2.308   6.334
 1595SOL     OW 6384   1.605   2.056   6.475
 1595SOL    HW1 6385   1.541   2.079   6.549
 1595SOL    HW2 6386   1.605   2.130   6.408
 1596SOL     OW 6387   0.046   2.924   5.863
 1596SOL    HW1 6388   0.138   2.884   5.863
 1596SOL    HW2 6389   6.978   2.851   5.870
 1597SOL     OW 6390   0.907   3.536   5.955
 1597SOL    HW1 6391   0.843   3.511   5.883
 1597SOL    HW2 6392   0.880   3.622   5.996
 1598SOL     OW 6393   0.234   4.364   0.150
 1598SOL    HW1 6394   0.202   4.327   0.237
 1598SOL    HW2 6395   0.187   4.318   0.075
 1599SOL     OW 6396   0.200   4.003   1.010
 1599SOL    HW1 6397   0.247   3.961   1.087
 1599SOL    HW2 6398   0.103   3.980   1.013
 1600SOL     OW 6399   0.035   4.139   0.661
 1600SOL    HW1 6400   6.962   4.114   0.724
 1600SOL    HW2 6401   0.020   4.096   0.572
 1601SOL     OW 6402   0.579   5.039   1.241
 1601SOL    HW1 6403   0.493   5.036   1.190
 1601SOL    HW2 6404   0.604   5.134   1.259
 1602SOL     OW 6405   1.612   5.259   0.711
 1602SOL    HW1 6406   1.555   5.239   0.790
 1602SOL    HW2 6407   1.553   5.280   0.633
 1603SOL     OW 6408   1.140   4.445   0.682
 1603SOL    HW1 6409   1.192   4.530   0.671
 1603SOL    HW2 6410   1.090   4.447   0.769
 1604SOL     OW 6411   1.787   4.277   0.110
 1604SOL    HW1 6412   1.762   4.373   0.099
 1604SOL    HW2 6413   1.731   4.236   0.182
 1605SOL     OW 6414   0.721   4.835   1.104
 1605SOL    HW1 6415   0.656   4.881   1.164
 1605SOL    HW2 6416   0.767   4.903   1.047
 1606SOL     OW 6417   0.910   4.448   1.785
 1606SOL    HW1 6418   0.936   4.512   1.856
 1606SOL    HW2 6419   0.915   4.494   1.696
 1607SOL     OW 6420   0.719   4.690   0.661
 1607SOL    HW1 6421   0.787   4.692   0.734
 1607SOL    HW2 6422   0.640   4.744   0.686
 1608SOL     OW 6423   0.709   4.882   1.853
 1608SOL    HW1 6424   0.770   4.950   1.895
 1608SOL    HW2 6425   0.632   4.929   1.811
 1609SOL     OW 6426   0.349   5.107   1.097
 1609SOL    HW1 6427   0.266   5.064   1.062
 1609SOL    HW2 6428   0.393   5.160   1.024
 1610SOL     OW 6429   1.434   5.230   1.394
 1610SOL    HW1 6430   1.493   5.310   1.406
 1610SOL    HW2 6431   1.355   5.237   1.455
 1611SOL     OW 6432   0.480   4.068   1.438
 1611SOL    HW1 6433   0.561   4.011   1.455
 1611SOL    HW2 6434   0.399   4.022   1.473
 1612SOL     OW 6435   1.584   4.168   0.739
 1612SOL    HW1 6436   1.509   4.172   0.674
 1612SOL    HW2 6437   1.572   4.239   0.809
 1613SOL     OW 6438   0.258   5.426   0.486
 1613SOL    HW1 6439   0.272   5.504   0.547
 1613SOL    HW2 6440   0.324   5.431   0.411
 1614SOL     OW 6441   1.112   5.058   1.718
 1614SOL    HW1 6442   1.166   5.045   1.800
 1614SOL    HW2 6443   1.055   4.977   1.702
 1615SOL     OW 6444   0.332   5.159   0.506
 1615SOL    HW1 6445   0.299   5.253   0.502
 1615SOL    HW2 6446   0.294   5.113   0.586
 1616SOL     OW 6447   0.288   4.826   0.894
 1616SOL    HW1 6448   0.294   4.729   0.918
 1616SOL    HW2 6449   0.222   4.871   0.953
 1617SOL     OW 6450   0.575   5.552   1.413
 1617SOL    HW1 6451   0.490   5.536   1.463
 1617SOL    HW2 6452   0.625   5.628   1.455
 1618SOL     OW 6453   0.564   4.669   0.200
 1618SOL    HW1 6454   0.589   4.687   0.105
 1618SOL    HW2 6455   0.621   4.725   0.261
 1619SOL     OW 6456   1.587   3.863   1.475
 1619SOL    HW1 6457   1.651   3.933   1.441
 1619SOL    HW2 6458   1.547   3.894   1.562
 1620SOL     OW 6459   0.142   4.392   0.609
 1620SOL    HW1 6460   0.102   4.306   0.641
 1620SOL    HW2 6461   0.114   4.466   0.669
 1621SOL     OW 6462   1.898   5.451   0.302
 1621SOL    HW1 6463   1.966   5.417   0.366
 1621SOL    HW2 6464   1.901   5.551   0.299
 1622SOL     OW 6465   0.036   5.286   0.167
 1622SOL    HW1 6466   0.005   5.192   0.182
 1622SOL    HW2 6467   0.136   5.288   0.165
 1623SOL     OW 6468   1.712   4.660   0.676
 1623SOL    HW1 6469   1.805   4.627   0.664
 1623SOL    HW2 6470   1.683   4.712   0.596
 1624SOL     OW 6471   1.638   4.827   0.468
 1624SOL    HW1 6472   1.697   4.818   0.388
 1624SOL    HW2 6473   1.675   4.898   0.529
 1625SOL     OW 6474   0.231   4.442   1.576
 1625SOL    HW1 6475   0.330   4.447   1.571
 1625SOL    HW2 6476   0.195   4.528   1.612
 1626SOL     OW 6477   0.634   5.073   0.750
 1626SOL    HW1 6478   0.590   4.983   0.748
 1626SOL    HW2 6479   0.622   5.118   0.661
 1627SOL     OW 6480   1.236   4.932   1.431
 1627SOL    HW1 6481   1.253   4.862   1.362
 1627SOL    HW2 6482   1.309   4.928   1.500
 1628SOL     OW 6483   0.841   3.760   0.517
 1628SOL    HW1 6484   0.888   3.843   0.487
 1628SOL    HW2 6485   0.742   3.777   0.519
 1629SOL     OW 6486   0.197   4.645   1.284
 1629SOL    HW1 6487   0.288   4.605   1.273
 1629SOL    HW2 6488   0.132   4.597   1.224
 1630SOL     OW 6489   1.456   4.771   0.208
 1630SOL    HW1 6490   1.391   4.707   0.248
 1630SOL    HW2 6491   1.549   4.737   0.222
 1631SOL     OW 6492   1.205   5.541   1.638
 1631SOL    HW1 6493   1.195   5.607   1.563
 1631SOL    HW2 6494   1.205   5.448   1.601
 1632SOL     OW 6495   0.338   3.992   1.892
 1632SOL    HW1 6496   0.364   4.069   1.950
 1632SOL    HW2 6497   0.239   3.994   1.876
 1633SOL     OW 6498   1.447   5.175   0.913
 1633SOL    HW1 6499   1.396   5.187   0.999
 1633SOL    HW2 6500   1.450   5.078   0.889
 1634SOL     OW 6501   1.653   5.586   0.544
 1634SOL    HW1 6502   1.642   5.527   0.464
 1634SOL    HW2 6503   1.672   5.530   0.625
 1635SOL     OW 6504   0.596   4.419   0.301
 1635SOL    HW1 6505   0.593   4.513   0.266
 1635SOL    HW2 6506   0.534   4.410   0.378
 1636SOL     OW 6507   1.285   4.123   0.940
 1636SOL    HW1 6508   1.193   4.083   0.938
 1636SOL    HW2 6509   1.343   4.070   1.002
 1637SOL     OW 6510   1.616   5.426   0.324
 1637SOL    HW1 6511   1.715   5.416   0.312
 1637SOL    HW2 6512   1.571   5.422   0.234
 1638SOL     OW 6513   0.798   4.288   1.433
 1638SOL    HW1 6514   0.763   4.267   1.525
 1638SOL    HW2 6515   0.772   4.215   1.370
 1639SOL     OW 6516   1.378   4.202   1.665
 1639SOL    HW1 6517   1.380   4.251   1.753
 1639SOL    HW2 6518   1.431   4.118   1.673
 1640SOL     OW 6519   0.941   4.612   1.555
 1640SOL    HW1 6520   0.995   4.543   1.506
 1640SOL    HW2 6521   0.892   4.669   1.490
 1641SOL     OW 6522   1.009   4.087   1.197
 1641SOL    HW1 6523   0.913   4.095   1.221
 1641SOL    HW2 6524   1.017   4.047   1.105
 1642SOL     OW 6525   1.066   4.430   0.417
 1642SOL    HW1 6526   1.089   4.434   0.514
 1642SOL    HW2 6527   0.980   4.380   0.405
 1643SOL     OW 6528   0.078   4.575   0.810
 1643SOL    HW1 6529   0.171   4.573   0.846
 1643SOL    HW2 6530   0.013   4.578   0.885
 1644SOL     OW 6531   0.099   5.624   1.631
 1644SOL    HW1 6532   0.118   5.593   1.724
 1644SOL    HW2 6533   0.001   5.616   1.613
 1645SOL     OW 6534   0.904   4.062   0.191
 1645SOL    HW1 6535   0.939   4.133   0.129
 1645SOL    HW2 6536   0.942   3.973   0.165
 1646SOL     OW 6537   1.665   4.307   1.859
 1646SOL    HW1 6538   1.646   4.389   1.804
 1646SOL    HW2 6539   1.693   4.233   1.798
 1647SOL     OW 6540   1.383   4.891   0.551
 1647SOL    HW1 6541   1.471   4.868   0.508
 1647SOL    HW2 6542   1.341   4.966   0.500
 1648SOL     OW 6543   0.570   3.824   0.928
 1648SOL    HW1 6544   0.570   3.852   1.024
 1648SOL    HW2 6545   0.581   3.904   0.870
 1649SOL     OW 6546   1.015   5.176   0.477
 1649SOL    HW1 6547   0.979   5.251   0.421
 1649SOL    HW2 6548   0.982   5.187   0.571
 1650SOL     OW 6549   0.374   5.501   0.875
 1650SOL    HW1 6550   0.407   5.407   0.883
 1650SOL    HW2 6551   0.444   5.565   0.908
 1651SOL     OW 6552   1.796   4.769   0.916
 1651SOL    HW1 6553   1.753   4.744   0.829
 1651SOL    HW2 6554   1.726   4.780   0.986
 1652SOL     OW 6555   1.191   5.255   1.531
 1652SOL    HW1 6556   1.179   5.185   1.602
 1652SOL    HW2 6557   1.129   5.235   1.454
 1653SOL     OW 6558   0.294   4.633   0.215
 1653SOL    HW1 6559   0.393   4.645   0.209
 1653SOL    HW2 6560   0.270   4.540   0.189
 1654SOL     OW 6561   1.497   4.495   0.703
 1654SOL    HW1 6562   1.489   4.446   0.790
 1654SOL    HW2 6563   1.579   4.553   0.706
 1655SOL     OW 6564   0.480   5.022   1.757
 1655SOL    HW1 6565   0.461   5.007   1.659
 1655SOL    HW2 6566   0.393   5.031   1.806
 1656SOL     OW 6567   1.103   5.498   0.228
 1656SOL    HW1 6568   1.029   5.457   0.281
 1656SOL    HW2 6569   1.142   5.429   0.166
 1657SOL     OW 6570   0.215   3.979   1.488
 1657SOL    HW1 6571   0.155   4.058   1.482
 1657SOL    HW2 6572   0.172   3.908   1.545
 1658SOL     OW 6573   1.641   5.179   0.079
 1658SOL    HW1 6574   1.597   5.268   0.066
 1658SOL    HW2 6575   1.592   5.127   0.149
 1659SOL     OW 6576   0.470   5.451   0.313
 1659SOL    HW1 6577   0.506   5.523   0.373
 1659SOL    HW2 6578   0.546   5.398   0.275
 1660SOL     OW 6579   1.402   3.841   0.489
 1660SOL    HW1 6580   1.388   3.804   0.397
 1660SOL    HW2 6581   1.497   3.824   0.517
 1661SOL     OW 6582   0.241   5.485   1.218
 1661SOL    HW1 6583   0.279   5.403   1.260
 1661SOL    HW2 6584   0.190   5.460   1.136
 1662SOL     OW 6585   0.961   5.399   0.883
 1662SOL    HW1 6586   1.055   5.365   0.892
 1662SOL    HW2 6587   0.913   5.347   0.813
 1663SOL     OW 6588   0.408   4.386   0.503
 1663SOL    HW1 6589   0.409   4.286   0.501
 1663SOL    HW2 6590   0.320   4.418   0.540
 1664SOL     OW 6591   1.485   3.950   1.722
 1664SOL    HW1 6592   1.501   3.968   1.819
 1664SOL    HW2 6593   1.410   3.884   1.712
 1665SOL     OW 6594   0.776   3.995   1.743
 1665SOL    HW1 6595   0.861   3.942   1.744
 1665SOL    HW2 6596   0.714   3.960   1.813
 1666SOL     OW 6597   0.856   5.233   1.184
 1666SOL    HW1 6598   0.835   5.176   1.105
 1666SOL    HW2 6599   0.922   5.185   1.243
 1667SOL     OW 6600   1.301   4.312   1.427
 1667SOL    HW1 6601   1.336   4.281   1.516
 1667SOL    HW2 6602   1.333   4.405   1.410
 1668SOL     OW 6603   0.812   5.056   0.966
 1668SOL    HW1 6604   0.903   5.068   0.927
 1668SOL    HW2 6605   0.743   5.062   0.894
 1669SOL     OW 6606   0.908   4.209   0.886
 1669SOL    HW1 6607   0.886   4.203   0.789
 1669SOL    HW2 6608   0.947   4.122   0.917
 1670SOL     OW 6609   0.569   3.802   0.501
 1670SOL    HW1 6610   0.488   3.798   0.559
 1670SOL    HW2 6611   0.553   3.868   0.427
 1671SOL     OW 6612   1.349   4.900   6.991
 1671SOL    HW1 6613   1.391   4.842   0.061
 1671SOL    HW2 6614   1.285   4.963   0.034
 1672SOL     OW 6615   0.975   3.987   0.446
 1672SOL    HW1 6616   0.945   4.017   0.356
 1672SOL    HW2 6617   1.073   4.006   0.457
 1673SOL     OW 6618   1.044   4.410   1.406
 1673SOL    HW1 6619   0.970   4.345   1.420
 1673SOL    HW2 6620   1.132   4.363   1.411
 1674SOL     OW 6621   1.218   5.300   0.800
 1674SOL    HW1 6622   1.234   5.376   0.738
 1674SOL    HW2 6623   1.306   5.267   0.836
 1675SOL     OW 6624   0.498   4.839   0.719
 1675SOL    HW1 6625   0.426   4.833   0.789
 1675SOL    HW2 6626   0.460   4.813   0.630
 1676SOL     OW 6627   1.254   5.522   0.632
 1676SOL    HW1 6628   1.307   5.595   0.590
 1676SOL    HW2 6629   1.167   5.558   0.665
 1677SOL     OW 6630   1.004   4.263   0.033
 1677SOL    HW1 6631   0.928   4.325   0.050
 1677SOL    HW2 6632   1.076   4.279   0.101
 1678SOL     OW 6633   0.105   4.266   1.386
 1678SOL    HW1 6634   0.195   4.249   1.344
 1678SOL    HW2 6635   0.114   4.330   1.461
 1679SOL     OW 6636   0.564   3.890   1.191
 1679SOL    HW1 6637   0.595   3.815   1.250
 1679SOL    HW2 6638   0.466   3.906   1.206
 1680SOL     OW 6639   0.868   4.171   0.623
 1680SOL    HW1 6640   0.834   4.238   0.558
 1680SOL    HW2 6641   0.908   4.094   0.573
 1681SOL     OW 6642   1.010   3.772   0.738
 1681SOL    HW1 6643   0.948   3.770   0.659
 1681SOL    HW2 6644   0.987   3.697   0.800
 1682SOL     OW 6645   1.491   4.917   0.833
 1682SOL    HW1 6646   1.419   4.879   0.774
 1682SOL    HW2 6647   1.573   4.935   0.778
 1683SOL     OW 6648   1.468   4.348   0.939
 1683SOL    HW1 6649   1.400   4.275   0.952
 1683SOL    HW2 6650   1.533   4.348   1.014
 1684SOL     OW 6651   1.828   4.537   0.382
 1684SOL    HW1 6652   1.889   4.476   0.433
 1684SOL    HW2 6653   1.833   4.514   0.285
 1685SOL     OW 6654   0.520   5.097   0.139
 1685SOL    HW1 6655   0.471   5.029   0.194
 1685SOL    HW2 6656   0.520   5.068   0.043
 1686SOL     OW 6657   1.704   5.001   0.673
 1686SOL    HW1 6658   1.803   4.991   0.682
 1686SOL    HW2 6659   1.680   5.098   0.674
 1687SOL     OW 6660   1.360   4.255   0.034
 1687SOL    HW1 6661   1.311   4.236   0.119
 1687SOL    HW2 6662   1.443   4.199   0.029
 1688SOL     OW 6663   0.495   3.961   0.289
 1688SOL    HW1 6664   0.474   3.891   0.221
 1688SOL    HW2 6665   0.491   4.051   0.246
 1689SOL     OW 6666   1.732   4.933   1.518
 1689SOL    HW1 6667   1.822   4.899   1.490
 1689SOL    HW2 6668   1.744   5.020   1.568
 1690SOL     OW 6669   1.017   5.078   1.357
 1690SOL    HW1 6670   0.931   5.052   1.402
 1690SOL    HW2 6671   1.092   5.025   1.395
 1691SOL     OW 6672   1.617   5.353   1.680
 1691SOL    HW1 6673   1.607   5.396   1.590
 1691SOL    HW2 6674   1.690   5.284   1.676
 1692SOL     OW 6675   1.145   4.994   1.122
 1692SOL    HW1 6676   1.082   5.020   1.196
 1692SOL    HW2 6677   1.106   5.021   1.034
 1693SOL     OW 6678   1.586   4.821   1.086
 1693SOL    HW1 6679   1.573   4.887   1.160
 1693SOL    HW2 6680   1.532   4.850   1.006
 1694SOL     OW 6681   0.942   3.783   1.381
 1694SOL    HW1 6682   0.958   3.765   1.284
 1694SOL    HW2 6683   1.023   3.824   1.422
 1695SOL     OW 6684   0.955   4.828   1.724
 1695SOL    HW1 6685   0.861   4.843   1.756
 1695SOL    HW2 6686   0.956   4.752   1.659
 1696SOL     OW 6687   0.741   4.773   0.393
 1696SOL    HW1 6688   0.729   4.742   0.488
 1696SOL    HW2 6689   0.810   4.717   0.348
 1697SOL     OW 6690   0.436   4.508   1.262
 1697SOL    HW1 6691   0.514   4.520   1.324
 1697SOL    HW2 6692   0.400   4.415   1.270
 1698SOL     OW 6693   1.259   4.076   1.298
 1698SOL    HW1 6694   1.282   4.163   1.342
 1698SOL    HW2 6695   1.166   4.081   1.261
 1699SOL     OW 6696   0.086   5.243   1.413
 1699SOL    HW1 6697   0.048   5.297   1.488
 1699SOL    HW2 6698   0.184   5.262   1.405
 1700SOL     OW 6699   0.397   4.766   0.479
 1700SOL    HW1 6700   0.388   4.841   0.414
 1700SOL    HW2 6701   0.366   4.681   0.437
 1701SOL     OW 6702   0.510   4.264   0.875
 1701SOL    HW1 6703   0.541   4.319   0.797
 1701SOL    HW2 6704   0.580   4.267   0.947
 1702SOL     OW 6705   1.277   5.117   0.413
 1702SOL    HW1 6706   1.331   5.191   0.453
 1702SOL    HW2 6707   1.181   5.128   0.439
 1703SOL     OW 6708   1.320   5.204   1.148
 1703SOL    HW1 6709   1.362   5.212   1.238
 1703SOL    HW2 6710   1.259   5.124   1.148
 1704SOL     OW 6711   1.607   4.376   0.468
 1704SOL    HW1 6712   1.551   4.411   0.543
 1704SOL    HW2 6713   1.673   4.446   0.440
 1705SOL     OW 6714   0.352   5.246   1.330
 1705SOL    HW1 6715   0.341   5.193   1.246
 1705SOL    HW2 6716   0.448   5.275   1.338
 1706SOL     OW 6717   0.509   4.440   1.628
 1706SOL    HW1 6718   0.555   4.484   1.551
 1706SOL    HW2 6719   0.566   4.366   1.663
 1707SOL     OW 6720   1.611   4.531   1.713
 1707SOL    HW1 6721   1.515   4.559   1.707
 1707SOL    HW2 6722   1.660   4.562   1.632
 1708SOL     OW 6723   0.997   3.838   1.758
 1708SOL    HW1 6724   1.060   3.915   1.749
 1708SOL    HW2 6725   1.043   3.754   1.730
 1709SOL     OW 6726   0.492   3.797   1.776
 1709SOL    HW1 6727   0.447   3.752   1.699
 1709SOL    HW2 6728   0.435   3.872   1.809
 1710SOL     OW 6729   0.593   4.581   1.048
 1710SOL    HW1 6730   0.634   4.671   1.061
 1710SOL    HW2 6731   0.532   4.561   1.125
 1711SOL     OW 6732   1.277   4.553   1.020
 1711SOL    HW1 6733   1.189   4.518   0.986
 1711SOL    HW2 6734   1.351   4.493   0.989
 1712SOL     OW 6735   1.188   4.241   0.254
 1712SOL    HW1 6736   1.214   4.164   0.313
 1712SOL    HW2 6737   1.154   4.317   0.311
 1713SOL     OW 6738   0.294   3.886   1.238
 1713SOL    HW1 6739   0.263   3.919   1.327
 1713SOL    HW2 6740   0.276   3.788   1.231
 1714SOL     OW 6741   0.080   5.001   1.294
 1714SOL    HW1 6742   0.101   4.928   1.359
 1714SOL    HW2 6743   0.079   5.089   1.342
 1715SOL     OW 6744   0.712   4.324   1.052
 1715SOL    HW1 6745   0.783   4.299   0.986
 1715SOL    HW2 6746   0.681   4.417   1.034
 1716SOL     OW 6747   1.759   4.713   1.864
 1716SOL    HW1 6748   1.709   4.641   1.815
 1716SOL    HW2 6749   1.704   4.745   1.941
 1717SOL     OW 6750   0.329   3.775   0.635
 1717SOL    HW1 6751   0.298   3.864   0.667
 1717SOL    HW2 6752   0.338   3.713   0.713
 1718SOL     OW 6753   1.635   4.155   0.306
 1718SOL    HW1 6754   1.690   4.089   0.356
 1718SOL    HW2 6755   1.613   4.232   0.366
 1719SOL     OW 6756   1.024   4.451   0.938
 1719SOL    HW1 6757   0.995   4.474   1.031
 1719SOL    HW2 6758   0.990   4.359   0.914
 1720SOL     OW 6759   0.977   5.290   1.783
 1720SOL    HW1 6760   0.941   5.348   1.710
 1720SOL    HW2 6761   1.010   5.204   1.745
 1721SOL     OW 6762   1.825   5.170   1.627
 1721SOL    HW1 6763   1.866   5.213   1.547
 1721SOL    HW2 6764   1.897   5.140   1.690
 1722SOL     OW 6765   0.411   4.613   1.821
 1722SOL    HW1 6766   0.481   4.641   1.887
 1722SOL    HW2 6767   0.450   4.550   1.754
 1723SOL     OW 6768   1.446   4.000   0.162
 1723SOL    HW1 6769   1.428   3.912   0.205
 1723SOL    HW2 6770   1.511   4.051   0.217
 1724SOL     OW 6771   1.258   4.506   0.031
 1724SOL    HW1 6772   1.299   4.415   0.027
 1724SOL    HW2 6773   1.285   4.559   6.951
 1725SOL     OW 6774   1.064   5.082   0.873
 1725SOL    HW1 6775   1.082   4.997   0.823
 1725SOL    HW2 6776   1.119   5.156   0.834
 1726SOL     OW 6777   0.327   4.549   0.935
 1726SOL    HW1 6778   0.425   4.562   0.946
 1726SOL    HW2 6779   0.302   4.456   0.960
 1727SOL     OW 6780   0.271   4.269   0.996
 1727SOL    HW1 6781   0.230   4.177   0.996
 1727SOL    HW2 6782   0.355   4.267   0.942
 1728SOL     OW 6783   1.142   4.065   1.701
 1728SOL    HW1 6784   1.087   4.115   1.768
 1728SOL    HW2 6785   1.224   4.118   1.680
 1729SOL     OW 6786   1.172   3.892   1.487
 1729SOL    HW1 6787   1.154   3.954   1.564
 1729SOL    HW2 6788   1.216   3.943   1.413
 1730SOL     OW 6789   6.955   5.023   0.207
 1730SOL    HW1 6790   6.912   5.054   0.292
 1730SOL    HW2 6791   0.003   4.937   0.225
 1731SOL     OW 6792   0.121   5.436   0.968
 1731SOL    HW1 6793   0.091   5.362   0.907
 1731SOL    HW2 6794   0.206   5.475   0.934
 1732SOL     OW 6795   0.494   5.252   0.912
 1732SOL    HW1 6796   0.567   5.313   0.942
 1732SOL    HW2 6797   0.530   5.183   0.850
 1733SOL     OW 6798   0.916   4.496   1.179
 1733SOL    HW1 6799   0.972   4.481   1.260
 1733SOL    HW2 6800   0.835   4.438   1.182
 1734SOL     OW 6801   0.070   4.406   1.143
 1734SOL    HW1 6802   0.138   4.361   1.085
 1734SOL    HW2 6803   0.069   4.364   1.233
 1735SOL     OW 6804   0.248   4.265   1.780
 1735SOL    HW1 6805   0.317   4.194   1.767
 1735SOL    HW2 6806   0.249   4.327   1.701
 1736SOL     OW 6807   1.369   4.645   1.643
 1736SOL    HW1 6808   1.391   4.742   1.640
 1736SOL    HW2 6809   1.359   4.611   1.549
 1737SOL     OW 6810   0.835   4.291   0.365
 1737SOL    HW1 6811   0.840   4.210   0.306
 1737SOL    HW2 6812   0.751   4.342   0.345
 1738SOL     OW 6813   1.657   4.345   1.140
 1738SOL    HW1 6814   1.640   4.269   1.203
 1738SOL    HW2 6815   1.755   4.364   1.136
 1739SOL     OW 6816   0.271   5.315   1.730
 1739SOL    HW1 6817   0.216   5.379   1.785
 1739SOL    HW2 6818   0.269   5.224   1.773
 1740SOL     OW 6819   0.737   4.113   1.229
 1740SOL    HW1 6820   0.673   4.037   1.221
 1740SOL    HW2 6821   0.713   4.184   1.164
 1741SOL     OW 6822   0.861   5.436   1.561
 1741SOL    HW1 6823   0.814   5.367   1.505
 1741SOL    HW2 6824   0.893   5.510   1.502
 1742SOL     OW 6825   0.471   4.209   0.179
 1742SOL    HW1 6826   0.527   4.279   0.223
 1742SOL    HW2 6827   0.385   4.249   0.147
 1743SOL     OW 6828   0.159   4.819   1.487
 1743SOL    HW1 6829   0.168   4.768   1.572
 1743SOL    HW2 6830   0.171   4.758   1.409
 1744SOL     OW 6831   1.254   4.754   1.208
 1744SOL    HW1 6832   1.264   4.684   1.136
 1744SOL    HW2 6833   1.216   4.837   1.168
 1745SOL     OW 6834   1.273   4.588   0.291
 1745SOL    HW1 6835   1.210   4.539   0.351
 1745SOL    HW2 6836   1.269   4.550   0.199
 1746SOL     OW 6837   1.760   5.422   1.180
 1746SOL    HW1 6838   1.833   5.448   1.116
 1746SOL    HW2 6839   1.722   5.333   1.152
 1747SOL     OW 6840   1.277   5.479   1.114
 1747SOL    HW1 6841   1.368   5.519   1.104
 1747SOL    HW2 6842   1.285   5.380   1.125
 1748SOL     OW 6843   0.108   4.981   1.029
 1748SOL    HW1 6844   0.095   4.980   1.128
 1748SOL    HW2 6845   0.022   5.007   0.984
 1749SOL     OW 6846   0.683   5.456   1.771
 1749SOL    HW1 6847   0.612   5.525   1.760
 1749SOL    HW2 6848   0.752   5.467   1.700
 1750SOL     OW 6849   1.013   3.829   0.096
 1750SOL    HW1 6850   1.091   3.872   0.050
 1750SOL    HW2 6851   1.043   3.746   0.141
 1751SOL     OW 6852   1.791   3.964   0.429
 1751SOL    HW1 6853   1.853   3.928   0.359
 1751SOL    HW2 6854   1.742   3.888   0.472
 1752SOL     OW 6855   1.428   5.329   0.512
 1752SOL    HW1 6856   1.484   5.368   0.439
 1752SOL    HW2 6857   1.364   5.399   0.544
 1753SOL     OW 6858   0.124   5.505   1.883
 1753SOL    HW1 6859   0.080   5.422   1.917
 1753SOL    HW2 6860   0.175   5.549   1.957
 1754SOL     OW 6861   1.290   4.668   0.666
 1754SOL    HW1 6862   1.367   4.607   0.677
 1754SOL    HW2 6863   1.317   4.747   0.611
 1755SOL     OW 6864   0.762   5.020   1.453
 1755SOL    HW1 6865   0.740   5.079   1.531
 1755SOL    HW2 6866   0.688   5.023   1.386
 1756SOL     OW 6867   0.678   5.320   0.182
 1756SOL    HW1 6868   0.653   5.376   0.103
 1756SOL    HW2 6869   0.634   5.230   0.173
 1757SOL     OW 6870   1.602   5.453   1.415
 1757SOL    HW1 6871   1.662   5.445   1.335
 1757SOL    HW2 6872   1.580   5.549   1.431
 1758SOL     OW 6873   1.842   3.867   0.988
 1758SOL    HW1 6874   1.874   3.778   0.956
 1758SOL    HW2 6875   1.755   3.889   0.944
 1759SOL     OW 6876   0.265   4.016   0.738
 1759SOL    HW1 6877   0.185   4.068   0.707
 1759SOL    HW2 6878   0.263   4.007   0.837
 1760SOL     OW 6879   1.232   5.319   0.058
 1760SOL    HW1 6880   1.218   5.222   0.080
 1760SOL    HW2 6881   1.163   5.349   6.993
 1761SOL     OW 6882   0.801   4.758   1.373
 1761SOL    HW1 6883   0.802   4.765   1.274
 1761SOL    HW2 6884   0.789   4.849   1.413
 1762SOL     OW 6885   0.921   4.620   0.268
 1762SOL    HW1 6886   0.969   4.650   0.186
 1762SOL    HW2 6887   0.981   4.559   0.321
 1763SOL     OW 6888   1.483   5.418   0.070
 1763SOL    HW1 6889   1.393   5.376   0.067
 1763SOL    HW2 6890   1.504   5.461   6.982
 1764SOL     OW 6891   0.376   5.010   1.507
 1764SOL    HW1 6892   0.366   5.088   1.446
 1764SOL    HW2 6893   0.303   4.944   1.488
 1765SOL     OW 6894   1.574   5.009   1.296
 1765SOL    HW1 6895   1.636   4.975   1.367
 1765SOL    HW2 6896   1.514   5.079   1.335
 1766SOL     OW 6897   1.093   4.837   0.768
 1766SOL    HW1 6898   1.015   4.785   0.804
 1766SOL    HW2 6899   1.161   4.774   0.732
 1767SOL     OW 6900   1.039   3.958   0.950
 1767SOL    HW1 6901   1.034   3.918   0.858
 1767SOL    HW2 6902   1.039   3.885   1.018
 1768SOL     OW 6903   0.611   5.190   0.506
 1768SOL    HW1 6904   0.661   5.141   0.436
 1768SOL    HW2 6905   0.513   5.182   0.489
 1769SOL     OW 6906   1.789   4.055   1.422
 1769SOL    HW1 6907   1.854   4.131   1.411
 1769SOL    HW2 6908   1.818   3.978   1.364
 1770SOL     OW 6909   0.332   4.972   0.305
 1770SOL    HW1 6910   0.240   4.937   0.288
 1770SOL    HW2 6911   0.328   5.045   0.373
 1771SOL     OW 6912   0.164   4.675   1.721
 1771SOL    HW1 6913   0.102   4.723   1.782
 1771SOL    HW2 6914   0.252   4.660   1.767
 1772SOL     OW 6915   0.712   3.907   1.490
 1772SOL    HW1 6916   0.797   3.876   1.446
 1772SOL    HW2 6917   0.734   3.945   1.580
 1773SOL     OW 6918   0.127   4.174   6.968
 1773SOL    HW1 6919   0.047   4.171   6.908
 1773SOL    HW2 6920   0.207   4.202   6.915
 1774SOL     OW 6921   1.375   4.573   1.378
 1774SOL    HW1 6922   1.313   4.631   1.326
 1774SOL    HW2 6923   1.466   4.578   1.339
 1775SOL     OW 6924   6.996   4.018   0.414
 1775SOL    HW1 6925   0.046   4.096   0.377
 1775SOL    HW2 6926   0.012   3.937   0.357
 1776SOL     OW 6927   1.181   5.060   0.139
 1776SOL    HW1 6928   1.083   5.077   0.133
 1776SOL    HW2 6929   1.209   5.063   0.235
 1777SOL     OW 6930   0.657   4.526   1.415
 1777SOL    HW1 6931   0.710   4.611   1.404
 1777SOL    HW2 6932   0.720   4.448   1.418
 1778SOL     OW 6933   1.535   5.582   1.081
 1778SOL    HW1 6934   1.568   5.626   0.997
 1778SOL    HW2 6935   1.611   5.533   1.124
 1779SOL     OW 6936   0.717   4.263   1.697
 1779SOL    HW1 6937   0.783   4.324   1.742
 1779SOL    HW2 6938   0.739   4.168   1.719
 1780SOL     OW 6939   1.453   4.906   1.621
 1780SOL    HW1 6940   1.446   4.937   1.716
 1780SOL    HW2 6941   1.546   4.921   1.589
 1781SOL     OW 6942   0.355   5.522   1.576
 1781SOL    HW1 6943   0.267   5.567   1.565
 1781SOL    HW2 6944   0.342   5.433   1.620
 1782SOL     OW 6945   1.615   4.600   1.250
 1782SOL    HW1 6946   1.629   4.514   1.200
 1782SOL    HW2 6947   1.605   4.675   1.185
 1783SOL     OW 6948   1.239   4.059   0.463
 1783SOL    HW1 6949   1.300   3.980   0.468
 1783SOL    HW2 6950   1.259   4.122   0.538
 1784SOL     OW 6951   0.607   4.435   0.685
 1784SOL    HW1 6952   0.654   4.523   0.674
 1784SOL    HW2 6953   0.535   4.427   0.615
 1785SOL     OW 6954   1.733   4.093   1.690
 1785SOL    HW1 6955   1.752   4.085   1.592
 1785SOL    HW2 6956   1.657   4.033   1.714
 1786SOL     OW 6957   1.723   4.647   1.497
 1786SOL    HW1 6958   1.715   4.745   1.515
 1786SOL    HW2 6959   1.688   4.628   1.405
 1787SOL     OW 6960   0.922   5.134   0.133
 1787SOL    HW1 6961   0.865   5.094   0.205
 1787SOL    HW2 6962   0.879   5.218   0.099
 1788SOL     OW 6963   0.690   5.430   0.959
 1788SOL    HW1 6964   0.662   5.526   0.949
 1788SOL    HW2 6965   0.789   5.423   0.947
 1789SOL     OW 6966   0.887   4.690   0.883
 1789SOL    HW1 6967   0.933   4.603   0.899
 1789SOL    HW2 6968   0.840   4.719   0.967
 1790SOL     OW 6969   1.058   4.691   0.041
 1790SOL    HW1 6970   1.098   4.782   0.027
 1790SOL    HW2 6971   1.130   4.622   0.036
 1791SOL     OW 6972   1.861   5.249   0.855
 1791SOL    HW1 6973   1.777   5.249   0.802
 1791SOL    HW2 6974   1.877   5.158   0.894
 1792SOL     OW 6975   0.241   5.073   1.877
 1792SOL    HW1 6976   0.142   5.067   1.861
 1792SOL    HW2 6977   0.259   5.076   1.975
 1793SOL     OW 6978   0.205   5.026   0.713
 1793SOL    HW1 6979   0.242   4.957   0.776
 1793SOL    HW2 6980   0.138   4.983   0.652
 1794SOL     OW 6981   0.680   5.189   1.658
 1794SOL    HW1 6982   0.602   5.137   1.693
 1794SOL    HW2 6983   0.682   5.279   1.701
 1795SOL     OW 6984   1.859   3.849   1.263
 1795SOL    HW1 6985   1.930   3.779   1.272
 1795SOL    HW2 6986   1.841   3.865   1.166
 1796SOL     OW 6987   0.375   4.115   0.495
 1796SOL    HW1 6988   0.421   4.049   0.436
 1796SOL    HW2 6989   0.358   4.074   0.584
 1797SOL     OW 6990   1.657   5.189   1.103
 1797SOL    HW1 6991   1.589   5.184   1.030
 1797SOL    HW2 6992   1.639   5.117   1.170
 1798SOL     OW 6993   0.354   4.247   1.277
 1798SOL    HW1 6994   0.410   4.183   1.330
 1798SOL    HW2 6995   0.355   4.221   1.181
 1799SOL     OW 6996   0.837   5.260   0.685
 1799SOL    HW1 6997   0.785   5.300   0.609
 1799SOL    HW2 6998   0.783   5.186   0.726
 1800SOL     OW 6999   1.433   3.974   1.115
 1800SOL    HW1 7000   1.455   3.878   1.131
 1800SOL    HW2 7001   1.378   4.009   1.191
 1801SOL     OW 7002   1.028   3.730   1.112
 1801SOL    HW1 7003   0.978   3.666   1.053
 1801SOL    HW2 7004   1.121   3.697   1.125
 1802SOL     OW 7005   0.793   5.039   0.358
 1802SOL    HW1 7006   0.771   4.942   0.369
 1802SOL    HW2 7007   0.877   5.060   0.409
 1803SOL     OW 7008   0.623   5.306   1.305
 1803SOL    HW1 7009   0.612   5.400   1.338
 1803SOL    HW2 7010   0.709   5.298   1.254
 1804SOL     OW 7011   1.362   3.743   0.241
 1804SOL    HW1 7012   1.417   3.678   0.190
 1804SOL    HW2 7013   1.266   3.714   0.240
 1805SOL     OW 7014   1.298   4.214   0.678
 1805SOL    HW1 7015   1.248   4.301   0.672
 1805SOL    HW2 7016   1.294   4.180   0.772
 1806SOL     OW 7017   1.596   3.933   0.894
 1806SOL    HW1 7018   1.538   3.961   0.970
 1806SOL    HW2 7019   1.596   4.004   0.824
 1807SOL     OW 7020   0.089   4.793   0.310
 1807SOL    HW1 7021   0.167   4.737   0.281
 1807SOL    HW2 7022   0.008   4.735   0.315
 1808SOL     OW 7023   0.887   5.390   0.358
 1808SOL    HW1 7024   0.808   5.365   0.301
 1808SOL    HW2 7025   0.863   5.467   0.416
 1809SOL     OW 7026   0.191   4.414   2.010
 1809SOL    HW1 7027   0.173   4.346   2.081
 1809SOL    HW2 7028   0.229   4.368   1.930
 1810SOL     OW 7029   0.197   3.969   2.868
 1810SOL    HW1 7030   0.248   3.933   2.945
 1810SOL    HW2 7031   0.100   3.949   2.880
 1811SOL     OW 7032   0.031   4.120   2.529
 1811SOL    HW1 7033   6.967   4.099   2.603
 1811SOL    HW2 7034   0.122   4.086   2.553
 1812SOL     OW 7035   0.578   5.037   3.090
 1812SOL    HW1 7036   0.490   5.033   3.044
 1812SOL    HW2 7037   0.603   5.133   3.107
 1813SOL     OW 7038   1.581   5.260   2.568
 1813SOL    HW1 7039   1.545   5.211   2.647
 1813SOL    HW2 7040   1.512   5.265   2.496
 1814SOL     OW 7041   1.127   4.431   2.510
 1814SOL    HW1 7042   1.174   4.515   2.485
 1814SOL    HW2 7043   1.084   4.443   2.600
 1815SOL     OW 7044   1.801   4.316   2.095
 1815SOL    HW1 7045   1.752   4.327   2.008
 1815SOL    HW2 7046   1.779   4.227   2.135
 1816SOL     OW 7047   0.733   4.843   2.960
 1816SOL    HW1 7048   0.664   4.889   3.016
 1816SOL    HW2 7049   0.778   4.909   2.900
 1817SOL     OW 7050   0.898   4.455   3.639
 1817SOL    HW1 7051   0.924   4.519   3.712
 1817SOL    HW2 7052   0.904   4.501   3.550
 1818SOL     OW 7053   0.680   4.685   2.526
 1818SOL    HW1 7054   0.755   4.696   2.592
 1818SOL    HW2 7055   0.611   4.755   2.543
 1819SOL     OW 7056   0.702   4.881   3.714
 1819SOL    HW1 7057   0.762   4.948   3.758
 1819SOL    HW2 7058   0.625   4.929   3.671
 1820SOL     OW 7059   0.343   5.105   2.956
 1820SOL    HW1 7060   0.257   5.066   2.922
 1820SOL    HW2 7061   0.386   5.158   2.882
 1821SOL     OW 7062   1.416   5.229   3.239
 1821SOL    HW1 7063   1.477   5.307   3.257
 1821SOL    HW2 7064   1.336   5.235   3.299
 1822SOL     OW 7065   0.469   4.062   3.304
 1822SOL    HW1 7066   0.550   4.005   3.317
 1822SOL    HW2 7067   0.388   4.013   3.337
 1823SOL     OW 7068   1.532   4.101   2.524
 1823SOL    HW1 7069   1.435   4.126   2.515
 1823SOL    HW2 7070   1.589   4.175   2.489
 1824SOL     OW 7071   0.261   5.458   2.345
 1824SOL    HW1 7072   0.279   5.534   2.408
 1824SOL    HW2 7073   0.322   5.464   2.267
 1825SOL     OW 7074   1.113   5.058   3.564
 1825SOL    HW1 7075   1.201   5.028   3.600
 1825SOL    HW2 7076   1.049   4.981   3.564
 1826SOL     OW 7077   0.342   5.197   2.387
 1826SOL    HW1 7078   0.307   5.291   2.388
 1826SOL    HW2 7079   0.292   5.143   2.455
 1827SOL     OW 7080   0.271   4.844   2.732
 1827SOL    HW1 7081   0.283   4.748   2.755
 1827SOL    HW2 7082   0.207   4.886   2.796
 1828SOL     OW 7083   0.573   5.546   3.273
 1828SOL    HW1 7084   0.489   5.531   3.324
 1828SOL    HW2 7085   0.624   5.623   3.313
 1829SOL     OW 7086   0.581   4.703   2.031
 1829SOL    HW1 7087   0.628   4.757   1.961
 1829SOL    HW2 7088   0.619   4.723   2.121
 1830SOL     OW 7089   1.596   3.823   3.415
 1830SOL    HW1 7090   1.648   3.897   3.372
 1830SOL    HW2 7091   1.539   3.860   3.488
 1831SOL     OW 7092   0.111   4.364   2.437
 1831SOL    HW1 7093   0.073   4.279   2.473
 1831SOL    HW2 7094   0.092   4.438   2.500
 1832SOL     OW 7095   1.843   5.375   2.258
 1832SOL    HW1 7096   1.800   5.430   2.330
 1832SOL    HW2 7097   1.926   5.332   2.294
 1833SOL     OW 7098   6.998   5.279   1.952
 1833SOL    HW1 7099   0.004   5.199   2.012
 1833SOL    HW2 7100   6.905   5.289   1.918
 1834SOL     OW 7101   1.701   4.655   2.512
 1834SOL    HW1 7102   1.753   4.594   2.452
 1834SOL    HW2 7103   1.677   4.739   2.463
 1835SOL     OW 7104   1.672   4.860   2.315
 1835SOL    HW1 7105   1.751   4.822   2.267
 1835SOL    HW2 7106   1.700   4.942   2.366
 1836SOL     OW 7107   0.222   4.450   3.446
 1836SOL    HW1 7108   0.322   4.453   3.437
 1836SOL    HW2 7109   0.190   4.537   3.484
 1837SOL     OW 7110   0.631   5.081   2.600
 1837SOL    HW1 7111   0.579   4.995   2.593
 1837SOL    HW2 7112   0.627   5.129   2.513
 1838SOL     OW 7113   1.229   4.936   3.285
 1838SOL    HW1 7114   1.252   4.867   3.216
 1838SOL    HW2 7115   1.297   4.934   3.358
 1839SOL     OW 7116   0.844   3.747   2.374
 1839SOL    HW1 7117   0.887   3.830   2.340
 1839SOL    HW2 7118   0.745   3.761   2.383
 1840SOL     OW 7119   0.200   4.637   3.143
 1840SOL    HW1 7120   0.291   4.601   3.124
 1840SOL    HW2 7121   0.132   4.584   3.091
 1841SOL     OW 7122   1.566   4.793   2.065
 1841SOL    HW1 7123   1.487   4.733   2.082
 1841SOL    HW2 7124   1.603   4.825   2.152
 1842SOL     OW 7125   1.174   5.523   3.491
 1842SOL    HW1 7126   1.178   5.593   3.420
 1842SOL    HW2 7127   1.177   5.432   3.449
 1843SOL     OW 7128   0.328   3.987   3.756
 1843SOL    HW1 7129   0.354   4.065   3.813
 1843SOL    HW2 7130   0.230   3.992   3.735
 1844SOL     OW 7131   1.485   5.117   2.784
 1844SOL    HW1 7132   1.419   5.152   2.850
 1844SOL    HW2 7133   1.460   5.024   2.758
 1845SOL     OW 7134   1.655   5.508   2.420
 1845SOL    HW1 7135   1.606   5.477   2.338
 1845SOL    HW2 7136   1.630   5.450   2.497
 1846SOL     OW 7137   0.547   4.423   2.135
 1846SOL    HW1 7138   0.564   4.513   2.095
 1846SOL    HW2 7139   0.485   4.432   2.213
 1847SOL     OW 7140   1.283   4.136   2.801
 1847SOL    HW1 7141   1.201   4.079   2.803
 1847SOL    HW2 7142   1.349   4.102   2.869
 1848SOL     OW 7143   1.571   5.386   2.185
 1848SOL    HW1 7144   1.667   5.358   2.187
 1848SOL    HW2 7145   1.539   5.389   2.090
 1849SOL     OW 7146   0.779   4.300   3.281
 1849SOL    HW1 7147   0.747   4.276   3.372
 1849SOL    HW2 7148   0.756   4.227   3.217
 1850SOL     OW 7149   1.365   4.229   3.559
 1850SOL    HW1 7150   1.368   4.277   3.647
 1850SOL    HW2 7151   1.420   4.145   3.565
 1851SOL     OW 7152   0.933   4.618   3.411
 1851SOL    HW1 7153   0.985   4.549   3.359
 1851SOL    HW2 7154   0.885   4.677   3.347
 1852SOL     OW 7155   1.006   4.090   3.052
 1852SOL    HW1 7156   0.909   4.099   3.075
 1852SOL    HW2 7157   1.015   4.052   2.960
 1853SOL     OW 7158   1.025   4.379   2.260
 1853SOL    HW1 7159   1.054   4.389   2.355
 1853SOL    HW2 7160   0.931   4.343   2.257
 1854SOL     OW 7161   0.074   4.548   2.653
 1854SOL    HW1 7162   0.165   4.557   2.692
 1854SOL    HW2 7163   0.005   4.551   2.726
 1855SOL     OW 7164   0.098   5.621   3.492
 1855SOL    HW1 7165   0.117   5.591   3.585
 1855SOL    HW2 7166   0.000   5.611   3.473
 1856SOL     OW 7167   0.847   4.070   2.061
 1856SOL    HW1 7168   0.904   4.114   1.992
 1856SOL    HW2 7169   0.794   3.996   2.018
 1857SOL     OW 7170   1.674   4.327   3.718
 1857SOL    HW1 7171   1.660   4.407   3.659
 1857SOL    HW2 7172   1.688   4.246   3.661
 1858SOL     OW 7173   1.405   4.895   2.424
 1858SOL    HW1 7174   1.493   4.888   2.378
 1858SOL    HW2 7175   1.346   4.958   2.374
 1859SOL     OW 7176   0.566   3.817   2.798
 1859SOL    HW1 7177   0.566   3.848   2.893
 1859SOL    HW2 7178   0.590   3.894   2.738
 1860SOL     OW 7179   0.987   5.179   2.340
 1860SOL    HW1 7180   0.968   5.256   2.280
 1860SOL    HW2 7181   0.955   5.199   2.432
 1861SOL     OW 7182   0.366   5.500   2.742
 1861SOL    HW1 7183   0.399   5.406   2.748
 1861SOL    HW2 7184   0.436   5.562   2.776
 1862SOL     OW 7185   1.778   4.687   2.778
 1862SOL    HW1 7186   1.739   4.675   2.687
 1862SOL    HW2 7187   1.713   4.738   2.835
 1863SOL     OW 7188   1.172   5.256   3.375
 1863SOL    HW1 7189   1.163   5.189   3.448
 1863SOL    HW2 7190   1.111   5.232   3.299
 1864SOL     OW 7191   0.284   4.660   2.104
 1864SOL    HW1 7192   0.372   4.682   2.060
 1864SOL    HW2 7193   0.253   4.570   2.075
 1865SOL     OW 7194   1.475   4.505   2.565
 1865SOL    HW1 7195   1.464   4.463   2.654
 1865SOL    HW2 7196   1.556   4.564   2.565
 1866SOL     OW 7197   0.475   5.021   3.616
 1866SOL    HW1 7198   0.458   5.005   3.518
 1866SOL    HW2 7199   0.388   5.030   3.664
 1867SOL     OW 7200   1.157   5.477   2.120
 1867SOL    HW1 7201   1.066   5.458   2.155
 1867SOL    HW2 7202   1.179   5.413   2.046
 1868SOL     OW 7203   0.207   3.963   3.354
 1868SOL    HW1 7204   0.146   4.042   3.351
 1868SOL    HW2 7205   0.165   3.890   3.409
 1869SOL     OW 7206   1.638   5.146   1.953
 1869SOL    HW1 7207   1.595   5.235   1.937
 1869SOL    HW2 7208   1.574   5.074   1.926
 1870SOL     OW 7209   0.477   5.497   2.170
 1870SOL    HW1 7210   0.523   5.545   2.245
 1870SOL    HW2 7211   0.545   5.445   2.118
 1871SOL     OW 7212   1.421   3.817   2.334
 1871SOL    HW1 7213   1.426   3.797   2.236
 1871SOL    HW2 7214   1.511   3.805   2.375
 1872SOL     OW 7215   0.236   5.478   3.085
 1872SOL    HW1 7216   0.276   5.396   3.125
 1872SOL    HW2 7217   0.184   5.454   3.003
 1873SOL     OW 7218   0.945   5.422   2.739
 1873SOL    HW1 7219   1.037   5.383   2.740
 1873SOL    HW2 7220   0.891   5.378   2.667
 1874SOL     OW 7221   0.374   4.395   2.349
 1874SOL    HW1 7222   0.403   4.300   2.360
 1874SOL    HW2 7223   0.276   4.403   2.369
 1875SOL     OW 7224   1.448   3.962   3.611
 1875SOL    HW1 7225   1.457   3.974   3.709
 1875SOL    HW2 7226   1.359   3.919   3.591
 1876SOL     OW 7227   0.683   3.851   1.969
 1876SOL    HW1 7228   0.750   3.777   1.975
 1876SOL    HW2 7229   0.608   3.823   1.909
 1877SOL     OW 7230   0.760   4.001   3.601
 1877SOL    HW1 7231   0.846   3.949   3.605
 1877SOL    HW2 7232   0.697   3.967   3.671
 1878SOL     OW 7233   0.852   5.230   3.029
 1878SOL    HW1 7234   0.835   5.172   2.949
 1878SOL    HW2 7235   0.914   5.183   3.091
 1879SOL     OW 7236   1.281   4.320   3.311
 1879SOL    HW1 7237   1.315   4.296   3.402
 1879SOL    HW2 7238   1.311   4.413   3.288
 1880SOL     OW 7239   0.819   5.054   2.808
 1880SOL    HW1 7240   0.910   5.068   2.767
 1880SOL    HW2 7241   0.750   5.058   2.736
 1881SOL     OW 7242   0.919   4.206   2.724
 1881SOL    HW1 7243   0.891   4.194   2.629
 1881SOL    HW2 7244   0.966   4.123   2.756
 1882SOL     OW 7245   0.574   3.791   2.374
 1882SOL    HW1 7246   0.494   3.790   2.434
 1882SOL    HW2 7247   0.564   3.866   2.309
 1883SOL     OW 7248   1.434   4.963   1.895
 1883SOL    HW1 7249   1.480   4.894   1.951
 1883SOL    HW2 7250   1.345   4.984   1.935
 1884SOL     OW 7251   0.285   3.789   2.073
 1884SOL    HW1 7252   0.315   3.862   2.011
 1884SOL    HW2 7253   0.364   3.735   2.102
 1885SOL     OW 7254   0.966   3.974   2.291
 1885SOL    HW1 7255   0.930   4.010   2.205
 1885SOL    HW2 7256   1.065   3.987   2.293
 1886SOL     OW 7257   1.026   4.419   3.250
 1886SOL    HW1 7258   0.948   4.358   3.261
 1886SOL    HW2 7259   1.110   4.369   3.269
 1887SOL     OW 7260   1.203   5.340   2.684
 1887SOL    HW1 7261   1.232   5.393   2.604
 1887SOL    HW2 7262   1.241   5.382   2.766
 1888SOL     OW 7263   0.476   4.863   2.552
 1888SOL    HW1 7264   0.404   4.854   2.621
 1888SOL    HW2 7265   0.436   4.857   2.461
 1889SOL     OW 7266   1.259   5.527   2.479
 1889SOL    HW1 7267   1.313   5.593   2.427
 1889SOL    HW2 7268   1.174   5.571   2.509
 1890SOL     OW 7269   1.016   4.211   1.894
 1890SOL    HW1 7270   0.986   4.300   1.859
 1890SOL    HW2 7271   1.085   4.226   1.965
 1891SOL     OW 7272   0.091   4.279   3.256
 1891SOL    HW1 7273   0.183   4.263   3.220
 1891SOL    HW2 7274   0.097   4.343   3.333
 1892SOL     OW 7275   0.562   3.887   3.059
 1892SOL    HW1 7276   0.596   3.813   3.118
 1892SOL    HW2 7277   0.464   3.900   3.075
 1893SOL     OW 7278   0.852   4.155   2.467
 1893SOL    HW1 7279   0.802   4.212   2.401
 1893SOL    HW2 7280   0.898   4.081   2.419
 1894SOL     OW 7281   1.021   3.773   2.589
 1894SOL    HW1 7282   0.959   3.768   2.511
 1894SOL    HW2 7283   0.995   3.703   2.656
 1895SOL     OW 7284   1.411   4.854   2.716
 1895SOL    HW1 7285   1.349   4.781   2.744
 1895SOL    HW2 7286   1.405   4.868   2.617
 1896SOL     OW 7287   1.426   4.387   2.809
 1896SOL    HW1 7288   1.371   4.304   2.801
 1896SOL    HW2 7289   1.495   4.374   2.881
 1897SOL     OW 7290   1.826   4.500   2.298
 1897SOL    HW1 7291   1.917   4.491   2.339
 1897SOL    HW2 7292   1.818   4.438   2.220
 1898SOL     OW 7293   0.529   5.148   2.013
 1898SOL    HW1 7294   0.451   5.120   2.067
 1898SOL    HW2 7295   0.525   5.104   1.923
 1899SOL     OW 7296   1.761   5.065   2.457
 1899SOL    HW1 7297   1.858   5.068   2.483
 1899SOL    HW2 7298   1.713   5.141   2.499
 1900SOL     OW 7299   1.382   4.304   1.918
 1900SOL    HW1 7300   1.329   4.266   1.994
 1900SOL    HW2 7301   1.480   4.290   1.935
 1901SOL     OW 7302   0.545   3.978   2.180
 1901SOL    HW1 7303   0.600   3.932   2.110
 1901SOL    HW2 7304   0.497   4.055   2.139
 1902SOL     OW 7305   1.714   4.996   3.375
 1902SOL    HW1 7306   1.807   4.967   3.356
 1902SOL    HW2 7307   1.715   5.082   3.425
 1903SOL     OW 7308   1.007   5.079   3.207
 1903SOL    HW1 7309   0.923   5.055   3.255
 1903SOL    HW2 7310   1.083   5.025   3.244
 1904SOL     OW 7311   1.600   5.382   3.547
 1904SOL    HW1 7312   1.574   5.407   3.453
 1904SOL    HW2 7313   1.682   5.324   3.544
 1905SOL     OW 7314   1.139   5.000   2.972
 1905SOL    HW1 7315   1.075   5.028   3.043
 1905SOL    HW2 7316   1.103   5.027   2.883
 1906SOL     OW 7317   1.586   4.814   2.934
 1906SOL    HW1 7318   1.576   4.883   3.006
 1906SOL    HW2 7319   1.519   4.832   2.862
 1907SOL     OW 7320   0.939   3.780   3.241
 1907SOL    HW1 7321   0.961   3.763   3.145
 1907SOL    HW2 7322   1.017   3.825   3.285
 1908SOL     OW 7323   0.947   4.836   3.581
 1908SOL    HW1 7324   0.854   4.849   3.615
 1908SOL    HW2 7325   0.949   4.759   3.517
 1909SOL     OW 7326   0.728   4.761   2.262
 1909SOL    HW1 7327   0.705   4.731   2.354
 1909SOL    HW2 7328   0.814   4.718   2.233
 1910SOL     OW 7329   0.440   4.505   3.092
 1910SOL    HW1 7330   0.507   4.529   3.163
 1910SOL    HW2 7331   0.400   4.416   3.112
 1911SOL     OW 7332   1.253   4.090   3.165
 1911SOL    HW1 7333   1.267   4.174   3.217
 1911SOL    HW2 7334   1.162   4.092   3.123
 1912SOL     OW 7335   0.084   5.236   3.276
 1912SOL    HW1 7336   0.043   5.288   3.351
 1912SOL    HW2 7337   0.182   5.257   3.271
 1913SOL     OW 7338   0.360   4.846   2.304
 1913SOL    HW1 7339   0.345   4.927   2.247
 1913SOL    HW2 7340   0.335   4.764   2.252
 1914SOL     OW 7341   0.460   4.255   2.721
 1914SOL    HW1 7342   0.467   4.332   2.658
 1914SOL    HW2 7343   0.543   4.251   2.777
 1915SOL     OW 7344   1.243   5.084   2.284
 1915SOL    HW1 7345   1.301   5.160   2.313
 1915SOL    HW2 7346   1.148   5.103   2.309
 1916SOL     OW 7347   1.323   5.201   2.988
 1916SOL    HW1 7348   1.359   5.211   3.081
 1916SOL    HW2 7349   1.259   5.125   2.985
 1917SOL     OW 7350   1.650   4.330   2.438
 1917SOL    HW1 7351   1.574   4.386   2.470
 1917SOL    HW2 7352   1.709   4.385   2.378
 1918SOL     OW 7353   0.352   5.240   3.191
 1918SOL    HW1 7354   0.338   5.187   3.107
 1918SOL    HW2 7355   0.447   5.270   3.196
 1919SOL     OW 7356   0.500   4.448   3.486
 1919SOL    HW1 7357   0.544   4.494   3.408
 1919SOL    HW2 7358   0.559   4.374   3.517
 1920SOL     OW 7359   1.629   4.566   3.575
 1920SOL    HW1 7360   1.529   4.574   3.578
 1920SOL    HW2 7361   1.663   4.611   3.492
 1921SOL     OW 7362   0.983   3.849   3.621
 1921SOL    HW1 7363   1.049   3.923   3.614
 1921SOL    HW2 7364   1.026   3.763   3.591
 1922SOL     OW 7365   0.483   3.793   3.639
 1922SOL    HW1 7366   0.435   3.745   3.566
 1922SOL    HW2 7367   0.425   3.868   3.673
 1923SOL     OW 7368   0.674   4.563   2.951
 1923SOL    HW1 7369   0.684   4.662   2.944
 1923SOL    HW2 7370   0.586   4.541   2.994
 1924SOL     OW 7371   1.272   4.617   2.820
 1924SOL    HW1 7372   1.180   4.585   2.795
 1924SOL    HW2 7373   1.335   4.540   2.820
 1925SOL     OW 7374   1.195   4.225   2.110
 1925SOL    HW1 7375   1.220   4.147   2.168
 1925SOL    HW2 7376   1.140   4.290   2.162
 1926SOL     OW 7377   0.293   3.873   3.104
 1926SOL    HW1 7378   0.259   3.906   3.192
 1926SOL    HW2 7379   0.273   3.776   3.095
 1927SOL     OW 7380   0.083   4.997   3.151
 1927SOL    HW1 7381   0.104   4.923   3.214
 1927SOL    HW2 7382   0.080   5.084   3.201
 1928SOL     OW 7383   0.694   4.288   2.866
 1928SOL    HW1 7384   0.776   4.264   2.814
 1928SOL    HW2 7385   0.696   4.386   2.888
 1929SOL     OW 7386   1.726   4.773   3.739
 1929SOL    HW1 7387   1.697   4.696   3.682
 1929SOL    HW2 7388   1.661   4.784   3.814
 1930SOL     OW 7389   0.339   3.794   2.519
 1930SOL    HW1 7390   0.314   3.885   2.550
 1930SOL    HW2 7391   0.341   3.731   2.596
 1931SOL     OW 7392   1.726   4.059   2.171
 1931SOL    HW1 7393   1.803   4.015   2.124
 1931SOL    HW2 7394   1.721   4.027   2.265
 1932SOL     OW 7395   1.020   4.460   2.764
 1932SOL    HW1 7396   1.004   4.485   2.859
 1932SOL    HW2 7397   0.989   4.366   2.749
 1933SOL     OW 7398   0.973   5.279   3.648
 1933SOL    HW1 7399   0.940   5.338   3.574
 1933SOL    HW2 7400   1.012   5.196   3.610
 1934SOL     OW 7401   1.824   5.234   3.486
 1934SOL    HW1 7402   1.867   5.253   3.398
 1934SOL    HW2 7403   1.895   5.227   3.556
 1935SOL     OW 7404   0.408   4.621   3.683
 1935SOL    HW1 7405   0.479   4.646   3.749
 1935SOL    HW2 7406   0.447   4.558   3.615
 1936SOL     OW 7407   1.525   3.994   1.984
 1936SOL    HW1 7408   1.476   3.917   2.025
 1936SOL    HW2 7409   1.594   4.027   2.048
 1937SOL     OW 7410   1.272   4.550   1.878
 1937SOL    HW1 7411   1.310   4.458   1.890
 1937SOL    HW2 7412   1.302   4.587   1.790
 1938SOL     OW 7413   1.073   5.088   2.718
 1938SOL    HW1 7414   1.094   5.009   2.661
 1938SOL    HW2 7415   1.130   5.165   2.690
 1939SOL     OW 7416   0.323   4.576   2.777
 1939SOL    HW1 7417   0.388   4.545   2.707
 1939SOL    HW2 7418   0.352   4.544   2.867
 1940SOL     OW 7419   0.253   4.236   2.900
 1940SOL    HW1 7420   0.219   4.143   2.887
 1940SOL    HW2 7421   0.324   4.255   2.832
 1941SOL     OW 7422   1.138   4.073   3.568
 1941SOL    HW1 7423   1.074   4.119   3.629
 1941SOL    HW2 7424   1.219   4.131   3.555
 1942SOL     OW 7425   1.163   3.902   3.350
 1942SOL    HW1 7426   1.145   3.963   3.427
 1942SOL    HW2 7427   1.207   3.953   3.277
 1943SOL     OW 7428   0.017   5.055   2.110
 1943SOL    HW1 7429   6.953   5.089   2.179
 1943SOL    HW2 7430   0.018   4.955   2.111
 1944SOL     OW 7431   0.113   5.436   2.835
 1944SOL    HW1 7432   0.081   5.367   2.770
 1944SOL    HW2 7433   0.199   5.475   2.803
 1945SOL     OW 7434   0.485   5.249   2.770
 1945SOL    HW1 7435   0.557   5.309   2.805
 1945SOL    HW2 7436   0.525   5.184   2.705
 1946SOL     OW 7437   0.947   4.532   3.010
 1946SOL    HW1 7438   0.981   4.499   3.098
 1946SOL    HW2 7439   0.847   4.536   3.012
 1947SOL     OW 7440   0.065   4.414   3.012
 1947SOL    HW1 7441   0.128   4.359   2.957
 1947SOL    HW2 7442   0.055   4.374   3.103
 1948SOL     OW 7443   0.240   4.265   3.641
 1948SOL    HW1 7444   0.311   4.196   3.627
 1948SOL    HW2 7445   0.241   4.330   3.565
 1949SOL     OW 7446   1.369   4.652   3.511
 1949SOL    HW1 7447   1.387   4.750   3.507
 1949SOL    HW2 7448   1.354   4.617   3.418
 1950SOL     OW 7449   0.769   4.278   2.229
 1950SOL    HW1 7450   0.786   4.202   2.167
 1950SOL    HW2 7451   0.692   4.331   2.196
 1951SOL     OW 7452   1.592   4.337   3.026
 1951SOL    HW1 7453   1.527   4.272   3.064
 1951SOL    HW2 7454   1.685   4.303   3.041
 1952SOL     OW 7455   0.269   5.311   3.589
 1952SOL    HW1 7456   0.215   5.376   3.642
 1952SOL    HW2 7457   0.266   5.221   3.632
 1953SOL     OW 7458   0.730   4.115   3.080
 1953SOL    HW1 7459   0.669   4.036   3.081
 1953SOL    HW2 7460   0.705   4.175   3.004
 1954SOL     OW 7461   0.857   5.433   3.423
 1954SOL    HW1 7462   0.804   5.366   3.370
 1954SOL    HW2 7463   0.890   5.505   3.362
 1955SOL     OW 7464   0.407   4.187   2.072
 1955SOL    HW1 7465   0.461   4.271   2.079
 1955SOL    HW2 7466   0.321   4.198   2.122
 1956SOL     OW 7467   0.161   4.815   3.344
 1956SOL    HW1 7468   0.168   4.766   3.430
 1956SOL    HW2 7469   0.173   4.751   3.268
 1957SOL     OW 7470   1.250   4.764   3.057
 1957SOL    HW1 7471   1.262   4.703   2.978
 1957SOL    HW2 7472   1.211   4.851   3.026
 1958SOL     OW 7473   1.342   4.653   2.123
 1958SOL    HW1 7474   1.275   4.634   2.194
 1958SOL    HW2 7475   1.311   4.614   2.036
 1959SOL     OW 7476   1.741   5.467   3.035
 1959SOL    HW1 7477   1.833   5.491   3.004
 1959SOL    HW2 7478   1.720   5.374   3.006
 1960SOL     OW 7479   1.276   5.462   2.922
 1960SOL    HW1 7480   1.362   5.513   2.925
 1960SOL    HW2 7481   1.291   5.369   2.955
 1961SOL     OW 7482   0.096   4.991   2.884
 1961SOL    HW1 7483   0.089   4.983   2.984
 1961SOL    HW2 7484   0.008   5.017   2.846
 1962SOL     OW 7485   0.684   5.457   3.636
 1962SOL    HW1 7486   0.613   5.527   3.624
 1962SOL    HW2 7487   0.753   5.468   3.565
 1963SOL     OW 7488   1.389   5.303   2.372
 1963SOL    HW1 7489   1.445   5.330   2.293
 1963SOL    HW2 7490   1.331   5.379   2.400
 1964SOL     OW 7491   0.125   5.502   3.743
 1964SOL    HW1 7492   0.080   5.419   3.776
 1964SOL    HW2 7493   0.175   5.545   3.818
 1965SOL     OW 7494   1.273   4.660   2.469
 1965SOL    HW1 7495   1.344   4.598   2.501
 1965SOL    HW2 7496   1.314   4.746   2.438
 1966SOL     OW 7497   0.755   5.027   3.312
 1966SOL    HW1 7498   0.732   5.086   3.389
 1966SOL    HW2 7499   0.680   5.029   3.245
 1967SOL     OW 7500   0.684   5.370   2.030
 1967SOL    HW1 7501   0.695   5.399   1.935
 1967SOL    HW2 7502   0.635   5.284   2.033
 1968SOL     OW 7503   1.583   5.448   3.271
 1968SOL    HW1 7504   1.640   5.439   3.188
 1968SOL    HW2 7505   1.583   5.543   3.302
 1969SOL     OW 7506   1.817   3.903   2.836
 1969SOL    HW1 7507   1.850   3.811   2.817
 1969SOL    HW2 7508   1.734   3.921   2.783
 1970SOL     OW 7509   0.298   4.046   2.627
 1970SOL    HW1 7510   0.358   4.123   2.649
 1970SOL    HW2 7511   0.259   4.009   2.711
 1971SOL     OW 7512   1.221   5.302   1.919
 1971SOL    HW1 7513   1.216   5.208   1.954
 1971SOL    HW2 7514   1.141   5.320   1.861
 1972SOL     OW 7515   0.795   4.768   3.230
 1972SOL    HW1 7516   0.802   4.780   3.131
 1972SOL    HW2 7517   0.782   4.857   3.274
 1973SOL     OW 7518   0.954   4.636   2.185
 1973SOL    HW1 7519   0.979   4.651   2.090
 1973SOL    HW2 7520   0.983   4.544   2.214
 1974SOL     OW 7521   1.485   5.388   1.919
 1974SOL    HW1 7522   1.390   5.358   1.907
 1974SOL    HW2 7523   1.530   5.389   1.830
 1975SOL     OW 7524   0.378   5.005   3.363
 1975SOL    HW1 7525   0.366   5.085   3.305
 1975SOL    HW2 7526   0.305   4.939   3.345
 1976SOL     OW 7527   1.560   5.002   3.142
 1976SOL    HW1 7528   1.627   4.993   3.215
 1976SOL    HW2 7529   1.494   5.074   3.167
 1977SOL     OW 7530   1.091   4.843   2.596
 1977SOL    HW1 7531   1.011   4.796   2.633
 1977SOL    HW2 7532   1.147   4.778   2.544
 1978SOL     OW 7533   1.054   3.960   2.802
 1978SOL    HW1 7534   1.050   3.919   2.711
 1978SOL    HW2 7535   1.055   3.889   2.872
 1979SOL     OW 7536   0.617   5.212   2.361
 1979SOL    HW1 7537   0.657   5.156   2.288
 1979SOL    HW2 7538   0.518   5.210   2.354
 1980SOL     OW 7539   1.746   4.022   3.310
 1980SOL    HW1 7540   1.830   4.077   3.307
 1980SOL    HW2 7541   1.726   3.987   3.219
 1981SOL     OW 7542   0.288   5.079   2.151
 1981SOL    HW1 7543   0.188   5.074   2.145
 1981SOL    HW2 7544   0.314   5.127   2.235
 1982SOL     OW 7545   0.162   4.683   3.586
 1982SOL    HW1 7546   0.102   4.737   3.646
 1982SOL    HW2 7547   0.250   4.669   3.631
 1983SOL     OW 7548   0.706   3.901   3.349
 1983SOL    HW1 7549   0.791   3.872   3.307
 1983SOL    HW2 7550   0.725   3.943   3.438
 1984SOL     OW 7551   0.068   3.990   1.867
 1984SOL    HW1 7552   0.001   3.927   1.907
 1984SOL    HW2 7553   0.021   4.073   1.837
 1985SOL     OW 7554   1.354   4.580   3.244
 1985SOL    HW1 7555   1.295   4.637   3.187
 1985SOL    HW2 7556   1.448   4.584   3.208
 1986SOL     OW 7557   0.063   3.935   2.177
 1986SOL    HW1 7558   6.998   3.893   2.113
 1986SOL    HW2 7559   0.152   3.890   2.169
 1987SOL     OW 7560   1.182   5.042   2.007
 1987SOL    HW1 7561   1.083   5.029   1.997
 1987SOL    HW2 7562   1.207   5.042   2.103
 1988SOL     OW 7563   0.641   4.542   3.271
 1988SOL    HW1 7564   0.696   4.625   3.262
 1988SOL    HW2 7565   0.701   4.462   3.269
 1989SOL     OW 7566   1.517   5.593   2.923
 1989SOL    HW1 7567   1.545   5.643   2.841
 1989SOL    HW2 7568   1.597   5.549   2.964
 1990SOL     OW 7569   0.707   4.269   3.547
 1990SOL    HW1 7570   0.773   4.329   3.593
 1990SOL    HW2 7571   0.727   4.174   3.571
 1991SOL     OW 7572   1.429   4.923   3.494
 1991SOL    HW1 7573   1.424   4.940   3.592
 1991SOL    HW2 7574   1.518   4.952   3.459
 1992SOL     OW 7575   0.355   5.520   3.439
 1992SOL    HW1 7576   0.267   5.565   3.427
 1992SOL    HW2 7577   0.342   5.431   3.481
 1993SOL     OW 7578   1.598   4.604   3.118
 1993SOL    HW1 7579   1.605   4.513   3.077
 1993SOL    HW2 7580   1.595   4.672   3.045
 1994SOL     OW 7581   1.237   4.029   2.309
 1994SOL    HW1 7582   1.303   3.955   2.315
 1994SOL    HW2 7583   1.246   4.088   2.390
 1995SOL     OW 7584   0.491   4.489   2.577
 1995SOL    HW1 7585   0.568   4.550   2.560
 1995SOL    HW2 7586   0.450   4.463   2.489
 1996SOL     OW 7587   1.698   4.086   3.577
 1996SOL    HW1 7588   1.719   4.072   3.480
 1996SOL    HW2 7589   1.615   4.036   3.601
 1997SOL     OW 7590   1.686   4.712   3.355
 1997SOL    HW1 7591   1.685   4.812   3.355
 1997SOL    HW2 7592   1.657   4.678   3.266
 1998SOL     OW 7593   0.893   5.070   1.966
 1998SOL    HW1 7594   0.843   5.073   2.053
 1998SOL    HW2 7595   0.894   5.161   1.926
 1999SOL     OW 7596   0.678   5.427   2.830
 1999SOL    HW1 7597   0.649   5.522   2.819
 1999SOL    HW2 7598   0.777   5.421   2.822
 2000SOL     OW 7599   0.882   4.701   2.718
 2000SOL    HW1 7600   0.925   4.611   2.726
 2000SOL    HW2 7601   0.851   4.732   2.809
 2001SOL     OW 7602   1.029   4.655   1.927
 2001SOL    HW1 7603   1.010   4.730   1.863
 2001SOL    HW2 7604   1.120   4.619   1.909
 2002SOL     OW 7605   1.813   5.279   2.720
 2002SOL    HW1 7606   1.742   5.283   2.649
 2002SOL    HW2 7607   1.771   5.257   2.808
 2003SOL     OW 7608   0.237   5.071   3.737
 2003SOL    HW1 7609   0.137   5.072   3.724
 2003SOL    HW2 7610   0.258   5.074   3.835
 2004SOL     OW 7611   0.185   5.036   2.552
 2004SOL    HW1 7612   0.223   4.971   2.617
 2004SOL    HW2 7613   0.121   4.989   2.491
 2005SOL     OW 7614   0.670   5.195   3.515
 2005SOL    HW1 7615   0.594   5.142   3.552
 2005SOL    HW2 7616   0.676   5.283   3.563
 2006SOL     OW 7617   1.684   3.886   3.075
 2006SOL    HW1 7618   1.685   3.788   3.092
 2006SOL    HW2 7619   1.737   3.906   2.992
 2007SOL     OW 7620   0.434   4.136   2.389
 2007SOL    HW1 7621   0.484   4.073   2.329
 2007SOL    HW2 7622   0.385   4.083   2.459
 2008SOL     OW 7623   1.691   5.214   2.951
 2008SOL    HW1 7624   1.612   5.168   2.909
 2008SOL    HW2 7625   1.740   5.149   3.008
 2009SOL     OW 7626   0.346   4.258   3.159
 2009SOL    HW1 7627   0.399   4.188   3.206
 2009SOL    HW2 7628   0.326   4.227   3.065
 2010SOL     OW 7629   0.819   5.285   2.544
 2010SOL    HW1 7630   0.764   5.308   2.464
 2010SOL    HW2 7631   0.772   5.214   2.597
 2011SOL     OW 7632   1.459   4.036   2.990
 2011SOL    HW1 7633   1.534   3.981   3.027
 2011SOL    HW2 7634   1.387   4.045   3.060
 2012SOL     OW 7635   1.043   3.733   2.967
 2012SOL    HW1 7636   0.985   3.673   2.912
 2012SOL    HW2 7637   1.136   3.698   2.967
 2013SOL     OW 7638   0.779   5.034   2.216
 2013SOL    HW1 7639   0.759   4.938   2.232
 2013SOL    HW2 7640   0.859   5.061   2.269
 2014SOL     OW 7641   0.621   5.304   3.156
 2014SOL    HW1 7642   0.610   5.397   3.192
 2014SOL    HW2 7643   0.705   5.298   3.103
 2015SOL     OW 7644   1.402   3.759   2.065
 2015SOL    HW1 7645   1.445   3.697   2.000
 2015SOL    HW2 7646   1.309   3.729   2.085
 2016SOL     OW 7647   1.267   4.190   2.530
 2016SOL    HW1 7648   1.220   4.277   2.515
 2016SOL    HW2 7649   1.271   4.171   2.628
 2017SOL     OW 7650   1.566   3.940   2.740
 2017SOL    HW1 7651   1.518   3.986   2.815
 2017SOL    HW2 7652   1.554   3.993   2.656
 2018SOL     OW 7653   0.037   4.783   2.138
 2018SOL    HW1 7654   0.128   4.741   2.132
 2018SOL    HW2 7655   6.968   4.712   2.148
 2019SOL     OW 7656   0.901   5.404   2.204
 2019SOL    HW1 7657   0.825   5.389   2.142
 2019SOL    HW2 7658   0.880   5.481   2.265
 2020SOL     OW 7659   0.185   4.415   3.871
 2020SOL    HW1 7660   0.166   4.348   3.943
 2020SOL    HW2 7661   0.223   4.367   3.791
 2021SOL     OW 7662   0.187   3.983   4.752
 2021SOL    HW1 7663   0.235   3.950   4.833
 2021SOL    HW2 7664   0.091   3.957   4.757
 2022SOL     OW 7665   0.024   4.118   4.396
 2022SOL    HW1 7666   6.958   4.095   4.467
 2022SOL    HW2 7667   0.115   4.087   4.423
 2023SOL     OW 7668   0.577   5.034   4.957
 2023SOL    HW1 7669   0.488   5.029   4.911
 2023SOL    HW2 7670   0.601   5.129   4.974
 2024SOL     OW 7671   1.573   5.238   4.427
 2024SOL    HW1 7672   1.525   5.197   4.504
 2024SOL    HW2 7673   1.507   5.264   4.356
 2025SOL     OW 7674   1.114   4.454   4.375
 2025SOL    HW1 7675   1.162   4.539   4.353
 2025SOL    HW2 7676   1.074   4.461   4.466
 2026SOL     OW 7677   1.591   4.327   3.976
 2026SOL    HW1 7678   1.635   4.329   3.886
 2026SOL    HW2 7679   1.596   4.234   4.014
 2027SOL     OW 7680   0.729   4.837   4.826
 2027SOL    HW1 7681   0.661   4.884   4.884
 2027SOL    HW2 7682   0.775   4.904   4.768
 2028SOL     OW 7683   0.889   4.461   5.520
 2028SOL    HW1 7684   0.920   4.526   5.589
 2028SOL    HW2 7685   0.896   4.503   5.429
 2029SOL     OW 7686   0.676   4.683   4.388
 2029SOL    HW1 7687   0.749   4.694   4.455
 2029SOL    HW2 7688   0.606   4.753   4.403
 2030SOL     OW 7689   0.704   4.889   5.582
 2030SOL    HW1 7690   0.764   4.959   5.622
 2030SOL    HW2 7691   0.627   4.933   5.537
 2031SOL     OW 7692   0.342   5.101   4.820
 2031SOL    HW1 7693   0.256   5.063   4.785
 2031SOL    HW2 7694   0.386   5.154   4.748
 2032SOL     OW 7695   1.442   5.229   5.113
 2032SOL    HW1 7696   1.496   5.312   5.124
 2032SOL    HW2 7697   1.362   5.232   5.173
 2033SOL     OW 7698   0.392   4.069   5.249
 2033SOL    HW1 7699   0.479   4.026   5.273
 2033SOL    HW2 7700   0.320   4.000   5.248
 2034SOL     OW 7701   1.543   4.175   4.372
 2034SOL    HW1 7702   1.446   4.197   4.374
 2034SOL    HW2 7703   1.595   4.257   4.347
 2035SOL     OW 7704   0.260   5.460   4.209
 2035SOL    HW1 7705   0.279   5.536   4.272
 2035SOL    HW2 7706   0.322   5.466   4.131
 2036SOL     OW 7707   1.112   5.056   5.439
 2036SOL    HW1 7708   1.177   5.037   5.512
 2036SOL    HW2 7709   1.050   4.978   5.427
 2037SOL     OW 7710   0.340   5.199   4.248
 2037SOL    HW1 7711   0.305   5.293   4.249
 2037SOL    HW2 7712   0.291   5.144   4.316
 2038SOL     OW 7713   0.271   4.843   4.591
 2038SOL    HW1 7714   0.281   4.746   4.613
 2038SOL    HW2 7715   0.207   4.885   4.656
 2039SOL     OW 7716   0.579   5.545   5.135
 2039SOL    HW1 7717   0.500   5.521   5.192
 2039SOL    HW2 7718   0.627   5.623   5.175
 2040SOL     OW 7719   0.576   4.706   3.896
 2040SOL    HW1 7720   0.624   4.760   3.826
 2040SOL    HW2 7721   0.615   4.727   3.986
 2041SOL     OW 7722   1.592   3.847   5.230
 2041SOL    HW1 7723   1.643   3.924   5.190
 2041SOL    HW2 7724   1.535   3.881   5.305
 2042SOL     OW 7725   0.104   4.361   4.299
 2042SOL    HW1 7726   0.067   4.276   4.337
 2042SOL    HW2 7727   0.085   4.436   4.362
 2043SOL     OW 7728   1.858   5.467   4.037
 2043SOL    HW1 7729   1.936   5.453   4.098
 2043SOL    HW2 7730   1.861   5.561   4.000
 2044SOL     OW 7731   6.997   5.275   3.806
 2044SOL    HW1 7732   0.001   5.199   3.871
 2044SOL    HW2 7733   6.903   5.285   3.772
 2045SOL     OW 7734   1.680   4.688   4.402
 2045SOL    HW1 7735   1.765   4.642   4.427
 2045SOL    HW2 7736   1.687   4.724   4.309
 2046SOL     OW 7737   1.719   4.809   4.152
 2046SOL    HW1 7738   1.815   4.783   4.145
 2046SOL    HW2 7739   1.711   4.895   4.203
 2047SOL     OW 7740   0.246   4.498   5.303
 2047SOL    HW1 7741   0.343   4.491   5.325
 2047SOL    HW2 7742   0.206   4.573   5.354
 2048SOL     OW 7743   0.631   5.080   4.467
 2048SOL    HW1 7744   0.580   4.994   4.458
 2048SOL    HW2 7745   0.627   5.130   4.381
 2049SOL     OW 7746   1.233   4.934   5.154
 2049SOL    HW1 7747   1.252   4.865   5.084
 2049SOL    HW2 7748   1.306   4.933   5.222
 2050SOL     OW 7749   0.836   3.758   4.224
 2050SOL    HW1 7750   0.876   3.844   4.193
 2050SOL    HW2 7751   0.738   3.771   4.239
 2051SOL     OW 7752   0.199   4.642   4.991
 2051SOL    HW1 7753   0.289   4.599   4.997
 2051SOL    HW2 7754   0.137   4.583   4.940
 2052SOL     OW 7755   1.545   4.799   3.942
 2052SOL    HW1 7756   1.461   4.753   3.970
 2052SOL    HW2 7757   1.608   4.803   4.019
 2053SOL     OW 7758   1.265   5.596   5.371
 2053SOL    HW1 7759   1.221   5.651   5.301
 2053SOL    HW2 7760   1.260   5.499   5.345
 2054SOL     OW 7761   1.463   5.116   4.647
 2054SOL    HW1 7762   1.405   5.157   4.718
 2054SOL    HW2 7763   1.433   5.023   4.629
 2055SOL     OW 7764   1.635   5.588   4.261
 2055SOL    HW1 7765   1.620   5.525   4.185
 2055SOL    HW2 7766   1.649   5.536   4.346
 2056SOL     OW 7767   0.533   4.427   3.994
 2056SOL    HW1 7768   0.552   4.518   3.958
 2056SOL    HW2 7769   0.473   4.435   4.074
 2057SOL     OW 7770   1.258   4.149   4.640
 2057SOL    HW1 7771   1.174   4.095   4.642
 2057SOL    HW2 7772   1.323   4.112   4.706
 2058SOL     OW 7773   1.588   5.415   4.051
 2058SOL    HW1 7774   1.688   5.419   4.042
 2058SOL    HW2 7775   1.547   5.405   3.961
 2059SOL     OW 7776   0.773   4.286   5.203
 2059SOL    HW1 7777   0.736   4.260   5.292
 2059SOL    HW2 7778   0.744   4.219   5.134
 2060SOL     OW 7779   1.344   4.190   5.381
 2060SOL    HW1 7780   1.353   4.243   5.466
 2060SOL    HW2 7781   1.392   4.103   5.390
 2061SOL     OW 7782   0.930   4.615   5.284
 2061SOL    HW1 7783   0.978   4.543   5.234
 2061SOL    HW2 7784   0.884   4.675   5.220
 2062SOL     OW 7785   0.978   4.086   4.911
 2062SOL    HW1 7786   0.886   4.097   4.948
 2062SOL    HW2 7787   0.973   4.050   4.818
 2063SOL     OW 7788   1.003   4.393   4.130
 2063SOL    HW1 7789   1.033   4.406   4.224
 2063SOL    HW2 7790   0.910   4.355   4.129
 2064SOL     OW 7791   0.068   4.550   4.511
 2064SOL    HW1 7792   0.161   4.557   4.547
 2064SOL    HW2 7793   0.002   4.561   4.585
 2065SOL     OW 7794   0.136   5.609   5.370
 2065SOL    HW1 7795   0.146   5.567   5.460
 2065SOL    HW2 7796   0.039   5.609   5.344
 2066SOL     OW 7797   0.829   4.076   3.922
 2066SOL    HW1 7798   0.883   4.120   3.850
 2066SOL    HW2 7799   0.778   4.000   3.883
 2067SOL     OW 7800   1.641   4.307   5.567
 2067SOL    HW1 7801   1.633   4.390   5.511
 2067SOL    HW2 7802   1.668   4.230   5.508
 2068SOL     OW 7803   1.401   4.924   4.328
 2068SOL    HW1 7804   1.497   4.944   4.311
 2068SOL    HW2 7805   1.343   4.981   4.270
 2069SOL     OW 7806   0.559   3.814   4.714
 2069SOL    HW1 7807   0.557   3.843   4.810
 2069SOL    HW2 7808   0.579   3.894   4.657
 2070SOL     OW 7809   0.983   5.190   4.213
 2070SOL    HW1 7810   0.964   5.265   4.150
 2070SOL    HW2 7811   0.948   5.213   4.304
 2071SOL     OW 7812   0.371   5.499   4.604
 2071SOL    HW1 7813   0.403   5.405   4.611
 2071SOL    HW2 7814   0.443   5.561   4.637
 2072SOL     OW 7815   1.770   4.815   4.640
 2072SOL    HW1 7816   1.726   4.796   4.552
 2072SOL    HW2 7817   1.701   4.814   4.712
 2073SOL     OW 7818   1.202   5.244   5.249
 2073SOL    HW1 7819   1.185   5.175   5.320
 2073SOL    HW2 7820   1.135   5.233   5.176
 2074SOL     OW 7821   0.281   4.661   3.966
 2074SOL    HW1 7822   0.368   4.683   3.922
 2074SOL    HW2 7823   0.250   4.571   3.936
 2075SOL     OW 7824   1.471   4.517   4.415
 2075SOL    HW1 7825   1.455   4.470   4.503
 2075SOL    HW2 7826   1.544   4.584   4.426
 2076SOL     OW 7827   0.470   5.014   5.481
 2076SOL    HW1 7828   0.452   5.005   5.383
 2076SOL    HW2 7829   0.384   5.009   5.532
 2077SOL     OW 7830   1.147   5.485   3.971
 2077SOL    HW1 7831   1.057   5.463   4.010
 2077SOL    HW2 7832   1.172   5.415   3.904
 2078SOL     OW 7833   0.175   3.902   5.252
 2078SOL    HW1 7834   0.102   3.955   5.297
 2078SOL    HW2 7835   0.174   3.808   5.287
 2079SOL     OW 7836   1.598   5.139   3.834
 2079SOL    HW1 7837   1.565   5.233   3.821
 2079SOL    HW2 7838   1.526   5.075   3.807
 2080SOL     OW 7839   0.476   5.497   4.033
 2080SOL    HW1 7840   0.522   5.545   4.107
 2080SOL    HW2 7841   0.544   5.444   3.981
 2081SOL     OW 7842   1.408   3.830   4.182
 2081SOL    HW1 7843   1.389   3.794   4.090
 2081SOL    HW2 7844   1.506   3.843   4.193
 2082SOL     OW 7845   0.238   5.480   4.949
 2082SOL    HW1 7846   0.277   5.397   4.989
 2082SOL    HW2 7847   0.187   5.456   4.866
 2083SOL     OW 7848   0.947   5.423   4.611
 2083SOL    HW1 7849   1.039   5.385   4.608
 2083SOL    HW2 7850   0.890   5.379   4.542
 2084SOL     OW 7851   0.368   4.393   4.214
 2084SOL    HW1 7852   0.396   4.297   4.225
 2084SOL    HW2 7853   0.270   4.401   4.234
 2085SOL     OW 7854   1.454   3.943   5.447
 2085SOL    HW1 7855   1.464   3.962   5.545
 2085SOL    HW2 7856   1.388   3.869   5.435
 2086SOL     OW 7857   0.674   3.853   3.832
 2086SOL    HW1 7858   0.745   3.783   3.836
 2086SOL    HW2 7859   0.600   3.822   3.772
 2087SOL     OW 7860   0.853   5.225   4.898
 2087SOL    HW1 7861   0.837   5.166   4.819
 2087SOL    HW2 7862   0.916   5.179   4.961
 2088SOL     OW 7863   1.263   4.323   5.154
 2088SOL    HW1 7864   1.302   4.285   5.238
 2088SOL    HW2 7865   1.303   4.413   5.137
 2089SOL     OW 7866   0.819   5.050   4.677
 2089SOL    HW1 7867   0.910   5.067   4.639
 2089SOL    HW2 7868   0.751   5.054   4.604
 2090SOL     OW 7869   0.900   4.215   4.590
 2090SOL    HW1 7870   0.869   4.207   4.495
 2090SOL    HW2 7871   0.949   4.132   4.616
 2091SOL     OW 7872   0.566   3.795   4.239
 2091SOL    HW1 7873   0.490   3.796   4.303
 2091SOL    HW2 7874   0.553   3.869   4.172
 2092SOL     OW 7875   1.398   4.957   3.767
 2092SOL    HW1 7876   1.449   4.893   3.825
 2092SOL    HW2 7877   1.314   4.984   3.814
 2093SOL     OW 7878   0.270   3.779   3.931
 2093SOL    HW1 7879   0.303   3.852   3.871
 2093SOL    HW2 7880   0.348   3.727   3.967
 2094SOL     OW 7881   0.955   3.992   4.153
 2094SOL    HW1 7882   0.918   4.025   4.066
 2094SOL    HW2 7883   1.054   4.005   4.155
 2095SOL     OW 7884   1.006   4.411   5.121
 2095SOL    HW1 7885   0.935   4.347   5.152
 2095SOL    HW2 7886   1.095   4.368   5.132
 2096SOL     OW 7887   1.204   5.345   4.551
 2096SOL    HW1 7888   1.229   5.396   4.470
 2096SOL    HW2 7889   1.245   5.387   4.632
 2097SOL     OW 7890   0.475   4.864   4.412
 2097SOL    HW1 7891   0.403   4.855   4.481
 2097SOL    HW2 7892   0.435   4.859   4.321
 2098SOL     OW 7893   1.246   5.530   4.343
 2098SOL    HW1 7894   1.296   5.596   4.287
 2098SOL    HW2 7895   1.161   5.571   4.376
 2099SOL     OW 7896   0.992   4.216   3.749
 2099SOL    HW1 7897   0.965   4.306   3.713
 2099SOL    HW2 7898   1.056   4.229   3.825
 2100SOL     OW 7899   0.030   4.277   5.073
 2100SOL    HW1 7900   0.129   4.281   5.088
 2100SOL    HW2 7901   6.983   4.289   5.161
 2101SOL     OW 7902   0.546   3.895   4.975
 2101SOL    HW1 7903   0.576   3.822   5.037
 2101SOL    HW2 7904   0.447   3.908   4.983
 2102SOL     OW 7905   0.834   4.167   4.332
 2102SOL    HW1 7906   0.782   4.221   4.265
 2102SOL    HW2 7907   0.883   4.094   4.284
 2103SOL     OW 7908   1.012   3.781   4.437
 2103SOL    HW1 7909   0.951   3.776   4.357
 2103SOL    HW2 7910   0.987   3.710   4.502
 2104SOL     OW 7911   1.389   4.854   4.606
 2104SOL    HW1 7912   1.331   4.775   4.626
 2104SOL    HW2 7913   1.390   4.869   4.507
 2105SOL     OW 7914   1.410   4.392   4.655
 2105SOL    HW1 7915   1.350   4.312   4.648
 2105SOL    HW2 7916   1.480   4.375   4.724
 2106SOL     OW 7917   0.527   5.146   3.871
 2106SOL    HW1 7918   0.449   5.118   3.927
 2106SOL    HW2 7919   0.522   5.102   3.781
 2107SOL     OW 7920   1.706   5.018   4.323
 2107SOL    HW1 7921   1.801   5.010   4.351
 2107SOL    HW2 7922   1.668   5.103   4.358
 2108SOL     OW 7923   1.358   4.331   3.817
 2108SOL    HW1 7924   1.287   4.288   3.872
 2108SOL    HW2 7925   1.443   4.336   3.870
 2109SOL     OW 7926   0.533   3.978   4.042
 2109SOL    HW1 7927   0.588   3.932   3.973
 2109SOL    HW2 7928   0.486   4.056   4.001
 2110SOL     OW 7929   1.730   4.956   5.268
 2110SOL    HW1 7930   1.820   4.913   5.268
 2110SOL    HW2 7931   1.737   5.048   5.305
 2111SOL     OW 7932   1.011   5.078   5.078
 2111SOL    HW1 7933   0.926   5.053   5.125
 2111SOL    HW2 7934   1.087   5.025   5.117
 2112SOL     OW 7935   1.610   5.375   5.390
 2112SOL    HW1 7936   1.594   5.413   5.298
 2112SOL    HW2 7937   1.685   5.309   5.386
 2113SOL     OW 7938   1.145   5.008   4.844
 2113SOL    HW1 7939   1.080   5.033   4.916
 2113SOL    HW2 7940   1.109   5.035   4.755
 2114SOL     OW 7941   1.568   4.818   4.825
 2114SOL    HW1 7942   1.565   4.887   4.897
 2114SOL    HW2 7943   1.494   4.835   4.759
 2115SOL     OW 7944   1.012   3.737   5.062
 2115SOL    HW1 7945   1.029   3.749   4.964
 2115SOL    HW2 7946   1.062   3.808   5.113
 2116SOL     OW 7947   0.946   4.836   5.447
 2116SOL    HW1 7948   0.853   4.850   5.483
 2116SOL    HW2 7949   0.946   4.757   5.386
 2117SOL     OW 7950   0.726   4.768   4.126
 2117SOL    HW1 7951   0.703   4.734   4.217
 2117SOL    HW2 7952   0.814   4.729   4.097
 2118SOL     OW 7953   0.437   4.498   4.995
 2118SOL    HW1 7954   0.506   4.517   5.064
 2118SOL    HW2 7955   0.386   4.416   5.020
 2119SOL     OW 7956   1.232   4.101   5.003
 2119SOL    HW1 7957   1.246   4.186   5.054
 2119SOL    HW2 7958   1.138   4.099   4.967
 2120SOL     OW 7959   0.082   5.228   5.125
 2120SOL    HW1 7960   0.037   5.283   5.195
 2120SOL    HW2 7961   0.180   5.249   5.123
 2121SOL     OW 7962   0.357   4.847   4.165
 2121SOL    HW1 7963   0.343   4.928   4.108
 2121SOL    HW2 7964   0.332   4.765   4.113
 2122SOL     OW 7965   0.464   4.252   4.595
 2122SOL    HW1 7966   0.475   4.326   4.529
 2122SOL    HW2 7967   0.544   4.248   4.654
 2123SOL     OW 7968   1.240   5.096   4.172
 2123SOL    HW1 7969   1.300   5.175   4.187
 2123SOL    HW2 7970   1.146   5.121   4.194
 2124SOL     OW 7971   1.328   5.208   4.867
 2124SOL    HW1 7972   1.372   5.213   4.957
 2124SOL    HW2 7973   1.263   5.132   4.866
 2125SOL     OW 7974   1.652   4.402   4.237
 2125SOL    HW1 7975   1.582   4.453   4.286
 2125SOL    HW2 7976   1.625   4.390   4.142
 2126SOL     OW 7977   0.352   5.240   5.053
 2126SOL    HW1 7978   0.338   5.187   4.969
 2126SOL    HW2 7979   0.447   5.269   5.059
 2127SOL     OW 7980   0.508   4.473   5.388
 2127SOL    HW1 7981   0.556   4.506   5.307
 2127SOL    HW2 7982   0.558   4.395   5.426
 2128SOL     OW 7983   1.607   4.537   5.425
 2128SOL    HW1 7984   1.511   4.565   5.420
 2128SOL    HW2 7985   1.656   4.573   5.346
 2129SOL     OW 7986   1.036   3.837   5.515
 2129SOL    HW1 7987   1.054   3.925   5.470
 2129SOL    HW2 7988   1.113   3.775   5.498
 2130SOL     OW 7989   0.658   4.556   4.835
 2130SOL    HW1 7990   0.668   4.655   4.822
 2130SOL    HW2 7991   0.574   4.537   4.886
 2131SOL     OW 7992   1.254   4.616   4.687
 2131SOL    HW1 7993   1.162   4.582   4.666
 2131SOL    HW2 7994   1.320   4.542   4.679
 2132SOL     OW 7995   1.155   4.232   3.971
 2132SOL    HW1 7996   1.189   4.158   4.029
 2132SOL    HW2 7997   1.105   4.298   4.027
 2133SOL     OW 7998   0.274   3.890   4.994
 2133SOL    HW1 7999   0.232   3.906   5.084
 2133SOL    HW2 8000   0.259   3.795   4.968
 2134SOL     OW 8001   0.062   4.986   5.006
 2134SOL    HW1 8002   0.094   4.914   5.067
 2134SOL    HW2 8003   0.066   5.074   5.054
 2135SOL     OW 8004   0.687   4.283   4.757
 2135SOL    HW1 8005   0.766   4.264   4.699
 2135SOL    HW2 8006   0.684   4.380   4.779
 2136SOL     OW 8007   1.750   4.712   5.592
 2136SOL    HW1 8008   1.706   4.641   5.538
 2136SOL    HW2 8009   1.691   4.738   5.668
 2137SOL     OW 8010   0.340   3.799   4.396
 2137SOL    HW1 8011   0.311   3.890   4.428
 2137SOL    HW2 8012   0.344   3.736   4.473
 2138SOL     OW 8013   1.582   4.088   4.110
 2138SOL    HW1 8014   1.632   4.002   4.119
 2138SOL    HW2 8015   1.558   4.123   4.201
 2139SOL     OW 8016   1.008   4.466   4.634
 2139SOL    HW1 8017   0.991   4.487   4.730
 2139SOL    HW2 8018   0.975   4.373   4.613
 2140SOL     OW 8019   0.983   5.292   5.498
 2140SOL    HW1 8020   0.944   5.344   5.422
 2140SOL    HW2 8021   1.014   5.203   5.465
 2141SOL     OW 8022   1.826   5.212   5.337
 2141SOL    HW1 8023   1.855   5.237   5.244
 2141SOL    HW2 8024   1.901   5.228   5.401
 2142SOL     OW 8025   0.400   4.643   5.574
 2142SOL    HW1 8026   0.469   4.676   5.638
 2142SOL    HW2 8027   0.442   4.580   5.509
 2143SOL     OW 8028   1.464   3.992   3.875
 2143SOL    HW1 8029   1.421   3.905   3.900
 2143SOL    HW2 8030   1.501   4.035   3.957
 2144SOL     OW 8031   1.266   4.577   3.751
 2144SOL    HW1 8032   1.301   4.485   3.772
 2144SOL    HW2 8033   1.300   4.606   3.662
 2145SOL     OW 8034   1.073   5.094   4.592
 2145SOL    HW1 8035   1.089   5.014   4.534
 2145SOL    HW2 8036   1.130   5.170   4.561
 2146SOL     OW 8037   0.318   4.572   4.630
 2146SOL    HW1 8038   0.385   4.540   4.563
 2146SOL    HW2 8039   0.342   4.539   4.721
 2147SOL     OW 8040   0.265   4.244   4.783
 2147SOL    HW1 8041   0.224   4.153   4.771
 2147SOL    HW2 8042   0.337   4.256   4.715
 2148SOL     OW 8043   1.092   4.086   5.407
 2148SOL    HW1 8044   1.042   4.136   5.478
 2148SOL    HW2 8045   1.181   4.129   5.392
 2149SOL     OW 8046   1.163   3.920   5.199
 2149SOL    HW1 8047   1.124   3.980   5.269
 2149SOL    HW2 8048   1.201   3.976   5.125
 2150SOL     OW 8049   0.016   5.060   3.974
 2150SOL    HW1 8050   6.953   5.095   4.043
 2150SOL    HW2 8051   0.016   4.960   3.976
 2151SOL     OW 8052   0.118   5.439   4.697
 2151SOL    HW1 8053   0.086   5.369   4.634
 2151SOL    HW2 8054   0.205   5.476   4.664
 2152SOL     OW 8055   0.486   5.247   4.638
 2152SOL    HW1 8056   0.558   5.305   4.675
 2152SOL    HW2 8057   0.526   5.182   4.574
 2153SOL     OW 8058   0.931   4.524   4.882
 2153SOL    HW1 8059   0.964   4.488   4.969
 2153SOL    HW2 8060   0.831   4.531   4.884
 2154SOL     OW 8061   0.064   4.426   4.852
 2154SOL    HW1 8062   0.136   4.374   4.807
 2154SOL    HW2 8063   0.036   4.380   4.936
 2155SOL     OW 8064   0.220   4.247   5.393
 2155SOL    HW1 8065   0.286   4.193   5.341
 2155SOL    HW2 8066   0.216   4.340   5.355
 2156SOL     OW 8067   1.363   4.649   5.360
 2156SOL    HW1 8068   1.387   4.746   5.359
 2156SOL    HW2 8069   1.349   4.617   5.267
 2157SOL     OW 8070   0.751   4.283   4.092
 2157SOL    HW1 8071   0.770   4.208   4.030
 2157SOL    HW2 8072   0.674   4.337   4.057
 2158SOL     OW 8073   1.585   4.327   4.858
 2158SOL    HW1 8074   1.532   4.249   4.893
 2158SOL    HW2 8075   1.682   4.306   4.861
 2159SOL     OW 8076   0.280   5.282   5.464
 2159SOL    HW1 8077   0.231   5.350   5.519
 2159SOL    HW2 8078   0.263   5.191   5.500
 2160SOL     OW 8079   0.709   4.122   4.986
 2160SOL    HW1 8080   0.650   4.041   4.985
 2160SOL    HW2 8081   0.689   4.179   4.907
 2161SOL     OW 8082   0.864   5.431   5.275
 2161SOL    HW1 8083   0.812   5.364   5.221
 2161SOL    HW2 8084   0.894   5.505   5.216
 2162SOL     OW 8085   0.399   4.188   3.932
 2162SOL    HW1 8086   0.451   4.272   3.938
 2162SOL    HW2 8087   0.313   4.198   3.982
 2163SOL     OW 8088   0.161   4.814   5.199
 2163SOL    HW1 8089   0.172   4.769   5.287
 2163SOL    HW2 8090   0.175   4.748   5.125
 2164SOL     OW 8091   1.249   4.766   4.921
 2164SOL    HW1 8092   1.252   4.705   4.842
 2164SOL    HW2 8093   1.213   4.855   4.893
 2165SOL     OW 8094   1.307   4.686   4.003
 2165SOL    HW1 8095   1.230   4.675   4.065
 2165SOL    HW2 8096   1.285   4.645   3.914
 2166SOL     OW 8097   1.745   5.415   4.884
 2166SOL    HW1 8098   1.817   5.446   4.822
 2166SOL    HW2 8099   1.716   5.323   4.857
 2167SOL     OW 8100   1.286   5.466   4.788
 2167SOL    HW1 8101   1.373   5.515   4.791
 2167SOL    HW2 8102   1.299   5.374   4.825
 2168SOL     OW 8103   0.096   4.991   4.741
 2168SOL    HW1 8104   0.081   4.980   4.839
 2168SOL    HW2 8105   0.012   5.024   4.698
 2169SOL     OW 8106   0.692   5.449   5.491
 2169SOL    HW1 8107   0.622   5.519   5.483
 2169SOL    HW2 8108   0.760   5.459   5.418
 2170SOL     OW 8109   1.694   3.849   4.159
 2170SOL    HW1 8110   1.767   3.856   4.091
 2170SOL    HW2 8111   1.703   3.763   4.209
 2171SOL     OW 8112   1.396   5.319   4.231
 2171SOL    HW1 8113   1.459   5.351   4.159
 2171SOL    HW2 8114   1.336   5.394   4.259
 2172SOL     OW 8115   0.144   5.472   5.612
 2172SOL    HW1 8116   0.069   5.422   5.653
 2172SOL    HW2 8117   0.185   5.533   5.680
 2173SOL     OW 8118   1.266   4.682   4.340
 2173SOL    HW1 8119   1.338   4.615   4.361
 2173SOL    HW2 8120   1.308   4.769   4.317
 2174SOL     OW 8121   0.756   5.021   5.177
 2174SOL    HW1 8122   0.732   5.079   5.255
 2174SOL    HW2 8123   0.682   5.024   5.110
 2175SOL     OW 8124   0.681   5.368   3.894
 2175SOL    HW1 8125   0.693   5.399   3.800
 2175SOL    HW2 8126   0.632   5.281   3.895
 2176SOL     OW 8127   1.596   5.458   5.122
 2176SOL    HW1 8128   1.652   5.448   5.040
 2176SOL    HW2 8129   1.585   5.555   5.143
 2177SOL     OW 8130   1.820   3.888   4.703
 2177SOL    HW1 8131   1.847   3.799   4.665
 2177SOL    HW2 8132   1.748   3.928   4.646
 2178SOL     OW 8133   0.289   4.050   4.505
 2178SOL    HW1 8134   0.353   4.124   4.525
 2178SOL    HW2 8135   0.249   4.017   4.590
 2179SOL     OW 8136   1.217   5.295   3.786
 2179SOL    HW1 8137   1.210   5.204   3.826
 2179SOL    HW2 8138   1.139   5.312   3.726
 2180SOL     OW 8139   0.795   4.761   5.099
 2180SOL    HW1 8140   0.803   4.770   5.000
 2180SOL    HW2 8141   0.782   4.851   5.140
 2181SOL     OW 8142   0.958   4.652   4.050
 2181SOL    HW1 8143   0.975   4.661   3.952
 2181SOL    HW2 8144   0.978   4.558   4.078
 2182SOL     OW 8145   1.477   5.393   3.792
 2182SOL    HW1 8146   1.383   5.360   3.782
 2182SOL    HW2 8147   1.520   5.398   3.703
 2183SOL     OW 8148   0.374   5.008   5.228
 2183SOL    HW1 8149   0.364   5.089   5.170
 2183SOL    HW2 8150   0.302   4.942   5.205
 2184SOL     OW 8151   1.591   5.013   5.027
 2184SOL    HW1 8152   1.651   4.984   5.102
 2184SOL    HW2 8153   1.529   5.084   5.059
 2185SOL     OW 8154   1.075   4.852   4.466
 2185SOL    HW1 8155   0.996   4.801   4.501
 2185SOL    HW2 8156   1.135   4.790   4.415
 2186SOL     OW 8157   1.036   3.973   4.645
 2186SOL    HW1 8158   1.026   3.932   4.554
 2186SOL    HW2 8159   1.056   3.901   4.712
 2187SOL     OW 8160   0.615   5.218   4.232
 2187SOL    HW1 8161   0.657   5.163   4.160
 2187SOL    HW2 8162   0.516   5.215   4.223
 2188SOL     OW 8163   1.770   4.054   5.161
 2188SOL    HW1 8164   1.832   4.131   5.150
 2188SOL    HW2 8165   1.778   3.993   5.082
 2189SOL     OW 8166   0.287   5.080   4.012
 2189SOL    HW1 8167   0.188   5.077   4.006
 2189SOL    HW2 8168   0.314   5.129   4.095
 2190SOL     OW 8169   0.162   4.705   5.458
 2190SOL    HW1 8170   0.102   4.764   5.513
 2190SOL    HW2 8171   0.248   4.690   5.507
 2191SOL     OW 8172   0.626   3.930   5.327
 2191SOL    HW1 8173   0.718   3.956   5.297
 2191SOL    HW2 8174   0.626   3.916   5.426
 2192SOL     OW 8175   0.059   3.994   3.715
 2192SOL    HW1 8176   6.994   3.928   3.753
 2192SOL    HW2 8177   0.011   4.077   3.689
 2193SOL     OW 8178   1.355   4.578   5.096
 2193SOL    HW1 8179   1.300   4.640   5.040
 2193SOL    HW2 8180   1.449   4.575   5.060
 2194SOL     OW 8181   0.054   3.936   4.028
 2194SOL    HW1 8182   6.990   3.896   3.962
 2194SOL    HW2 8183   0.141   3.886   4.024
 2195SOL     OW 8184   1.173   5.047   3.898
 2195SOL    HW1 8185   1.075   5.029   3.884
 2195SOL    HW2 8186   1.193   5.048   3.996
 2196SOL     OW 8187   0.648   4.533   5.162
 2196SOL    HW1 8188   0.702   4.615   5.143
 2196SOL    HW2 8189   0.708   4.454   5.170
 2197SOL     OW 8190   1.532   5.590   4.791
 2197SOL    HW1 8191   1.565   5.641   4.712
 2197SOL    HW2 8192   1.606   5.534   4.829
 2198SOL     OW 8193   0.685   4.276   5.478
 2198SOL    HW1 8194   0.757   4.341   5.501
 2198SOL    HW2 8195   0.674   4.211   5.553
 2199SOL     OW 8196   1.449   4.910   5.346
 2199SOL    HW1 8197   1.432   4.930   5.443
 2199SOL    HW2 8198   1.544   4.930   5.324
 2200SOL     OW 8199   0.375   5.490   5.311
 2200SOL    HW1 8200   0.288   5.539   5.306
 2200SOL    HW2 8201   0.361   5.400   5.353
 2201SOL     OW 8202   1.601   4.587   4.975
 2201SOL    HW1 8203   1.604   4.500   4.925
 2201SOL    HW2 8204   1.595   4.663   4.910
 2202SOL     OW 8205   1.226   4.046   4.169
 2202SOL    HW1 8206   1.291   3.971   4.173
 2202SOL    HW2 8207   1.244   4.109   4.245
 2203SOL     OW 8208   0.494   4.480   4.440
 2203SOL    HW1 8209   0.569   4.543   4.422
 2203SOL    HW2 8210   0.451   4.454   4.354
 2204SOL     OW 8211   1.711   4.081   5.426
 2204SOL    HW1 8212   1.731   4.073   5.329
 2204SOL    HW2 8213   1.631   4.024   5.448
 2205SOL     OW 8214   1.717   4.663   5.212
 2205SOL    HW1 8215   1.705   4.761   5.224
 2205SOL    HW2 8216   1.680   4.635   5.123
 2206SOL     OW 8217   0.878   5.067   3.829
 2206SOL    HW1 8218   0.832   5.079   3.917
 2206SOL    HW2 8219   0.891   5.157   3.786
 2207SOL     OW 8220   0.678   5.422   4.705
 2207SOL    HW1 8221   0.651   5.517   4.691
 2207SOL    HW2 8222   0.778   5.415   4.703
 2208SOL     OW 8223   0.868   4.704   4.587
 2208SOL    HW1 8224   0.913   4.615   4.599
 2208SOL    HW2 8225   0.832   4.735   4.675
 2209SOL     OW 8226   1.013   4.661   3.785
 2209SOL    HW1 8227   0.994   4.738   3.724
 2209SOL    HW2 8228   1.107   4.631   3.773
 2210SOL     OW 8229   1.793   5.289   4.585
 2210SOL    HW1 8230   1.723   5.279   4.515
 2210SOL    HW2 8231   1.776   5.226   4.660
 2211SOL     OW 8232   0.227   5.037   5.606
 2211SOL    HW1 8233   0.135   4.999   5.597
 2211SOL    HW2 8234   0.246   5.057   5.703
 2212SOL     OW 8235   0.185   5.037   4.414
 2212SOL    HW1 8236   0.224   4.972   4.478
 2212SOL    HW2 8237   0.121   4.990   4.353
 2213SOL     OW 8238   0.671   5.186   5.382
 2213SOL    HW1 8239   0.591   5.137   5.417
 2213SOL    HW2 8240   0.677   5.275   5.426
 2214SOL     OW 8241   1.773   3.862   4.966
 2214SOL    HW1 8242   1.799   3.767   4.986
 2214SOL    HW2 8243   1.802   3.886   4.873
 2215SOL     OW 8244   0.424   4.133   4.256
 2215SOL    HW1 8245   0.473   4.071   4.194
 2215SOL    HW2 8246   0.379   4.080   4.327
 2216SOL     OW 8247   1.680   5.161   4.807
 2216SOL    HW1 8248   1.605   5.142   4.744
 2216SOL    HW2 8249   1.673   5.102   4.887
 2217SOL     OW 8250   0.310   4.262   5.060
 2217SOL    HW1 8251   0.350   4.188   5.114
 2217SOL    HW2 8252   0.303   4.234   4.964
 2218SOL     OW 8253   0.815   5.290   4.418
 2218SOL    HW1 8254   0.758   5.314   4.339
 2218SOL    HW2 8255   0.771   5.216   4.469
 2219SOL     OW 8256   1.428   4.044   4.826
 2219SOL    HW1 8257   1.455   3.948   4.829
 2219SOL    HW2 8258   1.361   4.063   4.898
 2220SOL     OW 8259   1.076   3.741   4.789
 2220SOL    HW1 8260   1.014   3.680   4.739
 2220SOL    HW2 8261   1.167   3.701   4.790
 2221SOL     OW 8262   0.776   5.044   4.087
 2221SOL    HW1 8263   0.757   4.946   4.100
 2221SOL    HW2 8264   0.857   5.069   4.139
 2222SOL     OW 8265   0.621   5.301   5.021
 2222SOL    HW1 8266   0.612   5.395   5.055
 2222SOL    HW2 8267   0.706   5.293   4.968
 2223SOL     OW 8268   1.356   3.747   3.928
 2223SOL    HW1 8269   1.404   3.679   3.873
 2223SOL    HW2 8270   1.263   3.716   3.945
 2224SOL     OW 8271   1.271   4.222   4.378
 2224SOL    HW1 8272   1.219   4.307   4.365
 2224SOL    HW2 8273   1.263   4.192   4.473
 2225SOL     OW 8274   1.594   3.996   4.590
 2225SOL    HW1 8275   1.544   4.044   4.663
 2225SOL    HW2 8276   1.584   4.047   4.504
 2226SOL     OW 8277   0.037   4.787   4.002
 2226SOL    HW1 8278   0.127   4.744   3.997
 2226SOL    HW2 8279   6.967   4.716   4.010
 2227SOL     OW 8280   0.897   5.407   4.067
 2227SOL    HW1 8281   0.820   5.391   4.006
 2227SOL    HW2 8282   0.876   5.484   4.128
 2228SOL     OW 8283   0.117   4.316   5.648
 2228SOL    HW1 8284   0.155   4.268   5.728
 2228SOL    HW2 8285   0.160   4.283   5.565
 2229SOL     OW 8286   0.229   3.971   6.607
 2229SOL    HW1 8287   0.287   3.935   6.680
 2229SOL    HW2 8288   0.134   3.950   6.626
 2230SOL     OW 8289   0.034   4.115   6.274
 2230SOL    HW1 8290   6.978   4.119   6.356
 2230SOL    HW2 8291   0.015   4.031   6.224
 2231SOL     OW 8292   0.552   4.847   6.721
 2231SOL    HW1 8293   0.480   4.827   6.655
 2231SOL    HW2 8294   0.528   4.929   6.773
 2232SOL     OW 8295   1.569   5.277   6.280
 2232SOL    HW1 8296   1.528   5.225   6.355
 2232SOL    HW2 8297   1.505   5.279   6.203
 2233SOL     OW 8298   1.112   4.402   6.232
 2233SOL    HW1 8299   1.144   4.497   6.238
 2233SOL    HW2 8300   1.055   4.381   6.311
 2234SOL     OW 8301   1.800   4.276   5.782
 2234SOL    HW1 8302   1.749   4.297   5.698
 2234SOL    HW2 8303   1.749   4.210   5.836
 2235SOL     OW 8304   0.810   4.892   6.638
 2235SOL    HW1 8305   0.722   4.873   6.679
 2235SOL    HW2 8306   0.809   4.984   6.598
 2236SOL     OW 8307   0.689   4.707   6.269
 2236SOL    HW1 8308   0.763   4.701   6.335
 2236SOL    HW2 8309   0.627   4.781   6.294
 2237SOL     OW 8310   0.322   5.271   6.709
 2237SOL    HW1 8311   0.236   5.317   6.686
 2237SOL    HW2 8312   0.388   5.283   6.635
 2238SOL     OW 8313   1.582   4.159   6.333
 2238SOL    HW1 8314   1.515   4.168   6.259
 2238SOL    HW2 8315   1.565   4.229   6.402
 2239SOL     OW 8316   0.269   5.463   6.072
 2239SOL    HW1 8317   0.286   5.540   6.134
 2239SOL    HW2 8318   0.332   5.469   5.994
 2240SOL     OW 8319   0.348   5.202   6.115
 2240SOL    HW1 8320   0.315   5.296   6.116
 2240SOL    HW2 8321   0.300   5.149   6.186
 2241SOL     OW 8322   0.358   4.787   6.534
 2241SOL    HW1 8323   0.344   4.688   6.525
 2241SOL    HW2 8324   0.270   4.834   6.533
 2242SOL     OW 8325   0.584   5.479   6.979
 2242SOL    HW1 8326   0.485   5.476   6.960
 2242SOL    HW2 8327   0.612   5.574   6.992
 2243SOL     OW 8328   0.575   4.738   5.780
 2243SOL    HW1 8329   0.624   4.784   5.705
 2243SOL    HW2 8330   0.621   4.757   5.867
 2244SOL     OW 8331   0.136   4.343   6.160
 2244SOL    HW1 8332   0.096   4.262   6.202
 2244SOL    HW2 8333   0.110   4.424   6.212
 2245SOL     OW 8334   6.942   5.328   5.731
 2245SOL    HW1 8335   6.968   5.236   5.759
 2245SOL    HW2 8336   6.891   5.372   5.805
 2246SOL     OW 8337   1.667   4.641   6.232
 2246SOL    HW1 8338   1.761   4.609   6.244
 2246SOL    HW2 8339   1.664   4.712   6.161
 2247SOL     OW 8340   1.661   4.851   6.036
 2247SOL    HW1 8341   1.743   4.815   5.992
 2247SOL    HW2 8342   1.677   4.945   6.066
 2248SOL     OW 8343   0.585   5.150   6.364
 2248SOL    HW1 8344   0.548   5.058   6.359
 2248SOL    HW2 8345   0.599   5.185   6.271
 2249SOL     OW 8346   0.813   3.768   6.072
 2249SOL    HW1 8347   0.866   3.844   6.034
 2249SOL    HW2 8348   0.717   3.795   6.078
 2250SOL     OW 8349   0.117   4.597   6.868
 2250SOL    HW1 8350   0.211   4.581   6.840
 2250SOL    HW2 8351   0.056   4.591   6.789
 2251SOL     OW 8352   1.550   4.781   5.787
 2251SOL    HW1 8353   1.475   4.719   5.807
 2251SOL    HW2 8354   1.591   4.813   5.873
 2252SOL     OW 8355   1.430   5.135   6.477
 2252SOL    HW1 8356   1.386   5.149   6.565
 2252SOL    HW2 8357   1.430   5.038   6.454
 2253SOL     OW 8358   1.680   5.505   6.145
 2253SOL    HW1 8359   1.687   5.454   6.059
 2253SOL    HW2 8360   1.654   5.442   6.218
 2254SOL     OW 8361   0.563   4.457   5.867
 2254SOL    HW1 8362   0.569   4.553   5.840
 2254SOL    HW2 8363   0.500   4.447   5.945
 2255SOL     OW 8364   1.278   4.120   6.486
 2255SOL    HW1 8365   1.187   4.078   6.478
 2255SOL    HW2 8366   1.334   4.066   6.549
 2256SOL     OW 8367   1.604   5.415   5.886
 2256SOL    HW1 8368   1.583   5.512   5.882
 2256SOL    HW2 8369   1.577   5.372   5.799
 2257SOL     OW 8370   0.751   4.378   0.034
 2257SOL    HW1 8371   0.696   4.401   0.115
 2257SOL    HW2 8372   0.700   4.316   6.975
 2258SOL     OW 8373   1.020   4.271   6.758
 2258SOL    HW1 8374   1.013   4.266   6.857
 2258SOL    HW2 8375   0.928   4.266   6.718
 2259SOL     OW 8376   1.032   4.394   5.970
 2259SOL    HW1 8377   1.057   4.389   6.067
 2259SOL    HW2 8378   0.940   4.355   5.958
 2260SOL     OW 8379   0.077   4.527   6.370
 2260SOL    HW1 8380   0.170   4.543   6.400
 2260SOL    HW2 8381   0.031   4.464   6.433
 2261SOL     OW 8382   0.041   5.560   0.262
 2261SOL    HW1 8383   0.027   5.462   0.251
 2261SOL    HW2 8384   0.080   5.598   0.178
 2262SOL     OW 8385   0.888   3.976   5.698
 2262SOL    HW1 8386   0.917   4.068   5.674
 2262SOL    HW2 8387   0.941   3.910   5.645
 2263SOL     OW 8388   1.395   4.883   6.152
 2263SOL    HW1 8389   1.484   4.872   6.108
 2263SOL    HW2 8390   1.341   4.950   6.101
 2264SOL     OW 8391   0.594   3.807   6.564
 2264SOL    HW1 8392   0.596   3.852   6.653
 2264SOL    HW2 8393   0.622   3.872   6.493
 2265SOL     OW 8394   0.997   5.202   6.060
 2265SOL    HW1 8395   0.978   5.275   5.994
 2265SOL    HW2 8396   0.966   5.230   6.151
 2266SOL     OW 8397   0.371   5.595   6.504
 2266SOL    HW1 8398   0.421   5.510   6.520
 2266SOL    HW2 8399   0.432   5.673   6.514
 2267SOL     OW 8400   1.818   4.809   6.427
 2267SOL    HW1 8401   1.720   4.787   6.422
 2267SOL    HW2 8402   1.844   4.826   6.522
 2268SOL     OW 8403   0.306   4.694   5.864
 2268SOL    HW1 8404   0.395   4.725   5.831
 2268SOL    HW2 8405   0.285   4.605   5.823
 2269SOL     OW 8406   1.452   4.482   6.268
 2269SOL    HW1 8407   1.444   4.442   6.359
 2269SOL    HW2 8408   1.532   4.541   6.264
 2270SOL     OW 8409   1.156   5.492   5.814
 2270SOL    HW1 8410   1.065   5.474   5.854
 2270SOL    HW2 8411   1.180   5.418   5.751
 2271SOL     OW 8412   1.612   5.116   5.664
 2271SOL    HW1 8413   1.580   5.209   5.648
 2271SOL    HW2 8414   1.538   5.051   5.643
 2272SOL     OW 8415   0.479   5.493   5.889
 2272SOL    HW1 8416   0.526   5.542   5.964
 2272SOL    HW2 8417   0.546   5.441   5.837
 2273SOL     OW 8418   1.393   3.811   6.044
 2273SOL    HW1 8419   1.394   3.786   5.947
 2273SOL    HW2 8420   1.484   3.799   6.083
 2274SOL     OW 8421   0.984   5.409   6.452
 2274SOL    HW1 8422   1.070   5.360   6.440
 2274SOL    HW2 8423   0.919   5.378   6.383
 2275SOL     OW 8424   0.404   4.376   6.083
 2275SOL    HW1 8425   0.433   4.280   6.083
 2275SOL    HW2 8426   0.308   4.381   6.107
 2276SOL     OW 8427   0.901   5.213   6.758
 2276SOL    HW1 8428   0.863   5.201   6.666
 2276SOL    HW2 8429   0.972   5.145   6.774
 2277SOL     OW 8430   0.810   5.138   6.515
 2277SOL    HW1 8431   0.893   5.124   6.461
 2277SOL    HW2 8432   0.731   5.144   6.454
 2278SOL     OW 8433   0.926   4.226   6.407
 2278SOL    HW1 8434   0.894   4.211   6.313
 2278SOL    HW2 8435   0.970   4.143   6.441
 2279SOL     OW 8436   0.538   3.836   6.065
 2279SOL    HW1 8437   0.474   3.792   6.128
 2279SOL    HW2 8438   0.515   3.934   6.058
 2280SOL     OW 8439   1.403   4.941   5.618
 2280SOL    HW1 8440   1.455   4.875   5.672
 2280SOL    HW2 8441   1.320   4.966   5.667
 2281SOL     OW 8442   0.959   3.972   5.970
 2281SOL    HW1 8443   0.939   3.973   5.872
 2281SOL    HW2 8444   1.057   3.989   5.984
 2282SOL     OW 8445   1.225   5.299   6.363
 2282SOL    HW1 8446   1.253   5.373   6.302
 2282SOL    HW2 8447   1.307   5.253   6.399
 2283SOL     OW 8448   0.494   4.895   6.321
 2283SOL    HW1 8449   0.441   4.857   6.397
 2283SOL    HW2 8450   0.441   4.885   6.236
 2284SOL     OW 8451   1.277   5.523   6.194
 2284SOL    HW1 8452   1.335   5.590   6.147
 2284SOL    HW2 8453   1.197   5.568   6.233
 2285SOL     OW 8454   0.988   4.220   5.624
 2285SOL    HW1 8455   0.960   4.311   5.593
 2285SOL    HW2 8456   1.062   4.229   5.690
 2286SOL     OW 8457   0.593   3.940   6.806
 2286SOL    HW1 8458   0.653   3.908   6.879
 2286SOL    HW2 8459   0.499   3.914   6.827
 2287SOL     OW 8460   0.856   4.162   6.149
 2287SOL    HW1 8461   0.814   4.223   6.082
 2287SOL    HW2 8462   0.900   4.085   6.102
 2288SOL     OW 8463   1.005   3.755   6.275
 2288SOL    HW1 8464   0.935   3.761   6.204
 2288SOL    HW2 8465   0.979   3.686   6.342
 2289SOL     OW 8466   1.413   4.854   6.440
 2289SOL    HW1 8467   1.358   4.777   6.472
 2289SOL    HW2 8468   1.409   4.859   6.340
 2290SOL     OW 8469   1.417   4.366   6.515
 2290SOL    HW1 8470   1.357   4.286   6.514
 2290SOL    HW2 8471   1.484   4.357   6.588
 2291SOL     OW 8472   1.798   4.481   5.961
 2291SOL    HW1 8473   1.867   4.453   6.028
 2291SOL    HW2 8474   1.796   4.416   5.886
 2292SOL     OW 8475   0.520   5.149   5.729
 2292SOL    HW1 8476   0.439   5.129   5.785
 2292SOL    HW2 8477   0.510   5.106   5.640
 2293SOL     OW 8478   1.719   5.098   6.129
 2293SOL    HW1 8479   1.805   5.062   6.166
 2293SOL    HW2 8480   1.683   5.168   6.190
 2294SOL     OW 8481   1.365   4.307   5.625
 2294SOL    HW1 8482   1.318   4.267   5.703
 2294SOL    HW2 8483   1.464   4.298   5.638
 2295SOL     OW 8484   1.750   4.816   0.203
 2295SOL    HW1 8485   1.844   4.807   0.171
 2295SOL    HW2 8486   1.717   4.909   0.188
 2296SOL     OW 8487   1.083   5.010   6.679
 2296SOL    HW1 8488   1.019   4.935   6.696
 2296SOL    HW2 8489   1.080   5.035   6.582
 2297SOL     OW 8490   1.568   4.807   6.680
 2297SOL    HW1 8491   1.576   4.892   6.733
 2297SOL    HW2 8492   1.517   4.826   6.596
 2298SOL     OW 8493   0.729   4.784   6.004
 2298SOL    HW1 8494   0.711   4.756   6.099
 2298SOL    HW2 8495   0.809   4.735   5.970
 2299SOL     OW 8496   0.391   4.539   6.822
 2299SOL    HW1 8497   0.458   4.584   6.880
 2299SOL    HW2 8498   0.380   4.444   6.852
 2300SOL     OW 8499   1.261   4.146   6.805
 2300SOL    HW1 8500   1.299   4.200   6.879
 2300SOL    HW2 8501   1.178   4.190   6.771
 2301SOL     OW 8502   0.361   4.868   6.079
 2301SOL    HW1 8503   0.352   4.952   6.026
 2301SOL    HW2 8504   0.338   4.789   6.021
 2302SOL     OW 8505   0.532   4.263   6.471
 2302SOL    HW1 8506   0.541   4.338   6.404
 2302SOL    HW2 8507   0.616   4.257   6.525
 2303SOL     OW 8508   1.246   5.086   6.011
 2303SOL    HW1 8509   1.310   5.161   6.025
 2303SOL    HW2 8510   1.154   5.116   6.037
 2304SOL     OW 8511   1.318   5.154   6.723
 2304SOL    HW1 8512   1.384   5.111   6.784
 2304SOL    HW2 8513   1.234   5.100   6.722
 2305SOL     OW 8514   1.570   4.343   6.056
 2305SOL    HW1 8515   1.511   4.386   6.125
 2305SOL    HW2 8516   1.640   4.408   6.027
 2306SOL     OW 8517   0.492   5.070   6.862
 2306SOL    HW1 8518   0.394   5.086   6.870
 2306SOL    HW2 8519   0.536   5.153   6.826
 2307SOL     OW 8520   0.617   4.535   6.640
 2307SOL    HW1 8521   0.646   4.629   6.623
 2307SOL    HW2 8522   0.530   4.534   6.690
 2308SOL     OW 8523   1.284   4.621   6.552
 2308SOL    HW1 8524   1.190   4.600   6.579
 2308SOL    HW2 8525   1.334   4.536   6.536
 2309SOL     OW 8526   1.185   4.225   5.820
 2309SOL    HW1 8527   1.211   4.149   5.879
 2309SOL    HW2 8528   1.140   4.296   5.875
 2310SOL     OW 8529   0.335   3.867   6.843
 2310SOL    HW1 8530   0.286   3.894   6.927
 2310SOL    HW2 8531   0.314   3.771   6.822
 2311SOL     OW 8532   0.065   5.046   6.746
 2311SOL    HW1 8533   0.014   4.966   6.778
 2311SOL    HW2 8534   0.133   5.071   6.814
 2312SOL     OW 8535   0.770   4.305   6.622
 2312SOL    HW1 8536   0.826   4.292   6.541
 2312SOL    HW2 8537   0.731   4.397   6.621
 2313SOL     OW 8538   0.340   3.744   6.234
 2313SOL    HW1 8539   0.304   3.836   6.252
 2313SOL    HW2 8540   0.360   3.698   6.320
 2314SOL     OW 8541   1.618   4.115   5.918
 2314SOL    HW1 8542   1.669   4.054   5.979
 2314SOL    HW2 8543   1.587   4.195   5.969
 2315SOL     OW 8544   1.023   4.532   6.647
 2315SOL    HW1 8545   0.969   4.567   6.723
 2315SOL    HW2 8546   1.046   4.436   6.664
 2316SOL     OW 8547   1.911   5.188   0.174
 2316SOL    HW1 8548   1.827   5.176   0.121
 2316SOL    HW2 8549   1.908   5.275   0.222
 2317SOL     OW 8550   1.488   3.988   5.709
 2317SOL    HW1 8551   1.448   3.904   5.745
 2317SOL    HW2 8552   1.532   4.039   5.783
 2318SOL     OW 8553   1.258   4.553   5.592
 2318SOL    HW1 8554   1.294   4.460   5.602
 2318SOL    HW2 8555   1.291   4.593   5.507
 2319SOL     OW 8556   1.054   5.083   6.409
 2319SOL    HW1 8557   1.067   4.995   6.363
 2319SOL    HW2 8558   1.122   5.148   6.374
 2320SOL     OW 8559   0.327   4.519   6.481
 2320SOL    HW1 8560   0.405   4.509   6.420
 2320SOL    HW2 8561   0.320   4.439   6.540
 2321SOL     OW 8562   0.289   4.236   6.580
 2321SOL    HW1 8563   0.262   4.140   6.587
 2321SOL    HW2 8564   0.377   4.242   6.533
 2322SOL     OW 8565   1.233   3.947   6.993
 2322SOL    HW1 8566   1.310   3.967   0.054
 2322SOL    HW2 8567   1.230   4.014   6.919
 2323SOL     OW 8568   0.008   5.078   5.848
 2323SOL    HW1 8569   6.944   5.106   5.920
 2323SOL    HW2 8570   0.014   4.979   5.844
 2324SOL     OW 8571   0.533   5.358   6.541
 2324SOL    HW1 8572   0.573   5.331   6.629
 2324SOL    HW2 8573   0.547   5.285   6.474
 2325SOL     OW 8574   0.867   4.579   6.881
 2325SOL    HW1 8575   0.935   4.626   6.938
 2325SOL    HW2 8576   0.831   4.500   6.931
 2326SOL     OW 8577   0.026   4.335   6.571
 2326SOL    HW1 8578   0.121   4.304   6.578
 2326SOL    HW2 8579   6.966   4.257   6.553
 2327SOL     OW 8580   0.778   4.294   5.918
 2327SOL    HW1 8581   0.762   4.219   5.853
 2327SOL    HW2 8582   0.709   4.365   5.904
 2328SOL     OW 8583   1.613   4.329   6.702
 2328SOL    HW1 8584   1.595   4.265   6.777
 2328SOL    HW2 8585   1.712   4.337   6.688
 2329SOL     OW 8586   0.630   4.211   6.841
 2329SOL    HW1 8587   0.622   4.112   6.830
 2329SOL    HW2 8588   0.682   4.249   6.764
 2330SOL     OW 8589   1.020   5.405   6.910
 2330SOL    HW1 8590   0.969   5.335   6.859
 2330SOL    HW2 8591   1.034   5.485   6.852
 2331SOL     OW 8592   0.203   4.816   0.022
 2331SOL    HW1 8593   0.245   4.762   0.094
 2331SOL    HW2 8594   0.156   4.756   6.958
 2332SOL     OW 8595   1.308   4.672   6.828
 2332SOL    HW1 8596   1.318   4.671   6.729
 2332SOL    HW2 8597   1.332   4.763   6.863
 2333SOL     OW 8598   1.331   4.635   5.846
 2333SOL    HW1 8599   1.271   4.601   5.918
 2333SOL    HW2 8600   1.298   4.603   5.757
 2334SOL     OW 8601   1.749   5.479   6.718
 2334SOL    HW1 8602   1.826   5.485   6.654
 2334SOL    HW2 8603   1.712   5.386   6.717
 2335SOL     OW 8604   1.310   5.435   6.737
 2335SOL    HW1 8605   1.387   5.479   6.691
 2335SOL    HW2 8606   1.320   5.336   6.732
 2336SOL     OW 8607   0.117   4.914   6.514
 2336SOL    HW1 8608   0.105   4.973   6.594
 2336SOL    HW2 8609   0.032   4.866   6.495
 2337SOL     OW 8610   1.781   3.941   6.056
 2337SOL    HW1 8611   1.830   3.916   5.973
 2337SOL    HW2 8612   1.731   3.862   6.091
 2338SOL     OW 8613   1.403   5.309   6.062
 2338SOL    HW1 8614   1.473   5.340   5.997
 2338SOL    HW2 8615   1.351   5.388   6.094
 2339SOL     OW 8616   1.252   4.652   6.200
 2339SOL    HW1 8617   1.321   4.583   6.221
 2339SOL    HW2 8618   1.296   4.736   6.169
 2340SOL     OW 8619   0.686   5.362   5.751
 2340SOL    HW1 8620   0.697   5.392   5.656
 2340SOL    HW2 8621   0.633   5.278   5.753
 2341SOL     OW 8622   1.842   3.871   6.596
 2341SOL    HW1 8623   1.879   3.782   6.569
 2341SOL    HW2 8624   1.757   3.888   6.546
 2342SOL     OW 8625   0.278   4.001   6.319
 2342SOL    HW1 8626   0.192   4.049   6.302
 2342SOL    HW2 8627   0.287   3.983   6.417
 2343SOL     OW 8628   1.221   5.293   5.638
 2343SOL    HW1 8629   1.215   5.202   5.680
 2343SOL    HW2 8630   1.140   5.307   5.580
 2344SOL     OW 8631   0.613   4.681   6.929
 2344SOL    HW1 8632   0.704   4.646   6.909
 2344SOL    HW2 8633   0.587   4.749   6.861
 2345SOL     OW 8634   0.937   4.645   5.907
 2345SOL    HW1 8635   0.966   4.663   5.813
 2345SOL    HW2 8636   0.976   4.559   5.938
 2346SOL     OW 8637   1.487   5.372   5.632
 2346SOL    HW1 8638   1.392   5.343   5.623
 2346SOL    HW2 8639   1.528   5.381   5.541
 2347SOL     OW 8640   1.543   5.037   6.859
 2347SOL    HW1 8641   1.598   5.085   6.928
 2347SOL    HW2 8642   1.477   4.977   6.904
 2348SOL     OW 8643   1.070   4.830   6.313
 2348SOL    HW1 8644   0.999   4.779   6.362
 2348SOL    HW2 8645   1.132   4.767   6.267
 2349SOL     OW 8646   1.044   3.971   6.462
 2349SOL    HW1 8647   1.037   3.918   6.378
 2349SOL    HW2 8648   1.044   3.909   6.541
 2350SOL     OW 8649   0.625   5.228   6.104
 2350SOL    HW1 8650   0.671   5.168   6.038
 2350SOL    HW2 8651   0.526   5.221   6.092
 2351SOL     OW 8652   1.618   4.156   6.917
 2351SOL    HW1 8653   1.681   4.201   6.982
 2351SOL    HW2 8654   1.654   4.066   6.893
 2352SOL     OW 8655   0.280   5.098   5.875
 2352SOL    HW1 8656   0.180   5.101   5.872
 2352SOL    HW2 8657   0.313   5.144   5.958
 2353SOL     OW 8658   0.752   3.872   0.021
 2353SOL    HW1 8659   0.847   3.843   0.027
 2353SOL    HW2 8660   0.736   3.950   0.081
 2354SOL     OW 8661   1.173   5.040   5.741
 2354SOL    HW1 8662   1.074   5.028   5.731
 2354SOL    HW2 8663   1.198   5.041   5.838
 2355SOL     OW 8664   1.513   5.580   6.622
 2355SOL    HW1 8665   1.531   5.634   6.540
 2355SOL    HW2 8666   1.599   5.542   6.656
 2356SOL     OW 8667   1.494   5.037   0.254
 2356SOL    HW1 8668   1.420   5.073   0.311
 2356SOL    HW2 8669   1.481   4.939   0.242
 2357SOL     OW 8670   1.666   4.581   6.826
 2357SOL    HW1 8671   1.629   4.499   6.782
 2357SOL    HW2 8672   1.635   4.663   6.777
 2358SOL     OW 8673   1.227   4.031   6.017
 2358SOL    HW1 8674   1.284   3.949   6.022
 2358SOL    HW2 8675   1.252   4.094   6.090
 2359SOL     OW 8676   0.531   4.482   6.302
 2359SOL    HW1 8677   0.594   4.558   6.287
 2359SOL    HW2 8678   0.493   4.452   6.215
 2360SOL     OW 8679   1.745   4.548   0.090
 2360SOL    HW1 8680   1.748   4.639   0.133
 2360SOL    HW2 8681   1.716   4.558   6.995
 2361SOL     OW 8682   0.882   5.077   5.696
 2361SOL    HW1 8683   0.836   5.083   5.785
 2361SOL    HW2 8684   0.887   5.168   5.655
 2362SOL     OW 8685   0.751   5.537   6.560
 2362SOL    HW1 8686   0.672   5.479   6.541
 2362SOL    HW2 8687   0.835   5.491   6.531
 2363SOL     OW 8688   0.885   4.695   6.468
 2363SOL    HW1 8689   0.933   4.624   6.519
 2363SOL    HW2 8690   0.859   4.769   6.531
 2364SOL     OW 8691   1.020   4.667   5.651
 2364SOL    HW1 8692   1.002   4.742   5.588
 2364SOL    HW2 8693   1.110   4.628   5.632
 2365SOL     OW 8694   0.182   5.053   6.284
 2365SOL    HW1 8695   0.179   5.008   6.373
 2365SOL    HW2 8696   0.128   5.001   6.219
 2366SOL     OW 8697   1.761   3.917   6.856
 2366SOL    HW1 8698   1.723   3.829   6.884
 2366SOL    HW2 8699   1.792   3.911   6.761
 2367SOL     OW 8700   0.404   4.089   6.075
 2367SOL    HW1 8701   0.329   4.118   6.017
 2367SOL    HW2 8702   0.369   4.065   6.166
 2368SOL     OW 8703   1.625   5.239   6.675
 2368SOL    HW1 8704   1.581   5.215   6.588
 2368SOL    HW2 8705   1.614   5.164   6.740
 2369SOL     OW 8706   0.357   4.264   6.845
 2369SOL    HW1 8707   0.453   4.240   6.860
 2369SOL    HW2 8708   0.336   4.256   6.748
 2370SOL     OW 8709   0.827   5.366   6.232
 2370SOL    HW1 8710   0.834   5.457   6.191
 2370SOL    HW2 8711   0.751   5.316   6.191
 2371SOL     OW 8712   1.411   3.963   6.672
 2371SOL    HW1 8713   1.402   3.871   6.710
 2371SOL    HW2 8714   1.364   4.029   6.731
 2372SOL     OW 8715   1.049   3.739   6.620
 2372SOL    HW1 8716   1.005   3.670   6.562
 2372SOL    HW2 8717   1.122   3.695   6.673
 2373SOL     OW 8718   0.782   5.054   5.955
 2373SOL    HW1 8719   0.762   4.958   5.973
 2373SOL    HW2 8720   0.867   5.080   6.001
 2374SOL     OW 8721   0.639   5.294   6.784
 2374SOL    HW1 8722   0.623   5.363   6.854
 2374SOL    HW2 8723   0.735   5.265   6.787
 2375SOL     OW 8724   1.385   3.742   5.781
 2375SOL    HW1 8725   1.437   3.672   5.731
 2375SOL    HW2 8726   1.291   3.710   5.795
 2376SOL     OW 8727   1.300   4.193   6.224
 2376SOL    HW1 8728   1.244   4.276   6.215
 2376SOL    HW2 8729   1.296   4.161   6.319
 2377SOL     OW 8730   1.599   3.915   6.482
 2377SOL    HW1 8731   1.531   3.938   6.552
 2377SOL    HW2 8732   1.600   3.987   6.412
 2378SOL     OW 8733   0.050   4.804   5.867
 2378SOL    HW1 8734   0.144   4.768   5.872
 2378SOL    HW2 8735   6.986   4.727   5.869
 2379SOL     OW 8736   0.905   5.420   5.912
 2379SOL    HW1 8737   0.826   5.397   5.856
 2379SOL    HW2 8738   0.880   5.493   5.976
 2380SOL     OW 8739   0.206   5.847   1.014
 2380SOL    HW1 8740   0.258   5.810   1.091
 2380SOL    HW2 8741   0.109   5.824   1.024
 2381SOL     OW 8742   0.012   5.964   0.638
 2381SOL    HW1 8743   6.956   5.944   0.719
 2381SOL    HW2 8744   0.010   5.886   0.576
 2382SOL     OW 8745   0.566   6.849   1.184
 2382SOL    HW1 8746   0.516   6.903   1.116
 2382SOL    HW2 8747   0.512   6.842   1.268
 2383SOL     OW 8748   1.671   0.076   0.669
 2383SOL    HW1 8749   1.669   0.143   0.743
 2383SOL    HW2 8750   1.578   0.043   0.652
 2384SOL     OW 8751   1.105   6.333   0.684
 2384SOL    HW1 8752   1.150   6.422   0.673
 2384SOL    HW2 8753   1.057   6.332   0.772
 2385SOL     OW 8754   1.722   6.114   0.130
 2385SOL    HW1 8755   1.697   6.211   0.123
 2385SOL    HW2 8756   1.676   6.073   0.208
 2386SOL     OW 8757   0.640   6.661   0.993
 2386SOL    HW1 8758   0.623   6.727   1.067
 2386SOL    HW2 8759   0.588   6.688   0.913
 2387SOL     OW 8760   0.883   6.321   1.852
 2387SOL    HW1 8761   0.893   6.378   1.933
 2387SOL    HW2 8762   0.894   6.377   1.770
 2388SOL     OW 8763   0.688   6.550   0.656
 2388SOL    HW1 8764   0.764   6.550   0.720
 2388SOL    HW2 8765   0.612   6.602   0.695
 2389SOL     OW 8766   0.673   6.768   1.861
 2389SOL    HW1 8767   0.677   6.819   1.947
 2389SOL    HW2 8768   0.644   6.829   1.787
 2390SOL     OW 8769   0.419   6.989   0.998
 2390SOL    HW1 8770   0.359   6.944   0.933
 2390SOL    HW2 8771   0.455   0.073   0.958
 2391SOL     OW 8772   0.478   5.932   1.447
 2391SOL    HW1 8773   0.558   5.874   1.465
 2391SOL    HW2 8774   0.396   5.887   1.481
 2392SOL     OW 8775   1.591   6.059   0.736
 2392SOL    HW1 8776   1.555   6.092   0.649
 2392SOL    HW2 8777   1.545   6.105   0.811
 2393SOL     OW 8778   0.241   6.685   0.899
 2393SOL    HW1 8779   0.234   6.590   0.928
 2393SOL    HW2 8780   0.179   6.741   0.955
 2394SOL     OW 8781   0.599   6.489   0.201
 2394SOL    HW1 8782   0.645   6.491   0.112
 2394SOL    HW2 8783   0.651   6.544   0.266
 2395SOL     OW 8784   1.561   5.720   1.458
 2395SOL    HW1 8785   1.624   5.793   1.430
 2395SOL    HW2 8786   1.512   5.747   1.541
 2396SOL     OW 8787   0.104   6.214   0.569
 2396SOL    HW1 8788   0.063   6.129   0.600
 2396SOL    HW2 8789   0.080   6.288   0.633
 2397SOL     OW 8790   1.681   6.418   0.620
 2397SOL    HW1 8791   1.763   6.412   0.677
 2397SOL    HW2 8792   1.683   6.502   0.566
 2398SOL     OW 8793   1.688   6.666   0.498
 2398SOL    HW1 8794   1.730   6.699   0.413
 2398SOL    HW2 8795   1.728   6.716   0.576
 2399SOL     OW 8796   0.224   6.306   1.563
 2399SOL    HW1 8797   0.323   6.304   1.558
 2399SOL    HW2 8798   0.193   6.397   1.589
 2400SOL     OW 8799   1.235   6.795   1.419
 2400SOL    HW1 8800   1.264   6.725   1.354
 2400SOL    HW2 8801   1.304   6.804   1.491
 2401SOL     OW 8802   0.833   5.611   0.515
 2401SOL    HW1 8803   0.879   5.698   0.494
 2401SOL    HW2 8804   0.734   5.624   0.511
 2402SOL     OW 8805   0.196   6.564   1.274
 2402SOL    HW1 8806   0.259   6.490   1.249
 2402SOL    HW2 8807   0.112   6.556   1.221
 2403SOL     OW 8808   1.478   6.614   0.301
 2403SOL    HW1 8809   1.421   6.535   0.324
 2403SOL    HW2 8810   1.553   6.621   0.367
 2404SOL     OW 8811   0.323   5.851   1.891
 2404SOL    HW1 8812   0.347   5.930   1.946
 2404SOL    HW2 8813   0.225   5.855   1.868
 2405SOL     OW 8814   1.405   6.916   0.952
 2405SOL    HW1 8815   1.316   6.906   0.996
 2405SOL    HW2 8816   1.440   6.825   0.928
 2406SOL     OW 8817   0.561   6.237   0.291
 2406SOL    HW1 8818   0.582   6.326   0.251
 2406SOL    HW2 8819   0.495   6.248   0.365
 2407SOL     OW 8820   1.268   5.971   0.934
 2407SOL    HW1 8821   1.181   5.921   0.930
 2407SOL    HW2 8822   1.331   5.922   0.995
 2408SOL     OW 8823   0.793   6.149   1.441
 2408SOL    HW1 8824   0.764   6.128   1.534
 2408SOL    HW2 8825   0.770   6.073   1.380
 2409SOL     OW 8826   1.364   6.057   1.654
 2409SOL    HW1 8827   1.370   6.104   1.742
 2409SOL    HW2 8828   1.405   5.966   1.662
 2410SOL     OW 8829   0.920   6.470   1.618
 2410SOL    HW1 8830   0.981   6.404   1.573
 2410SOL    HW2 8831   0.869   6.521   1.549
 2411SOL     OW 8832   1.008   5.946   1.187
 2411SOL    HW1 8833   0.913   5.954   1.218
 2411SOL    HW2 8834   1.012   5.895   1.101
 2412SOL     OW 8835   1.066   6.287   0.413
 2412SOL    HW1 8836   1.082   6.300   0.511
 2412SOL    HW2 8837   0.976   6.245   0.399
 2413SOL     OW 8838   0.060   6.399   0.776
 2413SOL    HW1 8839   0.151   6.403   0.818
 2413SOL    HW2 8840   6.991   6.384   0.847
 2414SOL     OW 8841   0.880   5.930   0.234
 2414SOL    HW1 8842   0.822   5.975   0.166
 2414SOL    HW2 8843   0.922   5.849   0.193
 2415SOL     OW 8844   1.646   6.157   1.843
 2415SOL    HW1 8845   1.648   6.244   1.794
 2415SOL    HW2 8846   1.662   6.082   1.779
 2416SOL     OW 8847   1.454   6.744   0.638
 2416SOL    HW1 8848   1.529   6.725   0.575
 2416SOL    HW2 8849   1.436   6.843   0.640
 2417SOL     OW 8850   0.577   5.683   0.940
 2417SOL    HW1 8851   0.578   5.709   1.037
 2417SOL    HW2 8852   0.583   5.766   0.884
 2418SOL     OW 8853   1.816   6.658   0.912
 2418SOL    HW1 8854   1.787   6.717   0.836
 2418SOL    HW2 8855   1.743   6.655   0.981
 2419SOL     OW 8856   0.370   6.530   0.352
 2419SOL    HW1 8857   0.447   6.521   0.289
 2419SOL    HW2 8858   0.356   6.444   0.401
 2420SOL     OW 8859   1.440   6.386   0.746
 2420SOL    HW1 8860   1.443   6.309   0.810
 2420SOL    HW2 8861   1.529   6.397   0.702
 2421SOL     OW 8862   0.213   5.839   1.495
 2421SOL    HW1 8863   0.151   5.917   1.486
 2421SOL    HW2 8864   0.169   5.769   1.550
 2422SOL     OW 8865   1.731   6.995   0.099
 2422SOL    HW1 8866   1.773   0.069   0.153
 2422SOL    HW2 8867   1.633   0.011   0.091
 2423SOL     OW 8868   1.405   5.702   0.492
 2423SOL    HW1 8869   1.390   5.670   0.399
 2423SOL    HW2 8870   1.499   5.680   0.520
 2424SOL     OW 8871   0.362   6.260   0.484
 2424SOL    HW1 8872   0.394   6.169   0.513
 2424SOL    HW2 8873   0.265   6.269   0.506
 2425SOL     OW 8874   1.444   5.792   1.710
 2425SOL    HW1 8875   1.456   5.815   1.806
 2425SOL    HW2 8876   1.379   5.717   1.701
 2426SOL     OW 8877   0.779   5.857   1.755
 2426SOL    HW1 8878   0.865   5.805   1.754
 2426SOL    HW2 8879   0.718   5.818   1.824
 2427SOL     OW 8880   1.291   6.187   1.426
 2427SOL    HW1 8881   1.326   6.148   1.511
 2427SOL    HW2 8882   1.335   6.275   1.409
 2428SOL     OW 8883   0.916   6.085   0.890
 2428SOL    HW1 8884   0.889   6.077   0.795
 2428SOL    HW2 8885   0.953   5.998   0.922
 2429SOL     OW 8886   0.564   5.650   0.482
 2429SOL    HW1 8887   0.482   5.656   0.540
 2429SOL    HW2 8888   0.557   5.717   0.408
 2430SOL     OW 8889   1.459   6.728   0.047
 2430SOL    HW1 8890   1.461   6.680   0.134
 2430SOL    HW2 8891   1.413   6.671   6.979
 2431SOL     OW 8892   0.969   5.846   0.474
 2431SOL    HW1 8893   0.933   5.877   0.386
 2431SOL    HW2 8894   1.067   5.863   0.477
 2432SOL     OW 8895   1.034   6.287   1.443
 2432SOL    HW1 8896   0.961   6.218   1.448
 2432SOL    HW2 8897   1.123   6.241   1.437
 2433SOL     OW 8898   1.404   0.009   0.691
 2433SOL    HW1 8899   1.327   0.068   0.664
 2433SOL    HW2 8900   1.398   6.990   0.789
 2434SOL     OW 8901   0.478   6.694   0.766
 2434SOL    HW1 8902   0.395   6.688   0.821
 2434SOL    HW2 8903   0.456   6.728   0.675
 2435SOL     OW 8904   1.011   6.168   0.029
 2435SOL    HW1 8905   0.924   6.122   0.045
 2435SOL    HW2 8906   1.078   6.137   0.097
 2436SOL     OW 8907   0.097   6.118   1.387
 2436SOL    HW1 8908   0.188   6.103   1.348
 2436SOL    HW2 8909   0.103   6.187   1.459
 2437SOL     OW 8910   0.570   5.745   1.204
 2437SOL    HW1 8911   0.599   5.669   1.262
 2437SOL    HW2 8912   0.472   5.762   1.218
 2438SOL     OW 8913   0.852   6.040   0.632
 2438SOL    HW1 8914   0.830   6.106   0.560
 2438SOL    HW2 8915   0.895   5.960   0.591
 2439SOL     OW 8916   1.011   5.620   0.731
 2439SOL    HW1 8917   0.947   5.619   0.654
 2439SOL    HW2 8918   0.989   5.545   0.793
 2440SOL     OW 8919   1.457   6.651   0.904
 2440SOL    HW1 8920   1.398   6.571   0.921
 2440SOL    HW2 8921   1.462   6.667   0.806
 2441SOL     OW 8922   1.440   6.191   0.942
 2441SOL    HW1 8923   1.373   6.117   0.949
 2441SOL    HW2 8924   1.503   6.188   1.019
 2442SOL     OW 8925   1.870   6.430   0.298
 2442SOL    HW1 8926   1.880   6.365   0.374
 2442SOL    HW2 8927   1.794   6.401   0.240
 2443SOL     OW 8928   1.795   6.828   0.694
 2443SOL    HW1 8929   1.893   6.833   0.677
 2443SOL    HW2 8930   1.755   6.919   0.683
 2444SOL     OW 8931   1.360   6.143   0.021
 2444SOL    HW1 8932   1.310   6.112   0.102
 2444SOL    HW2 8933   1.433   6.078   0.000
 2445SOL     OW 8934   0.564   5.805   0.261
 2445SOL    HW1 8935   0.614   5.770   0.182
 2445SOL    HW2 8936   0.508   5.883   0.233
 2446SOL     OW 8937   1.767   6.787   1.569
 2446SOL    HW1 8938   1.814   6.744   1.646
 2446SOL    HW2 8939   1.802   6.880   1.556
 2447SOL     OW 8940   1.018   6.891   1.266
 2447SOL    HW1 8941   0.929   6.882   1.311
 2447SOL    HW2 8942   1.091   6.868   1.330
 2448SOL     OW 8943   1.174   6.819   1.056
 2448SOL    HW1 8944   1.107   6.844   1.126
 2448SOL    HW2 8945   1.126   6.789   0.974
 2449SOL     OW 8946   1.628   6.665   1.119
 2449SOL    HW1 8947   1.608   6.733   1.190
 2449SOL    HW2 8948   1.553   6.664   1.053
 2450SOL     OW 8949   0.936   5.644   1.384
 2450SOL    HW1 8950   0.952   5.622   1.288
 2450SOL    HW2 8951   1.016   5.691   1.421
 2451SOL     OW 8952   0.934   6.674   1.805
 2451SOL    HW1 8953   0.841   6.703   1.826
 2451SOL    HW2 8954   0.932   6.604   1.734
 2452SOL     OW 8955   0.741   6.622   0.393
 2452SOL    HW1 8956   0.726   6.595   0.488
 2452SOL    HW2 8957   0.827   6.582   0.360
 2453SOL     OW 8958   0.406   6.370   1.255
 2453SOL    HW1 8959   0.485   6.385   1.315
 2453SOL    HW2 8960   0.372   6.277   1.267
 2454SOL     OW 8961   1.257   5.952   1.292
 2454SOL    HW1 8962   1.274   6.039   1.337
 2454SOL    HW2 8963   1.165   5.953   1.252
 2455SOL     OW 8964   0.111   0.167   1.373
 2455SOL    HW1 8965   0.028   0.217   1.349
 2455SOL    HW2 8966   0.152   0.208   1.455
 2456SOL     OW 8967   0.397   6.758   0.508
 2456SOL    HW1 8968   0.466   6.817   0.465
 2456SOL    HW2 8969   0.386   6.675   0.453
 2457SOL     OW 8970   0.512   6.103   0.855
 2457SOL    HW1 8971   0.532   6.172   0.785
 2457SOL    HW2 8972   0.580   6.108   0.927
 2458SOL     OW 8973   1.539   6.213   0.492
 2458SOL    HW1 8974   1.460   6.257   0.451
 2458SOL    HW2 8975   1.598   6.282   0.534
 2459SOL     OW 8976   0.502   6.283   1.625
 2459SOL    HW1 8977   0.543   6.325   1.545
 2459SOL    HW2 8978   0.566   6.216   1.664
 2460SOL     OW 8979   1.641   6.396   1.711
 2460SOL    HW1 8980   1.548   6.429   1.693
 2460SOL    HW2 8981   1.702   6.424   1.637
 2461SOL     OW 8982   1.006   5.707   1.761
 2461SOL    HW1 8983   1.058   5.790   1.744
 2461SOL    HW2 8984   1.062   5.627   1.738
 2462SOL     OW 8985   0.484   5.660   1.778
 2462SOL    HW1 8986   0.439   5.612   1.702
 2462SOL    HW2 8987   0.426   5.734   1.810
 2463SOL     OW 8988   0.564   6.402   1.033
 2463SOL    HW1 8989   0.594   6.496   1.022
 2463SOL    HW2 8990   0.504   6.396   1.113
 2464SOL     OW 8991   1.281   6.423   1.007
 2464SOL    HW1 8992   1.186   6.399   0.984
 2464SOL    HW2 8993   1.341   6.346   0.986
 2465SOL     OW 8994   1.186   6.099   0.242
 2465SOL    HW1 8995   1.214   6.019   0.295
 2465SOL    HW2 8996   1.147   6.168   0.303
 2466SOL     OW 8997   0.301   5.747   1.248
 2466SOL    HW1 8998   0.267   5.781   1.335
 2466SOL    HW2 8999   0.279   5.650   1.239
 2467SOL     OW 9000   0.127   6.911   1.287
 2467SOL    HW1 9001   0.155   6.844   1.356
 2467SOL    HW2 9002   0.116   0.000   1.329
 2468SOL     OW 9003   0.700   6.163   1.049
 2468SOL    HW1 9004   0.779   6.152   0.989
 2468SOL    HW2 9005   0.660   6.254   1.036
 2469SOL     OW 9006   1.748   6.598   1.869
 2469SOL    HW1 9007   1.708   6.517   1.828
 2469SOL    HW2 9008   1.698   6.621   1.953
 2470SOL     OW 9009   0.337   5.642   0.643
 2470SOL    HW1 9010   0.302   5.732   0.671
 2470SOL    HW2 9011   0.349   5.584   0.724
 2471SOL     OW 9012   1.597   5.993   0.340
 2471SOL    HW1 9013   1.658   5.931   0.389
 2471SOL    HW2 9014   1.571   6.069   0.400
 2472SOL     OW 9015   1.012   6.333   0.959
 2472SOL    HW1 9016   0.986   6.352   1.054
 2472SOL    HW2 9017   0.986   6.239   0.936
 2473SOL     OW 9018   1.914   0.033   1.569
 2473SOL    HW1 9019   1.961   0.115   1.535
 2473SOL    HW2 9020   1.963   6.996   1.647
 2474SOL     OW 9021   0.393   6.457   1.806
 2474SOL    HW1 9022   0.457   6.485   1.877
 2474SOL    HW2 9023   0.437   6.392   1.745
 2475SOL     OW 9024   1.404   5.874   0.176
 2475SOL    HW1 9025   1.391   5.780   0.206
 2475SOL    HW2 9026   1.471   5.919   0.236
 2476SOL     OW 9027   1.343   6.413   0.055
 2476SOL    HW1 9028   1.349   6.315   0.035
 2476SOL    HW2 9029   1.350   6.465   6.970
 2477SOL     OW 9030   0.295   6.388   0.924
 2477SOL    HW1 9031   0.393   6.404   0.932
 2477SOL    HW2 9032   0.273   6.297   0.959
 2478SOL     OW 9033   0.281   6.107   0.998
 2478SOL    HW1 9034   0.244   6.015   1.000
 2478SOL    HW2 9035   0.362   6.109   0.939
 2479SOL     OW 9036   1.117   5.946   1.692
 2479SOL    HW1 9037   1.069   5.995   1.765
 2479SOL    HW2 9038   1.203   5.994   1.671
 2480SOL     OW 9039   1.160   5.771   1.480
 2480SOL    HW1 9040   1.136   5.834   1.554
 2480SOL    HW2 9041   1.207   5.821   1.408
 2481SOL     OW 9042   6.941   6.834   0.156
 2481SOL    HW1 9043   6.920   6.894   0.234
 2481SOL    HW2 9044   0.016   6.773   0.181
 2482SOL     OW 9045   0.913   6.371   1.210
 2482SOL    HW1 9046   0.968   6.351   1.290
 2482SOL    HW2 9047   0.830   6.315   1.212
 2483SOL     OW 9048   0.045   6.197   1.121
 2483SOL    HW1 9049   0.128   6.167   1.075
 2483SOL    HW2 9050   0.053   6.180   1.220
 2484SOL     OW 9051   0.236   6.139   1.777
 2484SOL    HW1 9052   0.314   6.077   1.772
 2484SOL    HW2 9053   0.237   6.199   1.696
 2485SOL     OW 9054   1.400   6.508   1.640
 2485SOL    HW1 9055   1.415   6.607   1.641
 2485SOL    HW2 9056   1.390   6.477   1.545
 2486SOL     OW 9057   0.822   6.161   0.379
 2486SOL    HW1 9058   0.845   6.076   0.331
 2486SOL    HW2 9059   0.730   6.191   0.351
 2487SOL     OW 9060   1.619   6.177   1.149
 2487SOL    HW1 9061   1.594   6.105   1.214
 2487SOL    HW2 9062   1.717   6.173   1.130
 2488SOL     OW 9063   0.739   5.968   1.238
 2488SOL    HW1 9064   0.677   5.890   1.233
 2488SOL    HW2 9065   0.712   6.036   1.170
 2489SOL     OW 9066   0.414   6.024   0.192
 2489SOL    HW1 9067   0.465   6.103   0.226
 2489SOL    HW2 9068   0.329   6.015   0.245
 2490SOL     OW 9069   0.205   6.720   1.488
 2490SOL    HW1 9070   0.199   6.661   1.569
 2490SOL    HW2 9071   0.204   6.663   1.405
 2491SOL     OW 9072   1.292   6.616   1.200
 2491SOL    HW1 9073   1.290   6.539   1.136
 2491SOL    HW2 9074   1.259   6.698   1.154
 2492SOL     OW 9075   1.334   6.377   0.335
 2492SOL    HW1 9076   1.244   6.352   0.369
 2492SOL    HW2 9077   1.333   6.382   0.235
 2493SOL     OW 9078   0.071   6.858   1.029
 2493SOL    HW1 9079   0.098   6.870   1.124
 2493SOL    HW2 9080   6.973   6.837   1.024
 2494SOL     OW 9081   0.972   5.709   0.100
 2494SOL    HW1 9082   1.048   5.758   0.056
 2494SOL    HW2 9083   1.007   5.626   0.145
 2495SOL     OW 9084   1.776   5.820   0.463
 2495SOL    HW1 9085   1.847   5.790   0.399
 2495SOL    HW2 9086   1.731   5.741   0.503
 2496SOL     OW 9087   1.251   6.566   0.682
 2496SOL    HW1 9088   1.314   6.493   0.709
 2496SOL    HW2 9089   1.303   6.642   0.644
 2497SOL     OW 9090   0.766   6.851   1.376
 2497SOL    HW1 9091   0.722   6.885   1.459
 2497SOL    HW2 9092   0.702   6.857   1.300
 2498SOL     OW 9093   1.850   5.726   0.988
 2498SOL    HW1 9094   1.872   5.633   0.959
 2498SOL    HW2 9095   1.765   5.755   0.945
 2499SOL     OW 9096   0.254   5.884   0.744
 2499SOL    HW1 9097   0.169   5.924   0.711
 2499SOL    HW2 9098   0.247   5.865   0.842
 2500SOL     OW 9099   0.812   6.581   1.390
 2500SOL    HW1 9100   0.862   6.550   1.310
 2500SOL    HW2 9101   0.797   6.680   1.384
 2501SOL     OW 9102   0.961   6.515   0.283
 2501SOL    HW1 9103   1.006   6.540   0.197
 2501SOL    HW2 9104   1.008   6.436   0.323
 2502SOL     OW 9105   0.447   6.847   1.429
 2502SOL    HW1 9106   0.488   6.886   1.511
 2502SOL    HW2 9107   0.361   6.802   1.453
 2503SOL     OW 9108   1.604   6.853   1.341
 2503SOL    HW1 9109   1.670   6.801   1.395
 2503SOL    HW2 9110   1.574   6.933   1.393
 2504SOL     OW 9111   1.066   6.730   0.818
 2504SOL    HW1 9112   0.985   6.672   0.832
 2504SOL    HW2 9113   1.135   6.679   0.766
 2505SOL     OW 9114   1.033   5.806   0.946
 2505SOL    HW1 9115   1.027   5.767   0.854
 2505SOL    HW2 9116   1.032   5.732   1.013
 2506SOL     OW 9117   1.763   5.925   1.413
 2506SOL    HW1 9118   1.823   6.004   1.407
 2506SOL    HW2 9119   1.802   5.850   1.360
 2507SOL     OW 9120   0.160   6.545   1.700
 2507SOL    HW1 9121   0.104   6.602   1.759
 2507SOL    HW2 9122   0.244   6.520   1.749
 2508SOL     OW 9123   0.710   5.770   1.502
 2508SOL    HW1 9124   0.793   5.740   1.456
 2508SOL    HW2 9125   0.733   5.807   1.592
 2509SOL     OW 9126   1.405   6.435   1.377
 2509SOL    HW1 9127   1.355   6.500   1.320
 2509SOL    HW2 9128   1.500   6.431   1.346
 2510SOL     OW 9129   0.020   5.776   0.429
 2510SOL    HW1 9130   0.093   5.839   0.402
 2510SOL    HW2 9131   0.026   5.693   0.374
 2511SOL     OW 9132   0.636   6.373   1.406
 2511SOL    HW1 9133   0.692   6.457   1.404
 2511SOL    HW2 9134   0.696   6.294   1.414
 2512SOL     OW 9135   0.723   6.127   1.709
 2512SOL    HW1 9136   0.775   6.189   1.769
 2512SOL    HW2 9137   0.745   6.032   1.732
 2513SOL     OW 9138   1.458   6.775   1.644
 2513SOL    HW1 9139   1.442   6.796   1.741
 2513SOL    HW2 9140   1.551   6.800   1.619
 2514SOL     OW 9141   1.658   6.434   1.268
 2514SOL    HW1 9142   1.651   6.349   1.216
 2514SOL    HW2 9143   1.656   6.512   1.205
 2515SOL     OW 9144   1.234   5.920   0.465
 2515SOL    HW1 9145   1.301   5.846   0.477
 2515SOL    HW2 9146   1.243   5.986   0.540
 2516SOL     OW 9147   0.564   6.301   0.673
 2516SOL    HW1 9148   0.619   6.385   0.668
 2516SOL    HW2 9149   0.486   6.309   0.612
 2517SOL     OW 9150   1.681   5.941   1.676
 2517SOL    HW1 9151   1.709   5.938   1.580
 2517SOL    HW2 9152   1.605   5.877   1.690
 2518SOL     OW 9153   1.786   6.503   1.502
 2518SOL    HW1 9154   1.785   6.603   1.510
 2518SOL    HW2 9155   1.744   6.476   1.416
 2519SOL     OW 9156   0.863   6.556   0.868
 2519SOL    HW1 9157   0.907   6.476   0.909
 2519SOL    HW2 9158   0.791   6.590   0.928
 2520SOL     OW 9159   1.095   6.561   0.041
 2520SOL    HW1 9160   1.051   6.507   6.969
 2520SOL    HW2 9161   1.187   6.525   0.058
 2521SOL     OW 9162   0.226   6.953   1.996
 2521SOL    HW1 9163   0.126   6.947   1.992
 2521SOL    HW2 9164   0.253   0.011   2.073
 2522SOL     OW 9165   0.204   6.868   0.679
 2522SOL    HW1 9166   0.187   6.808   0.757
 2522SOL    HW2 9167   0.252   6.818   0.608
 2523SOL     OW 9168   0.585   6.967   1.640
 2523SOL    HW1 9169   0.526   6.992   1.716
 2523SOL    HW2 9170   0.615   0.049   1.592
 2524SOL     OW 9171   1.874   5.731   1.262
 2524SOL    HW1 9172   1.936   5.655   1.280
 2524SOL    HW2 9173   1.858   5.739   1.164
 2525SOL     OW 9174   0.425   6.004   0.562
 2525SOL    HW1 9175   0.523   5.991   0.577
 2525SOL    HW2 9176   0.375   5.968   0.640
 2526SOL     OW 9177   1.565   0.035   1.139
 2526SOL    HW1 9178   1.511   6.997   1.064
 2526SOL    HW2 9179   1.577   6.965   1.209
 2527SOL     OW 9180   0.346   6.104   1.280
 2527SOL    HW1 9181   0.404   6.043   1.334
 2527SOL    HW2 9182   0.353   6.079   1.184
 2528SOL     OW 9183   1.433   5.844   1.113
 2528SOL    HW1 9184   1.458   5.749   1.132
 2528SOL    HW2 9185   1.377   5.880   1.187
 2529SOL     OW 9186   1.024   5.583   1.115
 2529SOL    HW1 9187   0.972   5.512   1.067
 2529SOL    HW2 9188   1.119   5.554   1.124
 2530SOL     OW 9189   0.815   6.875   0.311
 2530SOL    HW1 9190   0.789   6.783   0.343
 2530SOL    HW2 9191   0.827   6.935   0.390
 2531SOL     OW 9192   1.355   5.610   0.242
 2531SOL    HW1 9193   1.405   5.551   0.179
 2531SOL    HW2 9194   1.258   5.584   0.243
 2532SOL     OW 9195   1.248   6.088   0.677
 2532SOL    HW1 9196   1.202   6.177   0.682
 2532SOL    HW2 9197   1.256   6.050   0.769
 2533SOL     OW 9198   1.608   5.812   0.897
 2533SOL    HW1 9199   1.546   5.836   0.971
 2533SOL    HW2 9200   1.604   5.882   0.826
 2534SOL     OW 9201   0.142   6.648   0.244
 2534SOL    HW1 9202   0.226   6.614   0.285
 2534SOL    HW2 9203   0.078   6.572   0.232
 2535SOL     OW 9204   0.165   6.299   1.998
 2535SOL    HW1 9205   0.145   6.232   2.070
 2535SOL    HW2 9206   0.206   6.252   1.920
 2536SOL     OW 9207   0.201   5.823   2.866
 2536SOL    HW1 9208   0.251   5.789   2.946
 2536SOL    HW2 9209   0.103   5.805   2.878
 2537SOL     OW 9210   0.027   5.987   2.529
 2537SOL    HW1 9211   6.964   5.964   2.603
 2537SOL    HW2 9212   0.119   5.954   2.551
 2538SOL     OW 9213   0.566   6.819   3.050
 2538SOL    HW1 9214   0.517   6.878   2.986
 2538SOL    HW2 9215   0.516   6.815   3.137
 2539SOL     OW 9216   1.667   0.097   2.520
 2539SOL    HW1 9217   1.665   0.163   2.595
 2539SOL    HW2 9218   1.577   0.054   2.512
 2540SOL     OW 9219   1.108   6.310   2.520
 2540SOL    HW1 9220   1.152   6.399   2.504
 2540SOL    HW2 9221   1.061   6.312   2.608
 2541SOL     OW 9222   1.772   6.138   2.081
 2541SOL    HW1 9223   1.737   6.152   1.988
 2541SOL    HW2 9224   1.710   6.079   2.132
 2542SOL     OW 9225   0.638   6.641   2.839
 2542SOL    HW1 9226   0.620   6.702   2.916
 2542SOL    HW2 9227   0.587   6.672   2.759
 2543SOL     OW 9228   0.885   6.317   3.706
 2543SOL    HW1 9229   0.891   6.375   3.787
 2543SOL    HW2 9230   0.895   6.374   3.624
 2544SOL     OW 9231   0.692   6.544   2.478
 2544SOL    HW1 9232   0.766   6.546   2.545
 2544SOL    HW2 9233   0.622   6.610   2.505
 2545SOL     OW 9234   0.674   6.772   3.720
 2545SOL    HW1 9235   0.679   6.824   3.805
 2545SOL    HW2 9236   0.647   6.833   3.645
 2546SOL     OW 9237   0.420   6.969   2.873
 2546SOL    HW1 9238   0.380   6.894   2.819
 2546SOL    HW2 9239   0.447   0.043   2.813
 2547SOL     OW 9240   0.472   5.933   3.308
 2547SOL    HW1 9241   0.551   5.873   3.323
 2547SOL    HW2 9242   0.389   5.887   3.340
 2548SOL     OW 9243   1.545   6.040   2.588
 2548SOL    HW1 9244   1.460   6.043   2.536
 2548SOL    HW2 9245   1.543   6.109   2.661
 2549SOL     OW 9246   0.306   6.728   2.770
 2549SOL    HW1 9247   0.306   6.628   2.774
 2549SOL    HW2 9248   0.213   6.762   2.786
 2550SOL     OW 9249   0.554   6.559   2.009
 2550SOL    HW1 9250   0.584   6.623   1.939
 2550SOL    HW2 9251   0.610   6.570   2.091
 2551SOL     OW 9252   1.612   5.704   3.348
 2551SOL    HW1 9253   1.649   5.780   3.296
 2551SOL    HW2 9254   1.562   5.739   3.428
 2552SOL     OW 9255   0.097   6.230   2.425
 2552SOL    HW1 9256   0.063   6.146   2.466
 2552SOL    HW2 9257   0.077   6.307   2.486
 2553SOL     OW 9258   1.677   6.469   2.504
 2553SOL    HW1 9259   1.762   6.460   2.555
 2553SOL    HW2 9260   1.685   6.543   2.438
 2554SOL     OW 9261   1.700   6.698   2.344
 2554SOL    HW1 9262   1.779   6.680   2.285
 2554SOL    HW2 9263   1.727   6.758   2.419
 2555SOL     OW 9264   0.222   6.310   3.431
 2555SOL    HW1 9265   0.322   6.308   3.425
 2555SOL    HW2 9266   0.192   6.398   3.466
 2556SOL     OW 9267   1.231   6.778   3.281
 2556SOL    HW1 9268   1.264   6.712   3.213
 2556SOL    HW2 9269   1.298   6.787   3.354
 2557SOL     OW 9270   0.843   5.622   2.363
 2557SOL    HW1 9271   0.883   5.708   2.333
 2557SOL    HW2 9272   0.744   5.633   2.374
 2558SOL     OW 9273   0.196   6.623   3.119
 2558SOL    HW1 9274   0.260   6.549   3.097
 2558SOL    HW2 9275   0.108   6.605   3.075
 2559SOL     OW 9276   1.581   6.652   2.088
 2559SOL    HW1 9277   1.524   6.570   2.100
 2559SOL    HW2 9278   1.619   6.679   2.177
 2560SOL     OW 9279   0.323   5.850   3.752
 2560SOL    HW1 9280   0.347   5.930   3.808
 2560SOL    HW2 9281   0.225   5.854   3.730
 2561SOL     OW 9282   1.407   6.921   2.806
 2561SOL    HW1 9283   1.320   6.914   2.855
 2561SOL    HW2 9284   1.437   6.831   2.777
 2562SOL     OW 9285   0.534   6.286   2.130
 2562SOL    HW1 9286   0.542   6.374   2.084
 2562SOL    HW2 9287   0.472   6.294   2.208
 2563SOL     OW 9288   1.266   5.985   2.792
 2563SOL    HW1 9289   1.178   5.937   2.788
 2563SOL    HW2 9290   1.326   5.938   2.856
 2564SOL     OW 9291   0.772   6.153   3.288
 2564SOL    HW1 9292   0.746   6.130   3.382
 2564SOL    HW2 9293   0.748   6.078   3.228
 2565SOL     OW 9294   1.367   6.055   3.509
 2565SOL    HW1 9295   1.370   6.104   3.596
 2565SOL    HW2 9296   1.418   5.970   3.517
 2566SOL     OW 9297   0.919   6.465   3.470
 2566SOL    HW1 9298   0.976   6.399   3.422
 2566SOL    HW2 9299   0.870   6.521   3.403
 2567SOL     OW 9300   0.995   5.943   3.045
 2567SOL    HW1 9301   0.900   5.954   3.073
 2567SOL    HW2 9302   0.998   5.906   2.952
 2568SOL     OW 9303   1.022   6.269   2.257
 2568SOL    HW1 9304   1.048   6.281   2.353
 2568SOL    HW2 9305   0.929   6.232   2.252
 2569SOL     OW 9306   0.064   6.422   2.636
 2569SOL    HW1 9307   0.156   6.437   2.674
 2569SOL    HW2 9308   0.000   6.402   2.711
 2570SOL     OW 9309   0.838   5.942   2.064
 2570SOL    HW1 9310   0.898   5.984   1.995
 2570SOL    HW2 9311   0.786   5.868   2.021
 2571SOL     OW 9312   1.644   6.162   3.697
 2571SOL    HW1 9313   1.646   6.247   3.643
 2571SOL    HW2 9314   1.677   6.086   3.641
 2572SOL     OW 9315   1.453   6.728   2.475
 2572SOL    HW1 9316   1.533   6.712   2.417
 2572SOL    HW2 9317   1.440   6.826   2.489
 2573SOL     OW 9318   0.572   5.679   2.804
 2573SOL    HW1 9319   0.570   5.706   2.900
 2573SOL    HW2 9320   0.591   5.759   2.747
 2574SOL     OW 9321   1.798   6.668   2.767
 2574SOL    HW1 9322   1.766   6.726   2.693
 2574SOL    HW2 9323   1.727   6.662   2.838
 2575SOL     OW 9324   0.281   6.539   2.103
 2575SOL    HW1 9325   0.371   6.552   2.061
 2575SOL    HW2 9326   0.242   6.453   2.069
 2576SOL     OW 9327   1.445   6.348   2.552
 2576SOL    HW1 9328   1.443   6.302   2.640
 2576SOL    HW2 9329   1.532   6.396   2.541
 2577SOL     OW 9330   0.207   5.838   3.355
 2577SOL    HW1 9331   0.145   5.916   3.349
 2577SOL    HW2 9332   0.165   5.767   3.411
 2578SOL     OW 9333   1.616   6.984   2.012
 2578SOL    HW1 9334   1.589   0.080   2.006
 2578SOL    HW2 9335   1.546   6.926   1.970
 2579SOL     OW 9336   1.408   5.705   2.323
 2579SOL    HW1 9337   1.401   5.669   2.230
 2579SOL    HW2 9338   1.503   5.730   2.342
 2580SOL     OW 9339   0.362   6.261   2.344
 2580SOL    HW1 9340   0.388   6.165   2.356
 2580SOL    HW2 9341   0.264   6.270   2.362
 2581SOL     OW 9342   1.476   5.803   3.572
 2581SOL    HW1 9343   1.488   5.825   3.668
 2581SOL    HW2 9344   1.402   5.736   3.561
 2582SOL     OW 9345   0.670   5.717   1.973
 2582SOL    HW1 9346   0.730   5.639   1.992
 2582SOL    HW2 9347   0.598   5.689   1.910
 2583SOL     OW 9348   0.775   5.859   3.607
 2583SOL    HW1 9349   0.859   5.805   3.608
 2583SOL    HW2 9350   0.713   5.825   3.678
 2584SOL     OW 9351   1.270   6.186   3.287
 2584SOL    HW1 9352   1.310   6.147   3.371
 2584SOL    HW2 9353   1.317   6.271   3.264
 2585SOL     OW 9354   0.916   6.072   2.727
 2585SOL    HW1 9355   0.889   6.070   2.631
 2585SOL    HW2 9356   0.954   5.983   2.753
 2586SOL     OW 9357   0.572   5.662   2.368
 2586SOL    HW1 9358   0.495   5.657   2.432
 2586SOL    HW2 9359   0.557   5.738   2.304
 2587SOL     OW 9360   1.407   6.787   1.928
 2587SOL    HW1 9361   1.475   6.737   1.982
 2587SOL    HW2 9362   1.321   6.735   1.927
 2588SOL     OW 9363   0.270   5.646   2.069
 2588SOL    HW1 9364   0.299   5.719   2.007
 2588SOL    HW2 9365   0.349   5.595   2.101
 2589SOL     OW 9366   0.958   5.857   2.295
 2589SOL    HW1 9367   0.920   5.889   2.208
 2589SOL    HW2 9368   1.057   5.873   2.296
 2590SOL     OW 9369   1.011   6.289   3.269
 2590SOL    HW1 9370   0.936   6.223   3.279
 2590SOL    HW2 9371   1.098   6.241   3.274
 2591SOL     OW 9372   1.417   6.991   2.533
 2591SOL    HW1 9373   1.351   0.049   2.486
 2591SOL    HW2 9374   1.396   6.990   2.631
 2592SOL     OW 9375   0.486   6.701   2.565
 2592SOL    HW1 9376   0.416   6.721   2.634
 2592SOL    HW2 9377   0.446   6.706   2.474
 2593SOL     OW 9378   1.013   6.084   1.905
 2593SOL    HW1 9379   0.973   6.173   1.886
 2593SOL    HW2 9380   1.086   6.095   1.974
 2594SOL     OW 9381   0.088   6.122   3.258
 2594SOL    HW1 9382   0.181   6.116   3.222
 2594SOL    HW2 9383   0.085   6.189   3.333
 2595SOL     OW 9384   0.560   5.740   3.067
 2595SOL    HW1 9385   0.589   5.665   3.126
 2595SOL    HW2 9386   0.463   5.758   3.081
 2596SOL     OW 9387   0.849   6.044   2.467
 2596SOL    HW1 9388   0.800   6.102   2.401
 2596SOL    HW2 9389   0.891   5.967   2.419
 2597SOL     OW 9390   1.017   5.634   2.578
 2597SOL    HW1 9391   0.957   5.633   2.498
 2597SOL    HW2 9392   0.989   5.562   2.642
 2598SOL     OW 9393   1.442   6.653   2.747
 2598SOL    HW1 9394   1.376   6.581   2.767
 2598SOL    HW2 9395   1.452   6.663   2.648
 2599SOL     OW 9396   1.440   6.211   2.794
 2599SOL    HW1 9397   1.376   6.136   2.809
 2599SOL    HW2 9398   1.510   6.209   2.865
 2600SOL     OW 9399   1.805   6.373   2.222
 2600SOL    HW1 9400   1.854   6.341   2.303
 2600SOL    HW2 9401   1.796   6.297   2.157
 2601SOL     OW 9402   1.776   6.848   2.556
 2601SOL    HW1 9403   1.876   6.847   2.555
 2601SOL    HW2 9404   1.744   6.943   2.548
 2602SOL     OW 9405   1.371   6.162   1.905
 2602SOL    HW1 9406   1.324   6.128   1.987
 2602SOL    HW2 9407   1.469   6.149   1.915
 2603SOL     OW 9408   0.528   5.848   2.174
 2603SOL    HW1 9409   0.584   5.802   2.105
 2603SOL    HW2 9410   0.479   5.924   2.132
 2604SOL     OW 9411   1.721   6.771   3.438
 2604SOL    HW1 9412   1.732   6.729   3.528
 2604SOL    HW2 9413   1.779   6.852   3.432
 2605SOL     OW 9414   1.022   6.884   3.131
 2605SOL    HW1 9415   0.933   6.877   3.176
 2605SOL    HW2 9416   1.094   6.855   3.194
 2606SOL     OW 9417   1.178   6.818   2.916
 2606SOL    HW1 9418   1.110   6.842   2.984
 2606SOL    HW2 9419   1.132   6.785   2.833
 2607SOL     OW 9420   1.607   6.668   2.968
 2607SOL    HW1 9421   1.586   6.735   3.039
 2607SOL    HW2 9422   1.534   6.666   2.900
 2608SOL     OW 9423   0.935   5.639   3.239
 2608SOL    HW1 9424   0.952   5.622   3.142
 2608SOL    HW2 9425   1.014   5.685   3.279
 2609SOL     OW 9426   0.931   6.670   3.660
 2609SOL    HW1 9427   0.838   6.701   3.680
 2609SOL    HW2 9428   0.928   6.600   3.588
 2610SOL     OW 9429   0.737   6.606   2.206
 2610SOL    HW1 9430   0.725   6.581   2.302
 2610SOL    HW2 9431   0.817   6.559   2.169
 2611SOL     OW 9432   0.406   6.392   3.104
 2611SOL    HW1 9433   0.476   6.414   3.171
 2611SOL    HW2 9434   0.367   6.302   3.124
 2612SOL     OW 9435   1.241   5.949   3.154
 2612SOL    HW1 9436   1.257   6.037   3.199
 2612SOL    HW2 9437   1.150   5.949   3.113
 2613SOL     OW 9438   0.114   0.151   3.226
 2613SOL    HW1 9439   0.031   0.203   3.206
 2613SOL    HW2 9440   0.156   0.186   3.310
 2614SOL     OW 9441   0.369   6.709   2.316
 2614SOL    HW1 9442   0.359   6.797   2.270
 2614SOL    HW2 9443   0.335   6.636   2.256
 2615SOL     OW 9444   0.456   6.118   2.706
 2615SOL    HW1 9445   0.466   6.197   2.646
 2615SOL    HW2 9446   0.538   6.108   2.762
 2616SOL     OW 9447   1.534   6.252   2.300
 2616SOL    HW1 9448   1.490   6.279   2.385
 2616SOL    HW2 9449   1.616   6.307   2.286
 2617SOL     OW 9450   0.501   6.291   3.487
 2617SOL    HW1 9451   0.542   6.337   3.407
 2617SOL    HW2 9452   0.565   6.223   3.522
 2618SOL     OW 9453   1.642   6.392   3.551
 2618SOL    HW1 9454   1.549   6.424   3.532
 2618SOL    HW2 9455   1.703   6.418   3.477
 2619SOL     OW 9456   0.994   5.700   3.619
 2619SOL    HW1 9457   1.054   5.780   3.611
 2619SOL    HW2 9458   1.044   5.618   3.593
 2620SOL     OW 9459   0.485   5.660   3.639
 2620SOL    HW1 9460   0.440   5.611   3.564
 2620SOL    HW2 9461   0.426   5.733   3.672
 2621SOL     OW 9462   0.642   6.387   2.948
 2621SOL    HW1 9463   0.644   6.477   2.903
 2621SOL    HW2 9464   0.560   6.381   3.005
 2622SOL     OW 9465   1.276   6.434   2.833
 2622SOL    HW1 9466   1.183   6.407   2.811
 2622SOL    HW2 9467   1.338   6.356   2.823
 2623SOL     OW 9468   1.196   6.108   2.115
 2623SOL    HW1 9469   1.215   6.031   2.175
 2623SOL    HW2 9470   1.141   6.176   2.164
 2624SOL     OW 9471   0.292   5.741   3.110
 2624SOL    HW1 9472   0.258   5.778   3.196
 2624SOL    HW2 9473   0.271   5.643   3.105
 2625SOL     OW 9474   0.117   6.923   3.069
 2625SOL    HW1 9475   0.151   6.835   3.102
 2625SOL    HW2 9476   0.115   6.989   3.143
 2626SOL     OW 9477   0.681   6.127   2.865
 2626SOL    HW1 9478   0.766   6.114   2.814
 2626SOL    HW2 9479   0.673   6.223   2.892
 2627SOL     OW 9480   1.742   6.620   3.674
 2627SOL    HW1 9481   1.707   6.531   3.648
 2627SOL    HW2 9482   1.711   6.643   3.766
 2628SOL     OW 9483   0.342   5.655   2.520
 2628SOL    HW1 9484   0.313   5.746   2.550
 2628SOL    HW2 9485   0.345   5.594   2.599
 2629SOL     OW 9486   1.569   5.996   2.203
 2629SOL    HW1 9487   1.595   5.935   2.278
 2629SOL    HW2 9488   1.543   6.085   2.240
 2630SOL     OW 9489   1.011   6.325   2.789
 2630SOL    HW1 9490   0.986   6.352   2.882
 2630SOL    HW2 9491   0.982   6.230   2.773
 2631SOL     OW 9492   1.908   6.989   3.430
 2631SOL    HW1 9493   1.962   0.068   3.402
 2631SOL    HW2 9494   1.939   6.957   3.519
 2632SOL     OW 9495   0.389   6.458   3.673
 2632SOL    HW1 9496   0.454   6.490   3.742
 2632SOL    HW2 9497   0.434   6.395   3.610
 2633SOL     OW 9498   1.476   5.855   1.973
 2633SOL    HW1 9499   1.437   5.771   2.012
 2633SOL    HW2 9500   1.510   5.913   2.047
 2634SOL     OW 9501   1.281   6.414   1.866
 2634SOL    HW1 9502   1.302   6.316   1.874
 2634SOL    HW2 9503   1.319   6.449   1.781
 2635SOL     OW 9504   0.318   6.451   2.759
 2635SOL    HW1 9505   0.383   6.421   2.690
 2635SOL    HW2 9506   0.340   6.408   2.846
 2636SOL     OW 9507   0.271   6.083   2.904
 2636SOL    HW1 9508   0.238   5.990   2.891
 2636SOL    HW2 9509   0.334   6.107   2.831
 2637SOL     OW 9510   1.128   5.933   3.563
 2637SOL    HW1 9511   1.078   5.984   3.633
 2637SOL    HW2 9512   1.211   5.982   3.538
 2638SOL     OW 9513   1.158   5.764   3.343
 2638SOL    HW1 9514   1.138   5.822   3.422
 2638SOL    HW2 9515   1.198   5.820   3.270
 2639SOL     OW 9516   6.950   6.933   2.064
 2639SOL    HW1 9517   6.902   6.975   2.141
 2639SOL    HW2 9518   6.980   6.841   2.090
 2640SOL     OW 9519   0.916   6.399   3.032
 2640SOL    HW1 9520   0.950   6.360   3.117
 2640SOL    HW2 9521   0.817   6.385   3.026
 2641SOL     OW 9522   0.038   6.207   2.994
 2641SOL    HW1 9523   0.119   6.168   2.950
 2641SOL    HW2 9524   0.042   6.191   3.092
 2642SOL     OW 9525   0.234   6.132   3.635
 2642SOL    HW1 9526   0.309   6.067   3.628
 2642SOL    HW2 9527   0.237   6.195   3.558
 2643SOL     OW 9528   1.399   6.500   3.485
 2643SOL    HW1 9529   1.404   6.600   3.487
 2643SOL    HW2 9530   1.388   6.470   3.391
 2644SOL     OW 9531   0.769   6.161   2.222
 2644SOL    HW1 9532   0.784   6.081   2.165
 2644SOL    HW2 9533   0.687   6.209   2.192
 2645SOL     OW 9534   1.645   6.196   2.978
 2645SOL    HW1 9535   1.636   6.120   3.042
 2645SOL    HW2 9536   1.742   6.217   2.965
 2646SOL     OW 9537   0.723   5.968   3.086
 2646SOL    HW1 9538   0.664   5.887   3.091
 2646SOL    HW2 9539   0.697   6.024   3.008
 2647SOL     OW 9540   0.389   6.055   2.062
 2647SOL    HW1 9541   0.446   6.137   2.072
 2647SOL    HW2 9542   0.301   6.071   2.107
 2648SOL     OW 9543   0.216   6.720   3.369
 2648SOL    HW1 9544   0.201   6.650   3.438
 2648SOL    HW2 9545   0.208   6.680   3.278
 2649SOL     OW 9546   1.286   6.605   3.050
 2649SOL    HW1 9547   1.282   6.534   2.979
 2649SOL    HW2 9548   1.256   6.692   3.011
 2650SOL     OW 9549   1.422   6.438   2.112
 2650SOL    HW1 9550   1.437   6.355   2.166
 2650SOL    HW2 9551   1.364   6.418   2.034
 2651SOL     OW 9552   0.058   6.845   2.815
 2651SOL    HW1 9553   0.089   6.877   2.905
 2651SOL    HW2 9554   6.960   6.826   2.819
 2652SOL     OW 9555   1.691   5.772   2.343
 2652SOL    HW1 9556   1.735   5.763   2.253
 2652SOL    HW2 9557   1.691   5.684   2.389
 2653SOL     OW 9558   1.257   6.543   2.518
 2653SOL    HW1 9559   1.319   6.466   2.531
 2653SOL    HW2 9560   1.308   6.621   2.482
 2654SOL     OW 9561   0.769   6.852   3.236
 2654SOL    HW1 9562   0.723   6.888   3.318
 2654SOL    HW2 9563   0.703   6.849   3.161
 2655SOL     OW 9564   1.830   5.739   2.833
 2655SOL    HW1 9565   1.867   5.651   2.805
 2655SOL    HW2 9566   1.745   5.758   2.783
 2656SOL     OW 9567   0.292   5.908   2.622
 2656SOL    HW1 9568   0.351   5.986   2.643
 2656SOL    HW2 9569   0.256   5.869   2.707
 2657SOL     OW 9570   1.251   0.147   1.839
 2657SOL    HW1 9571   1.245   0.091   1.922
 2657SOL    HW2 9572   1.166   0.140   1.787
 2658SOL     OW 9573   0.819   6.585   3.242
 2658SOL    HW1 9574   0.879   6.561   3.166
 2658SOL    HW2 9575   0.803   6.684   3.242
 2659SOL     OW 9576   0.956   6.477   2.085
 2659SOL    HW1 9577   1.030   6.538   2.058
 2659SOL    HW2 9578   0.991   6.407   2.147
 2660SOL     OW 9579   0.455   6.839   3.301
 2660SOL    HW1 9580   0.498   6.880   3.381
 2660SOL    HW2 9581   0.367   6.800   3.326
 2661SOL     OW 9582   1.579   6.846   3.187
 2661SOL    HW1 9583   1.647   6.795   3.239
 2661SOL    HW2 9584   1.552   6.928   3.238
 2662SOL     OW 9585   1.079   6.714   2.673
 2662SOL    HW1 9586   0.994   6.662   2.678
 2662SOL    HW2 9587   1.146   6.664   2.619
 2663SOL     OW 9588   1.034   5.817   2.792
 2663SOL    HW1 9589   1.032   5.775   2.702
 2663SOL    HW2 9590   1.036   5.745   2.862
 2664SOL     OW 9591   1.797   5.960   3.284
 2664SOL    HW1 9592   1.855   6.038   3.260
 2664SOL    HW2 9593   1.789   5.899   3.205
 2665SOL     OW 9594   0.153   6.540   3.571
 2665SOL    HW1 9595   0.097   6.603   3.625
 2665SOL    HW2 9596   0.237   6.518   3.620
 2666SOL     OW 9597   0.707   5.767   3.356
 2666SOL    HW1 9598   0.791   5.736   3.311
 2666SOL    HW2 9599   0.730   5.806   3.445
 2667SOL     OW 9600   0.053   5.859   1.851
 2667SOL    HW1 9601   6.988   5.796   1.892
 2667SOL    HW2 9602   0.006   5.942   1.822
 2668SOL     OW 9603   1.397   6.425   3.224
 2668SOL    HW1 9604   1.346   6.489   3.167
 2668SOL    HW2 9605   1.493   6.425   3.196
 2669SOL     OW 9606   0.054   5.807   2.165
 2669SOL    HW1 9607   6.990   5.766   2.101
 2669SOL    HW2 9608   0.141   5.758   2.162
 2670SOL     OW 9609   0.630   6.390   3.268
 2670SOL    HW1 9610   0.691   6.469   3.262
 2670SOL    HW2 9611   0.683   6.306   3.267
 2671SOL     OW 9612   0.719   6.129   3.562
 2671SOL    HW1 9613   0.773   6.189   3.621
 2671SOL    HW2 9614   0.741   6.034   3.583
 2672SOL     OW 9615   1.432   6.771   3.495
 2672SOL    HW1 9616   1.421   6.795   3.592
 2672SOL    HW2 9617   1.526   6.792   3.466
 2673SOL     OW 9618   1.651   6.444   3.120
 2673SOL    HW1 9619   1.656   6.362   3.062
 2673SOL    HW2 9620   1.645   6.525   3.061
 2674SOL     OW 9621   1.227   5.914   2.310
 2674SOL    HW1 9622   1.289   5.836   2.313
 2674SOL    HW2 9623   1.242   5.972   2.390
 2675SOL     OW 9624   0.493   6.355   2.563
 2675SOL    HW1 9625   0.571   6.414   2.539
 2675SOL    HW2 9626   0.444   6.329   2.481
 2676SOL     OW 9627   1.720   5.942   3.548
 2676SOL    HW1 9628   1.744   5.954   3.452
 2676SOL    HW2 9629   1.638   5.885   3.556
 2677SOL     OW 9630   1.791   6.504   3.351
 2677SOL    HW1 9631   1.782   6.602   3.368
 2677SOL    HW2 9632   1.751   6.481   3.263
 2678SOL     OW 9633   0.862   6.551   2.698
 2678SOL    HW1 9634   0.905   6.469   2.736
 2678SOL    HW2 9635   0.790   6.583   2.761
 2679SOL     OW 9636   1.166   6.648   1.944
 2679SOL    HW1 9637   1.083   6.667   1.891
 2679SOL    HW2 9638   1.203   6.559   1.917
 2680SOL     OW 9639   0.228   6.961   3.840
 2680SOL    HW1 9640   0.129   6.970   3.842
 2680SOL    HW2 9641   0.265   6.976   3.932
 2681SOL     OW 9642   0.140   6.904   2.557
 2681SOL    HW1 9643   0.113   6.884   2.651
 2681SOL    HW2 9644   0.086   6.847   2.494
 2682SOL     OW 9645   0.590   6.963   3.511
 2682SOL    HW1 9646   0.528   6.993   3.584
 2682SOL    HW2 9647   0.622   0.043   3.460
 2683SOL     OW 9648   1.767   5.767   3.098
 2683SOL    HW1 9649   1.749   5.672   3.122
 2683SOL    HW2 9650   1.795   5.772   3.002
 2684SOL     OW 9651   0.419   6.001   2.383
 2684SOL    HW1 9652   0.465   5.939   2.320
 2684SOL    HW2 9653   0.372   5.948   2.454
 2685SOL     OW 9654   1.585   0.039   2.984
 2685SOL    HW1 9655   1.530   0.005   2.908
 2685SOL    HW2 9656   1.590   6.969   3.056
 2686SOL     OW 9657   0.344   6.128   3.163
 2686SOL    HW1 9658   0.401   6.062   3.211
 2686SOL    HW2 9659   0.331   6.099   3.068
 2687SOL     OW 9660   1.423   5.855   2.973
 2687SOL    HW1 9661   1.445   5.759   2.988
 2687SOL    HW2 9662   1.365   5.888   3.048
 2688SOL     OW 9663   1.031   5.590   2.957
 2688SOL    HW1 9664   0.973   5.530   2.903
 2688SOL    HW2 9665   1.124   5.554   2.961
 2689SOL     OW 9666   0.695   6.875   2.125
 2689SOL    HW1 9667   0.717   6.782   2.155
 2689SOL    HW2 9668   0.662   6.928   2.204
 2690SOL     OW 9669   1.384   5.614   2.065
 2690SOL    HW1 9670   1.433   5.549   2.007
 2690SOL    HW2 9671   1.294   5.578   2.087
 2691SOL     OW 9672   1.269   6.073   2.528
 2691SOL    HW1 9673   1.219   6.159   2.516
 2691SOL    HW2 9674   1.262   6.043   2.623
 2692SOL     OW 9675   1.579   5.809   2.747
 2692SOL    HW1 9676   1.527   5.840   2.826
 2692SOL    HW2 9677   1.571   5.877   2.673
 2693SOL     OW 9678   0.047   6.681   2.133
 2693SOL    HW1 9679   0.137   6.638   2.126
 2693SOL    HW2 9680   6.978   6.612   2.154
 2694SOL     OW 9681   0.159   6.294   3.858
 2694SOL    HW1 9682   0.142   6.228   3.931
 2694SOL    HW2 9683   0.202   6.247   3.781
 2695SOL     OW 9684   0.204   5.825   4.732
 2695SOL    HW1 9685   0.253   5.791   4.812
 2695SOL    HW2 9686   0.106   5.810   4.745
 2696SOL     OW 9687   0.028   5.987   4.392
 2696SOL    HW1 9688   6.966   5.965   4.467
 2696SOL    HW2 9689   0.120   5.954   4.414
 2697SOL     OW 9690   0.571   6.826   4.923
 2697SOL    HW1 9691   0.523   6.884   4.856
 2697SOL    HW2 9692   0.518   6.822   5.008
 2698SOL     OW 9693   1.668   0.086   4.421
 2698SOL    HW1 9694   1.667   0.157   4.491
 2698SOL    HW2 9695   1.577   0.048   4.410
 2699SOL     OW 9696   1.091   6.325   4.384
 2699SOL    HW1 9697   1.139   6.412   4.369
 2699SOL    HW2 9698   1.047   6.326   4.474
 2700SOL     OW 9699   1.785   6.144   3.925
 2700SOL    HW1 9700   1.740   6.161   3.837
 2700SOL    HW2 9701   1.733   6.076   3.977
 2701SOL     OW 9702   0.635   6.644   4.715
 2701SOL    HW1 9703   0.622   6.704   4.794
 2701SOL    HW2 9704   0.578   6.676   4.639
 2702SOL     OW 9705   0.883   6.320   5.575
 2702SOL    HW1 9706   0.891   6.379   5.655
 2702SOL    HW2 9707   0.896   6.374   5.492
 2703SOL     OW 9708   0.687   6.549   4.337
 2703SOL    HW1 9709   0.758   6.552   4.408
 2703SOL    HW2 9710   0.616   6.616   4.360
 2704SOL     OW 9711   0.700   6.776   5.589
 2704SOL    HW1 9712   0.726   6.831   5.669
 2704SOL    HW2 9713   0.670   6.836   5.515
 2705SOL     OW 9714   0.427   6.969   4.738
 2705SOL    HW1 9715   0.388   6.895   4.683
 2705SOL    HW2 9716   0.453   0.045   4.679
 2706SOL     OW 9717   0.478   5.935   5.173
 2706SOL    HW1 9718   0.558   5.876   5.185
 2706SOL    HW2 9719   0.396   5.888   5.205
 2707SOL     OW 9720   1.609   6.055   4.458
 2707SOL    HW1 9721   1.592   6.093   4.367
 2707SOL    HW2 9722   1.559   6.109   4.526
 2708SOL     OW 9723   0.313   6.732   4.628
 2708SOL    HW1 9724   0.313   6.632   4.631
 2708SOL    HW2 9725   0.220   6.766   4.646
 2709SOL     OW 9726   0.552   6.566   3.869
 2709SOL    HW1 9727   0.583   6.629   3.799
 2709SOL    HW2 9728   0.609   6.576   3.951
 2710SOL     OW 9729   1.583   5.719   5.193
 2710SOL    HW1 9730   1.642   5.796   5.168
 2710SOL    HW2 9731   1.531   5.743   5.275
 2711SOL     OW 9732   0.096   6.231   4.288
 2711SOL    HW1 9733   0.063   6.146   4.329
 2711SOL    HW2 9734   0.078   6.308   4.349
 2712SOL     OW 9735   1.672   6.471   4.378
 2712SOL    HW1 9736   1.759   6.457   4.424
 2712SOL    HW2 9737   1.681   6.542   4.308
 2713SOL     OW 9738   1.697   6.693   4.207
 2713SOL    HW1 9739   1.773   6.668   4.148
 2713SOL    HW2 9740   1.729   6.754   4.280
 2714SOL     OW 9741   0.222   6.320   5.297
 2714SOL    HW1 9742   0.322   6.322   5.296
 2714SOL    HW2 9743   0.188   6.404   5.340
 2715SOL     OW 9744   1.235   6.780   5.147
 2715SOL    HW1 9745   1.266   6.712   5.081
 2715SOL    HW2 9746   1.301   6.785   5.222
 2716SOL     OW 9747   0.840   5.624   4.227
 2716SOL    HW1 9748   0.882   5.710   4.197
 2716SOL    HW2 9749   0.741   5.636   4.237
 2717SOL     OW 9750   0.198   6.619   4.990
 2717SOL    HW1 9751   0.261   6.545   4.968
 2717SOL    HW2 9752   0.110   6.603   4.944
 2718SOL     OW 9753   1.586   6.640   3.926
 2718SOL    HW1 9754   1.533   6.557   3.940
 2718SOL    HW2 9755   1.621   6.673   4.014
 2719SOL     OW 9756   0.334   5.843   5.603
 2719SOL    HW1 9757   0.363   5.923   5.655
 2719SOL    HW2 9758   0.237   5.850   5.582
 2720SOL     OW 9759   1.386   6.923   4.678
 2720SOL    HW1 9760   1.299   6.904   4.724
 2720SOL    HW2 9761   1.423   6.837   4.641
 2721SOL     OW 9762   0.533   6.287   3.991
 2721SOL    HW1 9763   0.541   6.376   3.945
 2721SOL    HW2 9764   0.471   6.295   4.069
 2722SOL     OW 9765   1.270   5.984   4.651
 2722SOL    HW1 9766   1.183   5.936   4.645
 2722SOL    HW2 9767   1.330   5.936   4.715
 2723SOL     OW 9768   0.768   6.154   5.152
 2723SOL    HW1 9769   0.742   6.131   5.246
 2723SOL    HW2 9770   0.744   6.078   5.091
 2724SOL     OW 9771   1.365   6.048   5.375
 2724SOL    HW1 9772   1.372   6.094   5.464
 2724SOL    HW2 9773   1.407   5.958   5.381
 2725SOL     OW 9774   0.922   6.461   5.334
 2725SOL    HW1 9775   0.977   6.393   5.285
 2725SOL    HW2 9776   0.873   6.518   5.268
 2726SOL     OW 9777   0.995   5.950   4.904
 2726SOL    HW1 9778   0.899   5.958   4.933
 2726SOL    HW2 9779   0.999   5.912   4.812
 2727SOL     OW 9780   1.017   6.275   4.119
 2727SOL    HW1 9781   1.041   6.289   4.215
 2727SOL    HW2 9782   0.926   6.235   4.112
 2728SOL     OW 9783   0.064   6.423   4.498
 2728SOL    HW1 9784   0.156   6.440   4.535
 2728SOL    HW2 9785   0.001   6.405   4.573
 2729SOL     OW 9786   0.838   5.943   3.924
 2729SOL    HW1 9787   0.900   5.984   3.856
 2729SOL    HW2 9788   0.786   5.869   3.881
 2730SOL     OW 9789   1.647   6.157   5.568
 2730SOL    HW1 9790   1.641   6.242   5.517
 2730SOL    HW2 9791   1.672   6.082   5.506
 2731SOL     OW 9792   1.452   6.730   4.340
 2731SOL    HW1 9793   1.531   6.713   4.280
 2731SOL    HW2 9794   1.441   6.828   4.352
 2732SOL     OW 9795   0.578   5.675   4.667
 2732SOL    HW1 9796   0.574   5.704   4.763
 2732SOL    HW2 9797   0.603   5.753   4.610
 2733SOL     OW 9798   1.804   6.670   4.635
 2733SOL    HW1 9799   1.776   6.725   4.557
 2733SOL    HW2 9800   1.728   6.662   4.699
 2734SOL     OW 9801   0.281   6.560   3.960
 2734SOL    HW1 9802   0.373   6.569   3.921
 2734SOL    HW2 9803   0.241   6.472   3.933
 2735SOL     OW 9804   1.436   6.352   4.416
 2735SOL    HW1 9805   1.437   6.298   4.499
 2735SOL    HW2 9806   1.523   6.401   4.407
 2736SOL     OW 9807   0.224   5.832   5.232
 2736SOL    HW1 9808   0.155   5.904   5.235
 2736SOL    HW2 9809   0.194   5.755   5.288
 2737SOL     OW 9810   1.605   6.972   3.868
 2737SOL    HW1 9811   1.583   0.069   3.861
 2737SOL    HW2 9812   1.531   6.917   3.830
 2738SOL     OW 9813   1.393   5.701   4.184
 2738SOL    HW1 9814   1.389   5.676   4.088
 2738SOL    HW2 9815   1.484   5.680   4.220
 2739SOL     OW 9816   0.361   6.261   4.205
 2739SOL    HW1 9817   0.388   6.165   4.217
 2739SOL    HW2 9818   0.263   6.270   4.223
 2740SOL     OW 9819   1.458   5.790   5.431
 2740SOL    HW1 9820   1.468   5.810   5.529
 2740SOL    HW2 9821   1.391   5.717   5.419
 2741SOL     OW 9822   0.673   5.721   3.832
 2741SOL    HW1 9823   0.738   5.646   3.846
 2741SOL    HW2 9824   0.600   5.691   3.771
 2742SOL     OW 9825   0.776   5.863   5.468
 2742SOL    HW1 9826   0.864   5.815   5.473
 2742SOL    HW2 9827   0.714   5.828   5.538
 2743SOL     OW 9828   1.270   6.181   5.155
 2743SOL    HW1 9829   1.310   6.140   5.237
 2743SOL    HW2 9830   1.314   6.268   5.136
 2744SOL     OW 9831   0.916   6.077   4.589
 2744SOL    HW1 9832   0.890   6.074   4.493
 2744SOL    HW2 9833   0.958   5.989   4.614
 2745SOL     OW 9834   0.570   5.664   4.230
 2745SOL    HW1 9835   0.493   5.660   4.294
 2745SOL    HW2 9836   0.556   5.739   4.165
 2746SOL     OW 9837   1.396   6.782   3.789
 2746SOL    HW1 9838   1.467   6.729   3.834
 2746SOL    HW2 9839   1.310   6.731   3.790
 2747SOL     OW 9840   0.269   5.644   3.930
 2747SOL    HW1 9841   0.298   5.717   3.869
 2747SOL    HW2 9842   0.349   5.594   3.963
 2748SOL     OW 9843   0.957   5.858   4.156
 2748SOL    HW1 9844   0.919   5.890   4.070
 2748SOL    HW2 9845   1.056   5.874   4.157
 2749SOL     OW 9846   1.010   6.284   5.133
 2749SOL    HW1 9847   0.934   6.220   5.143
 2749SOL    HW2 9848   1.096   6.235   5.139
 2750SOL     OW 9849   1.416   6.994   4.390
 2750SOL    HW1 9850   1.379   0.048   4.314
 2750SOL    HW2 9851   1.360   0.009   4.471
 2751SOL     OW 9852   0.482   6.712   4.410
 2751SOL    HW1 9853   0.414   6.731   4.481
 2751SOL    HW2 9854   0.441   6.728   4.320
 2752SOL     OW 9855   1.017   6.082   3.766
 2752SOL    HW1 9856   0.975   6.170   3.743
 2752SOL    HW2 9857   1.088   6.097   3.835
 2753SOL     OW 9858   0.084   6.141   5.117
 2753SOL    HW1 9859   0.177   6.126   5.085
 2753SOL    HW2 9860   0.085   6.209   5.190
 2754SOL     OW 9861   0.561   5.739   4.929
 2754SOL    HW1 9862   0.590   5.664   4.988
 2754SOL    HW2 9863   0.464   5.758   4.944
 2755SOL     OW 9864   0.847   6.045   4.329
 2755SOL    HW1 9865   0.799   6.102   4.263
 2755SOL    HW2 9866   0.891   5.969   4.282
 2756SOL     OW 9867   1.008   5.635   4.446
 2756SOL    HW1 9868   0.948   5.633   4.366
 2756SOL    HW2 9869   0.981   5.563   4.510
 2757SOL     OW 9870   1.440   6.657   4.612
 2757SOL    HW1 9871   1.376   6.582   4.631
 2757SOL    HW2 9872   1.451   6.667   4.513
 2758SOL     OW 9873   1.443   6.201   4.646
 2758SOL    HW1 9874   1.377   6.127   4.656
 2758SOL    HW2 9875   1.507   6.199   4.723
 2759SOL     OW 9876   1.799   6.355   4.098
 2759SOL    HW1 9877   1.861   6.325   4.171
 2759SOL    HW2 9878   1.797   6.285   4.026
 2760SOL     OW 9879   1.787   6.842   4.417
 2760SOL    HW1 9880   1.887   6.847   4.416
 2760SOL    HW2 9881   1.749   6.934   4.417
 2761SOL     OW 9882   1.369   6.160   3.760
 2761SOL    HW1 9883   1.324   6.130   3.844
 2761SOL    HW2 9884   1.468   6.151   3.770
 2762SOL     OW 9885   0.529   5.849   4.035
 2762SOL    HW1 9886   0.586   5.804   3.967
 2762SOL    HW2 9887   0.479   5.925   3.993
 2763SOL     OW 9888   1.717   6.757   5.348
 2763SOL    HW1 9889   1.736   6.712   5.435
 2763SOL    HW2 9890   1.773   6.839   5.340
 2764SOL     OW 9891   1.019   6.885   5.003
 2764SOL    HW1 9892   0.932   6.880   5.051
 2764SOL    HW2 9893   1.093   6.857   5.064
 2765SOL     OW 9894   1.165   6.805   4.785
 2765SOL    HW1 9895   1.097   6.833   4.854
 2765SOL    HW2 9896   1.118   6.775   4.702
 2766SOL     OW 9897   1.608   6.665   4.829
 2766SOL    HW1 9898   1.590   6.732   4.901
 2766SOL    HW2 9899   1.534   6.667   4.762
 2767SOL     OW 9900   0.938   5.640   5.098
 2767SOL    HW1 9901   0.956   5.622   5.001
 2767SOL    HW2 9902   1.014   5.690   5.138
 2768SOL     OW 9903   0.949   6.662   5.524
 2768SOL    HW1 9904   0.857   6.696   5.544
 2768SOL    HW2 9905   0.944   6.594   5.451
 2769SOL     OW 9906   0.736   6.610   4.065
 2769SOL    HW1 9907   0.724   6.585   4.161
 2769SOL    HW2 9908   0.815   6.561   4.027
 2770SOL     OW 9909   0.404   6.392   4.972
 2770SOL    HW1 9910   0.474   6.414   5.040
 2770SOL    HW2 9911   0.365   6.302   4.992
 2771SOL     OW 9912   1.243   5.953   5.008
 2771SOL    HW1 9913   1.259   6.039   5.057
 2771SOL    HW2 9914   1.152   5.954   4.967
 2772SOL     OW 9915   0.115   0.149   5.090
 2772SOL    HW1 9916   0.033   0.202   5.070
 2772SOL    HW2 9917   0.158   0.183   5.174
 2773SOL     OW 9918   0.366   6.749   4.163
 2773SOL    HW1 9919   0.359   6.838   4.119
 2773SOL    HW2 9920   0.333   6.678   4.099
 2774SOL     OW 9921   0.455   6.122   4.568
 2774SOL    HW1 9922   0.466   6.200   4.507
 2774SOL    HW2 9923   0.538   6.111   4.623
 2775SOL     OW 9924   1.572   6.205   4.219
 2775SOL    HW1 9925   1.504   6.255   4.272
 2775SOL    HW2 9926   1.640   6.269   4.182
 2776SOL     OW 9927   0.499   6.302   5.359
 2776SOL    HW1 9928   0.540   6.345   5.278
 2776SOL    HW2 9929   0.561   6.231   5.393
 2777SOL     OW 9930   1.621   6.394   5.438
 2777SOL    HW1 9931   1.525   6.422   5.427
 2777SOL    HW2 9932   1.674   6.424   5.359
 2778SOL     OW 9933   1.004   5.716   5.498
 2778SOL    HW1 9934   1.056   5.797   5.474
 2778SOL    HW2 9935   1.064   5.636   5.499
 2779SOL     OW 9936   0.497   5.648   5.501
 2779SOL    HW1 9937   0.451   5.594   5.431
 2779SOL    HW2 9938   0.437   5.723   5.529
 2780SOL     OW 9939   0.640   6.387   4.815
 2780SOL    HW1 9940   0.643   6.477   4.773
 2780SOL    HW2 9941   0.558   6.379   4.872
 2781SOL     OW 9942   1.281   6.429   4.698
 2781SOL    HW1 9943   1.186   6.404   4.677
 2781SOL    HW2 9944   1.340   6.350   4.683
 2782SOL     OW 9945   1.197   6.119   3.978
 2782SOL    HW1 9946   1.217   6.041   4.036
 2782SOL    HW2 9947   1.138   6.184   4.027
 2783SOL     OW 9948   0.294   5.742   4.977
 2783SOL    HW1 9949   0.264   5.777   5.066
 2783SOL    HW2 9950   0.272   5.645   4.970
 2784SOL     OW 9951   0.122   6.918   4.935
 2784SOL    HW1 9952   0.156   6.831   4.970
 2784SOL    HW2 9953   0.119   6.986   5.009
 2785SOL     OW 9954   0.681   6.128   4.726
 2785SOL    HW1 9955   0.766   6.116   4.676
 2785SOL    HW2 9956   0.672   6.224   4.755
 2786SOL     OW 9957   1.750   6.601   5.577
 2786SOL    HW1 9958   1.707   6.517   5.543
 2786SOL    HW2 9959   1.709   6.625   5.665
 2787SOL     OW 9960   0.342   5.657   4.384
 2787SOL    HW1 9961   0.313   5.748   4.415
 2787SOL    HW2 9962   0.346   5.595   4.463
 2788SOL     OW 9963   1.607   5.982   4.058
 2788SOL    HW1 9964   1.662   5.918   4.111
 2788SOL    HW2 9965   1.578   6.057   4.117
 2789SOL     OW 9966   1.008   6.331   4.655
 2789SOL    HW1 9967   0.984   6.357   4.748
 2789SOL    HW2 9968   0.980   6.236   4.639
 2790SOL     OW 9969   1.871   0.006   5.335
 2790SOL    HW1 9970   1.913   0.083   5.287
 2790SOL    HW2 9971   1.933   6.972   5.406
 2791SOL     OW 9972   0.393   6.473   5.547
 2791SOL    HW1 9973   0.461   6.506   5.612
 2791SOL    HW2 9974   0.435   6.408   5.484
 2792SOL     OW 9975   1.497   5.854   3.835
 2792SOL    HW1 9976   1.447   5.776   3.873
 2792SOL    HW2 9977   1.537   5.906   3.910
 2793SOL     OW 9978   1.284   6.413   3.716
 2793SOL    HW1 9979   1.303   6.315   3.725
 2793SOL    HW2 9980   1.320   6.446   3.628
 2794SOL     OW 9981   0.319   6.455   4.618
 2794SOL    HW1 9982   0.384   6.424   4.548
 2794SOL    HW2 9983   0.339   6.409   4.705
 2795SOL     OW 9984   0.272   6.086   4.768
 2795SOL    HW1 9985   0.240   5.992   4.755
 2795SOL    HW2 9986   0.335   6.110   4.694
 2796SOL     OW 9987   1.113   5.952   5.415
 2796SOL    HW1 9988   1.067   6.001   5.489
 2796SOL    HW2 9989   1.201   5.994   5.397
 2797SOL     OW 9990   1.148   5.781   5.202
 2797SOL    HW1 9991   1.124   5.844   5.276
 2797SOL    HW2 9992   1.192   5.831   5.128
 2798SOL     OW 9993   6.960   6.972   3.950
 2798SOL    HW1 9994   6.894   6.992   4.023
 2798SOL    HW2 9995   6.995   6.879   3.962
 2799SOL     OW 9996   0.913   6.401   4.900
 2799SOL    HW1 9997   0.949   6.360   4.984
 2799SOL    HW2 9998   0.815   6.385   4.894
 2800SOL     OW 9999   0.037   6.209   4.851
 2800SOL    HW110000   0.119   6.170   4.810
 2800SOL    HW210001   0.041   6.197   4.950
 2801SOL     OW10002   0.234   6.117   5.475
 2801SOL    HW110003   0.307   6.051   5.459
 2801SOL    HW210004   0.238   6.189   5.405
 2802SOL     OW10005   1.376   6.496   5.365
 2802SOL    HW110006   1.388   6.596   5.366
 2802SOL    HW210007   1.370   6.465   5.270
 2803SOL     OW10008   0.768   6.161   4.083
 2803SOL    HW110009   0.784   6.081   4.025
 2803SOL    HW210010   0.685   6.209   4.052
 2804SOL     OW10011   1.623   6.184   4.854
 2804SOL    HW110012   1.593   6.111   4.916
 2804SOL    HW210013   1.723   6.183   4.848
 2805SOL     OW10014   0.723   5.968   4.948
 2805SOL    HW110015   0.664   5.887   4.952
 2805SOL    HW210016   0.696   6.025   4.869
 2806SOL     OW10017   0.389   6.055   3.924
 2806SOL    HW110018   0.445   6.137   3.932
 2806SOL    HW210019   0.301   6.069   3.969
 2807SOL     OW10020   0.220   6.715   5.241
 2807SOL    HW110021   0.203   6.645   5.310
 2807SOL    HW210022   0.211   6.675   5.149
 2808SOL     OW10023   1.284   6.599   4.918
 2808SOL    HW110024   1.287   6.528   4.847
 2808SOL    HW210025   1.247   6.683   4.878
 2809SOL     OW10026   1.417   6.431   3.960
 2809SOL    HW110027   1.386   6.358   4.021
 2809SOL    HW210028   1.366   6.427   3.874
 2810SOL     OW10029   0.063   6.845   4.681
 2810SOL    HW110030   0.094   6.875   4.771
 2810SOL    HW210031   6.964   6.825   4.685
 2811SOL     OW10032   1.781   5.810   4.184
 2811SOL    HW110033   1.832   5.785   4.101
 2811SOL    HW210034   1.733   5.730   4.219
 2812SOL     OW10035   1.251   6.550   4.383
 2812SOL    HW110036   1.311   6.471   4.396
 2812SOL    HW210037   1.305   6.627   4.349
 2813SOL     OW10038   0.768   6.854   5.117
 2813SOL    HW110039   0.722   6.886   5.199
 2813SOL    HW210040   0.704   6.854   5.040
 2814SOL     OW10041   1.828   5.730   4.738
 2814SOL    HW110042   1.861   5.643   4.700
 2814SOL    HW210043   1.750   5.762   4.684
 2815SOL     OW10044   0.292   5.909   4.486
 2815SOL    HW110045   0.351   5.988   4.506
 2815SOL    HW210046   0.257   5.871   4.572
 2816SOL     OW10047   1.247   0.172   3.741
 2816SOL    HW110048   1.242   0.104   3.814
 2816SOL    HW210049   1.166   0.166   3.683
 2817SOL     OW10050   0.818   6.586   5.112
 2817SOL    HW110051   0.876   6.563   5.033
 2817SOL    HW210052   0.803   6.685   5.114
 2818SOL     OW10053   0.950   6.476   3.941
 2818SOL    HW110054   1.024   6.536   3.912
 2818SOL    HW210055   0.985   6.408   4.005
 2819SOL     OW10056   0.453   6.843   5.169
 2819SOL    HW110057   0.498   6.883   5.249
 2819SOL    HW210058   0.367   6.800   5.197
 2820SOL     OW10059   1.615   6.855   5.040
 2820SOL    HW110060   1.714   6.841   5.037
 2820SOL    HW210061   1.591   6.906   5.123
 2821SOL     OW10062   1.071   6.713   4.538
 2821SOL    HW110063   0.985   6.661   4.541
 2821SOL    HW210064   1.138   6.663   4.483
 2822SOL     OW10065   1.036   5.821   4.655
 2822SOL    HW110066   1.029   5.778   4.565
 2822SOL    HW210067   1.041   5.749   4.725
 2823SOL     OW10068   1.784   5.912   5.152
 2823SOL    HW110069   1.845   5.991   5.143
 2823SOL    HW210070   1.820   5.837   5.097
 2824SOL     OW10071   0.151   6.540   5.447
 2824SOL    HW110072   0.098   6.609   5.498
 2824SOL    HW210073   0.236   6.522   5.496
 2825SOL     OW10074   0.710   5.768   5.218
 2825SOL    HW110075   0.794   5.738   5.171
 2825SOL    HW210076   0.734   5.808   5.306
 2826SOL     OW10077   0.053   5.857   3.712
 2826SOL    HW110078   6.988   5.794   3.753
 2826SOL    HW210079   0.005   5.939   3.681
 2827SOL     OW10080   1.389   6.424   5.101
 2827SOL    HW110081   1.336   6.486   5.043
 2827SOL    HW210082   1.484   6.422   5.070
 2828SOL     OW10083   0.052   5.804   4.027
 2828SOL    HW110084   6.988   5.763   3.962
 2828SOL    HW210085   0.139   5.755   4.024
 2829SOL     OW10086   0.627   6.392   5.136
 2829SOL    HW110087   0.690   6.470   5.130
 2829SOL    HW210088   0.680   6.307   5.133
 2830SOL     OW10089   0.716   6.133   5.428
 2830SOL    HW110090   0.771   6.193   5.487
 2830SOL    HW210091   0.739   6.038   5.447
 2831SOL     OW10092   1.432   6.764   5.370
 2831SOL    HW110093   1.418   6.789   5.465
 2831SOL    HW210094   1.529   6.776   5.346
 2832SOL     OW10095   1.636   6.438   4.981
 2832SOL    HW110096   1.638   6.354   4.927
 2832SOL    HW210097   1.632   6.517   4.920
 2833SOL     OW10098   1.225   5.920   4.167
 2833SOL    HW110099   1.289   5.844   4.175
 2833SOL    HW210100   1.232   5.978   4.248
 2834SOL     OW10101   0.492   6.359   4.423
 2834SOL    HW110102   0.568   6.419   4.398
 2834SOL    HW210103   0.443   6.330   4.340
 2835SOL     OW10104   1.711   5.935   5.416
 2835SOL    HW110105   1.736   5.930   5.319
 2835SOL    HW210106   1.633   5.875   5.433
 2836SOL     OW10107   1.745   6.505   5.225
 2836SOL    HW110108   1.736   6.602   5.247
 2836SOL    HW210109   1.708   6.488   5.134
 2837SOL     OW10110   0.851   6.552   4.563
 2837SOL    HW110111   0.896   6.472   4.601
 2837SOL    HW210112   0.781   6.585   4.627
 2838SOL     OW10113   1.158   6.637   3.804
 2838SOL    HW110114   1.077   6.660   3.750
 2838SOL    HW210115   1.198   6.551   3.770
 2839SOL     OW10116   0.224   6.937   5.672
 2839SOL    HW110117   0.131   6.928   5.637
 2839SOL    HW210118   0.221   6.984   5.760
 2840SOL     OW10119   0.141   6.907   4.423
 2840SOL    HW110120   0.113   6.887   4.517
 2840SOL    HW210121   0.088   6.850   4.360
 2841SOL     OW10122   0.602   6.963   5.374
 2841SOL    HW110123   0.540   6.988   5.449
 2841SOL    HW210124   0.630   0.045   5.325
 2842SOL     OW10125   1.868   5.693   5.010
 2842SOL    HW110126   1.944   5.628   4.999
 2842SOL    HW210127   1.833   5.719   4.920
 2843SOL     OW10128   0.419   6.002   4.246
 2843SOL    HW110129   0.467   5.940   4.183
 2843SOL    HW210130   0.374   5.948   4.317
 2844SOL     OW10131   1.542   0.050   4.864
 2844SOL    HW110132   1.487   0.013   4.788
 2844SOL    HW210133   1.559   6.978   4.931
 2845SOL     OW10134   0.342   6.127   5.029
 2845SOL    HW110135   0.401   6.062   5.076
 2845SOL    HW210136   0.330   6.099   4.934
 2846SOL     OW10137   1.428   5.853   4.833
 2846SOL    HW110138   1.453   5.758   4.851
 2846SOL    HW210139   1.368   5.886   4.906
 2847SOL     OW10140   1.039   5.593   4.820
 2847SOL    HW110141   0.983   5.532   4.764
 2847SOL    HW210142   1.132   5.558   4.825
 2848SOL     OW10143   0.697   6.882   3.990
 2848SOL    HW110144   0.718   6.787   4.014
 2848SOL    HW210145   0.669   6.931   4.073
 2849SOL     OW10146   1.374   5.624   3.921
 2849SOL    HW110147   1.424   5.554   3.870
 2849SOL    HW210148   1.282   5.590   3.941
 2850SOL     OW10149   1.231   6.079   4.386
 2850SOL    HW110150   1.184   6.167   4.385
 2850SOL    HW210151   1.248   6.052   4.481
 2851SOL     OW10152   1.602   5.816   4.617
 2851SOL    HW110153   1.538   5.845   4.688
 2851SOL    HW210154   1.605   5.885   4.545
 2852SOL     OW10155   0.051   6.710   3.989
 2852SOL    HW110156   0.141   6.667   3.981
 2852SOL    HW210157   6.983   6.640   4.009
 2853SOL     OW10158   0.164   6.254   5.710
 2853SOL    HW110159   0.158   6.189   5.786
 2853SOL    HW210160   0.207   6.209   5.631
 2854SOL     OW10161   0.189   5.822   6.519
 2854SOL    HW110162   0.132   5.842   6.599
 2854SOL    HW210163   0.239   5.737   6.534
 2855SOL     OW10164   0.043   6.003   6.226
 2855SOL    HW110165   6.989   5.985   6.308
 2855SOL    HW210166   0.138   5.975   6.242
 2856SOL     OW10167   0.604   6.929   6.693
 2856SOL    HW110168   0.523   6.952   6.639
 2856SOL    HW210169   0.576   6.903   6.785
 2857SOL     OW10170   1.637   0.082   6.193
 2857SOL    HW110171   1.617   0.131   6.278
 2857SOL    HW210172   1.556   0.084   6.134
 2858SOL     OW10173   1.112   6.297   6.240
 2858SOL    HW110174   1.147   6.391   6.248
 2858SOL    HW210175   1.046   6.279   6.313
 2859SOL     OW10176   1.787   6.147   5.797
 2859SOL    HW110177   1.743   6.160   5.708
 2859SOL    HW210178   1.732   6.084   5.852
 2860SOL     OW10179   0.622   6.677   6.561
 2860SOL    HW110180   0.625   6.768   6.602
 2860SOL    HW210181   0.563   6.680   6.479
 2861SOL     OW10182   0.694   6.551   6.223
 2861SOL    HW110183   0.767   6.560   6.290
 2861SOL    HW210184   0.609   6.587   6.262
 2862SOL     OW10185   0.377   0.003   6.558
 2862SOL    HW110186   0.295   6.964   6.517
 2862SOL    HW210187   0.410   0.080   6.503
 2863SOL     OW10188   1.572   6.045   6.307
 2863SOL    HW110189   1.490   6.049   6.251
 2863SOL    HW210190   1.565   6.110   6.383
 2864SOL     OW10191   0.220   6.642   6.498
 2864SOL    HW110192   0.236   6.637   6.597
 2864SOL    HW210193   0.176   6.729   6.477
 2865SOL     OW10194   0.569   6.574   5.736
 2865SOL    HW110195   0.605   6.637   5.668
 2865SOL    HW210196   0.623   6.581   5.820
 2866SOL     OW10197   0.128   6.251   6.142
 2866SOL    HW110198   0.084   6.168   6.176
 2866SOL    HW210199   0.109   6.327   6.204
 2867SOL     OW10200   1.687   6.466   6.230
 2867SOL    HW110201   1.773   6.459   6.280
 2867SOL    HW210202   1.691   6.543   6.166
 2868SOL     OW10203   1.700   6.698   6.070
 2868SOL    HW110204   1.778   6.680   6.010
 2868SOL    HW210205   1.728   6.760   6.143
 2869SOL     OW10206   0.842   5.618   6.104
 2869SOL    HW110207   0.886   5.703   6.077
 2869SOL    HW210208   0.743   5.631   6.107
 2870SOL     OW10209   0.217   6.641   6.791
 2870SOL    HW110210   0.263   6.554   6.810
 2870SOL    HW210211   0.119   6.625   6.779
 2871SOL     OW10212   1.590   6.649   5.807
 2871SOL    HW110213   1.542   6.562   5.816
 2871SOL    HW210214   1.624   6.677   5.897
 2872SOL     OW10215   1.494   6.926   6.484
 2872SOL    HW110216   1.430   6.973   6.422
 2872SOL    HW210217   1.472   6.828   6.486
 2873SOL     OW10218   0.556   6.282   5.831
 2873SOL    HW110219   0.568   6.370   5.785
 2873SOL    HW210220   0.494   6.293   5.909
 2874SOL     OW10221   1.275   5.977   6.486
 2874SOL    HW110222   1.186   5.931   6.489
 2874SOL    HW210223   1.337   5.932   6.550
 2875SOL     OW10224   0.739   6.057   0.045
 2875SOL    HW110225   0.664   6.115   0.074
 2875SOL    HW210226   0.742   6.052   6.945
 2876SOL     OW10227   0.997   6.028   6.659
 2876SOL    HW110228   0.918   6.022   6.720
 2876SOL    HW210229   1.014   5.938   6.618
 2877SOL     OW10230   1.028   6.268   5.976
 2877SOL    HW110231   1.057   6.277   6.072
 2877SOL    HW210232   0.937   6.226   5.974
 2878SOL     OW10233   0.083   6.428   6.362
 2878SOL    HW110234   0.062   6.352   6.423
 2878SOL    HW210235   0.137   6.496   6.411
 2879SOL     OW10236   0.851   5.926   5.796
 2879SOL    HW110237   0.907   5.973   5.729
 2879SOL    HW210238   0.800   5.852   5.751
 2880SOL     OW10239   1.435   6.743   6.198
 2880SOL    HW110240   1.518   6.728   6.145
 2880SOL    HW210241   1.423   6.842   6.212
 2881SOL     OW10242   0.518   5.819   6.526
 2881SOL    HW110243   0.591   5.803   6.592
 2881SOL    HW210244   0.532   5.907   6.481
 2882SOL     OW10245   1.852   6.701   6.486
 2882SOL    HW110246   1.812   6.754   6.411
 2882SOL    HW210247   1.779   6.667   6.545
 2883SOL     OW10248   0.307   6.569   5.864
 2883SOL    HW110249   0.387   6.580   5.805
 2883SOL    HW210250   0.274   6.474   5.858
 2884SOL     OW10251   1.450   6.353   6.284
 2884SOL    HW110252   1.450   6.304   6.371
 2884SOL    HW210253   1.538   6.398   6.272
 2885SOL     OW10254   1.620   6.976   5.707
 2885SOL    HW110255   1.586   0.069   5.719
 2885SOL    HW210256   1.545   6.915   5.681
 2886SOL     OW10257   1.419   5.704   6.037
 2886SOL    HW110258   1.411   5.668   5.944
 2886SOL    HW210259   1.514   5.726   6.055
 2887SOL     OW10260   0.385   6.272   6.043
 2887SOL    HW110261   0.411   6.176   6.053
 2887SOL    HW210262   0.291   6.285   6.074
 2888SOL     OW10263   0.689   5.709   5.690
 2888SOL    HW110264   0.759   5.638   5.692
 2888SOL    HW210265   0.614   5.680   5.630
 2889SOL     OW10266   0.927   6.193   6.451
 2889SOL    HW110267   0.899   6.145   6.368
 2889SOL    HW210268   0.960   6.127   6.519
 2890SOL     OW10269   0.575   5.657   6.087
 2890SOL    HW110270   0.499   5.659   6.153
 2890SOL    HW210271   0.563   5.731   6.021
 2891SOL     OW10272   1.401   6.782   5.662
 2891SOL    HW110273   1.473   6.732   5.710
 2891SOL    HW210274   1.317   6.729   5.664
 2892SOL     OW10275   0.273   5.643   5.786
 2892SOL    HW110276   0.304   5.714   5.723
 2892SOL    HW210277   0.352   5.591   5.819
 2893SOL     OW10278   0.959   5.856   6.040
 2893SOL    HW110279   0.921   5.884   5.952
 2893SOL    HW210280   1.058   5.870   6.040
 2894SOL     OW10281   1.322   0.047   6.308
 2894SOL    HW110282   1.334   0.146   6.301
 2894SOL    HW210283   1.224   0.025   6.309
 2895SOL     OW10284   0.454   6.656   6.338
 2895SOL    HW110285   0.371   6.642   6.393
 2895SOL    HW210286   0.428   6.688   6.247
 2896SOL     OW10287   1.010   6.082   5.633
 2896SOL    HW110288   0.969   6.171   5.614
 2896SOL    HW210289   1.083   6.092   5.700
 2897SOL     OW10290   0.703   5.752   6.720
 2897SOL    HW110291   0.730   5.676   6.661
 2897SOL    HW210292   0.709   5.723   6.815
 2898SOL     OW10293   0.864   6.064   6.216
 2898SOL    HW110294   0.803   6.113   6.154
 2898SOL    HW210295   0.901   5.983   6.171
 2899SOL     OW10296   1.045   5.633   6.304
 2899SOL    HW110297   0.975   5.641   6.233
 2899SOL    HW210298   1.022   5.556   6.365
 2900SOL     OW10299   1.446   6.655   6.473
 2900SOL    HW110300   1.384   6.584   6.507
 2900SOL    HW210301   1.436   6.663   6.373
 2901SOL     OW10302   1.446   6.204   6.520
 2901SOL    HW110303   1.382   6.128   6.524
 2901SOL    HW210304   1.511   6.197   6.595
 2902SOL     OW10305   1.824   6.382   5.938
 2902SOL    HW110306   1.877   6.349   6.017
 2902SOL    HW210307   1.809   6.306   5.875
 2903SOL     OW10308   1.790   6.861   6.266
 2903SOL    HW110309   1.888   6.881   6.265
 2903SOL    HW210310   1.739   6.945   6.248
 2904SOL     OW10311   1.372   6.148   5.628
 2904SOL    HW110312   1.325   6.116   5.710
 2904SOL    HW210313   1.471   6.139   5.641
 2905SOL     OW10314   0.543   5.838   5.888
 2905SOL    HW110315   0.600   5.790   5.821
 2905SOL    HW210316   0.496   5.914   5.843
 2906SOL     OW10317   1.788   6.797   0.281
 2906SOL    HW110318   1.878   6.755   0.271
 2906SOL    HW210319   1.773   6.862   0.206
 2907SOL     OW10320   0.985   6.801   6.916
 2907SOL    HW110321   0.895   6.793   6.959
 2907SOL    HW210322   1.049   6.738   6.959
 2908SOL     OW10323   1.164   6.743   6.705
 2908SOL    HW110324   1.090   6.781   6.760
 2908SOL    HW210325   1.142   6.753   6.608
 2909SOL     OW10326   1.650   6.620   6.649
 2909SOL    HW110327   1.642   6.686   6.724
 2909SOL    HW210328   1.572   6.629   6.587
 2910SOL     OW10329   0.740   6.613   5.946
 2910SOL    HW110330   0.731   6.590   6.043
 2910SOL    HW210331   0.818   6.564   5.907
 2911SOL     OW10332   0.340   6.403   6.853
 2911SOL    HW110333   0.387   6.396   6.941
 2911SOL    HW210334   0.265   6.337   6.849
 2912SOL     OW10335   1.240   6.014   6.802
 2912SOL    HW110336   1.265   6.085   6.868
 2912SOL    HW210337   1.156   6.040   6.754
 2913SOL     OW10338   0.150   0.094   6.976
 2913SOL    HW110339   0.086   0.169   6.988
 2913SOL    HW210340   0.184   0.064   0.065
 2914SOL     OW10341   0.392   6.734   6.076
 2914SOL    HW110342   0.477   6.776   6.046
 2914SOL    HW210343   0.361   6.668   6.007
 2915SOL     OW10344   0.525   6.085   6.412
 2915SOL    HW110345   0.547   6.141   6.333
 2915SOL    HW210346   0.568   6.123   6.494
 2916SOL     OW10347   1.541   6.244   6.034
 2916SOL    HW110348   1.491   6.269   6.117
 2916SOL    HW210349   1.622   6.302   6.026
 2917SOL     OW10350   0.589   6.454   6.717
 2917SOL    HW110351   0.596   6.534   6.658
 2917SOL    HW210352   0.494   6.442   6.746
 2918SOL     OW10353   1.307   6.442   6.585
 2918SOL    HW110354   1.208   6.436   6.586
 2918SOL    HW210355   1.346   6.353   6.561
 2919SOL     OW10356   1.196   6.100   5.838
 2919SOL    HW110357   1.215   6.023   5.899
 2919SOL    HW210358   1.145   6.170   5.887
 2920SOL     OW10359   0.130   6.911   6.770
 2920SOL    HW110360   0.170   6.822   6.790
 2920SOL    HW210361   0.128   6.967   6.852
 2921SOL     OW10362   0.681   6.212   6.604
 2921SOL    HW110363   0.758   6.226   6.542
 2921SOL    HW210364   0.653   6.300   6.643
 2922SOL     OW10365   0.346   5.670   6.240
 2922SOL    HW110366   0.323   5.767   6.250
 2922SOL    HW210367   0.349   5.627   6.331
 2923SOL     OW10368   1.585   5.993   5.916
 2923SOL    HW110369   1.612   5.921   5.980
 2923SOL    HW210370   1.556   6.074   5.966
 2924SOL     OW10371   1.024   6.408   6.598
 2924SOL    HW110372   1.006   6.401   6.696
 2924SOL    HW210373   0.991   6.326   6.552
 2925SOL     OW10374   1.493   5.846   5.693
 2925SOL    HW110375   1.455   5.762   5.733
 2925SOL    HW210376   1.528   5.905   5.766
 2926SOL     OW10377   1.279   6.400   5.600
 2926SOL    HW110378   1.301   6.303   5.605
 2926SOL    HW210379   1.306   6.436   5.511
 2927SOL     OW10380   1.188   5.841   0.009
 2927SOL    HW110381   1.264   5.857   0.071
 2927SOL    HW210382   1.200   5.896   6.926
 2928SOL     OW10383   6.920   6.932   5.806
 2928SOL    HW110384   6.855   6.952   5.880
 2928SOL    HW210385   6.968   6.846   5.826
 2929SOL     OW10386   0.963   6.384   6.869
 2929SOL    HW110387   0.988   6.302   6.921
 2929SOL    HW210388   0.876   6.419   6.902
 2930SOL     OW10389   0.780   6.151   5.945
 2930SOL    HW110390   0.795   6.067   5.894
 2930SOL    HW210391   0.701   6.199   5.908
 2931SOL     OW10392   1.638   6.176   6.719
 2931SOL    HW110393   1.608   6.111   6.789
 2931SOL    HW210394   1.736   6.166   6.705
 2932SOL     OW10395   0.745   6.015   6.781
 2932SOL    HW110396   0.725   5.923   6.747
 2932SOL    HW210397   0.713   6.083   6.715
 2933SOL     OW10398   0.411   6.046   5.770
 2933SOL    HW110399   0.466   6.130   5.776
 2933SOL    HW210400   0.327   6.058   5.824
 2934SOL     OW10401   0.294   6.761   0.032
 2934SOL    HW110402   0.235   6.730   0.107
 2934SOL    HW210403   0.265   6.716   6.947
 2935SOL     OW10404   1.341   6.576   6.832
 2935SOL    HW110405   1.361   6.515   6.755
 2935SOL    HW210406   1.280   6.649   6.803
 2936SOL     OW10407   1.448   6.424   5.829
 2936SOL    HW110408   1.456   6.345   5.889
 2936SOL    HW210409   1.379   6.405   5.759
 2937SOL     OW10410   0.114   6.901   6.500
 2937SOL    HW110411   0.112   6.908   6.599
 2937SOL    HW210412   0.032   6.944   6.462
 2938SOL     OW10413   1.694   5.765   6.046
 2938SOL    HW110414   1.773   5.781   5.986
 2938SOL    HW210415   1.705   5.679   6.095
 2939SOL     OW10416   1.253   6.542   6.258
 2939SOL    HW110417   1.319   6.468   6.269
 2939SOL    HW210418   1.297   6.620   6.215
 2940SOL     OW10419   0.749   6.765   0.048
 2940SOL    HW110420   0.769   6.802   0.139
 2940SOL    HW210421   0.665   6.807   0.012
 2941SOL     OW10422   1.837   5.759   6.558
 2941SOL    HW110423   1.869   5.667   6.536
 2941SOL    HW210424   1.750   5.776   6.513
 2942SOL     OW10425   0.308   5.941   6.312
 2942SOL    HW110426   0.382   5.999   6.345
 2942SOL    HW210427   0.261   5.899   6.390
 2943SOL     OW10428   1.261   0.160   5.602
 2943SOL    HW110429   1.253   0.097   5.679
 2943SOL    HW210430   1.177   0.158   5.548
 2944SOL     OW10431   0.726   6.502   6.955
 2944SOL    HW110432   0.680   6.494   6.867
 2944SOL    HW210433   0.742   6.599   6.975
 2945SOL     OW10434   0.951   6.480   5.815
 2945SOL    HW110435   1.026   6.538   5.785
 2945SOL    HW210436   0.987   6.406   5.873
 2946SOL     OW10437   0.523   6.884   6.950
 2946SOL    HW110438   0.545   6.970   6.995
 2946SOL    HW210439   0.437   6.848   6.987
 2947SOL     OW10440   1.649   6.791   6.856
 2947SOL    HW110441   1.739   6.822   6.885
 2947SOL    HW210442   1.592   6.773   6.937
 2948SOL     OW10443   1.088   6.727   6.410
 2948SOL    HW110444   0.999   6.681   6.420
 2948SOL    HW210445   1.152   6.666   6.364
 2949SOL     OW10446   1.063   5.796   6.531
 2949SOL    HW110447   1.054   5.756   6.440
 2949SOL    HW210448   1.069   5.723   6.599
 2950SOL     OW10449   1.595   5.993   6.920
 2950SOL    HW110450   1.647   6.028   6.997
 2950SOL    HW210451   1.628   5.902   6.895
 2951SOL     OW10452   0.711   5.742   0.012
 2951SOL    HW110453   0.802   5.713   0.040
 2951SOL    HW210454   0.708   5.842   0.004
 2952SOL     OW10455   0.066   5.860   5.569
 2952SOL    HW110456   0.000   5.793   5.605
 2952SOL    HW210457   0.018   5.944   5.545
 2953SOL     OW10458   0.056   5.795   5.879
 2953SOL    HW110459   6.993   5.767   5.806
 2953SOL    HW210460   0.141   5.742   5.872
 2954SOL     OW10461   1.542   6.909   0.373
 2954SOL    HW110462   1.475   6.847   0.332
 2954SOL    HW210463   1.634   6.879   0.348
 2955SOL     OW10464   1.733   6.425   6.827
 2955SOL    HW110465   1.701   6.337   6.793
 2955SOL    HW210466   1.704   6.498   6.765
 2956SOL     OW10467   1.231   5.907   6.034
 2956SOL    HW110468   1.295   5.830   6.034
 2956SOL    HW210469   1.254   5.970   6.107
 2957SOL     OW10470   0.589   6.288   6.233
 2957SOL    HW110471   0.640   6.374   6.230
 2957SOL    HW210472   0.516   6.290   6.164
 2958SOL     OW10473   1.667   6.381   0.100
 2958SOL    HW110474   1.577   6.422   0.117
 2958SOL    HW210475   1.698   6.406   0.009
 2959SOL     OW10476   0.859   6.579   6.450
 2959SOL    HW110477   0.916   6.521   6.508
 2959SOL    HW210478   0.781   6.613   6.503
 2960SOL     OW10479   1.167   6.635   5.680
 2960SOL    HW110480   1.089   6.655   5.621
 2960SOL    HW210481   1.205   6.545   5.656
 2961SOL     OW10482   0.180   6.902   6.124
 2961SOL    HW110483   0.095   6.849   6.131
 2961SOL    HW210484   0.257   6.839   6.113
 2962SOL     OW10485   1.761   5.747   6.828
 2962SOL    HW110486   1.743   5.649   6.823
 2962SOL    HW210487   1.787   5.782   6.738
 2963SOL     OW10488   0.447   6.016   6.083
 2963SOL    HW110489   0.492   5.945   6.029
 2963SOL    HW210490   0.396   5.973   6.157
 2964SOL     OW10491   1.584   0.018   6.719
 2964SOL    HW110492   1.554   6.986   6.628
 2964SOL    HW210493   1.601   6.938   6.777
 2965SOL     OW10494   1.426   5.854   6.674
 2965SOL    HW110495   1.429   5.758   6.702
 2965SOL    HW210496   1.370   5.906   6.739
 2966SOL     OW10497   1.078   5.559   6.675
 2966SOL    HW110498   1.037   5.499   6.606
 2966SOL    HW210499   1.167   5.521   6.703
 2967SOL     OW10500   0.769   6.886   5.858
 2967SOL    HW110501   0.757   6.790   5.883
 2967SOL    HW210502   0.809   6.936   5.935
 2968SOL     OW10503   1.401   5.601   5.782
 2968SOL    HW110504   1.440   5.535   5.717
 2968SOL    HW210505   1.305   5.577   5.798
 2969SOL     OW10506   1.295   6.078   6.234
 2969SOL    HW110507   1.241   6.162   6.227
 2969SOL    HW210508   1.285   6.040   6.326
 2970SOL     OW10509   1.590   5.810   6.461
 2970SOL    HW110510   1.533   5.836   6.539
 2970SOL    HW210511   1.585   5.880   6.390
 2971SOL     OW10512   0.047   6.680   5.861
 2971SOL    HW110513   0.143   6.654   5.864
 2971SOL    HW210514   6.990   6.598   5.863
 2972SOL     OW10515   2.094   0.665   0.094
 2972SOL    HW110516   2.001   0.630   0.087
 2972SOL    HW210517   2.141   0.652   0.006
 2973SOL     OW10518   2.048   0.318   1.017
 2973SOL    HW110519   2.092   0.281   1.099
 2973SOL    HW210520   1.975   0.256   0.987
 2974SOL     OW10521   1.886   0.432   0.640
 2974SOL    HW110522   1.809   0.464   0.696
 2974SOL    HW210523   1.854   0.366   0.572
 2975SOL     OW10524   2.421   1.317   1.226
 2975SOL    HW110525   2.338   1.312   1.171
 2975SOL    HW210526   2.440   1.412   1.250
 2976SOL     OW10527   3.476   1.493   0.728
 2976SOL    HW110528   3.413   1.459   0.798
 2976SOL    HW210529   3.424   1.526   0.650
 2977SOL     OW10530   2.985   0.701   0.664
 2977SOL    HW110531   3.028   0.791   0.661
 2977SOL    HW210532   2.916   0.699   0.737
 2978SOL     OW10533   3.687   0.567   0.094
 2978SOL    HW110534   3.661   0.663   0.082
 2978SOL    HW210535   3.651   0.533   0.181
 2979SOL     OW10536   2.565   1.122   1.076
 2979SOL    HW110537   2.506   1.160   1.147
 2979SOL    HW210538   2.609   1.196   1.026
 2980SOL     OW10539   2.728   0.744   1.852
 2980SOL    HW110540   2.725   0.804   1.931
 2980SOL    HW210541   2.744   0.798   1.769
 2981SOL     OW10542   2.562   0.948   0.657
 2981SOL    HW110543   2.627   0.957   0.732
 2981SOL    HW210544   2.488   1.015   0.669
 2982SOL     OW10545   2.529   1.157   1.829
 2982SOL    HW110546   2.581   1.232   1.869
 2982SOL    HW210547   2.452   1.194   1.777
 2983SOL     OW10548   2.196   1.384   1.065
 2983SOL    HW110549   2.116   1.342   1.022
 2983SOL    HW210550   2.246   1.438   0.998
 2984SOL     OW10551   3.304   1.499   1.389
 2984SOL    HW110552   3.366   1.577   1.397
 2984SOL    HW210553   3.227   1.511   1.452
 2985SOL     OW10554   2.348   0.327   1.407
 2985SOL    HW110555   2.425   0.301   1.466
 2985SOL    HW210556   2.262   0.302   1.452
 2986SOL     OW10557   3.500   0.508   0.751
 2986SOL    HW110558   3.490   0.549   0.660
 2986SOL    HW210559   3.442   0.555   0.816
 2987SOL     OW10560   2.094   1.717   0.494
 2987SOL    HW110561   2.118   1.801   0.544
 2987SOL    HW210562   2.177   1.678   0.454
 2988SOL     OW10563   2.978   1.331   1.704
 2988SOL    HW110564   3.063   1.298   1.745
 2988SOL    HW210565   2.910   1.258   1.707
 2989SOL     OW10566   2.132   1.434   0.570
 2989SOL    HW110567   2.084   1.521   0.587
 2989SOL    HW210568   2.075   1.359   0.601
 2990SOL     OW10569   2.143   1.098   0.840
 2990SOL    HW110570   2.157   1.007   0.878
 2990SOL    HW210571   2.087   1.152   0.903
 2991SOL     OW10572   2.409   1.833   1.398
 2991SOL    HW110573   2.330   1.810   1.454
 2991SOL    HW210574   2.464   1.903   1.444
 2992SOL     OW10575   2.411   0.965   0.189
 2992SOL    HW110576   2.444   0.997   0.100
 2992SOL    HW210577   2.461   1.011   0.262
 2993SOL     OW10578   3.447   0.293   1.422
 2993SOL    HW110579   3.545   0.310   1.433
 2993SOL    HW210580   3.406   0.273   1.511
 2994SOL     OW10581   1.990   0.680   0.552
 2994SOL    HW110582   1.964   0.587   0.580
 2994SOL    HW210583   1.981   0.742   0.630
 2995SOL     OW10584   3.726   1.763   0.383
 2995SOL    HW110585   3.811   1.730   0.425
 2995SOL    HW210586   3.744   1.848   0.334
 2996SOL     OW10587   3.562   0.921   0.674
 2996SOL    HW110588   3.656   0.886   0.669
 2996SOL    HW210589   3.542   0.976   0.593
 2997SOL     OW10590   3.500   1.085   0.465
 2997SOL    HW110591   3.543   1.081   0.375
 2997SOL    HW210592   3.541   1.159   0.519
 2998SOL     OW10593   1.959   0.778   1.572
 2998SOL    HW110594   2.009   0.851   1.618
 2998SOL    HW210595   1.876   0.816   1.530
 2999SOL     OW10596   2.493   1.369   0.732
 2999SOL    HW110597   2.449   1.280   0.721
 2999SOL    HW210598   2.493   1.417   0.644
 3000SOL     OW10599   3.105   1.220   1.426
 3000SOL    HW110600   3.122   1.154   1.352
 3000SOL    HW210601   3.181   1.218   1.491
 3001SOL     OW10602   2.714   0.044   0.522
 3001SOL    HW110603   2.753   0.134   0.501
 3001SOL    HW210604   2.615   0.050   0.523
 3002SOL     OW10605   2.052   0.919   1.282
 3002SOL    HW110606   2.147   0.887   1.279
 3002SOL    HW210607   1.997   0.862   1.221
 3003SOL     OW10608   3.306   1.031   0.203
 3003SOL    HW110609   3.241   0.965   0.240
 3003SOL    HW210610   3.399   0.997   0.215
 3004SOL     OW10611   3.106   1.828   1.624
 3004SOL    HW110612   3.072   1.886   1.551
 3004SOL    HW210613   3.098   1.732   1.597
 3005SOL     OW10614   2.213   0.288   1.784
 3005SOL    HW110615   2.266   0.357   1.833
 3005SOL    HW210616   2.119   0.290   1.816
 3006SOL     OW10617   3.294   1.404   0.915
 3006SOL    HW110618   3.250   1.433   1.000
 3006SOL    HW210619   3.277   1.306   0.901
 3007SOL     OW10620   3.427   1.905   0.549
 3007SOL    HW110621   3.430   1.842   0.471
 3007SOL    HW210622   3.475   1.865   0.626
 3008SOL     OW10623   2.443   0.709   0.275
 3008SOL    HW110624   2.436   0.803   0.243
 3008SOL    HW210625   2.380   0.694   0.351
 3009SOL     OW10626   3.160   0.395   0.939
 3009SOL    HW110627   3.076   0.342   0.948
 3009SOL    HW210628   3.229   0.360   1.003
 3010SOL     OW10629   3.456   1.721   0.347
 3010SOL    HW110630   3.555   1.723   0.353
 3010SOL    HW210631   3.429   1.711   0.251
 3011SOL     OW10632   2.653   0.570   1.475
 3011SOL    HW110633   2.624   0.532   1.563
 3011SOL    HW210634   2.637   0.503   1.403
 3012SOL     OW10635   3.249   0.523   1.671
 3012SOL    HW110636   3.256   0.563   1.763
 3012SOL    HW210637   3.295   0.434   1.670
 3013SOL     OW10638   2.786   0.881   1.615
 3013SOL    HW110639   2.845   0.815   1.567
 3013SOL    HW210640   2.729   0.929   1.549
 3014SOL     OW10641   2.891   0.402   1.171
 3014SOL    HW110642   2.798   0.413   1.205
 3014SOL    HW210643   2.891   0.342   1.092
 3015SOL     OW10644   2.908   0.700   0.401
 3015SOL    HW110645   2.937   0.699   0.497
 3015SOL    HW210646   2.818   0.657   0.393
 3016SOL     OW10647   1.956   0.854   0.768
 3016SOL    HW110648   2.046   0.841   0.809
 3016SOL    HW210649   1.903   0.919   0.822
 3017SOL     OW10650   1.952   1.905   1.598
 3017SOL    HW110651   1.962   1.860   1.686
 3017SOL    HW210652   1.855   1.913   1.575
 3018SOL     OW10653   2.725   0.345   0.217
 3018SOL    HW110654   2.760   0.400   0.142
 3018SOL    HW210655   2.718   0.250   0.189
 3019SOL     OW10656   3.535   0.601   1.840
 3019SOL    HW110657   3.514   0.682   1.784
 3019SOL    HW210658   3.558   0.525   1.781
 3020SOL     OW10659   3.258   1.166   0.589
 3020SOL    HW110660   3.342   1.139   0.541
 3020SOL    HW210661   3.215   1.241   0.539
 3021SOL     OW10662   2.346   0.229   0.946
 3021SOL    HW110663   2.397   0.227   1.032
 3021SOL    HW210664   2.362   0.316   0.900
 3022SOL     OW10665   2.879   1.451   0.490
 3022SOL    HW110666   2.852   1.529   0.434
 3022SOL    HW210667   2.844   1.464   0.583
 3023SOL     OW10668   2.220   1.786   0.868
 3023SOL    HW110669   2.254   1.692   0.870
 3023SOL    HW210670   2.293   1.848   0.897
 3024SOL     OW10671   3.654   1.050   0.901
 3024SOL    HW110672   3.607   1.026   0.817
 3024SOL    HW210673   3.587   1.061   0.975
 3025SOL     OW10674   3.063   1.540   1.529
 3025SOL    HW110675   3.045   1.467   1.595
 3025SOL    HW210676   2.998   1.535   1.454
 3026SOL     OW10677   2.136   0.930   0.177
 3026SOL    HW110678   2.235   0.947   0.187
 3026SOL    HW210679   2.121   0.834   0.152
 3027SOL     OW10680   3.330   0.785   0.706
 3027SOL    HW110681   3.321   0.735   0.792
 3027SOL    HW210682   3.415   0.838   0.707
 3028SOL     OW10683   2.315   1.305   1.726
 3028SOL    HW110684   2.292   1.308   1.629
 3028SOL    HW210685   2.232   1.295   1.780
 3029SOL     OW10686   2.999   1.794   0.251
 3029SOL    HW110687   2.930   1.749   0.308
 3029SOL    HW210688   3.028   1.732   0.178
 3030SOL     OW10689   2.104   0.260   1.525
 3030SOL    HW110690   2.022   0.316   1.511
 3030SOL    HW210691   2.139   0.274   1.617
 3031SOL     OW10692   3.483   1.471   0.128
 3031SOL    HW110693   3.423   1.546   0.103
 3031SOL    HW210694   3.432   1.404   0.183
 3032SOL     OW10695   2.356   1.697   0.387
 3032SOL    HW110696   2.394   1.780   0.427
 3032SOL    HW210697   2.337   1.712   0.290
 3033SOL     OW10698   3.351   0.197   0.410
 3033SOL    HW110699   3.355   0.098   0.406
 3033SOL    HW210700   3.438   0.232   0.447
 3034SOL     OW10701   2.062   1.795   1.205
 3034SOL    HW110702   2.115   1.719   1.242
 3034SOL    HW210703   2.033   1.772   1.111
 3035SOL     OW10704   2.840   1.694   0.881
 3035SOL    HW110705   2.930   1.651   0.888
 3035SOL    HW210706   2.785   1.647   0.812
 3036SOL     OW10707   2.261   0.657   0.474
 3036SOL    HW110708   2.269   0.558   0.485
 3036SOL    HW210709   2.167   0.685   0.490
 3037SOL     OW10710   3.345   0.258   1.686
 3037SOL    HW110711   3.358   0.251   1.784
 3037SOL    HW210712   3.260   0.211   1.660
 3038SOL     OW10713   2.473   0.117   0.058
 3038SOL    HW110714   2.572   0.106   0.073
 3038SOL    HW210715   2.458   0.163   6.971
 3039SOL     OW10716   2.645   0.254   1.816
 3039SOL    HW110717   2.733   0.212   1.793
 3039SOL    HW210718   2.586   0.186   1.859
 3040SOL     OW10719   2.696   1.506   1.187
 3040SOL    HW110720   2.679   1.454   1.103
 3040SOL    HW210721   2.764   1.458   1.242
 3041SOL     OW10722   3.161   0.616   1.432
 3041SOL    HW110723   3.204   0.590   1.518
 3041SOL    HW210724   3.191   0.708   1.405
 3042SOL     OW10725   2.661   1.347   0.954
 3042SOL    HW110726   2.754   1.355   0.916
 3042SOL    HW210727   2.595   1.352   0.879
 3043SOL     OW10728   2.799   0.541   0.880
 3043SOL    HW110729   2.769   0.524   0.787
 3043SOL    HW210730   2.841   0.458   0.918
 3044SOL     OW10731   2.436   0.059   0.482
 3044SOL    HW110732   2.357   0.062   0.544
 3044SOL    HW210733   2.421   0.123   0.406
 3045SOL     OW10734   3.220   1.187   6.994
 3045SOL    HW110735   3.254   1.124   0.064
 3045SOL    HW210736   3.160   1.255   0.036
 3046SOL     OW10737   2.125   0.098   0.341
 3046SOL    HW110738   2.205   0.147   0.304
 3046SOL    HW210739   2.140   0.078   0.438
 3047SOL     OW10740   2.838   0.280   0.458
 3047SOL    HW110741   2.797   0.309   0.372
 3047SOL    HW210742   2.938   0.288   0.452
 3048SOL     OW10743   2.897   0.700   1.441
 3048SOL    HW110744   2.826   0.632   1.462
 3048SOL    HW210745   2.986   0.656   1.440
 3049SOL     OW10746   3.088   1.572   0.807
 3049SOL    HW110747   3.116   1.651   0.754
 3049SOL    HW210748   3.169   1.522   0.838
 3050SOL     OW10749   2.365   1.134   0.684
 3050SOL    HW110750   2.287   1.123   0.745
 3050SOL    HW210751   2.332   1.137   0.589
 3051SOL     OW10752   3.161   1.799   0.654
 3051SOL    HW110753   3.231   1.866   0.630
 3051SOL    HW210754   3.074   1.846   0.669
 3052SOL     OW10755   2.836   0.507   0.025
 3052SOL    HW110756   2.770   0.582   0.027
 3052SOL    HW210757   2.910   0.526   0.090
 3053SOL     OW10758   1.994   0.570   1.392
 3053SOL    HW110759   2.089   0.559   1.364
 3053SOL    HW210760   1.987   0.644   1.459
 3054SOL     OW10761   2.467   0.203   1.195
 3054SOL    HW110762   2.469   0.103   1.208
 3054SOL    HW210763   2.413   0.245   1.268
 3055SOL     OW10764   2.738   0.479   0.626
 3055SOL    HW110765   2.685   0.532   0.559
 3055SOL    HW210766   2.777   0.398   0.582
 3056SOL     OW10767   2.923   0.030   0.724
 3056SOL    HW110768   2.851   0.036   0.655
 3056SOL    HW210769   2.934   6.934   0.752
 3057SOL     OW10770   3.263   1.130   0.873
 3057SOL    HW110771   3.211   1.049   0.897
 3057SOL    HW210772   3.265   1.141   0.773
 3058SOL     OW10773   3.308   0.638   0.935
 3058SOL    HW110774   3.245   0.560   0.942
 3058SOL    HW210775   3.377   0.631   1.007
 3059SOL     OW10776   3.678   0.798   0.381
 3059SOL    HW110777   3.752   0.747   0.427
 3059SOL    HW210778   3.688   0.789   0.282
 3060SOL     OW10779   2.377   1.465   0.141
 3060SOL    HW110780   2.314   1.430   0.210
 3060SOL    HW210781   2.404   1.391   0.080
 3061SOL     OW10782   3.604   1.270   0.624
 3061SOL    HW110783   3.704   1.267   0.631
 3061SOL    HW210784   3.570   1.356   0.661
 3062SOL     OW10785   3.200   0.494   0.041
 3062SOL    HW110786   3.136   0.503   0.117
 3062SOL    HW210787   3.283   0.447   0.072
 3063SOL     OW10788   2.354   0.236   0.275
 3063SOL    HW110789   2.400   0.190   0.200
 3063SOL    HW210790   2.332   0.330   0.249
 3064SOL     OW10791   3.604   1.214   1.512
 3064SOL    HW110792   3.694   1.175   1.493
 3064SOL    HW210793   3.614   1.305   1.552
 3065SOL     OW10794   2.870   1.353   1.352
 3065SOL    HW110795   2.785   1.318   1.392
 3065SOL    HW210796   2.948   1.306   1.393
 3066SOL     OW10797   3.470   1.615   1.677
 3066SOL    HW110798   3.451   1.666   1.592
 3066SOL    HW210799   3.549   1.555   1.662
 3067SOL     OW10800   2.998   1.281   1.118
 3067SOL    HW110801   2.934   1.306   1.191
 3067SOL    HW210802   2.958   1.306   1.029
 3068SOL     OW10803   3.448   1.089   1.081
 3068SOL    HW110804   3.440   1.155   1.155
 3068SOL    HW210805   3.378   1.107   1.012
 3069SOL     OW10806   2.778   0.173   1.396
 3069SOL    HW110807   2.784   0.154   1.298
 3069SOL    HW210808   2.867   0.201   1.431
 3070SOL     OW10809   2.804   1.118   1.745
 3070SOL    HW110810   2.710   1.140   1.770
 3070SOL    HW210811   2.806   1.032   1.695
 3071SOL     OW10812   2.594   1.042   0.392
 3071SOL    HW110813   2.581   1.004   0.483
 3071SOL    HW210814   2.665   0.991   0.343
 3072SOL     OW10815   2.305   0.803   1.280
 3072SOL    HW110816   2.367   0.814   1.358
 3072SOL    HW210817   2.278   0.707   1.273
 3073SOL     OW10818   3.133   0.388   1.289
 3073SOL    HW110819   3.152   0.472   1.339
 3073SOL    HW210820   3.045   0.395   1.242
 3074SOL     OW10821   1.906   1.541   1.335
 3074SOL    HW110822   1.860   1.610   1.280
 3074SOL    HW210823   2.005   1.555   1.329
 3075SOL     OW10824   2.255   1.138   0.437
 3075SOL    HW110825   2.246   1.222   0.383
 3075SOL    HW210826   2.171   1.085   0.430
 3076SOL     OW10827   2.394   0.507   0.878
 3076SOL    HW110828   2.406   0.559   0.793
 3076SOL    HW210829   2.464   0.535   0.944
 3077SOL     OW10830   3.143   1.381   0.440
 3077SOL    HW110831   3.197   1.458   0.476
 3077SOL    HW210832   3.046   1.396   0.461
 3078SOL     OW10833   3.180   1.483   1.147
 3078SOL    HW110834   3.227   1.487   1.235
 3078SOL    HW210835   3.113   1.408   1.148
 3079SOL     OW10836   3.478   0.653   0.510
 3079SOL    HW110837   3.404   0.701   0.555
 3079SOL    HW210838   3.541   0.719   0.469
 3080SOL     OW10839   2.181   1.546   1.282
 3080SOL    HW110840   2.175   1.484   1.204
 3080SOL    HW210841   2.276   1.570   1.300
 3081SOL     OW10842   2.341   0.666   1.683
 3081SOL    HW110843   2.378   0.718   1.606
 3081SOL    HW210844   2.412   0.606   1.719
 3082SOL     OW10845   3.475   0.824   1.696
 3082SOL    HW110846   3.379   0.853   1.689
 3082SOL    HW210847   3.523   0.849   1.612
 3083SOL     OW10848   2.879   0.132   1.724
 3083SOL    HW110849   2.927   0.175   1.648
 3083SOL    HW210850   2.864   0.035   1.704
 3084SOL     OW10851   2.305   0.033   1.715
 3084SOL    HW110852   2.221   6.982   1.735
 3084SOL    HW210853   2.289   0.130   1.733
 3085SOL     OW10854   2.444   0.868   1.051
 3085SOL    HW110855   2.486   0.959   1.054
 3085SOL    HW210856   2.393   0.852   1.135
 3086SOL     OW10857   3.150   0.883   0.978
 3086SOL    HW110858   3.055   0.853   0.971
 3086SOL    HW210859   3.211   0.804   0.968
 3087SOL     OW10860   3.021   0.507   0.244
 3087SOL    HW110861   3.057   0.438   0.307
 3087SOL    HW210862   2.983   0.583   0.296
 3088SOL     OW10863   2.129   0.184   1.239
 3088SOL    HW110864   2.126   0.184   1.339
 3088SOL    HW210865   2.164   0.096   1.207
 3089SOL     OW10866   1.920   1.283   1.241
 3089SOL    HW110867   1.949   1.223   1.315
 3089SOL    HW210868   1.904   1.375   1.277
 3090SOL     OW10869   2.583   0.624   1.044
 3090SOL    HW110870   2.657   0.612   0.978
 3090SOL    HW210871   2.541   0.714   1.031
 3091SOL     OW10872   3.645   0.970   1.861
 3091SOL    HW110873   3.586   0.912   1.804
 3091SOL    HW210874   3.596   0.996   1.944
 3092SOL     OW10875   2.187   0.071   0.608
 3092SOL    HW110876   2.162   0.151   0.662
 3092SOL    HW210877   2.140   6.990   0.643
 3093SOL     OW10878   3.578   0.475   0.327
 3093SOL    HW110879   3.608   0.395   0.379
 3093SOL    HW210880   3.535   0.541   0.389
 3094SOL     OW10881   2.890   0.781   0.979
 3094SOL    HW110882   2.858   0.794   1.073
 3094SOL    HW210883   2.867   0.689   0.949
 3095SOL     OW10884   2.848   1.555   1.787
 3095SOL    HW110885   2.814   1.614   1.714
 3095SOL    HW210886   2.883   1.470   1.748
 3096SOL     OW10887   3.688   1.467   1.586
 3096SOL    HW110888   3.702   1.498   1.492
 3096SOL    HW210889   3.771   1.485   1.639
 3097SOL     OW10890   2.233   0.891   1.808
 3097SOL    HW110891   2.298   0.926   1.876
 3097SOL    HW210892   2.270   0.809   1.765
 3098SOL     OW10893   3.388   0.347   0.175
 3098SOL    HW110894   3.358   0.277   0.240
 3098SOL    HW210895   3.459   0.403   0.216
 3099SOL     OW10896   3.126   0.760   0.015
 3099SOL    HW110897   3.162   0.667   0.006
 3099SOL    HW210898   3.166   0.819   6.944
 3100SOL     OW10899   2.917   1.360   0.866
 3100SOL    HW110900   2.930   1.277   0.813
 3100SOL    HW210901   2.977   1.432   0.831
 3101SOL     OW10902   2.191   0.833   0.922
 3101SOL    HW110903   2.287   0.851   0.945
 3101SOL    HW210904   2.168   0.739   0.948
 3102SOL     OW10905   2.155   0.562   0.995
 3102SOL    HW110906   2.104   0.476   0.998
 3102SOL    HW210907   2.240   0.548   0.945
 3103SOL     OW10908   2.982   0.461   1.669
 3103SOL    HW110909   2.942   0.484   1.758
 3103SOL    HW210910   3.076   0.495   1.665
 3104SOL     OW10911   3.015   0.252   1.507
 3104SOL    HW110912   2.999   0.334   1.563
 3104SOL    HW210913   3.071   0.277   1.428
 3105SOL     OW10914   1.960   1.741   0.949
 3105SOL    HW110915   1.929   1.654   0.910
 3105SOL    HW210916   2.050   1.763   0.912
 3106SOL     OW10917   2.345   1.539   0.896
 3106SOL    HW110918   2.421   1.596   0.929
 3106SOL    HW210919   2.380   1.475   0.827
 3107SOL     OW10920   2.767   0.802   1.222
 3107SOL    HW110921   2.822   0.774   1.301
 3107SOL    HW210922   2.690   0.739   1.211
 3108SOL     OW10923   1.931   0.665   1.143
 3108SOL    HW110924   2.005   0.637   1.082
 3108SOL    HW210925   1.949   0.629   1.235
 3109SOL     OW10926   2.075   0.594   1.747
 3109SOL    HW110927   2.172   0.606   1.725
 3109SOL    HW210928   2.020   0.652   1.687
 3110SOL     OW10929   3.229   0.935   1.632
 3110SOL    HW110930   3.258   1.031   1.630
 3110SOL    HW210931   3.218   0.902   1.538
 3111SOL     OW10932   2.668   0.576   0.367
 3111SOL    HW110933   2.672   0.490   0.316
 3111SOL    HW210934   2.587   0.627   0.340
 3112SOL     OW10935   3.506   0.604   1.118
 3112SOL    HW110936   3.485   0.515   1.158
 3112SOL    HW210937   3.606   0.616   1.115
 3113SOL     OW10938   2.076   1.543   1.694
 3113SOL    HW110939   2.055   1.617   1.759
 3113SOL    HW210940   2.083   1.456   1.744
 3114SOL     OW10941   2.624   0.430   1.235
 3114SOL    HW110942   2.573   0.345   1.218
 3114SOL    HW210943   2.598   0.499   1.167
 3115SOL     OW10944   2.736   1.693   1.548
 3115SOL    HW110945   2.694   1.619   1.496
 3115SOL    HW210946   2.760   1.768   1.486
 3116SOL     OW10947   2.296   0.489   0.189
 3116SOL    HW110948   2.363   0.558   0.216
 3116SOL    HW210949   2.210   0.534   0.164
 3117SOL     OW10950   1.998   1.120   1.457
 3117SOL    HW110951   2.010   1.087   1.550
 3117SOL    HW210952   2.017   1.046   1.392
 3118SOL     OW10953   3.124   1.053   1.195
 3118SOL    HW110954   3.138   0.990   1.118
 3118SOL    HW210955   3.078   1.136   1.163
 3119SOL     OW10956   3.130   0.839   0.278
 3119SOL    HW110957   3.059   0.797   0.335
 3119SOL    HW210958   3.128   0.800   0.186
 3120SOL     OW10959   3.614   1.691   1.147
 3120SOL    HW110960   3.687   1.715   1.083
 3120SOL    HW210961   3.576   1.602   1.123
 3121SOL     OW10962   3.145   1.758   1.115
 3121SOL    HW110963   3.236   1.797   1.099
 3121SOL    HW210964   3.152   1.659   1.124
 3122SOL     OW10965   1.956   1.257   0.976
 3122SOL    HW110966   1.939   1.267   1.074
 3122SOL    HW210967   1.895   1.188   0.938
 3123SOL     OW10968   2.549   1.713   1.749
 3123SOL    HW110969   2.479   1.784   1.736
 3123SOL    HW210970   2.622   1.726   1.681
 3124SOL     OW10971   2.747   0.087   0.128
 3124SOL    HW110972   2.838   0.082   0.088
 3124SOL    HW210973   2.732   0.009   0.189
 3125SOL     OW10974   3.627   0.247   0.480
 3125SOL    HW110975   3.673   0.205   0.401
 3125SOL    HW210976   3.606   0.176   0.548
 3126SOL     OW10977   3.298   1.591   0.531
 3126SOL    HW110978   3.355   1.629   0.458
 3126SOL    HW210979   3.241   1.662   0.571
 3127SOL     OW10980   1.998   1.775   1.834
 3127SOL    HW110981   1.948   1.704   1.884
 3127SOL    HW210982   2.051   1.829   1.898
 3128SOL     OW10983   3.118   0.940   0.649
 3128SOL    HW110984   3.193   0.877   0.669
 3128SOL    HW210985   3.154   1.025   0.610
 3129SOL     OW10986   2.612   1.278   1.428
 3129SOL    HW110987   2.590   1.338   1.505
 3129SOL    HW210988   2.541   1.285   1.359
 3130SOL     OW10989   2.608   1.629   0.158
 3130SOL    HW110990   2.599   1.696   0.084
 3130SOL    HW210991   2.527   1.571   0.161
 3131SOL     OW10992   3.477   1.715   1.401
 3131SOL    HW110993   3.524   1.711   1.313
 3131SOL    HW210994   3.493   1.804   1.443
 3132SOL     OW10995   3.750   0.132   0.985
 3132SOL    HW110996   3.759   0.034   0.971
 3132SOL    HW210997   3.665   0.164   0.943
 3133SOL     OW10998   2.111   0.300   0.733
 3133SOL    HW110999   2.032   0.353   0.704
 3133SOL    HW211000   2.118   0.302   0.833
 3134SOL     OW11001   3.078   1.621   0.051
 3134SOL    HW111002   3.071   1.524   0.074
 3134SOL    HW211003   3.007   1.645   6.985
 3135SOL     OW11004   2.649   1.004   1.415
 3135SOL    HW111005   2.690   0.981   1.327
 3135SOL    HW211006   2.637   1.103   1.421
 3136SOL     OW11007   2.785   0.907   0.260
 3136SOL    HW111008   2.834   0.929   0.175
 3136SOL    HW211009   2.836   0.838   0.311
 3137SOL     OW11010   3.337   1.706   0.076
 3137SOL    HW111011   3.242   1.676   0.067
 3137SOL    HW211012   3.374   1.727   6.986
 3138SOL     OW11013   2.207   1.316   1.478
 3138SOL    HW111014   2.195   1.395   1.418
 3138SOL    HW211015   2.135   1.249   1.460
 3139SOL     OW11016   3.441   1.277   1.290
 3139SOL    HW111017   3.508   1.248   1.359
 3139SOL    HW211018   3.382   1.348   1.329
 3140SOL     OW11019   2.927   1.118   0.748
 3140SOL    HW111020   2.849   1.071   0.788
 3140SOL    HW211021   2.991   1.051   0.710
 3141SOL     OW11022   2.914   0.242   0.942
 3141SOL    HW111023   2.917   0.197   0.853
 3141SOL    HW211024   2.881   0.178   1.011
 3142SOL     OW11025   2.514   1.501   0.494
 3142SOL    HW111026   2.550   1.437   0.425
 3142SOL    HW211027   2.449   1.563   0.450
 3143SOL     OW11028   3.732   0.342   1.458
 3143SOL    HW111029   3.769   0.431   1.428
 3143SOL    HW211030   3.728   0.280   1.380
 3144SOL     OW11031   2.186   1.378   0.312
 3144SOL    HW111032   2.098   1.386   0.266
 3144SOL    HW211033   2.177   1.404   0.408
 3145SOL     OW11034   2.012   1.025   1.718
 3145SOL    HW111035   1.930   1.008   1.774
 3145SOL    HW211036   2.091   0.980   1.761
 3146SOL     OW11037   2.564   0.238   1.547
 3146SOL    HW111038   2.644   0.224   1.488
 3146SOL    HW211039   2.595   0.264   1.639
 3147SOL     OW11040   1.919   0.320   0.009
 3147SOL    HW111041   1.853   0.284   6.943
 3147SOL    HW211042   1.895   0.414   0.033
 3148SOL     OW11043   3.238   0.870   1.366
 3148SOL    HW111044   3.183   0.933   1.312
 3148SOL    HW211045   3.329   0.862   1.325
 3149SOL     OW11046   1.888   0.172   0.239
 3149SOL    HW111047   1.905   0.229   0.159
 3149SOL    HW211048   1.974   0.137   0.274
 3150SOL     OW11049   3.052   1.357   0.138
 3150SOL    HW111050   2.953   1.368   0.131
 3150SOL    HW211051   3.079   1.354   0.234
 3151SOL     OW11052   2.488   0.792   1.482
 3151SOL    HW111053   2.538   0.877   1.468
 3151SOL    HW211054   2.552   0.715   1.479
 3152SOL     OW11055   3.400   1.859   1.065
 3152SOL    HW111056   3.429   1.899   0.979
 3152SOL    HW211057   3.474   1.804   1.103
 3153SOL     OW11058   2.578   0.525   1.745
 3153SOL    HW111059   2.630   0.598   1.790
 3153SOL    HW211060   2.604   0.437   1.785
 3154SOL     OW11061   3.329   1.190   1.614
 3154SOL    HW111062   3.333   1.206   1.712
 3154SOL    HW211063   3.420   1.202   1.574
 3155SOL     OW11064   2.194   1.767   1.564
 3155SOL    HW111065   2.110   1.820   1.557
 3155SOL    HW211066   2.173   1.674   1.594
 3156SOL     OW11067   3.478   0.860   1.234
 3156SOL    HW111068   3.491   0.773   1.185
 3156SOL    HW211069   3.473   0.934   1.168
 3157SOL     OW11070   3.111   0.329   0.433
 3157SOL    HW111071   3.195   0.277   0.421
 3157SOL    HW211072   3.115   0.379   0.519
 3158SOL     OW11073   2.441   0.696   0.681
 3158SOL    HW111074   2.489   0.783   0.672
 3158SOL    HW211075   2.376   0.686   0.605
 3159SOL     OW11076   3.600   0.374   1.696
 3159SOL    HW111077   3.650   0.365   1.610
 3159SOL    HW211078   3.514   0.322   1.691
 3160SOL     OW11079   3.593   0.922   1.473
 3160SOL    HW111080   3.585   1.021   1.484
 3160SOL    HW211081   3.557   0.895   1.383
 3161SOL     OW11082   2.787   1.411   0.138
 3161SOL    HW111083   2.738   1.361   0.210
 3161SOL    HW211084   2.742   1.498   0.121
 3162SOL     OW11085   2.549   1.708   0.949
 3162SOL    HW111086   2.519   1.803   0.936
 3162SOL    HW211087   2.649   1.705   0.954
 3163SOL     OW11088   2.726   0.981   0.880
 3163SOL    HW111089   2.786   0.909   0.916
 3163SOL    HW211090   2.672   1.020   0.954
 3164SOL     OW11091   2.934   0.957   0.030
 3164SOL    HW111092   2.982   1.044   0.034
 3164SOL    HW211093   3.000   0.883   0.022
 3165SOL     OW11094   3.727   1.514   0.859
 3165SOL    HW111095   3.639   1.508   0.811
 3165SOL    HW211096   3.751   1.424   0.895
 3166SOL     OW11097   2.055   1.286   1.814
 3166SOL    HW111098   2.040   1.199   1.767
 3166SOL    HW211099   1.995   1.292   1.894
 3167SOL     OW11100   1.991   1.196   0.624
 3167SOL    HW111101   2.046   1.157   0.698
 3167SOL    HW211102   1.998   1.137   0.543
 3168SOL     OW11103   2.534   1.454   1.628
 3168SOL    HW111104   2.457   1.402   1.666
 3168SOL    HW211105   2.544   1.540   1.677
 3169SOL     OW11106   3.696   0.163   1.259
 3169SOL    HW111107   3.600   0.137   1.249
 3169SOL    HW211108   3.740   0.162   1.169
 3170SOL     OW11109   2.272   0.393   0.519
 3170SOL    HW111110   2.300   0.322   0.456
 3170SOL    HW211111   2.226   0.352   0.598
 3171SOL     OW11112   3.511   1.452   1.089
 3171SOL    HW111113   3.444   1.435   1.016
 3171SOL    HW211114   3.501   1.384   1.161
 3172SOL     OW11115   2.238   0.540   1.271
 3172SOL    HW111116   2.287   0.463   1.312
 3172SOL    HW211117   2.225   0.523   1.173
 3173SOL     OW11118   2.705   1.557   0.692
 3173SOL    HW111119   2.659   1.580   0.606
 3173SOL    HW211120   2.649   1.493   0.744
 3174SOL     OW11121   3.348   0.317   1.126
 3174SOL    HW111122   3.394   0.234   1.158
 3174SOL    HW211123   3.281   0.347   1.195
 3175SOL     OW11124   2.807   0.075   1.131
 3175SOL    HW111125   2.718   0.042   1.101
 3175SOL    HW211126   2.856   0.000   1.177
 3176SOL     OW11127   2.663   1.306   0.358
 3176SOL    HW111128   2.632   1.212   0.372
 3176SOL    HW211129   2.742   1.324   0.417
 3177SOL     OW11130   2.455   1.587   1.286
 3177SOL    HW111131   2.449   1.680   1.324
 3177SOL    HW211132   2.545   1.574   1.244
 3178SOL     OW11133   3.295   6.987   0.125
 3178SOL    HW111134   3.295   6.894   0.089
 3178SOL    HW211135   3.212   0.035   0.095
 3179SOL     OW11136   3.116   0.452   0.673
 3179SOL    HW111137   3.072   0.541   0.664
 3179SOL    HW211138   3.138   0.436   0.770
 3180SOL     OW11139   3.524   0.264   0.883
 3180SOL    HW111140   3.459   0.265   0.959
 3180SOL    HW211141   3.520   0.352   0.835
 3181SOL     OW11142   2.005   1.017   0.403
 3181SOL    HW111143   2.053   0.993   0.318
 3181SOL    HW211144   1.923   0.961   0.413
 3182SOL     OW11145   2.779   1.681   0.371
 3182SOL    HW111146   2.712   1.662   0.300
 3182SOL    HW211147   2.749   1.759   0.426
 3183SOL     OW11148   2.066   0.661   2.016
 3183SOL    HW111149   1.978   0.627   2.049
 3183SOL    HW211150   2.069   0.655   1.916
 3184SOL     OW11151   2.009   0.341   2.935
 3184SOL    HW111152   2.044   0.287   3.012
 3184SOL    HW211153   1.959   0.281   2.873
 3185SOL     OW11154   1.893   0.449   2.525
 3185SOL    HW111155   1.811   0.476   2.577
 3185SOL    HW211156   1.866   0.385   2.452
 3186SOL     OW11157   2.423   1.298   3.082
 3186SOL    HW111158   2.339   1.299   3.027
 3186SOL    HW211159   2.447   1.392   3.108
 3187SOL     OW11160   3.455   1.519   2.563
 3187SOL    HW111161   3.412   1.471   2.638
 3187SOL    HW211162   3.390   1.530   2.488
 3188SOL     OW11163   2.970   0.740   2.526
 3188SOL    HW111164   3.023   0.821   2.500
 3188SOL    HW211165   2.928   0.755   2.616
 3189SOL     OW11166   3.660   0.572   2.076
 3189SOL    HW111167   3.626   0.595   1.985
 3189SOL    HW211168   3.602   0.502   2.117
 3190SOL     OW11169   2.572   1.125   2.918
 3190SOL    HW111170   2.514   1.164   2.990
 3190SOL    HW211171   2.615   1.199   2.866
 3191SOL     OW11172   2.732   0.723   3.702
 3191SOL    HW111173   2.727   0.781   3.784
 3191SOL    HW211174   2.747   0.780   3.622
 3192SOL     OW11175   2.566   0.957   2.489
 3192SOL    HW111176   2.632   0.965   2.564
 3192SOL    HW211177   2.489   1.018   2.507
 3193SOL     OW11178   2.530   1.145   3.694
 3193SOL    HW111179   2.582   1.219   3.737
 3193SOL    HW211180   2.451   1.183   3.646
 3194SOL     OW11181   2.202   1.379   2.929
 3194SOL    HW111182   2.124   1.327   2.894
 3194SOL    HW211183   2.243   1.433   2.856
 3195SOL     OW11184   3.293   1.474   3.240
 3195SOL    HW111185   3.341   1.562   3.253
 3195SOL    HW211186   3.211   1.474   3.297
 3196SOL     OW11187   2.314   0.286   3.270
 3196SOL    HW111188   2.392   0.267   3.330
 3196SOL    HW211189   2.229   0.260   3.316
 3197SOL     OW11190   3.498   0.499   2.592
 3197SOL    HW111191   3.477   0.532   2.500
 3197SOL    HW211192   3.445   0.550   2.659
 3198SOL     OW11193   2.103   1.732   2.308
 3198SOL    HW111194   2.123   1.799   2.379
 3198SOL    HW211195   2.175   1.734   2.239
 3199SOL     OW11196   2.982   1.301   3.569
 3199SOL    HW111197   3.066   1.265   3.611
 3199SOL    HW211198   2.910   1.231   3.573
 3200SOL     OW11199   2.163   1.467   2.356
 3200SOL    HW111200   2.129   1.562   2.356
 3200SOL    HW211201   2.120   1.417   2.430
 3201SOL     OW11202   2.171   1.091   2.728
 3201SOL    HW111203   2.180   0.995   2.754
 3201SOL    HW211204   2.108   1.137   2.791
 3202SOL     OW11205   2.386   1.785   3.273
 3202SOL    HW111206   2.308   1.765   3.333
 3202SOL    HW211207   2.455   1.836   3.325
 3203SOL     OW11208   2.412   0.982   2.013
 3203SOL    HW111209   2.453   1.036   1.939
 3203SOL    HW211210   2.458   1.004   2.099
 3204SOL     OW11211   3.473   0.156   3.311
 3204SOL    HW111212   3.543   0.225   3.295
 3204SOL    HW211213   3.444   0.159   3.407
 3205SOL     OW11214   1.991   0.696   2.444
 3205SOL    HW111215   1.968   0.603   2.470
 3205SOL    HW211216   1.987   0.755   2.525
 3206SOL     OW11217   3.728   1.718   2.186
 3206SOL    HW111218   3.808   1.709   2.244
 3206SOL    HW211219   3.725   1.811   2.149
 3207SOL     OW11220   1.898   1.572   1.978
 3207SOL    HW111221   1.865   1.478   1.993
 3207SOL    HW211222   1.882   1.626   2.061
 3208SOL     OW11223   3.559   0.945   2.531
 3208SOL    HW111224   3.651   0.905   2.541
 3208SOL    HW211225   3.555   1.000   2.448
 3209SOL     OW11226   3.556   1.121   2.313
 3209SOL    HW111227   3.637   1.089   2.263
 3209SOL    HW211228   3.582   1.196   2.373
 3210SOL     OW11229   1.958   0.797   3.383
 3210SOL    HW111230   2.018   0.845   3.319
 3210SOL    HW211231   1.870   0.843   3.387
 3211SOL     OW11232   2.481   1.365   2.572
 3211SOL    HW111233   2.444   1.272   2.570
 3211SOL    HW211234   2.463   1.410   2.485
 3212SOL     OW11235   3.091   1.186   3.277
 3212SOL    HW111236   3.116   1.123   3.203
 3212SOL    HW211237   3.167   1.193   3.342
 3213SOL     OW11238   2.689   0.040   2.328
 3213SOL    HW111239   2.736   0.127   2.314
 3213SOL    HW211240   2.591   0.056   2.339
 3214SOL     OW11241   2.089   0.934   3.180
 3214SOL    HW111242   2.180   0.893   3.169
 3214SOL    HW211243   2.045   0.941   3.090
 3215SOL     OW11244   3.453   1.037   2.067
 3215SOL    HW111245   3.375   0.978   2.085
 3215SOL    HW211246   3.488   1.074   2.153
 3216SOL     OW11247   3.083   1.723   3.494
 3216SOL    HW111248   3.074   1.797   3.428
 3216SOL    HW211249   3.071   1.635   3.448
 3217SOL     OW11250   2.184   0.300   3.698
 3217SOL    HW111251   2.244   0.363   3.748
 3217SOL    HW211252   2.090   0.335   3.701
 3218SOL     OW11253   3.349   1.381   2.774
 3218SOL    HW111254   3.287   1.416   2.844
 3218SOL    HW211255   3.323   1.288   2.749
 3219SOL     OW11256   3.482   1.814   2.414
 3219SOL    HW111257   3.480   1.755   2.333
 3219SOL    HW211258   3.488   1.758   2.496
 3220SOL     OW11259   2.419   0.706   2.109
 3220SOL    HW111260   2.421   0.798   2.070
 3220SOL    HW211261   2.353   0.702   2.184
 3221SOL     OW11262   3.137   0.410   2.779
 3221SOL    HW111263   3.052   0.359   2.787
 3221SOL    HW211264   3.204   0.374   2.844
 3222SOL     OW11265   3.460   1.661   2.185
 3222SOL    HW111266   3.560   1.668   2.181
 3222SOL    HW211267   3.424   1.649   2.093
 3223SOL     OW11268   2.646   0.545   3.328
 3223SOL    HW111269   2.610   0.514   3.416
 3223SOL    HW211270   2.617   0.482   3.256
 3224SOL     OW11271   3.268   0.500   3.518
 3224SOL    HW111272   3.257   0.547   3.606
 3224SOL    HW211273   3.363   0.471   3.507
 3225SOL     OW11274   2.790   0.868   3.468
 3225SOL    HW111275   2.844   0.799   3.420
 3225SOL    HW211276   2.738   0.922   3.402
 3226SOL     OW11277   2.861   0.413   3.033
 3226SOL    HW111278   2.766   0.418   3.064
 3226SOL    HW211279   2.866   0.366   2.945
 3227SOL     OW11280   2.882   0.715   2.264
 3227SOL    HW111281   2.906   0.720   2.361
 3227SOL    HW211282   2.794   0.668   2.253
 3228SOL     OW11283   1.961   0.857   2.663
 3228SOL    HW111284   2.046   0.839   2.713
 3228SOL    HW211285   1.905   0.922   2.715
 3229SOL     OW11286   1.938   1.885   3.456
 3229SOL    HW111287   1.931   1.873   3.555
 3229SOL    HW211288   1.847   1.904   3.419
 3230SOL     OW11289   2.726   0.384   2.049
 3230SOL    HW111290   2.797   0.439   2.005
 3230SOL    HW211291   2.679   0.328   1.980
 3231SOL     OW11292   3.526   0.599   3.710
 3231SOL    HW111293   3.513   0.683   3.659
 3231SOL    HW211294   3.541   0.523   3.647
 3232SOL     OW11295   3.282   1.174   2.430
 3232SOL    HW111296   3.370   1.165   2.383
 3232SOL    HW211297   3.225   1.240   2.381
 3233SOL     OW11298   2.287   0.276   2.770
 3233SOL    HW111299   2.327   0.250   2.858
 3233SOL    HW211300   2.335   0.356   2.734
 3234SOL     OW11301   2.856   1.452   2.315
 3234SOL    HW111302   2.838   1.527   2.252
 3234SOL    HW211303   2.814   1.472   2.404
 3235SOL     OW11304   2.209   1.786   2.732
 3235SOL    HW111305   2.251   1.695   2.733
 3235SOL    HW211306   2.278   1.854   2.756
 3236SOL     OW11307   3.649   1.071   2.770
 3236SOL    HW111308   3.604   1.059   2.682
 3236SOL    HW211309   3.581   1.071   2.843
 3237SOL     OW11310   3.048   1.480   3.369
 3237SOL    HW111311   3.033   1.414   3.442
 3237SOL    HW211312   2.981   1.464   3.295
 3238SOL     OW11313   2.148   0.918   2.117
 3238SOL    HW111314   2.233   0.945   2.072
 3238SOL    HW211315   2.123   0.825   2.088
 3239SOL     OW11316   3.332   0.795   2.541
 3239SOL    HW111317   3.320   0.742   2.626
 3239SOL    HW211318   3.414   0.851   2.547
 3240SOL     OW11319   2.314   1.294   3.600
 3240SOL    HW111320   2.287   1.310   3.505
 3240SOL    HW211321   2.233   1.276   3.655
 3241SOL     OW11322   3.022   1.751   2.087
 3241SOL    HW111323   2.929   1.736   2.122
 3241SOL    HW211324   3.049   1.672   2.032
 3242SOL     OW11325   2.100   0.221   3.433
 3242SOL    HW111326   2.016   0.270   3.409
 3242SOL    HW211327   2.132   0.251   3.523
 3243SOL     OW11328   3.529   1.398   1.954
 3243SOL    HW111329   3.475   1.482   1.952
 3243SOL    HW211330   3.474   1.321   1.922
 3244SOL     OW11331   2.327   1.773   2.150
 3244SOL    HW111332   2.371   1.824   2.224
 3244SOL    HW211333   2.395   1.716   2.104
 3245SOL     OW11334   3.253   0.128   2.274
 3245SOL    HW111335   3.220   0.077   2.194
 3245SOL    HW211336   3.350   0.150   2.262
 3246SOL     OW11337   2.070   1.783   3.078
 3246SOL    HW111338   2.128   1.706   3.106
 3246SOL    HW211339   2.039   1.769   2.984
 3247SOL     OW11340   2.796   1.663   2.729
 3247SOL    HW111341   2.891   1.631   2.728
 3247SOL    HW211342   2.744   1.615   2.658
 3248SOL     OW11343   2.247   0.668   2.323
 3248SOL    HW111344   2.249   0.568   2.318
 3248SOL    HW211345   2.157   0.698   2.355
 3249SOL     OW11346   3.423   0.151   3.587
 3249SOL    HW111347   3.391   0.183   3.676
 3249SOL    HW211348   3.377   0.066   3.563
 3250SOL     OW11349   2.480   0.073   1.945
 3250SOL    HW111350   2.512   0.004   2.010
 3250SOL    HW211351   2.411   0.033   1.885
 3251SOL     OW11352   2.603   0.261   3.704
 3251SOL    HW111353   2.691   0.267   3.750
 3251SOL    HW211354   2.543   0.198   3.754
 3252SOL     OW11355   2.709   1.498   3.029
 3252SOL    HW111356   2.691   1.451   2.942
 3252SOL    HW211357   2.773   1.444   3.084
 3253SOL     OW11358   3.142   0.601   3.298
 3253SOL    HW111359   3.191   0.570   3.380
 3253SOL    HW211360   3.174   0.692   3.272
 3254SOL     OW11361   2.667   1.347   2.790
 3254SOL    HW111362   2.760   1.356   2.755
 3254SOL    HW211363   2.602   1.358   2.715
 3255SOL     OW11364   2.782   0.525   2.722
 3255SOL    HW111365   2.757   0.520   2.626
 3255SOL    HW211366   2.815   0.435   2.753
 3256SOL     OW11367   2.418   0.080   2.318
 3256SOL    HW111368   2.340   0.062   2.377
 3256SOL    HW211369   2.390   0.143   2.244
 3257SOL     OW11370   3.337   1.209   1.888
 3257SOL    HW111371   3.382   1.138   1.942
 3257SOL    HW211372   3.255   1.240   1.935
 3258SOL     OW11373   2.129   6.997   2.035
 3258SOL    HW111374   2.160   0.077   2.086
 3258SOL    HW211375   2.041   6.966   2.072
 3259SOL     OW11376   2.817   0.279   2.285
 3259SOL    HW111377   2.780   0.314   2.199
 3259SOL    HW211378   2.915   0.298   2.289
 3260SOL     OW11379   2.879   0.685   3.284
 3260SOL    HW111380   2.807   0.617   3.302
 3260SOL    HW211381   2.969   0.640   3.289
 3261SOL     OW11382   3.061   1.605   2.673
 3261SOL    HW111383   3.089   1.655   2.591
 3261SOL    HW211384   3.104   1.647   2.754
 3262SOL     OW11385   2.355   1.125   2.531
 3262SOL    HW111386   2.293   1.111   2.609
 3262SOL    HW211387   2.303   1.121   2.446
 3263SOL     OW11388   3.111   1.778   2.456
 3263SOL    HW111389   3.156   1.844   2.396
 3263SOL    HW211390   3.023   1.814   2.486
 3264SOL     OW11391   2.900   0.541   1.916
 3264SOL    HW111392   2.848   0.624   1.897
 3264SOL    HW211393   2.971   0.561   1.984
 3265SOL     OW11394   1.982   0.563   3.247
 3265SOL    HW111395   2.077   0.556   3.219
 3265SOL    HW211396   1.970   0.645   3.304
 3266SOL     OW11397   2.403   0.211   3.021
 3266SOL    HW111398   2.404   0.112   3.010
 3266SOL    HW211399   2.362   0.234   3.109
 3267SOL     OW11400   2.725   0.479   2.462
 3267SOL    HW111401   2.671   0.533   2.398
 3267SOL    HW211402   2.758   0.397   2.417
 3268SOL     OW11403   2.859   0.065   2.597
 3268SOL    HW111404   2.804   0.058   2.514
 3268SOL    HW211405   2.875   6.974   2.635
 3269SOL     OW11406   3.279   1.120   2.716
 3269SOL    HW111407   3.220   1.042   2.738
 3269SOL    HW211408   3.281   1.134   2.618
 3270SOL     OW11409   3.298   0.643   2.767
 3270SOL    HW111410   3.231   0.569   2.768
 3270SOL    HW211411   3.360   0.633   2.845
 3271SOL     OW11412   3.670   0.770   2.258
 3271SOL    HW111413   3.746   0.751   2.319
 3271SOL    HW211414   3.670   0.704   2.183
 3272SOL     OW11415   2.361   1.430   1.994
 3272SOL    HW111416   2.284   1.388   2.043
 3272SOL    HW211417   2.368   1.390   1.903
 3273SOL     OW11418   3.638   1.306   2.483
 3273SOL    HW111419   3.735   1.306   2.508
 3273SOL    HW211420   3.595   1.390   2.515
 3274SOL     OW11421   3.257   0.614   1.928
 3274SOL    HW111422   3.207   0.592   2.011
 3274SOL    HW211423   3.355   0.606   1.944
 3275SOL     OW11424   2.323   0.236   2.106
 3275SOL    HW111425   2.380   0.182   2.045
 3275SOL    HW211426   2.307   0.326   2.066
 3276SOL     OW11427   3.594   1.235   3.397
 3276SOL    HW111428   3.683   1.190   3.409
 3276SOL    HW211429   3.602   1.330   3.426
 3277SOL     OW11430   2.868   1.327   3.195
 3277SOL    HW111431   2.780   1.299   3.235
 3277SOL    HW211432   2.941   1.273   3.235
 3278SOL     OW11433   3.455   1.676   3.540
 3278SOL    HW111434   3.422   1.692   3.447
 3278SOL    HW211435   3.534   1.614   3.537
 3279SOL     OW11436   3.003   1.266   2.962
 3279SOL    HW111437   2.939   1.290   3.035
 3279SOL    HW211438   2.966   1.296   2.874
 3280SOL     OW11439   3.444   1.082   2.949
 3280SOL    HW111440   3.442   1.152   3.019
 3280SOL    HW211441   3.376   1.102   2.879
 3281SOL     OW11442   2.725   0.196   3.263
 3281SOL    HW111443   2.719   0.192   3.163
 3281SOL    HW211444   2.821   0.208   3.290
 3282SOL     OW11445   2.798   1.100   3.609
 3282SOL    HW111446   2.702   1.120   3.632
 3282SOL    HW211447   2.802   1.015   3.557
 3283SOL     OW11448   2.587   1.038   2.223
 3283SOL    HW111449   2.582   1.005   2.317
 3283SOL    HW211450   2.657   0.988   2.173
 3284SOL     OW11451   2.322   0.795   3.144
 3284SOL    HW111452   2.387   0.802   3.220
 3284SOL    HW211453   2.287   0.701   3.139
 3285SOL     OW11454   3.113   0.394   3.128
 3285SOL    HW111455   3.132   0.471   3.189
 3285SOL    HW211456   3.022   0.403   3.089
 3286SOL     OW11457   1.919   1.546   3.214
 3286SOL    HW111458   1.875   1.623   3.167
 3286SOL    HW211459   2.018   1.554   3.206
 3287SOL     OW11460   2.187   1.117   2.311
 3287SOL    HW111461   2.186   1.190   2.242
 3287SOL    HW211462   2.172   1.029   2.267
 3288SOL     OW11463   2.393   0.522   2.717
 3288SOL    HW111464   2.405   0.579   2.635
 3288SOL    HW211465   2.463   0.546   2.784
 3289SOL     OW11466   3.117   1.354   2.291
 3289SOL    HW111467   3.174   1.432   2.317
 3289SOL    HW211468   3.020   1.377   2.304
 3290SOL     OW11469   3.197   1.457   2.987
 3290SOL    HW111470   3.233   1.461   3.080
 3290SOL    HW211471   3.127   1.385   2.982
 3291SOL     OW11472   3.449   0.630   2.353
 3291SOL    HW111473   3.383   0.686   2.402
 3291SOL    HW211474   3.521   0.689   2.316
 3292SOL     OW11475   2.191   1.533   3.151
 3292SOL    HW111476   2.185   1.475   3.069
 3292SOL    HW211477   2.287   1.555   3.169
 3293SOL     OW11478   2.338   0.683   3.545
 3293SOL    HW111479   2.381   0.731   3.468
 3293SOL    HW211480   2.401   0.613   3.579
 3294SOL     OW11481   3.467   0.819   3.557
 3294SOL    HW111482   3.371   0.842   3.546
 3294SOL    HW211483   3.519   0.851   3.478
 3295SOL     OW11484   2.225   0.035   3.730
 3295SOL    HW111485   2.145   6.981   3.705
 3295SOL    HW211486   2.206   0.132   3.716
 3296SOL     OW11487   2.455   0.868   2.911
 3296SOL    HW111488   2.495   0.960   2.912
 3296SOL    HW211489   2.410   0.851   2.998
 3297SOL     OW11490   3.143   0.879   2.811
 3297SOL    HW111491   3.049   0.848   2.804
 3297SOL    HW211492   3.205   0.801   2.798
 3298SOL     OW11493   3.073   0.571   2.130
 3298SOL    HW111494   3.085   0.485   2.181
 3298SOL    HW211495   3.012   0.631   2.181
 3299SOL     OW11496   2.073   0.122   3.104
 3299SOL    HW111497   2.120   0.070   3.175
 3299SOL    HW211498   2.100   0.087   3.014
 3300SOL     OW11499   1.919   1.284   3.130
 3300SOL    HW111500   1.946   1.229   3.210
 3300SOL    HW211501   1.910   1.380   3.157
 3301SOL     OW11502   2.584   0.622   2.896
 3301SOL    HW111503   2.653   0.604   2.826
 3301SOL    HW211504   2.545   0.713   2.881
 3302SOL     OW11505   3.576   0.963   3.759
 3302SOL    HW111506   3.539   0.908   3.685
 3302SOL    HW211507   3.502   0.992   3.820
 3303SOL     OW11508   2.177   0.042   2.442
 3303SOL    HW111509   2.153   0.133   2.476
 3303SOL    HW211510   2.122   6.974   2.489
 3304SOL     OW11511   3.438   0.424   2.168
 3304SOL    HW111512   3.464   0.341   2.218
 3304SOL    HW211513   3.421   0.498   2.233
 3305SOL     OW11514   2.883   0.768   2.801
 3305SOL    HW111515   2.858   0.784   2.897
 3305SOL    HW211516   2.857   0.675   2.775
 3306SOL     OW11517   2.844   1.526   3.646
 3306SOL    HW111518   2.808   1.578   3.569
 3306SOL    HW211519   2.884   1.440   3.612
 3307SOL     OW11520   3.667   1.502   3.450
 3307SOL    HW111521   3.685   1.525   3.354
 3307SOL    HW211522   3.751   1.513   3.503
 3308SOL     OW11523   2.232   0.902   3.681
 3308SOL    HW111524   2.301   0.934   3.747
 3308SOL    HW211525   2.268   0.823   3.631
 3309SOL     OW11526   3.363   0.252   1.959
 3309SOL    HW111527   3.264   0.244   1.952
 3309SOL    HW211528   3.387   0.322   2.026
 3310SOL     OW11529   3.130   0.850   1.871
 3310SOL    HW111530   3.169   0.759   1.886
 3310SOL    HW211531   3.157   0.883   1.781
 3311SOL     OW11532   2.929   1.363   2.716
 3311SOL    HW111533   2.944   1.283   2.657
 3311SOL    HW211534   2.988   1.438   2.686
 3312SOL     OW11535   2.194   0.824   2.814
 3312SOL    HW111536   2.291   0.842   2.829
 3312SOL    HW211537   2.172   0.731   2.842
 3313SOL     OW11538   2.176   0.554   2.883
 3313SOL    HW111539   2.111   0.478   2.886
 3313SOL    HW211540   2.246   0.535   2.814
 3314SOL     OW11541   3.039   0.349   3.552
 3314SOL    HW111542   2.980   0.410   3.605
 3314SOL    HW211543   3.124   0.397   3.530
 3315SOL     OW11544   2.995   0.219   3.312
 3315SOL    HW111545   3.008   0.257   3.403
 3315SOL    HW211546   3.046   0.273   3.245
 3316SOL     OW11547   1.884   1.273   2.034
 3316SOL    HW111548   1.792   1.303   2.008
 3316SOL    HW211549   1.880   1.182   2.073
 3317SOL     OW11550   1.956   1.753   2.827
 3317SOL    HW111551   1.907   1.682   2.777
 3317SOL    HW211552   2.045   1.768   2.785
 3318SOL     OW11553   2.339   1.535   2.745
 3318SOL    HW111554   2.410   1.600   2.772
 3318SOL    HW211555   2.377   1.469   2.680
 3319SOL     OW11556   2.774   0.791   3.053
 3319SOL    HW111557   2.821   0.762   3.136
 3319SOL    HW211558   2.698   0.729   3.035
 3320SOL     OW11559   1.825   0.529   3.026
 3320SOL    HW111560   1.878   0.463   2.974
 3320SOL    HW211561   1.875   0.553   3.109
 3321SOL     OW11562   2.064   0.647   3.594
 3321SOL    HW111563   2.162   0.648   3.576
 3321SOL    HW211564   2.017   0.704   3.528
 3322SOL     OW11565   3.221   0.927   3.488
 3322SOL    HW111566   3.251   1.022   3.484
 3322SOL    HW211567   3.209   0.892   3.394
 3323SOL     OW11568   2.645   0.590   2.214
 3323SOL    HW111569   2.664   0.510   2.157
 3323SOL    HW211570   2.563   0.636   2.181
 3324SOL     OW11571   3.472   0.589   2.966
 3324SOL    HW111572   3.437   0.498   2.988
 3324SOL    HW211573   3.572   0.587   2.969
 3325SOL     OW11574   2.042   1.530   3.617
 3325SOL    HW111575   1.989   1.569   3.692
 3325SOL    HW211576   2.072   1.438   3.640
 3326SOL     OW11577   2.587   0.418   3.079
 3326SOL    HW111578   2.525   0.343   3.054
 3326SOL    HW211579   2.574   0.494   3.015
 3327SOL     OW11580   2.741   1.644   3.412
 3327SOL    HW111581   2.690   1.574   3.362
 3327SOL    HW211582   2.770   1.715   3.348
 3328SOL     OW11583   2.288   0.484   1.990
 3328SOL    HW111584   2.361   0.546   2.017
 3328SOL    HW211585   2.200   0.526   2.008
 3329SOL     OW11586   1.998   1.131   3.349
 3329SOL    HW111587   2.002   1.098   3.443
 3329SOL    HW211588   2.037   1.062   3.288
 3330SOL     OW11589   3.122   1.033   3.040
 3330SOL    HW111590   3.137   0.974   2.961
 3330SOL    HW211591   3.079   1.118   3.010
 3331SOL     OW11592   3.227   0.902   2.128
 3331SOL    HW111593   3.164   0.881   2.202
 3331SOL    HW211594   3.183   0.883   2.040
 3332SOL     OW11595   3.642   1.695   3.008
 3332SOL    HW111596   3.704   1.726   2.937
 3332SOL    HW211597   3.607   1.604   2.985
 3333SOL     OW11598   3.158   1.715   2.907
 3333SOL    HW111599   3.244   1.765   2.910
 3333SOL    HW211600   3.171   1.623   2.944
 3334SOL     OW11601   1.982   1.213   2.877
 3334SOL    HW111602   1.955   1.240   2.970
 3334SOL    HW211603   1.908   1.162   2.834
 3335SOL     OW11604   2.541   1.693   3.600
 3335SOL    HW111605   2.474   1.767   3.588
 3335SOL    HW211606   2.616   1.706   3.535
 3336SOL     OW11607   3.525   0.194   2.283
 3336SOL    HW111608   3.606   0.194   2.224
 3336SOL    HW211609   3.546   0.144   2.367
 3337SOL     OW11610   3.270   1.569   2.363
 3337SOL    HW111611   3.331   1.601   2.290
 3337SOL    HW211612   3.208   1.643   2.390
 3338SOL     OW11613   1.913   1.861   3.727
 3338SOL    HW111614   1.878   1.768   3.744
 3338SOL    HW211615   1.985   1.882   3.793
 3339SOL     OW11616   3.128   0.952   2.463
 3339SOL    HW111617   3.199   0.887   2.489
 3339SOL    HW211618   3.171   1.039   2.436
 3340SOL     OW11619   2.614   1.263   3.284
 3340SOL    HW111620   2.591   1.319   3.363
 3340SOL    HW211621   2.540   1.269   3.216
 3341SOL     OW11622   2.533   1.643   2.012
 3341SOL    HW111623   2.550   1.665   1.916
 3341SOL    HW211624   2.480   1.558   2.018
 3342SOL     OW11625   3.431   1.712   3.254
 3342SOL    HW111626   3.502   1.708   3.184
 3342SOL    HW211627   3.402   1.806   3.266
 3343SOL     OW11628   3.747   0.131   2.813
 3343SOL    HW111629   3.752   0.036   2.783
 3343SOL    HW211630   3.665   0.174   2.776
 3344SOL     OW11631   2.121   0.288   2.547
 3344SOL    HW111632   2.041   0.346   2.557
 3344SOL    HW211633   2.173   0.289   2.633
 3345SOL     OW11634   3.092   1.539   1.927
 3345SOL    HW111635   3.095   1.446   1.961
 3345SOL    HW211636   3.009   1.554   1.874
 3346SOL     OW11637   2.661   0.992   3.263
 3346SOL    HW111638   2.701   0.973   3.173
 3346SOL    HW211639   2.645   1.091   3.272
 3347SOL     OW11640   2.781   0.900   2.085
 3347SOL    HW111641   2.850   0.963   2.048
 3347SOL    HW211642   2.823   0.838   2.150
 3348SOL     OW11643   3.358   1.623   1.925
 3348SOL    HW111644   3.263   1.592   1.919
 3348SOL    HW211645   3.397   1.629   1.833
 3349SOL     OW11646   2.201   1.332   3.359
 3349SOL    HW111647   2.195   1.402   3.287
 3349SOL    HW211648   2.127   1.266   3.347
 3350SOL     OW11649   3.464   1.279   3.149
 3350SOL    HW111650   3.526   1.256   3.224
 3350SOL    HW211651   3.395   1.343   3.181
 3351SOL     OW11652   2.939   1.124   2.587
 3351SOL    HW111653   2.860   1.075   2.624
 3351SOL    HW211654   2.998   1.060   2.537
 3352SOL     OW11655   2.885   0.260   2.798
 3352SOL    HW111656   2.880   0.211   2.711
 3352SOL    HW211657   2.858   0.199   2.873
 3353SOL     OW11658   2.446   1.479   2.332
 3353SOL    HW111659   2.493   1.429   2.259
 3353SOL    HW211660   2.348   1.478   2.315
 3354SOL     OW11661   3.686   0.356   3.285
 3354SOL    HW111662   3.728   0.446   3.271
 3354SOL    HW211663   3.685   0.306   3.199
 3355SOL     OW11664   2.145   1.322   2.130
 3355SOL    HW111665   2.051   1.314   2.096
 3355SOL    HW211666   2.146   1.384   2.209
 3356SOL     OW11667   1.999   1.031   3.604
 3356SOL    HW111668   1.917   1.004   3.655
 3356SOL    HW211669   2.077   0.975   3.633
 3357SOL     OW11670   2.520   0.204   3.440
 3357SOL    HW111671   2.597   0.204   3.376
 3357SOL    HW211672   2.552   0.234   3.530
 3358SOL     OW11673   1.952   0.354   1.841
 3358SOL    HW111674   1.864   0.347   1.794
 3358SOL    HW211675   1.992   0.444   1.823
 3359SOL     OW11676   3.224   0.851   3.223
 3359SOL    HW111677   3.171   0.912   3.164
 3359SOL    HW211678   3.317   0.844   3.188
 3360SOL     OW11679   1.887   0.199   2.091
 3360SOL    HW111680   1.912   0.250   2.009
 3360SOL    HW211681   1.879   0.102   2.070
 3361SOL     OW11682   3.109   1.281   2.024
 3361SOL    HW111683   3.052   1.200   2.009
 3361SOL    HW211684   3.114   1.301   2.121
 3362SOL     OW11685   2.503   0.784   3.343
 3362SOL    HW111686   2.557   0.865   3.324
 3362SOL    HW211687   2.561   0.703   3.339
 3363SOL     OW11688   3.406   1.839   2.914
 3363SOL    HW111689   3.431   1.906   2.844
 3363SOL    HW211690   3.488   1.795   2.949
 3364SOL     OW11691   2.562   0.519   3.599
 3364SOL    HW111692   2.620   0.587   3.643
 3364SOL    HW211693   2.573   0.431   3.645
 3365SOL     OW11694   3.314   1.184   3.474
 3365SOL    HW111695   3.305   1.203   3.572
 3365SOL    HW211696   3.408   1.205   3.445
 3366SOL     OW11697   2.167   1.724   3.452
 3366SOL    HW111698   2.086   1.779   3.432
 3366SOL    HW211699   2.141   1.643   3.503
 3367SOL     OW11700   3.466   0.847   3.095
 3367SOL    HW111701   3.476   0.761   3.045
 3367SOL    HW211702   3.463   0.924   3.031
 3368SOL     OW11703   3.084   0.347   2.291
 3368SOL    HW111704   3.148   0.270   2.289
 3368SOL    HW211705   3.097   0.398   2.376
 3369SOL     OW11706   2.439   0.706   2.518
 3369SOL    HW111707   2.490   0.791   2.504
 3369SOL    HW211708   2.372   0.695   2.445
 3370SOL     OW11709   3.529   0.400   3.518
 3370SOL    HW111710   3.589   0.393   3.438
 3370SOL    HW211711   3.499   0.308   3.544
 3371SOL     OW11712   3.565   0.940   3.337
 3371SOL    HW111713   3.566   1.040   3.333
 3371SOL    HW211714   3.539   0.904   3.247
 3372SOL     OW11715   2.675   1.362   1.923
 3372SOL    HW111716   2.661   1.362   2.022
 3372SOL    HW211717   2.728   1.443   1.897
 3373SOL     OW11718   2.524   1.727   2.783
 3373SOL    HW111719   2.500   1.824   2.778
 3373SOL    HW211720   2.623   1.717   2.785
 3374SOL     OW11721   2.731   0.986   2.714
 3374SOL    HW111722   2.782   0.907   2.748
 3374SOL    HW211723   2.677   1.026   2.788
 3375SOL     OW11724   2.968   1.055   1.954
 3375SOL    HW111725   2.907   1.084   1.880
 3375SOL    HW211726   3.026   0.980   1.921
 3376SOL     OW11727   3.684   1.549   2.710
 3376SOL    HW111728   3.605   1.549   2.649
 3376SOL    HW211729   3.665   1.491   2.789
 3377SOL     OW11730   2.067   1.271   3.710
 3377SOL    HW111731   2.043   1.185   3.664
 3377SOL    HW211732   2.009   1.282   3.791
 3378SOL     OW11733   2.053   1.258   2.515
 3378SOL    HW111734   2.080   1.213   2.601
 3378SOL    HW211735   2.087   1.204   2.438
 3379SOL     OW11736   2.535   1.430   3.490
 3379SOL    HW111737   2.461   1.379   3.533
 3379SOL    HW211738   2.544   1.520   3.533
 3380SOL     OW11739   3.670   0.186   3.074
 3380SOL    HW111740   3.576   0.155   3.059
 3380SOL    HW211741   3.722   0.175   2.989
 3381SOL     OW11742   2.237   0.399   2.322
 3381SOL    HW111743   2.264   0.329   2.255
 3381SOL    HW211744   2.198   0.355   2.402
 3382SOL     OW11745   3.560   1.442   2.940
 3382SOL    HW111746   3.486   1.422   2.875
 3382SOL    HW211747   3.552   1.381   3.019
 3383SOL     OW11748   2.237   0.535   3.152
 3383SOL    HW111749   2.273   0.448   3.186
 3383SOL    HW211750   2.221   0.528   3.053
 3384SOL     OW11751   2.679   1.551   2.512
 3384SOL    HW111752   2.636   1.609   2.442
 3384SOL    HW211753   2.616   1.479   2.539
 3385SOL     OW11754   3.328   0.331   2.971
 3385SOL    HW111755   3.362   0.238   2.990
 3385SOL    HW211756   3.255   0.354   3.035
 3386SOL     OW11757   2.802   0.086   2.997
 3386SOL    HW111758   2.739   0.016   2.965
 3386SOL    HW211759   2.866   0.046   3.062
 3387SOL     OW11760   2.635   1.317   2.194
 3387SOL    HW111761   2.617   1.219   2.205
 3387SOL    HW211762   2.719   1.341   2.242
 3388SOL     OW11763   2.471   1.559   3.149
 3388SOL    HW111764   2.457   1.648   3.191
 3388SOL    HW211765   2.559   1.558   3.102
 3389SOL     OW11766   3.143   6.972   2.071
 3389SOL    HW111767   3.206   6.914   2.019
 3389SOL    HW211768   3.069   6.916   2.107
 3390SOL     OW11769   3.105   0.495   2.516
 3390SOL    HW111770   3.054   0.580   2.516
 3390SOL    HW211771   3.118   0.463   2.610
 3391SOL     OW11772   3.515   0.259   2.728
 3391SOL    HW111773   3.456   0.267   2.808
 3391SOL    HW211774   3.513   0.344   2.676
 3392SOL     OW11775   1.892   1.018   2.161
 3392SOL    HW111776   1.987   1.001   2.138
 3392SOL    HW211777   1.847   0.933   2.187
 3393SOL     OW11778   2.762   1.674   2.174
 3393SOL    HW111779   2.685   1.655   2.114
 3393SOL    HW211780   2.738   1.747   2.238
 3394SOL     OW11781   2.056   0.662   3.876
 3394SOL    HW111782   1.968   0.622   3.903
 3394SOL    HW211783   2.058   0.674   3.776
 3395SOL     OW11784   2.080   0.299   4.753
 3395SOL    HW111785   2.128   0.262   4.833
 3395SOL    HW211786   1.996   0.247   4.738
 3396SOL     OW11787   1.900   0.443   4.357
 3396SOL    HW111788   1.812   0.462   4.399
 3396SOL    HW211789   1.887   0.395   4.270
 3397SOL     OW11790   2.437   1.329   4.958
 3397SOL    HW111791   2.350   1.324   4.909
 3397SOL    HW211792   2.460   1.425   4.976
 3398SOL     OW11793   3.447   1.522   4.428
 3398SOL    HW111794   3.404   1.475   4.505
 3398SOL    HW211795   3.380   1.536   4.356
 3399SOL     OW11796   2.977   0.705   4.370
 3399SOL    HW111797   3.028   0.791   4.363
 3399SOL    HW211798   2.905   0.714   4.438
 3400SOL     OW11799   3.590   0.587   3.979
 3400SOL    HW111800   3.587   0.605   3.881
 3400SOL    HW211801   3.544   0.501   4.000
 3401SOL     OW11802   2.580   1.143   4.796
 3401SOL    HW111803   2.522   1.181   4.868
 3401SOL    HW211804   2.623   1.217   4.745
 3402SOL     OW11805   2.760   0.744   5.543
 3402SOL    HW111806   2.781   0.815   5.610
 3402SOL    HW211807   2.769   0.781   5.451
 3403SOL     OW11808   2.579   0.953   4.364
 3403SOL    HW111809   2.643   0.969   4.440
 3403SOL    HW211810   2.498   1.010   4.377
 3404SOL     OW11811   2.564   1.156   5.584
 3404SOL    HW111812   2.626   1.222   5.627
 3404SOL    HW211813   2.486   1.205   5.544
 3405SOL     OW11814   2.203   1.385   4.815
 3405SOL    HW111815   2.127   1.331   4.778
 3405SOL    HW211816   2.246   1.437   4.742
 3406SOL     OW11817   3.305   1.495   5.106
 3406SOL    HW111818   3.361   1.577   5.117
 3406SOL    HW211819   3.224   1.503   5.164
 3407SOL     OW11820   2.343   0.366   5.159
 3407SOL    HW111821   2.425   0.329   5.203
 3407SOL    HW211822   2.262   0.318   5.193
 3408SOL     OW11823   3.473   0.491   4.472
 3408SOL    HW111824   3.460   0.517   4.376
 3408SOL    HW211825   3.420   0.552   4.531
 3409SOL     OW11826   2.076   1.723   4.193
 3409SOL    HW111827   2.096   1.795   4.259
 3409SOL    HW211828   2.145   1.724   4.120
 3410SOL     OW11829   2.990   1.331   5.427
 3410SOL    HW111830   3.075   1.301   5.470
 3410SOL    HW211831   2.924   1.257   5.429
 3411SOL     OW11832   2.173   1.470   4.248
 3411SOL    HW111833   2.127   1.559   4.245
 3411SOL    HW211834   2.127   1.411   4.314
 3412SOL     OW11835   2.172   1.097   4.595
 3412SOL    HW111836   2.183   1.001   4.622
 3412SOL    HW211837   2.111   1.143   4.659
 3413SOL     OW11838   2.423   1.827   5.145
 3413SOL    HW111839   2.344   1.805   5.202
 3413SOL    HW211840   2.476   1.900   5.189
 3414SOL     OW11841   2.417   0.979   3.884
 3414SOL    HW111842   2.459   1.031   3.809
 3414SOL    HW211843   2.461   1.002   3.970
 3415SOL     OW11844   3.451   0.143   5.230
 3415SOL    HW111845   3.519   0.213   5.206
 3415SOL    HW211846   3.405   0.170   5.315
 3416SOL     OW11847   2.000   0.703   4.304
 3416SOL    HW111848   1.980   0.608   4.328
 3416SOL    HW211849   1.992   0.760   4.386
 3417SOL     OW11850   3.719   1.704   4.054
 3417SOL    HW111851   3.791   1.691   4.122
 3417SOL    HW211852   3.723   1.797   4.018
 3418SOL     OW11853   1.864   1.603   3.813
 3418SOL    HW111854   1.798   1.528   3.815
 3418SOL    HW211855   1.865   1.648   3.902
 3419SOL     OW11856   3.577   0.938   4.378
 3419SOL    HW111857   3.647   0.881   4.334
 3419SOL    HW211858   3.547   1.009   4.314
 3420SOL     OW11859   3.512   1.122   4.173
 3420SOL    HW111860   3.584   1.085   4.113
 3420SOL    HW211861   3.548   1.200   4.224
 3421SOL     OW11862   1.960   0.776   5.255
 3421SOL    HW111863   2.022   0.827   5.196
 3421SOL    HW211864   1.872   0.823   5.259
 3422SOL     OW11865   2.477   1.351   4.479
 3422SOL    HW111866   2.443   1.259   4.463
 3422SOL    HW211867   2.477   1.402   4.393
 3423SOL     OW11868   3.100   1.218   5.139
 3423SOL    HW111869   3.120   1.148   5.070
 3423SOL    HW211870   3.171   1.216   5.210
 3424SOL     OW11871   2.709   0.072   4.239
 3424SOL    HW111872   2.749   0.154   4.199
 3424SOL    HW211873   2.611   0.086   4.255
 3425SOL     OW11874   2.086   0.928   5.058
 3425SOL    HW111875   2.180   0.898   5.042
 3425SOL    HW211876   2.038   0.932   4.971
 3426SOL     OW11877   3.378   1.036   3.937
 3426SOL    HW111878   3.306   0.972   3.963
 3426SOL    HW211879   3.418   1.077   4.019
 3427SOL     OW11880   3.039   1.784   5.366
 3427SOL    HW111881   3.046   1.859   5.301
 3427SOL    HW211882   3.051   1.697   5.318
 3428SOL     OW11883   2.207   0.293   5.528
 3428SOL    HW111884   2.265   0.355   5.581
 3428SOL    HW211885   2.111   0.313   5.547
 3429SOL     OW11886   3.338   1.383   4.636
 3429SOL    HW111887   3.277   1.416   4.708
 3429SOL    HW211888   3.312   1.289   4.612
 3430SOL     OW11889   3.518   1.779   4.297
 3430SOL    HW111890   3.487   1.745   4.208
 3430SOL    HW211891   3.502   1.709   4.367
 3431SOL     OW11892   2.435   0.707   3.981
 3431SOL    HW111893   2.435   0.797   3.938
 3431SOL    HW211894   2.373   0.707   4.059
 3432SOL     OW11895   3.141   0.415   4.670
 3432SOL    HW111896   3.054   0.366   4.677
 3432SOL    HW211897   3.208   0.374   4.732
 3433SOL     OW11898   3.448   1.662   4.051
 3433SOL    HW111899   3.548   1.664   4.047
 3433SOL    HW211900   3.412   1.650   3.958
 3434SOL     OW11901   2.660   0.578   5.207
 3434SOL    HW111902   2.628   0.539   5.293
 3434SOL    HW211903   2.631   0.520   5.131
 3435SOL     OW11904   3.243   0.495   5.402
 3435SOL    HW111905   3.247   0.543   5.490
 3435SOL    HW211906   3.285   0.405   5.412
 3436SOL     OW11907   2.808   0.888   5.307
 3436SOL    HW111908   2.862   0.820   5.257
 3436SOL    HW211909   2.751   0.939   5.243
 3437SOL     OW11910   2.873   0.409   4.911
 3437SOL    HW111911   2.780   0.426   4.943
 3437SOL    HW211912   2.869   0.363   4.822
 3438SOL     OW11913   2.904   0.702   4.102
 3438SOL    HW111914   2.925   0.700   4.200
 3438SOL    HW211915   2.818   0.654   4.086
 3439SOL     OW11916   1.963   0.860   4.526
 3439SOL    HW111917   2.051   0.848   4.574
 3439SOL    HW211918   1.907   0.925   4.577
 3440SOL     OW11919   1.955   1.884   5.313
 3440SOL    HW111920   1.956   1.844   5.405
 3440SOL    HW211921   1.860   1.893   5.282
 3441SOL     OW11922   2.838   0.281   3.844
 3441SOL    HW111923   2.857   0.372   3.808
 3441SOL    HW211924   2.918   0.222   3.831
 3442SOL     OW11925   3.522   0.606   5.570
 3442SOL    HW111926   3.505   0.689   5.516
 3442SOL    HW211927   3.544   0.531   5.508
 3443SOL     OW11928   3.258   1.167   4.299
 3443SOL    HW111929   3.344   1.160   4.249
 3443SOL    HW211930   3.201   1.237   4.257
 3444SOL     OW11931   2.364   0.147   4.660
 3444SOL    HW111932   2.408   0.191   4.738
 3444SOL    HW211933   2.376   0.205   4.579
 3445SOL     OW11934   2.840   1.459   4.179
 3445SOL    HW111935   2.819   1.524   4.105
 3445SOL    HW211936   2.797   1.490   4.264
 3446SOL     OW11937   2.214   1.782   4.604
 3446SOL    HW111938   2.256   1.691   4.608
 3446SOL    HW211939   2.281   1.850   4.633
 3447SOL     OW11940   3.668   1.022   4.631
 3447SOL    HW111941   3.630   1.001   4.541
 3447SOL    HW211942   3.593   1.040   4.695
 3448SOL     OW11943   3.055   1.526   5.237
 3448SOL    HW111944   3.043   1.457   5.308
 3448SOL    HW211945   2.992   1.508   5.162
 3449SOL     OW11946   2.146   0.913   3.986
 3449SOL    HW111947   2.229   0.940   3.938
 3449SOL    HW211948   2.115   0.824   3.953
 3450SOL     OW11949   3.348   0.790   4.413
 3450SOL    HW111950   3.336   0.747   4.503
 3450SOL    HW211951   3.431   0.846   4.414
 3451SOL     OW11952   2.333   1.301   5.489
 3451SOL    HW111953   2.315   1.299   5.390
 3451SOL    HW211954   2.247   1.292   5.539
 3452SOL     OW11955   2.958   1.764   3.923
 3452SOL    HW111956   2.873   1.732   3.964
 3452SOL    HW211957   3.000   1.689   3.870
 3453SOL     OW11958   2.127   0.231   5.264
 3453SOL    HW111959   2.038   0.269   5.242
 3453SOL    HW211960   2.153   0.257   5.357
 3454SOL     OW11961   3.484   1.378   3.830
 3454SOL    HW111962   3.449   1.472   3.825
 3454SOL    HW211963   3.415   1.316   3.793
 3455SOL     OW11964   2.281   1.746   4.012
 3455SOL    HW111965   2.333   1.794   4.083
 3455SOL    HW211966   2.344   1.691   3.957
 3456SOL     OW11967   3.307   0.154   4.149
 3456SOL    HW111968   3.277   0.075   4.095
 3456SOL    HW211969   3.339   0.123   4.238
 3457SOL     OW11970   2.068   1.792   4.944
 3457SOL    HW111971   2.125   1.717   4.977
 3457SOL    HW211972   2.038   1.773   4.850
 3458SOL     OW11973   2.783   1.705   4.557
 3458SOL    HW111974   2.874   1.666   4.564
 3458SOL    HW211975   2.734   1.661   4.481
 3459SOL     OW11976   2.268   0.679   4.200
 3459SOL    HW111977   2.266   0.580   4.216
 3459SOL    HW211978   2.179   0.718   4.221
 3460SOL     OW11979   3.347   0.238   5.475
 3460SOL    HW111980   3.397   0.219   5.559
 3460SOL    HW211981   3.252   0.207   5.485
 3461SOL     OW11982   2.465   0.082   3.860
 3461SOL    HW111983   2.507   0.012   3.919
 3461SOL    HW211984   2.383   0.043   3.817
 3462SOL     OW11985   2.647   0.256   5.557
 3462SOL    HW111986   2.732   0.209   5.532
 3462SOL    HW211987   2.583   0.191   5.597
 3463SOL     OW11988   2.736   1.541   4.895
 3463SOL    HW111989   2.707   1.491   4.814
 3463SOL    HW211990   2.785   1.479   4.957
 3464SOL     OW11991   3.168   0.602   5.161
 3464SOL    HW111992   3.208   0.575   5.248
 3464SOL    HW211993   3.197   0.695   5.138
 3465SOL     OW11994   2.675   1.371   4.676
 3465SOL    HW111995   2.766   1.374   4.635
 3465SOL    HW211996   2.606   1.374   4.603
 3466SOL     OW11997   2.799   0.538   4.598
 3466SOL    HW111998   2.767   0.528   4.503
 3466SOL    HW211999   2.830   0.449   4.631
 3467SOL     OW12000   2.442   0.120   4.247
 3467SOL    HW112001   2.362   0.094   4.301
 3467SOL    HW212002   2.414   0.175   4.169
 3468SOL     OW12003   3.278   1.210   3.748
 3468SOL    HW112004   3.318   1.137   3.802
 3468SOL    HW212005   3.203   1.252   3.800
 3469SOL     OW12006   2.121   0.107   4.000
 3469SOL    HW112007   2.200   0.164   4.022
 3469SOL    HW212008   2.139   0.055   3.916
 3470SOL     OW12009   2.816   0.302   4.120
 3470SOL    HW112010   2.808   0.289   4.021
 3470SOL    HW212011   2.912   0.315   4.145
 3471SOL     OW12012   2.905   0.692   5.146
 3471SOL    HW112013   2.832   0.630   5.175
 3471SOL    HW212014   2.993   0.645   5.153
 3472SOL     OW12015   3.047   1.618   4.544
 3472SOL    HW112016   3.091   1.666   4.469
 3472SOL    HW212017   3.080   1.654   4.631
 3473SOL     OW12018   2.360   1.112   4.399
 3473SOL    HW112019   2.296   1.105   4.475
 3473SOL    HW212020   2.310   1.112   4.312
 3474SOL     OW12021   3.146   1.804   4.354
 3474SOL    HW112022   3.187   1.869   4.289
 3474SOL    HW212023   3.079   1.852   4.411
 3475SOL     OW12024   2.911   0.517   3.733
 3475SOL    HW112025   2.849   0.594   3.720
 3475SOL    HW212026   2.975   0.537   3.808
 3476SOL     OW12027   1.983   0.552   5.098
 3476SOL    HW112028   2.079   0.553   5.071
 3476SOL    HW212029   1.966   0.626   5.162
 3477SOL     OW12030   2.459   0.225   4.913
 3477SOL    HW112031   2.507   0.151   4.960
 3477SOL    HW212032   2.365   0.230   4.948
 3478SOL     OW12033   2.715   0.504   4.345
 3478SOL    HW112034   2.635   0.562   4.330
 3478SOL    HW212035   2.732   0.448   4.264
 3479SOL     OW12036   2.883   0.034   4.458
 3479SOL    HW112037   2.817   0.040   4.383
 3479SOL    HW212038   2.900   6.938   4.480
 3480SOL     OW12039   3.277   1.118   4.582
 3480SOL    HW112040   3.219   1.042   4.609
 3480SOL    HW212041   3.269   1.134   4.483
 3481SOL     OW12042   3.303   0.645   4.647
 3481SOL    HW112043   3.233   0.574   4.652
 3481SOL    HW212044   3.367   0.635   4.724
 3482SOL     OW12045   3.718   0.772   4.138
 3482SOL    HW112046   3.763   0.723   4.213
 3482SOL    HW212047   3.683   0.707   4.071
 3483SOL     OW12048   2.350   1.424   3.857
 3483SOL    HW112049   2.278   1.384   3.914
 3483SOL    HW212050   2.350   1.381   3.767
 3484SOL     OW12051   3.610   1.314   4.329
 3484SOL    HW112052   3.699   1.310   4.375
 3484SOL    HW212053   3.560   1.394   4.362
 3485SOL     OW12054   3.248   0.609   3.768
 3485SOL    HW112055   3.199   0.575   3.848
 3485SOL    HW212056   3.347   0.604   3.784
 3486SOL     OW12057   2.348   0.266   4.027
 3486SOL    HW112058   2.401   0.208   3.965
 3486SOL    HW212059   2.324   0.351   3.980
 3487SOL     OW12060   3.604   1.217   5.243
 3487SOL    HW112061   3.695   1.177   5.234
 3487SOL    HW212062   3.612   1.309   5.281
 3488SOL     OW12063   2.873   1.362   5.069
 3488SOL    HW112064   2.787   1.331   5.111
 3488SOL    HW212065   2.949   1.308   5.105
 3489SOL     OW12066   3.479   1.637   5.399
 3489SOL    HW112067   3.457   1.680   5.311
 3489SOL    HW212068   3.554   1.571   5.387
 3490SOL     OW12069   2.995   1.269   4.836
 3490SOL    HW112070   2.932   1.302   4.906
 3490SOL    HW212071   2.964   1.300   4.746
 3491SOL     OW12072   3.454   1.079   4.800
 3491SOL    HW112073   3.449   1.148   4.871
 3491SOL    HW212074   3.387   1.098   4.729
 3492SOL     OW12075   2.743   0.183   5.100
 3492SOL    HW112076   2.758   0.160   5.003
 3492SOL    HW212077   2.831   0.203   5.143
 3493SOL     OW12078   2.816   1.119   5.453
 3493SOL    HW112079   2.722   1.133   5.485
 3493SOL    HW212080   2.820   1.037   5.396
 3494SOL     OW12081   2.593   1.031   4.094
 3494SOL    HW112082   2.593   0.999   4.188
 3494SOL    HW212083   2.659   0.979   4.040
 3495SOL     OW12084   2.331   0.815   5.011
 3495SOL    HW112085   2.392   0.820   5.090
 3495SOL    HW212086   2.295   0.722   5.003
 3496SOL     OW12087   3.116   0.377   5.022
 3496SOL    HW112088   3.141   0.459   5.072
 3496SOL    HW212089   3.027   0.389   4.979
 3497SOL     OW12090   1.918   1.542   5.069
 3497SOL    HW112091   1.869   1.611   5.015
 3497SOL    HW212092   2.016   1.561   5.066
 3498SOL     OW12093   2.192   1.111   4.178
 3498SOL    HW112094   2.190   1.188   4.114
 3498SOL    HW212095   2.175   1.026   4.129
 3499SOL     OW12096   2.392   0.556   4.578
 3499SOL    HW112097   2.423   0.590   4.489
 3499SOL    HW212098   2.464   0.571   4.647
 3500SOL     OW12099   3.101   1.363   4.175
 3500SOL    HW112100   3.159   1.442   4.197
 3500SOL    HW212101   3.005   1.389   4.185
 3501SOL     OW12102   3.196   1.454   4.859
 3501SOL    HW112103   3.236   1.464   4.950
 3501SOL    HW212104   3.127   1.381   4.860
 3502SOL     OW12105   3.426   0.603   4.222
 3502SOL    HW112106   3.384   0.678   4.273
 3502SOL    HW212107   3.486   0.641   4.151
 3503SOL     OW12108   2.199   1.557   5.024
 3503SOL    HW112109   2.191   1.491   4.949
 3503SOL    HW212110   2.295   1.580   5.037
 3504SOL     OW12111   2.352   0.684   5.421
 3504SOL    HW112112   2.390   0.735   5.345
 3504SOL    HW212113   2.418   0.616   5.453
 3505SOL     OW12114   3.470   0.827   5.423
 3505SOL    HW112115   3.374   0.856   5.415
 3505SOL    HW212116   3.520   0.855   5.341
 3506SOL     OW12117   2.875   0.119   5.460
 3506SOL    HW112118   2.911   0.160   5.376
 3506SOL    HW212119   2.861   0.021   5.445
 3507SOL     OW12120   2.287   0.036   5.472
 3507SOL    HW112121   2.205   6.982   5.489
 3507SOL    HW212122   2.267   0.133   5.488
 3508SOL     OW12123   2.459   0.886   4.778
 3508SOL    HW112124   2.499   0.978   4.778
 3508SOL    HW212125   2.415   0.869   4.865
 3509SOL     OW12126   3.150   0.884   4.687
 3509SOL    HW112127   3.054   0.856   4.678
 3509SOL    HW212128   3.209   0.804   4.676
 3510SOL     OW12129   3.069   0.535   3.962
 3510SOL    HW112130   3.086   0.457   4.022
 3510SOL    HW212131   3.015   0.603   4.011
 3511SOL     OW12132   2.187   0.171   4.974
 3511SOL    HW112133   2.172   0.156   5.072
 3511SOL    HW212134   2.196   0.082   4.928
 3512SOL     OW12135   1.925   1.276   5.005
 3512SOL    HW112136   1.955   1.226   5.087
 3512SOL    HW212137   1.915   1.373   5.027
 3513SOL     OW12138   2.586   0.638   4.760
 3513SOL    HW112139   2.662   0.623   4.696
 3513SOL    HW212140   2.552   0.731   4.749
 3514SOL     OW12141   3.629   0.983   5.588
 3514SOL    HW112142   3.575   0.921   5.531
 3514SOL    HW212143   3.574   1.015   5.665
 3515SOL     OW12144   2.206   0.073   4.373
 3515SOL    HW112145   2.170   0.158   4.410
 3515SOL    HW212146   2.146   6.997   4.398
 3516SOL     OW12147   3.415   0.385   4.054
 3516SOL    HW112148   3.384   0.299   4.094
 3516SOL    HW212149   3.402   0.459   4.120
 3517SOL     OW12150   2.890   0.783   4.684
 3517SOL    HW112151   2.860   0.797   4.779
 3517SOL    HW212152   2.870   0.689   4.656
 3518SOL     OW12153   2.848   1.547   5.518
 3518SOL    HW112154   2.813   1.608   5.447
 3518SOL    HW212155   2.889   1.467   5.477
 3519SOL     OW12156   3.689   1.474   5.308
 3519SOL    HW112157   3.706   1.496   5.212
 3519SOL    HW212158   3.770   1.493   5.362
 3520SOL     OW12159   2.242   0.899   5.561
 3520SOL    HW112160   2.310   0.931   5.627
 3520SOL    HW212161   2.278   0.821   5.510
 3521SOL     OW12162   3.344   0.221   3.838
 3521SOL    HW112163   3.332   0.139   3.893
 3521SOL    HW212164   3.380   0.295   3.894
 3522SOL     OW12165   3.121   0.848   3.729
 3522SOL    HW112166   3.160   0.757   3.740
 3522SOL    HW212167   3.146   0.884   3.639
 3523SOL     OW12168   2.931   1.368   4.588
 3523SOL    HW112169   2.951   1.290   4.528
 3523SOL    HW212170   2.982   1.448   4.556
 3524SOL     OW12171   2.202   0.831   4.673
 3524SOL    HW112172   2.297   0.850   4.696
 3524SOL    HW212173   2.181   0.735   4.692
 3525SOL     OW12174   2.164   0.553   4.721
 3525SOL    HW112175   2.126   0.461   4.729
 3525SOL    HW212176   2.243   0.552   4.659
 3526SOL     OW12177   2.971   0.451   5.397
 3526SOL    HW112178   2.934   0.472   5.487
 3526SOL    HW212179   3.068   0.478   5.393
 3527SOL     OW12180   2.975   0.244   5.230
 3527SOL    HW112181   2.967   0.324   5.289
 3527SOL    HW212182   3.039   0.263   5.156
 3528SOL     OW12183   1.892   1.278   3.923
 3528SOL    HW112184   1.804   1.320   3.900
 3528SOL    HW212185   1.876   1.185   3.956
 3529SOL     OW12186   1.958   1.745   4.692
 3529SOL    HW112187   1.913   1.670   4.643
 3529SOL    HW212188   2.047   1.762   4.651
 3530SOL     OW12189   2.348   1.538   4.638
 3530SOL    HW112190   2.421   1.600   4.668
 3530SOL    HW212191   2.387   1.468   4.578
 3531SOL     OW12192   2.776   0.801   4.930
 3531SOL    HW112193   2.832   0.770   5.008
 3531SOL    HW212194   2.697   0.741   4.921
 3532SOL     OW12195   1.905   0.609   4.839
 3532SOL    HW112196   1.986   0.603   4.783
 3532SOL    HW212197   1.928   0.587   4.934
 3533SOL     OW12198   2.076   0.625   5.466
 3533SOL    HW112199   2.174   0.633   5.449
 3533SOL    HW212200   2.026   0.680   5.399
 3534SOL     OW12201   3.224   0.932   5.356
 3534SOL    HW112202   3.247   1.030   5.355
 3534SOL    HW212203   3.214   0.900   5.262
 3535SOL     OW12204   2.672   0.577   4.041
 3535SOL    HW112205   2.654   0.479   4.034
 3535SOL    HW212206   2.590   0.628   4.018
 3536SOL     OW12207   3.470   0.584   4.853
 3536SOL    HW112208   3.422   0.500   4.882
 3536SOL    HW212209   3.568   0.569   4.859
 3537SOL     OW12210   2.081   1.539   5.432
 3537SOL    HW112211   2.055   1.614   5.493
 3537SOL    HW212212   2.089   1.455   5.485
 3538SOL     OW12213   2.605   0.455   4.964
 3538SOL    HW112214   2.549   0.373   4.951
 3538SOL    HW212215   2.586   0.520   4.890
 3539SOL     OW12216   2.727   1.690   5.297
 3539SOL    HW112217   2.686   1.623   5.236
 3539SOL    HW212218   2.761   1.768   5.244
 3540SOL     OW12219   2.283   0.495   3.885
 3540SOL    HW112220   2.354   0.561   3.905
 3540SOL    HW212221   2.193   0.540   3.888
 3541SOL     OW12222   2.008   1.129   5.227
 3541SOL    HW112223   2.013   1.098   5.322
 3541SOL    HW212224   2.040   1.056   5.167
 3542SOL     OW12225   3.123   1.042   4.914
 3542SOL    HW112226   3.140   0.983   4.835
 3542SOL    HW212227   3.074   1.124   4.884
 3543SOL     OW12228   3.174   0.869   4.002
 3543SOL    HW112229   3.101   0.837   4.063
 3543SOL    HW212230   3.145   0.859   3.907
 3544SOL     OW12231   3.608   1.686   4.879
 3544SOL    HW112232   3.680   1.721   4.819
 3544SOL    HW212233   3.581   1.594   4.850
 3545SOL     OW12234   3.134   1.709   4.790
 3545SOL    HW112235   3.216   1.766   4.794
 3545SOL    HW212236   3.157   1.616   4.819
 3546SOL     OW12237   1.987   1.215   4.750
 3546SOL    HW112238   1.959   1.238   4.844
 3546SOL    HW212239   1.912   1.167   4.704
 3547SOL     OW12240   2.544   1.715   5.498
 3547SOL    HW112241   2.478   1.789   5.485
 3547SOL    HW212242   2.618   1.724   5.431
 3548SOL     OW12243   3.260   1.581   4.235
 3548SOL    HW112244   3.320   1.609   4.160
 3548SOL    HW212245   3.214   1.662   4.272
 3549SOL     OW12246   1.991   1.772   5.564
 3549SOL    HW112247   1.947   1.701   5.618
 3549SOL    HW212248   2.047   1.830   5.623
 3550SOL     OW12249   3.126   0.933   4.348
 3550SOL    HW112250   3.204   0.874   4.370
 3550SOL    HW212251   3.160   1.020   4.312
 3551SOL     OW12252   2.622   1.291   5.162
 3551SOL    HW112253   2.599   1.344   5.244
 3551SOL    HW212254   2.548   1.299   5.095
 3552SOL     OW12255   2.506   1.642   3.864
 3552SOL    HW112256   2.529   1.659   3.768
 3552SOL    HW212257   2.457   1.555   3.872
 3553SOL     OW12258   3.462   1.727   5.126
 3553SOL    HW112259   3.518   1.718   5.043
 3553SOL    HW212260   3.448   1.824   5.146
 3554SOL     OW12261   3.728   0.180   4.653
 3554SOL    HW112262   3.746   0.082   4.661
 3554SOL    HW212263   3.630   0.195   4.639
 3555SOL     OW12264   2.115   0.310   4.472
 3555SOL    HW112265   2.037   0.362   4.438
 3555SOL    HW212266   2.112   0.307   4.572
 3556SOL     OW12267   3.075   1.547   3.796
 3556SOL    HW112268   3.074   1.457   3.840
 3556SOL    HW212269   2.999   1.553   3.730
 3557SOL     OW12270   2.656   1.018   5.125
 3557SOL    HW112271   2.689   1.002   5.032
 3557SOL    HW212272   2.644   1.116   5.140
 3558SOL     OW12273   2.777   0.890   3.941
 3558SOL    HW112274   2.841   0.957   3.905
 3558SOL    HW212275   2.825   0.825   3.999
 3559SOL     OW12276   3.338   1.630   3.792
 3559SOL    HW112277   3.244   1.597   3.784
 3559SOL    HW212278   3.375   1.645   3.700
 3560SOL     OW12279   2.233   1.310   5.235
 3560SOL    HW112280   2.221   1.390   5.176
 3560SOL    HW212281   2.153   1.250   5.227
 3561SOL     OW12282   3.458   1.277   5.011
 3561SOL    HW112283   3.518   1.248   5.085
 3561SOL    HW212284   3.396   1.348   5.044
 3562SOL     OW12285   2.949   1.124   4.464
 3562SOL    HW112286   2.867   1.083   4.502
 3562SOL    HW212287   3.006   1.053   4.421
 3563SOL     OW12288   2.890   0.266   4.668
 3563SOL    HW112289   2.892   0.223   4.578
 3563SOL    HW212290   2.860   0.200   4.736
 3564SOL     OW12291   2.453   1.470   4.233
 3564SOL    HW112292   2.491   1.416   4.158
 3564SOL    HW212293   2.353   1.472   4.225
 3565SOL     OW12294   3.654   0.332   5.161
 3565SOL    HW112295   3.719   0.407   5.151
 3565SOL    HW212296   3.658   0.274   5.081
 3566SOL     OW12297   2.148   1.329   4.018
 3566SOL    HW112298   2.052   1.322   3.988
 3566SOL    HW212299   2.153   1.391   4.096
 3567SOL     OW12300   2.013   1.040   5.484
 3567SOL    HW112301   1.929   1.010   5.529
 3567SOL    HW212302   2.089   0.982   5.515
 3568SOL     OW12303   2.556   0.244   5.282
 3568SOL    HW112304   2.628   0.229   5.214
 3568SOL    HW212305   2.598   0.276   5.367
 3569SOL     OW12306   1.944   0.416   3.690
 3569SOL    HW112307   1.854   0.399   3.651
 3569SOL    HW212308   1.979   0.503   3.655
 3570SOL     OW12309   3.234   0.861   5.092
 3570SOL    HW112310   3.178   0.921   5.036
 3570SOL    HW212311   3.326   0.854   5.052
 3571SOL     OW12312   1.894   0.259   4.038
 3571SOL    HW112313   1.894   0.317   3.956
 3571SOL    HW212314   1.970   0.195   4.033
 3572SOL     OW12315   3.074   1.295   3.907
 3572SOL    HW112316   3.021   1.212   3.892
 3572SOL    HW212317   3.085   1.311   4.006
 3573SOL     OW12318   2.504   0.806   5.218
 3573SOL    HW112319   2.553   0.890   5.198
 3573SOL    HW212320   2.567   0.728   5.216
 3574SOL     OW12321   3.379   1.840   4.801
 3574SOL    HW112322   3.404   1.907   4.731
 3574SOL    HW212323   3.460   1.789   4.829
 3575SOL     OW12324   2.587   0.527   5.474
 3575SOL    HW112325   2.646   0.599   5.510
 3575SOL    HW212326   2.610   0.440   5.519
 3576SOL     OW12327   3.312   1.192   5.342
 3576SOL    HW112328   3.306   1.213   5.440
 3576SOL    HW212329   3.406   1.208   5.311
 3577SOL     OW12330   2.209   1.765   5.312
 3577SOL    HW112331   2.123   1.813   5.295
 3577SOL    HW212332   2.191   1.671   5.341
 3578SOL     OW12333   3.475   0.852   4.962
 3578SOL    HW112334   3.481   0.763   4.916
 3578SOL    HW212335   3.473   0.924   4.893
 3579SOL     OW12336   3.093   0.337   4.153
 3579SOL    HW112337   3.164   0.267   4.150
 3579SOL    HW212338   3.094   0.383   4.242
 3580SOL     OW12339   2.500   0.686   4.350
 3580SOL    HW112340   2.535   0.779   4.355
 3580SOL    HW212341   2.417   0.684   4.294
 3581SOL     OW12342   3.578   0.386   5.417
 3581SOL    HW112343   3.608   0.372   5.323
 3581SOL    HW212344   3.496   0.332   5.434
 3582SOL     OW12345   3.587   0.928   5.201
 3582SOL    HW112346   3.578   1.027   5.211
 3582SOL    HW212347   3.551   0.901   5.112
 3583SOL     OW12348   2.672   1.347   3.797
 3583SOL    HW112349   2.653   1.357   3.895
 3583SOL    HW212350   2.725   1.425   3.765
 3584SOL     OW12351   2.540   1.722   4.691
 3584SOL    HW112352   2.504   1.815   4.680
 3584SOL    HW212353   2.633   1.719   4.655
 3585SOL     OW12354   2.737   0.995   4.590
 3585SOL    HW112355   2.792   0.921   4.627
 3585SOL    HW212356   2.686   1.039   4.664
 3586SOL     OW12357   2.961   1.055   3.820
 3586SOL    HW112358   2.898   1.081   3.747
 3586SOL    HW212359   3.023   0.984   3.787
 3587SOL     OW12360   3.677   1.555   4.584
 3587SOL    HW112361   3.604   1.554   4.515
 3587SOL    HW212362   3.652   1.494   4.659
 3588SOL     OW12363   2.070   1.293   5.569
 3588SOL    HW112364   2.054   1.204   5.528
 3588SOL    HW212365   2.006   1.307   5.645
 3589SOL     OW12366   2.057   1.251   4.381
 3589SOL    HW112367   2.086   1.208   4.467
 3589SOL    HW212368   2.091   1.197   4.304
 3590SOL     OW12369   2.543   1.449   5.378
 3590SOL    HW112370   2.467   1.400   5.419
 3590SOL    HW212371   2.552   1.539   5.421
 3591SOL     OW12372   3.662   0.173   4.943
 3591SOL    HW112373   3.573   0.132   4.924
 3591SOL    HW212374   3.705   0.201   4.857
 3592SOL     OW12375   2.260   0.417   4.255
 3592SOL    HW112376   2.287   0.347   4.188
 3592SOL    HW212377   2.220   0.373   4.335
 3593SOL     OW12378   3.551   1.431   4.798
 3593SOL    HW112379   3.476   1.414   4.734
 3593SOL    HW212380   3.543   1.371   4.877
 3594SOL     OW12381   2.238   0.561   5.000
 3594SOL    HW112382   2.286   0.489   5.051
 3594SOL    HW212383   2.233   0.535   4.903
 3595SOL     OW12384   2.661   1.611   4.337
 3595SOL    HW112385   2.664   1.702   4.296
 3595SOL    HW212386   2.581   1.562   4.303
 3596SOL     OW12387   3.322   0.312   4.856
 3596SOL    HW112388   3.359   0.221   4.876
 3596SOL    HW212389   3.250   0.334   4.922
 3597SOL     OW12390   2.783   0.081   4.841
 3597SOL    HW112391   2.708   0.045   4.785
 3597SOL    HW212392   2.824   0.006   4.893
 3598SOL     OW12393   2.621   1.312   4.072
 3598SOL    HW112394   2.610   1.213   4.079
 3598SOL    HW212395   2.706   1.340   4.117
 3599SOL     OW12396   2.482   1.597   5.012
 3599SOL    HW112397   2.469   1.685   5.057
 3599SOL    HW212398   2.565   1.599   4.956
 3600SOL     OW12399   3.221   6.986   3.943
 3600SOL    HW112400   3.255   6.917   3.878
 3600SOL    HW212401   3.139   0.030   3.905
 3601SOL     OW12402   3.082   0.446   4.402
 3601SOL    HW112403   3.042   0.536   4.384
 3601SOL    HW212404   3.113   0.442   4.497
 3602SOL     OW12405   3.471   0.258   4.615
 3602SOL    HW112406   3.416   0.271   4.697
 3602SOL    HW212407   3.467   0.341   4.559
 3603SOL     OW12408   1.888   1.015   4.035
 3603SOL    HW112409   1.984   0.999   4.010
 3603SOL    HW212410   1.844   0.928   4.057
 3604SOL     OW12411   2.728   1.665   4.025
 3604SOL    HW112412   2.650   1.649   3.965
 3604SOL    HW212413   2.704   1.735   4.092
 3605SOL     OW12414   2.066   0.668   5.744
 3605SOL    HW112415   1.975   0.634   5.770
 3605SOL    HW212416   2.072   0.674   5.645
 3606SOL     OW12417   2.023   0.375   6.600
 3606SOL    HW112418   2.068   0.346   6.683
 3606SOL    HW212419   1.948   0.313   6.578
 3607SOL     OW12420   1.858   0.461   6.224
 3607SOL    HW112421   1.776   0.481   6.278
 3607SOL    HW212422   1.835   0.394   6.153
 3608SOL     OW12423   2.414   1.286   6.809
 3608SOL    HW112424   2.327   1.297   6.762
 3608SOL    HW212425   2.453   1.376   6.828
 3609SOL     OW12426   3.471   1.498   6.318
 3609SOL    HW112427   3.407   1.465   6.387
 3609SOL    HW212428   3.421   1.527   6.236
 3610SOL     OW12429   2.979   0.713   6.261
 3610SOL    HW112430   3.019   0.805   6.253
 3610SOL    HW212431   2.919   0.711   6.341
 3611SOL     OW12432   3.672   0.579   5.791
 3611SOL    HW112433   3.625   0.599   5.705
 3611SOL    HW212434   3.626   0.504   5.838
 3612SOL     OW12435   2.562   1.148   6.614
 3612SOL    HW112436   2.503   1.179   6.689
 3612SOL    HW212437   2.597   1.227   6.564
 3613SOL     OW12438   2.536   0.952   6.255
 3613SOL    HW112439   2.610   0.961   6.321
 3613SOL    HW212440   2.464   1.018   6.277
 3614SOL     OW12441   2.188   1.379   6.656
 3614SOL    HW112442   2.101   1.347   6.619
 3614SOL    HW212443   2.238   1.428   6.584
 3615SOL     OW12444   3.460   0.486   6.318
 3615SOL    HW112445   3.441   0.523   6.227
 3615SOL    HW212446   3.416   0.544   6.387
 3616SOL     OW12447   2.108   1.742   6.065
 3616SOL    HW112448   2.129   1.813   6.133
 3616SOL    HW212449   2.177   1.744   5.992
 3617SOL     OW12450   2.137   1.470   6.116
 3617SOL    HW112451   2.115   1.567   6.118
 3617SOL    HW212452   2.096   1.425   6.197
 3618SOL     OW12453   2.144   1.088   6.497
 3618SOL    HW112454   2.179   0.994   6.492
 3618SOL    HW212455   2.097   1.101   6.585
 3619SOL     OW12456   2.478   1.827   6.961
 3619SOL    HW112457   2.404   1.796   0.021
 3619SOL    HW212458   2.521   1.909   0.001
 3620SOL     OW12459   2.429   0.980   5.766
 3620SOL    HW112460   2.477   1.030   5.694
 3620SOL    HW212461   2.469   1.003   5.855
 3621SOL     OW12462   1.972   0.704   6.164
 3621SOL    HW112463   1.939   0.611   6.180
 3621SOL    HW212464   1.976   0.753   6.251
 3622SOL     OW12465   3.728   1.759   5.918
 3622SOL    HW112466   3.808   1.749   5.978
 3622SOL    HW212467   3.727   1.850   5.879
 3623SOL     OW12468   1.910   1.570   5.723
 3623SOL    HW112469   1.892   1.474   5.742
 3623SOL    HW212470   1.895   1.625   5.805
 3624SOL     OW12471   3.567   0.939   6.235
 3624SOL    HW112472   3.633   0.874   6.197
 3624SOL    HW212473   3.544   1.007   6.166
 3625SOL     OW12474   3.537   1.127   6.028
 3625SOL    HW112475   3.616   1.095   5.977
 3625SOL    HW212476   3.565   1.198   6.093
 3626SOL     OW12477   2.453   1.373   6.306
 3626SOL    HW112478   2.412   1.282   6.299
 3626SOL    HW212479   2.457   1.415   6.215
 3627SOL     OW12480   2.665   0.042   6.028
 3627SOL    HW112481   2.717   0.127   6.042
 3627SOL    HW212482   2.570   0.057   6.057
 3628SOL     OW12483   2.027   1.016   6.751
 3628SOL    HW112484   2.110   0.962   6.768
 3628SOL    HW212485   1.947   0.956   6.755
 3629SOL     OW12486   3.423   1.055   5.782
 3629SOL    HW112487   3.348   0.993   5.803
 3629SOL    HW212488   3.461   1.092   5.867
 3630SOL     OW12489   3.282   1.411   6.498
 3630SOL    HW112490   3.238   1.426   6.586
 3630SOL    HW212491   3.277   1.314   6.474
 3631SOL     OW12492   3.501   1.865   6.127
 3631SOL    HW112493   3.495   1.795   6.056
 3631SOL    HW212494   3.519   1.821   6.215
 3632SOL     OW12495   2.429   0.696   5.868
 3632SOL    HW112496   2.434   0.787   5.826
 3632SOL    HW212497   2.358   0.695   5.938
 3633SOL     OW12498   3.148   0.396   6.501
 3633SOL    HW112499   3.060   0.350   6.504
 3633SOL    HW212500   3.213   0.348   6.560
 3634SOL     OW12501   3.466   1.681   5.918
 3634SOL    HW112502   3.565   1.697   5.912
 3634SOL    HW212503   3.429   1.666   5.826
 3635SOL     OW12504   2.616   0.676   0.030
 3635SOL    HW112505   2.565   0.696   0.113
 3635SOL    HW212506   2.564   0.611   6.974
 3636SOL     OW12507   2.868   0.402   6.770
 3636SOL    HW112508   2.849   0.444   6.859
 3636SOL    HW212509   2.827   0.310   6.767
 3637SOL     OW12510   2.900   0.686   6.001
 3637SOL    HW112511   2.928   0.691   6.097
 3637SOL    HW212512   2.809   0.646   5.995
 3638SOL     OW12513   1.961   0.835   6.404
 3638SOL    HW112514   2.058   0.838   6.428
 3638SOL    HW212515   1.915   0.916   6.441
 3639SOL     OW12516   2.027   1.789   0.068
 3639SOL    HW112517   1.976   1.704   0.077
 3639SOL    HW212518   2.043   1.808   6.972
 3640SOL     OW12519   2.733   0.376   5.801
 3640SOL    HW112520   2.801   0.431   5.752
 3640SOL    HW212521   2.681   0.321   5.735
 3641SOL     OW12522   3.266   1.170   6.150
 3641SOL    HW112523   3.354   1.160   6.103
 3641SOL    HW212524   3.212   1.241   6.106
 3642SOL     OW12525   2.324   0.219   6.504
 3642SOL    HW112526   2.357   0.312   6.486
 3642SOL    HW212527   2.308   0.172   6.418
 3643SOL     OW12528   2.865   1.478   6.055
 3643SOL    HW112529   2.844   1.546   5.985
 3643SOL    HW212530   2.824   1.506   6.142
 3644SOL     OW12531   2.227   1.789   6.479
 3644SOL    HW112532   2.262   1.695   6.479
 3644SOL    HW212533   2.299   1.852   6.508
 3645SOL     OW12534   3.674   1.049   6.469
 3645SOL    HW112535   3.634   1.026   6.380
 3645SOL    HW212536   3.602   1.059   6.537
 3646SOL     OW12537   2.153   0.921   5.865
 3646SOL    HW112538   2.239   0.949   5.824
 3646SOL    HW212539   2.126   0.832   5.829
 3647SOL     OW12540   3.335   0.789   6.273
 3647SOL    HW112541   3.317   0.746   6.362
 3647SOL    HW212542   3.418   0.844   6.279
 3648SOL     OW12543   3.021   1.759   5.820
 3648SOL    HW112544   2.926   1.743   5.849
 3648SOL    HW212545   3.049   1.687   5.757
 3649SOL     OW12546   3.501   1.388   5.685
 3649SOL    HW112547   3.476   1.484   5.675
 3649SOL    HW212548   3.425   1.330   5.655
 3650SOL     OW12549   2.322   1.781   5.890
 3650SOL    HW112550   2.368   1.832   5.962
 3650SOL    HW212551   2.390   1.727   5.839
 3651SOL     OW12552   3.292   0.106   6.002
 3651SOL    HW112553   3.220   0.046   5.966
 3651SOL    HW212554   3.349   0.139   5.927
 3652SOL     OW12555   2.098   1.823   6.806
 3652SOL    HW112556   2.157   1.743   6.815
 3652SOL    HW212557   2.048   1.818   6.719
 3653SOL     OW12558   2.819   1.686   6.445
 3653SOL    HW112559   2.906   1.636   6.443
 3653SOL    HW212560   2.760   1.654   6.370
 3654SOL     OW12561   2.239   0.665   6.066
 3654SOL    HW112562   2.238   0.565   6.067
 3654SOL    HW212563   2.147   0.700   6.085
 3655SOL     OW12564   2.469   0.083   5.688
 3655SOL    HW112565   2.503   0.007   5.743
 3655SOL    HW212566   2.402   0.048   5.622
 3656SOL     OW12567   2.729   1.482   6.739
 3656SOL    HW112568   2.687   1.463   6.650
 3656SOL    HW212569   2.806   1.421   6.753
 3657SOL     OW12570   2.649   1.377   6.496
 3657SOL    HW112571   2.742   1.374   6.459
 3657SOL    HW212572   2.584   1.384   6.420
 3658SOL     OW12573   2.815   0.566   6.501
 3658SOL    HW112574   2.793   0.529   6.411
 3658SOL    HW212575   2.849   0.492   6.559
 3659SOL     OW12576   2.384   0.058   6.062
 3659SOL    HW112577   2.331   0.075   6.145
 3659SOL    HW212578   2.353   0.121   5.990
 3660SOL     OW12579   3.282   1.225   5.616
 3660SOL    HW112580   3.332   1.156   5.668
 3660SOL    HW212581   3.201   1.253   5.667
 3661SOL     OW12582   2.129   6.998   5.768
 3661SOL    HW112583   2.162   0.081   5.812
 3661SOL    HW212584   2.040   6.973   5.806
 3662SOL     OW12585   2.827   0.273   6.041
 3662SOL    HW112586   2.791   0.310   5.955
 3662SOL    HW212587   2.927   0.282   6.041
 3663SOL     OW12588   3.072   1.571   6.374
 3663SOL    HW112589   3.096   1.646   6.312
 3663SOL    HW212590   3.155   1.532   6.413
 3664SOL     OW12591   2.331   1.129   6.295
 3664SOL    HW112592   2.270   1.123   6.374
 3664SOL    HW212593   2.277   1.120   6.211
 3665SOL     OW12594   3.122   1.791   6.207
 3665SOL    HW112595   3.168   1.852   6.143
 3665SOL    HW212596   3.045   1.839   6.249
 3666SOL     OW12597   2.899   0.529   5.650
 3666SOL    HW112598   2.859   0.616   5.620
 3666SOL    HW212599   2.973   0.547   5.715
 3667SOL     OW12600   2.406   0.242   6.813
 3667SOL    HW112601   2.412   0.203   6.721
 3667SOL    HW212602   2.310   0.263   6.834
 3668SOL     OW12603   2.749   0.477   6.241
 3668SOL    HW112604   2.693   0.527   6.176
 3668SOL    HW212605   2.783   0.393   6.198
 3669SOL     OW12606   2.916   0.008   6.337
 3669SOL    HW112607   2.847   0.009   6.265
 3669SOL    HW212608   2.929   6.914   6.369
 3670SOL     OW12609   3.265   1.135   6.442
 3670SOL    HW112610   3.205   1.060   6.470
 3670SOL    HW212611   3.265   1.142   6.342
 3671SOL     OW12612   3.281   0.656   6.508
 3671SOL    HW112613   3.225   0.573   6.517
 3671SOL    HW212614   3.350   0.658   6.580
 3672SOL     OW12615   3.665   0.775   5.979
 3672SOL    HW112616   3.733   0.747   6.046
 3672SOL    HW212617   3.668   0.714   5.900
 3673SOL     OW12618   2.365   1.422   5.752
 3673SOL    HW112619   2.288   1.383   5.803
 3673SOL    HW212620   2.366   1.384   5.659
 3674SOL     OW12621   3.631   1.295   6.210
 3674SOL    HW112622   3.727   1.292   6.237
 3674SOL    HW212623   3.586   1.373   6.254
 3675SOL     OW12624   3.250   0.605   5.650
 3675SOL    HW112625   3.206   0.579   5.736
 3675SOL    HW212626   3.349   0.606   5.662
 3676SOL     OW12627   2.298   0.226   5.856
 3676SOL    HW112628   2.363   0.180   5.796
 3676SOL    HW212629   2.284   0.320   5.824
 3677SOL     OW12630   3.602   1.096   0.203
 3677SOL    HW112631   3.700   1.103   0.186
 3677SOL    HW212632   3.559   1.185   0.191
 3678SOL     OW12633   2.938   1.300   6.699
 3678SOL    HW112634   2.919   1.203   6.716
 3678SOL    HW212635   2.929   1.319   6.601
 3679SOL     OW12636   3.462   1.091   6.637
 3679SOL    HW112637   3.450   1.164   6.704
 3679SOL    HW212638   3.392   1.100   6.566
 3680SOL     OW12639   2.578   1.044   5.995
 3680SOL    HW112640   2.556   1.011   6.087
 3680SOL    HW212641   2.665   1.005   5.966
 3681SOL     OW12642   2.268   0.898   6.816
 3681SOL    HW112643   2.337   0.945   6.870
 3681SOL    HW212644   2.260   0.803   6.846
 3682SOL     OW12645   3.120   0.318   6.849
 3682SOL    HW112646   3.156   0.389   6.910
 3682SOL    HW212647   3.035   0.351   6.807
 3683SOL     OW12648   1.966   1.536   6.941
 3683SOL    HW112649   1.907   1.591   6.882
 3683SOL    HW212650   2.061   1.546   6.911
 3684SOL     OW12651   2.168   1.115   6.073
 3684SOL    HW112652   2.172   1.191   6.008
 3684SOL    HW212653   2.161   1.028   6.023
 3685SOL     OW12654   2.407   0.485   6.456
 3685SOL    HW112655   2.408   0.543   6.375
 3685SOL    HW212656   2.476   0.517   6.521
 3686SOL     OW12657   3.121   1.376   6.025
 3686SOL    HW112658   3.186   1.447   6.052
 3686SOL    HW212659   3.028   1.406   6.044
 3687SOL     OW12660   3.172   1.440   6.744
 3687SOL    HW112661   3.233   1.392   6.806
 3687SOL    HW212662   3.083   1.394   6.743
 3688SOL     OW12663   3.441   0.626   6.072
 3688SOL    HW112664   3.377   0.681   6.125
 3688SOL    HW212665   3.512   0.686   6.034
 3689SOL     OW12666   2.219   1.577   6.836
 3689SOL    HW112667   2.200   1.505   6.769
 3689SOL    HW212668   2.317   1.580   6.855
 3690SOL     OW12669   2.478   0.877   6.627
 3690SOL    HW112670   2.513   0.970   6.616
 3690SOL    HW212671   2.392   0.879   6.678
 3691SOL     OW12672   3.134   0.903   6.561
 3691SOL    HW112673   3.038   0.880   6.580
 3691SOL    HW212674   3.185   0.819   6.542
 3692SOL     OW12675   3.084   0.540   5.860
 3692SOL    HW112676   3.097   0.455   5.912
 3692SOL    HW212677   3.025   0.602   5.913
 3693SOL     OW12678   2.131   0.269   6.832
 3693SOL    HW112679   2.065   0.281   6.907
 3693SOL    HW212680   2.131   0.173   6.802
 3694SOL     OW12681   1.852   1.296   6.872
 3694SOL    HW112682   1.895   1.221   6.922
 3694SOL    HW212683   1.894   1.383   6.898
 3695SOL     OW12684   2.573   0.618   6.628
 3695SOL    HW112685   2.662   0.607   6.582
 3695SOL    HW212686   2.546   0.714   6.625
 3696SOL     OW12687   2.212   0.099   6.274
 3696SOL    HW112688   2.154   0.180   6.286
 3696SOL    HW212689   2.156   0.017   6.283
 3697SOL     OW12690   3.491   0.402   5.915
 3697SOL    HW112691   3.544   0.341   5.973
 3697SOL    HW212692   3.455   0.478   5.969
 3698SOL     OW12693   2.865   0.818   6.617
 3698SOL    HW112694   2.819   0.831   6.705
 3698SOL    HW212695   2.853   0.723   6.588
 3699SOL     OW12696   3.381   0.205   5.752
 3699SOL    HW112697   3.285   0.223   5.729
 3699SOL    HW212698   3.418   0.285   5.799
 3700SOL     OW12699   3.121   0.837   5.590
 3700SOL    HW112700   3.165   0.748   5.605
 3700SOL    HW212701   3.151   0.874   5.502
 3701SOL     OW12702   2.912   1.357   6.431
 3701SOL    HW112703   2.927   1.272   6.379
 3701SOL    HW212704   2.973   1.428   6.397
 3702SOL     OW12705   2.222   0.826   6.477
 3702SOL    HW112706   2.308   0.816   6.428
 3702SOL    HW212707   2.207   0.745   6.534
 3703SOL     OW12708   2.197   0.582   6.599
 3703SOL    HW112709   2.126   0.511   6.601
 3703SOL    HW212710   2.276   0.548   6.547
 3704SOL     OW12711   3.059   0.138   0.059
 3704SOL    HW112712   3.058   0.203   0.135
 3704SOL    HW212713   3.079   0.187   6.974
 3705SOL     OW12714   1.885   1.290   5.776
 3705SOL    HW112715   1.793   1.316   5.747
 3705SOL    HW212716   1.883   1.195   5.810
 3706SOL     OW12717   1.967   1.764   6.558
 3706SOL    HW112718   1.924   1.684   6.516
 3706SOL    HW212719   2.059   1.776   6.521
 3707SOL     OW12720   2.345   1.540   6.493
 3707SOL    HW112721   2.422   1.594   6.527
 3707SOL    HW212722   2.377   1.478   6.421
 3708SOL     OW12723   2.729   0.875   6.868
 3708SOL    HW112724   2.803   0.912   6.924
 3708SOL    HW212725   2.683   0.801   6.918
 3709SOL     OW12726   1.857   0.607   6.535
 3709SOL    HW112727   1.921   0.532   6.549
 3709SOL    HW212728   1.902   0.681   6.484
 3710SOL     OW12729   2.653   0.573   5.979
 3710SOL    HW112730   2.672   0.496   5.918
 3710SOL    HW212731   2.572   0.622   5.946
 3711SOL     OW12732   3.490   0.654   6.682
 3711SOL    HW112733   3.486   0.591   6.760
 3711SOL    HW212734   3.568   0.631   6.624
 3712SOL     OW12735   2.488   0.504   6.861
 3712SOL    HW112736   2.470   0.406   6.851
 3712SOL    HW212737   2.524   0.540   6.775
 3713SOL     OW12738   2.870   1.679   6.880
 3713SOL    HW112739   2.814   1.611   6.833
 3713SOL    HW212740   2.883   1.759   6.821
 3714SOL     OW12741   2.280   0.482   5.746
 3714SOL    HW112742   2.356   0.540   5.777
 3714SOL    HW212743   2.195   0.534   5.751
 3715SOL     OW12744   1.989   1.098   0.011
 3715SOL    HW112745   2.046   1.047   0.075
 3715SOL    HW212746   2.012   1.072   6.917
 3716SOL     OW12747   3.199   0.949   6.834
 3716SOL    HW112748   3.189   0.948   6.735
 3716SOL    HW212749   3.212   1.043   6.866
 3717SOL     OW12750   3.204   0.909   5.845
 3717SOL    HW112751   3.136   0.892   5.916
 3717SOL    HW212752   3.166   0.884   5.755
 3718SOL     OW12753   3.610   1.754   6.747
 3718SOL    HW112754   3.694   1.752   6.692
 3718SOL    HW212755   3.566   1.664   6.744
 3719SOL     OW12756   3.149   1.718   6.690
 3719SOL    HW112757   3.237   1.756   6.661
 3719SOL    HW212758   3.161   1.623   6.717
 3720SOL     OW12759   1.917   1.301   6.595
 3720SOL    HW112760   1.893   1.292   6.692
 3720SOL    HW212761   1.890   1.218   6.546
 3721SOL     OW12762   3.644   0.228   6.060
 3721SOL    HW112763   3.694   0.178   5.989
 3721SOL    HW212764   3.593   0.163   6.116
 3722SOL     OW12765   3.294   1.583   6.111
 3722SOL    HW112766   3.351   1.614   6.035
 3722SOL    HW212767   3.231   1.656   6.137
 3723SOL     OW12768   3.123   0.944   6.208
 3723SOL    HW112769   3.197   0.879   6.228
 3723SOL    HW212770   3.163   1.029   6.173
 3724SOL     OW12771   2.526   1.642   5.759
 3724SOL    HW112772   2.541   1.665   5.663
 3724SOL    HW212773   2.475   1.556   5.764
 3725SOL     OW12774   3.704   0.178   6.557
 3725SOL    HW112775   3.727   0.081   6.568
 3725SOL    HW212776   3.621   0.186   6.503
 3726SOL     OW12777   2.077   0.330   6.319
 3726SOL    HW112778   1.997   0.377   6.283
 3726SOL    HW212779   2.081   0.343   6.418
 3727SOL     OW12780   3.102   1.564   5.645
 3727SOL    HW112781   3.093   1.472   5.683
 3727SOL    HW212782   3.024   1.583   5.585
 3728SOL     OW12783   2.484   1.035   6.930
 3728SOL    HW112784   2.570   0.998   6.896
 3728SOL    HW212785   2.471   1.128   6.895
 3729SOL     OW12786   2.811   0.936   5.921
 3729SOL    HW112787   2.841   0.952   5.827
 3729SOL    HW212788   2.847   0.848   5.953
 3730SOL     OW12789   3.366   1.649   5.653
 3730SOL    HW112790   3.272   1.618   5.644
 3730SOL    HW212791   3.408   1.654   5.562
 3731SOL     OW12792   3.426   1.285   6.833
 3731SOL    HW112793   3.522   1.273   6.856
 3731SOL    HW212794   3.369   1.248   6.906
 3732SOL     OW12795   2.933   1.115   6.316
 3732SOL    HW112796   2.855   1.067   6.356
 3732SOL    HW212797   2.994   1.049   6.272
 3733SOL     OW12798   2.930   0.228   6.510
 3733SOL    HW112799   2.920   0.154   6.443
 3733SOL    HW212800   2.884   0.203   6.595
 3734SOL     OW12801   2.482   1.494   6.063
 3734SOL    HW112802   2.539   1.432   6.008
 3734SOL    HW212803   2.394   1.508   6.017
 3735SOL     OW12804   3.515   0.478   6.882
 3735SOL    HW112805   3.566   0.502   6.965
 3735SOL    HW212806   3.532   0.381   6.861
 3736SOL     OW12807   2.144   1.325   5.892
 3736SOL    HW112808   2.053   1.319   5.852
 3736SOL    HW212809   2.141   1.385   5.972
 3737SOL     OW12810   1.952   0.382   5.558
 3737SOL    HW112811   1.865   0.371   5.510
 3737SOL    HW212812   1.990   0.472   5.537
 3738SOL     OW12813   1.885   0.210   5.801
 3738SOL    HW112814   1.912   0.262   5.721
 3738SOL    HW212815   1.879   0.113   5.777
 3739SOL     OW12816   3.058   1.314   5.753
 3739SOL    HW112817   2.961   1.292   5.741
 3739SOL    HW212818   3.078   1.322   5.851
 3740SOL     OW12819   3.384   1.841   6.616
 3740SOL    HW112820   3.410   1.896   6.537
 3740SOL    HW212821   3.466   1.810   6.665
 3741SOL     OW12822   3.343   1.292   0.273
 3741SOL    HW112823   3.275   1.326   0.337
 3741SOL    HW212824   3.328   1.195   0.256
 3742SOL     OW12825   2.289   1.725   0.123
 3742SOL    HW112826   2.192   1.745   0.113
 3742SOL    HW212827   2.303   1.626   0.118
 3743SOL     OW12828   3.592   0.887   6.800
 3743SOL    HW112829   3.557   0.801   6.764
 3743SOL    HW212830   3.547   0.964   6.753
 3744SOL     OW12831   3.105   0.318   6.029
 3744SOL    HW112832   3.172   0.244   6.033
 3744SOL    HW212833   3.116   0.377   6.109
 3745SOL     OW12834   2.411   0.704   6.279
 3745SOL    HW112835   2.470   0.783   6.264
 3745SOL    HW212836   2.353   0.689   6.199
 3746SOL     OW12837   3.630   0.839   0.079
 3746SOL    HW112838   3.618   0.926   0.127
 3746SOL    HW212839   3.613   0.851   6.981
 3747SOL     OW12840   2.753   1.336   5.690
 3747SOL    HW112841   2.711   1.348   5.780
 3747SOL    HW212842   2.769   1.425   5.649
 3748SOL     OW12843   2.548   1.713   6.551
 3748SOL    HW112844   2.521   1.809   6.548
 3748SOL    HW212845   2.646   1.705   6.533
 3749SOL     OW12846   2.728   0.993   6.454
 3749SOL    HW112847   2.777   0.925   6.510
 3749SOL    HW212848   2.670   1.048   6.513
 3750SOL     OW12849   2.893   0.960   5.665
 3750SOL    HW112850   2.869   1.033   5.601
 3750SOL    HW212851   2.978   0.916   5.636
 3751SOL     OW12852   3.718   1.529   6.458
 3751SOL    HW112853   3.631   1.521   6.410
 3751SOL    HW212854   3.744   1.440   6.495
 3752SOL     OW12855   2.035   1.251   6.283
 3752SOL    HW112856   2.058   1.204   6.368
 3752SOL    HW212857   2.072   1.200   6.206
 3753SOL     OW12858   3.603   0.221   6.814
 3753SOL    HW112859   3.535   0.148   6.813
 3753SOL    HW212860   3.651   0.223   6.726
 3754SOL     OW12861   2.221   0.398   6.085
 3754SOL    HW112862   2.236   0.321   6.023
 3754SOL    HW212863   2.177   0.365   6.169
 3755SOL     OW12864   3.474   1.524   6.703
 3755SOL    HW112865   3.426   1.512   6.616
 3755SOL    HW212866   3.464   1.442   6.758
 3756SOL     OW12867   2.242   0.631   6.866
 3756SOL    HW112868   2.327   0.581   6.886
 3756SOL    HW212869   2.215   0.614   6.771
 3757SOL     OW12870   2.678   1.629   6.216
 3757SOL    HW112871   2.683   1.721   6.177
 3757SOL    HW212872   2.602   1.579   6.173
 3758SOL     OW12873   3.305   0.242   6.661
 3758SOL    HW112874   3.350   0.156   6.685
 3758SOL    HW212875   3.242   0.269   6.735
 3759SOL     OW12876   2.782   0.137   6.740
 3759SOL    HW112877   2.685   0.124   6.716
 3759SOL    HW212878   2.815   0.057   6.790
 3760SOL     OW12879   2.654   1.314   5.949
 3760SOL    HW112880   2.627   1.219   5.965
 3760SOL    HW212881   2.738   1.334   5.999
 3761SOL     OW12882   2.495   1.567   6.854
 3761SOL    HW112883   2.498   1.664   6.877
 3761SOL    HW212884   2.582   1.540   6.813
 3762SOL     OW12885   3.105   6.976   5.835
 3762SOL    HW112886   3.148   6.891   5.805
 3762SOL    HW212887   3.017   6.956   5.879
 3763SOL     OW12888   3.128   0.482   6.241
 3763SOL    HW112889   3.075   0.566   6.242
 3763SOL    HW212890   3.141   0.450   6.335
 3764SOL     OW12891   3.464   0.235   6.430
 3764SOL    HW112892   3.407   0.237   6.512
 3764SOL    HW212893   3.464   0.325   6.387
 3765SOL     OW12894   1.895   1.029   5.889
 3765SOL    HW112895   1.992   1.010   5.873
 3765SOL    HW212896   1.846   0.943   5.903
 3766SOL     OW12897   2.762   1.691   5.903
 3766SOL    HW112898   2.680   1.667   5.850
 3766SOL    HW212899   2.738   1.761   5.970
 3767SOL     OW12900   2.042   2.571   0.128
 3767SOL    HW112901   1.956   2.521   0.125
 3767SOL    HW212902   2.101   2.540   0.053
 3768SOL     OW12903   2.063   2.151   0.987
 3768SOL    HW112904   2.109   2.118   1.070
 3768SOL    HW212905   1.977   2.102   0.976
 3769SOL     OW12906   1.852   2.291   0.618
 3769SOL    HW112907   1.766   2.307   0.667
 3769SOL    HW212908   1.836   2.225   0.544
 3770SOL     OW12909   2.407   3.179   1.212
 3770SOL    HW112910   2.322   3.179   1.158
 3770SOL    HW212911   2.429   3.273   1.239
 3771SOL     OW12912   3.456   3.371   0.686
 3771SOL    HW112913   3.407   3.324   0.759
 3771SOL    HW212914   3.390   3.405   0.619
 3772SOL     OW12915   2.979   2.589   0.686
 3772SOL    HW112916   3.032   2.671   0.665
 3772SOL    HW212917   2.935   2.600   0.775
 3773SOL     OW12918   3.679   2.434   0.121
 3773SOL    HW112919   3.638   2.522   0.098
 3773SOL    HW212920   3.620   2.386   0.187
 3774SOL     OW12921   2.560   2.984   1.064
 3774SOL    HW112922   2.497   3.022   1.132
 3774SOL    HW212923   2.605   3.059   1.016
 3775SOL     OW12924   2.759   2.573   1.799
 3775SOL    HW112925   2.781   2.637   1.873
 3775SOL    HW212926   2.771   2.619   1.711
 3776SOL     OW12927   2.556   2.819   0.642
 3776SOL    HW112928   2.622   2.825   0.717
 3776SOL    HW212929   2.481   2.883   0.657
 3777SOL     OW12930   2.581   3.036   1.764
 3777SOL    HW112931   2.637   3.113   1.796
 3777SOL    HW212932   2.498   3.071   1.721
 3778SOL     OW12933   2.181   3.247   1.063
 3778SOL    HW112934   2.109   3.190   1.026
 3778SOL    HW212935   2.227   3.296   0.989
 3779SOL     OW12936   3.311   3.380   1.332
 3779SOL    HW112937   3.370   3.456   1.357
 3779SOL    HW212938   3.225   3.385   1.383
 3780SOL     OW12939   2.356   2.207   1.429
 3780SOL    HW112940   2.436   2.150   1.448
 3780SOL    HW212941   2.275   2.165   1.470
 3781SOL     OW12942   3.471   2.331   0.733
 3781SOL    HW112943   3.458   2.373   0.643
 3781SOL    HW212944   3.422   2.383   0.802
 3782SOL     OW12945   2.091   3.575   0.503
 3782SOL    HW112946   2.113   3.659   0.552
 3782SOL    HW212947   2.174   3.539   0.460
 3783SOL     OW12948   2.952   3.171   1.573
 3783SOL    HW112949   3.029   3.126   1.527
 3783SOL    HW212950   2.904   3.105   1.630
 3784SOL     OW12951   2.117   3.288   0.573
 3784SOL    HW112952   2.075   3.376   0.591
 3784SOL    HW212953   2.059   3.214   0.608
 3785SOL     OW12954   2.144   2.944   0.839
 3785SOL    HW112955   2.161   2.851   0.871
 3785SOL    HW212956   2.090   2.993   0.907
 3786SOL     OW12957   2.420   3.691   1.404
 3786SOL    HW112958   2.346   3.664   1.465
 3786SOL    HW212959   2.477   3.761   1.448
 3787SOL     OW12960   2.408   2.821   0.182
 3787SOL    HW112961   2.444   2.847   0.092
 3787SOL    HW212962   2.463   2.866   0.253
 3788SOL     OW12963   3.527   1.952   1.528
 3788SOL    HW112964   3.564   2.035   1.486
 3788SOL    HW212965   3.443   1.974   1.577
 3789SOL     OW12966   1.971   2.535   0.542
 3789SOL    HW112967   1.935   2.445   0.566
 3789SOL    HW212968   1.970   2.594   0.623
 3790SOL     OW12969   3.703   3.615   0.362
 3790SOL    HW112970   3.781   3.586   0.416
 3790SOL    HW212971   3.721   3.706   0.323
 3791SOL     OW12972   3.564   2.792   0.654
 3791SOL    HW112973   3.655   2.750   0.647
 3791SOL    HW212974   3.544   2.841   0.569
 3792SOL     OW12975   3.503   2.956   0.432
 3792SOL    HW112976   3.550   2.965   0.344
 3792SOL    HW212977   3.539   3.025   0.496
 3793SOL     OW12978   1.975   2.614   1.539
 3793SOL    HW112979   2.036   2.668   1.481
 3793SOL    HW212980   1.882   2.652   1.534
 3794SOL     OW12981   2.476   3.225   0.726
 3794SOL    HW112982   2.431   3.137   0.711
 3794SOL    HW212983   2.482   3.274   0.639
 3795SOL     OW12984   3.146   3.054   1.432
 3795SOL    HW112985   3.151   3.000   1.348
 3795SOL    HW212986   3.231   3.042   1.483
 3796SOL     OW12987   2.709   1.910   0.513
 3796SOL    HW112988   2.752   1.997   0.491
 3796SOL    HW212989   2.610   1.920   0.511
 3797SOL     OW12990   2.073   2.780   1.333
 3797SOL    HW112991   2.166   2.750   1.315
 3797SOL    HW212992   2.018   2.769   1.251
 3798SOL     OW12993   3.291   2.919   0.252
 3798SOL    HW112994   3.220   2.851   0.271
 3798SOL    HW212995   3.367   2.905   0.315
 3799SOL     OW12996   3.019   3.660   1.580
 3799SOL    HW112997   3.045   3.742   1.529
 3799SOL    HW212998   3.065   3.581   1.541
 3800SOL     OW12999   2.225   2.131   1.855
 3800SOL    HW113000   2.267   2.210   1.898
 3800SOL    HW213001   2.132   2.153   1.826
 3801SOL     OW13002   3.339   3.243   0.900
 3801SOL    HW113003   3.276   3.284   0.966
 3801SOL    HW213004   3.315   3.147   0.886
 3802SOL     OW13005   3.462   3.753   0.548
 3802SOL    HW113006   3.441   3.703   0.464
 3802SOL    HW213007   3.499   3.689   0.616
 3803SOL     OW13008   2.428   2.558   0.254
 3803SOL    HW113009   2.429   2.654   0.225
 3803SOL    HW213010   2.366   2.547   0.332
 3804SOL     OW13011   3.144   2.263   0.930
 3804SOL    HW113012   3.055   2.218   0.930
 3804SOL    HW213013   3.207   2.213   0.989
 3805SOL     OW13014   3.427   3.610   0.310
 3805SOL    HW113015   3.525   3.600   0.323
 3805SOL    HW213016   3.401   3.570   0.222
 3806SOL     OW13017   2.646   2.413   1.449
 3806SOL    HW113018   2.612   2.382   1.539
 3806SOL    HW213019   2.621   2.345   1.380
 3807SOL     OW13020   3.237   2.301   1.634
 3807SOL    HW113021   3.245   2.342   1.725
 3807SOL    HW213022   3.272   2.207   1.637
 3808SOL     OW13023   2.814   2.728   1.573
 3808SOL    HW113024   2.861   2.659   1.519
 3808SOL    HW213025   2.751   2.779   1.514
 3809SOL     OW13026   2.867   2.228   1.178
 3809SOL    HW113027   2.771   2.237   1.206
 3809SOL    HW213028   2.871   2.178   1.092
 3810SOL     OW13029   2.895   2.573   0.426
 3810SOL    HW113030   2.919   2.576   0.522
 3810SOL    HW213031   2.806   2.528   0.415
 3811SOL     OW13032   1.957   2.696   0.768
 3811SOL    HW113033   2.049   2.685   0.807
 3811SOL    HW213034   1.904   2.757   0.828
 3812SOL     OW13035   1.988   3.760   1.645
 3812SOL    HW113036   1.992   3.722   1.738
 3812SOL    HW213037   1.896   3.749   1.609
 3813SOL     OW13038   2.767   2.239   0.220
 3813SOL    HW113039   2.808   2.302   0.155
 3813SOL    HW213040   2.785   2.145   0.192
 3814SOL     OW13041   3.515   2.445   1.853
 3814SOL    HW113042   3.505   2.520   1.788
 3814SOL    HW213043   3.548   2.364   1.806
 3815SOL     OW13044   3.263   3.038   0.596
 3815SOL    HW113045   3.349   3.031   0.546
 3815SOL    HW213046   3.210   3.116   0.561
 3816SOL     OW13047   2.431   1.959   0.922
 3816SOL    HW113048   2.435   1.990   1.017
 3816SOL    HW213049   2.445   2.038   0.862
 3817SOL     OW13050   2.857   3.322   0.495
 3817SOL    HW113051   2.843   3.400   0.434
 3817SOL    HW213052   2.814   3.341   0.584
 3818SOL     OW13053   2.218   3.646   0.875
 3818SOL    HW113054   2.252   3.552   0.874
 3818SOL    HW213055   2.291   3.708   0.905
 3819SOL     OW13056   3.657   2.894   0.896
 3819SOL    HW113057   3.611   2.881   0.808
 3819SOL    HW213058   3.588   2.910   0.967
 3820SOL     OW13059   3.065   3.407   1.453
 3820SOL    HW113060   3.043   3.327   1.509
 3820SOL    HW213061   2.981   3.448   1.418
 3821SOL     OW13062   2.137   2.814   0.219
 3821SOL    HW113063   2.235   2.815   0.201
 3821SOL    HW213064   2.099   2.724   0.196
 3822SOL     OW13065   3.338   2.647   0.702
 3822SOL    HW113066   3.334   2.595   0.787
 3822SOL    HW213067   3.422   2.701   0.699
 3823SOL     OW13068   2.340   3.156   1.679
 3823SOL    HW113069   2.291   3.160   1.592
 3823SOL    HW213070   2.275   3.166   1.755
 3824SOL     OW13071   3.027   3.651   0.246
 3824SOL    HW113072   2.953   3.612   0.300
 3824SOL    HW213073   3.050   3.589   0.171
 3825SOL     OW13074   2.101   2.112   1.488
 3825SOL    HW113075   2.051   2.199   1.496
 3825SOL    HW213076   2.049   2.040   1.534
 3826SOL     OW13077   3.497   3.285   0.134
 3826SOL    HW113078   3.454   3.363   0.088
 3826SOL    HW213079   3.432   3.245   0.198
 3827SOL     OW13080   2.349   3.559   0.390
 3827SOL    HW113081   2.388   3.642   0.430
 3827SOL    HW213082   2.333   3.573   0.292
 3828SOL     OW13083   2.068   3.665   1.208
 3828SOL    HW113084   2.119   3.587   1.244
 3828SOL    HW213085   2.038   3.646   1.115
 3829SOL     OW13086   2.820   3.571   0.878
 3829SOL    HW113087   2.909   3.526   0.884
 3829SOL    HW213088   2.765   3.527   0.807
 3830SOL     OW13089   2.243   2.518   0.453
 3830SOL    HW113090   2.245   2.419   0.463
 3830SOL    HW213091   2.151   2.552   0.474
 3831SOL     OW13092   3.303   2.029   1.671
 3831SOL    HW113093   3.334   2.038   1.766
 3831SOL    HW213094   3.235   1.956   1.665
 3832SOL     OW13095   2.640   2.103   1.746
 3832SOL    HW113096   2.729   2.058   1.746
 3832SOL    HW213097   2.581   2.060   1.814
 3833SOL     OW13098   2.698   3.367   1.180
 3833SOL    HW113099   2.671   3.331   1.091
 3833SOL    HW213100   2.756   3.300   1.227
 3834SOL     OW13101   3.156   2.443   1.414
 3834SOL    HW113102   3.196   2.403   1.496
 3834SOL    HW213103   3.189   2.536   1.402
 3835SOL     OW13104   2.652   3.215   0.940
 3835SOL    HW113105   2.745   3.218   0.904
 3835SOL    HW213106   2.587   3.210   0.864
 3836SOL     OW13107   2.782   2.376   0.887
 3836SOL    HW113108   2.756   2.368   0.791
 3836SOL    HW213109   2.820   2.290   0.919
 3837SOL     OW13110   2.434   1.944   0.482
 3837SOL    HW113111   2.353   1.945   0.540
 3837SOL    HW213112   2.420   2.006   0.405
 3838SOL     OW13113   3.260   3.048   0.003
 3838SOL    HW113114   3.286   2.990   0.080
 3838SOL    HW213115   3.184   3.108   0.029
 3839SOL     OW13116   2.842   2.145   0.464
 3839SOL    HW113117   2.809   2.183   0.378
 3839SOL    HW213118   2.941   2.150   0.467
 3840SOL     OW13119   2.894   2.532   1.402
 3840SOL    HW113120   2.821   2.467   1.422
 3840SOL    HW213121   2.982   2.485   1.403
 3841SOL     OW13122   3.068   3.455   0.843
 3841SOL    HW113123   3.113   3.525   0.787
 3841SOL    HW213124   3.123   3.439   0.925
 3842SOL     OW13125   2.350   2.992   0.668
 3842SOL    HW113126   2.274   2.976   0.731
 3842SOL    HW213127   2.315   2.994   0.574
 3843SOL     OW13128   3.156   3.675   0.677
 3843SOL    HW113129   3.226   3.746   0.677
 3843SOL    HW213130   3.066   3.718   0.684
 3844SOL     OW13131   2.863   2.426   0.046
 3844SOL    HW113132   2.784   2.488   0.049
 3844SOL    HW213133   2.934   2.459   0.108
 3845SOL     OW13134   1.994   2.375   1.411
 3845SOL    HW113135   2.085   2.377   1.369
 3845SOL    HW213136   1.982   2.456   1.468
 3846SOL     OW13137   2.429   2.031   1.184
 3846SOL    HW113138   2.456   1.957   1.245
 3846SOL    HW213139   2.333   2.053   1.198
 3847SOL     OW13140   2.722   2.333   0.629
 3847SOL    HW113141   2.672   2.388   0.562
 3847SOL    HW213142   2.767   2.257   0.582
 3848SOL     OW13143   2.906   1.906   0.716
 3848SOL    HW113144   2.839   1.909   0.641
 3848SOL    HW213145   2.881   1.834   0.780
 3849SOL     OW13146   3.272   2.975   0.870
 3849SOL    HW113147   3.217   2.895   0.893
 3849SOL    HW213148   3.269   2.991   0.772
 3850SOL     OW13149   3.310   2.493   0.929
 3850SOL    HW113150   3.243   2.419   0.937
 3850SOL    HW213151   3.376   2.486   1.003
 3851SOL     OW13152   3.650   2.650   0.377
 3851SOL    HW113153   3.727   2.597   0.410
 3851SOL    HW213154   3.650   2.651   0.277
 3852SOL     OW13155   2.389   3.319   0.158
 3852SOL    HW113156   2.319   3.289   0.223
 3852SOL    HW213157   2.426   3.239   0.110
 3853SOL     OW13158   3.586   3.134   0.610
 3853SOL    HW113159   3.684   3.124   0.628
 3853SOL    HW213160   3.556   3.226   0.636
 3854SOL     OW13161   3.206   2.385   0.062
 3854SOL    HW113162   3.145   2.390   0.141
 3854SOL    HW213163   3.277   2.316   0.078
 3855SOL     OW13164   2.393   2.113   0.267
 3855SOL    HW113165   2.463   2.081   0.203
 3855SOL    HW213166   2.344   2.191   0.228
 3856SOL     OW13167   3.615   3.082   1.507
 3856SOL    HW113168   3.704   3.038   1.491
 3856SOL    HW213169   3.630   3.173   1.545
 3857SOL     OW13170   2.839   3.171   1.313
 3857SOL    HW113171   2.747   3.141   1.340
 3857SOL    HW213172   2.898   3.176   1.394
 3858SOL     OW13173   3.472   3.460   1.640
 3858SOL    HW113174   3.460   3.514   1.557
 3858SOL    HW213175   3.557   3.408   1.635
 3859SOL     OW13176   3.009   3.142   1.102
 3859SOL    HW113177   2.943   3.150   1.176
 3859SOL    HW213178   2.964   3.160   1.015
 3860SOL     OW13179   3.456   2.947   1.077
 3860SOL    HW113180   3.452   3.019   1.146
 3860SOL    HW213181   3.384   2.962   1.009
 3861SOL     OW13182   2.793   1.903   1.366
 3861SOL    HW113183   2.808   1.886   1.269
 3861SOL    HW213184   2.872   1.951   1.404
 3862SOL     OW13185   2.846   2.958   1.721
 3862SOL    HW113186   2.750   2.984   1.735
 3862SOL    HW213187   2.850   2.875   1.665
 3863SOL     OW13188   2.587   2.906   0.379
 3863SOL    HW113189   2.574   2.873   0.473
 3863SOL    HW213190   2.655   2.849   0.333
 3864SOL     OW13191   2.311   2.656   1.279
 3864SOL    HW113192   2.376   2.662   1.354
 3864SOL    HW213193   2.276   2.562   1.272
 3865SOL     OW13194   3.118   2.213   1.274
 3865SOL    HW113195   3.140   2.297   1.323
 3865SOL    HW213196   3.025   2.220   1.237
 3866SOL     OW13197   1.906   3.402   1.331
 3866SOL    HW113198   1.855   3.468   1.276
 3866SOL    HW213199   2.004   3.417   1.319
 3867SOL     OW13200   2.251   2.994   0.415
 3867SOL    HW113201   2.231   3.085   0.378
 3867SOL    HW213202   2.215   2.924   0.354
 3868SOL     OW13203   2.373   2.407   0.866
 3868SOL    HW113204   2.394   2.459   0.783
 3868SOL    HW213205   2.450   2.414   0.929
 3869SOL     OW13206   3.125   3.252   0.485
 3869SOL    HW113207   3.170   3.339   0.502
 3869SOL    HW213208   3.026   3.265   0.491
 3870SOL     OW13209   3.180   3.356   1.093
 3870SOL    HW113210   3.234   3.363   1.176
 3870SOL    HW213211   3.115   3.280   1.101
 3871SOL     OW13212   3.454   2.496   0.500
 3871SOL    HW113213   3.389   2.547   0.556
 3871SOL    HW213214   3.520   2.559   0.458
 3872SOL     OW13215   2.178   3.414   1.275
 3872SOL    HW113216   2.171   3.353   1.196
 3872SOL    HW213217   2.275   3.436   1.290
 3873SOL     OW13218   2.347   2.550   1.693
 3873SOL    HW113219   2.385   2.597   1.613
 3873SOL    HW213220   2.409   2.477   1.721
 3874SOL     OW13221   3.482   2.649   1.676
 3874SOL    HW113222   3.387   2.680   1.680
 3874SOL    HW213223   3.526   2.688   1.595
 3875SOL     OW13224   2.877   1.972   1.750
 3875SOL    HW113225   2.925   2.056   1.725
 3875SOL    HW213226   2.940   1.894   1.741
 3876SOL     OW13227   2.349   1.909   1.748
 3876SOL    HW113228   2.291   1.856   1.685
 3876SOL    HW213229   2.303   1.995   1.771
 3877SOL     OW13230   2.448   2.723   1.048
 3877SOL    HW113231   2.486   2.815   1.049
 3877SOL    HW213232   2.398   2.706   1.133
 3878SOL     OW13233   3.146   2.732   0.973
 3878SOL    HW113234   3.052   2.700   0.962
 3878SOL    HW213235   3.209   2.656   0.961
 3879SOL     OW13236   3.042   2.399   0.276
 3879SOL    HW113237   3.068   2.318   0.330
 3879SOL    HW213238   2.993   2.463   0.335
 3880SOL     OW13239   2.160   2.049   1.225
 3880SOL    HW113240   2.140   2.081   1.317
 3880SOL    HW213241   2.130   1.954   1.215
 3881SOL     OW13242   1.914   3.133   1.266
 3881SOL    HW113243   1.910   3.077   1.349
 3881SOL    HW213244   1.899   3.229   1.290
 3882SOL     OW13245   2.574   2.472   1.047
 3882SOL    HW113246   2.649   2.452   0.984
 3882SOL    HW213247   2.539   2.564   1.029
 3883SOL     OW13248   3.650   2.812   1.830
 3883SOL    HW113249   3.607   2.743   1.772
 3883SOL    HW213250   3.587   2.838   1.902
 3884SOL     OW13251   2.201   1.932   0.635
 3884SOL    HW113252   2.155   2.018   0.657
 3884SOL    HW213253   2.208   1.876   0.717
 3885SOL     OW13254   3.520   2.306   0.314
 3885SOL    HW113255   3.560   2.231   0.366
 3885SOL    HW213256   3.485   2.375   0.376
 3886SOL     OW13257   2.882   2.622   0.952
 3886SOL    HW113258   2.853   2.643   1.045
 3886SOL    HW213259   2.855   2.528   0.929
 3887SOL     OW13260   2.846   3.421   1.676
 3887SOL    HW113261   2.844   3.484   1.598
 3887SOL    HW213262   2.852   3.327   1.642
 3888SOL     OW13263   3.709   3.332   1.575
 3888SOL    HW113264   3.723   3.363   1.481
 3888SOL    HW213265   3.790   3.353   1.630
 3889SOL     OW13266   2.229   2.777   1.823
 3889SOL    HW113267   2.306   2.827   1.863
 3889SOL    HW213268   2.263   2.696   1.775
 3890SOL     OW13269   3.372   2.177   0.123
 3890SOL    HW113270   3.326   2.094   0.156
 3890SOL    HW213271   3.426   2.217   0.197
 3891SOL     OW13272   3.118   2.641   0.037
 3891SOL    HW113273   3.161   2.551   0.034
 3891SOL    HW213274   3.156   2.698   6.964
 3892SOL     OW13275   2.909   3.222   0.856
 3892SOL    HW113276   2.927   3.141   0.799
 3892SOL    HW213277   2.970   3.296   0.828
 3893SOL     OW13278   2.191   2.683   0.926
 3893SOL    HW113279   2.288   2.696   0.946
 3893SOL    HW213280   2.164   2.591   0.956
 3894SOL     OW13281   2.143   2.408   1.000
 3894SOL    HW113282   2.100   2.319   0.992
 3894SOL    HW213283   2.227   2.410   0.945
 3895SOL     OW13284   2.980   2.210   1.665
 3895SOL    HW113285   2.933   2.258   1.740
 3895SOL    HW213286   3.069   2.252   1.650
 3896SOL     OW13287   3.014   2.032   1.458
 3896SOL    HW113288   2.993   2.096   1.532
 3896SOL    HW213289   3.063   2.080   1.386
 3897SOL     OW13290   1.959   3.616   0.955
 3897SOL    HW113291   1.918   3.537   0.910
 3897SOL    HW213292   2.050   3.631   0.918
 3898SOL     OW13293   2.337   3.398   0.892
 3898SOL    HW113294   2.413   3.451   0.928
 3898SOL    HW213295   2.371   3.332   0.824
 3899SOL     OW13296   2.761   2.650   1.194
 3899SOL    HW113297   2.818   2.618   1.270
 3899SOL    HW213298   2.684   2.588   1.181
 3900SOL     OW13299   1.913   2.470   1.156
 3900SOL    HW113300   1.991   2.461   1.093
 3900SOL    HW213301   1.939   2.435   1.246
 3901SOL     OW13302   2.084   2.475   1.750
 3901SOL    HW113303   2.182   2.488   1.737
 3901SOL    HW213304   2.034   2.529   1.682
 3902SOL     OW13305   3.238   2.774   1.632
 3902SOL    HW113306   3.276   2.867   1.630
 3902SOL    HW213307   3.219   2.743   1.539
 3903SOL     OW13308   2.659   2.444   0.374
 3903SOL    HW113309   2.683   2.365   0.318
 3903SOL    HW213310   2.578   2.488   0.336
 3904SOL     OW13311   3.495   2.468   1.129
 3904SOL    HW113312   3.471   2.393   1.190
 3904SOL    HW213313   3.594   2.471   1.118
 3905SOL     OW13314   2.073   3.422   1.720
 3905SOL    HW113315   2.053   3.491   1.790
 3905SOL    HW213316   2.096   3.335   1.764
 3906SOL     OW13317   2.597   2.257   1.223
 3906SOL    HW113318   2.534   2.180   1.213
 3906SOL    HW213319   2.573   2.329   1.159
 3907SOL     OW13320   2.821   3.518   1.391
 3907SOL    HW113321   2.768   3.476   1.317
 3907SOL    HW213322   2.810   3.617   1.388
 3908SOL     OW13323   2.275   2.343   0.162
 3908SOL    HW113324   2.337   2.417   0.188
 3908SOL    HW213325   2.193   2.347   0.220
 3909SOL     OW13326   1.947   2.969   1.490
 3909SOL    HW113327   1.976   2.965   1.586
 3909SOL    HW213328   2.003   2.906   1.436
 3910SOL     OW13329   3.130   2.908   1.189
 3910SOL    HW113330   3.141   2.844   1.113
 3910SOL    HW213331   3.089   2.993   1.156
 3911SOL     OW13332   3.102   2.731   0.297
 3911SOL    HW113333   3.041   2.678   0.355
 3911SOL    HW213334   3.110   2.686   0.208
 3912SOL     OW13335   3.613   3.560   1.143
 3912SOL    HW113336   3.684   3.593   1.081
 3912SOL    HW213337   3.583   3.469   1.114
 3913SOL     OW13338   3.136   3.636   1.110
 3913SOL    HW113339   3.228   3.674   1.100
 3913SOL    HW213340   3.142   3.536   1.119
 3914SOL     OW13341   1.973   3.070   1.009
 3914SOL    HW113342   1.948   3.092   1.103
 3914SOL    HW213343   1.903   3.011   0.968
 3915SOL     OW13344   2.578   3.525   1.774
 3915SOL    HW113345   2.524   3.609   1.765
 3915SOL    HW213346   2.674   3.545   1.754
 3916SOL     OW13347   2.830   1.989   0.132
 3916SOL    HW113348   2.901   2.017   0.067
 3916SOL    HW213349   2.864   1.914   0.188
 3917SOL     OW13350   3.617   2.093   0.452
 3917SOL    HW113351   3.671   2.049   0.380
 3917SOL    HW213352   3.549   2.029   0.487
 3918SOL     OW13353   3.268   3.483   0.514
 3918SOL    HW113354   3.310   3.523   0.433
 3918SOL    HW213355   3.220   3.554   0.565
 3919SOL     OW13356   1.996   3.623   1.895
 3919SOL    HW113357   1.932   3.571   1.952
 3919SOL    HW213358   2.053   3.681   1.953
 3920SOL     OW13359   3.130   2.807   0.641
 3920SOL    HW113360   3.204   2.743   0.659
 3920SOL    HW213361   3.167   2.893   0.606
 3921SOL     OW13362   2.591   3.115   1.403
 3921SOL    HW113363   2.585   3.181   1.478
 3921SOL    HW213364   2.515   3.131   1.339
 3922SOL     OW13365   2.613   3.491   0.157
 3922SOL    HW113366   2.595   3.557   0.085
 3922SOL    HW213367   2.534   3.431   0.167
 3923SOL     OW13368   3.480   3.594   1.393
 3923SOL    HW113369   3.530   3.592   1.306
 3923SOL    HW213370   3.498   3.680   1.440
 3924SOL     OW13371   3.705   1.997   0.980
 3924SOL    HW113372   3.734   1.906   0.949
 3924SOL    HW213373   3.622   2.023   0.931
 3925SOL     OW13374   2.086   2.170   0.705
 3925SOL    HW113375   2.004   2.218   0.676
 3925SOL    HW213376   2.092   2.170   0.805
 3926SOL     OW13377   3.082   3.469   0.043
 3926SOL    HW113378   3.073   3.372   0.063
 3926SOL    HW213379   3.010   3.497   6.979
 3927SOL     OW13380   2.653   2.850   1.391
 3927SOL    HW113381   2.688   2.830   1.300
 3927SOL    HW213382   2.629   2.947   1.398
 3928SOL     OW13383   2.765   2.751   0.252
 3928SOL    HW113384   2.819   2.780   0.174
 3928SOL    HW213385   2.821   2.695   0.313
 3929SOL     OW13386   3.353   3.517   0.056
 3929SOL    HW113387   3.255   3.501   0.053
 3929SOL    HW213388   3.382   3.568   6.975
 3930SOL     OW13389   2.182   3.189   1.460
 3930SOL    HW113390   2.183   3.271   1.403
 3930SOL    HW213391   2.107   3.129   1.431
 3931SOL     OW13392   3.460   3.148   1.273
 3931SOL    HW113393   3.518   3.123   1.350
 3931SOL    HW213394   3.399   3.222   1.301
 3932SOL     OW13395   2.930   2.980   0.736
 3932SOL    HW113396   2.852   2.931   0.774
 3932SOL    HW213397   2.995   2.915   0.698
 3933SOL     OW13398   2.908   2.097   0.934
 3933SOL    HW113399   2.907   2.061   0.841
 3933SOL    HW213400   2.907   2.021   0.999
 3934SOL     OW13401   2.510   3.363   0.491
 3934SOL    HW113402   2.545   3.300   0.420
 3934SOL    HW213403   2.445   3.426   0.450
 3935SOL     OW13404   3.653   2.183   1.442
 3935SOL    HW113405   3.711   2.264   1.434
 3935SOL    HW213406   3.677   2.118   1.371
 3936SOL     OW13407   2.183   3.243   0.316
 3936SOL    HW113408   2.100   3.265   0.264
 3936SOL    HW213409   2.168   3.265   0.413
 3937SOL     OW13410   2.008   2.937   1.755
 3937SOL    HW113411   1.924   2.908   1.802
 3937SOL    HW213412   2.082   2.874   1.778
 3938SOL     OW13413   2.571   2.033   1.488
 3938SOL    HW113414   2.652   1.998   1.442
 3938SOL    HW213415   2.596   2.063   1.580
 3939SOL     OW13416   1.941   2.199   0.029
 3939SOL    HW113417   1.878   2.151   6.968
 3939SOL    HW213418   1.900   2.287   0.055
 3940SOL     OW13419   3.227   2.709   1.365
 3940SOL    HW113420   3.169   2.772   1.314
 3940SOL    HW213421   3.319   2.709   1.326
 3941SOL     OW13422   1.939   1.997   0.219
 3941SOL    HW113423   1.946   2.080   0.165
 3941SOL    HW213424   1.982   1.921   0.170
 3942SOL     OW13425   3.050   3.200   0.106
 3942SOL    HW113426   2.951   3.216   0.108
 3942SOL    HW213427   3.085   3.194   0.199
 3943SOL     OW13428   2.495   2.644   1.476
 3943SOL    HW113429   2.549   2.726   1.457
 3943SOL    HW213430   2.552   2.563   1.467
 3944SOL     OW13431   3.392   3.729   1.074
 3944SOL    HW113432   3.421   3.784   0.996
 3944SOL    HW213433   3.468   3.671   1.105
 3945SOL     OW13434   2.572   2.375   1.716
 3945SOL    HW113435   2.637   2.439   1.758
 3945SOL    HW213436   2.600   2.281   1.735
 3946SOL     OW13437   3.363   3.021   1.601
 3946SOL    HW113438   3.352   3.051   1.695
 3946SOL    HW213439   3.453   3.046   1.568
 3947SOL     OW13440   2.222   3.619   1.585
 3947SOL    HW113441   2.146   3.684   1.593
 3947SOL    HW213442   2.193   3.529   1.616
 3948SOL     OW13443   3.469   2.724   1.238
 3948SOL    HW113444   3.483   2.637   1.189
 3948SOL    HW213445   3.468   2.799   1.172
 3949SOL     OW13446   3.113   2.193   0.448
 3949SOL    HW113447   3.193   2.133   0.439
 3949SOL    HW213448   3.124   2.250   0.530
 3950SOL     OW13449   2.432   2.569   0.654
 3950SOL    HW113450   2.480   2.655   0.645
 3950SOL    HW213451   2.365   2.560   0.580
 3951SOL     OW13452   3.598   2.215   1.724
 3951SOL    HW113453   3.600   2.198   1.625
 3951SOL    HW213454   3.537   2.149   1.768
 3952SOL     OW13455   3.590   2.790   1.472
 3952SOL    HW113456   3.579   2.889   1.487
 3952SOL    HW213457   3.549   2.766   1.384
 3953SOL     OW13458   2.788   3.266   0.129
 3953SOL    HW113459   2.738   3.221   0.202
 3953SOL    HW213460   2.748   3.356   0.111
 3954SOL     OW13461   2.542   3.565   0.955
 3954SOL    HW113462   2.508   3.658   0.947
 3954SOL    HW213463   2.642   3.566   0.954
 3955SOL     OW13464   2.725   2.841   0.865
 3955SOL    HW113465   2.776   2.762   0.897
 3955SOL    HW213466   2.672   2.880   0.940
 3956SOL     OW13467   2.915   2.824   0.035
 3956SOL    HW113468   2.954   2.917   0.038
 3956SOL    HW213469   2.989   2.757   0.032
 3957SOL     OW13470   3.670   3.437   0.845
 3957SOL    HW113471   3.604   3.423   0.772
 3957SOL    HW213472   3.651   3.374   0.920
 3958SOL     OW13473   2.116   3.179   1.841
 3958SOL    HW113474   2.071   3.097   1.806
 3958SOL    HW213475   2.117   3.176   1.941
 3959SOL     OW13476   1.974   3.055   0.641
 3959SOL    HW113477   2.035   3.013   0.709
 3959SOL    HW213478   1.969   2.996   0.560
 3960SOL     OW13479   2.553   3.303   1.599
 3960SOL    HW113480   2.470   3.258   1.631
 3960SOL    HW213481   2.569   3.386   1.653
 3961SOL     OW13482   3.714   1.994   1.258
 3961SOL    HW113483   3.779   1.920   1.273
 3961SOL    HW213484   3.701   2.006   1.159
 3962SOL     OW13485   2.229   2.251   0.471
 3962SOL    HW113486   2.284   2.180   0.428
 3962SOL    HW213487   2.188   2.216   0.555
 3963SOL     OW13488   3.553   3.306   1.060
 3963SOL    HW113489   3.480   3.281   0.995
 3963SOL    HW213490   3.550   3.243   1.138
 3964SOL     OW13491   2.230   2.395   1.277
 3964SOL    HW113492   2.288   2.329   1.324
 3964SOL    HW213493   2.224   2.371   1.180
 3965SOL     OW13494   2.684   3.428   0.693
 3965SOL    HW113495   2.630   3.433   0.609
 3965SOL    HW213496   2.635   3.375   0.762
 3966SOL     OW13497   3.304   2.119   1.099
 3966SOL    HW113498   3.330   2.024   1.114
 3966SOL    HW213499   3.243   2.150   1.172
 3967SOL     OW13500   2.896   1.870   1.094
 3967SOL    HW113501   2.855   1.805   1.030
 3967SOL    HW213502   2.989   1.840   1.116
 3968SOL     OW13503   2.657   3.171   0.349
 3968SOL    HW113504   2.628   3.076   0.362
 3968SOL    HW213505   2.731   3.192   0.412
 3969SOL     OW13506   2.452   3.448   1.279
 3969SOL    HW113507   2.450   3.537   1.325
 3969SOL    HW213508   2.543   3.432   1.241
 3970SOL     OW13509   3.229   1.945   0.188
 3970SOL    HW113510   3.284   1.868   0.156
 3970SOL    HW213511   3.144   1.912   0.229
 3971SOL     OW13512   3.123   2.350   0.667
 3971SOL    HW113513   3.072   2.436   0.669
 3971SOL    HW213514   3.137   2.317   0.761
 3972SOL     OW13515   3.466   2.079   0.875
 3972SOL    HW113516   3.408   2.106   0.952
 3972SOL    HW213517   3.470   2.154   0.808
 3973SOL     OW13518   1.946   2.882   0.428
 3973SOL    HW113519   2.017   2.873   0.358
 3973SOL    HW213520   1.878   2.809   0.415
 3974SOL     OW13521   2.794   3.555   0.358
 3974SOL    HW113522   2.725   3.532   0.289
 3974SOL    HW213523   2.759   3.628   0.416
 3975SOL     OW13524   2.055   2.484   2.025
 3975SOL    HW113525   1.963   2.463   2.059
 3975SOL    HW213526   2.054   2.483   1.925
 3976SOL     OW13527   2.039   2.196   2.899
 3976SOL    HW113528   2.094   2.163   2.976
 3976SOL    HW213529   1.972   2.126   2.873
 3977SOL     OW13530   1.805   2.253   2.498
 3977SOL    HW113531   1.719   2.275   2.544
 3977SOL    HW213532   1.787   2.190   2.423
 3978SOL     OW13533   2.400   3.169   3.054
 3978SOL    HW113534   2.314   3.161   3.002
 3978SOL    HW213535   2.412   3.264   3.084
 3979SOL     OW13536   2.991   2.513   2.484
 3979SOL    HW113537   3.040   2.586   2.438
 3979SOL    HW213538   2.940   2.551   2.562
 3980SOL     OW13539   3.674   2.432   2.078
 3980SOL    HW113540   3.619   2.460   1.999
 3980SOL    HW213541   3.633   2.350   2.119
 3981SOL     OW13542   2.660   3.105   2.956
 3981SOL    HW113543   2.569   3.087   2.993
 3981SOL    HW213544   2.662   3.197   2.916
 3982SOL     OW13545   2.653   2.810   3.660
 3982SOL    HW113546   2.733   2.824   3.718
 3982SOL    HW213547   2.683   2.794   3.565
 3983SOL     OW13548   2.485   3.113   3.793
 3983SOL    HW113549   2.581   3.139   3.792
 3983SOL    HW213550   2.449   3.113   3.699
 3984SOL     OW13551   2.155   3.231   2.914
 3984SOL    HW113552   2.064   3.198   2.889
 3984SOL    HW213553   2.196   3.278   2.836
 3985SOL     OW13554   3.261   3.432   3.233
 3985SOL    HW113555   3.314   3.515   3.246
 3985SOL    HW213556   3.193   3.425   3.306
 3986SOL     OW13557   2.396   2.125   3.357
 3986SOL    HW113558   2.457   2.050   3.380
 3986SOL    HW213559   2.301   2.095   3.367
 3987SOL     OW13560   3.420   2.323   2.561
 3987SOL    HW113561   3.328   2.302   2.527
 3987SOL    HW213562   3.419   2.322   2.661
 3988SOL     OW13563   2.998   3.227   3.578
 3988SOL    HW113564   3.025   3.207   3.672
 3988SOL    HW213565   2.930   3.160   3.548
 3989SOL     OW13566   2.379   3.652   3.297
 3989SOL    HW113567   2.291   3.631   3.340
 3989SOL    HW213568   2.424   3.725   3.349
 3990SOL     OW13569   2.439   2.898   1.949
 3990SOL    HW113570   2.498   2.935   1.877
 3990SOL    HW213571   2.485   2.905   2.038
 3991SOL     OW13572   3.380   1.972   3.312
 3991SOL    HW113573   3.451   2.039   3.292
 3991SOL    HW213574   3.358   1.973   3.409
 3992SOL     OW13575   1.980   2.466   2.518
 3992SOL    HW113576   1.916   2.390   2.510
 3992SOL    HW213577   2.053   2.443   2.582
 3993SOL     OW13578   3.650   3.670   2.123
 3993SOL    HW113579   3.680   3.658   2.218
 3993SOL    HW213580   3.687   3.755   2.087
 3994SOL     OW13581   1.851   3.437   2.055
 3994SOL    HW113582   1.786   3.380   2.005
 3994SOL    HW213583   1.926   3.381   2.089
 3995SOL     OW13584   3.511   2.728   2.345
 3995SOL    HW113585   3.598   2.683   2.324
 3995SOL    HW213586   3.510   2.819   2.304
 3996SOL     OW13587   3.547   2.971   2.216
 3996SOL    HW113588   3.640   2.936   2.201
 3996SOL    HW213589   3.552   3.060   2.260
 3997SOL     OW13590   1.821   2.687   3.520
 3997SOL    HW113591   1.916   2.714   3.531
 3997SOL    HW213592   1.777   2.743   3.450
 3998SOL     OW13593   3.126   3.164   3.293
 3998SOL    HW113594   3.143   3.091   3.228
 3998SOL    HW213595   3.191   3.158   3.369
 3999SOL     OW13596   2.690   1.878   2.343
 3999SOL    HW113597   2.741   1.959   2.313
 3999SOL    HW213598   2.593   1.900   2.353
 4000SOL     OW13599   2.197   2.871   3.344
 4000SOL    HW113600   2.229   2.965   3.329
 4000SOL    HW213601   2.248   2.809   3.284
 4001SOL     OW13602   3.423   2.855   2.006
 4001SOL    HW113603   3.368   2.776   2.032
 4001SOL    HW213604   3.468   2.893   2.087
 4002SOL     OW13605   3.162   3.695   3.495
 4002SOL    HW113606   3.133   3.753   3.419
 4002SOL    HW213607   3.138   3.600   3.475
 4003SOL     OW13608   2.185   2.098   3.697
 4003SOL    HW113609   2.238   2.183   3.691
 4003SOL    HW213610   2.088   2.119   3.687
 4004SOL     OW13611   3.275   3.154   2.900
 4004SOL    HW113612   3.215   3.224   2.939
 4004SOL    HW213613   3.244   3.130   2.808
 4005SOL     OW13614   2.426   2.571   2.121
 4005SOL    HW113615   2.434   2.663   2.081
 4005SOL    HW213616   2.356   2.572   2.193
 4006SOL     OW13617   3.113   2.175   2.776
 4006SOL    HW113618   3.022   2.135   2.770
 4006SOL    HW213619   3.164   2.131   2.850
 4007SOL     OW13620   3.381   3.632   2.097
 4007SOL    HW113621   3.479   3.647   2.105
 4007SOL    HW213622   3.363   3.570   2.021
 4008SOL     OW13623   2.806   2.823   3.422
 4008SOL    HW113624   2.890   2.769   3.427
 4008SOL    HW213625   2.787   2.845   3.327
 4009SOL     OW13626   2.825   2.173   3.037
 4009SOL    HW113627   2.738   2.163   3.086
 4009SOL    HW213628   2.807   2.194   2.941
 4010SOL     OW13629   2.865   2.502   2.239
 4010SOL    HW113630   2.904   2.495   2.331
 4010SOL    HW213631   2.774   2.462   2.239
 4011SOL     OW13632   1.900   3.723   3.445
 4011SOL    HW113633   1.920   3.711   3.542
 4011SOL    HW213634   1.801   3.728   3.431
 4012SOL     OW13635   2.695   2.196   2.048
 4012SOL    HW113636   2.753   2.238   1.978
 4012SOL    HW213637   2.642   2.122   2.006
 4013SOL     OW13638   3.180   2.947   2.230
 4013SOL    HW113639   3.260   2.972   2.175
 4013SOL    HW213640   3.101   3.001   2.200
 4014SOL     OW13641   2.404   1.982   2.779
 4014SOL    HW113642   2.405   1.985   2.879
 4014SOL    HW213643   2.410   2.075   2.743
 4015SOL     OW13644   2.173   3.625   2.820
 4015SOL    HW113645   2.237   3.548   2.815
 4015SOL    HW213646   2.218   3.708   2.788
 4016SOL     OW13647   3.063   3.447   3.424
 4016SOL    HW113648   3.063   3.363   3.479
 4016SOL    HW213649   2.972   3.461   3.385
 4017SOL     OW13650   2.108   2.753   2.067
 4017SOL    HW113651   2.147   2.772   1.978
 4017SOL    HW213652   2.090   2.655   2.075
 4018SOL     OW13653   3.337   2.563   2.455
 4018SOL    HW113654   3.379   2.489   2.508
 4018SOL    HW213655   3.407   2.626   2.423
 4019SOL     OW13656   2.322   3.127   3.563
 4019SOL    HW113657   2.285   3.138   3.471
 4019SOL    HW213658   2.247   3.113   3.628
 4020SOL     OW13659   3.005   3.645   1.977
 4020SOL    HW113660   2.909   3.644   2.003
 4020SOL    HW213661   3.032   3.555   1.942
 4021SOL     OW13662   2.123   2.072   3.381
 4021SOL    HW113663   2.099   2.158   3.426
 4021SOL    HW213664   2.058   2.001   3.408
 4022SOL     OW13665   3.512   3.266   1.959
 4022SOL    HW113666   3.456   3.347   1.945
 4022SOL    HW213667   3.463   3.186   1.924
 4023SOL     OW13668   2.376   3.624   2.080
 4023SOL    HW113669   2.439   3.697   2.054
 4023SOL    HW213670   2.423   3.536   2.072
 4024SOL     OW13671   3.265   1.942   2.292
 4024SOL    HW113672   3.270   1.918   2.196
 4024SOL    HW213673   3.347   1.911   2.340
 4025SOL     OW13674   2.061   3.594   3.066
 4025SOL    HW113675   2.102   3.512   3.106
 4025SOL    HW213676   2.091   3.603   2.971
 4026SOL     OW13677   2.797   3.573   2.794
 4026SOL    HW113678   2.888   3.575   2.837
 4026SOL    HW213679   2.807   3.579   2.695
 4027SOL     OW13680   2.238   2.529   2.320
 4027SOL    HW113681   2.215   2.433   2.305
 4027SOL    HW213682   2.163   2.575   2.369
 4028SOL     OW13683   3.373   1.950   3.593
 4028SOL    HW113684   3.377   1.986   3.687
 4028SOL    HW213685   3.391   1.852   3.595
 4029SOL     OW13686   2.519   1.968   1.960
 4029SOL    HW113687   2.565   1.888   1.997
 4029SOL    HW213688   2.450   1.940   1.893
 4030SOL     OW13689   2.670   2.005   3.641
 4030SOL    HW113690   2.756   1.954   3.642
 4030SOL    HW213691   2.615   1.978   3.720
 4031SOL     OW13692   2.720   3.412   3.156
 4031SOL    HW113693   2.701   3.383   3.062
 4031SOL    HW213694   2.771   3.341   3.204
 4032SOL     OW13695   2.644   3.368   2.895
 4032SOL    HW113696   2.698   3.441   2.852
 4032SOL    HW213697   2.547   3.383   2.876
 4033SOL     OW13698   2.707   2.233   2.720
 4033SOL    HW113699   2.710   2.257   2.623
 4033SOL    HW213700   2.768   2.156   2.738
 4034SOL     OW13701   2.423   1.942   2.344
 4034SOL    HW113702   2.349   1.935   2.410
 4034SOL    HW213703   2.410   2.023   2.287
 4035SOL     OW13704   3.333   3.072   1.867
 4035SOL    HW113705   3.358   2.986   1.912
 4035SOL    HW213706   3.235   3.087   1.876
 4036SOL     OW13707   2.140   1.923   2.015
 4036SOL    HW113708   2.183   1.999   1.967
 4036SOL    HW213709   2.210   1.870   2.063
 4037SOL     OW13710   2.833   2.096   2.265
 4037SOL    HW113711   2.792   2.134   2.182
 4037SOL    HW213712   2.931   2.114   2.265
 4038SOL     OW13713   2.869   2.336   1.881
 4038SOL    HW113714   2.835   2.426   1.855
 4038SOL    HW213715   2.939   2.346   1.952
 4039SOL     OW13716   2.389   1.962   3.051
 4039SOL    HW113717   2.400   1.889   3.118
 4039SOL    HW213718   2.301   2.008   3.066
 4040SOL     OW13719   2.718   2.270   2.447
 4040SOL    HW113720   2.664   2.319   2.379
 4040SOL    HW213721   2.770   2.197   2.403
 4041SOL     OW13722   2.866   1.861   2.554
 4041SOL    HW113723   2.802   1.869   2.478
 4041SOL    HW213724   2.834   1.790   2.617
 4042SOL     OW13725   3.365   2.283   2.823
 4042SOL    HW113726   3.268   2.274   2.799
 4042SOL    HW213727   3.378   2.259   2.919
 4043SOL     OW13728   3.747   2.613   2.280
 4043SOL    HW113729   3.793   2.567   2.357
 4043SOL    HW213730   3.726   2.545   2.210
 4044SOL     OW13731   2.378   3.182   2.040
 4044SOL    HW113732   2.283   3.189   2.071
 4044SOL    HW213733   2.398   3.087   2.014
 4045SOL     OW13734   3.235   2.411   1.884
 4045SOL    HW113735   3.184   2.386   1.966
 4045SOL    HW213736   3.332   2.420   1.905
 4046SOL     OW13737   2.378   2.127   2.145
 4046SOL    HW113738   2.429   2.069   2.081
 4046SOL    HW213739   2.354   2.213   2.099
 4047SOL     OW13740   3.585   3.134   3.439
 4047SOL    HW113741   3.667   3.077   3.439
 4047SOL    HW213742   3.608   3.226   3.472
 4048SOL     OW13743   2.868   3.234   3.297
 4048SOL    HW113744   2.819   3.178   3.363
 4048SOL    HW213745   2.966   3.218   3.305
 4049SOL     OW13746   3.453   3.533   3.522
 4049SOL    HW113747   3.435   3.578   3.434
 4049SOL    HW213748   3.534   3.475   3.513
 4050SOL     OW13749   2.915   3.143   3.042
 4050SOL    HW113750   2.895   3.158   3.138
 4050SOL    HW213751   2.832   3.118   2.993
 4051SOL     OW13752   3.541   3.036   3.038
 4051SOL    HW113753   3.522   3.110   3.102
 4051SOL    HW213754   3.470   3.032   2.969
 4052SOL     OW13755   2.812   1.847   3.239
 4052SOL    HW113756   2.826   1.845   3.140
 4052SOL    HW213757   2.892   1.889   3.283
 4053SOL     OW13758   2.787   3.076   3.515
 4053SOL    HW113759   2.695   3.116   3.525
 4053SOL    HW213760   2.779   2.982   3.481
 4054SOL     OW13761   2.552   2.935   2.193
 4054SOL    HW113762   2.468   2.906   2.239
 4054SOL    HW213763   2.623   2.865   2.205
 4055SOL     OW13764   3.063   2.148   3.159
 4055SOL    HW113765   3.082   2.239   3.196
 4055SOL    HW213766   2.975   2.148   3.111
 4056SOL     OW13767   1.898   3.408   3.237
 4056SOL    HW113768   1.862   3.487   3.188
 4056SOL    HW213769   1.997   3.404   3.226
 4057SOL     OW13770   2.281   2.860   2.257
 4057SOL    HW113771   2.229   2.862   2.342
 4057SOL    HW213772   2.224   2.824   2.184
 4058SOL     OW13773   2.433   2.267   2.694
 4058SOL    HW113774   2.432   2.334   2.620
 4058SOL    HW213775   2.527   2.255   2.726
 4059SOL     OW13776   2.976   3.130   2.150
 4059SOL    HW113777   3.003   3.210   2.204
 4059SOL    HW213778   2.877   3.124   2.147
 4060SOL     OW13779   3.113   3.335   3.016
 4060SOL    HW113780   3.160   3.360   3.101
 4060SOL    HW213781   3.040   3.270   3.037
 4061SOL     OW13782   3.347   2.432   2.208
 4061SOL    HW113783   3.337   2.460   2.304
 4061SOL    HW213784   3.320   2.508   2.149
 4062SOL     OW13785   2.171   3.362   3.152
 4062SOL    HW113786   2.158   3.310   3.068
 4062SOL    HW213787   2.267   3.387   3.162
 4063SOL     OW13788   3.441   2.813   3.544
 4063SOL    HW113789   3.344   2.789   3.549
 4063SOL    HW213790   3.465   2.830   3.448
 4064SOL     OW13791   2.915   1.894   3.639
 4064SOL    HW113792   2.983   1.966   3.630
 4064SOL    HW213793   2.953   1.808   3.604
 4065SOL     OW13794   2.327   1.880   3.612
 4065SOL    HW113795   2.271   1.818   3.557
 4065SOL    HW213796   2.276   1.964   3.630
 4066SOL     OW13797   3.048   2.361   2.088
 4066SOL    HW113798   3.080   2.288   2.149
 4066SOL    HW213799   2.991   2.424   2.139
 4067SOL     OW13800   2.136   2.046   3.109
 4067SOL    HW113801   2.133   2.070   3.206
 4067SOL    HW213802   2.106   1.951   3.098
 4068SOL     OW13803   1.878   3.152   3.133
 4068SOL    HW113804   1.898   3.092   3.210
 4068SOL    HW213805   1.870   3.247   3.165
 4069SOL     OW13806   3.584   2.856   3.766
 4069SOL    HW113807   3.540   2.834   3.679
 4069SOL    HW213808   3.515   2.881   3.834
 4070SOL     OW13809   2.188   1.915   2.490
 4070SOL    HW113810   2.140   2.003   2.502
 4070SOL    HW213811   2.193   1.869   2.579
 4071SOL     OW13812   3.498   2.219   2.137
 4071SOL    HW113813   3.519   2.161   2.215
 4071SOL    HW213814   3.436   2.292   2.165
 4072SOL     OW13815   2.816   3.431   3.631
 4072SOL    HW113816   2.778   3.483   3.555
 4072SOL    HW213817   2.861   3.349   3.596
 4073SOL     OW13818   3.680   3.388   3.467
 4073SOL    HW113819   3.688   3.429   3.376
 4073SOL    HW213820   3.772   3.380   3.507
 4074SOL     OW13821   2.067   2.800   3.578
 4074SOL    HW113822   2.113   2.805   3.666
 4074SOL    HW213823   2.133   2.816   3.504
 4075SOL     OW13824   3.415   2.073   1.918
 4075SOL    HW113825   3.358   2.001   1.960
 4075SOL    HW213826   3.445   2.137   1.989
 4076SOL     OW13827   3.114   2.657   1.847
 4076SOL    HW113828   3.147   2.563   1.847
 4076SOL    HW213829   3.151   2.706   1.768
 4077SOL     OW13830   2.160   2.335   2.697
 4077SOL    HW113831   2.117   2.297   2.779
 4077SOL    HW213832   2.259   2.324   2.704
 4078SOL     OW13833   3.121   2.070   3.590
 4078SOL    HW113834   3.127   2.153   3.646
 4078SOL    HW213835   3.209   2.023   3.590
 4079SOL     OW13836   3.040   1.956   3.350
 4079SOL    HW113837   3.060   2.003   3.436
 4079SOL    HW213838   3.058   2.018   3.273
 4080SOL     OW13839   1.849   3.127   2.054
 4080SOL    HW113840   1.775   3.166   1.998
 4080SOL    HW213841   1.838   3.027   2.057
 4081SOL     OW13842   1.897   3.646   2.813
 4081SOL    HW113843   1.857   3.560   2.782
 4081SOL    HW213844   1.996   3.643   2.802
 4082SOL     OW13845   2.378   3.438   2.801
 4082SOL    HW113846   2.430   3.521   2.820
 4082SOL    HW213847   2.392   3.411   2.706
 4083SOL     OW13848   1.830   2.329   3.019
 4083SOL    HW113849   1.898   2.295   2.954
 4083SOL    HW213850   1.875   2.356   3.104
 4084SOL     OW13851   3.144   2.847   3.569
 4084SOL    HW113852   3.184   2.924   3.619
 4084SOL    HW213853   3.164   2.856   3.471
 4085SOL     OW13854   2.613   2.397   2.225
 4085SOL    HW113855   2.629   2.322   2.160
 4085SOL    HW213856   2.548   2.462   2.185
 4086SOL     OW13857   2.060   3.371   3.595
 4086SOL    HW113858   2.013   3.411   3.674
 4086SOL    HW213859   2.092   3.279   3.618
 4087SOL     OW13860   2.577   2.143   3.143
 4087SOL    HW113861   2.522   2.077   3.092
 4087SOL    HW213862   2.528   2.171   3.226
 4088SOL     OW13863   2.729   3.557   3.399
 4088SOL    HW113864   2.718   3.505   3.314
 4088SOL    HW213865   2.752   3.652   3.378
 4089SOL     OW13866   2.299   2.352   2.008
 4089SOL    HW113867   2.364   2.425   2.029
 4089SOL    HW213868   2.206   2.383   2.026
 4090SOL     OW13869   1.952   3.018   3.368
 4090SOL    HW113870   1.922   3.012   3.463
 4090SOL    HW213871   2.011   2.940   3.347
 4091SOL     OW13872   3.141   2.988   3.081
 4091SOL    HW113873   3.205   3.028   3.015
 4091SOL    HW213874   3.049   3.020   3.060
 4092SOL     OW13875   3.244   2.663   2.090
 4092SOL    HW113876   3.188   2.676   2.171
 4092SOL    HW213877   3.187   2.664   2.008
 4093SOL     OW13878   3.527   3.581   3.023
 4093SOL    HW113879   3.601   3.609   2.962
 4093SOL    HW213880   3.497   3.489   2.998
 4094SOL     OW13881   3.047   3.575   2.908
 4094SOL    HW113882   3.129   3.631   2.898
 4094SOL    HW213883   3.071   3.484   2.939
 4095SOL     OW13884   1.877   3.164   2.859
 4095SOL    HW113885   1.874   3.160   2.959
 4095SOL    HW213886   1.810   3.102   2.821
 4096SOL     OW13887   2.505   3.505   3.554
 4096SOL    HW113888   2.432   3.572   3.560
 4096SOL    HW213889   2.579   3.540   3.496
 4097SOL     OW13890   3.607   2.042   2.323
 4097SOL    HW113891   3.664   2.017   2.245
 4097SOL    HW213892   3.569   1.959   2.364
 4098SOL     OW13893   1.968   3.679   3.701
 4098SOL    HW113894   1.928   3.591   3.726
 4098SOL    HW213895   2.026   3.712   3.775
 4099SOL     OW13896   3.131   2.703   2.347
 4099SOL    HW113897   3.212   2.664   2.390
 4099SOL    HW213898   3.149   2.798   2.320
 4100SOL     OW13899   2.565   3.098   3.265
 4100SOL    HW113900   2.556   3.156   3.346
 4100SOL    HW213901   2.492   3.118   3.201
 4101SOL     OW13902   2.539   3.401   2.020
 4101SOL    HW113903   2.547   3.433   1.925
 4101SOL    HW213904   2.477   3.323   2.023
 4102SOL     OW13905   3.424   3.650   3.268
 4102SOL    HW113906   3.464   3.637   3.177
 4102SOL    HW213907   3.415   3.748   3.286
 4103SOL     OW13908   3.727   2.032   2.837
 4103SOL    HW113909   3.762   1.941   2.812
 4103SOL    HW213910   3.639   2.047   2.792
 4104SOL     OW13911   2.062   2.154   2.520
 4104SOL    HW113912   1.965   2.176   2.516
 4104SOL    HW213913   2.107   2.214   2.586
 4105SOL     OW13914   3.068   3.398   1.847
 4105SOL    HW113915   3.070   3.299   1.860
 4105SOL    HW213916   2.997   3.421   1.780
 4106SOL     OW13917   2.749   2.922   3.179
 4106SOL    HW113918   2.745   2.921   3.079
 4106SOL    HW213919   2.680   2.985   3.215
 4107SOL     OW13920   2.759   2.755   2.176
 4107SOL    HW113921   2.805   2.780   2.091
 4107SOL    HW213922   2.799   2.671   2.213
 4108SOL     OW13923   3.335   3.474   1.873
 4108SOL    HW113924   3.241   3.441   1.861
 4108SOL    HW213925   3.384   3.469   1.786
 4109SOL     OW13926   2.190   3.153   3.329
 4109SOL    HW113927   2.187   3.232   3.269
 4109SOL    HW213928   2.097   3.120   3.346
 4110SOL     OW13929   3.459   3.239   3.214
 4110SOL    HW113930   3.497   3.207   3.300
 4110SOL    HW213931   3.379   3.296   3.232
 4111SOL     OW13932   2.881   2.029   2.771
 4111SOL    HW113933   2.881   1.973   2.688
 4111SOL    HW213934   2.880   1.969   2.851
 4112SOL     OW13935   3.603   2.136   3.280
 4112SOL    HW113936   3.616   2.228   3.245
 4112SOL    HW213937   3.641   2.069   3.216
 4113SOL     OW13938   2.108   3.166   2.118
 4113SOL    HW113939   2.011   3.150   2.100
 4113SOL    HW213940   2.130   3.136   2.211
 4114SOL     OW13941   1.867   2.972   3.625
 4114SOL    HW113942   1.783   2.936   3.666
 4114SOL    HW213943   1.934   2.898   3.617
 4115SOL     OW13944   2.585   1.927   3.394
 4115SOL    HW113945   2.663   1.916   3.332
 4115SOL    HW213946   2.617   1.965   3.481
 4116SOL     OW13947   1.975   2.227   1.799
 4116SOL    HW113948   1.881   2.224   1.764
 4116SOL    HW213949   2.014   2.318   1.783
 4117SOL     OW13950   3.224   2.864   3.310
 4117SOL    HW113951   3.180   2.888   3.223
 4117SOL    HW213952   3.323   2.876   3.302
 4118SOL     OW13953   1.893   2.014   2.083
 4118SOL    HW113954   1.867   2.081   2.013
 4118SOL    HW213955   1.987   1.985   2.068
 4119SOL     OW13956   3.060   3.117   1.890
 4119SOL    HW113957   2.989   3.077   1.832
 4119SOL    HW213958   3.029   3.116   1.985
 4120SOL     OW13959   3.292   3.698   2.910
 4120SOL    HW113960   3.307   3.791   2.944
 4120SOL    HW213961   3.368   3.640   2.938
 4121SOL     OW13962   3.312   3.136   3.488
 4121SOL    HW113963   3.278   3.109   3.578
 4121SOL    HW213964   3.412   3.131   3.487
 4122SOL     OW13965   2.138   3.570   3.422
 4122SOL    HW113966   2.053   3.621   3.407
 4122SOL    HW213967   2.119   3.488   3.476
 4123SOL     OW13968   3.101   2.164   2.281
 4123SOL    HW113969   3.160   2.083   2.277
 4123SOL    HW213970   3.117   2.213   2.367
 4124SOL     OW13971   2.442   2.455   2.495
 4124SOL    HW113972   2.528   2.464   2.445
 4124SOL    HW213973   2.366   2.487   2.438
 4125SOL     OW13974   3.621   2.054   3.539
 4125SOL    HW113975   3.621   2.093   3.447
 4125SOL    HW213976   3.530   2.020   3.561
 4126SOL     OW13977   3.494   2.911   3.289
 4126SOL    HW113978   3.524   2.990   3.342
 4126SOL    HW213979   3.525   2.921   3.194
 4127SOL     OW13980   2.755   3.218   1.862
 4127SOL    HW113981   2.745   3.213   1.962
 4127SOL    HW213982   2.774   3.313   1.836
 4128SOL     OW13983   2.524   3.655   2.851
 4128SOL    HW113984   2.492   3.716   2.923
 4128SOL    HW213985   2.624   3.658   2.846
 4129SOL     OW13986   2.887   2.786   1.935
 4129SOL    HW113987   2.872   2.860   1.869
 4129SOL    HW213988   2.972   2.738   1.912
 4130SOL     OW13989   3.721   3.344   2.854
 4130SOL    HW113990   3.627   3.332   2.887
 4130SOL    HW213991   3.775   3.263   2.878
 4131SOL     OW13992   2.089   3.119   3.702
 4131SOL    HW113993   2.004   3.073   3.677
 4131SOL    HW213994   2.093   3.131   3.801
 4132SOL     OW13995   2.556   3.238   3.501
 4132SOL    HW113996   2.469   3.195   3.524
 4132SOL    HW213997   2.550   3.336   3.520
 4133SOL     OW13998   3.694   1.964   3.100
 4133SOL    HW113999   3.696   1.864   3.095
 4133SOL    HW214000   3.714   2.002   3.010
 4134SOL     OW14001   2.186   2.265   2.298
 4134SOL    HW114002   2.249   2.202   2.254
 4134SOL    HW214003   2.139   2.219   2.374
 4135SOL     OW14004   3.473   3.327   2.962
 4135SOL    HW114005   3.405   3.271   2.916
 4135SOL    HW214006   3.478   3.301   3.058
 4136SOL     OW14007   3.261   2.073   2.985
 4136SOL    HW114008   3.304   1.983   2.992
 4136SOL    HW214009   3.195   2.085   3.060
 4137SOL     OW14010   2.898   1.815   2.960
 4137SOL    HW114011   2.841   1.748   2.913
 4137SOL    HW214012   2.994   1.788   2.952
 4138SOL     OW14013   2.699   3.166   2.131
 4138SOL    HW114014   2.649   3.083   2.157
 4138SOL    HW214015   2.636   3.244   2.133
 4139SOL     OW14016   2.440   3.420   3.171
 4139SOL    HW114017   2.415   3.505   3.219
 4139SOL    HW214018   2.540   3.411   3.170
 4140SOL     OW14019   3.261   1.869   2.025
 4140SOL    HW114020   3.306   1.791   1.982
 4140SOL    HW214021   3.166   1.847   2.045
 4141SOL     OW14022   3.147   2.288   2.523
 4141SOL    HW114023   3.091   2.369   2.510
 4141SOL    HW214024   3.125   2.246   2.611
 4142SOL     OW14025   3.473   2.041   2.729
 4142SOL    HW114026   3.430   2.123   2.767
 4142SOL    HW214027   3.461   2.040   2.630
 4143SOL     OW14028   1.866   2.856   2.173
 4143SOL    HW114029   1.953   2.840   2.127
 4143SOL    HW214030   1.842   2.776   2.229
 4144SOL     OW14031   2.735   3.612   2.049
 4144SOL    HW114032   2.678   3.530   2.055
 4144SOL    HW214033   2.678   3.692   2.029
 4145SOL     OW14034   2.068   2.115   4.720
 4145SOL    HW114035   2.108   2.088   4.807
 4145SOL    HW214036   1.974   2.082   4.715
 4146SOL     OW14037   1.707   2.280   4.274
 4146SOL    HW114038   1.639   2.299   4.345
 4146SOL    HW214039   1.709   2.182   4.255
 4147SOL     OW14040   2.495   3.205   4.966
 4147SOL    HW114041   2.400   3.175   4.952
 4147SOL    HW214042   2.497   3.303   4.981
 4148SOL     OW14043   3.089   2.527   4.518
 4148SOL    HW114044   3.185   2.551   4.529
 4148SOL    HW214045   3.032   2.598   4.559
 4149SOL     OW14046   2.695   3.073   4.826
 4149SOL    HW114047   2.625   3.113   4.885
 4149SOL    HW214048   2.686   3.110   4.733
 4150SOL     OW14049   2.743   2.576   5.583
 4150SOL    HW114050   2.743   2.632   5.666
 4150SOL    HW214051   2.758   2.634   5.503
 4151SOL     OW14052   2.544   3.019   5.583
 4151SOL    HW114053   2.595   3.098   5.619
 4151SOL    HW214054   2.459   3.051   5.541
 4152SOL     OW14055   2.213   3.160   4.913
 4152SOL    HW114056   2.117   3.151   4.940
 4152SOL    HW214057   2.239   3.081   4.857
 4153SOL     OW14058   3.307   3.386   5.119
 4153SOL    HW114059   3.365   3.467   5.130
 4153SOL    HW214060   3.237   3.385   5.190
 4154SOL     OW14061   2.361   2.209   5.175
 4154SOL    HW114062   2.440   2.149   5.189
 4154SOL    HW214063   2.279   2.164   5.212
 4155SOL     OW14064   3.384   2.281   4.475
 4155SOL    HW114065   3.289   2.258   4.451
 4155SOL    HW214066   3.388   2.375   4.507
 4156SOL     OW14067   2.032   3.558   4.178
 4156SOL    HW114068   2.023   3.625   4.252
 4156SOL    HW214069   2.124   3.562   4.139
 4157SOL     OW14070   2.980   3.182   5.484
 4157SOL    HW114071   3.031   3.164   5.568
 4157SOL    HW214072   2.916   3.107   5.468
 4158SOL     OW14073   1.964   3.296   4.205
 4158SOL    HW114074   1.983   3.393   4.192
 4158SOL    HW214075   2.018   3.261   4.281
 4159SOL     OW14076   2.245   2.927   4.780
 4159SOL    HW114077   2.299   2.850   4.747
 4159SOL    HW214078   2.148   2.902   4.779
 4160SOL     OW14079   2.421   3.720   5.134
 4160SOL    HW114080   2.336   3.691   5.177
 4160SOL    HW214081   2.462   3.795   5.187
 4161SOL     OW14082   2.406   2.853   3.783
 4161SOL    HW114083   2.432   2.947   3.807
 4161SOL    HW214084   2.482   2.809   3.736
 4162SOL     OW14085   3.440   1.993   5.188
 4162SOL    HW114086   3.492   2.067   5.145
 4162SOL    HW214087   3.402   2.025   5.275
 4163SOL     OW14088   1.935   2.365   4.412
 4163SOL    HW114089   1.857   2.342   4.354
 4163SOL    HW214090   1.917   2.453   4.457
 4164SOL     OW14091   3.724   3.627   3.961
 4164SOL    HW114092   3.781   3.603   4.040
 4164SOL    HW214093   3.729   3.726   3.946
 4165SOL     OW14094   1.886   3.437   3.795
 4165SOL    HW114095   1.853   3.344   3.810
 4165SOL    HW214096   1.862   3.494   3.873
 4166SOL     OW14097   3.542   3.127   4.057
 4166SOL    HW114098   3.630   3.085   4.036
 4166SOL    HW214099   3.545   3.224   4.033
 4167SOL     OW14100   1.955   2.638   5.233
 4167SOL    HW114101   2.015   2.684   5.169
 4167SOL    HW214102   1.867   2.685   5.236
 4168SOL     OW14103   3.131   3.063   5.179
 4168SOL    HW114104   3.159   3.010   5.099
 4168SOL    HW214105   3.204   3.062   5.248
 4169SOL     OW14106   2.658   1.855   4.211
 4169SOL    HW114107   2.701   1.944   4.194
 4169SOL    HW214108   2.559   1.867   4.218
 4170SOL     OW14109   2.094   2.784   5.049
 4170SOL    HW114110   2.180   2.741   5.026
 4170SOL    HW214111   2.048   2.816   4.966
 4171SOL     OW14112   3.385   2.944   3.938
 4171SOL    HW114113   3.335   2.888   4.005
 4171SOL    HW214114   3.435   3.016   3.986
 4172SOL     OW14115   3.166   3.731   5.371
 4172SOL    HW114116   3.105   3.785   5.312
 4172SOL    HW214117   3.145   3.634   5.359
 4173SOL     OW14118   2.224   2.146   5.597
 4173SOL    HW114119   2.259   2.222   5.651
 4173SOL    HW214120   2.147   2.177   5.541
 4174SOL     OW14121   3.558   3.618   4.209
 4174SOL    HW114122   3.542   3.556   4.132
 4174SOL    HW214123   3.485   3.607   4.276
 4175SOL     OW14124   3.129   2.193   4.722
 4175SOL    HW114125   3.047   2.138   4.733
 4175SOL    HW214126   3.202   2.157   4.780
 4176SOL     OW14127   3.494   3.480   3.974
 4176SOL    HW114128   3.578   3.532   3.955
 4176SOL    HW214129   3.434   3.486   3.894
 4177SOL     OW14130   2.639   2.413   5.172
 4177SOL    HW114131   2.604   2.385   5.261
 4177SOL    HW214132   2.610   2.348   5.102
 4178SOL     OW14133   3.233   2.332   5.402
 4178SOL    HW114134   3.240   2.382   5.488
 4178SOL    HW214135   3.287   2.248   5.408
 4179SOL     OW14136   2.790   2.731   5.352
 4179SOL    HW114137   2.841   2.659   5.305
 4179SOL    HW214138   2.739   2.785   5.286
 4180SOL     OW14139   2.861   2.210   4.933
 4180SOL    HW114140   2.765   2.234   4.941
 4180SOL    HW214141   2.872   2.141   4.860
 4181SOL     OW14142   1.900   2.609   4.553
 4181SOL    HW114143   1.997   2.606   4.579
 4181SOL    HW214144   1.852   2.673   4.613
 4182SOL     OW14145   1.950   3.761   5.324
 4182SOL    HW114146   1.964   3.713   5.411
 4182SOL    HW214147   1.852   3.774   5.309
 4183SOL     OW14148   2.824   2.019   3.900
 4183SOL    HW114149   2.799   2.049   3.808
 4183SOL    HW214150   2.878   1.935   3.894
 4184SOL     OW14151   3.518   2.427   5.564
 4184SOL    HW114152   3.500   2.514   5.518
 4184SOL    HW214153   3.546   2.358   5.497
 4185SOL     OW14154   2.408   1.967   4.674
 4185SOL    HW114155   2.423   1.983   4.772
 4185SOL    HW214156   2.414   2.053   4.625
 4186SOL     OW14157   2.862   3.393   4.176
 4186SOL    HW114158   2.808   3.440   4.106
 4186SOL    HW214159   2.876   3.455   4.253
 4187SOL     OW14160   3.092   3.379   5.294
 4187SOL    HW114161   3.087   3.320   5.374
 4187SOL    HW214162   3.025   3.349   5.226
 4188SOL     OW14163   2.142   2.839   3.847
 4188SOL    HW114164   2.238   2.852   3.822
 4188SOL    HW214165   2.136   2.775   3.923
 4189SOL     OW14166   3.365   2.537   4.579
 4189SOL    HW114167   3.330   2.508   4.668
 4189SOL    HW214168   3.444   2.597   4.592
 4190SOL     OW14169   2.318   3.160   5.507
 4190SOL    HW114170   2.304   3.151   5.408
 4190SOL    HW214171   2.230   3.159   5.553
 4191SOL     OW14172   2.921   3.646   3.911
 4191SOL    HW114173   2.835   3.606   3.943
 4191SOL    HW214174   2.970   3.579   3.855
 4192SOL     OW14175   2.114   2.100   5.245
 4192SOL    HW114176   2.085   2.171   5.309
 4192SOL    HW214177   2.058   2.018   5.259
 4193SOL     OW14178   3.443   3.244   3.753
 4193SOL    HW114179   3.402   3.335   3.750
 4193SOL    HW214180   3.371   3.175   3.749
 4194SOL     OW14181   2.286   3.590   4.091
 4194SOL    HW114182   2.335   3.676   4.103
 4194SOL    HW214183   2.346   3.513   4.111
 4195SOL     OW14184   3.223   1.988   4.158
 4195SOL    HW114185   3.216   1.933   4.075
 4195SOL    HW214186   3.296   2.056   4.147
 4196SOL     OW14187   2.090   3.628   4.912
 4196SOL    HW114188   2.149   3.559   4.952
 4196SOL    HW214189   2.099   3.626   4.812
 4197SOL     OW14190   3.347   2.078   5.441
 4197SOL    HW114191   3.363   2.098   5.538
 4197SOL    HW214192   3.275   2.009   5.432
 4198SOL     OW14193   2.483   1.928   3.837
 4198SOL    HW114194   2.503   1.837   3.872
 4198SOL    HW214195   2.423   1.921   3.758
 4199SOL     OW14196   2.641   2.118   5.487
 4199SOL    HW114197   2.726   2.065   5.487
 4199SOL    HW214198   2.580   2.084   5.558
 4200SOL     OW14199   2.778   3.449   5.069
 4200SOL    HW114200   2.843   3.506   5.018
 4200SOL    HW214201   2.821   3.361   5.090
 4201SOL     OW14202   3.146   2.449   5.172
 4201SOL    HW114203   3.186   2.415   5.257
 4201SOL    HW214204   3.179   2.542   5.155
 4202SOL     OW14205   2.777   2.420   4.543
 4202SOL    HW114206   2.727   2.382   4.465
 4202SOL    HW214207   2.868   2.379   4.547
 4203SOL     OW14208   2.391   1.901   4.206
 4203SOL    HW114209   2.315   1.911   4.270
 4203SOL    HW214210   2.408   1.989   4.161
 4204SOL     OW14211   3.237   3.053   3.740
 4204SOL    HW114212   3.290   3.002   3.807
 4204SOL    HW214213   3.155   3.089   3.783
 4205SOL     OW14214   2.111   1.933   3.904
 4205SOL    HW114215   2.157   1.992   3.838
 4205SOL    HW214216   2.174   1.864   3.939
 4206SOL     OW14217   2.759   2.111   4.144
 4206SOL    HW114218   2.779   2.085   4.049
 4206SOL    HW214219   2.845   2.117   4.195
 4207SOL     OW14220   2.887   2.537   5.190
 4207SOL    HW114221   2.814   2.469   5.190
 4207SOL    HW214222   2.976   2.491   5.183
 4208SOL     OW14223   1.969   2.401   5.092
 4208SOL    HW114224   2.066   2.389   5.068
 4208SOL    HW214225   1.959   2.480   5.151
 4209SOL     OW14226   2.435   2.028   4.936
 4209SOL    HW114227   2.459   1.953   4.998
 4209SOL    HW214228   2.339   2.053   4.949
 4210SOL     OW14229   2.648   2.290   4.338
 4210SOL    HW114230   2.549   2.279   4.329
 4210SOL    HW214231   2.694   2.234   4.268
 4211SOL     OW14232   2.936   1.931   4.487
 4211SOL    HW114233   2.926   1.989   4.406
 4211SOL    HW214234   2.860   1.866   4.492
 4212SOL     OW14235   3.256   2.444   4.809
 4212SOL    HW114236   3.201   2.363   4.792
 4212SOL    HW214237   3.332   2.421   4.871
 4213SOL     OW14238   2.309   3.282   3.912
 4213SOL    HW114239   2.215   3.251   3.928
 4213SOL    HW214240   2.363   3.206   3.875
 4214SOL     OW14241   2.478   2.113   4.057
 4214SOL    HW114242   2.474   2.064   3.970
 4214SOL    HW214243   2.573   2.136   4.078
 4215SOL     OW14244   3.606   3.080   5.271
 4215SOL    HW114245   3.695   3.038   5.256
 4215SOL    HW214246   3.617   3.167   5.319
 4216SOL     OW14247   2.905   3.215   5.152
 4216SOL    HW114248   2.818   3.177   5.182
 4216SOL    HW214249   2.979   3.155   5.180
 4217SOL     OW14250   3.476   3.499   5.419
 4217SOL    HW114251   3.468   3.544   5.331
 4217SOL    HW214252   3.549   3.431   5.415
 4218SOL     OW14253   2.964   3.110   4.902
 4218SOL    HW114254   2.950   3.151   4.992
 4218SOL    HW214255   2.876   3.088   4.860
 4219SOL     OW14256   3.458   2.937   4.894
 4219SOL    HW114257   3.467   3.023   4.944
 4219SOL    HW214258   3.361   2.918   4.878
 4220SOL     OW14259   2.804   1.900   5.132
 4220SOL    HW114260   2.825   1.863   5.041
 4220SOL    HW214261   2.883   1.951   5.166
 4221SOL     OW14262   2.805   2.965   5.491
 4221SOL    HW114263   2.710   2.984   5.517
 4221SOL    HW214264   2.809   2.880   5.438
 4222SOL     OW14265   2.320   2.641   4.990
 4222SOL    HW114266   2.386   2.654   5.064
 4222SOL    HW214267   2.283   2.548   4.995
 4223SOL     OW14268   3.109   2.214   5.042
 4223SOL    HW114269   3.128   2.303   5.085
 4223SOL    HW214270   3.020   2.216   4.998
 4224SOL     OW14271   1.967   3.388   5.118
 4224SOL    HW114272   1.909   3.463   5.084
 4224SOL    HW214273   2.063   3.412   5.104
 4225SOL     OW14274   2.427   2.227   4.586
 4225SOL    HW114275   2.418   2.234   4.487
 4225SOL    HW214276   2.489   2.298   4.619
 4226SOL     OW14277   3.092   3.270   4.095
 4226SOL    HW114278   3.170   3.326   4.123
 4226SOL    HW214279   3.008   3.308   4.133
 4227SOL     OW14280   3.104   3.364   4.922
 4227SOL    HW114281   3.185   3.359   4.981
 4227SOL    HW214282   3.078   3.271   4.895
 4228SOL     OW14283   2.230   3.414   5.015
 4228SOL    HW114284   2.228   3.325   4.968
 4228SOL    HW214285   2.326   3.440   5.031
 4229SOL     OW14286   2.355   2.560   5.405
 4229SOL    HW114287   2.393   2.606   5.324
 4229SOL    HW214288   2.417   2.487   5.434
 4230SOL     OW14289   3.466   2.667   5.451
 4230SOL    HW114290   3.371   2.697   5.446
 4230SOL    HW214291   3.517   2.705   5.374
 4231SOL     OW14292   2.863   1.963   5.498
 4231SOL    HW114293   2.923   2.042   5.491
 4231SOL    HW214294   2.912   1.881   5.469
 4232SOL     OW14295   2.353   1.920   5.496
 4232SOL    HW114296   2.298   1.866   5.432
 4232SOL    HW214297   2.306   2.007   5.515
 4233SOL     OW14298   2.404   2.692   4.735
 4233SOL    HW114299   2.491   2.740   4.731
 4233SOL    HW214300   2.378   2.675   4.830
 4234SOL     OW14301   3.122   2.688   4.795
 4234SOL    HW114302   3.029   2.673   4.761
 4234SOL    HW214303   3.167   2.600   4.808
 4235SOL     OW14304   2.164   2.047   4.971
 4235SOL    HW114305   2.141   2.083   5.062
 4235SOL    HW214306   2.135   1.951   4.965
 4236SOL     OW14307   1.945   3.138   5.014
 4236SOL    HW114308   1.962   3.074   5.089
 4236SOL    HW214309   1.948   3.231   5.049
 4237SOL     OW14310   2.558   2.436   4.712
 4237SOL    HW114311   2.640   2.441   4.655
 4237SOL    HW214312   2.508   2.523   4.707
 4238SOL     OW14313   3.634   2.828   5.606
 4238SOL    HW114314   3.580   2.761   5.555
 4238SOL    HW214315   3.584   2.857   5.687
 4239SOL     OW14316   2.169   1.917   4.367
 4239SOL    HW114317   2.146   2.012   4.387
 4239SOL    HW214318   2.181   1.866   4.452
 4240SOL     OW14319   3.434   2.162   4.091
 4240SOL    HW114320   3.505   2.102   4.129
 4240SOL    HW214321   3.446   2.254   4.126
 4241SOL     OW14322   2.868   2.635   4.694
 4241SOL    HW114323   2.837   2.615   4.787
 4241SOL    HW214324   2.832   2.567   4.631
 4242SOL     OW14325   2.852   3.423   5.529
 4242SOL    HW114326   2.817   3.483   5.457
 4242SOL    HW214327   2.881   3.336   5.489
 4243SOL     OW14328   3.688   3.318   5.382
 4243SOL    HW114329   3.743   3.349   5.305
 4243SOL    HW214330   3.747   3.298   5.460
 4244SOL     OW14331   2.251   2.772   5.556
 4244SOL    HW114332   2.318   2.795   5.627
 4244SOL    HW214333   2.287   2.697   5.500
 4245SOL     OW14334   3.364   2.061   3.840
 4245SOL    HW114335   3.302   1.989   3.871
 4245SOL    HW214336   3.397   2.113   3.919
 4246SOL     OW14337   2.153   2.584   4.657
 4246SOL    HW114338   2.238   2.637   4.662
 4246SOL    HW214339   2.172   2.489   4.683
 4247SOL     OW14340   2.224   2.332   4.739
 4247SOL    HW114341   2.153   2.262   4.733
 4247SOL    HW214342   2.304   2.303   4.686
 4248SOL     OW14343   2.997   2.198   5.444
 4248SOL    HW114344   2.942   2.247   5.511
 4248SOL    HW214345   3.078   2.251   5.422
 4249SOL     OW14346   3.029   2.028   5.227
 4249SOL    HW114347   3.008   2.087   5.305
 4249SOL    HW214348   3.067   2.083   5.153
 4250SOL     OW14349   1.806   3.185   3.860
 4250SOL    HW114350   1.712   3.207   3.835
 4250SOL    HW214351   1.811   3.090   3.889
 4251SOL     OW14352   2.776   2.587   4.942
 4251SOL    HW114353   2.828   2.586   5.027
 4251SOL    HW214354   2.699   2.523   4.949
 4252SOL     OW14355   1.854   2.468   4.848
 4252SOL    HW114356   1.923   2.477   4.777
 4252SOL    HW214357   1.898   2.440   4.934
 4253SOL     OW14358   2.084   2.517   5.448
 4253SOL    HW114359   2.182   2.528   5.430
 4253SOL    HW214360   2.032   2.566   5.378
 4254SOL     OW14361   3.226   2.788   5.385
 4254SOL    HW114362   3.259   2.882   5.381
 4254SOL    HW214363   3.211   2.753   5.293
 4255SOL     OW14364   3.496   2.409   4.950
 4255SOL    HW114365   3.511   2.333   5.013
 4255SOL    HW214366   3.576   2.421   4.892
 4256SOL     OW14367   2.128   3.415   5.408
 4256SOL    HW114368   2.086   3.486   5.465
 4256SOL    HW214369   2.114   3.326   5.451
 4257SOL     OW14370   2.589   2.267   4.937
 4257SOL    HW114371   2.534   2.184   4.937
 4257SOL    HW214372   2.568   2.321   4.855
 4258SOL     OW14373   2.751   3.586   5.309
 4258SOL    HW114374   2.755   3.524   5.231
 4258SOL    HW214375   2.759   3.680   5.278
 4259SOL     OW14376   2.015   2.977   5.226
 4259SOL    HW114377   2.020   2.947   5.321
 4259SOL    HW214378   2.049   2.903   5.167
 4260SOL     OW14379   3.164   2.916   4.931
 4260SOL    HW114380   3.148   2.836   4.874
 4260SOL    HW214381   3.096   2.986   4.909
 4261SOL     OW14382   3.714   3.577   4.979
 4261SOL    HW114383   3.810   3.589   4.953
 4261SOL    HW214384   3.679   3.493   4.939
 4262SOL     OW14385   2.974   3.600   4.940
 4262SOL    HW114386   3.042   3.665   4.975
 4262SOL    HW214387   3.019   3.513   4.919
 4263SOL     OW14388   1.968   2.903   4.835
 4263SOL    HW114389   1.938   2.989   4.877
 4263SOL    HW214390   1.897   2.869   4.773
 4264SOL     OW14391   2.537   3.575   5.478
 4264SOL    HW114392   2.469   3.647   5.461
 4264SOL    HW214393   2.615   3.589   5.418
 4265SOL     OW14394   3.629   2.014   4.210
 4265SOL    HW114395   3.696   1.992   4.140
 4265SOL    HW214396   3.595   1.930   4.253
 4266SOL     OW14397   3.285   3.455   4.153
 4266SOL    HW114398   3.361   3.445   4.090
 4266SOL    HW214399   3.268   3.552   4.170
 4267SOL     OW14400   2.007   3.619   5.553
 4267SOL    HW114401   1.957   3.549   5.604
 4267SOL    HW214402   2.057   3.677   5.617
 4268SOL     OW14403   2.640   3.144   5.194
 4268SOL    HW114404   2.606   3.199   5.271
 4268SOL    HW214405   2.584   3.162   5.114
 4269SOL     OW14406   2.504   3.456   3.824
 4269SOL    HW114407   2.505   3.461   3.724
 4269SOL    HW214408   2.426   3.401   3.854
 4270SOL     OW14409   3.481   3.609   5.155
 4270SOL    HW114410   3.556   3.598   5.089
 4270SOL    HW214411   3.456   3.706   5.159
 4271SOL     OW14412   3.705   2.003   4.723
 4271SOL    HW114413   3.732   1.914   4.684
 4271SOL    HW214414   3.617   2.030   4.686
 4272SOL     OW14415   2.128   2.177   4.447
 4272SOL    HW114416   2.061   2.248   4.424
 4272SOL    HW214417   2.119   2.153   4.544
 4273SOL     OW14418   3.052   3.456   3.769
 4273SOL    HW114419   3.055   3.366   3.814
 4273SOL    HW214420   2.973   3.460   3.708
 4274SOL     OW14421   2.667   2.872   5.154
 4274SOL    HW114422   2.697   2.865   5.059
 4274SOL    HW214423   2.653   2.969   5.177
 4275SOL     OW14424   3.322   3.498   3.755
 4275SOL    HW114425   3.225   3.480   3.740
 4275SOL    HW214426   3.365   3.522   3.668
 4276SOL     OW14427   2.239   3.153   5.250
 4276SOL    HW114428   2.220   3.244   5.213
 4276SOL    HW214429   2.163   3.092   5.229
 4277SOL     OW14430   3.457   3.166   5.048
 4277SOL    HW114431   3.510   3.138   5.128
 4277SOL    HW214432   3.394   3.238   5.075
 4278SOL     OW14433   2.918   2.016   4.746
 4278SOL    HW114434   2.925   1.990   4.650
 4278SOL    HW214435   2.897   1.936   4.802
 4279SOL     OW14436   2.440   3.368   4.131
 4279SOL    HW114437   2.528   3.320   4.132
 4279SOL    HW214438   2.384   3.333   4.056
 4280SOL     OW14439   3.629   2.204   5.119
 4280SOL    HW114440   3.703   2.271   5.127
 4280SOL    HW214441   3.663   2.122   5.072
 4281SOL     OW14442   2.054   3.199   3.965
 4281SOL    HW114443   1.965   3.199   3.919
 4281SOL    HW214444   2.042   3.224   4.061
 4282SOL     OW14445   2.017   2.907   5.488
 4282SOL    HW114446   1.933   2.874   5.532
 4282SOL    HW214447   2.094   2.851   5.518
 4283SOL     OW14448   2.577   2.034   5.232
 4283SOL    HW114449   2.660   1.998   5.190
 4283SOL    HW214450   2.599   2.070   5.323
 4284SOL     OW14451   1.912   2.136   3.681
 4284SOL    HW114452   1.886   2.041   3.699
 4284SOL    HW214453   1.842   2.197   3.718
 4285SOL     OW14454   3.228   2.709   5.123
 4285SOL    HW114455   3.183   2.774   5.061
 4285SOL    HW214456   3.322   2.694   5.092
 4286SOL     OW14457   1.901   2.052   4.034
 4286SOL    HW114458   1.905   2.152   4.036
 4286SOL    HW214459   1.984   2.015   3.992
 4287SOL     OW14460   3.023   3.187   3.850
 4287SOL    HW114461   2.924   3.172   3.849
 4287SOL    HW214462   3.053   3.204   3.944
 4288SOL     OW14463   2.502   2.655   5.189
 4288SOL    HW114464   2.558   2.737   5.183
 4288SOL    HW214465   2.561   2.574   5.183
 4289SOL     OW14466   2.577   2.387   5.446
 4289SOL    HW114467   2.634   2.449   5.500
 4289SOL    HW214468   2.602   2.293   5.465
 4290SOL     OW14469   3.341   3.037   5.364
 4290SOL    HW114470   3.336   3.059   5.462
 4290SOL    HW214471   3.435   3.052   5.332
 4291SOL     OW14472   2.198   3.644   5.273
 4291SOL    HW114473   2.108   3.689   5.272
 4291SOL    HW214474   2.188   3.551   5.309
 4292SOL     OW14475   3.479   2.679   5.024
 4292SOL    HW114476   3.491   2.586   4.991
 4292SOL    HW214477   3.491   2.743   4.948
 4293SOL     OW14478   2.997   2.102   4.273
 4293SOL    HW114479   3.072   2.061   4.222
 4293SOL    HW214480   3.033   2.168   4.339
 4294SOL     OW14481   3.590   2.220   5.394
 4294SOL    HW114482   3.604   2.219   5.295
 4294SOL    HW214483   3.515   2.159   5.418
 4295SOL     OW14484   3.589   2.788   5.247
 4295SOL    HW114485   3.579   2.887   5.248
 4295SOL    HW214486   3.551   2.751   5.162
 4296SOL     OW14487   2.744   3.226   3.827
 4296SOL    HW114488   2.709   3.235   3.920
 4296SOL    HW214489   2.742   3.315   3.782
 4297SOL     OW14490   2.647   2.812   4.737
 4297SOL    HW114491   2.731   2.764   4.714
 4297SOL    HW214492   2.669   2.902   4.775
 4298SOL     OW14493   2.914   2.898   3.720
 4298SOL    HW114494   2.873   2.969   3.663
 4298SOL    HW214495   2.994   2.860   3.674
 4299SOL     OW14496   2.032   3.176   5.536
 4299SOL    HW114497   2.031   3.080   5.507
 4299SOL    HW214498   1.981   3.186   5.621
 4300SOL     OW14499   2.529   3.308   5.384
 4300SOL    HW114500   2.458   3.260   5.435
 4300SOL    HW214501   2.535   3.403   5.416
 4301SOL     OW14502   3.721   1.982   4.996
 4301SOL    HW114503   3.789   1.911   5.008
 4301SOL    HW214504   3.707   1.999   4.898
 4302SOL     OW14505   2.376   2.232   4.313
 4302SOL    HW114506   2.379   2.213   4.215
 4302SOL    HW214507   2.282   2.220   4.346
 4303SOL     OW14508   3.638   3.328   4.906
 4303SOL    HW114509   3.551   3.286   4.934
 4303SOL    HW214510   3.712   3.263   4.922
 4304SOL     OW14511   2.231   2.385   5.010
 4304SOL    HW114512   2.287   2.324   5.065
 4304SOL    HW214513   2.236   2.358   4.914
 4305SOL     OW14514   3.317   2.107   4.900
 4305SOL    HW114515   3.334   2.010   4.919
 4305SOL    HW214516   3.252   2.143   4.967
 4306SOL     OW14517   2.884   1.781   4.891
 4306SOL    HW114518   2.822   1.703   4.882
 4306SOL    HW214519   2.975   1.756   4.858
 4307SOL     OW14520   2.672   3.211   4.095
 4307SOL    HW114521   2.675   3.116   4.125
 4307SOL    HW214522   2.746   3.262   4.138
 4308SOL     OW14523   2.504   3.477   5.032
 4308SOL    HW114524   2.478   3.568   5.066
 4308SOL    HW214525   2.603   3.464   5.044
 4309SOL     OW14526   3.212   1.853   3.919
 4309SOL    HW114527   3.261   1.775   3.878
 4309SOL    HW214528   3.115   1.833   3.922
 4310SOL     OW14529   3.105   2.265   4.462
 4310SOL    HW114530   3.094   2.365   4.465
 4310SOL    HW214531   3.112   2.229   4.555
 4311SOL     OW14532   3.452   2.078   4.659
 4311SOL    HW114533   3.411   2.110   4.745
 4311SOL    HW214534   3.433   2.143   4.586
 4312SOL     OW14535   1.864   2.926   3.941
 4312SOL    HW114536   1.960   2.910   3.918
 4312SOL    HW214537   1.805   2.876   3.877
 4313SOL     OW14538   2.701   3.514   3.997
 4313SOL    HW114539   2.628   3.483   3.937
 4313SOL    HW214540   2.665   3.582   4.062
 4314SOL     OW14541   2.068   2.531   5.730
 4314SOL    HW114542   1.979   2.495   5.756
 4314SOL    HW214543   2.073   2.541   5.630
 4315SOL     OW14544   2.056   2.169   6.604
 4315SOL    HW114545   2.101   2.143   6.690
 4315SOL    HW214546   1.970   2.119   6.595
 4316SOL     OW14547   1.848   2.290   6.230
 4316SOL    HW114548   1.761   2.308   6.275
 4316SOL    HW214549   1.836   2.218   6.161
 4317SOL     OW14550   2.417   3.129   6.798
 4317SOL    HW114551   2.331   3.145   6.750
 4317SOL    HW214552   2.456   3.217   6.827
 4318SOL     OW14553   3.458   3.360   6.302
 4318SOL    HW114554   3.399   3.322   6.374
 4318SOL    HW214555   3.402   3.384   6.223
 4319SOL     OW14556   2.997   2.557   6.234
 4319SOL    HW114557   3.039   2.648   6.235
 4319SOL    HW214558   2.938   2.548   6.315
 4320SOL     OW14559   3.668   2.426   5.787
 4320SOL    HW114560   3.623   2.435   5.698
 4320SOL    HW214561   3.615   2.363   5.845
 4321SOL     OW14562   2.565   2.991   6.604
 4321SOL    HW114563   2.508   3.023   6.679
 4321SOL    HW214564   2.598   3.069   6.551
 4322SOL     OW14565   2.564   2.824   6.238
 4322SOL    HW114566   2.633   2.824   6.310
 4322SOL    HW214567   2.495   2.893   6.257
 4323SOL     OW14568   2.193   3.224   6.641
 4323SOL    HW114569   2.100   3.203   6.611
 4323SOL    HW214570   2.241   3.273   6.569
 4324SOL     OW14571   3.451   2.319   6.329
 4324SOL    HW114572   3.370   2.326   6.270
 4324SOL    HW214573   3.445   2.386   6.403
 4325SOL     OW14574   2.087   3.602   6.068
 4325SOL    HW114575   2.112   3.670   6.137
 4325SOL    HW214576   2.159   3.597   5.999
 4326SOL     OW14577   2.097   3.325   6.107
 4326SOL    HW114578   2.085   3.424   6.114
 4326SOL    HW214579   2.070   3.282   6.193
 4327SOL     OW14580   2.170   2.952   6.483
 4327SOL    HW114581   2.178   2.852   6.484
 4327SOL    HW214582   2.147   2.984   6.575
 4328SOL     OW14583   2.484   3.675   6.966
 4328SOL    HW114584   2.407   3.644   0.023
 4328SOL    HW214585   2.523   3.758   0.007
 4329SOL     OW14586   2.431   2.843   5.768
 4329SOL    HW114587   2.471   2.897   5.694
 4329SOL    HW214588   2.480   2.862   5.853
 4330SOL     OW14589   1.960   2.543   6.162
 4330SOL    HW114590   1.927   2.452   6.186
 4330SOL    HW214591   1.956   2.602   6.243
 4331SOL     OW14592   3.729   3.599   5.907
 4331SOL    HW114593   3.806   3.589   5.970
 4331SOL    HW214594   3.727   3.693   5.872
 4332SOL     OW14595   1.901   3.429   5.713
 4332SOL    HW114596   1.878   3.335   5.739
 4332SOL    HW214597   1.886   3.490   5.792
 4333SOL     OW14598   3.566   2.792   6.259
 4333SOL    HW114599   3.658   2.756   6.273
 4333SOL    HW214600   3.564   2.848   6.176
 4334SOL     OW14601   3.556   2.978   6.049
 4334SOL    HW114602   3.637   2.951   5.998
 4334SOL    HW214603   3.581   3.045   6.119
 4335SOL     OW14604   2.468   3.251   6.267
 4335SOL    HW114605   2.430   3.159   6.276
 4335SOL    HW214606   2.466   3.279   6.171
 4336SOL     OW14607   2.689   1.883   6.097
 4336SOL    HW114608   2.739   1.966   6.071
 4336SOL    HW214609   2.591   1.903   6.102
 4337SOL     OW14610   2.049   2.825   6.774
 4337SOL    HW114611   2.142   2.790   6.781
 4337SOL    HW214612   1.989   2.754   6.737
 4338SOL     OW14613   3.445   2.901   5.808
 4338SOL    HW114614   3.372   2.835   5.826
 4338SOL    HW214615   3.483   2.933   5.895
 4339SOL     OW14616   3.288   3.267   6.503
 4339SOL    HW114617   3.241   3.283   6.590
 4339SOL    HW214618   3.284   3.170   6.481
 4340SOL     OW14619   3.499   3.721   6.131
 4340SOL    HW114620   3.490   3.653   6.059
 4340SOL    HW214621   3.514   3.675   6.219
 4341SOL     OW14622   2.431   2.569   5.881
 4341SOL    HW114623   2.436   2.657   5.835
 4341SOL    HW214624   2.359   2.571   5.950
 4342SOL     OW14625   3.152   2.278   6.506
 4342SOL    HW114626   3.062   2.236   6.507
 4342SOL    HW214627   3.215   2.222   6.560
 4343SOL     OW14628   3.463   3.542   5.922
 4343SOL    HW114629   3.563   3.550   5.914
 4343SOL    HW214630   3.423   3.532   5.831
 4344SOL     OW14631   2.602   2.523   0.016
 4344SOL    HW114632   2.544   2.535   0.097
 4344SOL    HW214633   2.577   2.438   6.969
 4345SOL     OW14634   2.882   2.340   6.788
 4345SOL    HW114635   2.879   2.372   6.883
 4345SOL    HW214636   2.790   2.313   6.759
 4346SOL     OW14637   2.897   2.535   5.980
 4346SOL    HW114638   2.933   2.542   6.073
 4346SOL    HW214639   2.806   2.494   5.982
 4347SOL     OW14640   1.945   2.722   6.372
 4347SOL    HW114641   2.036   2.702   6.409
 4347SOL    HW214642   1.901   2.793   6.428
 4348SOL     OW14643   2.028   3.635   0.081
 4348SOL    HW114644   1.972   3.555   0.104
 4348SOL    HW214645   2.032   3.645   6.981
 4349SOL     OW14646   2.700   2.199   5.810
 4349SOL    HW114647   2.759   2.240   5.741
 4349SOL    HW214648   2.641   2.130   5.767
 4350SOL     OW14649   3.276   3.023   6.163
 4350SOL    HW114650   3.365   3.012   6.118
 4350SOL    HW214651   3.222   3.091   6.113
 4351SOL     OW14652   2.432   1.968   6.537
 4351SOL    HW114653   2.426   2.005   6.630
 4351SOL    HW214654   2.450   2.043   6.473
 4352SOL     OW14655   2.874   3.337   6.061
 4352SOL    HW114656   2.848   3.402   5.990
 4352SOL    HW214657   2.831   3.363   6.147
 4353SOL     OW14658   2.223   3.638   6.480
 4353SOL    HW114659   2.256   3.544   6.474
 4353SOL    HW214660   2.297   3.698   6.508
 4354SOL     OW14661   3.678   2.928   6.495
 4354SOL    HW114662   3.637   2.938   6.404
 4354SOL    HW214663   3.605   2.920   6.563
 4355SOL     OW14664   2.157   2.788   5.858
 4355SOL    HW114665   2.245   2.814   5.819
 4355SOL    HW214666   2.128   2.700   5.821
 4356SOL     OW14667   3.350   2.634   6.296
 4356SOL    HW114668   3.339   2.595   6.388
 4356SOL    HW214669   3.431   2.692   6.293
 4357SOL     OW14670   2.999   3.633   5.798
 4357SOL    HW114671   2.910   3.612   5.839
 4357SOL    HW214672   3.036   3.551   5.755
 4358SOL     OW14673   3.515   3.273   5.697
 4358SOL    HW114674   3.461   3.357   5.693
 4358SOL    HW214675   3.459   3.196   5.668
 4359SOL     OW14676   2.305   3.628   5.901
 4359SOL    HW114677   2.355   3.677   5.972
 4359SOL    HW214678   2.370   3.573   5.847
 4360SOL     OW14679   3.259   1.958   6.037
 4360SOL    HW114680   3.259   1.933   5.940
 4360SOL    HW214681   3.349   1.942   6.076
 4361SOL     OW14682   2.090   3.670   6.810
 4361SOL    HW114683   2.153   3.593   6.812
 4361SOL    HW214684   2.039   3.668   6.724
 4362SOL     OW14685   2.829   3.536   6.459
 4362SOL    HW114686   2.917   3.490   6.456
 4362SOL    HW214687   2.771   3.502   6.385
 4363SOL     OW14688   2.234   2.539   6.075
 4363SOL    HW114689   2.247   2.441   6.088
 4363SOL    HW214690   2.138   2.562   6.088
 4364SOL     OW14691   2.523   1.987   5.706
 4364SOL    HW114692   2.583   1.910   5.728
 4364SOL    HW214693   2.454   1.956   5.640
 4365SOL     OW14694   2.726   3.332   6.726
 4365SOL    HW114695   2.683   3.311   6.639
 4365SOL    HW214696   2.805   3.273   6.740
 4366SOL     OW14697   2.648   3.220   6.479
 4366SOL    HW114698   2.743   3.220   6.450
 4366SOL    HW214699   2.589   3.239   6.401
 4367SOL     OW14700   2.814   2.389   6.472
 4367SOL    HW114701   2.782   2.374   6.378
 4367SOL    HW214702   2.856   2.306   6.506
 4368SOL     OW14703   2.422   1.943   6.089
 4368SOL    HW114704   2.347   1.937   6.155
 4368SOL    HW214705   2.408   2.021   6.029
 4369SOL     OW14706   3.333   3.077   5.635
 4369SOL    HW114707   3.377   3.006   5.690
 4369SOL    HW214708   3.246   3.103   5.677
 4370SOL     OW14709   2.135   1.927   5.741
 4370SOL    HW114710   2.177   2.006   5.697
 4370SOL    HW214711   2.204   1.876   5.792
 4371SOL     OW14712   2.824   2.112   6.042
 4371SOL    HW114713   2.784   2.146   5.957
 4371SOL    HW214714   2.923   2.130   6.042
 4372SOL     OW14715   3.078   3.427   6.379
 4372SOL    HW114716   3.101   3.501   6.317
 4372SOL    HW214717   3.162   3.388   6.417
 4373SOL     OW14718   2.354   3.002   6.279
 4373SOL    HW114719   2.297   2.986   6.360
 4373SOL    HW214720   2.299   2.993   6.197
 4374SOL     OW14721   3.121   3.648   6.206
 4374SOL    HW114722   3.169   3.715   6.150
 4374SOL    HW214723   3.038   3.689   6.244
 4375SOL     OW14724   2.871   2.339   5.643
 4375SOL    HW114725   2.831   2.427   5.621
 4375SOL    HW214726   2.946   2.351   5.709
 4376SOL     OW14727   2.407   2.057   6.795
 4376SOL    HW114728   2.436   1.974   6.844
 4376SOL    HW214729   2.312   2.078   6.819
 4377SOL     OW14730   2.741   2.323   6.216
 4377SOL    HW114731   2.691   2.374   6.146
 4377SOL    HW214732   2.776   2.238   6.177
 4378SOL     OW14733   2.893   1.918   6.311
 4378SOL    HW114734   2.830   1.928   6.234
 4378SOL    HW214735   2.864   1.842   6.369
 4379SOL     OW14736   3.271   2.991   6.454
 4379SOL    HW114737   3.215   2.914   6.482
 4379SOL    HW214738   3.275   2.996   6.354
 4380SOL     OW14739   3.307   2.516   6.541
 4380SOL    HW114740   3.245   2.437   6.541
 4380SOL    HW214741   3.377   2.503   6.612
 4381SOL     OW14742   3.658   2.632   5.966
 4381SOL    HW114743   3.722   2.604   6.037
 4381SOL    HW214744   3.660   2.567   5.890
 4382SOL     OW14745   2.355   3.300   5.766
 4382SOL    HW114746   2.270   3.264   5.805
 4382SOL    HW214747   2.374   3.254   5.679
 4383SOL     OW14748   3.633   3.141   6.245
 4383SOL    HW114749   3.731   3.145   6.262
 4383SOL    HW214750   3.590   3.227   6.270
 4384SOL     OW14751   3.242   2.446   5.649
 4384SOL    HW114752   3.192   2.406   5.725
 4384SOL    HW214753   3.340   2.429   5.661
 4385SOL     OW14754   2.370   2.130   5.898
 4385SOL    HW114755   2.424   2.081   5.830
 4385SOL    HW214756   2.335   2.215   5.859
 4386SOL     OW14757   3.608   2.996   0.180
 4386SOL    HW114758   3.705   2.983   0.156
 4386SOL    HW214759   3.580   3.088   0.154
 4387SOL     OW14760   2.945   3.161   6.694
 4387SOL    HW114761   2.936   3.064   6.714
 4387SOL    HW214762   2.935   3.177   6.596
 4388SOL     OW14763   3.458   2.931   6.658
 4388SOL    HW114764   3.458   3.009   6.721
 4388SOL    HW214765   3.391   2.947   6.586
 4389SOL     OW14766   2.616   2.888   5.971
 4389SOL    HW114767   2.603   2.856   6.065
 4389SOL    HW214768   2.679   2.826   5.924
 4390SOL     OW14769   2.295   2.713   6.817
 4390SOL    HW114770   2.360   2.766   6.872
 4390SOL    HW214771   2.271   2.629   6.866
 4391SOL     OW14772   3.139   2.255   6.830
 4391SOL    HW114773   3.170   2.315   6.904
 4391SOL    HW214774   3.050   2.286   6.798
 4392SOL     OW14775   1.970   3.383   6.913
 4392SOL    HW114776   1.908   3.444   6.864
 4392SOL    HW214777   2.064   3.400   6.883
 4393SOL     OW14778   2.181   2.986   6.063
 4393SOL    HW114779   2.175   3.062   5.998
 4393SOL    HW214780   2.171   2.899   6.014
 4394SOL     OW14781   2.379   2.423   6.495
 4394SOL    HW114782   2.389   2.480   6.413
 4394SOL    HW214783   2.465   2.425   6.546
 4395SOL     OW14784   3.128   3.226   6.024
 4395SOL    HW114785   3.191   3.299   6.050
 4395SOL    HW214786   3.034   3.255   6.043
 4396SOL     OW14787   3.175   3.305   6.747
 4396SOL    HW114788   3.224   3.269   6.827
 4396SOL    HW214789   3.086   3.260   6.740
 4397SOL     OW14790   3.415   2.515   6.050
 4397SOL    HW114791   3.382   2.548   6.138
 4397SOL    HW214792   3.493   2.570   6.021
 4398SOL     OW14793   2.224   3.429   6.816
 4398SOL    HW114794   2.207   3.356   6.751
 4398SOL    HW214795   2.321   3.431   6.840
 4399SOL     OW14796   2.500   2.708   6.630
 4399SOL    HW114797   2.524   2.804   6.612
 4399SOL    HW214798   2.417   2.704   6.685
 4400SOL     OW14799   3.149   2.757   6.574
 4400SOL    HW114800   3.054   2.728   6.587
 4400SOL    HW214801   3.206   2.676   6.562
 4401SOL     OW14802   3.062   2.366   5.843
 4401SOL    HW114803   3.082   2.290   5.905
 4401SOL    HW214804   3.009   2.436   5.891
 4402SOL     OW14805   2.141   2.092   6.855
 4402SOL    HW114806   2.085   2.132   6.928
 4402SOL    HW214807   2.122   1.994   6.849
 4403SOL     OW14808   1.857   3.140   6.865
 4403SOL    HW114809   1.899   3.066   6.917
 4403SOL    HW214810   1.902   3.227   6.888
 4404SOL     OW14811   2.609   2.454   6.646
 4404SOL    HW114812   2.683   2.438   6.581
 4404SOL    HW214813   2.583   2.550   6.644
 4405SOL     OW14814   2.194   1.931   6.246
 4405SOL    HW114815   2.149   2.017   6.268
 4405SOL    HW214816   2.203   1.876   6.330
 4406SOL     OW14817   3.472   2.277   5.920
 4406SOL    HW114818   3.519   2.214   5.981
 4406SOL    HW214819   3.438   2.355   5.971
 4407SOL     OW14820   2.877   2.656   6.617
 4407SOL    HW114821   2.830   2.673   6.703
 4407SOL    HW214822   2.874   2.558   6.596
 4408SOL     OW14823   3.375   2.128   5.703
 4408SOL    HW114824   3.329   2.047   5.740
 4408SOL    HW214825   3.408   2.185   5.779
 4409SOL     OW14826   3.126   2.692   5.618
 4409SOL    HW114827   3.159   2.598   5.626
 4409SOL    HW214828   3.154   2.730   5.530
 4410SOL     OW14829   2.914   3.211   6.425
 4410SOL    HW114830   2.934   3.125   6.377
 4410SOL    HW214831   2.977   3.282   6.393
 4411SOL     OW14832   2.193   2.679   6.480
 4411SOL    HW114833   2.266   2.660   6.415
 4411SOL    HW214834   2.193   2.608   6.551
 4412SOL     OW14835   2.158   2.418   6.644
 4412SOL    HW114836   2.109   2.332   6.626
 4412SOL    HW214837   2.243   2.419   6.591
 4413SOL     OW14838   3.051   2.056   6.997
 4413SOL    HW114839   3.127   2.026   0.055
 4413SOL    HW214840   3.085   2.123   6.931
 4414SOL     OW14841   1.876   3.147   5.766
 4414SOL    HW114842   1.783   3.173   5.741
 4414SOL    HW214843   1.877   3.053   5.801
 4415SOL     OW14844   1.961   3.623   6.558
 4415SOL    HW114845   1.919   3.542   6.516
 4415SOL    HW214846   2.055   3.633   6.523
 4416SOL     OW14847   2.344   3.388   6.474
 4416SOL    HW114848   2.421   3.439   6.514
 4416SOL    HW214849   2.375   3.338   6.393
 4417SOL     OW14850   2.729   2.721   6.862
 4417SOL    HW114851   2.797   2.761   6.924
 4417SOL    HW214852   2.680   2.648   6.910
 4418SOL     OW14853   1.935   2.566   6.721
 4418SOL    HW114854   2.012   2.515   6.683
 4418SOL    HW214855   1.932   2.553   6.820
 4419SOL     OW14856   2.648   2.422   5.970
 4419SOL    HW114857   2.655   2.341   5.912
 4419SOL    HW214858   2.571   2.478   5.940
 4420SOL     OW14859   3.513   2.470   6.722
 4420SOL    HW114860   3.489   2.394   6.782
 4420SOL    HW214861   3.613   2.473   6.710
 4421SOL     OW14862   2.549   2.290   6.861
 4421SOL    HW114863   2.498   2.210   6.832
 4421SOL    HW214864   2.566   2.350   6.783
 4422SOL     OW14865   2.871   3.527   6.875
 4422SOL    HW114866   2.814   3.460   6.826
 4422SOL    HW214867   2.882   3.609   6.818
 4423SOL     OW14868   2.286   2.360   5.766
 4423SOL    HW114869   2.358   2.423   5.796
 4423SOL    HW214870   2.200   2.409   5.758
 4424SOL     OW14871   1.985   2.943   0.014
 4424SOL    HW114872   2.046   2.908   0.085
 4424SOL    HW214873   2.007   2.898   6.927
 4425SOL     OW14874   3.188   2.819   6.848
 4425SOL    HW114875   3.191   2.814   6.749
 4425SOL    HW214876   3.227   2.907   6.878
 4426SOL     OW14877   3.242   2.735   5.867
 4426SOL    HW114878   3.236   2.655   5.927
 4426SOL    HW214879   3.191   2.718   5.783
 4427SOL     OW14880   3.605   3.608   6.759
 4427SOL    HW114881   3.693   3.615   6.712
 4427SOL    HW214882   3.571   3.515   6.752
 4428SOL     OW14883   3.154   3.583   6.693
 4428SOL    HW114884   3.241   3.619   6.661
 4428SOL    HW214885   3.164   3.486   6.718
 4429SOL     OW14886   1.922   3.155   6.593
 4429SOL    HW114887   1.897   3.146   6.690
 4429SOL    HW214888   1.888   3.075   6.543
 4430SOL     OW14889   3.633   2.094   6.049
 4430SOL    HW114890   3.685   2.069   5.968
 4430SOL    HW214891   3.587   2.013   6.086
 4431SOL     OW14892   3.283   3.442   6.102
 4431SOL    HW114893   3.344   3.476   6.031
 4431SOL    HW214894   3.221   3.514   6.131
 4432SOL     OW14895   3.141   2.792   6.228
 4432SOL    HW114896   3.215   2.729   6.252
 4432SOL    HW214897   3.180   2.874   6.185
 4433SOL     OW14898   2.522   3.522   5.745
 4433SOL    HW114899   2.539   3.537   5.648
 4433SOL    HW214900   2.477   3.434   5.757
 4434SOL     OW14901   3.716   2.012   6.556
 4434SOL    HW114902   3.745   1.918   6.542
 4434SOL    HW214903   3.630   2.029   6.509
 4435SOL     OW14904   2.083   2.170   6.322
 4435SOL    HW114905   2.001   2.217   6.289
 4435SOL    HW214906   2.088   2.177   6.421
 4436SOL     OW14907   3.092   3.411   5.669
 4436SOL    HW114908   3.095   3.318   5.706
 4436SOL    HW214909   3.010   3.422   5.613
 4437SOL     OW14910   2.490   2.880   6.925
 4437SOL    HW114911   2.576   2.843   6.889
 4437SOL    HW214912   2.473   2.970   6.886
 4438SOL     OW14913   2.792   2.734   5.821
 4438SOL    HW114914   2.859   2.801   5.788
 4438SOL    HW214915   2.839   2.665   5.877
 4439SOL     OW14916   3.354   3.508   5.666
 4439SOL    HW114917   3.260   3.473   5.658
 4439SOL    HW214918   3.395   3.515   5.575
 4440SOL     OW14919   3.467   3.137   6.839
 4440SOL    HW114920   3.562   3.125   6.869
 4440SOL    HW214921   3.405   3.108   6.912
 4441SOL     OW14922   2.946   2.965   6.322
 4441SOL    HW114923   2.870   2.915   6.363
 4441SOL    HW214924   3.013   2.900   6.286
 4442SOL     OW14925   2.923   2.120   6.511
 4442SOL    HW114926   2.917   2.065   6.428
 4442SOL    HW214927   2.920   2.060   6.591
 4443SOL     OW14928   2.492   3.319   6.008
 4443SOL    HW114929   2.570   3.262   5.981
 4443SOL    HW214930   2.426   3.321   5.933
 4444SOL     OW14931   3.488   2.250   6.885
 4444SOL    HW114932   3.442   2.227   6.970
 4444SOL    HW214933   3.538   2.170   6.851
 4445SOL     OW14934   2.129   3.193   5.879
 4445SOL    HW114935   2.039   3.177   5.838
 4445SOL    HW214936   2.119   3.248   5.961
 4446SOL     OW14937   2.576   2.058   0.060
 4446SOL    HW114938   2.669   2.029   0.085
 4446SOL    HW214939   2.581   2.144   0.009
 4447SOL     OW14940   2.014   2.254   5.454
 4447SOL    HW114941   1.915   2.243   5.450
 4447SOL    HW214942   2.037   2.351   5.455
 4448SOL     OW14943   1.885   1.998   5.821
 4448SOL    HW114944   1.838   2.045   5.746
 4448SOL    HW214945   1.979   1.980   5.794
 4449SOL     OW14946   3.094   3.144   5.758
 4449SOL    HW114947   3.046   3.057   5.750
 4449SOL    HW214948   3.108   3.167   5.854
 4450SOL     OW14949   3.390   3.699   6.615
 4450SOL    HW114950   3.419   3.750   6.534
 4450SOL    HW214951   3.470   3.669   6.666
 4451SOL     OW14952   3.299   3.187   0.289
 4451SOL    HW114953   3.240   3.213   0.365
 4451SOL    HW214954   3.297   3.087   0.277
 4452SOL     OW14955   2.292   3.575   0.122
 4452SOL    HW114956   2.194   3.594   0.114
 4452SOL    HW214957   2.306   3.476   0.123
 4453SOL     OW14958   3.579   2.728   6.818
 4453SOL    HW114959   3.549   2.638   6.786
 4453SOL    HW214960   3.533   2.799   6.765
 4454SOL     OW14961   3.093   2.177   6.043
 4454SOL    HW114962   3.152   2.096   6.039
 4454SOL    HW214963   3.126   2.237   6.116
 4455SOL     OW14964   2.384   2.616   6.293
 4455SOL    HW114965   2.457   2.680   6.269
 4455SOL    HW214966   2.335   2.589   6.210
 4456SOL     OW14967   3.609   2.710   0.096
 4456SOL    HW114968   3.590   2.800   0.134
 4456SOL    HW214969   3.600   2.713   6.997
 4457SOL     OW14970   2.673   3.239   5.672
 4457SOL    HW114971   2.691   3.219   5.769
 4457SOL    HW214972   2.732   3.314   5.642
 4458SOL     OW14973   2.549   3.553   6.546
 4458SOL    HW114974   2.519   3.648   6.546
 4458SOL    HW214975   2.648   3.549   6.541
 4459SOL     OW14976   2.743   2.837   6.454
 4459SOL    HW114977   2.789   2.766   6.508
 4459SOL    HW214978   2.681   2.889   6.514
 4460SOL     OW14979   2.973   2.906   5.697
 4460SOL    HW114980   2.910   2.929   5.622
 4460SOL    HW214981   3.030   2.829   5.669
 4461SOL     OW14982   3.652   3.459   6.471
 4461SOL    HW114983   3.595   3.433   6.393
 4461SOL    HW214984   3.617   3.415   6.554
 4462SOL     OW14985   2.038   3.101   6.281
 4462SOL    HW114986   2.073   3.054   6.362
 4462SOL    HW214987   2.078   3.060   6.199
 4463SOL     OW14988   3.647   2.031   6.824
 4463SOL    HW114989   3.628   1.934   6.839
 4463SOL    HW214990   3.677   2.044   6.729
 4464SOL     OW14991   2.253   2.275   6.120
 4464SOL    HW114992   2.286   2.206   6.056
 4464SOL    HW214993   2.200   2.231   6.192
 4465SOL     OW14994   3.499   3.360   6.682
 4465SOL    HW114995   3.427   3.347   6.614
 4465SOL    HW214996   3.500   3.283   6.746
 4466SOL     OW14997   2.198   2.473   6.920
 4466SOL    HW114998   2.235   2.402   6.980
 4466SOL    HW214999   2.192   2.437   6.827
 4467SOL     OW15000   2.687   3.470   6.236
 4467SOL    HW115001   2.677   3.555   6.184
 4467SOL    HW215002   2.605   3.414   6.226
 4468SOL     OW15003   3.297   2.109   6.663
 4468SOL    HW115004   3.296   2.012   6.684
 4468SOL    HW215005   3.252   2.160   6.736
 4469SOL     OW15006   2.916   1.852   6.653
 4469SOL    HW115007   2.869   1.796   6.585
 4469SOL    HW215008   3.007   1.815   6.671
 4470SOL     OW15009   2.696   3.155   5.933
 4470SOL    HW115010   2.673   3.059   5.949
 4470SOL    HW215011   2.775   3.180   5.990
 4471SOL     OW15012   2.496   3.415   6.853
 4471SOL    HW115013   2.502   3.511   6.882
 4471SOL    HW215014   2.581   3.389   6.807
 4472SOL     OW15015   3.256   1.888   5.772
 4472SOL    HW115016   3.307   1.817   5.724
 4472SOL    HW215017   3.162   1.856   5.787
 4473SOL     OW15018   3.177   2.344   6.243
 4473SOL    HW115019   3.121   2.425   6.228
 4473SOL    HW215020   3.168   2.315   6.339
 4474SOL     OW15021   3.469   2.067   6.456
 4474SOL    HW115022   3.409   2.091   6.532
 4474SOL    HW215023   3.470   2.142   6.390
 4475SOL     OW15024   1.897   2.890   5.886
 4475SOL    HW115025   1.995   2.874   5.870
 4475SOL    HW215026   1.851   2.803   5.901
 4476SOL     OW15027   2.757   3.545   5.906
 4476SOL    HW115028   2.678   3.528   5.847
 4476SOL    HW215029   2.733   3.613   5.975
 4477SOL     OW15030   2.053   4.365   0.143
 4477SOL    HW115031   1.958   4.336   0.135
 4477SOL    HW215032   2.097   4.361   0.053
 4478SOL     OW15033   2.059   4.029   1.002
 4478SOL    HW115034   2.108   3.995   1.083
 4478SOL    HW215035   1.973   3.979   0.992
 4479SOL     OW15036   1.847   4.150   0.626
 4479SOL    HW115037   1.759   4.166   0.670
 4479SOL    HW215038   1.835   4.086   0.550
 4480SOL     OW15039   2.391   5.046   1.211
 4480SOL    HW115040   2.310   5.053   1.153
 4480SOL    HW215041   2.423   5.138   1.234
 4481SOL     OW15042   3.481   5.243   0.707
 4481SOL    HW115043   3.434   5.202   0.786
 4481SOL    HW215044   3.413   5.277   0.642
 4482SOL     OW15045   3.004   4.448   0.695
 4482SOL    HW115046   3.050   4.534   0.673
 4482SOL    HW215047   2.953   4.458   0.781
 4483SOL     OW15048   3.687   4.302   0.136
 4483SOL    HW115049   3.648   4.392   0.114
 4483SOL    HW215050   3.629   4.255   0.202
 4484SOL     OW15051   2.555   4.850   1.081
 4484SOL    HW115052   2.486   4.895   1.139
 4484SOL    HW215053   2.610   4.920   1.036
 4485SOL     OW15054   2.726   4.457   1.826
 4485SOL    HW115055   2.728   4.513   1.909
 4485SOL    HW215056   2.738   4.516   1.746
 4486SOL     OW15057   2.537   4.700   0.638
 4486SOL    HW115058   2.606   4.707   0.710
 4486SOL    HW215059   2.461   4.762   0.657
 4487SOL     OW15060   2.514   4.942   1.819
 4487SOL    HW115061   2.575   5.010   1.859
 4487SOL    HW215062   2.433   4.988   1.782
 4488SOL     OW15063   2.176   5.137   1.057
 4488SOL    HW115064   2.094   5.094   1.017
 4488SOL    HW215065   2.228   5.182   0.985
 4489SOL     OW15066   2.359   4.070   1.443
 4489SOL    HW115067   2.440   4.014   1.457
 4489SOL    HW215068   2.280   4.029   1.489
 4490SOL     OW15069   3.490   4.187   0.770
 4490SOL    HW115070   3.417   4.230   0.716
 4490SOL    HW215071   3.502   4.237   0.856
 4491SOL     OW15072   2.110   5.425   0.477
 4491SOL    HW115073   2.120   5.504   0.538
 4491SOL    HW215074   2.198   5.403   0.437
 4492SOL     OW15075   2.953   4.995   1.599
 4492SOL    HW115076   3.039   4.944   1.589
 4492SOL    HW215077   2.891   4.943   1.658
 4493SOL     OW15078   2.110   5.144   0.523
 4493SOL    HW115079   2.094   5.241   0.540
 4493SOL    HW215080   2.058   5.090   0.590
 4494SOL     OW15081   2.140   4.833   0.868
 4494SOL    HW115082   2.159   4.740   0.898
 4494SOL    HW215083   2.084   4.880   0.936
 4495SOL     OW15084   2.460   5.554   1.418
 4495SOL    HW115085   2.403   5.633   1.444
 4495SOL    HW215086   2.524   5.534   1.492
 4496SOL     OW15087   2.523   4.639   0.149
 4496SOL    HW115088   2.603   4.647   0.089
 4496SOL    HW215089   2.532   4.701   0.226
 4497SOL     OW15090   3.542   3.826   1.531
 4497SOL    HW115091   3.572   3.907   1.480
 4497SOL    HW215092   3.479   3.853   1.603
 4498SOL     OW15093   1.976   4.396   0.566
 4498SOL    HW115094   1.936   4.307   0.588
 4498SOL    HW215095   1.973   4.454   0.647
 4499SOL     OW15096   3.731   5.477   0.353
 4499SOL    HW115097   3.813   5.448   0.401
 4499SOL    HW215098   3.744   5.570   0.318
 4500SOL     OW15099   3.566   4.667   0.661
 4500SOL    HW115100   3.653   4.619   0.654
 4500SOL    HW215101   3.547   4.715   0.576
 4501SOL     OW15102   3.520   4.822   0.433
 4501SOL    HW115103   3.576   4.818   0.350
 4501SOL    HW215104   3.550   4.898   0.490
 4502SOL     OW15105   1.952   4.493   1.536
 4502SOL    HW115106   2.009   4.539   1.468
 4502SOL    HW215107   1.864   4.540   1.543
 4503SOL     OW15108   2.492   5.084   0.731
 4503SOL    HW115109   2.437   5.001   0.725
 4503SOL    HW215110   2.497   5.128   0.641
 4504SOL     OW15111   2.711   3.774   0.506
 4504SOL    HW115112   2.752   3.862   0.481
 4504SOL    HW215113   2.612   3.784   0.509
 4505SOL     OW15114   2.052   4.620   1.311
 4505SOL    HW115115   2.147   4.597   1.290
 4505SOL    HW215116   1.991   4.573   1.247
 4506SOL     OW15117   3.310   4.788   0.258
 4506SOL    HW115118   3.248   4.712   0.274
 4506SOL    HW215119   3.387   4.782   0.321
 4507SOL     OW15120   3.004   5.586   1.506
 4507SOL    HW115121   2.944   5.617   1.579
 4507SOL    HW215122   2.972   5.499   1.470
 4508SOL     OW15123   2.242   3.966   1.812
 4508SOL    HW115124   2.265   3.985   1.907
 4508SOL    HW215125   2.152   4.005   1.791
 4509SOL     OW15126   3.363   5.118   0.916
 4509SOL    HW115127   3.316   5.123   1.004
 4509SOL    HW215128   3.350   5.027   0.876
 4510SOL     OW15129   3.494   5.618   0.574
 4510SOL    HW115130   3.465   5.567   0.493
 4510SOL    HW215131   3.518   5.554   0.646
 4511SOL     OW15132   2.438   4.408   0.275
 4511SOL    HW115133   2.461   4.499   0.241
 4511SOL    HW215134   2.370   4.416   0.347
 4512SOL     OW15135   3.148   4.131   0.928
 4512SOL    HW115136   3.058   4.088   0.927
 4512SOL    HW215137   3.206   4.086   0.997
 4513SOL     OW15138   3.453   5.453   0.355
 4513SOL    HW115139   3.553   5.451   0.351
 4513SOL    HW215140   3.416   5.442   0.263
 4514SOL     OW15141   2.653   4.287   1.444
 4514SOL    HW115142   2.614   4.261   1.533
 4514SOL    HW215143   2.634   4.215   1.377
 4515SOL     OW15144   3.237   4.165   1.659
 4515SOL    HW115145   3.247   4.229   1.735
 4515SOL    HW215146   3.291   4.082   1.678
 4516SOL     OW15147   2.777   4.616   1.601
 4516SOL    HW115148   2.835   4.549   1.555
 4516SOL    HW215149   2.721   4.663   1.533
 4517SOL     OW15150   2.880   4.104   1.183
 4517SOL    HW115151   2.785   4.108   1.213
 4517SOL    HW215152   2.886   4.061   1.093
 4518SOL     OW15153   2.916   4.443   0.434
 4518SOL    HW115154   2.942   4.439   0.530
 4518SOL    HW215155   2.826   4.401   0.422
 4519SOL     OW15156   1.964   4.568   0.785
 4519SOL    HW115157   2.057   4.563   0.821
 4519SOL    HW215158   1.909   4.630   0.842
 4520SOL     OW15159   2.005   5.689   1.632
 4520SOL    HW115160   1.976   5.756   1.701
 4520SOL    HW215161   1.966   5.600   1.652
 4521SOL     OW15162   2.777   4.103   0.209
 4521SOL    HW115163   2.818   4.165   0.142
 4521SOL    HW215164   2.794   4.008   0.181
 4522SOL     OW15165   3.548   4.341   1.827
 4522SOL    HW115166   3.544   4.417   1.761
 4522SOL    HW215167   3.563   4.255   1.778
 4523SOL     OW15168   3.265   4.909   0.572
 4523SOL    HW115169   3.352   4.902   0.524
 4523SOL    HW215170   3.211   4.985   0.535
 4524SOL     OW15171   2.428   3.817   0.934
 4524SOL    HW115172   2.434   3.849   1.029
 4524SOL    HW215173   2.444   3.893   0.872
 4525SOL     OW15174   2.855   5.186   0.492
 4525SOL    HW115175   2.822   5.264   0.438
 4525SOL    HW215176   2.825   5.196   0.586
 4526SOL     OW15177   2.219   5.515   0.875
 4526SOL    HW115178   2.257   5.423   0.872
 4526SOL    HW215179   2.289   5.579   0.907
 4527SOL     OW15180   3.661   4.798   0.893
 4527SOL    HW115181   3.610   4.773   0.810
 4527SOL    HW215182   3.596   4.813   0.968
 4528SOL     OW15183   2.178   4.612   0.223
 4528SOL    HW115184   2.234   4.614   0.140
 4528SOL    HW215185   2.131   4.524   0.230
 4529SOL     OW15186   3.344   4.510   0.696
 4529SOL    HW115187   3.324   4.471   0.786
 4529SOL    HW215188   3.424   4.570   0.702
 4530SOL     OW15189   2.282   5.100   1.755
 4530SOL    HW115190   2.279   5.096   1.655
 4530SOL    HW215191   2.191   5.082   1.792
 4531SOL     OW15192   2.984   5.487   0.239
 4531SOL    HW115193   2.908   5.449   0.293
 4531SOL    HW215194   3.025   5.414   0.184
 4532SOL     OW15195   2.101   3.974   1.502
 4532SOL    HW115196   2.048   4.057   1.522
 4532SOL    HW215197   2.068   3.899   1.559
 4533SOL     OW15198   3.543   5.091   0.122
 4533SOL    HW115199   3.504   5.088   0.030
 4533SOL    HW215200   3.469   5.088   0.190
 4534SOL     OW15201   2.375   5.417   0.388
 4534SOL    HW115202   2.389   5.508   0.426
 4534SOL    HW215203   2.426   5.408   0.303
 4535SOL     OW15204   2.072   5.523   1.215
 4535SOL    HW115205   2.120   5.443   1.251
 4535SOL    HW215206   2.037   5.503   1.124
 4536SOL     OW15207   2.828   5.403   0.932
 4536SOL    HW115208   2.923   5.373   0.923
 4536SOL    HW215209   2.770   5.352   0.868
 4537SOL     OW15210   2.244   4.383   0.471
 4537SOL    HW115211   2.254   4.284   0.481
 4537SOL    HW215212   2.150   4.410   0.496
 4538SOL     OW15213   3.381   3.939   1.741
 4538SOL    HW115214   3.400   3.971   1.834
 4538SOL    HW215215   3.317   3.862   1.745
 4539SOL     OW15216   2.650   3.997   1.746
 4539SOL    HW115217   2.718   3.926   1.730
 4539SOL    HW215218   2.656   4.028   1.841
 4540SOL     OW15219   2.697   5.204   1.205
 4540SOL    HW115220   2.682   5.174   1.111
 4540SOL    HW215221   2.745   5.134   1.256
 4541SOL     OW15222   3.150   4.335   1.462
 4541SOL    HW115223   3.186   4.277   1.535
 4541SOL    HW215224   3.196   4.424   1.464
 4542SOL     OW15225   2.671   5.067   0.958
 4542SOL    HW115226   2.767   5.076   0.930
 4542SOL    HW215227   2.613   5.068   0.877
 4543SOL     OW15228   2.767   4.230   0.886
 4543SOL    HW115229   2.743   4.224   0.789
 4543SOL    HW215230   2.813   4.146   0.915
 4544SOL     OW15231   2.432   3.801   0.491
 4544SOL    HW115232   2.352   3.803   0.551
 4544SOL    HW215233   2.418   3.864   0.415
 4545SOL     OW15234   3.274   4.929   0.017
 4545SOL    HW115235   3.301   4.857   0.081
 4545SOL    HW215236   3.194   4.977   0.054
 4546SOL     OW15237   2.847   4.007   0.454
 4546SOL    HW115238   2.812   4.045   0.368
 4546SOL    HW215239   2.946   4.021   0.458
 4547SOL     OW15240   2.892   4.430   1.439
 4547SOL    HW115241   2.821   4.359   1.444
 4547SOL    HW215242   2.982   4.387   1.445
 4548SOL     OW15243   3.079   5.328   0.842
 4548SOL    HW115244   3.093   5.378   0.756
 4548SOL    HW215245   3.156   5.347   0.903
 4549SOL     OW15246   2.325   4.870   0.667
 4549SOL    HW115247   2.256   4.857   0.738
 4549SOL    HW215248   2.282   4.862   0.577
 4550SOL     OW15249   3.132   5.548   0.633
 4550SOL    HW115250   3.168   5.639   0.614
 4550SOL    HW215251   3.035   5.555   0.658
 4551SOL     OW15252   2.861   4.307   0.018
 4551SOL    HW115253   2.767   4.330   0.041
 4551SOL    HW215254   2.920   4.328   0.096
 4552SOL     OW15255   1.980   4.251   1.409
 4552SOL    HW115256   2.074   4.247   1.377
 4552SOL    HW215257   1.968   4.331   1.468
 4553SOL     OW15258   2.435   3.895   1.194
 4553SOL    HW115259   2.460   3.821   1.257
 4553SOL    HW215260   2.340   3.921   1.210
 4554SOL     OW15261   2.724   4.185   0.625
 4554SOL    HW115262   2.684   4.248   0.558
 4554SOL    HW215263   2.771   4.111   0.578
 4555SOL     OW15264   2.899   3.780   0.716
 4555SOL    HW115265   2.838   3.783   0.637
 4555SOL    HW215266   2.868   3.711   0.781
 4556SOL     OW15267   3.315   4.856   0.843
 4556SOL    HW115268   3.261   4.779   0.878
 4556SOL    HW215269   3.295   4.869   0.746
 4557SOL     OW15270   3.285   4.384   0.938
 4557SOL    HW115271   3.224   4.305   0.938
 4557SOL    HW215272   3.370   4.360   0.985
 4558SOL     OW15273   3.691   4.544   0.391
 4558SOL    HW115274   3.757   4.476   0.423
 4558SOL    HW215275   3.676   4.532   0.293
 4559SOL     OW15276   2.320   5.230   0.114
 4559SOL    HW115277   2.273   5.166   0.174
 4559SOL    HW215278   2.273   5.233   0.025
 4560SOL     OW15279   3.596   5.015   0.596
 4560SOL    HW115280   3.693   5.003   0.618
 4560SOL    HW215281   3.564   5.103   0.634
 4561SOL     OW15282   3.211   4.278   0.050
 4561SOL    HW115283   3.141   4.283   0.121
 4561SOL    HW215284   3.282   4.212   0.077
 4562SOL     OW15285   2.389   3.967   0.279
 4562SOL    HW115286   2.456   3.937   0.211
 4562SOL    HW215287   2.341   4.048   0.244
 4563SOL     OW15288   3.681   5.021   1.453
 4563SOL    HW115289   3.743   4.942   1.451
 4563SOL    HW215290   3.714   5.088   1.520
 4564SOL     OW15291   2.819   5.016   1.359
 4564SOL    HW115292   2.724   4.995   1.385
 4564SOL    HW215293   2.877   5.008   1.440
 4565SOL     OW15294   3.014   5.011   1.160
 4565SOL    HW115295   2.939   5.005   1.226
 4565SOL    HW215296   2.977   5.033   1.070
 4566SOL     OW15297   3.465   4.878   1.073
 4566SOL    HW115298   3.423   4.953   1.124
 4566SOL    HW215299   3.409   4.856   0.993
 4567SOL     OW15300   2.803   3.797   1.352
 4567SOL    HW115301   2.821   3.790   1.253
 4567SOL    HW215302   2.881   3.841   1.396
 4568SOL     OW15303   2.783   4.843   1.751
 4568SOL    HW115304   2.688   4.871   1.769
 4568SOL    HW215305   2.782   4.756   1.701
 4569SOL     OW15306   2.591   4.787   0.378
 4569SOL    HW115307   2.560   4.758   0.468
 4569SOL    HW215308   2.684   4.752   0.361
 4570SOL     OW15309   2.299   4.511   1.268
 4570SOL    HW115310   2.367   4.522   1.340
 4570SOL    HW215311   2.267   4.416   1.267
 4571SOL     OW15312   3.125   4.116   1.295
 4571SOL    HW115313   3.139   4.199   1.349
 4571SOL    HW215314   3.034   4.118   1.254
 4572SOL     OW15315   1.922   5.274   1.387
 4572SOL    HW115316   1.867   5.340   1.335
 4572SOL    HW215317   2.018   5.285   1.364
 4573SOL     OW15318   2.201   4.824   0.406
 4573SOL    HW115319   2.196   4.908   0.352
 4573SOL    HW215320   2.213   4.745   0.346
 4574SOL     OW15321   2.366   4.286   0.881
 4574SOL    HW115322   2.389   4.336   0.798
 4574SOL    HW215323   2.444   4.288   0.944
 4575SOL     OW15324   3.123   5.127   0.452
 4575SOL    HW115325   3.175   5.204   0.487
 4575SOL    HW215326   3.026   5.140   0.471
 4576SOL     OW15327   3.268   5.096   1.169
 4576SOL    HW115328   3.269   5.161   1.246
 4576SOL    HW215329   3.177   5.056   1.161
 4577SOL     OW15330   3.476   4.387   0.484
 4577SOL    HW115331   3.411   4.426   0.549
 4577SOL    HW215332   3.541   4.458   0.455
 4578SOL     OW15333   2.183   5.278   1.288
 4578SOL    HW115334   2.169   5.225   1.205
 4578SOL    HW215335   2.280   5.298   1.300
 4579SOL     OW15336   2.337   4.419   1.669
 4579SOL    HW115337   2.373   4.465   1.589
 4579SOL    HW215338   2.401   4.347   1.698
 4580SOL     OW15339   2.852   3.824   1.721
 4580SOL    HW115340   2.911   3.905   1.726
 4580SOL    HW215341   2.904   3.749   1.680
 4581SOL     OW15342   2.403   3.751   1.755
 4581SOL    HW115343   2.348   3.691   1.696
 4581SOL    HW215344   2.352   3.835   1.772
 4582SOL     OW15345   2.458   4.588   1.055
 4582SOL    HW115346   2.493   4.681   1.064
 4582SOL    HW215347   2.399   4.567   1.133
 4583SOL     OW15348   3.185   4.642   0.954
 4583SOL    HW115349   3.089   4.644   0.985
 4583SOL    HW215350   3.219   4.549   0.957
 4584SOL     OW15351   3.026   4.276   0.251
 4584SOL    HW115352   3.058   4.196   0.301
 4584SOL    HW215353   2.987   4.342   0.315
 4585SOL     OW15354   2.164   3.922   1.235
 4585SOL    HW115355   2.144   3.951   1.328
 4585SOL    HW215356   2.137   3.826   1.223
 4586SOL     OW15357   1.922   5.025   1.261
 4586SOL    HW115358   1.952   4.958   1.329
 4586SOL    HW215359   1.908   5.114   1.306
 4587SOL     OW15360   2.575   4.333   1.058
 4587SOL    HW115361   2.646   4.309   0.991
 4587SOL    HW215362   2.546   4.428   1.042
 4588SOL     OW15363   3.607   4.783   1.794
 4588SOL    HW115364   3.576   4.871   1.759
 4588SOL    HW215365   3.549   4.755   1.871
 4589SOL     OW15366   2.197   3.792   0.642
 4589SOL    HW115367   2.150   3.878   0.665
 4589SOL    HW215368   2.204   3.736   0.725
 4590SOL     OW15369   3.527   4.176   0.324
 4590SOL    HW115370   3.564   4.101   0.379
 4590SOL    HW215371   3.501   4.252   0.383
 4591SOL     OW15372   2.856   4.484   0.934
 4591SOL    HW115373   2.843   4.503   1.032
 4591SOL    HW215374   2.830   4.390   0.915
 4592SOL     OW15375   2.853   5.253   1.628
 4592SOL    HW115376   2.852   5.301   1.540
 4592SOL    HW215377   2.893   5.162   1.615
 4593SOL     OW15378   3.807   5.209   1.604
 4593SOL    HW115379   3.804   5.279   1.532
 4593SOL    HW215380   3.893   5.218   1.655
 4594SOL     OW15381   2.223   4.640   1.797
 4594SOL    HW115382   2.293   4.678   1.859
 4594SOL    HW215383   2.261   4.560   1.750
 4595SOL     OW15384   3.366   4.064   0.137
 4595SOL    HW115385   3.326   3.981   0.175
 4595SOL    HW215386   3.426   4.106   0.206
 4596SOL     OW15387   3.127   4.544   0.020
 4596SOL    HW115388   3.171   4.455   0.009
 4596SOL    HW215389   3.123   4.591   6.932
 4597SOL     OW15390   2.939   5.085   0.901
 4597SOL    HW115391   2.955   5.003   0.847
 4597SOL    HW215392   2.999   5.159   0.870
 4598SOL     OW15393   2.197   4.566   0.937
 4598SOL    HW115394   2.296   4.574   0.949
 4598SOL    HW215395   2.166   4.476   0.967
 4599SOL     OW15396   2.130   4.292   1.004
 4599SOL    HW115397   2.088   4.201   0.998
 4599SOL    HW215398   2.216   4.291   0.953
 4600SOL     OW15399   2.988   4.064   1.700
 4600SOL    HW115400   2.940   4.125   1.763
 4600SOL    HW215401   3.079   4.100   1.681
 4601SOL     OW15402   3.026   3.917   1.464
 4601SOL    HW115403   3.005   3.968   1.548
 4601SOL    HW215404   3.072   3.978   1.400
 4602SOL     OW15405   1.963   5.470   0.967
 4602SOL    HW115406   1.925   5.388   0.925
 4602SOL    HW215407   2.052   5.490   0.927
 4603SOL     OW15408   2.348   5.269   0.887
 4603SOL    HW115409   2.421   5.323   0.927
 4603SOL    HW215410   2.387   5.200   0.826
 4604SOL     OW15411   2.778   4.509   1.197
 4604SOL    HW115412   2.831   4.495   1.281
 4604SOL    HW215413   2.703   4.443   1.194
 4605SOL     OW15414   1.928   4.388   1.170
 4605SOL    HW115415   1.998   4.363   1.102
 4605SOL    HW215416   1.943   4.335   1.253
 4606SOL     OW15417   2.077   4.355   1.744
 4606SOL    HW115418   2.174   4.366   1.721
 4606SOL    HW215419   2.022   4.410   1.681
 4607SOL     OW15420   2.682   4.309   0.375
 4607SOL    HW115421   2.704   4.233   0.314
 4607SOL    HW215422   2.593   4.348   0.350
 4608SOL     OW15423   3.525   4.286   1.036
 4608SOL    HW115424   3.505   4.216   1.104
 4608SOL    HW215425   3.609   4.334   1.061
 4609SOL     OW15426   2.609   4.118   1.229
 4609SOL    HW115427   2.546   4.040   1.221
 4609SOL    HW215428   2.581   4.190   1.166
 4610SOL     OW15429   2.844   5.375   1.381
 4610SOL    HW115430   2.787   5.306   1.336
 4610SOL    HW215431   2.863   5.449   1.317
 4611SOL     OW15432   2.280   4.200   0.181
 4611SOL    HW115433   2.345   4.266   0.219
 4611SOL    HW215434   2.188   4.236   0.187
 4612SOL     OW15435   1.998   4.849   1.460
 4612SOL    HW115436   2.003   4.823   1.556
 4612SOL    HW215437   2.020   4.769   1.403
 4613SOL     OW15438   3.147   4.577   0.299
 4613SOL    HW115439   3.081   4.529   0.357
 4613SOL    HW215440   3.138   4.546   0.204
 4614SOL     OW15441   3.694   5.476   1.169
 4614SOL    HW115442   3.748   5.499   1.089
 4614SOL    HW215443   3.614   5.422   1.141
 4615SOL     OW15444   1.940   4.995   0.992
 4615SOL    HW115445   1.925   5.008   1.090
 4615SOL    HW215446   1.884   4.919   0.959
 4616SOL     OW15447   2.836   3.849   0.128
 4616SOL    HW115448   2.916   3.879   0.076
 4616SOL    HW215449   2.860   3.769   0.183
 4617SOL     OW15450   3.628   3.957   0.455
 4617SOL    HW115451   3.680   3.916   0.380
 4617SOL    HW215452   3.567   3.888   0.494
 4618SOL     OW15453   3.279   5.339   0.534
 4618SOL    HW115454   3.340   5.373   0.462
 4618SOL    HW215455   3.225   5.415   0.570
 4619SOL     OW15456   3.136   4.677   0.637
 4619SOL    HW115457   3.212   4.615   0.654
 4619SOL    HW215458   3.170   4.762   0.596
 4620SOL     OW15459   2.557   4.983   1.427
 4620SOL    HW115460   2.555   5.052   1.499
 4620SOL    HW215461   2.482   5.000   1.362
 4621SOL     OW15462   2.543   5.379   0.168
 4621SOL    HW115463   2.541   5.452   0.099
 4621SOL    HW215464   2.475   5.310   0.144
 4622SOL     OW15465   3.707   3.877   0.990
 4622SOL    HW115466   3.739   3.788   0.957
 4622SOL    HW215467   3.620   3.899   0.947
 4623SOL     OW15468   2.082   4.028   0.717
 4623SOL    HW115469   2.000   4.076   0.686
 4623SOL    HW215470   2.089   4.036   0.817
 4624SOL     OW15471   3.093   5.294   0.073
 4624SOL    HW115472   3.095   5.197   0.099
 4624SOL    HW215473   3.022   5.309   0.004
 4625SOL     OW15474   2.640   4.727   1.393
 4625SOL    HW115475   2.681   4.720   1.302
 4625SOL    HW215476   2.604   4.820   1.407
 4626SOL     OW15477   2.834   4.689   0.333
 4626SOL    HW115478   2.892   4.714   0.256
 4626SOL    HW215479   2.869   4.606   0.376
 4627SOL     OW15480   3.338   5.426   0.102
 4627SOL    HW115481   3.252   5.376   0.092
 4627SOL    HW215482   3.397   5.407   0.024
 4628SOL     OW15483   2.203   5.072   1.493
 4628SOL    HW115484   2.198   5.137   1.417
 4628SOL    HW215485   2.144   4.994   1.474
 4629SOL     OW15486   2.949   4.847   0.769
 4629SOL    HW115487   2.863   4.800   0.789
 4629SOL    HW215488   3.011   4.784   0.723
 4630SOL     OW15489   2.907   3.977   0.931
 4630SOL    HW115490   2.904   3.942   0.838
 4630SOL    HW215491   2.902   3.901   0.996
 4631SOL     OW15492   2.512   5.205   0.494
 4631SOL    HW115493   2.553   5.155   0.418
 4631SOL    HW215494   2.450   5.275   0.458
 4632SOL     OW15495   3.677   4.070   1.432
 4632SOL    HW115496   3.730   4.152   1.411
 4632SOL    HW215497   3.700   3.998   1.366
 4633SOL     OW15498   2.151   5.072   0.268
 4633SOL    HW115499   2.066   5.093   0.221
 4633SOL    HW215500   2.144   5.099   0.364
 4634SOL     OW15501   1.994   4.778   1.726
 4634SOL    HW115502   1.914   4.751   1.778
 4634SOL    HW215503   2.073   4.723   1.754
 4635SOL     OW15504   2.576   3.899   1.491
 4635SOL    HW115505   2.660   3.871   1.445
 4635SOL    HW215506   2.597   3.932   1.583
 4636SOL     OW15507   1.934   4.048   0.022
 4636SOL    HW115508   1.869   4.003   6.960
 4636SOL    HW215509   1.896   4.135   0.052
 4637SOL     OW15510   1.941   3.853   0.221
 4637SOL    HW115511   1.943   3.934   0.162
 4637SOL    HW215512   1.987   3.777   0.175
 4638SOL     OW15513   3.047   5.028   0.149
 4638SOL    HW115514   2.952   5.040   0.122
 4638SOL    HW215515   3.054   5.035   0.249
 4639SOL     OW15516   2.490   4.511   1.456
 4639SOL    HW115517   2.542   4.595   1.440
 4639SOL    HW215518   2.551   4.432   1.452
 4640SOL     OW15519   3.276   5.417   1.004
 4640SOL    HW115520   3.239   5.482   1.071
 4640SOL    HW215521   3.365   5.384   1.035
 4641SOL     OW15522   2.562   4.259   1.704
 4641SOL    HW115523   2.621   4.319   1.758
 4641SOL    HW215524   2.588   4.163   1.720
 4642SOL     OW15525   3.114   4.078   0.431
 4642SOL    HW115526   3.186   4.013   0.406
 4642SOL    HW215527   3.142   4.128   0.513
 4643SOL     OW15528   2.428   4.445   0.669
 4643SOL    HW115529   2.473   4.533   0.654
 4643SOL    HW215530   2.363   4.428   0.596
 4644SOL     OW15531   3.592   4.108   1.688
 4644SOL    HW115532   3.620   4.101   1.592
 4644SOL    HW215533   3.515   4.047   1.706
 4645SOL     OW15534   2.788   5.090   0.074
 4645SOL    HW115535   2.735   5.084   0.159
 4645SOL    HW215536   2.795   5.185   0.046
 4646SOL     OW15537   2.542   5.438   0.969
 4646SOL    HW115538   2.512   5.533   0.958
 4646SOL    HW215539   2.641   5.436   0.984
 4647SOL     OW15540   2.715   4.712   0.855
 4647SOL    HW115541   2.764   4.627   0.877
 4647SOL    HW215542   2.665   4.743   0.935
 4648SOL     OW15543   2.975   4.754   0.109
 4648SOL    HW115544   3.023   4.842   0.114
 4648SOL    HW215545   3.038   4.683   0.077
 4649SOL     OW15546   3.730   5.272   0.832
 4649SOL    HW115547   3.644   5.264   0.783
 4649SOL    HW215548   3.756   5.183   0.870
 4650SOL     OW15549   2.011   5.042   1.800
 4650SOL    HW115550   2.011   4.949   1.764
 4650SOL    HW215551   1.962   5.044   1.888
 4651SOL     OW15552   1.973   4.956   0.677
 4651SOL    HW115553   2.031   4.918   0.749
 4651SOL    HW215554   1.959   4.887   0.606
 4652SOL     OW15555   2.579   5.180   1.616
 4652SOL    HW115556   2.518   5.208   1.690
 4652SOL    HW215557   2.671   5.216   1.631
 4653SOL     OW15558   3.730   3.865   1.263
 4653SOL    HW115559   3.795   3.790   1.275
 4653SOL    HW215560   3.712   3.879   1.166
 4654SOL     OW15561   2.252   4.117   0.505
 4654SOL    HW115562   2.288   4.043   0.448
 4654SOL    HW215563   2.200   4.078   0.581
 4655SOL     OW15564   3.509   5.287   1.083
 4655SOL    HW115565   3.467   5.232   1.012
 4655SOL    HW215566   3.574   5.231   1.135
 4656SOL     OW15567   2.225   4.249   1.288
 4656SOL    HW115568   2.283   4.188   1.342
 4656SOL    HW215569   2.223   4.218   1.193
 4657SOL     OW15570   2.696   5.287   0.717
 4657SOL    HW115571   2.661   5.345   0.643
 4657SOL    HW215572   2.631   5.213   0.735
 4658SOL     OW15573   3.299   4.000   1.120
 4658SOL    HW115574   3.315   3.905   1.143
 4658SOL    HW215575   3.243   4.043   1.191
 4659SOL     OW15576   2.891   3.750   1.085
 4659SOL    HW115577   2.845   3.686   1.024
 4659SOL    HW215578   2.983   3.717   1.106
 4660SOL     OW15579   2.671   5.049   0.322
 4660SOL    HW115580   2.636   4.957   0.339
 4660SOL    HW215581   2.742   5.071   0.389
 4661SOL     OW15582   2.455   5.311   1.287
 4661SOL    HW115583   2.459   5.401   1.331
 4661SOL    HW215584   2.547   5.285   1.256
 4662SOL     OW15585   3.243   3.828   0.240
 4662SOL    HW115586   3.319   3.767   0.264
 4662SOL    HW215587   3.157   3.778   0.248
 4663SOL     OW15588   3.168   4.215   0.665
 4663SOL    HW115589   3.119   4.302   0.664
 4663SOL    HW215590   3.167   4.177   0.757
 4664SOL     OW15591   3.459   3.943   0.901
 4664SOL    HW115592   3.399   3.976   0.975
 4664SOL    HW215593   3.470   4.016   0.834
 4665SOL     OW15594   1.943   4.767   0.489
 4665SOL    HW115595   2.036   4.779   0.455
 4665SOL    HW215596   1.901   4.689   0.442
 4666SOL     OW15597   2.749   5.402   0.357
 4666SOL    HW115598   2.679   5.387   0.288
 4666SOL    HW215599   2.721   5.476   0.418
 4667SOL     OW15600   2.051   4.414   2.019
 4667SOL    HW115601   1.962   4.379   2.047
 4667SOL    HW215602   2.061   4.404   1.920
 4668SOL     OW15603   1.999   4.033   2.989
 4668SOL    HW115604   2.054   3.960   3.030
 4668SOL    HW215605   1.937   3.993   2.921
 4669SOL     OW15606   2.456   5.083   3.100
 4669SOL    HW115607   2.379   5.072   3.038
 4669SOL    HW215608   2.470   5.181   3.120
 4670SOL     OW15609   3.489   5.245   2.573
 4670SOL    HW115610   3.438   5.216   2.654
 4670SOL    HW215611   3.428   5.250   2.495
 4671SOL     OW15612   2.886   4.540   2.484
 4671SOL    HW115613   2.972   4.590   2.496
 4671SOL    HW215614   2.821   4.566   2.555
 4672SOL     OW15615   3.667   4.301   2.068
 4672SOL    HW115616   3.624   4.323   1.980
 4672SOL    HW215617   3.618   4.227   2.113
 4673SOL     OW15618   2.608   4.842   2.894
 4673SOL    HW115619   2.663   4.827   2.976
 4673SOL    HW215620   2.613   4.938   2.867
 4674SOL     OW15621   2.582   4.793   2.444
 4674SOL    HW115622   2.641   4.782   2.524
 4674SOL    HW215623   2.496   4.835   2.473
 4675SOL     OW15624   2.582   4.893   3.716
 4675SOL    HW115625   2.644   4.963   3.752
 4675SOL    HW215626   2.507   4.937   3.666
 4676SOL     OW15627   2.229   5.149   2.938
 4676SOL    HW115628   2.143   5.120   2.896
 4676SOL    HW215629   2.280   5.206   2.873
 4677SOL     OW15630   3.260   5.268   3.219
 4677SOL    HW115631   3.320   5.345   3.235
 4677SOL    HW215632   3.194   5.260   3.294
 4678SOL     OW15633   2.308   4.013   3.484
 4678SOL    HW115634   2.398   3.984   3.450
 4678SOL    HW215635   2.237   3.968   3.430
 4679SOL     OW15636   2.995   5.037   3.562
 4679SOL    HW115637   3.075   4.981   3.583
 4679SOL    HW215638   2.917   4.978   3.539
 4680SOL     OW15639   2.068   5.263   2.357
 4680SOL    HW115640   2.162   5.296   2.348
 4680SOL    HW215641   2.065   5.189   2.424
 4681SOL     OW15642   2.160   4.893   2.733
 4681SOL    HW115643   2.224   4.862   2.803
 4681SOL    HW215644   2.094   4.956   2.774
 4682SOL     OW15645   2.418   5.603   3.278
 4682SOL    HW115646   2.340   5.564   3.328
 4682SOL    HW215647   2.443   5.691   3.319
 4683SOL     OW15648   2.405   4.747   1.984
 4683SOL    HW115649   2.435   4.809   1.911
 4683SOL    HW215650   2.461   4.762   2.065
 4684SOL     OW15651   3.412   3.922   3.311
 4684SOL    HW115652   3.488   3.986   3.310
 4684SOL    HW215653   3.381   3.909   3.406
 4685SOL     OW15654   2.057   4.489   2.447
 4685SOL    HW115655   2.064   4.411   2.509
 4685SOL    HW215656   2.045   4.573   2.500
 4686SOL     OW15657   3.703   5.437   2.145
 4686SOL    HW115658   3.781   5.415   2.203
 4686SOL    HW215659   3.704   5.534   2.122
 4687SOL     OW15660   1.855   5.329   1.987
 4687SOL    HW115661   1.793   5.254   1.965
 4687SOL    HW215662   1.857   5.344   2.086
 4688SOL     OW15663   3.556   4.682   2.507
 4688SOL    HW115664   3.653   4.665   2.525
 4688SOL    HW215665   3.545   4.725   2.417
 4689SOL     OW15666   3.512   4.841   2.266
 4689SOL    HW115667   3.600   4.808   2.232
 4689SOL    HW215668   3.527   4.912   2.335
 4690SOL     OW15669   2.478   5.107   2.609
 4690SOL    HW115670   2.426   5.025   2.586
 4690SOL    HW215671   2.505   5.154   2.526
 4691SOL     OW15672   3.111   4.958   3.251
 4691SOL    HW115673   3.148   4.906   3.174
 4691SOL    HW215674   3.177   4.959   3.325
 4692SOL     OW15675   2.068   4.859   3.077
 4692SOL    HW115676   2.164   4.868   3.050
 4692SOL    HW215677   2.030   4.776   3.038
 4693SOL     OW15678   3.430   4.740   2.010
 4693SOL    HW115679   3.369   4.663   2.030
 4693SOL    HW215680   3.473   4.772   2.095
 4694SOL     OW15681   3.009   5.521   3.450
 4694SOL    HW115682   3.080   5.573   3.403
 4694SOL    HW215683   3.030   5.423   3.445
 4695SOL     OW15684   2.191   3.917   3.717
 4695SOL    HW115685   2.243   3.968   3.648
 4695SOL    HW215686   2.098   3.952   3.722
 4696SOL     OW15687   3.325   5.146   2.771
 4696SOL    HW115688   3.258   5.154   2.845
 4696SOL    HW215689   3.328   5.052   2.739
 4697SOL     OW15690   3.535   5.524   2.415
 4697SOL    HW115691   3.497   5.481   2.333
 4697SOL    HW215692   3.545   5.456   2.488
 4698SOL     OW15693   2.448   4.481   2.099
 4698SOL    HW115694   2.444   4.564   2.044
 4698SOL    HW215695   2.413   4.500   2.191
 4699SOL     OW15696   3.445   5.369   2.195
 4699SOL    HW115697   3.539   5.391   2.169
 4699SOL    HW215698   3.411   5.296   2.137
 4700SOL     OW15699   2.669   4.135   3.284
 4700SOL    HW115700   2.656   4.145   3.383
 4700SOL    HW215701   2.582   4.112   3.241
 4701SOL     OW15702   3.317   4.170   3.563
 4701SOL    HW115703   3.287   4.163   3.658
 4701SOL    HW215704   3.416   4.154   3.558
 4702SOL     OW15705   2.871   4.067   3.113
 4702SOL    HW115706   2.806   4.100   3.183
 4702SOL    HW215707   2.824   4.002   3.053
 4703SOL     OW15708   2.882   4.431   2.234
 4703SOL    HW115709   2.883   4.465   2.329
 4703SOL    HW215710   2.800   4.377   2.218
 4704SOL     OW15711   2.011   4.697   2.612
 4704SOL    HW115712   2.075   4.762   2.654
 4704SOL    HW215713   1.925   4.697   2.665
 4705SOL     OW15714   1.936   5.589   3.470
 4705SOL    HW115715   1.963   5.556   3.561
 4705SOL    HW215716   1.839   5.571   3.455
 4706SOL     OW15717   2.709   4.074   2.001
 4706SOL    HW115718   2.768   4.139   1.953
 4706SOL    HW215719   2.761   4.031   2.075
 4707SOL     OW15720   3.229   4.818   2.296
 4707SOL    HW115721   3.327   4.826   2.278
 4707SOL    HW215722   3.183   4.903   2.270
 4708SOL     OW15723   2.891   5.217   2.299
 4708SOL    HW115724   2.859   5.289   2.238
 4708SOL    HW215725   2.868   5.240   2.394
 4709SOL     OW15726   2.216   5.535   2.718
 4709SOL    HW115727   2.261   5.446   2.724
 4709SOL    HW215728   2.279   5.607   2.748
 4710SOL     OW15729   3.594   4.760   2.785
 4710SOL    HW115730   3.547   4.757   2.697
 4710SOL    HW215731   3.533   4.795   2.855
 4711SOL     OW15732   3.057   5.258   3.405
 4711SOL    HW115733   3.062   5.186   3.475
 4711SOL    HW215734   2.995   5.229   3.332
 4712SOL     OW15735   2.140   4.673   2.108
 4712SOL    HW115736   2.219   4.703   2.054
 4712SOL    HW215737   2.111   4.582   2.077
 4713SOL     OW15738   3.340   4.529   2.555
 4713SOL    HW115739   3.353   4.477   2.639
 4713SOL    HW215740   3.420   4.586   2.538
 4714SOL     OW15741   2.365   5.006   3.579
 4714SOL    HW115742   2.329   5.008   3.485
 4714SOL    HW215743   2.290   5.020   3.644
 4715SOL     OW15744   3.017   5.500   2.065
 4715SOL    HW115745   2.930   5.490   2.114
 4715SOL    HW215746   3.017   5.441   1.985
 4716SOL     OW15747   2.084   3.907   3.367
 4716SOL    HW115748   2.038   3.995   3.355
 4716SOL    HW215749   2.017   3.839   3.397
 4717SOL     OW15750   2.319   5.341   2.275
 4717SOL    HW115751   2.341   5.439   2.285
 4717SOL    HW215752   2.320   5.317   2.178
 4718SOL     OW15753   3.204   3.838   2.101
 4718SOL    HW115754   3.127   3.801   2.049
 4718SOL    HW215755   3.272   3.766   2.115
 4719SOL     OW15756   2.050   5.504   3.066
 4719SOL    HW115757   2.118   5.438   3.097
 4719SOL    HW215758   2.038   5.496   2.967
 4720SOL     OW15759   2.811   5.469   2.735
 4720SOL    HW115760   2.902   5.454   2.775
 4720SOL    HW215761   2.797   5.403   2.660
 4721SOL     OW15762   2.311   4.441   2.346
 4721SOL    HW115763   2.298   4.359   2.290
 4721SOL    HW215764   2.222   4.474   2.377
 4722SOL     OW15765   3.374   3.855   3.580
 4722SOL    HW115766   3.377   3.866   3.679
 4722SOL    HW215767   3.304   3.788   3.556
 4723SOL     OW15768   2.554   3.818   1.987
 4723SOL    HW115769   2.606   3.904   1.989
 4723SOL    HW215770   2.512   3.807   1.897
 4724SOL     OW15771   2.678   3.879   3.643
 4724SOL    HW115772   2.772   3.848   3.627
 4724SOL    HW215773   2.629   3.811   3.698
 4725SOL     OW15774   2.713   5.268   3.056
 4725SOL    HW115775   2.690   5.216   2.974
 4725SOL    HW215776   2.792   5.226   3.101
 4726SOL     OW15777   2.655   5.105   2.822
 4726SOL    HW115778   2.744   5.106   2.775
 4726SOL    HW215779   2.582   5.117   2.755
 4727SOL     OW15780   3.202   4.895   1.984
 4727SOL    HW115781   3.282   4.836   1.986
 4727SOL    HW215782   3.220   4.978   2.037
 4728SOL     OW15783   2.150   3.776   2.065
 4728SOL    HW115784   2.194   3.866   2.075
 4728SOL    HW215785   2.218   3.704   2.077
 4729SOL     OW15786   2.884   3.979   2.180
 4729SOL    HW115787   2.896   3.885   2.212
 4729SOL    HW215788   2.969   4.030   2.193
 4730SOL     OW15789   3.103   5.240   2.611
 4730SOL    HW115790   3.082   5.317   2.671
 4730SOL    HW215791   3.188   5.197   2.641
 4731SOL     OW15792   2.338   4.890   2.520
 4731SOL    HW115793   2.276   4.879   2.599
 4731SOL    HW215794   2.285   4.883   2.436
 4732SOL     OW15795   2.889   4.247   1.886
 4732SOL    HW115796   2.835   4.327   1.859
 4732SOL    HW215797   2.965   4.275   1.943
 4733SOL     OW15798   1.983   4.164   3.328
 4733SOL    HW115799   2.063   4.167   3.268
 4733SOL    HW215800   2.010   4.192   3.421
 4734SOL     OW15801   2.407   3.792   3.060
 4734SOL    HW115802   2.421   3.734   3.140
 4734SOL    HW215803   2.311   3.820   3.056
 4735SOL     OW15804   3.343   4.914   2.625
 4735SOL    HW115805   3.280   4.850   2.581
 4735SOL    HW215806   3.423   4.927   2.567
 4736SOL     OW15807   3.684   4.476   2.276
 4736SOL    HW115808   3.763   4.459   2.335
 4736SOL    HW215809   3.687   4.415   2.197
 4737SOL     OW15810   2.315   5.222   2.018
 4737SOL    HW115811   2.243   5.170   2.064
 4737SOL    HW215812   2.318   5.197   1.921
 4738SOL     OW15813   3.573   4.998   2.479
 4738SOL    HW115814   3.671   4.980   2.493
 4738SOL    HW215815   3.552   5.091   2.508
 4739SOL     OW15816   3.263   4.330   1.867
 4739SOL    HW115817   3.209   4.339   1.950
 4739SOL    HW215818   3.360   4.341   1.889
 4740SOL     OW15819   2.301   4.006   2.078
 4740SOL    HW115820   2.391   3.980   2.111
 4740SOL    HW215821   2.284   4.102   2.100
 4741SOL     OW15822   3.593   5.014   3.394
 4741SOL    HW115823   3.666   4.960   3.352
 4741SOL    HW215824   3.627   5.107   3.412
 4742SOL     OW15825   2.896   5.132   3.226
 4742SOL    HW115826   2.810   5.092   3.257
 4742SOL    HW215827   2.969   5.063   3.229
 4743SOL     OW15828   3.487   5.369   3.522
 4743SOL    HW115829   3.455   5.404   3.434
 4743SOL    HW215830   3.577   5.327   3.512
 4744SOL     OW15831   2.960   4.997   2.946
 4744SOL    HW115832   2.886   4.959   3.002
 4744SOL    HW215833   2.924   5.023   2.856
 4745SOL     OW15834   3.434   4.874   2.972
 4745SOL    HW115835   3.456   4.942   3.042
 4745SOL    HW215836   3.337   4.851   2.977
 4746SOL     OW15837   2.793   3.802   3.297
 4746SOL    HW115838   2.809   3.757   3.209
 4746SOL    HW215839   2.875   3.853   3.324
 4747SOL     OW15840   2.770   4.898   3.503
 4747SOL    HW115841   2.709   4.871   3.578
 4747SOL    HW215842   2.715   4.932   3.426
 4748SOL     OW15843   2.596   4.783   2.176
 4748SOL    HW115844   2.595   4.776   2.275
 4748SOL    HW215845   2.661   4.717   2.138
 4749SOL     OW15846   3.139   4.062   3.106
 4749SOL    HW115847   3.172   4.138   3.162
 4749SOL    HW215848   3.039   4.066   3.099
 4750SOL     OW15849   1.947   5.291   3.245
 4750SOL    HW115850   1.922   5.381   3.208
 4750SOL    HW215851   2.046   5.281   3.244
 4751SOL     OW15852   2.172   4.879   2.300
 4751SOL    HW115853   2.161   4.955   2.237
 4751SOL    HW215854   2.161   4.793   2.251
 4752SOL     OW15855   3.121   5.075   2.246
 4752SOL    HW115856   3.197   5.125   2.288
 4752SOL    HW215857   3.034   5.116   2.275
 4753SOL     OW15858   3.149   5.201   2.974
 4753SOL    HW115859   3.186   5.221   3.065
 4753SOL    HW215860   3.077   5.132   2.982
 4754SOL     OW15861   3.451   4.352   2.362
 4754SOL    HW115862   3.390   4.407   2.419
 4754SOL    HW215863   3.529   4.408   2.332
 4755SOL     OW15864   2.213   5.285   3.169
 4755SOL    HW115865   2.213   5.229   3.087
 4755SOL    HW215866   2.306   5.320   3.185
 4756SOL     OW15867   2.942   3.835   3.603
 4756SOL    HW115868   2.980   3.922   3.574
 4756SOL    HW215869   3.010   3.763   3.592
 4757SOL     OW15870   2.300   3.693   3.604
 4757SOL    HW115871   2.237   3.644   3.545
 4757SOL    HW215872   2.254   3.772   3.644
 4758SOL     OW15873   2.329   4.807   2.929
 4758SOL    HW115874   2.425   4.831   2.921
 4758SOL    HW215875   2.320   4.711   2.957
 4759SOL     OW15876   3.086   4.329   2.088
 4759SOL    HW115877   3.110   4.239   2.124
 4759SOL    HW215878   3.012   4.369   2.142
 4760SOL     OW15879   2.145   3.842   3.109
 4760SOL    HW115880   2.135   3.871   3.204
 4760SOL    HW215881   2.107   3.750   3.098
 4761SOL     OW15882   1.890   5.072   3.080
 4761SOL    HW115883   1.947   4.991   3.096
 4761SOL    HW215884   1.906   5.139   3.152
 4762SOL     OW15885   3.517   4.128   2.223
 4762SOL    HW115886   3.573   4.068   2.280
 4762SOL    HW215887   3.485   4.206   2.277
 4763SOL     OW15888   2.845   5.257   3.648
 4763SOL    HW115889   2.796   5.307   3.577
 4763SOL    HW215890   2.885   5.173   3.609
 4764SOL     OW15891   3.733   5.255   3.425
 4764SOL    HW115892   3.766   5.289   3.337
 4764SOL    HW215893   3.810   5.239   3.486
 4765SOL     OW15894   3.408   4.008   1.999
 4765SOL    HW115895   3.337   3.946   2.033
 4765SOL    HW215896   3.452   4.053   2.077
 4766SOL     OW15897   2.889   5.085   2.684
 4766SOL    HW115898   2.904   4.989   2.661
 4766SOL    HW215899   2.966   5.140   2.652
 4767SOL     OW15900   3.071   4.067   3.502
 4767SOL    HW115901   3.016   4.112   3.572
 4767SOL    HW215902   3.165   4.102   3.505
 4768SOL     OW15903   3.070   3.878   3.311
 4768SOL    HW115904   3.068   3.951   3.379
 4768SOL    HW215905   3.101   3.915   3.223
 4769SOL     OW15906   1.868   5.003   2.035
 4769SOL    HW115907   1.779   5.044   2.014
 4769SOL    HW215908   1.855   4.911   2.071
 4770SOL     OW15909   1.960   5.495   2.803
 4770SOL    HW115910   1.916   5.416   2.760
 4770SOL    HW215911   2.049   5.510   2.761
 4771SOL     OW15912   2.359   5.303   2.757
 4771SOL    HW115913   2.431   5.366   2.785
 4771SOL    HW215914   2.397   5.233   2.697
 4772SOL     OW15915   1.831   4.224   3.091
 4772SOL    HW115916   1.889   4.159   3.042
 4772SOL    HW215917   1.870   4.241   3.182
 4773SOL     OW15918   2.114   4.185   3.572
 4773SOL    HW115919   2.195   4.137   3.538
 4773SOL    HW215920   2.142   4.274   3.610
 4774SOL     OW15921   2.656   4.307   2.159
 4774SOL    HW115922   2.652   4.222   2.106
 4774SOL    HW215923   2.582   4.368   2.130
 4775SOL     OW15924   2.124   5.282   3.559
 4775SOL    HW115925   2.090   5.353   3.621
 4775SOL    HW215926   2.135   5.196   3.609
 4776SOL     OW15927   2.464   4.058   3.108
 4776SOL    HW115928   2.454   3.960   3.094
 4776SOL    HW215929   2.527   4.095   3.040
 4777SOL     OW15930   2.743   5.425   3.445
 4777SOL    HW115931   2.713   5.394   3.355
 4777SOL    HW215932   2.830   5.474   3.436
 4778SOL     OW15933   2.267   4.274   2.120
 4778SOL    HW115934   2.342   4.335   2.093
 4778SOL    HW215935   2.181   4.312   2.088
 4779SOL     OW15936   1.977   4.928   3.347
 4779SOL    HW115937   1.980   4.888   3.438
 4779SOL    HW215938   2.014   4.863   3.280
 4780SOL     OW15939   3.165   4.828   3.001
 4780SOL    HW115940   3.139   4.736   2.973
 4780SOL    HW215941   3.094   4.893   2.974
 4781SOL     OW15942   3.240   4.574   2.111
 4781SOL    HW115943   3.202   4.637   2.179
 4781SOL    HW215944   3.184   4.491   2.108
 4782SOL     OW15945   3.605   5.484   3.029
 4782SOL    HW115946   3.667   5.517   2.958
 4782SOL    HW215947   3.566   5.396   3.001
 4783SOL     OW15948   3.072   5.418   2.815
 4783SOL    HW115949   3.138   5.494   2.816
 4783SOL    HW215950   3.097   5.351   2.885
 4784SOL     OW15951   1.988   5.083   2.823
 4784SOL    HW115952   1.943   5.072   2.912
 4784SOL    HW215953   1.935   5.146   2.767
 4785SOL     OW15954   2.544   5.428   3.637
 4785SOL    HW115955   2.475   5.500   3.626
 4785SOL    HW215956   2.618   5.444   3.572
 4786SOL     OW15957   3.290   5.249   2.387
 4786SOL    HW115958   3.326   5.311   2.317
 4786SOL    HW215959   3.209   5.290   2.429
 4787SOL     OW15960   2.016   5.486   3.709
 4787SOL    HW115961   1.964   5.414   3.753
 4787SOL    HW215962   2.065   5.540   3.778
 4788SOL     OW15963   3.123   4.686   2.509
 4788SOL    HW115964   3.194   4.619   2.531
 4788SOL    HW215965   3.148   4.735   2.426
 4789SOL     OW15966   2.642   5.030   3.291
 4789SOL    HW115967   2.617   5.088   3.369
 4789SOL    HW215968   2.571   5.038   3.221
 4790SOL     OW15969   2.564   5.353   2.023
 4790SOL    HW115970   2.620   5.283   1.979
 4790SOL    HW215971   2.469   5.322   2.026
 4791SOL     OW15972   3.437   5.474   3.260
 4791SOL    HW115973   3.493   5.472   3.177
 4791SOL    HW215974   3.452   5.560   3.309
 4792SOL     OW15975   3.639   3.871   2.932
 4792SOL    HW115976   3.645   3.792   2.871
 4792SOL    HW215977   3.543   3.898   2.943
 4793SOL     OW15978   2.993   5.322   1.858
 4793SOL    HW115979   2.986   5.237   1.911
 4793SOL    HW215980   2.940   5.313   1.774
 4794SOL     OW15981   2.777   4.861   3.114
 4794SOL    HW115982   2.832   4.798   3.169
 4794SOL    HW215983   2.721   4.918   3.175
 4795SOL     OW15984   2.778   4.614   2.056
 4795SOL    HW115985   2.842   4.687   2.033
 4795SOL    HW215986   2.821   4.550   2.119
 4796SOL     OW15987   2.229   5.048   3.346
 4796SOL    HW115988   2.238   5.132   3.292
 4796SOL    HW215989   2.134   5.018   3.346
 4797SOL     OW15990   3.445   5.072   3.164
 4797SOL    HW115991   3.496   5.045   3.246
 4797SOL    HW215992   3.369   5.132   3.190
 4798SOL     OW15993   2.928   4.825   2.646
 4798SOL    HW115994   2.850   4.764   2.660
 4798SOL    HW215995   3.001   4.775   2.600
 4799SOL     OW15996   2.758   3.878   2.948
 4799SOL    HW115997   2.791   3.875   2.854
 4799SOL    HW215998   2.784   3.794   2.996
 4800SOL     OW15999   2.546   5.225   2.377
 4800SOL    HW116000   2.583   5.166   2.305
 4800SOL    HW216001   2.464   5.271   2.344
 4801SOL     OW16002   3.651   4.058   3.320
 4801SOL    HW116003   3.725   4.124   3.309
 4801SOL    HW216004   3.673   3.974   3.270
 4802SOL     OW16005   2.103   5.095   2.142
 4802SOL    HW116006   2.019   5.065   2.097
 4802SOL    HW216007   2.081   5.162   2.212
 4803SOL     OW16008   1.961   4.850   3.615
 4803SOL    HW116009   1.868   4.838   3.650
 4803SOL    HW216010   2.017   4.773   3.642
 4804SOL     OW16011   2.538   3.854   3.404
 4804SOL    HW116012   2.616   3.855   3.341
 4804SOL    HW216013   2.572   3.864   3.498
 4805SOL     OW16014   1.990   4.097   1.797
 4805SOL    HW116015   1.896   4.090   1.763
 4805SOL    HW216016   2.024   4.190   1.785
 4806SOL     OW16017   1.935   3.954   2.036
 4806SOL    HW116018   1.959   4.004   1.952
 4806SOL    HW216019   2.002   3.882   2.053
 4807SOL     OW16020   2.961   5.095   2.007
 4807SOL    HW116021   2.944   4.997   1.999
 4807SOL    HW216022   3.022   5.112   2.085
 4808SOL     OW16023   3.296   5.599   2.793
 4808SOL    HW116024   3.335   5.683   2.755
 4808SOL    HW216025   3.366   5.527   2.793
 4809SOL     OW16026   2.618   4.136   3.554
 4809SOL    HW116027   2.574   4.186   3.628
 4809SOL    HW216028   2.644   4.045   3.586
 4810SOL     OW16029   3.306   4.963   3.456
 4810SOL    HW116030   3.291   4.951   3.555
 4810SOL    HW216031   3.404   4.974   3.439
 4811SOL     OW16032   2.208   5.510   3.431
 4811SOL    HW116033   2.117   5.551   3.422
 4811SOL    HW216034   2.199   5.415   3.461
 4812SOL     OW16035   3.144   4.085   2.204
 4812SOL    HW116036   3.169   3.997   2.163
 4812SOL    HW216037   3.210   4.109   2.274
 4813SOL     OW16038   2.504   4.541   2.526
 4813SOL    HW116039   2.525   4.624   2.474
 4813SOL    HW216040   2.439   4.485   2.474
 4814SOL     OW16041   3.578   4.052   3.580
 4814SOL    HW116042   3.607   4.059   3.485
 4814SOL    HW216043   3.515   3.975   3.591
 4815SOL     OW16044   2.686   5.122   1.938
 4815SOL    HW116045   2.664   5.097   2.032
 4815SOL    HW216046   2.785   5.125   1.926
 4816SOL     OW16047   2.545   5.487   2.811
 4816SOL    HW116048   2.512   5.581   2.803
 4816SOL    HW216049   2.644   5.485   2.797
 4817SOL     OW16050   2.695   4.677   2.678
 4817SOL    HW116051   2.627   4.611   2.647
 4817SOL    HW216052   2.661   4.724   2.759
 4818SOL     OW16053   2.937   4.821   1.979
 4818SOL    HW116054   2.894   4.828   1.889
 4818SOL    HW216055   3.036   4.833   1.970
 4819SOL     OW16056   3.709   5.274   2.758
 4819SOL    HW116057   3.658   5.261   2.673
 4819SOL    HW216058   3.652   5.246   2.835
 4820SOL     OW16059   2.127   5.049   3.709
 4820SOL    HW116060   2.061   4.986   3.670
 4820SOL    HW216061   2.116   5.052   3.808
 4821SOL     OW16062   2.040   5.029   2.500
 4821SOL    HW116063   2.072   4.996   2.589
 4821SOL    HW216064   2.070   4.966   2.428
 4822SOL     OW16065   2.563   5.175   3.507
 4822SOL    HW116066   2.487   5.116   3.536
 4822SOL    HW216067   2.555   5.264   3.552
 4823SOL     OW16068   3.714   3.836   3.188
 4823SOL    HW116069   3.764   3.751   3.203
 4823SOL    HW216070   3.690   3.844   3.091
 4824SOL     OW16071   3.517   5.235   2.951
 4824SOL    HW116072   3.446   5.206   2.887
 4824SOL    HW216073   3.517   5.174   3.030
 4825SOL     OW16074   2.200   4.136   3.171
 4825SOL    HW116075   2.297   4.118   3.158
 4825SOL    HW216076   2.151   4.118   3.085
 4826SOL     OW16077   2.763   5.286   2.537
 4826SOL    HW116078   2.680   5.274   2.483
 4826SOL    HW216079   2.783   5.201   2.586
 4827SOL     OW16080   3.371   3.931   3.034
 4827SOL    HW116081   3.399   3.919   3.130
 4827SOL    HW216082   3.287   3.984   3.031
 4828SOL     OW16083   2.844   3.651   3.079
 4828SOL    HW116084   2.798   3.565   3.104
 4828SOL    HW216085   2.928   3.631   3.030
 4829SOL     OW16086   2.663   5.052   2.198
 4829SOL    HW116087   2.641   4.955   2.193
 4829SOL    HW216088   2.756   5.064   2.233
 4830SOL     OW16089   2.479   5.357   3.166
 4830SOL    HW116090   2.472   5.451   3.200
 4830SOL    HW216091   2.567   5.345   3.120
 4831SOL     OW16092   3.223   3.730   1.805
 4831SOL    HW116093   3.275   3.648   1.829
 4831SOL    HW216094   3.128   3.719   1.835
 4832SOL     OW16095   1.877   4.747   2.174
 4832SOL    HW116096   1.971   4.738   2.142
 4832SOL    HW216097   1.844   4.659   2.208
 4833SOL     OW16098   2.769   5.449   2.185
 4833SOL    HW116099   2.694   5.420   2.126
 4833SOL    HW216100   2.735   5.514   2.253
 4834SOL     OW16101   2.017   4.065   4.775
 4834SOL    HW116102   2.074   4.010   4.837
 4834SOL    HW216103   1.949   4.007   4.732
 4835SOL     OW16104   2.418   5.057   4.977
 4835SOL    HW116105   2.334   5.053   4.923
 4835SOL    HW216106   2.437   5.152   5.003
 4836SOL     OW16107   3.457   5.227   4.414
 4836SOL    HW116108   3.416   5.192   4.499
 4836SOL    HW216109   3.386   5.255   4.351
 4837SOL     OW16110   2.917   4.492   4.476
 4837SOL    HW116111   2.966   4.551   4.411
 4837SOL    HW216112   2.898   4.544   4.560
 4838SOL     OW16113   2.565   4.898   4.805
 4838SOL    HW116114   2.506   4.932   4.878
 4838SOL    HW216115   2.606   4.975   4.756
 4839SOL     OW16116   2.731   4.447   5.605
 4839SOL    HW116117   2.730   4.503   5.688
 4839SOL    HW216118   2.746   4.506   5.525
 4840SOL     OW16119   2.561   4.724   4.389
 4840SOL    HW116120   2.619   4.739   4.470
 4840SOL    HW216121   2.482   4.785   4.393
 4841SOL     OW16122   2.541   4.891   5.602
 4841SOL    HW116123   2.578   4.937   5.682
 4841SOL    HW216124   2.482   4.953   5.551
 4842SOL     OW16125   2.196   5.111   4.817
 4842SOL    HW116126   2.124   5.052   4.780
 4842SOL    HW216127   2.240   5.160   4.742
 4843SOL     OW16128   3.299   5.244   5.118
 4843SOL    HW116129   3.355   5.324   5.142
 4843SOL    HW216130   3.219   5.240   5.177
 4844SOL     OW16131   2.331   4.094   5.156
 4844SOL    HW116132   2.411   4.045   5.189
 4844SOL    HW216133   2.248   4.047   5.187
 4845SOL     OW16134   2.090   5.444   4.189
 4845SOL    HW116135   2.108   5.515   4.257
 4845SOL    HW216136   2.167   5.438   4.126
 4846SOL     OW16137   2.960   5.081   5.482
 4846SOL    HW116138   3.015   5.059   5.562
 4846SOL    HW216139   2.896   5.006   5.465
 4847SOL     OW16140   2.116   5.163   4.218
 4847SOL    HW116141   2.093   5.259   4.232
 4847SOL    HW216142   2.068   5.107   4.286
 4848SOL     OW16143   2.135   4.822   4.561
 4848SOL    HW116144   2.146   4.725   4.580
 4848SOL    HW216145   2.090   4.866   4.639
 4849SOL     OW16146   2.390   5.563   5.154
 4849SOL    HW116147   2.317   5.540   5.218
 4849SOL    HW216148   2.450   5.631   5.195
 4850SOL     OW16149   2.474   4.849   3.969
 4850SOL    HW116150   2.507   4.843   3.875
 4850SOL    HW216151   2.547   4.823   4.032
 4851SOL     OW16152   3.436   3.887   5.181
 4851SOL    HW116153   3.515   3.948   5.172
 4851SOL    HW216154   3.393   3.901   5.270
 4852SOL     OW16155   3.726   5.483   4.022
 4852SOL    HW116156   3.721   5.468   4.121
 4852SOL    HW216157   3.760   5.576   4.005
 4853SOL     OW16158   1.898   5.282   3.833
 4853SOL    HW116159   1.873   5.186   3.846
 4853SOL    HW216160   1.874   5.334   3.915
 4854SOL     OW16161   3.522   4.628   4.336
 4854SOL    HW116162   3.610   4.621   4.383
 4854SOL    HW216163   3.527   4.700   4.267
 4855SOL     OW16164   3.541   4.851   4.171
 4855SOL    HW116165   3.629   4.838   4.126
 4855SOL    HW216166   3.554   4.904   4.254
 4856SOL     OW16167   1.943   4.509   5.260
 4856SOL    HW116168   2.009   4.558   5.203
 4856SOL    HW216169   1.856   4.557   5.260
 4857SOL     OW16170   2.473   5.095   4.469
 4857SOL    HW116171   2.425   5.009   4.449
 4857SOL    HW216172   2.483   5.147   4.384
 4858SOL     OW16173   3.093   4.945   5.180
 4858SOL    HW116174   3.109   4.882   5.104
 4858SOL    HW216175   3.172   4.944   5.242
 4859SOL     OW16176   2.630   3.714   4.156
 4859SOL    HW116177   2.702   3.779   4.132
 4859SOL    HW216178   2.541   3.760   4.153
 4860SOL     OW16179   2.074   4.674   5.077
 4860SOL    HW116180   2.165   4.637   5.060
 4860SOL    HW216181   2.026   4.687   4.990
 4861SOL     OW16182   3.360   4.834   3.956
 4861SOL    HW116183   3.276   4.829   4.011
 4861SOL    HW216184   3.439   4.837   4.017
 4862SOL     OW16185   3.100   5.583   5.386
 4862SOL    HW116186   3.082   5.645   5.310
 4862SOL    HW216187   3.088   5.488   5.356
 4863SOL     OW16188   2.217   3.999   5.595
 4863SOL    HW116189   2.255   4.075   5.648
 4863SOL    HW216190   2.131   4.026   5.554
 4864SOL     OW16191   3.345   5.109   4.640
 4864SOL    HW116192   3.289   5.151   4.712
 4864SOL    HW216193   3.315   5.015   4.625
 4865SOL     OW16194   3.601   5.426   4.272
 4865SOL    HW116195   3.541   5.412   4.194
 4865SOL    HW216196   3.572   5.367   4.348
 4866SOL     OW16197   3.257   4.153   4.740
 4866SOL    HW116198   3.200   4.100   4.677
 4866SOL    HW216199   3.284   4.094   4.817
 4867SOL     OW16200   3.464   5.394   4.026
 4867SOL    HW116201   3.554   5.434   4.007
 4867SOL    HW216202   3.416   5.379   3.939
 4868SOL     OW16203   2.645   4.283   5.208
 4868SOL    HW116204   2.609   4.252   5.296
 4868SOL    HW216205   2.622   4.217   5.137
 4869SOL     OW16206   3.229   4.192   5.383
 4869SOL    HW116207   3.233   4.243   5.469
 4869SOL    HW216208   3.278   4.106   5.393
 4870SOL     OW16209   2.784   4.604   5.381
 4870SOL    HW116210   2.838   4.538   5.329
 4870SOL    HW216211   2.727   4.658   5.318
 4871SOL     OW16212   2.841   4.071   4.859
 4871SOL    HW116213   2.759   4.104   4.905
 4871SOL    HW216214   2.838   3.971   4.853
 4872SOL     OW16215   1.905   4.595   4.521
 4872SOL    HW116216   1.997   4.565   4.542
 4872SOL    HW216217   1.877   4.666   4.585
 4873SOL     OW16218   1.930   5.627   5.277
 4873SOL    HW116219   1.857   5.603   5.342
 4873SOL    HW216220   1.890   5.644   5.187
 4874SOL     OW16221   2.761   4.045   3.843
 4874SOL    HW116222   2.842   4.097   3.815
 4874SOL    HW216223   2.733   3.983   3.770
 4875SOL     OW16224   3.502   4.305   5.575
 4875SOL    HW116225   3.495   4.387   5.519
 4875SOL    HW216226   3.535   4.229   5.519
 4876SOL     OW16227   3.198   4.871   4.182
 4876SOL    HW116228   3.292   4.878   4.216
 4876SOL    HW216229   3.157   4.962   4.175
 4877SOL     OW16230   2.861   5.245   4.207
 4877SOL    HW116231   2.841   5.310   4.133
 4877SOL    HW216232   2.817   5.275   4.291
 4878SOL     OW16233   2.208   5.508   4.609
 4878SOL    HW116234   2.247   5.416   4.613
 4878SOL    HW216235   2.277   5.575   4.635
 4879SOL     OW16236   3.662   4.849   4.630
 4879SOL    HW116237   3.624   4.898   4.551
 4879SOL    HW216238   3.593   4.843   4.701
 4880SOL     OW16239   3.059   5.245   5.262
 4880SOL    HW116240   3.044   5.189   5.343
 4880SOL    HW216241   2.996   5.216   5.189
 4881SOL     OW16242   3.289   4.588   4.461
 4881SOL    HW116243   3.294   4.517   4.531
 4881SOL    HW216244   3.375   4.592   4.411
 4882SOL     OW16245   2.361   5.054   5.461
 4882SOL    HW116246   2.319   5.061   5.371
 4882SOL    HW216247   2.289   5.042   5.530
 4883SOL     OW16248   3.002   5.495   3.929
 4883SOL    HW116249   2.910   5.477   3.963
 4883SOL    HW216250   3.031   5.421   3.869
 4884SOL     OW16251   2.083   3.980   5.210
 4884SOL    HW116252   2.037   4.066   5.230
 4884SOL    HW216253   2.038   3.905   5.259
 4885SOL     OW16254   3.463   5.117   3.791
 4885SOL    HW116255   3.433   5.212   3.781
 4885SOL    HW216256   3.387   5.055   3.768
 4886SOL     OW16257   2.328   5.471   4.043
 4886SOL    HW116258   2.372   5.527   4.113
 4886SOL    HW216259   2.397   5.421   3.992
 4887SOL     OW16260   3.282   3.731   4.151
 4887SOL    HW116261   3.234   3.730   4.064
 4887SOL    HW216262   3.359   3.796   4.146
 4888SOL     OW16263   2.072   5.525   4.938
 4888SOL    HW116264   2.123   5.446   4.974
 4888SOL    HW216265   2.041   5.504   4.845
 4889SOL     OW16266   2.793   5.440   4.597
 4889SOL    HW116267   2.883   5.398   4.592
 4889SOL    HW216268   2.736   5.406   4.521
 4890SOL     OW16269   3.337   3.936   5.439
 4890SOL    HW116270   3.345   3.952   5.537
 4890SOL    HW216271   3.276   3.858   5.422
 4891SOL     OW16272   2.500   3.733   3.787
 4891SOL    HW116273   2.515   3.643   3.830
 4891SOL    HW216274   2.425   3.726   3.721
 4892SOL     OW16275   2.608   3.978   5.541
 4892SOL    HW116276   2.697   3.935   5.529
 4892SOL    HW216277   2.549   3.918   5.596
 4893SOL     OW16278   2.699   5.257   4.927
 4893SOL    HW116279   2.682   5.215   4.838
 4893SOL    HW216280   2.768   5.203   4.976
 4894SOL     OW16281   3.130   4.316   5.155
 4894SOL    HW116282   3.176   4.278   5.236
 4894SOL    HW216283   3.167   4.406   5.135
 4895SOL     OW16284   2.664   5.119   4.678
 4895SOL    HW116285   2.758   5.124   4.644
 4895SOL    HW216286   2.601   5.118   4.601
 4896SOL     OW16287   2.830   4.306   4.694
 4896SOL    HW116288   2.861   4.307   4.599
 4896SOL    HW216289   2.849   4.215   4.734
 4897SOL     OW16290   2.388   3.838   4.111
 4897SOL    HW116291   2.337   3.894   4.176
 4897SOL    HW216292   2.425   3.896   4.038
 4898SOL     OW16293   3.247   4.946   3.732
 4898SOL    HW116294   3.296   4.885   3.795
 4898SOL    HW216295   3.168   4.986   3.778
 4899SOL     OW16296   2.126   3.751   3.924
 4899SOL    HW116297   2.178   3.813   3.866
 4899SOL    HW216298   2.188   3.689   3.972
 4900SOL     OW16299   2.824   3.868   4.045
 4900SOL    HW116300   2.806   3.944   3.983
 4900SOL    HW216301   2.875   3.796   3.997
 4901SOL     OW16302   2.879   4.422   5.199
 4901SOL    HW116303   2.805   4.356   5.205
 4901SOL    HW216304   2.966   4.374   5.185
 4902SOL     OW16305   3.054   5.368   4.544
 4902SOL    HW116306   3.092   5.415   4.464
 4902SOL    HW216307   3.099   5.403   4.626
 4903SOL     OW16308   2.333   4.874   4.379
 4903SOL    HW116309   2.261   4.856   4.446
 4903SOL    HW216310   2.296   4.865   4.287
 4904SOL     OW16311   3.134   5.546   4.336
 4904SOL    HW116312   3.193   5.610   4.286
 4904SOL    HW216313   3.052   5.594   4.367
 4905SOL     OW16314   2.979   4.167   3.738
 4905SOL    HW116315   2.969   4.266   3.740
 4905SOL    HW216316   3.070   4.142   3.774
 4906SOL     OW16317   1.960   4.257   5.145
 4906SOL    HW116318   2.050   4.265   5.103
 4906SOL    HW216319   1.940   4.340   5.198
 4907SOL     OW16320   2.435   3.908   4.924
 4907SOL    HW116321   2.444   3.833   4.990
 4907SOL    HW216322   2.338   3.930   4.912
 4908SOL     OW16323   3.282   4.835   4.624
 4908SOL    HW116324   3.214   4.779   4.671
 4908SOL    HW216325   3.314   4.787   4.542
 4909SOL     OW16326   3.298   4.417   4.679
 4909SOL    HW116327   3.268   4.322   4.685
 4909SOL    HW216328   3.378   4.431   4.737
 4910SOL     OW16329   2.379   5.113   3.951
 4910SOL    HW116330   2.279   5.103   3.951
 4910SOL    HW216331   2.421   5.023   3.961
 4911SOL     OW16332   3.605   4.992   4.396
 4911SOL    HW116333   3.703   4.998   4.378
 4911SOL    HW216334   3.566   5.084   4.401
 4912SOL     OW16335   3.236   4.123   3.822
 4912SOL    HW116336   3.260   4.180   3.900
 4912SOL    HW216337   3.283   4.036   3.829
 4913SOL     OW16338   2.501   3.978   3.914
 4913SOL    HW116339   2.499   3.894   3.861
 4913SOL    HW216340   2.591   4.021   3.906
 4914SOL     OW16341   3.604   4.956   5.264
 4914SOL    HW116342   3.694   4.915   5.250
 4914SOL    HW216343   3.614   5.044   5.309
 4915SOL     OW16344   2.878   5.089   5.086
 4915SOL    HW116345   2.790   5.055   5.118
 4915SOL    HW216346   2.951   5.035   5.128
 4916SOL     OW16347   3.475   5.349   5.425
 4916SOL    HW116348   3.456   5.396   5.339
 4916SOL    HW216349   3.555   5.289   5.413
 4917SOL     OW16350   3.009   5.028   4.849
 4917SOL    HW116351   2.946   5.052   4.923
 4917SOL    HW216352   2.969   5.055   4.762
 4918SOL     OW16353   3.469   4.844   4.829
 4918SOL    HW116354   3.460   4.917   4.897
 4918SOL    HW216355   3.393   4.849   4.765
 4919SOL     OW16356   2.766   3.827   5.165
 4919SOL    HW116357   2.763   3.822   5.065
 4919SOL    HW216358   2.857   3.858   5.194
 4920SOL     OW16359   2.797   4.851   5.501
 4920SOL    HW116360   2.703   4.868   5.531
 4920SOL    HW216361   2.801   4.764   5.452
 4921SOL     OW16362   2.677   4.795   4.151
 4921SOL    HW116363   2.634   4.765   4.237
 4921SOL    HW216364   2.762   4.744   4.137
 4922SOL     OW16365   2.307   4.545   5.023
 4922SOL    HW116366   2.374   4.542   5.097
 4922SOL    HW216367   2.263   4.456   5.014
 4923SOL     OW16368   3.065   4.085   5.021
 4923SOL    HW116369   3.085   4.175   5.060
 4923SOL    HW216370   2.988   4.091   4.958
 4924SOL     OW16371   1.909   5.275   5.083
 4924SOL    HW116372   1.857   5.337   5.024
 4924SOL    HW216373   2.007   5.290   5.070
 4925SOL     OW16374   2.237   4.837   4.113
 4925SOL    HW116375   2.181   4.907   4.067
 4925SOL    HW216376   2.322   4.824   4.063
 4926SOL     OW16377   2.399   4.310   4.631
 4926SOL    HW116378   2.409   4.381   4.562
 4926SOL    HW216379   2.472   4.318   4.699
 4927SOL     OW16380   3.100   5.126   4.151
 4927SOL    HW116381   3.172   5.191   4.176
 4927SOL    HW216382   3.011   5.161   4.180
 4928SOL     OW16383   3.210   5.211   4.860
 4928SOL    HW116384   3.247   5.222   4.952
 4928SOL    HW216385   3.139   5.140   4.861
 4929SOL     OW16386   2.180   5.282   5.023
 4929SOL    HW116387   2.176   5.217   4.948
 4929SOL    HW216388   2.276   5.306   5.042
 4930SOL     OW16389   2.338   4.407   5.418
 4930SOL    HW116390   2.378   4.455   5.340
 4930SOL    HW216391   2.403   4.339   5.452
 4931SOL     OW16392   3.470   4.535   5.435
 4931SOL    HW116393   3.375   4.565   5.429
 4931SOL    HW216394   3.522   4.573   5.359
 4932SOL     OW16395   2.848   3.855   5.524
 4932SOL    HW116396   2.909   3.929   5.496
 4932SOL    HW216397   2.902   3.781   5.563
 4933SOL     OW16398   2.336   3.777   5.474
 4933SOL    HW116399   2.283   3.731   5.402
 4933SOL    HW216400   2.292   3.864   5.497
 4934SOL     OW16401   2.517   4.618   4.854
 4934SOL    HW116402   2.528   4.715   4.834
 4934SOL    HW216403   2.430   4.604   4.902
 4935SOL     OW16404   3.135   4.631   4.742
 4935SOL    HW116405   3.038   4.606   4.735
 4935SOL    HW216406   3.190   4.552   4.716
 4936SOL     OW16407   2.147   3.900   4.951
 4936SOL    HW116408   2.128   3.931   5.044
 4936SOL    HW216409   2.129   3.802   4.944
 4937SOL     OW16410   1.928   5.007   5.014
 4937SOL    HW116411   1.952   4.957   5.097
 4937SOL    HW216412   1.910   5.103   5.036
 4938SOL     OW16413   2.591   4.359   4.817
 4938SOL    HW116414   2.678   4.349   4.770
 4938SOL    HW216415   2.567   4.456   4.822
 4939SOL     OW16416   3.631   4.690   5.603
 4939SOL    HW116417   3.580   4.627   5.545
 4939SOL    HW216418   3.576   4.716   5.682
 4940SOL     OW16419   2.867   4.569   4.743
 4940SOL    HW116420   2.842   4.590   4.837
 4940SOL    HW216421   2.857   4.471   4.727
 4941SOL     OW16422   2.887   5.347   5.512
 4941SOL    HW116423   2.846   5.394   5.434
 4941SOL    HW216424   2.895   5.250   5.493
 4942SOL     OW16425   3.698   5.197   5.360
 4942SOL    HW116426   3.741   5.228   5.275
 4942SOL    HW216427   3.763   5.206   5.436
 4943SOL     OW16428   2.219   4.622   5.552
 4943SOL    HW116429   2.283   4.650   5.623
 4943SOL    HW216430   2.257   4.545   5.501
 4944SOL     OW16431   3.373   3.894   3.853
 4944SOL    HW116432   3.300   3.828   3.868
 4944SOL    HW216433   3.440   3.888   3.926
 4945SOL     OW16434   2.927   5.123   4.601
 4945SOL    HW116435   2.934   5.043   4.541
 4945SOL    HW216436   2.985   5.196   4.567
 4946SOL     OW16437   2.163   4.546   4.607
 4946SOL    HW116438   2.247   4.536   4.553
 4946SOL    HW216439   2.153   4.468   4.668
 4947SOL     OW16440   2.160   4.298   4.748
 4947SOL    HW116441   2.107   4.213   4.739
 4947SOL    HW216442   2.247   4.288   4.700
 4948SOL     OW16443   2.987   4.079   5.442
 4948SOL    HW116444   2.941   4.131   5.514
 4948SOL    HW216445   3.072   4.125   5.417
 4949SOL     OW16446   3.015   3.914   5.227
 4949SOL    HW116447   3.000   3.973   5.306
 4949SOL    HW216448   3.040   3.969   5.148
 4950SOL     OW16449   1.832   5.012   3.883
 4950SOL    HW116450   1.744   5.059   3.878
 4950SOL    HW216451   1.822   4.919   3.848
 4951SOL     OW16452   1.947   5.483   4.688
 4951SOL    HW116453   1.898   5.411   4.639
 4951SOL    HW216454   2.039   5.494   4.649
 4952SOL     OW16455   2.338   5.264   4.637
 4952SOL    HW116456   2.409   5.325   4.672
 4952SOL    HW216457   2.378   5.198   4.574
 4953SOL     OW16458   2.777   4.577   4.998
 4953SOL    HW116459   2.820   4.521   5.068
 4953SOL    HW216460   2.686   4.540   4.977
 4954SOL     OW16461   1.841   4.248   4.892
 4954SOL    HW116462   1.903   4.192   4.838
 4954SOL    HW216463   1.880   4.264   4.982
 4955SOL     OW16464   2.068   4.354   5.458
 4955SOL    HW116465   2.166   4.363   5.440
 4955SOL    HW216466   2.018   4.416   5.398
 4956SOL     OW16467   3.227   4.651   5.368
 4956SOL    HW116468   3.256   4.746   5.361
 4956SOL    HW216469   3.211   4.615   5.276
 4957SOL     OW16470   3.487   4.385   4.877
 4957SOL    HW116471   3.436   4.305   4.909
 4957SOL    HW216472   3.583   4.360   4.865
 4958SOL     OW16473   2.040   5.273   5.508
 4958SOL    HW116474   1.991   5.294   5.592
 4958SOL    HW216475   2.090   5.187   5.519
 4959SOL     OW16476   2.600   4.132   4.976
 4959SOL    HW116477   2.536   4.057   4.958
 4959SOL    HW216478   2.575   4.211   4.920
 4960SOL     OW16479   2.767   5.452   5.269
 4960SOL    HW116480   2.751   5.369   5.216
 4960SOL    HW216481   2.789   5.528   5.208
 4961SOL     OW16482   1.999   4.874   5.248
 4961SOL    HW116483   2.006   4.850   5.345
 4961SOL    HW216484   2.033   4.798   5.193
 4962SOL     OW16485   3.117   4.796   4.951
 4962SOL    HW116486   3.130   4.730   4.877
 4962SOL    HW216487   3.080   4.881   4.914
 4963SOL     OW16488   3.586   5.433   4.919
 4963SOL    HW116489   3.682   5.461   4.919
 4963SOL    HW216490   3.578   5.344   4.872
 4964SOL     OW16491   3.155   5.468   4.782
 4964SOL    HW116492   3.238   5.522   4.788
 4964SOL    HW216493   3.172   5.376   4.816
 4965SOL     OW16494   1.984   4.941   4.756
 4965SOL    HW116495   1.961   4.964   4.851
 4965SOL    HW216496   1.903   4.904   4.710
 4966SOL     OW16497   2.545   5.461   5.431
 4966SOL    HW116498   2.485   5.541   5.428
 4966SOL    HW216499   2.626   5.479   5.375
 4967SOL     OW16500   3.533   3.855   4.072
 4967SOL    HW116501   3.618   3.893   4.036
 4967SOL    HW216502   3.553   3.773   4.126
 4968SOL     OW16503   3.277   5.327   4.225
 4968SOL    HW116504   3.333   5.356   4.148
 4968SOL    HW216505   3.223   5.405   4.258
 4969SOL     OW16506   3.068   4.689   4.343
 4969SOL    HW116507   3.145   4.645   4.389
 4969SOL    HW216508   3.103   4.749   4.271
 4970SOL     OW16509   2.625   5.012   5.158
 4970SOL    HW116510   2.610   5.077   5.234
 4970SOL    HW216511   2.548   5.018   5.095
 4971SOL     OW16512   2.525   5.341   3.899
 4971SOL    HW116513   2.533   5.361   3.802
 4971SOL    HW216514   2.478   5.253   3.912
 4972SOL     OW16515   3.467   5.463   5.166
 4972SOL    HW116516   3.506   5.448   5.076
 4972SOL    HW216517   3.496   5.552   5.201
 4973SOL     OW16518   3.661   4.043   4.816
 4973SOL    HW116519   3.571   4.033   4.772
 4973SOL    HW216520   3.681   4.140   4.831
 4974SOL     OW16521   3.091   5.294   3.762
 4974SOL    HW116522   3.093   5.206   3.809
 4974SOL    HW216523   3.008   5.301   3.708
 4975SOL     OW16524   2.654   4.740   5.185
 4975SOL    HW116525   2.705   4.710   5.105
 4975SOL    HW216526   2.641   4.839   5.182
 4976SOL     OW16527   3.354   5.379   3.768
 4976SOL    HW116528   3.258   5.352   3.755
 4976SOL    HW216529   3.399   5.386   3.679
 4977SOL     OW16530   2.200   5.081   5.242
 4977SOL    HW116531   2.187   5.145   5.167
 4977SOL    HW216532   2.129   5.011   5.239
 4978SOL     OW16533   3.468   5.042   5.026
 4978SOL    HW116534   3.524   5.007   5.102
 4978SOL    HW216535   3.402   5.108   5.061
 4979SOL     OW16536   2.915   4.888   4.465
 4979SOL    HW116537   2.839   4.844   4.514
 4979SOL    HW216538   2.971   4.818   4.420
 4980SOL     OW16539   2.484   5.221   4.225
 4980SOL    HW116540   2.546   5.167   4.168
 4980SOL    HW216541   2.393   5.223   4.184
 4981SOL     OW16542   3.666   4.057   5.179
 4981SOL    HW116543   3.723   4.137   5.160
 4981SOL    HW216544   3.693   3.981   5.120
 4982SOL     OW16545   2.092   5.039   3.982
 4982SOL    HW116546   1.995   5.026   3.959
 4982SOL    HW216547   2.099   5.091   4.067
 4983SOL     OW16548   2.006   4.795   5.510
 4983SOL    HW116549   1.917   4.764   5.546
 4983SOL    HW216550   2.075   4.725   5.528
 4984SOL     OW16551   2.537   3.936   5.266
 4984SOL    HW116552   2.624   3.906   5.227
 4984SOL    HW216553   2.549   3.956   5.363
 4985SOL     OW16554   1.933   4.041   3.724
 4985SOL    HW116555   1.842   4.047   3.683
 4985SOL    HW216556   1.995   4.106   3.679
 4986SOL     OW16557   3.217   4.578   5.103
 4986SOL    HW116558   3.159   4.646   5.060
 4986SOL    HW216559   3.311   4.589   5.071
 4987SOL     OW16560   1.889   3.878   3.963
 4987SOL    HW116561   1.882   3.945   3.890
 4987SOL    HW216562   1.981   3.839   3.964
 4988SOL     OW16563   3.047   5.053   3.887
 4988SOL    HW116564   2.949   5.038   3.871
 4988SOL    HW216565   3.063   5.069   3.984
 4989SOL     OW16566   2.493   4.517   5.216
 4989SOL    HW116567   2.547   4.602   5.215
 4989SOL    HW216568   2.555   4.439   5.212
 4990SOL     OW16569   3.396   5.603   4.805
 4990SOL    HW116570   3.442   5.656   4.734
 4990SOL    HW216571   3.462   5.542   4.850
 4991SOL     OW16572   2.565   4.248   5.475
 4991SOL    HW116573   2.621   4.311   5.529
 4991SOL    HW216574   2.581   4.154   5.507
 4992SOL     OW16575   3.327   4.907   5.340
 4992SOL    HW116576   3.323   4.919   5.439
 4992SOL    HW216577   3.419   4.931   5.307
 4993SOL     OW16578   2.165   5.493   5.351
 4993SOL    HW116579   2.082   5.540   5.319
 4993SOL    HW216580   2.140   5.408   5.397
 4994SOL     OW16581   3.467   4.627   4.997
 4994SOL    HW116582   3.480   4.540   4.948
 4994SOL    HW216583   3.472   4.703   4.932
 4995SOL     OW16584   2.389   4.515   4.447
 4995SOL    HW116585   2.459   4.585   4.431
 4995SOL    HW216586   2.361   4.476   4.359
 4996SOL     OW16587   3.590   4.081   5.438
 4996SOL    HW116588   3.616   4.075   5.341
 4996SOL    HW216589   3.512   4.021   5.455
 4997SOL     OW16590   3.589   4.669   5.234
 4997SOL    HW116591   3.583   4.767   5.256
 4997SOL    HW216592   3.547   4.652   5.146
 4998SOL     OW16593   2.762   5.067   3.837
 4998SOL    HW116594   2.721   5.087   3.926
 4998SOL    HW216595   2.775   5.153   3.787
 4999SOL     OW16596   2.526   5.450   4.693
 4999SOL    HW116597   2.496   5.544   4.678
 4999SOL    HW216598   2.625   5.444   4.679
 5000SOL     OW16599   2.715   4.762   4.615
 5000SOL    HW116600   2.768   4.691   4.660
 5000SOL    HW216601   2.658   4.809   4.682
 5001SOL     OW16602   3.748   5.318   4.652
 5001SOL    HW116603   3.794   5.276   4.574
 5001SOL    HW216604   3.689   5.251   4.697
 5002SOL     OW16605   2.135   5.022   5.607
 5002SOL    HW116606   2.084   4.943   5.572
 5002SOL    HW216607   2.122   5.030   5.706
 5003SOL     OW16608   1.981   4.950   4.359
 5003SOL    HW116609   2.029   4.916   4.440
 5003SOL    HW216610   1.976   4.876   4.291
 5004SOL     OW16611   2.570   5.194   5.353
 5004SOL    HW116612   2.497   5.142   5.396
 5004SOL    HW216613   2.562   5.290   5.380
 5005SOL     OW16614   3.706   3.852   5.011
 5005SOL    HW116615   3.701   3.755   4.987
 5005SOL    HW216616   3.688   3.908   4.930
 5006SOL     OW16617   3.560   5.179   4.801
 5006SOL    HW116618   3.489   5.155   4.735
 5006SOL    HW216619   3.547   5.126   4.884
 5007SOL     OW16620   2.199   4.294   5.021
 5007SOL    HW116621   2.259   4.223   5.057
 5007SOL    HW216622   2.192   4.285   4.922
 5008SOL     OW16623   2.667   5.379   4.363
 5008SOL    HW116624   2.671   5.468   4.317
 5008SOL    HW216625   2.593   5.325   4.323
 5009SOL     OW16626   3.312   3.990   4.951
 5009SOL    HW116627   3.359   3.943   5.025
 5009SOL    HW216628   3.220   4.017   4.982
 5010SOL     OW16629   2.790   3.798   4.889
 5010SOL    HW116630   2.708   3.774   4.837
 5010SOL    HW216631   2.852   3.720   4.892
 5011SOL     OW16632   2.678   5.069   4.102
 5011SOL    HW116633   2.680   4.971   4.124
 5011SOL    HW216634   2.754   5.115   4.149
 5012SOL     OW16635   2.453   5.325   5.032
 5012SOL    HW116636   2.444   5.414   5.076
 5012SOL    HW216637   2.544   5.317   4.990
 5013SOL     OW16638   3.186   3.711   3.898
 5013SOL    HW116639   3.223   3.631   3.851
 5013SOL    HW216640   3.086   3.704   3.904
 5014SOL     OW16641   1.983   4.736   4.179
 5014SOL    HW116642   2.078   4.751   4.153
 5014SOL    HW216643   1.963   4.637   4.179
 5015SOL     OW16644   2.753   5.430   4.031
 5015SOL    HW116645   2.672   5.394   3.985
 5015SOL    HW216646   2.725   5.501   4.096
 5016SOL     OW16647   2.059   4.374   5.739
 5016SOL    HW116648   1.970   4.336   5.765
 5016SOL    HW216649   2.064   4.384   5.640
 5017SOL     OW16650   2.069   4.026   6.600
 5017SOL    HW116651   2.109   4.000   6.687
 5017SOL    HW216652   1.979   3.983   6.590
 5018SOL     OW16653   1.848   4.141   6.231
 5018SOL    HW116654   1.761   4.162   6.276
 5018SOL    HW216655   1.833   4.071   6.161
 5019SOL     OW16656   3.452   5.204   6.334
 5019SOL    HW116657   3.386   5.168   6.400
 5019SOL    HW216658   3.405   5.225   6.248
 5020SOL     OW16659   2.962   4.453   6.264
 5020SOL    HW116660   3.018   4.534   6.245
 5020SOL    HW216661   2.918   4.463   6.353
 5021SOL     OW16662   3.654   4.275   5.796
 5021SOL    HW116663   3.606   4.298   5.712
 5021SOL    HW216664   3.601   4.205   5.846
 5022SOL     OW16665   2.522   4.752   6.235
 5022SOL    HW116666   2.590   4.743   6.307
 5022SOL    HW216667   2.490   4.847   6.231
 5023SOL     OW16668   3.475   4.185   6.330
 5023SOL    HW116669   3.448   4.222   6.241
 5023SOL    HW216670   3.432   4.238   6.403
 5024SOL     OW16671   2.471   5.599   0.001
 5024SOL    HW116672   2.380   5.572   0.034
 5024SOL    HW216673   2.506   5.674   0.057
 5025SOL     OW16674   2.399   4.700   5.754
 5025SOL    HW116675   2.440   4.755   5.681
 5025SOL    HW216676   2.449   4.715   5.839
 5026SOL     OW16677   1.972   4.385   6.150
 5026SOL    HW116678   1.934   4.298   6.181
 5026SOL    HW216679   1.958   4.454   6.221
 5027SOL     OW16680   3.754   5.357   5.917
 5027SOL    HW116681   3.804   5.297   5.979
 5027SOL    HW216682   3.803   5.444   5.909
 5028SOL     OW16683   1.895   5.277   5.748
 5028SOL    HW116684   1.867   5.181   5.748
 5028SOL    HW216685   1.834   5.330   5.807
 5029SOL     OW16686   3.574   4.639   6.245
 5029SOL    HW116687   3.635   4.574   6.198
 5029SOL    HW216688   3.551   4.713   6.182
 5030SOL     OW16689   3.532   4.834   6.048
 5030SOL    HW116690   3.610   4.796   5.998
 5030SOL    HW216691   3.564   4.906   6.109
 5031SOL     OW16692   2.686   3.731   6.103
 5031SOL    HW116693   2.734   3.813   6.070
 5031SOL    HW216694   2.588   3.750   6.107
 5032SOL     OW16695   2.130   4.743   6.860
 5032SOL    HW116696   2.196   4.677   6.896
 5032SOL    HW216697   2.084   4.704   6.781
 5033SOL     OW16698   3.429   4.753   5.800
 5033SOL    HW116699   3.358   4.685   5.819
 5033SOL    HW216700   3.461   4.793   5.886
 5034SOL     OW16701   3.265   5.109   6.521
 5034SOL    HW116702   3.225   5.111   6.613
 5034SOL    HW216703   3.263   5.015   6.487
 5035SOL     OW16704   3.484   5.584   6.117
 5035SOL    HW116705   3.480   5.513   6.047
 5035SOL    HW216706   3.458   5.546   6.205
 5036SOL     OW16707   2.425   4.423   5.884
 5036SOL    HW116708   2.418   4.508   5.833
 5036SOL    HW216709   2.362   4.425   5.961
 5037SOL     OW16710   3.150   4.131   6.504
 5037SOL    HW116711   3.060   4.087   6.505
 5037SOL    HW216712   3.215   4.074   6.555
 5038SOL     OW16713   3.478   5.384   5.928
 5038SOL    HW116714   3.577   5.368   5.926
 5038SOL    HW216715   3.440   5.369   5.837
 5039SOL     OW16716   2.595   4.325   0.056
 5039SOL    HW116717   2.532   4.348   0.130
 5039SOL    HW216718   2.558   4.249   0.003
 5040SOL     OW16719   2.899   4.158   6.794
 5040SOL    HW116720   2.886   4.209   6.879
 5040SOL    HW216721   2.812   4.115   6.768
 5041SOL     OW16722   2.896   4.410   6.000
 5041SOL    HW116723   2.919   4.422   6.096
 5041SOL    HW216724   2.808   4.364   5.991
 5042SOL     OW16725   1.934   4.583   6.334
 5042SOL    HW116726   2.017   4.562   6.387
 5042SOL    HW216727   1.893   4.668   6.369
 5043SOL     OW16728   1.970   5.525   0.034
 5043SOL    HW116729   1.931   5.482   0.115
 5043SOL    HW216730   1.953   5.623   0.037
 5044SOL     OW16731   2.713   4.076   5.799
 5044SOL    HW116732   2.781   4.125   5.745
 5044SOL    HW216733   2.653   4.025   5.738
 5045SOL     OW16734   3.272   4.884   6.152
 5045SOL    HW116735   3.362   4.869   6.112
 5045SOL    HW216736   3.222   4.951   6.097
 5046SOL     OW16737   2.435   3.807   6.538
 5046SOL    HW116738   2.425   3.843   6.631
 5046SOL    HW216739   2.457   3.882   6.475
 5047SOL     OW16740   2.855   5.111   6.016
 5047SOL    HW116741   2.821   5.203   5.999
 5047SOL    HW216742   2.832   5.083   6.109
 5048SOL     OW16743   2.224   5.572   6.497
 5048SOL    HW116744   2.254   5.479   6.514
 5048SOL    HW216745   2.299   5.636   6.515
 5049SOL     OW16746   3.673   4.730   6.489
 5049SOL    HW116747   3.639   4.709   6.398
 5049SOL    HW216748   3.596   4.745   6.551
 5050SOL     OW16749   2.134   4.654   5.860
 5050SOL    HW116750   2.222   4.679   5.820
 5050SOL    HW216751   2.107   4.563   5.829
 5051SOL     OW16752   3.335   4.509   6.293
 5051SOL    HW116753   3.332   4.456   6.377
 5051SOL    HW216754   3.421   4.559   6.287
 5052SOL     OW16755   3.021   5.397   5.936
 5052SOL    HW116756   2.921   5.388   5.934
 5052SOL    HW216757   3.059   5.374   5.847
 5053SOL     OW16758   3.518   5.091   5.680
 5053SOL    HW116759   3.470   5.177   5.690
 5053SOL    HW216760   3.456   5.021   5.645
 5054SOL     OW16761   3.258   3.826   6.047
 5054SOL    HW116762   3.255   3.801   5.951
 5054SOL    HW216763   3.349   3.809   6.084
 5055SOL     OW16764   2.086   5.505   6.789
 5055SOL    HW116765   2.028   5.499   6.870
 5055SOL    HW216766   2.031   5.488   6.707
 5056SOL     OW16767   2.815   5.391   6.455
 5056SOL    HW116768   2.896   5.333   6.444
 5056SOL    HW216769   2.749   5.370   6.382
 5057SOL     OW16770   2.252   4.394   6.100
 5057SOL    HW116771   2.271   4.297   6.113
 5057SOL    HW216772   2.153   4.409   6.103
 5058SOL     OW16773   2.472   3.806   5.708
 5058SOL    HW116774   2.508   3.720   5.742
 5058SOL    HW216775   2.414   3.789   5.628
 5059SOL     OW16776   2.798   4.210   6.470
 5059SOL    HW116777   2.769   4.204   6.375
 5059SOL    HW216778   2.845   4.125   6.496
 5060SOL     OW16779   2.418   3.791   6.093
 5060SOL    HW116780   2.342   3.787   6.158
 5060SOL    HW216781   2.406   3.869   6.032
 5061SOL     OW16782   3.318   4.916   5.612
 5061SOL    HW116783   3.357   4.848   5.674
 5061SOL    HW216784   3.234   4.953   5.652
 5062SOL     OW16785   2.134   3.777   5.739
 5062SOL    HW116786   2.179   3.855   5.696
 5062SOL    HW216787   2.200   3.728   5.796
 5063SOL     OW16788   2.817   3.960   6.028
 5063SOL    HW116789   2.777   3.998   5.944
 5063SOL    HW216790   2.914   3.981   6.031
 5064SOL     OW16791   3.051   5.257   6.394
 5064SOL    HW116792   3.074   5.318   6.318
 5064SOL    HW216793   3.135   5.220   6.434
 5065SOL     OW16794   3.096   5.444   6.191
 5065SOL    HW116795   3.067   5.433   6.096
 5065SOL    HW216796   3.050   5.523   6.232
 5066SOL     OW16797   2.885   4.225   5.648
 5066SOL    HW116798   2.836   4.311   5.631
 5066SOL    HW216799   2.958   4.241   5.715
 5067SOL     OW16800   2.400   3.889   6.796
 5067SOL    HW116801   2.429   3.809   6.847
 5067SOL    HW216802   2.305   3.912   6.821
 5068SOL     OW16803   2.731   4.164   6.208
 5068SOL    HW116804   2.687   4.223   6.140
 5068SOL    HW216805   2.765   4.081   6.164
 5069SOL     OW16806   2.886   3.759   6.308
 5069SOL    HW116807   2.818   3.763   6.234
 5069SOL    HW216808   2.862   3.686   6.371
 5070SOL     OW16809   3.264   4.841   6.441
 5070SOL    HW116810   3.207   4.761   6.463
 5070SOL    HW216811   3.269   4.853   6.342
 5071SOL     OW16812   3.319   4.356   6.523
 5071SOL    HW116813   3.253   4.281   6.529
 5071SOL    HW216814   3.382   4.352   6.600
 5072SOL     OW16815   3.654   4.454   6.003
 5072SOL    HW116816   3.727   4.429   6.065
 5072SOL    HW216817   3.658   4.395   5.922
 5073SOL     OW16818   3.625   5.004   6.228
 5073SOL    HW116819   3.724   5.005   6.244
 5073SOL    HW216820   3.584   5.084   6.271
 5074SOL     OW16821   3.228   4.309   5.632
 5074SOL    HW116822   3.186   4.279   5.718
 5074SOL    HW216823   3.327   4.304   5.640
 5075SOL     OW16824   2.365   3.980   5.902
 5075SOL    HW116825   2.405   3.921   5.832
 5075SOL    HW216826   2.333   4.064   5.860
 5076SOL     OW16827   3.646   4.837   0.188
 5076SOL    HW116828   3.738   4.823   0.151
 5076SOL    HW216829   3.615   4.930   0.167
 5077SOL     OW16830   2.949   4.937   6.741
 5077SOL    HW116831   2.860   4.937   6.787
 5077SOL    HW216832   2.937   4.968   6.646
 5078SOL     OW16833   3.453   4.790   6.644
 5078SOL    HW116834   3.454   4.867   6.707
 5078SOL    HW216835   3.383   4.805   6.574
 5079SOL     OW16836   2.574   4.740   5.959
 5079SOL    HW116837   2.561   4.727   6.058
 5079SOL    HW216838   2.650   4.682   5.928
 5080SOL     OW16839   2.300   4.564   6.979
 5080SOL    HW116840   2.393   4.569   0.017
 5080SOL    HW216841   2.281   4.469   6.952
 5081SOL     OW16842   3.161   4.108   6.839
 5081SOL    HW116843   3.188   4.180   6.903
 5081SOL    HW216844   3.067   4.125   6.807
 5082SOL     OW16845   2.130   4.866   6.058
 5082SOL    HW116846   2.123   4.942   5.994
 5082SOL    HW216847   2.138   4.780   6.006
 5083SOL     OW16848   2.394   4.336   6.537
 5083SOL    HW116849   2.409   4.391   6.455
 5083SOL    HW216850   2.482   4.320   6.583
 5084SOL     OW16851   3.135   5.075   5.998
 5084SOL    HW116852   3.189   5.152   6.035
 5084SOL    HW216853   3.038   5.094   6.009
 5085SOL     OW16854   3.172   5.097   6.780
 5085SOL    HW116855   3.229   5.050   6.847
 5085SOL    HW216856   3.085   5.048   6.771
 5086SOL     OW16857   3.424   4.326   6.097
 5086SOL    HW116858   3.361   4.386   6.147
 5086SOL    HW216859   3.498   4.381   6.058
 5087SOL     OW16860   2.192   5.267   6.878
 5087SOL    HW116861   2.202   5.202   6.803
 5087SOL    HW216862   2.179   5.359   6.841
 5088SOL     OW16863   3.136   4.589   6.541
 5088SOL    HW116864   3.044   4.551   6.532
 5088SOL    HW216865   3.204   4.515   6.538
 5089SOL     OW16866   3.067   4.250   5.854
 5089SOL    HW116867   3.083   4.168   5.908
 5089SOL    HW216868   3.013   4.315   5.908
 5090SOL     OW16869   2.137   3.938   6.856
 5090SOL    HW116870   2.078   3.983   6.923
 5090SOL    HW216871   2.114   3.841   6.850
 5091SOL     OW16872   2.632   4.286   6.677
 5091SOL    HW116873   2.690   4.255   6.601
 5091SOL    HW216874   2.678   4.360   6.725
 5092SOL     OW16875   2.190   3.783   6.249
 5092SOL    HW116876   2.148   3.871   6.270
 5092SOL    HW216877   2.197   3.729   6.333
 5093SOL     OW16878   3.472   4.113   5.926
 5093SOL    HW116879   3.526   4.049   5.981
 5093SOL    HW216880   3.433   4.183   5.985
 5094SOL     OW16881   2.871   4.472   6.535
 5094SOL    HW116882   2.853   4.487   6.632
 5094SOL    HW216883   2.852   4.377   6.512
 5095SOL     OW16884   3.369   3.979   5.703
 5095SOL    HW116885   3.319   3.900   5.739
 5095SOL    HW216886   3.402   4.036   5.779
 5096SOL     OW16887   3.119   4.560   5.601
 5096SOL    HW116888   3.148   4.464   5.607
 5096SOL    HW216889   3.150   4.599   5.515
 5097SOL     OW16890   2.922   5.030   6.487
 5097SOL    HW116891   2.919   4.960   6.415
 5097SOL    HW216892   2.965   5.113   6.451
 5098SOL     OW16893   2.157   4.535   6.483
 5098SOL    HW116894   2.239   4.535   6.427
 5098SOL    HW216895   2.155   4.453   6.540
 5099SOL     OW16896   2.151   4.286   6.639
 5099SOL    HW116897   2.117   4.196   6.614
 5099SOL    HW216898   2.243   4.298   6.602
 5100SOL     OW16899   3.073   3.925   0.027
 5100SOL    HW116900   3.147   3.899   0.089
 5100SOL    HW216901   3.109   3.985   6.956
 5101SOL     OW16902   1.834   5.001   5.777
 5101SOL    HW116903   1.748   5.029   5.735
 5101SOL    HW216904   1.831   4.903   5.797
 5102SOL     OW16905   1.960   5.506   6.536
 5102SOL    HW116906   1.944   5.436   6.467
 5102SOL    HW216907   2.052   5.544   6.523
 5103SOL     OW16908   2.342   5.336   6.544
 5103SOL    HW116909   2.430   5.379   6.565
 5103SOL    HW216910   2.357   5.241   6.516
 5104SOL     OW16911   2.792   4.483   6.803
 5104SOL    HW116912   2.840   4.420   6.863
 5104SOL    HW216913   2.766   4.565   6.855
 5105SOL     OW16914   1.885   4.366   6.708
 5105SOL    HW116915   1.978   4.343   6.681
 5105SOL    HW216916   1.885   4.454   6.755
 5106SOL     OW16917   2.654   4.289   5.968
 5106SOL    HW116918   2.664   4.209   5.908
 5106SOL    HW216919   2.572   4.341   5.940
 5107SOL     OW16920   3.510   4.337   6.728
 5107SOL    HW116921   3.493   4.260   6.789
 5107SOL    HW216922   3.608   4.349   6.714
 5108SOL     OW16923   2.537   4.116   6.877
 5108SOL    HW116924   2.487   4.039   6.839
 5108SOL    HW216925   2.564   4.178   6.803
 5109SOL     OW16926   2.859   5.328   6.920
 5109SOL    HW116927   2.776   5.289   6.880
 5109SOL    HW216928   2.886   5.409   6.869
 5110SOL     OW16929   2.284   4.210   5.770
 5110SOL    HW116930   2.354   4.275   5.801
 5110SOL    HW216931   2.196   4.257   5.764
 5111SOL     OW16932   1.997   4.783   0.101
 5111SOL    HW116933   2.058   4.730   0.161
 5111SOL    HW216934   2.035   4.785   0.008
 5112SOL     OW16935   3.090   4.696   6.793
 5112SOL    HW116936   3.116   4.663   6.702
 5112SOL    HW216937   3.042   4.783   6.784
 5113SOL     OW16938   3.223   4.588   5.857
 5113SOL    HW116939   3.163   4.547   5.926
 5113SOL    HW216940   3.180   4.578   5.767
 5114SOL     OW16941   3.581   5.465   6.749
 5114SOL    HW116942   3.668   5.472   6.700
 5114SOL    HW216943   3.546   5.372   6.740
 5115SOL     OW16944   3.140   5.387   6.746
 5115SOL    HW116945   3.221   5.437   6.716
 5115SOL    HW216946   3.165   5.291   6.764
 5116SOL     OW16947   3.643   3.942   6.056
 5116SOL    HW116948   3.692   3.915   5.973
 5116SOL    HW216949   3.594   3.864   6.094
 5117SOL     OW16950   3.301   5.276   6.112
 5117SOL    HW116951   3.362   5.311   6.041
 5117SOL    HW216952   3.235   5.346   6.137
 5118SOL     OW16953   3.124   4.665   6.218
 5118SOL    HW116954   3.197   4.603   6.247
 5118SOL    HW216955   3.164   4.748   6.178
 5119SOL     OW16956   3.711   3.889   6.572
 5119SOL    HW116957   3.748   3.797   6.558
 5119SOL    HW216958   3.629   3.901   6.516
 5120SOL     OW16959   2.087   4.027   6.318
 5120SOL    HW116960   2.004   4.072   6.286
 5120SOL    HW216961   2.093   4.034   6.418
 5121SOL     OW16962   3.099   5.300   5.688
 5121SOL    HW116963   3.089   5.201   5.700
 5121SOL    HW216964   3.029   5.334   5.626
 5122SOL     OW16965   2.743   4.699   6.981
 5122SOL    HW116966   2.722   4.784   6.934
 5122SOL    HW216967   2.827   4.709   0.034
 5123SOL     OW16968   2.785   4.606   5.839
 5123SOL    HW116969   2.850   4.671   5.800
 5123SOL    HW216970   2.835   4.540   5.896
 5124SOL     OW16971   3.374   5.330   5.678
 5124SOL    HW116972   3.275   5.321   5.675
 5124SOL    HW216973   3.409   5.347   5.586
 5125SOL     OW16974   3.475   4.986   6.841
 5125SOL    HW116975   3.569   4.960   6.863
 5125SOL    HW216976   3.413   4.946   6.909
 5126SOL     OW16977   2.906   4.834   6.301
 5126SOL    HW116978   2.832   4.783   6.345
 5126SOL    HW216979   2.975   4.770   6.268
 5127SOL     OW16980   2.923   3.960   6.507
 5127SOL    HW116981   2.916   3.908   6.422
 5127SOL    HW216982   2.924   3.897   6.584
 5128SOL     OW16983   3.488   4.118   6.893
 5128SOL    HW116984   3.440   4.101   6.979
 5128SOL    HW216985   3.531   4.034   6.862
 5129SOL     OW16986   2.078   5.070   5.875
 5129SOL    HW116987   1.986   5.038   5.854
 5129SOL    HW216988   2.079   5.170   5.872
 5130SOL     OW16989   2.574   3.907   0.071
 5130SOL    HW116990   2.669   3.884   0.091
 5130SOL    HW216991   2.570   3.991   0.016
 5131SOL     OW16992   1.980   4.097   5.501
 5131SOL    HW116993   1.882   4.088   5.484
 5131SOL    HW216994   2.008   4.192   5.487
 5132SOL     OW16995   1.890   3.869   5.815
 5132SOL    HW116996   1.856   3.935   5.747
 5132SOL    HW216997   1.983   3.840   5.789
 5133SOL     OW16998   3.087   5.013   5.732
 5133SOL    HW116999   3.037   4.926   5.730
 5133SOL    HW217000   3.111   5.035   5.827
 5134SOL     OW17001   3.344   5.558   6.652
 5134SOL    HW117002   3.359   5.595   6.561
 5134SOL    HW217003   3.431   5.527   6.691
 5135SOL     OW17004   3.333   5.060   0.288
 5135SOL    HW117005   3.260   5.096   0.346
 5135SOL    HW217006   3.320   4.962   0.275
 5136SOL     OW17007   2.239   5.502   0.103
 5136SOL    HW117008   2.144   5.508   0.072
 5136SOL    HW217009   2.261   5.406   0.122
 5137SOL     OW17010   3.531   4.595   6.836
 5137SOL    HW117011   3.513   4.503   6.803
 5137SOL    HW217012   3.494   4.662   6.771
 5138SOL     OW17013   3.082   4.041   6.038
 5138SOL    HW117014   3.148   3.966   6.044
 5138SOL    HW217015   3.095   4.104   6.115
 5139SOL     OW17016   2.379   4.517   6.315
 5139SOL    HW117017   2.430   4.598   6.283
 5139SOL    HW217018   2.337   4.472   6.236
 5140SOL     OW17019   3.603   4.568   0.110
 5140SOL    HW117020   3.605   4.661   0.147
 5140SOL    HW217021   3.567   4.570   0.017
 5141SOL     OW17022   2.577   5.465   6.591
 5141SOL    HW117023   2.543   5.557   6.574
 5141SOL    HW217024   2.666   5.453   6.547
 5142SOL     OW17025   2.698   4.717   6.448
 5142SOL    HW117026   2.739   4.634   6.486
 5142SOL    HW217027   2.647   4.765   6.519
 5143SOL     OW17028   2.964   4.767   5.698
 5143SOL    HW117029   2.902   4.801   5.627
 5143SOL    HW217030   3.020   4.693   5.661
 5144SOL     OW17031   3.679   5.275   6.475
 5144SOL    HW117032   3.599   5.262   6.417
 5144SOL    HW217033   3.685   5.200   6.540
 5145SOL     OW17034   1.932   4.960   6.225
 5145SOL    HW117035   1.898   4.896   6.294
 5145SOL    HW217036   2.005   4.918   6.173
 5146SOL     OW17037   3.635   3.891   6.836
 5146SOL    HW117038   3.616   3.794   6.850
 5146SOL    HW217039   3.666   3.906   6.742
 5147SOL     OW17040   2.278   4.128   6.134
 5147SOL    HW117041   2.302   4.063   6.061
 5147SOL    HW217042   2.214   4.085   6.197
 5148SOL     OW17043   3.466   5.221   6.702
 5148SOL    HW117044   3.404   5.204   6.626
 5148SOL    HW217045   3.475   5.138   6.758
 5149SOL     OW17046   2.204   4.314   6.912
 5149SOL    HW117047   2.243   4.230   6.951
 5149SOL    HW217048   2.184   4.300   6.815
 5150SOL     OW17049   2.645   5.370   6.246
 5150SOL    HW117050   2.659   5.460   6.204
 5150SOL    HW217051   2.594   5.312   6.183
 5151SOL     OW17052   3.306   3.968   6.658
 5151SOL    HW117053   3.307   3.871   6.679
 5151SOL    HW217054   3.265   4.018   6.735
 5152SOL     OW17055   2.918   3.711   6.658
 5152SOL    HW117056   2.873   3.652   6.591
 5152SOL    HW217057   3.010   3.677   6.677
 5153SOL     OW17058   2.663   4.973   5.838
 5153SOL    HW117059   2.630   4.892   5.887
 5153SOL    HW217060   2.738   5.014   5.889
 5154SOL     OW17061   3.245   3.748   5.785
 5154SOL    HW117062   3.295   3.677   5.735
 5154SOL    HW217063   3.149   3.723   5.791
 5155SOL     OW17064   3.110   4.216   6.244
 5155SOL    HW117065   3.054   4.299   6.249
 5155SOL    HW217066   3.132   4.185   6.336
 5156SOL     OW17067   3.472   3.928   6.448
 5156SOL    HW117068   3.412   3.950   6.524
 5156SOL    HW217069   3.476   4.005   6.384
 5157SOL     OW17070   1.866   4.739   5.894
 5157SOL    HW117071   1.964   4.730   5.878
 5157SOL    HW217072   1.827   4.648   5.910
 5158SOL     OW17073   2.748   5.364   5.961
 5158SOL    HW117074   2.659   5.327   5.934
 5158SOL    HW217075   2.736   5.453   6.004
 5159SOL     OW17076   1.983   6.070   0.069
 5159SOL    HW117077   1.890   6.093   0.099
 5159SOL    HW217078   2.011   6.131   6.995
 5160SOL     OW17079   2.087   5.856   0.979
 5160SOL    HW117080   2.140   5.824   1.057
 5160SOL    HW217081   1.997   5.813   0.980
 5161SOL     OW17082   1.852   6.028   0.627
 5161SOL    HW117083   1.771   6.049   0.683
 5161SOL    HW217084   1.830   5.955   0.563
 5162SOL     OW17085   2.434   6.917   1.221
 5162SOL    HW117086   2.368   6.935   1.149
 5162SOL    HW217087   2.387   6.915   1.310
 5163SOL     OW17088   3.519   0.081   0.677
 5163SOL    HW117089   3.523   0.142   0.756
 5163SOL    HW217090   3.424   0.053   0.662
 5164SOL     OW17091   2.981   6.343   0.676
 5164SOL    HW117092   3.033   6.429   0.677
 5164SOL    HW217093   2.915   6.344   0.751
 5165SOL     OW17094   3.594   6.109   0.130
 5165SOL    HW117095   3.580   6.208   0.117
 5165SOL    HW217096   3.545   6.079   0.211
 5166SOL     OW17097   2.518   6.706   0.999
 5166SOL    HW117098   2.495   6.772   1.071
 5166SOL    HW217099   2.473   6.732   0.914
 5167SOL     OW17100   2.669   6.281   1.820
 5167SOL    HW117101   2.664   6.330   1.907
 5167SOL    HW217102   2.720   6.336   1.754
 5168SOL     OW17103   2.555   6.557   0.649
 5168SOL    HW117104   2.635   6.561   0.708
 5168SOL    HW217105   2.485   6.619   0.684
 5169SOL     OW17106   2.614   6.782   1.845
 5169SOL    HW117107   2.618   6.830   1.933
 5169SOL    HW217108   2.603   6.849   1.772
 5170SOL     OW17109   2.239   6.989   1.047
 5170SOL    HW117110   2.151   6.953   1.018
 5170SOL    HW217111   2.263   0.069   0.992
 5171SOL     OW17112   2.347   5.982   1.409
 5171SOL    HW117113   2.424   5.929   1.445
 5171SOL    HW217114   2.261   5.941   1.439
 5172SOL     OW17115   3.486   6.078   0.710
 5172SOL    HW117116   3.436   6.133   0.644
 5172SOL    HW217117   3.468   6.113   0.802
 5173SOL     OW17118   2.148   6.673   0.884
 5173SOL    HW117119   2.138   6.576   0.907
 5173SOL    HW217120   2.098   6.729   0.950
 5174SOL     OW17121   2.478   6.491   0.188
 5174SOL    HW117122   2.521   6.501   0.099
 5174SOL    HW217123   2.530   6.543   0.256
 5175SOL     OW17124   1.954   6.280   0.537
 5175SOL    HW117125   1.921   6.189   0.562
 5175SOL    HW217126   1.944   6.342   0.615
 5176SOL     OW17127   3.534   6.429   0.643
 5176SOL    HW117128   3.617   6.411   0.695
 5176SOL    HW217129   3.546   6.513   0.590
 5177SOL     OW17130   3.555   6.675   0.522
 5177SOL    HW117131   3.589   6.707   0.434
 5177SOL    HW217132   3.596   6.730   0.595
 5178SOL     OW17133   1.990   6.326   1.577
 5178SOL    HW117134   2.082   6.364   1.583
 5178SOL    HW217135   1.925   6.399   1.555
 5179SOL     OW17136   3.151   6.767   1.405
 5179SOL    HW117137   3.148   6.680   1.355
 5179SOL    HW217138   3.188   6.752   1.496
 5180SOL     OW17139   2.671   5.606   0.528
 5180SOL    HW117140   2.726   5.689   0.522
 5180SOL    HW217141   2.574   5.629   0.521
 5181SOL     OW17142   2.074   6.538   1.318
 5181SOL    HW117143   2.164   6.496   1.300
 5181SOL    HW217144   2.005   6.494   1.261
 5182SOL     OW17145   3.412   6.549   0.247
 5182SOL    HW117146   3.339   6.495   0.289
 5182SOL    HW217147   3.477   6.577   0.317
 5183SOL     OW17148   2.316   6.056   1.764
 5183SOL    HW117149   2.324   6.076   1.862
 5183SOL    HW217150   2.284   5.961   1.752
 5184SOL     OW17151   3.331   0.022   0.934
 5184SOL    HW117152   3.277   0.068   0.863
 5184SOL    HW217153   3.320   6.923   0.924
 5185SOL     OW17154   2.416   6.233   0.246
 5185SOL    HW117155   2.445   6.324   0.218
 5185SOL    HW217156   2.359   6.239   0.328
 5186SOL     OW17157   2.648   6.150   1.448
 5186SOL    HW117158   2.621   6.109   1.535
 5186SOL    HW217159   2.631   6.085   1.374
 5187SOL     OW17160   2.826   6.428   1.645
 5187SOL    HW117161   2.905   6.372   1.621
 5187SOL    HW217162   2.792   6.473   1.562
 5188SOL     OW17163   2.908   6.003   1.209
 5188SOL    HW117164   2.928   6.082   1.267
 5188SOL    HW217165   2.810   5.986   1.209
 5189SOL     OW17166   2.946   6.276   0.411
 5189SOL    HW117167   2.958   6.296   0.508
 5189SOL    HW217168   2.857   6.233   0.396
 5190SOL     OW17169   1.920   6.439   0.770
 5190SOL    HW117170   2.007   6.414   0.813
 5190SOL    HW217171   1.880   6.517   0.820
 5191SOL     OW17172   2.841   5.934   0.273
 5191SOL    HW117173   2.921   5.983   0.239
 5191SOL    HW217174   2.832   5.847   0.224
 5192SOL     OW17175   3.555   6.176   1.833
 5192SOL    HW117176   3.559   6.250   1.766
 5192SOL    HW217177   3.568   6.088   1.787
 5193SOL     OW17178   3.301   6.753   0.599
 5193SOL    HW117179   3.391   6.715   0.578
 5193SOL    HW217180   3.281   6.829   0.538
 5194SOL     OW17181   2.428   5.691   0.939
 5194SOL    HW117182   2.447   5.722   1.033
 5194SOL    HW217183   2.436   5.768   0.876
 5195SOL     OW17184   3.673   6.652   0.902
 5195SOL    HW117185   3.656   6.718   0.829
 5195SOL    HW217186   3.602   6.660   0.972
 5196SOL     OW17187   2.262   6.547   0.354
 5196SOL    HW117188   2.335   6.535   0.286
 5196SOL    HW217189   2.243   6.459   0.398
 5197SOL     OW17190   3.323   6.389   0.815
 5197SOL    HW117191   3.355   6.313   0.872
 5197SOL    HW217192   3.395   6.416   0.752
 5198SOL     OW17193   2.106   5.872   1.459
 5198SOL    HW117194   2.038   5.946   1.454
 5198SOL    HW217195   2.071   5.799   1.518
 5199SOL     OW17196   3.580   6.996   0.107
 5199SOL    HW117197   3.627   0.067   0.160
 5199SOL    HW217198   3.482   0.016   0.105
 5200SOL     OW17199   2.222   6.280   0.458
 5200SOL    HW117200   2.240   6.182   0.473
 5200SOL    HW217201   2.125   6.299   0.476
 5201SOL     OW17202   2.773   6.126   0.896
 5201SOL    HW117203   2.754   6.103   0.800
 5201SOL    HW217204   2.821   6.051   0.940
 5202SOL     OW17205   2.403   5.669   0.489
 5202SOL    HW117206   2.323   5.663   0.549
 5202SOL    HW217207   2.386   5.736   0.417
 5203SOL     OW17208   3.325   6.726   0.051
 5203SOL    HW117209   3.351   6.660   0.121
 5203SOL    HW217210   3.271   6.680   6.980
 5204SOL     OW17211   2.835   5.826   0.522
 5204SOL    HW117212   2.834   5.866   0.430
 5204SOL    HW217213   2.930   5.818   0.553
 5205SOL     OW17214   2.909   6.208   1.404
 5205SOL    HW117215   2.814   6.187   1.430
 5205SOL    HW217216   2.968   6.197   1.483
 5206SOL     OW17217   3.187   0.127   0.723
 5206SOL    HW117218   3.095   0.088   0.717
 5206SOL    HW217219   3.184   0.222   0.693
 5207SOL     OW17220   2.380   6.735   0.761
 5207SOL    HW117221   2.296   6.712   0.810
 5207SOL    HW217222   2.357   6.770   0.670
 5208SOL     OW17223   2.864   6.182   0.030
 5208SOL    HW117224   2.780   6.135   0.056
 5208SOL    HW217225   2.939   6.152   0.090
 5209SOL     OW17226   1.971   6.118   1.399
 5209SOL    HW117227   2.059   6.130   1.354
 5209SOL    HW217228   1.961   6.188   1.470
 5210SOL     OW17229   2.472   5.767   1.197
 5210SOL    HW117230   2.512   5.703   1.263
 5210SOL    HW217231   2.374   5.776   1.214
 5211SOL     OW17232   2.735   6.055   0.639
 5211SOL    HW117233   2.707   6.107   0.559
 5211SOL    HW217234   2.767   5.965   0.611
 5212SOL     OW17235   2.877   5.568   0.715
 5212SOL    HW117236   2.798   5.578   0.654
 5212SOL    HW217237   2.849   5.519   0.797
 5213SOL     OW17238   3.287   6.755   0.906
 5213SOL    HW117239   3.199   6.748   0.952
 5213SOL    HW217240   3.274   6.744   0.807
 5214SOL     OW17241   3.436   6.184   0.958
 5214SOL    HW117242   3.391   6.127   1.028
 5214SOL    HW217243   3.520   6.221   0.996
 5215SOL     OW17244   3.711   6.444   0.339
 5215SOL    HW117245   3.746   6.379   0.406
 5215SOL    HW217246   3.675   6.394   0.260
 5216SOL     OW17247   3.661   6.842   0.706
 5216SOL    HW117248   3.760   6.852   0.691
 5216SOL    HW217249   3.618   6.932   0.697
 5217SOL     OW17250   3.223   6.147   7.000
 5217SOL    HW117251   3.172   6.121   0.082
 5217SOL    HW217252   3.300   6.084   6.987
 5218SOL     OW17253   2.353   5.851   0.287
 5218SOL    HW117254   2.440   5.823   0.246
 5218SOL    HW217255   2.305   5.912   0.224
 5219SOL     OW17256   3.572   6.790   1.570
 5219SOL    HW117257   3.594   6.738   1.652
 5219SOL    HW217258   3.631   6.870   1.564
 5220SOL     OW17259   2.915   6.863   1.271
 5220SOL    HW117260   2.832   6.846   1.324
 5220SOL    HW217261   2.995   6.845   1.328
 5221SOL     OW17262   3.048   6.760   1.048
 5221SOL    HW117263   2.997   6.807   1.120
 5221SOL    HW217264   2.999   6.768   0.961
 5222SOL     OW17265   3.478   6.693   1.091
 5222SOL    HW117266   3.464   6.750   1.172
 5222SOL    HW217267   3.406   6.712   1.024
 5223SOL     OW17268   2.746   5.726   1.371
 5223SOL    HW117269   2.781   5.665   1.299
 5223SOL    HW217270   2.822   5.777   1.410
 5224SOL     OW17271   2.828   6.607   1.852
 5224SOL    HW117272   2.751   6.671   1.845
 5224SOL    HW217273   2.829   6.546   1.773
 5225SOL     OW17274   2.611   6.625   0.386
 5225SOL    HW117275   2.588   6.602   0.480
 5225SOL    HW217276   2.699   6.585   0.362
 5226SOL     OW17277   2.310   6.403   1.276
 5226SOL    HW117278   2.378   6.406   1.348
 5226SOL    HW217279   2.267   6.312   1.273
 5227SOL     OW17280   2.293   6.781   0.503
 5227SOL    HW117281   2.346   6.853   0.458
 5227SOL    HW217282   2.288   6.701   0.444
 5228SOL     OW17283   2.370   6.143   0.874
 5228SOL    HW117284   2.386   6.199   0.793
 5228SOL    HW217285   2.446   6.153   0.938
 5229SOL     OW17286   3.375   6.243   0.510
 5229SOL    HW117287   3.320   6.286   0.439
 5229SOL    HW217288   3.436   6.312   0.551
 5230SOL     OW17289   2.289   6.318   1.637
 5230SOL    HW117290   2.363   6.348   1.578
 5230SOL    HW217291   2.311   6.229   1.676
 5231SOL     OW17292   3.539   6.385   1.662
 5231SOL    HW117293   3.441   6.405   1.656
 5231SOL    HW217294   3.585   6.421   1.581
 5232SOL     OW17295   2.423   6.446   1.030
 5232SOL    HW117296   2.458   6.539   1.018
 5232SOL    HW217297   2.379   6.439   1.120
 5233SOL     OW17298   3.133   6.369   1.020
 5233SOL    HW117299   3.039   6.368   0.986
 5233SOL    HW217300   3.197   6.381   0.944
 5234SOL     OW17301   3.059   6.097   0.222
 5234SOL    HW117302   3.117   6.025   0.260
 5234SOL    HW217303   3.034   6.161   0.294
 5235SOL     OW17304   2.197   5.765   1.221
 5235SOL    HW117305   2.163   5.812   1.302
 5235SOL    HW217306   2.159   5.673   1.217
 5236SOL     OW17307   1.947   6.904   1.282
 5236SOL    HW117308   1.989   6.858   1.359
 5236SOL    HW217309   1.900   6.986   1.314
 5237SOL     OW17310   2.570   6.215   1.060
 5237SOL    HW117311   2.641   6.198   0.991
 5237SOL    HW217312   2.525   6.302   1.040
 5238SOL     OW17313   3.613   6.616   1.791
 5238SOL    HW117314   3.594   6.527   1.750
 5238SOL    HW217315   3.569   6.621   1.881
 5239SOL     OW17316   2.171   5.644   0.637
 5239SOL    HW117317   2.136   5.736   0.654
 5239SOL    HW217318   2.184   5.596   0.723
 5240SOL     OW17319   3.460   6.023   0.351
 5240SOL    HW117320   3.521   5.955   0.393
 5240SOL    HW217321   3.439   6.095   0.418
 5241SOL     OW17322   2.861   6.372   0.956
 5241SOL    HW117323   2.842   6.387   1.053
 5241SOL    HW217324   2.832   6.280   0.930
 5242SOL     OW17325   3.751   7.000   1.576
 5242SOL    HW117326   3.794   0.079   1.533
 5242SOL    HW217327   3.803   6.974   1.658
 5243SOL     OW17328   2.200   6.533   1.786
 5243SOL    HW117329   2.273   6.569   1.845
 5243SOL    HW217330   2.234   6.453   1.736
 5244SOL     OW17331   3.219   5.896   0.311
 5244SOL    HW117332   3.220   5.808   0.263
 5244SOL    HW217333   3.312   5.933   0.317
 5245SOL     OW17334   3.188   6.414   0.052
 5245SOL    HW117335   3.204   6.320   0.021
 5245SOL    HW217336   3.198   6.477   6.975
 5246SOL     OW17337   2.156   6.396   0.924
 5246SOL    HW117338   2.255   6.409   0.934
 5246SOL    HW217339   2.131   6.303   0.951
 5247SOL     OW17340   2.133   6.121   0.993
 5247SOL    HW117341   2.102   6.026   0.987
 5247SOL    HW217342   2.219   6.132   0.943
 5248SOL     OW17343   2.983   5.858   1.439
 5248SOL    HW117344   3.020   5.765   1.443
 5248SOL    HW217345   2.985   5.891   1.344
 5249SOL     OW17346   2.777   6.367   1.218
 5249SOL    HW117347   2.839   6.319   1.280
 5249SOL    HW217348   2.697   6.311   1.200
 5250SOL     OW17349   1.889   6.168   1.135
 5250SOL    HW117350   1.969   6.161   1.076
 5250SOL    HW217351   1.915   6.152   1.230
 5251SOL     OW17352   2.045   6.131   1.764
 5251SOL    HW117353   2.144   6.120   1.750
 5251SOL    HW217354   2.011   6.203   1.704
 5252SOL     OW17355   3.278   6.466   1.650
 5252SOL    HW117356   3.277   6.566   1.653
 5252SOL    HW217357   3.275   6.437   1.554
 5253SOL     OW17358   2.701   6.151   0.374
 5253SOL    HW117359   2.735   6.069   0.329
 5253SOL    HW217360   2.614   6.178   0.334
 5254SOL     OW17361   2.630   5.997   1.219
 5254SOL    HW117362   2.575   5.915   1.212
 5254SOL    HW217363   2.592   6.068   1.160
 5255SOL     OW17364   2.256   6.046   0.114
 5255SOL    HW117365   2.305   6.119   0.162
 5255SOL    HW217366   2.157   6.060   0.124
 5256SOL     OW17367   2.075   6.754   1.480
 5256SOL    HW117368   2.042   6.727   1.571
 5256SOL    HW217369   2.077   6.674   1.421
 5257SOL     OW17370   3.137   6.559   1.215
 5257SOL    HW117371   3.139   6.477   1.157
 5257SOL    HW217372   3.108   6.638   1.160
 5258SOL     OW17373   3.207   6.370   0.325
 5258SOL    HW117374   3.116   6.353   0.362
 5258SOL    HW217375   3.201   6.383   0.226
 5259SOL     OW17376   1.983   6.852   1.020
 5259SOL    HW117377   1.970   6.869   1.118
 5259SOL    HW217378   1.918   6.782   0.990
 5260SOL     OW17379   2.828   5.693   0.142
 5260SOL    HW117380   2.892   5.736   0.078
 5260SOL    HW217381   2.869   5.611   0.180
 5261SOL     OW17382   3.627   5.824   0.440
 5261SOL    HW117383   3.678   5.787   0.362
 5261SOL    HW217384   3.585   5.748   0.490
 5262SOL     OW17385   3.138   6.565   0.706
 5262SOL    HW117386   3.202   6.505   0.753
 5262SOL    HW217387   3.189   6.631   0.650
 5263SOL     OW17388   2.656   6.827   1.389
 5263SOL    HW117389   2.632   6.864   1.478
 5263SOL    HW217390   2.586   6.852   1.322
 5264SOL     OW17391   3.666   5.758   0.960
 5264SOL    HW117392   3.704   5.667   0.938
 5264SOL    HW217393   3.588   5.776   0.900
 5265SOL     OW17394   2.092   5.899   0.698
 5265SOL    HW117395   2.010   5.952   0.676
 5265SOL    HW217396   2.101   5.892   0.798
 5266SOL     OW17397   2.717   6.554   1.423
 5266SOL    HW117398   2.744   6.511   1.337
 5266SOL    HW217399   2.698   6.651   1.408
 5267SOL     OW17400   2.838   6.512   0.307
 5267SOL    HW117401   2.873   6.534   0.216
 5267SOL    HW217402   2.882   6.428   0.340
 5268SOL     OW17403   2.284   6.932   1.448
 5268SOL    HW117404   2.293   6.981   1.535
 5268SOL    HW217405   2.210   6.866   1.455
 5269SOL     OW17406   3.417   6.835   1.323
 5269SOL    HW117407   3.475   6.825   1.404
 5269SOL    HW217408   3.321   6.825   1.349
 5270SOL     OW17409   2.946   6.756   0.792
 5270SOL    HW117410   2.859   6.709   0.804
 5270SOL    HW217411   3.012   6.693   0.750
 5271SOL     OW17412   1.973   6.672   1.739
 5271SOL    HW117413   1.897   6.642   1.796
 5271SOL    HW217414   2.053   6.617   1.758
 5272SOL     OW17415   2.543   5.833   1.523
 5272SOL    HW117416   2.618   5.792   1.470
 5272SOL    HW217417   2.580   5.896   1.590
 5273SOL     OW17418   1.947   5.804   0.021
 5273SOL    HW117419   1.875   5.792   6.953
 5273SOL    HW217420   1.961   5.901   0.039
 5274SOL     OW17421   3.308   6.424   1.383
 5274SOL    HW117422   3.237   6.466   1.327
 5274SOL    HW217423   3.395   6.427   1.334
 5275SOL     OW17424   1.965   5.722   0.287
 5275SOL    HW117425   1.958   5.762   0.195
 5275SOL    HW217426   2.061   5.720   0.315
 5276SOL     OW17427   2.502   6.382   1.469
 5276SOL    HW117428   2.568   6.458   1.468
 5276SOL    HW217429   2.552   6.295   1.462
 5277SOL     OW17430   2.581   6.056   1.694
 5277SOL    HW117431   2.623   6.131   1.745
 5277SOL    HW217432   2.484   6.051   1.715
 5278SOL     OW17433   3.306   6.743   1.641
 5278SOL    HW117434   3.294   6.777   1.735
 5278SOL    HW217435   3.398   6.764   1.609
 5279SOL     OW17436   3.535   6.464   1.228
 5279SOL    HW117437   3.579   6.398   1.167
 5279SOL    HW217438   3.511   6.546   1.176
 5280SOL     OW17439   3.110   5.855   0.563
 5280SOL    HW117440   3.148   5.859   0.470
 5280SOL    HW217441   3.121   5.944   0.607
 5281SOL     OW17442   2.410   6.318   0.669
 5281SOL    HW117443   2.466   6.400   0.658
 5281SOL    HW217444   2.343   6.313   0.595
 5282SOL     OW17445   3.557   5.922   1.724
 5282SOL    HW117446   3.577   5.857   1.651
 5282SOL    HW217447   3.458   5.928   1.738
 5283SOL     OW17448   3.658   6.532   1.463
 5283SOL    HW117449   3.647   6.630   1.478
 5283SOL    HW217450   3.620   6.508   1.374
 5284SOL     OW17451   2.734   6.597   0.856
 5284SOL    HW117452   2.778   6.517   0.898
 5284SOL    HW217453   2.664   6.632   0.919
 5285SOL     OW17454   2.943   6.544   0.059
 5285SOL    HW117455   2.898   6.509   6.977
 5285SOL    HW217456   3.035   6.505   0.066
 5286SOL     OW17457   2.063   6.928   1.779
 5286SOL    HW117458   2.029   6.834   1.775
 5286SOL    HW217459   2.081   6.952   1.874
 5287SOL     OW17460   2.070   6.823   0.664
 5287SOL    HW117461   2.090   6.766   0.744
 5287SOL    HW217462   2.135   6.803   0.592
 5288SOL     OW17463   2.563   6.964   1.630
 5288SOL    HW117464   2.467   6.965   1.659
 5288SOL    HW217465   2.586   0.052   1.588
 5289SOL     OW17466   3.705   5.748   1.238
 5289SOL    HW117467   3.700   5.648   1.236
 5289SOL    HW217468   3.684   5.784   1.147
 5290SOL     OW17469   2.252   6.016   0.491
 5290SOL    HW117470   2.295   5.948   0.432
 5290SOL    HW217471   2.207   5.970   0.568
 5291SOL     OW17472   3.454   0.064   1.171
 5291SOL    HW117473   3.410   0.048   1.082
 5291SOL    HW217474   3.440   6.985   1.230
 5292SOL     OW17475   2.202   6.154   1.261
 5292SOL    HW117476   2.267   6.093   1.305
 5292SOL    HW217477   2.194   6.131   1.164
 5293SOL     OW17478   2.902   5.552   1.183
 5293SOL    HW117479   2.873   5.508   1.097
 5293SOL    HW217480   3.001   5.541   1.194
 5294SOL     OW17481   2.688   6.875   0.297
 5294SOL    HW117482   2.658   6.785   0.327
 5294SOL    HW217483   2.705   6.933   0.377
 5295SOL     OW17484   3.198   5.656   0.180
 5295SOL    HW117485   3.266   5.589   0.150
 5295SOL    HW217486   3.117   5.608   0.215
 5296SOL     OW17487   3.149   6.121   0.634
 5296SOL    HW117488   3.083   6.192   0.660
 5296SOL    HW217489   3.229   6.164   0.593
 5297SOL     OW17490   3.471   5.809   0.778
 5297SOL    HW117491   3.463   5.749   0.698
 5297SOL    HW217492   3.469   5.904   0.747
 5298SOL     OW17493   2.022   6.648   0.254
 5298SOL    HW117494   2.111   6.627   0.295
 5298SOL    HW217495   1.962   6.569   0.265
 5299SOL     OW17496   2.047   6.130   2.038
 5299SOL    HW117497   1.954   6.130   2.075
 5299SOL    HW217498   2.043   6.138   1.938
 5300SOL     OW17499   2.047   5.895   2.864
 5300SOL    HW117500   2.089   5.862   2.948
 5300SOL    HW217501   1.963   5.845   2.846
 5301SOL     OW17502   1.803   5.997   2.492
 5301SOL    HW117503   1.717   6.027   2.533
 5301SOL    HW217504   1.786   5.917   2.434
 5302SOL     OW17505   2.354   6.929   3.000
 5302SOL    HW117506   2.282   6.958   2.937
 5302SOL    HW217507   2.315   6.919   3.092
 5303SOL     OW17508   3.520   0.064   2.535
 5303SOL    HW117509   3.519   0.136   2.604
 5303SOL    HW217510   3.428   0.026   2.524
 5304SOL     OW17511   2.908   6.442   2.523
 5304SOL    HW117512   3.006   6.462   2.527
 5304SOL    HW217513   2.875   6.423   2.616
 5305SOL     OW17514   3.683   6.251   2.061
 5305SOL    HW117515   3.629   6.226   1.981
 5305SOL    HW217516   3.629   6.237   2.144
 5306SOL     OW17517   2.478   6.716   2.843
 5306SOL    HW117518   2.441   6.788   2.902
 5306SOL    HW217519   2.437   6.724   2.752
 5307SOL     OW17520   2.818   6.392   3.771
 5307SOL    HW117521   2.893   6.443   3.813
 5307SOL    HW217522   2.731   6.435   3.794
 5308SOL     OW17523   2.545   6.560   2.474
 5308SOL    HW117524   2.632   6.567   2.521
 5308SOL    HW217525   2.477   6.619   2.517
 5309SOL     OW17526   2.467   6.773   3.710
 5309SOL    HW117527   2.539   6.831   3.748
 5309SOL    HW217528   2.431   6.816   3.627
 5310SOL     OW17529   2.154   0.033   2.855
 5310SOL    HW117530   2.065   6.992   2.833
 5310SOL    HW217531   2.172   0.109   2.793
 5311SOL     OW17532   2.233   5.980   3.434
 5311SOL    HW117533   2.321   5.932   3.427
 5311SOL    HW217534   2.159   5.917   3.413
 5312SOL     OW17535   3.435   6.067   2.549
 5312SOL    HW117536   3.351   6.022   2.518
 5312SOL    HW217537   3.415   6.160   2.579
 5313SOL     OW17538   2.140   6.681   2.770
 5313SOL    HW117539   2.148   6.582   2.772
 5313SOL    HW217540   2.105   6.714   2.857
 5314SOL     OW17541   2.395   6.633   1.958
 5314SOL    HW117542   2.463   6.678   1.900
 5314SOL    HW217543   2.438   6.608   2.045
 5315SOL     OW17544   3.494   5.701   3.391
 5315SOL    HW117545   3.553   5.774   3.358
 5315SOL    HW217546   3.444   5.732   3.472
 5316SOL     OW17547   1.930   6.261   2.441
 5316SOL    HW117548   1.892   6.171   2.462
 5316SOL    HW217549   1.920   6.320   2.521
 5317SOL     OW17550   3.586   6.443   2.477
 5317SOL    HW117551   3.667   6.438   2.534
 5317SOL    HW217552   3.584   6.530   2.428
 5318SOL     OW17553   3.588   6.692   2.361
 5318SOL    HW117554   3.653   6.703   2.285
 5318SOL    HW217555   3.619   6.747   2.438
 5319SOL     OW17556   2.011   6.340   3.425
 5319SOL    HW117557   2.102   6.380   3.431
 5319SOL    HW217558   1.944   6.411   3.406
 5320SOL     OW17559   3.177   6.814   3.284
 5320SOL    HW117560   3.215   6.750   3.216
 5320SOL    HW217561   3.249   6.839   3.349
 5321SOL     OW17562   2.649   5.647   2.350
 5321SOL    HW117563   2.650   5.745   2.333
 5321SOL    HW217564   2.554   5.614   2.353
 5322SOL     OW17565   2.052   6.500   3.116
 5322SOL    HW117566   2.144   6.462   3.105
 5322SOL    HW217567   1.987   6.444   3.065
 5323SOL     OW17568   3.454   6.589   2.019
 5323SOL    HW117569   3.385   6.522   1.991
 5323SOL    HW217570   3.486   6.568   2.111
 5324SOL     OW17571   2.218   5.843   3.752
 5324SOL    HW117572   2.257   5.926   3.791
 5324SOL    HW217573   2.121   5.858   3.730
 5325SOL     OW17574   3.273   6.923   2.825
 5325SOL    HW117575   3.187   6.901   2.872
 5325SOL    HW217576   3.313   6.839   2.789
 5326SOL     OW17577   2.409   6.312   2.196
 5326SOL    HW117578   2.438   6.408   2.193
 5326SOL    HW217579   2.331   6.302   2.257
 5327SOL     OW17580   2.529   6.209   3.357
 5327SOL    HW117581   2.585   6.173   3.433
 5327SOL    HW217582   2.536   6.146   3.279
 5328SOL     OW17583   2.820   6.363   2.274
 5328SOL    HW117584   2.854   6.392   2.363
 5328SOL    HW217585   2.764   6.281   2.285
 5329SOL     OW17586   1.911   6.449   2.647
 5329SOL    HW117587   2.005   6.433   2.677
 5329SOL    HW217588   1.873   6.526   2.698
 5330SOL     OW17589   3.488   6.150   3.749
 5330SOL    HW117590   3.488   6.229   3.688
 5330SOL    HW217591   3.538   6.074   3.707
 5331SOL     OW17592   3.339   6.711   2.490
 5331SOL    HW117593   3.418   6.701   2.430
 5331SOL    HW217594   3.307   6.805   2.487
 5332SOL     OW17595   2.402   5.729   2.794
 5332SOL    HW117596   2.402   5.752   2.891
 5332SOL    HW217597   2.422   5.810   2.740
 5333SOL     OW17598   3.680   6.652   2.773
 5333SOL    HW117599   3.666   6.717   2.698
 5333SOL    HW217600   3.610   6.667   2.843
 5334SOL     OW17601   2.174   6.586   2.132
 5334SOL    HW117602   2.236   6.618   2.060
 5334SOL    HW217603   2.170   6.487   2.132
 5335SOL     OW17604   3.387   6.327   2.619
 5335SOL    HW117605   3.386   6.362   2.712
 5335SOL    HW217606   3.460   6.372   2.567
 5336SOL     OW17607   2.025   5.821   3.360
 5336SOL    HW117608   1.945   5.878   3.345
 5336SOL    HW217609   1.998   5.737   3.406
 5337SOL     OW17610   3.494   0.004   1.968
 5337SOL    HW117611   3.457   0.097   1.966
 5337SOL    HW217612   3.423   6.939   1.941
 5338SOL     OW17613   2.201   6.263   2.365
 5338SOL    HW117614   2.218   6.165   2.361
 5338SOL    HW217615   2.104   6.279   2.383
 5339SOL     OW17616   2.637   5.826   3.589
 5339SOL    HW117617   2.723   5.774   3.589
 5339SOL    HW217618   2.580   5.798   3.666
 5340SOL     OW17619   3.346   6.205   3.271
 5340SOL    HW117620   3.340   6.157   3.359
 5340SOL    HW217621   3.330   6.303   3.285
 5341SOL     OW17622   2.792   6.121   2.747
 5341SOL    HW117623   2.785   6.124   2.648
 5341SOL    HW217624   2.832   6.034   2.776
 5342SOL     OW17625   2.374   5.605   2.318
 5342SOL    HW117626   2.299   5.630   2.380
 5342SOL    HW217627   2.376   5.669   2.241
 5343SOL     OW17628   3.303   6.798   1.922
 5343SOL    HW117629   3.374   6.738   1.960
 5343SOL    HW217630   3.216   6.749   1.921
 5344SOL     OW17631   3.260   6.974   2.501
 5344SOL    HW117632   3.243   0.031   2.420
 5344SOL    HW217633   3.199   0.002   2.575
 5345SOL     OW17634   2.349   6.711   2.594
 5345SOL    HW117635   2.272   6.702   2.658
 5345SOL    HW217636   2.313   6.734   2.504
 5346SOL     OW17637   1.985   6.153   3.229
 5346SOL    HW117638   2.079   6.133   3.204
 5346SOL    HW217639   1.983   6.221   3.302
 5347SOL     OW17640   2.389   5.783   3.063
 5347SOL    HW117641   2.422   5.710   3.122
 5347SOL    HW217642   2.290   5.792   3.072
 5348SOL     OW17643   2.790   6.113   2.476
 5348SOL    HW117644   2.715   6.127   2.411
 5348SOL    HW217645   2.875   6.098   2.426
 5349SOL     OW17646   2.793   5.699   2.592
 5349SOL    HW117647   2.745   5.673   2.508
 5349SOL    HW217648   2.801   5.620   2.652
 5350SOL     OW17649   3.359   6.670   2.763
 5350SOL    HW117650   3.329   6.579   2.791
 5350SOL    HW217651   3.356   6.677   2.663
 5351SOL     OW17652   3.835   6.429   2.201
 5351SOL    HW117653   3.844   6.380   2.287
 5351SOL    HW217654   3.786   6.372   2.135
 5352SOL     OW17655   3.674   6.842   2.572
 5352SOL    HW117656   3.772   6.858   2.559
 5352SOL    HW217657   3.624   6.927   2.558
 5353SOL     OW17658   3.320   6.151   1.971
 5353SOL    HW117659   3.319   6.058   2.008
 5353SOL    HW217660   3.406   6.166   1.922
 5354SOL     OW17661   3.641   6.837   3.429
 5354SOL    HW117662   3.732   6.810   3.398
 5354SOL    HW217663   3.649   6.888   3.514
 5355SOL     OW17664   2.986   6.977   3.174
 5355SOL    HW117665   2.987   0.063   3.227
 5355SOL    HW217666   3.047   6.911   3.217
 5356SOL     OW17667   3.048   6.822   2.947
 5356SOL    HW117668   3.011   6.879   3.020
 5356SOL    HW217669   2.985   6.822   2.869
 5357SOL     OW17670   3.518   6.714   2.994
 5357SOL    HW117671   3.509   6.787   3.062
 5357SOL    HW217672   3.439   6.716   2.932
 5358SOL     OW17673   2.523   6.575   2.195
 5358SOL    HW117674   2.537   6.573   2.294
 5358SOL    HW217675   2.599   6.530   2.149
 5359SOL     OW17676   2.301   6.383   3.108
 5359SOL    HW117677   2.369   6.423   3.168
 5359SOL    HW217678   2.280   6.290   3.138
 5360SOL     OW17679   2.222   6.755   2.351
 5360SOL    HW117680   2.237   6.848   2.316
 5360SOL    HW217681   2.208   6.693   2.274
 5361SOL     OW17682   2.374   6.145   2.750
 5361SOL    HW117683   2.386   6.213   2.677
 5361SOL    HW217684   2.453   6.149   2.812
 5362SOL     OW17685   3.545   6.232   2.298
 5362SOL    HW117686   3.523   6.151   2.352
 5362SOL    HW217687   3.560   6.310   2.359
 5363SOL     OW17688   2.297   6.383   3.454
 5363SOL    HW117689   2.350   6.448   3.399
 5363SOL    HW217690   2.341   6.294   3.452
 5364SOL     OW17691   3.507   6.357   3.574
 5364SOL    HW117692   3.436   6.427   3.565
 5364SOL    HW217693   3.576   6.371   3.502
 5365SOL     OW17694   2.862   5.684   3.624
 5365SOL    HW117695   2.923   5.732   3.687
 5365SOL    HW217696   2.915   5.615   3.573
 5366SOL     OW17697   2.353   5.635   3.635
 5366SOL    HW117698   2.302   5.589   3.563
 5366SOL    HW217699   2.302   5.715   3.667
 5367SOL     OW17700   2.498   6.443   2.920
 5367SOL    HW117701   2.493   6.539   2.893
 5367SOL    HW217702   2.419   6.419   2.975
 5368SOL     OW17703   3.291   6.420   2.874
 5368SOL    HW117704   3.208   6.374   2.842
 5368SOL    HW217705   3.345   6.357   2.930
 5369SOL     OW17706   2.119   5.770   3.104
 5369SOL    HW117707   2.090   5.799   3.195
 5369SOL    HW217708   2.093   5.675   3.089
 5370SOL     OW17709   1.894   6.863   3.159
 5370SOL    HW117710   1.957   6.801   3.204
 5370SOL    HW217711   1.867   6.936   3.222
 5371SOL     OW17712   2.588   6.180   2.924
 5371SOL    HW117713   2.664   6.158   2.862
 5371SOL    HW217714   2.569   6.279   2.920
 5372SOL     OW17715   3.650   6.547   3.724
 5372SOL    HW117716   3.603   6.470   3.680
 5372SOL    HW217717   3.590   6.588   3.792
 5373SOL     OW17718   2.169   5.674   2.483
 5373SOL    HW117719   2.124   5.758   2.513
 5373SOL    HW217720   2.182   5.613   2.562
 5374SOL     OW17721   2.821   6.389   2.791
 5374SOL    HW117722   2.810   6.403   2.890
 5374SOL    HW217723   2.815   6.292   2.770
 5375SOL     OW17724   2.206   6.504   3.685
 5375SOL    HW117725   2.275   6.517   3.756
 5375SOL    HW217726   2.246   6.455   3.608
 5376SOL     OW17727   3.377   5.883   2.043
 5376SOL    HW117728   3.326   5.800   2.020
 5376SOL    HW217729   3.472   5.860   2.063
 5377SOL     OW17730   3.257   6.417   1.923
 5377SOL    HW117731   3.268   6.322   1.951
 5377SOL    HW217732   3.258   6.422   1.823
 5378SOL     OW17733   2.166   6.411   2.742
 5378SOL    HW117734   2.246   6.399   2.683
 5378SOL    HW217735   2.148   6.325   2.791
 5379SOL     OW17736   2.122   6.155   2.842
 5379SOL    HW117737   2.086   6.063   2.853
 5379SOL    HW217738   2.217   6.150   2.811
 5380SOL     OW17739   1.870   6.907   2.084
 5380SOL    HW117740   1.776   6.927   2.057
 5380SOL    HW217741   1.878   6.811   2.109
 5381SOL     OW17742   1.912   6.257   2.989
 5381SOL    HW117743   1.984   6.231   2.925
 5381SOL    HW217744   1.934   6.221   3.080
 5382SOL     OW17745   2.070   6.132   3.599
 5382SOL    HW117746   2.140   6.083   3.547
 5382SOL    HW217747   2.038   6.211   3.546
 5383SOL     OW17748   3.361   6.581   3.503
 5383SOL    HW117749   3.366   6.681   3.498
 5383SOL    HW217750   3.347   6.544   3.411
 5384SOL     OW17751   2.625   6.151   2.260
 5384SOL    HW117752   2.616   6.068   2.205
 5384SOL    HW217753   2.548   6.212   2.241
 5385SOL     OW17754   3.443   6.244   3.021
 5385SOL    HW117755   3.406   6.225   3.112
 5385SOL    HW217756   3.537   6.210   3.015
 5386SOL     OW17757   2.509   6.023   3.136
 5386SOL    HW117758   2.478   5.936   3.099
 5386SOL    HW217759   2.549   6.079   3.063
 5387SOL     OW17760   2.319   6.108   2.028
 5387SOL    HW117761   2.365   6.179   2.082
 5387SOL    HW217762   2.221   6.108   2.048
 5388SOL     OW17763   2.068   6.705   3.298
 5388SOL    HW117764   2.046   6.677   3.392
 5388SOL    HW217765   2.062   6.626   3.238
 5389SOL     OW17766   3.209   6.626   3.058
 5389SOL    HW117767   3.232   6.559   2.987
 5389SOL    HW217768   3.146   6.694   3.020
 5390SOL     OW17769   1.913   6.889   2.887
 5390SOL    HW117770   1.903   6.881   2.986
 5390SOL    HW217771   1.877   6.806   2.843
 5391SOL     OW17772   3.653   5.770   2.344
 5391SOL    HW117773   3.693   5.749   2.255
 5391SOL    HW217774   3.607   5.688   2.380
 5392SOL     OW17775   3.175   6.495   2.548
 5392SOL    HW117776   3.238   6.418   2.557
 5392SOL    HW217777   3.225   6.575   2.514
 5393SOL     OW17778   3.660   5.784   2.817
 5393SOL    HW117779   3.694   5.692   2.795
 5393SOL    HW217780   3.574   5.801   2.770
 5394SOL     OW17781   2.056   5.906   2.575
 5394SOL    HW117782   1.968   5.947   2.551
 5394SOL    HW217783   2.070   5.913   2.674
 5395SOL     OW17784   3.105   0.184   1.898
 5395SOL    HW117785   3.106   0.109   1.964
 5395SOL    HW217786   3.018   0.183   1.848
 5396SOL     OW17787   2.713   6.448   2.044
 5396SOL    HW117788   2.769   6.507   1.987
 5396SOL    HW217789   2.766   6.417   2.123
 5397SOL     OW17790   2.231   6.927   3.254
 5397SOL    HW117791   2.278   6.949   3.339
 5397SOL    HW217792   2.172   6.848   3.268
 5398SOL     OW17793   3.492   6.908   3.202
 5398SOL    HW117794   3.551   6.858   3.265
 5398SOL    HW217795   3.470   6.998   3.240
 5399SOL     OW17796   2.915   6.805   2.697
 5399SOL    HW117797   2.833   6.749   2.702
 5399SOL    HW217798   2.983   6.761   2.638
 5400SOL     OW17799   2.898   5.874   2.787
 5400SOL    HW117800   2.862   5.817   2.713
 5400SOL    HW217801   2.971   5.825   2.834
 5401SOL     OW17802   3.654   5.911   3.310
 5401SOL    HW117803   3.718   5.986   3.296
 5401SOL    HW217804   3.631   5.869   3.222
 5402SOL     OW17805   2.002   6.636   3.564
 5402SOL    HW117806   1.914   6.619   3.609
 5402SOL    HW217807   2.074   6.586   3.613
 5403SOL     OW17808   2.474   5.856   3.372
 5403SOL    HW117809   2.512   5.916   3.302
 5403SOL    HW217810   2.539   5.847   3.447
 5404SOL     OW17811   1.921   5.886   1.796
 5404SOL    HW117812   1.827   5.901   1.767
 5404SOL    HW217813   1.970   5.974   1.797
 5405SOL     OW17814   3.339   6.483   3.253
 5405SOL    HW117815   3.278   6.532   3.189
 5405SOL    HW217816   3.432   6.485   3.218
 5406SOL     OW17817   2.500   6.466   3.277
 5406SOL    HW117818   2.585   6.513   3.256
 5406SOL    HW217819   2.519   6.373   3.308
 5407SOL     OW17820   2.674   6.094   3.558
 5407SOL    HW117821   2.731   6.123   3.635
 5407SOL    HW217822   2.655   5.996   3.566
 5408SOL     OW17823   3.372   6.863   3.496
 5408SOL    HW117824   3.358   6.852   3.595
 5408SOL    HW217825   3.470   6.858   3.475
 5409SOL     OW17826   3.590   6.490   3.135
 5409SOL    HW117827   3.581   6.410   3.076
 5409SOL    HW217828   3.574   6.573   3.080
 5410SOL     OW17829   2.370   6.353   2.564
 5410SOL    HW117830   2.440   6.415   2.529
 5410SOL    HW217831   2.313   6.322   2.488
 5411SOL     OW17832   3.612   5.938   3.601
 5411SOL    HW117833   3.642   5.941   3.505
 5411SOL    HW217834   3.523   5.893   3.607
 5412SOL     OW17835   3.691   6.446   3.390
 5412SOL    HW117836   3.736   6.524   3.433
 5412SOL    HW217837   3.662   6.470   3.298
 5413SOL     OW17838   2.708   6.631   2.713
 5413SOL    HW117839   2.738   6.540   2.741
 5413SOL    HW217840   2.628   6.658   2.767
 5414SOL     OW17841   3.087   6.644   1.935
 5414SOL    HW117842   2.991   6.633   1.908
 5414SOL    HW217843   3.130   6.554   1.944
 5415SOL     OW17844   2.007   6.890   3.666
 5415SOL    HW117845   2.018   6.799   3.626
 5415SOL    HW217846   1.950   6.883   3.748
 5416SOL     OW17847   2.045   6.821   2.551
 5416SOL    HW117848   2.071   6.774   2.636
 5416SOL    HW217849   2.097   6.783   2.475
 5417SOL     OW17850   2.374   6.976   3.500
 5417SOL    HW117851   2.315   6.996   3.579
 5417SOL    HW217852   2.426   0.057   3.475
 5418SOL     OW17853   3.587   5.776   3.081
 5418SOL    HW117854   3.579   5.677   3.091
 5418SOL    HW217855   3.619   5.798   2.988
 5419SOL     OW17856   2.227   5.995   2.368
 5419SOL    HW117857   2.240   5.921   2.302
 5419SOL    HW217858   2.175   5.961   2.446
 5420SOL     OW17859   3.424   0.075   2.991
 5420SOL    HW117860   3.371   0.029   2.920
 5420SOL    HW217861   3.441   0.011   3.066
 5421SOL     OW17862   2.258   6.125   3.203
 5421SOL    HW117863   2.248   6.084   3.294
 5421SOL    HW217864   2.342   6.092   3.161
 5422SOL     OW17865   2.595   6.877   2.110
 5422SOL    HW117866   2.561   6.792   2.150
 5422SOL    HW217867   2.638   6.933   2.182
 5423SOL     OW17868   3.228   5.658   1.973
 5423SOL    HW117869   3.182   5.706   1.898
 5423SOL    HW217870   3.163   5.595   2.016
 5424SOL     OW17871   3.407   5.842   2.730
 5424SOL    HW117872   3.373   5.879   2.816
 5424SOL    HW217873   3.413   5.915   2.662
 5425SOL     OW17874   1.902   6.633   2.174
 5425SOL    HW117875   2.000   6.627   2.157
 5425SOL    HW217876   1.862   6.541   2.176
 5426SOL     OW17877   2.056   6.161   3.873
 5426SOL    HW117878   1.960   6.154   3.901
 5426SOL    HW217879   2.061   6.171   3.773
 5427SOL     OW17880   2.064   5.865   4.720
 5427SOL    HW117881   2.113   5.837   4.802
 5427SOL    HW217882   1.972   5.826   4.721
 5428SOL     OW17883   1.866   6.006   4.360
 5428SOL    HW117884   1.782   6.026   4.412
 5428SOL    HW217885   1.845   5.938   4.290
 5429SOL     OW17886   2.417   6.914   4.986
 5429SOL    HW117887   2.358   6.924   4.905
 5429SOL    HW217888   2.361   6.920   5.068
 5430SOL     OW17889   3.384   0.090   4.412
 5430SOL    HW117890   3.428   0.142   4.486
 5430SOL    HW217891   3.285   0.101   4.419
 5431SOL     OW17892   2.974   6.337   4.406
 5431SOL    HW117893   3.022   6.423   4.391
 5431SOL    HW217894   2.927   6.339   4.495
 5432SOL     OW17895   3.666   6.167   3.971
 5432SOL    HW117896   3.612   6.186   3.889
 5432SOL    HW217897   3.630   6.086   4.017
 5433SOL     OW17898   2.512   6.671   4.711
 5433SOL    HW117899   2.491   6.735   4.785
 5433SOL    HW217900   2.465   6.701   4.628
 5434SOL     OW17901   2.739   6.309   5.574
 5434SOL    HW117902   2.737   6.368   5.655
 5434SOL    HW217903   2.749   6.366   5.493
 5435SOL     OW17904   2.537   6.553   4.370
 5435SOL    HW117905   2.622   6.553   4.422
 5435SOL    HW217906   2.475   6.623   4.407
 5436SOL     OW17907   2.566   6.780   5.571
 5436SOL    HW117908   2.579   6.824   5.660
 5436SOL    HW217909   2.558   6.850   5.500
 5437SOL     OW17910   2.226   6.958   4.799
 5437SOL    HW117911   2.139   6.920   4.768
 5437SOL    HW217912   2.263   0.017   4.728
 5438SOL     OW17913   2.360   5.931   5.167
 5438SOL    HW117914   2.440   5.873   5.186
 5438SOL    HW217915   2.280   5.892   5.212
 5439SOL     OW17916   3.436   6.029   4.459
 5439SOL    HW117917   3.407   6.059   4.368
 5439SOL    HW217918   3.394   6.088   4.529
 5440SOL     OW17919   2.153   6.670   4.626
 5440SOL    HW117920   2.152   6.570   4.638
 5440SOL    HW217921   2.100   6.713   4.699
 5441SOL     OW17922   2.399   6.574   3.891
 5441SOL    HW117923   2.416   6.641   3.819
 5441SOL    HW217924   2.457   6.594   3.970
 5442SOL     OW17925   3.581   5.705   5.244
 5442SOL    HW117926   3.639   5.730   5.166
 5442SOL    HW217927   3.538   5.788   5.281
 5443SOL     OW17928   1.957   6.268   4.304
 5443SOL    HW117929   1.931   6.174   4.326
 5443SOL    HW217930   1.938   6.327   4.382
 5444SOL     OW17931   3.552   6.482   4.356
 5444SOL    HW117932   3.607   6.415   4.306
 5444SOL    HW217933   3.532   6.560   4.298
 5445SOL     OW17934   3.527   6.686   4.160
 5445SOL    HW117935   3.616   6.653   4.127
 5445SOL    HW217936   3.541   6.761   4.224
 5446SOL     OW17937   1.968   6.354   5.268
 5446SOL    HW117938   2.035   6.407   5.216
 5446SOL    HW217939   1.881   6.402   5.268
 5447SOL     OW17940   3.099   6.786   5.116
 5447SOL    HW117941   3.132   6.714   5.054
 5447SOL    HW217942   3.175   6.818   5.173
 5448SOL     OW17943   2.685   5.620   4.227
 5448SOL    HW117944   2.733   5.702   4.197
 5448SOL    HW217945   2.587   5.639   4.233
 5449SOL     OW17946   2.086   6.513   5.068
 5449SOL    HW117947   2.172   6.470   5.038
 5449SOL    HW217948   2.018   6.506   4.994
 5450SOL     OW17949   3.449   6.631   3.898
 5450SOL    HW117950   3.380   6.561   3.915
 5450SOL    HW217951   3.492   6.656   3.985
 5451SOL     OW17952   2.221   5.864   5.584
 5451SOL    HW117953   2.259   5.936   5.642
 5451SOL    HW217954   2.124   5.882   5.568
 5452SOL     OW17955   3.276   6.914   4.717
 5452SOL    HW117956   3.185   6.885   4.746
 5452SOL    HW217957   3.304   6.863   4.636
 5453SOL     OW17958   2.420   6.300   4.003
 5453SOL    HW117959   2.421   6.387   3.954
 5453SOL    HW217960   2.346   6.300   4.070
 5454SOL     OW17961   3.123   5.976   4.645
 5454SOL    HW117962   3.035   5.929   4.643
 5454SOL    HW217963   3.184   5.930   4.709
 5455SOL     OW17964   2.645   6.144   5.178
 5455SOL    HW117965   2.612   6.116   5.268
 5455SOL    HW217966   2.621   6.073   5.111
 5456SOL     OW17967   3.233   6.142   5.390
 5456SOL    HW117968   3.208   6.209   5.459
 5456SOL    HW217969   3.332   6.128   5.390
 5457SOL     OW17970   2.784   6.461   5.343
 5457SOL    HW117971   2.838   6.396   5.290
 5457SOL    HW217972   2.728   6.517   5.282
 5458SOL     OW17973   2.872   5.957   4.910
 5458SOL    HW117974   2.778   5.963   4.942
 5458SOL    HW217975   2.874   5.909   4.822
 5459SOL     OW17976   2.883   6.266   4.148
 5459SOL    HW117977   2.908   6.280   4.243
 5459SOL    HW217978   2.792   6.223   4.144
 5460SOL     OW17979   1.912   6.447   4.514
 5460SOL    HW117980   2.001   6.424   4.552
 5460SOL    HW217981   1.874   6.526   4.562
 5461SOL     OW17982   2.694   5.939   3.936
 5461SOL    HW117983   2.741   5.998   3.871
 5461SOL    HW217984   2.644   5.868   3.886
 5462SOL     OW17985   3.253   6.684   4.182
 5462SOL    HW117986   3.352   6.688   4.170
 5462SOL    HW217987   3.210   6.753   4.124
 5463SOL     OW17988   2.406   5.698   4.660
 5463SOL    HW117989   2.421   5.722   4.756
 5463SOL    HW217990   2.410   5.781   4.604
 5464SOL     OW17991   3.708   6.570   4.573
 5464SOL    HW117992   3.653   6.539   4.495
 5464SOL    HW217993   3.657   6.637   4.626
 5465SOL     OW17994   2.176   6.556   4.068
 5465SOL    HW117995   2.240   6.564   3.992
 5465SOL    HW217996   2.181   6.463   4.105
 5466SOL     OW17997   3.316   6.359   4.425
 5466SOL    HW117998   3.317   6.303   4.508
 5466SOL    HW217999   3.406   6.399   4.410
 5467SOL     OW18000   2.101   5.845   5.225
 5467SOL    HW118001   2.057   5.931   5.252
 5467SOL    HW218002   2.048   5.768   5.261
 5468SOL     OW18003   3.298   5.711   4.179
 5468SOL    HW118004   3.281   5.676   4.087
 5468SOL    HW218005   3.396   5.718   4.195
 5469SOL     OW18006   2.210   6.282   4.192
 5469SOL    HW118007   2.240   6.186   4.200
 5469SOL    HW218008   2.115   6.289   4.221
 5470SOL     OW18009   2.540   5.709   3.830
 5470SOL    HW118010   2.610   5.639   3.842
 5470SOL    HW218011   2.467   5.674   3.771
 5471SOL     OW18012   2.649   5.852   5.473
 5471SOL    HW118013   2.741   5.815   5.482
 5471SOL    HW218014   2.589   5.809   5.542
 5472SOL     OW18015   3.142   6.222   5.146
 5472SOL    HW118016   3.173   6.187   5.235
 5472SOL    HW218017   3.183   6.312   5.130
 5473SOL     OW18018   2.787   6.087   4.602
 5473SOL    HW118019   2.762   6.078   4.506
 5473SOL    HW218020   2.822   5.999   4.636
 5474SOL     OW18021   2.416   5.658   4.226
 5474SOL    HW118022   2.335   5.650   4.285
 5474SOL    HW218023   2.403   5.734   4.162
 5475SOL     OW18024   3.300   6.804   3.754
 5475SOL    HW118025   3.368   6.748   3.801
 5475SOL    HW218026   3.229   6.746   3.715
 5476SOL     OW18027   2.148   5.624   3.904
 5476SOL    HW118028   2.192   5.703   3.861
 5476SOL    HW218029   2.217   5.570   3.953
 5477SOL     OW18030   2.824   5.843   4.160
 5477SOL    HW118031   2.784   5.879   4.076
 5477SOL    HW218032   2.923   5.858   4.160
 5478SOL     OW18033   2.872   6.294   5.139
 5478SOL    HW118034   2.804   6.222   5.154
 5478SOL    HW218035   2.963   6.254   5.138
 5479SOL     OW18036   3.123   0.162   4.421
 5479SOL    HW118037   3.102   0.259   4.410
 5479SOL    HW218038   3.038   0.110   4.433
 5480SOL     OW18039   2.368   6.735   4.477
 5480SOL    HW118040   2.288   6.714   4.534
 5480SOL    HW218041   2.338   6.775   4.390
 5481SOL     OW18042   2.836   6.124   3.788
 5481SOL    HW118043   2.827   6.223   3.780
 5481SOL    HW218044   2.914   6.103   3.848
 5482SOL     OW18045   1.974   6.112   5.137
 5482SOL    HW118046   2.067   6.108   5.100
 5482SOL    HW218047   1.964   6.195   5.193
 5483SOL     OW18048   2.435   5.750   4.925
 5483SOL    HW118049   2.459   5.675   4.987
 5483SOL    HW218050   2.341   5.778   4.942
 5484SOL     OW18051   2.725   6.033   4.344
 5484SOL    HW118052   2.672   6.086   4.278
 5484SOL    HW218053   2.770   5.956   4.297
 5485SOL     OW18054   2.885   5.651   4.439
 5485SOL    HW118055   2.825   5.656   4.359
 5485SOL    HW218056   2.853   5.579   4.500
 5486SOL     OW18057   3.362   6.742   4.521
 5486SOL    HW118058   3.287   6.690   4.480
 5486SOL    HW218059   3.418   6.782   4.448
 5487SOL     OW18060   3.300   6.185   4.653
 5487SOL    HW118061   3.227   6.116   4.646
 5487SOL    HW218062   3.346   6.176   4.741
 5488SOL     OW18063   3.706   6.331   4.190
 5488SOL    HW118064   3.788   6.303   4.240
 5488SOL    HW218065   3.687   6.267   4.116
 5489SOL     OW18066   3.544   6.868   4.354
 5489SOL    HW118067   3.644   6.872   4.363
 5489SOL    HW218068   3.506   6.959   4.374
 5490SOL     OW18069   3.303   6.198   3.961
 5490SOL    HW118070   3.213   6.157   3.947
 5490SOL    HW218071   3.364   6.172   3.886
 5491SOL     OW18072   2.391   5.845   4.033
 5491SOL    HW118073   2.448   5.796   3.967
 5491SOL    HW218074   2.355   5.928   3.990
 5492SOL     OW18075   3.641   6.777   5.298
 5492SOL    HW118076   3.694   6.714   5.355
 5492SOL    HW218077   3.685   6.867   5.298
 5493SOL     OW18078   2.869   6.871   4.994
 5493SOL    HW118079   2.788   6.865   5.053
 5493SOL    HW218080   2.950   6.846   5.047
 5494SOL     OW18081   3.035   6.804   4.779
 5494SOL    HW118082   2.965   6.828   4.847
 5494SOL    HW218083   2.992   6.790   4.690
 5495SOL     OW18084   3.548   6.750   4.723
 5495SOL    HW118085   3.503   6.776   4.808
 5495SOL    HW218086   3.480   6.745   4.650
 5496SOL     OW18087   2.815   5.662   5.095
 5496SOL    HW118088   2.837   5.641   5.000
 5496SOL    HW218089   2.891   5.713   5.136
 5497SOL     OW18090   2.810   6.662   5.528
 5497SOL    HW118091   2.719   6.702   5.543
 5497SOL    HW218092   2.804   6.594   5.455
 5498SOL     OW18093   2.566   6.626   4.102
 5498SOL    HW118094   2.544   6.603   4.197
 5498SOL    HW218095   2.656   6.590   4.079
 5499SOL     OW18096   2.306   6.367   5.000
 5499SOL    HW118097   2.371   6.377   5.075
 5499SOL    HW218098   2.269   6.274   5.001
 5500SOL     OW18099   3.117   5.978   5.020
 5500SOL    HW118100   3.132   6.068   5.060
 5500SOL    HW218101   3.026   5.976   4.979
 5501SOL     OW18102   2.231   6.779   4.227
 5501SOL    HW118103   2.245   6.859   4.169
 5501SOL    HW218104   2.211   6.699   4.170
 5502SOL     OW18105   2.355   6.133   4.591
 5502SOL    HW118106   2.365   6.201   4.518
 5502SOL    HW218107   2.438   6.133   4.647
 5503SOL     OW18108   3.363   6.151   4.225
 5503SOL    HW118109   3.324   6.224   4.282
 5503SOL    HW218110   3.342   6.170   4.129
 5504SOL     OW18111   2.341   6.268   5.407
 5504SOL    HW118112   2.376   6.319   5.329
 5504SOL    HW218113   2.409   6.200   5.436
 5505SOL     OW18114   3.479   6.405   5.424
 5505SOL    HW118115   3.387   6.446   5.431
 5505SOL    HW218116   3.517   6.423   5.334
 5506SOL     OW18117   2.892   5.743   5.511
 5506SOL    HW118118   2.947   5.823   5.485
 5506SOL    HW218119   2.948   5.661   5.503
 5507SOL     OW18120   2.349   5.657   5.471
 5507SOL    HW118121   2.282   5.596   5.429
 5507SOL    HW218122   2.304   5.739   5.505
 5508SOL     OW18123   2.517   6.415   4.827
 5508SOL    HW118124   2.511   6.504   4.780
 5508SOL    HW218125   2.434   6.401   4.881
 5509SOL     OW18126   3.138   6.398   4.741
 5509SOL    HW118127   3.043   6.385   4.713
 5509SOL    HW218128   3.194   6.326   4.701
 5510SOL     OW18129   3.038   6.106   3.980
 5510SOL    HW118130   3.060   6.025   4.035
 5510SOL    HW218131   2.989   6.172   4.037
 5511SOL     OW18132   2.167   5.782   4.961
 5511SOL    HW118133   2.145   5.815   5.052
 5511SOL    HW218134   2.142   5.685   4.954
 5512SOL     OW18135   1.892   6.868   5.031
 5512SOL    HW118136   1.948   6.833   5.106
 5512SOL    HW218137   1.881   6.967   5.042
 5513SOL     OW18138   2.570   6.153   4.758
 5513SOL    HW118139   2.651   6.139   4.702
 5513SOL    HW218140   2.560   6.250   4.778
 5514SOL     OW18141   3.601   6.552   5.618
 5514SOL    HW118142   3.561   6.490   5.551
 5514SOL    HW218143   3.539   6.562   5.696
 5515SOL     OW18144   2.180   5.638   4.368
 5515SOL    HW118145   2.147   5.730   4.386
 5515SOL    HW218146   2.186   5.587   4.453
 5516SOL     OW18147   3.525   5.968   4.088
 5516SOL    HW118148   3.541   5.879   4.131
 5516SOL    HW218149   3.466   6.023   4.146
 5517SOL     OW18150   2.869   6.343   4.667
 5517SOL    HW118151   2.844   6.370   4.760
 5517SOL    HW218152   2.843   6.248   4.652
 5518SOL     OW18153   3.789   0.011   5.324
 5518SOL    HW118154   3.825   0.097   5.288
 5518SOL    HW218155   3.828   6.994   5.414
 5519SOL     OW18156   2.220   6.481   5.546
 5519SOL    HW118157   2.288   6.518   5.609
 5519SOL    HW218158   2.259   6.402   5.498
 5520SOL     OW18159   2.157   6.392   4.623
 5520SOL    HW118160   2.229   6.380   4.556
 5520SOL    HW218161   2.147   6.308   4.677
 5521SOL     OW18162   2.134   6.125   4.737
 5521SOL    HW118163   2.093   6.034   4.728
 5521SOL    HW218164   2.217   6.130   4.682
 5522SOL     OW18165   3.014   5.974   5.421
 5522SOL    HW118166   2.961   6.018   5.494
 5522SOL    HW218167   3.096   6.029   5.401
 5523SOL     OW18168   3.030   5.795   5.209
 5523SOL    HW118169   3.015   5.854   5.288
 5523SOL    HW218170   3.072   5.847   5.135
 5524SOL     OW18171   1.855   6.848   3.883
 5524SOL    HW118172   1.765   6.892   3.890
 5524SOL    HW218173   1.858   6.769   3.945
 5525SOL     OW18174   2.781   6.420   4.912
 5525SOL    HW118175   2.813   6.374   4.995
 5525SOL    HW218176   2.682   6.408   4.903
 5526SOL     OW18177   1.894   6.177   4.877
 5526SOL    HW118178   1.976   6.173   4.820
 5526SOL    HW218179   1.917   6.156   4.971
 5527SOL     OW18180   2.076   6.189   5.464
 5527SOL    HW118181   2.174   6.200   5.450
 5527SOL    HW218182   2.026   6.252   5.406
 5528SOL     OW18183   3.240   6.539   5.411
 5528SOL    HW118184   3.283   6.629   5.421
 5528SOL    HW218185   3.224   6.521   5.314
 5529SOL     OW18186   2.633   6.151   4.109
 5529SOL    HW118187   2.644   6.073   4.048
 5529SOL    HW218188   2.559   6.209   4.075
 5530SOL     OW18189   2.603   5.973   4.962
 5530SOL    HW118190   2.543   5.893   4.956
 5530SOL    HW218191   2.579   6.037   4.889
 5531SOL     OW18192   2.305   6.066   3.899
 5531SOL    HW118193   2.366   6.142   3.921
 5531SOL    HW218194   2.210   6.098   3.898
 5532SOL     OW18195   2.053   6.739   5.221
 5532SOL    HW118196   2.035   6.710   5.315
 5532SOL    HW218197   2.071   6.659   5.164
 5533SOL     OW18198   3.178   6.607   4.910
 5533SOL    HW118199   3.169   6.525   4.854
 5533SOL    HW218200   3.137   6.685   4.863
 5534SOL     OW18201   3.252   6.463   3.988
 5534SOL    HW118202   3.252   6.490   4.085
 5534SOL    HW218203   3.274   6.366   3.980
 5535SOL     OW18204   1.978   6.828   4.773
 5535SOL    HW118205   1.948   6.841   4.867
 5535SOL    HW218206   1.910   6.772   4.724
 5536SOL     OW18207   3.594   5.716   4.202
 5536SOL    HW118208   3.668   5.727   4.136
 5536SOL    HW218209   3.604   5.629   4.250
 5537SOL     OW18210   3.145   6.575   4.405
 5537SOL    HW118211   3.203   6.495   4.422
 5537SOL    HW218212   3.172   6.617   4.318
 5538SOL     OW18213   2.631   6.852   5.139
 5538SOL    HW118214   2.609   6.890   5.229
 5538SOL    HW218215   2.559   6.874   5.074
 5539SOL     OW18216   3.729   5.806   4.766
 5539SOL    HW118217   3.760   5.718   4.732
 5539SOL    HW218218   3.641   5.829   4.723
 5540SOL     OW18219   2.105   5.892   4.441
 5540SOL    HW118220   2.022   5.938   4.409
 5540SOL    HW218221   2.105   5.887   4.540
 5541SOL     OW18222   3.082   0.175   3.763
 5541SOL    HW118223   3.174   0.203   3.792
 5541SOL    HW218224   3.059   0.220   3.677
 5542SOL     OW18225   2.662   6.582   5.129
 5542SOL    HW118226   2.722   6.562   5.051
 5542SOL    HW218227   2.648   6.681   5.134
 5543SOL     OW18228   2.807   6.516   4.054
 5543SOL    HW118229   2.883   6.548   3.997
 5543SOL    HW218230   2.829   6.425   4.091
 5544SOL     OW18231   2.243   6.940   5.193
 5544SOL    HW118232   2.247   6.995   5.276
 5544SOL    HW218233   2.176   6.867   5.205
 5545SOL     OW18234   3.478   6.906   5.106
 5545SOL    HW118235   3.531   6.844   5.164
 5545SOL    HW218236   3.462   6.991   5.156
 5546SOL     OW18237   2.941   6.753   4.522
 5546SOL    HW118238   2.859   6.696   4.530
 5546SOL    HW218239   3.014   6.700   4.480
 5547SOL     OW18240   2.893   5.821   4.663
 5547SOL    HW118241   2.889   5.783   4.570
 5547SOL    HW218242   2.898   5.746   4.729
 5548SOL     OW18243   2.010   6.645   5.481
 5548SOL    HW118244   1.924   6.617   5.524
 5548SOL    HW218245   2.082   6.580   5.505
 5549SOL     OW18246   2.576   5.755   5.224
 5549SOL    HW118247   2.658   5.730   5.173
 5549SOL    HW218248   2.602   5.794   5.312
 5550SOL     OW18249   1.948   5.907   3.704
 5550SOL    HW118250   1.860   5.898   3.657
 5550SOL    HW218251   1.991   5.994   3.680
 5551SOL     OW18252   3.265   6.474   5.137
 5551SOL    HW118253   3.234   6.522   5.055
 5551SOL    HW218254   3.363   6.490   5.149
 5552SOL     OW18255   1.906   5.736   3.949
 5552SOL    HW118256   1.893   5.802   3.875
 5552SOL    HW218257   1.997   5.696   3.943
 5553SOL     OW18258   2.493   6.375   5.193
 5553SOL    HW118259   2.547   6.457   5.177
 5553SOL    HW218260   2.551   6.294   5.188
 5554SOL     OW18261   2.574   6.116   5.446
 5554SOL    HW118262   2.630   6.177   5.501
 5554SOL    HW218263   2.601   6.021   5.463
 5555SOL     OW18264   3.388   6.770   5.428
 5555SOL    HW118265   3.397   6.832   5.506
 5555SOL    HW218266   3.474   6.769   5.376
 5556SOL     OW18267   3.092   5.910   4.170
 5556SOL    HW118268   3.168   5.844   4.173
 5556SOL    HW218269   3.098   5.971   4.248
 5557SOL     OW18270   2.349   6.355   4.423
 5557SOL    HW118271   2.422   6.419   4.403
 5557SOL    HW218272   2.302   6.330   4.338
 5558SOL     OW18273   3.534   6.527   5.180
 5558SOL    HW118274   3.586   6.610   5.201
 5558SOL    HW218275   3.593   6.462   5.132
 5559SOL     OW18276   2.735   6.575   4.569
 5559SOL    HW118277   2.778   6.494   4.608
 5559SOL    HW218278   2.664   6.607   4.631
 5560SOL     OW18279   3.017   6.550   3.884
 5560SOL    HW118280   3.045   6.601   3.802
 5560SOL    HW218281   3.098   6.511   3.928
 5561SOL     OW18282   2.051   6.911   5.520
 5561SOL    HW118283   2.038   6.812   5.513
 5561SOL    HW218284   2.070   6.935   5.615
 5562SOL     OW18285   2.058   6.839   4.427
 5562SOL    HW118286   2.083   6.779   4.503
 5562SOL    HW218287   2.111   6.814   4.346
 5563SOL     OW18288   2.535   6.980   5.372
 5563SOL    HW118289   2.439   6.981   5.403
 5563SOL    HW218290   2.558   0.069   5.332
 5564SOL     OW18291   3.747   5.752   5.034
 5564SOL    HW118292   3.797   5.666   5.026
 5564SOL    HW218293   3.734   5.791   4.943
 5565SOL     OW18294   2.270   6.020   4.241
 5565SOL    HW118295   2.314   5.952   4.183
 5565SOL    HW218296   2.222   5.975   4.316
 5566SOL     OW18297   3.423   0.058   4.888
 5566SOL    HW118298   3.368   0.012   4.819
 5566SOL    HW218299   3.434   6.999   4.967
 5567SOL     OW18300   2.218   6.110   5.016
 5567SOL    HW118301   2.280   6.047   5.064
 5567SOL    HW218302   2.213   6.085   4.920
 5568SOL     OW18303   3.278   5.860   4.835
 5568SOL    HW118304   3.302   5.765   4.855
 5568SOL    HW218305   3.228   5.898   4.912
 5569SOL     OW18306   2.905   5.593   4.822
 5569SOL    HW118307   2.843   5.532   4.773
 5569SOL    HW218308   2.998   5.555   4.822
 5570SOL     OW18309   2.585   6.899   4.026
 5570SOL    HW118310   2.576   6.803   4.053
 5570SOL    HW218311   2.634   6.949   4.098
 5571SOL     OW18312   3.250   5.605   3.934
 5571SOL    HW118313   3.300   5.541   3.875
 5571SOL    HW218314   3.154   5.580   3.936
 5572SOL     OW18315   3.089   6.078   4.385
 5572SOL    HW118316   3.049   6.170   4.391
 5572SOL    HW218317   3.102   6.041   4.477
 5573SOL     OW18318   3.481   5.835   4.654
 5573SOL    HW118319   3.407   5.856   4.718
 5573SOL    HW218320   3.470   5.890   4.571
 5574SOL     OW18321   1.897   6.610   4.045
 5574SOL    HW118322   1.996   6.603   4.045
 5574SOL    HW218323   1.857   6.518   4.048
 5575SOL     OW18324   2.059   6.172   5.744
 5575SOL    HW118325   1.964   6.162   5.774
 5575SOL    HW218326   2.061   6.195   5.647
 5576SOL     OW18327   2.073   5.885   6.576
 5576SOL    HW118328   2.118   5.843   6.655
 5576SOL    HW218329   1.981   5.848   6.565
 5577SOL     OW18330   1.836   6.023   6.203
 5577SOL    HW118331   1.747   6.035   6.245
 5577SOL    HW218332   1.829   5.960   6.126
 5578SOL     OW18333   2.403   6.888   6.729
 5578SOL    HW118334   2.324   6.942   6.700
 5578SOL    HW218335   2.397   6.871   6.827
 5579SOL     OW18336   3.481   0.063   6.208
 5579SOL    HW118337   3.465   0.108   6.295
 5579SOL    HW218338   3.401   0.074   6.149
 5580SOL     OW18339   2.994   6.335   6.234
 5580SOL    HW118340   3.030   6.429   6.240
 5580SOL    HW218341   2.928   6.321   6.308
 5581SOL     OW18342   2.511   6.704   6.557
 5581SOL    HW118343   2.482   6.775   6.621
 5581SOL    HW218344   2.465   6.718   6.469
 5582SOL     OW18345   2.563   6.557   6.213
 5582SOL    HW118346   2.640   6.557   6.276
 5582SOL    HW218347   2.492   6.619   6.247
 5583SOL     OW18348   2.183   0.045   6.670
 5583SOL    HW118349   2.096   0.007   6.637
 5583SOL    HW218350   2.220   0.107   6.601
 5584SOL     OW18351   3.444   6.055   6.336
 5584SOL    HW118352   3.358   6.072   6.287
 5584SOL    HW218353   3.453   6.119   6.412
 5585SOL     OW18354   2.145   6.663   6.476
 5585SOL    HW118355   2.164   6.565   6.482
 5585SOL    HW218356   2.066   6.686   6.533
 5586SOL     OW18357   2.408   6.595   5.720
 5586SOL    HW118358   2.448   6.652   5.649
 5586SOL    HW218359   2.466   6.596   5.801
 5587SOL     OW18360   1.961   6.277   6.153
 5587SOL    HW118361   1.921   6.187   6.174
 5587SOL    HW218362   1.947   6.338   6.231
 5588SOL     OW18363   3.552   6.445   6.219
 5588SOL    HW118364   3.638   6.438   6.268
 5588SOL    HW218365   3.555   6.521   6.155
 5589SOL     OW18366   3.566   6.669   6.053
 5589SOL    HW118367   3.640   6.658   5.988
 5589SOL    HW218368   3.594   6.731   6.126
 5590SOL     OW18369   2.714   5.609   6.100
 5590SOL    HW118370   2.767   5.686   6.066
 5590SOL    HW218371   2.616   5.631   6.097
 5591SOL     OW18372   1.987   6.570   6.843
 5591SOL    HW118373   2.065   6.513   6.818
 5591SOL    HW218374   1.903   6.516   6.837
 5592SOL     OW18375   3.413   6.568   5.833
 5592SOL    HW118376   3.340   6.503   5.854
 5592SOL    HW218377   3.456   6.597   5.919
 5593SOL     OW18378   3.361   6.910   6.474
 5593SOL    HW118379   3.294   6.966   6.426
 5593SOL    HW218380   3.326   6.817   6.483
 5594SOL     OW18381   2.446   6.272   5.887
 5594SOL    HW118382   2.453   6.359   5.838
 5594SOL    HW218383   2.367   6.276   5.949
 5595SOL     OW18384   3.129   5.985   6.499
 5595SOL    HW118385   3.038   5.943   6.497
 5595SOL    HW218386   3.189   5.929   6.556
 5596SOL     OW18387   2.610   6.070   0.080
 5596SOL    HW118388   2.534   6.126   0.112
 5596SOL    HW218389   2.603   6.057   6.982
 5597SOL     OW18390   2.849   6.000   6.677
 5597SOL    HW118391   2.771   5.997   6.739
 5597SOL    HW218392   2.864   5.910   6.638
 5598SOL     OW18393   2.923   6.295   5.971
 5598SOL    HW118394   2.955   6.306   6.066
 5598SOL    HW218395   2.844   6.234   5.970
 5599SOL     OW18396   1.931   6.458   6.365
 5599SOL    HW118397   2.019   6.428   6.400
 5599SOL    HW218398   1.905   6.545   6.408
 5600SOL     OW18399   2.722   5.931   5.798
 5600SOL    HW118400   2.781   5.973   5.730
 5600SOL    HW218401   2.658   5.868   5.753
 5601SOL     OW18402   3.307   6.765   6.150
 5601SOL    HW118403   3.394   6.733   6.111
 5601SOL    HW218404   3.324   6.847   6.205
 5602SOL     OW18405   2.459   5.716   6.539
 5602SOL    HW118406   2.455   5.751   6.633
 5602SOL    HW218407   2.477   5.791   6.476
 5603SOL     OW18408   3.707   6.688   6.477
 5603SOL    HW118409   3.665   6.737   6.400
 5603SOL    HW218410   3.635   6.658   6.540
 5604SOL     OW18411   2.188   6.600   5.899
 5604SOL    HW118412   2.253   6.607   5.823
 5604SOL    HW218413   2.183   6.505   5.929
 5605SOL     OW18414   3.320   6.423   6.360
 5605SOL    HW118415   3.317   6.340   6.416
 5605SOL    HW218416   3.403   6.422   6.304
 5606SOL     OW18417   3.426   6.928   5.666
 5606SOL    HW118418   3.413   0.022   5.698
 5606SOL    HW218419   3.349   6.872   5.696
 5607SOL     OW18420   2.226   6.263   6.059
 5607SOL    HW118421   2.242   6.165   6.062
 5607SOL    HW218422   2.130   6.282   6.080
 5608SOL     OW18423   2.532   5.704   5.676
 5608SOL    HW118424   2.595   5.628   5.685
 5608SOL    HW218425   2.458   5.679   5.613
 5609SOL     OW18426   2.809   6.176   6.468
 5609SOL    HW118427   2.798   6.131   6.379
 5609SOL    HW218428   2.832   6.107   6.537
 5610SOL     OW18429   2.450   5.657   6.084
 5610SOL    HW118430   2.372   5.653   6.146
 5610SOL    HW218431   2.429   5.719   6.009
 5611SOL     OW18432   3.227   6.750   5.740
 5611SOL    HW118433   3.299   6.689   5.772
 5611SOL    HW218434   3.153   6.696   5.699
 5612SOL     OW18435   2.859   5.830   6.016
 5612SOL    HW118436   2.803   5.870   5.943
 5612SOL    HW218437   2.955   5.831   5.988
 5613SOL     OW18438   3.184   0.074   6.345
 5613SOL    HW118439   3.191   0.171   6.370
 5613SOL    HW218440   3.088   0.049   6.336
 5614SOL     OW18441   2.365   6.715   6.322
 5614SOL    HW118442   2.287   6.699   6.382
 5614SOL    HW218443   2.333   6.754   6.235
 5615SOL     OW18444   2.891   6.090   5.638
 5615SOL    HW118445   2.837   6.171   5.614
 5615SOL    HW218446   2.962   6.116   5.703
 5616SOL     OW18447   2.430   5.793   6.799
 5616SOL    HW118448   2.465   5.721   6.859
 5616SOL    HW218449   2.330   5.796   6.806
 5617SOL     OW18450   2.789   6.053   6.217
 5617SOL    HW118451   2.740   6.100   6.143
 5617SOL    HW218452   2.829   5.969   6.182
 5618SOL     OW18453   2.902   5.614   6.313
 5618SOL    HW118454   2.838   5.626   6.237
 5618SOL    HW218455   2.871   5.538   6.370
 5619SOL     OW18456   3.285   6.648   6.514
 5619SOL    HW118457   3.212   6.621   6.576
 5619SOL    HW218458   3.303   6.573   6.449
 5620SOL     OW18459   3.313   6.214   6.554
 5620SOL    HW118460   3.253   6.135   6.546
 5620SOL    HW218461   3.380   6.198   6.626
 5621SOL     OW18462   3.708   6.345   5.905
 5621SOL    HW118463   3.747   6.314   5.992
 5621SOL    HW218464   3.611   6.325   5.903
 5622SOL     OW18465   3.645   6.839   6.249
 5622SOL    HW118466   3.743   6.862   6.255
 5622SOL    HW218467   3.592   6.924   6.244
 5623SOL     OW18468   2.391   5.831   5.883
 5623SOL    HW118469   2.437   5.779   5.811
 5623SOL    HW218470   2.355   5.916   5.844
 5624SOL     OW18471   3.631   6.794   0.289
 5624SOL    HW118472   3.722   6.753   0.278
 5624SOL    HW218473   3.615   6.860   0.215
 5625SOL     OW18474   2.839   6.897   6.878
 5625SOL    HW118475   2.755   6.860   6.919
 5625SOL    HW218476   2.917   6.876   6.937
 5626SOL     OW18477   3.015   6.767   6.695
 5626SOL    HW118478   2.941   6.817   6.740
 5626SOL    HW218479   3.001   6.767   6.596
 5627SOL     OW18480   3.515   6.620   6.658
 5627SOL    HW118481   3.513   6.686   6.733
 5627SOL    HW218482   3.430   6.626   6.605
 5628SOL     OW18483   2.581   6.601   5.931
 5628SOL    HW118484   2.577   6.585   6.029
 5628SOL    HW218485   2.660   6.553   5.892
 5629SOL     OW18486   2.233   6.431   6.841
 5629SOL    HW118487   2.259   6.470   6.929
 5629SOL    HW218488   2.206   6.335   6.853
 5630SOL     OW18489   3.095   5.986   6.815
 5630SOL    HW118490   3.127   6.065   6.867
 5630SOL    HW218491   3.010   6.008   6.768
 5631SOL     OW18492   2.254   6.802   6.086
 5631SOL    HW118493   2.305   6.880   6.050
 5631SOL    HW218494   2.232   6.739   6.011
 5632SOL     OW18495   2.409   6.132   6.441
 5632SOL    HW118496   2.408   6.198   6.366
 5632SOL    HW218497   2.479   6.158   6.508
 5633SOL     OW18498   2.475   6.474   6.702
 5633SOL    HW118499   2.483   6.555   6.644
 5633SOL    HW218500   2.380   6.464   6.732
 5634SOL     OW18501   3.154   6.426   6.647
 5634SOL    HW118502   3.058   6.418   6.620
 5634SOL    HW218503   3.205   6.350   6.609
 5635SOL     OW18504   2.156   5.768   6.815
 5635SOL    HW118505   2.102   5.793   6.895
 5635SOL    HW218506   2.147   5.670   6.798
 5636SOL     OW18507   1.897   6.915   6.897
 5636SOL    HW118508   1.976   6.870   6.938
 5636SOL    HW218509   1.844   6.960   6.969
 5637SOL     OW18510   2.579   6.224   6.632
 5637SOL    HW118511   2.663   6.228   6.577
 5637SOL    HW218512   2.552   6.316   6.659
 5638SOL     OW18513   2.227   5.672   6.241
 5638SOL    HW118514   2.167   5.752   6.245
 5638SOL    HW218515   2.222   5.623   6.328
 5639SOL     OW18516   2.881   6.407   6.593
 5639SOL    HW118517   2.859   6.402   6.691
 5639SOL    HW218518   2.859   6.319   6.551
 5640SOL     OW18519   3.172   6.334   5.574
 5640SOL    HW118520   3.200   6.348   5.669
 5640SOL    HW218521   3.204   6.410   5.518
 5641SOL     OW18522   2.180   6.387   6.463
 5641SOL    HW118523   2.254   6.378   6.396
 5641SOL    HW218524   2.178   6.306   6.521
 5642SOL     OW18525   2.189   6.127   6.590
 5642SOL    HW118526   2.143   6.039   6.582
 5642SOL    HW218527   2.273   6.127   6.535
 5643SOL     OW18528   3.029   5.814   0.017
 5643SOL    HW118529   3.109   5.767   0.057
 5643SOL    HW218530   3.059   5.871   6.940
 5644SOL     OW18531   1.869   6.914   5.807
 5644SOL    HW118532   1.777   6.929   5.770
 5644SOL    HW218533   1.878   6.819   5.836
 5645SOL     OW18534   2.816   6.389   6.859
 5645SOL    HW118535   2.838   6.309   6.915
 5645SOL    HW218536   2.732   6.431   6.893
 5646SOL     OW18537   1.910   6.158   6.703
 5646SOL    HW118538   1.950   6.148   6.612
 5646SOL    HW218539   1.982   6.172   6.771
 5647SOL     OW18540   2.687   6.149   5.967
 5647SOL    HW118541   2.693   6.067   5.910
 5647SOL    HW218542   2.601   6.196   5.947
 5648SOL     OW18543   3.513   6.165   6.748
 5648SOL    HW118544   3.466   6.106   6.813
 5648SOL    HW218545   3.611   6.144   6.748
 5649SOL     OW18546   2.597   6.016   6.813
 5649SOL    HW118547   2.534   5.939   6.799
 5649SOL    HW218548   2.578   6.087   6.746
 5650SOL     OW18549   2.306   6.062   5.763
 5650SOL    HW118550   2.371   6.130   5.796
 5650SOL    HW218551   2.214   6.101   5.765
 5651SOL     OW18552   2.094   6.757   0.012
 5651SOL    HW118553   2.070   6.726   0.103
 5651SOL    HW218554   2.059   6.693   6.944
 5652SOL     OW18555   3.183   6.603   6.847
 5652SOL    HW118556   3.185   6.528   6.780
 5652SOL    HW218557   3.125   6.677   6.813
 5653SOL     OW18558   3.173   6.421   5.846
 5653SOL    HW118559   3.120   6.361   5.906
 5653SOL    HW218560   3.111   6.489   5.805
 5654SOL     OW18561   1.930   6.936   6.624
 5654SOL    HW118562   1.913   6.928   6.722
 5654SOL    HW218563   1.900   6.852   6.578
 5655SOL     OW18564   3.630   5.799   6.039
 5655SOL    HW118565   3.628   5.785   5.940
 5655SOL    HW218566   3.579   5.725   6.083
 5656SOL     OW18567   3.127   6.581   6.251
 5656SOL    HW118568   3.193   6.517   6.290
 5656SOL    HW218569   3.175   6.653   6.202
 5657SOL     OW18570   2.623   6.795   0.028
 5657SOL    HW118571   2.651   6.816   0.121
 5657SOL    HW218572   2.526   6.818   0.016
 5658SOL     OW18573   3.683   5.743   6.583
 5658SOL    HW118574   3.721   5.652   6.563
 5658SOL    HW218575   3.601   5.758   6.529
 5659SOL     OW18576   2.081   5.905   6.290
 5659SOL    HW118577   1.995   5.949   6.265
 5659SOL    HW218578   2.088   5.900   6.390
 5660SOL     OW18579   3.116   0.155   5.620
 5660SOL    HW118580   3.108   0.093   5.697
 5660SOL    HW218581   3.029   0.159   5.571
 5661SOL     OW18582   2.595   6.530   6.944
 5661SOL    HW118583   2.553   6.520   6.854
 5661SOL    HW218584   2.614   6.627   6.961
 5662SOL     OW18585   2.793   6.470   5.806
 5662SOL    HW118586   2.862   6.525   5.759
 5662SOL    HW218587   2.838   6.407   5.870
 5663SOL     OW18588   2.358   6.861   0.000
 5663SOL    HW118589   2.367   6.954   0.037
 5663SOL    HW218590   2.263   6.832   0.009
 5664SOL     OW18591   3.510   6.794   6.860
 5664SOL    HW118592   3.600   6.829   6.889
 5664SOL    HW218593   3.455   6.775   6.941
 5665SOL     OW18594   2.958   6.744   6.412
 5665SOL    HW118595   2.873   6.692   6.417
 5665SOL    HW218596   3.026   6.693   6.359
 5666SOL     OW18597   2.920   5.770   6.546
 5666SOL    HW118598   2.919   5.734   6.453
 5666SOL    HW218599   2.923   5.695   6.611
 5667SOL     OW18600   3.441   5.980   6.943
 5667SOL    HW118601   3.505   6.016   0.011
 5667SOL    HW218602   3.474   5.892   6.910
 5668SOL     OW18603   2.581   5.802   0.146
 5668SOL    HW118604   2.668   5.753   0.145
 5668SOL    HW218605   2.596   5.898   0.124
 5669SOL     OW18606   1.961   5.945   5.538
 5669SOL    HW118607   1.868   5.936   5.504
 5669SOL    HW218608   1.997   6.035   5.515
 5670SOL     OW18609   1.907   5.846   5.887
 5670SOL    HW118610   1.895   5.883   5.795
 5670SOL    HW218611   2.003   5.851   5.913
 5671SOL     OW18612   3.384   6.926   0.377
 5671SOL    HW118613   3.341   6.943   0.288
 5671SOL    HW218614   3.469   6.877   0.364
 5672SOL     OW18615   3.618   6.423   6.820
 5672SOL    HW118616   3.580   6.335   6.794
 5672SOL    HW218617   3.583   6.495   6.761
 5673SOL     OW18618   2.378   6.350   6.272
 5673SOL    HW118619   2.449   6.416   6.246
 5673SOL    HW218620   2.327   6.322   6.190
 5674SOL     OW18621   3.574   6.378   0.096
 5674SOL    HW118622   3.510   6.444   0.136
 5674SOL    HW218623   3.593   6.404   0.001
 5675SOL     OW18624   2.735   6.586   6.440
 5675SOL    HW118625   2.785   6.523   6.500
 5675SOL    HW218626   2.661   6.629   6.492
 5676SOL     OW18627   3.022   6.573   5.662
 5676SOL    HW118628   2.950   6.623   5.614
 5676SOL    HW218629   3.055   6.498   5.604
 5677SOL     OW18630   2.069   6.860   6.280
 5677SOL    HW118631   2.085   6.794   6.354
 5677SOL    HW218632   2.125   6.835   6.201
 5678SOL     OW18633   3.580   5.746   6.842
 5678SOL    HW118634   3.565   5.648   6.856
 5678SOL    HW218635   3.613   5.761   6.749
 5679SOL     OW18636   2.252   5.996   6.085
 5679SOL    HW118637   2.305   5.923   6.041
 5679SOL    HW218638   2.202   5.958   6.163
 5680SOL     OW18639   3.437   0.011   6.714
 5680SOL    HW118640   3.414   6.979   6.622
 5680SOL    HW218641   3.458   6.933   6.773
 5681SOL     OW18642   2.157   6.165   6.860
 5681SOL    HW118643   2.212   6.107   6.921
 5681SOL    HW218644   2.183   6.147   6.765
 5682SOL     OW18645   3.275   5.834   6.674
 5682SOL    HW118646   3.279   5.737   6.700
 5682SOL    HW218647   3.217   5.883   6.739
 5683SOL     OW18648   2.918   5.523   6.680
 5683SOL    HW118649   2.876   5.471   6.606
 5683SOL    HW218650   3.003   5.479   6.707
 5684SOL     OW18651   2.587   6.870   5.831
 5684SOL    HW118652   2.582   6.778   5.871
 5684SOL    HW218653   2.623   6.933   5.900
 5685SOL     OW18654   3.186   6.128   6.271
 5685SOL    HW118655   3.120   6.199   6.248
 5685SOL    HW218656   3.152   6.075   6.348
 5686SOL     OW18657   3.447   5.800   6.465
 5686SOL    HW118658   3.385   5.820   6.541
 5686SOL    HW218659   3.446   5.877   6.401
 5687SOL     OW18660   1.909   6.644   5.900
 5687SOL    HW118661   2.008   6.642   5.895
 5687SOL    HW218662   1.874   6.550   5.898
 5688SOL     OW18663   3.959   0.651   0.105
 5688SOL    HW118664   3.865   0.617   0.096
 5688SOL    HW218665   4.004   0.648   0.016
 5689SOL     OW18666   3.940   0.314   1.037
 5689SOL    HW118667   3.992   0.270   1.110
 5689SOL    HW218668   3.863   0.255   1.011
 5690SOL     OW18669   3.751   0.436   0.649
 5690SOL    HW118670   3.673   0.469   0.703
 5690SOL    HW218671   3.719   0.368   0.583
 5691SOL     OW18672   4.279   1.320   1.229
 5691SOL    HW118673   4.194   1.317   1.176
 5691SOL    HW218674   4.298   1.415   1.254
 5692SOL     OW18675   5.342   1.500   0.727
 5692SOL    HW118676   5.280   1.466   0.798
 5692SOL    HW218677   5.289   1.531   0.648
 5693SOL     OW18678   4.845   0.702   0.660
 5693SOL    HW118679   4.881   0.795   0.663
 5693SOL    HW218680   4.781   0.688   0.736
 5694SOL     OW18681   5.549   0.572   0.108
 5694SOL    HW118682   5.517   0.666   0.094
 5694SOL    HW218683   5.510   0.537   0.193
 5695SOL     OW18684   4.425   1.132   1.083
 5695SOL    HW118685   4.363   1.171   1.151
 5695SOL    HW218686   4.475   1.205   1.037
 5696SOL     OW18687   4.594   0.732   1.857
 5696SOL    HW118688   4.591   0.793   1.936
 5696SOL    HW218689   4.610   0.785   1.774
 5697SOL     OW18690   4.429   0.957   0.656
 5697SOL    HW118691   4.490   0.967   0.734
 5697SOL    HW218692   4.351   1.019   0.666
 5698SOL     OW18693   4.398   1.158   1.829
 5698SOL    HW118694   4.449   1.234   1.869
 5698SOL    HW218695   4.320   1.194   1.777
 5699SOL     OW18696   4.055   1.389   1.068
 5699SOL    HW118697   3.976   1.348   1.023
 5699SOL    HW218698   4.108   1.441   1.001
 5700SOL     OW18699   5.162   1.501   1.390
 5700SOL    HW118700   5.221   1.581   1.402
 5700SOL    HW218701   5.084   1.507   1.453
 5701SOL     OW18702   4.194   0.339   1.442
 5701SOL    HW118703   4.275   0.293   1.480
 5701SOL    HW218704   4.112   0.293   1.477
 5702SOL     OW18705   5.372   0.508   0.756
 5702SOL    HW118706   5.357   0.547   0.665
 5702SOL    HW218707   5.323   0.563   0.824
 5703SOL     OW18708   3.980   1.699   0.481
 5703SOL    HW118709   3.994   1.777   0.542
 5703SOL    HW218710   4.066   1.677   0.435
 5704SOL     OW18711   4.845   1.328   1.729
 5704SOL    HW118712   4.906   1.309   1.806
 5704SOL    HW218713   4.779   1.253   1.719
 5705SOL     OW18714   3.877   1.440   0.438
 5705SOL    HW118715   3.911   1.527   0.474
 5705SOL    HW218716   3.877   1.372   0.512
 5706SOL     OW18717   4.007   1.107   0.842
 5706SOL    HW118718   4.019   1.015   0.879
 5706SOL    HW218719   3.946   1.159   0.902
 5707SOL     OW18720   4.271   1.836   1.396
 5707SOL    HW118721   4.193   1.811   1.453
 5707SOL    HW218722   4.326   1.905   1.443
 5708SOL     OW18723   4.283   0.971   0.213
 5708SOL    HW118724   4.300   0.993   0.117
 5708SOL    HW218725   4.357   1.006   0.269
 5709SOL     OW18726   5.324   0.057   1.529
 5709SOL    HW118727   5.420   0.050   1.557
 5709SOL    HW218728   5.275   0.115   1.595
 5710SOL     OW18729   3.857   0.682   0.557
 5710SOL    HW118730   3.830   0.590   0.587
 5710SOL    HW218731   3.849   0.745   0.634
 5711SOL     OW18732   5.593   1.739   0.366
 5711SOL    HW118733   5.672   1.705   0.417
 5711SOL    HW218734   5.611   1.834   0.337
 5712SOL     OW18735   3.735   1.562   0.158
 5712SOL    HW118736   3.644   1.523   0.144
 5712SOL    HW218737   3.756   1.564   0.256
 5713SOL     OW18738   5.421   0.924   0.677
 5713SOL    HW118739   5.514   0.889   0.673
 5713SOL    HW218740   5.402   0.978   0.594
 5714SOL     OW18741   5.361   1.087   0.466
 5714SOL    HW118742   5.405   1.086   0.376
 5714SOL    HW218743   5.400   1.161   0.522
 5715SOL     OW18744   3.812   0.785   1.578
 5715SOL    HW118745   3.857   0.860   1.627
 5715SOL    HW218746   3.731   0.820   1.531
 5716SOL     OW18747   4.363   1.357   0.745
 5716SOL    HW118748   4.317   1.269   0.732
 5716SOL    HW218749   4.365   1.407   0.658
 5717SOL     OW18750   4.964   1.212   1.437
 5717SOL    HW118751   4.985   1.149   1.363
 5717SOL    HW218752   5.040   1.214   1.502
 5718SOL     OW18753   4.562   0.034   0.555
 5718SOL    HW118754   4.609   0.119   0.531
 5718SOL    HW218755   4.463   0.045   0.544
 5719SOL     OW18756   3.921   0.926   1.285
 5719SOL    HW118757   4.014   0.889   1.285
 5719SOL    HW218758   3.867   0.879   1.215
 5720SOL     OW18759   5.170   1.029   0.203
 5720SOL    HW118760   5.104   0.962   0.238
 5720SOL    HW218761   5.262   0.995   0.217
 5721SOL     OW18762   4.917   1.791   1.629
 5721SOL    HW118763   4.919   1.856   1.553
 5721SOL    HW218764   4.921   1.698   1.592
 5722SOL     OW18765   4.063   0.290   1.818
 5722SOL    HW118766   4.122   0.355   1.865
 5722SOL    HW218767   3.968   0.306   1.845
 5723SOL     OW18768   5.161   1.409   0.914
 5723SOL    HW118769   5.116   1.437   0.999
 5723SOL    HW218770   5.146   1.311   0.899
 5724SOL     OW18771   5.286   1.903   0.553
 5724SOL    HW118772   5.289   1.843   0.474
 5724SOL    HW218773   5.332   1.859   0.630
 5725SOL     OW18774   4.313   0.705   0.281
 5725SOL    HW118775   4.310   0.801   0.254
 5725SOL    HW218776   4.249   0.689   0.356
 5726SOL     OW18777   5.018   0.418   0.931
 5726SOL    HW118778   4.926   0.380   0.938
 5726SOL    HW218779   5.080   0.367   0.991
 5727SOL     OW18780   5.316   1.724   0.347
 5727SOL    HW118781   5.416   1.717   0.350
 5727SOL    HW218782   5.285   1.718   0.252
 5728SOL     OW18783   4.517   0.578   1.489
 5728SOL    HW118784   4.483   0.535   1.573
 5728SOL    HW218785   4.490   0.522   1.410
 5729SOL     OW18786   5.102   0.484   1.671
 5729SOL    HW118787   5.107   0.533   1.757
 5729SOL    HW218788   5.147   0.395   1.680
 5730SOL     OW18789   4.653   0.873   1.622
 5730SOL    HW118790   4.711   0.809   1.573
 5730SOL    HW218791   4.595   0.923   1.557
 5731SOL     OW18792   4.736   0.427   1.182
 5731SOL    HW118793   4.643   0.440   1.217
 5731SOL    HW218794   4.733   0.380   1.094
 5732SOL     OW18795   4.775   0.692   0.396
 5732SOL    HW118796   4.803   0.696   0.492
 5732SOL    HW218797   4.685   0.648   0.390
 5733SOL     OW18798   3.822   0.851   0.777
 5733SOL    HW118799   3.912   0.841   0.818
 5733SOL    HW218800   3.768   0.916   0.830
 5734SOL     OW18801   3.805   1.882   1.569
 5734SOL    HW118802   3.816   1.847   1.662
 5734SOL    HW218803   3.708   1.896   1.550
 5735SOL     OW18804   4.589   0.330   0.230
 5735SOL    HW118805   4.624   0.386   0.155
 5735SOL    HW218806   4.584   0.234   0.200
 5736SOL     OW18807   5.387   0.585   1.839
 5736SOL    HW118808   5.372   0.668   1.785
 5736SOL    HW218809   5.412   0.510   1.779
 5737SOL     OW18810   5.118   1.165   0.588
 5737SOL    HW118811   5.201   1.137   0.541
 5737SOL    HW218812   5.076   1.241   0.538
 5738SOL     OW18813   4.227   0.229   0.928
 5738SOL    HW118814   4.277   0.230   1.015
 5738SOL    HW218815   4.237   0.318   0.883
 5739SOL     OW18816   4.744   1.460   0.478
 5739SOL    HW118817   4.711   1.536   0.421
 5739SOL    HW218818   4.713   1.473   0.572
 5740SOL     OW18819   4.087   1.779   0.878
 5740SOL    HW118820   4.124   1.687   0.880
 5740SOL    HW218821   4.158   1.844   0.904
 5741SOL     OW18822   5.520   1.060   0.900
 5741SOL    HW118823   5.470   1.037   0.816
 5741SOL    HW218824   5.455   1.069   0.976
 5742SOL     OW18825   4.918   1.519   1.531
 5742SOL    HW118826   4.910   1.450   1.604
 5742SOL    HW218827   4.854   1.496   1.457
 5743SOL     OW18828   4.010   0.895   0.235
 5743SOL    HW118829   4.108   0.916   0.229
 5743SOL    HW218830   3.994   0.804   0.197
 5744SOL     OW18831   5.188   0.790   0.707
 5744SOL    HW118832   5.182   0.740   0.793
 5744SOL    HW218833   5.272   0.844   0.705
 5745SOL     OW18834   4.184   1.305   1.726
 5745SOL    HW118835   4.159   1.308   1.630
 5745SOL    HW218836   4.101   1.296   1.782
 5746SOL     OW18837   4.851   1.792   0.249
 5746SOL    HW118838   4.778   1.747   0.300
 5746SOL    HW218839   4.884   1.731   0.177
 5747SOL     OW18840   3.968   0.226   1.561
 5747SOL    HW118841   3.888   0.278   1.533
 5747SOL    HW218842   3.998   0.256   1.651
 5748SOL     OW18843   5.337   1.474   0.123
 5748SOL    HW118844   5.274   1.549   0.104
 5748SOL    HW218845   5.291   1.405   0.179
 5749SOL     OW18846   4.242   1.690   0.387
 5749SOL    HW118847   4.261   1.781   0.423
 5749SOL    HW218848   4.291   1.677   0.301
 5750SOL     OW18849   5.210   0.181   0.387
 5750SOL    HW118850   5.208   0.082   0.377
 5750SOL    HW218851   5.297   0.209   0.428
 5751SOL     OW18852   3.926   1.801   1.212
 5751SOL    HW118853   3.978   1.724   1.250
 5751SOL    HW218854   3.897   1.778   1.119
 5752SOL     OW18855   4.703   1.696   0.883
 5752SOL    HW118856   4.794   1.657   0.894
 5752SOL    HW218857   4.653   1.646   0.813
 5753SOL     OW18858   4.129   0.656   0.478
 5753SOL    HW118859   4.135   0.557   0.492
 5753SOL    HW218860   4.035   0.686   0.494
 5754SOL     OW18861   5.209   0.226   1.732
 5754SOL    HW118862   5.250   0.233   1.823
 5754SOL    HW218863   5.116   0.192   1.739
 5755SOL     OW18864   4.339   0.114   0.068
 5755SOL    HW118865   4.437   0.099   0.080
 5755SOL    HW218866   4.323   0.164   6.983
 5756SOL     OW18867   4.509   0.244   1.814
 5756SOL    HW118868   4.591   0.195   1.784
 5756SOL    HW218869   4.446   0.180   1.857
 5757SOL     OW18870   4.563   1.510   1.200
 5757SOL    HW118871   4.547   1.460   1.115
 5757SOL    HW218872   4.631   1.461   1.255
 5758SOL     OW18873   5.027   0.597   1.432
 5758SOL    HW118874   5.066   0.567   1.520
 5758SOL    HW218875   5.057   0.691   1.413
 5759SOL     OW18876   4.532   1.354   0.966
 5759SOL    HW118877   4.624   1.359   0.928
 5759SOL    HW218878   4.465   1.353   0.891
 5760SOL     OW18879   4.672   0.586   0.871
 5760SOL    HW118880   4.636   0.553   0.784
 5760SOL    HW218881   4.711   0.510   0.922
 5761SOL     OW18882   4.292   0.056   0.492
 5761SOL    HW118883   4.212   0.061   0.552
 5761SOL    HW218884   4.279   0.117   0.414
 5762SOL     OW18885   5.084   1.181   6.991
 5762SOL    HW118886   5.118   1.120   0.063
 5762SOL    HW218887   5.025   1.251   0.032
 5763SOL     OW18888   3.982   0.100   0.349
 5763SOL    HW118889   4.063   0.145   0.311
 5763SOL    HW218890   3.997   0.081   0.446
 5764SOL     OW18891   4.699   0.264   0.474
 5764SOL    HW118892   4.656   0.290   0.388
 5764SOL    HW218893   4.798   0.269   0.465
 5765SOL     OW18894   4.764   0.694   1.446
 5765SOL    HW118895   4.690   0.631   1.469
 5765SOL    HW218896   4.851   0.644   1.442
 5766SOL     OW18897   4.953   1.574   0.809
 5766SOL    HW118898   4.979   1.654   0.754
 5766SOL    HW218899   5.035   1.525   0.838
 5767SOL     OW18900   4.223   1.134   0.677
 5767SOL    HW118901   4.143   1.123   0.736
 5767SOL    HW218902   4.192   1.139   0.582
 5768SOL     OW18903   5.022   1.800   0.654
 5768SOL    HW118904   5.092   1.867   0.630
 5768SOL    HW218905   4.935   1.847   0.669
 5769SOL     OW18906   4.696   0.489   0.034
 5769SOL    HW118907   4.633   0.567   0.035
 5769SOL    HW218908   4.773   0.508   0.095
 5770SOL     OW18909   3.851   0.581   1.393
 5770SOL    HW118910   3.947   0.570   1.367
 5770SOL    HW218911   3.843   0.656   1.459
 5771SOL     OW18912   4.333   0.238   1.185
 5771SOL    HW118913   4.402   0.188   1.236
 5771SOL    HW218914   4.242   0.220   1.224
 5772SOL     OW18915   4.604   0.469   0.637
 5772SOL    HW118916   4.551   0.523   0.572
 5772SOL    HW218917   4.642   0.389   0.591
 5773SOL     OW18918   4.678   6.979   0.814
 5773SOL    HW118919   4.631   6.997   0.727
 5773SOL    HW218920   4.724   6.891   0.809
 5774SOL     OW18921   5.132   1.136   0.873
 5774SOL    HW118922   5.084   1.054   0.900
 5774SOL    HW218923   5.131   1.144   0.773
 5775SOL     OW18924   5.175   0.651   0.940
 5775SOL    HW118925   5.113   0.572   0.943
 5775SOL    HW218926   5.244   0.641   1.011
 5776SOL     OW18927   5.531   0.795   0.384
 5776SOL    HW118928   5.607   0.744   0.424
 5776SOL    HW218929   5.536   0.789   0.284
 5777SOL     OW18930   4.172   1.495   0.125
 5777SOL    HW118931   4.122   1.424   0.174
 5777SOL    HW218932   4.146   1.493   0.028
 5778SOL     OW18933   5.462   1.268   0.631
 5778SOL    HW118934   5.562   1.262   0.638
 5778SOL    HW218935   5.432   1.358   0.665
 5779SOL     OW18936   5.065   0.494   0.039
 5779SOL    HW118937   5.003   0.497   0.117
 5779SOL    HW218938   5.149   0.447   0.066
 5780SOL     OW18939   4.216   0.230   0.284
 5780SOL    HW118940   4.264   0.184   0.209
 5780SOL    HW218941   4.196   0.324   0.256
 5781SOL     OW18942   5.469   1.215   1.512
 5781SOL    HW118943   5.558   1.175   1.491
 5781SOL    HW218944   5.481   1.305   1.554
 5782SOL     OW18945   4.736   1.351   1.361
 5782SOL    HW118946   4.649   1.316   1.396
 5782SOL    HW218947   4.811   1.298   1.400
 5783SOL     OW18948   5.332   1.621   1.677
 5783SOL    HW118949   5.315   1.669   1.590
 5783SOL    HW218950   5.409   1.558   1.665
 5784SOL     OW18951   4.864   1.281   1.125
 5784SOL    HW118952   4.800   1.306   1.197
 5784SOL    HW218953   4.825   1.306   1.036
 5785SOL     OW18954   5.315   1.095   1.083
 5785SOL    HW118955   5.306   1.162   1.158
 5785SOL    HW218956   5.246   1.114   1.013
 5786SOL     OW18957   4.585   0.178   1.321
 5786SOL    HW118958   4.613   0.149   1.230
 5786SOL    HW218959   4.666   0.204   1.374
 5787SOL     OW18960   4.669   1.113   1.749
 5787SOL    HW118961   4.574   1.135   1.771
 5787SOL    HW218962   4.672   1.026   1.699
 5788SOL     OW18963   4.475   1.049   0.394
 5788SOL    HW118964   4.463   1.014   0.487
 5788SOL    HW218965   4.548   0.997   0.348
 5789SOL     OW18966   4.170   0.803   1.289
 5789SOL    HW118967   4.230   0.815   1.368
 5789SOL    HW218968   4.141   0.708   1.282
 5790SOL     OW18969   4.982   0.376   1.282
 5790SOL    HW118970   5.009   0.454   1.337
 5790SOL    HW218971   4.893   0.393   1.241
 5791SOL     OW18972   3.767   1.539   1.335
 5791SOL    HW118973   3.720   1.606   1.279
 5791SOL    HW218974   3.866   1.556   1.330
 5792SOL     OW18975   4.153   1.141   0.413
 5792SOL    HW118976   4.102   1.209   0.360
 5792SOL    HW218977   4.200   1.079   0.351
 5793SOL     OW18978   4.262   0.518   0.876
 5793SOL    HW118979   4.277   0.568   0.791
 5793SOL    HW218980   4.330   0.547   0.944
 5794SOL     OW18981   5.007   1.382   0.438
 5794SOL    HW118982   5.062   1.458   0.475
 5794SOL    HW218983   4.910   1.400   0.455
 5795SOL     OW18984   5.045   1.484   1.145
 5795SOL    HW118985   5.090   1.491   1.234
 5795SOL    HW218986   4.979   1.409   1.147
 5796SOL     OW18987   5.337   0.650   0.517
 5796SOL    HW118988   5.261   0.698   0.562
 5796SOL    HW218989   5.398   0.716   0.475
 5797SOL     OW18990   4.042   1.550   1.286
 5797SOL    HW118991   4.036   1.489   1.207
 5797SOL    HW218992   4.137   1.573   1.304
 5798SOL     OW18993   4.202   0.666   1.695
 5798SOL    HW118994   4.239   0.718   1.618
 5798SOL    HW218995   4.271   0.600   1.727
 5799SOL     OW18996   5.336   0.813   1.699
 5799SOL    HW118997   5.242   0.846   1.694
 5799SOL    HW218998   5.385   0.840   1.616
 5800SOL     OW18999   4.723   0.104   1.700
 5800SOL    HW119000   4.753   0.148   1.616
 5800SOL    HW219001   4.717   0.005   1.686
 5801SOL     OW19002   4.136   0.031   1.768
 5801SOL    HW119003   4.051   6.979   1.777
 5801SOL    HW219004   4.116   0.128   1.778
 5802SOL     OW19005   4.299   0.883   1.059
 5802SOL    HW119006   4.342   0.973   1.065
 5802SOL    HW219007   4.252   0.862   1.145
 5803SOL     OW19008   5.026   0.896   0.982
 5803SOL    HW119009   4.929   0.872   0.979
 5803SOL    HW219010   5.081   0.813   0.971
 5804SOL     OW19011   4.888   0.493   0.245
 5804SOL    HW119012   4.919   0.423   0.308
 5804SOL    HW219013   4.852   0.571   0.297
 5805SOL     OW19014   4.065   0.152   1.223
 5805SOL    HW119015   4.059   0.100   1.309
 5805SOL    HW219016   4.077   0.088   1.147
 5806SOL     OW19017   3.781   1.280   1.244
 5806SOL    HW119018   3.812   1.221   1.318
 5806SOL    HW219019   3.766   1.373   1.279
 5807SOL     OW19020   4.448   0.651   1.037
 5807SOL    HW119021   4.519   0.648   0.967
 5807SOL    HW219022   4.399   0.738   1.031
 5808SOL     OW19023   5.505   0.963   1.861
 5808SOL    HW119024   5.446   0.904   1.807
 5808SOL    HW219025   5.457   0.993   1.943
 5809SOL     OW19026   4.044   0.074   0.615
 5809SOL    HW119027   4.020   0.154   0.671
 5809SOL    HW219028   4.000   6.993   0.653
 5810SOL     OW19029   5.434   0.473   0.335
 5810SOL    HW119030   5.462   0.391   0.384
 5810SOL    HW219031   5.390   0.537   0.398
 5811SOL     OW19032   4.761   0.817   0.993
 5811SOL    HW119033   4.727   0.821   1.087
 5811SOL    HW219034   4.735   0.729   0.953
 5812SOL     OW19035   4.710   1.559   1.791
 5812SOL    HW119036   4.682   1.620   1.717
 5812SOL    HW219037   4.746   1.474   1.753
 5813SOL     OW19038   5.550   1.468   1.592
 5813SOL    HW119039   5.569   1.499   1.499
 5813SOL    HW219040   5.629   1.489   1.650
 5814SOL     OW19041   4.100   0.892   1.821
 5814SOL    HW119042   4.170   0.928   1.883
 5814SOL    HW219043   4.135   0.809   1.777
 5815SOL     OW19044   5.261   0.348   0.163
 5815SOL    HW119045   5.228   0.270   0.215
 5815SOL    HW219046   5.325   0.401   0.219
 5816SOL     OW19047   4.989   0.757   0.012
 5816SOL    HW119048   5.025   0.664   0.004
 5816SOL    HW219049   5.029   0.814   6.940
 5817SOL     OW19050   4.785   1.362   0.873
 5817SOL    HW119051   4.794   1.281   0.816
 5817SOL    HW219052   4.843   1.435   0.837
 5818SOL     OW19053   4.053   0.839   0.931
 5818SOL    HW119054   4.147   0.861   0.960
 5818SOL    HW219055   4.032   0.744   0.956
 5819SOL     OW19056   4.022   0.566   0.997
 5819SOL    HW119057   3.979   0.476   1.009
 5819SOL    HW219058   4.107   0.555   0.946
 5820SOL     OW19059   4.830   0.436   1.666
 5820SOL    HW119060   4.795   0.462   1.756
 5820SOL    HW219061   4.928   0.458   1.660
 5821SOL     OW19062   4.804   0.248   1.475
 5821SOL    HW119063   4.805   0.322   1.543
 5821SOL    HW219064   4.876   0.264   1.407
 5822SOL     OW19065   3.825   1.743   0.956
 5822SOL    HW119066   3.790   1.659   0.915
 5822SOL    HW219067   3.917   1.762   0.921
 5823SOL     OW19068   4.218   1.535   0.902
 5823SOL    HW119069   4.292   1.596   0.932
 5823SOL    HW219070   4.255   1.466   0.839
 5824SOL     OW19071   4.632   0.811   1.235
 5824SOL    HW119072   4.687   0.776   1.311
 5824SOL    HW219073   4.558   0.747   1.216
 5825SOL     OW19074   3.778   0.644   1.135
 5825SOL    HW119075   3.858   0.625   1.077
 5825SOL    HW219076   3.799   0.620   1.230
 5826SOL     OW19077   3.934   0.606   1.758
 5826SOL    HW119078   4.030   0.614   1.733
 5826SOL    HW219079   3.878   0.660   1.695
 5827SOL     OW19080   5.095   0.933   1.636
 5827SOL    HW119081   5.124   1.028   1.632
 5827SOL    HW219082   5.082   0.898   1.543
 5828SOL     OW19083   4.535   0.565   0.374
 5828SOL    HW119084   4.537   0.477   0.326
 5828SOL    HW219085   4.454   0.616   0.346
 5829SOL     OW19086   5.383   0.618   1.115
 5829SOL    HW119087   5.370   0.532   1.163
 5829SOL    HW219088   5.481   0.640   1.111
 5830SOL     OW19089   3.938   1.538   1.693
 5830SOL    HW119090   3.915   1.611   1.757
 5830SOL    HW219091   3.945   1.451   1.742
 5831SOL     OW19092   4.467   0.471   1.240
 5831SOL    HW119093   4.413   0.388   1.223
 5831SOL    HW219094   4.451   0.537   1.167
 5832SOL     OW19095   4.598   1.699   1.546
 5832SOL    HW119096   4.563   1.626   1.487
 5832SOL    HW219097   4.627   1.776   1.489
 5833SOL     OW19098   4.165   0.483   0.197
 5833SOL    HW119099   4.232   0.552   0.221
 5833SOL    HW219100   4.079   0.527   0.171
 5834SOL     OW19101   3.861   1.121   1.463
 5834SOL    HW119102   3.875   1.087   1.556
 5834SOL    HW219103   3.883   1.048   1.398
 5835SOL     OW19104   4.991   1.054   1.206
 5835SOL    HW119105   5.012   0.995   1.128
 5835SOL    HW219106   4.945   1.136   1.174
 5836SOL     OW19107   4.994   0.835   0.274
 5836SOL    HW119108   4.925   0.789   0.330
 5836SOL    HW219109   4.993   0.797   0.182
 5837SOL     OW19110   5.472   1.695   1.154
 5837SOL    HW119111   5.545   1.722   1.091
 5837SOL    HW219112   5.436   1.606   1.127
 5838SOL     OW19113   5.006   1.759   1.112
 5838SOL    HW119114   5.096   1.799   1.098
 5838SOL    HW219115   5.014   1.660   1.122
 5839SOL     OW19116   3.815   1.260   0.977
 5839SOL    HW119117   3.799   1.269   1.075
 5839SOL    HW219118   3.754   1.190   0.940
 5840SOL     OW19119   4.413   1.709   1.746
 5840SOL    HW119120   4.341   1.778   1.733
 5840SOL    HW219121   4.484   1.722   1.678
 5841SOL     OW19122   4.614   0.075   0.134
 5841SOL    HW119123   4.705   0.069   0.094
 5841SOL    HW219124   4.599   6.999   0.197
 5842SOL     OW19125   5.488   0.242   0.474
 5842SOL    HW119126   5.538   0.202   0.397
 5842SOL    HW219127   5.470   0.170   0.542
 5843SOL     OW19128   5.160   1.592   0.531
 5843SOL    HW119129   5.216   1.631   0.458
 5843SOL    HW219130   5.102   1.663   0.571
 5844SOL     OW19131   3.855   1.782   1.818
 5844SOL    HW119132   3.801   1.713   1.865
 5844SOL    HW219133   3.908   1.834   1.885
 5845SOL     OW19134   4.973   0.944   0.655
 5845SOL    HW119135   5.048   0.880   0.673
 5845SOL    HW219136   5.010   1.028   0.615
 5846SOL     OW19137   4.476   1.277   1.426
 5846SOL    HW119138   4.455   1.336   1.504
 5846SOL    HW219139   4.403   1.284   1.358
 5847SOL     OW19140   4.413   1.634   0.172
 5847SOL    HW119141   4.413   1.701   0.098
 5847SOL    HW219142   4.344   1.563   0.153
 5848SOL     OW19143   5.334   1.721   1.406
 5848SOL    HW119144   5.380   1.712   1.318
 5848SOL    HW219145   5.352   1.812   1.444
 5849SOL     OW19146   5.595   0.132   0.994
 5849SOL    HW119147   5.615   0.037   0.968
 5849SOL    HW219148   5.513   0.163   0.947
 5850SOL     OW19149   3.975   0.303   0.744
 5850SOL    HW119150   3.895   0.357   0.717
 5850SOL    HW219151   3.986   0.307   0.843
 5851SOL     OW19152   4.941   1.621   0.050
 5851SOL    HW119153   4.937   1.523   0.072
 5851SOL    HW219154   4.869   1.643   6.985
 5852SOL     OW19155   4.514   1.002   1.426
 5852SOL    HW119156   4.556   0.975   1.340
 5852SOL    HW219157   4.502   1.102   1.427
 5853SOL     OW19158   4.657   0.905   0.261
 5853SOL    HW119159   4.704   0.926   0.175
 5853SOL    HW219160   4.705   0.832   0.309
 5854SOL     OW19161   5.195   1.715   0.082
 5854SOL    HW119162   5.102   1.683   0.067
 5854SOL    HW219163   5.236   1.741   6.995
 5855SOL     OW19164   4.071   1.316   1.480
 5855SOL    HW119165   4.056   1.396   1.423
 5855SOL    HW219166   3.998   1.249   1.464
 5856SOL     OW19167   5.306   1.283   1.293
 5856SOL    HW119168   5.370   1.252   1.363
 5856SOL    HW219169   5.245   1.353   1.331
 5857SOL     OW19170   4.783   1.126   0.745
 5857SOL    HW119171   4.703   1.081   0.786
 5857SOL    HW219172   4.847   1.057   0.711
 5858SOL     OW19173   4.754   0.307   0.934
 5858SOL    HW119174   4.723   0.297   0.840
 5858SOL    HW219175   4.735   0.223   0.985
 5859SOL     OW19176   4.379   1.489   0.509
 5859SOL    HW119177   4.417   1.429   0.438
 5859SOL    HW219178   4.318   1.555   0.466
 5860SOL     OW19179   5.608   0.320   1.463
 5860SOL    HW119180   5.636   0.410   1.430
 5860SOL    HW219181   5.576   0.265   1.386
 5861SOL     OW19182   4.009   1.307   0.242
 5861SOL    HW119183   3.951   1.241   0.194
 5861SOL    HW219184   3.953   1.357   0.308
 5862SOL     OW19185   3.880   1.021   1.724
 5862SOL    HW119186   3.799   1.004   1.781
 5862SOL    HW219187   3.959   0.978   1.767
 5863SOL     OW19188   4.418   0.205   1.538
 5863SOL    HW119189   4.482   0.199   1.462
 5863SOL    HW219190   4.464   0.245   1.617
 5864SOL     OW19191   3.776   0.307   0.009
 5864SOL    HW119192   3.710   0.273   6.942
 5864SOL    HW219193   3.754   0.402   0.031
 5865SOL     OW19194   5.098   0.858   1.372
 5865SOL    HW119195   5.040   0.922   1.322
 5865SOL    HW219196   5.189   0.855   1.330
 5866SOL     OW19197   3.744   0.167   0.245
 5866SOL    HW119198   3.761   0.222   0.163
 5866SOL    HW219199   3.831   0.135   0.281
 5867SOL     OW19200   4.917   1.355   0.134
 5867SOL    HW119201   4.819   1.369   0.126
 5867SOL    HW219202   4.943   1.352   0.230
 5868SOL     OW19203   4.348   0.795   1.496
 5868SOL    HW119204   4.398   0.881   1.482
 5868SOL    HW219205   4.413   0.719   1.494
 5869SOL     OW19206   5.259   1.865   1.069
 5869SOL    HW119207   5.290   1.906   0.983
 5869SOL    HW219208   5.333   1.810   1.107
 5870SOL     OW19209   4.437   0.514   1.751
 5870SOL    HW119210   4.491   0.585   1.797
 5870SOL    HW219211   4.464   0.424   1.785
 5871SOL     OW19212   5.197   1.186   1.615
 5871SOL    HW119213   5.200   1.208   1.712
 5871SOL    HW219214   5.288   1.199   1.575
 5872SOL     OW19215   4.057   1.759   1.558
 5872SOL    HW119216   3.970   1.807   1.544
 5872SOL    HW219217   4.039   1.666   1.591
 5873SOL     OW19218   5.336   0.866   1.236
 5873SOL    HW119219   5.354   0.783   1.185
 5873SOL    HW219220   5.333   0.944   1.174
 5874SOL     OW19221   4.971   0.310   0.433
 5874SOL    HW119222   5.056   0.261   0.414
 5874SOL    HW219223   4.982   0.365   0.515
 5875SOL     OW19224   4.319   0.699   0.675
 5875SOL    HW119225   4.363   0.788   0.667
 5875SOL    HW219226   4.251   0.688   0.603
 5876SOL     OW19227   5.453   0.361   1.688
 5876SOL    HW119228   5.506   0.348   1.604
 5876SOL    HW219229   5.368   0.309   1.682
 5877SOL     OW19230   5.453   0.918   1.477
 5877SOL    HW119231   5.449   1.017   1.492
 5877SOL    HW219232   5.416   0.896   1.387
 5878SOL     OW19233   4.654   1.418   0.126
 5878SOL    HW119234   4.598   1.378   0.199
 5878SOL    HW219235   4.607   1.498   0.088
 5879SOL     OW19236   4.417   1.713   0.946
 5879SOL    HW119237   4.385   1.807   0.936
 5879SOL    HW219238   4.517   1.711   0.945
 5880SOL     OW19239   4.582   0.995   0.884
 5880SOL    HW119240   4.649   0.934   0.925
 5880SOL    HW219241   4.524   1.034   0.957
 5881SOL     OW19242   4.798   0.955   0.027
 5881SOL    HW119243   4.847   1.042   0.028
 5881SOL    HW219244   4.863   0.879   0.019
 5882SOL     OW19245   5.594   1.525   0.855
 5882SOL    HW119246   5.506   1.519   0.807
 5882SOL    HW219247   5.619   1.435   0.891
 5883SOL     OW19248   3.924   1.284   1.816
 5883SOL    HW119249   3.908   1.197   1.771
 5883SOL    HW219250   3.868   1.290   1.899
 5884SOL     OW19251   3.875   1.223   0.618
 5884SOL    HW119252   3.926   1.189   0.697
 5884SOL    HW219253   3.866   1.150   0.550
 5885SOL     OW19254   4.402   1.449   1.627
 5885SOL    HW119255   4.325   1.399   1.667
 5885SOL    HW219256   4.412   1.537   1.675
 5886SOL     OW19257   5.523   0.154   1.261
 5886SOL    HW119258   5.427   0.127   1.251
 5886SOL    HW219259   5.567   0.155   1.171
 5887SOL     OW19260   4.136   0.392   0.528
 5887SOL    HW119261   4.163   0.319   0.465
 5887SOL    HW219262   4.089   0.353   0.607
 5888SOL     OW19263   5.376   1.455   1.090
 5888SOL    HW119264   5.311   1.437   1.016
 5888SOL    HW219265   5.365   1.388   1.162
 5889SOL     OW19266   4.100   0.541   1.286
 5889SOL    HW119267   4.143   0.468   1.339
 5889SOL    HW219268   4.095   0.514   1.190
 5890SOL     OW19269   4.580   1.547   0.693
 5890SOL    HW119270   4.521   1.567   0.615
 5890SOL    HW219271   4.536   1.477   0.750
 5891SOL     OW19272   5.184   0.293   1.110
 5891SOL    HW119273   5.219   0.201   1.132
 5891SOL    HW219274   5.118   0.321   1.179
 5892SOL     OW19275   4.683   0.078   1.074
 5892SOL    HW119276   4.671   0.037   0.984
 5892SOL    HW219277   4.705   0.006   1.140
 5893SOL     OW19278   4.530   1.317   0.352
 5893SOL    HW119279   4.506   1.221   0.366
 5893SOL    HW219280   4.613   1.338   0.404
 5894SOL     OW19281   4.317   1.589   1.288
 5894SOL    HW119282   4.310   1.682   1.325
 5894SOL    HW219283   4.409   1.575   1.251
 5895SOL     OW19284   5.167   0.012   0.062
 5895SOL    HW119285   5.162   6.913   0.055
 5895SOL    HW219286   5.075   0.051   0.055
 5896SOL     OW19287   4.984   0.461   0.657
 5896SOL    HW119288   4.939   0.550   0.650
 5896SOL    HW219289   5.009   0.444   0.752
 5897SOL     OW19290   5.373   0.261   0.884
 5897SOL    HW119291   5.308   0.268   0.960
 5897SOL    HW219292   5.376   0.348   0.835
 5898SOL     OW19293   3.843   1.016   0.442
 5898SOL    HW119294   3.924   0.988   0.391
 5898SOL    HW219295   3.769   0.952   0.426
 5899SOL     OW19296   4.623   1.681   0.360
 5899SOL    HW119297   4.548   1.662   0.297
 5899SOL    HW219298   4.598   1.758   0.418
 5900SOL     OW19299   3.925   0.654   2.031
 5900SOL    HW119300   3.835   0.620   2.059
 5900SOL    HW219301   3.930   0.656   1.931
 5901SOL     OW19302   3.966   0.283   2.859
 5901SOL    HW119303   4.013   0.248   2.939
 5901SOL    HW219304   3.885   0.227   2.840
 5902SOL     OW19305   3.759   0.449   2.496
 5902SOL    HW119306   3.673   0.467   2.543
 5902SOL    HW219307   3.740   0.408   2.406
 5903SOL     OW19308   4.290   1.309   3.078
 5903SOL    HW119309   4.202   1.310   3.030
 5903SOL    HW219310   4.319   1.402   3.097
 5904SOL     OW19311   5.324   1.512   2.561
 5904SOL    HW119312   5.279   1.464   2.635
 5904SOL    HW219313   5.259   1.530   2.488
 5905SOL     OW19314   4.843   0.734   2.527
 5905SOL    HW119315   4.897   0.813   2.499
 5905SOL    HW219316   4.797   0.753   2.613
 5906SOL     OW19317   5.527   0.572   2.070
 5906SOL    HW119318   5.484   0.587   1.981
 5906SOL    HW219319   5.481   0.497   2.117
 5907SOL     OW19320   4.434   1.139   2.908
 5907SOL    HW119321   4.376   1.175   2.981
 5907SOL    HW219322   4.478   1.214   2.860
 5908SOL     OW19323   4.621   0.711   3.686
 5908SOL    HW119324   4.636   0.768   3.768
 5908SOL    HW219325   4.637   0.766   3.604
 5909SOL     OW19326   4.437   0.974   2.490
 5909SOL    HW119327   4.502   0.981   2.565
 5909SOL    HW219328   4.357   1.030   2.509
 5910SOL     OW19329   4.527   1.267   3.639
 5910SOL    HW119330   4.541   1.320   3.722
 5910SOL    HW219331   4.454   1.309   3.585
 5911SOL     OW19332   4.060   1.395   2.944
 5911SOL    HW119333   3.982   1.341   2.911
 5911SOL    HW219334   4.101   1.444   2.867
 5912SOL     OW19335   5.160   1.494   3.235
 5912SOL    HW119336   5.215   1.577   3.247
 5912SOL    HW219337   5.076   1.501   3.289
 5913SOL     OW19338   4.200   0.396   3.247
 5913SOL    HW119339   4.278   0.356   3.295
 5913SOL    HW219340   4.117   0.346   3.272
 5914SOL     OW19341   5.368   0.498   2.613
 5914SOL    HW119342   5.351   0.527   2.519
 5914SOL    HW219343   5.315   0.555   2.675
 5915SOL     OW19344   3.968   1.728   2.320
 5915SOL    HW119345   3.987   1.794   2.393
 5915SOL    HW219346   4.037   1.737   2.248
 5916SOL     OW19347   4.904   1.308   3.555
 5916SOL    HW119348   4.998   1.276   3.542
 5916SOL    HW219349   4.845   1.232   3.580
 5917SOL     OW19350   4.027   1.464   2.360
 5917SOL    HW119351   3.995   1.558   2.361
 5917SOL    HW219352   3.981   1.412   2.432
 5918SOL     OW19353   4.027   1.105   2.731
 5918SOL    HW119354   4.035   1.008   2.755
 5918SOL    HW219355   3.968   1.150   2.798
 5919SOL     OW19356   4.271   1.802   3.233
 5919SOL    HW119357   4.187   1.793   3.287
 5919SOL    HW219358   4.338   1.853   3.286
 5920SOL     OW19359   4.284   0.983   2.014
 5920SOL    HW119360   4.325   1.037   1.940
 5920SOL    HW219361   4.328   1.007   2.100
 5921SOL     OW19362   5.314   0.175   3.316
 5921SOL    HW119363   5.413   0.185   3.305
 5921SOL    HW219364   5.289   0.191   3.411
 5922SOL     OW19365   3.863   0.705   2.439
 5922SOL    HW119366   3.841   0.612   2.468
 5922SOL    HW219367   3.851   0.768   2.516
 5923SOL     OW19368   5.590   1.745   2.177
 5923SOL    HW119369   5.668   1.731   2.238
 5923SOL    HW219370   5.584   1.841   2.152
 5924SOL     OW19371   3.740   1.579   1.949
 5924SOL    HW119372   3.674   1.504   1.942
 5924SOL    HW219373   3.740   1.615   2.042
 5925SOL     OW19374   5.435   0.940   2.531
 5925SOL    HW119375   5.525   0.898   2.531
 5925SOL    HW219376   5.425   0.999   2.451
 5926SOL     OW19377   5.419   1.120   2.316
 5926SOL    HW119378   5.498   1.084   2.266
 5926SOL    HW219379   5.447   1.197   2.373
 5927SOL     OW19380   3.906   0.734   3.478
 5927SOL    HW119381   4.004   0.742   3.496
 5927SOL    HW219382   3.858   0.813   3.516
 5928SOL     OW19383   4.339   1.368   2.577
 5928SOL    HW119384   4.303   1.275   2.575
 5928SOL    HW219385   4.319   1.414   2.491
 5929SOL     OW19386   4.955   1.201   3.265
 5929SOL    HW119387   4.976   1.134   3.194
 5929SOL    HW219388   5.029   1.202   3.333
 5930SOL     OW19389   4.575   0.084   2.457
 5930SOL    HW119390   4.619   0.156   2.404
 5930SOL    HW219391   4.485   0.065   2.418
 5931SOL     OW19392   3.958   0.996   3.183
 5931SOL    HW119393   4.043   0.944   3.171
 5931SOL    HW219394   3.902   0.987   3.101
 5932SOL     OW19395   5.316   1.041   2.067
 5932SOL    HW119396   5.239   0.980   2.083
 5932SOL    HW219397   5.351   1.076   2.154
 5933SOL     OW19398   4.892   1.754   3.497
 5933SOL    HW119399   4.903   1.827   3.430
 5933SOL    HW219400   4.903   1.665   3.451
 5934SOL     OW19401   5.215   1.377   2.775
 5934SOL    HW119402   5.151   1.412   2.843
 5934SOL    HW219403   5.188   1.285   2.748
 5935SOL     OW19404   5.357   1.849   2.403
 5935SOL    HW119405   5.351   1.787   2.324
 5935SOL    HW219406   5.369   1.795   2.487
 5936SOL     OW19407   4.291   0.707   2.111
 5936SOL    HW119408   4.294   0.798   2.070
 5936SOL    HW219409   4.227   0.707   2.187
 5937SOL     OW19410   5.021   0.423   2.797
 5937SOL    HW119411   4.929   0.385   2.802
 5937SOL    HW219412   5.081   0.373   2.859
 5938SOL     OW19413   5.323   1.683   2.184
 5938SOL    HW119414   5.423   1.691   2.176
 5938SOL    HW219415   5.284   1.671   2.093
 5939SOL     OW19416   4.525   0.567   3.324
 5939SOL    HW119417   4.491   0.527   3.409
 5939SOL    HW219418   4.496   0.511   3.246
 5940SOL     OW19419   5.094   0.476   3.523
 5940SOL    HW119420   5.102   0.527   3.608
 5940SOL    HW219421   5.160   0.400   3.523
 5941SOL     OW19422   4.677   0.880   3.467
 5941SOL    HW119423   4.728   0.815   3.411
 5941SOL    HW219424   4.617   0.934   3.408
 5942SOL     OW19425   4.739   0.421   3.037
 5942SOL    HW119426   4.644   0.433   3.066
 5942SOL    HW219427   4.742   0.382   2.945
 5943SOL     OW19428   4.751   0.711   2.264
 5943SOL    HW119429   4.775   0.714   2.361
 5943SOL    HW219430   4.664   0.663   2.253
 5944SOL     OW19431   3.812   0.876   2.651
 5944SOL    HW119432   3.899   0.858   2.696
 5944SOL    HW219433   3.760   0.943   2.703
 5945SOL     OW19434   3.841   1.895   3.513
 5945SOL    HW119435   3.856   1.833   3.591
 5945SOL    HW219436   3.752   1.939   3.522
 5946SOL     OW19437   4.593   0.367   2.054
 5946SOL    HW119438   4.663   0.422   2.009
 5946SOL    HW219439   4.546   0.310   1.987
 5947SOL     OW19440   5.396   0.582   3.702
 5947SOL    HW119441   5.377   0.664   3.649
 5947SOL    HW219442   5.434   0.511   3.642
 5948SOL     OW19443   5.146   1.171   2.422
 5948SOL    HW119444   5.236   1.162   2.379
 5948SOL    HW219445   5.092   1.239   2.372
 5949SOL     OW19446   4.229   0.058   2.786
 5949SOL    HW119447   4.274   0.142   2.819
 5949SOL    HW219448   4.207   0.069   2.689
 5950SOL     OW19449   4.732   1.456   2.298
 5950SOL    HW119450   4.712   1.536   2.242
 5950SOL    HW219451   4.690   1.466   2.388
 5951SOL     OW19452   4.077   1.790   2.774
 5951SOL    HW119453   4.115   1.698   2.761
 5951SOL    HW219454   4.150   1.857   2.769
 5952SOL     OW19455   5.517   1.049   2.773
 5952SOL    HW119456   5.474   1.029   2.685
 5952SOL    HW219457   5.447   1.059   2.844
 5953SOL     OW19458   4.913   1.507   3.362
 5953SOL    HW119459   4.914   1.435   3.432
 5953SOL    HW219460   4.845   1.484   3.293
 5954SOL     OW19461   4.015   0.911   2.125
 5954SOL    HW119462   4.095   0.939   2.073
 5954SOL    HW219463   3.988   0.818   2.099
 5955SOL     OW19464   5.206   0.791   2.550
 5955SOL    HW119465   5.198   0.744   2.637
 5955SOL    HW219466   5.289   0.848   2.551
 5956SOL     OW19467   4.882   1.761   2.098
 5956SOL    HW119468   4.789   1.747   2.132
 5956SOL    HW219469   4.908   1.683   2.040
 5957SOL     OW19470   3.957   0.277   3.337
 5957SOL    HW119471   3.859   0.286   3.316
 5957SOL    HW219472   3.983   0.348   3.402
 5958SOL     OW19473   5.393   1.417   1.957
 5958SOL    HW119474   5.337   1.499   1.956
 5958SOL    HW219475   5.340   1.339   1.923
 5959SOL     OW19476   4.181   1.779   2.150
 5959SOL    HW119477   4.226   1.829   2.224
 5959SOL    HW219478   4.248   1.722   2.102
 5960SOL     OW19479   5.090   0.115   2.267
 5960SOL    HW119480   5.042   0.063   2.197
 5960SOL    HW219481   5.188   0.116   2.246
 5961SOL     OW19482   4.003   1.810   3.060
 5961SOL    HW119483   4.034   1.728   3.108
 5961SOL    HW219484   4.026   1.802   2.963
 5962SOL     OW19485   4.653   1.660   2.701
 5962SOL    HW119486   4.748   1.632   2.710
 5962SOL    HW219487   4.610   1.610   2.625
 5963SOL     OW19488   4.123   0.673   2.327
 5963SOL    HW119489   4.126   0.573   2.332
 5963SOL    HW219490   4.033   0.706   2.355
 5964SOL     OW19491   5.243   0.237   3.580
 5964SOL    HW119492   5.274   0.242   3.675
 5964SOL    HW219493   5.153   0.195   3.577
 5965SOL     OW19494   4.335   0.078   1.952
 5965SOL    HW119495   4.359   0.001   2.013
 5965SOL    HW219496   4.265   0.049   1.888
 5966SOL     OW19497   4.525   0.245   3.619
 5966SOL    HW119498   4.602   0.188   3.589
 5966SOL    HW219499   4.482   0.203   3.699
 5967SOL     OW19500   4.603   1.529   3.012
 5967SOL    HW119501   4.575   1.479   2.931
 5967SOL    HW219502   4.654   1.468   3.073
 5968SOL     OW19503   5.014   0.599   3.292
 5968SOL    HW119504   5.050   0.564   3.379
 5968SOL    HW219505   5.051   0.690   3.276
 5969SOL     OW19506   4.533   1.364   2.791
 5969SOL    HW119507   4.625   1.366   2.753
 5969SOL    HW219508   4.466   1.373   2.718
 5970SOL     OW19509   4.643   0.559   2.726
 5970SOL    HW119510   4.616   0.546   2.630
 5970SOL    HW219511   4.680   0.473   2.762
 5971SOL     OW19512   4.320   0.058   2.328
 5971SOL    HW119513   4.257   0.050   2.405
 5971SOL    HW219514   4.288   0.129   2.266
 5972SOL     OW19515   5.210   1.220   1.889
 5972SOL    HW119516   5.252   1.148   1.945
 5972SOL    HW219517   5.123   1.248   1.930
 5973SOL     OW19518   4.022   0.004   2.167
 5973SOL    HW119519   4.070   0.091   2.157
 5973SOL    HW219520   3.934   0.009   2.120
 5974SOL     OW19521   4.686   0.288   2.304
 5974SOL    HW119522   4.645   0.307   2.215
 5974SOL    HW219523   4.784   0.307   2.300
 5975SOL     OW19524   4.758   0.700   3.274
 5975SOL    HW119525   4.683   0.637   3.294
 5975SOL    HW219526   4.845   0.650   3.275
 5976SOL     OW19527   4.921   1.602   2.670
 5976SOL    HW119528   4.949   1.656   2.591
 5976SOL    HW219529   4.959   1.644   2.753
 5977SOL     OW19530   4.217   1.127   2.537
 5977SOL    HW119531   4.154   1.117   2.614
 5977SOL    HW219532   4.166   1.121   2.451
 5978SOL     OW19533   4.971   1.782   2.464
 5978SOL    HW119534   5.018   1.847   2.404
 5978SOL    HW219535   4.885   1.823   2.495
 5979SOL     OW19536   4.764   0.526   1.917
 5979SOL    HW119537   4.710   0.608   1.897
 5979SOL    HW219538   4.836   0.549   1.983
 5980SOL     OW19539   3.831   0.591   3.250
 5980SOL    HW119540   3.921   0.589   3.207
 5980SOL    HW219541   3.835   0.650   3.331
 5981SOL     OW19542   4.340   0.212   3.024
 5981SOL    HW119543   4.403   0.189   3.097
 5981SOL    HW219544   4.246   0.209   3.058
 5982SOL     OW19545   4.588   0.489   2.471
 5982SOL    HW119546   4.529   0.542   2.410
 5982SOL    HW219547   4.624   0.409   2.422
 5983SOL     OW19548   4.695   6.984   2.686
 5983SOL    HW119549   4.647   0.018   2.605
 5983SOL    HW219550   4.737   6.896   2.665
 5984SOL     OW19551   5.146   1.118   2.713
 5984SOL    HW119552   5.091   1.038   2.736
 5984SOL    HW219553   5.144   1.132   2.614
 5985SOL     OW19554   5.184   0.648   2.784
 5985SOL    HW119555   5.119   0.572   2.792
 5985SOL    HW219556   5.250   0.643   2.859
 5986SOL     OW19557   5.536   0.763   2.261
 5986SOL    HW119558   5.611   0.738   2.323
 5986SOL    HW219559   5.536   0.700   2.184
 5987SOL     OW19560   4.232   1.437   1.999
 5987SOL    HW119561   4.156   1.392   2.047
 5987SOL    HW219562   4.242   1.397   1.908
 5988SOL     OW19563   5.509   1.311   2.475
 5988SOL    HW119564   5.605   1.313   2.505
 5988SOL    HW219565   5.461   1.391   2.511
 5989SOL     OW19566   5.112   0.602   1.916
 5989SOL    HW119567   5.068   0.587   2.004
 5989SOL    HW219568   5.212   0.598   1.927
 5990SOL     OW19569   4.196   0.232   2.135
 5990SOL    HW119570   4.251   0.183   2.067
 5990SOL    HW219571   4.175   0.324   2.100
 5991SOL     OW19572   5.452   1.225   3.387
 5991SOL    HW119573   5.543   1.187   3.370
 5991SOL    HW219574   5.460   1.315   3.428
 5992SOL     OW19575   4.731   1.347   3.192
 5992SOL    HW119576   4.644   1.315   3.231
 5992SOL    HW219577   4.806   1.291   3.229
 5993SOL     OW19578   5.335   1.667   3.534
 5993SOL    HW119579   5.310   1.693   3.441
 5993SOL    HW219580   5.408   1.598   3.531
 5994SOL     OW19581   4.862   1.262   2.960
 5994SOL    HW119582   4.797   1.292   3.031
 5994SOL    HW219583   4.830   1.292   2.871
 5995SOL     OW19584   5.308   1.085   2.945
 5995SOL    HW119585   5.296   1.153   3.018
 5995SOL    HW219586   5.242   1.104   2.873
 5996SOL     OW19587   4.580   0.173   3.184
 5996SOL    HW119588   4.609   0.150   3.091
 5996SOL    HW219589   4.660   0.194   3.240
 5997SOL     OW19590   4.737   1.101   3.624
 5997SOL    HW119591   4.654   1.156   3.626
 5997SOL    HW219592   4.722   1.020   3.566
 5998SOL     OW19593   4.458   1.046   2.223
 5998SOL    HW119594   4.454   1.016   2.318
 5998SOL    HW219595   4.526   0.991   2.174
 5999SOL     OW19596   4.179   0.837   3.137
 5999SOL    HW119597   4.248   0.831   3.210
 5999SOL    HW219598   4.132   0.749   3.128
 6000SOL     OW19599   4.976   0.368   3.153
 6000SOL    HW119600   5.002   0.449   3.205
 6000SOL    HW219601   4.889   0.385   3.107
 6001SOL     OW19602   3.785   1.548   3.202
 6001SOL    HW119603   3.746   1.612   3.136
 6001SOL    HW219604   3.884   1.561   3.206
 6002SOL     OW19605   4.055   1.114   2.314
 6002SOL    HW119606   4.056   1.187   2.245
 6002SOL    HW219607   4.040   1.026   2.269
 6003SOL     OW19608   4.236   0.585   2.736
 6003SOL    HW119609   4.263   0.627   2.649
 6003SOL    HW219610   4.314   0.587   2.799
 6004SOL     OW19611   4.994   1.362   2.277
 6004SOL    HW119612   5.050   1.439   2.307
 6004SOL    HW219613   4.897   1.385   2.290
 6005SOL     OW19614   5.058   1.452   2.986
 6005SOL    HW119615   5.096   1.462   3.078
 6005SOL    HW219616   4.991   1.378   2.984
 6006SOL     OW19617   5.322   0.619   2.366
 6006SOL    HW119618   5.255   0.676   2.413
 6006SOL    HW219619   5.393   0.677   2.326
 6007SOL     OW19620   4.070   1.533   3.175
 6007SOL    HW119621   4.056   1.481   3.091
 6007SOL    HW219622   4.167   1.553   3.186
 6008SOL     OW19623   4.224   0.659   3.518
 6008SOL    HW119624   4.262   0.722   3.450
 6008SOL    HW219625   4.298   0.605   3.558
 6009SOL     OW19626   5.337   0.808   3.562
 6009SOL    HW119627   5.242   0.839   3.555
 6009SOL    HW219628   5.387   0.838   3.481
 6010SOL     OW19629   4.691   0.042   3.510
 6010SOL    HW119630   4.736   0.098   3.440
 6010SOL    HW219631   4.754   6.972   3.542
 6011SOL     OW19632   4.235   0.090   3.595
 6011SOL    HW119633   4.177   0.021   3.552
 6011SOL    HW219634   4.224   0.178   3.548
 6012SOL     OW19635   4.301   0.893   2.897
 6012SOL    HW119636   4.346   0.982   2.893
 6012SOL    HW219637   4.258   0.881   2.986
 6013SOL     OW19638   5.022   0.881   2.815
 6013SOL    HW119639   4.927   0.852   2.806
 6013SOL    HW219640   5.082   0.801   2.807
 6014SOL     OW19641   4.941   0.568   2.129
 6014SOL    HW119642   4.953   0.485   2.183
 6014SOL    HW219643   4.879   0.630   2.177
 6015SOL     OW19644   4.066   0.169   3.091
 6015SOL    HW119645   4.022   0.184   3.180
 6015SOL    HW219646   4.070   0.071   3.072
 6016SOL     OW19647   3.790   1.278   3.153
 6016SOL    HW119648   3.816   1.228   3.236
 6016SOL    HW219649   3.782   1.375   3.173
 6017SOL     OW19650   4.453   0.663   2.901
 6017SOL    HW119651   4.514   0.642   2.825
 6017SOL    HW219652   4.404   0.748   2.882
 6018SOL     OW19653   5.491   0.971   3.726
 6018SOL    HW119654   5.437   0.906   3.672
 6018SOL    HW219655   5.442   0.994   3.810
 6019SOL     OW19656   4.121   0.077   2.529
 6019SOL    HW119657   4.073   0.164   2.540
 6019SOL    HW219658   4.056   0.002   2.535
 6020SOL     OW19659   5.353   0.396   2.203
 6020SOL    HW119660   5.419   0.341   2.254
 6020SOL    HW219661   5.322   0.473   2.260
 6021SOL     OW19662   4.757   0.791   2.808
 6021SOL    HW119663   4.732   0.810   2.903
 6021SOL    HW219664   4.722   0.701   2.782
 6022SOL     OW19665   4.740   1.516   3.643
 6022SOL    HW119666   4.698   1.572   3.571
 6022SOL    HW219667   4.787   1.438   3.603
 6023SOL     OW19668   5.537   1.483   3.462
 6023SOL    HW119669   5.562   1.511   3.370
 6023SOL    HW219670   5.617   1.490   3.522
 6024SOL     OW19671   5.237   0.239   2.009
 6024SOL    HW119672   5.139   0.259   2.008
 6024SOL    HW219673   5.283   0.300   2.073
 6025SOL     OW19674   4.992   0.845   1.871
 6025SOL    HW119675   5.025   0.751   1.882
 6025SOL    HW219676   5.020   0.881   1.782
 6026SOL     OW19677   4.794   1.359   2.713
 6026SOL    HW119678   4.811   1.281   2.653
 6026SOL    HW219679   4.851   1.437   2.684
 6027SOL     OW19680   4.044   0.834   2.796
 6027SOL    HW119681   4.141   0.847   2.815
 6027SOL    HW219682   4.019   0.740   2.817
 6028SOL     OW19683   3.999   0.552   2.850
 6028SOL    HW119684   3.973   0.455   2.852
 6028SOL    HW219685   4.084   0.563   2.799
 6029SOL     OW19686   4.854   0.346   3.580
 6029SOL    HW119687   4.796   0.391   3.648
 6029SOL    HW219688   4.932   0.405   3.558
 6030SOL     OW19689   4.808   0.225   3.338
 6030SOL    HW119690   4.821   0.275   3.424
 6030SOL    HW219691   4.875   0.256   3.271
 6031SOL     OW19692   3.765   1.264   2.040
 6031SOL    HW119693   3.677   1.305   2.021
 6031SOL    HW219694   3.752   1.173   2.079
 6032SOL     OW19695   3.804   1.773   2.797
 6032SOL    HW119696   3.768   1.693   2.749
 6032SOL    HW219697   3.903   1.779   2.783
 6033SOL     OW19698   4.204   1.540   2.755
 6033SOL    HW119699   4.278   1.604   2.777
 6033SOL    HW219700   4.236   1.473   2.688
 6034SOL     OW19701   4.643   0.821   3.056
 6034SOL    HW119702   4.692   0.783   3.134
 6034SOL    HW219703   4.567   0.760   3.032
 6035SOL     OW19704   3.742   0.590   2.986
 6035SOL    HW119705   3.824   0.588   2.929
 6035SOL    HW219706   3.768   0.600   3.082
 6036SOL     OW19707   4.017   0.479   3.502
 6036SOL    HW119708   4.106   0.525   3.508
 6036SOL    HW219709   3.944   0.546   3.508
 6037SOL     OW19710   5.096   0.928   3.494
 6037SOL    HW119711   5.113   1.027   3.496
 6037SOL    HW219712   5.086   0.898   3.399
 6038SOL     OW19713   4.516   0.584   2.211
 6038SOL    HW119714   4.531   0.502   2.157
 6038SOL    HW219715   4.435   0.632   2.176
 6039SOL     OW19716   5.374   0.614   2.977
 6039SOL    HW119717   5.354   0.528   3.022
 6039SOL    HW219718   5.473   0.627   2.971
 6040SOL     OW19719   3.930   1.547   3.524
 6040SOL    HW119720   3.938   1.601   3.608
 6040SOL    HW219721   3.993   1.470   3.528
 6041SOL     OW19722   4.470   0.456   3.077
 6041SOL    HW119723   4.411   0.379   3.052
 6041SOL    HW219724   4.452   0.533   3.015
 6042SOL     OW19725   4.591   1.641   3.414
 6042SOL    HW119726   4.550   1.578   3.347
 6042SOL    HW219727   4.632   1.718   3.366
 6043SOL     OW19728   4.150   0.481   2.018
 6043SOL    HW119729   4.223   0.546   2.036
 6043SOL    HW219730   4.061   0.525   2.033
 6044SOL     OW19731   3.863   1.132   3.395
 6044SOL    HW119732   3.850   1.075   3.477
 6044SOL    HW219733   3.900   1.076   3.321
 6045SOL     OW19734   4.986   1.034   3.042
 6045SOL    HW119735   5.008   0.975   2.965
 6045SOL    HW219736   4.939   1.116   3.010
 6046SOL     OW19737   5.094   0.898   2.124
 6046SOL    HW119738   5.032   0.877   2.199
 6046SOL    HW219739   5.050   0.878   2.037
 6047SOL     OW19740   5.477   1.688   3.022
 6047SOL    HW119741   5.548   1.726   2.963
 6047SOL    HW219742   5.454   1.595   2.991
 6048SOL     OW19743   5.005   1.708   2.910
 6048SOL    HW119744   5.091   1.760   2.910
 6048SOL    HW219745   5.023   1.615   2.943
 6049SOL     OW19746   3.845   1.224   2.892
 6049SOL    HW119747   3.820   1.241   2.988
 6049SOL    HW219748   3.769   1.179   2.845
 6050SOL     OW19749   4.371   1.656   3.585
 6050SOL    HW119750   4.319   1.742   3.589
 6050SOL    HW219751   4.453   1.669   3.529
 6051SOL     OW19752   5.541   0.251   2.335
 6051SOL    HW119753   5.592   0.209   2.260
 6051SOL    HW219754   5.506   0.179   2.396
 6052SOL     OW19755   5.140   1.580   2.364
 6052SOL    HW119756   5.200   1.617   2.293
 6052SOL    HW219757   5.074   1.650   2.393
 6053SOL     OW19758   3.905   1.733   3.728
 6053SOL    HW119759   3.862   1.657   3.776
 6053SOL    HW219760   3.954   1.791   3.793
 6054SOL     OW19761   5.002   0.945   2.464
 6054SOL    HW119762   5.074   0.882   2.493
 6054SOL    HW219763   5.043   1.032   2.434
 6055SOL     OW19764   4.478   1.271   3.275
 6055SOL    HW119765   4.441   1.309   3.360
 6055SOL    HW219766   4.409   1.275   3.203
 6056SOL     OW19767   4.398   1.654   2.014
 6056SOL    HW119768   4.417   1.671   1.918
 6056SOL    HW219769   4.346   1.569   2.023
 6057SOL     OW19770   5.315   1.723   3.254
 6057SOL    HW119771   5.375   1.710   3.175
 6057SOL    HW219772   5.298   1.820   3.268
 6058SOL     OW19773   5.601   0.133   2.850
 6058SOL    HW119774   5.621   0.040   2.820
 6058SOL    HW219775   5.517   0.165   2.807
 6059SOL     OW19776   3.985   0.309   2.580
 6059SOL    HW119777   3.904   0.362   2.554
 6059SOL    HW219778   3.992   0.306   2.680
 6060SOL     OW19779   4.954   1.554   1.933
 6060SOL    HW119780   4.956   1.458   1.963
 6060SOL    HW219781   4.872   1.570   1.878
 6061SOL     OW19782   4.538   1.002   3.264
 6061SOL    HW119783   4.578   0.977   3.176
 6061SOL    HW219784   4.520   1.100   3.266
 6062SOL     OW19785   4.646   0.897   2.087
 6062SOL    HW119786   4.715   0.959   2.050
 6062SOL    HW219787   4.690   0.834   2.152
 6063SOL     OW19788   5.218   1.642   1.926
 6063SOL    HW119789   5.123   1.610   1.922
 6063SOL    HW219790   5.257   1.643   1.833
 6064SOL     OW19791   4.078   1.339   3.403
 6064SOL    HW119792   4.065   1.394   3.321
 6064SOL    HW219793   4.015   1.261   3.401
 6065SOL     OW19794   5.300   1.267   3.154
 6065SOL    HW119795   5.365   1.247   3.227
 6065SOL    HW219796   5.245   1.347   3.180
 6066SOL     OW19797   4.812   1.124   2.580
 6066SOL    HW119798   4.732   1.078   2.618
 6066SOL    HW219799   4.870   1.057   2.534
 6067SOL     OW19800   4.758   0.304   2.788
 6067SOL    HW119801   4.748   0.279   2.692
 6067SOL    HW219802   4.735   0.225   2.845
 6068SOL     OW19803   4.307   1.480   2.333
 6068SOL    HW119804   4.353   1.429   2.260
 6068SOL    HW219805   4.208   1.477   2.319
 6069SOL     OW19806   5.614   0.331   3.314
 6069SOL    HW119807   5.643   0.422   3.284
 6069SOL    HW219808   5.593   0.275   3.234
 6070SOL     OW19809   4.020   1.320   2.133
 6070SOL    HW119810   3.928   1.307   2.097
 6070SOL    HW219811   4.017   1.382   2.212
 6071SOL     OW19812   3.817   0.962   3.614
 6071SOL    HW119813   3.730   0.972   3.662
 6071SOL    HW219814   3.887   0.931   3.677
 6072SOL     OW19815   4.400   0.261   3.374
 6072SOL    HW119816   4.466   0.227   3.306
 6072SOL    HW219817   4.443   0.263   3.464
 6073SOL     OW19818   3.811   0.377   1.869
 6073SOL    HW119819   3.726   0.364   1.819
 6073SOL    HW219820   3.853   0.463   1.842
 6074SOL     OW19821   5.096   0.858   3.230
 6074SOL    HW119822   5.038   0.914   3.171
 6074SOL    HW219823   5.188   0.854   3.191
 6075SOL     OW19824   3.734   0.219   2.104
 6075SOL    HW119825   3.762   0.284   2.034
 6075SOL    HW219826   3.744   0.126   2.070
 6076SOL     OW19827   4.968   1.285   2.010
 6076SOL    HW119828   4.915   1.201   2.002
 6076SOL    HW219829   4.981   1.308   2.106
 6077SOL     OW19830   4.371   0.795   3.325
 6077SOL    HW119831   4.427   0.877   3.312
 6077SOL    HW219832   4.430   0.714   3.323
 6078SOL     OW19833   5.257   1.827   2.905
 6078SOL    HW119834   5.293   1.871   2.823
 6078SOL    HW219835   5.331   1.780   2.953
 6079SOL     OW19836   4.450   0.515   3.590
 6079SOL    HW119837   4.509   0.583   3.633
 6079SOL    HW219838   4.481   0.423   3.616
 6080SOL     OW19839   5.167   1.198   3.492
 6080SOL    HW119840   5.182   1.204   3.591
 6080SOL    HW219841   5.254   1.212   3.445
 6081SOL     OW19842   4.051   1.766   3.396
 6081SOL    HW119843   3.974   1.826   3.414
 6081SOL    HW219844   4.026   1.671   3.416
 6082SOL     OW19845   5.339   0.862   3.103
 6082SOL    HW119846   5.355   0.777   3.053
 6082SOL    HW219847   5.333   0.938   3.039
 6083SOL     OW19848   4.954   0.351   2.294
 6083SOL    HW119849   5.008   0.267   2.292
 6083SOL    HW219850   4.968   0.396   2.382
 6084SOL     OW19851   4.320   0.721   2.515
 6084SOL    HW119852   4.367   0.808   2.500
 6084SOL    HW219853   4.252   0.707   2.443
 6085SOL     OW19854   5.492   0.363   3.560
 6085SOL    HW119855   5.539   0.357   3.471
 6085SOL    HW219856   5.406   0.311   3.555
 6086SOL     OW19857   5.452   0.924   3.344
 6086SOL    HW119858   5.440   1.022   3.358
 6086SOL    HW219859   5.416   0.899   3.253
 6087SOL     OW19860   4.538   1.366   1.923
 6087SOL    HW119861   4.524   1.368   2.022
 6087SOL    HW219862   4.591   1.447   1.895
 6088SOL     OW19863   4.396   1.727   2.782
 6088SOL    HW119864   4.374   1.822   2.760
 6088SOL    HW219865   4.493   1.711   2.767
 6089SOL     OW19866   4.599   1.000   2.714
 6089SOL    HW119867   4.655   0.925   2.751
 6089SOL    HW219868   4.544   1.040   2.787
 6090SOL     OW19869   4.834   1.052   1.956
 6090SOL    HW119870   4.771   1.080   1.883
 6090SOL    HW219871   4.891   0.976   1.923
 6091SOL     OW19872   5.534   1.576   2.723
 6091SOL    HW119873   5.465   1.565   2.652
 6091SOL    HW219874   5.517   1.510   2.797
 6092SOL     OW19875   3.916   1.255   2.515
 6092SOL    HW119876   3.943   1.212   2.601
 6092SOL    HW219877   3.950   1.201   2.438
 6093SOL     OW19878   4.338   1.395   3.486
 6093SOL    HW119879   4.244   1.371   3.460
 6093SOL    HW219880   4.339   1.489   3.522
 6094SOL     OW19881   5.531   0.154   3.117
 6094SOL    HW119882   5.435   0.128   3.107
 6094SOL    HW219883   5.576   0.154   3.028
 6095SOL     OW19884   4.115   0.405   2.352
 6095SOL    HW119885   4.144   0.329   2.293
 6095SOL    HW219886   4.079   0.368   2.438
 6096SOL     OW19887   5.431   1.434   2.937
 6096SOL    HW119888   5.352   1.407   2.880
 6096SOL    HW219889   5.449   1.364   3.005
 6097SOL     OW19890   4.068   0.591   3.115
 6097SOL    HW119891   4.126   0.522   3.158
 6097SOL    HW219892   4.054   0.567   3.019
 6098SOL     OW19893   4.547   1.531   2.491
 6098SOL    HW119894   4.502   1.580   2.417
 6098SOL    HW219895   4.485   1.462   2.528
 6099SOL     OW19896   5.182   0.293   2.979
 6099SOL    HW119897   5.222   0.203   3.000
 6099SOL    HW219898   5.117   0.317   3.051
 6100SOL     OW19899   4.687   0.083   2.940
 6100SOL    HW119900   4.682   0.040   2.850
 6100SOL    HW219901   4.726   0.018   3.005
 6101SOL     OW19902   4.501   1.324   2.194
 6101SOL    HW119903   4.484   1.226   2.204
 6101SOL    HW219904   4.589   1.347   2.235
 6102SOL     OW19905   4.359   1.565   3.141
 6102SOL    HW119906   4.336   1.658   3.170
 6102SOL    HW219907   4.444   1.567   3.088
 6103SOL     OW19908   4.971   6.971   2.061
 6103SOL    HW119909   5.030   6.904   2.017
 6103SOL    HW219910   4.886   6.927   2.088
 6104SOL     OW19911   4.971   0.484   2.529
 6104SOL    HW119912   4.923   0.571   2.526
 6104SOL    HW219913   4.998   0.463   2.623
 6105SOL     OW19914   5.374   0.258   2.748
 6105SOL    HW119915   5.310   0.263   2.825
 6105SOL    HW219916   5.374   0.345   2.700
 6106SOL     OW19917   3.760   1.013   2.167
 6106SOL    HW119918   3.856   0.993   2.145
 6106SOL    HW219919   3.713   0.928   2.190
 6107SOL     OW19920   4.622   1.689   2.186
 6107SOL    HW119921   4.546   1.671   2.124
 6107SOL    HW219922   4.600   1.766   2.246
 6108SOL     OW19923   3.907   0.334   4.791
 6108SOL    HW119924   3.950   0.278   4.862
 6108SOL    HW219925   3.858   0.275   4.727
 6109SOL     OW19926   3.740   0.409   4.485
 6109SOL    HW119927   3.646   0.444   4.479
 6109SOL    HW219928   3.741   0.326   4.539
 6110SOL     OW19929   4.298   1.327   4.953
 6110SOL    HW119930   4.214   1.321   4.899
 6110SOL    HW219931   4.317   1.423   4.975
 6111SOL     OW19932   5.328   1.500   4.429
 6111SOL    HW119933   5.277   1.458   4.504
 6111SOL    HW219934   5.264   1.529   4.357
 6112SOL     OW19935   4.852   0.693   4.347
 6112SOL    HW119936   4.856   0.788   4.378
 6112SOL    HW219937   4.760   0.658   4.358
 6113SOL     OW19938   5.538   0.544   3.926
 6113SOL    HW119939   5.489   0.570   3.843
 6113SOL    HW219940   5.478   0.487   3.983
 6114SOL     OW19941   4.446   1.147   4.792
 6114SOL    HW119942   4.387   1.185   4.863
 6114SOL    HW219943   4.482   1.221   4.736
 6115SOL     OW19944   4.603   0.743   5.585
 6115SOL    HW119945   4.598   0.804   5.665
 6115SOL    HW219946   4.621   0.797   5.503
 6116SOL     OW19947   4.400   0.911   4.439
 6116SOL    HW119948   4.480   0.936   4.494
 6116SOL    HW219949   4.340   0.991   4.430
 6117SOL     OW19950   4.396   1.160   5.565
 6117SOL    HW119951   4.448   1.237   5.605
 6117SOL    HW219952   4.319   1.196   5.513
 6118SOL     OW19953   4.070   1.395   4.796
 6118SOL    HW119954   4.006   1.333   4.750
 6118SOL    HW219955   4.121   1.446   4.728
 6119SOL     OW19956   5.161   1.507   5.111
 6119SOL    HW119957   5.217   1.589   5.124
 6119SOL    HW219958   5.079   1.512   5.168
 6120SOL     OW19959   4.214   0.374   5.174
 6120SOL    HW119960   4.294   0.331   5.213
 6120SOL    HW219961   4.131   0.330   5.209
 6121SOL     OW19962   5.366   0.506   4.476
 6121SOL    HW119963   5.344   0.530   4.381
 6121SOL    HW219964   5.313   0.563   4.538
 6122SOL     OW19965   3.958   1.722   4.195
 6122SOL    HW119966   3.978   1.796   4.259
 6122SOL    HW219967   4.032   1.715   4.127
 6123SOL     OW19968   4.842   1.332   5.429
 6123SOL    HW119969   4.931   1.296   5.457
 6123SOL    HW219970   4.773   1.260   5.437
 6124SOL     OW19971   3.971   1.457   4.266
 6124SOL    HW119972   3.945   1.553   4.259
 6124SOL    HW219973   3.921   1.415   4.343
 6125SOL     OW19974   4.095   1.077   4.675
 6125SOL    HW119975   4.087   0.978   4.684
 6125SOL    HW219976   4.008   1.121   4.696
 6126SOL     OW19977   4.293   1.828   5.146
 6126SOL    HW119978   4.212   1.807   5.201
 6126SOL    HW219979   4.344   1.903   5.189
 6127SOL     OW19980   5.341   0.045   5.233
 6127SOL    HW119981   5.435   0.033   5.264
 6127SOL    HW219982   5.293   0.106   5.297
 6128SOL     OW19983   3.820   0.648   4.356
 6128SOL    HW119984   3.795   0.561   4.398
 6128SOL    HW219985   3.835   0.716   4.427
 6129SOL     OW19986   5.594   1.756   4.023
 6129SOL    HW119987   5.671   1.743   4.084
 6129SOL    HW219988   5.596   1.849   3.985
 6130SOL     OW19989   3.805   1.527   3.864
 6130SOL    HW119990   3.780   1.431   3.879
 6130SOL    HW219991   3.767   1.583   3.938
 6131SOL     OW19992   5.428   0.934   4.396
 6131SOL    HW119993   5.519   0.892   4.399
 6131SOL    HW219994   5.421   0.992   4.316
 6132SOL     OW19995   5.418   1.109   4.180
 6132SOL    HW119996   5.497   1.074   4.129
 6132SOL    HW219997   5.446   1.189   4.233
 6133SOL     OW19998   3.818   0.777   5.238
 6133SOL    HW119999   3.878   0.825   5.173
 6133SOL    HW220000   3.730   0.824   5.243
 6134SOL     OW20001   4.350   1.386   4.433
 6134SOL    HW120002   4.322   1.291   4.440
 6134SOL    HW220003   4.307   1.428   4.353
 6135SOL     OW20004   4.964   1.221   5.148
 6135SOL    HW120005   4.981   1.154   5.076
 6135SOL    HW220006   5.039   1.219   5.214
 6136SOL     OW20007   3.946   0.924   5.041
 6136SOL    HW120008   4.041   0.894   5.036
 6136SOL    HW220009   3.906   0.924   4.950
 6137SOL     OW20010   5.306   1.032   3.936
 6137SOL    HW120011   5.224   0.977   3.950
 6137SOL    HW220012   5.341   1.062   4.025
 6138SOL     OW20013   4.910   1.791   5.367
 6138SOL    HW120014   4.913   1.864   5.298
 6138SOL    HW220015   4.915   1.702   5.322
 6139SOL     OW20016   4.080   0.285   5.508
 6139SOL    HW120017   4.148   0.342   5.556
 6139SOL    HW220018   3.988   0.318   5.530
 6140SOL     OW20019   5.199   1.386   4.643
 6140SOL    HW120020   5.137   1.424   4.711
 6140SOL    HW220021   5.172   1.292   4.621
 6141SOL     OW20022   5.383   1.869   4.254
 6141SOL    HW120023   5.369   1.797   4.186
 6141SOL    HW220024   5.398   1.829   4.344
 6142SOL     OW20025   5.024   0.427   4.663
 6142SOL    HW120026   4.933   0.386   4.670
 6142SOL    HW220027   5.086   0.380   4.726
 6143SOL     OW20028   5.331   1.686   4.051
 6143SOL    HW120029   5.429   1.699   4.040
 6143SOL    HW220030   5.289   1.668   3.963
 6144SOL     OW20031   4.519   0.562   5.212
 6144SOL    HW120032   4.488   0.527   5.300
 6144SOL    HW220033   4.491   0.500   5.139
 6145SOL     OW20034   5.114   0.498   5.399
 6145SOL    HW120035   5.120   0.543   5.487
 6145SOL    HW220036   5.165   0.412   5.402
 6146SOL     OW20037   4.665   0.882   5.349
 6146SOL    HW120038   4.719   0.811   5.303
 6146SOL    HW220039   4.612   0.933   5.282
 6147SOL     OW20040   4.738   0.411   4.936
 6147SOL    HW120041   4.642   0.417   4.963
 6147SOL    HW220042   4.744   0.383   4.841
 6148SOL     OW20043   4.865   0.754   4.078
 6148SOL    HW120044   4.858   0.735   4.176
 6148SOL    HW220045   4.783   0.803   4.048
 6149SOL     OW20046   3.860   0.835   4.544
 6149SOL    HW120047   3.943   0.825   4.599
 6149SOL    HW220048   3.798   0.901   4.587
 6150SOL     OW20049   3.832   1.907   5.327
 6150SOL    HW120050   3.832   1.864   5.418
 6150SOL    HW220051   3.740   1.900   5.288
 6151SOL     OW20052   4.611   0.263   3.947
 6151SOL    HW120053   4.641   0.335   3.883
 6151SOL    HW220054   4.531   0.216   3.909
 6152SOL     OW20055   5.388   0.584   5.560
 6152SOL    HW120056   5.370   0.665   5.505
 6152SOL    HW220057   5.415   0.509   5.500
 6153SOL     OW20058   5.131   1.172   4.302
 6153SOL    HW120059   5.218   1.159   4.255
 6153SOL    HW220060   5.079   1.244   4.256
 6154SOL     OW20061   4.280   0.189   4.651
 6154SOL    HW120062   4.283   0.205   4.750
 6154SOL    HW220063   4.290   0.276   4.603
 6155SOL     OW20064   4.732   1.485   4.113
 6155SOL    HW120065   4.719   1.574   4.069
 6155SOL    HW220066   4.679   1.481   4.197
 6156SOL     OW20067   4.085   1.789   4.612
 6156SOL    HW120068   4.127   1.698   4.612
 6156SOL    HW220069   4.153   1.858   4.638
 6157SOL     OW20070   5.512   1.047   4.637
 6157SOL    HW120071   5.466   1.024   4.551
 6157SOL    HW220072   5.444   1.061   4.709
 6158SOL     OW20073   4.911   1.531   5.241
 6158SOL    HW120074   4.897   1.463   5.313
 6158SOL    HW220075   4.849   1.512   5.165
 6159SOL     OW20076   5.193   0.793   4.412
 6159SOL    HW120077   5.185   0.744   4.498
 6159SOL    HW220078   5.276   0.848   4.412
 6160SOL     OW20079   4.184   1.310   5.463
 6160SOL    HW120080   4.161   1.312   5.366
 6160SOL    HW220081   4.100   1.307   5.517
 6161SOL     OW20082   4.890   1.772   3.933
 6161SOL    HW120083   4.794   1.766   3.960
 6161SOL    HW220084   4.918   1.687   3.888
 6162SOL     OW20085   3.964   0.274   5.251
 6162SOL    HW120086   3.912   0.357   5.232
 6162SOL    HW220087   3.995   0.274   5.345
 6163SOL     OW20088   5.384   1.406   3.828
 6163SOL    HW120089   5.329   1.490   3.826
 6163SOL    HW220090   5.328   1.329   3.798
 6164SOL     OW20091   4.217   1.711   4.031
 6164SOL    HW120092   4.252   1.785   4.089
 6164SOL    HW220093   4.288   1.682   3.967
 6165SOL     OW20094   5.100   0.117   4.108
 6165SOL    HW120095   5.045   0.065   4.043
 6165SOL    HW220096   5.197   0.103   4.088
 6166SOL     OW20097   3.926   1.790   4.951
 6166SOL    HW120098   3.983   1.714   4.982
 6166SOL    HW220099   3.897   1.774   4.857
 6167SOL     OW20100   4.659   1.698   4.529
 6167SOL    HW120101   4.750   1.665   4.552
 6167SOL    HW220102   4.621   1.642   4.455
 6168SOL     OW20103   4.095   0.591   4.315
 6168SOL    HW120104   4.083   0.510   4.372
 6168SOL    HW220105   4.007   0.637   4.304
 6169SOL     OW20106   5.214   0.224   5.430
 6169SOL    HW120107   5.233   0.220   5.528
 6169SOL    HW220108   5.121   0.192   5.413
 6170SOL     OW20109   4.402   0.103   3.822
 6170SOL    HW120110   4.404   0.019   3.876
 6170SOL    HW220111   4.326   0.099   3.757
 6171SOL     OW20112   4.516   0.251   5.563
 6171SOL    HW120113   4.602   0.207   5.537
 6171SOL    HW220114   4.456   0.184   5.606
 6172SOL     OW20115   4.589   1.547   4.892
 6172SOL    HW120116   4.562   1.497   4.810
 6172SOL    HW220117   4.643   1.487   4.951
 6173SOL     OW20118   5.031   0.605   5.161
 6173SOL    HW120119   5.073   0.578   5.248
 6173SOL    HW220120   5.059   0.698   5.138
 6174SOL     OW20121   4.530   1.378   4.661
 6174SOL    HW120122   4.626   1.381   4.632
 6174SOL    HW220123   4.470   1.388   4.582
 6175SOL     OW20124   4.670   0.559   4.622
 6175SOL    HW120125   4.647   0.562   4.525
 6175SOL    HW220126   4.705   0.468   4.646
 6176SOL     OW20127   5.197   1.212   3.763
 6176SOL    HW120128   5.241   1.140   3.817
 6176SOL    HW220129   5.114   1.243   3.809
 6177SOL     OW20130   4.695   0.338   4.200
 6177SOL    HW120131   4.650   0.312   4.115
 6177SOL    HW220132   4.794   0.347   4.183
 6178SOL     OW20133   4.765   0.690   5.180
 6178SOL    HW120134   4.693   0.622   5.198
 6178SOL    HW220135   4.853   0.644   5.173
 6179SOL     OW20136   4.923   1.625   4.550
 6179SOL    HW120137   4.962   1.677   4.474
 6179SOL    HW220138   4.955   1.664   4.636
 6180SOL     OW20139   4.232   1.137   4.448
 6180SOL    HW120140   4.196   1.120   4.539
 6180SOL    HW220141   4.158   1.127   4.381
 6181SOL     OW20142   4.996   1.809   4.351
 6181SOL    HW120143   5.043   1.866   4.284
 6181SOL    HW220144   4.920   1.860   4.392
 6182SOL     OW20145   4.726   0.472   3.787
 6182SOL    HW120146   4.685   0.559   3.758
 6182SOL    HW220147   4.800   0.490   3.851
 6183SOL     OW20148   3.856   0.523   5.143
 6183SOL    HW120149   3.943   0.531   5.095
 6183SOL    HW220150   3.834   0.609   5.189
 6184SOL     OW20151   4.285   0.210   4.925
 6184SOL    HW120152   4.319   0.119   4.952
 6184SOL    HW220153   4.191   0.221   4.955
 6185SOL     OW20154   4.613   0.558   4.356
 6185SOL    HW120155   4.517   0.586   4.349
 6185SOL    HW220156   4.629   0.481   4.295
 6186SOL     OW20157   4.746   0.197   4.432
 6186SOL    HW120158   4.724   0.253   4.352
 6186SOL    HW220159   4.733   0.100   4.409
 6187SOL     OW20160   5.140   1.123   4.590
 6187SOL    HW120161   5.087   1.043   4.617
 6187SOL    HW220162   5.136   1.135   4.491
 6188SOL     OW20163   5.181   0.656   4.650
 6188SOL    HW120164   5.116   0.580   4.657
 6188SOL    HW220165   5.248   0.650   4.724
 6189SOL     OW20166   5.534   0.750   4.113
 6189SOL    HW120167   5.605   0.731   4.180
 6189SOL    HW220168   5.540   0.683   4.039
 6190SOL     OW20169   5.511   1.309   4.327
 6190SOL    HW120170   5.605   1.313   4.359
 6190SOL    HW220171   5.459   1.384   4.369
 6191SOL     OW20172   5.117   0.591   3.764
 6191SOL    HW120173   5.064   0.559   3.842
 6191SOL    HW220174   5.214   0.584   3.784
 6192SOL     OW20175   5.458   1.222   5.249
 6192SOL    HW120176   5.549   1.185   5.229
 6192SOL    HW220177   5.468   1.312   5.291
 6193SOL     OW20178   4.735   1.365   5.070
 6193SOL    HW120179   4.649   1.332   5.108
 6193SOL    HW220180   4.811   1.312   5.109
 6194SOL     OW20181   5.331   1.641   5.404
 6194SOL    HW120182   5.313   1.685   5.316
 6194SOL    HW220183   5.405   1.575   5.393
 6195SOL     OW20184   4.862   1.277   4.840
 6195SOL    HW120185   4.798   1.307   4.911
 6195SOL    HW220186   4.829   1.307   4.751
 6196SOL     OW20187   5.309   1.092   4.816
 6196SOL    HW120188   5.300   1.162   4.887
 6196SOL    HW220189   5.241   1.108   4.744
 6197SOL     OW20190   4.629   0.185   5.127
 6197SOL    HW120191   4.636   0.183   5.027
 6197SOL    HW220192   4.719   0.200   5.167
 6198SOL     OW20193   4.669   1.120   5.481
 6198SOL    HW120194   4.573   1.139   5.503
 6198SOL    HW220195   4.675   1.034   5.430
 6199SOL     OW20196   4.191   0.810   5.024
 6199SOL    HW120197   4.255   0.811   5.101
 6199SOL    HW220198   4.153   0.718   5.014
 6200SOL     OW20199   4.991   0.374   5.026
 6200SOL    HW120200   5.015   0.458   5.074
 6200SOL    HW220201   4.898   0.383   4.989
 6201SOL     OW20202   3.776   1.530   5.055
 6201SOL    HW120203   3.727   1.601   5.004
 6201SOL    HW220204   3.874   1.550   5.054
 6202SOL     OW20205   4.003   1.097   4.297
 6202SOL    HW120206   3.989   1.147   4.212
 6202SOL    HW220207   3.983   1.000   4.282
 6203SOL     OW20208   4.321   0.465   4.587
 6203SOL    HW120209   4.332   0.518   4.503
 6203SOL    HW220210   4.369   0.512   4.662
 6204SOL     OW20211   4.990   1.379   4.165
 6204SOL    HW120212   5.048   1.455   4.195
 6204SOL    HW220213   4.896   1.411   4.157
 6205SOL     OW20214   5.054   1.470   4.862
 6205SOL    HW120215   5.095   1.478   4.952
 6205SOL    HW220216   4.988   1.395   4.861
 6206SOL     OW20217   5.314   0.620   4.226
 6206SOL    HW120218   5.244   0.676   4.272
 6206SOL    HW220219   5.383   0.679   4.186
 6207SOL     OW20220   4.056   1.549   5.017
 6207SOL    HW120221   4.052   1.490   4.936
 6207SOL    HW220222   4.152   1.575   5.034
 6208SOL     OW20223   4.217   0.686   5.423
 6208SOL    HW120224   4.261   0.734   5.347
 6208SOL    HW220225   4.280   0.618   5.460
 6209SOL     OW20226   5.330   0.811   5.422
 6209SOL    HW120227   5.236   0.845   5.413
 6209SOL    HW220228   5.383   0.839   5.343
 6210SOL     OW20229   4.746   0.118   5.470
 6210SOL    HW120230   4.789   0.158   5.389
 6210SOL    HW220231   4.736   0.019   5.457
 6211SOL     OW20232   4.125   0.023   5.425
 6211SOL    HW120233   4.049   6.974   5.467
 6211SOL    HW220234   4.121   0.120   5.449
 6212SOL     OW20235   4.338   0.875   4.799
 6212SOL    HW120236   4.369   0.970   4.789
 6212SOL    HW220237   4.288   0.865   4.885
 6213SOL     OW20238   5.024   0.889   4.700
 6213SOL    HW120239   4.928   0.862   4.699
 6213SOL    HW220240   5.083   0.810   4.683
 6214SOL     OW20241   4.937   0.523   3.958
 6214SOL    HW120242   4.950   0.454   4.029
 6214SOL    HW220243   4.913   0.610   4.000
 6215SOL     OW20244   4.010   0.177   4.993
 6215SOL    HW120245   3.997   0.208   5.087
 6215SOL    HW220246   3.973   0.085   4.982
 6216SOL     OW20247   3.799   1.268   4.975
 6216SOL    HW120248   3.822   1.216   5.058
 6216SOL    HW220249   3.782   1.363   5.000
 6217SOL     OW20250   4.452   0.623   4.780
 6217SOL    HW120251   4.534   0.615   4.722
 6217SOL    HW220252   4.415   0.715   4.773
 6218SOL     OW20253   5.483   0.975   5.586
 6218SOL    HW120254   5.430   0.910   5.533
 6218SOL    HW220255   5.432   1.001   5.668
 6219SOL     OW20256   5.354   0.397   4.068
 6219SOL    HW120257   5.413   0.338   4.123
 6219SOL    HW220258   5.318   0.471   4.125
 6220SOL     OW20259   4.764   0.800   4.720
 6220SOL    HW120260   4.729   0.806   4.813
 6220SOL    HW220261   4.741   0.711   4.681
 6221SOL     OW20262   4.712   1.552   5.523
 6221SOL    HW120263   4.681   1.616   5.453
 6221SOL    HW220264   4.749   1.470   5.480
 6222SOL     OW20265   5.543   1.477   5.321
 6222SOL    HW120266   5.563   1.506   5.228
 6222SOL    HW220267   5.623   1.492   5.379
 6223SOL     OW20268   4.104   0.910   5.547
 6223SOL    HW120269   4.169   0.943   5.615
 6223SOL    HW220270   4.143   0.830   5.501
 6224SOL     OW20271   5.268   0.240   3.855
 6224SOL    HW120272   5.169   0.242   3.842
 6224SOL    HW220273   5.294   0.301   3.929
 6225SOL     OW20274   4.986   0.825   3.722
 6225SOL    HW120275   5.029   0.736   3.731
 6225SOL    HW220276   5.014   0.867   3.635
 6226SOL     OW20277   4.794   1.379   4.596
 6226SOL    HW120278   4.806   1.300   4.537
 6226SOL    HW220279   4.850   1.455   4.563
 6227SOL     OW20280   4.089   0.800   4.699
 6227SOL    HW120281   4.184   0.824   4.716
 6227SOL    HW220282   4.076   0.701   4.710
 6228SOL     OW20283   4.094   0.525   4.735
 6228SOL    HW120284   4.020   0.457   4.739
 6228SOL    HW220285   4.162   0.497   4.669
 6229SOL     OW20286   4.844   0.448   5.405
 6229SOL    HW120287   4.805   0.473   5.494
 6229SOL    HW220288   4.939   0.478   5.400
 6230SOL     OW20289   4.871   0.237   5.246
 6230SOL    HW120290   4.855   0.319   5.301
 6230SOL    HW220291   4.927   0.260   5.167
 6231SOL     OW20292   3.719   1.274   3.926
 6231SOL    HW120293   3.631   1.308   3.894
 6231SOL    HW220294   3.712   1.178   3.951
 6232SOL     OW20295   3.826   1.749   4.695
 6232SOL    HW120296   3.780   1.677   4.643
 6232SOL    HW220297   3.916   1.766   4.657
 6233SOL     OW20298   4.223   1.546   4.624
 6233SOL    HW120299   4.296   1.608   4.652
 6233SOL    HW220300   4.257   1.484   4.553
 6234SOL     OW20301   4.637   0.800   4.963
 6234SOL    HW120302   4.691   0.767   5.040
 6234SOL    HW220303   4.561   0.737   4.946
 6235SOL     OW20304   3.732   0.526   4.889
 6235SOL    HW120305   3.792   0.466   4.837
 6235SOL    HW220306   3.769   0.540   4.980
 6236SOL     OW20307   3.943   0.646   5.453
 6236SOL    HW120308   4.041   0.653   5.439
 6236SOL    HW220309   3.895   0.702   5.385
 6237SOL     OW20310   5.090   0.935   5.360
 6237SOL    HW120311   5.116   1.031   5.358
 6237SOL    HW220312   5.078   0.901   5.267
 6238SOL     OW20313   5.373   0.618   4.841
 6238SOL    HW120314   5.351   0.529   4.881
 6238SOL    HW220315   5.472   0.629   4.836
 6239SOL     OW20316   3.934   1.550   5.420
 6239SOL    HW120317   3.912   1.624   5.483
 6239SOL    HW220318   3.943   1.464   5.472
 6240SOL     OW20319   4.462   0.426   4.974
 6240SOL    HW120320   4.396   0.352   4.963
 6240SOL    HW220321   4.446   0.495   4.903
 6241SOL     OW20322   4.596   1.699   5.294
 6241SOL    HW120323   4.553   1.628   5.237
 6241SOL    HW220324   4.627   1.774   5.236
 6242SOL     OW20325   3.867   1.127   5.207
 6242SOL    HW120326   3.874   1.099   5.303
 6242SOL    HW220327   3.900   1.052   5.149
 6243SOL     OW20328   4.989   1.050   4.922
 6243SOL    HW120329   5.009   0.990   4.845
 6243SOL    HW220330   4.940   1.131   4.889
 6244SOL     OW20331   5.074   0.901   3.968
 6244SOL    HW120332   5.011   0.855   4.031
 6244SOL    HW220333   5.046   0.883   3.874
 6245SOL     OW20334   5.472   1.693   4.887
 6245SOL    HW120335   5.544   1.725   4.826
 6245SOL    HW220336   5.443   1.601   4.859
 6246SOL     OW20337   4.997   1.728   4.796
 6246SOL    HW120338   5.082   1.781   4.802
 6246SOL    HW220339   5.014   1.634   4.825
 6247SOL     OW20340   3.855   1.202   4.719
 6247SOL    HW120341   3.832   1.231   4.812
 6247SOL    HW220342   3.785   1.139   4.686
 6248SOL     OW20343   4.412   1.721   5.494
 6248SOL    HW120344   4.345   1.794   5.480
 6248SOL    HW220345   4.485   1.730   5.426
 6249SOL     OW20346   5.529   0.242   4.209
 6249SOL    HW120347   5.580   0.193   4.139
 6249SOL    HW220348   5.489   0.176   4.273
 6250SOL     OW20349   5.147   1.595   4.242
 6250SOL    HW120350   5.206   1.629   4.168
 6250SOL    HW220351   5.089   1.669   4.275
 6251SOL     OW20352   3.858   1.774   5.567
 6251SOL    HW120353   3.811   1.703   5.619
 6251SOL    HW220354   3.913   1.830   5.629
 6252SOL     OW20355   4.975   0.954   4.365
 6252SOL    HW120356   5.043   0.882   4.379
 6252SOL    HW220357   5.019   1.035   4.326
 6253SOL     OW20358   4.484   1.286   5.156
 6253SOL    HW120359   4.460   1.343   5.235
 6253SOL    HW220360   4.412   1.291   5.087
 6254SOL     OW20361   4.413   1.624   3.857
 6254SOL    HW120362   4.391   1.640   3.760
 6254SOL    HW220363   4.466   1.540   3.865
 6255SOL     OW20364   5.322   1.736   5.132
 6255SOL    HW120365   5.378   1.723   5.050
 6255SOL    HW220366   5.311   1.834   5.150
 6256SOL     OW20367   5.591   0.138   4.721
 6256SOL    HW120368   5.609   0.047   4.684
 6256SOL    HW220369   5.509   0.176   4.676
 6257SOL     OW20370   4.014   0.376   4.459
 6257SOL    HW120371   3.916   0.393   4.474
 6257SOL    HW220372   4.027   0.279   4.436
 6258SOL     OW20373   4.971   1.544   3.798
 6258SOL    HW120374   4.974   1.451   3.834
 6258SOL    HW220375   4.897   1.551   3.731
 6259SOL     OW20376   4.530   1.009   5.151
 6259SOL    HW120377   4.568   0.982   5.062
 6259SOL    HW220378   4.515   1.108   5.152
 6260SOL     OW20379   5.228   1.645   3.791
 6260SOL    HW120380   5.135   1.610   3.787
 6260SOL    HW220381   5.264   1.656   3.699
 6261SOL     OW20382   4.079   1.321   5.214
 6261SOL    HW120383   4.066   1.398   5.152
 6261SOL    HW220384   4.003   1.257   5.203
 6262SOL     OW20385   5.308   1.286   5.020
 6262SOL    HW120386   5.369   1.256   5.094
 6262SOL    HW220387   5.249   1.359   5.054
 6263SOL     OW20388   4.797   1.137   4.472
 6263SOL    HW120389   4.719   1.091   4.514
 6263SOL    HW220390   4.858   1.070   4.432
 6264SOL     OW20391   4.768   0.300   4.681
 6264SOL    HW120392   4.764   0.267   4.587
 6264SOL    HW220393   4.738   0.227   4.743
 6265SOL     OW20394   4.234   1.508   4.224
 6265SOL    HW120395   4.140   1.478   4.239
 6265SOL    HW220396   4.236   1.572   4.147
 6266SOL     OW20397   5.617   0.320   5.189
 6266SOL    HW120398   5.644   0.409   5.155
 6266SOL    HW220399   5.587   0.262   5.113
 6267SOL     OW20400   3.949   1.255   4.085
 6267SOL    HW120401   3.869   1.266   4.025
 6267SOL    HW220402   3.959   1.337   4.141
 6268SOL     OW20403   3.875   1.046   5.468
 6268SOL    HW120404   3.792   1.018   5.516
 6268SOL    HW220405   3.952   0.991   5.499
 6269SOL     OW20406   4.427   0.245   5.292
 6269SOL    HW120407   4.501   0.229   5.227
 6269SOL    HW220408   4.465   0.273   5.380
 6270SOL     OW20409   5.100   0.864   5.096
 6270SOL    HW120410   5.043   0.926   5.041
 6270SOL    HW220411   5.192   0.860   5.057
 6271SOL     OW20412   4.975   1.288   3.906
 6271SOL    HW120413   4.910   1.213   3.900
 6271SOL    HW220414   4.987   1.314   4.001
 6272SOL     OW20415   4.373   0.795   5.222
 6272SOL    HW120416   4.425   0.879   5.206
 6272SOL    HW220417   4.434   0.716   5.218
 6273SOL     OW20418   5.247   1.849   4.807
 6273SOL    HW120419   5.276   1.909   4.733
 6273SOL    HW220420   5.325   1.794   4.838
 6274SOL     OW20421   4.448   0.525   5.486
 6274SOL    HW120422   4.502   0.599   5.526
 6274SOL    HW220423   4.476   0.438   5.527
 6275SOL     OW20424   5.183   1.193   5.344
 6275SOL    HW120425   5.186   1.211   5.442
 6275SOL    HW220426   5.275   1.204   5.305
 6276SOL     OW20427   4.074   1.772   5.306
 6276SOL    HW120428   3.991   1.827   5.296
 6276SOL    HW220429   4.049   1.679   5.332
 6277SOL     OW20430   5.344   0.866   4.971
 6277SOL    HW120431   5.357   0.781   4.919
 6277SOL    HW220432   5.336   0.943   4.908
 6278SOL     OW20433   4.967   0.349   4.164
 6278SOL    HW120434   5.020   0.265   4.148
 6278SOL    HW220435   5.000   0.394   4.246
 6279SOL     OW20436   4.354   0.647   4.378
 6279SOL    HW120437   4.369   0.744   4.396
 6279SOL    HW220438   4.262   0.634   4.342
 6280SOL     OW20439   5.457   0.360   5.410
 6280SOL    HW120440   5.511   0.347   5.327
 6280SOL    HW220441   5.374   0.304   5.404
 6281SOL     OW20442   5.462   0.920   5.212
 6281SOL    HW120443   5.452   1.018   5.227
 6281SOL    HW220444   5.427   0.896   5.122
 6282SOL     OW20445   4.601   1.423   3.860
 6282SOL    HW120446   4.650   1.422   3.947
 6282SOL    HW220447   4.659   1.462   3.789
 6283SOL     OW20448   4.416   1.732   4.659
 6283SOL    HW120449   4.383   1.826   4.656
 6283SOL    HW220450   4.507   1.727   4.620
 6284SOL     OW20451   4.603   0.996   4.610
 6284SOL    HW120452   4.663   0.927   4.651
 6284SOL    HW220453   4.551   1.041   4.683
 6285SOL     OW20454   4.753   0.917   3.834
 6285SOL    HW120455   4.733   0.996   3.775
 6285SOL    HW220456   4.837   0.873   3.804
 6286SOL     OW20457   5.538   1.560   4.593
 6286SOL    HW120458   5.470   1.549   4.521
 6286SOL    HW220459   5.516   1.499   4.670
 6287SOL     OW20460   3.923   1.303   5.554
 6287SOL    HW120461   3.909   1.213   5.512
 6287SOL    HW220462   3.860   1.313   5.631
 6288SOL     OW20463   3.858   1.282   4.449
 6288SOL    HW120464   3.859   1.264   4.547
 6288SOL    HW220465   3.910   1.211   4.402
 6289SOL     OW20466   4.401   1.457   5.361
 6289SOL    HW120467   4.325   1.405   5.400
 6289SOL    HW220468   4.414   1.542   5.413
 6290SOL     OW20469   5.533   0.147   4.991
 6290SOL    HW120470   5.436   0.122   4.989
 6290SOL    HW220471   5.568   0.150   4.898
 6291SOL     OW20472   5.410   1.440   4.808
 6291SOL    HW120473   5.335   1.420   4.744
 6291SOL    HW220474   5.405   1.377   4.885
 6292SOL     OW20475   4.093   0.555   5.010
 6292SOL    HW120476   4.151   0.491   5.060
 6292SOL    HW220477   4.101   0.538   4.912
 6293SOL     OW20478   4.556   1.555   4.321
 6293SOL    HW120479   4.518   1.640   4.284
 6293SOL    HW220480   4.481   1.496   4.350
 6294SOL     OW20481   5.193   0.312   4.847
 6294SOL    HW120482   5.225   0.218   4.861
 6294SOL    HW220483   5.126   0.335   4.917
 6295SOL     OW20484   4.662   0.106   4.850
 6295SOL    HW120485   4.574   0.077   4.813
 6295SOL    HW220486   4.702   0.032   4.904
 6296SOL     OW20487   4.338   1.596   5.009
 6296SOL    HW120488   4.329   1.683   5.058
 6296SOL    HW220489   4.424   1.595   4.959
 6297SOL     OW20490   4.957   6.973   3.917
 6297SOL    HW120491   5.013   6.904   3.872
 6297SOL    HW220492   4.870   6.933   3.945
 6298SOL     OW20493   5.029   0.484   4.390
 6298SOL    HW120494   4.972   0.565   4.375
 6298SOL    HW220495   5.029   0.461   4.487
 6299SOL     OW20496   5.371   0.269   4.615
 6299SOL    HW120497   5.310   0.279   4.693
 6299SOL    HW220498   5.372   0.354   4.562
 6300SOL     OW20499   3.694   1.009   4.003
 6300SOL    HW120500   3.669   0.984   3.909
 6300SOL    HW220501   3.718   0.926   4.054
 6301SOL     OW20502   4.630   1.721   4.004
 6301SOL    HW120503   4.556   1.700   3.939
 6301SOL    HW220504   4.590   1.758   4.088
 6302SOL     OW20505   3.932   0.668   5.732
 6302SOL    HW120506   3.843   0.632   5.760
 6302SOL    HW220507   3.935   0.676   5.633
 6303SOL     OW20508   3.882   0.374   6.600
 6303SOL    HW120509   3.930   0.344   6.683
 6303SOL    HW220510   3.813   0.306   6.575
 6304SOL     OW20511   3.719   0.436   6.223
 6304SOL    HW120512   3.637   0.459   6.277
 6304SOL    HW220513   3.697   0.363   6.159
 6305SOL     OW20514   4.284   1.265   6.809
 6305SOL    HW120515   4.200   1.285   6.760
 6305SOL    HW220516   4.324   1.350   6.843
 6306SOL     OW20517   5.312   1.503   6.283
 6306SOL    HW120518   5.253   1.465   6.355
 6306SOL    HW220519   5.256   1.531   6.205
 6307SOL     OW20520   4.842   0.716   6.247
 6307SOL    HW120521   4.885   0.807   6.243
 6307SOL    HW220522   4.780   0.712   6.326
 6308SOL     OW20523   5.513   0.577   5.798
 6308SOL    HW120524   5.477   0.591   5.706
 6308SOL    HW220525   5.464   0.502   5.842
 6309SOL     OW20526   4.431   1.138   6.612
 6309SOL    HW120527   4.377   1.168   6.690
 6309SOL    HW220528   4.464   1.218   6.561
 6310SOL     OW20529   4.422   0.953   6.229
 6310SOL    HW120530   4.489   0.960   6.303
 6310SOL    HW220531   4.348   1.018   6.244
 6311SOL     OW20532   4.062   1.363   6.653
 6311SOL    HW120533   3.969   1.343   6.621
 6311SOL    HW220534   4.109   1.419   6.585
 6312SOL     OW20535   5.328   0.492   6.321
 6312SOL    HW120536   5.304   0.526   6.230
 6312SOL    HW220537   5.285   0.550   6.390
 6313SOL     OW20538   3.965   1.748   6.058
 6313SOL    HW120539   3.988   1.814   6.129
 6313SOL    HW220540   4.037   1.748   5.988
 6314SOL     OW20541   4.001   1.475   6.098
 6314SOL    HW120542   3.977   1.572   6.104
 6314SOL    HW220543   3.962   1.426   6.176
 6315SOL     OW20544   4.027   1.095   6.463
 6315SOL    HW120545   4.047   0.998   6.477
 6315SOL    HW220546   4.000   1.136   6.550
 6316SOL     OW20547   4.334   1.829   6.972
 6316SOL    HW120548   4.246   1.811   0.016
 6316SOL    HW220549   4.375   1.911   0.011
 6317SOL     OW20550   4.282   0.991   5.755
 6317SOL    HW120551   4.324   1.043   5.681
 6317SOL    HW220552   4.329   1.012   5.841
 6318SOL     OW20553   3.827   0.688   6.175
 6318SOL    HW120554   3.798   0.593   6.188
 6318SOL    HW220555   3.829   0.734   6.264
 6319SOL     OW20556   5.592   1.755   5.910
 6319SOL    HW120557   5.669   1.742   5.972
 6319SOL    HW220558   5.592   1.849   5.875
 6320SOL     OW20559   3.764   1.573   5.720
 6320SOL    HW120560   3.745   1.478   5.742
 6320SOL    HW220561   3.750   1.630   5.801
 6321SOL     OW20562   5.433   0.929   6.232
 6321SOL    HW120563   5.486   0.861   6.180
 6321SOL    HW220564   5.411   1.006   6.172
 6322SOL     OW20565   5.405   1.128   6.037
 6322SOL    HW120566   5.483   1.091   5.988
 6322SOL    HW220567   5.435   1.200   6.100
 6323SOL     OW20568   4.317   1.373   6.300
 6323SOL    HW120569   4.281   1.281   6.286
 6323SOL    HW220570   4.325   1.419   6.211
 6324SOL     OW20571   4.570   0.037   6.081
 6324SOL    HW120572   4.617   0.125   6.070
 6324SOL    HW220573   4.473   0.053   6.097
 6325SOL     OW20574   3.842   1.015   6.860
 6325SOL    HW120575   3.932   0.976   6.840
 6325SOL    HW220576   3.771   0.951   6.831
 6326SOL     OW20577   5.298   1.044   5.793
 6326SOL    HW120578   5.223   0.981   5.813
 6326SOL    HW220579   5.333   1.082   5.879
 6327SOL     OW20580   5.144   1.409   6.483
 6327SOL    HW120581   5.102   1.427   6.572
 6327SOL    HW220582   5.138   1.311   6.463
 6328SOL     OW20583   5.362   1.872   6.127
 6328SOL    HW120584   5.356   1.800   6.058
 6328SOL    HW220585   5.383   1.832   6.216
 6329SOL     OW20586   4.291   0.713   5.873
 6329SOL    HW120587   4.293   0.802   5.826
 6329SOL    HW220588   4.218   0.714   5.942
 6330SOL     OW20589   5.008   0.399   6.501
 6330SOL    HW120590   4.922   0.350   6.500
 6330SOL    HW220591   5.074   0.351   6.558
 6331SOL     OW20592   5.326   1.690   5.916
 6331SOL    HW120593   5.425   1.703   5.910
 6331SOL    HW220594   5.288   1.677   5.825
 6332SOL     OW20595   4.483   0.667   0.037
 6332SOL    HW120596   4.432   0.686   0.121
 6332SOL    HW220597   4.429   0.607   6.978
 6333SOL     OW20598   4.722   0.378   6.780
 6333SOL    HW120599   4.702   0.418   6.869
 6333SOL    HW220600   4.691   0.283   6.778
 6334SOL     OW20601   4.758   0.701   5.988
 6334SOL    HW120602   4.789   0.706   6.083
 6334SOL    HW220603   4.668   0.657   5.985
 6335SOL     OW20604   3.819   0.814   6.418
 6335SOL    HW120605   3.916   0.825   6.439
 6335SOL    HW220606   3.770   0.898   6.443
 6336SOL     OW20607   3.834   1.799   0.066
 6336SOL    HW120608   3.791   1.713   0.093
 6336SOL    HW220609   3.859   1.795   6.969
 6337SOL     OW20610   4.595   0.381   5.801
 6337SOL    HW120611   4.664   0.436   5.754
 6337SOL    HW220612   4.549   0.323   5.734
 6338SOL     OW20613   5.133   1.172   6.153
 6338SOL    HW120614   5.222   1.164   6.107
 6338SOL    HW220615   5.078   1.242   6.109
 6339SOL     OW20616   4.174   0.218   6.497
 6339SOL    HW120617   4.209   0.311   6.480
 6339SOL    HW220618   4.170   0.168   6.411
 6340SOL     OW20619   4.725   1.475   6.050
 6340SOL    HW120620   4.707   1.545   5.981
 6340SOL    HW220621   4.685   1.503   6.137
 6341SOL     OW20622   4.087   1.784   6.479
 6341SOL    HW120623   4.123   1.690   6.480
 6341SOL    HW220624   4.158   1.847   6.511
 6342SOL     OW20625   5.541   1.024   6.471
 6342SOL    HW120626   5.503   1.000   6.382
 6342SOL    HW220627   5.465   1.042   6.535
 6343SOL     OW20628   4.009   0.922   5.848
 6343SOL    HW120629   4.095   0.952   5.805
 6343SOL    HW220630   3.984   0.832   5.813
 6344SOL     OW20631   5.195   0.793   6.278
 6344SOL    HW120632   5.180   0.747   6.366
 6344SOL    HW220633   5.282   0.843   6.281
 6345SOL     OW20634   4.884   1.756   5.822
 6345SOL    HW120635   4.789   1.743   5.851
 6345SOL    HW220636   4.912   1.679   5.765
 6346SOL     OW20637   5.377   1.412   5.693
 6346SOL    HW120638   5.325   1.498   5.690
 6346SOL    HW220639   5.321   1.338   5.658
 6347SOL     OW20640   4.187   1.780   5.893
 6347SOL    HW120641   4.233   1.830   5.966
 6347SOL    HW220642   4.255   1.728   5.840
 6348SOL     OW20643   5.159   0.120   5.985
 6348SOL    HW120644   5.096   0.056   5.942
 6348SOL    HW220645   5.222   0.156   5.916
 6349SOL     OW20646   3.946   1.787   6.815
 6349SOL    HW120647   4.008   1.711   6.832
 6349SOL    HW220648   3.905   1.777   6.724
 6350SOL     OW20649   4.680   1.684   6.444
 6350SOL    HW120650   4.767   1.636   6.440
 6350SOL    HW220651   4.621   1.653   6.369
 6351SOL     OW20652   4.095   0.680   6.069
 6351SOL    HW120653   4.103   0.581   6.073
 6351SOL    HW220654   4.001   0.707   6.089
 6352SOL     OW20655   4.353   0.082   5.716
 6352SOL    HW120656   4.401   0.015   5.774
 6352SOL    HW220657   4.267   0.043   5.684
 6353SOL     OW20658   4.594   1.477   6.736
 6353SOL    HW120659   4.549   1.456   6.649
 6353SOL    HW220660   4.674   1.419   6.747
 6354SOL     OW20661   4.512   1.370   6.493
 6354SOL    HW120662   4.605   1.370   6.457
 6354SOL    HW220663   4.447   1.380   6.418
 6355SOL     OW20664   4.671   0.559   6.496
 6355SOL    HW120665   4.649   0.529   6.403
 6355SOL    HW220666   4.706   0.481   6.548
 6356SOL     OW20667   4.296   0.084   6.086
 6356SOL    HW120668   4.225   0.076   6.157
 6356SOL    HW220669   4.268   0.152   6.019
 6357SOL     OW20670   5.189   1.222   5.617
 6357SOL    HW120671   5.232   1.149   5.670
 6357SOL    HW220672   5.107   1.253   5.666
 6358SOL     OW20673   4.028   0.072   5.791
 6358SOL    HW120674   4.089   0.142   5.828
 6358SOL    HW220675   3.936   0.083   5.830
 6359SOL     OW20676   4.698   0.280   6.038
 6359SOL    HW120677   4.659   0.315   5.953
 6359SOL    HW220678   4.798   0.291   6.035
 6360SOL     OW20679   4.931   1.573   6.366
 6360SOL    HW120680   4.953   1.650   6.306
 6360SOL    HW220681   5.016   1.535   6.403
 6361SOL     OW20682   4.210   1.124   6.260
 6361SOL    HW120683   4.150   1.115   6.339
 6361SOL    HW220684   4.156   1.120   6.176
 6362SOL     OW20685   4.975   1.797   6.203
 6362SOL    HW120686   5.024   1.860   6.142
 6362SOL    HW220687   4.899   1.845   6.247
 6363SOL     OW20688   4.765   0.533   5.653
 6363SOL    HW120689   4.717   0.618   5.632
 6363SOL    HW220690   4.840   0.551   5.716
 6364SOL     OW20691   4.266   0.242   6.829
 6364SOL    HW120692   4.281   0.197   6.741
 6364SOL    HW220693   4.169   0.262   6.840
 6365SOL     OW20694   4.611   0.483   6.232
 6365SOL    HW120695   4.559   0.532   6.162
 6365SOL    HW220696   4.648   0.399   6.193
 6366SOL     OW20697   4.767   0.008   6.317
 6366SOL    HW120698   4.699   0.008   6.243
 6366SOL    HW220699   4.781   6.914   6.348
 6367SOL     OW20700   5.128   1.132   6.440
 6367SOL    HW120701   5.068   1.057   6.469
 6367SOL    HW220702   5.129   1.138   6.340
 6368SOL     OW20703   5.147   0.656   6.511
 6368SOL    HW120704   5.092   0.574   6.521
 6368SOL    HW220705   5.217   0.658   6.582
 6369SOL     OW20706   5.520   0.764   5.994
 6369SOL    HW120707   5.595   0.738   6.054
 6369SOL    HW220708   5.519   0.705   5.914
 6370SOL     OW20709   4.227   1.433   5.751
 6370SOL    HW120710   4.145   1.393   5.792
 6370SOL    HW220711   4.244   1.390   5.662
 6371SOL     OW20712   5.501   1.299   6.213
 6371SOL    HW120713   5.597   1.302   6.241
 6371SOL    HW220714   5.454   1.380   6.248
 6372SOL     OW20715   5.116   0.609   5.648
 6372SOL    HW120716   5.072   0.583   5.734
 6372SOL    HW220717   5.216   0.601   5.658
 6373SOL     OW20718   4.214   0.261   5.879
 6373SOL    HW120719   4.280   0.212   5.822
 6373SOL    HW220720   4.192   0.349   5.837
 6374SOL     OW20721   5.468   1.100   0.206
 6374SOL    HW120722   5.567   1.106   0.191
 6374SOL    HW220723   5.426   1.189   0.191
 6375SOL     OW20724   4.812   1.304   6.696
 6375SOL    HW120725   4.793   1.208   6.714
 6375SOL    HW220726   4.800   1.322   6.598
 6376SOL     OW20727   5.327   1.087   6.633
 6376SOL    HW120728   5.315   1.159   6.701
 6376SOL    HW220729   5.257   1.096   6.562
 6377SOL     OW20730   4.461   1.039   5.965
 6377SOL    HW120731   4.451   1.003   6.057
 6377SOL    HW220732   4.529   0.985   5.915
 6378SOL     OW20733   4.101   0.910   6.829
 6378SOL    HW120734   4.178   0.953   6.876
 6378SOL    HW220735   4.099   0.812   6.849
 6379SOL     OW20736   4.983   0.320   6.846
 6379SOL    HW120737   5.018   0.391   6.907
 6379SOL    HW220738   4.894   0.349   6.809
 6380SOL     OW20739   3.849   1.447   6.939
 6380SOL    HW120740   3.812   1.487   0.023
 6380SOL    HW220741   3.937   1.490   6.918
 6381SOL     OW20742   4.039   1.118   6.045
 6381SOL    HW120743   4.038   1.195   5.981
 6381SOL    HW220744   4.027   1.033   5.995
 6382SOL     OW20745   4.257   0.489   6.451
 6382SOL    HW120746   4.258   0.547   6.371
 6382SOL    HW220747   4.328   0.519   6.515
 6383SOL     OW20748   4.982   1.371   6.027
 6383SOL    HW120749   5.042   1.448   6.047
 6383SOL    HW220750   4.887   1.398   6.041
 6384SOL     OW20751   5.051   1.441   6.736
 6384SOL    HW120752   5.117   1.390   6.792
 6384SOL    HW220753   4.962   1.395   6.740
 6385SOL     OW20754   5.289   0.623   6.075
 6385SOL    HW120755   5.227   0.680   6.129
 6385SOL    HW220756   5.364   0.680   6.041
 6386SOL     OW20757   4.095   1.546   6.852
 6386SOL    HW120758   4.074   1.479   6.780
 6386SOL    HW220759   4.193   1.566   6.851
 6387SOL     OW20760   4.341   0.870   6.642
 6387SOL    HW120761   4.380   0.962   6.628
 6387SOL    HW220762   4.245   0.879   6.667
 6388SOL     OW20763   4.994   0.900   6.558
 6388SOL    HW120764   4.900   0.875   6.578
 6388SOL    HW220765   5.048   0.817   6.542
 6389SOL     OW20766   4.949   0.551   5.859
 6389SOL    HW120767   4.964   0.467   5.911
 6389SOL    HW220768   4.887   0.610   5.910
 6390SOL     OW20769   3.990   0.264   6.831
 6390SOL    HW120770   3.924   0.271   6.906
 6390SOL    HW220771   3.992   0.170   6.797
 6391SOL     OW20772   3.699   1.248   6.839
 6391SOL    HW120773   3.750   1.163   6.851
 6391SOL    HW220774   3.751   1.323   6.879
 6392SOL     OW20775   4.430   0.610   6.626
 6392SOL    HW120776   4.519   0.599   6.582
 6392SOL    HW220777   4.406   0.707   6.631
 6393SOL     OW20778   4.080   0.081   6.262
 6393SOL    HW120779   4.022   0.162   6.272
 6393SOL    HW220780   4.024   6.999   6.272
 6394SOL     OW20781   5.322   0.402   5.909
 6394SOL    HW120782   5.387   0.346   5.961
 6394SOL    HW220783   5.289   0.477   5.967
 6395SOL     OW20784   4.727   0.809   6.615
 6395SOL    HW120785   4.682   0.823   6.703
 6395SOL    HW220786   4.713   0.715   6.584
 6396SOL     OW20787   5.232   0.230   5.709
 6396SOL    HW120788   5.132   0.230   5.699
 6396SOL    HW220789   5.259   0.305   5.769
 6397SOL     OW20790   4.990   0.847   5.599
 6397SOL    HW120791   5.028   0.756   5.612
 6397SOL    HW220792   5.016   0.883   5.509
 6398SOL     OW20793   4.776   1.356   6.427
 6398SOL    HW120794   4.790   1.272   6.375
 6398SOL    HW220795   4.835   1.428   6.391
 6399SOL     OW20796   4.083   0.826   6.480
 6399SOL    HW120797   4.152   0.803   6.412
 6399SOL    HW220798   4.070   0.748   6.542
 6400SOL     OW20799   4.054   0.583   6.606
 6400SOL    HW120800   3.982   0.515   6.605
 6400SOL    HW220801   4.132   0.550   6.553
 6401SOL     OW20802   4.909   0.144   0.054
 6401SOL    HW120803   4.918   0.206   0.133
 6401SOL    HW220804   4.933   0.194   6.970
 6402SOL     OW20805   3.742   1.289   5.768
 6402SOL    HW120806   3.650   1.316   5.738
 6402SOL    HW220807   3.739   1.195   5.803
 6403SOL     OW20808   3.827   1.754   6.562
 6403SOL    HW120809   3.787   1.671   6.521
 6403SOL    HW220810   3.918   1.769   6.525
 6404SOL     OW20811   4.209   1.534   6.494
 6404SOL    HW120812   4.286   1.590   6.527
 6404SOL    HW220813   4.240   1.475   6.419
 6405SOL     OW20814   4.592   0.863   6.870
 6405SOL    HW120815   4.665   0.904   6.924
 6405SOL    HW220816   4.549   0.789   6.922
 6406SOL     OW20817   3.705   0.590   6.535
 6406SOL    HW120818   3.771   0.517   6.553
 6406SOL    HW220819   3.752   0.667   6.491
 6407SOL     OW20820   4.513   0.581   5.977
 6407SOL    HW120821   4.529   0.503   5.916
 6407SOL    HW220822   4.433   0.632   5.945
 6408SOL     OW20823   5.360   0.656   6.681
 6408SOL    HW120824   5.354   0.593   6.760
 6408SOL    HW220825   5.440   0.633   6.626
 6409SOL     OW20826   4.345   0.507   6.865
 6409SOL    HW120827   4.327   0.409   6.861
 6409SOL    HW220828   4.380   0.539   6.777
 6410SOL     OW20829   4.728   1.672   6.884
 6410SOL    HW120830   4.676   1.604   6.833
 6410SOL    HW220831   4.740   1.754   6.827
 6411SOL     OW20832   4.159   0.497   5.750
 6411SOL    HW120833   4.226   0.563   5.782
 6411SOL    HW220834   4.069   0.541   5.745
 6412SOL     OW20835   3.865   1.098   0.123
 6412SOL    HW120836   3.917   1.025   0.170
 6412SOL    HW220837   3.860   1.077   0.025
 6413SOL     OW20838   5.063   0.945   6.831
 6413SOL    HW120839   5.051   0.946   6.731
 6413SOL    HW220840   5.076   1.039   6.863
 6414SOL     OW20841   5.083   0.893   5.857
 6414SOL    HW120842   5.022   0.861   5.930
 6414SOL    HW220843   5.041   0.876   5.768
 6415SOL     OW20844   5.465   1.725   6.738
 6415SOL    HW120845   5.553   1.742   6.694
 6415SOL    HW220846   5.437   1.630   6.722
 6416SOL     OW20847   5.011   1.717   6.691
 6416SOL    HW120848   5.098   1.762   6.670
 6416SOL    HW220849   5.028   1.621   6.714
 6417SOL     OW20850   3.797   1.279   6.578
 6417SOL    HW120851   3.757   1.278   6.670
 6417SOL    HW220852   3.764   1.201   6.526
 6418SOL     OW20853   5.509   0.251   6.038
 6418SOL    HW120854   5.569   0.211   5.969
 6418SOL    HW220855   5.466   0.179   6.092
 6419SOL     OW20856   5.136   1.592   6.089
 6419SOL    HW120857   5.199   1.627   6.020
 6419SOL    HW220858   5.074   1.664   6.119
 6420SOL     OW20859   4.988   0.946   6.203
 6420SOL    HW120860   5.061   0.883   6.229
 6420SOL    HW220861   5.028   1.031   6.169
 6421SOL     OW20862   4.392   1.651   5.755
 6421SOL    HW120863   4.408   1.673   5.659
 6421SOL    HW220864   4.341   1.565   5.762
 6422SOL     OW20865   5.563   0.184   6.556
 6422SOL    HW120866   5.588   0.088   6.568
 6422SOL    HW220867   5.480   0.190   6.502
 6423SOL     OW20868   3.949   0.316   6.310
 6423SOL    HW120869   3.865   0.361   6.278
 6423SOL    HW220870   3.960   0.331   6.408
 6424SOL     OW20871   4.958   1.548   5.659
 6424SOL    HW120872   4.959   1.454   5.694
 6424SOL    HW220873   4.876   1.562   5.605
 6425SOL     OW20874   4.334   1.019   6.942
 6425SOL    HW120875   4.417   0.977   6.904
 6425SOL    HW220876   4.324   1.111   6.904
 6426SOL     OW20877   4.651   0.897   5.823
 6426SOL    HW120878   4.718   0.961   5.786
 6426SOL    HW220879   4.696   0.831   5.882
 6427SOL     OW20880   5.219   1.647   5.657
 6427SOL    HW120881   5.126   1.613   5.651
 6427SOL    HW220882   5.258   1.653   5.565
 6428SOL     OW20883   5.287   1.280   6.829
 6428SOL    HW120884   5.382   1.267   6.857
 6428SOL    HW220885   5.227   1.245   6.901
 6429SOL     OW20886   4.794   1.114   6.311
 6429SOL    HW120887   4.719   1.064   6.353
 6429SOL    HW220888   4.858   1.050   6.269
 6430SOL     OW20889   4.793   0.225   6.501
 6430SOL    HW120890   4.776   0.154   6.433
 6430SOL    HW220891   4.761   0.193   6.591
 6431SOL     OW20892   4.350   1.493   6.057
 6431SOL    HW120893   4.405   1.432   6.000
 6431SOL    HW220894   4.261   1.508   6.013
 6432SOL     OW20895   5.378   0.484   6.885
 6432SOL    HW120896   5.415   0.501   6.977
 6432SOL    HW220897   5.393   0.388   6.861
 6433SOL     OW20898   4.002   1.330   5.874
 6433SOL    HW120899   3.909   1.323   5.836
 6433SOL    HW220900   4.001   1.391   5.953
 6434SOL     OW20901   3.836   0.400   5.518
 6434SOL    HW120902   3.740   0.392   5.491
 6434SOL    HW220903   3.869   0.493   5.499
 6435SOL     OW20904   3.754   0.103   5.838
 6435SOL    HW120905   3.738   0.166   5.762
 6435SOL    HW220906   3.730   0.010   5.809
 6436SOL     OW20907   4.965   1.290   5.761
 6436SOL    HW120908   4.911   1.207   5.748
 6436SOL    HW220909   4.972   1.310   5.859
 6437SOL     OW20910   5.246   1.849   6.638
 6437SOL    HW120911   5.274   1.897   6.555
 6437SOL    HW220912   5.326   1.807   6.682
 6438SOL     OW20913   5.207   1.291   0.271
 6438SOL    HW120914   5.139   1.325   0.336
 6438SOL    HW220915   5.191   1.193   0.254
 6439SOL     OW20916   4.110   1.767   0.105
 6439SOL    HW120917   4.013   1.792   0.108
 6439SOL    HW220918   4.120   1.672   0.134
 6440SOL     OW20919   5.456   0.888   6.804
 6440SOL    HW120920   5.424   0.801   6.767
 6440SOL    HW220921   5.411   0.963   6.756
 6441SOL     OW20922   4.973   0.328   6.023
 6441SOL    HW120923   5.040   0.255   6.020
 6441SOL    HW220924   4.987   0.383   6.106
 6442SOL     OW20925   4.255   0.732   6.285
 6442SOL    HW120926   4.327   0.798   6.264
 6442SOL    HW220927   4.201   0.714   6.203
 6443SOL     OW20928   5.485   0.842   0.088
 6443SOL    HW120929   5.478   0.932   0.132
 6443SOL    HW220930   5.470   0.852   6.989
 6444SOL     OW20931   4.534   1.370   5.660
 6444SOL    HW120932   4.533   1.366   5.759
 6444SOL    HW220933   4.593   1.445   5.630
 6445SOL     OW20934   4.410   1.709   6.552
 6445SOL    HW120935   4.381   1.805   6.551
 6445SOL    HW220936   4.508   1.703   6.533
 6446SOL     OW20937   4.594   0.984   6.448
 6446SOL    HW120938   4.642   0.916   6.504
 6446SOL    HW220939   4.533   1.039   6.506
 6447SOL     OW20940   4.833   1.056   5.689
 6447SOL    HW120941   4.772   1.087   5.616
 6447SOL    HW220942   4.890   0.982   5.654
 6448SOL     OW20943   5.523   1.581   6.441
 6448SOL    HW120944   5.457   1.566   6.368
 6448SOL    HW220945   5.491   1.536   6.525
 6449SOL     OW20946   3.903   1.251   6.255
 6449SOL    HW120947   3.933   1.205   6.339
 6449SOL    HW220948   3.940   1.202   6.176
 6450SOL     OW20949   5.469   0.229   6.816
 6450SOL    HW120950   5.402   0.155   6.820
 6450SOL    HW220951   5.512   0.230   6.726
 6451SOL     OW20952   4.106   0.414   6.097
 6451SOL    HW120953   4.142   0.345   6.035
 6451SOL    HW220954   4.058   0.370   6.173
 6452SOL     OW20955   5.370   1.478   6.649
 6452SOL    HW120956   5.296   1.468   6.583
 6452SOL    HW220957   5.358   1.413   6.724
 6453SOL     OW20958   4.102   0.639   6.870
 6453SOL    HW120959   4.188   0.592   6.889
 6453SOL    HW220960   4.073   0.619   6.776
 6454SOL     OW20961   4.541   1.629   6.213
 6454SOL    HW120962   4.547   1.722   6.176
 6454SOL    HW220963   4.468   1.580   6.167
 6455SOL     OW20964   5.169   0.248   6.660
 6455SOL    HW120965   5.218   0.165   6.685
 6455SOL    HW220966   5.105   0.274   6.733
 6456SOL     OW20967   4.669   0.103   6.750
 6456SOL    HW120968   4.581   0.069   6.716
 6456SOL    HW220969   4.710   0.034   6.810
 6457SOL     OW20970   4.521   1.316   5.933
 6457SOL    HW120971   4.501   1.219   5.946
 6457SOL    HW220972   4.605   1.340   5.981
 6458SOL     OW20973   4.364   1.571   6.857
 6458SOL    HW120974   4.368   1.668   6.881
 6458SOL    HW220975   4.448   1.544   6.811
 6459SOL     OW20976   4.991   6.960   5.828
 6459SOL    HW120977   5.040   6.896   5.769
 6459SOL    HW220978   4.917   6.913   5.875
 6460SOL     OW20979   4.996   0.486   6.241
 6460SOL    HW120980   4.941   0.569   6.238
 6460SOL    HW220981   5.005   0.455   6.335
 6461SOL     OW20982   5.324   0.240   6.424
 6461SOL    HW120983   5.267   0.239   6.507
 6461SOL    HW220984   5.326   0.332   6.386
 6462SOL     OW20985   3.749   1.024   5.887
 6462SOL    HW120986   3.845   1.008   5.864
 6462SOL    HW220987   3.705   0.937   5.910
 6463SOL     OW20988   4.625   1.695   5.903
 6463SOL    HW120989   4.544   1.672   5.849
 6463SOL    HW220990   4.601   1.764   5.971
 6464SOL     OW20991   3.933   2.541   0.141
 6464SOL    HW120992   3.842   2.501   0.141
 6464SOL    HW220993   3.975   2.530   0.050
 6465SOL     OW20994   3.930   2.147   0.989
 6465SOL    HW120995   3.974   2.119   1.074
 6465SOL    HW220996   3.841   2.101   0.981
 6466SOL     OW20997   3.727   2.280   0.624
 6466SOL    HW120998   3.650   2.306   0.682
 6466SOL    HW220999   3.697   2.211   0.558
 6467SOL     OW21000   4.297   3.182   1.224
 6467SOL    HW121001   4.210   3.176   1.174
 6467SOL    HW221002   4.314   3.277   1.250
 6468SOL     OW21003   5.300   3.389   0.697
 6468SOL    HW121004   5.254   3.344   0.774
 6468SOL    HW221005   5.232   3.428   0.635
 6469SOL     OW21006   4.846   2.614   0.691
 6469SOL    HW121007   4.899   2.696   0.672
 6469SOL    HW221008   4.800   2.624   0.779
 6470SOL     OW21009   5.547   2.447   0.132
 6470SOL    HW121010   5.506   2.536   0.111
 6470SOL    HW221011   5.487   2.396   0.193
 6471SOL     OW21012   4.436   2.993   1.059
 6471SOL    HW121013   4.378   3.030   1.132
 6471SOL    HW221014   4.480   3.069   1.011
 6472SOL     OW21015   4.596   2.560   1.825
 6472SOL    HW121016   4.559   2.615   1.900
 6472SOL    HW221017   4.622   2.620   1.750
 6473SOL     OW21018   4.431   2.826   0.641
 6473SOL    HW121019   4.496   2.834   0.716
 6473SOL    HW221020   4.356   2.891   0.656
 6474SOL     OW21021   4.455   3.044   1.790
 6474SOL    HW121022   4.509   3.118   1.830
 6474SOL    HW221023   4.371   3.082   1.750
 6475SOL     OW21024   4.063   3.232   1.077
 6475SOL    HW121025   3.991   3.175   1.038
 6475SOL    HW221026   4.106   3.286   1.005
 6476SOL     OW21027   5.184   3.376   1.371
 6476SOL    HW121028   5.243   3.457   1.375
 6476SOL    HW221029   5.103   3.392   1.428
 6477SOL     OW21030   4.214   2.208   1.432
 6477SOL    HW121031   4.296   2.153   1.449
 6477SOL    HW221032   4.135   2.162   1.472
 6478SOL     OW21033   5.324   2.341   0.738
 6478SOL    HW121034   5.314   2.384   0.648
 6478SOL    HW221035   5.274   2.394   0.806
 6479SOL     OW21036   3.946   3.556   0.485
 6479SOL    HW121037   3.962   3.635   0.545
 6479SOL    HW221038   4.031   3.530   0.440
 6480SOL     OW21039   4.830   3.183   1.636
 6480SOL    HW121040   4.891   3.143   1.567
 6480SOL    HW221041   4.788   3.110   1.690
 6481SOL     OW21042   3.875   3.280   0.438
 6481SOL    HW121043   3.891   3.371   0.477
 6481SOL    HW221044   3.871   3.213   0.511
 6482SOL     OW21045   4.016   2.943   0.826
 6482SOL    HW121046   4.029   2.849   0.856
 6482SOL    HW221047   3.961   2.992   0.894
 6483SOL     OW21048   4.286   3.705   1.399
 6483SOL    HW121049   4.210   3.679   1.458
 6483SOL    HW221050   4.341   3.775   1.444
 6484SOL     OW21051   4.279   2.817   0.192
 6484SOL    HW121052   4.306   2.835   0.098
 6484SOL    HW221053   4.336   2.870   0.254
 6485SOL     OW21054   5.394   1.966   1.513
 6485SOL    HW121055   5.422   2.043   1.456
 6485SOL    HW221056   5.332   1.998   1.584
 6486SOL     OW21057   3.839   2.530   0.542
 6486SOL    HW121058   3.810   2.437   0.567
 6486SOL    HW221059   3.834   2.589   0.622
 6487SOL     OW21060   5.586   3.591   0.353
 6487SOL    HW121061   5.657   3.559   0.415
 6487SOL    HW221062   5.605   3.685   0.326
 6488SOL     OW21063   3.725   3.438   0.147
 6488SOL    HW121064   3.651   3.371   0.141
 6488SOL    HW221065   3.725   3.481   0.237
 6489SOL     OW21066   5.429   2.799   0.663
 6489SOL    HW121067   5.516   2.750   0.663
 6489SOL    HW221068   5.414   2.842   0.574
 6490SOL     OW21069   5.395   2.945   0.428
 6490SOL    HW121070   5.437   2.963   0.339
 6490SOL    HW221071   5.403   3.026   0.485
 6491SOL     OW21072   3.822   2.648   1.510
 6491SOL    HW121073   3.879   2.690   1.439
 6491SOL    HW221074   3.733   2.695   1.512
 6492SOL     OW21075   4.350   3.233   0.742
 6492SOL    HW121076   4.309   3.144   0.725
 6492SOL    HW221077   4.357   3.284   0.656
 6493SOL     OW21078   4.980   3.080   1.431
 6493SOL    HW121079   4.984   3.013   1.357
 6493SOL    HW221080   5.062   3.072   1.488
 6494SOL     OW21081   4.566   1.907   0.512
 6494SOL    HW121082   4.611   1.994   0.491
 6494SOL    HW221083   4.467   1.920   0.511
 6495SOL     OW21084   3.941   2.780   1.298
 6495SOL    HW121085   4.033   2.744   1.286
 6495SOL    HW221086   3.891   2.774   1.211
 6496SOL     OW21087   5.167   2.924   0.269
 6496SOL    HW121088   5.098   2.853   0.284
 6496SOL    HW221089   5.244   2.909   0.331
 6497SOL     OW21090   4.985   3.711   1.592
 6497SOL    HW121091   4.951   3.772   1.521
 6497SOL    HW221092   4.983   3.617   1.560
 6498SOL     OW21093   4.090   2.129   1.843
 6498SOL    HW121094   4.133   2.205   1.891
 6498SOL    HW221095   4.009   2.162   1.794
 6499SOL     OW21096   5.197   3.252   0.913
 6499SOL    HW121097   5.140   3.288   0.987
 6499SOL    HW221098   5.174   3.156   0.898
 6500SOL     OW21099   5.360   3.695   0.571
 6500SOL    HW121100   5.334   3.646   0.488
 6500SOL    HW221101   5.359   3.633   0.649
 6501SOL     OW21102   4.305   2.557   0.271
 6501SOL    HW121103   4.305   2.653   0.242
 6501SOL    HW221104   4.241   2.545   0.347
 6502SOL     OW21105   5.004   2.272   0.935
 6502SOL    HW121106   4.916   2.225   0.932
 6502SOL    HW221107   5.067   2.221   0.994
 6503SOL     OW21108   5.306   3.576   0.316
 6503SOL    HW121109   5.406   3.572   0.325
 6503SOL    HW221110   5.279   3.534   0.229
 6504SOL     OW21111   4.515   2.410   1.449
 6504SOL    HW121112   4.479   2.380   1.537
 6504SOL    HW221113   4.491   2.344   1.379
 6505SOL     OW21114   5.109   2.327   1.649
 6505SOL    HW121115   5.109   2.375   1.737
 6505SOL    HW221116   5.163   2.243   1.657
 6506SOL     OW21117   4.668   2.721   1.605
 6506SOL    HW121118   4.718   2.653   1.551
 6506SOL    HW221119   4.613   2.779   1.545
 6507SOL     OW21120   4.735   2.228   1.182
 6507SOL    HW121121   4.639   2.237   1.209
 6507SOL    HW221122   4.740   2.178   1.096
 6508SOL     OW21123   4.764   2.590   0.429
 6508SOL    HW121124   4.788   2.598   0.526
 6508SOL    HW221125   4.677   2.542   0.420
 6509SOL     OW21126   3.817   2.694   0.766
 6509SOL    HW121127   3.908   2.682   0.807
 6509SOL    HW221128   3.764   2.758   0.821
 6510SOL     OW21129   3.834   3.766   1.603
 6510SOL    HW121130   3.842   3.722   1.692
 6510SOL    HW221131   3.737   3.772   1.578
 6511SOL     OW21132   4.631   2.235   0.225
 6511SOL    HW121133   4.671   2.298   0.158
 6511SOL    HW221134   4.646   2.141   0.195
 6512SOL     OW21135   5.383   2.448   1.839
 6512SOL    HW121136   5.364   2.532   1.787
 6512SOL    HW221137   5.410   2.375   1.775
 6513SOL     OW21138   5.142   3.068   0.629
 6513SOL    HW121139   5.239   3.091   0.614
 6513SOL    HW221140   5.085   3.139   0.587
 6514SOL     OW21141   4.294   1.961   0.925
 6514SOL    HW121142   4.297   1.992   1.019
 6514SOL    HW221143   4.302   2.040   0.863
 6515SOL     OW21144   4.721   3.337   0.486
 6515SOL    HW121145   4.700   3.402   0.413
 6515SOL    HW221146   4.680   3.370   0.571
 6516SOL     OW21147   4.083   3.644   0.875
 6516SOL    HW121148   4.119   3.551   0.881
 6516SOL    HW221149   4.155   3.708   0.901
 6517SOL     OW21150   5.518   2.902   0.908
 6517SOL    HW121151   5.473   2.889   0.820
 6517SOL    HW221152   5.449   2.916   0.979
 6518SOL     OW21153   4.945   3.435   1.499
 6518SOL    HW121154   4.927   3.374   1.576
 6518SOL    HW221155   4.870   3.429   1.433
 6519SOL     OW21156   4.017   2.780   0.257
 6519SOL    HW121157   4.112   2.792   0.230
 6519SOL    HW221158   3.984   2.691   0.225
 6520SOL     OW21159   5.199   2.659   0.708
 6520SOL    HW121160   5.195   2.606   0.793
 6520SOL    HW221161   5.284   2.711   0.705
 6521SOL     OW21162   4.194   3.163   1.718
 6521SOL    HW121163   4.171   3.164   1.621
 6521SOL    HW221164   4.110   3.152   1.772
 6522SOL     OW21165   4.915   3.573   0.267
 6522SOL    HW121166   4.821   3.562   0.301
 6522SOL    HW221167   4.935   3.500   0.202
 6523SOL     OW21168   3.967   2.097   1.505
 6523SOL    HW121169   3.939   2.165   1.572
 6523SOL    HW221170   3.911   2.015   1.515
 6524SOL     OW21171   5.364   3.259   0.141
 6524SOL    HW121172   5.326   3.333   0.086
 6524SOL    HW221173   5.296   3.229   0.208
 6525SOL     OW21174   4.209   3.552   0.385
 6525SOL    HW121175   4.242   3.634   0.432
 6525SOL    HW221176   4.192   3.573   0.289
 6526SOL     OW21177   3.935   3.670   1.208
 6526SOL    HW121178   3.988   3.592   1.241
 6526SOL    HW221179   3.902   3.652   1.116
 6527SOL     OW21180   4.655   3.551   0.884
 6527SOL    HW121181   4.747   3.512   0.878
 6527SOL    HW221182   4.601   3.524   0.804
 6528SOL     OW21183   4.117   2.522   0.467
 6528SOL    HW121184   4.125   2.423   0.480
 6528SOL    HW221185   4.022   2.550   0.482
 6529SOL     OW21186   5.224   2.074   1.707
 6529SOL    HW121187   5.237   2.090   1.805
 6529SOL    HW221188   5.146   2.013   1.692
 6530SOL     OW21189   4.497   2.095   1.748
 6530SOL    HW121190   4.587   2.050   1.746
 6530SOL    HW221191   4.439   2.050   1.816
 6531SOL     OW21192   4.568   3.381   1.182
 6531SOL    HW121193   4.550   3.333   1.097
 6531SOL    HW221194   4.636   3.330   1.235
 6532SOL     OW21195   5.019   2.450   1.423
 6532SOL    HW121196   5.059   2.414   1.507
 6532SOL    HW221197   5.049   2.545   1.410
 6533SOL     OW21198   4.537   3.227   0.947
 6533SOL    HW121199   4.630   3.236   0.911
 6533SOL    HW221200   4.471   3.235   0.873
 6534SOL     OW21201   4.650   2.385   0.893
 6534SOL    HW121202   4.626   2.375   0.796
 6534SOL    HW221203   4.686   2.298   0.927
 6535SOL     OW21204   4.290   1.942   0.482
 6535SOL    HW121205   4.210   1.938   0.542
 6535SOL    HW221206   4.274   2.008   0.408
 6536SOL     OW21207   5.155   3.027   7.000
 6536SOL    HW121208   5.193   2.980   0.080
 6536SOL    HW221209   5.062   3.056   0.020
 6537SOL     OW21210   4.704   2.140   0.468
 6537SOL    HW121211   4.671   2.178   0.382
 6537SOL    HW221212   4.804   2.150   0.473
 6538SOL     OW21213   4.756   2.540   1.420
 6538SOL    HW121214   4.683   2.473   1.434
 6538SOL    HW221215   4.844   2.493   1.419
 6539SOL     OW21216   4.918   3.494   0.808
 6539SOL    HW121217   4.952   3.550   0.733
 6539SOL    HW221218   4.960   3.523   0.894
 6540SOL     OW21219   4.226   3.003   0.668
 6540SOL    HW121220   4.150   2.982   0.729
 6540SOL    HW221221   4.194   3.008   0.573
 6541SOL     OW21222   4.966   3.719   0.615
 6541SOL    HW121223   4.997   3.804   0.572
 6541SOL    HW221224   4.880   3.735   0.663
 6542SOL     OW21225   4.726   2.421   0.048
 6542SOL    HW121226   4.644   2.478   0.054
 6542SOL    HW221227   4.792   2.450   0.118
 6543SOL     OW21228   3.826   2.397   1.397
 6543SOL    HW121229   3.922   2.386   1.371
 6543SOL    HW221230   3.815   2.482   1.450
 6544SOL     OW21231   4.292   2.036   1.185
 6544SOL    HW121232   4.317   1.961   1.246
 6544SOL    HW221233   4.196   2.061   1.202
 6545SOL     OW21234   4.597   2.335   0.634
 6545SOL    HW121235   4.550   2.392   0.566
 6545SOL    HW221236   4.637   2.255   0.589
 6546SOL     OW21237   4.767   1.908   0.716
 6546SOL    HW121238   4.700   1.910   0.642
 6546SOL    HW221239   4.742   1.836   0.781
 6547SOL     OW21240   5.135   2.980   0.893
 6547SOL    HW121241   5.079   2.900   0.913
 6547SOL    HW221242   5.132   2.999   0.795
 6548SOL     OW21243   5.173   2.500   0.935
 6548SOL    HW121244   5.106   2.427   0.944
 6548SOL    HW221245   5.241   2.494   1.008
 6549SOL     OW21246   5.519   2.658   0.391
 6549SOL    HW121247   5.594   2.601   0.426
 6549SOL    HW221248   5.519   2.655   0.291
 6550SOL     OW21249   4.167   3.351   0.119
 6550SOL    HW121250   4.114   3.281   0.166
 6550SOL    HW221251   4.148   3.348   0.021
 6551SOL     OW21252   5.416   3.148   0.607
 6551SOL    HW121253   5.513   3.129   0.627
 6551SOL    HW221254   5.395   3.242   0.632
 6552SOL     OW21255   5.058   2.387   0.065
 6552SOL    HW121256   4.997   2.393   0.144
 6552SOL    HW221257   5.129   2.318   0.084
 6553SOL     OW21258   4.247   2.120   0.276
 6553SOL    HW121259   4.314   2.086   0.210
 6553SOL    HW221260   4.199   2.199   0.238
 6554SOL     OW21261   5.466   3.086   1.526
 6554SOL    HW121262   5.557   3.046   1.516
 6554SOL    HW221263   5.475   3.179   1.561
 6555SOL     OW21264   4.737   3.219   1.337
 6555SOL    HW121265   4.652   3.184   1.376
 6555SOL    HW221266   4.815   3.177   1.384
 6556SOL     OW21267   5.330   3.504   1.659
 6556SOL    HW121268   5.316   3.553   1.573
 6556SOL    HW221269   5.405   3.439   1.649
 6557SOL     OW21270   4.860   3.129   1.110
 6557SOL    HW121271   4.796   3.162   1.180
 6557SOL    HW221272   4.832   3.163   1.020
 6558SOL     OW21273   5.321   2.952   1.094
 6558SOL    HW121274   5.318   3.025   1.163
 6558SOL    HW221275   5.248   2.967   1.027
 6559SOL     OW21276   4.664   1.914   1.373
 6559SOL    HW121277   4.679   1.898   1.275
 6559SOL    HW221278   4.746   1.956   1.413
 6560SOL     OW21279   4.710   2.952   1.744
 6560SOL    HW121280   4.615   2.983   1.756
 6560SOL    HW221281   4.711   2.866   1.694
 6561SOL     OW21282   4.462   2.918   0.379
 6561SOL    HW121283   4.450   2.883   0.472
 6561SOL    HW221284   4.529   2.861   0.331
 6562SOL     OW21285   4.179   2.652   1.269
 6562SOL    HW121286   4.248   2.660   1.341
 6562SOL    HW221287   4.140   2.560   1.270
 6563SOL     OW21288   4.983   2.217   1.287
 6563SOL    HW121289   5.003   2.303   1.335
 6563SOL    HW221290   4.891   2.222   1.248
 6564SOL     OW21291   3.778   3.407   1.323
 6564SOL    HW121292   3.728   3.475   1.271
 6564SOL    HW221293   3.876   3.424   1.315
 6565SOL     OW21294   4.126   3.001   0.417
 6565SOL    HW121295   4.097   3.074   0.354
 6565SOL    HW221296   4.098   2.912   0.380
 6566SOL     OW21297   4.243   2.412   0.877
 6566SOL    HW121298   4.262   2.465   0.794
 6566SOL    HW221299   4.319   2.421   0.941
 6567SOL     OW21300   4.990   3.264   0.505
 6567SOL    HW121301   5.032   3.354   0.516
 6567SOL    HW221302   4.890   3.275   0.500
 6568SOL     OW21303   5.056   3.319   1.136
 6568SOL    HW121304   5.102   3.329   1.224
 6568SOL    HW221305   4.992   3.242   1.140
 6569SOL     OW21306   5.317   2.506   0.506
 6569SOL    HW121307   5.250   2.559   0.559
 6569SOL    HW221308   5.384   2.568   0.466
 6570SOL     OW21309   4.051   3.418   1.274
 6570SOL    HW121310   4.045   3.350   1.201
 6570SOL    HW221311   4.147   3.440   1.291
 6571SOL     OW21312   4.214   2.545   1.664
 6571SOL    HW121313   4.258   2.590   1.586
 6571SOL    HW221314   4.271   2.468   1.694
 6572SOL     OW21315   5.330   2.675   1.701
 6572SOL    HW121316   5.234   2.704   1.696
 6572SOL    HW221317   5.379   2.710   1.621
 6573SOL     OW21318   4.735   1.968   1.749
 6573SOL    HW121319   4.792   2.049   1.736
 6573SOL    HW221320   4.788   1.886   1.726
 6574SOL     OW21321   4.209   1.901   1.744
 6574SOL    HW121322   4.151   1.849   1.682
 6574SOL    HW221323   4.165   1.988   1.766
 6575SOL     OW21324   4.317   2.728   1.040
 6575SOL    HW121325   4.353   2.821   1.043
 6575SOL    HW221326   4.265   2.710   1.124
 6576SOL     OW21327   5.009   2.735   0.985
 6576SOL    HW121328   4.915   2.704   0.973
 6576SOL    HW221329   5.072   2.658   0.970
 6577SOL     OW21330   4.896   2.404   0.281
 6577SOL    HW121331   4.923   2.326   0.336
 6577SOL    HW221332   4.854   2.473   0.339
 6578SOL     OW21333   4.022   2.057   1.231
 6578SOL    HW121334   4.001   2.090   1.323
 6578SOL    HW221335   3.993   1.962   1.223
 6579SOL     OW21336   3.785   3.142   1.249
 6579SOL    HW121337   3.818   3.089   1.327
 6579SOL    HW221338   3.775   3.238   1.276
 6580SOL     OW21339   4.446   2.481   1.055
 6580SOL    HW121340   4.519   2.459   0.990
 6580SOL    HW221341   4.409   2.571   1.034
 6581SOL     OW21342   5.481   2.841   1.863
 6581SOL    HW121343   5.431   2.773   1.809
 6581SOL    HW221344   5.425   2.871   1.940
 6582SOL     OW21345   4.061   1.913   0.639
 6582SOL    HW121346   4.018   2.001   0.658
 6582SOL    HW221347   4.070   1.860   0.723
 6583SOL     OW21348   5.381   2.313   0.320
 6583SOL    HW121349   5.418   2.238   0.374
 6583SOL    HW221350   5.347   2.384   0.382
 6584SOL     OW21351   4.746   2.632   0.959
 6584SOL    HW121352   4.716   2.651   1.053
 6584SOL    HW221353   4.721   2.539   0.935
 6585SOL     OW21354   4.733   3.423   1.722
 6585SOL    HW121355   4.685   3.476   1.651
 6585SOL    HW221356   4.750   3.331   1.689
 6586SOL     OW21357   5.547   3.346   1.584
 6586SOL    HW121358   5.568   3.372   1.490
 6586SOL    HW221359   5.627   3.361   1.642
 6587SOL     OW21360   4.131   2.772   1.801
 6587SOL    HW121361   4.212   2.806   1.848
 6587SOL    HW221362   4.154   2.690   1.749
 6588SOL     OW21363   5.224   2.184   0.135
 6588SOL    HW121364   5.180   2.100   0.170
 6588SOL    HW221365   5.282   2.223   0.207
 6589SOL     OW21366   4.987   2.648   0.039
 6589SOL    HW121367   5.021   2.554   0.037
 6589SOL    HW221368   5.026   2.699   6.962
 6590SOL     OW21369   4.797   3.244   0.865
 6590SOL    HW121370   4.808   3.162   0.809
 6590SOL    HW221371   4.854   3.318   0.828
 6591SOL     OW21372   4.054   2.680   0.920
 6591SOL    HW121373   4.152   2.694   0.934
 6591SOL    HW221374   4.028   2.589   0.952
 6592SOL     OW21375   4.009   2.405   1.004
 6592SOL    HW121376   3.967   2.315   0.993
 6592SOL    HW221377   4.095   2.408   0.953
 6593SOL     OW21378   4.867   2.200   1.684
 6593SOL    HW121379   4.814   2.248   1.753
 6593SOL    HW221380   4.951   2.251   1.665
 6594SOL     OW21381   4.896   2.027   1.470
 6594SOL    HW121382   4.877   2.086   1.548
 6594SOL    HW221383   4.938   2.081   1.397
 6595SOL     OW21384   3.823   3.627   0.955
 6595SOL    HW121385   3.773   3.556   0.904
 6595SOL    HW221386   3.915   3.635   0.919
 6596SOL     OW21387   4.207   3.397   0.910
 6596SOL    HW121388   4.276   3.456   0.951
 6596SOL    HW221389   4.250   3.334   0.845
 6597SOL     OW21390   4.631   2.656   1.206
 6597SOL    HW121391   4.684   2.624   1.284
 6597SOL    HW221392   4.555   2.593   1.189
 6598SOL     OW21393   3.766   2.471   1.137
 6598SOL    HW121394   3.849   2.458   1.082
 6598SOL    HW221395   3.784   2.441   1.230
 6599SOL     OW21396   3.945   2.508   1.714
 6599SOL    HW121397   4.043   2.515   1.696
 6599SOL    HW221398   3.894   2.565   1.649
 6600SOL     OW21399   5.086   2.789   1.644
 6600SOL    HW121400   5.114   2.885   1.640
 6600SOL    HW221401   5.072   2.754   1.552
 6601SOL     OW21402   4.537   2.447   0.380
 6601SOL    HW121403   4.557   2.366   0.325
 6601SOL    HW221404   4.453   2.490   0.346
 6602SOL     OW21405   5.363   2.475   1.133
 6602SOL    HW121406   5.342   2.399   1.194
 6602SOL    HW221407   5.462   2.479   1.118
 6603SOL     OW21408   3.952   3.405   1.692
 6603SOL    HW121409   3.932   3.481   1.754
 6603SOL    HW221410   3.959   3.320   1.744
 6604SOL     OW21411   4.465   2.258   1.224
 6604SOL    HW121412   4.400   2.182   1.213
 6604SOL    HW221413   4.440   2.332   1.162
 6605SOL     OW21414   4.602   3.552   1.505
 6605SOL    HW121415   4.557   3.486   1.445
 6605SOL    HW221416   4.626   3.634   1.454
 6606SOL     OW21417   4.149   2.355   0.165
 6606SOL    HW121418   4.219   2.418   0.198
 6606SOL    HW221419   4.058   2.394   0.181
 6607SOL     OW21420   3.874   2.988   1.464
 6607SOL    HW121421   3.885   2.959   1.559
 6607SOL    HW221422   3.902   2.913   1.403
 6608SOL     OW21423   4.978   2.903   1.205
 6608SOL    HW121424   4.997   2.839   1.131
 6608SOL    HW221425   4.933   2.984   1.167
 6609SOL     OW21426   4.972   2.740   0.297
 6609SOL    HW121427   4.909   2.688   0.355
 6609SOL    HW221428   4.979   2.696   0.207
 6610SOL     OW21429   5.490   3.547   1.146
 6610SOL    HW121430   5.552   3.587   1.079
 6610SOL    HW221431   5.462   3.456   1.116
 6611SOL     OW21432   5.004   3.571   1.056
 6611SOL    HW121433   5.094   3.616   1.051
 6611SOL    HW221434   5.015   3.478   1.091
 6612SOL     OW21435   3.849   3.064   1.000
 6612SOL    HW121436   3.819   3.093   1.091
 6612SOL    HW221437   3.776   3.011   0.957
 6613SOL     OW21438   4.418   3.569   1.713
 6613SOL    HW121439   4.362   3.651   1.724
 6613SOL    HW221440   4.487   3.585   1.642
 6614SOL     OW21441   4.686   1.987   0.128
 6614SOL    HW121442   4.757   2.016   0.063
 6614SOL    HW221443   4.721   1.912   0.183
 6615SOL     OW21444   5.469   2.097   0.462
 6615SOL    HW121445   5.525   2.050   0.394
 6615SOL    HW221446   5.400   2.034   0.497
 6616SOL     OW21447   5.118   3.505   0.523
 6616SOL    HW121448   5.167   3.523   0.437
 6616SOL    HW221449   5.063   3.585   0.547
 6617SOL     OW21450   3.884   3.628   1.839
 6617SOL    HW121451   3.819   3.567   1.885
 6617SOL    HW221452   3.937   3.677   1.908
 6618SOL     OW21453   5.002   2.833   0.647
 6618SOL    HW121454   5.073   2.764   0.663
 6618SOL    HW221455   5.045   2.918   0.617
 6619SOL     OW21456   4.489   3.134   1.419
 6619SOL    HW121457   4.467   3.192   1.498
 6619SOL    HW221458   4.416   3.142   1.351
 6620SOL     OW21459   4.436   3.451   0.157
 6620SOL    HW121460   4.431   3.476   0.060
 6620SOL    HW221461   4.354   3.400   0.182
 6621SOL     OW21462   5.337   3.610   1.386
 6621SOL    HW121463   5.399   3.597   1.309
 6621SOL    HW221464   5.311   3.706   1.393
 6622SOL     OW21465   5.561   2.009   0.984
 6622SOL    HW121466   5.590   1.919   0.954
 6622SOL    HW221467   5.479   2.037   0.934
 6623SOL     OW21468   3.959   2.155   0.709
 6623SOL    HW121469   3.878   2.205   0.677
 6623SOL    HW221470   3.962   2.158   0.809
 6624SOL     OW21471   4.958   3.380   0.068
 6624SOL    HW121472   4.955   3.283   0.092
 6624SOL    HW221473   4.874   3.405   0.020
 6625SOL     OW21474   4.536   2.860   1.410
 6625SOL    HW121475   4.572   2.837   1.319
 6625SOL    HW221476   4.520   2.959   1.415
 6626SOL     OW21477   4.636   2.762   0.249
 6626SOL    HW121478   4.690   2.789   0.169
 6626SOL    HW221479   4.692   2.707   0.310
 6627SOL     OW21480   5.215   3.484   0.064
 6627SOL    HW121481   5.122   3.447   0.068
 6627SOL    HW221482   5.222   3.549   6.988
 6628SOL     OW21483   4.084   3.181   1.472
 6628SOL    HW121484   4.068   3.261   1.414
 6628SOL    HW221485   4.010   3.115   1.460
 6629SOL     OW21486   5.327   3.153   1.288
 6629SOL    HW121487   5.386   3.122   1.363
 6629SOL    HW221488   5.270   3.229   1.320
 6630SOL     OW21489   4.801   3.001   0.746
 6630SOL    HW121490   4.723   2.950   0.781
 6630SOL    HW221491   4.867   2.938   0.705
 6631SOL     OW21492   4.773   2.100   0.937
 6631SOL    HW121493   4.771   2.065   0.843
 6631SOL    HW221494   4.771   2.023   1.001
 6632SOL     OW21495   4.367   3.361   0.501
 6632SOL    HW121496   4.407   3.297   0.436
 6632SOL    HW221497   4.300   3.419   0.455
 6633SOL     OW21498   5.519   2.211   1.410
 6633SOL    HW121499   5.583   2.287   1.400
 6633SOL    HW221500   5.546   2.137   1.349
 6634SOL     OW21501   4.000   3.166   0.227
 6634SOL    HW121502   3.943   3.103   0.175
 6634SOL    HW221503   3.945   3.210   0.298
 6635SOL     OW21504   3.892   2.906   1.725
 6635SOL    HW121505   3.810   2.867   1.765
 6635SOL    HW221506   3.971   2.851   1.751
 6636SOL     OW21507   4.434   2.036   1.487
 6636SOL    HW121508   4.517   2.003   1.442
 6636SOL    HW221509   4.455   2.062   1.581
 6637SOL     OW21510   3.789   2.188   0.012
 6637SOL    HW121511   3.729   2.139   6.950
 6637SOL    HW221512   3.747   2.275   0.038
 6638SOL     OW21513   5.089   2.716   1.379
 6638SOL    HW121514   5.031   2.778   1.326
 6638SOL    HW221515   5.181   2.715   1.340
 6639SOL     OW21516   3.761   1.999   0.232
 6639SOL    HW121517   3.778   2.086   0.187
 6639SOL    HW221518   3.787   1.924   0.171
 6640SOL     OW21519   4.902   3.087   0.101
 6640SOL    HW121520   4.812   3.132   0.104
 6640SOL    HW221521   4.926   3.056   0.192
 6641SOL     OW21522   4.371   2.647   1.459
 6641SOL    HW121523   4.427   2.729   1.450
 6641SOL    HW221524   4.429   2.566   1.455
 6642SOL     OW21525   5.255   3.664   1.040
 6642SOL    HW121526   5.271   3.756   1.003
 6642SOL    HW221527   5.340   3.630   1.080
 6643SOL     OW21528   4.430   2.364   1.709
 6643SOL    HW121529   4.490   2.426   1.759
 6643SOL    HW221530   4.454   2.269   1.730
 6644SOL     OW21531   5.191   3.045   1.614
 6644SOL    HW121532   5.178   3.066   1.710
 6644SOL    HW221533   5.287   3.062   1.589
 6645SOL     OW21534   4.080   3.634   1.572
 6645SOL    HW121535   3.994   3.686   1.567
 6645SOL    HW221536   4.060   3.539   1.599
 6646SOL     OW21537   5.332   2.727   1.252
 6646SOL    HW121538   5.348   2.642   1.203
 6646SOL    HW221539   5.332   2.804   1.187
 6647SOL     OW21540   4.972   2.205   0.459
 6647SOL    HW121541   5.054   2.148   0.451
 6647SOL    HW221542   4.980   2.264   0.539
 6648SOL     OW21543   4.301   2.579   0.669
 6648SOL    HW121544   4.352   2.664   0.654
 6648SOL    HW221545   4.236   2.566   0.595
 6649SOL     OW21546   5.455   2.241   1.675
 6649SOL    HW121547   5.476   2.235   1.577
 6649SOL    HW221548   5.385   2.174   1.698
 6650SOL     OW21549   5.446   2.799   1.490
 6650SOL    HW121550   5.437   2.898   1.503
 6650SOL    HW221551   5.407   2.773   1.401
 6651SOL     OW21552   4.672   3.224   0.119
 6651SOL    HW121553   4.600   3.218   0.188
 6651SOL    HW221554   4.664   3.310   0.069
 6652SOL     OW21555   4.393   3.579   0.983
 6652SOL    HW121556   4.368   3.673   0.959
 6652SOL    HW221557   4.490   3.565   0.967
 6653SOL     OW21558   4.597   2.852   0.865
 6653SOL    HW121559   4.645   2.773   0.900
 6653SOL    HW221560   4.541   2.893   0.937
 6654SOL     OW21561   4.785   2.831   0.028
 6654SOL    HW121562   4.825   2.923   0.036
 6654SOL    HW221563   4.859   2.764   0.026
 6655SOL     OW21564   5.535   3.414   0.836
 6655SOL    HW121565   5.457   3.411   0.774
 6655SOL    HW221566   5.519   3.354   0.914
 6656SOL     OW21567   3.942   3.157   1.825
 6656SOL    HW121568   3.921   3.070   1.780
 6656SOL    HW221569   3.886   3.166   1.908
 6657SOL     OW21570   3.856   3.067   0.619
 6657SOL    HW121571   3.915   3.031   0.691
 6657SOL    HW221572   3.843   2.996   0.548
 6658SOL     OW21573   4.408   3.307   1.619
 6658SOL    HW121574   4.324   3.265   1.654
 6658SOL    HW221575   4.414   3.402   1.651
 6659SOL     OW21576   5.584   2.000   1.257
 6659SOL    HW121577   5.651   1.927   1.272
 6659SOL    HW221578   5.567   2.010   1.159
 6660SOL     OW21579   4.122   2.257   0.500
 6660SOL    HW121580   4.160   2.189   0.438
 6660SOL    HW221581   4.073   2.211   0.574
 6661SOL     OW21582   5.422   3.296   1.064
 6661SOL    HW121583   5.343   3.281   1.005
 6661SOL    HW221584   5.416   3.237   1.144
 6662SOL     OW21585   4.080   2.398   1.287
 6662SOL    HW121586   4.137   2.331   1.334
 6662SOL    HW221587   4.072   2.372   1.190
 6663SOL     OW21588   4.545   3.509   0.642
 6663SOL    HW121589   4.547   3.598   0.596
 6663SOL    HW221590   4.475   3.452   0.599
 6664SOL     OW21591   5.162   2.126   1.104
 6664SOL    HW121592   5.188   2.030   1.118
 6664SOL    HW221593   5.104   2.156   1.179
 6665SOL     OW21594   4.759   1.874   1.099
 6665SOL    HW121595   4.714   1.809   1.038
 6665SOL    HW221596   4.852   1.842   1.118
 6666SOL     OW21597   4.517   3.185   0.351
 6666SOL    HW121598   4.491   3.089   0.359
 6666SOL    HW221599   4.598   3.204   0.407
 6667SOL     OW21600   4.325   3.457   1.286
 6667SOL    HW121601   4.319   3.550   1.323
 6667SOL    HW221602   4.411   3.446   1.236
 6668SOL     OW21603   5.082   1.949   0.197
 6668SOL    HW121604   5.137   1.873   0.163
 6668SOL    HW221605   4.996   1.915   0.234
 6669SOL     OW21606   4.979   2.367   0.674
 6669SOL    HW121607   4.932   2.455   0.676
 6669SOL    HW221608   4.993   2.334   0.768
 6670SOL     OW21609   5.323   2.090   0.878
 6670SOL    HW121610   5.265   2.115   0.956
 6670SOL    HW221611   5.324   2.165   0.812
 6671SOL     OW21612   3.817   2.868   0.433
 6671SOL    HW121613   3.896   2.836   0.380
 6671SOL    HW221614   3.741   2.805   0.419
 6672SOL     OW21615   4.636   3.550   0.318
 6672SOL    HW121616   4.561   3.510   0.267
 6672SOL    HW221617   4.599   3.618   0.382
 6673SOL     OW21618   3.930   2.479   1.990
 6673SOL    HW121619   3.840   2.455   2.025
 6673SOL    HW221620   3.925   2.491   1.891
 6674SOL     OW21621   3.925   2.213   2.905
 6674SOL    HW121622   3.965   2.177   2.989
 6674SOL    HW221623   3.849   2.154   2.876
 6675SOL     OW21624   3.673   2.258   2.472
 6675SOL    HW121625   3.587   2.294   2.509
 6675SOL    HW221626   3.653   2.180   2.413
 6676SOL     OW21627   4.347   3.178   3.076
 6676SOL    HW121628   4.259   3.165   3.030
 6676SOL    HW221629   4.355   3.273   3.107
 6677SOL     OW21630   5.379   3.406   2.612
 6677SOL    HW121631   5.317   3.356   2.673
 6677SOL    HW221632   5.337   3.494   2.587
 6678SOL     OW21633   4.864   2.504   2.485
 6678SOL    HW121634   4.908   2.590   2.458
 6678SOL    HW221635   4.787   2.523   2.545
 6679SOL     OW21636   5.545   2.424   2.052
 6679SOL    HW121637   5.492   2.442   1.969
 6679SOL    HW221638   5.499   2.355   2.107
 6680SOL     OW21639   4.589   3.138   2.954
 6680SOL    HW121640   4.497   3.127   2.993
 6680SOL    HW221641   4.598   3.230   2.916
 6681SOL     OW21642   4.624   2.793   3.664
 6681SOL    HW121643   4.713   2.800   3.708
 6681SOL    HW221644   4.636   2.792   3.564
 6682SOL     OW21645   4.528   3.123   3.699
 6682SOL    HW121646   4.583   3.176   3.764
 6682SOL    HW221647   4.490   3.183   3.629
 6683SOL     OW21648   4.097   3.219   2.951
 6683SOL    HW121649   4.008   3.179   2.931
 6683SOL    HW221650   4.116   3.294   2.887
 6684SOL     OW21651   5.179   3.368   3.217
 6684SOL    HW121652   5.246   3.442   3.222
 6684SOL    HW221653   5.113   3.378   3.292
 6685SOL     OW21654   4.240   2.110   3.306
 6685SOL    HW121655   4.317   2.054   3.336
 6685SOL    HW221656   4.171   2.113   3.378
 6686SOL     OW21657   5.289   2.344   2.592
 6686SOL    HW121658   5.201   2.307   2.562
 6686SOL    HW221659   5.286   2.444   2.590
 6687SOL     OW21660   4.926   3.235   3.600
 6687SOL    HW121661   4.960   3.210   3.691
 6687SOL    HW221662   4.865   3.163   3.566
 6688SOL     OW21663   4.282   3.646   3.314
 6688SOL    HW121664   4.194   3.621   3.356
 6688SOL    HW221665   4.325   3.717   3.368
 6689SOL     OW21666   4.358   2.838   1.944
 6689SOL    HW121667   4.398   2.899   1.876
 6689SOL    HW221668   4.377   2.873   2.036
 6690SOL     OW21669   5.293   1.989   3.299
 6690SOL    HW121670   5.322   2.067   3.243
 6690SOL    HW221671   5.267   2.021   3.390
 6691SOL     OW21672   3.856   2.470   2.489
 6691SOL    HW121673   3.789   2.396   2.484
 6691SOL    HW221674   3.924   2.447   2.559
 6692SOL     OW21675   5.599   3.639   2.175
 6692SOL    HW121676   5.678   3.628   2.235
 6692SOL    HW221677   5.600   3.730   2.134
 6693SOL     OW21678   3.717   3.456   1.964
 6693SOL    HW121679   3.650   3.382   1.959
 6693SOL    HW221680   3.683   3.527   2.026
 6694SOL     OW21681   5.405   2.834   2.532
 6694SOL    HW121682   5.498   2.800   2.546
 6694SOL    HW221683   5.401   2.885   2.446
 6695SOL     OW21684   5.412   2.977   2.294
 6695SOL    HW121685   5.498   2.954   2.249
 6695SOL    HW221686   5.424   3.063   2.345
 6696SOL     OW21687   5.017   3.103   3.333
 6696SOL    HW121688   5.039   3.029   3.270
 6696SOL    HW221689   5.087   3.107   3.404
 6697SOL     OW21690   4.555   1.904   2.346
 6697SOL    HW121691   4.597   1.993   2.326
 6697SOL    HW221692   4.456   1.915   2.356
 6698SOL     OW21693   3.957   2.928   3.167
 6698SOL    HW121694   4.031   2.986   3.202
 6698SOL    HW221695   3.938   2.952   3.072
 6699SOL     OW21696   5.279   2.903   2.062
 6699SOL    HW121697   5.223   2.823   2.083
 6699SOL    HW221698   5.320   2.938   2.147
 6700SOL     OW21699   5.058   3.680   3.485
 6700SOL    HW121700   5.034   3.740   3.409
 6700SOL    HW221701   5.038   3.585   3.461
 6701SOL     OW21702   4.035   2.079   3.702
 6701SOL    HW121703   4.037   2.112   3.608
 6701SOL    HW221704   3.943   2.088   3.739
 6702SOL     OW21705   5.208   3.266   2.769
 6702SOL    HW121706   5.143   3.290   2.840
 6702SOL    HW221707   5.164   3.205   2.703
 6703SOL     OW21708   5.388   3.703   2.389
 6703SOL    HW121709   5.363   3.641   2.314
 6703SOL    HW221710   5.469   3.668   2.436
 6704SOL     OW21711   4.315   2.574   2.064
 6704SOL    HW121712   4.323   2.665   2.024
 6704SOL    HW221713   4.256   2.579   2.145
 6705SOL     OW21714   4.968   2.170   2.761
 6705SOL    HW121715   4.884   2.120   2.777
 6705SOL    HW221716   5.037   2.143   2.828
 6706SOL     OW21717   5.333   3.555   2.168
 6706SOL    HW121718   5.429   3.573   2.150
 6706SOL    HW221719   5.289   3.525   2.083
 6707SOL     OW21720   4.716   2.819   3.399
 6707SOL    HW121721   4.773   2.737   3.389
 6707SOL    HW221722   4.689   2.852   3.308
 6708SOL     OW21723   4.736   2.150   3.052
 6708SOL    HW121724   4.642   2.160   3.085
 6708SOL    HW221725   4.734   2.116   2.958
 6709SOL     OW21726   4.752   2.515   2.233
 6709SOL    HW121727   4.783   2.496   2.326
 6709SOL    HW221728   4.661   2.475   2.220
 6710SOL     OW21729   3.793   3.708   3.449
 6710SOL    HW121730   3.820   3.711   3.545
 6710SOL    HW221731   3.695   3.690   3.442
 6711SOL     OW21732   4.569   2.177   2.042
 6711SOL    HW121733   4.628   2.218   1.973
 6711SOL    HW221734   4.520   2.099   2.002
 6712SOL     OW21735   5.450   2.448   3.675
 6712SOL    HW121736   5.405   2.530   3.638
 6712SOL    HW221737   5.448   2.375   3.607
 6713SOL     OW21738   4.276   1.980   2.744
 6713SOL    HW121739   4.287   1.991   2.842
 6713SOL    HW221740   4.281   2.070   2.699
 6714SOL     OW21741   4.003   3.613   2.870
 6714SOL    HW121742   4.086   3.565   2.840
 6714SOL    HW221743   4.015   3.712   2.857
 6715SOL     OW21744   5.472   2.935   2.786
 6715SOL    HW121745   5.428   2.918   2.698
 6715SOL    HW221746   5.402   2.939   2.858
 6716SOL     OW21747   4.988   3.420   3.409
 6716SOL    HW121748   4.994   3.356   3.485
 6716SOL    HW221749   4.912   3.394   3.349
 6717SOL     OW21750   4.005   2.741   2.040
 6717SOL    HW121751   4.048   2.759   1.952
 6717SOL    HW221752   3.977   2.645   2.045
 6718SOL     OW21753   5.247   2.613   2.518
 6718SOL    HW121754   5.265   2.573   2.428
 6718SOL    HW221755   5.304   2.693   2.531
 6719SOL     OW21756   4.207   3.139   3.553
 6719SOL    HW121757   4.186   3.130   3.456
 6719SOL    HW221758   4.129   3.108   3.607
 6720SOL     OW21759   4.838   3.661   1.987
 6720SOL    HW121760   4.814   3.717   1.908
 6720SOL    HW221761   4.868   3.571   1.957
 6721SOL     OW21762   3.991   2.104   3.429
 6721SOL    HW121763   3.960   2.138   3.340
 6721SOL    HW221764   3.932   2.028   3.457
 6722SOL     OW21765   5.354   3.245   1.968
 6722SOL    HW121766   5.322   3.338   1.951
 6722SOL    HW221767   5.286   3.180   1.935
 6723SOL     OW21768   4.257   3.661   2.117
 6723SOL    HW121769   4.320   3.699   2.185
 6723SOL    HW221770   4.304   3.590   2.064
 6724SOL     OW21771   5.119   1.947   2.301
 6724SOL    HW121772   5.124   1.923   2.204
 6724SOL    HW221773   5.208   1.930   2.344
 6725SOL     OW21774   3.943   3.576   3.131
 6725SOL    HW121775   4.002   3.503   3.166
 6725SOL    HW221776   3.956   3.584   3.032
 6726SOL     OW21777   4.783   3.576   2.813
 6726SOL    HW121778   4.864   3.591   2.870
 6726SOL    HW221779   4.805   3.595   2.718
 6727SOL     OW21780   4.153   2.539   2.290
 6727SOL    HW121781   4.123   2.444   2.292
 6727SOL    HW221782   4.079   2.599   2.320
 6728SOL     OW21783   5.268   2.035   3.577
 6728SOL    HW121784   5.266   2.075   3.669
 6728SOL    HW221785   5.286   1.937   3.583
 6729SOL     OW21786   4.377   1.955   1.959
 6729SOL    HW121787   4.416   1.872   1.999
 6729SOL    HW221788   4.309   1.930   1.890
 6730SOL     OW21789   4.539   2.039   3.612
 6730SOL    HW121790   4.629   2.002   3.632
 6730SOL    HW221791   4.535   2.135   3.640
 6731SOL     OW21792   4.661   3.452   3.169
 6731SOL    HW121793   4.643   3.429   3.073
 6731SOL    HW221794   4.709   3.375   3.212
 6732SOL     OW21795   4.596   3.408   2.906
 6732SOL    HW121796   4.672   3.456   2.863
 6732SOL    HW221797   4.514   3.465   2.903
 6733SOL     OW21798   4.557   2.220   2.734
 6733SOL    HW121799   4.586   2.262   2.648
 6733SOL    HW221800   4.624   2.152   2.763
 6734SOL     OW21801   4.281   1.942   2.347
 6734SOL    HW121802   4.209   1.936   2.416
 6734SOL    HW221803   4.267   2.022   2.289
 6735SOL     OW21804   5.152   3.076   1.885
 6735SOL    HW121805   5.189   3.007   1.947
 6735SOL    HW221806   5.059   3.099   1.913
 6736SOL     OW21807   3.993   1.927   2.007
 6736SOL    HW121808   4.037   2.002   1.958
 6736SOL    HW221809   4.063   1.876   2.058
 6737SOL     OW21810   4.679   2.143   2.292
 6737SOL    HW121811   4.644   2.159   2.199
 6737SOL    HW221812   4.778   2.148   2.291
 6738SOL     OW21813   4.741   2.332   1.887
 6738SOL    HW121814   4.696   2.419   1.869
 6738SOL    HW221815   4.811   2.344   1.957
 6739SOL     OW21816   4.275   1.982   3.013
 6739SOL    HW121817   4.281   1.907   3.079
 6739SOL    HW221818   4.192   2.035   3.030
 6740SOL     OW21819   4.597   2.329   2.486
 6740SOL    HW121820   4.511   2.373   2.461
 6740SOL    HW221821   4.623   2.264   2.414
 6741SOL     OW21822   4.728   1.879   2.561
 6741SOL    HW121823   4.668   1.895   2.483
 6741SOL    HW221824   4.694   1.802   2.615
 6742SOL     OW21825   5.544   2.637   2.224
 6742SOL    HW121826   5.596   2.611   2.305
 6742SOL    HW221827   5.557   2.567   2.153
 6743SOL     OW21828   4.245   3.253   1.983
 6743SOL    HW121829   4.170   3.219   2.039
 6743SOL    HW221830   4.233   3.222   1.888
 6744SOL     OW21831   5.458   3.190   2.454
 6744SOL    HW121832   5.548   3.153   2.477
 6744SOL    HW221833   5.442   3.274   2.507
 6745SOL     OW21834   5.104   2.434   1.898
 6745SOL    HW121835   5.053   2.397   1.975
 6745SOL    HW221836   5.202   2.427   1.916
 6746SOL     OW21837   4.243   2.124   2.140
 6746SOL    HW121838   4.295   2.063   2.080
 6746SOL    HW221839   4.222   2.208   2.092
 6747SOL     OW21840   5.484   3.118   3.403
 6747SOL    HW121841   5.568   3.068   3.383
 6747SOL    HW221842   5.506   3.211   3.433
 6748SOL     OW21843   4.790   3.245   3.292
 6748SOL    HW121844   4.704   3.198   3.315
 6748SOL    HW221845   4.867   3.190   3.323
 6749SOL     OW21846   5.345   3.497   3.540
 6749SOL    HW121847   5.307   3.528   3.453
 6749SOL    HW221848   5.431   3.450   3.524
 6750SOL     OW21849   4.848   3.156   3.038
 6750SOL    HW121850   4.830   3.185   3.132
 6750SOL    HW221851   4.762   3.138   2.991
 6751SOL     OW21852   5.282   2.946   2.991
 6751SOL    HW121853   5.314   3.017   3.054
 6751SOL    HW221854   5.182   2.938   2.997
 6752SOL     OW21855   4.682   1.851   3.247
 6752SOL    HW121856   4.692   1.837   3.149
 6752SOL    HW221857   4.759   1.904   3.282
 6753SOL     OW21858   4.744   3.046   3.543
 6753SOL    HW121859   4.661   3.058   3.598
 6753SOL    HW221860   4.733   2.967   3.484
 6754SOL     OW21861   4.430   2.935   2.193
 6754SOL    HW121862   4.344   2.903   2.233
 6754SOL    HW221863   4.501   2.866   2.206
 6755SOL     OW21864   4.988   2.163   3.144
 6755SOL    HW121865   5.024   2.256   3.138
 6755SOL    HW221866   4.893   2.162   3.113
 6756SOL     OW21867   3.707   3.481   3.216
 6756SOL    HW121868   3.636   3.515   3.155
 6756SOL    HW221869   3.796   3.516   3.187
 6757SOL     OW21870   4.152   2.900   2.213
 6757SOL    HW121871   4.119   2.992   2.193
 6757SOL    HW221872   4.100   2.834   2.159
 6758SOL     OW21873   4.298   2.259   2.663
 6758SOL    HW121874   4.307   2.324   2.588
 6758SOL    HW221875   4.386   2.245   2.706
 6759SOL     OW21876   5.049   3.328   2.981
 6759SOL    HW121877   5.100   3.337   3.066
 6759SOL    HW221878   4.974   3.263   2.993
 6760SOL     OW21879   5.295   2.534   2.262
 6760SOL    HW121880   5.226   2.582   2.208
 6760SOL    HW221881   5.384   2.576   2.247
 6761SOL     OW21882   4.111   3.367   3.179
 6761SOL    HW121883   4.098   3.312   3.096
 6761SOL    HW221884   4.207   3.392   3.188
 6762SOL     OW21885   5.338   2.679   3.581
 6762SOL    HW121886   5.250   2.727   3.584
 6762SOL    HW221887   5.387   2.705   3.498
 6763SOL     OW21888   4.792   1.953   3.672
 6763SOL    HW121889   4.865   2.016   3.646
 6763SOL    HW221890   4.811   1.862   3.635
 6764SOL     OW21891   4.205   1.877   3.601
 6764SOL    HW121892   4.151   1.837   3.527
 6764SOL    HW221893   4.154   1.951   3.644
 6765SOL     OW21894   4.926   2.358   2.094
 6765SOL    HW121895   4.946   2.283   2.156
 6765SOL    HW221896   4.870   2.427   2.140
 6766SOL     OW21897   4.033   2.081   3.125
 6766SOL    HW121898   4.109   2.091   3.190
 6766SOL    HW221899   4.009   1.984   3.116
 6767SOL     OW21900   3.799   3.218   3.202
 6767SOL    HW121901   3.782   3.160   3.281
 6767SOL    HW221902   3.758   3.308   3.217
 6768SOL     OW21903   5.515   2.838   3.727
 6768SOL    HW121904   5.455   2.773   3.681
 6768SOL    HW221905   5.471   2.868   3.812
 6769SOL     OW21906   4.049   1.913   2.506
 6769SOL    HW121907   4.003   2.001   2.507
 6769SOL    HW221908   4.056   1.878   2.600
 6770SOL     OW21909   5.348   2.270   2.183
 6770SOL    HW121910   5.383   2.210   2.255
 6770SOL    HW221911   5.314   2.355   2.223
 6771SOL     OW21912   4.755   3.453   3.634
 6771SOL    HW121913   4.712   3.508   3.562
 6771SOL    HW221914   4.804   3.376   3.593
 6772SOL     OW21915   5.577   3.372   3.452
 6772SOL    HW121916   5.591   3.397   3.356
 6772SOL    HW221917   5.663   3.382   3.502
 6773SOL     OW21918   4.134   2.828   3.672
 6773SOL    HW121919   4.226   2.848   3.706
 6773SOL    HW221920   4.138   2.811   3.574
 6774SOL     OW21921   5.253   2.118   1.970
 6774SOL    HW121922   5.199   2.042   2.005
 6774SOL    HW221923   5.283   2.176   2.045
 6775SOL     OW21924   4.996   2.684   1.883
 6775SOL    HW121925   5.027   2.589   1.882
 6775SOL    HW221926   5.020   2.728   1.796
 6776SOL     OW21927   4.031   2.337   2.686
 6776SOL    HW121928   3.990   2.306   2.772
 6776SOL    HW221929   4.129   2.317   2.686
 6777SOL     OW21930   4.995   2.108   3.565
 6777SOL    HW121931   4.989   2.207   3.559
 6777SOL    HW221932   5.090   2.080   3.573
 6778SOL     OW21933   4.908   1.981   3.337
 6778SOL    HW121934   4.931   2.028   3.423
 6778SOL    HW221935   4.941   2.035   3.260
 6779SOL     OW21936   3.780   3.126   2.049
 6779SOL    HW121937   3.691   3.166   2.026
 6779SOL    HW221938   3.767   3.030   2.074
 6780SOL     OW21939   3.728   3.614   2.847
 6780SOL    HW121940   3.721   3.516   2.832
 6780SOL    HW221941   3.825   3.641   2.847
 6781SOL     OW21942   4.222   3.449   2.823
 6781SOL    HW121943   4.294   3.510   2.857
 6781SOL    HW221944   4.252   3.407   2.737
 6782SOL     OW21945   5.119   2.840   3.541
 6782SOL    HW121946   5.154   2.933   3.549
 6782SOL    HW221947   5.114   2.814   3.444
 6783SOL     OW21948   4.511   2.413   2.176
 6783SOL    HW121949   4.513   2.324   2.130
 6783SOL    HW221950   4.439   2.470   2.135
 6784SOL     OW21951   5.385   2.446   3.036
 6784SOL    HW121952   5.400   2.372   3.102
 6784SOL    HW221953   5.473   2.478   3.002
 6785SOL     OW21954   3.939   3.354   3.561
 6785SOL    HW121955   3.907   3.402   3.643
 6785SOL    HW221956   3.958   3.259   3.583
 6786SOL     OW21957   4.470   2.151   3.120
 6786SOL    HW121958   4.417   2.090   3.060
 6786SOL    HW221959   4.412   2.186   3.193
 6787SOL     OW21960   4.640   3.589   3.416
 6787SOL    HW121961   4.644   3.540   3.329
 6787SOL    HW221962   4.662   3.686   3.401
 6788SOL     OW21963   4.173   2.346   1.994
 6788SOL    HW121964   4.240   2.420   2.004
 6788SOL    HW221965   4.080   2.384   2.004
 6789SOL     OW21966   3.816   3.000   3.390
 6789SOL    HW121967   3.824   2.941   3.470
 6789SOL    HW221968   3.854   2.953   3.310
 6790SOL     OW21969   5.006   2.938   3.081
 6790SOL    HW121970   4.953   2.860   3.046
 6790SOL    HW221971   4.956   3.023   3.064
 6791SOL     OW21972   5.114   2.694   2.134
 6791SOL    HW121973   5.053   2.700   2.214
 6791SOL    HW221974   5.058   2.689   2.051
 6792SOL     OW21975   5.496   3.552   2.991
 6792SOL    HW121976   5.563   3.581   2.923
 6792SOL    HW221977   5.467   3.459   2.972
 6793SOL     OW21978   5.007   3.598   2.965
 6793SOL    HW121979   5.096   3.640   2.944
 6793SOL    HW221980   5.018   3.499   2.971
 6794SOL     OW21981   3.832   3.111   2.961
 6794SOL    HW121982   3.828   3.152   3.052
 6794SOL    HW221983   3.753   3.051   2.948
 6795SOL     OW21984   4.420   3.545   3.576
 6795SOL    HW121985   4.346   3.613   3.573
 6795SOL    HW221986   4.494   3.575   3.516
 6796SOL     OW21987   5.485   2.088   2.343
 6796SOL    HW121988   5.536   2.065   2.261
 6796SOL    HW221989   5.439   2.007   2.379
 6797SOL     OW21990   3.885   3.706   3.698
 6797SOL    HW121991   3.856   3.612   3.719
 6797SOL    HW221992   3.930   3.746   3.778
 6798SOL     OW21993   5.016   2.716   2.397
 6798SOL    HW121994   5.095   2.679   2.446
 6798SOL    HW221995   5.006   2.813   2.419
 6799SOL     OW21996   4.526   3.148   3.290
 6799SOL    HW121997   4.493   3.194   3.373
 6799SOL    HW221998   4.453   3.146   3.222
 6800SOL     OW21999   4.404   3.481   1.971
 6800SOL    HW122000   4.411   3.506   1.874
 6800SOL    HW222001   4.349   3.397   1.979
 6801SOL     OW22002   5.361   3.567   3.237
 6801SOL    HW122003   5.406   3.562   3.148
 6801SOL    HW222004   5.397   3.644   3.289
 6802SOL     OW22005   5.559   2.018   2.868
 6802SOL    HW122006   5.592   1.932   2.831
 6802SOL    HW222007   5.481   2.050   2.815
 6803SOL     OW22008   3.930   2.157   2.509
 6803SOL    HW122009   3.834   2.182   2.497
 6803SOL    HW222010   3.971   2.218   2.577
 6804SOL     OW22011   4.943   3.412   1.898
 6804SOL    HW122012   4.940   3.320   1.937
 6804SOL    HW222013   4.871   3.420   1.828
 6805SOL     OW22014   4.650   2.940   3.166
 6805SOL    HW122015   4.636   2.959   3.068
 6805SOL    HW222016   4.603   3.010   3.220
 6806SOL     OW22017   4.645   2.765   2.173
 6806SOL    HW122018   4.706   2.811   2.109
 6806SOL    HW222019   4.684   2.676   2.198
 6807SOL     OW22020   5.213   3.491   1.911
 6807SOL    HW122021   5.119   3.456   1.901
 6807SOL    HW222022   5.254   3.500   1.820
 6808SOL     OW22023   4.077   3.130   3.316
 6808SOL    HW122024   4.080   3.221   3.273
 6808SOL    HW222025   3.987   3.115   3.355
 6809SOL     OW22026   5.334   3.147   3.170
 6809SOL    HW122027   5.390   3.130   3.252
 6809SOL    HW222028   5.269   3.220   3.189
 6810SOL     OW22029   4.741   2.012   2.804
 6810SOL    HW122030   4.741   1.976   2.711
 6810SOL    HW222031   4.735   1.937   2.870
 6811SOL     OW22032   5.499   2.254   3.232
 6811SOL    HW122033   5.575   2.317   3.245
 6811SOL    HW222034   5.533   2.166   3.199
 6812SOL     OW22035   4.040   3.156   2.146
 6812SOL    HW122036   3.947   3.147   2.110
 6812SOL    HW222037   4.039   3.215   2.227
 6813SOL     OW22038   3.830   2.861   3.628
 6813SOL    HW122039   3.744   2.847   3.676
 6813SOL    HW222040   3.900   2.801   3.667
 6814SOL     OW22041   4.452   1.947   3.372
 6814SOL    HW122042   4.534   1.926   3.319
 6814SOL    HW222043   4.478   1.977   3.464
 6815SOL     OW22044   3.875   2.245   1.719
 6815SOL    HW122045   3.776   2.232   1.729
 6815SOL    HW222046   3.896   2.342   1.717
 6816SOL     OW22047   5.145   2.807   3.274
 6816SOL    HW122048   5.091   2.852   3.203
 6816SOL    HW222049   5.224   2.763   3.232
 6817SOL     OW22050   3.738   1.975   2.091
 6817SOL    HW122051   3.691   2.029   2.022
 6817SOL    HW222052   3.835   1.966   2.065
 6818SOL     OW22053   4.888   3.139   1.969
 6818SOL    HW122054   4.798   3.174   1.943
 6818SOL    HW222055   4.879   3.045   2.001
 6819SOL     OW22056   5.260   3.688   2.904
 6819SOL    HW122057   5.286   3.745   2.827
 6819SOL    HW222058   5.341   3.642   2.941
 6820SOL     OW22059   5.226   3.092   3.520
 6820SOL    HW122060   5.225   3.106   3.619
 6820SOL    HW222061   5.320   3.103   3.486
 6821SOL     OW22062   4.042   3.577   3.436
 6821SOL    HW122063   3.957   3.627   3.422
 6821SOL    HW222064   4.023   3.486   3.470
 6822SOL     OW22065   5.357   2.710   3.130
 6822SOL    HW122066   5.365   2.620   3.088
 6822SOL    HW222067   5.348   2.780   3.058
 6823SOL     OW22068   4.956   2.168   2.293
 6823SOL    HW122069   5.009   2.084   2.287
 6823SOL    HW222070   4.981   2.217   2.376
 6824SOL     OW22071   4.347   2.464   2.480
 6824SOL    HW122072   4.367   2.550   2.527
 6824SOL    HW222073   4.285   2.482   2.404
 6825SOL     OW22074   5.460   2.229   3.506
 6825SOL    HW122075   5.466   2.239   3.407
 6825SOL    HW222076   5.391   2.160   3.528
 6826SOL     OW22077   5.472   2.774   3.366
 6826SOL    HW122078   5.474   2.874   3.372
 6826SOL    HW222079   5.437   2.747   3.276
 6827SOL     OW22080   4.632   3.229   1.908
 6827SOL    HW122081   4.583   3.228   1.995
 6827SOL    HW222082   4.634   3.322   1.872
 6828SOL     OW22083   4.422   3.624   2.891
 6828SOL    HW122084   4.374   3.682   2.957
 6828SOL    HW222085   4.497   3.676   2.850
 6829SOL     OW22086   4.820   2.867   1.980
 6829SOL    HW122087   4.774   2.904   1.899
 6829SOL    HW222088   4.883   2.795   1.953
 6830SOL     OW22089   5.637   3.358   2.696
 6830SOL    HW122090   5.542   3.369   2.669
 6830SOL    HW222091   5.648   3.273   2.748
 6831SOL     OW22092   3.964   3.100   3.660
 6831SOL    HW122093   3.914   3.014   3.651
 6831SOL    HW222094   3.970   3.125   3.757
 6832SOL     OW22095   4.427   3.283   3.504
 6832SOL    HW122096   4.340   3.237   3.522
 6832SOL    HW222097   4.419   3.380   3.529
 6833SOL     OW22098   5.589   2.013   3.140
 6833SOL    HW122099   5.661   1.944   3.150
 6833SOL    HW222100   5.564   2.022   3.043
 6834SOL     OW22101   4.085   2.279   2.311
 6834SOL    HW122102   4.137   2.212   2.258
 6834SOL    HW222103   4.026   2.232   2.377
 6835SOL     OW22104   5.412   3.303   2.949
 6835SOL    HW122105   5.343   3.280   2.881
 6835SOL    HW222106   5.405   3.240   3.027
 6836SOL     OW22107   5.151   2.078   2.947
 6836SOL    HW122108   5.178   1.982   2.955
 6836SOL    HW222109   5.096   2.104   3.026
 6837SOL     OW22110   4.744   1.787   2.977
 6837SOL    HW122111   4.687   1.705   2.971
 6837SOL    HW222112   4.839   1.764   2.958
 6838SOL     OW22113   4.474   3.194   2.124
 6838SOL    HW122114   4.469   3.101   2.160
 6838SOL    HW222115   4.385   3.219   2.084
 6839SOL     OW22116   4.380   3.431   3.185
 6839SOL    HW122117   4.346   3.509   3.236
 6839SOL    HW222118   4.480   3.431   3.185
 6840SOL     OW22119   5.115   1.886   2.034
 6840SOL    HW122120   5.162   1.814   1.984
 6840SOL    HW222121   5.021   1.859   2.053
 6841SOL     OW22122   5.027   2.291   2.527
 6841SOL    HW122123   4.967   2.370   2.513
 6841SOL    HW222124   5.002   2.244   2.612
 6842SOL     OW22125   5.335   2.107   2.746
 6842SOL    HW122126   5.265   2.109   2.817
 6842SOL    HW222127   5.325   2.186   2.686
 6843SOL     OW22128   3.786   2.858   2.159
 6843SOL    HW122129   3.866   2.839   2.102
 6843SOL    HW222130   3.766   2.777   2.215
 6844SOL     OW22131   4.570   3.680   2.073
 6844SOL    HW122132   4.527   3.594   2.047
 6844SOL    HW222133   4.669   3.673   2.064
 6845SOL     OW22134   3.947   2.126   4.721
 6845SOL    HW122135   3.987   2.094   4.807
 6845SOL    HW222136   3.853   2.093   4.713
 6846SOL     OW22137   3.606   2.267   4.315
 6846SOL    HW122138   3.527   2.269   4.376
 6846SOL    HW222139   3.624   2.173   4.286
 6847SOL     OW22140   4.381   3.197   4.955
 6847SOL    HW122141   4.287   3.183   4.926
 6847SOL    HW222142   4.397   3.294   4.971
 6848SOL     OW22143   4.934   2.514   4.462
 6848SOL    HW122144   4.934   2.579   4.385
 6848SOL    HW222145   4.868   2.544   4.531
 6849SOL     OW22146   5.538   2.442   3.926
 6849SOL    HW122147   5.511   2.449   3.830
 6849SOL    HW222148   5.477   2.379   3.974
 6850SOL     OW22149   4.532   2.983   4.872
 6850SOL    HW122150   4.477   3.062   4.897
 6850SOL    HW222151   4.496   2.943   4.787
 6851SOL     OW22152   4.611   2.581   5.571
 6851SOL    HW122153   4.610   2.637   5.653
 6851SOL    HW222154   4.624   2.640   5.491
 6852SOL     OW22155   4.407   3.015   5.572
 6852SOL    HW122156   4.456   3.093   5.611
 6852SOL    HW222157   4.322   3.047   5.530
 6853SOL     OW22158   4.121   3.203   4.869
 6853SOL    HW122159   4.083   3.111   4.864
 6853SOL    HW222160   4.111   3.248   4.780
 6854SOL     OW22161   5.144   3.365   5.116
 6854SOL    HW122162   5.208   3.440   5.128
 6854SOL    HW222163   5.079   3.363   5.192
 6855SOL     OW22164   4.228   2.221   5.168
 6855SOL    HW122165   4.306   2.161   5.185
 6855SOL    HW222166   4.145   2.180   5.207
 6856SOL     OW22167   5.322   2.281   4.468
 6856SOL    HW122168   5.231   2.258   4.434
 6856SOL    HW222169   5.330   2.380   4.480
 6857SOL     OW22170   3.891   3.558   4.170
 6857SOL    HW122171   3.859   3.617   4.245
 6857SOL    HW222172   3.985   3.583   4.147
 6858SOL     OW22173   4.840   3.183   5.488
 6858SOL    HW122174   4.889   3.166   5.573
 6858SOL    HW222175   4.777   3.107   5.470
 6859SOL     OW22176   3.981   3.298   4.159
 6859SOL    HW122177   3.945   3.391   4.162
 6859SOL    HW222178   3.938   3.244   4.231
 6860SOL     OW22179   4.028   2.959   4.811
 6860SOL    HW122180   4.091   2.886   4.781
 6860SOL    HW222181   3.934   2.925   4.807
 6861SOL     OW22182   4.314   3.699   5.125
 6861SOL    HW122183   4.232   3.674   5.178
 6861SOL    HW222184   4.363   3.772   5.173
 6862SOL     OW22185   4.384   2.892   3.752
 6862SOL    HW122186   4.414   2.986   3.740
 6862SOL    HW222187   4.461   2.830   3.732
 6863SOL     OW22188   5.310   2.005   5.184
 6863SOL    HW122189   5.369   2.078   5.150
 6863SOL    HW222190   5.269   2.034   5.270
 6864SOL     OW22191   3.836   2.372   4.415
 6864SOL    HW122192   3.754   2.336   4.371
 6864SOL    HW222193   3.811   2.450   4.474
 6865SOL     OW22194   5.606   3.619   4.057
 6865SOL    HW122195   5.684   3.604   4.118
 6865SOL    HW222196   5.612   3.710   4.017
 6866SOL     OW22197   3.798   3.462   3.766
 6866SOL    HW122198   3.753   3.373   3.775
 6866SOL    HW222199   3.769   3.521   3.841
 6867SOL     OW22200   5.413   2.800   4.412
 6867SOL    HW122201   5.505   2.762   4.421
 6867SOL    HW222202   5.408   2.856   4.329
 6868SOL     OW22203   5.432   2.971   4.194
 6868SOL    HW122204   5.516   2.955   4.142
 6868SOL    HW222205   5.445   3.048   4.255
 6869SOL     OW22206   3.811   2.620   5.261
 6869SOL    HW122207   3.861   2.667   5.188
 6869SOL    HW222208   3.726   2.669   5.280
 6870SOL     OW22209   4.988   3.046   5.173
 6870SOL    HW122210   5.011   2.993   5.092
 6870SOL    HW222211   5.065   3.048   5.236
 6871SOL     OW22212   4.511   1.821   4.229
 6871SOL    HW122213   4.573   1.900   4.232
 6871SOL    HW222214   4.416   1.853   4.229
 6872SOL     OW22215   3.911   2.773   5.058
 6872SOL    HW122216   4.000   2.740   5.025
 6872SOL    HW222217   3.858   2.808   4.981
 6873SOL     OW22218   5.318   2.891   3.948
 6873SOL    HW122219   5.271   2.804   3.958
 6873SOL    HW222220   5.348   2.924   4.037
 6874SOL     OW22221   4.908   3.655   5.381
 6874SOL    HW122222   4.950   3.720   5.317
 6874SOL    HW222223   4.923   3.562   5.348
 6875SOL     OW22224   4.086   2.142   5.599
 6875SOL    HW122225   4.122   2.220   5.650
 6875SOL    HW222226   3.999   2.167   5.557
 6876SOL     OW22227   5.355   3.743   4.260
 6876SOL    HW122228   5.350   3.678   4.184
 6876SOL    HW222229   5.336   3.696   4.346
 6877SOL     OW22230   5.020   2.222   4.704
 6877SOL    HW122231   4.934   2.172   4.706
 6877SOL    HW222232   5.081   2.185   4.774
 6878SOL     OW22233   5.337   3.572   4.046
 6878SOL    HW122234   5.437   3.576   4.050
 6878SOL    HW222235   5.308   3.553   3.953
 6879SOL     OW22236   4.513   2.424   5.164
 6879SOL    HW122237   4.483   2.400   5.257
 6879SOL    HW222238   4.484   2.352   5.101
 6880SOL     OW22239   5.103   2.333   5.399
 6880SOL    HW122240   5.109   2.382   5.486
 6880SOL    HW222241   5.152   2.246   5.407
 6881SOL     OW22242   4.652   2.736   5.334
 6881SOL    HW122243   4.708   2.667   5.288
 6881SOL    HW222244   4.601   2.787   5.265
 6882SOL     OW22245   4.736   2.219   4.925
 6882SOL    HW122246   4.639   2.232   4.945
 6882SOL    HW222247   4.746   2.165   4.842
 6883SOL     OW22248   3.766   2.592   4.577
 6883SOL    HW122249   3.861   2.602   4.608
 6883SOL    HW222250   3.740   2.671   4.521
 6884SOL     OW22251   3.839   3.725   5.288
 6884SOL    HW122252   3.835   3.689   5.381
 6884SOL    HW222253   3.746   3.729   5.250
 6885SOL     OW22254   4.676   2.058   3.915
 6885SOL    HW122255   4.729   2.142   3.923
 6885SOL    HW222256   4.719   1.997   3.847
 6886SOL     OW22257   5.388   2.436   5.561
 6886SOL    HW122258   5.373   2.519   5.507
 6886SOL    HW222259   5.411   2.360   5.500
 6887SOL     OW22260   4.284   1.977   4.670
 6887SOL    HW122261   4.297   1.987   4.768
 6887SOL    HW222262   4.288   2.067   4.626
 6888SOL     OW22263   4.711   3.317   4.189
 6888SOL    HW122264   4.680   3.393   4.131
 6888SOL    HW222265   4.703   3.343   4.285
 6889SOL     OW22266   5.471   2.912   4.657
 6889SOL    HW122267   5.439   2.886   4.566
 6889SOL    HW222268   5.392   2.936   4.714
 6890SOL     OW22269   4.933   3.373   5.297
 6890SOL    HW122270   4.931   3.315   5.378
 6890SOL    HW222271   4.870   3.338   5.228
 6891SOL     OW22272   4.016   2.919   3.901
 6891SOL    HW122273   4.088   2.952   3.962
 6891SOL    HW222274   4.058   2.881   3.818
 6892SOL     OW22275   5.300   2.554   4.479
 6892SOL    HW122276   5.239   2.547   4.557
 6892SOL    HW222277   5.327   2.650   4.467
 6893SOL     OW22278   4.180   3.155   5.498
 6893SOL    HW122279   4.164   3.144   5.400
 6893SOL    HW222280   4.093   3.160   5.546
 6894SOL     OW22281   4.876   3.625   3.996
 6894SOL    HW122282   4.782   3.600   4.019
 6894SOL    HW222283   4.911   3.563   3.926
 6895SOL     OW22284   3.974   2.123   5.223
 6895SOL    HW122285   3.921   2.208   5.223
 6895SOL    HW222286   3.923   2.052   5.271
 6896SOL     OW22287   5.389   3.280   3.839
 6896SOL    HW122288   5.341   3.366   3.825
 6896SOL    HW222289   5.326   3.204   3.824
 6897SOL     OW22290   4.148   3.602   4.100
 6897SOL    HW122291   4.209   3.678   4.123
 6897SOL    HW222292   4.198   3.516   4.107
 6898SOL     OW22293   5.136   1.955   4.164
 6898SOL    HW122294   5.135   1.933   4.067
 6898SOL    HW222295   5.229   1.943   4.200
 6899SOL     OW22296   3.988   3.599   4.944
 6899SOL    HW122297   4.035   3.529   4.998
 6899SOL    HW222298   4.042   3.618   4.862
 6900SOL     OW22299   5.208   2.075   5.438
 6900SOL    HW122300   5.221   2.095   5.535
 6900SOL    HW222301   5.139   2.004   5.428
 6901SOL     OW22302   4.401   2.026   3.873
 6901SOL    HW122303   4.498   2.034   3.896
 6901SOL    HW222304   4.391   1.993   3.779
 6902SOL     OW22305   4.505   2.122   5.485
 6902SOL    HW122306   4.590   2.069   5.486
 6902SOL    HW222307   4.443   2.086   5.555
 6903SOL     OW22308   4.677   3.434   5.056
 6903SOL    HW122309   4.754   3.463   4.999
 6903SOL    HW222310   4.693   3.343   5.092
 6904SOL     OW22311   5.024   2.448   5.166
 6904SOL    HW122312   5.062   2.416   5.253
 6904SOL    HW222313   5.060   2.540   5.147
 6905SOL     OW22314   4.664   2.313   4.596
 6905SOL    HW122315   4.626   2.293   4.506
 6905SOL    HW222316   4.708   2.231   4.632
 6906SOL     OW22317   4.260   1.919   4.201
 6906SOL    HW122318   4.186   1.915   4.269
 6906SOL    HW222319   4.254   2.006   4.152
 6907SOL     OW22320   5.200   3.088   3.795
 6907SOL    HW122321   5.238   3.011   3.846
 6907SOL    HW222322   5.108   3.109   3.828
 6908SOL     OW22323   4.038   1.888   3.913
 6908SOL    HW122324   4.077   1.958   3.853
 6908SOL    HW222325   4.112   1.828   3.945
 6909SOL     OW22326   4.678   2.044   4.197
 6909SOL    HW122327   4.661   2.038   4.099
 6909SOL    HW222328   4.771   2.076   4.213
 6910SOL     OW22329   4.767   2.545   5.179
 6910SOL    HW122330   4.692   2.478   5.181
 6910SOL    HW222331   4.855   2.496   5.176
 6911SOL     OW22332   3.847   2.367   5.155
 6911SOL    HW122333   3.929   2.377   5.099
 6911SOL    HW222334   3.825   2.453   5.200
 6912SOL     OW22335   4.305   2.023   4.936
 6912SOL    HW122336   4.329   1.949   4.998
 6912SOL    HW222337   4.208   2.046   4.946
 6913SOL     OW22338   4.544   2.234   4.363
 6913SOL    HW122339   4.446   2.237   4.343
 6913SOL    HW222340   4.590   2.174   4.297
 6914SOL     OW22341   4.767   1.939   4.455
 6914SOL    HW122342   4.729   1.979   4.372
 6914SOL    HW222343   4.715   1.857   4.479
 6915SOL     OW22344   5.166   2.482   4.714
 6915SOL    HW122345   5.110   2.399   4.706
 6915SOL    HW222346   5.244   2.463   4.774
 6916SOL     OW22347   5.551   2.644   4.108
 6916SOL    HW122348   5.612   2.610   4.180
 6916SOL    HW222349   5.547   2.578   4.033
 6917SOL     OW22350   4.231   3.281   3.799
 6917SOL    HW122351   4.140   3.273   3.840
 6917SOL    HW222352   4.235   3.228   3.715
 6918SOL     OW22353   5.512   3.156   4.383
 6918SOL    HW122354   5.609   3.131   4.380
 6918SOL    HW222355   5.500   3.233   4.446
 6919SOL     OW22356   4.244   2.153   4.056
 6919SOL    HW122357   4.304   2.111   3.988
 6919SOL    HW222358   4.178   2.211   4.009
 6920SOL     OW22359   5.465   3.083   5.236
 6920SOL    HW122360   5.553   3.040   5.216
 6920SOL    HW222361   5.480   3.172   5.278
 6921SOL     OW22362   4.761   3.196   5.154
 6921SOL    HW122363   4.676   3.159   5.191
 6921SOL    HW222364   4.836   3.135   5.178
 6922SOL     OW22365   5.327   3.475   5.413
 6922SOL    HW122366   5.307   3.518   5.325
 6922SOL    HW222367   5.408   3.417   5.405
 6923SOL     OW22368   4.792   3.063   4.910
 6923SOL    HW122369   4.786   3.122   4.991
 6923SOL    HW222370   4.701   3.030   4.885
 6924SOL     OW22371   5.249   2.975   4.816
 6924SOL    HW122372   5.282   3.041   4.883
 6924SOL    HW222373   5.162   2.935   4.848
 6925SOL     OW22374   4.668   1.910   5.122
 6925SOL    HW122375   4.685   1.886   5.026
 6925SOL    HW222376   4.748   1.956   5.160
 6926SOL     OW22377   4.669   2.963   5.483
 6926SOL    HW122378   4.574   2.982   5.509
 6926SOL    HW222379   4.672   2.881   5.426
 6927SOL     OW22380   4.153   2.654   4.998
 6927SOL    HW122381   4.226   2.665   5.066
 6927SOL    HW222382   4.120   2.560   5.000
 6928SOL     OW22383   4.982   2.215   5.037
 6928SOL    HW122384   5.002   2.302   5.081
 6928SOL    HW222385   4.892   2.219   4.994
 6929SOL     OW22386   3.836   3.394   5.163
 6929SOL    HW122387   3.795   3.472   5.116
 6929SOL    HW222388   3.933   3.411   5.180
 6930SOL     OW22389   4.304   2.245   4.598
 6930SOL    HW122390   4.303   2.250   4.498
 6930SOL    HW222391   4.367   2.314   4.635
 6931SOL     OW22392   4.975   3.249   4.137
 6931SOL    HW122393   5.026   3.333   4.156
 6931SOL    HW222394   4.880   3.261   4.164
 6932SOL     OW22395   4.940   3.406   4.933
 6932SOL    HW122396   5.013   3.384   4.996
 6932SOL    HW222397   4.930   3.332   4.866
 6933SOL     OW22398   5.344   2.494   4.212
 6933SOL    HW122399   5.317   2.512   4.307
 6933SOL    HW222400   5.409   2.565   4.183
 6934SOL     OW22401   4.118   3.385   5.070
 6934SOL    HW122402   4.113   3.315   4.998
 6934SOL    HW222403   4.214   3.409   5.086
 6935SOL     OW22404   4.218   2.555   5.398
 6935SOL    HW122405   4.251   2.602   5.316
 6935SOL    HW222406   4.284   2.485   5.424
 6936SOL     OW22407   5.345   2.666   5.423
 6936SOL    HW122408   5.250   2.696   5.421
 6936SOL    HW222409   5.391   2.696   5.340
 6937SOL     OW22410   4.729   1.970   5.494
 6937SOL    HW122411   4.789   2.049   5.486
 6937SOL    HW222412   4.780   1.887   5.469
 6938SOL     OW22413   4.218   1.924   5.491
 6938SOL    HW122414   4.163   1.869   5.428
 6938SOL    HW222415   4.169   2.008   5.513
 6939SOL     OW22416   4.221   2.763   4.757
 6939SOL    HW122417   4.318   2.752   4.734
 6939SOL    HW222418   4.204   2.725   4.848
 6940SOL     OW22419   4.990   2.691   4.743
 6940SOL    HW122420   4.901   2.656   4.712
 6940SOL    HW222421   5.059   2.620   4.732
 6941SOL     OW22422   4.035   2.040   4.967
 6941SOL    HW122423   4.013   2.079   5.056
 6941SOL    HW222424   4.001   1.946   4.962
 6942SOL     OW22425   3.817   3.156   5.029
 6942SOL    HW122426   3.838   3.084   5.096
 6942SOL    HW222427   3.824   3.245   5.073
 6943SOL     OW22428   4.457   2.431   4.727
 6943SOL    HW122429   4.539   2.396   4.682
 6943SOL    HW222430   4.456   2.531   4.722
 6944SOL     OW22431   5.505   2.833   5.580
 6944SOL    HW122432   5.449   2.766   5.531
 6944SOL    HW222433   5.457   2.863   5.662
 6945SOL     OW22434   4.045   1.915   4.371
 6945SOL    HW122435   4.026   2.012   4.390
 6945SOL    HW222436   4.054   1.865   4.457
 6946SOL     OW22437   5.337   2.284   4.044
 6946SOL    HW122438   5.390   2.210   4.086
 6946SOL    HW222439   5.326   2.359   4.110
 6947SOL     OW22440   4.752   2.562   4.674
 6947SOL    HW122441   4.724   2.571   4.770
 6947SOL    HW222442   4.731   2.470   4.641
 6948SOL     OW22443   4.706   3.420   5.535
 6948SOL    HW122444   4.681   3.483   5.462
 6948SOL    HW222445   4.739   3.334   5.496
 6949SOL     OW22446   5.552   3.333   5.315
 6949SOL    HW122447   5.567   3.365   5.222
 6949SOL    HW222448   5.635   3.347   5.369
 6950SOL     OW22449   4.108   2.767   5.547
 6950SOL    HW122450   4.176   2.792   5.616
 6950SOL    HW222451   4.143   2.691   5.492
 6951SOL     OW22452   5.247   2.130   3.827
 6951SOL    HW122453   5.198   2.051   3.863
 6951SOL    HW222454   5.283   2.185   3.902
 6952SOL     OW22455   4.018   2.604   4.664
 6952SOL    HW122456   4.093   2.668   4.683
 6952SOL    HW222457   4.047   2.511   4.687
 6953SOL     OW22458   4.093   2.350   4.739
 6953SOL    HW122459   4.025   2.278   4.731
 6953SOL    HW222460   4.176   2.323   4.689
 6954SOL     OW22461   4.862   2.204   5.436
 6954SOL    HW122462   4.807   2.252   5.504
 6954SOL    HW222463   4.945   2.256   5.417
 6955SOL     OW22464   4.894   2.031   5.222
 6955SOL    HW122465   4.874   2.091   5.300
 6955SOL    HW222466   4.936   2.085   5.149
 6956SOL     OW22467   3.703   3.219   3.813
 6956SOL    HW122468   3.607   3.226   3.786
 6956SOL    HW222469   3.720   3.128   3.853
 6957SOL     OW22470   4.647   2.591   4.930
 6957SOL    HW122471   4.708   2.605   5.008
 6957SOL    HW222472   4.582   2.518   4.952
 6958SOL     OW22473   3.720   2.451   4.808
 6958SOL    HW122474   3.727   2.499   4.721
 6958SOL    HW222475   3.811   2.423   4.839
 6959SOL     OW22476   3.951   2.491   5.462
 6959SOL    HW122477   4.048   2.503   5.440
 6959SOL    HW222478   3.896   2.543   5.397
 6960SOL     OW22479   5.101   2.780   5.368
 6960SOL    HW122480   5.131   2.875   5.365
 6960SOL    HW222481   5.087   2.747   5.275
 6961SOL     OW22482   5.388   2.452   4.882
 6961SOL    HW122483   5.379   2.368   4.936
 6961SOL    HW222484   5.485   2.474   4.872
 6962SOL     OW22485   4.004   3.416   5.421
 6962SOL    HW122486   3.957   3.489   5.472
 6962SOL    HW222487   3.982   3.328   5.461
 6963SOL     OW22488   4.463   2.257   4.947
 6963SOL    HW122489   4.406   2.175   4.947
 6963SOL    HW222490   4.441   2.313   4.867
 6964SOL     OW22491   4.616   3.581   5.291
 6964SOL    HW122492   4.630   3.520   5.213
 6964SOL    HW222493   4.648   3.673   5.268
 6965SOL     OW22494   3.867   2.978   5.231
 6965SOL    HW122495   3.874   2.953   5.327
 6965SOL    HW222496   3.886   2.898   5.174
 6966SOL     OW22497   5.004   2.894   4.918
 6966SOL    HW122498   4.993   2.820   4.852
 6966SOL    HW222499   4.928   2.958   4.909
 6967SOL     OW22500   5.440   3.541   4.875
 6967SOL    HW122501   5.518   3.560   4.815
 6967SOL    HW222502   5.392   3.459   4.842
 6968SOL     OW22503   4.989   3.676   4.901
 6968SOL    HW122504   5.081   3.687   4.865
 6968SOL    HW222505   4.969   3.578   4.912
 6969SOL     OW22506   3.751   2.927   4.879
 6969SOL    HW122507   3.774   3.016   4.918
 6969SOL    HW222508   3.652   2.921   4.865
 6970SOL     OW22509   4.409   3.580   5.469
 6970SOL    HW122510   4.348   3.658   5.457
 6970SOL    HW222511   4.485   3.587   5.404
 6971SOL     OW22512   5.504   2.095   4.150
 6971SOL    HW122513   5.556   2.067   4.069
 6971SOL    HW222514   5.464   2.014   4.193
 6972SOL     OW22515   5.088   3.498   4.155
 6972SOL    HW122516   5.178   3.523   4.119
 6972SOL    HW222517   5.020   3.562   4.120
 6973SOL     OW22518   3.866   3.625   5.540
 6973SOL    HW122519   3.809   3.558   5.588
 6973SOL    HW222520   3.913   3.683   5.607
 6974SOL     OW22521   4.495   3.141   5.205
 6974SOL    HW122522   4.457   3.201   5.275
 6974SOL    HW222523   4.447   3.158   5.118
 6975SOL     OW22524   4.430   3.466   3.837
 6975SOL    HW122525   4.437   3.491   3.740
 6975SOL    HW222526   4.359   3.397   3.848
 6976SOL     OW22527   5.329   3.568   5.136
 6976SOL    HW122528   5.367   3.558   5.044
 6976SOL    HW222529   5.359   3.655   5.175
 6977SOL     OW22530   5.576   2.003   4.738
 6977SOL    HW122531   5.606   1.914   4.705
 6977SOL    HW222532   5.487   2.026   4.697
 6978SOL     OW22533   4.020   2.177   4.452
 6978SOL    HW122534   3.957   2.251   4.427
 6978SOL    HW222535   4.007   2.154   4.549
 6979SOL     OW22536   4.973   3.461   3.805
 6979SOL    HW122537   4.973   3.366   3.837
 6979SOL    HW222538   4.900   3.474   3.738
 6980SOL     OW22539   4.520   2.877   5.137
 6980SOL    HW122540   4.536   2.891   5.039
 6980SOL    HW222541   4.506   2.966   5.181
 6981SOL     OW22542   5.240   3.520   3.791
 6981SOL    HW122543   5.144   3.492   3.785
 6981SOL    HW222544   5.280   3.521   3.700
 6982SOL     OW22545   4.103   3.144   5.240
 6982SOL    HW122546   4.098   3.228   5.188
 6982SOL    HW222547   4.022   3.088   5.223
 6983SOL     OW22548   5.303   3.164   5.011
 6983SOL    HW122549   5.368   3.133   5.081
 6983SOL    HW222550   5.237   3.227   5.053
 6984SOL     OW22551   4.781   2.062   4.700
 6984SOL    HW122552   4.783   2.028   4.606
 6984SOL    HW222553   4.764   1.985   4.763
 6985SOL     OW22554   4.265   3.360   4.133
 6985SOL    HW122555   4.341   3.298   4.113
 6985SOL    HW222556   4.180   3.308   4.140
 6986SOL     OW22557   5.516   2.211   5.140
 6986SOL    HW122558   5.582   2.286   5.138
 6986SOL    HW222559   5.554   2.131   5.093
 6987SOL     OW22560   3.974   3.237   3.897
 6987SOL    HW122561   3.879   3.252   3.871
 6987SOL    HW222562   3.985   3.256   3.995
 6988SOL     OW22563   3.876   2.912   5.494
 6988SOL    HW122564   3.794   2.877   5.539
 6988SOL    HW222565   3.954   2.854   5.518
 6989SOL     OW22566   4.442   2.042   5.229
 6989SOL    HW122567   4.525   2.006   5.186
 6989SOL    HW222568   4.463   2.076   5.320
 6990SOL     OW22569   3.762   2.116   3.765
 6990SOL    HW122570   3.712   2.089   3.683
 6990SOL    HW222571   3.730   2.205   3.796
 6991SOL     OW22572   5.105   2.706   5.103
 6991SOL    HW122573   5.044   2.763   5.048
 6991SOL    HW222574   5.195   2.702   5.060
 6992SOL     OW22575   3.786   1.960   3.989
 6992SOL    HW122576   3.762   2.016   3.909
 6992SOL    HW222577   3.881   1.932   3.982
 6993SOL     OW22578   4.951   3.192   3.876
 6993SOL    HW122579   4.852   3.195   3.864
 6993SOL    HW222580   4.973   3.197   3.973
 6994SOL     OW22581   4.359   2.656   5.175
 6994SOL    HW122582   4.413   2.740   5.167
 6994SOL    HW222583   4.419   2.577   5.170
 6995SOL     OW22584   5.242   3.729   4.804
 6995SOL    HW122585   5.284   3.799   4.746
 6995SOL    HW222586   5.313   3.666   4.837
 6996SOL     OW22587   4.450   2.392   5.433
 6996SOL    HW122588   4.505   2.453   5.490
 6996SOL    HW222589   4.471   2.297   5.457
 6997SOL     OW22590   5.208   3.033   5.345
 6997SOL    HW122591   5.203   3.058   5.441
 6997SOL    HW222592   5.300   3.053   5.310
 6998SOL     OW22593   4.098   3.634   5.282
 6998SOL    HW122594   4.006   3.672   5.269
 6998SOL    HW222595   4.091   3.544   5.325
 6999SOL     OW22596   5.339   2.713   4.960
 6999SOL    HW122597   5.355   2.620   4.926
 6999SOL    HW222598   5.339   2.777   4.882
 7000SOL     OW22599   4.931   2.120   4.237
 7000SOL    HW122600   5.006   2.066   4.200
 7000SOL    HW222601   4.966   2.184   4.305
 7001SOL     OW22602   5.453   2.217   5.406
 7001SOL    HW122603   5.473   2.217   5.308
 7001SOL    HW222604   5.376   2.155   5.425
 7002SOL     OW22605   5.454   2.777   5.199
 7002SOL    HW122606   5.445   2.875   5.214
 7002SOL    HW222607   5.418   2.753   5.109
 7003SOL     OW22608   4.690   3.286   3.845
 7003SOL    HW122609   4.645   3.329   3.923
 7003SOL    HW222610   4.702   3.354   3.773
 7004SOL     OW22611   4.497   2.716   4.724
 7004SOL    HW122612   4.565   2.710   4.651
 7004SOL    HW222613   4.543   2.705   4.812
 7005SOL     OW22614   4.892   2.865   3.699
 7005SOL    HW122615   4.848   2.941   3.650
 7005SOL    HW222616   4.978   2.841   3.653
 7006SOL     OW22617   5.553   3.327   4.635
 7006SOL    HW122618   5.607   3.245   4.654
 7006SOL    HW222619   5.464   3.319   4.680
 7007SOL     OW22620   3.900   3.181   5.546
 7007SOL    HW122621   3.894   3.086   5.516
 7007SOL    HW222622   3.855   3.191   5.635
 7008SOL     OW22623   4.378   3.316   5.377
 7008SOL    HW122624   4.306   3.270   5.428
 7008SOL    HW222625   4.390   3.409   5.412
 7009SOL     OW22626   5.605   1.991   5.011
 7009SOL    HW122627   5.677   1.922   5.018
 7009SOL    HW222628   5.581   2.005   4.915
 7010SOL     OW22629   4.265   2.230   4.324
 7010SOL    HW122630   4.261   2.213   4.225
 7010SOL    HW222631   4.174   2.215   4.364
 7011SOL     OW22632   5.316   3.311   4.778
 7011SOL    HW122633   5.232   3.289   4.728
 7011SOL    HW222634   5.319   3.258   4.863
 7012SOL     OW22635   4.081   2.391   5.010
 7012SOL    HW122636   4.143   2.334   5.064
 7012SOL    HW222637   4.092   2.370   4.913
 7013SOL     OW22638   5.190   2.118   4.891
 7013SOL    HW122639   5.207   2.021   4.906
 7013SOL    HW222640   5.124   2.152   4.958
 7014SOL     OW22641   4.743   1.825   4.859
 7014SOL    HW122642   4.678   1.749   4.850
 7014SOL    HW222643   4.835   1.793   4.841
 7015SOL     OW22644   4.480   3.191   4.086
 7015SOL    HW122645   4.496   3.112   4.027
 7015SOL    HW222646   4.567   3.218   4.129
 7016SOL     OW22647   4.402   3.461   5.025
 7016SOL    HW122648   4.372   3.551   5.056
 7016SOL    HW222649   4.502   3.455   5.032
 7017SOL     OW22650   5.129   1.892   3.896
 7017SOL    HW122651   5.179   1.816   3.855
 7017SOL    HW222652   5.033   1.866   3.908
 7018SOL     OW22653   5.046   2.270   4.437
 7018SOL    HW122654   5.009   2.362   4.428
 7018SOL    HW222655   5.038   2.239   4.532
 7019SOL     OW22656   5.330   2.074   4.653
 7019SOL    HW122657   5.280   2.109   4.732
 7019SOL    HW222658   5.329   2.142   4.580
 7020SOL     OW22659   3.755   2.985   3.939
 7020SOL    HW122660   3.851   2.959   3.937
 7020SOL    HW222661   3.701   2.922   3.883
 7021SOL     OW22662   4.616   3.510   4.026
 7021SOL    HW122663   4.547   3.493   3.955
 7021SOL    HW222664   4.582   3.579   4.090
 7022SOL     OW22665   3.927   2.523   5.739
 7022SOL    HW122666   3.838   2.486   5.765
 7022SOL    HW222667   3.935   2.525   5.639
 7023SOL     OW22668   3.939   2.157   6.596
 7023SOL    HW122669   3.972   2.125   6.685
 7023SOL    HW222670   3.852   2.112   6.574
 7024SOL     OW22671   3.711   2.288   6.226
 7024SOL    HW122672   3.624   2.310   6.272
 7024SOL    HW222673   3.695   2.219   6.156
 7025SOL     OW22674   4.313   3.099   6.812
 7025SOL    HW122675   4.231   3.136   6.768
 7025SOL    HW222676   4.366   3.174   6.852
 7026SOL     OW22677   5.307   3.378   6.303
 7026SOL    HW122678   5.252   3.340   6.377
 7026SOL    HW222679   5.250   3.391   6.222
 7027SOL     OW22680   4.860   2.561   6.227
 7027SOL    HW122681   4.904   2.651   6.228
 7027SOL    HW222682   4.798   2.554   6.304
 7028SOL     OW22683   5.529   2.429   5.789
 7028SOL    HW122684   5.487   2.441   5.699
 7028SOL    HW222685   5.474   2.366   5.844
 7029SOL     OW22686   4.439   2.980   6.596
 7029SOL    HW122687   4.390   3.005   6.680
 7029SOL    HW222688   4.461   3.064   6.545
 7030SOL     OW22689   4.434   2.820   6.226
 7030SOL    HW122690   4.501   2.818   6.300
 7030SOL    HW222691   4.365   2.890   6.246
 7031SOL     OW22692   4.102   3.228   6.680
 7031SOL    HW122693   4.018   3.178   6.660
 7031SOL    HW222694   4.132   3.277   6.599
 7032SOL     OW22695   5.309   2.320   6.328
 7032SOL    HW122696   5.226   2.326   6.272
 7032SOL    HW222697   5.303   2.384   6.404
 7033SOL     OW22698   3.957   3.601   6.061
 7033SOL    HW122699   3.981   3.667   6.132
 7033SOL    HW222700   4.027   3.602   5.990
 7034SOL     OW22701   3.988   3.327   6.101
 7034SOL    HW122702   3.967   3.425   6.109
 7034SOL    HW222703   3.955   3.279   6.183
 7035SOL     OW22704   4.043   2.956   6.465
 7035SOL    HW122705   4.053   2.857   6.476
 7035SOL    HW222706   3.991   2.992   6.542
 7036SOL     OW22707   4.323   3.763   6.980
 7036SOL    HW122708   4.253   3.715   0.033
 7036SOL    HW222709   4.381   3.816   0.042
 7037SOL     OW22710   4.290   2.840   5.757
 7037SOL    HW122711   4.331   2.892   5.682
 7037SOL    HW222712   4.339   2.860   5.842
 7038SOL     OW22713   3.824   2.539   6.161
 7038SOL    HW122714   3.793   2.447   6.185
 7038SOL    HW222715   3.823   2.597   6.242
 7039SOL     OW22716   5.580   3.622   5.904
 7039SOL    HW122717   5.659   3.604   5.964
 7039SOL    HW222718   5.583   3.717   5.873
 7040SOL     OW22719   3.734   3.440   5.682
 7040SOL    HW122720   3.661   3.372   5.683
 7040SOL    HW222721   3.738   3.486   5.770
 7041SOL     OW22722   5.447   2.794   6.253
 7041SOL    HW122723   5.529   2.742   6.232
 7041SOL    HW222724   5.427   2.857   6.177
 7042SOL     OW22725   5.414   2.983   6.044
 7042SOL    HW122726   5.495   2.953   5.994
 7042SOL    HW222727   5.438   3.057   6.106
 7043SOL     OW22728   4.319   3.256   6.274
 7043SOL    HW122729   4.287   3.161   6.277
 7043SOL    HW222730   4.314   3.290   6.180
 7044SOL     OW22731   4.554   1.886   6.099
 7044SOL    HW122732   4.604   1.968   6.071
 7044SOL    HW222733   4.456   1.906   6.104
 7045SOL     OW22734   3.859   2.808   6.867
 7045SOL    HW122735   3.939   2.774   6.817
 7045SOL    HW222736   3.776   2.767   6.829
 7046SOL     OW22737   5.318   2.909   5.790
 7046SOL    HW122738   5.250   2.837   5.806
 7046SOL    HW222739   5.350   2.945   5.877
 7047SOL     OW22740   5.137   3.274   6.499
 7047SOL    HW122741   5.100   3.290   6.590
 7047SOL    HW222742   5.138   3.176   6.480
 7048SOL     OW22743   5.355   3.678   6.156
 7048SOL    HW122744   5.350   3.619   6.075
 7048SOL    HW222745   5.363   3.621   6.238
 7049SOL     OW22746   4.292   2.569   5.875
 7049SOL    HW122747   4.296   2.657   5.828
 7049SOL    HW222748   4.222   2.572   5.946
 7050SOL     OW22749   5.011   2.281   6.504
 7050SOL    HW122750   4.919   2.241   6.505
 7050SOL    HW222751   5.073   2.225   6.559
 7051SOL     OW22752   5.322   3.537   5.920
 7051SOL    HW122753   5.419   3.560   5.910
 7051SOL    HW222754   5.282   3.523   5.829
 7052SOL     OW22755   4.469   2.518   0.027
 7052SOL    HW122756   4.413   2.536   0.108
 7052SOL    HW222757   4.434   2.438   6.979
 7053SOL     OW22758   4.740   2.371   6.781
 7053SOL    HW122759   4.739   2.386   6.880
 7053SOL    HW222760   4.647   2.378   6.745
 7054SOL     OW22761   4.758   2.539   5.973
 7054SOL    HW122762   4.795   2.547   6.065
 7054SOL    HW222763   4.667   2.497   5.976
 7055SOL     OW22764   3.813   2.715   6.373
 7055SOL    HW122765   3.906   2.698   6.406
 7055SOL    HW222766   3.770   2.784   6.431
 7056SOL     OW22767   3.871   3.661   0.077
 7056SOL    HW122768   3.813   3.581   0.093
 7056SOL    HW222769   3.889   3.670   6.979
 7057SOL     OW22770   4.564   2.200   5.804
 7057SOL    HW122771   4.623   2.242   5.734
 7057SOL    HW222772   4.506   2.131   5.761
 7058SOL     OW22773   5.137   3.025   6.155
 7058SOL    HW122774   5.226   3.016   6.111
 7058SOL    HW222775   5.082   3.091   6.105
 7059SOL     OW22776   4.291   1.963   6.542
 7059SOL    HW122777   4.283   2.000   6.635
 7059SOL    HW222778   4.308   2.038   6.477
 7060SOL     OW22779   4.728   3.329   6.059
 7060SOL    HW122780   4.700   3.396   5.990
 7060SOL    HW222781   4.691   3.354   6.148
 7061SOL     OW22782   4.087   3.644   6.490
 7061SOL    HW122783   4.124   3.551   6.487
 7061SOL    HW222784   4.157   3.706   6.524
 7062SOL     OW22785   5.535   2.894   6.497
 7062SOL    HW122786   5.498   2.874   6.406
 7062SOL    HW222787   5.460   2.903   6.562
 7063SOL     OW22788   4.017   2.779   5.853
 7063SOL    HW122789   4.102   2.806   5.809
 7063SOL    HW222790   3.988   2.689   5.820
 7064SOL     OW22791   5.221   2.639   6.290
 7064SOL    HW122792   5.208   2.598   6.380
 7064SOL    HW222793   5.304   2.695   6.290
 7065SOL     OW22794   4.865   3.623   5.839
 7065SOL    HW122795   4.771   3.603   5.866
 7065SOL    HW222796   4.900   3.549   5.782
 7066SOL     OW22797   5.383   3.269   5.689
 7066SOL    HW122798   5.329   3.353   5.689
 7066SOL    HW222799   5.327   3.193   5.654
 7067SOL     OW22800   4.170   3.640   5.884
 7067SOL    HW122801   4.217   3.684   5.960
 7067SOL    HW222802   4.236   3.588   5.829
 7068SOL     OW22803   5.119   1.961   6.036
 7068SOL    HW122804   5.120   1.936   5.939
 7068SOL    HW222805   5.210   1.945   6.075
 7069SOL     OW22806   3.958   3.673   6.819
 7069SOL    HW122807   4.024   3.598   6.828
 7069SOL    HW222808   3.912   3.665   6.731
 7070SOL     OW22809   4.684   3.537   6.461
 7070SOL    HW122810   4.773   3.493   6.456
 7070SOL    HW222811   4.625   3.503   6.388
 7071SOL     OW22812   4.099   2.539   6.074
 7071SOL    HW122813   4.112   2.440   6.085
 7071SOL    HW222814   4.003   2.561   6.086
 7072SOL     OW22815   4.387   1.986   5.703
 7072SOL    HW122816   4.444   1.908   5.727
 7072SOL    HW222817   4.318   1.958   5.635
 7073SOL     OW22818   4.576   3.352   6.734
 7073SOL    HW122819   4.525   3.335   6.650
 7073SOL    HW222820   4.656   3.293   6.736
 7074SOL     OW22821   4.501   3.226   6.484
 7074SOL    HW122822   4.596   3.225   6.455
 7074SOL    HW222823   4.441   3.244   6.406
 7075SOL     OW22824   4.669   2.383   6.466
 7075SOL    HW122825   4.640   2.371   6.371
 7075SOL    HW222826   4.710   2.298   6.499
 7076SOL     OW22827   4.287   1.942   6.091
 7076SOL    HW122828   4.211   1.936   6.156
 7076SOL    HW222829   4.272   2.020   6.030
 7077SOL     OW22830   5.197   3.078   5.616
 7077SOL    HW122831   5.242   3.009   5.672
 7077SOL    HW222832   5.111   3.105   5.659
 7078SOL     OW22833   4.002   1.924   5.746
 7078SOL    HW122834   4.044   2.003   5.700
 7078SOL    HW222835   4.071   1.874   5.797
 7079SOL     OW22836   4.687   2.115   6.036
 7079SOL    HW122837   4.647   2.148   5.951
 7079SOL    HW222838   4.786   2.134   6.037
 7080SOL     OW22839   4.931   3.431   6.386
 7080SOL    HW122840   4.955   3.504   6.323
 7080SOL    HW222841   5.014   3.387   6.420
 7081SOL     OW22842   4.226   2.999   6.265
 7081SOL    HW122843   4.168   2.983   6.345
 7081SOL    HW222844   4.171   2.990   6.182
 7082SOL     OW22845   4.969   3.650   6.214
 7082SOL    HW122846   5.023   3.714   6.159
 7082SOL    HW222847   4.889   3.697   6.250
 7083SOL     OW22848   4.736   2.343   5.637
 7083SOL    HW122849   4.697   2.432   5.614
 7083SOL    HW222850   4.809   2.355   5.705
 7084SOL     OW22851   4.261   2.053   6.800
 7084SOL    HW122852   4.296   1.974   6.850
 7084SOL    HW222853   4.164   2.066   6.820
 7085SOL     OW22854   4.603   2.326   6.208
 7085SOL    HW122855   4.552   2.376   6.138
 7085SOL    HW222856   4.638   2.240   6.169
 7086SOL     OW22857   4.749   1.920   6.315
 7086SOL    HW122858   4.685   1.928   6.239
 7086SOL    HW222859   4.722   1.843   6.373
 7087SOL     OW22860   5.130   2.997   6.448
 7087SOL    HW122861   5.073   2.919   6.475
 7087SOL    HW222862   5.134   3.003   6.349
 7088SOL     OW22863   5.169   2.516   6.532
 7088SOL    HW122864   5.105   2.439   6.533
 7088SOL    HW222865   5.233   2.507   6.608
 7089SOL     OW22866   5.517   2.634   5.967
 7089SOL    HW122867   5.579   2.607   6.040
 7089SOL    HW222868   5.521   2.567   5.893
 7090SOL     OW22869   4.226   3.306   5.759
 7090SOL    HW122870   4.142   3.266   5.797
 7090SOL    HW222871   4.253   3.255   5.678
 7091SOL     OW22872   5.491   3.166   6.219
 7091SOL    HW122873   5.586   3.158   6.248
 7091SOL    HW222874   5.450   3.247   6.261
 7092SOL     OW22875   5.109   2.447   5.646
 7092SOL    HW122876   5.056   2.409   5.722
 7092SOL    HW222877   5.206   2.432   5.662
 7093SOL     OW22878   4.236   2.127   5.897
 7093SOL    HW122879   4.290   2.078   5.829
 7093SOL    HW222880   4.201   2.212   5.857
 7094SOL     OW22881   5.482   2.999   0.172
 7094SOL    HW122882   5.573   2.992   0.133
 7094SOL    HW222883   5.444   3.090   0.153
 7095SOL     OW22884   4.791   3.179   6.698
 7095SOL    HW122885   4.775   3.084   6.726
 7095SOL    HW222886   4.783   3.186   6.599
 7096SOL     OW22887   5.312   2.937   6.653
 7096SOL    HW122888   5.320   3.018   6.711
 7096SOL    HW222889   5.247   2.955   6.579
 7097SOL     OW22890   4.476   2.887   5.959
 7097SOL    HW122891   4.466   2.855   6.053
 7097SOL    HW222892   4.540   2.829   5.910
 7098SOL     OW22893   4.131   2.712   6.803
 7098SOL    HW122894   4.196   2.764   6.859
 7098SOL    HW222895   4.110   2.626   6.848
 7099SOL     OW22896   4.990   2.261   6.831
 7099SOL    HW122897   5.021   2.318   6.906
 7099SOL    HW222898   4.904   2.297   6.795
 7100SOL     OW22899   3.856   3.349   6.923
 7100SOL    HW122900   3.818   3.385   0.008
 7100SOL    HW222901   3.945   3.392   6.906
 7101SOL     OW22902   4.051   2.982   6.050
 7101SOL    HW122903   4.048   3.056   5.984
 7101SOL    HW222904   4.038   2.895   6.003
 7102SOL     OW22905   4.260   2.419   6.488
 7102SOL    HW122906   4.268   2.479   6.408
 7102SOL    HW222907   4.344   2.423   6.541
 7103SOL     OW22908   4.983   3.223   6.015
 7103SOL    HW122909   5.044   3.297   6.043
 7103SOL    HW222910   4.889   3.247   6.035
 7104SOL     OW22911   5.026   3.315   6.748
 7104SOL    HW122912   5.073   3.278   6.829
 7104SOL    HW222913   4.937   3.270   6.738
 7105SOL     OW22914   5.263   2.531   6.034
 7105SOL    HW122915   5.234   2.557   6.126
 7105SOL    HW222916   5.347   2.580   6.009
 7106SOL     OW22917   4.113   3.438   6.852
 7106SOL    HW122918   4.107   3.363   6.786
 7106SOL    HW222919   4.209   3.466   6.861
 7107SOL     OW22920   4.360   2.698   6.636
 7107SOL    HW122921   4.388   2.790   6.611
 7107SOL    HW222922   4.271   2.701   6.682
 7108SOL     OW22923   5.011   2.758   6.566
 7108SOL    HW122924   4.917   2.731   6.583
 7108SOL    HW222925   5.067   2.676   6.552
 7109SOL     OW22926   4.926   2.370   5.838
 7109SOL    HW122927   4.945   2.295   5.901
 7109SOL    HW222928   4.872   2.440   5.886
 7110SOL     OW22929   3.992   2.063   6.850
 7110SOL    HW122930   3.934   2.108   6.918
 7110SOL    HW222931   3.972   1.965   6.849
 7111SOL     OW22932   3.737   3.112   6.889
 7111SOL    HW122933   3.782   3.049   6.952
 7111SOL    HW222934   3.778   3.203   6.898
 7112SOL     OW22935   4.485   2.450   6.657
 7112SOL    HW122936   4.549   2.436   6.581
 7112SOL    HW222937   4.452   2.544   6.656
 7113SOL     OW22938   4.058   1.926   6.246
 7113SOL    HW122939   4.014   2.014   6.266
 7113SOL    HW222940   4.064   1.872   6.330
 7114SOL     OW22941   5.325   2.284   5.913
 7114SOL    HW122942   5.372   2.222   5.976
 7114SOL    HW222943   5.289   2.362   5.965
 7115SOL     OW22944   4.743   2.657   6.622
 7115SOL    HW122945   4.695   2.677   6.708
 7115SOL    HW222946   4.749   2.557   6.611
 7116SOL     OW22947   5.233   2.130   5.700
 7116SOL    HW122948   5.187   2.049   5.737
 7116SOL    HW222949   5.264   2.188   5.775
 7117SOL     OW22950   4.996   2.692   5.604
 7117SOL    HW122951   5.027   2.598   5.614
 7117SOL    HW222952   5.026   2.728   5.516
 7118SOL     OW22953   4.767   3.211   6.426
 7118SOL    HW122954   4.789   3.125   6.380
 7118SOL    HW222955   4.830   3.282   6.397
 7119SOL     OW22956   4.064   2.681   6.476
 7119SOL    HW122957   4.137   2.657   6.412
 7119SOL    HW222958   4.068   2.620   6.555
 7120SOL     OW22959   4.038   2.405   6.636
 7120SOL    HW122960   3.994   2.317   6.618
 7120SOL    HW222961   4.121   2.413   6.581
 7121SOL     OW22962   4.909   2.056   6.995
 7121SOL    HW122963   4.985   2.031   0.055
 7121SOL    HW222964   4.939   2.125   6.930
 7122SOL     OW22965   3.754   3.134   5.780
 7122SOL    HW122966   3.663   3.173   5.765
 7122SOL    HW222967   3.745   3.040   5.812
 7123SOL     OW22968   3.827   3.636   6.574
 7123SOL    HW122969   3.771   3.568   6.527
 7123SOL    HW222970   3.919   3.638   6.535
 7124SOL     OW22971   4.214   3.398   6.488
 7124SOL    HW122972   4.292   3.450   6.522
 7124SOL    HW222973   4.241   3.347   6.407
 7125SOL     OW22974   4.594   2.715   6.868
 7125SOL    HW122975   4.662   2.761   6.925
 7125SOL    HW222976   4.550   2.642   6.920
 7126SOL     OW22977   3.787   2.477   6.739
 7126SOL    HW122978   3.870   2.465   6.685
 7126SOL    HW222979   3.807   2.460   6.835
 7127SOL     OW22980   4.510   2.424   5.963
 7127SOL    HW122981   4.517   2.342   5.906
 7127SOL    HW222982   4.432   2.479   5.934
 7128SOL     OW22983   5.359   2.479   6.729
 7128SOL    HW122984   5.334   2.404   6.791
 7128SOL    HW222985   5.458   2.479   6.716
 7129SOL     OW22986   4.391   2.294   6.871
 7129SOL    HW122987   4.343   2.212   6.841
 7129SOL    HW222988   4.421   2.347   6.792
 7130SOL     OW22989   4.712   3.453   6.959
 7130SOL    HW122990   4.662   3.431   6.875
 7130SOL    HW222991   4.693   3.547   6.986
 7131SOL     OW22992   4.150   2.356   5.767
 7131SOL    HW122993   4.221   2.422   5.795
 7131SOL    HW222994   4.062   2.402   5.763
 7132SOL     OW22995   3.867   2.949   0.094
 7132SOL    HW122996   3.919   2.898   0.163
 7132SOL    HW222997   3.865   2.896   0.009
 7133SOL     OW22998   5.067   2.807   6.839
 7133SOL    HW122999   5.062   2.806   6.739
 7133SOL    HW223000   5.116   2.889   6.868
 7134SOL     OW23001   5.131   2.726   5.850
 7134SOL    HW123002   5.141   2.645   5.907
 7134SOL    HW223003   5.070   2.707   5.774
 7135SOL     OW23004   5.480   3.647   6.737
 7135SOL    HW123005   5.555   3.665   6.673
 7135SOL    HW223006   5.470   3.549   6.750
 7136SOL     OW23007   5.021   3.598   6.724
 7136SOL    HW123008   5.102   3.611   6.668
 7136SOL    HW223009   5.009   3.500   6.744
 7137SOL     OW23010   3.865   3.071   6.640
 7137SOL    HW123011   3.825   3.083   6.731
 7137SOL    HW223012   3.799   3.027   6.580
 7138SOL     OW23013   5.488   2.101   6.041
 7138SOL    HW123014   5.544   2.074   5.962
 7138SOL    HW223015   5.445   2.021   6.081
 7139SOL     OW23016   5.131   3.441   6.096
 7139SOL    HW123017   5.193   3.475   6.026
 7139SOL    HW223018   5.069   3.514   6.124
 7140SOL     OW23019   5.007   2.795   6.226
 7140SOL    HW123020   5.082   2.733   6.250
 7140SOL    HW223021   5.044   2.876   6.182
 7141SOL     OW23022   4.386   3.529   5.737
 7141SOL    HW123023   4.406   3.543   5.640
 7141SOL    HW223024   4.338   3.442   5.749
 7142SOL     OW23025   5.565   2.016   6.589
 7142SOL    HW123026   5.602   1.925   6.570
 7142SOL    HW223027   5.483   2.031   6.534
 7143SOL     OW23028   3.950   2.169   6.312
 7143SOL    HW123029   3.865   2.214   6.284
 7143SOL    HW223030   3.959   2.175   6.412
 7144SOL     OW23031   4.948   3.417   5.677
 7144SOL    HW123032   4.951   3.321   5.707
 7144SOL    HW223033   4.866   3.432   5.622
 7145SOL     OW23034   4.343   2.849   6.925
 7145SOL    HW123035   4.429   2.810   6.893
 7145SOL    HW223036   4.333   2.942   6.890
 7146SOL     OW23037   4.656   2.736   5.811
 7146SOL    HW123038   4.725   2.802   5.778
 7146SOL    HW223039   4.700   2.668   5.869
 7147SOL     OW23040   5.213   3.500   5.665
 7147SOL    HW123041   5.117   3.470   5.660
 7147SOL    HW223042   5.252   3.502   5.573
 7148SOL     OW23043   5.335   3.148   6.826
 7148SOL    HW123044   5.432   3.142   6.851
 7148SOL    HW223045   5.280   3.110   6.900
 7149SOL     OW23046   4.810   2.965   6.324
 7149SOL    HW123047   4.734   2.912   6.362
 7149SOL    HW223048   4.878   2.902   6.287
 7150SOL     OW23049   4.781   2.123   6.511
 7150SOL    HW123050   4.774   2.064   6.431
 7150SOL    HW223051   4.777   2.067   6.594
 7151SOL     OW23052   4.349   3.338   6.018
 7151SOL    HW123053   4.420   3.275   5.987
 7151SOL    HW223054   4.278   3.346   5.947
 7152SOL     OW23055   5.330   2.263   6.895
 7152SOL    HW123056   5.286   2.238   6.981
 7152SOL    HW223057   5.392   2.190   6.866
 7153SOL     OW23058   4.006   3.192   5.873
 7153SOL    HW123059   3.914   3.174   5.838
 7153SOL    HW223060   4.000   3.248   5.956
 7154SOL     OW23061   4.430   2.062   0.068
 7154SOL    HW123062   4.523   2.033   0.087
 7154SOL    HW223063   4.431   2.149   0.018
 7155SOL     OW23064   3.847   2.237   5.507
 7155SOL    HW123065   3.754   2.228   5.471
 7155SOL    HW223066   3.880   2.330   5.491
 7156SOL     OW23067   3.756   2.017   5.816
 7156SOL    HW123068   3.723   2.078   5.744
 7156SOL    HW223069   3.849   1.988   5.795
 7157SOL     OW23070   4.958   3.143   5.749
 7157SOL    HW123071   4.914   3.053   5.741
 7157SOL    HW223072   4.971   3.165   5.845
 7158SOL     OW23073   5.248   3.640   6.585
 7158SOL    HW123074   5.243   3.726   6.534
 7158SOL    HW223075   5.331   3.640   6.642
 7159SOL     OW23076   5.154   3.191   0.298
 7159SOL    HW123077   5.092   3.218   0.372
 7159SOL    HW223078   5.156   3.092   0.290
 7160SOL     OW23079   4.139   3.621   0.128
 7160SOL    HW123080   4.043   3.647   0.119
 7160SOL    HW223081   4.148   3.522   0.118
 7161SOL     OW23082   5.405   2.735   6.831
 7161SOL    HW123083   5.379   2.644   6.799
 7161SOL    HW223084   5.362   2.804   6.771
 7162SOL     OW23085   4.956   2.182   6.039
 7162SOL    HW123086   5.014   2.100   6.036
 7162SOL    HW223087   4.987   2.242   6.113
 7163SOL     OW23088   4.255   2.613   6.288
 7163SOL    HW123089   4.327   2.678   6.262
 7163SOL    HW223090   4.203   2.587   6.207
 7164SOL     OW23091   5.464   2.715   0.106
 7164SOL    HW123092   5.458   2.808   0.142
 7164SOL    HW223093   5.438   2.715   0.009
 7165SOL     OW23094   4.529   3.235   5.667
 7165SOL    HW123095   4.539   3.220   5.766
 7165SOL    HW223096   4.587   3.311   5.639
 7166SOL     OW23097   4.412   3.569   6.565
 7166SOL    HW123098   4.382   3.665   6.567
 7166SOL    HW223099   4.511   3.566   6.547
 7167SOL     OW23100   4.608   2.825   6.446
 7167SOL    HW123101   4.655   2.757   6.503
 7167SOL    HW223102   4.547   2.880   6.504
 7168SOL     OW23103   4.841   2.903   5.686
 7168SOL    HW123104   4.777   2.925   5.612
 7168SOL    HW223105   4.899   2.827   5.658
 7169SOL     OW23106   5.518   3.464   6.457
 7169SOL    HW123107   5.448   3.439   6.390
 7169SOL    HW223108   5.494   3.425   6.546
 7170SOL     OW23109   3.910   3.106   6.264
 7170SOL    HW123110   3.947   3.060   6.345
 7170SOL    HW223111   3.947   3.062   6.182
 7171SOL     OW23112   5.516   2.067   6.853
 7171SOL    HW123113   5.533   1.987   6.910
 7171SOL    HW223114   5.531   2.044   6.757
 7172SOL     OW23115   4.118   2.275   6.114
 7172SOL    HW123116   4.154   2.206   6.051
 7172SOL    HW223117   4.065   2.230   6.185
 7173SOL     OW23118   5.381   3.384   6.688
 7173SOL    HW123119   5.298   3.408   6.638
 7173SOL    HW223120   5.367   3.298   6.737
 7174SOL     OW23121   4.065   2.465   6.906
 7174SOL    HW123122   4.115   2.399   6.962
 7174SOL    HW223123   4.062   2.432   6.811
 7175SOL     OW23124   4.544   3.468   6.238
 7175SOL    HW123125   4.537   3.556   6.191
 7175SOL    HW223126   4.465   3.412   6.215
 7176SOL     OW23127   5.155   2.116   6.665
 7176SOL    HW123128   5.164   2.020   6.691
 7176SOL    HW223129   5.108   2.166   6.738
 7177SOL     OW23130   4.773   1.845   6.658
 7177SOL    HW123131   4.728   1.789   6.588
 7177SOL    HW223132   4.865   1.810   6.674
 7178SOL     OW23133   4.538   3.160   5.933
 7178SOL    HW123134   4.518   3.063   5.944
 7178SOL    HW223135   4.619   3.184   5.987
 7179SOL     OW23136   4.378   3.504   6.884
 7179SOL    HW123137   4.379   3.603   6.893
 7179SOL    HW223138   4.443   3.476   6.813
 7180SOL     OW23139   5.114   1.890   5.770
 7180SOL    HW123140   5.165   1.820   5.721
 7180SOL    HW223141   5.020   1.858   5.787
 7181SOL     OW23142   5.039   2.347   6.241
 7181SOL    HW123143   4.982   2.428   6.224
 7181SOL    HW223144   5.027   2.318   6.336
 7182SOL     OW23145   5.329   2.068   6.461
 7182SOL    HW123146   5.267   2.094   6.535
 7182SOL    HW223147   5.332   2.141   6.393
 7183SOL     OW23148   3.760   2.878   5.898
 7183SOL    HW123149   3.856   2.859   5.877
 7183SOL    HW223150   3.711   2.791   5.913
 7184SOL     OW23151   4.610   3.540   5.910
 7184SOL    HW123152   4.536   3.525   5.845
 7184SOL    HW223153   4.579   3.601   5.983
 7185SOL     OW23154   3.947   4.392   0.125
 7185SOL    HW123155   3.853   4.360   0.136
 7185SOL    HW223156   3.974   4.385   0.029
 7186SOL     OW23157   3.935   4.025   0.992
 7186SOL    HW123158   3.981   3.993   1.075
 7186SOL    HW223159   3.845   3.980   0.985
 7187SOL     OW23160   3.728   4.147   0.627
 7187SOL    HW123161   3.649   4.172   0.683
 7187SOL    HW223162   3.700   4.078   0.560
 7188SOL     OW23163   4.280   5.054   1.222
 7188SOL    HW123164   4.195   5.048   1.169
 7188SOL    HW223165   4.301   5.150   1.241
 7189SOL     OW23166   5.268   5.292   0.665
 7189SOL    HW123167   5.234   5.249   0.749
 7189SOL    HW223168   5.201   5.281   0.592
 7190SOL     OW23169   4.744   4.665   0.556
 7190SOL    HW123170   4.842   4.660   0.576
 7190SOL    HW223171   4.703   4.575   0.570
 7191SOL     OW23172   5.525   4.275   0.136
 7191SOL    HW123173   5.486   4.363   0.107
 7191SOL    HW223174   5.471   4.238   0.212
 7192SOL     OW23175   4.423   4.858   1.087
 7192SOL    HW123176   4.362   4.902   1.154
 7192SOL    HW223177   4.471   4.929   1.035
 7193SOL     OW23178   4.604   4.470   1.827
 7193SOL    HW123179   4.597   4.530   1.906
 7193SOL    HW223180   4.621   4.524   1.745
 7194SOL     OW23181   4.403   4.685   0.686
 7194SOL    HW123182   4.471   4.696   0.758
 7194SOL    HW223183   4.329   4.750   0.700
 7195SOL     OW23184   4.445   4.905   1.781
 7195SOL    HW123185   4.477   4.983   1.834
 7195SOL    HW223186   4.369   4.933   1.723
 7196SOL     OW23187   4.051   5.125   1.060
 7196SOL    HW123188   3.968   5.090   1.018
 7196SOL    HW223189   4.102   5.181   0.994
 7197SOL     OW23190   5.155   5.261   1.377
 7197SOL    HW123191   5.223   5.333   1.395
 7197SOL    HW223192   5.077   5.273   1.437
 7198SOL     OW23193   4.232   4.077   1.439
 7198SOL    HW123194   4.312   4.019   1.456
 7198SOL    HW223195   4.151   4.034   1.479
 7199SOL     OW23196   3.977   5.418   0.467
 7199SOL    HW123197   3.988   5.497   0.527
 7199SOL    HW223198   4.065   5.397   0.424
 7200SOL     OW23199   4.883   5.068   1.668
 7200SOL    HW123200   4.974   5.031   1.650
 7200SOL    HW223201   4.818   4.994   1.676
 7201SOL     OW23202   3.910   5.141   0.430
 7201SOL    HW123203   3.924   5.235   0.460
 7201SOL    HW223204   3.893   5.083   0.510
 7202SOL     OW23205   3.984   4.834   0.859
 7202SOL    HW123206   3.997   4.740   0.891
 7202SOL    HW223207   3.922   4.882   0.922
 7203SOL     OW23208   4.303   5.572   1.383
 7203SOL    HW123209   4.238   5.540   1.452
 7203SOL    HW223210   4.364   5.640   1.424
 7204SOL     OW23211   4.323   4.673   0.238
 7204SOL    HW123212   4.333   4.725   0.153
 7204SOL    HW223213   4.380   4.716   0.309
 7205SOL     OW23214   5.284   3.884   1.418
 7205SOL    HW123215   5.370   3.935   1.419
 7205SOL    HW223216   5.238   3.896   1.506
 7206SOL     OW23217   3.859   4.387   0.550
 7206SOL    HW123218   3.816   4.300   0.575
 7206SOL    HW223219   3.847   4.453   0.625
 7207SOL     OW23220   5.502   5.535   0.324
 7207SOL    HW123221   5.566   5.504   0.394
 7207SOL    HW223222   5.538   5.616   0.279
 7208SOL     OW23223   3.713   5.304   0.137
 7208SOL    HW123224   3.653   5.224   0.142
 7208SOL    HW223225   3.719   5.347   0.227
 7209SOL     OW23226   3.938   4.479   1.576
 7209SOL    HW123227   4.038   4.483   1.580
 7209SOL    HW223228   3.900   4.566   1.609
 7210SOL     OW23229   4.349   5.108   0.746
 7210SOL    HW123230   4.304   5.019   0.753
 7210SOL    HW223231   4.348   5.139   0.651
 7211SOL     OW23232   4.972   4.940   1.407
 7211SOL    HW123233   4.990   4.876   1.332
 7211SOL    HW223234   5.051   4.942   1.469
 7212SOL     OW23235   4.548   3.751   0.508
 7212SOL    HW123236   4.598   3.835   0.487
 7212SOL    HW223237   4.450   3.769   0.504
 7213SOL     OW23238   3.884   4.620   1.275
 7213SOL    HW123239   3.980   4.592   1.271
 7213SOL    HW223240   3.830   4.563   1.214
 7214SOL     OW23241   4.988   5.578   1.645
 7214SOL    HW123242   4.954   5.639   1.573
 7214SOL    HW223243   4.983   5.483   1.613
 7215SOL     OW23244   4.097   3.987   1.864
 7215SOL    HW123245   4.137   4.072   1.898
 7215SOL    HW223246   4.001   4.001   1.844
 7216SOL     OW23247   5.163   5.167   0.899
 7216SOL    HW123248   5.116   5.194   0.984
 7216SOL    HW223249   5.148   5.070   0.882
 7217SOL     OW23250   5.268   5.560   0.562
 7217SOL    HW123251   5.266   5.538   0.465
 7217SOL    HW223252   5.290   5.478   0.615
 7218SOL     OW23253   4.305   4.403   0.250
 7218SOL    HW123254   4.321   4.501   0.241
 7218SOL    HW223255   4.249   4.386   0.331
 7219SOL     OW23256   5.060   4.134   0.965
 7219SOL    HW123257   4.975   4.088   0.942
 7219SOL    HW223258   5.095   4.098   1.051
 7220SOL     OW23259   5.243   5.473   0.282
 7220SOL    HW123260   5.340   5.492   0.294
 7220SOL    HW223261   5.228   5.424   0.197
 7221SOL     OW23262   4.505   4.292   1.441
 7221SOL    HW123263   4.474   4.261   1.531
 7221SOL    HW223264   4.487   4.220   1.373
 7222SOL     OW23265   5.098   4.188   1.620
 7222SOL    HW123266   5.111   4.241   1.704
 7222SOL    HW223267   5.139   4.097   1.631
 7223SOL     OW23268   4.657   4.616   1.596
 7223SOL    HW123269   4.705   4.547   1.541
 7223SOL    HW223270   4.596   4.668   1.537
 7224SOL     OW23271   4.722   4.141   1.094
 7224SOL    HW123272   4.635   4.126   1.142
 7224SOL    HW223273   4.748   4.058   1.045
 7225SOL     OW23274   3.820   4.577   0.759
 7225SOL    HW123275   3.909   4.565   0.801
 7225SOL    HW223276   3.767   4.644   0.811
 7226SOL     OW23277   3.878   5.585   1.576
 7226SOL    HW123278   3.861   5.555   1.669
 7226SOL    HW223279   3.844   5.517   1.511
 7227SOL     OW23280   4.714   4.041   0.219
 7227SOL    HW123281   4.728   4.129   0.174
 7227SOL    HW223282   4.778   3.974   0.181
 7228SOL     OW23283   5.390   4.308   1.824
 7228SOL    HW123284   5.381   4.386   1.763
 7228SOL    HW223285   5.416   4.227   1.771
 7229SOL     OW23286   5.119   4.901   0.558
 7229SOL    HW123287   5.177   4.893   0.477
 7229SOL    HW223288   5.044   4.964   0.539
 7230SOL     OW23289   4.287   3.829   0.924
 7230SOL    HW123290   4.295   3.862   1.018
 7230SOL    HW223291   4.297   3.906   0.861
 7231SOL     OW23292   4.693   5.193   0.504
 7231SOL    HW123293   4.678   5.269   0.440
 7231SOL    HW223294   4.654   5.218   0.594
 7232SOL     OW23295   4.085   5.537   0.877
 7232SOL    HW123296   4.127   5.446   0.873
 7232SOL    HW223297   4.156   5.606   0.890
 7233SOL     OW23298   5.514   4.794   0.911
 7233SOL    HW123299   5.500   4.716   0.849
 7233SOL    HW223300   5.434   4.804   0.970
 7234SOL     OW23301   4.930   5.309   1.530
 7234SOL    HW123302   4.920   5.224   1.581
 7234SOL    HW223303   4.842   5.332   1.487
 7235SOL     OW23304   4.043   4.636   0.228
 7235SOL    HW123305   4.142   4.644   0.240
 7235SOL    HW223306   4.020   4.542   0.201
 7236SOL     OW23307   4.222   5.019   1.667
 7236SOL    HW123308   4.173   5.028   1.580
 7236SOL    HW223309   4.160   4.985   1.737
 7237SOL     OW23310   4.848   5.518   0.237
 7237SOL    HW123311   4.774   5.478   0.291
 7237SOL    HW223312   4.888   5.448   0.178
 7238SOL     OW23313   3.975   3.983   1.501
 7238SOL    HW123314   3.928   4.066   1.530
 7238SOL    HW223315   3.928   3.903   1.539
 7239SOL     OW23316   5.363   5.150   0.183
 7239SOL    HW123317   5.301   5.211   0.133
 7239SOL    HW223318   5.309   5.083   0.234
 7240SOL     OW23319   4.244   5.412   0.380
 7240SOL    HW123320   4.256   5.506   0.413
 7240SOL    HW223321   4.297   5.400   0.295
 7241SOL     OW23322   4.020   5.522   1.152
 7241SOL    HW123323   4.039   5.435   1.197
 7241SOL    HW223324   4.041   5.514   1.054
 7242SOL     OW23325   4.707   5.433   0.894
 7242SOL    HW123326   4.796   5.388   0.884
 7242SOL    HW223327   4.639   5.386   0.837
 7243SOL     OW23328   4.133   4.368   0.466
 7243SOL    HW123329   4.150   4.272   0.492
 7243SOL    HW223330   4.038   4.390   0.484
 7244SOL     OW23331   5.170   3.918   1.667
 7244SOL    HW123332   5.186   3.934   1.765
 7244SOL    HW223333   5.109   3.839   1.656
 7245SOL     OW23334   4.548   3.974   1.740
 7245SOL    HW123335   4.635   3.926   1.741
 7245SOL    HW223336   4.492   3.945   1.817
 7246SOL     OW23337   4.566   5.237   1.181
 7246SOL    HW123338   4.548   5.183   1.099
 7246SOL    HW223339   4.635   5.191   1.237
 7247SOL     OW23340   4.998   4.336   1.412
 7247SOL    HW123341   5.046   4.292   1.488
 7247SOL    HW223342   5.040   4.425   1.393
 7248SOL     OW23343   4.529   5.076   0.957
 7248SOL    HW123344   4.622   5.090   0.921
 7248SOL    HW223345   4.463   5.087   0.882
 7249SOL     OW23346   4.649   4.309   0.891
 7249SOL    HW123347   4.622   4.256   0.811
 7249SOL    HW223348   4.687   4.249   0.961
 7250SOL     OW23349   4.277   3.794   0.491
 7250SOL    HW123350   4.194   3.791   0.547
 7250SOL    HW223351   4.265   3.860   0.417
 7251SOL     OW23352   5.089   4.980   6.969
 7251SOL    HW123353   5.054   4.906   6.911
 7251SOL    HW223354   5.028   4.993   0.047
 7252SOL     OW23355   4.699   3.983   0.485
 7252SOL    HW123356   4.694   4.012   0.390
 7252SOL    HW223357   4.795   3.978   0.513
 7253SOL     OW23358   4.742   4.429   1.419
 7253SOL    HW123359   4.670   4.360   1.431
 7253SOL    HW223360   4.831   4.385   1.418
 7254SOL     OW23361   4.943   5.318   0.801
 7254SOL    HW123362   4.961   5.392   0.736
 7254SOL    HW223363   5.030   5.280   0.833
 7255SOL     OW23364   4.212   4.876   0.717
 7255SOL    HW123365   4.130   4.863   0.773
 7255SOL    HW223366   4.186   4.882   0.621
 7256SOL     OW23367   4.993   5.525   0.630
 7256SOL    HW123368   5.082   5.570   0.626
 7256SOL    HW223369   4.922   5.591   0.656
 7257SOL     OW23370   4.760   4.263   0.073
 7257SOL    HW123371   4.668   4.301   0.062
 7257SOL    HW223372   4.827   4.334   0.052
 7258SOL     OW23373   3.853   4.285   1.392
 7258SOL    HW123374   3.942   4.265   1.353
 7258SOL    HW223375   3.861   4.362   1.456
 7259SOL     OW23376   4.301   3.906   1.185
 7259SOL    HW123377   4.330   3.831   1.243
 7259SOL    HW223378   4.205   3.928   1.203
 7260SOL     OW23379   4.567   4.145   0.683
 7260SOL    HW123380   4.473   4.167   0.654
 7260SOL    HW223381   4.608   4.083   0.616
 7261SOL     OW23382   4.727   3.777   0.740
 7261SOL    HW123383   4.663   3.788   0.665
 7261SOL    HW223384   4.698   3.701   0.799
 7262SOL     OW23385   5.132   4.893   0.847
 7262SOL    HW123386   5.081   4.812   0.874
 7262SOL    HW223387   5.133   4.900   0.747
 7263SOL     OW23388   5.166   4.402   0.949
 7263SOL    HW123389   5.122   4.312   0.946
 7263SOL    HW223390   5.256   4.393   0.991
 7264SOL     OW23391   4.180   5.221   0.115
 7264SOL    HW123392   4.137   5.144   0.162
 7264SOL    HW223393   4.149   5.223   0.019
 7265SOL     OW23394   5.110   4.207   0.047
 7265SOL    HW123395   5.105   4.156   0.133
 7265SOL    HW223396   5.201   4.193   0.007
 7266SOL     OW23397   4.255   3.980   0.290
 7266SOL    HW123398   4.336   3.947   0.242
 7266SOL    HW223399   4.208   4.049   0.235
 7267SOL     OW23400   5.434   4.987   1.513
 7267SOL    HW123401   5.508   4.920   1.507
 7267SOL    HW223402   5.468   5.070   1.557
 7268SOL     OW23403   4.738   5.076   1.335
 7268SOL    HW123404   4.653   5.044   1.377
 7268SOL    HW223405   4.816   5.032   1.380
 7269SOL     OW23406   5.340   5.360   1.687
 7269SOL    HW123407   5.323   5.406   1.600
 7269SOL    HW223408   5.420   5.300   1.678
 7270SOL     OW23409   4.881   5.023   1.107
 7270SOL    HW123410   4.818   5.042   1.183
 7270SOL    HW223411   4.837   5.049   1.021
 7271SOL     OW23412   5.299   4.846   1.073
 7271SOL    HW123413   5.297   4.915   1.145
 7271SOL    HW223414   5.233   4.870   1.002
 7272SOL     OW23415   4.665   3.776   1.357
 7272SOL    HW123416   4.689   3.747   1.265
 7272SOL    HW223417   4.739   3.831   1.395
 7273SOL     OW23418   4.707   4.860   1.708
 7273SOL    HW123419   4.613   4.884   1.733
 7273SOL    HW223420   4.708   4.771   1.663
 7274SOL     OW23421   4.508   4.761   0.441
 7274SOL    HW123422   4.451   4.739   0.520
 7274SOL    HW223423   4.603   4.737   0.461
 7275SOL     OW23424   4.146   4.521   1.276
 7275SOL    HW123425   4.217   4.536   1.345
 7275SOL    HW223426   4.123   4.424   1.272
 7276SOL     OW23427   4.930   4.116   1.270
 7276SOL    HW123428   4.955   4.201   1.317
 7276SOL    HW223429   4.857   4.135   1.205
 7277SOL     OW23430   3.825   5.386   1.391
 7277SOL    HW123431   3.776   5.429   1.315
 7277SOL    HW223432   3.913   5.353   1.358
 7278SOL     OW23433   4.133   4.878   0.459
 7278SOL    HW123434   4.134   4.937   0.378
 7278SOL    HW223435   4.049   4.823   0.459
 7279SOL     OW23436   4.246   4.276   0.881
 7279SOL    HW123437   4.269   4.319   0.794
 7279SOL    HW223438   4.318   4.296   0.948
 7280SOL     OW23439   4.942   5.090   0.460
 7280SOL    HW123440   4.998   5.173   0.459
 7280SOL    HW223441   4.848   5.114   0.484
 7281SOL     OW23442   5.044   5.243   1.130
 7281SOL    HW123443   5.086   5.253   1.221
 7281SOL    HW223444   4.981   5.166   1.131
 7282SOL     OW23445   4.052   5.276   1.283
 7282SOL    HW123446   4.043   5.217   1.203
 7282SOL    HW223447   4.149   5.293   1.302
 7283SOL     OW23448   4.219   4.429   1.673
 7283SOL    HW123449   4.260   4.478   1.596
 7283SOL    HW223450   4.283   4.360   1.707
 7284SOL     OW23451   5.346   4.531   1.673
 7284SOL    HW123452   5.255   4.571   1.665
 7284SOL    HW223453   5.400   4.555   1.592
 7285SOL     OW23454   4.800   3.826   1.764
 7285SOL    HW123455   4.827   3.921   1.752
 7285SOL    HW223456   4.857   3.767   1.708
 7286SOL     OW23457   4.240   3.779   1.754
 7286SOL    HW123458   4.180   3.724   1.694
 7286SOL    HW223459   4.190   3.860   1.785
 7287SOL     OW23460   4.292   4.606   1.056
 7287SOL    HW123461   4.334   4.697   1.065
 7287SOL    HW223462   4.236   4.588   1.137
 7288SOL     OW23463   5.020   4.636   0.921
 7288SOL    HW123464   4.925   4.608   0.934
 7288SOL    HW223465   5.079   4.556   0.931
 7289SOL     OW23466   4.033   3.926   1.232
 7289SOL    HW123467   4.012   3.958   1.324
 7289SOL    HW223468   4.004   3.831   1.222
 7290SOL     OW23469   3.705   5.149   1.215
 7290SOL    HW123470   3.683   5.091   1.294
 7290SOL    HW223471   3.758   5.228   1.246
 7291SOL     OW23472   4.437   4.371   1.058
 7291SOL    HW123473   4.510   4.364   0.991
 7291SOL    HW223474   4.389   4.458   1.047
 7292SOL     OW23475   5.482   4.697   1.851
 7292SOL    HW123476   5.434   4.631   1.792
 7292SOL    HW223477   5.426   4.715   1.932
 7293SOL     OW23478   4.042   3.771   0.636
 7293SOL    HW123479   4.005   3.862   0.656
 7293SOL    HW223480   4.054   3.721   0.721
 7294SOL     OW23481   5.377   4.148   0.349
 7294SOL    HW123482   5.416   4.061   0.381
 7294SOL    HW223483   5.365   4.209   0.428
 7295SOL     OW23484   4.765   4.546   0.972
 7295SOL    HW123485   4.728   4.551   1.065
 7295SOL    HW223486   4.736   4.461   0.929
 7296SOL     OW23487   4.731   5.265   1.782
 7296SOL    HW123488   4.698   5.328   1.711
 7296SOL    HW223489   4.779   5.189   1.738
 7297SOL     OW23490   5.564   5.213   1.605
 7297SOL    HW123491   5.589   5.238   1.511
 7297SOL    HW223492   5.645   5.222   1.664
 7298SOL     OW23493   4.093   4.617   1.855
 7298SOL    HW123494   4.168   4.675   1.886
 7298SOL    HW223495   4.130   4.542   1.800
 7299SOL     OW23496   5.127   4.044   0.278
 7299SOL    HW123497   5.128   3.945   0.264
 7299SOL    HW223498   5.220   4.076   0.297
 7300SOL     OW23499   4.965   4.438   0.010
 7300SOL    HW123500   5.025   4.359   0.020
 7300SOL    HW223501   5.001   4.514   0.064
 7301SOL     OW23502   4.783   5.105   0.867
 7301SOL    HW123503   4.779   5.029   0.803
 7301SOL    HW223504   4.838   5.179   0.828
 7302SOL     OW23505   4.045   4.563   0.923
 7302SOL    HW123506   4.139   4.582   0.949
 7302SOL    HW223507   4.020   4.470   0.952
 7303SOL     OW23508   4.003   4.288   0.993
 7303SOL    HW123509   3.962   4.197   0.987
 7303SOL    HW223510   4.091   4.287   0.946
 7304SOL     OW23511   4.853   4.081   1.682
 7304SOL    HW123512   4.803   4.137   1.747
 7304SOL    HW223513   4.938   4.127   1.657
 7305SOL     OW23514   4.868   3.926   1.455
 7305SOL    HW123515   4.854   3.979   1.539
 7305SOL    HW223516   4.895   3.987   1.381
 7306SOL     OW23517   3.803   5.520   0.915
 7306SOL    HW123518   3.774   5.431   0.880
 7306SOL    HW223519   3.899   5.535   0.894
 7307SOL     OW23520   4.213   5.291   0.904
 7307SOL    HW123521   4.285   5.352   0.935
 7307SOL    HW223522   4.252   5.222   0.843
 7308SOL     OW23523   4.620   4.544   1.204
 7308SOL    HW123524   4.671   4.512   1.284
 7308SOL    HW223525   4.548   4.478   1.181
 7309SOL     OW23526   3.776   4.376   1.138
 7309SOL    HW123527   3.855   4.351   1.081
 7309SOL    HW223528   3.791   4.343   1.231
 7310SOL     OW23529   3.974   4.261   1.731
 7310SOL    HW123530   4.074   4.262   1.733
 7310SOL    HW223531   3.941   4.335   1.673
 7311SOL     OW23532   5.117   4.671   1.608
 7311SOL    HW123533   5.135   4.769   1.607
 7311SOL    HW223534   5.099   4.639   1.515
 7312SOL     OW23535   5.417   4.381   1.094
 7312SOL    HW123536   5.401   4.291   1.136
 7312SOL    HW223537   5.515   4.403   1.100
 7313SOL     OW23538   4.037   5.295   1.746
 7313SOL    HW123539   3.971   5.358   1.788
 7313SOL    HW223540   4.094   5.254   1.817
 7314SOL     OW23541   4.472   4.131   1.210
 7314SOL    HW123542   4.408   4.055   1.202
 7314SOL    HW223543   4.438   4.209   1.157
 7315SOL     OW23544   4.629   5.415   1.555
 7315SOL    HW123545   4.560   5.353   1.518
 7315SOL    HW223546   4.644   5.490   1.490
 7316SOL     OW23547   4.152   4.198   0.147
 7316SOL    HW123548   4.223   4.262   0.176
 7316SOL    HW223549   4.062   4.242   0.157
 7317SOL     OW23550   3.869   4.825   1.455
 7317SOL    HW123551   3.874   4.785   1.547
 7317SOL    HW223552   3.876   4.753   1.387
 7318SOL     OW23553   4.988   4.779   1.170
 7318SOL    HW123554   5.005   4.724   1.088
 7318SOL    HW223555   4.948   4.867   1.144
 7319SOL     OW23556   5.509   5.444   1.196
 7319SOL    HW123557   5.573   5.477   1.127
 7319SOL    HW223558   5.450   5.373   1.156
 7320SOL     OW23559   5.058   5.520   1.067
 7320SOL    HW123560   5.132   5.522   1.000
 7320SOL    HW223561   5.044   5.426   1.098
 7321SOL     OW23562   3.796   5.027   0.978
 7321SOL    HW123563   3.758   5.062   1.064
 7321SOL    HW223564   3.740   4.952   0.944
 7322SOL     OW23565   4.453   5.460   1.772
 7322SOL    HW123566   4.384   5.530   1.757
 7322SOL    HW223567   4.525   5.468   1.703
 7323SOL     OW23568   4.672   3.697   0.084
 7323SOL    HW123569   4.753   3.755   0.080
 7323SOL    HW223570   4.673   3.645   0.169
 7324SOL     OW23571   5.469   3.919   0.465
 7324SOL    HW123572   5.533   3.888   0.394
 7324SOL    HW223573   5.428   3.840   0.510
 7325SOL     OW23574   5.080   5.324   0.461
 7325SOL    HW123575   5.132   5.367   0.387
 7325SOL    HW223576   5.033   5.395   0.513
 7326SOL     OW23577   3.856   5.483   1.833
 7326SOL    HW123578   3.757   5.481   1.843
 7326SOL    HW223579   3.898   5.521   1.916
 7327SOL     OW23580   5.002   4.662   0.639
 7327SOL    HW123581   5.016   4.650   0.737
 7327SOL    HW223582   5.050   4.744   0.609
 7328SOL     OW23583   4.479   5.016   1.418
 7328SOL    HW123584   4.465   5.082   1.492
 7328SOL    HW223585   4.405   5.024   1.352
 7329SOL     OW23586   4.416   5.360   0.168
 7329SOL    HW123587   4.424   5.425   0.092
 7329SOL    HW223588   4.348   5.291   0.145
 7330SOL     OW23589   5.335   5.463   1.420
 7330SOL    HW123590   5.398   5.457   1.343
 7330SOL    HW223591   5.313   5.559   1.437
 7331SOL     OW23592   5.544   3.879   1.010
 7331SOL    HW123593   5.573   3.794   0.966
 7331SOL    HW223594   5.451   3.903   0.980
 7332SOL     OW23595   3.963   4.023   0.708
 7332SOL    HW123596   3.882   4.072   0.676
 7332SOL    HW223597   3.968   4.029   0.808
 7333SOL     OW23598   4.928   5.306   0.075
 7333SOL    HW123599   4.924   5.213   0.111
 7333SOL    HW223600   4.853   5.321   0.011
 7334SOL     OW23601   4.512   4.742   1.401
 7334SOL    HW123602   4.548   4.720   1.311
 7334SOL    HW223603   4.500   4.841   1.410
 7335SOL     OW23604   5.201   5.330   0.051
 7335SOL    HW123605   5.101   5.326   0.051
 7335SOL    HW223606   5.234   5.323   6.957
 7336SOL     OW23607   4.057   5.036   1.456
 7336SOL    HW123608   4.033   5.114   1.398
 7336SOL    HW223609   3.987   4.965   1.446
 7337SOL     OW23610   5.301   5.047   1.275
 7337SOL    HW123611   5.358   5.014   1.351
 7337SOL    HW223612   5.237   5.115   1.309
 7338SOL     OW23613   4.739   4.882   0.727
 7338SOL    HW123614   4.678   4.839   0.793
 7338SOL    HW223615   4.751   4.821   0.648
 7339SOL     OW23616   4.818   3.927   0.959
 7339SOL    HW123617   4.793   3.894   0.868
 7339SOL    HW223618   4.811   3.852   1.024
 7340SOL     OW23619   4.355   5.192   0.495
 7340SOL    HW123620   4.399   5.135   0.425
 7340SOL    HW223621   4.305   5.266   0.451
 7341SOL     OW23622   5.526   4.015   1.435
 7341SOL    HW123623   5.587   4.094   1.427
 7341SOL    HW223624   5.560   3.941   1.377
 7342SOL     OW23625   4.035   5.017   0.224
 7342SOL    HW123626   3.976   4.954   0.172
 7342SOL    HW223627   3.981   5.062   0.295
 7343SOL     OW23628   3.868   4.716   1.711
 7343SOL    HW123629   3.778   4.731   1.752
 7343SOL    HW223630   3.930   4.681   1.781
 7344SOL     OW23631   4.450   3.905   1.490
 7344SOL    HW123632   4.527   3.870   1.437
 7344SOL    HW223633   4.481   3.934   1.580
 7345SOL     OW23634   3.779   4.050   0.025
 7345SOL    HW123635   3.716   4.007   6.961
 7345SOL    HW223636   3.744   4.141   0.048
 7346SOL     OW23637   5.094   4.591   1.348
 7346SOL    HW123638   5.035   4.650   1.293
 7346SOL    HW223639   5.186   4.590   1.309
 7347SOL     OW23640   3.762   3.857   0.231
 7347SOL    HW123641   3.765   3.942   0.179
 7347SOL    HW223642   3.810   3.786   0.179
 7348SOL     OW23643   4.928   5.038   0.186
 7348SOL    HW123644   4.832   5.046   0.161
 7348SOL    HW223645   4.938   5.047   0.285
 7349SOL     OW23646   4.353   4.526   1.453
 7349SOL    HW123647   4.406   4.610   1.441
 7349SOL    HW223648   4.413   4.446   1.444
 7350SOL     OW23649   5.268   5.523   0.893
 7350SOL    HW123650   5.287   5.619   0.869
 7350SOL    HW223651   5.344   5.466   0.863
 7351SOL     OW23652   4.448   4.256   1.713
 7351SOL    HW123653   4.502   4.324   1.761
 7351SOL    HW223654   4.484   4.165   1.732
 7352SOL     OW23655   5.172   4.942   1.610
 7352SOL    HW123656   5.177   4.943   1.710
 7352SOL    HW223657   5.262   4.963   1.572
 7353SOL     OW23658   4.135   5.496   1.584
 7353SOL    HW123659   4.046   5.540   1.569
 7353SOL    HW223660   4.120   5.408   1.629
 7354SOL     OW23661   5.335   4.613   1.222
 7354SOL    HW123662   5.361   4.534   1.166
 7354SOL    HW223663   5.325   4.693   1.163
 7355SOL     OW23664   4.981   3.993   0.517
 7355SOL    HW123665   5.017   4.005   0.425
 7355SOL    HW223666   5.014   4.067   0.576
 7356SOL     OW23667   4.325   4.419   0.662
 7356SOL    HW123668   4.355   4.514   0.669
 7356SOL    HW223669   4.258   4.411   0.588
 7357SOL     OW23670   5.452   4.069   1.697
 7357SOL    HW123671   5.475   4.048   1.602
 7357SOL    HW223672   5.379   4.007   1.728
 7358SOL     OW23673   5.480   4.613   1.454
 7358SOL    HW123674   5.537   4.695   1.454
 7358SOL    HW223675   5.426   4.610   1.369
 7359SOL     OW23676   4.671   5.103   0.126
 7359SOL    HW123677   4.609   5.073   0.199
 7359SOL    HW223678   4.635   5.186   0.085
 7360SOL     OW23679   4.400   5.481   0.951
 7360SOL    HW123680   4.376   5.577   0.933
 7360SOL    HW223681   4.497   5.475   0.976
 7361SOL     OW23682   4.580   4.732   0.892
 7361SOL    HW123683   4.649   4.666   0.920
 7361SOL    HW223684   4.527   4.761   0.972
 7362SOL     OW23685   5.500   5.352   0.869
 7362SOL    HW123686   5.515   5.285   0.797
 7362SOL    HW223687   5.461   5.307   0.949
 7363SOL     OW23688   4.037   4.931   1.842
 7363SOL    HW123689   3.967   4.880   1.793
 7363SOL    HW223690   3.995   4.981   1.918
 7364SOL     OW23691   3.861   4.939   0.625
 7364SOL    HW123692   3.903   4.907   0.709
 7364SOL    HW223693   3.867   4.869   0.555
 7365SOL     OW23694   4.418   5.207   1.614
 7365SOL    HW123695   4.341   5.146   1.636
 7365SOL    HW223696   4.429   5.274   1.687
 7366SOL     OW23697   5.605   3.815   1.271
 7366SOL    HW123698   5.678   3.748   1.260
 7366SOL    HW223699   5.573   3.844   1.181
 7367SOL     OW23700   4.173   4.111   0.534
 7367SOL    HW123701   4.191   4.052   0.455
 7367SOL    HW223702   4.102   4.069   0.591
 7368SOL     OW23703   5.376   5.229   1.078
 7368SOL    HW123704   5.301   5.216   1.013
 7368SOL    HW223705   5.370   5.160   1.150
 7369SOL     OW23706   4.098   4.252   1.279
 7369SOL    HW123707   4.156   4.191   1.332
 7369SOL    HW223708   4.096   4.222   1.183
 7370SOL     OW23709   4.544   5.316   0.710
 7370SOL    HW123710   4.504   5.386   0.650
 7370SOL    HW223711   4.475   5.246   0.730
 7371SOL     OW23712   5.163   4.000   1.197
 7371SOL    HW123713   5.209   3.951   1.270
 7371SOL    HW223714   5.077   4.037   1.230
 7372SOL     OW23715   4.766   3.695   1.109
 7372SOL    HW123716   4.703   3.641   1.053
 7372SOL    HW223717   4.857   3.655   1.103
 7373SOL     OW23718   4.532   5.024   0.352
 7373SOL    HW123719   4.517   4.930   0.382
 7373SOL    HW223720   4.595   5.070   0.416
 7374SOL     OW23721   4.326   5.322   1.275
 7374SOL    HW123722   4.322   5.416   1.308
 7374SOL    HW223723   4.417   5.302   1.238
 7375SOL     OW23724   5.103   3.769   0.254
 7375SOL    HW123725   5.190   3.723   0.271
 7375SOL    HW223726   5.028   3.704   0.266
 7376SOL     OW23727   5.280   3.927   0.962
 7376SOL    HW123728   5.242   3.952   1.051
 7376SOL    HW223729   5.229   3.974   0.889
 7377SOL     OW23730   3.890   4.740   0.429
 7377SOL    HW123731   3.949   4.703   0.357
 7377SOL    HW223732   3.805   4.688   0.433
 7378SOL     OW23733   4.620   5.413   0.354
 7378SOL    HW123734   4.548   5.391   0.288
 7378SOL    HW223735   4.589   5.486   0.415
 7379SOL     OW23736   3.932   4.321   2.001
 7379SOL    HW123737   3.839   4.312   2.035
 7379SOL    HW223738   3.932   4.313   1.901
 7380SOL     OW23739   3.924   3.875   2.914
 7380SOL    HW123740   3.962   3.879   3.006
 7380SOL    HW223741   3.827   3.899   2.918
 7381SOL     OW23742   5.316   5.244   2.552
 7381SOL    HW123743   5.257   5.226   2.631
 7381SOL    HW223744   5.258   5.262   2.472
 7382SOL     OW23745   4.810   4.578   2.438
 7382SOL    HW123746   4.897   4.580   2.487
 7382SOL    HW223747   4.760   4.495   2.462
 7383SOL     OW23748   5.518   4.315   2.064
 7383SOL    HW123749   5.479   4.322   1.972
 7383SOL    HW223750   5.465   4.249   2.118
 7384SOL     OW23751   4.463   4.876   2.923
 7384SOL    HW123752   4.527   4.875   3.000
 7384SOL    HW223753   4.466   4.965   2.878
 7385SOL     OW23754   4.410   4.764   2.458
 7385SOL    HW123755   4.468   4.757   2.539
 7385SOL    HW223756   4.330   4.820   2.479
 7386SOL     OW23757   3.940   5.289   2.927
 7386SOL    HW123758   3.870   5.266   2.859
 7386SOL    HW223759   4.030   5.291   2.883
 7387SOL     OW23760   5.152   5.260   3.227
 7387SOL    HW123761   5.224   5.329   3.237
 7387SOL    HW223762   5.077   5.280   3.288
 7388SOL     OW23763   4.205   4.010   3.441
 7388SOL    HW123764   4.285   3.951   3.442
 7388SOL    HW223765   4.122   3.954   3.436
 7389SOL     OW23766   3.937   5.422   2.312
 7389SOL    HW123767   3.942   5.496   2.379
 7389SOL    HW223768   4.023   5.419   2.260
 7390SOL     OW23769   4.880   5.179   3.594
 7390SOL    HW123770   4.972   5.156   3.627
 7390SOL    HW223771   4.826   5.095   3.586
 7391SOL     OW23772   3.892   5.153   2.300
 7391SOL    HW123773   3.903   5.251   2.316
 7391SOL    HW223774   3.866   5.108   2.385
 7392SOL     OW23775   3.997   4.846   2.728
 7392SOL    HW123776   4.078   4.825   2.782
 7392SOL    HW223777   3.923   4.875   2.788
 7393SOL     OW23778   4.267   5.619   3.214
 7393SOL    HW123779   4.209   5.584   3.288
 7393SOL    HW223780   4.340   5.675   3.252
 7394SOL     OW23781   4.328   4.728   1.961
 7394SOL    HW123782   4.372   4.778   1.886
 7394SOL    HW223783   4.362   4.762   2.048
 7395SOL     OW23784   5.457   3.789   3.360
 7395SOL    HW123785   5.468   3.851   3.282
 7395SOL    HW223786   5.384   3.822   3.419
 7396SOL     OW23787   3.893   4.456   2.455
 7396SOL    HW123788   3.923   4.377   2.508
 7396SOL    HW223789   3.865   4.529   2.518
 7397SOL     OW23790   5.588   5.490   2.184
 7397SOL    HW123791   5.666   5.480   2.245
 7397SOL    HW223792   5.589   5.581   2.143
 7398SOL     OW23793   5.438   4.668   2.509
 7398SOL    HW123794   5.532   4.632   2.510
 7398SOL    HW223795   5.423   4.718   2.424
 7399SOL     OW23796   5.402   4.843   2.293
 7399SOL    HW123797   5.484   4.821   2.239
 7399SOL    HW223798   5.424   4.914   2.359
 7400SOL     OW23799   4.286   5.136   2.599
 7400SOL    HW123800   4.247   5.046   2.579
 7400SOL    HW223801   4.305   5.184   2.514
 7401SOL     OW23802   4.972   4.985   3.296
 7401SOL    HW123803   5.000   4.939   3.212
 7401SOL    HW223804   5.045   4.977   3.364
 7402SOL     OW23805   4.010   4.867   3.085
 7402SOL    HW123806   4.089   4.836   3.030
 7402SOL    HW223807   3.931   4.880   3.025
 7403SOL     OW23808   5.282   4.742   2.058
 7403SOL    HW123809   5.211   4.676   2.081
 7403SOL    HW223810   5.320   4.781   2.142
 7404SOL     OW23811   5.051   5.590   3.469
 7404SOL    HW123812   4.988   5.654   3.426
 7404SOL    HW223813   5.025   5.496   3.445
 7405SOL     OW23814   4.076   3.937   3.727
 7405SOL    HW123815   4.138   4.015   3.730
 7405SOL    HW223816   3.982   3.969   3.717
 7406SOL     OW23817   5.149   5.182   2.764
 7406SOL    HW123818   5.099   5.204   2.847
 7406SOL    HW223819   5.145   5.084   2.747
 7407SOL     OW23820   5.360   5.589   2.399
 7407SOL    HW123821   5.350   5.524   2.324
 7407SOL    HW223822   5.378   5.540   2.484
 7408SOL     OW23823   4.311   4.468   2.069
 7408SOL    HW123824   4.322   4.555   2.021
 7408SOL    HW223825   4.242   4.478   2.140
 7409SOL     OW23826   5.326   5.409   2.190
 7409SOL    HW123827   5.425   5.425   2.184
 7409SOL    HW223828   5.289   5.391   2.099
 7410SOL     OW23829   4.561   4.140   3.339
 7410SOL    HW123830   4.523   4.148   3.431
 7410SOL    HW223831   4.493   4.103   3.277
 7411SOL     OW23832   5.155   4.130   3.460
 7411SOL    HW123833   5.156   4.161   3.554
 7411SOL    HW223834   5.186   4.035   3.456
 7412SOL     OW23835   4.790   4.106   3.196
 7412SOL    HW123836   4.718   4.142   3.255
 7412SOL    HW223837   4.750   4.052   3.123
 7413SOL     OW23838   4.805   4.466   2.188
 7413SOL    HW123839   4.810   4.511   2.278
 7413SOL    HW223840   4.721   4.413   2.182
 7414SOL     OW23841   3.810   4.651   2.636
 7414SOL    HW123842   3.891   4.706   2.657
 7414SOL    HW223843   3.739   4.670   2.704
 7415SOL     OW23844   3.866   5.643   3.487
 7415SOL    HW123845   3.885   5.606   3.578
 7415SOL    HW223846   3.769   5.637   3.468
 7416SOL     OW23847   4.583   4.103   2.057
 7416SOL    HW123848   4.637   4.135   1.979
 7416SOL    HW223849   4.525   4.026   2.028
 7417SOL     OW23850   5.405   4.301   3.679
 7417SOL    HW123851   5.401   4.382   3.621
 7417SOL    HW223852   5.437   4.223   3.626
 7418SOL     OW23853   5.141   4.868   2.438
 7418SOL    HW123854   5.224   4.862   2.382
 7418SOL    HW223855   5.078   4.933   2.396
 7419SOL     OW23856   4.726   5.203   2.325
 7419SOL    HW123857   4.711   5.274   2.256
 7419SOL    HW223858   4.690   5.233   2.413
 7420SOL     OW23859   4.053   5.561   2.751
 7420SOL    HW123860   4.092   5.470   2.767
 7420SOL    HW223861   4.126   5.629   2.753
 7421SOL     OW23862   5.520   4.781   2.754
 7421SOL    HW123863   5.477   4.771   2.664
 7421SOL    HW223864   5.450   4.806   2.821
 7422SOL     OW23865   4.940   5.342   3.383
 7422SOL    HW123866   4.921   5.282   3.460
 7422SOL    HW223867   4.855   5.356   3.330
 7423SOL     OW23868   4.005   4.672   2.118
 7423SOL    HW123869   4.026   4.655   2.022
 7423SOL    HW223870   4.042   4.597   2.174
 7424SOL     OW23871   5.285   4.477   2.619
 7424SOL    HW123872   5.313   4.460   2.714
 7424SOL    HW223873   5.343   4.547   2.579
 7425SOL     OW23874   4.876   5.474   2.099
 7425SOL    HW123875   4.780   5.461   2.124
 7425SOL    HW223876   4.906   5.396   2.045
 7426SOL     OW23877   3.949   3.925   3.395
 7426SOL    HW123878   3.899   4.010   3.381
 7426SOL    HW223879   3.884   3.852   3.418
 7427SOL     OW23880   5.368   5.116   1.966
 7427SOL    HW123881   5.331   5.208   1.957
 7427SOL    HW223882   5.303   5.050   1.928
 7428SOL     OW23883   4.190   5.447   2.197
 7428SOL    HW123884   4.226   5.516   2.260
 7428SOL    HW223885   4.260   5.425   2.129
 7429SOL     OW23886   5.217   3.857   2.218
 7429SOL    HW123887   5.183   3.796   2.146
 7429SOL    HW223888   5.270   3.804   2.284
 7430SOL     OW23889   4.666   5.426   2.730
 7430SOL    HW123890   4.755   5.379   2.736
 7430SOL    HW223891   4.615   5.390   2.653
 7431SOL     OW23892   4.109   4.469   2.280
 7431SOL    HW123893   4.155   4.381   2.289
 7431SOL    HW223894   4.024   4.468   2.333
 7432SOL     OW23895   5.258   3.874   3.536
 7432SOL    HW123896   5.267   3.890   3.635
 7432SOL    HW223897   5.191   3.801   3.520
 7433SOL     OW23898   4.422   3.879   1.965
 7433SOL    HW123899   4.479   3.810   2.010
 7433SOL    HW223900   4.351   3.834   1.911
 7434SOL     OW23901   4.567   3.878   3.675
 7434SOL    HW123902   4.654   3.832   3.656
 7434SOL    HW223903   4.512   3.820   3.735
 7435SOL     OW23904   4.607   5.248   3.018
 7435SOL    HW123905   4.537   5.233   2.948
 7435SOL    HW223906   4.688   5.193   2.996
 7436SOL     OW23907   5.228   4.288   3.246
 7436SOL    HW123908   5.212   4.233   3.327
 7436SOL    HW223909   5.192   4.380   3.260
 7437SOL     OW23910   4.490   5.111   2.788
 7437SOL    HW123911   4.578   5.106   2.740
 7437SOL    HW223912   4.417   5.129   2.722
 7438SOL     OW23913   5.180   4.931   1.883
 7438SOL    HW123914   5.222   4.856   1.934
 7438SOL    HW223915   5.102   4.967   1.935
 7439SOL     OW23916   4.029   3.773   2.024
 7439SOL    HW123917   4.065   3.852   1.974
 7439SOL    HW223918   4.105   3.725   2.068
 7440SOL     OW23919   4.750   4.125   2.277
 7440SOL    HW123920   4.685   4.105   2.204
 7440SOL    HW223921   4.837   4.079   2.257
 7441SOL     OW23922   4.913   5.296   2.640
 7441SOL    HW123923   4.930   5.370   2.575
 7441SOL    HW223924   5.000   5.265   2.678
 7442SOL     OW23925   4.177   4.896   2.521
 7442SOL    HW123926   4.114   4.871   2.594
 7442SOL    HW223927   4.129   4.891   2.433
 7443SOL     OW23928   4.960   5.517   2.472
 7443SOL    HW123929   5.014   5.580   2.417
 7443SOL    HW223930   4.884   5.567   2.514
 7444SOL     OW23931   4.744   4.237   1.876
 7444SOL    HW123932   4.701   4.326   1.860
 7444SOL    HW223933   4.821   4.249   1.938
 7445SOL     OW23934   3.887   4.195   3.308
 7445SOL    HW123935   3.972   4.172   3.261
 7445SOL    HW223936   3.859   4.287   3.284
 7446SOL     OW23937   4.290   3.776   3.075
 7446SOL    HW123938   4.303   3.720   3.157
 7446SOL    HW223939   4.197   3.813   3.075
 7447SOL     OW23940   4.661   4.344   2.422
 7447SOL    HW123941   4.593   4.369   2.353
 7447SOL    HW223942   4.704   4.257   2.397
 7448SOL     OW23943   5.149   4.916   2.717
 7448SOL    HW123944   5.081   4.850   2.751
 7448SOL    HW223945   5.160   4.905   2.618
 7449SOL     OW23946   5.543   4.522   2.240
 7449SOL    HW123947   5.606   4.483   2.307
 7449SOL    HW223948   5.523   4.454   2.169
 7450SOL     OW23949   4.191   5.181   1.957
 7450SOL    HW123950   4.103   5.154   1.997
 7450SOL    HW223951   4.236   5.101   1.919
 7451SOL     OW23952   5.474   5.015   2.483
 7451SOL    HW123953   5.570   5.014   2.511
 7451SOL    HW223954   5.432   5.102   2.511
 7452SOL     OW23955   5.114   4.323   1.856
 7452SOL    HW123956   5.065   4.292   1.937
 7452SOL    HW223957   5.213   4.316   1.872
 7453SOL     OW23958   4.274   4.036   2.150
 7453SOL    HW123959   4.325   3.967   2.099
 7453SOL    HW223960   4.238   4.105   2.086
 7454SOL     OW23961   5.439   4.977   3.387
 7454SOL    HW123962   5.526   4.927   3.377
 7454SOL    HW223963   5.458   5.069   3.422
 7455SOL     OW23964   4.717   5.070   3.316
 7455SOL    HW123965   4.703   5.168   3.303
 7455SOL    HW223966   4.815   5.050   3.308
 7456SOL     OW23967   5.304   5.355   3.565
 7456SOL    HW123968   5.273   5.413   3.490
 7456SOL    HW223969   5.386   5.306   3.538
 7457SOL     OW23970   4.801   5.059   2.953
 7457SOL    HW123971   4.741   4.994   3.000
 7457SOL    HW223972   4.781   5.058   2.855
 7458SOL     OW23973   5.323   4.854   2.932
 7458SOL    HW123974   5.312   4.915   3.010
 7458SOL    HW223975   5.259   4.879   2.860
 7459SOL     OW23976   4.679   3.847   3.319
 7459SOL    HW123977   4.733   3.806   3.245
 7459SOL    HW223978   4.704   3.943   3.329
 7460SOL     OW23979   4.728   4.951   3.566
 7460SOL    HW123980   4.640   4.921   3.603
 7460SOL    HW223981   4.717   4.979   3.471
 7461SOL     OW23982   4.468   4.808   2.189
 7461SOL    HW123983   4.453   4.783   2.285
 7461SOL    HW223984   4.537   4.749   2.149
 7462SOL     OW23985   5.057   4.088   3.145
 7462SOL    HW123986   5.115   4.165   3.171
 7462SOL    HW223987   4.961   4.111   3.161
 7463SOL     OW23988   3.807   5.337   3.162
 7463SOL    HW123989   3.737   5.404   3.136
 7463SOL    HW223990   3.871   5.324   3.086
 7464SOL     OW23991   4.018   4.884   2.298
 7464SOL    HW123992   3.999   4.970   2.250
 7464SOL    HW223993   4.021   4.809   2.231
 7465SOL     OW23994   4.981   5.075   2.318
 7465SOL    HW123995   5.042   5.153   2.330
 7465SOL    HW223996   4.886   5.105   2.326
 7466SOL     OW23997   5.015   5.234   2.991
 7466SOL    HW123998   5.061   5.236   3.080
 7466SOL    HW223999   4.935   5.175   2.996
 7467SOL     OW24000   5.226   4.307   2.410
 7467SOL    HW124001   5.258   4.365   2.485
 7467SOL    HW224002   5.204   4.363   2.331
 7468SOL     OW24003   5.342   4.525   3.536
 7468SOL    HW124004   5.251   4.490   3.514
 7468SOL    HW224005   5.371   4.589   3.465
 7469SOL     OW24006   4.821   3.800   3.613
 7469SOL    HW124007   4.844   3.888   3.572
 7469SOL    HW224008   4.895   3.735   3.595
 7470SOL     OW24009   4.196   3.720   3.613
 7470SOL    HW124010   4.133   3.663   3.561
 7470SOL    HW224011   4.147   3.799   3.649
 7471SOL     OW24012   4.206   4.783   2.896
 7471SOL    HW124013   4.296   4.825   2.907
 7471SOL    HW224014   4.216   4.684   2.884
 7472SOL     OW24015   4.982   4.717   2.804
 7472SOL    HW124016   4.992   4.688   2.709
 7472SOL    HW224017   4.954   4.639   2.860
 7473SOL     OW24018   4.948   4.259   2.062
 7473SOL    HW124019   4.973   4.181   2.119
 7473SOL    HW224020   4.905   4.329   2.119
 7474SOL     OW24021   4.036   3.831   3.156
 7474SOL    HW124022   4.010   3.877   3.241
 7474SOL    HW224023   4.005   3.736   3.159
 7475SOL     OW24024   3.751   5.072   3.106
 7475SOL    HW124025   3.784   5.017   3.182
 7475SOL    HW224026   3.766   5.169   3.125
 7476SOL     OW24027   5.487   4.684   3.717
 7476SOL    HW124028   5.432   4.621   3.661
 7476SOL    HW224029   5.433   4.714   3.796
 7477SOL     OW24030   5.352   4.145   2.199
 7477SOL    HW124031   5.394   4.062   2.235
 7477SOL    HW224032   5.297   4.188   2.270
 7478SOL     OW24033   4.721   5.398   3.681
 7478SOL    HW124034   4.630   5.415   3.643
 7478SOL    HW224035   4.764   5.324   3.632
 7479SOL     OW24036   5.533   5.228   3.457
 7479SOL    HW124037   5.553   5.254   3.362
 7479SOL    HW224038   5.615   5.242   3.513
 7480SOL     OW24039   5.231   3.971   1.926
 7480SOL    HW124040   5.188   3.888   1.962
 7480SOL    HW224041   5.267   4.026   2.002
 7481SOL     OW24042   5.013   4.578   1.839
 7481SOL    HW124043   5.039   4.481   1.841
 7481SOL    HW224044   5.044   4.619   1.754
 7482SOL     OW24045   4.745   5.077   2.685
 7482SOL    HW124046   4.755   4.995   2.629
 7482SOL    HW224047   4.806   5.148   2.651
 7483SOL     OW24048   4.892   4.043   3.504
 7483SOL    HW124049   4.868   4.093   3.587
 7483SOL    HW224050   4.971   4.086   3.460
 7484SOL     OW24051   4.995   3.873   3.307
 7484SOL    HW124052   4.934   3.922   3.369
 7484SOL    HW224053   5.027   3.934   3.236
 7485SOL     OW24054   3.776   5.536   2.808
 7485SOL    HW124055   3.756   5.442   2.779
 7485SOL    HW224056   3.873   5.555   2.796
 7486SOL     OW24057   4.180   5.314   2.788
 7486SOL    HW124058   4.260   5.373   2.804
 7486SOL    HW224059   4.204   5.243   2.723
 7487SOL     OW24060   4.022   4.188   3.554
 7487SOL    HW124061   4.094   4.126   3.522
 7487SOL    HW224062   3.965   4.216   3.476
 7488SOL     OW24063   4.548   4.358   2.164
 7488SOL    HW124064   4.552   4.264   2.132
 7488SOL    HW224065   4.465   4.402   2.130
 7489SOL     OW24066   5.377   4.398   3.023
 7489SOL    HW124067   5.334   4.345   3.096
 7489SOL    HW224068   5.469   4.361   3.005
 7490SOL     OW24069   4.431   4.009   3.126
 7490SOL    HW124070   4.374   3.928   3.109
 7490SOL    HW224071   4.520   3.996   3.083
 7491SOL     OW24072   4.691   5.355   3.253
 7491SOL    HW124073   4.653   5.319   3.169
 7491SOL    HW224074   4.679   5.454   3.256
 7492SOL     OW24075   4.185   4.231   1.978
 7492SOL    HW124076   4.250   4.305   1.995
 7492SOL    HW224077   4.093   4.262   1.999
 7493SOL     OW24078   3.849   4.920   3.310
 7493SOL    HW124079   3.876   4.895   3.403
 7493SOL    HW224080   3.917   4.888   3.245
 7494SOL     OW24081   4.992   4.878   3.038
 7494SOL    HW124082   5.008   4.814   2.962
 7494SOL    HW224083   4.934   4.953   3.006
 7495SOL     OW24084   5.063   4.577   2.109
 7495SOL    HW124085   4.978   4.546   2.152
 7495SOL    HW224086   5.050   4.580   2.010
 7496SOL     OW24087   5.475   5.433   3.007
 7496SOL    HW124088   5.550   5.461   2.947
 7496SOL    HW224089   5.439   5.344   2.976
 7497SOL     OW24090   4.997   5.507   2.948
 7497SOL    HW124091   5.090   5.543   2.941
 7497SOL    HW224092   5.001   5.408   2.964
 7498SOL     OW24093   3.800   4.903   2.901
 7498SOL    HW124094   3.770   4.972   2.967
 7498SOL    HW224095   3.721   4.852   2.868
 7499SOL     OW24096   4.474   5.463   3.568
 7499SOL    HW124097   4.409   5.532   3.598
 7499SOL    HW224098   4.468   5.452   3.469
 7500SOL     OW24099   5.512   3.951   2.322
 7500SOL    HW124100   5.563   3.937   2.237
 7500SOL    HW224101   5.465   3.866   2.347
 7501SOL     OW24102   5.128   5.308   2.358
 7501SOL    HW124103   5.192   5.344   2.289
 7501SOL    HW224104   5.063   5.380   2.383
 7502SOL     OW24105   3.919   5.515   3.721
 7502SOL    HW124106   3.854   5.444   3.747
 7502SOL    HW224107   4.007   5.498   3.766
 7503SOL     OW24108   5.056   4.627   2.554
 7503SOL    HW124109   5.136   4.570   2.574
 7503SOL    HW224110   5.084   4.708   2.503
 7504SOL     OW24111   4.382   5.371   2.019
 7504SOL    HW124112   4.419   5.402   1.931
 7504SOL    HW224113   4.321   5.293   2.004
 7505SOL     OW24114   5.344   5.452   3.252
 7505SOL    HW124115   5.392   5.453   3.164
 7505SOL    HW224116   5.365   5.536   3.303
 7506SOL     OW24117   5.555   3.862   2.837
 7506SOL    HW124118   5.590   3.772   2.808
 7506SOL    HW224119   5.471   3.882   2.787
 7507SOL     OW24120   4.961   5.268   1.940
 7507SOL    HW124121   4.967   5.175   1.976
 7507SOL    HW224122   4.881   5.275   1.880
 7508SOL     OW24123   4.659   4.888   3.118
 7508SOL    HW124124   4.720   4.812   3.140
 7508SOL    HW224125   4.660   4.955   3.192
 7509SOL     OW24126   4.654   4.654   2.052
 7509SOL    HW124127   4.719   4.716   2.008
 7509SOL    HW224128   4.703   4.583   2.102
 7510SOL     OW24129   5.221   5.368   1.936
 7510SOL    HW124130   5.128   5.333   1.929
 7510SOL    HW224131   5.262   5.374   1.845
 7511SOL     OW24132   5.304   5.042   3.142
 7511SOL    HW124133   5.362   5.013   3.219
 7511SOL    HW224134   5.240   5.112   3.174
 7512SOL     OW24135   4.748   4.831   2.560
 7512SOL    HW124136   4.674   4.794   2.616
 7512SOL    HW224137   4.778   4.762   2.495
 7513SOL     OW24138   4.678   3.933   3.011
 7513SOL    HW124139   4.710   3.951   2.918
 7513SOL    HW224140   4.713   3.844   3.042
 7514SOL     OW24141   4.342   5.244   2.351
 7514SOL    HW124142   4.392   5.183   2.289
 7514SOL    HW224143   4.273   5.295   2.300
 7515SOL     OW24144   5.586   4.100   3.304
 7515SOL    HW124145   5.622   4.190   3.279
 7515SOL    HW224146   5.570   4.047   3.222
 7516SOL     OW24147   3.940   5.099   2.040
 7516SOL    HW124148   3.855   5.100   1.987
 7516SOL    HW224149   3.920   5.126   2.134
 7517SOL     OW24150   3.766   4.942   3.613
 7517SOL    HW124151   3.685   4.946   3.555
 7517SOL    HW224152   3.740   4.951   3.709
 7518SOL     OW24153   4.429   3.846   3.435
 7518SOL    HW124154   4.506   3.853   3.372
 7518SOL    HW224155   4.462   3.856   3.529
 7519SOL     OW24156   3.827   4.054   1.823
 7519SOL    HW124157   3.735   4.057   1.784
 7519SOL    HW224158   3.879   4.134   1.791
 7520SOL     OW24159   3.785   3.894   2.052
 7520SOL    HW124160   3.785   3.960   1.977
 7520SOL    HW224161   3.874   3.850   2.059
 7521SOL     OW24162   4.972   5.013   2.043
 7521SOL    HW124163   4.920   4.932   2.017
 7521SOL    HW224164   4.975   5.021   2.142
 7522SOL     OW24165   5.256   5.600   2.928
 7522SOL    HW124166   5.288   5.652   2.849
 7522SOL    HW224167   5.332   5.546   2.965
 7523SOL     OW24168   4.498   4.139   3.616
 7523SOL    HW124169   4.551   4.197   3.677
 7523SOL    HW224170   4.521   4.043   3.632
 7524SOL     OW24171   5.174   4.958   3.490
 7524SOL    HW124172   5.174   4.953   3.590
 7524SOL    HW224173   5.267   4.973   3.457
 7525SOL     OW24174   4.124   5.545   3.433
 7525SOL    HW124175   4.028   5.575   3.444
 7525SOL    HW224176   4.133   5.450   3.463
 7526SOL     OW24177   5.454   4.655   3.084
 7526SOL    HW124178   5.426   4.563   3.056
 7526SOL    HW224179   5.413   4.722   3.023
 7527SOL     OW24180   5.015   4.049   2.225
 7527SOL    HW124181   5.079   3.978   2.195
 7527SOL    HW224182   5.028   4.066   2.323
 7528SOL     OW24183   4.255   4.540   2.514
 7528SOL    HW124184   4.319   4.614   2.491
 7528SOL    HW224185   4.204   4.514   2.432
 7529SOL     OW24186   5.467   4.069   3.546
 7529SOL    HW124187   5.510   4.081   3.456
 7529SOL    HW224188   5.396   3.999   3.539
 7530SOL     OW24189   5.350   4.707   3.330
 7530SOL    HW124190   5.366   4.802   3.357
 7530SOL    HW224191   5.398   4.688   3.244
 7531SOL     OW24192   4.530   5.118   1.918
 7531SOL    HW124193   4.527   5.121   2.018
 7531SOL    HW224194   4.602   5.180   1.885
 7532SOL     OW24195   4.387   5.488   2.794
 7532SOL    HW124196   4.364   5.581   2.766
 7532SOL    HW224197   4.486   5.475   2.786
 7533SOL     OW24198   4.538   4.723   2.703
 7533SOL    HW124199   4.527   4.625   2.720
 7533SOL    HW224200   4.511   4.775   2.784
 7534SOL     OW24201   4.855   4.790   1.927
 7534SOL    HW124202   4.805   4.824   1.847
 7534SOL    HW224203   4.914   4.715   1.898
 7535SOL     OW24204   5.535   5.289   2.710
 7535SOL    HW124205   5.468   5.282   2.636
 7535SOL    HW224206   5.505   5.234   2.788
 7536SOL     OW24207   3.909   5.174   3.633
 7536SOL    HW124208   3.869   5.083   3.622
 7536SOL    HW224209   3.854   5.227   3.697
 7537SOL     OW24210   3.845   4.959   2.503
 7537SOL    HW124211   3.889   4.937   2.591
 7537SOL    HW224212   3.896   4.916   2.429
 7538SOL     OW24213   5.560   3.896   3.116
 7538SOL    HW124214   5.632   3.829   3.132
 7538SOL    HW224215   5.539   3.900   3.018
 7539SOL     OW24216   4.248   4.245   2.325
 7539SOL    HW124217   4.255   4.161   2.270
 7539SOL    HW224218   4.319   4.244   2.396
 7540SOL     OW24219   5.382   5.193   2.922
 7540SOL    HW124220   5.300   5.189   2.865
 7540SOL    HW224221   5.372   5.131   3.000
 7541SOL     OW24222   4.134   4.135   3.211
 7541SOL    HW124223   4.172   4.094   3.294
 7541SOL    HW224224   4.201   4.127   3.136
 7542SOL     OW24225   4.549   5.361   2.494
 7542SOL    HW124226   4.553   5.453   2.453
 7542SOL    HW224227   4.472   5.311   2.454
 7543SOL     OW24228   5.164   3.954   2.935
 7543SOL    HW124229   5.176   3.860   2.966
 7543SOL    HW224230   5.123   4.009   3.008
 7544SOL     OW24231   4.784   3.698   3.107
 7544SOL    HW124232   4.737   3.613   3.127
 7544SOL    HW224233   4.875   3.679   3.069
 7545SOL     OW24234   4.506   5.083   2.196
 7545SOL    HW124235   4.490   4.984   2.192
 7545SOL    HW224236   4.592   5.101   2.244
 7546SOL     OW24237   5.108   3.733   2.003
 7546SOL    HW124238   5.150   3.651   1.966
 7546SOL    HW224239   5.009   3.719   2.011
 7547SOL     OW24240   5.313   3.902   2.718
 7547SOL    HW124241   5.257   3.938   2.792
 7547SOL    HW224242   5.274   3.929   2.630
 7548SOL     OW24243   3.739   4.726   2.187
 7548SOL    HW124244   3.833   4.724   2.152
 7548SOL    HW224245   3.712   4.634   2.215
 7549SOL     OW24246   4.614   5.419   2.174
 7549SOL    HW124247   4.533   5.392   2.121
 7549SOL    HW224248   4.588   5.488   2.241
 7550SOL     OW24249   3.943   4.064   4.827
 7550SOL    HW124250   3.983   3.992   4.883
 7550SOL    HW224251   3.847   4.045   4.811
 7551SOL     OW24252   4.322   5.073   4.959
 7551SOL    HW124253   4.239   5.066   4.904
 7551SOL    HW224254   4.337   5.169   4.984
 7552SOL     OW24255   5.316   5.238   4.431
 7552SOL    HW124256   5.265   5.200   4.509
 7552SOL    HW224257   5.251   5.269   4.361
 7553SOL     OW24258   4.860   4.496   4.507
 7553SOL    HW124259   4.898   4.561   4.442
 7553SOL    HW224260   4.823   4.545   4.586
 7554SOL     OW24261   5.494   4.310   3.934
 7554SOL    HW124262   5.465   4.316   3.839
 7554SOL    HW224263   5.451   4.231   3.977
 7555SOL     OW24264   4.465   4.903   4.794
 7555SOL    HW124265   4.405   4.935   4.867
 7555SOL    HW224266   4.508   4.981   4.749
 7556SOL     OW24267   4.602   4.440   5.596
 7556SOL    HW124268   4.597   4.499   5.676
 7556SOL    HW224269   4.621   4.495   5.515
 7557SOL     OW24270   4.440   4.736   4.413
 7557SOL    HW124271   4.508   4.751   4.484
 7557SOL    HW224272   4.371   4.809   4.416
 7558SOL     OW24273   4.440   4.884   5.548
 7558SOL    HW124274   4.467   4.967   5.596
 7558SOL    HW224275   4.365   4.905   5.486
 7559SOL     OW24276   4.101   5.115   4.800
 7559SOL    HW124277   4.023   5.060   4.770
 7559SOL    HW224278   4.137   5.168   4.724
 7560SOL     OW24279   5.181   5.224   5.123
 7560SOL    HW124280   5.238   5.305   5.133
 7560SOL    HW224281   5.102   5.231   5.184
 7561SOL     OW24282   4.222   4.075   5.185
 7561SOL    HW124283   4.304   4.019   5.196
 7561SOL    HW224284   4.143   4.028   5.225
 7562SOL     OW24285   5.392   4.210   4.529
 7562SOL    HW124286   5.344   4.272   4.468
 7562SOL    HW224287   5.406   4.254   4.618
 7563SOL     OW24288   4.896   5.038   5.455
 7563SOL    HW124289   4.982   5.010   5.497
 7563SOL    HW224290   4.833   4.960   5.452
 7564SOL     OW24291   4.010   4.836   4.547
 7564SOL    HW124292   4.007   4.737   4.558
 7564SOL    HW224293   3.973   4.880   4.629
 7565SOL     OW24294   4.247   5.580   5.119
 7565SOL    HW124295   4.174   5.537   5.172
 7565SOL    HW224296   4.319   5.612   5.180
 7566SOL     OW24297   4.248   4.813   4.022
 7566SOL    HW124298   4.255   4.765   3.934
 7566SOL    HW224299   4.335   4.804   4.071
 7567SOL     OW24300   5.425   3.808   5.227
 7567SOL    HW124301   5.458   3.861   5.149
 7567SOL    HW224302   5.366   3.865   5.284
 7568SOL     OW24303   5.596   5.495   4.025
 7568SOL    HW124304   5.669   5.489   4.092
 7568SOL    HW224305   5.590   5.588   3.990
 7569SOL     OW24306   3.757   5.307   3.819
 7569SOL    HW124307   3.711   5.221   3.840
 7569SOL    HW224308   3.744   5.371   3.894
 7570SOL     OW24309   5.441   4.650   4.376
 7570SOL    HW124310   5.535   4.621   4.396
 7570SOL    HW224311   5.440   4.704   4.291
 7571SOL     OW24312   5.434   4.839   4.163
 7571SOL    HW124313   5.518   4.818   4.113
 7571SOL    HW224314   5.450   4.915   4.225
 7572SOL     OW24315   3.818   4.514   5.250
 7572SOL    HW124316   3.877   4.561   5.184
 7572SOL    HW224317   3.732   4.563   5.259
 7573SOL     OW24318   4.976   4.963   5.152
 7573SOL    HW124319   4.989   4.890   5.085
 7573SOL    HW224320   5.052   4.962   5.217
 7574SOL     OW24321   4.525   3.707   4.176
 7574SOL    HW124322   4.593   3.774   4.148
 7574SOL    HW224323   4.434   3.749   4.172
 7575SOL     OW24324   3.950   4.660   5.056
 7575SOL    HW124325   4.038   4.615   5.041
 7575SOL    HW224326   3.912   4.690   4.969
 7576SOL     OW24327   5.301   4.753   3.931
 7576SOL    HW124328   5.257   4.668   3.961
 7576SOL    HW224329   5.347   4.796   4.009
 7577SOL     OW24330   5.013   5.593   5.369
 7577SOL    HW124331   4.960   5.643   5.301
 7577SOL    HW224332   5.009   5.495   5.349
 7578SOL     OW24333   4.086   4.006   5.594
 7578SOL    HW124334   4.125   4.080   5.649
 7578SOL    HW224335   4.007   4.039   5.544
 7579SOL     OW24336   5.198   5.122   4.649
 7579SOL    HW124337   5.138   5.148   4.724
 7579SOL    HW224338   5.183   5.026   4.626
 7580SOL     OW24339   5.391   5.588   4.274
 7580SOL    HW124340   5.375   5.524   4.200
 7580SOL    HW224341   5.417   5.538   4.357
 7581SOL     OW24342   5.060   4.197   4.688
 7581SOL    HW124343   5.001   4.161   4.616
 7581SOL    HW224344   5.079   4.125   4.755
 7582SOL     OW24345   5.336   5.416   4.064
 7582SOL    HW124346   5.434   5.431   4.047
 7582SOL    HW224347   5.289   5.403   3.977
 7583SOL     OW24348   4.496   4.289   5.194
 7583SOL    HW124349   4.461   4.256   5.282
 7583SOL    HW224350   4.476   4.221   5.123
 7584SOL     OW24351   5.106   4.225   5.404
 7584SOL    HW124352   5.115   4.277   5.488
 7584SOL    HW224353   5.177   4.155   5.399
 7585SOL     OW24354   4.662   4.591   5.372
 7585SOL    HW124355   4.704   4.529   5.306
 7585SOL    HW224356   4.599   4.653   5.324
 7586SOL     OW24357   4.730   4.087   4.881
 7586SOL    HW124358   4.638   4.107   4.916
 7586SOL    HW224359   4.742   3.988   4.875
 7587SOL     OW24360   3.755   4.640   4.473
 7587SOL    HW124361   3.843   4.602   4.501
 7587SOL    HW224362   3.727   4.712   4.537
 7588SOL     OW24363   3.807   5.561   5.325
 7588SOL    HW124364   3.814   5.537   5.422
 7588SOL    HW224365   3.719   5.607   5.309
 7589SOL     OW24366   4.691   4.043   3.862
 7589SOL    HW124367   4.771   4.086   3.819
 7589SOL    HW224368   4.647   3.982   3.796
 7590SOL     OW24369   5.456   4.314   5.557
 7590SOL    HW124370   5.414   4.402   5.533
 7590SOL    HW224371   5.459   4.256   5.477
 7591SOL     OW24372   5.176   4.874   4.310
 7591SOL    HW124373   5.265   4.860   4.268
 7591SOL    HW224374   5.129   4.950   4.265
 7592SOL     OW24375   5.515   4.759   4.633
 7592SOL    HW124376   5.460   4.750   4.550
 7592SOL    HW224377   5.454   4.773   4.712
 7593SOL     OW24378   4.954   5.262   5.284
 7593SOL    HW124379   4.945   5.179   5.340
 7593SOL    HW224380   4.864   5.286   5.248
 7594SOL     OW24381   5.265   4.446   4.413
 7594SOL    HW124382   5.237   4.448   4.509
 7594SOL    HW224383   5.330   4.520   4.396
 7595SOL     OW24384   4.229   5.002   5.419
 7595SOL    HW124385   4.189   5.004   5.327
 7595SOL    HW224386   4.155   5.007   5.486
 7596SOL     OW24387   4.879   5.522   4.055
 7596SOL    HW124388   4.808   5.497   4.121
 7596SOL    HW224389   4.891   5.447   3.989
 7597SOL     OW24390   3.982   3.955   5.262
 7597SOL    HW124391   3.946   4.024   5.324
 7597SOL    HW224392   3.928   3.871   5.270
 7598SOL     OW24393   5.384   5.127   3.826
 7598SOL    HW124394   5.350   5.221   3.821
 7598SOL    HW224395   5.313   5.063   3.796
 7599SOL     OW24396   5.191   3.909   4.111
 7599SOL    HW124397   5.148   3.850   4.043
 7599SOL    HW224398   5.243   3.853   4.176
 7600SOL     OW24399   3.860   5.511   4.939
 7600SOL    HW124400   3.943   5.460   4.962
 7600SOL    HW224401   3.863   5.538   4.843
 7601SOL     OW24402   5.246   3.968   5.384
 7601SOL    HW124403   5.245   3.955   5.483
 7601SOL    HW224404   5.160   3.933   5.345
 7602SOL     OW24405   4.376   3.743   3.817
 7602SOL    HW124406   4.396   3.654   3.859
 7602SOL    HW224407   4.306   3.731   3.747
 7603SOL     OW24408   4.498   3.977   5.508
 7603SOL    HW124409   4.587   3.933   5.500
 7603SOL    HW224410   4.440   3.924   5.569
 7604SOL     OW24411   4.609   5.287   4.918
 7604SOL    HW124412   4.587   5.232   4.837
 7604SOL    HW224413   4.661   5.231   4.983
 7605SOL     OW24414   4.985   4.328   5.179
 7605SOL    HW124415   5.030   4.295   5.262
 7605SOL    HW224416   5.021   4.418   5.155
 7606SOL     OW24417   4.577   5.132   4.691
 7606SOL    HW124418   4.671   5.116   4.661
 7606SOL    HW224419   4.526   5.177   4.617
 7607SOL     OW24420   4.729   4.322   4.721
 7607SOL    HW124421   4.775   4.320   4.632
 7607SOL    HW224422   4.745   4.236   4.769
 7608SOL     OW24423   4.282   3.828   4.150
 7608SOL    HW124424   4.259   3.882   4.231
 7608SOL    HW224425   4.291   3.889   4.071
 7609SOL     OW24426   5.181   4.948   3.769
 7609SOL    HW124427   5.221   4.874   3.823
 7609SOL    HW224428   5.110   4.993   3.824
 7610SOL     OW24429   4.008   3.783   3.945
 7610SOL    HW124430   4.067   3.842   3.890
 7610SOL    HW224431   4.064   3.715   3.993
 7611SOL     OW24432   4.715   3.861   4.065
 7611SOL    HW124433   4.705   3.939   4.003
 7611SOL    HW224434   4.796   3.809   4.040
 7612SOL     OW24435   4.727   4.428   5.160
 7612SOL    HW124436   4.652   4.364   5.170
 7612SOL    HW224437   4.814   4.378   5.164
 7613SOL     OW24438   4.930   5.343   4.530
 7613SOL    HW124439   4.960   5.408   4.461
 7613SOL    HW224440   4.953   5.377   4.621
 7614SOL     OW24441   4.230   4.908   4.397
 7614SOL    HW124442   4.154   4.885   4.458
 7614SOL    HW224443   4.193   4.939   4.309
 7615SOL     OW24444   4.999   5.547   4.355
 7615SOL    HW124445   5.057   5.611   4.304
 7615SOL    HW224446   4.912   5.591   4.377
 7616SOL     OW24447   4.892   4.182   3.740
 7616SOL    HW124448   4.864   4.270   3.778
 7616SOL    HW224449   4.992   4.176   3.742
 7617SOL     OW24450   3.833   4.270   5.121
 7617SOL    HW124451   3.929   4.259   5.096
 7617SOL    HW224452   3.822   4.353   5.176
 7618SOL     OW24453   4.305   3.906   4.928
 7618SOL    HW124454   4.335   3.826   4.979
 7618SOL    HW224455   4.206   3.917   4.939
 7619SOL     OW24456   5.177   4.856   4.594
 7619SOL    HW124457   5.123   4.778   4.625
 7619SOL    HW224458   5.180   4.857   4.494
 7620SOL     OW24459   5.214   4.417   4.685
 7620SOL    HW124460   5.150   4.340   4.687
 7620SOL    HW224461   5.284   4.404   4.756
 7621SOL     OW24462   5.557   4.529   4.084
 7621SOL    HW124463   5.608   4.489   4.160
 7621SOL    HW224464   5.525   4.455   4.024
 7622SOL     OW24465   5.476   5.027   4.344
 7622SOL    HW124466   5.569   5.035   4.381
 7622SOL    HW224467   5.422   5.106   4.374
 7623SOL     OW24468   5.166   4.179   3.729
 7623SOL    HW124469   5.194   4.089   3.763
 7623SOL    HW224470   5.245   4.240   3.727
 7624SOL     OW24471   4.306   3.981   3.935
 7624SOL    HW124472   4.342   3.902   3.886
 7624SOL    HW224473   4.288   4.055   3.870
 7625SOL     OW24474   5.495   4.940   5.246
 7625SOL    HW124475   5.582   4.898   5.219
 7625SOL    HW224476   5.513   5.030   5.286
 7626SOL     OW24477   4.744   5.100   5.077
 7626SOL    HW124478   4.662   5.061   5.118
 7626SOL    HW224479   4.825   5.058   5.117
 7627SOL     OW24480   5.344   5.346   5.415
 7627SOL    HW124481   5.329   5.394   5.328
 7627SOL    HW224482   5.422   5.284   5.406
 7628SOL     OW24483   4.864   4.991   4.851
 7628SOL    HW124484   4.799   5.030   4.917
 7628SOL    HW224485   4.844   5.027   4.760
 7629SOL     OW24486   5.327   4.813   4.830
 7629SOL    HW124487   5.327   4.887   4.898
 7629SOL    HW224488   5.265   4.836   4.755
 7630SOL     OW24489   4.697   3.824   5.164
 7630SOL    HW124490   4.709   3.819   5.065
 7630SOL    HW224491   4.783   3.850   5.207
 7631SOL     OW24492   4.708   4.835   5.492
 7631SOL    HW124493   4.612   4.859   5.507
 7631SOL    HW224494   4.713   4.746   5.447
 7632SOL     OW24495   4.485   4.781   4.145
 7632SOL    HW124496   4.478   4.755   4.241
 7632SOL    HW224497   4.563   4.843   4.132
 7633SOL     OW24498   4.178   4.515   5.011
 7633SOL    HW124499   4.237   4.521   5.091
 7633SOL    HW224500   4.146   4.420   5.000
 7634SOL     OW24501   4.955   4.094   5.040
 7634SOL    HW124502   4.969   4.182   5.086
 7634SOL    HW224503   4.872   4.099   4.984
 7635SOL     OW24504   3.814   5.274   5.123
 7635SOL    HW124505   3.778   5.366   5.107
 7635SOL    HW224506   3.911   5.272   5.100
 7636SOL     OW24507   4.024   4.927   4.116
 7636SOL    HW124508   4.009   4.999   4.049
 7636SOL    HW224509   4.107   4.876   4.092
 7637SOL     OW24510   4.236   4.353   4.646
 7637SOL    HW124511   4.253   4.418   4.571
 7637SOL    HW224512   4.319   4.341   4.700
 7638SOL     OW24513   5.021   5.080   4.201
 7638SOL    HW124514   5.063   5.170   4.214
 7638SOL    HW224515   4.945   5.069   4.265
 7639SOL     OW24516   5.062   5.181   4.879
 7639SOL    HW124517   5.104   5.193   4.969
 7639SOL    HW224518   4.995   5.107   4.883
 7640SOL     OW24519   4.070   5.261   5.026
 7640SOL    HW124520   4.072   5.209   4.940
 7640SOL    HW224521   4.160   5.299   5.044
 7641SOL     OW24522   4.206   4.427   5.432
 7641SOL    HW124523   4.245   4.475   5.353
 7641SOL    HW224524   4.268   4.353   5.459
 7642SOL     OW24525   5.337   4.550   5.470
 7642SOL    HW124526   5.242   4.580   5.462
 7642SOL    HW224527   5.389   4.579   5.389
 7643SOL     OW24528   4.735   3.846   5.493
 7643SOL    HW124529   4.796   3.925   5.487
 7643SOL    HW224530   4.786   3.763   5.469
 7644SOL     OW24531   4.219   3.791   5.477
 7644SOL    HW124532   4.170   3.741   5.406
 7644SOL    HW224533   4.169   3.875   5.499
 7645SOL     OW24534   4.409   4.613   4.874
 7645SOL    HW124535   4.409   4.706   4.838
 7645SOL    HW224536   4.318   4.591   4.910
 7646SOL     OW24537   5.057   4.641   4.714
 7646SOL    HW124538   4.961   4.615   4.721
 7646SOL    HW224539   5.113   4.559   4.701
 7647SOL     OW24540   4.034   3.875   4.998
 7647SOL    HW124541   4.016   3.911   5.089
 7647SOL    HW224542   4.006   3.779   4.994
 7648SOL     OW24543   3.809   5.020   5.010
 7648SOL    HW124544   3.822   4.959   5.089
 7648SOL    HW224545   3.796   5.114   5.042
 7649SOL     OW24546   4.465   4.352   4.795
 7649SOL    HW124547   4.559   4.344   4.762
 7649SOL    HW224548   4.448   4.447   4.824
 7650SOL     OW24549   5.381   4.081   4.030
 7650SOL    HW124550   5.455   4.049   4.090
 7650SOL    HW224551   5.294   4.042   4.060
 7651SOL     OW24552   4.783   4.588   4.754
 7651SOL    HW124553   4.756   4.625   4.843
 7651SOL    HW224554   4.763   4.490   4.752
 7652SOL     OW24555   4.723   5.233   5.530
 7652SOL    HW124556   4.698   5.288   5.450
 7652SOL    HW224557   4.778   5.155   5.500
 7653SOL     OW24558   5.571   5.192   5.323
 7653SOL    HW124559   5.582   5.222   5.229
 7653SOL    HW224560   5.655   5.211   5.374
 7654SOL     OW24561   4.106   4.638   5.594
 7654SOL    HW124562   4.186   4.672   5.644
 7654SOL    HW224563   4.134   4.563   5.534
 7655SOL     OW24564   5.273   3.940   3.803
 7655SOL    HW124565   5.213   3.873   3.844
 7655SOL    HW224566   5.333   3.979   3.874
 7656SOL     OW24567   4.829   5.099   4.602
 7656SOL    HW124568   4.834   5.029   4.531
 7656SOL    HW224569   4.874   5.183   4.570
 7657SOL     OW24570   4.001   4.559   4.569
 7657SOL    HW124571   4.091   4.550   4.526
 7657SOL    HW224572   3.982   4.477   4.623
 7658SOL     OW24573   3.980   4.309   4.711
 7658SOL    HW124574   3.966   4.214   4.738
 7658SOL    HW224575   4.076   4.325   4.689
 7659SOL     OW24576   4.879   4.078   5.452
 7659SOL    HW124577   4.818   4.122   5.518
 7659SOL    HW224578   4.958   4.137   5.435
 7660SOL     OW24579   4.961   3.913   5.250
 7660SOL    HW124580   4.926   3.969   5.325
 7660SOL    HW224581   4.968   3.968   5.167
 7661SOL     OW24582   3.702   5.026   3.873
 7661SOL    HW124583   3.607   5.048   3.855
 7661SOL    HW224584   3.707   4.950   3.938
 7662SOL     OW24585   3.821   5.572   4.670
 7662SOL    HW124586   3.787   5.478   4.672
 7662SOL    HW224587   3.842   5.598   4.576
 7663SOL     OW24588   4.216   5.274   4.609
 7663SOL    HW124589   4.220   5.373   4.624
 7663SOL    HW224590   4.303   5.242   4.572
 7664SOL     OW24591   4.657   4.631   4.992
 7664SOL    HW124592   4.685   4.555   5.050
 7664SOL    HW224593   4.567   4.612   4.953
 7665SOL     OW24594   3.743   4.301   4.863
 7665SOL    HW124595   3.820   4.323   4.803
 7665SOL    HW224596   3.776   4.293   4.957
 7666SOL     OW24597   3.937   4.376   5.462
 7666SOL    HW124598   4.036   4.389   5.450
 7666SOL    HW224599   3.888   4.431   5.394
 7667SOL     OW24600   5.101   4.677   5.383
 7667SOL    HW124601   5.132   4.770   5.364
 7667SOL    HW224602   5.081   4.630   5.296
 7668SOL     OW24603   5.414   4.358   4.867
 7668SOL    HW124604   5.414   4.285   4.936
 7668SOL    HW224605   5.508   4.387   4.849
 7669SOL     OW24606   3.985   5.262   5.450
 7669SOL    HW124607   3.955   5.331   5.516
 7669SOL    HW224608   3.996   5.174   5.496
 7670SOL     OW24609   4.470   4.129   4.962
 7670SOL    HW124610   4.407   4.052   4.948
 7670SOL    HW224611   4.446   4.203   4.899
 7671SOL     OW24612   4.653   5.364   5.295
 7671SOL    HW124613   4.577   5.306   5.267
 7671SOL    HW224614   4.662   5.440   5.231
 7672SOL     OW24615   4.245   4.151   3.726
 7672SOL    HW124616   4.330   4.155   3.673
 7672SOL    HW224617   4.176   4.207   3.681
 7673SOL     OW24618   3.862   4.857   5.231
 7673SOL    HW124619   3.871   4.833   5.328
 7673SOL    HW224620   3.898   4.782   5.175
 7674SOL     OW24621   4.998   4.777   4.946
 7674SOL    HW124622   5.037   4.727   4.869
 7674SOL    HW224623   4.941   4.852   4.911
 7675SOL     OW24624   5.473   5.418   4.889
 7675SOL    HW124625   5.543   5.455   4.828
 7675SOL    HW224626   5.446   5.327   4.857
 7676SOL     OW24627   5.001   5.430   4.784
 7676SOL    HW124628   5.083   5.487   4.788
 7676SOL    HW224629   5.021   5.340   4.823
 7677SOL     OW24630   3.877   4.959   4.754
 7677SOL    HW124631   3.853   4.984   4.848
 7677SOL    HW224632   3.797   4.923   4.708
 7678SOL     OW24633   4.441   5.453   5.466
 7678SOL    HW124634   4.401   5.530   5.416
 7678SOL    HW224635   4.535   5.438   5.435
 7679SOL     OW24636   5.547   3.944   4.204
 7679SOL    HW124637   5.598   3.916   4.123
 7679SOL    HW224638   5.485   3.870   4.232
 7680SOL     OW24639   5.137   5.327   4.239
 7680SOL    HW124640   5.203   5.358   4.171
 7680SOL    HW224641   5.082   5.405   4.270
 7681SOL     OW24642   3.853   5.482   5.588
 7681SOL    HW124643   3.798   5.401   5.607
 7681SOL    HW224644   3.878   5.526   5.675
 7682SOL     OW24645   4.975   4.691   4.335
 7682SOL    HW124646   4.998   4.612   4.279
 7682SOL    HW224647   5.049   4.758   4.330
 7683SOL     OW24648   4.495   5.020   5.166
 7683SOL    HW124649   4.468   5.082   5.240
 7683SOL    HW224650   4.429   5.026   5.091
 7684SOL     OW24651   5.341   5.449   5.141
 7684SOL    HW124652   5.391   5.443   5.055
 7684SOL    HW224653   5.324   5.546   5.162
 7685SOL     OW24654   5.570   3.851   4.736
 7685SOL    HW124655   5.585   3.759   4.700
 7685SOL    HW224656   5.485   3.888   4.699
 7686SOL     OW24657   4.935   5.339   3.858
 7686SOL    HW124658   4.944   5.241   3.876
 7686SOL    HW224659   4.860   5.356   3.795
 7687SOL     OW24660   4.521   4.748   5.200
 7687SOL    HW124661   4.579   4.725   5.122
 7687SOL    HW224662   4.505   4.847   5.201
 7688SOL     OW24663   5.208   5.388   3.822
 7688SOL    HW124664   5.110   5.366   3.824
 7688SOL    HW224665   5.240   5.384   3.727
 7689SOL     OW24666   4.091   5.023   5.190
 7689SOL    HW124667   4.078   5.105   5.132
 7689SOL    HW224668   4.004   4.975   5.199
 7690SOL     OW24669   5.339   5.016   5.023
 7690SOL    HW124670   5.400   4.984   5.096
 7690SOL    HW224671   5.275   5.083   5.059
 7691SOL     OW24672   4.806   4.892   4.425
 7691SOL    HW124673   4.736   4.853   4.484
 7691SOL    HW224674   4.861   4.819   4.386
 7692SOL     OW24675   5.495   4.165   5.066
 7692SOL    HW124676   5.577   4.220   5.083
 7692SOL    HW224677   5.522   4.072   5.041
 7693SOL     OW24678   3.967   5.097   3.916
 7693SOL    HW124679   3.870   5.076   3.903
 7693SOL    HW224680   4.004   5.136   3.831
 7694SOL     OW24681   3.878   4.780   5.498
 7694SOL    HW124682   3.792   4.750   5.539
 7694SOL    HW224683   3.953   4.722   5.530
 7695SOL     OW24684   4.445   3.908   5.244
 7695SOL    HW124685   4.535   3.887   5.208
 7695SOL    HW224686   4.453   3.938   5.339
 7696SOL     OW24687   3.821   4.066   3.717
 7696SOL    HW124688   3.731   4.065   3.674
 7696SOL    HW224689   3.880   4.131   3.669
 7697SOL     OW24690   5.082   4.580   5.122
 7697SOL    HW124691   5.028   4.647   5.070
 7697SOL    HW224692   5.174   4.575   5.085
 7698SOL     OW24693   3.770   3.910   3.946
 7698SOL    HW124694   3.774   3.975   3.870
 7698SOL    HW224695   3.861   3.872   3.963
 7699SOL     OW24696   4.986   5.076   3.922
 7699SOL    HW124697   4.916   5.010   3.895
 7699SOL    HW224698   5.000   5.072   4.021
 7700SOL     OW24699   4.352   4.527   5.218
 7700SOL    HW124700   4.406   4.612   5.218
 7700SOL    HW224701   4.413   4.449   5.208
 7701SOL     OW24702   5.241   5.570   4.796
 7701SOL    HW124703   5.273   5.626   4.720
 7701SOL    HW224704   5.318   5.523   4.838
 7702SOL     OW24705   4.429   4.249   5.467
 7702SOL    HW124706   4.487   4.311   5.519
 7702SOL    HW224707   4.453   4.154   5.487
 7703SOL     OW24708   5.199   4.930   5.328
 7703SOL    HW124709   5.182   4.962   5.421
 7703SOL    HW224710   5.294   4.950   5.303
 7704SOL     OW24711   4.053   5.462   5.274
 7704SOL    HW124712   3.963   5.506   5.275
 7704SOL    HW224713   4.048   5.374   5.319
 7705SOL     OW24714   5.327   4.592   4.996
 7705SOL    HW124715   5.357   4.509   4.949
 7705SOL    HW224716   5.327   4.668   4.932
 7706SOL     OW24717   4.250   4.538   4.442
 7706SOL    HW124718   4.321   4.608   4.439
 7706SOL    HW224719   4.238   4.499   4.351
 7707SOL     OW24720   5.464   4.137   5.345
 7707SOL    HW124721   5.466   4.157   5.247
 7707SOL    HW224722   5.390   4.073   5.364
 7708SOL     OW24723   5.437   4.662   5.237
 7708SOL    HW124724   5.442   4.762   5.240
 7708SOL    HW224725   5.396   4.633   5.150
 7709SOL     OW24726   4.271   5.543   4.628
 7709SOL    HW124727   4.230   5.629   4.659
 7709SOL    HW224728   4.371   5.549   4.636
 7710SOL     OW24729   4.629   4.776   4.612
 7710SOL    HW124730   4.687   4.708   4.658
 7710SOL    HW224731   4.568   4.818   4.679
 7711SOL     OW24732   4.816   4.895   3.822
 7711SOL    HW124733   4.793   4.911   3.726
 7711SOL    HW224734   4.801   4.799   3.844
 7712SOL     OW24735   5.536   5.292   4.585
 7712SOL    HW124736   5.465   5.281   4.515
 7712SOL    HW224737   5.516   5.231   4.661
 7713SOL     OW24738   4.006   5.017   5.578
 7713SOL    HW124739   3.950   4.938   5.550
 7713SOL    HW224740   3.995   5.032   5.676
 7714SOL     OW24741   3.877   4.968   4.342
 7714SOL    HW124742   3.915   4.914   4.417
 7714SOL    HW224743   3.928   4.950   4.259
 7715SOL     OW24744   4.410   5.199   5.351
 7715SOL    HW124745   4.343   5.133   5.384
 7715SOL    HW224746   4.401   5.284   5.403
 7716SOL     OW24747   5.571   3.903   5.008
 7716SOL    HW124748   5.650   3.852   5.044
 7716SOL    HW224749   5.564   3.889   4.910
 7717SOL     OW24750   5.418   5.167   4.802
 7717SOL    HW124751   5.340   5.151   4.742
 7717SOL    HW224752   5.413   5.106   4.881
 7718SOL     OW24753   4.090   4.247   5.019
 7718SOL    HW124754   4.148   4.192   5.078
 7718SOL    HW224755   4.065   4.195   4.938
 7719SOL     OW24756   5.126   3.989   4.855
 7719SOL    HW124757   5.134   3.890   4.866
 7719SOL    HW224758   5.072   4.027   4.930
 7720SOL     OW24759   4.756   3.813   4.893
 7720SOL    HW124760   4.700   3.768   4.823
 7720SOL    HW224761   4.845   3.769   4.897
 7721SOL     OW24762   4.348   5.342   5.014
 7721SOL    HW124763   4.322   5.435   5.042
 7721SOL    HW224764   4.443   5.342   4.981
 7722SOL     OW24765   5.108   3.748   3.905
 7722SOL    HW124766   5.154   3.672   3.859
 7722SOL    HW224767   5.016   3.721   3.930
 7723SOL     OW24768   5.331   3.964   4.666
 7723SOL    HW124769   5.262   3.992   4.733
 7723SOL    HW224770   5.348   4.039   4.602
 7724SOL     OW24771   3.778   4.815   4.042
 7724SOL    HW124772   3.866   4.851   4.075
 7724SOL    HW224773   3.787   4.717   4.022
 7725SOL     OW24774   3.917   4.346   5.741
 7725SOL    HW124775   3.826   4.315   5.766
 7725SOL    HW224776   3.920   4.367   5.643
 7726SOL     OW24777   3.930   4.044   6.604
 7726SOL    HW124778   3.962   4.015   6.694
 7726SOL    HW224779   3.843   3.999   6.584
 7727SOL     OW24780   3.730   4.134   6.232
 7727SOL    HW124781   3.647   4.158   6.283
 7727SOL    HW224782   3.709   4.066   6.163
 7728SOL     OW24783   4.303   5.001   6.818
 7728SOL    HW124784   4.218   5.011   6.765
 7728SOL    HW224785   4.335   5.091   6.846
 7729SOL     OW24786   5.301   5.255   6.347
 7729SOL    HW124787   5.236   5.224   6.417
 7729SOL    HW224788   5.251   5.287   6.267
 7730SOL     OW24789   4.850   4.482   6.242
 7730SOL    HW124790   4.911   4.559   6.223
 7730SOL    HW224791   4.828   4.480   6.339
 7731SOL     OW24792   5.550   4.158   5.763
 7731SOL    HW124793   5.520   4.219   5.689
 7731SOL    HW224794   5.472   4.132   5.819
 7732SOL     OW24795   4.472   4.860   6.642
 7732SOL    HW124796   4.413   4.894   6.715
 7732SOL    HW224797   4.485   4.931   6.574
 7733SOL     OW24798   4.435   4.687   6.216
 7733SOL    HW124799   4.500   4.690   6.293
 7733SOL    HW224800   4.357   4.745   6.236
 7734SOL     OW24801   4.075   5.071   6.667
 7734SOL    HW124802   3.993   5.021   6.641
 7734SOL    HW224803   4.106   5.128   6.591
 7735SOL     OW24804   4.024   5.435   6.120
 7735SOL    HW124805   4.021   5.523   6.168
 7735SOL    HW224806   4.105   5.431   6.061
 7736SOL     OW24807   3.913   5.194   6.077
 7736SOL    HW124808   3.956   5.279   6.110
 7736SOL    HW224809   3.910   5.128   6.152
 7737SOL     OW24810   4.027   4.803   6.448
 7737SOL    HW124811   4.058   4.713   6.479
 7737SOL    HW224812   3.968   4.844   6.517
 7738SOL     OW24813   4.343   5.559   6.964
 7738SOL    HW124814   4.256   5.541   0.010
 7738SOL    HW224815   4.385   5.641   0.003
 7739SOL     OW24816   4.330   4.708   5.736
 7739SOL    HW124817   4.374   4.758   5.662
 7739SOL    HW224818   4.368   4.738   5.824
 7740SOL     OW24819   3.834   4.393   6.195
 7740SOL    HW124820   3.812   4.296   6.206
 7740SOL    HW224821   3.842   4.435   6.286
 7741SOL     OW24822   5.581   5.501   5.912
 7741SOL    HW124823   5.664   5.481   5.963
 7741SOL    HW224824   5.583   5.595   5.879
 7742SOL     OW24825   3.737   5.254   5.663
 7742SOL    HW124826   3.666   5.184   5.654
 7742SOL    HW224827   3.746   5.280   5.759
 7743SOL     OW24828   4.304   5.089   6.303
 7743SOL    HW124829   4.269   4.998   6.281
 7743SOL    HW224830   4.321   5.139   6.218
 7744SOL     OW24831   4.537   3.721   6.112
 7744SOL    HW124832   4.589   3.796   6.072
 7744SOL    HW224833   4.440   3.744   6.112
 7745SOL     OW24834   3.805   4.635   6.853
 7745SOL    HW124835   3.841   4.562   6.794
 7745SOL    HW224836   3.705   4.632   6.853
 7746SOL     OW24837   5.112   5.159   6.522
 7746SOL    HW124838   5.077   5.167   6.615
 7746SOL    HW224839   5.110   5.064   6.493
 7747SOL     OW24840   5.363   5.610   6.132
 7747SOL    HW124841   5.357   5.536   6.065
 7747SOL    HW224842   5.383   5.572   6.222
 7748SOL     OW24843   4.303   4.429   5.871
 7748SOL    HW124844   4.311   4.517   5.823
 7748SOL    HW224845   4.229   4.435   5.939
 7749SOL     OW24846   5.320   5.418   5.929
 7749SOL    HW124847   5.418   5.437   5.919
 7749SOL    HW224848   5.281   5.395   5.840
 7750SOL     OW24849   4.503   4.346   0.054
 7750SOL    HW124850   4.429   4.360   0.120
 7750SOL    HW224851   4.469   4.289   6.979
 7751SOL     OW24852   4.713   4.147   6.769
 7751SOL    HW124853   4.621   4.153   6.808
 7751SOL    HW224854   4.713   4.082   6.694
 7752SOL     OW24855   4.767   4.420   5.990
 7752SOL    HW124856   4.791   4.437   6.086
 7752SOL    HW224857   4.680   4.372   5.986
 7753SOL     OW24858   3.844   4.511   6.446
 7753SOL    HW124859   3.939   4.535   6.466
 7753SOL    HW224860   3.785   4.589   6.467
 7754SOL     OW24861   3.846   5.529   0.054
 7754SOL    HW124862   3.792   5.448   0.076
 7754SOL    HW224863   3.873   5.525   6.957
 7755SOL     OW24864   4.566   4.053   5.802
 7755SOL    HW124865   4.625   4.099   5.735
 7755SOL    HW224866   4.503   3.992   5.754
 7756SOL     OW24867   5.133   4.926   6.183
 7756SOL    HW124868   5.228   4.958   6.189
 7756SOL    HW224869   5.078   4.996   6.136
 7757SOL     OW24870   4.291   3.825   6.560
 7757SOL    HW124871   4.282   3.872   6.648
 7757SOL    HW224872   4.307   3.892   6.488
 7758SOL     OW24873   4.725   5.230   6.048
 7758SOL    HW124874   4.702   5.294   5.974
 7758SOL    HW224875   4.682   5.261   6.133
 7759SOL     OW24876   4.073   5.510   6.477
 7759SOL    HW124877   4.102   5.414   6.473
 7759SOL    HW224878   4.150   5.567   6.504
 7760SOL     OW24879   5.490   4.868   6.442
 7760SOL    HW124880   5.488   4.786   6.384
 7760SOL    HW224881   5.429   4.856   6.520
 7761SOL     OW24882   3.979   4.616   5.840
 7761SOL    HW124883   4.021   4.639   5.752
 7761SOL    HW224884   3.966   4.517   5.846
 7762SOL     OW24885   4.864   5.502   5.794
 7762SOL    HW124886   4.771   5.490   5.830
 7762SOL    HW224887   4.897   5.415   5.758
 7763SOL     OW24888   5.404   5.153   5.698
 7763SOL    HW124889   5.321   5.206   5.683
 7763SOL    HW224890   5.383   5.055   5.693
 7764SOL     OW24891   4.254   5.455   5.974
 7764SOL    HW124892   4.268   5.547   6.012
 7764SOL    HW224893   4.289   5.452   5.881
 7765SOL     OW24894   5.129   3.810   6.059
 7765SOL    HW124895   5.127   3.795   5.960
 7765SOL    HW224896   5.216   3.778   6.096
 7766SOL     OW24897   3.949   5.508   6.801
 7766SOL    HW124898   4.010   5.430   6.814
 7766SOL    HW224899   3.900   5.499   6.715
 7767SOL     OW24900   4.666   5.401   6.456
 7767SOL    HW124901   4.756   5.359   6.449
 7767SOL    HW224902   4.612   5.378   6.374
 7768SOL     OW24903   4.097   4.401   6.063
 7768SOL    HW124904   4.106   4.302   6.072
 7768SOL    HW224905   4.008   4.429   6.099
 7769SOL     OW24906   4.367   3.826   5.704
 7769SOL    HW124907   4.403   3.739   5.737
 7769SOL    HW224908   4.304   3.810   5.628
 7770SOL     OW24909   4.586   5.194   6.728
 7770SOL    HW124910   4.540   5.179   6.641
 7770SOL    HW224911   4.663   5.129   6.737
 7771SOL     OW24912   4.506   5.079   6.486
 7771SOL    HW124913   4.596   5.085   6.443
 7771SOL    HW224914   4.435   5.089   6.416
 7772SOL     OW24915   4.676   4.231   6.446
 7772SOL    HW124916   4.660   4.213   6.349
 7772SOL    HW224917   4.697   4.146   6.492
 7773SOL     OW24918   4.275   3.790   6.090
 7773SOL    HW124919   4.200   3.786   6.155
 7773SOL    HW224920   4.264   3.870   6.031
 7774SOL     OW24921   5.138   4.970   5.594
 7774SOL    HW124922   5.221   4.925   5.625
 7774SOL    HW224923   5.081   4.993   5.672
 7775SOL     OW24924   3.991   3.784   5.728
 7775SOL    HW124925   4.036   3.863   5.687
 7775SOL    HW224926   4.057   3.734   5.785
 7776SOL     OW24927   4.687   3.923   6.008
 7776SOL    HW124928   4.643   3.973   5.934
 7776SOL    HW224929   4.777   3.890   5.978
 7777SOL     OW24930   4.917   5.308   6.383
 7777SOL    HW124931   4.949   5.383   6.325
 7777SOL    HW224932   4.995   5.270   6.433
 7778SOL     OW24933   4.207   4.839   6.244
 7778SOL    HW124934   4.145   4.824   6.321
 7778SOL    HW224935   4.155   4.832   6.158
 7779SOL     OW24936   4.976   5.533   6.219
 7779SOL    HW124937   5.020   5.597   6.156
 7779SOL    HW224938   4.893   5.575   6.257
 7780SOL     OW24939   4.736   4.207   5.647
 7780SOL    HW124940   4.690   4.293   5.626
 7780SOL    HW224941   4.808   4.223   5.714
 7781SOL     OW24942   4.260   3.959   6.802
 7781SOL    HW124943   4.294   3.888   6.863
 7781SOL    HW224944   4.163   3.973   6.818
 7782SOL     OW24945   4.636   4.147   6.185
 7782SOL    HW124946   4.585   4.206   6.123
 7782SOL    HW224947   4.661   4.062   6.138
 7783SOL     OW24948   4.734   3.771   6.319
 7783SOL    HW124949   4.664   3.767   6.247
 7783SOL    HW224950   4.719   3.697   6.384
 7784SOL     OW24951   5.096   4.893   6.455
 7784SOL    HW124952   5.050   4.808   6.480
 7784SOL    HW224953   5.104   4.898   6.355
 7785SOL     OW24954   4.244   5.186   5.774
 7785SOL    HW124955   4.161   5.133   5.796
 7785SOL    HW224956   4.310   5.127   5.729
 7786SOL     OW24957   5.385   5.018   6.235
 7786SOL    HW124958   5.433   4.966   6.306
 7786SOL    HW224959   5.368   5.111   6.267
 7787SOL     OW24960   5.108   4.347   5.648
 7787SOL    HW124961   5.039   4.308   5.710
 7787SOL    HW224962   5.195   4.355   5.697
 7788SOL     OW24963   4.235   3.982   5.899
 7788SOL    HW124964   4.282   3.926   5.829
 7788SOL    HW224965   4.205   4.068   5.858
 7789SOL     OW24966   5.429   4.883   0.103
 7789SOL    HW124967   5.513   4.835   0.079
 7789SOL    HW224968   5.448   4.981   0.111
 7790SOL     OW24969   4.775   4.989   6.676
 7790SOL    HW124970   4.700   4.923   6.685
 7790SOL    HW224971   4.781   5.019   6.580
 7791SOL     OW24972   5.299   4.828   6.632
 7791SOL    HW124973   5.307   4.897   6.704
 7791SOL    HW224974   5.221   4.849   6.573
 7792SOL     OW24975   4.484   4.776   5.959
 7792SOL    HW124976   4.467   4.742   6.052
 7792SOL    HW224977   4.546   4.714   5.912
 7793SOL     OW24978   4.232   4.553   6.854
 7793SOL    HW124979   4.239   4.621   6.927
 7793SOL    HW224980   4.165   4.484   6.879
 7794SOL     OW24981   4.941   4.048   6.894
 7794SOL    HW124982   4.993   4.115   6.947
 7794SOL    HW224983   4.856   4.090   6.862
 7795SOL     OW24984   3.835   5.201   6.916
 7795SOL    HW124985   3.795   5.242   6.997
 7795SOL    HW224986   3.927   5.237   6.902
 7796SOL     OW24987   4.036   4.832   6.021
 7796SOL    HW124988   4.031   4.909   5.958
 7796SOL    HW224989   4.024   4.746   5.971
 7797SOL     OW24990   4.266   4.255   6.441
 7797SOL    HW124991   4.277   4.313   6.360
 7797SOL    HW224992   4.344   4.270   6.503
 7798SOL     OW24993   4.983   5.125   6.060
 7798SOL    HW124994   5.044   5.200   6.085
 7798SOL    HW224995   4.888   5.157   6.062
 7799SOL     OW24996   4.997   5.155   6.769
 7799SOL    HW124997   5.046   5.107   6.842
 7799SOL    HW224998   4.914   5.105   6.747
 7800SOL     OW24999   4.095   5.273   6.846
 7800SOL    HW125000   4.078   5.199   6.781
 7800SOL    HW225001   4.193   5.296   6.845
 7801SOL     OW25002   4.369   4.596   6.627
 7801SOL    HW125003   4.402   4.691   6.630
 7801SOL    HW225004   4.322   4.575   6.712
 7802SOL     OW25005   5.012   4.646   6.547
 7802SOL    HW125006   4.933   4.585   6.540
 7802SOL    HW225007   5.094   4.598   6.517
 7803SOL     OW25008   4.926   4.257   5.839
 7803SOL    HW125009   4.996   4.216   5.897
 7803SOL    HW225010   4.864   4.313   5.894
 7804SOL     OW25011   3.988   3.952   6.856
 7804SOL    HW125012   3.928   3.989   6.927
 7804SOL    HW225013   3.979   3.853   6.853
 7805SOL     OW25014   3.745   4.952   6.877
 7805SOL    HW125015   3.798   4.893   6.938
 7805SOL    HW225016   3.776   5.047   6.888
 7806SOL     OW25017   4.467   4.330   6.608
 7806SOL    HW125018   4.546   4.310   6.550
 7806SOL    HW225019   4.449   4.428   6.608
 7807SOL     OW25020   4.053   3.776   6.251
 7807SOL    HW125021   4.017   3.867   6.272
 7807SOL    HW225022   4.062   3.723   6.336
 7808SOL     OW25023   5.335   4.047   5.900
 7808SOL    HW125024   5.388   3.996   5.968
 7808SOL    HW225025   5.248   4.077   5.940
 7809SOL     OW25026   4.778   4.475   6.521
 7809SOL    HW125027   4.780   4.473   6.621
 7809SOL    HW225028   4.746   4.386   6.487
 7810SOL     OW25029   5.233   3.948   5.655
 7810SOL    HW125030   5.177   3.875   5.694
 7810SOL    HW225031   5.287   3.992   5.727
 7811SOL     OW25032   5.027   4.607   5.637
 7811SOL    HW125033   5.053   4.510   5.637
 7811SOL    HW225034   5.045   4.646   5.547
 7812SOL     OW25035   4.770   5.076   6.415
 7812SOL    HW125036   4.789   4.996   6.356
 7812SOL    HW225037   4.828   5.152   6.387
 7813SOL     OW25038   4.104   4.551   6.534
 7813SOL    HW125039   4.201   4.570   6.547
 7813SOL    HW225040   4.085   4.457   6.564
 7814SOL     OW25041   4.060   4.282   6.607
 7814SOL    HW125042   4.002   4.201   6.603
 7814SOL    HW225043   4.137   4.272   6.544
 7815SOL     OW25044   4.887   3.867   0.094
 7815SOL    HW125045   4.972   3.837   0.139
 7815SOL    HW225046   4.910   3.925   0.016
 7816SOL     OW25047   3.743   4.953   5.785
 7816SOL    HW125048   3.660   4.994   5.749
 7816SOL    HW225049   3.724   4.860   5.815
 7817SOL     OW25050   3.810   5.494   6.561
 7817SOL    HW125051   3.763   5.415   6.520
 7817SOL    HW225052   3.900   5.505   6.519
 7818SOL     OW25053   4.192   5.254   6.492
 7818SOL    HW125054   4.269   5.309   6.524
 7818SOL    HW225055   4.222   5.195   6.418
 7819SOL     OW25056   4.782   4.435   6.791
 7819SOL    HW125057   4.846   4.453   6.865
 7819SOL    HW225058   4.748   4.341   6.799
 7820SOL     OW25059   3.785   4.379   6.705
 7820SOL    HW125060   3.815   4.395   6.611
 7820SOL    HW225061   3.858   4.333   6.756
 7821SOL     OW25062   4.532   4.284   5.957
 7821SOL    HW125063   4.532   4.201   5.902
 7821SOL    HW225064   4.451   4.338   5.935
 7822SOL     OW25065   5.427   4.337   6.737
 7822SOL    HW125066   5.390   4.276   6.806
 7822SOL    HW225067   5.527   4.335   6.741
 7823SOL     OW25068   4.439   4.180   6.835
 7823SOL    HW125069   4.376   4.103   6.823
 7823SOL    HW225070   4.439   4.236   6.753
 7824SOL     OW25071   4.711   5.360   6.911
 7824SOL    HW125072   4.663   5.299   6.848
 7824SOL    HW225073   4.727   5.448   6.868
 7825SOL     OW25074   4.158   4.212   5.767
 7825SOL    HW125075   4.226   4.281   5.792
 7825SOL    HW225076   4.067   4.254   5.766
 7826SOL     OW25077   3.887   4.788   0.062
 7826SOL    HW125078   3.949   4.741   0.124
 7826SOL    HW225079   3.864   4.729   6.985
 7827SOL     OW25080   4.978   4.819   6.774
 7827SOL    HW125081   5.002   4.748   6.709
 7827SOL    HW225082   4.906   4.877   6.735
 7828SOL     OW25083   5.005   4.568   5.918
 7828SOL    HW125084   4.922   4.515   5.931
 7828SOL    HW225085   5.017   4.589   5.821
 7829SOL     OW25086   5.463   5.508   6.785
 7829SOL    HW125087   5.539   5.491   6.723
 7829SOL    HW225088   5.420   5.421   6.810
 7830SOL     OW25089   4.993   5.435   6.718
 7830SOL    HW125090   5.082   5.474   6.695
 7830SOL    HW225091   5.005   5.340   6.747
 7831SOL     OW25092   3.841   4.913   6.617
 7831SOL    HW125093   3.808   4.923   6.711
 7831SOL    HW225094   3.779   4.853   6.566
 7832SOL     OW25095   5.485   3.911   6.086
 7832SOL    HW125096   5.549   3.896   6.011
 7832SOL    HW225097   5.448   3.824   6.117
 7833SOL     OW25098   5.150   5.335   6.131
 7833SOL    HW125099   5.207   5.362   6.053
 7833SOL    HW225100   5.087   5.410   6.153
 7834SOL     OW25101   5.002   4.692   6.161
 7834SOL    HW125102   5.013   4.651   6.070
 7834SOL    HW225103   5.059   4.774   6.168
 7835SOL     OW25104   4.379   5.417   5.729
 7835SOL    HW125105   4.407   5.423   5.633
 7835SOL    HW225106   4.329   5.332   5.744
 7836SOL     OW25107   5.519   3.929   6.521
 7836SOL    HW125108   5.562   3.840   6.515
 7836SOL    HW225109   5.420   3.919   6.513
 7837SOL     OW25110   3.966   4.024   6.323
 7837SOL    HW125111   3.881   4.066   6.290
 7837SOL    HW225112   3.973   4.037   6.422
 7838SOL     OW25113   4.952   5.269   5.682
 7838SOL    HW125114   4.962   5.181   5.729
 7838SOL    HW225115   4.872   5.266   5.623
 7839SOL     OW25116   4.351   4.782   6.987
 7839SOL    HW125117   4.433   4.746   6.942
 7839SOL    HW225118   4.322   4.866   6.941
 7840SOL     OW25119   4.655   4.611   5.822
 7840SOL    HW125120   4.724   4.678   5.793
 7840SOL    HW225121   4.697   4.546   5.885
 7841SOL     OW25122   5.213   5.368   5.665
 7841SOL    HW125123   5.120   5.334   5.658
 7841SOL    HW225124   5.254   5.370   5.573
 7842SOL     OW25125   5.334   5.016   6.828
 7842SOL    HW125126   5.428   4.990   6.849
 7842SOL    HW225127   5.274   4.987   6.903
 7843SOL     OW25128   4.799   4.842   6.283
 7843SOL    HW125129   4.731   4.783   6.328
 7843SOL    HW225130   4.865   4.786   6.233
 7844SOL     OW25131   4.723   3.963   6.550
 7844SOL    HW125132   4.716   3.931   6.455
 7844SOL    HW225133   4.744   3.885   6.610
 7845SOL     OW25134   4.363   5.222   6.076
 7845SOL    HW125135   4.406   5.163   6.008
 7845SOL    HW225136   4.310   5.293   6.030
 7846SOL     OW25137   5.362   4.155   6.941
 7846SOL    HW125138   5.431   4.187   0.007
 7846SOL    HW225139   5.394   4.071   6.899
 7847SOL     OW25140   3.982   5.053   5.854
 7847SOL    HW125141   3.893   5.017   5.827
 7847SOL    HW225142   3.970   5.115   5.931
 7848SOL     OW25143   4.489   3.890   0.159
 7848SOL    HW125144   4.544   3.813   0.128
 7848SOL    HW225145   4.549   3.967   0.181
 7849SOL     OW25146   3.869   4.111   5.462
 7849SOL    HW125147   3.770   4.099   5.466
 7849SOL    HW225148   3.891   4.209   5.462
 7850SOL     OW25149   3.744   3.859   5.814
 7850SOL    HW125150   3.698   3.912   5.742
 7850SOL    HW225151   3.838   3.839   5.785
 7851SOL     OW25152   4.973   5.023   5.804
 7851SOL    HW125153   4.917   4.940   5.794
 7851SOL    HW225154   4.978   5.048   5.900
 7852SOL     OW25155   5.230   5.562   6.645
 7852SOL    HW125156   5.252   5.615   6.563
 7852SOL    HW225157   5.312   5.549   6.700
 7853SOL     OW25158   5.216   4.925   0.282
 7853SOL    HW125159   5.127   4.930   0.236
 7853SOL    HW225160   5.283   4.883   0.221
 7854SOL     OW25161   4.120   5.495   0.099
 7854SOL    HW125162   4.023   5.520   0.099
 7854SOL    HW225163   4.130   5.400   0.128
 7855SOL     OW25164   5.387   4.608   6.786
 7855SOL    HW125165   5.377   4.516   6.746
 7855SOL    HW225166   5.344   4.675   6.726
 7856SOL     OW25167   4.306   4.438   6.242
 7856SOL    HW125168   4.358   4.522   6.226
 7856SOL    HW225169   4.232   4.432   6.176
 7857SOL     OW25170   5.427   4.511   0.047
 7857SOL    HW125171   5.405   4.580   0.116
 7857SOL    HW225172   5.412   4.549   6.956
 7858SOL     OW25173   4.506   5.114   5.670
 7858SOL    HW125174   4.526   5.100   5.767
 7858SOL    HW225175   4.581   5.165   5.628
 7859SOL     OW25176   4.399   5.422   6.552
 7859SOL    HW125177   4.370   5.518   6.542
 7859SOL    HW225178   4.496   5.415   6.532
 7860SOL     OW25179   4.617   4.695   6.435
 7860SOL    HW125180   4.667   4.614   6.465
 7860SOL    HW225181   4.567   4.734   6.512
 7861SOL     OW25182   4.843   4.789   5.724
 7861SOL    HW125183   4.789   4.816   5.644
 7861SOL    HW225184   4.915   4.726   5.696
 7862SOL     OW25185   5.530   5.289   6.504
 7862SOL    HW125186   5.452   5.275   6.443
 7862SOL    HW225187   5.568   5.200   6.531
 7863SOL     OW25188   3.905   4.961   6.239
 7863SOL    HW125189   3.938   4.914   6.321
 7863SOL    HW225190   3.937   4.912   6.158
 7864SOL     OW25191   5.483   3.942   6.808
 7864SOL    HW125192   5.475   3.846   6.833
 7864SOL    HW225193   5.488   3.950   6.708
 7865SOL     OW25194   4.106   4.135   6.103
 7865SOL    HW125195   4.149   4.066   6.046
 7865SOL    HW225196   4.069   4.092   6.186
 7866SOL     OW25197   5.301   5.283   6.794
 7866SOL    HW125198   5.272   5.300   6.699
 7866SOL    HW225199   5.318   5.186   6.807
 7867SOL     OW25200   4.060   4.327   6.879
 7867SOL    HW125201   4.105   4.254   6.930
 7867SOL    HW225202   4.071   4.311   6.781
 7868SOL     OW25203   4.544   5.372   6.217
 7868SOL    HW125204   4.541   5.463   6.176
 7868SOL    HW225205   4.473   5.315   6.176
 7869SOL     OW25206   5.073   3.885   6.715
 7869SOL    HW125207   5.046   3.790   6.732
 7869SOL    HW225208   5.026   3.945   6.781
 7870SOL     OW25209   4.776   3.713   6.659
 7870SOL    HW125210   4.732   3.644   6.601
 7870SOL    HW225211   4.862   3.676   6.695
 7871SOL     OW25212   4.532   5.050   5.933
 7871SOL    HW125213   4.518   4.952   5.947
 7871SOL    HW225214   4.612   5.080   5.984
 7872SOL     OW25215   4.364   5.301   6.853
 7872SOL    HW125216   4.370   5.398   6.877
 7872SOL    HW225217   4.445   5.274   6.802
 7873SOL     OW25218   5.105   3.741   5.787
 7873SOL    HW125219   5.153   3.667   5.739
 7873SOL    HW225220   5.011   3.714   5.805
 7874SOL     OW25221   5.246   3.908   6.507
 7874SOL    HW125222   5.188   3.907   6.589
 7874SOL    HW225223   5.202   3.962   6.436
 7875SOL     OW25224   3.728   4.702   5.912
 7875SOL    HW125225   3.822   4.686   5.882
 7875SOL    HW225226   3.685   4.615   5.936
 7876SOL     OW25227   4.611   5.442   5.894
 7876SOL    HW125228   4.534   5.429   5.831
 7876SOL    HW225229   4.587   5.511   5.962
 7877SOL     OW25230   3.868   6.150   0.131
 7877SOL    HW125231   3.772   6.124   0.137
 7877SOL    HW225232   3.882   6.210   0.053
 7878SOL     OW25233   3.912   5.871   0.944
 7878SOL    HW125234   3.958   5.840   1.028
 7878SOL    HW225235   3.817   5.839   0.944
 7879SOL     OW25236   3.729   6.027   0.593
 7879SOL    HW125237   3.650   6.048   0.650
 7879SOL    HW225238   3.706   5.953   0.530
 7880SOL     OW25239   4.263   6.887   1.223
 7880SOL    HW125240   4.217   6.918   1.140
 7880SOL    HW225241   4.205   6.908   1.302
 7881SOL     OW25242   5.398   0.078   0.680
 7881SOL    HW125243   5.399   0.145   0.754
 7881SOL    HW225244   5.305   0.045   0.666
 7882SOL     OW25245   4.827   6.333   0.677
 7882SOL    HW125246   4.874   6.421   0.672
 7882SOL    HW225247   4.772   6.329   0.761
 7883SOL     OW25248   5.557   6.138   0.138
 7883SOL    HW125249   5.509   6.218   0.102
 7883SOL    HW225250   5.501   6.095   0.208
 7884SOL     OW25251   4.383   6.685   1.001
 7884SOL    HW125252   4.360   6.750   1.073
 7884SOL    HW225253   4.340   6.713   0.915
 7885SOL     OW25254   4.633   6.318   1.856
 7885SOL    HW125255   4.635   6.377   1.937
 7885SOL    HW225256   4.644   6.373   1.774
 7886SOL     OW25257   4.417   6.522   0.655
 7886SOL    HW125258   4.495   6.522   0.717
 7886SOL    HW225259   4.347   6.585   0.688
 7887SOL     OW25260   4.416   6.760   1.853
 7887SOL    HW125261   4.409   6.809   1.940
 7887SOL    HW225262   4.401   6.825   1.778
 7888SOL     OW25263   4.111   6.986   1.013
 7888SOL    HW125264   4.024   6.953   0.976
 7888SOL    HW225265   4.146   0.060   0.955
 7889SOL     OW25266   4.139   5.952   1.421
 7889SOL    HW125267   4.218   5.898   1.450
 7889SOL    HW225268   4.055   5.902   1.441
 7890SOL     OW25269   5.321   6.050   0.750
 7890SOL    HW125270   5.303   6.090   0.660
 7890SOL    HW225271   5.279   6.106   0.821
 7891SOL     OW25272   4.009   6.657   0.890
 7891SOL    HW125273   4.008   6.560   0.915
 7891SOL    HW225274   3.965   6.711   0.961
 7892SOL     OW25275   4.325   6.504   0.186
 7892SOL    HW125276   4.375   6.509   0.100
 7892SOL    HW225277   4.375   6.553   0.257
 7893SOL     OW25278   5.294   5.725   1.472
 7893SOL    HW125279   5.348   5.803   1.442
 7893SOL    HW225280   5.244   5.749   1.555
 7894SOL     OW25281   3.820   6.287   0.550
 7894SOL    HW125282   3.793   6.191   0.559
 7894SOL    HW225283   3.811   6.332   0.639
 7895SOL     OW25284   5.409   6.429   0.624
 7895SOL    HW125285   5.492   6.427   0.678
 7895SOL    HW225286   5.413   6.506   0.560
 7896SOL     OW25287   5.405   6.683   0.499
 7896SOL    HW125288   5.436   6.725   0.414
 7896SOL    HW225289   5.451   6.726   0.577
 7897SOL     OW25290   3.852   6.343   1.528
 7897SOL    HW125291   3.945   6.368   1.554
 7897SOL    HW225292   3.797   6.426   1.517
 7898SOL     OW25293   4.947   6.786   1.422
 7898SOL    HW125294   4.980   6.717   1.358
 7898SOL    HW225295   5.011   6.794   1.498
 7899SOL     OW25296   4.543   5.619   0.523
 7899SOL    HW125297   4.595   5.702   0.502
 7899SOL    HW225298   4.446   5.637   0.513
 7900SOL     OW25299   3.958   6.536   1.288
 7900SOL    HW125300   4.051   6.501   1.277
 7900SOL    HW225301   3.892   6.464   1.266
 7901SOL     OW25302   5.190   6.629   0.302
 7901SOL    HW125303   5.126   6.554   0.320
 7901SOL    HW225304   5.267   6.622   0.364
 7902SOL     OW25305   4.058   5.818   1.891
 7902SOL    HW125306   4.096   5.902   1.931
 7902SOL    HW225307   3.961   5.832   1.871
 7903SOL     OW25308   5.122   6.917   0.959
 7903SOL    HW125309   5.034   6.906   1.004
 7903SOL    HW225310   5.157   6.827   0.932
 7904SOL     OW25311   4.279   6.247   0.259
 7904SOL    HW125312   4.301   6.339   0.226
 7904SOL    HW225313   4.215   6.253   0.335
 7905SOL     OW25314   5.000   5.987   0.923
 7905SOL    HW125315   4.904   5.958   0.919
 7905SOL    HW225316   5.053   5.920   0.976
 7906SOL     OW25317   4.534   6.168   1.418
 7906SOL    HW125318   4.527   6.139   1.513
 7906SOL    HW225319   4.504   6.093   1.358
 7907SOL     OW25320   5.100   6.048   1.657
 7907SOL    HW125321   5.103   6.095   1.745
 7907SOL    HW225322   5.136   5.955   1.668
 7908SOL     OW25323   4.672   6.468   1.623
 7908SOL    HW125324   4.732   6.404   1.576
 7908SOL    HW225325   4.614   6.515   1.556
 7909SOL     OW25326   4.733   5.961   1.187
 7909SOL    HW125327   4.637   5.971   1.215
 7909SOL    HW225328   4.737   5.917   1.097
 7910SOL     OW25329   4.766   6.307   0.409
 7910SOL    HW125330   4.786   6.316   0.507
 7910SOL    HW225331   4.675   6.266   0.397
 7911SOL     OW25332   3.779   6.414   0.808
 7911SOL    HW125333   3.874   6.402   0.838
 7911SOL    HW225334   3.746   6.503   0.841
 7912SOL     OW25335   4.652   5.952   0.240
 7912SOL    HW125336   4.735   6.008   0.229
 7912SOL    HW225337   4.661   5.869   0.186
 7913SOL     OW25338   5.369   6.154   1.840
 7913SOL    HW125339   5.370   6.237   1.783
 7913SOL    HW225340   5.394   6.076   1.783
 7914SOL     OW25341   5.174   6.746   0.641
 7914SOL    HW125342   5.250   6.725   0.579
 7914SOL    HW225343   5.159   6.845   0.642
 7915SOL     OW25344   4.282   5.736   0.913
 7915SOL    HW125345   4.290   5.755   1.011
 7915SOL    HW225346   4.281   5.823   0.863
 7916SOL     OW25347   5.551   6.660   0.911
 7916SOL    HW125348   5.522   6.718   0.835
 7916SOL    HW225349   5.479   6.660   0.981
 7917SOL     OW25350   4.110   6.549   0.355
 7917SOL    HW125351   4.182   6.540   0.286
 7917SOL    HW225352   4.098   6.462   0.402
 7918SOL     OW25353   5.165   6.381   0.733
 7918SOL    HW125354   5.173   6.313   0.806
 7918SOL    HW225355   5.255   6.402   0.697
 7919SOL     OW25356   3.888   5.821   1.434
 7919SOL    HW125357   3.809   5.815   1.374
 7919SOL    HW225358   3.887   5.744   1.498
 7920SOL     OW25359   5.441   0.017   0.087
 7920SOL    HW125360   5.480   0.089   0.145
 7920SOL    HW225361   5.342   0.031   0.078
 7921SOL     OW25362   4.085   6.276   0.462
 7921SOL    HW125363   4.101   6.177   0.466
 7921SOL    HW225364   3.989   6.294   0.487
 7922SOL     OW25365   5.175   5.784   1.715
 7922SOL    HW125366   5.184   5.806   1.812
 7922SOL    HW225367   5.113   5.707   1.703
 7923SOL     OW25368   4.523   5.845   1.746
 7923SOL    HW125369   4.607   5.792   1.754
 7923SOL    HW225370   4.457   5.814   1.815
 7924SOL     OW25371   5.039   6.171   1.420
 7924SOL    HW125372   5.071   6.134   1.508
 7924SOL    HW225373   5.080   6.261   1.405
 7925SOL     OW25374   4.653   6.099   0.884
 7925SOL    HW125375   4.631   6.096   0.787
 7925SOL    HW225376   4.679   6.007   0.915
 7926SOL     OW25377   4.276   5.669   0.466
 7926SOL    HW125378   4.195   5.668   0.524
 7926SOL    HW225379   4.265   5.736   0.393
 7927SOL     OW25380   5.174   6.735   0.044
 7927SOL    HW125381   5.175   6.690   0.133
 7927SOL    HW225382   5.127   6.677   6.978
 7928SOL     OW25383   4.695   5.842   0.481
 7928SOL    HW125384   4.662   5.879   0.394
 7928SOL    HW225385   4.794   5.855   0.488
 7929SOL     OW25386   4.789   6.286   1.450
 7929SOL    HW125387   4.711   6.223   1.445
 7929SOL    HW225388   4.874   6.235   1.439
 7930SOL     OW25389   5.132   0.013   0.698
 7930SOL    HW125390   5.054   0.068   0.667
 7930SOL    HW225391   5.121   6.993   0.796
 7931SOL     OW25392   4.242   6.706   0.761
 7931SOL    HW125393   4.158   6.688   0.811
 7931SOL    HW225394   4.220   6.747   0.672
 7932SOL     OW25395   4.737   6.202   0.020
 7932SOL    HW125396   4.640   6.185   0.038
 7932SOL    HW225397   4.792   6.169   0.097
 7933SOL     OW25398   3.837   6.277   1.261
 7933SOL    HW125399   3.920   6.224   1.245
 7933SOL    HW225400   3.825   6.290   1.360
 7934SOL     OW25401   4.288   5.772   1.185
 7934SOL    HW125402   4.306   5.694   1.244
 7934SOL    HW225403   4.191   5.795   1.187
 7935SOL     OW25404   4.601   6.062   0.623
 7935SOL    HW125405   4.556   6.115   0.551
 7935SOL    HW225406   4.632   5.975   0.586
 7936SOL     OW25407   4.753   5.648   0.728
 7936SOL    HW125408   4.684   5.646   0.655
 7936SOL    HW225409   4.736   5.573   0.791
 7937SOL     OW25410   5.176   6.653   0.905
 7937SOL    HW125411   5.115   6.575   0.924
 7937SOL    HW225412   5.180   6.669   0.807
 7938SOL     OW25413   5.175   6.202   0.943
 7938SOL    HW125414   5.109   6.127   0.950
 7938SOL    HW225415   5.241   6.195   1.018
 7939SOL     OW25416   5.537   6.419   0.339
 7939SOL    HW125417   5.582   6.351   0.397
 7939SOL    HW225418   5.512   6.376   0.252
 7940SOL     OW25419   5.524   6.831   0.697
 7940SOL    HW125420   5.622   6.834   0.676
 7940SOL    HW225421   5.486   6.923   0.689
 7941SOL     OW25422   5.061   6.149   0.055
 7941SOL    HW125423   4.993   6.138   0.128
 7941SOL    HW225424   5.135   6.083   0.069
 7942SOL     OW25425   4.256   5.855   0.260
 7942SOL    HW125426   4.331   5.826   0.201
 7942SOL    HW225427   4.195   5.917   0.210
 7943SOL     OW25428   5.450   6.758   1.590
 7943SOL    HW125429   5.460   6.716   1.680
 7943SOL    HW225430   5.503   6.843   1.587
 7944SOL     OW25431   4.728   6.882   1.273
 7944SOL    HW125432   4.640   6.873   1.320
 7944SOL    HW225433   4.801   6.858   1.336
 7945SOL     OW25434   4.894   6.816   1.066
 7945SOL    HW125435   4.824   6.838   1.134
 7945SOL    HW225436   4.850   6.785   0.982
 7946SOL     OW25437   5.356   6.673   1.110
 7946SOL    HW125438   5.335   6.741   1.180
 7946SOL    HW225439   5.281   6.669   1.044
 7947SOL     OW25440   4.688   5.625   1.375
 7947SOL    HW125441   4.705   5.614   1.277
 7947SOL    HW225442   4.761   5.680   1.416
 7948SOL     OW25443   4.677   6.681   1.798
 7948SOL    HW125444   4.582   6.705   1.819
 7948SOL    HW225445   4.679   6.607   1.731
 7949SOL     OW25446   4.455   6.624   0.395
 7949SOL    HW125447   4.443   6.587   0.487
 7949SOL    HW225448   4.541   6.590   0.356
 7950SOL     OW25449   4.188   6.387   1.264
 7950SOL    HW125450   4.248   6.388   1.345
 7950SOL    HW225451   4.146   6.297   1.256
 7951SOL     OW25452   4.986   5.942   1.279
 7951SOL    HW125453   5.014   6.026   1.326
 7951SOL    HW225454   4.893   5.952   1.245
 7952SOL     OW25455   4.151   6.779   0.511
 7952SOL    HW125456   4.208   6.850   0.469
 7952SOL    HW225457   4.143   6.701   0.449
 7953SOL     OW25458   4.279   6.037   0.831
 7953SOL    HW125459   4.284   6.098   0.752
 7953SOL    HW225460   4.334   6.073   0.905
 7954SOL     OW25461   5.290   6.200   0.516
 7954SOL    HW125462   5.194   6.227   0.512
 7954SOL    HW225463   5.346   6.279   0.541
 7955SOL     OW25464   4.123   6.328   1.615
 7955SOL    HW125465   4.209   6.350   1.569
 7955SOL    HW225466   4.114   6.229   1.625
 7956SOL     OW25467   5.363   6.388   1.699
 7956SOL    HW125468   5.269   6.419   1.684
 7956SOL    HW225469   5.420   6.414   1.621
 7957SOL     OW25470   4.752   5.703   1.772
 7957SOL    HW125471   4.797   5.790   1.751
 7957SOL    HW225472   4.818   5.628   1.760
 7958SOL     OW25473   4.243   5.649   1.783
 7958SOL    HW125474   4.205   5.596   1.707
 7958SOL    HW225475   4.176   5.716   1.814
 7959SOL     OW25476   4.296   6.424   1.020
 7959SOL    HW125477   4.331   6.517   1.010
 7959SOL    HW225478   4.257   6.413   1.111
 7960SOL     OW25479   5.010   6.429   1.001
 7960SOL    HW125480   4.915   6.404   0.985
 7960SOL    HW225481   5.069   6.351   0.981
 7961SOL     OW25482   4.877   6.110   0.256
 7961SOL    HW125483   4.916   6.040   0.316
 7961SOL    HW225484   4.844   6.187   0.310
 7962SOL     OW25485   4.016   5.788   1.183
 7962SOL    HW125486   3.969   5.816   1.266
 7962SOL    HW225487   4.012   5.688   1.174
 7963SOL     OW25488   3.797   6.895   1.266
 7963SOL    HW125489   3.837   6.848   1.344
 7963SOL    HW225490   3.761   6.983   1.295
 7964SOL     OW25491   4.422   6.173   1.023
 7964SOL    HW125492   4.507   6.166   0.970
 7964SOL    HW225493   4.383   6.264   1.012
 7965SOL     OW25494   5.471   6.609   1.828
 7965SOL    HW125495   5.435   6.522   1.796
 7965SOL    HW225496   5.433   6.629   1.919
 7966SOL     OW25497   4.046   5.641   0.621
 7966SOL    HW125498   4.008   5.733   0.630
 7966SOL    HW225499   4.056   5.599   0.711
 7967SOL     OW25500   5.389   6.025   0.329
 7967SOL    HW125501   5.432   5.950   0.380
 7967SOL    HW225502   5.353   6.093   0.394
 7968SOL     OW25503   4.741   6.342   0.976
 7968SOL    HW125504   4.712   6.357   1.070
 7968SOL    HW225505   4.717   6.248   0.949
 7969SOL     OW25506   5.591   0.011   1.595
 7969SOL    HW125507   5.638   0.083   1.545
 7969SOL    HW225508   5.649   6.978   1.669
 7970SOL     OW25509   4.067   6.495   1.825
 7970SOL    HW125510   4.145   6.504   1.886
 7970SOL    HW225511   4.089   6.431   1.751
 7971SOL     OW25512   5.209   5.923   0.148
 7971SOL    HW125513   5.165   5.842   0.186
 7971SOL    HW225514   5.274   5.960   0.215
 7972SOL     OW25515   5.028   6.424   0.049
 7972SOL    HW125516   5.044   6.326   0.036
 7972SOL    HW225517   5.044   6.471   6.962
 7973SOL     OW25518   4.034   6.377   0.922
 7973SOL    HW125519   4.130   6.402   0.936
 7973SOL    HW225520   4.022   6.279   0.937
 7974SOL     OW25521   4.048   6.104   0.961
 7974SOL    HW125522   3.984   6.027   0.954
 7974SOL    HW225523   4.130   6.084   0.909
 7975SOL     OW25524   4.848   5.947   1.694
 7975SOL    HW125525   4.801   5.995   1.768
 7975SOL    HW225526   4.935   5.992   1.675
 7976SOL     OW25527   4.889   5.776   1.479
 7976SOL    HW125528   4.864   5.840   1.552
 7976SOL    HW225529   4.935   5.826   1.406
 7977SOL     OW25530   4.645   6.376   1.230
 7977SOL    HW125531   4.716   6.366   1.301
 7977SOL    HW225532   4.570   6.313   1.250
 7978SOL     OW25533   3.666   6.296   1.050
 7978SOL    HW125534   3.714   6.326   0.968
 7978SOL    HW225535   3.732   6.279   1.123
 7979SOL     OW25536   3.879   6.110   1.668
 7979SOL    HW125537   3.872   6.031   1.606
 7979SOL    HW225538   3.859   6.194   1.618
 7980SOL     OW25539   5.121   6.498   1.632
 7980SOL    HW125540   5.125   6.598   1.634
 7980SOL    HW225541   5.115   6.467   1.538
 7981SOL     OW25542   4.531   6.167   0.371
 7981SOL    HW125543   4.558   6.089   0.315
 7981SOL    HW225544   4.440   6.199   0.341
 7982SOL     OW25545   5.367   6.181   1.140
 7982SOL    HW125546   5.344   6.115   1.211
 7982SOL    HW225547   5.466   6.180   1.124
 7983SOL     OW25548   4.461   5.989   1.223
 7983SOL    HW125549   4.401   5.909   1.217
 7983SOL    HW225550   4.435   6.055   1.152
 7984SOL     OW25551   4.126   6.061   0.122
 7984SOL    HW125552   4.181   6.127   0.173
 7984SOL    HW225553   4.029   6.079   0.140
 7985SOL     OW25554   3.931   6.747   1.460
 7985SOL    HW125555   3.913   6.712   1.552
 7985SOL    HW225556   3.942   6.670   1.397
 7986SOL     OW25557   5.015   6.611   1.204
 7986SOL    HW125558   5.017   6.538   1.136
 7986SOL    HW225559   4.981   6.695   1.161
 7987SOL     OW25560   5.019   6.417   0.324
 7987SOL    HW125561   4.930   6.386   0.359
 7987SOL    HW225562   5.018   6.416   0.224
 7988SOL     OW25563   3.840   6.855   1.004
 7988SOL    HW125564   3.828   6.868   1.103
 7988SOL    HW225565   3.778   6.783   0.973
 7989SOL     OW25566   4.702   5.717   0.108
 7989SOL    HW125567   4.776   5.754   0.052
 7989SOL    HW225568   4.734   5.638   0.159
 7990SOL     OW25569   5.509   5.815   0.459
 7990SOL    HW125570   5.571   5.790   0.384
 7990SOL    HW225571   5.464   5.732   0.493
 7991SOL     OW25572   4.975   6.563   0.682
 7991SOL    HW125573   5.039   6.489   0.703
 7991SOL    HW225574   5.025   6.641   0.643
 7992SOL     OW25575   4.476   6.844   1.395
 7992SOL    HW125576   4.442   6.873   1.485
 7992SOL    HW225577   4.406   6.861   1.326
 7993SOL     OW25578   5.558   5.753   0.989
 7993SOL    HW125579   5.594   5.662   0.966
 7993SOL    HW225580   5.471   5.767   0.942
 7994SOL     OW25581   3.961   5.897   0.672
 7994SOL    HW125582   3.882   5.949   0.639
 7994SOL    HW225583   3.957   5.888   0.771
 7995SOL     OW25584   4.532   6.576   1.414
 7995SOL    HW125585   4.573   6.542   1.329
 7995SOL    HW225586   4.514   6.674   1.405
 7996SOL     OW25587   4.671   6.535   0.268
 7996SOL    HW125588   4.716   6.563   0.183
 7996SOL    HW225589   4.718   6.455   0.306
 7997SOL     OW25590   4.089   6.970   1.433
 7997SOL    HW125591   4.075   0.030   1.512
 7997SOL    HW225592   4.034   6.887   1.445
 7998SOL     OW25593   5.325   6.855   1.344
 7998SOL    HW125594   5.378   6.788   1.396
 7998SOL    HW225595   5.304   6.933   1.403
 7999SOL     OW25596   4.795   6.725   0.824
 7999SOL    HW125597   4.713   6.668   0.834
 7999SOL    HW225598   4.864   6.676   0.771
 8000SOL     OW25599   4.758   5.832   0.941
 8000SOL    HW125600   4.753   5.793   0.849
 8000SOL    HW225601   4.770   5.759   1.008
 8001SOL     OW25602   5.499   5.930   1.431
 8001SOL    HW125603   5.567   6.003   1.421
 8001SOL    HW225604   5.520   5.856   1.368
 8002SOL     OW25605   3.876   6.656   1.719
 8002SOL    HW125606   3.785   6.631   1.751
 8002SOL    HW225607   3.945   6.597   1.761
 8003SOL     OW25608   4.463   5.757   1.489
 8003SOL    HW125609   4.548   5.727   1.446
 8003SOL    HW225610   4.483   5.801   1.577
 8004SOL     OW25611   3.786   5.878   6.968
 8004SOL    HW125612   3.710   5.822   6.935
 8004SOL    HW225613   3.777   5.971   6.932
 8005SOL     OW25614   5.137   6.426   1.370
 8005SOL    HW125615   5.082   6.492   1.318
 8005SOL    HW225616   5.230   6.426   1.335
 8006SOL     OW25617   3.764   5.728   0.217
 8006SOL    HW125618   3.773   5.815   0.169
 8006SOL    HW225619   3.797   5.654   0.159
 8007SOL     OW25620   4.357   6.374   1.477
 8007SOL    HW125621   4.411   6.458   1.468
 8007SOL    HW225622   4.417   6.295   1.467
 8008SOL     OW25623   4.519   6.115   1.679
 8008SOL    HW125624   4.545   6.177   1.753
 8008SOL    HW225625   4.523   6.020   1.712
 8009SOL     OW25626   5.153   6.770   1.641
 8009SOL    HW125627   5.141   6.793   1.737
 8009SOL    HW225628   5.245   6.794   1.611
 8010SOL     OW25629   5.385   6.441   1.253
 8010SOL    HW125630   5.385   6.356   1.200
 8010SOL    HW225631   5.382   6.519   1.191
 8011SOL     OW25632   4.960   5.929   0.447
 8011SOL    HW125633   5.037   5.867   0.436
 8011SOL    HW225634   4.976   5.988   0.526
 8012SOL     OW25635   4.290   6.266   0.662
 8012SOL    HW125636   4.343   6.351   0.662
 8012SOL    HW225637   4.214   6.274   0.598
 8013SOL     OW25638   5.434   5.925   1.698
 8013SOL    HW125639   5.456   5.928   1.600
 8013SOL    HW225640   5.358   5.862   1.713
 8014SOL     OW25641   5.502   6.498   1.492
 8014SOL    HW125642   5.494   6.596   1.512
 8014SOL    HW225643   5.464   6.479   1.402
 8015SOL     OW25644   4.591   6.552   0.868
 8015SOL    HW125645   4.637   6.478   0.917
 8015SOL    HW225646   4.524   6.595   0.929
 8016SOL     OW25647   4.802   6.595   0.028
 8016SOL    HW125648   4.758   6.543   6.954
 8016SOL    HW225649   4.891   6.554   0.048
 8017SOL     OW25650   3.891   6.916   1.798
 8017SOL    HW125651   3.891   6.819   1.772
 8017SOL    HW225652   3.842   6.927   1.884
 8018SOL     OW25653   3.936   6.826   0.679
 8018SOL    HW125654   3.953   6.765   0.757
 8018SOL    HW225655   4.001   6.806   0.606
 8019SOL     OW25656   4.368   6.952   1.639
 8019SOL    HW125657   4.275   6.959   1.676
 8019SOL    HW225658   4.394   0.039   1.598
 8020SOL     OW25659   5.542   5.727   1.261
 8020SOL    HW125660   5.532   5.627   1.268
 8020SOL    HW225661   5.548   5.753   1.165
 8021SOL     OW25662   4.130   6.012   0.473
 8021SOL    HW125663   4.180   5.948   0.416
 8021SOL    HW225664   4.083   5.962   0.546
 8022SOL     OW25665   5.279   0.040   1.149
 8022SOL    HW125666   5.226   0.002   1.072
 8022SOL    HW225667   5.293   6.969   1.217
 8023SOL     OW25668   4.074   6.144   1.236
 8023SOL    HW125669   4.103   6.071   1.297
 8023SOL    HW225670   4.075   6.112   1.142
 8024SOL     OW25671   5.119   5.799   1.082
 8024SOL    HW125672   5.102   5.701   1.089
 8024SOL    HW225673   5.084   5.845   1.164
 8025SOL     OW25674   4.791   5.603   1.099
 8025SOL    HW125675   4.745   5.537   1.039
 8025SOL    HW225676   4.889   5.584   1.102
 8026SOL     OW25677   4.538   6.876   0.315
 8026SOL    HW125678   4.506   6.786   0.342
 8026SOL    HW225679   4.556   6.932   0.396
 8027SOL     OW25680   5.076   5.693   0.235
 8027SOL    HW125681   5.144   5.621   0.251
 8027SOL    HW225682   4.984   5.653   0.238
 8028SOL     OW25683   4.985   6.095   0.660
 8028SOL    HW125684   4.932   6.180   0.664
 8028SOL    HW225685   4.998   6.060   0.753
 8029SOL     OW25686   5.312   5.799   0.880
 8029SOL    HW125687   5.245   5.807   0.954
 8029SOL    HW225688   5.311   5.882   0.824
 8030SOL     OW25689   3.869   6.649   0.259
 8030SOL    HW125690   3.960   6.629   0.296
 8030SOL    HW225691   3.806   6.575   0.284
 8031SOL     OW25692   3.897   6.118   1.942
 8031SOL    HW125693   3.829   6.177   1.987
 8031SOL    HW225694   3.892   6.133   1.843
 8032SOL     OW25695   3.910   5.884   2.834
 8032SOL    HW125696   3.952   5.838   2.912
 8032SOL    HW225697   3.815   5.857   2.825
 8033SOL     OW25698   3.698   6.006   2.474
 8033SOL    HW125699   3.611   6.031   2.517
 8033SOL    HW225700   3.686   5.923   2.420
 8034SOL     OW25701   4.380   6.900   3.014
 8034SOL    HW125702   4.280   6.895   3.019
 8034SOL    HW225703   4.406   6.986   2.969
 8035SOL     OW25704   5.411   0.094   2.529
 8035SOL    HW125705   5.408   0.158   2.607
 8035SOL    HW225706   5.321   0.054   2.515
 8036SOL     OW25707   4.829   6.330   2.525
 8036SOL    HW125708   4.876   6.417   2.509
 8036SOL    HW225709   4.780   6.334   2.612
 8037SOL     OW25710   5.500   6.159   2.074
 8037SOL    HW125711   5.459   6.168   1.983
 8037SOL    HW225712   5.450   6.091   2.127
 8038SOL     OW25713   4.390   6.690   2.820
 8038SOL    HW125714   4.393   6.764   2.887
 8038SOL    HW225715   4.347   6.723   2.736
 8039SOL     OW25716   4.614   6.303   3.718
 8039SOL    HW125717   4.619   6.361   3.799
 8039SOL    HW225718   4.628   6.358   3.636
 8040SOL     OW25719   4.435   6.541   2.472
 8040SOL    HW125720   4.509   6.543   2.539
 8040SOL    HW225721   4.363   6.604   2.501
 8041SOL     OW25722   4.408   6.742   3.700
 8041SOL    HW125723   4.397   6.793   3.785
 8041SOL    HW225724   4.414   6.805   3.623
 8042SOL     OW25725   4.109   6.919   2.982
 8042SOL    HW125726   4.025   6.870   2.958
 8042SOL    HW225727   4.144   6.966   2.902
 8043SOL     OW25728   4.221   5.950   3.255
 8043SOL    HW125729   4.305   5.899   3.273
 8043SOL    HW225730   4.143   5.901   3.294
 8044SOL     OW25731   5.331   6.052   2.600
 8044SOL    HW125732   5.307   6.085   2.509
 8044SOL    HW225733   5.285   6.108   2.669
 8045SOL     OW25734   4.031   6.665   2.728
 8045SOL    HW125735   4.031   6.567   2.744
 8045SOL    HW225736   3.984   6.711   2.804
 8046SOL     OW25737   4.286   6.546   1.998
 8046SOL    HW125738   4.320   6.603   1.923
 8046SOL    HW225739   4.343   6.561   2.079
 8047SOL     OW25740   5.409   5.684   3.382
 8047SOL    HW125741   5.434   5.765   3.329
 8047SOL    HW225742   5.341   5.709   3.452
 8048SOL     OW25743   3.851   6.268   2.430
 8048SOL    HW125744   3.803   6.180   2.433
 8048SOL    HW225745   3.834   6.318   2.514
 8049SOL     OW25746   5.410   6.460   2.496
 8049SOL    HW125747   5.493   6.451   2.551
 8049SOL    HW225748   5.422   6.532   2.428
 8050SOL     OW25749   5.443   6.696   2.340
 8050SOL    HW125750   5.518   6.684   2.275
 8050SOL    HW225751   5.475   6.753   2.416
 8051SOL     OW25752   3.896   6.280   3.459
 8051SOL    HW125753   3.979   6.334   3.472
 8051SOL    HW225754   3.819   6.340   3.439
 8052SOL     OW25755   5.007   6.796   3.266
 8052SOL    HW125756   5.006   6.709   3.217
 8052SOL    HW225757   5.043   6.782   3.358
 8053SOL     OW25758   4.542   5.610   2.371
 8053SOL    HW125759   4.588   5.694   2.341
 8053SOL    HW225760   4.444   5.627   2.378
 8054SOL     OW25761   3.930   6.555   3.162
 8054SOL    HW125762   4.015   6.505   3.146
 8054SOL    HW225763   3.857   6.516   3.107
 8055SOL     OW25764   5.318   6.640   2.071
 8055SOL    HW125765   5.261   6.559   2.087
 8055SOL    HW225766   5.361   6.668   2.157
 8056SOL     OW25767   4.106   5.841   3.755
 8056SOL    HW125768   4.132   5.921   3.809
 8056SOL    HW225769   4.006   5.833   3.755
 8057SOL     OW25770   5.140   6.917   2.799
 8057SOL    HW125771   5.053   6.904   2.847
 8057SOL    HW225772   5.177   6.828   2.771
 8058SOL     OW25773   4.277   6.274   2.122
 8058SOL    HW125774   4.278   6.362   2.074
 8058SOL    HW225775   4.217   6.280   2.202
 8059SOL     OW25776   4.999   5.989   2.793
 8059SOL    HW125777   4.911   5.944   2.786
 8059SOL    HW225778   5.057   5.940   2.859
 8060SOL     OW25779   4.518   6.143   3.308
 8060SOL    HW125780   4.485   6.116   3.398
 8060SOL    HW225781   4.492   6.074   3.240
 8061SOL     OW25782   5.077   6.018   3.528
 8061SOL    HW125783   5.087   6.069   3.614
 8061SOL    HW225784   5.137   5.938   3.531
 8062SOL     OW25785   4.657   6.453   3.478
 8062SOL    HW125786   4.714   6.386   3.430
 8062SOL    HW225787   4.604   6.506   3.411
 8063SOL     OW25788   4.738   5.964   3.040
 8063SOL    HW125789   4.642   5.977   3.065
 8063SOL    HW225790   4.744   5.924   2.949
 8064SOL     OW25791   4.757   6.278   2.260
 8064SOL    HW125792   4.779   6.292   2.357
 8064SOL    HW225793   4.667   6.237   2.251
 8065SOL     OW25794   3.800   6.434   2.652
 8065SOL    HW125795   3.890   6.414   2.692
 8065SOL    HW225796   3.758   6.510   2.700
 8066SOL     OW25797   4.572   5.934   2.072
 8066SOL    HW125798   4.633   5.976   2.005
 8066SOL    HW225799   4.520   5.861   2.028
 8067SOL     OW25800   5.373   6.168   3.699
 8067SOL    HW125801   5.369   6.254   3.648
 8067SOL    HW225802   5.401   6.094   3.638
 8068SOL     OW25803   5.197   6.727   2.473
 8068SOL    HW125804   5.277   6.710   2.415
 8068SOL    HW225805   5.186   6.826   2.484
 8069SOL     OW25806   4.271   5.743   2.739
 8069SOL    HW125807   4.286   5.767   2.835
 8069SOL    HW225808   4.275   5.826   2.684
 8070SOL     OW25809   5.551   6.679   2.770
 8070SOL    HW125810   5.520   6.736   2.693
 8070SOL    HW225811   5.478   6.672   2.837
 8071SOL     OW25812   4.065   6.592   2.170
 8071SOL    HW125813   4.132   6.572   2.099
 8071SOL    HW225814   3.996   6.520   2.173
 8072SOL     OW25815   5.170   6.359   2.563
 8072SOL    HW125816   5.175   6.305   2.647
 8072SOL    HW225817   5.259   6.401   2.545
 8073SOL     OW25818   3.976   5.838   3.321
 8073SOL    HW125819   3.921   5.921   3.324
 8073SOL    HW225820   3.939   5.772   3.386
 8074SOL     OW25821   5.328   6.978   1.988
 8074SOL    HW125822   5.297   0.073   1.993
 8074SOL    HW225823   5.252   6.920   1.958
 8075SOL     OW25824   5.114   5.689   2.322
 8075SOL    HW125825   5.112   5.664   2.225
 8075SOL    HW225826   5.205   5.672   2.359
 8076SOL     OW25827   4.115   6.249   2.344
 8076SOL    HW125828   4.129   6.150   2.354
 8076SOL    HW225829   4.022   6.272   2.371
 8077SOL     OW25830   5.226   5.781   3.570
 8077SOL    HW125831   5.224   5.796   3.669
 8077SOL    HW225832   5.162   5.708   3.546
 8078SOL     OW25833   4.422   5.712   1.980
 8078SOL    HW125834   4.492   5.641   1.988
 8078SOL    HW225835   4.351   5.681   1.916
 8079SOL     OW25836   4.485   5.844   3.582
 8079SOL    HW125837   4.564   5.798   3.624
 8079SOL    HW225838   4.402   5.792   3.600
 8080SOL     OW25839   5.010   6.171   3.309
 8080SOL    HW125840   5.043   6.128   3.393
 8080SOL    HW225841   5.059   6.257   3.294
 8081SOL     OW25842   4.647   6.102   2.728
 8081SOL    HW125843   4.620   6.093   2.631
 8081SOL    HW225844   4.679   6.013   2.761
 8082SOL     OW25845   4.268   5.647   2.364
 8082SOL    HW125846   4.187   5.643   2.421
 8082SOL    HW225847   4.260   5.722   2.299
 8083SOL     OW25848   5.128   6.781   1.933
 8083SOL    HW125849   5.201   6.730   1.979
 8083SOL    HW225850   5.043   6.728   1.935
 8084SOL     OW25851   4.002   5.592   2.042
 8084SOL    HW125852   4.042   5.671   1.997
 8084SOL    HW225853   4.073   5.543   2.092
 8085SOL     OW25854   4.676   5.838   2.306
 8085SOL    HW125855   4.640   5.874   2.220
 8085SOL    HW225856   4.774   5.855   2.312
 8086SOL     OW25857   4.756   6.276   3.287
 8086SOL    HW125858   4.681   6.212   3.300
 8086SOL    HW225859   4.844   6.228   3.293
 8087SOL     OW25860   5.160   6.992   2.525
 8087SOL    HW125861   5.096   0.044   2.469
 8087SOL    HW225862   5.130   6.991   2.620
 8088SOL     OW25863   4.247   6.718   2.568
 8088SOL    HW125864   4.169   6.697   2.627
 8088SOL    HW225865   4.214   6.761   2.483
 8089SOL     OW25866   4.748   6.077   1.915
 8089SOL    HW125867   4.710   6.167   1.894
 8089SOL    HW225868   4.820   6.086   1.984
 8090SOL     OW25869   3.854   6.095   3.265
 8090SOL    HW125870   3.934   6.105   3.205
 8090SOL    HW225871   3.861   6.159   3.341
 8091SOL     OW25872   4.291   5.797   3.003
 8091SOL    HW125873   4.310   5.718   3.062
 8091SOL    HW225874   4.198   5.830   3.020
 8092SOL     OW25875   4.587   6.048   2.470
 8092SOL    HW125876   4.538   6.105   2.404
 8092SOL    HW225877   4.620   5.966   2.424
 8093SOL     OW25878   4.738   5.648   2.583
 8093SOL    HW125879   4.673   5.653   2.507
 8093SOL    HW225880   4.711   5.575   2.646
 8094SOL     OW25881   5.185   6.648   2.745
 8094SOL    HW125882   5.118   6.577   2.767
 8094SOL    HW225883   5.193   6.657   2.646
 8095SOL     OW25884   5.177   6.202   2.790
 8095SOL    HW125885   5.109   6.129   2.798
 8095SOL    HW225886   5.242   6.196   2.866
 8096SOL     OW25887   5.562   6.391   2.210
 8096SOL    HW125888   5.608   6.355   2.291
 8096SOL    HW225889   5.536   6.315   2.149
 8097SOL     OW25890   5.531   6.850   2.549
 8097SOL    HW125891   5.631   6.857   2.540
 8097SOL    HW225892   5.491   6.942   2.543
 8098SOL     OW25893   5.096   6.155   1.908
 8098SOL    HW125894   5.051   6.122   1.992
 8098SOL    HW225895   5.195   6.144   1.917
 8099SOL     OW25896   4.246   5.832   2.167
 8099SOL    HW125897   4.315   5.792   2.106
 8099SOL    HW225898   4.206   5.912   2.123
 8100SOL     OW25899   5.427   6.790   3.450
 8100SOL    HW125900   5.448   6.739   3.534
 8100SOL    HW225901   5.488   6.869   3.444
 8101SOL     OW25902   4.775   6.898   3.127
 8101SOL    HW125903   4.691   6.876   3.175
 8101SOL    HW225904   4.853   6.880   3.186
 8102SOL     OW25905   4.915   6.809   2.910
 8102SOL    HW125906   4.850   6.843   2.978
 8102SOL    HW225907   4.866   6.783   2.827
 8103SOL     OW25908   5.352   6.662   2.962
 8103SOL    HW125909   5.325   6.725   3.034
 8103SOL    HW225910   5.280   6.660   2.892
 8104SOL     OW25911   4.674   5.635   3.222
 8104SOL    HW125912   4.694   5.634   3.124
 8104SOL    HW225913   4.749   5.679   3.271
 8105SOL     OW25914   4.672   6.661   3.656
 8105SOL    HW125915   4.577   6.686   3.677
 8105SOL    HW225916   4.673   6.587   3.589
 8106SOL     OW25917   4.461   6.603   2.200
 8106SOL    HW125918   4.453   6.578   2.297
 8106SOL    HW225919   4.544   6.562   2.162
 8107SOL     OW25920   4.153   6.396   3.122
 8107SOL    HW125921   4.228   6.396   3.188
 8107SOL    HW225922   4.115   6.303   3.116
 8108SOL     OW25923   4.973   5.943   3.168
 8108SOL    HW125924   4.993   6.028   3.217
 8108SOL    HW225925   4.886   5.951   3.120
 8109SOL     OW25926   4.105   6.803   2.334
 8109SOL    HW125927   4.090   6.882   2.276
 8109SOL    HW225928   4.102   6.719   2.279
 8110SOL     OW25929   4.284   6.071   2.706
 8110SOL    HW125930   4.296   6.131   2.627
 8110SOL    HW225931   4.346   6.099   2.779
 8111SOL     OW25932   5.281   6.198   2.364
 8111SOL    HW125933   5.211   6.244   2.418
 8111SOL    HW225934   5.352   6.263   2.338
 8112SOL     OW25935   4.226   6.277   3.513
 8112SOL    HW125936   4.260   6.319   3.429
 8112SOL    HW225937   4.294   6.212   3.547
 8113SOL     OW25938   5.352   6.401   3.562
 8113SOL    HW125939   5.256   6.425   3.552
 8113SOL    HW225940   5.402   6.432   3.481
 8114SOL     OW25941   4.680   5.688   3.708
 8114SOL    HW125942   4.754   5.748   3.678
 8114SOL    HW225943   4.711   5.593   3.703
 8115SOL     OW25944   4.273   5.671   3.630
 8115SOL    HW125945   4.224   5.628   3.554
 8115SOL    HW225946   4.211   5.732   3.679
 8116SOL     OW25947   4.296   6.439   2.885
 8116SOL    HW125948   4.329   6.531   2.868
 8116SOL    HW225949   4.247   6.437   2.972
 8117SOL     OW25950   5.017   6.430   2.839
 8117SOL    HW125951   4.921   6.406   2.819
 8117SOL    HW225952   5.074   6.349   2.825
 8118SOL     OW25953   4.927   6.106   2.126
 8118SOL    HW125954   4.941   6.027   2.186
 8118SOL    HW225955   4.872   6.175   2.174
 8119SOL     OW25956   4.015   5.765   3.058
 8119SOL    HW125957   3.996   5.794   3.152
 8119SOL    HW225958   4.050   5.671   3.058
 8120SOL     OW25959   3.808   6.927   3.136
 8120SOL    HW125960   3.840   6.887   3.222
 8120SOL    HW225961   3.756   0.010   3.155
 8121SOL     OW25962   4.446   6.206   2.895
 8121SOL    HW125963   4.515   6.192   2.824
 8121SOL    HW225964   4.396   6.291   2.877
 8122SOL     OW25965   5.462   6.626   3.680
 8122SOL    HW125966   5.427   6.537   3.651
 8122SOL    HW225967   5.428   6.648   3.771
 8123SOL     OW25968   4.017   5.629   2.487
 8123SOL    HW125969   3.977   5.721   2.493
 8123SOL    HW225970   4.025   5.591   2.579
 8124SOL     OW25971   5.320   5.983   2.194
 8124SOL    HW125972   5.378   5.920   2.245
 8124SOL    HW225973   5.288   6.056   2.255
 8125SOL     OW25974   4.746   6.344   2.806
 8125SOL    HW125975   4.720   6.362   2.901
 8125SOL    HW225976   4.720   6.251   2.781
 8126SOL     OW25977   5.613   0.001   3.458
 8126SOL    HW125978   5.663   0.078   3.418
 8126SOL    HW225979   5.661   6.968   3.539
 8127SOL     OW25980   4.093   6.470   3.648
 8127SOL    HW125981   4.144   6.501   3.728
 8127SOL    HW225982   4.144   6.398   3.601
 8128SOL     OW25983   5.207   5.847   1.976
 8128SOL    HW125984   5.167   5.764   2.014
 8128SOL    HW225985   5.248   5.902   2.049
 8129SOL     OW25986   5.016   6.410   1.867
 8129SOL    HW125987   5.032   6.312   1.876
 8129SOL    HW225988   5.047   6.442   1.777
 8130SOL     OW25989   4.045   6.387   2.775
 8130SOL    HW125990   4.141   6.409   2.794
 8130SOL    HW225991   4.029   6.290   2.793
 8131SOL     OW25992   4.049   6.115   2.834
 8131SOL    HW125993   3.991   6.034   2.828
 8131SOL    HW225994   4.132   6.100   2.781
 8132SOL     OW25995   4.835   5.901   3.598
 8132SOL    HW125996   4.789   5.958   3.666
 8132SOL    HW225997   4.922   5.944   3.573
 8133SOL     OW25998   4.871   5.767   3.358
 8133SOL    HW125999   4.846   5.818   3.440
 8133SOL    HW226000   4.914   5.829   3.292
 8134SOL     OW26001   3.751   6.945   2.035
 8134SOL    HW126002   3.656   6.963   2.009
 8134SOL    HW226003   3.755   6.858   2.084
 8135SOL     OW26004   4.641   6.373   3.057
 8135SOL    HW126005   4.692   6.343   3.138
 8135SOL    HW226006   4.564   6.312   3.041
 8136SOL     OW26007   3.706   6.172   3.033
 8136SOL    HW126008   3.767   6.148   2.958
 8136SOL    HW226009   3.749   6.149   3.120
 8137SOL     OW26010   3.964   6.126   3.674
 8137SOL    HW126011   4.062   6.111   3.658
 8137SOL    HW226012   3.926   6.178   3.597
 8138SOL     OW26013   5.102   6.495   3.502
 8138SOL    HW126014   5.113   6.594   3.504
 8138SOL    HW226015   5.099   6.464   3.407
 8139SOL     OW26016   4.512   6.161   2.220
 8139SOL    HW126017   4.527   6.077   2.166
 8139SOL    HW226018   4.429   6.206   2.188
 8140SOL     OW26019   5.360   6.174   2.992
 8140SOL    HW126020   5.335   6.098   3.052
 8140SOL    HW226021   5.460   6.179   2.985
 8141SOL     OW26022   4.470   6.000   3.072
 8141SOL    HW126023   4.406   5.925   3.052
 8141SOL    HW226024   4.452   6.076   3.010
 8142SOL     OW26025   4.145   6.046   2.027
 8142SOL    HW126026   4.203   6.123   2.053
 8142SOL    HW226027   4.054   6.079   2.005
 8143SOL     OW26028   3.896   6.750   3.347
 8143SOL    HW126029   3.890   6.699   3.432
 8143SOL    HW226030   3.913   6.687   3.271
 8144SOL     OW26031   5.010   6.596   3.058
 8144SOL    HW126032   5.016   6.525   2.988
 8144SOL    HW226033   4.982   6.683   3.015
 8145SOL     OW26034   5.144   6.436   2.111
 8145SOL    HW126035   5.110   6.367   2.175
 8145SOL    HW226036   5.095   6.428   2.024
 8146SOL     OW26037   3.872   6.799   2.907
 8146SOL    HW126038   3.841   6.843   2.992
 8146SOL    HW226039   3.797   6.745   2.868
 8147SOL     OW26040   5.499   5.817   2.319
 8147SOL    HW126041   5.552   5.795   2.238
 8147SOL    HW226042   5.454   5.735   2.354
 8148SOL     OW26043   4.989   6.556   2.518
 8148SOL    HW126044   5.047   6.477   2.537
 8148SOL    HW226045   5.044   6.629   2.480
 8149SOL     OW26046   4.528   6.838   3.237
 8149SOL    HW126047   4.489   6.875   3.322
 8149SOL    HW226048   4.471   6.864   3.160
 8150SOL     OW26049   5.571   5.739   2.844
 8150SOL    HW126050   5.598   5.649   2.811
 8150SOL    HW226051   5.485   5.767   2.802
 8151SOL     OW26052   3.937   5.885   2.552
 8151SOL    HW126053   3.854   5.932   2.522
 8151SOL    HW226054   3.940   5.884   2.652
 8152SOL     OW26055   4.968   0.146   1.841
 8152SOL    HW126056   4.964   0.089   1.923
 8152SOL    HW226057   4.878   0.147   1.797
 8153SOL     OW26058   4.546   6.567   3.251
 8153SOL    HW126059   4.590   6.529   3.169
 8153SOL    HW226060   4.543   6.666   3.244
 8154SOL     OW26061   4.686   6.483   2.087
 8154SOL    HW126062   4.761   6.543   2.058
 8154SOL    HW226063   4.721   6.414   2.150
 8155SOL     OW26064   4.115   6.884   3.457
 8155SOL    HW126065   4.198   6.830   3.444
 8155SOL    HW226066   4.039   6.841   3.408
 8156SOL     OW26067   5.278   6.828   3.180
 8156SOL    HW126068   5.335   6.830   3.262
 8156SOL    HW226069   5.182   6.834   3.207
 8157SOL     OW26070   4.811   6.726   2.664
 8157SOL    HW126071   4.727   6.672   2.670
 8157SOL    HW226072   4.879   6.676   2.611
 8158SOL     OW26073   4.761   5.837   2.792
 8158SOL    HW126074   4.757   5.799   2.700
 8158SOL    HW226075   4.756   5.763   2.859
 8159SOL     OW26076   5.517   5.930   3.279
 8159SOL    HW126077   5.580   6.007   3.273
 8159SOL    HW226078   5.546   5.859   3.214
 8160SOL     OW26079   3.863   6.596   3.564
 8160SOL    HW126080   3.790   6.587   3.631
 8160SOL    HW226081   3.947   6.554   3.600
 8161SOL     OW26082   4.455   5.784   3.315
 8161SOL    HW126083   4.535   5.738   3.277
 8161SOL    HW226084   4.476   5.815   3.408
 8162SOL     OW26085   3.776   5.878   1.889
 8162SOL    HW126086   3.699   5.891   1.828
 8162SOL    HW226087   3.814   5.967   1.915
 8163SOL     OW26088   5.122   6.421   3.241
 8163SOL    HW126089   5.066   6.478   3.182
 8163SOL    HW226090   5.215   6.417   3.205
 8164SOL     OW26091   3.758   5.702   2.097
 8164SOL    HW126092   3.751   5.770   2.023
 8164SOL    HW226093   3.850   5.663   2.096
 8165SOL     OW26094   4.363   6.370   3.291
 8165SOL    HW126095   4.422   6.451   3.283
 8165SOL    HW226096   4.420   6.288   3.294
 8166SOL     OW26097   4.443   6.118   3.577
 8166SOL    HW126098   4.501   6.174   3.637
 8166SOL    HW226099   4.462   6.021   3.593
 8167SOL     OW26100   5.152   6.764   3.509
 8167SOL    HW126101   5.135   6.783   3.605
 8167SOL    HW226102   5.247   6.783   3.487
 8168SOL     OW26103   5.366   6.432   3.113
 8168SOL    HW126104   5.371   6.346   3.062
 8168SOL    HW226105   5.368   6.509   3.050
 8169SOL     OW26106   4.942   5.907   2.319
 8169SOL    HW126107   5.008   5.832   2.324
 8169SOL    HW226108   4.957   5.969   2.397
 8170SOL     OW26109   4.320   6.285   2.527
 8170SOL    HW126110   4.369   6.371   2.508
 8170SOL    HW226111   4.245   6.275   2.462
 8171SOL     OW26112   5.445   5.956   3.543
 8171SOL    HW126113   5.469   5.952   3.446
 8171SOL    HW226114   5.371   5.891   3.561
 8172SOL     OW26115   5.475   6.516   3.350
 8172SOL    HW126116   5.472   6.616   3.358
 8172SOL    HW226117   5.440   6.489   3.260
 8173SOL     OW26118   4.599   6.558   2.695
 8173SOL    HW126119   4.642   6.482   2.745
 8173SOL    HW226120   4.527   6.599   2.752
 8174SOL     OW26121   4.894   6.638   1.951
 8174SOL    HW126122   4.816   6.663   1.894
 8174SOL    HW226123   4.931   6.551   1.920
 8175SOL     OW26124   3.945   6.855   2.546
 8175SOL    HW126125   3.971   6.789   2.616
 8175SOL    HW226126   3.993   6.834   2.461
 8176SOL     OW26127   4.440   6.931   3.494
 8176SOL    HW126128   4.373   6.998   3.524
 8176SOL    HW226129   4.532   6.970   3.500
 8177SOL     OW26130   5.591   5.729   3.117
 8177SOL    HW126131   5.656   5.654   3.132
 8177SOL    HW226132   5.576   5.740   3.019
 8178SOL     OW26133   4.135   5.985   2.382
 8178SOL    HW126134   4.169   5.917   2.317
 8178SOL    HW226135   4.069   5.942   2.443
 8179SOL     OW26136   5.288   0.041   3.001
 8179SOL    HW126137   5.243   0.004   2.920
 8179SOL    HW226138   5.289   6.972   3.073
 8180SOL     OW26139   4.074   6.132   3.110
 8180SOL    HW126140   4.140   6.071   3.153
 8180SOL    HW226141   4.077   6.119   3.011
 8181SOL     OW26142   5.152   5.858   2.978
 8181SOL    HW126143   5.177   5.762   2.989
 8181SOL    HW226144   5.094   5.886   3.055
 8182SOL     OW26145   4.747   5.608   2.949
 8182SOL    HW126146   4.695   5.540   2.898
 8182SOL    HW226147   4.842   5.579   2.956
 8183SOL     OW26148   4.392   6.868   2.123
 8183SOL    HW126149   4.419   6.776   2.153
 8183SOL    HW226150   4.369   6.924   2.202
 8184SOL     OW26151   5.108   5.606   2.060
 8184SOL    HW126152   5.161   5.538   2.010
 8184SOL    HW226153   5.015   5.572   2.073
 8185SOL     OW26154   4.971   6.082   2.526
 8185SOL    HW126155   4.922   6.170   2.524
 8185SOL    HW226156   4.984   6.054   2.621
 8186SOL     OW26157   5.325   5.819   2.759
 8186SOL    HW126158   5.264   5.849   2.832
 8186SOL    HW226159   5.328   5.888   2.687
 8187SOL     OW26160   3.794   6.703   2.173
 8187SOL    HW126161   3.889   6.733   2.180
 8187SOL    HW226162   3.791   6.603   2.172
 8188SOL     OW26163   3.930   6.242   3.921
 8188SOL    HW126164   3.838   6.218   3.951
 8188SOL    HW226165   3.942   6.216   3.825
 8189SOL     OW26166   3.959   5.892   4.634
 8189SOL    HW126167   4.038   5.842   4.669
 8189SOL    HW226168   3.878   5.869   4.689
 8190SOL     OW26169   3.676   5.928   4.366
 8190SOL    HW126170   3.595   5.971   4.406
 8190SOL    HW226171   3.649   5.845   4.318
 8191SOL     OW26172   4.315   6.932   4.959
 8191SOL    HW126173   4.273   6.925   4.869
 8191SOL    HW226174   4.244   6.925   5.029
 8192SOL     OW26175   5.398   0.094   4.405
 8192SOL    HW126176   5.396   0.159   4.480
 8192SOL    HW226177   5.307   0.057   4.389
 8193SOL     OW26178   4.851   6.307   4.385
 8193SOL    HW126179   4.889   6.400   4.388
 8193SOL    HW226180   4.774   6.301   4.449
 8194SOL     OW26181   5.515   6.156   3.927
 8194SOL    HW126182   5.471   6.170   3.838
 8194SOL    HW226183   5.460   6.092   3.981
 8195SOL     OW26184   4.407   6.717   4.756
 8195SOL    HW126185   4.435   6.754   4.845
 8195SOL    HW226186   4.342   6.780   4.713
 8196SOL     OW26187   4.610   6.304   5.578
 8196SOL    HW126188   4.618   6.363   5.658
 8196SOL    HW226189   4.620   6.358   5.495
 8197SOL     OW26190   4.398   6.557   4.344
 8197SOL    HW126191   4.463   6.578   4.416
 8197SOL    HW226192   4.306   6.579   4.375
 8198SOL     OW26193   4.457   6.802   5.580
 8198SOL    HW126194   4.479   6.847   5.666
 8198SOL    HW226195   4.439   6.872   5.510
 8199SOL     OW26196   4.224   6.920   4.694
 8199SOL    HW126197   4.137   6.890   4.657
 8199SOL    HW226198   4.242   0.014   4.664
 8200SOL     OW26199   4.182   6.115   5.394
 8200SOL    HW126200   4.277   6.106   5.425
 8200SOL    HW226201   4.163   6.048   5.323
 8201SOL     OW26202   5.296   6.032   4.474
 8201SOL    HW126203   5.217   6.033   4.412
 8201SOL    HW226204   5.283   6.101   4.545
 8202SOL     OW26205   3.983   6.791   4.608
 8202SOL    HW126206   3.978   6.702   4.653
 8202SOL    HW226207   3.911   6.850   4.643
 8203SOL     OW26208   4.271   6.549   3.860
 8203SOL    HW126209   4.310   6.602   3.785
 8203SOL    HW226210   4.323   6.566   3.943
 8204SOL     OW26211   5.313   5.713   5.197
 8204SOL    HW126212   5.372   5.788   5.167
 8204SOL    HW226213   5.263   5.742   5.279
 8205SOL     OW26214   3.925   6.270   4.339
 8205SOL    HW126215   3.933   6.173   4.360
 8205SOL    HW226216   3.938   6.324   4.422
 8206SOL     OW26217   5.409   6.481   4.376
 8206SOL    HW126218   5.497   6.471   4.423
 8206SOL    HW226219   5.417   6.552   4.306
 8207SOL     OW26220   5.432   6.707   4.205
 8207SOL    HW126221   5.507   6.685   4.143
 8207SOL    HW226222   5.466   6.763   4.280
 8208SOL     OW26223   3.876   6.365   5.337
 8208SOL    HW126224   3.973   6.378   5.318
 8208SOL    HW226225   3.836   6.450   5.369
 8209SOL     OW26226   4.990   6.795   5.135
 8209SOL    HW126227   4.993   6.711   5.082
 8209SOL    HW226228   5.033   6.780   5.224
 8210SOL     OW26229   3.942   6.531   4.984
 8210SOL    HW126230   4.028   6.480   4.985
 8210SOL    HW226231   3.880   6.491   4.917
 8211SOL     OW26232   5.318   6.656   3.926
 8211SOL    HW126233   5.273   6.567   3.938
 8211SOL    HW226234   5.353   6.687   4.015
 8212SOL     OW26235   5.126   6.928   4.667
 8212SOL    HW126236   5.041   6.916   4.717
 8212SOL    HW226237   5.162   6.838   4.641
 8213SOL     OW26238   4.316   6.283   3.969
 8213SOL    HW126239   4.309   6.369   3.918
 8213SOL    HW226240   4.262   6.291   4.053
 8214SOL     OW26241   4.987   5.969   4.653
 8214SOL    HW126242   4.900   5.922   4.644
 8214SOL    HW226243   5.045   5.920   4.718
 8215SOL     OW26244   4.510   6.147   5.178
 8215SOL    HW126245   4.491   6.113   5.270
 8215SOL    HW226246   4.495   6.074   5.111
 8216SOL     OW26247   5.077   6.043   5.368
 8216SOL    HW126248   5.084   6.092   5.455
 8216SOL    HW226249   5.126   5.956   5.374
 8217SOL     OW26250   4.647   6.454   5.343
 8217SOL    HW126251   4.703   6.393   5.288
 8217SOL    HW226252   4.592   6.513   5.284
 8218SOL     OW26253   4.712   5.946   4.839
 8218SOL    HW126254   4.625   5.944   4.888
 8218SOL    HW226255   4.719   5.865   4.781
 8219SOL     OW26256   4.773   6.281   4.122
 8219SOL    HW126257   4.803   6.289   4.217
 8219SOL    HW226258   4.684   6.235   4.118
 8220SOL     OW26259   3.953   6.449   4.547
 8220SOL    HW126260   4.021   6.507   4.501
 8220SOL    HW226261   3.866   6.498   4.552
 8221SOL     OW26262   4.587   5.913   3.980
 8221SOL    HW126263   4.639   5.957   3.906
 8221SOL    HW226264   4.533   5.838   3.942
 8222SOL     OW26265   5.368   6.156   5.560
 8222SOL    HW126266   5.363   6.242   5.509
 8222SOL    HW226267   5.398   6.082   5.499
 8223SOL     OW26268   5.184   6.739   4.340
 8223SOL    HW126269   5.263   6.724   4.280
 8223SOL    HW226270   5.168   6.837   4.350
 8224SOL     OW26271   4.199   5.791   4.723
 8224SOL    HW126272   4.212   5.803   4.822
 8224SOL    HW226273   4.234   5.872   4.675
 8225SOL     OW26274   5.547   6.686   4.640
 8225SOL    HW126275   5.516   6.740   4.562
 8225SOL    HW226276   5.474   6.681   4.708
 8226SOL     OW26277   4.013   6.507   3.983
 8226SOL    HW126278   4.100   6.524   3.938
 8226SOL    HW226279   3.985   6.412   3.967
 8227SOL     OW26280   5.181   6.350   4.418
 8227SOL    HW126281   5.178   6.298   4.503
 8227SOL    HW226282   5.268   6.399   4.411
 8228SOL     OW26283   5.331   6.970   3.853
 8228SOL    HW126284   5.315   0.069   3.849
 8228SOL    HW226285   5.249   6.923   3.820
 8229SOL     OW26286   5.157   5.715   4.204
 8229SOL    HW126287   5.147   5.687   4.108
 8229SOL    HW226288   5.247   5.686   4.238
 8230SOL     OW26289   4.168   6.268   4.196
 8230SOL    HW126290   4.177   6.170   4.213
 8230SOL    HW226291   4.080   6.300   4.231
 8231SOL     OW26292   5.192   5.796   5.435
 8231SOL    HW126293   5.200   5.816   5.533
 8231SOL    HW226294   5.129   5.720   5.422
 8232SOL     OW26295   4.444   5.702   3.861
 8232SOL    HW126296   4.533   5.685   3.819
 8232SOL    HW226297   4.372   5.680   3.795
 8233SOL     OW26298   4.496   5.818   5.507
 8233SOL    HW126299   4.584   5.772   5.514
 8233SOL    HW226300   4.430   5.774   5.567
 8234SOL     OW26301   4.984   6.174   5.143
 8234SOL    HW126302   5.022   6.131   5.225
 8234SOL    HW226303   5.032   6.259   5.125
 8235SOL     OW26304   4.677   6.153   4.657
 8235SOL    HW126305   4.654   6.118   4.566
 8235SOL    HW226306   4.703   6.077   4.716
 8236SOL     OW26307   5.114   6.779   3.792
 8236SOL    HW126308   5.190   6.735   3.839
 8236SOL    HW226309   5.032   6.723   3.801
 8237SOL     OW26310   4.713   5.886   4.226
 8237SOL    HW126311   4.661   5.890   4.140
 8237SOL    HW226312   4.810   5.901   4.206
 8238SOL     OW26313   4.734   6.293   5.128
 8238SOL    HW126314   4.659   6.230   5.146
 8238SOL    HW226315   4.821   6.244   5.131
 8239SOL     OW26316   5.142   0.003   4.399
 8239SOL    HW126317   5.075   0.064   4.356
 8239SOL    HW226318   5.120   6.994   4.496
 8240SOL     OW26319   4.130   6.635   4.424
 8240SOL    HW126320   4.099   6.708   4.485
 8240SOL    HW226321   4.094   6.650   4.332
 8241SOL     OW26322   4.733   6.063   3.795
 8241SOL    HW126323   4.692   6.150   3.768
 8241SOL    HW226324   4.809   6.079   3.857
 8242SOL     OW26325   4.227   5.827   4.995
 8242SOL    HW126326   4.237   5.734   5.030
 8242SOL    HW226327   4.158   5.875   5.050
 8243SOL     OW26328   4.607   6.081   4.408
 8243SOL    HW126329   4.532   6.138   4.374
 8243SOL    HW226330   4.633   6.016   4.337
 8244SOL     OW26331   4.749   5.666   4.391
 8244SOL    HW126332   4.732   5.752   4.343
 8244SOL    HW226333   4.718   5.590   4.334
 8245SOL     OW26334   5.186   6.664   4.613
 8245SOL    HW126335   5.124   6.589   4.635
 8245SOL    HW226336   5.194   6.674   4.514
 8246SOL     OW26337   5.160   6.206   4.662
 8246SOL    HW126338   5.094   6.131   4.669
 8246SOL    HW226339   5.225   6.200   4.737
 8247SOL     OW26340   5.532   6.376   4.089
 8247SOL    HW126341   5.586   6.345   4.167
 8247SOL    HW226342   5.528   6.303   4.020
 8248SOL     OW26343   5.527   6.853   4.416
 8248SOL    HW126344   5.626   6.862   4.404
 8248SOL    HW226345   5.486   6.944   4.413
 8249SOL     OW26346   5.099   6.147   3.764
 8249SOL    HW126347   5.055   6.120   3.850
 8249SOL    HW226348   5.198   6.144   3.774
 8250SOL     OW26349   4.262   5.842   4.048
 8250SOL    HW126350   4.325   5.789   3.992
 8250SOL    HW226351   4.227   5.920   3.995
 8251SOL     OW26352   5.432   6.761   5.344
 8251SOL    HW126353   5.457   6.716   5.429
 8251SOL    HW226354   5.490   6.841   5.330
 8252SOL     OW26355   4.748   6.896   5.010
 8252SOL    HW126356   4.668   6.888   5.069
 8252SOL    HW226357   4.831   6.874   5.062
 8253SOL     OW26358   4.903   6.828   4.789
 8253SOL    HW126359   4.830   6.852   4.852
 8253SOL    HW226360   4.864   6.790   4.705
 8254SOL     OW26361   5.346   6.678   4.836
 8254SOL    HW126362   5.318   6.742   4.908
 8254SOL    HW226363   5.277   6.678   4.763
 8255SOL     OW26364   4.680   5.584   5.124
 8255SOL    HW126365   4.693   5.567   5.026
 8255SOL    HW226366   4.749   5.649   5.156
 8256SOL     OW26367   4.691   6.672   5.509
 8256SOL    HW126368   4.601   6.712   5.531
 8256SOL    HW226369   4.679   6.594   5.448
 8257SOL     OW26370   4.446   6.601   4.066
 8257SOL    HW126371   4.433   6.581   4.163
 8257SOL    HW226372   4.527   6.553   4.033
 8258SOL     OW26373   4.161   6.367   4.970
 8258SOL    HW126374   4.228   6.367   5.045
 8258SOL    HW226375   4.134   6.273   4.950
 8259SOL     OW26376   4.938   5.943   4.999
 8259SOL    HW126377   4.954   6.030   5.046
 8259SOL    HW226378   4.857   5.952   4.940
 8260SOL     OW26379   4.021   6.702   4.183
 8260SOL    HW126380   4.070   6.778   4.141
 8260SOL    HW226381   4.011   6.628   4.118
 8261SOL     OW26382   4.286   6.020   4.605
 8261SOL    HW126383   4.288   6.048   4.509
 8261SOL    HW226384   4.335   6.087   4.661
 8262SOL     OW26385   5.271   6.254   4.165
 8262SOL    HW126386   5.225   6.279   4.250
 8262SOL    HW226387   5.354   6.310   4.154
 8263SOL     OW26388   4.152   6.381   5.335
 8263SOL    HW126389   4.226   6.401   5.271
 8263SOL    HW226390   4.160   6.288   5.369
 8264SOL     OW26391   5.344   6.394   5.432
 8264SOL    HW126392   5.248   6.417   5.422
 8264SOL    HW226393   5.395   6.426   5.352
 8265SOL     OW26394   4.735   5.690   5.504
 8265SOL    HW126395   4.781   5.774   5.474
 8265SOL    HW226396   4.804   5.624   5.533
 8266SOL     OW26397   4.140   5.643   5.463
 8266SOL    HW126398   4.117   5.564   5.406
 8266SOL    HW226399   4.081   5.720   5.438
 8267SOL     OW26400   4.386   6.450   4.831
 8267SOL    HW126401   4.388   6.543   4.793
 8267SOL    HW226402   4.297   6.433   4.873
 8268SOL     OW26403   5.024   6.449   4.700
 8268SOL    HW126404   4.927   6.441   4.677
 8268SOL    HW226405   5.070   6.362   4.685
 8269SOL     OW26406   4.933   6.107   3.981
 8269SOL    HW126407   4.958   6.035   4.046
 8269SOL    HW226408   4.884   6.180   4.030
 8270SOL     OW26409   3.843   6.946   4.986
 8270SOL    HW126410   3.865   6.877   5.055
 8270SOL    HW226411   3.770   0.006   5.020
 8271SOL     OW26412   4.432   6.184   4.775
 8271SOL    HW126413   4.520   6.177   4.728
 8271SOL    HW226414   4.410   6.281   4.790
 8272SOL     OW26415   5.476   6.601   5.568
 8272SOL    HW126416   5.433   6.517   5.534
 8272SOL    HW226417   5.437   6.625   5.656
 8273SOL     OW26418   5.318   6.003   4.048
 8273SOL    HW126419   5.366   5.943   4.112
 8273SOL    HW226420   5.287   6.085   4.097
 8274SOL     OW26421   4.745   6.412   4.677
 8274SOL    HW126422   4.724   6.443   4.770
 8274SOL    HW226423   4.723   6.315   4.669
 8275SOL     OW26424   5.600   0.004   5.322
 8275SOL    HW126425   5.650   0.076   5.275
 8275SOL    HW226426   5.654   6.970   5.398
 8276SOL     OW26427   4.071   6.580   5.514
 8276SOL    HW126428   4.138   6.599   5.585
 8276SOL    HW226429   4.107   6.510   5.452
 8277SOL     OW26430   5.225   5.845   3.835
 8277SOL    HW126431   5.177   5.770   3.880
 8277SOL    HW226432   5.259   5.909   3.904
 8278SOL     OW26433   5.002   6.399   3.737
 8278SOL    HW126434   5.022   6.301   3.743
 8278SOL    HW226435   5.032   6.434   3.648
 8279SOL     OW26436   4.831   5.933   5.418
 8279SOL    HW126437   4.785   5.979   5.493
 8279SOL    HW226438   4.917   5.979   5.397
 8280SOL     OW26439   4.869   5.766   5.201
 8280SOL    HW126440   4.845   5.827   5.277
 8280SOL    HW226441   4.901   5.820   5.124
 8281SOL     OW26442   4.649   6.463   4.928
 8281SOL    HW126443   4.682   6.398   4.996
 8281SOL    HW226444   4.555   6.440   4.903
 8282SOL     OW26445   3.958   6.201   5.547
 8282SOL    HW126446   4.043   6.161   5.512
 8282SOL    HW226447   3.914   6.254   5.475
 8283SOL     OW26448   5.095   6.488   5.360
 8283SOL    HW126449   5.110   6.587   5.362
 8283SOL    HW226450   5.091   6.457   5.264
 8284SOL     OW26451   4.536   6.161   4.088
 8284SOL    HW126452   4.541   6.066   4.056
 8284SOL    HW226453   4.457   6.206   4.046
 8285SOL     OW26454   5.349   6.180   4.858
 8285SOL    HW126455   5.326   6.109   4.924
 8285SOL    HW226456   5.449   6.183   4.846
 8286SOL     OW26457   4.459   5.980   4.961
 8286SOL    HW126458   4.380   5.919   4.970
 8286SOL    HW226459   4.439   6.051   4.894
 8287SOL     OW26460   4.160   6.064   3.912
 8287SOL    HW126461   4.234   6.131   3.920
 8287SOL    HW226462   4.073   6.107   3.936
 8288SOL     OW26463   3.924   6.739   5.158
 8288SOL    HW126464   3.897   6.706   5.249
 8288SOL    HW226465   3.932   6.662   5.095
 8289SOL     OW26466   5.007   6.610   4.921
 8289SOL    HW126467   5.018   6.543   4.848
 8289SOL    HW226468   4.974   6.697   4.882
 8290SOL     OW26469   5.180   6.429   3.957
 8290SOL    HW126470   5.191   6.353   4.022
 8290SOL    HW226471   5.108   6.407   3.892
 8291SOL     OW26472   3.770   6.916   4.724
 8291SOL    HW126473   3.800   6.926   4.819
 8291SOL    HW226474   3.689   6.858   4.720
 8292SOL     OW26475   5.492   5.830   4.183
 8292SOL    HW126476   5.543   5.812   4.099
 8292SOL    HW226477   5.461   5.744   4.223
 8293SOL     OW26478   4.993   6.546   4.393
 8293SOL    HW126479   5.056   6.469   4.401
 8293SOL    HW226480   5.042   6.625   4.356
 8294SOL     OW26481   4.505   6.867   5.147
 8294SOL    HW126482   4.476   6.902   5.236
 8294SOL    HW226483   4.440   6.896   5.077
 8295SOL     OW26484   5.558   5.732   4.738
 8295SOL    HW126485   5.592   5.645   4.701
 8295SOL    HW226486   5.473   5.756   4.692
 8296SOL     OW26487   3.935   6.002   4.390
 8296SOL    HW126488   3.840   5.978   4.367
 8296SOL    HW226489   3.957   5.965   4.481
 8297SOL     OW26490   5.013   0.195   3.758
 8297SOL    HW126491   4.974   0.123   3.816
 8297SOL    HW226492   4.939   0.240   3.708
 8298SOL     OW26493   4.528   6.595   5.141
 8298SOL    HW126494   4.586   6.573   5.063
 8298SOL    HW226495   4.519   6.694   5.148
 8299SOL     OW26496   4.673   6.475   3.952
 8299SOL    HW126497   4.745   6.537   3.921
 8299SOL    HW226498   4.712   6.407   4.014
 8300SOL     OW26499   4.133   6.919   5.160
 8300SOL    HW126500   4.132   6.964   5.250
 8300SOL    HW226501   4.060   6.851   5.157
 8301SOL     OW26502   5.251   6.859   5.047
 8301SOL    HW126503   5.293   6.914   5.120
 8301SOL    HW226504   5.155   6.842   5.069
 8302SOL     OW26505   4.823   6.713   4.553
 8302SOL    HW126506   4.729   6.682   4.540
 8302SOL    HW226507   4.884   6.655   4.498
 8303SOL     OW26508   4.762   5.739   4.668
 8303SOL    HW126509   4.756   5.711   4.572
 8303SOL    HW226510   4.756   5.658   4.727
 8304SOL     OW26511   5.511   5.913   5.150
 8304SOL    HW126512   5.572   5.992   5.140
 8304SOL    HW226513   5.548   5.835   5.099
 8305SOL     OW26514   3.807   6.614   5.444
 8305SOL    HW126515   3.743   6.596   5.518
 8305SOL    HW226516   3.900   6.613   5.480
 8306SOL     OW26517   4.452   5.665   5.273
 8306SOL    HW126518   4.535   5.646   5.221
 8306SOL    HW226519   4.471   5.734   5.343
 8307SOL     OW26520   3.829   5.905   3.777
 8307SOL    HW126521   3.744   5.898   3.725
 8307SOL    HW226522   3.877   5.989   3.753
 8308SOL     OW26523   5.105   6.419   5.094
 8308SOL    HW126524   5.053   6.484   5.038
 8308SOL    HW226525   5.200   6.417   5.063
 8309SOL     OW26526   3.811   5.743   4.017
 8309SOL    HW126527   3.808   5.803   3.937
 8309SOL    HW226528   3.902   5.744   4.057
 8310SOL     OW26529   4.359   6.379   5.155
 8310SOL    HW126530   4.416   6.461   5.152
 8310SOL    HW226531   4.418   6.298   5.166
 8311SOL     OW26532   4.454   6.084   5.442
 8311SOL    HW126533   4.502   6.150   5.500
 8311SOL    HW226534   4.476   5.991   5.471
 8312SOL     OW26535   5.152   6.756   5.370
 8312SOL    HW126536   5.136   6.780   5.465
 8312SOL    HW226537   5.249   6.768   5.348
 8313SOL     OW26538   5.352   6.441   4.977
 8313SOL    HW126539   5.361   6.357   4.922
 8313SOL    HW226540   5.357   6.520   4.917
 8314SOL     OW26541   4.982   5.927   4.182
 8314SOL    HW126542   5.046   5.850   4.185
 8314SOL    HW226543   4.999   5.987   4.261
 8315SOL     OW26544   4.396   6.272   4.370
 8315SOL    HW126545   4.414   6.370   4.368
 8315SOL    HW226546   4.318   6.251   4.312
 8316SOL     OW26547   5.443   5.936   5.412
 8316SOL    HW126548   5.465   5.931   5.315
 8316SOL    HW226549   5.364   5.878   5.432
 8317SOL     OW26550   5.460   6.511   5.219
 8317SOL    HW126551   5.451   6.609   5.240
 8317SOL    HW226552   5.424   6.493   5.128
 8318SOL     OW26553   4.568   6.598   4.560
 8318SOL    HW126554   4.624   6.525   4.599
 8318SOL    HW226555   4.514   6.641   4.632
 8319SOL     OW26556   4.885   6.630   3.818
 8319SOL    HW126557   4.808   6.650   3.757
 8319SOL    HW226558   4.923   6.541   3.794
 8320SOL     OW26559   3.900   6.958   5.575
 8320SOL    HW126560   3.826   6.906   5.616
 8320SOL    HW226561   3.957   6.999   5.646
 8321SOL     OW26562   3.820   6.823   4.352
 8321SOL    HW126563   3.872   6.823   4.438
 8321SOL    HW226564   3.873   6.777   4.281
 8322SOL     OW26565   4.394   6.985   5.379
 8322SOL    HW126566   4.295   6.978   5.396
 8322SOL    HW226567   4.415   0.076   5.343
 8323SOL     OW26568   5.598   5.701   5.009
 8323SOL    HW126569   5.671   5.633   5.009
 8323SOL    HW226570   5.571   5.722   4.915
 8324SOL     OW26571   4.183   6.011   4.261
 8324SOL    HW126572   4.211   5.937   4.200
 8324SOL    HW226573   4.096   5.988   4.303
 8325SOL     OW26574   5.276   0.055   4.861
 8325SOL    HW126575   5.232   0.020   4.779
 8325SOL    HW226576   5.272   6.985   4.933
 8326SOL     OW26577   5.135   5.835   4.841
 8326SOL    HW126578   5.157   5.739   4.861
 8326SOL    HW226579   5.072   5.870   4.910
 8327SOL     OW26580   4.747   5.518   4.849
 8327SOL    HW126581   4.692   5.436   4.867
 8327SOL    HW226582   4.841   5.491   4.829
 8328SOL     OW26583   4.376   6.851   3.954
 8328SOL    HW126584   4.419   6.771   3.996
 8328SOL    HW226585   4.292   6.873   4.004
 8329SOL     OW26586   5.110   5.626   3.951
 8329SOL    HW126587   5.149   5.550   3.899
 8329SOL    HW226588   5.019   5.600   3.984
 8330SOL     OW26589   5.019   6.079   4.401
 8330SOL    HW126590   4.967   6.164   4.390
 8330SOL    HW226591   5.000   6.040   4.491
 8331SOL     OW26592   5.316   5.798   4.634
 8331SOL    HW126593   5.252   5.825   4.706
 8331SOL    HW226594   5.315   5.867   4.561
 8332SOL     OW26595   3.749   6.571   4.067
 8332SOL    HW126596   3.835   6.568   4.016
 8332SOL    HW226597   3.733   6.482   4.110
 8333SOL     OW26598   3.958   6.332   5.788
 8333SOL    HW126599   3.865   6.329   5.823
 8333SOL    HW226600   3.962   6.289   5.698
 8334SOL     OW26601   3.894   5.907   6.611
 8334SOL    HW126602   3.950   5.862   6.681
 8334SOL    HW226603   3.812   5.853   6.595
 8335SOL     OW26604   3.686   6.009   6.207
 8335SOL    HW126605   3.600   6.030   6.253
 8335SOL    HW226606   3.671   5.935   6.142
 8336SOL     OW26607   4.259   6.885   6.727
 8336SOL    HW126608   4.182   6.940   6.697
 8336SOL    HW226609   4.254   6.870   6.826
 8337SOL     OW26610   5.352   0.085   6.195
 8337SOL    HW126611   5.334   0.129   6.283
 8337SOL    HW226612   5.270   0.091   6.137
 8338SOL     OW26613   4.859   6.302   6.244
 8338SOL    HW126614   4.892   6.396   6.251
 8338SOL    HW226615   4.794   6.284   6.317
 8339SOL     OW26616   5.509   6.150   5.788
 8339SOL    HW126617   5.465   6.162   5.699
 8339SOL    HW226618   5.452   6.092   5.846
 8340SOL     OW26619   4.368   6.700   6.554
 8340SOL    HW126620   4.337   6.771   6.617
 8340SOL    HW226621   4.323   6.713   6.465
 8341SOL     OW26622   4.432   6.559   6.208
 8341SOL    HW126623   4.508   6.562   6.273
 8341SOL    HW226624   4.358   6.617   6.241
 8342SOL     OW26625   4.041   0.043   6.667
 8342SOL    HW126626   3.956   0.002   6.634
 8342SOL    HW226627   4.077   0.105   6.598
 8343SOL     OW26628   5.303   6.038   6.329
 8343SOL    HW126629   5.224   6.042   6.268
 8343SOL    HW226630   5.289   6.103   6.405
 8344SOL     OW26631   4.013   6.655   6.481
 8344SOL    HW126632   4.024   6.555   6.482
 8344SOL    HW226633   3.955   6.683   6.558
 8345SOL     OW26634   4.274   6.639   5.712
 8345SOL    HW126635   4.327   6.692   5.646
 8345SOL    HW226636   4.331   6.616   5.791
 8346SOL     OW26637   3.812   6.256   6.142
 8346SOL    HW126638   3.774   6.167   6.166
 8346SOL    HW226639   3.804   6.318   6.220
 8347SOL     OW26640   5.420   6.480   6.242
 8347SOL    HW126641   5.509   6.474   6.288
 8347SOL    HW226642   5.425   6.551   6.171
 8348SOL     OW26643   5.433   6.700   6.062
 8348SOL    HW126644   5.510   6.678   6.003
 8348SOL    HW226645   5.463   6.764   6.133
 8349SOL     OW26646   4.544   5.627   6.101
 8349SOL    HW126647   4.600   5.707   6.078
 8349SOL    HW226648   4.448   5.653   6.104
 8350SOL     OW26649   3.868   6.581   6.830
 8350SOL    HW126650   3.952   6.527   6.824
 8350SOL    HW226651   3.788   6.520   6.824
 8351SOL     OW26652   5.320   6.650   5.800
 8351SOL    HW126653   5.269   6.565   5.809
 8351SOL    HW226654   5.355   6.678   5.889
 8352SOL     OW26655   5.219   6.933   6.477
 8352SOL    HW126656   5.152   6.981   6.421
 8352SOL    HW226657   5.196   6.835   6.480
 8353SOL     OW26658   4.302   6.310   5.922
 8353SOL    HW126659   4.319   6.406   5.905
 8353SOL    HW226660   4.222   6.300   5.981
 8354SOL     OW26661   4.989   5.973   6.495
 8354SOL    HW126662   4.899   5.929   6.500
 8354SOL    HW226663   5.052   5.924   6.555
 8355SOL     OW26664   4.473   6.158   0.058
 8355SOL    HW126665   4.393   6.175   0.116
 8355SOL    HW226666   4.446   6.100   6.981
 8356SOL     OW26667   4.723   6.011   6.698
 8356SOL    HW126668   4.649   6.003   6.765
 8356SOL    HW226669   4.735   5.924   6.651
 8357SOL     OW26670   4.773   6.279   5.982
 8357SOL    HW126671   4.813   6.290   6.072
 8357SOL    HW226672   4.681   6.240   5.991
 8358SOL     OW26673   3.795   6.445   6.355
 8358SOL    HW126674   3.882   6.414   6.393
 8358SOL    HW226675   3.769   6.531   6.398
 8359SOL     OW26676   4.559   5.954   5.841
 8359SOL    HW126677   4.602   5.972   5.752
 8359SOL    HW226678   4.468   5.916   5.826
 8360SOL     OW26679   5.177   6.746   6.190
 8360SOL    HW126680   5.259   6.724   6.137
 8360SOL    HW226681   5.174   6.844   6.209
 8361SOL     OW26682   4.290   5.678   6.524
 8361SOL    HW126683   4.289   5.718   6.615
 8361SOL    HW226684   4.307   5.749   6.455
 8362SOL     OW26685   5.569   6.708   6.477
 8362SOL    HW126686   5.528   6.760   6.402
 8362SOL    HW226687   5.496   6.673   6.536
 8363SOL     OW26688   4.049   6.581   5.866
 8363SOL    HW126689   4.123   6.610   5.805
 8363SOL    HW226690   4.023   6.487   5.845
 8364SOL     OW26691   5.187   6.355   6.286
 8364SOL    HW126692   5.183   6.304   6.371
 8364SOL    HW226693   5.275   6.402   6.279
 8365SOL     OW26694   5.335   6.971   5.692
 8365SOL    HW126695   5.304   0.066   5.696
 8365SOL    HW226696   5.257   6.912   5.672
 8366SOL     OW26697   5.116   5.690   6.042
 8366SOL    HW126698   5.115   5.662   5.946
 8366SOL    HW226699   5.208   5.678   6.079
 8367SOL     OW26700   4.095   6.259   6.096
 8367SOL    HW126701   4.109   6.160   6.109
 8367SOL    HW226702   3.997   6.279   6.093
 8368SOL     OW26703   4.313   5.680   5.661
 8368SOL    HW126704   4.342   5.590   5.694
 8368SOL    HW226705   4.245   5.668   5.588
 8369SOL     OW26706   4.679   6.182   6.485
 8369SOL    HW126707   4.655   6.134   6.401
 8369SOL    HW226708   4.706   6.115   6.555
 8370SOL     OW26709   4.280   5.701   6.087
 8370SOL    HW126710   4.202   5.711   6.150
 8370SOL    HW226711   4.278   5.776   6.021
 8371SOL     OW26712   5.123   6.778   5.661
 8371SOL    HW126713   5.197   6.730   5.707
 8371SOL    HW226714   5.039   6.724   5.666
 8372SOL     OW26715   4.691   5.850   6.055
 8372SOL    HW126716   4.645   5.889   5.975
 8372SOL    HW226717   4.789   5.867   6.048
 8373SOL     OW26718   5.039   0.068   6.321
 8373SOL    HW126719   5.048   0.166   6.341
 8373SOL    HW226720   4.942   0.044   6.313
 8374SOL     OW26721   4.223   6.704   6.314
 8374SOL    HW126722   4.148   6.688   6.378
 8374SOL    HW226723   4.185   6.731   6.225
 8375SOL     OW26724   4.728   6.063   5.636
 8375SOL    HW126725   4.691   6.154   5.617
 8375SOL    HW226726   4.801   6.071   5.704
 8376SOL     OW26727   4.275   5.771   6.780
 8376SOL    HW126728   4.309   5.694   6.834
 8376SOL    HW226729   4.178   5.786   6.800
 8377SOL     OW26730   4.625   6.059   6.244
 8377SOL    HW126731   4.577   6.114   6.176
 8377SOL    HW226732   4.655   5.973   6.204
 8378SOL     OW26733   4.736   5.633   6.320
 8378SOL    HW126734   4.673   5.647   6.243
 8378SOL    HW226735   4.706   5.555   6.374
 8379SOL     OW26736   5.173   6.662   6.469
 8379SOL    HW126737   5.113   6.590   6.503
 8379SOL    HW226738   5.169   6.664   6.369
 8380SOL     OW26739   5.166   6.204   6.524
 8380SOL    HW126740   5.100   6.129   6.531
 8380SOL    HW226741   5.233   6.196   6.598
 8381SOL     OW26742   5.532   6.375   5.944
 8381SOL    HW126743   5.589   6.348   6.022
 8381SOL    HW226744   5.527   6.301   5.878
 8382SOL     OW26745   5.515   6.869   6.256
 8382SOL    HW126746   5.611   6.893   6.266
 8382SOL    HW226747   5.461   6.952   6.243
 8383SOL     OW26748   5.092   6.144   5.620
 8383SOL    HW126749   5.047   6.111   5.703
 8383SOL    HW226750   5.191   6.134   5.630
 8384SOL     OW26751   4.290   5.860   5.860
 8384SOL    HW126752   4.289   5.797   5.783
 8384SOL    HW226753   4.242   5.945   5.835
 8385SOL     OW26754   5.482   6.823   0.277
 8385SOL    HW126755   5.562   6.764   0.261
 8385SOL    HW226756   5.473   6.888   0.202
 8386SOL     OW26757   4.703   6.843   6.902
 8386SOL    HW126758   4.611   6.839   6.942
 8386SOL    HW226759   4.762   6.777   6.948
 8387SOL     OW26760   4.877   6.750   6.700
 8387SOL    HW126761   4.805   6.796   6.752
 8387SOL    HW226762   4.861   6.763   6.602
 8388SOL     OW26763   5.375   6.622   6.646
 8388SOL    HW126764   5.364   6.685   6.723
 8388SOL    HW226765   5.297   6.632   6.584
 8389SOL     OW26766   4.449   6.592   5.923
 8389SOL    HW126767   4.448   6.580   6.022
 8389SOL    HW226768   4.531   6.549   5.885
 8390SOL     OW26769   4.111   6.448   6.860
 8390SOL    HW126770   4.152   6.482   6.945
 8390SOL    HW226771   4.083   6.353   6.872
 8391SOL     OW26772   4.981   6.013   6.824
 8391SOL    HW126773   5.004   6.082   6.892
 8391SOL    HW226774   4.893   6.034   6.782
 8392SOL     OW26775   4.097   6.763   6.073
 8392SOL    HW126776   4.140   6.840   6.025
 8392SOL    HW226777   4.076   6.691   6.007
 8393SOL     OW26778   4.278   6.130   6.468
 8393SOL    HW126779   4.281   6.196   6.392
 8393SOL    HW226780   4.349   6.152   6.534
 8394SOL     OW26781   5.272   6.259   6.030
 8394SOL    HW126782   5.230   6.285   6.117
 8394SOL    HW226783   5.354   6.314   6.015
 8395SOL     OW26784   4.342   6.470   6.702
 8395SOL    HW126785   4.349   6.549   6.641
 8395SOL    HW226786   4.249   6.463   6.738
 8396SOL     OW26787   5.038   6.449   6.579
 8396SOL    HW126788   4.938   6.444   6.580
 8396SOL    HW226789   5.075   6.358   6.559
 8397SOL     OW26790   4.920   6.097   5.834
 8397SOL    HW126791   4.940   6.022   5.898
 8397SOL    HW226792   4.876   6.172   5.883
 8398SOL     OW26793   4.004   5.776   6.827
 8398SOL    HW126794   3.942   5.814   6.896
 8398SOL    HW226795   3.990   5.677   6.821
 8399SOL     OW26796   3.752   6.920   6.902
 8399SOL    HW126797   3.832   6.875   6.942
 8399SOL    HW226798   3.700   6.967   6.973
 8400SOL     OW26799   4.453   6.213   6.661
 8400SOL    HW126800   4.536   6.218   6.606
 8400SOL    HW226801   4.421   6.305   6.682
 8401SOL     OW26802   4.052   5.675   6.255
 8401SOL    HW126803   3.999   5.757   6.276
 8401SOL    HW226804   4.056   5.617   6.336
 8402SOL     OW26805   5.309   6.007   5.917
 8402SOL    HW126806   5.363   5.950   5.979
 8402SOL    HW226807   5.281   6.090   5.964
 8403SOL     OW26808   4.758   6.421   6.589
 8403SOL    HW126809   4.736   6.424   6.687
 8403SOL    HW226810   4.731   6.332   6.553
 8404SOL     OW26811   5.220   5.852   5.699
 8404SOL    HW126812   5.177   5.770   5.737
 8404SOL    HW226813   5.250   5.911   5.774
 8405SOL     OW26814   5.001   6.396   5.597
 8405SOL    HW126815   5.022   6.299   5.603
 8405SOL    HW226816   5.027   6.431   5.507
 8406SOL     OW26817   4.041   6.379   6.468
 8406SOL    HW126818   4.122   6.372   6.409
 8406SOL    HW226819   4.038   6.301   6.530
 8407SOL     OW26820   4.056   6.132   6.615
 8407SOL    HW126821   3.998   6.052   6.598
 8407SOL    HW226822   4.139   6.125   6.560
 8408SOL     OW26823   4.928   5.808   6.998
 8408SOL    HW126824   5.007   5.786   0.055
 8408SOL    HW226825   4.952   5.880   6.933
 8409SOL     OW26826   3.693   6.856   5.730
 8409SOL    HW126827   3.597   6.863   5.701
 8409SOL    HW226828   3.709   6.766   5.769
 8410SOL     OW26829   4.683   6.412   6.855
 8410SOL    HW126830   4.712   6.331   6.906
 8410SOL    HW226831   4.595   6.444   6.890
 8411SOL     OW26832   3.779   6.098   6.784
 8411SOL    HW126833   3.810   6.036   6.712
 8411SOL    HW226834   3.855   6.154   6.816
 8412SOL     OW26835   4.525   6.170   6.005
 8412SOL    HW126836   4.533   6.089   5.947
 8412SOL    HW226837   4.442   6.221   5.980
 8413SOL     OW26838   5.364   6.168   6.713
 8413SOL    HW126839   5.333   6.107   6.786
 8413SOL    HW226840   5.462   6.157   6.699
 8414SOL     OW26841   4.437   5.994   6.836
 8414SOL    HW126842   4.378   5.921   6.802
 8414SOL    HW226843   4.436   6.070   6.771
 8415SOL     OW26844   4.178   6.096   5.787
 8415SOL    HW126845   4.234   6.173   5.818
 8415SOL    HW226846   4.081   6.117   5.800
 8416SOL     OW26847   3.948   6.764   0.018
 8416SOL    HW126848   3.920   6.728   0.107
 8416SOL    HW226849   3.922   6.699   6.946
 8417SOL     OW26850   5.055   6.583   6.827
 8417SOL    HW126851   5.080   6.526   6.749
 8417SOL    HW226852   4.991   6.654   6.797
 8418SOL     OW26853   5.171   6.431   5.824
 8418SOL    HW126854   5.184   6.354   5.888
 8418SOL    HW226855   5.102   6.405   5.756
 8419SOL     OW26856   3.791   6.921   6.622
 8419SOL    HW126857   3.772   6.915   6.720
 8419SOL    HW226858   3.762   6.837   6.577
 8420SOL     OW26859   5.490   5.840   6.046
 8420SOL    HW126860   5.545   5.814   5.967
 8420SOL    HW226861   5.446   5.759   6.084
 8421SOL     OW26862   4.994   6.547   6.252
 8421SOL    HW126863   5.059   6.473   6.265
 8421SOL    HW226864   5.039   6.624   6.207
 8422SOL     OW26865   4.469   6.795   0.044
 8422SOL    HW126866   4.495   6.820   0.137
 8422SOL    HW226867   4.373   6.821   0.028
 8423SOL     OW26868   5.573   5.760   6.568
 8423SOL    HW126869   5.600   5.664   6.563
 8423SOL    HW226870   5.484   5.772   6.524
 8424SOL     OW26871   3.913   5.902   6.326
 8424SOL    HW126872   3.830   5.941   6.286
 8424SOL    HW226873   3.909   5.912   6.426
 8425SOL     OW26874   4.971   0.170   5.645
 8425SOL    HW126875   4.967   0.099   5.715
 8425SOL    HW226876   4.887   0.170   5.592
 8426SOL     OW26877   4.453   6.535   6.946
 8426SOL    HW126878   4.415   6.525   6.854
 8426SOL    HW226879   4.467   6.632   6.966
 8427SOL     OW26880   4.679   6.475   5.809
 8427SOL    HW126881   4.750   6.537   5.777
 8427SOL    HW226882   4.719   6.407   5.871
 8428SOL     OW26883   4.209   6.868   7.000
 8428SOL    HW126884   4.222   6.960   0.038
 8428SOL    HW226885   4.114   6.840   0.012
 8429SOL     OW26886   5.364   6.792   6.853
 8429SOL    HW126887   5.453   6.826   6.884
 8429SOL    HW226888   5.305   6.777   6.933
 8430SOL     OW26889   4.819   6.744   6.397
 8430SOL    HW126890   4.733   6.695   6.407
 8430SOL    HW226891   4.888   6.684   6.356
 8431SOL     OW26892   4.772   5.788   6.549
 8431SOL    HW126893   4.762   5.752   6.456
 8431SOL    HW226894   4.769   5.712   6.614
 8432SOL     OW26895   5.322   5.978   6.905
 8432SOL    HW126896   5.281   5.954   6.993
 8432SOL    HW226897   5.381   5.903   6.875
 8433SOL     OW26898   4.446   5.793   0.055
 8433SOL    HW126899   4.539   5.762   0.073
 8433SOL    HW226900   4.449   5.871   6.992
 8434SOL     OW26901   5.235   6.910   0.369
 8434SOL    HW126902   5.173   6.836   0.345
 8434SOL    HW226903   5.328   6.889   0.339
 8435SOL     OW26904   5.488   6.424   6.802
 8435SOL    HW126905   5.452   6.337   6.768
 8435SOL    HW226906   5.453   6.499   6.746
 8436SOL     OW26907   4.958   5.913   6.037
 8436SOL    HW126908   5.016   5.832   6.036
 8436SOL    HW226909   4.986   5.974   6.111
 8437SOL     OW26910   4.257   6.349   6.295
 8437SOL    HW126911   4.327   6.413   6.263
 8437SOL    HW226912   4.201   6.319   6.217
 8438SOL     OW26913   5.436   6.371   0.070
 8438SOL    HW126914   5.351   6.418   0.093
 8438SOL    HW226915   5.464   6.398   6.978
 8439SOL     OW26916   4.597   6.590   6.438
 8439SOL    HW126917   4.651   6.530   6.496
 8439SOL    HW226918   4.522   6.629   6.491
 8440SOL     OW26919   4.892   6.630   5.681
 8440SOL    HW126920   4.820   6.654   5.616
 8440SOL    HW226921   4.930   6.540   5.657
 8441SOL     OW26922   3.927   6.844   6.276
 8441SOL    HW126923   3.940   6.782   6.353
 8441SOL    HW226924   3.977   6.810   6.197
 8442SOL     OW26925   5.500   5.781   6.834
 8442SOL    HW126926   5.481   5.683   6.845
 8442SOL    HW226927   5.530   5.798   6.740
 8443SOL     OW26928   4.090   5.991   6.131
 8443SOL    HW126929   4.039   5.975   6.046
 8443SOL    HW226930   4.035   5.960   6.209
 8444SOL     OW26931   5.305   0.020   6.715
 8444SOL    HW126932   5.279   6.991   6.623
 8444SOL    HW226933   5.318   6.940   6.774
 8445SOL     OW26934   4.030   6.188   6.881
 8445SOL    HW126935   4.076   6.127   6.946
 8445SOL    HW226936   4.056   6.163   6.788
 8446SOL     OW26937   5.142   5.841   6.676
 8446SOL    HW126938   5.138   5.747   6.710
 8446SOL    HW226939   5.101   5.903   6.743
 8447SOL     OW26940   4.751   5.545   6.684
 8447SOL    HW126941   4.708   5.490   6.612
 8447SOL    HW226942   4.844   5.511   6.700
 8448SOL     OW26943   4.487   6.881   5.856
 8448SOL    HW126944   4.473   6.786   5.883
 8448SOL    HW226945   4.526   6.932   5.933
 8449SOL     OW26946   5.110   5.613   5.779
 8449SOL    HW126947   5.160   5.541   5.732
 8449SOL    HW226948   5.013   5.588   5.784
 8450SOL     OW26949   5.030   6.074   6.244
 8450SOL    HW126950   4.981   6.161   6.235
 8450SOL    HW226951   5.011   6.035   6.334
 8451SOL     OW26952   5.320   5.795   6.474
 8451SOL    HW126953   5.258   5.819   6.549
 8451SOL    HW226954   5.320   5.868   6.406
 8452SOL     OW26955   3.769   6.620   5.876
 8452SOL    HW126956   3.869   6.627   5.874
 8452SOL    HW226957   3.742   6.525   5.864
 8453SOL     OW26958   5.813   0.679   0.124
 8453SOL    HW126959   5.721   0.639   0.117
 8453SOL    HW226960   5.858   0.675   0.035
 8454SOL     OW26961   5.790   0.312   1.038
 8454SOL    HW126962   5.840   0.270   1.114
 8454SOL    HW226963   5.713   0.255   1.013
 8455SOL     OW26964   5.618   0.427   0.647
 8455SOL    HW126965   5.542   0.462   0.702
 8455SOL    HW226966   5.584   0.363   0.579
 8456SOL     OW26967   6.107   1.296   1.216
 8456SOL    HW126968   6.037   1.311   1.146
 8456SOL    HW226969   6.129   1.382   1.261
 8457SOL     OW26970   0.062   1.553   0.765
 8457SOL    HW126971   0.105   1.463   0.762
 8457SOL    HW226972   0.030   1.578   0.674
 8458SOL     OW26973   6.712   0.804   0.663
 8458SOL    HW126974   6.786   0.871   0.663
 8458SOL    HW226975   6.691   0.778   0.758
 8459SOL     OW26976   6.284   1.116   1.090
 8459SOL    HW126977   6.214   1.155   1.150
 8459SOL    HW226978   6.333   1.190   1.043
 8460SOL     OW26979   6.446   0.725   1.860
 8460SOL    HW126980   6.446   0.787   1.938
 8460SOL    HW226981   6.454   0.777   1.775
 8461SOL     OW26982   6.284   0.950   0.680
 8461SOL    HW126983   6.354   0.962   0.750
 8461SOL    HW226984   6.214   1.021   0.691
 8462SOL     OW26985   6.240   1.151   1.849
 8462SOL    HW126986   6.296   1.227   1.880
 8462SOL    HW226987   6.166   1.185   1.791
 8463SOL     OW26988   5.924   1.428   1.040
 8463SOL    HW126989   5.850   1.387   0.987
 8463SOL    HW226990   5.977   1.489   0.982
 8464SOL     OW26991   6.077   0.324   1.429
 8464SOL    HW126992   6.156   0.287   1.477
 8464SOL    HW226993   5.993   0.288   1.470
 8465SOL     OW26994   5.838   1.687   0.489
 8465SOL    HW126995   5.847   1.765   0.551
 8465SOL    HW226996   5.928   1.663   0.453
 8466SOL     OW26997   5.750   1.423   0.447
 8466SOL    HW126998   5.775   1.513   0.483
 8466SOL    HW226999   5.744   1.357   0.522
 8467SOL     OW27000   5.870   1.106   0.850
 8467SOL    HW127001   5.878   1.013   0.887
 8467SOL    HW227002   5.810   1.160   0.909
 8468SOL     OW27003   6.144   1.752   1.494
 8468SOL    HW127004   6.054   1.763   1.536
 8468SOL    HW227005   6.179   1.841   1.466
 8469SOL     OW27006   6.163   0.952   0.227
 8469SOL    HW127007   6.213   0.977   0.144
 8469SOL    HW227008   6.203   1.000   0.305
 8470SOL     OW27009   5.719   0.681   0.554
 8470SOL    HW127010   5.697   0.588   0.584
 8470SOL    HW227011   5.709   0.744   0.631
 8471SOL     OW27012   5.567   1.614   0.120
 8471SOL    HW127013   5.487   1.554   0.118
 8471SOL    HW227014   5.588   1.639   0.214
 8472SOL     OW27015   5.670   0.771   1.576
 8472SOL    HW127016   5.716   0.845   1.625
 8472SOL    HW227017   5.589   0.808   1.529
 8473SOL     OW27018   6.194   1.382   0.783
 8473SOL    HW127019   6.156   1.291   0.766
 8473SOL    HW227020   6.215   1.426   0.696
 8474SOL     OW27021   6.441   0.046   0.555
 8474SOL    HW127022   6.497   0.123   0.524
 8474SOL    HW227023   6.344   0.069   0.545
 8475SOL     OW27024   5.763   0.912   1.279
 8475SOL    HW127025   5.857   0.880   1.279
 8475SOL    HW227026   5.708   0.854   1.218
 8476SOL     OW27027   5.929   0.284   1.824
 8476SOL    HW127028   5.984   0.348   1.876
 8476SOL    HW227029   5.833   0.296   1.847
 8477SOL     OW27030   6.197   0.687   0.295
 8477SOL    HW127031   6.199   0.783   0.266
 8477SOL    HW227032   6.132   0.677   0.370
 8478SOL     OW27033   6.856   0.363   0.888
 8478SOL    HW127034   6.756   0.354   0.895
 8478SOL    HW227035   6.900   0.304   0.955
 8479SOL     OW27036   6.344   0.563   1.489
 8479SOL    HW127037   6.316   0.520   1.574
 8479SOL    HW227038   6.338   0.497   1.414
 8480SOL     OW27039   6.996   0.540   1.751
 8480SOL    HW127040   6.948   0.618   1.790
 8480SOL    HW227041   0.093   0.563   1.739
 8481SOL     OW27042   6.496   0.854   1.611
 8481SOL    HW127043   6.550   0.782   1.567
 8481SOL    HW227044   6.450   0.908   1.541
 8482SOL     OW27045   6.645   0.383   1.204
 8482SOL    HW127046   6.555   0.404   1.243
 8482SOL    HW227047   6.636   0.358   1.108
 8483SOL     OW27048   6.665   0.737   0.405
 8483SOL    HW127049   6.685   0.762   0.499
 8483SOL    HW227050   6.584   0.678   0.403
 8484SOL     OW27051   5.681   0.854   0.774
 8484SOL    HW127052   5.772   0.842   0.814
 8484SOL    HW227053   5.630   0.922   0.827
 8485SOL     OW27054   5.667   1.918   1.585
 8485SOL    HW127055   5.662   1.898   1.683
 8485SOL    HW227056   5.574   1.923   1.548
 8486SOL     OW27057   6.461   0.341   0.232
 8486SOL    HW127058   6.430   0.411   0.168
 8486SOL    HW227059   6.452   0.251   0.190
 8487SOL     OW27060   0.011   1.202   0.533
 8487SOL    HW127061   0.039   1.148   0.453
 8487SOL    HW227062   6.945   1.271   0.504
 8488SOL     OW27063   6.086   0.231   0.942
 8488SOL    HW127064   6.135   0.227   1.028
 8488SOL    HW227065   6.098   0.321   0.900
 8489SOL     OW27066   6.586   1.474   0.441
 8489SOL    HW127067   6.554   1.548   0.381
 8489SOL    HW227068   6.567   1.498   0.536
 8490SOL     OW27069   5.934   1.834   0.908
 8490SOL    HW127070   5.992   1.752   0.912
 8490SOL    HW227071   5.989   1.915   0.926
 8491SOL     OW27072   5.894   0.911   0.263
 8491SOL    HW127073   5.992   0.923   0.245
 8491SOL    HW227074   5.863   0.824   0.224
 8492SOL     OW27075   6.034   1.305   1.725
 8492SOL    HW127076   6.009   1.317   1.629
 8492SOL    HW227077   5.952   1.282   1.778
 8493SOL     OW27078   6.698   1.789   0.230
 8493SOL    HW127079   6.612   1.755   0.269
 8493SOL    HW227080   6.722   1.734   0.150
 8494SOL     OW27081   5.852   0.229   1.559
 8494SOL    HW127082   5.766   0.271   1.530
 8494SOL    HW227083   5.874   0.260   1.652
 8495SOL     OW27084   0.366   1.314   0.001
 8495SOL    HW127085   0.347   1.373   6.923
 8495SOL    HW227086   0.312   1.230   6.994
 8496SOL     OW27087   6.101   1.671   0.397
 8496SOL    HW127088   6.116   1.765   0.427
 8496SOL    HW227089   6.157   1.653   0.316
 8497SOL     OW27090   5.790   1.805   1.217
 8497SOL    HW127091   5.840   1.725   1.252
 8497SOL    HW227092   5.757   1.786   1.124
 8498SOL     OW27093   5.997   0.655   0.482
 8498SOL    HW127094   5.996   0.555   0.492
 8498SOL    HW227095   5.904   0.690   0.495
 8499SOL     OW27096   6.171   0.128   0.046
 8499SOL    HW127097   6.268   0.116   0.068
 8499SOL    HW227098   6.162   0.168   6.955
 8500SOL     OW27099   6.388   0.240   1.823
 8500SOL    HW127100   6.471   0.190   1.800
 8500SOL    HW227101   6.321   0.178   1.864
 8501SOL     OW27102   6.415   1.443   1.244
 8501SOL    HW127103   6.408   1.412   1.149
 8501SOL    HW227104   6.400   1.365   1.305
 8502SOL     OW27105   6.384   1.346   0.982
 8502SOL    HW127106   6.471   1.359   0.934
 8502SOL    HW227107   6.309   1.365   0.919
 8503SOL     OW27108   6.499   0.554   0.888
 8503SOL    HW127109   6.488   0.539   0.789
 8503SOL    HW227110   6.530   0.470   0.931
 8504SOL     OW27111   6.180   0.106   0.494
 8504SOL    HW127112   6.096   0.081   0.542
 8504SOL    HW227113   6.157   0.158   0.412
 8505SOL     OW27114   5.862   0.079   0.328
 8505SOL    HW127115   5.935   0.139   0.294
 8505SOL    HW227116   5.877   0.061   0.425
 8506SOL     OW27117   6.591   0.259   0.458
 8506SOL    HW127118   6.540   0.285   0.376
 8506SOL    HW227119   6.686   0.286   0.449
 8507SOL     OW27120   6.602   0.644   1.470
 8507SOL    HW127121   6.510   0.608   1.476
 8507SOL    HW227122   6.664   0.587   1.524
 8508SOL     OW27123   6.813   1.547   0.886
 8508SOL    HW127124   6.895   1.566   0.832
 8508SOL    HW227125   6.838   1.495   0.968
 8509SOL     OW27126   6.090   1.143   0.695
 8509SOL    HW127127   6.009   1.128   0.752
 8509SOL    HW227128   6.063   1.147   0.599
 8510SOL     OW27129   6.781   1.802   0.512
 8510SOL    HW127130   6.739   1.812   0.422
 8510SOL    HW227131   6.712   1.819   0.583
 8511SOL     OW27132   6.634   0.603   0.024
 8511SOL    HW127133   6.538   0.591   0.050
 8511SOL    HW227134   6.691   0.593   0.106
 8512SOL     OW27135   5.709   0.567   1.392
 8512SOL    HW127136   5.806   0.556   1.367
 8512SOL    HW227137   5.701   0.641   1.459
 8513SOL     OW27138   6.199   0.216   1.196
 8513SOL    HW127139   6.217   0.119   1.211
 8513SOL    HW227140   6.131   0.248   1.263
 8514SOL     OW27141   6.497   0.454   0.634
 8514SOL    HW127142   6.462   0.518   0.566
 8514SOL    HW227143   6.532   0.373   0.588
 8515SOL     OW27144   6.562   6.972   0.802
 8515SOL    HW127145   6.512   6.993   0.718
 8515SOL    HW227146   6.598   6.878   0.796
 8516SOL     OW27147   6.020   1.501   0.115
 8516SOL    HW127148   5.977   1.428   0.166
 8516SOL    HW227149   5.989   1.498   0.020
 8517SOL     OW27150   6.072   0.249   0.270
 8517SOL    HW127151   6.111   0.199   0.193
 8517SOL    HW227152   6.052   0.343   0.242
 8518SOL     OW27153   6.774   1.141   1.059
 8518SOL    HW127154   6.703   1.094   1.111
 8518SOL    HW227155   6.752   1.139   0.962
 8519SOL     OW27156   6.491   0.156   1.370
 8519SOL    HW127157   6.509   0.137   1.273
 8519SOL    HW227158   6.575   0.189   1.413
 8520SOL     OW27159   6.495   1.036   1.809
 8520SOL    HW127160   6.405   1.077   1.822
 8520SOL    HW227161   6.494   0.978   1.727
 8521SOL     OW27162   6.331   1.050   0.425
 8521SOL    HW127163   6.320   1.008   0.515
 8521SOL    HW227164   6.398   0.998   0.372
 8522SOL     OW27165   6.015   0.797   1.287
 8522SOL    HW127166   6.074   0.811   1.366
 8522SOL    HW227167   5.992   0.700   1.280
 8523SOL     OW27168   6.894   0.329   1.307
 8523SOL    HW127169   6.947   0.408   1.336
 8523SOL    HW227170   6.806   0.359   1.270
 8524SOL     OW27171   5.628   1.540   1.340
 8524SOL    HW127172   5.577   1.606   1.285
 8524SOL    HW227173   5.726   1.555   1.329
 8525SOL     OW27174   6.002   1.138   0.436
 8525SOL    HW127175   5.976   1.211   0.374
 8525SOL    HW227176   5.974   1.050   0.398
 8526SOL     OW27177   6.123   0.515   0.897
 8526SOL    HW127178   6.137   0.570   0.815
 8526SOL    HW227179   6.190   0.540   0.966
 8527SOL     OW27180   6.851   1.399   0.430
 8527SOL    HW127181   6.900   1.481   0.458
 8527SOL    HW227182   6.752   1.417   0.432
 8528SOL     OW27183   6.888   1.386   1.087
 8528SOL    HW127184   6.896   1.413   1.183
 8528SOL    HW227185   6.843   1.297   1.081
 8529SOL     OW27186   5.899   1.552   1.281
 8529SOL    HW127187   5.898   1.504   1.193
 8529SOL    HW227188   5.994   1.561   1.312
 8530SOL     OW27189   6.059   0.660   1.699
 8530SOL    HW127190   6.095   0.712   1.622
 8530SOL    HW227191   6.129   0.595   1.730
 8531SOL     OW27192   6.612   0.100   1.727
 8531SOL    HW127193   6.650   0.152   1.650
 8531SOL    HW227194   6.607   0.003   1.702
 8532SOL     OW27195   5.996   0.023   1.763
 8532SOL    HW127196   5.913   6.970   1.777
 8532SOL    HW227197   5.977   0.120   1.778
 8533SOL     OW27198   6.162   0.867   1.063
 8533SOL    HW127199   6.202   0.958   1.068
 8533SOL    HW227200   6.106   0.851   1.145
 8534SOL     OW27201   6.906   0.774   0.965
 8534SOL    HW127202   6.806   0.771   0.972
 8534SOL    HW227203   6.946   0.705   1.025
 8535SOL     OW27204   6.804   0.562   0.243
 8535SOL    HW127205   6.819   0.480   0.298
 8535SOL    HW227206   6.765   0.634   0.301
 8536SOL     OW27207   5.900   0.157   1.235
 8536SOL    HW127208   5.902   0.112   1.324
 8536SOL    HW227209   5.929   0.093   1.164
 8537SOL     OW27210   5.660   1.284   1.239
 8537SOL    HW127211   5.681   1.220   1.312
 8537SOL    HW227212   5.637   1.373   1.278
 8538SOL     OW27213   6.311   0.636   1.070
 8538SOL    HW127214   6.374   0.622   0.994
 8538SOL    HW227215   6.260   0.721   1.057
 8539SOL     OW27216   5.920   0.055   0.595
 8539SOL    HW127217   5.892   0.132   0.652
 8539SOL    HW227218   5.876   6.971   0.627
 8540SOL     OW27219   0.221   0.435   0.378
 8540SOL    HW127220   0.302   0.401   0.426
 8540SOL    HW227221   0.177   0.506   0.433
 8541SOL     OW27222   6.626   0.775   0.977
 8541SOL    HW127223   6.603   0.781   1.074
 8541SOL    HW227224   6.586   0.693   0.938
 8542SOL     OW27225   5.960   0.885   1.827
 8542SOL    HW127226   6.025   0.916   1.897
 8542SOL    HW227227   5.996   0.803   1.783
 8543SOL     OW27228   6.849   0.844   0.008
 8543SOL    HW127229   6.894   0.756   6.992
 8543SOL    HW227230   6.869   0.906   6.932
 8544SOL     OW27231   6.606   1.380   0.832
 8544SOL    HW127232   6.644   1.291   0.811
 8544SOL    HW227233   6.681   1.445   0.849
 8545SOL     OW27234   5.914   0.835   0.927
 8545SOL    HW127235   6.009   0.852   0.952
 8545SOL    HW227236   5.889   0.741   0.953
 8546SOL     OW27237   5.875   0.564   0.999
 8546SOL    HW127238   5.830   0.475   1.007
 8546SOL    HW227239   5.963   0.552   0.953
 8547SOL     OW27240   6.741   0.484   1.656
 8547SOL    HW127241   6.694   0.497   1.743
 8547SOL    HW227242   6.839   0.497   1.669
 8548SOL     OW27243   6.709   0.252   1.515
 8548SOL    HW127244   6.713   0.336   1.568
 8548SOL    HW227245   6.781   0.253   1.445
 8549SOL     OW27246   5.677   1.756   0.964
 8549SOL    HW127247   5.650   1.671   0.918
 8549SOL    HW227248   5.768   1.784   0.932
 8550SOL     OW27249   6.099   1.611   0.903
 8550SOL    HW127250   6.168   1.684   0.898
 8550SOL    HW227251   6.135   1.529   0.859
 8551SOL     OW27252   6.520   0.772   1.230
 8551SOL    HW127253   6.564   0.732   1.311
 8551SOL    HW227254   6.440   0.717   1.206
 8552SOL     OW27255   5.652   0.668   1.142
 8552SOL    HW127256   5.727   0.640   1.081
 8552SOL    HW227257   5.667   0.629   1.233
 8553SOL     OW27258   5.792   0.594   1.759
 8553SOL    HW127259   5.888   0.605   1.735
 8553SOL    HW227260   5.736   0.647   1.696
 8554SOL     OW27261   6.440   0.579   0.391
 8554SOL    HW127262   6.447   0.493   0.341
 8554SOL    HW227263   6.356   0.626   0.366
 8555SOL     OW27264   5.776   1.534   1.742
 8555SOL    HW127265   5.725   1.565   1.822
 8555SOL    HW227266   5.803   1.439   1.755
 8556SOL     OW27267   6.367   0.431   1.246
 8556SOL    HW127268   6.316   0.347   1.228
 8556SOL    HW227269   6.339   0.502   1.183
 8557SOL     OW27270   6.027   0.504   0.178
 8557SOL    HW127271   6.096   0.563   0.219
 8557SOL    HW227272   5.939   0.552   0.174
 8558SOL     OW27273   5.721   1.112   1.458
 8558SOL    HW127274   5.735   1.076   1.551
 8558SOL    HW227275   5.735   1.039   1.392
 8559SOL     OW27276   0.012   0.992   1.098
 8559SOL    HW127277   6.984   0.911   1.046
 8559SOL    HW227278   6.943   1.064   1.089
 8560SOL     OW27279   6.866   0.902   0.277
 8560SOL    HW127280   6.799   0.850   0.329
 8560SOL    HW227281   6.857   0.882   0.180
 8561SOL     OW27282   5.680   1.275   0.969
 8561SOL    HW127283   5.672   1.281   1.068
 8561SOL    HW227284   5.618   1.204   0.934
 8562SOL     OW27285   6.256   1.736   1.773
 8562SOL    HW127286   6.193   1.813   1.759
 8562SOL    HW227287   6.257   1.679   1.691
 8563SOL     OW27288   6.434   0.085   0.128
 8563SOL    HW127289   6.484   0.044   0.052
 8563SOL    HW227290   6.424   0.018   0.201
 8564SOL     OW27291   6.983   1.625   0.515
 8564SOL    HW127292   0.066   1.673   0.484
 8564SOL    HW227293   6.907   1.690   0.519
 8565SOL     OW27294   5.666   1.848   1.845
 8565SOL    HW127295   5.633   1.757   1.871
 8565SOL    HW227296   5.737   1.877   1.909
 8566SOL     OW27297   6.909   0.993   0.678
 8566SOL    HW127298   6.983   0.930   0.704
 8566SOL    HW227299   6.946   1.070   0.627
 8567SOL     OW27300   6.311   1.253   1.423
 8567SOL    HW127301   6.311   1.309   1.506
 8567SOL    HW227302   6.221   1.259   1.379
 8568SOL     OW27303   6.265   1.607   0.178
 8568SOL    HW127304   6.338   1.583   0.114
 8568SOL    HW227305   6.181   1.558   0.152
 8569SOL     OW27306   5.839   0.279   0.732
 8569SOL    HW127307   5.761   0.337   0.710
 8569SOL    HW227308   5.859   0.286   0.830
 8570SOL     OW27309   6.750   1.611   0.020
 8570SOL    HW127310   6.833   1.583   0.066
 8570SOL    HW227311   6.762   1.602   6.921
 8571SOL     OW27312   6.372   0.987   1.409
 8571SOL    HW127313   6.412   0.965   1.320
 8571SOL    HW227314   6.355   1.085   1.415
 8572SOL     OW27315   6.499   0.912   0.268
 8572SOL    HW127316   6.532   0.934   0.176
 8572SOL    HW227317   6.566   0.853   0.314
 8573SOL     OW27318   5.917   1.324   1.481
 8573SOL    HW127319   5.906   1.396   1.412
 8573SOL    HW227320   5.853   1.250   1.463
 8574SOL     OW27321   6.695   1.123   0.799
 8574SOL    HW127322   6.611   1.069   0.798
 8574SOL    HW227323   6.766   1.075   0.747
 8575SOL     OW27324   6.584   0.295   0.942
 8575SOL    HW127325   6.547   0.283   0.851
 8575SOL    HW227326   6.571   0.211   0.995
 8576SOL     OW27327   6.252   1.491   0.543
 8576SOL    HW127328   6.282   1.424   0.475
 8576SOL    HW227329   6.188   1.555   0.501
 8577SOL     OW27330   5.879   1.305   0.243
 8577SOL    HW127331   5.820   1.240   0.195
 8577SOL    HW227332   5.826   1.352   0.313
 8578SOL     OW27333   5.739   1.003   1.721
 8578SOL    HW127334   5.658   0.989   1.777
 8578SOL    HW227335   5.819   0.964   1.766
 8579SOL     OW27336   6.296   0.209   1.549
 8579SOL    HW127337   6.366   0.192   1.480
 8579SOL    HW227338   6.339   0.238   1.635
 8580SOL     OW27339   5.637   0.316   0.015
 8580SOL    HW127340   5.572   0.283   6.947
 8580SOL    HW227341   5.615   0.410   0.040
 8581SOL     OW27342   5.618   0.168   0.246
 8581SOL    HW127343   5.634   0.225   0.166
 8581SOL    HW227344   5.704   0.125   0.274
 8582SOL     OW27345   6.194   0.792   1.493
 8582SOL    HW127346   6.250   0.873   1.474
 8582SOL    HW227347   6.252   0.711   1.489
 8583SOL     OW27348   6.292   0.506   1.758
 8583SOL    HW127349   6.344   0.578   1.804
 8583SOL    HW227350   6.323   0.417   1.793
 8584SOL     OW27351   0.063   1.283   1.733
 8584SOL    HW127352   0.016   1.217   1.791
 8584SOL    HW227353   0.087   1.241   1.646
 8585SOL     OW27354   5.900   1.768   1.628
 8585SOL    HW127355   5.820   1.820   1.598
 8585SOL    HW227356   5.871   1.681   1.667
 8586SOL     OW27357   6.848   0.347   0.419
 8586SOL    HW127358   6.916   0.300   0.362
 8586SOL    HW227359   6.889   0.367   0.508
 8587SOL     OW27360   6.166   0.698   0.699
 8587SOL    HW127361   6.213   0.786   0.692
 8587SOL    HW227362   6.106   0.686   0.620
 8588SOL     OW27363   6.321   1.293   0.085
 8588SOL    HW127364   6.319   1.299   0.185
 8588SOL    HW227365   6.378   1.367   0.049
 8589SOL     OW27366   6.258   1.836   0.885
 8589SOL    HW127367   6.207   1.922   0.886
 8589SOL    HW227368   6.353   1.853   0.911
 8590SOL     OW27369   6.463   0.984   0.890
 8590SOL    HW127370   6.519   0.908   0.922
 8590SOL    HW227371   6.404   1.016   0.964
 8591SOL     OW27372   6.596   0.967   0.012
 8591SOL    HW127373   6.630   1.060   0.003
 8591SOL    HW227374   6.674   0.904   0.016
 8592SOL     OW27375   5.784   1.260   1.819
 8592SOL    HW127376   5.766   1.173   1.774
 8592SOL    HW227377   5.727   1.268   1.901
 8593SOL     OW27378   5.731   1.212   0.628
 8593SOL    HW127379   5.785   1.178   0.705
 8593SOL    HW227380   5.723   1.140   0.559
 8594SOL     OW27381   6.286   1.404   1.656
 8594SOL    HW127382   6.191   1.385   1.677
 8594SOL    HW227383   6.340   1.402   1.740
 8595SOL     OW27384   5.983   0.389   0.513
 8595SOL    HW127385   6.014   0.322   0.446
 8595SOL    HW227386   5.944   0.342   0.592
 8596SOL     OW27387   5.960   0.529   1.287
 8596SOL    HW127388   6.009   0.458   1.337
 8596SOL    HW227389   5.951   0.502   1.191
 8597SOL     OW27390   6.483   1.568   0.679
 8597SOL    HW127391   6.393   1.544   0.643
 8597SOL    HW227392   6.513   1.497   0.742
 8598SOL     OW27393   6.950   0.171   1.072
 8598SOL    HW127394   6.982   0.079   1.092
 8598SOL    HW227395   6.924   0.216   1.158
 8599SOL     OW27396   6.553   0.055   1.069
 8599SOL    HW127397   6.542   0.017   0.977
 8599SOL    HW227398   6.570   6.981   1.134
 8600SOL     OW27399   6.361   1.314   0.362
 8600SOL    HW127400   6.349   1.218   0.390
 8600SOL    HW227401   6.454   1.343   0.384
 8601SOL     OW27402   6.170   1.535   1.336
 8601SOL    HW127403   6.168   1.610   1.402
 8601SOL    HW227404   6.263   1.522   1.303
 8602SOL     OW27405   5.700   1.008   0.447
 8602SOL    HW127406   5.776   0.976   0.391
 8602SOL    HW227407   5.621   0.948   0.433
 8603SOL     OW27408   6.466   1.704   0.337
 8603SOL    HW127409   6.388   1.669   0.285
 8603SOL    HW227410   6.433   1.769   0.406
 8604SOL     OW27411   5.791   0.652   2.031
 8604SOL    HW127412   5.701   0.620   2.060
 8604SOL    HW227413   5.797   0.651   1.931
 8605SOL     OW27414   5.795   0.313   2.901
 8605SOL    HW127415   5.842   0.269   2.978
 8605SOL    HW227416   5.718   0.256   2.873
 8606SOL     OW27417   5.628   0.435   2.523
 8606SOL    HW127418   5.544   0.460   2.572
 8606SOL    HW227419   5.607   0.372   2.449
 8607SOL     OW27420   6.139   1.330   3.089
 8607SOL    HW127421   6.054   1.328   3.036
 8607SOL    HW227422   6.162   1.425   3.111
 8608SOL     OW27423   0.047   1.531   2.639
 8608SOL    HW127424   0.099   1.446   2.631
 8608SOL    HW227425   0.030   1.568   2.548
 8609SOL     OW27426   6.673   0.804   2.549
 8609SOL    HW127427   6.749   0.868   2.535
 8609SOL    HW227428   6.654   0.796   2.647
 8610SOL     OW27429   6.290   1.151   2.925
 8610SOL    HW127430   6.234   1.190   2.998
 8610SOL    HW227431   6.335   1.225   2.875
 8611SOL     OW27432   6.461   0.756   3.723
 8611SOL    HW127433   6.467   0.813   3.805
 8611SOL    HW227434   6.469   0.813   3.641
 8612SOL     OW27435   6.302   0.961   2.506
 8612SOL    HW127436   6.369   0.970   2.579
 8612SOL    HW227437   6.226   1.024   2.522
 8613SOL     OW27438   6.164   1.103   3.711
 8613SOL    HW127439   6.252   1.143   3.733
 8613SOL    HW227440   6.109   1.169   3.659
 8614SOL     OW27441   5.911   1.402   2.937
 8614SOL    HW127442   5.839   1.344   2.900
 8614SOL    HW227443   5.960   1.446   2.862
 8615SOL     OW27444   6.069   0.330   3.292
 8615SOL    HW127445   6.149   0.295   3.341
 8615SOL    HW227446   5.986   0.292   3.333
 8616SOL     OW27447   5.823   1.740   2.326
 8616SOL    HW127448   5.837   1.808   2.398
 8616SOL    HW227449   5.895   1.749   2.257
 8617SOL     OW27450   6.728   1.372   3.535
 8617SOL    HW127451   6.813   1.332   3.502
 8617SOL    HW227452   6.664   1.299   3.561
 8618SOL     OW27453   5.892   1.475   2.357
 8618SOL    HW127454   5.856   1.568   2.360
 8618SOL    HW227455   5.851   1.421   2.430
 8619SOL     OW27456   5.902   1.103   2.733
 8619SOL    HW127457   5.912   1.007   2.757
 8619SOL    HW227458   5.837   1.146   2.796
 8620SOL     OW27459   6.152   1.844   3.270
 8620SOL    HW127460   6.079   1.818   3.332
 8620SOL    HW227461   6.210   1.913   3.313
 8621SOL     OW27462   6.140   0.972   2.036
 8621SOL    HW127463   6.173   1.031   1.962
 8621SOL    HW227464   6.191   0.994   2.120
 8622SOL     OW27465   5.722   0.687   2.445
 8622SOL    HW127466   5.702   0.594   2.474
 8622SOL    HW227467   5.717   0.748   2.524
 8623SOL     OW27468   5.606   1.596   1.947
 8623SOL    HW127469   5.537   1.524   1.945
 8623SOL    HW227470   5.607   1.640   2.037
 8624SOL     OW27471   5.678   0.789   3.432
 8624SOL    HW127472   5.727   0.860   3.482
 8624SOL    HW227473   5.595   0.828   3.392
 8625SOL     OW27474   6.216   1.381   2.573
 8625SOL    HW127475   6.182   1.287   2.574
 8625SOL    HW227476   6.200   1.421   2.483
 8626SOL     OW27477   6.755   1.159   3.278
 8626SOL    HW127478   6.794   1.113   3.198
 8626SOL    HW227479   6.825   1.169   3.348
 8627SOL     OW27480   6.467   0.092   2.449
 8627SOL    HW127481   6.513   0.162   2.394
 8627SOL    HW227482   6.374   0.077   2.414
 8628SOL     OW27483   5.783   0.943   3.151
 8628SOL    HW127484   5.876   0.906   3.151
 8628SOL    HW227485   5.728   0.894   3.083
 8629SOL     OW27486   6.828   1.866   3.468
 8629SOL    HW127487   6.793   1.930   3.400
 8629SOL    HW227488   6.818   1.772   3.435
 8630SOL     OW27489   5.901   0.289   3.693
 8630SOL    HW127490   5.958   0.357   3.739
 8630SOL    HW227491   5.808   0.294   3.730
 8631SOL     OW27492   6.159   0.693   2.130
 8631SOL    HW127493   6.161   0.785   2.090
 8631SOL    HW227494   6.095   0.691   2.206
 8632SOL     OW27495   6.864   0.372   2.764
 8632SOL    HW127496   6.765   0.363   2.764
 8632SOL    HW227497   6.905   0.298   2.818
 8633SOL     OW27498   6.361   0.586   3.343
 8633SOL    HW127499   6.333   0.544   3.429
 8633SOL    HW227500   6.355   0.519   3.269
 8634SOL     OW27501   6.989   0.558   3.617
 8634SOL    HW127502   6.949   0.645   3.646
 8634SOL    HW227503   0.088   0.561   3.625
 8635SOL     OW27504   6.519   0.907   3.495
 8635SOL    HW127505   6.573   0.833   3.455
 8635SOL    HW227506   6.467   0.953   3.423
 8636SOL     OW27507   6.653   0.394   3.067
 8636SOL    HW127508   6.563   0.416   3.105
 8636SOL    HW227509   6.645   0.373   2.970
 8637SOL     OW27510   6.594   0.719   2.301
 8637SOL    HW127511   6.613   0.745   2.396
 8637SOL    HW227512   6.512   0.663   2.297
 8638SOL     OW27513   5.691   0.859   2.657
 8638SOL    HW127514   5.781   0.848   2.701
 8638SOL    HW227515   5.635   0.922   2.711
 8639SOL     OW27516   5.712   1.913   3.436
 8639SOL    HW127517   5.704   1.873   3.528
 8639SOL    HW227518   5.623   1.907   3.390
 8640SOL     OW27519   6.487   0.374   2.056
 8640SOL    HW127520   6.553   0.431   2.008
 8640SOL    HW227521   6.439   0.316   1.990
 8641SOL     OW27522   6.985   1.201   2.394
 8641SOL    HW127523   0.017   1.150   2.314
 8641SOL    HW227524   6.921   1.272   2.365
 8642SOL     OW27525   6.093   0.240   2.809
 8642SOL    HW127526   6.140   0.240   2.898
 8642SOL    HW227527   6.108   0.327   2.763
 8643SOL     OW27528   6.573   1.486   2.317
 8643SOL    HW127529   6.540   1.557   2.255
 8643SOL    HW227530   6.536   1.502   2.408
 8644SOL     OW27531   5.943   1.786   2.749
 8644SOL    HW127532   5.978   1.693   2.745
 8644SOL    HW227533   6.016   1.849   2.775
 8645SOL     OW27534   6.815   1.608   3.377
 8645SOL    HW127535   6.778   1.528   3.423
 8645SOL    HW227536   6.813   1.594   3.278
 8646SOL     OW27537   5.879   0.908   2.137
 8646SOL    HW127538   5.966   0.934   2.096
 8646SOL    HW227539   5.852   0.817   2.106
 8647SOL     OW27540   6.018   1.309   3.596
 8647SOL    HW127541   6.001   1.313   3.498
 8647SOL    HW227542   5.931   1.303   3.645
 8648SOL     OW27543   6.570   1.771   1.948
 8648SOL    HW127544   6.528   1.759   2.038
 8648SOL    HW227545   6.580   1.682   1.905
 8649SOL     OW27546   5.844   0.226   3.428
 8649SOL    HW127547   5.764   0.273   3.390
 8649SOL    HW227548   5.862   0.259   3.520
 8650SOL     OW27549   6.040   1.791   2.164
 8650SOL    HW127550   6.088   1.838   2.238
 8650SOL    HW227551   6.104   1.734   2.114
 8651SOL     OW27552   5.793   1.821   3.087
 8651SOL    HW127553   5.844   1.741   3.120
 8651SOL    HW227554   5.759   1.803   2.994
 8652SOL     OW27555   6.538   1.708   2.736
 8652SOL    HW127556   6.632   1.674   2.731
 8652SOL    HW227557   6.482   1.664   2.666
 8653SOL     OW27558   5.987   0.660   2.343
 8653SOL    HW127559   5.992   0.560   2.350
 8653SOL    HW227560   5.895   0.691   2.366
 8654SOL     OW27561   6.202   0.075   1.945
 8654SOL    HW127562   6.220   0.000   2.009
 8654SOL    HW227563   6.129   0.047   1.882
 8655SOL     OW27564   6.389   0.252   3.683
 8655SOL    HW127565   6.471   0.201   3.658
 8655SOL    HW227566   6.322   0.190   3.724
 8656SOL     OW27567   6.429   1.520   3.044
 8656SOL    HW127568   6.404   1.487   2.953
 8656SOL    HW227569   6.485   1.452   3.091
 8657SOL     OW27570   6.388   1.377   2.799
 8657SOL    HW127571   6.483   1.385   2.769
 8657SOL    HW227572   6.328   1.381   2.719
 8658SOL     OW27573   6.504   0.561   2.739
 8658SOL    HW127574   6.488   0.548   2.641
 8658SOL    HW227575   6.534   0.475   2.781
 8659SOL     OW27576   6.207   0.063   2.332
 8659SOL    HW127577   6.139   0.054   2.404
 8659SOL    HW227578   6.179   0.136   2.270
 8660SOL     OW27579   6.978   1.082   1.903
 8660SOL    HW127580   0.017   1.074   1.995
 8660SOL    HW227581   6.880   1.060   1.906
 8661SOL     OW27582   5.900   0.034   2.179
 8661SOL    HW127583   5.970   0.105   2.174
 8661SOL    HW227584   5.810   0.073   2.158
 8662SOL     OW27585   6.603   0.284   2.296
 8662SOL    HW127586   6.556   0.308   2.211
 8662SOL    HW227587   6.699   0.313   2.291
 8663SOL     OW27588   6.613   0.683   3.362
 8663SOL    HW127589   6.520   0.646   3.356
 8663SOL    HW227590   6.671   0.617   3.411
 8664SOL     OW27591   6.785   1.626   2.643
 8664SOL    HW127592   6.792   1.700   2.576
 8664SOL    HW227593   6.877   1.591   2.663
 8665SOL     OW27594   6.092   1.136   2.541
 8665SOL    HW127595   6.030   1.124   2.618
 8665SOL    HW227596   6.041   1.129   2.455
 8666SOL     OW27597   6.815   1.840   2.454
 8666SOL    HW127598   6.856   1.892   2.379
 8666SOL    HW227599   6.741   1.892   2.494
 8667SOL     OW27600   6.645   0.544   1.908
 8667SOL    HW127601   6.576   0.615   1.892
 8667SOL    HW227602   6.706   0.574   1.981
 8668SOL     OW27603   5.714   0.581   3.252
 8668SOL    HW127604   5.811   0.571   3.228
 8668SOL    HW227605   5.703   0.655   3.318
 8669SOL     OW27606   6.202   0.230   3.066
 8669SOL    HW127607   6.221   0.133   3.081
 8669SOL    HW227608   6.136   0.262   3.134
 8670SOL     OW27609   6.479   0.462   2.482
 8670SOL    HW127610   6.413   0.505   2.421
 8670SOL    HW227611   6.532   0.393   2.432
 8671SOL     OW27612   6.558   6.984   2.686
 8671SOL    HW127613   6.518   0.021   2.602
 8671SOL    HW227614   6.585   6.888   2.671
 8672SOL     OW27615   6.079   1.424   1.987
 8672SOL    HW127616   6.007   1.380   2.041
 8672SOL    HW227617   6.074   1.392   1.892
 8673SOL     OW27618   6.091   0.236   2.142
 8673SOL    HW127619   6.135   0.187   2.066
 8673SOL    HW227620   6.061   0.326   2.110
 8674SOL     OW27621   6.563   1.316   3.172
 8674SOL    HW127622   6.476   1.304   3.220
 8674SOL    HW227623   6.634   1.261   3.218
 8675SOL     OW27624   6.758   1.332   2.969
 8675SOL    HW127625   6.685   1.323   3.038
 8675SOL    HW227626   6.717   1.355   2.881
 8676SOL     OW27627   6.488   0.170   3.233
 8676SOL    HW127628   6.505   0.150   3.136
 8676SOL    HW227629   6.573   0.203   3.275
 8677SOL     OW27630   6.583   1.149   3.620
 8677SOL    HW127631   6.508   1.184   3.676
 8677SOL    HW227632   6.552   1.068   3.569
 8678SOL     OW27633   6.326   1.036   2.235
 8678SOL    HW127634   6.323   1.004   2.330
 8678SOL    HW227635   6.396   0.984   2.185
 8679SOL     OW27636   6.030   0.816   3.150
 8679SOL    HW127637   6.092   0.831   3.227
 8679SOL    HW227638   6.004   0.720   3.146
 8680SOL     OW27639   6.901   0.332   3.168
 8680SOL    HW127640   6.957   0.411   3.192
 8680SOL    HW227641   6.813   0.363   3.132
 8681SOL     OW27642   5.635   1.553   3.216
 8681SOL    HW127643   5.586   1.617   3.157
 8681SOL    HW227644   5.734   1.569   3.207
 8682SOL     OW27645   5.921   1.118   2.322
 8682SOL    HW127646   5.919   1.188   2.251
 8682SOL    HW227647   5.905   1.028   2.280
 8683SOL     OW27648   6.130   0.523   2.745
 8683SOL    HW127649   6.144   0.576   2.661
 8683SOL    HW227650   6.196   0.552   2.814
 8684SOL     OW27651   6.844   1.427   2.286
 8684SOL    HW127652   6.892   1.502   2.331
 8684SOL    HW227653   6.746   1.436   2.302
 8685SOL     OW27654   6.868   1.554   3.105
 8685SOL    HW127655   6.954   1.535   3.152
 8685SOL    HW227656   6.837   1.472   3.057
 8686SOL     OW27657   5.907   1.568   3.150
 8686SOL    HW127658   5.898   1.508   3.071
 8686SOL    HW227659   6.003   1.588   3.167
 8687SOL     OW27660   6.078   0.689   3.552
 8687SOL    HW127661   6.116   0.743   3.477
 8687SOL    HW227662   6.146   0.624   3.585
 8688SOL     OW27663   6.611   0.108   3.586
 8688SOL    HW127664   6.649   0.161   3.510
 8688SOL    HW227665   6.599   0.013   3.558
 8689SOL     OW27666   5.994   0.033   3.640
 8689SOL    HW127667   5.915   6.973   3.654
 8689SOL    HW227668   5.967   0.128   3.652
 8690SOL     OW27669   6.177   0.888   2.924
 8690SOL    HW127670   6.214   0.981   2.923
 8690SOL    HW227671   6.125   0.875   3.009
 8691SOL     OW27672   6.903   0.845   2.857
 8691SOL    HW127673   6.807   0.816   2.854
 8691SOL    HW227674   6.953   0.785   2.920
 8692SOL     OW27675   6.780   0.604   2.143
 8692SOL    HW127676   6.816   0.521   2.186
 8692SOL    HW227677   6.710   0.644   2.201
 8693SOL     OW27678   5.898   0.153   3.096
 8693SOL    HW127679   5.904   0.105   3.184
 8693SOL    HW227680   5.934   0.094   3.023
 8694SOL     OW27681   5.621   1.295   3.124
 8694SOL    HW127682   5.655   1.232   3.194
 8694SOL    HW227683   5.623   1.388   3.159
 8695SOL     OW27684   6.311   0.643   2.920
 8695SOL    HW127685   6.379   0.631   2.847
 8695SOL    HW227686   6.270   0.733   2.913
 8696SOL     OW27687   5.987   0.074   2.506
 8696SOL    HW127688   5.954   0.158   2.549
 8696SOL    HW227689   5.918   0.003   2.513
 8697SOL     OW27690   0.162   0.544   2.169
 8697SOL    HW127691   0.125   0.452   2.161
 8697SOL    HW227692   0.142   0.580   2.260
 8698SOL     OW27693   6.621   0.787   2.835
 8698SOL    HW127694   6.602   0.793   2.933
 8698SOL    HW227695   6.585   0.701   2.799
 8699SOL     OW27696   6.536   1.611   3.515
 8699SOL    HW127697   6.525   1.645   3.422
 8699SOL    HW227698   6.575   1.519   3.513
 8700SOL     OW27699   5.959   0.922   3.654
 8700SOL    HW127700   6.035   0.982   3.678
 8700SOL    HW227701   5.994   0.831   3.629
 8701SOL     OW27702   6.922   0.785   1.848
 8701SOL    HW127703   6.992   0.776   1.919
 8701SOL    HW227704   6.953   0.851   1.779
 8702SOL     OW27705   6.649   1.394   2.723
 8702SOL    HW127706   6.664   1.309   2.672
 8702SOL    HW227707   6.698   1.469   2.678
 8703SOL     OW27708   5.929   0.832   2.802
 8703SOL    HW127709   6.024   0.852   2.827
 8703SOL    HW227710   5.907   0.738   2.825
 8704SOL     OW27711   5.891   0.560   2.868
 8704SOL    HW127712   5.845   0.472   2.876
 8704SOL    HW227713   5.975   0.550   2.815
 8705SOL     OW27714   6.738   0.492   3.527
 8705SOL    HW127715   6.689   0.504   3.613
 8705SOL    HW227716   6.836   0.508   3.541
 8706SOL     OW27717   6.709   0.263   3.377
 8706SOL    HW127718   6.712   0.348   3.430
 8706SOL    HW227719   6.783   0.265   3.309
 8707SOL     OW27720   5.623   1.263   2.042
 8707SOL    HW127721   5.536   1.310   2.025
 8707SOL    HW227722   5.605   1.173   2.081
 8708SOL     OW27723   5.683   1.768   2.834
 8708SOL    HW127724   5.635   1.697   2.783
 8708SOL    HW227725   5.776   1.778   2.798
 8709SOL     OW27726   6.068   1.537   2.753
 8709SOL    HW127727   6.142   1.592   2.792
 8709SOL    HW227728   6.105   1.476   2.683
 8710SOL     OW27729   6.541   0.771   3.097
 8710SOL    HW127730   6.588   0.751   3.183
 8710SOL    HW227731   6.457   0.717   3.092
 8711SOL     OW27732   5.645   0.646   2.993
 8711SOL    HW127733   5.724   0.625   2.936
 8711SOL    HW227734   5.664   0.622   3.088
 8712SOL     OW27735   5.815   0.623   3.612
 8712SOL    HW127736   5.910   0.634   3.585
 8712SOL    HW227737   5.756   0.668   3.545
 8713SOL     OW27738   6.378   0.561   2.237
 8713SOL    HW127739   6.407   0.491   2.172
 8713SOL    HW227740   6.299   0.610   2.200
 8714SOL     OW27741   5.803   1.551   3.560
 8714SOL    HW127742   5.774   1.627   3.618
 8714SOL    HW227743   5.798   1.466   3.612
 8715SOL     OW27744   6.373   0.447   3.104
 8715SOL    HW127745   6.321   0.362   3.091
 8715SOL    HW227746   6.343   0.515   3.037
 8716SOL     OW27747   6.492   1.694   3.261
 8716SOL    HW127748   6.476   1.642   3.178
 8716SOL    HW227749   6.502   1.791   3.238
 8717SOL     OW27750   6.015   0.476   2.023
 8717SOL    HW127751   6.088   0.541   2.046
 8717SOL    HW227752   5.926   0.521   2.036
 8718SOL     OW27753   5.711   1.132   3.331
 8718SOL    HW127754   5.722   1.099   3.424
 8718SOL    HW227755   5.738   1.061   3.266
 8719SOL     OW27756   6.845   1.066   3.037
 8719SOL    HW127757   6.874   1.002   2.965
 8719SOL    HW227758   6.830   1.156   2.996
 8720SOL     OW27759   6.896   0.851   2.222
 8720SOL    HW127760   6.852   0.859   2.311
 8720SOL    HW227761   6.869   0.766   2.179
 8721SOL     OW27762   6.890   1.792   2.964
 8721SOL    HW127763   6.970   1.774   2.907
 8721SOL    HW227764   6.873   1.712   3.023
 8722SOL     OW27765   5.704   1.224   2.874
 8722SOL    HW127766   5.673   1.249   2.966
 8722SOL    HW227767   5.635   1.167   2.830
 8723SOL     OW27768   6.301   1.688   3.628
 8723SOL    HW127769   6.261   1.770   3.588
 8723SOL    HW227770   6.391   1.672   3.588
 8724SOL     OW27771   6.986   1.635   2.393
 8724SOL    HW127772   0.078   1.670   2.376
 8724SOL    HW227773   6.923   1.711   2.407
 8725SOL     OW27774   5.715   1.791   3.679
 8725SOL    HW127775   5.656   1.723   3.723
 8725SOL    HW227776   5.775   1.833   3.747
 8726SOL     OW27777   6.880   0.979   2.515
 8726SOL    HW127778   6.953   0.924   2.555
 8726SOL    HW227779   6.919   1.062   2.475
 8727SOL     OW27780   6.321   1.279   3.300
 8727SOL    HW127781   6.306   1.329   3.385
 8727SOL    HW227782   6.244   1.294   3.238
 8728SOL     OW27783   6.230   1.646   2.029
 8728SOL    HW127784   6.252   1.680   1.938
 8728SOL    HW227785   6.181   1.559   2.021
 8729SOL     OW27786   5.860   0.302   2.607
 8729SOL    HW127787   5.777   0.352   2.584
 8729SOL    HW227788   5.872   0.300   2.706
 8730SOL     OW27789   6.628   1.513   1.875
 8730SOL    HW127790   6.712   1.512   1.930
 8730SOL    HW227791   6.646   1.472   1.786
 8731SOL     OW27792   6.393   1.016   3.279
 8731SOL    HW127793   6.453   1.005   3.199
 8731SOL    HW227794   6.366   1.112   3.287
 8732SOL     OW27795   6.515   0.884   2.098
 8732SOL    HW127796   6.592   0.932   2.055
 8732SOL    HW227797   6.549   0.826   2.172
 8733SOL     OW27798   5.930   1.322   3.341
 8733SOL    HW127799   5.918   1.401   3.281
 8733SOL    HW227800   5.856   1.257   3.326
 8734SOL     OW27801   6.673   1.149   2.611
 8734SOL    HW127802   6.595   1.097   2.646
 8734SOL    HW227803   6.743   1.086   2.577
 8735SOL     OW27804   6.588   0.304   2.804
 8735SOL    HW127805   6.554   0.283   2.713
 8735SOL    HW227806   6.573   0.225   2.865
 8736SOL     OW27807   6.177   1.484   2.330
 8736SOL    HW127808   6.222   1.435   2.256
 8736SOL    HW227809   6.078   1.484   2.314
 8737SOL     OW27810   5.876   1.318   2.138
 8737SOL    HW127811   5.783   1.306   2.104
 8737SOL    HW227812   5.876   1.384   2.213
 8738SOL     OW27813   5.722   1.037   3.589
 8738SOL    HW127814   5.643   1.012   3.646
 8738SOL    HW227815   5.804   0.995   3.627
 8739SOL     OW27816   6.290   0.215   3.412
 8739SOL    HW127817   6.361   0.201   3.343
 8739SOL    HW227818   6.332   0.247   3.497
 8740SOL     OW27819   5.670   0.355   1.862
 8740SOL    HW127820   5.585   0.344   1.811
 8740SOL    HW227821   5.709   0.445   1.842
 8741SOL     OW27822   5.659   0.156   2.099
 8741SOL    HW127823   5.659   0.223   2.024
 8741SOL    HW227824   5.630   0.067   2.063
 8742SOL     OW27825   6.217   0.817   3.347
 8742SOL    HW127826   6.274   0.897   3.329
 8742SOL    HW227827   6.273   0.734   3.343
 8743SOL     OW27828   6.309   0.531   3.613
 8743SOL    HW127829   6.358   0.602   3.663
 8743SOL    HW227830   6.333   0.441   3.652
 8744SOL     OW27831   6.954   1.215   3.475
 8744SOL    HW127832   6.976   1.194   3.570
 8744SOL    HW227833   0.029   1.188   3.416
 8745SOL     OW27834   5.952   1.771   3.447
 8745SOL    HW127835   5.870   1.826   3.430
 8745SOL    HW227836   5.924   1.678   3.474
 8746SOL     OW27837   6.865   0.376   2.278
 8746SOL    HW127838   6.934   0.332   2.220
 8746SOL    HW227839   6.904   0.394   2.368
 8747SOL     OW27840   6.177   0.705   2.542
 8747SOL    HW127841   6.228   0.790   2.527
 8747SOL    HW227842   6.111   0.693   2.468
 8748SOL     OW27843   6.394   1.370   1.916
 8748SOL    HW127844   6.372   1.361   2.013
 8748SOL    HW227845   6.479   1.422   1.906
 8749SOL     OW27846   6.265   1.709   2.823
 8749SOL    HW127847   6.234   1.803   2.814
 8749SOL    HW227848   6.365   1.706   2.816
 8750SOL     OW27849   6.465   1.005   2.735
 8750SOL    HW127850   6.519   0.931   2.775
 8750SOL    HW227851   6.407   1.045   2.806
 8751SOL     OW27852   6.727   0.980   1.934
 8751SOL    HW127853   6.645   1.006   1.882
 8751SOL    HW227854   6.761   0.893   1.899
 8752SOL     OW27855   5.761   1.298   3.684
 8752SOL    HW127856   5.742   1.211   3.639
 8752SOL    HW227857   5.714   1.301   3.772
 8753SOL     OW27858   5.788   1.266   2.519
 8753SOL    HW127859   5.814   1.225   2.606
 8753SOL    HW227860   5.822   1.210   2.444
 8754SOL     OW27861   6.268   1.415   3.549
 8754SOL    HW127862   6.174   1.385   3.562
 8754SOL    HW227863   6.274   1.514   3.567
 8755SOL     OW27864   5.987   0.392   2.373
 8755SOL    HW127865   6.022   0.317   2.318
 8755SOL    HW227866   5.950   0.356   2.459
 8756SOL     OW27867   5.967   0.549   3.152
 8756SOL    HW127868   6.012   0.473   3.199
 8756SOL    HW227869   5.959   0.527   3.055
 8757SOL     OW27870   6.405   1.591   2.528
 8757SOL    HW127871   6.366   1.651   2.458
 8757SOL    HW227872   6.341   1.517   2.549
 8758SOL     OW27873   6.957   0.163   2.944
 8758SOL    HW127874   6.996   0.077   2.977
 8758SOL    HW227875   6.928   0.218   3.023
 8759SOL     OW27876   6.550   0.071   2.948
 8759SOL    HW127877   6.537   0.035   2.856
 8759SOL    HW227878   6.570   6.996   3.011
 8760SOL     OW27879   6.363   1.317   2.188
 8760SOL    HW127880   6.349   1.219   2.205
 8760SOL    HW227881   6.444   1.348   2.238
 8761SOL     OW27882   6.184   1.598   3.151
 8761SOL    HW127883   6.183   1.688   3.194
 8761SOL    HW227884   6.273   1.582   3.108
 8762SOL     OW27885   5.621   1.008   2.171
 8762SOL    HW127886   5.717   0.992   2.152
 8762SOL    HW227887   5.576   0.922   2.194
 8763SOL     OW27888   6.450   1.698   2.186
 8763SOL    HW127889   6.365   1.675   2.139
 8763SOL    HW227890   6.434   1.772   2.251
 8764SOL     OW27891   5.792   0.649   3.881
 8764SOL    HW127892   5.702   0.614   3.908
 8764SOL    HW227893   5.800   0.648   3.781
 8765SOL     OW27894   5.795   0.309   4.764
 8765SOL    HW127895   5.843   0.265   4.840
 8765SOL    HW227896   5.714   0.255   4.740
 8766SOL     OW27897   5.623   0.432   4.388
 8766SOL    HW127898   5.540   0.462   4.435
 8766SOL    HW227899   5.599   0.366   4.316
 8767SOL     OW27900   6.143   1.323   4.958
 8767SOL    HW127901   6.058   1.319   4.906
 8767SOL    HW227902   6.164   1.418   4.979
 8768SOL     OW27903   0.042   1.533   4.498
 8768SOL    HW127904   0.096   1.449   4.491
 8768SOL    HW227905   0.034   1.575   4.407
 8769SOL     OW27906   6.670   0.806   4.408
 8769SOL    HW127907   6.751   0.861   4.390
 8769SOL    HW227908   6.657   0.797   4.507
 8770SOL     OW27909   6.292   1.142   4.798
 8770SOL    HW127910   6.235   1.181   4.870
 8770SOL    HW227911   6.338   1.215   4.748
 8771SOL     OW27912   6.454   0.755   5.581
 8771SOL    HW127913   6.463   0.812   5.663
 8771SOL    HW227914   6.464   0.811   5.499
 8772SOL     OW27915   6.308   0.953   4.365
 8772SOL    HW127916   6.372   0.963   4.442
 8772SOL    HW227917   6.230   1.013   4.379
 8773SOL     OW27918   6.143   1.093   5.565
 8773SOL    HW127919   6.237   1.125   5.582
 8773SOL    HW227920   6.090   1.165   5.522
 8774SOL     OW27921   5.916   1.391   4.803
 8774SOL    HW127922   5.842   1.335   4.766
 8774SOL    HW227923   5.964   1.437   4.728
 8775SOL     OW27924   6.074   0.327   5.152
 8775SOL    HW127925   6.153   0.291   5.202
 8775SOL    HW227926   5.990   0.287   5.189
 8776SOL     OW27927   5.824   1.741   4.176
 8776SOL    HW127928   5.843   1.805   4.249
 8776SOL    HW227929   5.899   1.742   4.110
 8777SOL     OW27930   6.733   1.369   5.401
 8777SOL    HW127931   6.819   1.330   5.368
 8777SOL    HW227932   6.670   1.296   5.425
 8778SOL     OW27933   5.905   1.477   4.225
 8778SOL    HW127934   5.862   1.568   4.224
 8778SOL    HW227935   5.861   1.420   4.294
 8779SOL     OW27936   5.901   1.099   4.592
 8779SOL    HW127937   5.910   1.002   4.617
 8779SOL    HW227938   5.835   1.143   4.653
 8780SOL     OW27939   6.152   1.838   5.138
 8780SOL    HW127940   6.078   1.813   5.200
 8780SOL    HW227941   6.209   1.908   5.180
 8781SOL     OW27942   6.141   0.955   3.942
 8781SOL    HW127943   6.147   1.005   3.856
 8781SOL    HW227944   6.209   0.992   4.006
 8782SOL     OW27945   5.713   0.685   4.308
 8782SOL    HW127946   5.693   0.591   4.338
 8782SOL    HW227947   5.709   0.746   4.387
 8783SOL     OW27948   5.590   1.589   3.804
 8783SOL    HW127949   5.527   1.512   3.807
 8783SOL    HW227950   5.593   1.633   3.893
 8784SOL     OW27951   5.684   0.772   5.303
 8784SOL    HW127952   5.752   0.839   5.332
 8784SOL    HW227953   5.603   0.819   5.269
 8785SOL     OW27954   6.215   1.362   4.445
 8785SOL    HW127955   6.179   1.269   4.440
 8785SOL    HW227956   6.205   1.407   4.357
 8786SOL     OW27957   6.759   1.162   5.142
 8786SOL    HW127958   6.797   1.114   5.062
 8786SOL    HW227959   6.830   1.171   5.212
 8787SOL     OW27960   6.476   0.087   4.300
 8787SOL    HW127961   6.515   0.166   4.251
 8787SOL    HW227962   6.381   0.073   4.271
 8788SOL     OW27963   5.782   0.931   5.026
 8788SOL    HW127964   5.875   0.896   5.020
 8788SOL    HW227965   5.725   0.885   4.958
 8789SOL     OW27966   6.826   1.861   5.331
 8789SOL    HW127967   6.791   1.925   5.263
 8789SOL    HW227968   6.816   1.767   5.298
 8790SOL     OW27969   5.928   0.279   5.551
 8790SOL    HW127970   5.983   0.342   5.607
 8790SOL    HW227971   5.831   0.293   5.571
 8791SOL     OW27972   6.152   0.686   4.006
 8791SOL    HW127973   6.153   0.780   3.971
 8791SOL    HW227974   6.087   0.679   4.082
 8792SOL     OW27975   6.862   0.371   4.628
 8792SOL    HW127976   6.763   0.361   4.630
 8792SOL    HW227977   6.903   0.299   4.684
 8793SOL     OW27978   6.358   0.582   5.210
 8793SOL    HW127979   6.328   0.538   5.295
 8793SOL    HW227980   6.353   0.516   5.135
 8794SOL     OW27981   6.992   0.545   5.485
 8794SOL    HW127982   6.953   0.633   5.513
 8794SOL    HW227983   0.091   0.549   5.495
 8795SOL     OW27984   6.518   0.903   5.353
 8795SOL    HW127985   6.571   0.829   5.311
 8795SOL    HW227986   6.462   0.948   5.283
 8796SOL     OW27987   6.654   0.392   4.933
 8796SOL    HW127988   6.564   0.414   4.971
 8796SOL    HW227989   6.645   0.372   4.835
 8797SOL     OW27990   6.588   0.745   4.154
 8797SOL    HW127991   6.607   0.764   4.250
 8797SOL    HW227992   6.508   0.686   4.146
 8798SOL     OW27993   5.687   0.857   4.521
 8798SOL    HW127994   5.776   0.846   4.564
 8798SOL    HW227995   5.631   0.921   4.575
 8799SOL     OW27996   5.711   1.911   5.311
 8799SOL    HW127997   5.704   1.874   5.403
 8799SOL    HW227998   5.623   1.906   5.265
 8800SOL     OW27999   6.485   0.383   3.916
 8800SOL    HW128000   6.550   0.444   3.870
 8800SOL    HW228001   6.439   0.326   3.848
 8801SOL     OW28002   6.998   1.192   4.258
 8801SOL    HW128003   0.031   1.153   4.172
 8801SOL    HW228004   6.934   1.267   4.238
 8802SOL     OW28005   6.095   0.235   4.673
 8802SOL    HW128006   6.142   0.237   4.761
 8802SOL    HW228007   6.108   0.323   4.626
 8803SOL     OW28008   6.574   1.476   4.190
 8803SOL    HW128009   6.547   1.549   4.128
 8803SOL    HW228010   6.534   1.492   4.280
 8804SOL     OW28011   5.945   1.777   4.606
 8804SOL    HW128012   5.981   1.684   4.605
 8804SOL    HW228013   6.016   1.840   4.635
 8805SOL     OW28014   6.816   1.602   5.241
 8805SOL    HW128015   6.780   1.523   5.290
 8805SOL    HW228016   6.810   1.586   5.143
 8806SOL     OW28017   5.874   0.900   3.993
 8806SOL    HW128018   5.969   0.920   3.967
 8806SOL    HW228019   5.848   0.810   3.958
 8807SOL     OW28020   6.010   1.314   5.464
 8807SOL    HW128021   5.995   1.319   5.365
 8807SOL    HW228022   5.923   1.311   5.511
 8808SOL     OW28023   6.718   1.747   3.957
 8808SOL    HW128024   6.624   1.731   3.989
 8808SOL    HW228025   6.739   1.684   3.883
 8809SOL     OW28026   5.854   0.215   5.287
 8809SOL    HW128027   5.771   0.263   5.257
 8809SOL    HW228028   5.880   0.248   5.378
 8810SOL     OW28029   6.053   1.775   4.024
 8810SOL    HW128030   6.099   1.823   4.098
 8810SOL    HW228031   6.119   1.717   3.976
 8811SOL     OW28032   5.806   1.806   4.947
 8811SOL    HW128033   5.855   1.726   4.982
 8811SOL    HW228034   5.770   1.786   4.856
 8812SOL     OW28035   6.536   1.706   4.587
 8812SOL    HW128036   6.629   1.668   4.579
 8812SOL    HW228037   6.477   1.662   4.520
 8813SOL     OW28038   5.980   0.655   4.217
 8813SOL    HW128039   5.984   0.555   4.221
 8813SOL    HW228040   5.887   0.685   4.236
 8814SOL     OW28041   6.207   0.084   3.808
 8814SOL    HW128042   6.225   0.008   3.871
 8814SOL    HW228043   6.132   0.058   3.746
 8815SOL     OW28044   6.386   0.246   5.545
 8815SOL    HW128045   6.470   0.196   5.522
 8815SOL    HW228046   6.321   0.184   5.589
 8816SOL     OW28047   6.429   1.516   4.909
 8816SOL    HW128048   6.404   1.481   4.819
 8816SOL    HW228049   6.483   1.448   4.958
 8817SOL     OW28050   6.387   1.367   4.668
 8817SOL    HW128051   6.481   1.372   4.634
 8817SOL    HW228052   6.325   1.361   4.590
 8818SOL     OW28053   6.504   0.561   4.604
 8818SOL    HW128054   6.488   0.548   4.506
 8818SOL    HW228055   6.534   0.474   4.644
 8819SOL     OW28056   6.209   0.065   4.195
 8819SOL    HW128057   6.141   0.054   4.267
 8819SOL    HW228058   6.180   0.139   4.133
 8820SOL     OW28059   0.019   1.129   3.741
 8820SOL    HW128060   0.059   1.112   3.830
 8820SOL    HW228061   6.922   1.103   3.743
 8821SOL     OW28062   5.907   0.025   4.045
 8821SOL    HW128063   5.971   0.101   4.035
 8821SOL    HW228064   5.814   0.058   4.032
 8822SOL     OW28065   6.593   0.295   4.158
 8822SOL    HW128066   6.548   0.318   4.072
 8822SOL    HW228067   6.689   0.326   4.155
 8823SOL     OW28068   6.611   0.679   5.220
 8823SOL    HW128069   6.518   0.642   5.217
 8823SOL    HW228070   6.671   0.615   5.267
 8824SOL     OW28071   6.772   1.604   4.480
 8824SOL    HW128072   6.771   1.662   4.399
 8824SOL    HW228073   6.866   1.579   4.502
 8825SOL     OW28074   6.091   1.121   4.398
 8825SOL    HW128075   6.028   1.111   4.475
 8825SOL    HW228076   6.041   1.114   4.312
 8826SOL     OW28077   6.769   1.785   4.254
 8826SOL    HW128078   6.747   1.787   4.156
 8826SOL    HW228079   6.720   1.859   4.300
 8827SOL     OW28080   6.643   0.561   3.778
 8827SOL    HW128081   6.580   0.636   3.758
 8827SOL    HW228082   6.706   0.589   3.851
 8828SOL     OW28083   5.714   0.569   5.116
 8828SOL    HW128084   5.810   0.561   5.090
 8828SOL    HW228085   5.702   0.641   5.184
 8829SOL     OW28086   6.206   0.226   4.929
 8829SOL    HW128087   6.222   0.129   4.943
 8829SOL    HW228088   6.141   0.260   4.997
 8830SOL     OW28089   6.476   0.471   4.345
 8830SOL    HW128090   6.413   0.521   4.286
 8830SOL    HW228091   6.525   0.402   4.292
 8831SOL     OW28092   6.558   6.984   4.545
 8831SOL    HW128093   6.520   0.020   4.460
 8831SOL    HW228094   6.585   6.889   4.533
 8832SOL     OW28095   6.089   1.414   3.853
 8832SOL    HW128096   6.018   1.377   3.913
 8832SOL    HW228097   6.075   1.381   3.760
 8833SOL     OW28098   6.087   0.237   4.004
 8833SOL    HW128099   6.135   0.190   3.930
 8833SOL    HW228100   6.055   0.326   3.973
 8834SOL     OW28101   6.560   1.311   5.039
 8834SOL    HW128102   6.475   1.299   5.090
 8834SOL    HW228103   6.633   1.259   5.083
 8835SOL     OW28104   6.751   1.325   4.831
 8835SOL    HW128105   6.678   1.317   4.899
 8835SOL    HW228106   6.711   1.345   4.742
 8836SOL     OW28107   6.490   0.168   5.098
 8836SOL    HW128108   6.507   0.148   5.002
 8836SOL    HW228109   6.575   0.199   5.141
 8837SOL     OW28110   6.588   1.141   5.477
 8837SOL    HW128111   6.510   1.173   5.530
 8837SOL    HW228112   6.562   1.060   5.424
 8838SOL     OW28113   6.352   1.043   4.100
 8838SOL    HW128114   6.347   1.004   4.191
 8838SOL    HW228115   6.423   0.998   4.047
 8839SOL     OW28116   6.030   0.810   5.015
 8839SOL    HW128117   6.089   0.823   5.094
 8839SOL    HW228118   6.004   0.713   5.008
 8840SOL     OW28119   6.903   0.331   5.033
 8840SOL    HW128120   6.959   0.410   5.058
 8840SOL    HW228121   6.815   0.362   4.998
 8841SOL     OW28122   5.633   1.550   5.074
 8841SOL    HW128123   5.584   1.616   5.017
 8841SOL    HW228124   5.732   1.566   5.067
 8842SOL     OW28125   5.920   1.111   4.179
 8842SOL    HW128126   5.920   1.182   4.109
 8842SOL    HW228127   5.903   1.022   4.136
 8843SOL     OW28128   6.131   0.519   4.610
 8843SOL    HW128129   6.145   0.571   4.525
 8843SOL    HW228130   6.197   0.548   4.679
 8844SOL     OW28131   6.848   1.414   4.185
 8844SOL    HW128132   6.895   1.497   4.213
 8844SOL    HW228133   6.749   1.429   4.188
 8845SOL     OW28134   6.861   1.545   4.969
 8845SOL    HW128135   6.948   1.526   5.014
 8845SOL    HW228136   6.830   1.464   4.920
 8846SOL     OW28137   5.910   1.555   5.018
 8846SOL    HW128138   5.901   1.494   4.938
 8846SOL    HW228139   6.006   1.576   5.033
 8847SOL     OW28140   6.060   0.666   5.418
 8847SOL    HW128141   6.098   0.722   5.344
 8847SOL    HW228142   6.131   0.605   5.453
 8848SOL     OW28143   6.613   0.105   5.454
 8848SOL    HW128144   6.651   0.156   5.377
 8848SOL    HW228145   6.603   0.009   5.428
 8849SOL     OW28146   6.001   0.018   5.506
 8849SOL    HW128147   5.917   6.965   5.515
 8849SOL    HW228148   5.979   0.115   5.517
 8850SOL     OW28149   6.175   0.882   4.789
 8850SOL    HW128150   6.214   0.975   4.789
 8850SOL    HW228151   6.124   0.868   4.874
 8851SOL     OW28152   6.904   0.845   4.720
 8851SOL    HW128153   6.808   0.816   4.717
 8851SOL    HW228154   6.954   0.786   4.783
 8852SOL     OW28155   6.782   0.625   4.011
 8852SOL    HW128156   6.813   0.540   4.055
 8852SOL    HW228157   6.709   0.666   4.065
 8853SOL     OW28158   5.900   0.149   4.960
 8853SOL    HW128159   5.902   0.100   5.046
 8853SOL    HW228160   5.937   0.091   4.887
 8854SOL     OW28161   5.637   1.291   4.984
 8854SOL    HW128162   5.667   1.231   5.058
 8854SOL    HW228163   5.628   1.384   5.018
 8855SOL     OW28164   6.312   0.639   4.785
 8855SOL    HW128165   6.380   0.628   4.712
 8855SOL    HW228166   6.269   0.729   4.777
 8856SOL     OW28167   5.988   0.072   4.369
 8856SOL    HW128168   5.953   0.155   4.414
 8856SOL    HW228169   5.918   0.001   4.373
 8857SOL     OW28170   0.154   0.519   4.047
 8857SOL    HW128171   0.111   0.429   4.037
 8857SOL    HW228172   0.134   0.555   4.138
 8858SOL     OW28173   6.624   0.786   4.697
 8858SOL    HW128174   6.604   0.792   4.795
 8858SOL    HW228175   6.587   0.700   4.661
 8859SOL     OW28176   6.534   1.615   5.379
 8859SOL    HW128177   6.524   1.648   5.285
 8859SOL    HW228178   6.568   1.521   5.377
 8860SOL     OW28179   5.943   0.907   5.498
 8860SOL    HW128180   6.017   0.969   5.523
 8860SOL    HW228181   5.980   0.815   5.482
 8861SOL     OW28182   6.961   0.818   3.702
 8861SOL    HW128183   0.012   0.795   3.785
 8861SOL    HW228184   0.023   0.862   3.637
 8862SOL     OW28185   6.644   1.379   4.580
 8862SOL    HW128186   6.662   1.293   4.531
 8862SOL    HW228187   6.691   1.454   4.534
 8863SOL     OW28188   5.927   0.829   4.663
 8863SOL    HW128189   6.022   0.848   4.690
 8863SOL    HW228190   5.904   0.735   4.687
 8864SOL     OW28191   5.890   0.557   4.731
 8864SOL    HW128192   5.844   0.468   4.739
 8864SOL    HW228193   5.974   0.546   4.678
 8865SOL     OW28194   6.741   0.491   5.384
 8865SOL    HW128195   6.691   0.506   5.469
 8865SOL    HW228196   6.839   0.504   5.401
 8866SOL     OW28197   6.712   0.258   5.242
 8866SOL    HW128198   6.714   0.344   5.294
 8866SOL    HW228199   6.785   0.259   5.174
 8867SOL     OW28200   5.621   1.266   3.920
 8867SOL    HW128201   5.532   1.307   3.904
 8867SOL    HW228202   5.609   1.172   3.952
 8868SOL     OW28203   5.688   1.754   4.698
 8868SOL    HW128204   5.639   1.681   4.651
 8868SOL    HW228205   5.779   1.765   4.658
 8869SOL     OW28206   6.070   1.529   4.619
 8869SOL    HW128207   6.144   1.585   4.655
 8869SOL    HW228208   6.107   1.463   4.553
 8870SOL     OW28209   6.538   0.769   4.957
 8870SOL    HW128210   6.583   0.748   5.044
 8870SOL    HW228211   6.455   0.714   4.949
 8871SOL     OW28212   5.644   0.643   4.860
 8871SOL    HW128213   5.723   0.622   4.802
 8871SOL    HW228214   5.663   0.614   4.953
 8872SOL     OW28215   5.795   0.591   5.487
 8872SOL    HW128216   5.892   0.602   5.464
 8872SOL    HW228217   5.739   0.646   5.425
 8873SOL     OW28218   6.383   0.574   4.096
 8873SOL    HW128219   6.409   0.501   4.033
 8873SOL    HW228220   6.298   0.615   4.066
 8874SOL     OW28221   5.795   1.556   5.431
 8874SOL    HW128222   5.769   1.634   5.488
 8874SOL    HW228223   5.790   1.472   5.484
 8875SOL     OW28224   6.374   0.444   4.970
 8875SOL    HW128225   6.324   0.359   4.956
 8875SOL    HW228226   6.344   0.512   4.902
 8876SOL     OW28227   6.495   1.693   5.122
 8876SOL    HW128228   6.479   1.640   5.039
 8876SOL    HW228229   6.503   1.790   5.098
 8877SOL     OW28230   6.012   0.477   3.884
 8877SOL    HW128231   6.085   0.539   3.913
 8877SOL    HW228232   5.924   0.525   3.888
 8878SOL     OW28233   5.717   1.133   5.195
 8878SOL    HW128234   5.723   1.102   5.290
 8878SOL    HW228235   5.742   1.057   5.134
 8879SOL     OW28236   6.847   1.064   4.900
 8879SOL    HW128237   6.875   1.000   4.829
 8879SOL    HW228238   6.827   1.154   4.860
 8880SOL     OW28239   6.903   0.873   4.079
 8880SOL    HW128240   6.878   0.884   4.175
 8880SOL    HW228241   6.871   0.785   4.046
 8881SOL     OW28242   6.880   1.786   4.835
 8881SOL    HW128243   6.961   1.769   4.778
 8881SOL    HW228244   6.863   1.706   4.892
 8882SOL     OW28245   5.704   1.221   4.732
 8882SOL    HW128246   5.675   1.246   4.825
 8882SOL    HW228247   5.633   1.165   4.690
 8883SOL     OW28248   6.297   1.687   5.492
 8883SOL    HW128249   6.255   1.772   5.458
 8883SOL    HW228250   6.387   1.675   5.451
 8884SOL     OW28251   0.001   1.638   4.251
 8884SOL    HW128252   0.088   1.677   4.221
 8884SOL    HW228253   6.929   1.707   4.244
 8885SOL     OW28254   5.714   1.792   5.556
 8885SOL    HW128255   5.656   1.726   5.603
 8885SOL    HW228256   5.771   1.840   5.624
 8886SOL     OW28257   6.887   0.964   4.359
 8886SOL    HW128258   6.957   0.912   4.408
 8886SOL    HW228259   6.926   1.051   4.327
 8887SOL     OW28260   6.320   1.277   5.174
 8887SOL    HW128261   6.304   1.327   5.258
 8887SOL    HW228262   6.244   1.291   5.111
 8888SOL     OW28263   6.247   1.633   3.889
 8888SOL    HW128264   6.271   1.656   3.795
 8888SOL    HW228265   6.195   1.548   3.890
 8889SOL     OW28266   5.855   0.298   4.472
 8889SOL    HW128267   5.773   0.348   4.447
 8889SOL    HW228268   5.865   0.296   4.572
 8890SOL     OW28269   6.740   1.584   3.722
 8890SOL    HW128270   6.744   1.495   3.676
 8890SOL    HW228271   6.680   1.646   3.671
 8891SOL     OW28272   6.378   1.010   5.145
 8891SOL    HW128273   6.431   0.998   5.061
 8891SOL    HW228274   6.356   1.107   5.158
 8892SOL     OW28275   6.549   0.916   3.943
 8892SOL    HW128276   6.631   0.959   3.906
 8892SOL    HW228277   6.574   0.856   4.019
 8893SOL     OW28278   5.929   1.328   5.208
 8893SOL    HW128279   5.916   1.406   5.146
 8893SOL    HW228280   5.857   1.260   5.191
 8894SOL     OW28281   6.675   1.135   4.470
 8894SOL    HW128282   6.597   1.083   4.505
 8894SOL    HW228283   6.741   1.072   4.428
 8895SOL     OW28284   6.588   0.303   4.669
 8895SOL    HW128285   6.553   0.282   4.577
 8895SOL    HW228286   6.573   0.225   4.729
 8896SOL     OW28287   6.189   1.483   4.203
 8896SOL    HW128288   6.231   1.430   4.129
 8896SOL    HW228289   6.090   1.483   4.192
 8897SOL     OW28290   5.880   1.322   4.005
 8897SOL    HW128291   5.785   1.308   3.976
 8897SOL    HW228292   5.882   1.386   4.081
 8898SOL     OW28293   5.714   1.049   5.455
 8898SOL    HW128294   5.634   1.020   5.507
 8898SOL    HW228295   5.794   0.996   5.485
 8899SOL     OW28296   6.290   0.208   5.276
 8899SOL    HW128297   6.362   0.195   5.208
 8899SOL    HW228298   6.330   0.238   5.363
 8900SOL     OW28299   5.643   0.319   3.789
 8900SOL    HW128300   5.591   0.325   3.704
 8900SOL    HW228301   5.623   0.398   3.847
 8901SOL     OW28302   5.652   0.124   3.990
 8901SOL    HW128303   5.650   0.190   3.916
 8901SOL    HW228304   5.626   0.034   3.955
 8902SOL     OW28305   6.206   0.808   5.223
 8902SOL    HW128306   6.260   0.890   5.205
 8902SOL    HW228307   6.264   0.727   5.216
 8903SOL     OW28308   6.300   0.524   5.478
 8903SOL    HW128309   6.349   0.597   5.526
 8903SOL    HW228310   6.328   0.435   5.516
 8904SOL     OW28311   6.959   1.214   5.338
 8904SOL    HW128312   6.980   1.189   5.433
 8904SOL    HW228313   0.035   1.187   5.279
 8905SOL     OW28314   5.950   1.770   5.316
 8905SOL    HW128315   5.869   1.826   5.302
 8905SOL    HW228316   5.922   1.678   5.345
 8906SOL     OW28317   6.854   0.390   4.142
 8906SOL    HW128318   6.915   0.339   4.081
 8906SOL    HW228319   6.897   0.400   4.232
 8907SOL     OW28320   6.180   0.699   4.405
 8907SOL    HW128321   6.231   0.783   4.387
 8907SOL    HW228322   6.110   0.688   4.335
 8908SOL     OW28323   6.381   1.264   3.767
 8908SOL    HW128324   6.374   1.296   3.861
 8908SOL    HW228325   6.352   1.337   3.705
 8909SOL     OW28326   6.266   1.705   4.682
 8909SOL    HW128327   6.233   1.799   4.675
 8909SOL    HW228328   6.365   1.703   4.675
 8910SOL     OW28329   6.464   0.998   4.599
 8910SOL    HW128330   6.520   0.925   4.638
 8910SOL    HW228331   6.406   1.037   4.671
 8911SOL     OW28332   6.768   1.018   3.775
 8911SOL    HW128333   6.702   1.059   3.712
 8911SOL    HW228334   6.804   0.933   3.735
 8912SOL     OW28335   5.755   1.305   5.552
 8912SOL    HW128336   5.736   1.218   5.507
 8912SOL    HW228337   5.705   1.309   5.638
 8913SOL     OW28338   5.792   1.266   4.375
 8913SOL    HW128339   5.815   1.225   4.464
 8913SOL    HW228340   5.823   1.206   4.302
 8914SOL     OW28341   6.264   1.415   5.420
 8914SOL    HW128342   6.169   1.387   5.432
 8914SOL    HW228343   6.273   1.513   5.438
 8915SOL     OW28344   5.981   0.387   4.238
 8915SOL    HW128345   6.016   0.313   4.180
 8915SOL    HW228346   5.945   0.349   4.323
 8916SOL     OW28347   5.967   0.544   5.013
 8916SOL    HW128348   6.013   0.468   5.059
 8916SOL    HW228349   5.957   0.523   4.916
 8917SOL     OW28350   6.395   1.575   4.392
 8917SOL    HW128351   6.342   1.604   4.313
 8917SOL    HW228352   6.349   1.499   4.438
 8918SOL     OW28353   6.957   0.165   4.809
 8918SOL    HW128354   6.996   0.078   4.840
 8918SOL    HW228355   6.928   0.219   4.888
 8919SOL     OW28356   6.552   0.070   4.810
 8919SOL    HW128357   6.536   0.034   4.719
 8919SOL    HW228358   6.572   6.995   4.873
 8920SOL     OW28359   6.371   1.317   4.050
 8920SOL    HW128360   6.360   1.220   4.071
 8920SOL    HW228361   6.451   1.353   4.097
 8921SOL     OW28362   6.185   1.592   5.018
 8921SOL    HW128363   6.183   1.682   5.062
 8921SOL    HW228364   6.274   1.577   4.976
 8922SOL     OW28365   5.619   1.000   4.031
 8922SOL    HW128366   5.716   0.983   4.011
 8922SOL    HW228367   5.573   0.914   4.050
 8923SOL     OW28368   6.467   1.690   4.050
 8923SOL    HW128369   6.386   1.662   3.998
 8923SOL    HW228370   6.444   1.767   4.110
 8924SOL     OW28371   5.781   0.643   5.758
 8924SOL    HW128372   5.689   0.615   5.784
 8924SOL    HW228373   5.790   0.640   5.659
 8925SOL     OW28374   5.752   0.369   6.602
 8925SOL    HW128375   5.793   0.336   6.687
 8925SOL    HW228376   5.679   0.306   6.574
 8926SOL     OW28377   5.586   0.437   6.226
 8926SOL    HW128378   5.504   0.458   6.278
 8926SOL    HW228379   5.564   0.373   6.153
 8927SOL     OW28380   6.179   1.267   6.811
 8927SOL    HW128381   6.090   1.284   6.768
 8927SOL    HW228382   6.168   1.263   6.910
 8928SOL     OW28383   0.047   1.568   6.338
 8928SOL    HW128384   0.091   1.479   6.340
 8928SOL    HW228385   0.035   1.598   6.244
 8929SOL     OW28386   6.689   0.774   6.258
 8929SOL    HW128387   6.764   0.840   6.251
 8929SOL    HW228388   6.667   0.758   6.355
 8930SOL     OW28389   6.337   1.119   6.630
 8930SOL    HW128390   6.285   1.149   6.710
 8930SOL    HW228391   6.360   1.199   6.575
 8931SOL     OW28392   6.301   0.937   6.216
 8931SOL    HW128393   6.369   0.944   6.290
 8931SOL    HW228394   6.225   0.998   6.235
 8932SOL     OW28395   5.949   1.347   6.663
 8932SOL    HW128396   5.864   1.305   6.633
 8932SOL    HW228397   5.986   1.404   6.590
 8933SOL     OW28398   5.826   1.744   6.059
 8933SOL    HW128399   5.846   1.809   6.132
 8933SOL    HW228400   5.898   1.748   5.990
 8934SOL     OW28401   5.889   1.473   6.092
 8934SOL    HW128402   5.855   1.567   6.098
 8934SOL    HW228403   5.849   1.419   6.166
 8935SOL     OW28404   5.898   1.086   6.454
 8935SOL    HW128405   5.922   0.995   6.485
 8935SOL    HW228406   5.837   1.130   6.520
 8936SOL     OW28407   6.183   1.899   6.989
 8936SOL    HW128408   6.108   1.849   0.033
 8936SOL    HW228409   6.238   1.946   0.058
 8937SOL     OW28410   6.127   0.953   5.802
 8937SOL    HW128411   6.130   1.001   5.715
 8937SOL    HW228412   6.199   0.988   5.862
 8938SOL     OW28413   5.697   0.686   6.181
 8938SOL    HW128414   5.667   0.592   6.196
 8938SOL    HW228415   5.707   0.732   6.269
 8939SOL     OW28416   5.591   1.592   5.686
 8939SOL    HW128417   5.525   1.518   5.686
 8939SOL    HW228418   5.594   1.634   5.777
 8940SOL     OW28419   6.193   1.358   6.289
 8940SOL    HW128420   6.159   1.264   6.286
 8940SOL    HW228421   6.186   1.399   6.198
 8941SOL     OW28422   6.757   1.187   6.981
 8941SOL    HW128423   6.814   1.139   6.914
 8941SOL    HW228424   6.815   1.231   0.049
 8942SOL     OW28425   6.492   0.060   6.102
 8942SOL    HW128426   6.524   0.148   6.067
 8942SOL    HW228427   6.393   0.061   6.109
 8943SOL     OW28428   5.705   1.003   6.875
 8943SOL    HW128429   5.789   0.970   6.832
 8943SOL    HW228430   5.627   0.948   6.843
 8944SOL     OW28431   6.138   0.684   5.870
 8944SOL    HW128432   6.141   0.778   5.835
 8944SOL    HW228433   6.072   0.679   5.945
 8945SOL     OW28434   6.822   0.302   6.471
 8945SOL    HW128435   6.723   0.287   6.478
 8945SOL    HW228436   6.862   0.310   6.562
 8946SOL     OW28437   6.370   0.557   0.088
 8946SOL    HW128438   6.307   0.612   0.143
 8946SOL    HW228439   6.325   0.528   0.004
 8947SOL     OW28440   6.484   0.287   6.839
 8947SOL    HW128441   6.410   0.353   6.848
 8947SOL    HW228442   6.449   0.203   6.799
 8948SOL     OW28443   6.589   0.735   6.008
 8948SOL    HW128444   6.615   0.747   6.104
 8948SOL    HW228445   6.506   0.679   6.003
 8949SOL     OW28446   5.709   0.806   6.426
 8949SOL    HW128447   5.803   0.820   6.458
 8949SOL    HW228448   5.654   0.886   6.448
 8950SOL     OW28449   5.611   1.868   0.021
 8950SOL    HW128450   5.584   1.775   0.044
 8950SOL    HW228451   5.695   1.866   6.966
 8951SOL     OW28452   6.474   0.393   5.767
 8951SOL    HW128453   6.541   0.451   5.721
 8951SOL    HW228454   6.432   0.331   5.700
 8952SOL     OW28455   0.003   1.186   6.120
 8952SOL    HW128456   0.037   1.147   6.034
 8952SOL    HW228457   6.938   1.259   6.099
 8953SOL     OW28458   6.062   0.221   6.511
 8953SOL    HW128459   6.087   0.315   6.489
 8953SOL    HW228460   6.053   0.168   6.427
 8954SOL     OW28461   6.572   1.467   6.036
 8954SOL    HW128462   6.546   1.543   5.976
 8954SOL    HW228463   6.529   1.478   6.125
 8955SOL     OW28464   5.945   1.779   6.486
 8955SOL    HW128465   5.980   1.685   6.483
 8955SOL    HW228466   6.017   1.839   6.522
 8956SOL     OW28467   5.861   0.900   5.858
 8956SOL    HW128468   5.955   0.919   5.831
 8956SOL    HW228469   5.836   0.808   5.829
 8957SOL     OW28470   6.710   1.750   5.812
 8957SOL    HW128471   6.617   1.733   5.842
 8957SOL    HW228472   6.734   1.687   5.738
 8958SOL     OW28473   6.046   1.781   5.894
 8958SOL    HW128474   6.093   1.830   5.967
 8958SOL    HW228475   6.111   1.723   5.845
 8959SOL     OW28476   5.849   1.859   6.885
 8959SOL    HW128477   5.899   1.826   6.965
 8959SOL    HW228478   5.860   1.795   6.810
 8960SOL     OW28479   6.531   1.694   6.413
 8960SOL    HW128480   6.622   1.656   6.402
 8960SOL    HW228481   6.468   1.651   6.348
 8961SOL     OW28482   5.959   0.657   6.075
 8961SOL    HW128483   5.959   0.557   6.074
 8961SOL    HW228484   5.868   0.689   6.101
 8962SOL     OW28485   6.210   0.078   5.678
 8962SOL    HW128486   6.244   0.000   5.732
 8962SOL    HW228487   6.137   0.047   5.618
 8963SOL     OW28488   6.359   1.467   6.752
 8963SOL    HW128489   6.382   1.452   6.656
 8963SOL    HW228490   6.295   1.396   6.783
 8964SOL     OW28491   6.382   1.352   6.493
 8964SOL    HW128492   6.472   1.364   6.452
 8964SOL    HW228493   6.313   1.349   6.421
 8965SOL     OW28494   6.505   0.490   6.468
 8965SOL    HW128495   6.489   0.489   6.370
 8965SOL    HW228496   6.520   0.396   6.500
 8966SOL     OW28497   6.213   0.087   6.092
 8966SOL    HW128498   6.144   0.076   6.164
 8966SOL    HW228499   6.175   0.143   6.018
 8967SOL     OW28500   0.020   1.121   5.602
 8967SOL    HW128501   0.062   1.104   5.691
 8967SOL    HW228502   6.924   1.096   5.605
 8968SOL     OW28503   5.889   0.031   5.933
 8968SOL    HW128504   5.963   0.097   5.915
 8968SOL    HW228505   5.802   0.070   5.904
 8969SOL     OW28506   6.587   0.296   6.001
 8969SOL    HW128507   6.539   0.325   5.918
 8969SOL    HW228508   6.683   0.324   5.996
 8970SOL     OW28509   6.770   1.601   6.313
 8970SOL    HW128510   6.769   1.660   6.233
 8970SOL    HW228511   6.865   1.589   6.344
 8971SOL     OW28512   6.085   1.108   6.255
 8971SOL    HW128513   6.024   1.098   6.333
 8971SOL    HW228514   6.032   1.104   6.170
 8972SOL     OW28515   6.770   1.782   6.093
 8972SOL    HW128516   6.746   1.784   5.996
 8972SOL    HW228517   6.717   1.851   6.142
 8973SOL     OW28518   6.640   0.563   5.631
 8973SOL    HW128519   6.576   0.637   5.613
 8973SOL    HW228520   6.703   0.590   5.703
 8974SOL     OW28521   6.112   0.248   6.794
 8974SOL    HW128522   6.120   0.222   6.698
 8974SOL    HW228523   6.016   0.257   6.819
 8975SOL     OW28524   6.470   0.461   6.199
 8975SOL    HW128525   6.409   0.515   6.141
 8975SOL    HW228526   6.517   0.393   6.143
 8976SOL     OW28527   6.620   6.999   6.344
 8976SOL    HW128528   6.567   0.011   6.260
 8976SOL    HW228529   6.626   6.901   6.366
 8977SOL     OW28530   6.077   1.417   5.723
 8977SOL    HW128531   6.003   1.380   5.779
 8977SOL    HW228532   6.066   1.384   5.629
 8978SOL     OW28533   6.083   0.225   5.877
 8978SOL    HW128534   6.134   0.177   5.805
 8978SOL    HW228535   6.054   0.315   5.843
 8979SOL     OW28536   0.262   1.605   0.157
 8979SOL    HW128537   0.300   1.685   0.110
 8979SOL    HW228538   0.335   1.542   0.181
 8980SOL     OW28539   6.750   1.328   6.639
 8980SOL    HW128540   6.703   1.261   6.697
 8980SOL    HW228541   6.698   1.341   6.555
 8981SOL     OW28542   6.346   1.033   5.953
 8981SOL    HW128543   6.340   0.993   6.044
 8981SOL    HW228544   6.419   0.988   5.902
 8982SOL     OW28545   6.053   0.902   6.864
 8982SOL    HW128546   6.117   0.938   6.931
 8982SOL    HW228547   6.024   0.810   6.891
 8983SOL     OW28548   6.731   0.381   6.896
 8983SOL    HW128549   6.709   0.470   6.936
 8983SOL    HW228550   6.647   0.334   6.870
 8984SOL     OW28551   5.689   1.456   6.933
 8984SOL    HW128552   5.649   1.516   0.002
 8984SOL    HW228553   5.779   1.492   6.906
 8985SOL     OW28554   5.908   1.110   6.041
 8985SOL    HW128555   5.907   1.183   5.973
 8985SOL    HW228556   5.891   1.022   5.996
 8986SOL     OW28557   6.127   0.488   6.455
 8986SOL    HW128558   6.134   0.541   6.371
 8986SOL    HW228559   6.198   0.517   6.520
 8987SOL     OW28560   6.848   1.405   6.044
 8987SOL    HW128561   6.895   1.491   6.063
 8987SOL    HW228562   6.749   1.421   6.042
 8988SOL     OW28563   6.843   1.553   6.762
 8988SOL    HW128564   6.935   1.531   6.792
 8988SOL    HW228565   6.803   1.474   6.715
 8989SOL     OW28566   5.940   1.536   6.855
 8989SOL    HW128567   5.937   1.465   6.785
 8989SOL    HW228568   6.022   1.591   6.843
 8990SOL     OW28569   6.213   0.872   6.643
 8990SOL    HW128570   6.263   0.958   6.630
 8990SOL    HW228571   6.154   0.880   6.724
 8991SOL     OW28572   6.893   0.810   6.592
 8991SOL    HW128573   6.800   0.777   6.578
 8991SOL    HW228574   6.940   0.751   6.657
 8992SOL     OW28575   6.783   0.621   5.861
 8992SOL    HW128576   6.813   0.535   5.901
 8992SOL    HW228577   6.710   0.660   5.916
 8993SOL     OW28578   5.842   0.253   6.837
 8993SOL    HW128579   5.778   0.270   6.911
 8993SOL    HW228580   5.840   0.157   6.811
 8994SOL     OW28581   5.558   1.238   6.849
 8994SOL    HW128582   5.612   1.157   6.869
 8994SOL    HW228583   5.605   1.319   6.884
 8995SOL     OW28584   6.302   0.603   6.629
 8995SOL    HW128585   6.382   0.582   6.573
 8995SOL    HW228586   6.285   0.702   6.626
 8996SOL     OW28587   5.973   0.097   6.277
 8996SOL    HW128588   5.915   0.178   6.282
 8996SOL    HW228589   5.916   0.015   6.278
 8997SOL     OW28590   0.146   0.526   5.911
 8997SOL    HW128591   0.107   0.436   5.893
 8997SOL    HW228592   0.119   0.556   6.003
 8998SOL     OW28593   6.621   0.732   6.533
 8998SOL    HW128594   6.608   0.745   6.632
 8998SOL    HW228595   6.587   0.642   6.507
 8999SOL     OW28596   6.963   0.809   5.564
 8999SOL    HW128597   0.014   0.789   5.647
 8999SOL    HW228598   0.023   0.853   5.497
 9000SOL     OW28599   6.631   1.373   6.392
 9000SOL    HW128600   6.657   1.284   6.352
 9000SOL    HW228601   6.687   1.445   6.351
 9001SOL     OW28602   5.959   0.830   6.538
 9001SOL    HW128603   6.056   0.851   6.553
 9001SOL    HW228604   5.939   0.739   6.575
 9002SOL     OW28605   5.934   0.572   6.630
 9002SOL    HW128606   5.858   0.507   6.623
 9002SOL    HW228607   6.007   0.545   6.567
 9003SOL     OW28608   6.969   0.298   0.016
 9003SOL    HW128609   6.979   0.283   0.115
 9003SOL    HW228610   6.873   0.314   6.994
 9004SOL     OW28611   5.609   1.271   5.783
 9004SOL    HW128612   5.520   1.313   5.765
 9004SOL    HW228613   5.597   1.177   5.814
 9005SOL     OW28614   5.678   1.771   6.557
 9005SOL    HW128615   5.632   1.700   6.504
 9005SOL    HW228616   5.775   1.773   6.532
 9006SOL     OW28617   6.070   1.523   6.481
 9006SOL    HW128618   6.145   1.583   6.508
 9006SOL    HW228619   6.100   1.462   6.408
 9007SOL     OW28620   6.600   0.767   6.800
 9007SOL    HW128621   6.579   0.856   6.843
 9007SOL    HW228622   6.616   0.699   6.872
 9008SOL     OW28623   5.582   0.591   6.544
 9008SOL    HW128624   5.644   0.514   6.561
 9008SOL    HW228625   5.632   0.665   6.498
 9009SOL     OW28626   6.374   0.574   5.956
 9009SOL    HW128627   6.400   0.505   5.889
 9009SOL    HW228628   6.287   0.616   5.929
 9010SOL     OW28629   6.263   0.463   6.858
 9010SOL    HW128630   6.203   0.386   6.836
 9010SOL    HW228631   6.276   0.519   6.776
 9011SOL     OW28632   6.466   1.524   0.004
 9011SOL    HW128633   6.443   1.512   6.907
 9011SOL    HW228634   6.562   1.548   0.013
 9012SOL     OW28635   6.008   0.466   5.755
 9012SOL    HW128636   6.078   0.533   5.781
 9012SOL    HW228637   5.917   0.506   5.767
 9013SOL     OW28638   5.734   1.093   0.132
 9013SOL    HW128639   5.793   1.030   0.181
 9013SOL    HW228640   5.727   1.065   0.036
 9014SOL     OW28641   6.888   1.014   6.794
 9014SOL    HW128642   6.888   0.956   6.713
 9014SOL    HW228643   6.960   1.084   6.785
 9015SOL     OW28644   6.907   0.864   5.941
 9015SOL    HW128645   6.880   0.873   6.036
 9015SOL    HW228646   6.872   0.778   5.904
 9016SOL     OW28647   6.899   1.796   6.652
 9016SOL    HW128648   6.984   1.782   6.602
 9016SOL    HW228649   6.872   1.711   6.697
 9017SOL     OW28650   5.703   1.209   6.602
 9017SOL    HW128651   5.653   1.238   6.684
 9017SOL    HW228652   5.645   1.150   6.546
 9018SOL     OW28653   0.001   1.637   6.081
 9018SOL    HW128654   0.088   1.681   6.060
 9018SOL    HW228655   6.928   1.705   6.075
 9019SOL     OW28656   6.894   0.956   6.223
 9019SOL    HW128657   6.962   0.903   6.275
 9019SOL    HW228658   6.936   1.041   6.191
 9020SOL     OW28659   6.235   1.637   5.752
 9020SOL    HW128660   6.261   1.658   5.658
 9020SOL    HW228661   6.182   1.552   5.754
 9021SOL     OW28662   5.818   0.321   6.318
 9021SOL    HW128663   5.733   0.360   6.283
 9021SOL    HW228664   5.823   0.337   6.417
 9022SOL     OW28665   6.740   1.585   5.582
 9022SOL    HW128666   6.746   1.496   5.536
 9022SOL    HW228667   6.679   1.645   5.530
 9023SOL     OW28668   6.308   1.028   0.009
 9023SOL    HW128669   6.401   0.994   6.998
 9023SOL    HW228670   6.311   1.126   0.029
 9024SOL     OW28671   6.548   0.909   5.801
 9024SOL    HW128672   6.631   0.953   5.765
 9024SOL    HW228673   6.573   0.849   5.877
 9025SOL     OW28674   6.684   1.117   6.322
 9025SOL    HW128675   6.608   1.062   6.355
 9025SOL    HW228676   6.754   1.058   6.284
 9026SOL     OW28677   6.561   0.209   6.517
 9026SOL    HW128678   6.575   0.138   6.448
 9026SOL    HW228679   6.505   0.172   6.592
 9027SOL     OW28680   6.184   1.466   6.038
 9027SOL    HW128681   6.228   1.414   5.965
 9027SOL    HW228682   6.086   1.470   6.022
 9028SOL     OW28683   5.866   1.324   5.871
 9028SOL    HW128684   5.772   1.311   5.839
 9028SOL    HW228685   5.867   1.386   5.949
 9029SOL     OW28686   5.671   0.354   5.586
 9029SOL    HW128687   5.585   0.343   5.535
 9029SOL    HW228688   5.711   0.443   5.564
 9030SOL     OW28689   5.656   0.150   5.825
 9030SOL    HW128690   5.659   0.214   5.748
 9030SOL    HW228691   5.630   0.060   5.791
 9031SOL     OW28692   5.972   1.771   0.116
 9031SOL    HW128693   5.943   1.800   0.207
 9031SOL    HW228694   5.989   1.673   0.116
 9032SOL     OW28695   6.848   0.382   5.984
 9032SOL    HW128696   6.916   0.332   5.930
 9032SOL    HW228697   6.881   0.390   6.078
 9033SOL     OW28698   6.166   0.681   6.257
 9033SOL    HW128699   6.222   0.763   6.241
 9033SOL    HW228700   6.092   0.677   6.190
 9034SOL     OW28701   6.373   1.243   5.613
 9034SOL    HW128702   6.371   1.275   5.707
 9034SOL    HW228703   6.343   1.317   5.552
 9035SOL     OW28704   6.266   1.708   6.520
 9035SOL    HW128705   6.234   1.801   6.540
 9035SOL    HW228706   6.365   1.710   6.503
 9036SOL     OW28707   6.479   0.966   6.438
 9036SOL    HW128708   6.521   0.883   6.473
 9036SOL    HW228709   6.432   1.014   6.512
 9037SOL     OW28710   6.770   1.010   5.637
 9037SOL    HW128711   6.705   1.051   5.573
 9037SOL    HW228712   6.806   0.925   5.598
 9038SOL     OW28713   5.783   1.256   6.246
 9038SOL    HW128714   5.811   1.211   6.331
 9038SOL    HW228715   5.814   1.201   6.168
 9039SOL     OW28716   5.954   0.389   6.085
 9039SOL    HW128717   5.997   0.312   6.039
 9039SOL    HW228718   5.912   0.358   6.170
 9040SOL     OW28719   5.971   0.637   6.900
 9040SOL    HW128720   6.025   0.565   6.942
 9040SOL    HW228721   5.956   0.616   6.803
 9041SOL     OW28722   6.381   1.564   6.227
 9041SOL    HW128723   6.331   1.581   6.142
 9041SOL    HW228724   6.331   1.497   6.282
 9042SOL     OW28725   6.924   0.288   6.722
 9042SOL    HW128726   6.957   0.210   6.776
 9042SOL    HW228727   6.855   0.338   6.775
 9043SOL     OW28728   6.404   0.050   6.727
 9043SOL    HW128729   6.314   0.011   6.711
 9043SOL    HW228730   6.454   6.994   6.793
 9044SOL     OW28731   6.374   1.304   5.890
 9044SOL    HW128732   6.362   1.209   5.917
 9044SOL    HW228733   6.453   1.342   5.938
 9045SOL     OW28734   6.169   1.669   6.827
 9045SOL    HW128735   6.201   1.751   6.874
 9045SOL    HW228736   6.247   1.619   6.790
 9046SOL     OW28737   5.607   1.009   5.895
 9046SOL    HW128738   5.702   0.990   5.872
 9046SOL    HW228739   5.561   0.924   5.920
 9047SOL     OW28740   6.461   1.687   5.906
 9047SOL    HW128741   6.379   1.660   5.854
 9047SOL    HW228742   6.440   1.767   5.962
 9048SOL     OW28743   5.812   2.535   0.112
 9048SOL    HW128744   5.717   2.503   0.121
 9048SOL    HW228745   5.843   2.521   0.018
 9049SOL     OW28746   5.786   2.161   1.000
 9049SOL    HW128747   5.836   2.125   1.079
 9049SOL    HW228748   5.697   2.115   0.992
 9050SOL     OW28749   5.577   2.282   0.636
 9050SOL    HW128750   5.499   2.310   0.692
 9050SOL    HW228751   5.547   2.214   0.569
 9051SOL     OW28752   6.161   3.178   1.254
 9051SOL    HW128753   6.079   3.170   1.198
 9051SOL    HW228754   6.179   3.274   1.274
 9052SOL     OW28755   0.024   3.422   0.771
 9052SOL    HW128756   0.058   3.329   0.777
 9052SOL    HW228757   0.020   3.450   0.675
 9053SOL     OW28758   6.710   2.658   0.651
 9053SOL    HW128759   6.781   2.727   0.664
 9053SOL    HW228760   6.668   2.635   0.739
 9054SOL     OW28761   6.302   3.000   1.070
 9054SOL    HW128762   6.257   3.028   1.155
 9054SOL    HW228763   6.333   3.081   1.020
 9055SOL     OW28764   6.450   2.581   1.864
 9055SOL    HW128765   6.442   2.625   1.954
 9055SOL    HW228766   6.490   2.646   1.799
 9056SOL     OW28767   6.296   2.804   0.690
 9056SOL    HW128768   6.368   2.819   0.758
 9056SOL    HW228769   6.225   2.873   0.701
 9057SOL     OW28770   6.177   2.965   1.850
 9057SOL    HW128771   6.273   2.991   1.854
 9057SOL    HW228772   6.123   3.041   1.815
 9058SOL     OW28773   5.935   3.228   1.093
 9058SOL    HW128774   5.862   3.172   1.054
 9058SOL    HW228775   5.973   3.287   1.021
 9059SOL     OW28776   6.068   2.247   1.461
 9059SOL    HW128777   6.143   2.213   1.517
 9059SOL    HW228778   5.985   2.194   1.481
 9060SOL     OW28779   5.819   3.539   0.497
 9060SOL    HW128780   5.828   3.610   0.567
 9060SOL    HW228781   5.903   3.533   0.444
 9061SOL     OW28782   6.747   3.237   1.683
 9061SOL    HW128783   6.826   3.195   1.641
 9061SOL    HW228784   6.693   3.168   1.731
 9062SOL     OW28785   5.746   3.269   0.442
 9062SOL    HW128786   5.767   3.360   0.478
 9062SOL    HW228787   5.727   3.207   0.517
 9063SOL     OW28788   5.870   2.944   0.831
 9063SOL    HW128789   5.884   2.849   0.859
 9063SOL    HW228790   5.820   2.993   0.904
 9064SOL     OW28791   6.155   3.698   1.427
 9064SOL    HW128792   6.078   3.677   1.487
 9064SOL    HW228793   6.208   3.772   1.466
 9065SOL     OW28794   6.146   2.823   0.214
 9065SOL    HW128795   6.207   2.854   0.141
 9065SOL    HW228796   6.175   2.863   0.300
 9066SOL     OW28797   5.692   2.529   0.563
 9066SOL    HW128798   5.661   2.437   0.585
 9066SOL    HW228799   5.687   2.587   0.644
 9067SOL     OW28800   5.576   3.436   0.127
 9067SOL    HW128801   5.512   3.361   0.138
 9067SOL    HW228802   5.592   3.479   0.216
 9068SOL     OW28803   5.679   2.653   1.515
 9068SOL    HW128804   5.736   2.701   1.448
 9068SOL    HW228805   5.591   2.699   1.523
 9069SOL     OW28806   6.193   3.245   0.741
 9069SOL    HW128807   6.166   3.148   0.740
 9069SOL    HW228808   6.177   3.284   0.650
 9070SOL     OW28809   6.725   2.987   1.440
 9070SOL    HW128810   6.759   2.949   1.354
 9070SOL    HW228811   6.802   3.010   1.499
 9071SOL     OW28812   6.382   1.909   0.501
 9071SOL    HW128813   6.419   2.001   0.485
 9071SOL    HW228814   6.283   1.915   0.511
 9072SOL     OW28815   5.807   2.795   1.316
 9072SOL    HW128816   5.902   2.766   1.307
 9072SOL    HW228817   5.763   2.795   1.226
 9073SOL     OW28818   6.833   3.716   1.602
 9073SOL    HW128819   6.799   3.783   1.536
 9073SOL    HW228820   6.828   3.625   1.562
 9074SOL     OW28821   5.939   2.155   1.882
 9074SOL    HW128822   5.975   2.231   1.936
 9074SOL    HW228823   5.858   2.186   1.832
 9075SOL     OW28824   6.166   2.565   0.309
 9075SOL    HW128825   6.165   2.657   0.270
 9075SOL    HW228826   6.097   2.559   0.380
 9076SOL     OW28827   6.416   2.472   1.446
 9076SOL    HW128828   6.374   2.442   1.531
 9076SOL    HW228829   6.391   2.409   1.372
 9077SOL     OW28830   6.582   2.761   1.696
 9077SOL    HW128831   6.624   2.679   1.657
 9077SOL    HW228832   6.530   2.809   1.625
 9078SOL     OW28833   6.636   2.345   1.237
 9078SOL    HW128834   6.635   2.445   1.247
 9078SOL    HW228835   6.543   2.312   1.229
 9079SOL     OW28836   6.659   2.611   0.391
 9079SOL    HW128837   6.679   2.628   0.488
 9079SOL    HW228838   6.570   2.565   0.383
 9080SOL     OW28839   5.673   2.695   0.784
 9080SOL    HW128840   5.765   2.683   0.823
 9080SOL    HW228841   5.623   2.762   0.839
 9081SOL     OW28842   5.702   3.764   1.604
 9081SOL    HW128843   5.695   3.723   1.696
 9081SOL    HW228844   5.618   3.747   1.554
 9082SOL     OW28845   6.466   2.264   0.185
 9082SOL    HW128846   6.467   2.329   0.109
 9082SOL    HW228847   6.536   2.194   0.170
 9083SOL     OW28848   0.014   3.043   0.531
 9083SOL    HW128849   0.045   2.996   0.449
 9083SOL    HW228850   6.947   3.113   0.506
 9084SOL     OW28851   6.106   2.064   0.932
 9084SOL    HW128852   6.138   2.075   1.026
 9084SOL    HW228853   6.106   2.153   0.886
 9085SOL     OW28854   6.579   3.305   0.495
 9085SOL    HW128855   6.536   3.386   0.454
 9085SOL    HW228856   6.558   3.302   0.592
 9086SOL     OW28857   5.925   3.650   0.934
 9086SOL    HW128858   5.967   3.560   0.925
 9086SOL    HW228859   5.997   3.720   0.942
 9087SOL     OW28860   6.833   3.462   1.499
 9087SOL    HW128861   6.794   3.385   1.551
 9087SOL    HW228862   6.818   3.447   1.402
 9088SOL     OW28863   5.870   2.787   0.212
 9088SOL    HW128864   5.969   2.802   0.217
 9088SOL    HW228865   5.852   2.694   0.180
 9089SOL     OW28866   6.025   3.183   1.764
 9089SOL    HW128867   6.012   3.188   1.665
 9089SOL    HW228868   5.936   3.174   1.809
 9090SOL     OW28869   6.662   3.614   0.270
 9090SOL    HW128870   6.581   3.570   0.309
 9090SOL    HW228871   6.690   3.564   0.187
 9091SOL     OW28872   5.820   2.126   1.490
 9091SOL    HW128873   5.777   2.209   1.525
 9091SOL    HW228874   5.771   2.046   1.523
 9092SOL     OW28875   0.341   3.142   0.021
 9092SOL    HW128876   0.331   3.207   6.945
 9092SOL    HW228877   0.272   3.070   0.012
 9093SOL     OW28878   6.064   3.567   0.367
 9093SOL    HW128879   6.086   3.649   0.420
 9093SOL    HW228880   6.136   3.551   0.299
 9094SOL     OW28881   5.828   3.652   1.202
 9094SOL    HW128882   5.865   3.571   1.247
 9094SOL    HW228883   5.853   3.651   1.105
 9095SOL     OW28884   6.524   3.578   0.879
 9095SOL    HW128885   6.618   3.543   0.872
 9095SOL    HW228886   6.465   3.528   0.816
 9096SOL     OW28887   5.966   2.534   0.493
 9096SOL    HW128888   5.977   2.435   0.502
 9096SOL    HW228889   5.870   2.559   0.507
 9097SOL     OW28890   6.278   2.111   1.670
 9097SOL    HW128891   6.357   2.080   1.724
 9097SOL    HW228892   6.196   2.061   1.698
 9098SOL     OW28893   6.432   3.384   1.194
 9098SOL    HW128894   6.405   3.347   1.105
 9098SOL    HW228895   6.487   3.316   1.243
 9099SOL     OW28896   6.377   3.240   0.955
 9099SOL    HW128897   6.470   3.247   0.919
 9099SOL    HW228898   6.311   3.246   0.879
 9100SOL     OW28899   6.526   2.426   0.885
 9100SOL    HW128900   6.502   2.412   0.789
 9100SOL    HW228901   6.560   2.340   0.923
 9101SOL     OW28902   6.108   1.927   0.485
 9101SOL    HW128903   6.034   1.924   0.552
 9101SOL    HW228904   6.091   2.001   0.420
 9102SOL     OW28905   6.489   2.152   0.446
 9102SOL    HW128906   6.466   2.193   0.358
 9102SOL    HW228907   6.588   2.160   0.462
 9103SOL     OW28908   6.666   2.527   1.593
 9103SOL    HW128909   6.596   2.480   1.540
 9103SOL    HW228910   6.724   2.460   1.639
 9104SOL     OW28911   6.755   3.474   0.763
 9104SOL    HW128912   6.748   3.529   0.679
 9104SOL    HW228913   6.852   3.456   0.782
 9105SOL     OW28914   6.098   2.993   0.694
 9105SOL    HW128915   6.017   2.977   0.750
 9105SOL    HW228916   6.071   2.995   0.597
 9106SOL     OW28917   6.750   3.645   0.536
 9106SOL    HW128918   6.721   3.645   0.441
 9106SOL    HW228919   6.699   3.715   0.586
 9107SOL     OW28920   6.725   2.481   0.027
 9107SOL    HW128921   6.627   2.478   0.008
 9107SOL    HW228922   6.742   2.448   0.120
 9108SOL     OW28923   5.710   2.410   1.392
 9108SOL    HW128924   5.805   2.412   1.363
 9108SOL    HW228925   5.689   2.491   1.447
 9109SOL     OW28926   6.166   2.103   1.199
 9109SOL    HW128927   6.210   2.056   1.276
 9109SOL    HW228928   6.066   2.097   1.210
 9110SOL     OW28929   6.470   2.368   0.627
 9110SOL    HW128930   6.443   2.436   0.558
 9110SOL    HW228931   6.464   2.277   0.587
 9111SOL     OW28932   6.565   1.829   0.695
 9111SOL    HW128933   6.495   1.870   0.637
 9111SOL    HW228934   6.546   1.731   0.705
 9112SOL     OW28935   6.036   3.350   0.130
 9112SOL    HW128936   5.989   3.277   0.179
 9112SOL    HW228937   6.017   3.342   0.032
 9113SOL     OW28938   6.072   2.122   0.297
 9113SOL    HW128939   6.155   2.086   0.254
 9113SOL    HW228940   6.046   2.207   0.252
 9114SOL     OW28941   6.562   3.183   1.334
 9114SOL    HW128942   6.474   3.173   1.382
 9114SOL    HW228943   6.629   3.122   1.375
 9115SOL     OW28944   6.735   3.169   1.116
 9115SOL    HW128945   6.664   3.174   1.186
 9115SOL    HW228946   6.697   3.197   1.028
 9116SOL     OW28947   6.668   2.990   1.824
 9116SOL    HW128948   6.584   3.031   1.858
 9116SOL    HW228949   6.646   2.905   1.776
 9117SOL     OW28950   6.306   2.906   0.429
 9117SOL    HW128951   6.305   2.862   0.519
 9117SOL    HW228952   6.383   2.871   0.376
 9118SOL     OW28953   6.057   2.689   1.286
 9118SOL    HW128954   6.131   2.701   1.351
 9118SOL    HW228955   6.025   2.594   1.289
 9119SOL     OW28956   6.912   2.314   1.242
 9119SOL    HW128957   6.950   2.373   1.313
 9119SOL    HW228958   6.812   2.320   1.244
 9120SOL     OW28959   5.642   3.410   1.338
 9120SOL    HW128960   5.597   3.473   1.274
 9120SOL    HW228961   5.741   3.422   1.333
 9121SOL     OW28962   5.974   2.993   0.449
 9121SOL    HW128963   5.967   3.055   0.371
 9121SOL    HW228964   5.890   2.940   0.458
 9122SOL     OW28965   6.126   2.351   0.873
 9122SOL    HW128966   6.132   2.407   0.791
 9122SOL    HW228967   6.193   2.385   0.940
 9123SOL     OW28968   6.850   3.250   0.453
 9123SOL    HW128969   6.896   3.337   0.473
 9123SOL    HW228970   6.752   3.261   0.465
 9124SOL     OW28971   6.857   3.405   1.222
 9124SOL    HW128972   6.946   3.384   1.261
 9124SOL    HW228973   6.820   3.323   1.178
 9125SOL     OW28974   5.919   3.405   1.298
 9125SOL    HW128975   5.914   3.338   1.224
 9125SOL    HW228976   6.015   3.430   1.313
 9126SOL     OW28977   6.084   2.578   1.645
 9126SOL    HW128978   6.130   2.637   1.579
 9126SOL    HW228979   6.144   2.502   1.670
 9127SOL     OW28980   6.476   2.000   1.827
 9127SOL    HW128981   6.550   2.049   1.782
 9127SOL    HW228982   6.512   1.915   1.867
 9128SOL     OW28983   6.067   1.950   1.759
 9128SOL    HW128984   6.004   1.885   1.716
 9128SOL    HW228985   6.015   2.026   1.798
 9129SOL     OW28986   6.168   2.747   1.041
 9129SOL    HW128987   6.213   2.837   1.039
 9129SOL    HW228988   6.126   2.732   1.130
 9130SOL     OW28989   6.907   2.699   1.028
 9130SOL    HW128990   6.810   2.678   1.011
 9130SOL    HW228991   6.956   2.615   1.051
 9131SOL     OW28992   6.768   2.384   0.281
 9131SOL    HW128993   6.761   2.314   0.352
 9131SOL    HW228994   6.744   2.473   0.320
 9132SOL     OW28995   5.897   2.058   1.232
 9132SOL    HW128996   5.867   2.093   1.322
 9132SOL    HW228997   5.869   1.963   1.223
 9133SOL     OW28998   5.649   3.146   1.266
 9133SOL    HW128999   5.680   3.094   1.346
 9133SOL    HW229000   5.638   3.242   1.291
 9134SOL     OW29001   6.300   2.496   1.033
 9134SOL    HW129002   6.377   2.489   0.970
 9134SOL    HW229003   6.259   2.588   1.025
 9135SOL     OW29004   5.887   1.908   0.649
 9135SOL    HW129005   5.851   2.001   0.661
 9135SOL    HW229006   5.906   1.868   0.739
 9136SOL     OW29007   0.145   2.355   0.423
 9136SOL    HW129008   0.238   2.323   0.436
 9136SOL    HW229009   0.109   2.390   0.510
 9137SOL     OW29010   6.632   2.646   1.005
 9137SOL    HW129011   6.617   2.640   1.103
 9137SOL    HW229012   6.597   2.563   0.960
 9138SOL     OW29013   6.548   3.476   1.653
 9138SOL    HW129014   6.538   3.512   1.560
 9138SOL    HW229015   6.589   3.385   1.649
 9139SOL     OW29016   5.966   2.796   1.774
 9139SOL    HW129017   6.043   2.853   1.804
 9139SOL    HW229018   6.001   2.712   1.734
 9140SOL     OW29019   6.820   2.737   0.008
 9140SOL    HW129020   6.798   2.640   6.996
 9140SOL    HW229021   6.831   2.781   6.919
 9141SOL     OW29022   6.634   3.251   0.870
 9141SOL    HW129023   6.664   3.164   0.831
 9141SOL    HW229024   6.682   3.327   0.825
 9142SOL     OW29025   5.917   2.681   0.924
 9142SOL    HW129026   6.011   2.706   0.945
 9142SOL    HW229027   5.901   2.586   0.951
 9143SOL     OW29028   5.893   2.408   1.002
 9143SOL    HW129029   5.841   2.323   1.000
 9143SOL    HW229030   5.978   2.396   0.951
 9144SOL     OW29031   5.646   3.639   0.933
 9144SOL    HW129032   5.611   3.559   0.883
 9144SOL    HW229033   5.745   3.644   0.923
 9145SOL     OW29034   6.062   3.408   0.922
 9145SOL    HW129035   6.136   3.468   0.952
 9145SOL    HW229036   6.095   3.347   0.851
 9146SOL     OW29037   6.601   2.616   1.278
 9146SOL    HW129038   6.658   2.687   1.320
 9146SOL    HW229039   6.531   2.587   1.343
 9147SOL     OW29040   5.636   2.475   1.131
 9147SOL    HW129041   5.718   2.467   1.074
 9147SOL    HW229042   5.659   2.449   1.225
 9148SOL     OW29043   5.816   2.516   1.712
 9148SOL    HW129044   5.913   2.526   1.688
 9148SOL    HW229045   5.761   2.571   1.651
 9149SOL     OW29046   6.422   2.479   0.364
 9149SOL    HW129047   6.434   2.400   0.304
 9149SOL    HW229048   6.330   2.516   0.352
 9150SOL     OW29049   5.792   3.413   1.704
 9150SOL    HW129050   5.767   3.489   1.764
 9150SOL    HW229051   5.791   3.328   1.757
 9151SOL     OW29052   6.354   2.313   1.228
 9151SOL    HW129053   6.291   2.236   1.219
 9151SOL    HW229054   6.332   2.382   1.159
 9152SOL     OW29055   6.508   3.563   1.400
 9152SOL    HW129056   6.486   3.511   1.318
 9152SOL    HW229057   6.510   3.660   1.378
 9153SOL     OW29058   6.022   2.365   0.182
 9153SOL    HW129059   6.090   2.426   0.223
 9153SOL    HW229060   5.937   2.416   0.166
 9154SOL     OW29061   5.733   2.999   1.484
 9154SOL    HW129062   5.733   2.968   1.579
 9154SOL    HW229063   5.764   2.925   1.424
 9155SOL     OW29064   6.803   2.901   1.197
 9155SOL    HW129065   6.850   2.839   1.135
 9155SOL    HW229066   6.793   2.991   1.153
 9156SOL     OW29067   6.869   2.758   0.275
 9156SOL    HW129068   6.799   2.706   0.324
 9156SOL    HW229069   6.853   2.751   0.177
 9157SOL     OW29070   6.878   3.659   1.099
 9157SOL    HW129071   6.961   3.644   1.045
 9157SOL    HW229072   6.857   3.576   1.152
 9158SOL     OW29073   5.715   3.064   1.018
 9158SOL    HW129074   5.686   3.095   1.109
 9158SOL    HW229075   5.641   3.014   0.974
 9159SOL     OW29076   6.311   3.549   1.765
 9159SOL    HW129077   6.267   3.627   1.722
 9159SOL    HW229078   6.402   3.535   1.726
 9160SOL     OW29079   6.634   2.051   0.166
 9160SOL    HW129080   6.719   2.095   0.134
 9160SOL    HW229081   6.653   1.956   0.189
 9161SOL     OW29082   6.978   3.493   0.510
 9161SOL    HW129083   0.059   3.540   0.476
 9161SOL    HW229084   6.901   3.557   0.515
 9162SOL     OW29085   5.713   3.636   1.846
 9162SOL    HW129086   5.665   3.566   1.898
 9162SOL    HW229087   5.771   3.689   1.908
 9163SOL     OW29088   6.904   2.847   0.692
 9163SOL    HW129089   6.975   2.785   0.725
 9163SOL    HW229090   6.945   2.915   0.630
 9164SOL     OW29091   6.330   3.137   1.475
 9164SOL    HW129092   6.309   3.189   1.558
 9164SOL    HW229093   6.254   3.144   1.410
 9165SOL     OW29094   6.269   3.477   0.196
 9165SOL    HW129095   6.341   3.465   0.128
 9165SOL    HW229096   6.190   3.420   0.171
 9166SOL     OW29097   5.810   2.160   0.718
 9166SOL    HW129098   5.727   2.210   0.689
 9166SOL    HW229099   5.817   2.163   0.817
 9167SOL     OW29100   6.747   3.470   0.044
 9167SOL    HW129101   6.833   3.451   0.090
 9167SOL    HW229102   6.758   3.456   6.945
 9168SOL     OW29103   6.466   2.900   1.490
 9168SOL    HW129104   6.560   2.925   1.466
 9168SOL    HW229105   6.408   2.981   1.489
 9169SOL     OW29106   6.511   2.820   0.282
 9169SOL    HW129107   6.542   2.852   0.192
 9169SOL    HW229108   6.574   2.751   0.317
 9170SOL     OW29109   5.946   3.192   1.505
 9170SOL    HW129110   5.932   3.268   1.442
 9170SOL    HW229111   5.874   3.124   1.491
 9171SOL     OW29112   6.701   3.002   0.796
 9171SOL    HW129113   6.621   2.947   0.821
 9171SOL    HW229114   6.771   2.943   0.755
 9172SOL     OW29115   6.176   3.344   0.495
 9172SOL    HW129116   6.226   3.283   0.434
 9172SOL    HW229117   6.122   3.408   0.441
 9173SOL     OW29118   5.877   3.153   0.235
 9173SOL    HW129119   5.818   3.100   0.174
 9173SOL    HW229120   5.822   3.197   0.306
 9174SOL     OW29121   5.720   2.917   1.741
 9174SOL    HW129122   5.640   2.882   1.790
 9174SOL    HW229123   5.800   2.861   1.763
 9175SOL     OW29124   6.281   1.986   1.420
 9175SOL    HW129125   6.367   1.961   1.377
 9175SOL    HW229126   6.299   2.036   1.505
 9176SOL     OW29127   5.664   2.280   6.940
 9176SOL    HW129128   5.603   2.206   6.912
 9176SOL    HW229129   5.620   2.335   0.011
 9177SOL     OW29130   5.634   1.993   0.265
 9177SOL    HW129131   5.707   2.061   0.260
 9177SOL    HW229132   5.617   1.956   0.173
 9178SOL     OW29133   6.265   2.703   1.463
 9178SOL    HW129134   6.327   2.782   1.473
 9178SOL    HW229135   6.319   2.620   1.454
 9179SOL     OW29136   6.303   2.403   1.686
 9179SOL    HW129137   6.350   2.450   1.761
 9179SOL    HW229138   6.301   2.305   1.703
 9180SOL     OW29139   6.945   3.062   1.598
 9180SOL    HW129140   6.951   3.022   1.689
 9180SOL    HW229141   0.026   3.038   1.545
 9181SOL     OW29142   5.947   3.632   1.599
 9181SOL    HW129143   5.865   3.688   1.587
 9181SOL    HW229144   5.920   3.539   1.622
 9182SOL     OW29145   6.751   2.207   0.490
 9182SOL    HW129146   6.836   2.157   0.471
 9182SOL    HW229147   6.754   2.241   0.585
 9183SOL     OW29148   6.157   2.559   0.694
 9183SOL    HW129149   6.212   2.643   0.690
 9183SOL    HW229150   6.088   2.561   0.621
 9184SOL     OW29151   6.326   3.177   0.095
 9184SOL    HW129152   6.326   3.174   0.195
 9184SOL    HW229153   6.380   3.255   0.063
 9185SOL     OW29154   6.254   3.592   0.971
 9185SOL    HW129155   6.221   3.685   0.958
 9185SOL    HW229156   6.353   3.590   0.961
 9186SOL     OW29157   6.483   2.856   0.898
 9186SOL    HW129158   6.536   2.783   0.941
 9186SOL    HW229159   6.425   2.900   0.966
 9187SOL     OW29160   6.599   2.894   0.031
 9187SOL    HW129161   6.635   2.987   0.021
 9187SOL    HW229162   6.675   2.829   0.026
 9188SOL     OW29163   5.765   3.168   1.837
 9188SOL    HW129164   5.749   3.079   1.792
 9188SOL    HW229165   5.704   3.177   1.916
 9189SOL     OW29166   5.689   3.059   0.623
 9189SOL    HW129167   5.749   3.031   0.698
 9189SOL    HW229168   5.693   2.992   0.549
 9190SOL     OW29169   6.280   3.273   1.721
 9190SOL    HW129170   6.184   3.249   1.736
 9190SOL    HW229171   6.291   3.372   1.730
 9191SOL     OW29172   5.977   2.269   0.521
 9191SOL    HW129173   6.010   2.203   0.453
 9191SOL    HW229174   5.928   2.220   0.593
 9192SOL     OW29175   5.963   2.431   1.287
 9192SOL    HW129176   6.014   2.363   1.340
 9192SOL    HW229177   5.961   2.402   1.191
 9193SOL     OW29178   6.392   3.444   0.685
 9193SOL    HW129179   6.384   3.471   0.590
 9193SOL    HW229180   6.319   3.379   0.708
 9194SOL     OW29181   0.041   2.092   1.135
 9194SOL    HW129182   0.074   2.037   1.211
 9194SOL    HW229183   6.995   2.174   1.170
 9195SOL     OW29184   6.351   3.170   0.369
 9195SOL    HW129185   6.328   3.076   0.394
 9195SOL    HW229186   6.441   3.192   0.405
 9196SOL     OW29187   6.190   3.452   1.308
 9196SOL    HW129188   6.187   3.542   1.352
 9196SOL    HW229189   6.278   3.441   1.262
 9197SOL     OW29190   5.715   2.867   0.424
 9197SOL    HW129191   5.772   2.836   0.347
 9197SOL    HW229192   5.630   2.814   0.426
 9198SOL     OW29193   6.435   3.530   0.408
 9198SOL    HW129194   6.370   3.504   0.337
 9198SOL    HW229195   6.415   3.623   0.439
 9199SOL     OW29196   5.794   2.530   1.991
 9199SOL    HW129197   5.707   2.488   2.016
 9199SOL    HW229198   5.801   2.537   1.892
 9200SOL     OW29199   5.783   2.172   2.870
 9200SOL    HW129200   5.836   2.140   2.948
 9200SOL    HW229201   5.695   2.125   2.868
 9201SOL     OW29202   5.552   2.295   2.510
 9201SOL    HW129203   5.465   2.319   2.552
 9201SOL    HW229204   5.538   2.220   2.444
 9202SOL     OW29205   6.144   3.182   3.074
 9202SOL    HW129206   6.061   3.181   3.017
 9202SOL    HW229207   6.166   3.276   3.098
 9203SOL     OW29208   0.049   3.370   2.616
 9203SOL    HW129209   0.094   3.281   2.603
 9203SOL    HW229210   0.041   3.416   2.528
 9204SOL     OW29211   6.663   2.647   2.536
 9204SOL    HW129212   6.735   2.715   2.521
 9204SOL    HW229213   6.645   2.638   2.634
 9205SOL     OW29214   6.300   3.003   2.921
 9205SOL    HW129215   6.240   3.041   2.991
 9205SOL    HW229216   6.340   3.077   2.867
 9206SOL     OW29217   6.468   2.594   3.704
 9206SOL    HW129218   6.469   2.653   3.785
 9206SOL    HW229219   6.481   2.650   3.622
 9207SOL     OW29220   6.283   2.840   2.510
 9207SOL    HW129221   6.349   2.842   2.585
 9207SOL    HW229222   6.210   2.907   2.528
 9208SOL     OW29223   6.248   2.991   3.686
 9208SOL    HW129224   6.282   3.066   3.743
 9208SOL    HW229225   6.173   3.024   3.628
 9209SOL     OW29226   5.922   3.256   2.914
 9209SOL    HW129227   5.842   3.209   2.876
 9209SOL    HW229228   5.970   3.305   2.842
 9210SOL     OW29229   6.103   2.227   3.303
 9210SOL    HW129230   6.179   2.164   3.319
 9210SOL    HW229231   6.019   2.189   3.342
 9211SOL     OW29232   5.824   3.616   2.331
 9211SOL    HW129233   5.853   3.676   2.405
 9211SOL    HW229234   5.898   3.608   2.263
 9212SOL     OW29235   6.697   3.215   3.536
 9212SOL    HW129236   6.782   3.171   3.506
 9212SOL    HW229237   6.625   3.146   3.545
 9213SOL     OW29238   5.803   3.347   2.394
 9213SOL    HW129239   5.804   3.446   2.384
 9213SOL    HW229240   5.765   3.322   2.484
 9214SOL     OW29241   5.868   2.968   2.725
 9214SOL    HW129242   5.878   2.872   2.749
 9214SOL    HW229243   5.805   3.012   2.789
 9215SOL     OW29244   6.155   3.698   3.262
 9215SOL    HW129245   6.082   3.669   3.324
 9215SOL    HW229246   6.209   3.769   3.306
 9216SOL     OW29247   6.143   2.826   2.085
 9216SOL    HW129248   6.154   2.870   1.996
 9216SOL    HW229249   6.211   2.864   2.149
 9217SOL     OW29250   5.665   2.549   2.453
 9217SOL    HW129251   5.633   2.457   2.475
 9217SOL    HW229252   5.652   2.609   2.531
 9218SOL     OW29253   5.620   3.433   1.996
 9218SOL    HW129254   5.598   3.339   2.022
 9218SOL    HW229255   5.613   3.492   2.076
 9219SOL     OW29256   5.695   2.638   3.448
 9219SOL    HW129257   5.750   2.711   3.487
 9219SOL    HW229258   5.608   2.675   3.415
 9220SOL     OW29259   6.204   3.248   2.545
 9220SOL    HW129260   6.160   3.160   2.558
 9220SOL    HW229261   6.203   3.273   2.449
 9221SOL     OW29262   6.745   3.011   3.283
 9221SOL    HW129263   6.784   2.969   3.202
 9221SOL    HW229264   6.816   3.023   3.352
 9222SOL     OW29265   6.407   1.903   2.366
 9222SOL    HW129266   6.456   1.985   2.337
 9222SOL    HW229267   6.310   1.923   2.374
 9223SOL     OW29268   5.761   2.782   3.147
 9223SOL    HW129269   5.857   2.756   3.140
 9223SOL    HW229270   5.705   2.718   3.095
 9224SOL     OW29271   6.817   3.724   3.474
 9224SOL    HW129272   6.782   3.788   3.406
 9224SOL    HW229273   6.810   3.631   3.438
 9225SOL     OW29274   5.952   2.137   3.729
 9225SOL    HW129275   5.987   2.217   3.777
 9225SOL    HW229276   5.860   2.156   3.695
 9226SOL     OW29277   6.136   2.568   2.187
 9226SOL    HW129278   6.143   2.659   2.145
 9226SOL    HW229279   6.063   2.569   2.255
 9227SOL     OW29280   6.871   2.203   2.708
 9227SOL    HW129281   6.771   2.201   2.707
 9227SOL    HW229282   6.904   2.152   2.787
 9228SOL     OW29283   6.362   2.426   3.313
 9228SOL    HW129284   6.326   2.394   3.401
 9228SOL    HW229285   6.350   2.354   3.245
 9229SOL     OW29286   6.967   2.378   3.634
 9229SOL    HW129287   6.935   2.462   3.678
 9229SOL    HW229288   0.067   2.379   3.630
 9230SOL     OW29289   6.541   2.735   3.473
 9230SOL    HW129290   6.587   2.655   3.434
 9230SOL    HW229291   6.487   2.780   3.401
 9231SOL     OW29292   6.639   2.261   3.044
 9231SOL    HW129293   6.546   2.259   3.079
 9231SOL    HW229294   6.642   2.220   2.953
 9232SOL     OW29295   6.593   2.556   2.288
 9232SOL    HW129296   6.620   2.585   2.380
 9232SOL    HW229297   6.506   2.508   2.291
 9233SOL     OW29298   5.635   2.734   2.660
 9233SOL    HW129299   5.730   2.719   2.689
 9233SOL    HW229300   5.588   2.794   2.725
 9234SOL     OW29301   5.714   3.748   3.457
 9234SOL    HW129302   5.717   3.709   3.549
 9234SOL    HW229303   5.620   3.753   3.425
 9235SOL     OW29304   6.407   2.215   2.096
 9235SOL    HW129305   6.463   2.253   2.022
 9235SOL    HW229306   6.345   2.147   2.059
 9236SOL     OW29307   6.969   3.040   2.365
 9236SOL    HW129308   0.045   3.070   2.422
 9236SOL    HW229309   6.909   3.117   2.345
 9237SOL     OW29310   6.155   1.961   2.798
 9237SOL    HW129311   6.166   1.994   2.892
 9237SOL    HW229312   6.172   2.036   2.734
 9238SOL     OW29313   6.579   3.335   2.317
 9238SOL    HW129314   6.547   3.409   2.258
 9238SOL    HW229315   6.542   3.347   2.409
 9239SOL     OW29316   5.945   3.650   2.778
 9239SOL    HW129317   5.982   3.559   2.760
 9239SOL    HW229318   6.020   3.715   2.790
 9240SOL     OW29319   6.817   3.466   3.376
 9240SOL    HW129320   6.768   3.392   3.422
 9240SOL    HW229321   6.812   3.453   3.277
 9241SOL     OW29322   5.875   2.779   2.118
 9241SOL    HW129323   5.972   2.796   2.097
 9241SOL    HW229324   5.847   2.692   2.078
 9242SOL     OW29325   6.045   3.136   3.567
 9242SOL    HW129326   6.014   3.145   3.472
 9242SOL    HW229327   5.966   3.145   3.629
 9243SOL     OW29328   6.721   3.607   2.103
 9243SOL    HW129329   6.625   3.593   2.130
 9243SOL    HW229330   6.743   3.548   2.026
 9244SOL     OW29331   5.845   2.142   3.363
 9244SOL    HW129332   5.798   2.221   3.401
 9244SOL    HW229333   5.799   2.058   3.394
 9245SOL     OW29334   6.050   3.640   2.172
 9245SOL    HW129335   6.098   3.690   2.244
 9245SOL    HW229336   6.116   3.587   2.118
 9246SOL     OW29337   5.854   3.658   3.046
 9246SOL    HW129338   5.879   3.574   3.094
 9246SOL    HW229339   5.883   3.651   2.950
 9247SOL     OW29340   6.543   3.563   2.723
 9247SOL    HW129341   6.635   3.524   2.719
 9247SOL    HW229342   6.485   3.517   2.656
 9248SOL     OW29343   5.939   2.543   2.379
 9248SOL    HW129344   5.953   2.444   2.384
 9248SOL    HW229345   5.842   2.563   2.392
 9249SOL     OW29346   6.248   2.017   1.981
 9249SOL    HW129347   6.335   2.002   1.935
 9249SOL    HW229348   6.174   1.973   1.930
 9250SOL     OW29349   6.394   2.119   3.614
 9250SOL    HW129350   6.487   2.084   3.615
 9250SOL    HW229351   6.340   2.074   3.685
 9251SOL     OW29352   6.432   3.376   3.033
 9251SOL    HW129353   6.406   3.340   2.943
 9251SOL    HW229354   6.486   3.307   3.081
 9252SOL     OW29355   6.380   3.234   2.787
 9252SOL    HW129356   6.475   3.239   2.759
 9252SOL    HW229357   6.321   3.238   2.706
 9253SOL     OW29358   6.508   2.379   2.746
 9253SOL    HW129359   6.482   2.369   2.650
 9253SOL    HW229360   6.542   2.292   2.781
 9254SOL     OW29361   6.136   1.950   2.371
 9254SOL    HW129362   6.057   1.940   2.431
 9254SOL    HW229363   6.121   2.027   2.309
 9255SOL     OW29364   6.948   2.962   1.857
 9255SOL    HW129365   6.975   2.947   1.952
 9255SOL    HW229366   6.849   2.974   1.853
 9256SOL     OW29367   5.850   1.939   2.028
 9256SOL    HW129368   5.892   2.019   1.985
 9256SOL    HW229369   5.920   1.886   2.075
 9257SOL     OW29370   6.560   2.124   2.307
 9257SOL    HW129371   6.515   2.162   2.226
 9257SOL    HW229372   6.658   2.146   2.304
 9258SOL     OW29373   6.620   2.498   3.356
 9258SOL    HW129374   6.526   2.468   3.340
 9258SOL    HW229375   6.672   2.424   3.398
 9259SOL     OW29376   6.779   3.456   2.610
 9259SOL    HW129377   6.776   3.517   2.531
 9259SOL    HW229378   6.874   3.428   2.627
 9260SOL     OW29379   6.066   3.011   2.542
 9260SOL    HW129380   6.003   2.997   2.618
 9260SOL    HW229381   6.018   3.000   2.455
 9261SOL     OW29382   6.775   3.638   2.389
 9261SOL    HW129383   6.754   3.640   2.291
 9261SOL    HW229384   6.730   3.716   2.434
 9262SOL     OW29385   6.565   2.335   1.911
 9262SOL    HW129386   6.531   2.425   1.884
 9262SOL    HW229387   6.638   2.345   1.979
 9263SOL     OW29388   5.711   2.428   3.269
 9263SOL    HW129389   5.805   2.417   3.237
 9263SOL    HW229390   5.707   2.502   3.336
 9264SOL     OW29391   6.173   2.040   3.058
 9264SOL    HW129392   6.192   1.964   3.119
 9264SOL    HW229393   6.079   2.072   3.072
 9265SOL     OW29394   6.448   2.302   2.493
 9265SOL    HW129395   6.398   2.357   2.426
 9265SOL    HW229396   6.495   2.228   2.446
 9266SOL     OW29397   6.580   1.935   2.584
 9266SOL    HW129398   6.518   1.928   2.505
 9266SOL    HW229399   6.564   1.858   2.645
 9267SOL     OW29400   6.065   3.297   2.031
 9267SOL    HW129401   5.984   3.266   2.080
 9267SOL    HW229402   6.063   3.261   1.937
 9268SOL     OW29403   6.088   2.137   2.179
 9268SOL    HW129404   6.147   2.089   2.113
 9268SOL    HW229405   6.055   2.222   2.139
 9269SOL     OW29406   6.560   3.169   3.165
 9269SOL    HW129407   6.471   3.153   3.207
 9269SOL    HW229408   6.629   3.115   3.213
 9270SOL     OW29409   6.753   3.190   2.964
 9270SOL    HW129410   6.681   3.179   3.032
 9270SOL    HW229411   6.713   3.209   2.875
 9271SOL     OW29412   6.531   1.962   3.199
 9271SOL    HW129413   6.556   1.944   3.104
 9271SOL    HW229414   6.606   2.010   3.245
 9272SOL     OW29415   6.516   3.002   3.581
 9272SOL    HW129416   6.421   3.005   3.611
 9272SOL    HW229417   6.529   2.924   3.520
 9273SOL     OW29418   6.353   2.904   2.248
 9273SOL    HW129419   6.335   2.875   2.342
 9273SOL    HW229420   6.410   2.836   2.203
 9274SOL     OW29421   6.018   2.674   3.137
 9274SOL    HW129422   6.085   2.686   3.210
 9274SOL    HW229423   5.989   2.578   3.134
 9275SOL     OW29424   6.896   2.233   3.147
 9275SOL    HW129425   6.953   2.309   3.179
 9275SOL    HW229426   6.810   2.269   3.111
 9276SOL     OW29427   5.650   3.420   3.194
 9276SOL    HW129428   5.606   3.480   3.127
 9276SOL    HW229429   5.749   3.425   3.184
 9277SOL     OW29430   5.903   2.981   2.319
 9277SOL    HW129431   5.896   3.060   2.258
 9277SOL    HW229432   5.895   2.897   2.266
 9278SOL     OW29433   6.099   2.437   2.769
 9278SOL    HW129434   6.110   2.501   2.693
 9278SOL    HW229435   6.181   2.439   2.826
 9279SOL     OW29436   6.850   3.278   2.297
 9279SOL    HW129437   6.900   3.359   2.327
 9279SOL    HW229438   6.751   3.295   2.303
 9280SOL     OW29439   6.862   3.407   3.105
 9280SOL    HW129440   6.948   3.385   3.152
 9280SOL    HW229441   6.830   3.327   3.055
 9281SOL     OW29442   5.919   3.402   3.141
 9281SOL    HW129443   5.911   3.345   3.060
 9281SOL    HW229444   6.015   3.423   3.158
 9282SOL     OW29445   6.077   2.537   3.537
 9282SOL    HW129446   6.110   2.589   3.458
 9282SOL    HW229447   6.147   2.471   3.565
 9283SOL     OW29448   6.648   2.024   3.620
 9283SOL    HW129449   6.694   2.111   3.605
 9283SOL    HW229450   6.705   1.949   3.587
 9284SOL     OW29451   6.102   1.926   3.627
 9284SOL    HW129452   6.050   1.865   3.568
 9284SOL    HW229453   6.048   2.008   3.646
 9285SOL     OW29454   6.235   2.728   2.959
 9285SOL    HW129455   6.252   2.825   2.943
 9285SOL    HW229456   6.149   2.717   3.009
 9286SOL     OW29457   6.881   2.710   2.868
 9286SOL    HW129458   6.789   2.672   2.855
 9286SOL    HW229459   6.935   2.648   2.925
 9287SOL     OW29460   6.727   2.377   2.128
 9287SOL    HW129461   6.776   2.310   2.183
 9287SOL    HW229462   6.685   2.445   2.187
 9288SOL     OW29463   5.902   2.074   3.098
 9288SOL    HW129464   5.882   2.111   3.189
 9288SOL    HW229465   5.871   1.979   3.093
 9289SOL     OW29466   5.657   3.156   3.113
 9289SOL    HW129467   5.672   3.092   3.189
 9289SOL    HW229468   5.643   3.248   3.150
 9290SOL     OW29469   6.322   2.470   2.929
 9290SOL    HW129470   6.390   2.453   2.859
 9290SOL    HW229471   6.299   2.567   2.932
 9291SOL     OW29472   5.900   1.926   2.516
 9291SOL    HW129473   5.854   2.012   2.537
 9291SOL    HW229474   5.911   1.872   2.600
 9292SOL     OW29475   6.610   2.623   2.825
 9292SOL    HW129476   6.592   2.629   2.923
 9292SOL    HW229477   6.583   2.532   2.792
 9293SOL     OW29478   6.533   3.469   3.502
 9293SOL    HW129479   6.526   3.503   3.408
 9293SOL    HW229480   6.551   3.370   3.500
 9294SOL     OW29481   5.965   2.753   3.671
 9294SOL    HW129482   6.029   2.782   3.743
 9294SOL    HW229483   6.005   2.675   3.622
 9295SOL     OW29484   6.642   3.242   2.716
 9295SOL    HW129485   6.651   3.155   2.667
 9295SOL    HW229486   6.692   3.313   2.667
 9296SOL     OW29487   5.890   2.694   2.754
 9296SOL    HW129488   5.969   2.680   2.694
 9296SOL    HW229489   5.877   2.613   2.811
 9297SOL     OW29490   5.856   2.433   2.876
 9297SOL    HW129491   5.816   2.342   2.867
 9297SOL    HW229492   5.947   2.434   2.833
 9298SOL     OW29493   6.733   2.283   3.528
 9298SOL    HW129494   6.671   2.309   3.602
 9298SOL    HW229495   6.826   2.312   3.550
 9299SOL     OW29496   6.743   2.088   3.323
 9299SOL    HW129497   6.728   2.154   3.396
 9299SOL    HW229498   6.803   2.128   3.253
 9300SOL     OW29499   5.595   3.151   2.054
 9300SOL    HW129500   5.502   3.175   2.026
 9300SOL    HW229501   5.599   3.055   2.081
 9301SOL     OW29502   5.668   3.615   2.779
 9301SOL    HW129503   5.657   3.522   2.743
 9301SOL    HW229504   5.765   3.640   2.777
 9302SOL     OW29505   6.071   3.407   2.736
 9302SOL    HW129506   6.148   3.460   2.771
 9302SOL    HW229507   6.102   3.349   2.660
 9303SOL     OW29508   6.544   2.611   3.093
 9303SOL    HW129509   6.595   2.582   3.173
 9303SOL    HW229510   6.457   2.561   3.089
 9304SOL     OW29511   5.649   2.541   3.024
 9304SOL    HW129512   5.720   2.511   2.961
 9304SOL    HW229513   5.665   2.502   3.115
 9305SOL     OW29514   5.821   2.456   3.610
 9305SOL    HW129515   5.916   2.471   3.585
 9305SOL    HW229516   5.762   2.516   3.556
 9306SOL     OW29517   6.355   2.426   2.266
 9306SOL    HW129518   6.365   2.349   2.203
 9306SOL    HW229519   6.274   2.479   2.240
 9307SOL     OW29520   5.828   3.405   3.567
 9307SOL    HW129521   5.805   3.478   3.632
 9307SOL    HW229522   5.823   3.317   3.613
 9308SOL     OW29523   6.360   2.255   3.095
 9308SOL    HW129524   6.298   2.177   3.084
 9308SOL    HW229525   6.335   2.327   3.031
 9309SOL     OW29526   6.502   3.552   3.247
 9309SOL    HW129527   6.485   3.501   3.163
 9309SOL    HW229528   6.504   3.650   3.227
 9310SOL     OW29529   6.009   2.367   2.048
 9310SOL    HW129530   6.075   2.429   2.091
 9310SOL    HW229531   5.924   2.416   2.030
 9311SOL     OW29532   5.712   2.981   3.326
 9311SOL    HW129533   5.733   2.949   3.418
 9311SOL    HW229534   5.728   2.908   3.260
 9312SOL     OW29535   6.842   2.929   3.043
 9312SOL    HW129536   6.859   2.858   2.974
 9312SOL    HW229537   6.826   3.016   2.997
 9313SOL     OW29538   6.882   3.643   2.965
 9313SOL    HW129539   6.960   3.623   2.905
 9313SOL    HW229540   6.865   3.565   3.025
 9314SOL     OW29541   5.671   3.118   2.848
 9314SOL    HW129542   5.664   3.134   2.947
 9314SOL    HW229543   5.598   3.057   2.819
 9315SOL     OW29544   6.304   3.547   3.624
 9315SOL    HW129545   6.259   3.626   3.582
 9315SOL    HW229546   6.392   3.531   3.578
 9316SOL     OW29547   0.007   3.494   2.378
 9316SOL    HW129548   0.092   3.538   2.350
 9316SOL    HW229549   6.933   3.561   2.377
 9317SOL     OW29550   5.745   3.635   3.702
 9317SOL    HW129551   5.682   3.572   3.747
 9317SOL    HW229552   5.800   3.682   3.771
 9318SOL     OW29553   6.859   2.838   2.513
 9318SOL    HW129554   6.934   2.793   2.562
 9318SOL    HW229555   6.896   2.906   2.450
 9319SOL     OW29556   6.318   3.120   3.284
 9319SOL    HW129557   6.306   3.177   3.365
 9319SOL    HW229558   6.242   3.135   3.220
 9320SOL     OW29559   6.243   3.509   2.026
 9320SOL    HW129560   6.270   3.524   1.931
 9320SOL    HW229561   6.186   3.427   2.031
 9321SOL     OW29562   5.790   2.166   2.589
 9321SOL    HW129563   5.707   2.215   2.561
 9321SOL    HW229564   5.800   2.174   2.689
 9322SOL     OW29565   6.751   3.457   1.861
 9322SOL    HW129566   6.759   3.371   1.812
 9322SOL    HW229567   6.690   3.519   1.811
 9323SOL     OW29568   6.398   2.857   3.275
 9323SOL    HW129569   6.444   2.842   3.187
 9323SOL    HW229570   6.369   2.952   3.281
 9324SOL     OW29571   6.516   2.735   2.100
 9324SOL    HW129572   6.593   2.789   2.066
 9324SOL    HW229573   6.548   2.669   2.167
 9325SOL     OW29574   5.930   3.169   3.325
 9325SOL    HW129575   5.919   3.248   3.266
 9325SOL    HW229576   5.855   3.105   3.310
 9326SOL     OW29577   6.653   2.999   2.604
 9326SOL    HW129578   6.578   2.944   2.643
 9326SOL    HW229579   6.725   2.938   2.570
 9327SOL     OW29580   6.606   2.118   2.797
 9327SOL    HW129581   6.589   2.079   2.706
 9327SOL    HW229582   6.615   2.044   2.863
 9328SOL     OW29583   6.215   3.306   2.280
 9328SOL    HW129584   6.290   3.255   2.237
 9328SOL    HW229585   6.139   3.314   2.215
 9329SOL     OW29586   5.846   3.207   2.169
 9329SOL    HW129587   5.757   3.189   2.127
 9329SOL    HW229588   5.833   3.260   2.253
 9330SOL     OW29589   5.746   2.891   3.586
 9330SOL    HW129590   5.665   2.872   3.642
 9330SOL    HW229591   5.826   2.846   3.626
 9331SOL     OW29592   6.313   2.048   3.357
 9331SOL    HW129593   6.392   2.026   3.299
 9331SOL    HW229594   6.344   2.075   3.448
 9332SOL     OW29595   5.723   2.260   1.754
 9332SOL    HW129596   5.625   2.251   1.738
 9332SOL    HW229597   5.750   2.356   1.741
 9333SOL     OW29598   5.600   2.013   2.108
 9333SOL    HW129599   5.554   2.049   2.027
 9333SOL    HW229600   5.696   1.996   2.086
 9334SOL     OW29601   6.214   2.659   3.327
 9334SOL    HW129602   6.274   2.738   3.315
 9334SOL    HW229603   6.268   2.575   3.314
 9335SOL     OW29604   6.307   2.385   3.584
 9335SOL    HW129605   6.362   2.450   3.636
 9335SOL    HW229606   6.339   2.292   3.601
 9336SOL     OW29607   6.934   3.066   3.479
 9336SOL    HW129608   6.949   3.032   3.572
 9336SOL    HW229609   0.014   3.044   3.423
 9337SOL     OW29610   5.960   3.623   3.444
 9337SOL    HW129611   5.874   3.673   3.433
 9337SOL    HW229612   5.942   3.530   3.475
 9338SOL     OW29613   6.838   2.190   2.300
 9338SOL    HW129614   6.879   2.105   2.267
 9338SOL    HW229615   6.899   2.232   2.367
 9339SOL     OW29616   6.099   2.638   2.579
 9339SOL    HW129617   6.171   2.700   2.548
 9339SOL    HW229618   6.046   2.606   2.501
 9340SOL     OW29619   6.427   3.106   1.889
 9340SOL    HW129620   6.419   3.133   1.985
 9340SOL    HW229621   6.384   3.175   1.831
 9341SOL     OW29622   6.268   3.580   2.803
 9341SOL    HW129623   6.240   3.676   2.800
 9341SOL    HW229624   6.368   3.574   2.801
 9342SOL     OW29625   6.455   2.850   2.732
 9342SOL    HW129626   6.504   2.770   2.767
 9342SOL    HW229627   6.403   2.891   2.807
 9343SOL     OW29628   5.790   3.152   3.677
 9343SOL    HW129629   5.774   3.064   3.633
 9343SOL    HW229630   5.732   3.160   3.758
 9344SOL     OW29631   5.706   3.068   2.508
 9344SOL    HW129632   5.750   3.037   2.592
 9344SOL    HW229633   5.762   3.041   2.430
 9345SOL     OW29634   6.272   3.278   3.508
 9345SOL    HW129635   6.188   3.232   3.536
 9345SOL    HW229636   6.272   3.372   3.544
 9346SOL     OW29637   5.963   2.276   2.396
 9346SOL    HW129638   6.001   2.211   2.331
 9346SOL    HW229639   5.908   2.228   2.464
 9347SOL     OW29640   5.957   2.407   3.155
 9347SOL    HW129641   6.021   2.346   3.203
 9347SOL    HW229642   5.952   2.379   3.059
 9348SOL     OW29643   6.403   3.445   2.519
 9348SOL    HW129644   6.370   3.505   2.446
 9348SOL    HW229645   6.334   3.374   2.538
 9349SOL     OW29646   6.943   2.064   2.933
 9349SOL    HW129647   6.922   1.967   2.951
 9349SOL    HW229648   6.929   2.117   3.016
 9350SOL     OW29649   6.628   1.885   2.946
 9350SOL    HW129650   6.580   1.819   2.887
 9350SOL    HW229651   6.723   1.856   2.958
 9351SOL     OW29652   6.418   3.158   2.163
 9351SOL    HW129653   6.397   3.067   2.198
 9351SOL    HW229654   6.491   3.199   2.218
 9352SOL     OW29655   6.189   3.450   3.142
 9352SOL    HW129656   6.187   3.540   3.186
 9352SOL    HW229657   6.280   3.435   3.102
 9353SOL     OW29658   6.834   1.808   2.020
 9353SOL    HW129659   6.863   1.713   2.016
 9353SOL    HW229660   6.738   1.816   1.992
 9354SOL     OW29661   5.626   2.889   2.150
 9354SOL    HW129662   5.722   2.871   2.130
 9354SOL    HW229663   5.579   2.803   2.168
 9355SOL     OW29664   6.466   3.552   2.188
 9355SOL    HW129665   6.384   3.530   2.134
 9355SOL    HW229666   6.446   3.632   2.246
 9356SOL     OW29667   5.799   2.524   3.880
 9356SOL    HW129668   5.709   2.494   3.909
 9356SOL    HW229669   5.807   2.515   3.781
 9357SOL     OW29670   5.798   2.156   4.724
 9357SOL    HW129671   5.852   2.125   4.803
 9357SOL    HW229672   5.710   2.108   4.724
 9358SOL     OW29673   5.578   2.271   4.351
 9358SOL    HW129674   5.492   2.279   4.401
 9358SOL    HW229675   5.564   2.214   4.270
 9359SOL     OW29676   6.142   3.178   4.939
 9359SOL    HW129677   6.056   3.176   4.888
 9359SOL    HW229678   6.165   3.273   4.960
 9360SOL     OW29679   0.039   3.393   4.498
 9360SOL    HW129680   0.093   3.309   4.488
 9360SOL    HW229681   0.030   3.437   4.408
 9361SOL     OW29682   6.688   2.660   4.380
 9361SOL    HW129683   6.762   2.727   4.379
 9361SOL    HW229684   6.663   2.639   4.474
 9362SOL     OW29685   6.294   2.987   4.788
 9362SOL    HW129686   6.235   3.027   4.858
 9362SOL    HW229687   6.334   3.059   4.733
 9363SOL     OW29688   6.465   2.593   5.561
 9363SOL    HW129689   6.467   2.655   5.640
 9363SOL    HW229690   6.475   2.646   5.477
 9364SOL     OW29691   6.301   2.821   4.358
 9364SOL    HW129692   6.369   2.825   4.432
 9364SOL    HW229693   6.229   2.888   4.375
 9365SOL     OW29694   6.254   3.015   5.549
 9365SOL    HW129695   6.299   3.089   5.597
 9365SOL    HW229696   6.179   3.051   5.494
 9366SOL     OW29697   5.911   3.246   4.787
 9366SOL    HW129698   5.838   3.191   4.747
 9366SOL    HW229699   5.960   3.295   4.715
 9367SOL     OW29700   6.102   2.221   5.163
 9367SOL    HW129701   6.179   2.160   5.181
 9367SOL    HW229702   6.019   2.182   5.202
 9368SOL     OW29703   5.839   3.606   4.205
 9368SOL    HW129704   5.861   3.674   4.275
 9368SOL    HW229705   5.915   3.599   4.140
 9369SOL     OW29706   6.676   3.191   5.355
 9369SOL    HW129707   6.768   3.152   5.342
 9369SOL    HW229708   6.611   3.117   5.374
 9370SOL     OW29709   5.846   3.328   4.228
 9370SOL    HW129710   5.833   3.426   4.240
 9370SOL    HW229711   5.812   3.279   4.307
 9371SOL     OW29712   5.891   2.955   4.593
 9371SOL    HW129713   5.903   2.857   4.612
 9371SOL    HW229714   5.822   2.993   4.655
 9372SOL     OW29715   6.159   3.700   5.135
 9372SOL    HW129716   6.079   3.666   5.186
 9372SOL    HW229717   6.209   3.766   5.190
 9373SOL     OW29718   6.153   2.828   3.889
 9373SOL    HW129719   6.188   2.876   3.809
 9373SOL    HW229720   6.207   2.853   3.969
 9374SOL     OW29721   5.693   2.533   4.313
 9374SOL    HW129722   5.659   2.440   4.327
 9374SOL    HW229723   5.678   2.588   4.395
 9375SOL     OW29724   5.603   3.455   3.835
 9375SOL    HW129725   5.537   3.380   3.834
 9375SOL    HW229726   5.606   3.496   3.926
 9376SOL     OW29727   5.676   2.642   5.299
 9376SOL    HW129728   5.721   2.718   5.346
 9376SOL    HW229729   5.593   2.676   5.253
 9377SOL     OW29730   6.204   3.235   4.428
 9377SOL    HW129731   6.166   3.143   4.424
 9377SOL    HW229732   6.203   3.275   4.336
 9378SOL     OW29733   6.762   2.991   5.115
 9378SOL    HW129734   6.815   2.951   5.040
 9378SOL    HW229735   6.823   3.007   5.193
 9379SOL     OW29736   6.419   1.911   4.205
 9379SOL    HW129737   6.466   1.996   4.182
 9379SOL    HW229738   6.321   1.929   4.218
 9380SOL     OW29739   5.762   2.773   5.000
 9380SOL    HW129740   5.859   2.749   4.995
 9380SOL    HW229741   5.708   2.701   4.957
 9381SOL     OW29742   6.890   3.620   5.225
 9381SOL    HW129743   6.852   3.712   5.217
 9381SOL    HW229744   6.816   3.553   5.230
 9382SOL     OW29745   5.957   2.138   5.595
 9382SOL    HW129746   5.991   2.219   5.643
 9382SOL    HW229747   5.866   2.158   5.558
 9383SOL     OW29748   6.159   2.566   4.015
 9383SOL    HW129749   6.158   2.653   3.965
 9383SOL    HW229750   6.090   2.567   4.086
 9384SOL     OW29751   6.863   2.185   4.588
 9384SOL    HW129752   6.763   2.175   4.587
 9384SOL    HW229753   6.899   2.141   4.670
 9385SOL     OW29754   6.356   2.427   5.176
 9385SOL    HW129755   6.321   2.395   5.264
 9385SOL    HW229756   6.344   2.354   5.108
 9386SOL     OW29757   6.969   2.380   5.498
 9386SOL    HW129758   6.934   2.462   5.543
 9386SOL    HW229759   0.069   2.384   5.493
 9387SOL     OW29760   6.526   2.728   5.323
 9387SOL    HW129761   6.575   2.650   5.283
 9387SOL    HW229762   6.476   2.776   5.251
 9388SOL     OW29763   6.639   2.258   4.901
 9388SOL    HW129764   6.546   2.256   4.937
 9388SOL    HW229765   6.639   2.223   4.808
 9389SOL     OW29766   6.634   2.590   4.122
 9389SOL    HW129767   6.653   2.613   4.217
 9389SOL    HW229768   6.547   2.541   4.116
 9390SOL     OW29769   5.653   2.709   4.528
 9390SOL    HW129770   5.749   2.700   4.554
 9390SOL    HW229771   5.604   2.760   4.599
 9391SOL     OW29772   5.688   3.737   5.296
 9391SOL    HW129773   5.698   3.699   5.388
 9391SOL    HW229774   5.591   3.751   5.276
 9392SOL     OW29775   6.438   2.215   3.927
 9392SOL    HW129776   6.493   2.252   3.852
 9392SOL    HW229777   6.378   2.143   3.891
 9393SOL     OW29778   0.001   3.053   4.252
 9393SOL    HW129779   0.020   3.004   4.167
 9393SOL    HW229780   6.941   3.131   4.232
 9394SOL     OW29781   6.151   1.956   4.661
 9394SOL    HW129782   6.166   1.988   4.755
 9394SOL    HW229783   6.162   2.033   4.598
 9395SOL     OW29784   6.597   3.343   4.210
 9395SOL    HW129785   6.566   3.412   4.145
 9395SOL    HW229786   6.554   3.359   4.299
 9396SOL     OW29787   5.919   3.634   4.620
 9396SOL    HW129788   5.960   3.544   4.609
 9396SOL    HW229789   5.987   3.698   4.657
 9397SOL     OW29790   6.692   3.425   5.199
 9397SOL    HW129791   6.683   3.338   5.248
 9397SOL    HW229792   6.718   3.408   5.104
 9398SOL     OW29793   5.890   2.778   3.985
 9398SOL    HW129794   5.979   2.799   3.944
 9398SOL    HW229795   5.859   2.688   3.953
 9399SOL     OW29796   6.046   3.151   5.431
 9399SOL    HW129797   6.015   3.154   5.336
 9399SOL    HW229798   5.967   3.153   5.492
 9400SOL     OW29799   6.717   3.611   3.925
 9400SOL    HW129800   6.633   3.592   3.976
 9400SOL    HW229801   6.729   3.542   3.853
 9401SOL     OW29802   5.844   2.135   5.221
 9401SOL    HW129803   5.797   2.216   5.253
 9401SOL    HW229804   5.800   2.053   5.258
 9402SOL     OW29805   6.071   3.641   4.054
 9402SOL    HW129806   6.116   3.692   4.127
 9402SOL    HW229807   6.141   3.597   3.997
 9403SOL     OW29808   5.793   3.665   4.937
 9403SOL    HW129809   5.844   3.586   4.970
 9403SOL    HW229810   5.747   3.642   4.851
 9404SOL     OW29811   6.525   3.562   4.603
 9404SOL    HW129812   6.617   3.524   4.610
 9404SOL    HW229813   6.474   3.517   4.530
 9405SOL     OW29814   5.966   2.537   4.216
 9405SOL    HW129815   5.980   2.438   4.224
 9405SOL    HW229816   5.870   2.558   4.234
 9406SOL     OW29817   6.269   1.990   3.834
 9406SOL    HW129818   6.315   1.910   3.872
 9406SOL    HW229819   6.203   1.961   3.764
 9407SOL     OW29820   6.390   2.118   5.476
 9407SOL    HW129821   6.483   2.081   5.478
 9407SOL    HW229822   6.335   2.075   5.548
 9408SOL     OW29823   6.411   3.354   4.886
 9408SOL    HW129824   6.390   3.309   4.799
 9408SOL    HW229825   6.478   3.300   4.936
 9409SOL     OW29826   6.377   3.207   4.649
 9409SOL    HW129827   6.471   3.218   4.618
 9409SOL    HW229828   6.316   3.213   4.569
 9410SOL     OW29829   6.506   2.375   4.588
 9410SOL    HW129830   6.486   2.371   4.490
 9410SOL    HW229831   6.535   2.284   4.619
 9411SOL     OW29832   6.147   1.944   4.221
 9411SOL    HW129833   6.070   1.934   4.283
 9411SOL    HW229834   6.129   2.019   4.157
 9412SOL     OW29835   6.973   2.955   3.733
 9412SOL    HW129836   0.006   2.950   3.827
 9412SOL    HW229837   6.877   2.925   3.729
 9413SOL     OW29838   5.874   1.912   3.868
 9413SOL    HW129839   5.918   1.991   3.825
 9413SOL    HW229840   5.941   1.861   3.922
 9414SOL     OW29841   6.575   2.132   4.154
 9414SOL    HW129842   6.539   2.167   4.067
 9414SOL    HW229843   6.674   2.149   4.158
 9415SOL     OW29844   6.617   2.499   5.197
 9415SOL    HW129845   6.522   2.468   5.189
 9415SOL    HW229846   6.674   2.425   5.232
 9416SOL     OW29847   6.769   3.459   4.491
 9416SOL    HW129848   6.766   3.526   4.417
 9416SOL    HW229849   6.863   3.433   4.510
 9417SOL     OW29850   6.088   2.990   4.401
 9417SOL    HW129851   6.026   2.975   4.478
 9417SOL    HW229852   6.037   2.983   4.316
 9418SOL     OW29853   6.770   3.663   4.292
 9418SOL    HW129854   6.739   3.677   4.198
 9418SOL    HW229855   6.722   3.727   4.352
 9419SOL     OW29856   6.601   2.360   3.753
 9419SOL    HW129857   6.556   2.449   3.739
 9419SOL    HW229858   6.661   2.366   3.832
 9420SOL     OW29859   5.710   2.411   5.148
 9420SOL    HW129860   5.804   2.406   5.115
 9420SOL    HW229861   5.700   2.491   5.207
 9421SOL     OW29862   6.182   2.035   4.920
 9421SOL    HW129863   6.205   1.961   4.982
 9421SOL    HW229864   6.087   2.063   4.936
 9422SOL     OW29865   6.467   2.328   4.323
 9422SOL    HW129866   6.428   2.386   4.251
 9422SOL    HW229867   6.509   2.247   4.282
 9423SOL     OW29868   6.577   1.930   4.431
 9423SOL    HW129869   6.514   1.923   4.353
 9423SOL    HW229870   6.563   1.852   4.492
 9424SOL     OW29871   6.104   3.317   3.928
 9424SOL    HW129872   6.017   3.270   3.943
 9424SOL    HW229873   6.167   3.257   3.878
 9425SOL     OW29874   6.102   2.126   4.024
 9425SOL    HW129875   6.160   2.079   3.957
 9425SOL    HW229876   6.066   2.210   3.984
 9426SOL     OW29877   6.570   3.157   5.019
 9426SOL    HW129878   6.482   3.149   5.068
 9426SOL    HW229879   6.637   3.098   5.063
 9427SOL     OW29880   6.756   3.156   4.812
 9427SOL    HW129881   6.685   3.151   4.883
 9427SOL    HW229882   6.713   3.182   4.725
 9428SOL     OW29883   6.529   1.961   5.058
 9428SOL    HW129884   6.553   1.944   4.962
 9428SOL    HW229885   6.604   2.008   5.104
 9429SOL     OW29886   6.513   2.978   5.440
 9429SOL    HW129887   6.421   2.994   5.473
 9429SOL    HW229888   6.516   2.892   5.390
 9430SOL     OW29889   6.344   2.885   4.087
 9430SOL    HW129890   6.337   2.849   4.180
 9430SOL    HW229891   6.414   2.835   4.036
 9431SOL     OW29892   6.019   2.667   4.994
 9431SOL    HW129893   6.085   2.685   5.067
 9431SOL    HW229894   5.989   2.572   4.998
 9432SOL     OW29895   6.891   2.237   5.018
 9432SOL    HW129896   6.948   2.314   5.047
 9432SOL    HW229897   6.808   2.271   4.976
 9433SOL     OW29898   5.630   3.405   5.062
 9433SOL    HW129899   5.580   3.476   5.013
 9433SOL    HW229900   5.729   3.422   5.054
 9434SOL     OW29901   5.928   2.979   4.176
 9434SOL    HW129902   5.922   3.055   4.111
 9434SOL    HW229903   5.914   2.892   4.128
 9435SOL     OW29904   6.105   2.424   4.623
 9435SOL    HW129905   6.117   2.485   4.544
 9435SOL    HW229906   6.187   2.426   4.680
 9436SOL     OW29907   6.864   3.282   4.181
 9436SOL    HW129908   6.913   3.365   4.208
 9436SOL    HW229909   6.766   3.296   4.193
 9437SOL     OW29910   6.825   3.395   4.950
 9437SOL    HW129911   6.914   3.393   4.996
 9437SOL    HW229912   6.812   3.309   4.901
 9438SOL     OW29913   5.905   3.414   5.001
 9438SOL    HW129914   5.898   3.352   4.923
 9438SOL    HW229915   6.001   3.435   5.018
 9439SOL     OW29916   6.071   2.543   5.399
 9439SOL    HW129917   6.106   2.594   5.320
 9439SOL    HW229918   6.139   2.475   5.427
 9440SOL     OW29919   6.642   2.016   5.483
 9440SOL    HW129920   6.690   2.103   5.470
 9440SOL    HW229921   6.699   1.941   5.451
 9441SOL     OW29922   6.103   1.924   5.495
 9441SOL    HW129923   6.049   1.863   5.437
 9441SOL    HW229924   6.050   2.006   5.515
 9442SOL     OW29925   6.226   2.715   4.805
 9442SOL    HW129926   6.247   2.813   4.795
 9442SOL    HW229927   6.144   2.704   4.862
 9443SOL     OW29928   6.889   2.691   4.712
 9443SOL    HW129929   6.796   2.656   4.698
 9443SOL    HW229930   6.939   2.627   4.770
 9444SOL     OW29931   6.744   2.378   3.984
 9444SOL    HW129932   6.792   2.313   4.043
 9444SOL    HW229933   6.711   2.455   4.038
 9445SOL     OW29934   5.910   2.062   4.958
 9445SOL    HW129935   5.887   2.099   5.048
 9445SOL    HW229936   5.882   1.966   4.954
 9446SOL     OW29937   5.640   3.146   4.972
 9446SOL    HW129938   5.667   3.083   5.046
 9446SOL    HW229939   5.629   3.238   5.010
 9447SOL     OW29940   6.328   2.463   4.781
 9447SOL    HW129941   6.393   2.448   4.707
 9447SOL    HW229942   6.299   2.559   4.781
 9448SOL     OW29943   5.915   1.916   4.370
 9448SOL    HW129944   5.874   2.004   4.392
 9448SOL    HW229945   5.922   1.861   4.453
 9449SOL     OW29946   0.152   2.348   4.051
 9449SOL    HW129947   0.110   2.257   4.047
 9449SOL    HW229948   0.126   2.393   4.136
 9450SOL     OW29949   6.617   2.614   4.667
 9450SOL    HW129950   6.600   2.620   4.765
 9450SOL    HW229951   6.588   2.524   4.633
 9451SOL     OW29952   6.550   3.373   5.517
 9451SOL    HW129953   6.487   3.428   5.462
 9451SOL    HW229954   6.595   3.305   5.460
 9452SOL     OW29955   5.961   2.758   5.535
 9452SOL    HW129956   6.025   2.789   5.606
 9452SOL    HW229957   6.001   2.680   5.486
 9453SOL     OW29958   6.962   2.635   3.745
 9453SOL    HW129959   0.042   2.608   3.799
 9453SOL    HW229960   6.991   2.696   3.671
 9454SOL     OW29961   6.636   3.233   4.574
 9454SOL    HW129962   6.651   3.152   4.518
 9454SOL    HW229963   6.685   3.311   4.534
 9455SOL     OW29964   5.911   2.681   4.615
 9455SOL    HW129965   5.988   2.665   4.553
 9455SOL    HW229966   5.905   2.605   4.680
 9456SOL     OW29967   5.872   2.415   4.749
 9456SOL    HW129968   5.829   2.325   4.735
 9456SOL    HW229969   5.959   2.419   4.700
 9457SOL     OW29970   6.737   2.269   5.397
 9457SOL    HW129971   6.674   2.301   5.468
 9457SOL    HW229972   6.829   2.303   5.417
 9458SOL     OW29973   6.739   2.084   5.186
 9458SOL    HW129974   6.727   2.145   5.264
 9458SOL    HW229975   6.799   2.128   5.119
 9459SOL     OW29976   5.627   3.134   3.898
 9459SOL    HW129977   5.537   3.177   3.886
 9459SOL    HW229978   5.615   3.045   3.940
 9460SOL     OW29979   5.657   3.580   4.695
 9460SOL    HW129980   5.626   3.491   4.661
 9460SOL    HW229981   5.747   3.601   4.658
 9461SOL     OW29982   6.056   3.392   4.605
 9461SOL    HW129983   6.128   3.451   4.640
 9461SOL    HW229984   6.093   3.331   4.535
 9462SOL     OW29985   6.548   2.603   4.932
 9462SOL    HW129986   6.594   2.578   5.017
 9462SOL    HW229987   6.462   2.552   4.924
 9463SOL     OW29988   5.658   2.519   4.897
 9463SOL    HW129989   5.731   2.490   4.835
 9463SOL    HW229990   5.672   2.479   4.987
 9464SOL     OW29991   5.811   2.472   5.471
 9464SOL    HW129992   5.906   2.486   5.446
 9464SOL    HW229993   5.753   2.530   5.413
 9465SOL     OW29994   6.401   2.449   4.079
 9465SOL    HW129995   6.408   2.365   4.025
 9465SOL    HW229996   6.314   2.494   4.059
 9466SOL     OW29997   5.807   3.396   5.417
 9466SOL    HW129998   5.787   3.471   5.480
 9466SOL    HW229999   5.812   3.310   5.467
 9467SOL     OW30000   6.362   2.255   4.957
 9467SOL    HW130001   6.301   2.176   4.946
 9467SOL    HW230002   6.337   2.325   4.890
 9468SOL     OW30003   6.497   3.600   5.288
 9468SOL    HW130004   6.563   3.532   5.257
 9468SOL    HW230005   6.502   3.681   5.229
 9469SOL     OW30006   6.019   2.355   3.898
 9469SOL    HW130007   6.091   2.417   3.927
 9469SOL    HW230008   5.931   2.402   3.899
 9470SOL     OW30009   5.714   2.974   5.177
 9470SOL    HW130010   5.731   2.943   5.271
 9470SOL    HW230011   5.731   2.900   5.113
 9471SOL     OW30012   6.893   2.913   4.884
 9471SOL    HW130013   6.889   2.840   4.816
 9471SOL    HW230014   6.852   2.996   4.846
 9472SOL     OW30015   6.857   2.727   3.992
 9472SOL    HW130016   6.794   2.672   4.047
 9472SOL    HW230017   6.874   2.681   3.905
 9473SOL     OW30018   6.863   3.641   4.827
 9473SOL    HW130019   6.944   3.625   4.771
 9473SOL    HW230020   6.840   3.557   4.877
 9474SOL     OW30021   5.678   3.086   4.716
 9474SOL    HW130022   5.666   3.104   4.814
 9474SOL    HW230023   5.607   3.021   4.686
 9475SOL     OW30024   6.285   3.567   5.455
 9475SOL    HW130025   6.216   3.639   5.450
 9475SOL    HW230026   6.360   3.588   5.393
 9476SOL     OW30027   6.999   3.510   4.256
 9476SOL    HW130028   0.086   3.552   4.230
 9476SOL    HW230029   6.928   3.581   4.262
 9477SOL     OW30030   5.727   3.634   5.544
 9477SOL    HW130031   5.667   3.570   5.592
 9477SOL    HW230032   5.770   3.694   5.610
 9478SOL     OW30033   6.887   2.849   4.393
 9478SOL    HW130034   6.958   2.791   4.432
 9478SOL    HW230035   6.929   2.926   4.344
 9479SOL     OW30036   6.325   3.128   5.144
 9479SOL    HW130037   6.312   3.191   5.221
 9479SOL    HW230038   6.250   3.140   5.079
 9480SOL     OW30039   6.267   3.531   3.892
 9480SOL    HW130040   6.284   3.540   3.794
 9480SOL    HW230041   6.208   3.452   3.908
 9481SOL     OW30042   5.815   2.159   4.443
 9481SOL    HW130043   5.731   2.202   4.411
 9481SOL    HW230044   5.820   2.165   4.542
 9482SOL     OW30045   6.732   3.432   3.708
 9482SOL    HW130046   6.728   3.341   3.667
 9482SOL    HW230047   6.682   3.497   3.651
 9483SOL     OW30048   6.392   2.862   5.127
 9483SOL    HW130049   6.436   2.852   5.038
 9483SOL    HW230050   6.366   2.957   5.141
 9484SOL     OW30051   6.539   2.761   3.926
 9484SOL    HW130052   6.611   2.809   3.876
 9484SOL    HW230053   6.581   2.703   3.996
 9485SOL     OW30054   5.927   3.168   5.188
 9485SOL    HW130055   5.913   3.249   5.131
 9485SOL    HW230056   5.853   3.102   5.172
 9486SOL     OW30057   6.657   2.996   4.450
 9486SOL    HW130058   6.586   2.938   4.491
 9486SOL    HW230059   6.738   2.941   4.429
 9487SOL     OW30060   6.596   2.113   4.644
 9487SOL    HW130061   6.584   2.069   4.554
 9487SOL    HW230062   6.603   2.042   4.714
 9488SOL     OW30063   6.231   3.337   4.177
 9488SOL    HW130064   6.300   3.273   4.143
 9488SOL    HW230065   6.159   3.347   4.108
 9489SOL     OW30066   5.876   3.188   4.004
 9489SOL    HW130067   5.787   3.174   3.959
 9489SOL    HW230068   5.864   3.246   4.084
 9490SOL     OW30069   5.738   2.882   5.440
 9490SOL    HW130070   5.658   2.867   5.498
 9490SOL    HW230071   5.819   2.842   5.483
 9491SOL     OW30072   6.312   2.044   5.219
 9491SOL    HW130073   6.391   2.023   5.162
 9491SOL    HW230074   6.343   2.072   5.310
 9492SOL     OW30075   5.696   2.215   3.659
 9492SOL    HW130076   5.608   2.211   3.610
 9492SOL    HW230077   5.734   2.307   3.651
 9493SOL     OW30078   5.631   2.019   3.919
 9493SOL    HW130079   5.613   2.085   3.847
 9493SOL    HW230080   5.723   1.982   3.909
 9494SOL     OW30081   6.212   2.662   5.187
 9494SOL    HW130082   6.270   2.742   5.172
 9494SOL    HW230083   6.266   2.579   5.177
 9495SOL     OW30084   6.300   2.384   5.446
 9495SOL    HW130085   6.355   2.449   5.497
 9495SOL    HW230086   6.332   2.291   5.463
 9496SOL     OW30087   6.927   3.059   5.332
 9496SOL    HW130088   6.943   3.034   5.428
 9496SOL    HW230089   0.014   3.057   5.282
 9497SOL     OW30090   5.937   3.610   5.281
 9497SOL    HW130091   5.850   3.657   5.267
 9497SOL    HW230092   5.919   3.517   5.315
 9498SOL     OW30093   6.854   2.197   4.167
 9498SOL    HW130094   6.922   2.143   4.117
 9498SOL    HW230095   6.892   2.226   4.255
 9499SOL     OW30096   6.113   2.624   4.431
 9499SOL    HW130097   6.188   2.684   4.404
 9499SOL    HW230098   6.064   2.594   4.349
 9500SOL     OW30099   6.337   3.202   3.828
 9500SOL    HW130100   6.373   3.187   3.920
 9500SOL    HW230101   6.401   3.260   3.777
 9501SOL     OW30102   6.246   3.570   4.669
 9501SOL    HW130103   6.215   3.665   4.672
 9501SOL    HW230104   6.346   3.568   4.670
 9502SOL     OW30105   6.466   2.840   4.584
 9502SOL    HW130106   6.517   2.761   4.616
 9502SOL    HW230107   6.411   2.877   4.660
 9503SOL     OW30108   6.713   2.865   3.716
 9503SOL    HW130109   6.645   2.929   3.681
 9503SOL    HW230110   6.711   2.781   3.662
 9504SOL     OW30111   5.787   3.144   5.534
 9504SOL    HW130112   5.772   3.057   5.488
 9504SOL    HW230113   5.730   3.149   5.616
 9505SOL     OW30114   5.777   3.093   4.381
 9505SOL    HW130115   5.812   3.047   4.462
 9505SOL    HW230116   5.820   3.053   4.299
 9506SOL     OW30117   6.265   3.302   5.353
 9506SOL    HW130118   6.185   3.253   5.388
 9506SOL    HW230119   6.264   3.396   5.386
 9507SOL     OW30120   5.984   2.271   4.246
 9507SOL    HW130121   6.019   2.203   4.180
 9507SOL    HW230122   5.931   2.225   4.316
 9508SOL     OW30123   5.953   2.403   5.024
 9508SOL    HW130124   6.018   2.342   5.068
 9508SOL    HW230125   5.945   2.380   4.927
 9509SOL     OW30126   6.400   3.438   4.395
 9509SOL    HW130127   6.361   3.472   4.310
 9509SOL    HW230128   6.340   3.369   4.435
 9510SOL     OW30129   6.941   2.057   4.814
 9510SOL    HW130130   6.917   1.962   4.834
 9510SOL    HW230131   6.927   2.113   4.896
 9511SOL     OW30132   6.621   1.883   4.800
 9511SOL    HW130133   6.576   1.817   4.740
 9511SOL    HW230134   6.715   1.854   4.818
 9512SOL     OW30135   6.414   3.156   4.084
 9512SOL    HW130136   6.395   3.058   4.095
 9512SOL    HW230137   6.497   3.179   4.136
 9513SOL     OW30138   6.181   3.453   5.002
 9513SOL    HW130139   6.187   3.540   5.049
 9513SOL    HW230140   6.269   3.432   4.959
 9514SOL     OW30141   6.908   1.932   3.849
 9514SOL    HW130142   6.966   1.869   3.798
 9514SOL    HW230143   6.830   1.882   3.887
 9515SOL     OW30144   5.638   2.888   4.028
 9515SOL    HW130145   5.733   2.870   4.004
 9515SOL    HW230146   5.593   2.803   4.053
 9516SOL     OW30147   6.486   3.553   4.064
 9516SOL    HW130148   6.407   3.537   4.005
 9516SOL    HW230149   6.467   3.630   4.124
 9517SOL     OW30150   5.788   2.525   5.744
 9517SOL    HW130151   5.699   2.489   5.772
 9517SOL    HW230152   5.796   2.519   5.645
 9518SOL     OW30153   5.787   2.171   6.584
 9518SOL    HW130154   5.834   2.151   6.670
 9518SOL    HW230155   5.700   2.121   6.582
 9519SOL     OW30156   5.567   2.295   6.218
 9519SOL    HW130157   5.481   2.314   6.267
 9519SOL    HW230158   5.550   2.226   6.148
 9520SOL     OW30159   6.172   3.121   6.802
 9520SOL    HW130160   6.092   3.149   6.749
 9520SOL    HW230161   6.145   3.102   6.896
 9521SOL     OW30162   0.030   3.407   6.348
 9521SOL    HW130163   0.059   3.313   6.369
 9521SOL    HW230164   0.043   3.425   6.251
 9522SOL     OW30165   6.689   2.654   6.229
 9522SOL    HW130166   6.765   2.719   6.232
 9522SOL    HW230167   6.660   2.633   6.322
 9523SOL     OW30168   6.319   2.982   6.613
 9523SOL    HW130169   6.271   3.009   6.696
 9523SOL    HW230170   6.340   3.064   6.559
 9524SOL     OW30171   6.295   2.836   6.202
 9524SOL    HW130172   6.363   2.833   6.275
 9524SOL    HW230173   6.223   2.901   6.226
 9525SOL     OW30174   5.958   3.222   6.648
 9525SOL    HW130175   5.872   3.179   6.620
 9525SOL    HW230176   5.987   3.287   6.578
 9526SOL     OW30177   5.814   3.606   6.048
 9526SOL    HW130178   5.838   3.671   6.120
 9526SOL    HW230179   5.885   3.607   5.978
 9527SOL     OW30180   5.825   3.330   6.083
 9527SOL    HW130181   5.813   3.429   6.091
 9527SOL    HW230182   5.797   3.286   6.169
 9528SOL     OW30183   5.904   2.954   6.458
 9528SOL    HW130184   5.926   2.861   6.487
 9528SOL    HW230185   5.844   2.997   6.526
 9529SOL     OW30186   6.183   3.761   6.996
 9529SOL    HW130187   6.103   3.709   0.026
 9529SOL    HW230188   6.224   3.807   0.074
 9530SOL     OW30189   6.141   2.844   5.738
 9530SOL    HW130190   6.178   2.896   5.661
 9530SOL    HW230191   6.194   2.863   5.820
 9531SOL     OW30192   0.186   2.058   0.096
 9531SOL    HW130193   0.158   2.152   0.074
 9531SOL    HW230194   0.117   2.015   0.154
 9532SOL     OW30195   5.676   2.553   6.170
 9532SOL    HW130196   5.650   2.458   6.188
 9532SOL    HW230197   5.697   2.598   6.257
 9533SOL     OW30198   5.591   3.452   5.684
 9533SOL    HW130199   5.526   3.376   5.685
 9533SOL    HW230200   5.589   3.499   5.773
 9534SOL     OW30201   6.197   3.264   6.274
 9534SOL    HW130202   6.158   3.172   6.282
 9534SOL    HW230203   6.200   3.291   6.178
 9535SOL     OW30204   6.771   3.111   0.002
 9535SOL    HW130205   6.825   3.107   6.918
 9535SOL    HW230206   6.830   3.130   0.080
 9536SOL     OW30207   6.411   1.917   6.044
 9536SOL    HW130208   6.459   2.004   6.029
 9536SOL    HW230209   6.316   1.936   6.069
 9537SOL     OW30210   5.670   2.814   6.844
 9537SOL    HW130211   5.724   2.764   6.776
 9537SOL    HW230212   5.574   2.784   6.840
 9538SOL     OW30213   6.153   2.578   5.863
 9538SOL    HW130214   6.150   2.665   5.815
 9538SOL    HW230215   6.084   2.576   5.935
 9539SOL     OW30216   6.878   2.195   6.468
 9539SOL    HW130217   6.781   2.175   6.456
 9539SOL    HW230218   6.911   2.150   6.552
 9540SOL     OW30219   6.452   2.468   6.980
 9540SOL    HW130220   6.375   2.528   0.003
 9540SOL    HW230221   6.423   2.400   6.913
 9541SOL     OW30222   6.647   2.236   6.731
 9541SOL    HW130223   6.555   2.247   6.770
 9541SOL    HW230224   6.641   2.191   6.642
 9542SOL     OW30225   6.629   2.593   5.973
 9542SOL    HW130226   6.649   2.613   6.069
 9542SOL    HW230227   6.542   2.546   5.966
 9543SOL     OW30228   5.710   2.696   6.398
 9543SOL    HW130229   5.801   2.696   6.440
 9543SOL    HW230230   5.652   2.763   6.444
 9544SOL     OW30231   5.582   3.708   0.039
 9544SOL    HW130232   5.559   3.612   0.058
 9544SOL    HW230233   5.652   3.712   6.968
 9545SOL     OW30234   6.431   2.221   5.785
 9545SOL    HW130235   6.487   2.256   5.710
 9545SOL    HW230236   6.372   2.148   5.752
 9546SOL     OW30237   6.987   3.040   6.111
 9546SOL    HW130238   0.016   2.999   6.025
 9546SOL    HW230239   6.920   3.112   6.092
 9547SOL     OW30240   6.149   1.961   6.554
 9547SOL    HW130241   6.156   2.004   6.644
 9547SOL    HW230242   6.158   2.031   6.483
 9548SOL     OW30243   6.621   3.428   6.091
 9548SOL    HW130244   6.596   3.469   6.004
 9548SOL    HW230245   6.543   3.431   6.153
 9549SOL     OW30246   5.928   3.673   6.485
 9549SOL    HW130247   5.965   3.580   6.487
 9549SOL    HW230248   5.998   3.737   6.518
 9550SOL     OW30249   5.875   2.784   5.848
 9550SOL    HW130250   5.959   2.812   5.802
 9550SOL    HW230251   5.848   2.693   5.818
 9551SOL     OW30252   6.604   3.726   5.697
 9551SOL    HW130253   6.559   3.675   5.771
 9551SOL    HW230254   6.664   3.664   5.646
 9552SOL     OW30255   6.029   3.647   5.872
 9552SOL    HW130256   6.073   3.694   5.949
 9552SOL    HW230257   6.098   3.597   5.819
 9553SOL     OW30258   5.805   3.673   6.878
 9553SOL    HW130259   5.869   3.655   6.952
 9553SOL    HW230260   5.772   3.587   6.840
 9554SOL     OW30261   6.538   3.587   6.437
 9554SOL    HW130262   6.627   3.541   6.424
 9554SOL    HW230263   6.471   3.548   6.374
 9555SOL     OW30264   5.958   2.546   6.060
 9555SOL    HW130265   5.961   2.447   6.071
 9555SOL    HW230266   5.866   2.580   6.079
 9556SOL     OW30267   6.266   1.996   5.703
 9556SOL    HW130268   6.312   1.919   5.747
 9556SOL    HW230269   6.202   1.963   5.634
 9557SOL     OW30270   6.370   3.314   6.766
 9557SOL    HW130271   6.381   3.306   6.667
 9557SOL    HW230272   6.304   3.247   6.799
 9558SOL     OW30273   6.370   3.229   6.497
 9558SOL    HW130274   6.467   3.231   6.472
 9558SOL    HW230275   6.314   3.247   6.416
 9559SOL     OW30276   6.524   2.380   6.436
 9559SOL    HW130277   6.498   2.377   6.339
 9559SOL    HW230278   6.555   2.289   6.464
 9560SOL     OW30279   6.143   1.951   6.088
 9560SOL    HW130280   6.069   1.942   6.155
 9560SOL    HW230281   6.123   2.028   6.027
 9561SOL     OW30282   6.984   2.963   5.597
 9561SOL    HW130283   0.014   2.949   5.691
 9561SOL    HW230284   6.888   2.936   5.588
 9562SOL     OW30285   5.866   1.924   5.743
 9562SOL    HW130286   5.912   2.001   5.698
 9562SOL    HW230287   5.933   1.872   5.797
 9563SOL     OW30288   6.572   2.140   6.010
 9563SOL    HW130289   6.538   2.176   5.923
 9563SOL    HW230290   6.671   2.155   6.016
 9564SOL     OW30291   6.755   3.445   6.343
 9564SOL    HW130292   6.730   3.445   6.247
 9564SOL    HW230293   6.855   3.437   6.352
 9565SOL     OW30294   6.086   3.011   6.259
 9565SOL    HW130295   6.029   2.990   6.339
 9565SOL    HW230296   6.031   3.004   6.176
 9566SOL     OW30297   6.599   2.360   5.613
 9566SOL    HW130298   6.554   2.449   5.598
 9566SOL    HW230299   6.659   2.366   5.693
 9567SOL     OW30300   6.154   2.093   6.799
 9567SOL    HW130301   6.174   2.020   6.865
 9567SOL    HW230302   6.059   2.122   6.810
 9568SOL     OW30303   6.467   2.336   6.176
 9568SOL    HW130304   6.421   2.395   6.109
 9568SOL    HW230305   6.506   2.257   6.129
 9569SOL     OW30306   6.584   1.920   6.260
 9569SOL    HW130307   6.516   1.918   6.187
 9569SOL    HW230308   6.565   1.847   6.325
 9570SOL     OW30309   6.105   3.309   5.773
 9570SOL    HW130310   6.017   3.265   5.792
 9570SOL    HW230311   6.162   3.246   5.719
 9571SOL     OW30312   6.098   2.134   5.891
 9571SOL    HW130313   6.157   2.087   5.825
 9571SOL    HW230314   6.063   2.219   5.851
 9572SOL     OW30315   0.266   3.468   0.156
 9572SOL    HW130316   0.305   3.548   0.112
 9572SOL    HW230317   0.339   3.402   0.177
 9573SOL     OW30318   6.707   3.152   6.709
 9573SOL    HW130319   6.625   3.146   6.766
 9573SOL    HW230320   6.681   3.173   6.615
 9574SOL     OW30321   6.333   2.889   5.932
 9574SOL    HW130322   6.325   2.858   6.026
 9574SOL    HW230323   6.404   2.836   5.885
 9575SOL     OW30324   6.141   2.666   6.888
 9575SOL    HW130325   6.133   2.732   6.963
 9575SOL    HW230326   6.066   2.600   6.893
 9576SOL     OW30327   6.873   2.342   6.849
 9576SOL    HW130328   6.829   2.405   6.912
 9576SOL    HW230329   6.804   2.299   6.791
 9577SOL     OW30330   5.699   3.405   6.888
 9577SOL    HW130331   5.662   3.419   6.979
 9577SOL    HW230332   5.798   3.391   6.893
 9578SOL     OW30333   5.913   2.990   6.043
 9578SOL    HW130334   5.908   3.064   5.976
 9578SOL    HW230335   5.899   2.902   5.996
 9579SOL     OW30336   6.104   2.426   6.456
 9579SOL    HW130337   6.120   2.481   6.374
 9579SOL    HW230338   6.186   2.426   6.513
 9580SOL     OW30339   6.838   3.264   6.047
 9580SOL    HW130340   6.916   3.322   6.073
 9580SOL    HW230341   6.753   3.313   6.061
 9581SOL     OW30342   6.834   3.395   6.786
 9581SOL    HW130343   6.928   3.377   6.812
 9581SOL    HW230344   6.790   3.311   6.754
 9582SOL     OW30345   5.967   3.371   6.870
 9582SOL    HW130346   5.959   3.314   6.789
 9582SOL    HW230347   6.044   3.434   6.859
 9583SOL     OW30348   6.216   2.721   6.632
 9583SOL    HW130349   6.253   2.814   6.622
 9583SOL    HW230350   6.194   2.705   6.728
 9584SOL     OW30351   6.895   2.713   6.566
 9584SOL    HW130352   6.806   2.678   6.537
 9584SOL    HW230353   6.941   2.643   6.622
 9585SOL     OW30354   6.743   2.379   5.843
 9585SOL    HW130355   6.791   2.317   5.905
 9585SOL    HW230356   6.708   2.456   5.895
 9586SOL     OW30357   5.881   2.132   6.841
 9586SOL    HW130358   5.811   2.187   6.886
 9586SOL    HW230359   5.867   2.036   6.862
 9587SOL     OW30360   5.608   3.147   6.866
 9587SOL    HW130361   5.661   3.097   6.935
 9587SOL    HW230362   5.637   3.243   6.867
 9588SOL     OW30363   6.326   2.465   6.609
 9588SOL    HW130364   6.399   2.449   6.542
 9588SOL    HW230365   6.301   2.561   6.610
 9589SOL     OW30366   5.917   1.924   6.250
 9589SOL    HW130367   5.871   2.011   6.268
 9589SOL    HW230368   5.923   1.871   6.334
 9590SOL     OW30369   0.153   2.355   5.906
 9590SOL    HW130370   0.111   2.264   5.901
 9590SOL    HW230371   0.130   2.398   5.993
 9591SOL     OW30372   6.630   2.619   6.510
 9591SOL    HW130373   6.610   2.634   6.607
 9591SOL    HW230374   6.600   2.528   6.483
 9592SOL     OW30375   6.964   2.641   5.605
 9592SOL    HW130376   0.045   2.617   5.658
 9592SOL    HW230377   6.991   2.698   5.527
 9593SOL     OW30378   6.637   3.222   6.453
 9593SOL    HW130379   6.657   3.142   6.397
 9593SOL    HW230380   6.685   3.301   6.415
 9594SOL     OW30381   5.947   2.695   6.548
 9594SOL    HW130382   6.046   2.704   6.563
 9594SOL    HW230383   5.919   2.602   6.571
 9595SOL     OW30384   5.885   2.423   6.606
 9595SOL    HW130385   5.837   2.336   6.595
 9595SOL    HW230386   5.967   2.425   6.549
 9596SOL     OW30387   6.855   2.192   0.095
 9596SOL    HW130388   6.844   2.262   0.165
 9596SOL    HW230389   6.873   2.235   0.007
 9597SOL     OW30390   5.622   3.124   5.754
 9597SOL    HW130391   5.534   3.169   5.741
 9597SOL    HW230392   5.609   3.035   5.798
 9598SOL     OW30393   5.653   3.690   6.523
 9598SOL    HW130394   5.612   3.607   6.486
 9598SOL    HW230395   5.752   3.686   6.514
 9599SOL     OW30396   6.066   3.420   6.474
 9599SOL    HW130397   6.138   3.484   6.501
 9599SOL    HW230398   6.098   3.364   6.397
 9600SOL     OW30399   6.576   2.662   6.771
 9600SOL    HW130400   6.609   2.749   6.806
 9600SOL    HW230401   6.529   2.612   6.844
 9601SOL     OW30402   5.633   2.467   6.732
 9601SOL    HW130403   5.714   2.469   6.674
 9601SOL    HW230404   5.648   2.403   6.808
 9602SOL     OW30405   6.394   2.458   5.931
 9602SOL    HW130406   6.399   2.373   5.880
 9602SOL    HW230407   6.307   2.504   5.911
 9603SOL     OW30408   6.369   2.279   6.801
 9603SOL    HW130409   6.299   2.208   6.804
 9603SOL    HW230410   6.348   2.345   6.729
 9604SOL     OW30411   6.468   3.403   0.014
 9604SOL    HW130412   6.448   3.380   6.919
 9604SOL    HW230413   6.566   3.422   0.025
 9605SOL     OW30414   6.015   2.360   5.758
 9605SOL    HW130415   6.085   2.426   5.783
 9605SOL    HW230416   5.925   2.404   5.763
 9606SOL     OW30417   5.732   2.967   0.058
 9606SOL    HW130418   5.786   2.910   0.119
 9606SOL    HW230419   5.710   2.915   6.975
 9607SOL     OW30420   6.790   2.872   6.769
 9607SOL    HW130421   6.830   2.824   6.690
 9607SOL    HW230422   6.780   2.969   6.747
 9608SOL     OW30423   6.860   2.727   5.854
 9608SOL    HW130424   6.793   2.675   5.906
 9608SOL    HW230425   6.877   2.682   5.766
 9609SOL     OW30426   6.909   3.647   6.692
 9609SOL    HW130427   6.989   3.629   6.634
 9609SOL    HW230428   6.877   3.561   6.732
 9610SOL     OW30429   5.714   3.070   6.617
 9610SOL    HW130430   5.676   3.095   6.706
 9610SOL    HW230431   5.649   3.013   6.567
 9611SOL     OW30432   0.057   3.425   6.080
 9611SOL    HW130433   0.156   3.438   6.079
 9611SOL    HW230434   0.015   3.488   6.014
 9612SOL     OW30435   6.892   2.833   6.254
 9612SOL    HW130436   6.967   2.776   6.286
 9612SOL    HW230437   6.928   2.909   6.200
 9613SOL     OW30438   6.250   3.535   5.728
 9613SOL    HW130439   6.272   3.541   5.631
 9613SOL    HW230440   6.201   3.449   5.746
 9614SOL     OW30441   5.801   2.168   6.305
 9614SOL    HW130442   5.719   2.215   6.275
 9614SOL    HW230443   5.808   2.174   6.405
 9615SOL     OW30444   6.760   3.548   5.572
 9615SOL    HW130445   6.840   3.499   5.608
 9615SOL    HW230446   6.688   3.482   5.550
 9616SOL     OW30447   6.318   2.916   0.024
 9616SOL    HW130448   6.413   2.889   0.013
 9616SOL    HW230449   6.313   3.014   0.043
 9617SOL     OW30450   6.537   2.766   5.779
 9617SOL    HW130451   6.610   2.818   5.735
 9617SOL    HW230452   6.576   2.706   5.849
 9618SOL     OW30453   6.673   2.993   6.316
 9618SOL    HW130454   6.595   2.937   6.345
 9618SOL    HW230455   6.751   2.935   6.295
 9619SOL     OW30456   6.613   2.111   6.474
 9619SOL    HW130457   6.597   2.081   6.379
 9619SOL    HW230458   6.617   2.032   6.534
 9620SOL     OW30459   6.237   3.326   6.015
 9620SOL    HW130460   6.313   3.267   5.989
 9620SOL    HW230461   6.172   3.332   5.939
 9621SOL     OW30462   5.870   3.193   5.859
 9621SOL    HW130463   5.782   3.174   5.815
 9621SOL    HW230464   5.855   3.252   5.939
 9622SOL     OW30465   6.312   2.032   0.189
 9622SOL    HW130466   6.381   1.969   0.224
 9622SOL    HW230467   6.354   2.122   0.175
 9623SOL     OW30468   5.709   2.221   5.516
 9623SOL    HW130469   5.614   2.213   5.484
 9623SOL    HW230470   5.740   2.315   5.506
 9624SOL     OW30471   5.620   2.017   5.814
 9624SOL    HW130472   5.589   2.077   5.741
 9624SOL    HW230473   5.714   1.988   5.796
 9625SOL     OW30474   5.964   3.618   0.097
 9625SOL    HW130475   5.944   3.650   0.189
 9625SOL    HW230476   5.989   3.521   0.100
 9626SOL     OW30477   6.855   2.204   6.032
 9626SOL    HW130478   6.923   2.151   5.982
 9626SOL    HW230479   6.891   2.231   6.121
 9627SOL     OW30480   6.157   2.593   6.247
 9627SOL    HW130481   6.211   2.675   6.226
 9627SOL    HW230482   6.086   2.582   6.178
 9628SOL     OW30483   6.370   3.222   5.678
 9628SOL    HW130484   6.404   3.205   5.770
 9628SOL    HW230485   6.435   3.279   5.628
 9629SOL     OW30486   6.254   3.615   6.515
 9629SOL    HW130487   6.219   3.709   6.522
 9629SOL    HW230488   6.354   3.617   6.520
 9630SOL     OW30489   6.469   2.839   6.422
 9630SOL    HW130490   6.517   2.759   6.457
 9630SOL    HW230491   6.418   2.882   6.497
 9631SOL     OW30492   6.727   2.871   5.575
 9631SOL    HW130493   6.653   2.925   5.534
 9631SOL    HW230494   6.728   2.780   5.534
 9632SOL     OW30495   5.764   3.105   6.256
 9632SOL    HW130496   5.801   3.058   6.336
 9632SOL    HW230497   5.804   3.066   6.173
 9633SOL     OW30498   5.952   2.280   6.095
 9633SOL    HW130499   5.998   2.211   6.039
 9633SOL    HW230500   5.908   2.235   6.172
 9634SOL     OW30501   5.947   2.465   6.878
 9634SOL    HW130502   5.980   2.379   6.918
 9634SOL    HW230503   5.926   2.451   6.781
 9635SOL     OW30504   6.389   3.482   6.237
 9635SOL    HW130505   6.354   3.554   6.177
 9635SOL    HW230506   6.319   3.412   6.250
 9636SOL     OW30507   6.948   2.060   6.697
 9636SOL    HW130508   6.929   1.963   6.683
 9636SOL    HW230509   6.902   2.091   6.781
 9637SOL     OW30510   6.639   1.878   6.603
 9637SOL    HW130511   6.592   1.803   6.557
 9637SOL    HW230512   6.732   1.849   6.627
 9638SOL     OW30513   6.432   3.147   5.938
 9638SOL    HW130514   6.390   3.056   5.934
 9638SOL    HW230515   6.514   3.143   5.995
 9639SOL     OW30516   6.186   3.520   6.848
 9639SOL    HW130517   6.214   3.608   6.886
 9639SOL    HW230518   6.266   3.473   6.811
 9640SOL     OW30519   6.906   1.936   5.710
 9640SOL    HW130520   6.965   1.871   5.662
 9640SOL    HW230521   6.826   1.888   5.745
 9641SOL     OW30522   5.617   2.879   5.892
 9641SOL    HW130523   5.714   2.859   5.873
 9641SOL    HW230524   5.569   2.793   5.909
 9642SOL     OW30525   6.480   3.568   5.889
 9642SOL    HW130526   6.401   3.537   5.835
 9642SOL    HW230527   6.448   3.631   5.960
 9643SOL     OW30528   5.792   4.371   0.102
 9643SOL    HW130529   5.700   4.333   0.113
 9643SOL    HW230530   5.821   4.361   0.007
 9644SOL     OW30531   5.787   4.001   1.008
 9644SOL    HW130532   5.832   3.970   1.092
 9644SOL    HW230533   5.693   3.967   1.007
 9645SOL     OW30534   5.546   4.089   0.664
 9645SOL    HW130535   5.469   4.151   0.680
 9645SOL    HW230536   5.521   4.021   0.596
 9646SOL     OW30537   6.153   5.039   1.220
 9646SOL    HW130538   6.069   5.038   1.165
 9646SOL    HW230539   6.176   5.133   1.244
 9647SOL     OW30540   0.050   5.248   0.777
 9647SOL    HW130541   0.109   5.167   0.772
 9647SOL    HW230542   0.033   5.283   0.684
 9648SOL     OW30543   6.709   4.534   0.668
 9648SOL    HW130544   6.776   4.609   0.667
 9648SOL    HW230545   6.683   4.515   0.763
 9649SOL     OW30546   6.305   4.858   1.061
 9649SOL    HW130547   6.246   4.896   1.131
 9649SOL    HW230548   6.349   4.932   1.010
 9650SOL     OW30549   6.462   4.440   1.843
 9650SOL    HW130550   6.460   4.505   1.918
 9650SOL    HW230551   6.493   4.486   1.760
 9651SOL     OW30552   6.273   4.670   0.654
 9651SOL    HW130553   6.350   4.678   0.718
 9651SOL    HW230554   6.204   4.739   0.676
 9652SOL     OW30555   6.248   4.854   1.818
 9652SOL    HW130556   6.280   4.929   1.876
 9652SOL    HW230557   6.171   4.885   1.762
 9653SOL     OW30558   5.929   5.111   1.066
 9653SOL    HW130559   5.850   5.067   1.024
 9653SOL    HW230560   5.979   5.164   0.997
 9654SOL     OW30561   6.093   4.085   1.446
 9654SOL    HW130562   6.172   4.026   1.461
 9654SOL    HW230563   6.012   4.043   1.486
 9655SOL     OW30564   5.698   5.460   0.488
 9655SOL    HW130565   5.760   5.517   0.543
 9655SOL    HW230566   5.736   5.368   0.480
 9656SOL     OW30567   6.705   5.093   1.680
 9656SOL    HW130568   6.789   5.046   1.655
 9656SOL    HW230569   6.631   5.027   1.689
 9657SOL     OW30570   5.867   4.804   0.854
 9657SOL    HW130571   5.843   4.713   0.888
 9657SOL    HW230572   5.815   4.873   0.904
 9658SOL     OW30573   6.160   5.552   1.411
 9658SOL    HW130574   6.081   5.531   1.470
 9658SOL    HW230575   6.213   5.626   1.451
 9659SOL     OW30576   6.164   4.669   0.158
 9659SOL    HW130577   6.216   4.710   0.083
 9659SOL    HW230578   6.196   4.708   0.245
 9660SOL     OW30579   5.571   5.328   0.159
 9660SOL    HW130580   5.507   5.251   0.167
 9660SOL    HW230581   5.546   5.399   0.225
 9661SOL     OW30582   5.693   4.459   1.543
 9661SOL    HW130583   5.764   4.511   1.495
 9661SOL    HW230584   5.603   4.501   1.525
 9662SOL     OW30585   6.210   5.086   0.726
 9662SOL    HW130586   6.166   4.997   0.713
 9662SOL    HW230587   6.210   5.135   0.639
 9663SOL     OW30588   6.733   4.858   1.437
 9663SOL    HW130589   6.773   4.820   1.354
 9663SOL    HW230590   6.805   4.877   1.504
 9664SOL     OW30591   6.375   3.786   0.493
 9664SOL    HW130592   6.408   3.879   0.480
 9664SOL    HW230593   6.276   3.788   0.510
 9665SOL     OW30594   5.783   4.624   1.318
 9665SOL    HW130595   5.881   4.608   1.302
 9665SOL    HW230596   5.730   4.570   1.252
 9666SOL     OW30597   6.824   5.586   1.611
 9666SOL    HW130598   6.787   5.650   1.544
 9666SOL    HW230599   6.816   5.493   1.576
 9667SOL     OW30600   5.948   4.003   1.881
 9667SOL    HW130601   5.986   4.083   1.927
 9667SOL    HW230602   5.854   4.022   1.853
 9668SOL     OW30603   6.190   4.417   0.277
 9668SOL    HW130604   6.182   4.509   0.237
 9668SOL    HW230605   6.182   4.423   0.376
 9669SOL     OW30606   6.838   4.035   0.819
 9669SOL    HW130607   6.740   4.027   0.840
 9669SOL    HW230608   6.891   3.999   0.895
 9670SOL     OW30609   6.332   4.292   1.453
 9670SOL    HW130610   6.307   4.257   1.544
 9670SOL    HW230611   6.318   4.221   1.385
 9671SOL     OW30612   6.975   4.232   1.775
 9671SOL    HW130613   6.938   4.314   1.819
 9671SOL    HW230614   0.075   4.240   1.770
 9672SOL     OW30615   6.565   4.557   1.615
 9672SOL    HW130616   6.595   4.489   1.548
 9672SOL    HW230617   6.513   4.629   1.569
 9673SOL     OW30618   6.624   4.182   1.204
 9673SOL    HW130619   6.533   4.146   1.227
 9673SOL    HW230620   6.630   4.196   1.105
 9674SOL     OW30621   6.673   4.465   0.409
 9674SOL    HW130622   6.682   4.486   0.507
 9674SOL    HW230623   6.587   4.417   0.393
 9675SOL     OW30624   5.711   5.636   1.604
 9675SOL    HW130625   5.712   5.594   1.695
 9675SOL    HW230626   5.621   5.623   1.562
 9676SOL     OW30627   6.464   4.104   0.179
 9676SOL    HW130628   6.464   4.161   0.097
 9676SOL    HW230629   6.525   4.027   0.166
 9677SOL     OW30630   0.023   4.926   0.539
 9677SOL    HW130631   0.054   4.874   0.460
 9677SOL    HW230632   6.960   4.997   0.509
 9678SOL     OW30633   6.130   3.839   0.952
 9678SOL    HW130634   6.151   3.857   1.048
 9678SOL    HW230635   6.136   3.925   0.900
 9679SOL     OW30636   6.588   5.136   0.471
 9679SOL    HW130637   6.559   5.224   0.433
 9679SOL    HW230638   6.549   5.125   0.562
 9680SOL     OW30639   5.945   5.502   0.880
 9680SOL    HW130640   5.986   5.410   0.881
 9680SOL    HW230641   6.015   5.569   0.905
 9681SOL     OW30642   6.819   5.329   1.518
 9681SOL    HW130643   6.775   5.251   1.563
 9681SOL    HW230644   6.813   5.317   1.418
 9682SOL     OW30645   5.870   4.634   0.174
 9682SOL    HW130646   5.969   4.648   0.165
 9682SOL    HW230647   5.847   4.539   0.154
 9683SOL     OW30648   6.035   4.994   1.706
 9683SOL    HW130649   6.003   5.000   1.611
 9683SOL    HW230650   5.958   5.005   1.768
 9684SOL     OW30651   6.660   5.483   0.160
 9684SOL    HW130652   6.701   5.574   0.155
 9684SOL    HW230653   6.717   5.417   0.112
 9685SOL     OW30654   5.847   3.976   1.507
 9685SOL    HW130655   5.793   4.060   1.501
 9685SOL    HW230656   5.793   3.905   1.551
 9686SOL     OW30657   0.231   5.081   6.959
 9686SOL    HW130658   0.236   5.145   0.035
 9686SOL    HW230659   0.220   4.988   6.994
 9687SOL     OW30660   6.022   5.438   0.477
 9687SOL    HW130661   5.972   5.504   0.532
 9687SOL    HW230662   6.015   5.463   0.380
 9688SOL     OW30663   5.830   5.518   1.223
 9688SOL    HW130664   5.875   5.432   1.249
 9688SOL    HW230665   5.788   5.507   1.133
 9689SOL     OW30666   6.538   5.453   0.850
 9689SOL    HW130667   6.628   5.411   0.847
 9689SOL    HW230668   6.484   5.421   0.772
 9690SOL     OW30669   6.394   3.976   1.754
 9690SOL    HW130670   6.484   3.934   1.754
 9690SOL    HW230671   6.339   3.936   1.827
 9691SOL     OW30672   6.440   5.237   1.180
 9691SOL    HW130673   6.414   5.204   1.090
 9691SOL    HW230674   6.494   5.167   1.227
 9692SOL     OW30675   6.393   5.092   0.938
 9692SOL    HW130676   6.486   5.108   0.907
 9692SOL    HW230677   6.330   5.095   0.860
 9693SOL     OW30678   6.515   4.244   0.872
 9693SOL    HW130679   6.468   4.254   0.785
 9693SOL    HW230680   6.539   4.148   0.886
 9694SOL     OW30681   6.102   3.792   0.511
 9694SOL    HW130682   6.030   3.778   0.580
 9694SOL    HW230683   6.084   3.875   0.460
 9695SOL     OW30684   6.479   4.037   0.461
 9695SOL    HW130685   6.471   4.070   0.366
 9695SOL    HW230686   6.575   4.037   0.488
 9696SOL     OW30687   6.577   4.384   1.393
 9696SOL    HW130688   6.487   4.351   1.423
 9696SOL    HW230689   6.619   4.316   1.334
 9697SOL     OW30690   6.792   5.356   0.780
 9697SOL    HW130691   6.808   5.434   0.719
 9697SOL    HW230692   6.879   5.312   0.802
 9698SOL     OW30693   6.068   4.852   0.679
 9698SOL    HW130694   5.999   4.836   0.750
 9698SOL    HW230695   6.029   4.837   0.589
 9699SOL     OW30696   6.856   5.582   0.610
 9699SOL    HW130697   6.912   5.648   0.560
 9699SOL    HW230698   6.777   5.629   0.650
 9700SOL     OW30699   6.728   4.313   0.042
 9700SOL    HW130700   6.631   4.325   0.020
 9700SOL    HW230701   6.737   4.286   0.138
 9701SOL     OW30702   5.721   4.211   1.428
 9701SOL    HW130703   5.801   4.226   1.370
 9701SOL    HW230704   5.699   4.296   1.478
 9702SOL     OW30705   6.174   3.892   1.213
 9702SOL    HW130706   6.194   3.817   1.276
 9702SOL    HW230707   6.080   3.923   1.226
 9703SOL     OW30708   6.368   4.239   0.644
 9703SOL    HW130709   6.302   4.302   0.604
 9703SOL    HW230710   6.397   4.172   0.575
 9704SOL     OW30711   6.560   3.785   0.699
 9704SOL    HW130712   6.488   3.785   0.629
 9704SOL    HW230713   6.543   3.712   0.764
 9705SOL     OW30714   6.022   5.224   0.115
 9705SOL    HW130715   5.983   5.137   0.144
 9705SOL    HW230716   5.995   5.243   0.021
 9706SOL     OW30717   6.072   4.007   0.343
 9706SOL    HW130718   6.147   3.963   0.294
 9706SOL    HW230719   6.039   4.085   0.291
 9707SOL     OW30720   6.564   5.029   1.311
 9707SOL    HW130721   6.474   5.017   1.353
 9707SOL    HW230722   6.631   4.972   1.360
 9708SOL     OW30723   6.757   5.052   1.109
 9708SOL    HW130724   6.683   5.041   1.176
 9708SOL    HW230725   6.718   5.079   1.021
 9709SOL     OW30726   6.529   3.833   1.339
 9709SOL    HW130727   6.550   3.821   1.242
 9709SOL    HW230728   6.607   3.875   1.386
 9710SOL     OW30729   6.513   4.888   1.700
 9710SOL    HW130730   6.421   4.878   1.737
 9710SOL    HW230731   6.515   4.857   1.605
 9711SOL     OW30732   6.301   4.750   0.385
 9711SOL    HW130733   6.297   4.721   0.481
 9711SOL    HW230734   6.383   4.713   0.342
 9712SOL     OW30735   6.037   4.526   1.280
 9712SOL    HW130736   6.099   4.540   1.357
 9712SOL    HW230737   6.007   4.431   1.278
 9713SOL     OW30738   6.885   4.099   1.280
 9713SOL    HW130739   6.951   4.166   1.316
 9713SOL    HW230740   6.800   4.145   1.257
 9714SOL     OW30741   5.655   5.269   1.355
 9714SOL    HW130742   5.609   5.342   1.304
 9714SOL    HW230743   5.754   5.279   1.347
 9715SOL     OW30744   6.154   4.099   0.853
 9715SOL    HW130745   6.119   4.101   0.760
 9715SOL    HW230746   6.231   4.162   0.861
 9716SOL     OW30747   6.862   5.123   0.444
 9716SOL    HW130748   6.901   5.211   0.471
 9716SOL    HW230749   6.763   5.125   0.454
 9717SOL     OW30750   6.865   5.273   1.246
 9717SOL    HW130751   6.952   5.253   1.291
 9717SOL    HW230752   6.834   5.192   1.196
 9718SOL     OW30753   5.925   5.262   1.290
 9718SOL    HW130754   5.917   5.205   1.209
 9718SOL    HW230755   6.021   5.286   1.305
 9719SOL     OW30756   6.072   4.408   1.685
 9719SOL    HW130757   6.110   4.464   1.612
 9719SOL    HW230758   6.138   4.338   1.711
 9720SOL     OW30759   6.639   3.854   1.758
 9720SOL    HW130760   6.686   3.942   1.749
 9720SOL    HW230761   6.697   3.782   1.719
 9721SOL     OW30762   6.095   3.792   1.776
 9721SOL    HW130763   6.043   3.730   1.717
 9721SOL    HW230764   6.042   3.874   1.794
 9722SOL     OW30765   6.253   4.581   1.110
 9722SOL    HW130766   6.261   4.678   1.086
 9722SOL    HW230767   6.167   4.567   1.160
 9723SOL     OW30768   6.895   4.576   1.015
 9723SOL    HW130769   6.806   4.538   0.988
 9723SOL    HW230770   6.945   4.507   1.067
 9724SOL     OW30771   6.764   4.225   0.303
 9724SOL    HW130772   6.755   4.159   0.378
 9724SOL    HW230773   6.747   4.317   0.338
 9725SOL     OW30774   5.901   3.913   1.243
 9725SOL    HW130775   5.882   3.943   1.336
 9725SOL    HW230776   5.878   3.816   1.234
 9726SOL     OW30777   5.650   5.013   1.254
 9726SOL    HW130778   5.643   4.945   1.327
 9726SOL    HW230779   5.642   5.105   1.293
 9727SOL     OW30780   6.299   4.309   1.034
 9727SOL    HW130781   6.379   4.301   0.975
 9727SOL    HW230782   6.278   4.406   1.049
 9728SOL     OW30783   5.882   3.749   0.675
 9728SOL    HW130784   5.845   3.841   0.684
 9728SOL    HW230785   5.896   3.709   0.765
 9729SOL     OW30786   0.159   4.238   0.378
 9729SOL    HW130787   0.240   4.188   0.411
 9729SOL    HW230788   0.134   4.308   0.445
 9730SOL     OW30789   6.633   4.487   0.936
 9730SOL    HW130790   6.598   4.510   1.027
 9730SOL    HW230791   6.597   4.397   0.909
 9731SOL     OW30792   6.536   5.332   1.652
 9731SOL    HW130793   6.528   5.365   1.558
 9731SOL    HW230794   6.574   5.240   1.653
 9732SOL     OW30795   5.941   4.628   1.801
 9732SOL    HW130796   6.000   4.663   1.873
 9732SOL    HW230797   5.983   4.547   1.759
 9733SOL     OW30798   6.903   4.538   0.044
 9733SOL    HW130799   6.862   4.449   0.023
 9733SOL    HW230800   6.983   4.552   6.986
 9734SOL     OW30801   6.652   5.127   0.863
 9734SOL    HW130802   6.665   5.042   0.811
 9734SOL    HW230803   6.703   5.201   0.819
 9735SOL     OW30804   5.959   4.209   1.022
 9735SOL    HW130805   5.890   4.138   1.010
 9735SOL    HW230806   6.041   4.185   0.970
 9736SOL     OW30807   6.748   4.099   1.697
 9736SOL    HW130808   6.682   4.140   1.760
 9736SOL    HW230809   6.837   4.143   1.709
 9737SOL     OW30810   6.749   3.944   1.463
 9737SOL    HW130811   6.741   4.001   1.545
 9737SOL    HW230812   6.805   3.990   1.395
 9738SOL     OW30813   5.690   5.505   0.981
 9738SOL    HW130814   5.629   5.447   0.927
 9738SOL    HW230815   5.780   5.507   0.937
 9739SOL     OW30816   6.082   5.260   0.896
 9739SOL    HW130817   6.155   5.320   0.930
 9739SOL    HW230818   6.121   5.195   0.831
 9740SOL     OW30819   6.518   4.542   1.173
 9740SOL    HW130820   6.539   4.494   1.258
 9740SOL    HW230821   6.419   4.552   1.163
 9741SOL     OW30822   5.691   4.438   1.120
 9741SOL    HW130823   5.717   4.485   1.036
 9741SOL    HW230824   5.758   4.367   1.141
 9742SOL     OW30825   5.810   4.327   1.757
 9742SOL    HW130826   5.907   4.339   1.736
 9742SOL    HW230827   5.755   4.377   1.690
 9743SOL     OW30828   6.451   4.335   0.328
 9743SOL    HW130829   6.460   4.251   0.275
 9743SOL    HW230830   6.360   4.374   0.312
 9744SOL     OW30831   5.827   5.276   1.708
 9744SOL    HW130832   5.799   5.348   1.772
 9744SOL    HW230833   5.825   5.188   1.754
 9745SOL     OW30834   6.347   4.120   1.228
 9745SOL    HW130835   6.291   4.038   1.223
 9745SOL    HW230836   6.318   4.184   1.157
 9746SOL     OW30837   6.506   5.410   1.395
 9746SOL    HW130838   6.488   5.358   1.312
 9746SOL    HW230839   6.507   5.508   1.374
 9747SOL     OW30840   6.010   4.226   0.195
 9747SOL    HW130841   6.081   4.291   0.222
 9747SOL    HW230842   5.926   4.276   0.172
 9748SOL     OW30843   5.666   4.824   1.461
 9748SOL    HW130844   5.691   4.813   1.557
 9748SOL    HW230845   5.717   4.758   1.405
 9749SOL     OW30846   6.833   4.788   1.194
 9749SOL    HW130847   6.859   4.719   1.126
 9749SOL    HW230848   6.825   4.878   1.150
 9750SOL     OW30849   6.885   4.619   0.305
 9750SOL    HW130850   6.812   4.568   0.351
 9750SOL    HW230851   6.894   4.586   0.211
 9751SOL     OW30852   6.887   5.509   1.105
 9751SOL    HW130853   6.967   5.491   1.047
 9751SOL    HW230854   6.869   5.430   1.163
 9752SOL     OW30855   5.695   4.975   0.990
 9752SOL    HW130856   5.680   4.994   1.087
 9752SOL    HW230857   5.629   4.907   0.958
 9753SOL     OW30858   6.298   5.405   1.760
 9753SOL    HW130859   6.256   5.483   1.714
 9753SOL    HW230860   6.388   5.388   1.720
 9754SOL     OW30861   6.611   3.874   0.188
 9754SOL    HW130862   6.698   3.916   0.162
 9754SOL    HW230863   6.626   3.780   0.216
 9755SOL     OW30864   6.994   5.354   0.529
 9755SOL    HW130865   0.085   5.380   0.497
 9755SOL    HW230866   6.939   5.436   0.544
 9756SOL     OW30867   5.731   5.504   1.842
 9756SOL    HW130868   5.679   5.433   1.890
 9756SOL    HW230869   5.784   5.557   1.909
 9757SOL     OW30870   6.893   4.738   0.688
 9757SOL    HW130871   6.963   4.680   0.729
 9757SOL    HW230872   6.936   4.808   0.631
 9758SOL     OW30873   6.322   4.983   1.432
 9758SOL    HW130874   6.304   5.043   1.510
 9758SOL    HW230875   6.250   4.996   1.364
 9759SOL     OW30876   6.271   5.287   0.228
 9759SOL    HW130877   6.329   5.315   0.151
 9759SOL    HW230878   6.184   5.253   0.193
 9760SOL     OW30879   5.797   4.006   0.730
 9760SOL    HW130880   5.706   4.039   0.703
 9760SOL    HW230881   5.805   4.007   0.829
 9761SOL     OW30882   6.814   5.328   0.011
 9761SOL    HW130883   6.897   5.309   0.063
 9761SOL    HW230884   6.816   5.278   6.925
 9762SOL     OW30885   6.425   4.732   1.447
 9762SOL    HW130886   6.486   4.723   1.369
 9762SOL    HW230887   6.377   4.820   1.442
 9763SOL     OW30888   6.521   4.654   0.269
 9763SOL    HW130889   6.566   4.676   0.182
 9763SOL    HW230890   6.580   4.592   0.322
 9764SOL     OW30891   5.918   5.028   1.463
 9764SOL    HW130892   5.924   5.114   1.413
 9764SOL    HW230893   5.843   4.973   1.426
 9765SOL     OW30894   6.663   4.884   0.746
 9765SOL    HW130895   6.588   4.823   0.772
 9765SOL    HW230896   6.744   4.831   0.723
 9766SOL     OW30897   6.582   3.978   0.898
 9766SOL    HW130898   6.565   3.921   0.817
 9766SOL    HW230899   6.590   3.919   0.979
 9767SOL     OW30900   6.202   5.238   0.500
 9767SOL    HW130901   6.238   5.230   0.407
 9767SOL    HW230902   6.129   5.306   0.502
 9768SOL     OW30903   5.716   4.771   1.724
 9768SOL    HW130904   5.635   4.743   1.775
 9768SOL    HW230905   5.794   4.715   1.752
 9769SOL     OW30906   6.309   3.912   1.499
 9769SOL    HW130907   6.387   3.894   1.439
 9769SOL    HW230908   6.341   3.940   1.589
 9770SOL     OW30909   5.701   4.094   6.890
 9770SOL    HW130910   5.617   4.044   6.871
 9770SOL    HW230911   5.692   4.188   6.857
 9771SOL     OW30912   5.636   3.849   0.261
 9771SOL    HW130913   5.703   3.921   0.244
 9771SOL    HW230914   5.610   3.807   0.174
 9772SOL     OW30915   6.219   4.538   1.481
 9772SOL    HW130916   6.286   4.612   1.478
 9772SOL    HW230917   6.265   4.451   1.467
 9773SOL     OW30918   6.297   4.242   1.726
 9773SOL    HW130919   6.353   4.308   1.775
 9773SOL    HW230920   6.334   4.150   1.740
 9774SOL     OW30921   6.928   4.929   1.626
 9774SOL    HW130922   6.938   4.882   1.714
 9774SOL    HW230923   0.009   4.911   1.570
 9775SOL     OW30924   5.953   5.497   1.587
 9775SOL    HW130925   5.870   5.552   1.573
 9775SOL    HW230926   5.928   5.406   1.617
 9776SOL     OW30927   6.749   4.043   0.525
 9776SOL    HW130928   6.835   4.018   0.481
 9776SOL    HW230929   6.760   4.043   0.624
 9777SOL     OW30930   6.178   4.430   0.548
 9777SOL    HW130931   6.211   4.513   0.592
 9777SOL    HW230932   6.080   4.419   0.567
 9778SOL     OW30933   6.496   4.992   0.014
 9778SOL    HW130934   6.468   4.995   0.110
 9778SOL    HW230935   6.595   4.982   0.008
 9779SOL     OW30936   6.275   5.441   0.955
 9779SOL    HW130937   6.238   5.533   0.947
 9779SOL    HW230938   6.372   5.441   0.933
 9780SOL     OW30939   6.465   4.712   0.855
 9780SOL    HW130940   6.523   4.636   0.885
 9780SOL    HW230941   6.418   4.751   0.934
 9781SOL     OW30942   6.675   4.688   0.040
 9781SOL    HW130943   6.697   4.786   0.036
 9781SOL    HW230944   6.760   4.635   0.045
 9782SOL     OW30945   5.782   5.022   1.819
 9782SOL    HW130946   5.761   4.936   1.772
 9782SOL    HW230947   5.723   5.032   1.899
 9783SOL     OW30948   6.260   5.142   1.648
 9783SOL    HW130949   6.176   5.097   1.677
 9783SOL    HW230950   6.262   5.235   1.684
 9784SOL     OW30951   6.035   4.093   0.611
 9784SOL    HW130952   6.044   4.078   0.513
 9784SOL    HW230953   5.942   4.067   0.640
 9785SOL     OW30954   5.953   4.263   1.287
 9785SOL    HW130955   6.013   4.205   1.342
 9785SOL    HW230956   5.965   4.240   1.190
 9786SOL     OW30957   6.414   5.379   0.623
 9786SOL    HW130958   6.458   5.395   0.535
 9786SOL    HW230959   6.327   5.332   0.608
 9787SOL     OW30960   6.939   3.935   1.060
 9787SOL    HW130961   6.916   3.839   1.079
 9787SOL    HW230962   6.920   3.990   1.142
 9788SOL     OW30963   6.618   3.762   1.078
 9788SOL    HW130964   6.569   3.696   1.022
 9788SOL    HW230965   6.712   3.733   1.092
 9789SOL     OW30966   6.437   4.986   0.280
 9789SOL    HW130967   6.385   4.911   0.322
 9789SOL    HW230968   6.497   5.027   0.348
 9790SOL     OW30969   6.196   5.307   1.289
 9790SOL    HW130970   6.193   5.396   1.334
 9790SOL    HW230971   6.285   5.295   1.246
 9791SOL     OW30972   6.501   5.375   0.364
 9791SOL    HW130973   6.416   5.349   0.317
 9791SOL    HW230974   6.562   5.420   0.299
 9792SOL     OW30975   5.789   4.390   2.028
 9792SOL    HW130976   5.696   4.364   2.055
 9792SOL    HW230977   5.797   4.384   1.928
 9793SOL     OW30978   5.790   3.999   2.851
 9793SOL    HW130979   5.833   3.973   2.937
 9793SOL    HW230980   5.699   3.957   2.844
 9794SOL     OW30981   5.609   4.147   2.491
 9794SOL    HW130982   5.536   4.162   2.558
 9794SOL    HW230983   5.578   4.081   2.423
 9795SOL     OW30984   6.143   5.041   3.089
 9795SOL    HW130985   6.059   5.037   3.034
 9795SOL    HW230986   6.160   5.136   3.116
 9796SOL     OW30987   0.043   5.260   2.632
 9796SOL    HW130988   0.096   5.175   2.625
 9796SOL    HW230989   0.036   5.303   2.542
 9797SOL     OW30990   6.687   4.526   2.519
 9797SOL    HW130991   6.760   4.593   2.518
 9797SOL    HW230992   6.661   4.506   2.614
 9798SOL     OW30993   6.304   4.859   2.930
 9798SOL    HW130994   6.241   4.894   2.999
 9798SOL    HW230995   6.344   4.935   2.879
 9799SOL     OW30996   6.457   4.458   3.699
 9799SOL    HW130997   6.460   4.517   3.779
 9799SOL    HW230998   6.476   4.512   3.617
 9800SOL     OW30999   6.301   4.689   2.498
 9800SOL    HW131000   6.368   4.694   2.573
 9800SOL    HW231001   6.229   4.756   2.514
 9801SOL     OW31002   6.246   4.854   3.687
 9801SOL    HW131003   6.273   4.931   3.744
 9801SOL    HW231004   6.173   4.882   3.624
 9802SOL     OW31005   5.919   5.113   2.933
 9802SOL    HW131006   5.848   5.053   2.896
 9802SOL    HW231007   5.965   5.160   2.858
 9803SOL     OW31008   6.081   4.080   3.299
 9803SOL    HW131009   6.159   4.020   3.317
 9803SOL    HW231010   5.998   4.039   3.337
 9804SOL     OW31011   5.818   5.475   2.334
 9804SOL    HW131012   5.843   5.543   2.403
 9804SOL    HW231013   5.893   5.467   2.268
 9805SOL     OW31014   6.699   5.085   3.536
 9805SOL    HW131015   6.783   5.037   3.508
 9805SOL    HW231016   6.626   5.018   3.547
 9806SOL     OW31017   5.830   5.199   2.373
 9806SOL    HW131018   5.814   5.297   2.382
 9806SOL    HW231019   5.794   5.152   2.453
 9807SOL     OW31020   5.918   4.804   2.740
 9807SOL    HW131021   5.922   4.705   2.755
 9807SOL    HW231022   5.854   4.845   2.804
 9808SOL     OW31023   6.132   5.543   3.295
 9808SOL    HW131024   6.052   5.525   3.353
 9808SOL    HW231025   6.185   5.618   3.334
 9809SOL     OW31026   6.149   4.697   2.028
 9809SOL    HW131027   6.185   4.740   1.945
 9809SOL    HW231028   6.203   4.725   2.107
 9810SOL     OW31029   5.706   4.405   2.426
 9810SOL    HW131030   5.681   4.310   2.446
 9810SOL    HW231031   5.698   4.460   2.509
 9811SOL     OW31032   5.629   5.302   1.986
 9811SOL    HW131033   5.610   5.206   2.007
 9811SOL    HW231034   5.611   5.358   2.067
 9812SOL     OW31035   5.798   4.486   3.467
 9812SOL    HW131036   5.897   4.483   3.475
 9812SOL    HW231037   5.765   4.577   3.494
 9813SOL     OW31038   6.212   5.105   2.571
 9813SOL    HW131039   6.174   5.012   2.570
 9813SOL    HW231040   6.204   5.145   2.480
 9814SOL     OW31041   6.743   4.861   3.283
 9814SOL    HW131042   6.784   4.820   3.202
 9814SOL    HW231043   6.815   4.878   3.351
 9815SOL     OW31044   6.423   3.770   2.347
 9815SOL    HW131045   6.472   3.854   2.324
 9815SOL    HW231046   6.326   3.791   2.360
 9816SOL     OW31047   5.752   4.673   3.166
 9816SOL    HW131048   5.835   4.629   3.135
 9816SOL    HW231049   5.674   4.642   3.111
 9817SOL     OW31050   6.825   5.576   3.471
 9817SOL    HW131051   6.785   5.641   3.406
 9817SOL    HW231052   6.815   5.483   3.436
 9818SOL     OW31053   5.949   3.988   3.742
 9818SOL    HW131054   5.983   4.068   3.792
 9818SOL    HW231055   5.850   3.997   3.730
 9819SOL     OW31056   6.166   4.434   2.141
 9819SOL    HW131057   6.164   4.521   2.092
 9819SOL    HW231058   6.098   4.436   2.215
 9820SOL     OW31059   6.866   4.048   2.729
 9820SOL    HW131060   6.766   4.040   2.727
 9820SOL    HW231061   6.902   4.000   2.809
 9821SOL     OW31062   6.350   4.301   3.303
 9821SOL    HW131063   6.311   4.273   3.391
 9821SOL    HW231064   6.339   4.226   3.237
 9822SOL     OW31065   6.966   4.240   3.630
 9822SOL    HW131066   6.933   4.323   3.674
 9822SOL    HW231067   0.066   4.242   3.626
 9823SOL     OW31068   6.542   4.593   3.470
 9823SOL    HW131069   6.585   4.512   3.428
 9823SOL    HW231070   6.492   4.643   3.400
 9824SOL     OW31071   6.634   4.116   3.042
 9824SOL    HW131072   6.540   4.118   3.077
 9824SOL    HW231073   6.634   4.083   2.948
 9825SOL     OW31074   6.632   4.457   2.260
 9825SOL    HW131075   6.650   4.480   2.356
 9825SOL    HW231076   6.545   4.407   2.254
 9826SOL     OW31077   5.674   4.572   2.643
 9826SOL    HW131078   5.765   4.556   2.681
 9826SOL    HW231079   5.626   4.641   2.697
 9827SOL     OW31080   5.681   5.646   3.449
 9827SOL    HW131081   5.682   5.620   3.546
 9827SOL    HW231082   5.586   5.649   3.417
 9828SOL     OW31083   6.438   4.074   2.071
 9828SOL    HW131084   6.494   4.112   1.998
 9828SOL    HW231085   6.377   4.004   2.034
 9829SOL     OW31086   7.000   4.914   2.388
 9829SOL    HW131087   0.018   4.864   2.304
 9829SOL    HW231088   6.939   4.991   2.369
 9830SOL     OW31089   6.153   3.832   2.795
 9830SOL    HW131090   6.164   3.862   2.890
 9830SOL    HW231091   6.162   3.911   2.734
 9831SOL     OW31092   6.592   5.207   2.345
 9831SOL    HW131093   6.559   5.274   2.279
 9831SOL    HW231094   6.552   5.226   2.435
 9832SOL     OW31095   5.945   5.508   2.746
 9832SOL    HW131096   5.980   5.414   2.743
 9832SOL    HW231097   6.017   5.570   2.776
 9833SOL     OW31098   6.814   5.318   3.378
 9833SOL    HW131099   6.767   5.243   3.424
 9833SOL    HW231100   6.809   5.306   3.279
 9834SOL     OW31101   5.885   4.651   2.129
 9834SOL    HW131102   5.976   4.669   2.091
 9834SOL    HW231103   5.853   4.561   2.099
 9835SOL     OW31104   6.045   4.994   3.557
 9835SOL    HW131105   6.009   5.010   3.465
 9835SOL    HW231106   5.969   4.992   3.622
 9836SOL     OW31107   6.723   5.471   2.096
 9836SOL    HW131108   6.630   5.455   2.130
 9836SOL    HW231109   6.742   5.408   2.021
 9837SOL     OW31110   5.829   3.974   3.357
 9837SOL    HW131111   5.751   4.036   3.350
 9837SOL    HW231112   5.800   3.889   3.401
 9838SOL     OW31113   6.051   5.506   2.182
 9838SOL    HW131114   6.097   5.556   2.255
 9838SOL    HW231115   6.119   5.460   2.125
 9839SOL     OW31116   5.791   5.528   3.074
 9839SOL    HW131117   5.840   5.448   3.110
 9839SOL    HW231118   5.762   5.509   2.980
 9840SOL     OW31119   6.542   5.429   2.738
 9840SOL    HW131120   6.634   5.391   2.728
 9840SOL    HW231121   6.482   5.386   2.671
 9841SOL     OW31122   5.978   4.406   2.342
 9841SOL    HW131123   5.994   4.309   2.358
 9841SOL    HW231124   5.881   4.426   2.353
 9842SOL     OW31125   6.267   3.855   1.977
 9842SOL    HW131126   6.315   3.774   2.010
 9842SOL    HW231127   6.199   3.829   1.909
 9843SOL     OW31128   6.373   3.995   3.608
 9843SOL    HW131129   6.467   3.959   3.610
 9843SOL    HW231130   6.318   3.949   3.676
 9844SOL     OW31131   6.426   5.237   3.047
 9844SOL    HW131132   6.397   5.203   2.957
 9844SOL    HW231133   6.486   5.170   3.091
 9845SOL     OW31134   6.384   5.092   2.802
 9845SOL    HW131135   6.479   5.100   2.770
 9845SOL    HW231136   6.322   5.095   2.723
 9846SOL     OW31137   6.511   4.239   2.727
 9846SOL    HW131138   6.491   4.236   2.629
 9846SOL    HW231139   6.539   4.148   2.758
 9847SOL     OW31140   6.153   3.807   2.363
 9847SOL    HW131141   6.079   3.797   2.430
 9847SOL    HW231142   6.133   3.884   2.302
 9848SOL     OW31143   6.952   4.788   1.866
 9848SOL    HW131144   6.979   4.793   1.962
 9848SOL    HW231145   6.856   4.760   1.860
 9849SOL     OW31146   5.870   3.779   2.021
 9849SOL    HW131147   5.914   3.857   1.975
 9849SOL    HW231148   5.938   3.728   2.073
 9850SOL     OW31149   6.578   3.991   2.295
 9850SOL    HW131150   6.541   4.027   2.210
 9850SOL    HW231151   6.676   4.011   2.300
 9851SOL     OW31152   6.614   4.358   3.344
 9851SOL    HW131153   6.518   4.332   3.329
 9851SOL    HW231154   6.663   4.282   3.385
 9852SOL     OW31155   6.773   5.329   2.617
 9852SOL    HW131156   6.771   5.388   2.536
 9852SOL    HW231157   6.868   5.305   2.637
 9853SOL     OW31158   6.090   4.862   2.539
 9853SOL    HW131159   6.035   4.841   2.619
 9853SOL    HW231160   6.032   4.858   2.457
 9854SOL     OW31161   6.774   5.512   2.394
 9854SOL    HW131162   6.752   5.516   2.296
 9854SOL    HW231163   6.727   5.587   2.441
 9855SOL     OW31164   6.601   4.212   1.899
 9855SOL    HW131165   6.555   4.299   1.879
 9855SOL    HW231166   6.662   4.224   1.977
 9856SOL     OW31167   5.725   4.330   3.253
 9856SOL    HW131168   5.816   4.309   3.218
 9856SOL    HW231169   5.733   4.396   3.328
 9857SOL     OW31170   6.168   3.902   3.056
 9857SOL    HW131171   6.188   3.825   3.116
 9857SOL    HW231172   6.073   3.933   3.072
 9858SOL     OW31173   6.470   4.190   2.462
 9858SOL    HW131174   6.430   4.248   2.392
 9858SOL    HW231175   6.512   4.109   2.420
 9859SOL     OW31176   6.585   3.790   2.571
 9859SOL    HW131177   6.522   3.784   2.494
 9859SOL    HW231178   6.572   3.711   2.631
 9860SOL     OW31179   6.093   5.177   2.068
 9860SOL    HW131180   6.006   5.131   2.086
 9860SOL    HW231181   6.154   5.115   2.019
 9861SOL     OW31182   6.107   3.994   2.171
 9861SOL    HW131183   6.163   3.948   2.103
 9861SOL    HW231184   6.067   4.077   2.131
 9862SOL     OW31185   6.568   5.031   3.169
 9862SOL    HW131186   6.478   5.019   3.212
 9862SOL    HW231187   6.635   4.973   3.215
 9863SOL     OW31188   6.757   5.047   2.964
 9863SOL    HW131189   6.685   5.039   3.033
 9863SOL    HW231190   6.717   5.069   2.876
 9864SOL     OW31191   6.523   3.825   3.194
 9864SOL    HW131192   6.550   3.809   3.098
 9864SOL    HW231193   6.599   3.871   3.242
 9865SOL     OW31194   6.514   4.876   3.578
 9865SOL    HW131195   6.419   4.875   3.610
 9865SOL    HW231196   6.525   4.811   3.504
 9866SOL     OW31197   6.343   4.754   2.225
 9866SOL    HW131198   6.337   4.717   2.318
 9866SOL    HW231199   6.410   4.701   2.173
 9867SOL     OW31200   6.004   4.542   3.117
 9867SOL    HW131201   6.072   4.564   3.187
 9867SOL    HW231202   5.984   4.445   3.119
 9868SOL     OW31203   6.889   4.093   3.155
 9868SOL    HW131204   6.946   4.169   3.186
 9868SOL    HW231205   6.804   4.128   3.115
 9869SOL     OW31206   5.626   5.273   3.201
 9869SOL    HW131207   5.579   5.344   3.148
 9869SOL    HW231208   5.725   5.285   3.193
 9870SOL     OW31209   5.907   4.850   2.331
 9870SOL    HW131210   5.900   4.926   2.266
 9870SOL    HW231211   5.896   4.764   2.282
 9871SOL     OW31212   6.115   4.264   2.739
 9871SOL    HW131213   6.125   4.327   2.662
 9871SOL    HW231214   6.192   4.276   2.803
 9872SOL     OW31215   6.860   5.140   2.314
 9872SOL    HW131216   6.910   5.222   2.341
 9872SOL    HW231217   6.762   5.156   2.326
 9873SOL     OW31218   6.864   5.266   3.107
 9873SOL    HW131219   6.950   5.247   3.153
 9873SOL    HW231220   6.834   5.185   3.055
 9874SOL     OW31221   5.900   5.277   3.146
 9874SOL    HW131222   5.897   5.216   3.066
 9874SOL    HW231223   5.995   5.298   3.169
 9875SOL     OW31224   6.074   4.454   3.518
 9875SOL    HW131225   6.116   4.500   3.439
 9875SOL    HW231226   6.133   4.380   3.549
 9876SOL     OW31227   6.625   3.889   3.617
 9876SOL    HW131228   6.677   3.973   3.604
 9876SOL    HW231229   6.682   3.811   3.592
 9877SOL     OW31230   6.100   3.786   3.627
 9877SOL    HW131231   6.050   3.725   3.566
 9877SOL    HW231232   6.041   3.864   3.650
 9878SOL     OW31233   6.232   4.583   2.947
 9878SOL    HW131234   6.255   4.680   2.937
 9878SOL    HW231235   6.143   4.575   2.991
 9879SOL     OW31236   6.890   4.564   2.858
 9879SOL    HW131237   6.798   4.528   2.844
 9879SOL    HW231238   6.941   4.505   2.920
 9880SOL     OW31239   6.743   4.240   2.129
 9880SOL    HW131240   6.792   4.177   2.189
 9880SOL    HW231241   6.711   4.319   2.181
 9881SOL     OW31242   5.892   3.920   3.092
 9881SOL    HW131243   5.872   3.947   3.187
 9881SOL    HW231244   5.880   3.822   3.083
 9882SOL     OW31245   5.632   5.010   3.117
 9882SOL    HW131246   5.646   4.951   3.196
 9882SOL    HW231247   5.620   5.104   3.147
 9883SOL     OW31248   6.321   4.325   2.912
 9883SOL    HW131249   6.392   4.313   2.843
 9883SOL    HW231250   6.295   4.422   2.916
 9884SOL     OW31251   5.931   3.776   2.526
 9884SOL    HW131252   5.894   3.868   2.540
 9884SOL    HW231253   5.932   3.726   2.613
 9885SOL     OW31254   0.158   4.211   2.193
 9885SOL    HW131255   0.115   4.120   2.189
 9885SOL    HW231256   0.131   4.257   2.277
 9886SOL     OW31257   6.618   4.480   2.811
 9886SOL    HW131258   6.600   4.485   2.909
 9886SOL    HW231259   6.590   4.391   2.776
 9887SOL     OW31260   6.533   5.332   3.516
 9887SOL    HW131261   6.522   5.366   3.422
 9887SOL    HW231262   6.562   5.236   3.514
 9888SOL     OW31263   5.958   4.627   3.704
 9888SOL    HW131264   6.019   4.652   3.779
 9888SOL    HW231265   6.005   4.564   3.642
 9889SOL     OW31266   6.955   4.483   1.893
 9889SOL    HW131267   0.041   4.462   1.940
 9889SOL    HW231268   6.970   4.555   1.825
 9890SOL     OW31269   6.644   5.108   2.720
 9890SOL    HW131270   6.656   5.022   2.669
 9890SOL    HW231271   6.691   5.182   2.672
 9891SOL     OW31272   5.921   4.526   2.751
 9891SOL    HW131273   5.998   4.512   2.689
 9891SOL    HW231274   5.913   4.447   2.812
 9892SOL     OW31275   5.884   4.252   2.871
 9892SOL    HW131276   5.840   4.163   2.860
 9892SOL    HW231277   5.969   4.255   2.818
 9893SOL     OW31278   6.728   4.141   3.529
 9893SOL    HW131279   6.668   4.171   3.603
 9893SOL    HW231280   6.822   4.170   3.549
 9894SOL     OW31281   6.735   3.945   3.325
 9894SOL    HW131282   6.720   4.010   3.400
 9894SOL    HW231283   6.796   3.986   3.257
 9895SOL     OW31284   5.610   5.017   2.036
 9895SOL    HW131285   5.517   5.045   2.012
 9895SOL    HW231286   5.608   4.923   2.072
 9896SOL     OW31287   5.683   5.485   2.818
 9896SOL    HW131288   5.637   5.411   2.769
 9896SOL    HW231289   5.776   5.495   2.784
 9897SOL     OW31290   6.067   5.260   2.752
 9897SOL    HW131291   6.142   5.313   2.792
 9897SOL    HW231292   6.104   5.200   2.681
 9898SOL     OW31293   6.548   4.470   3.077
 9898SOL    HW131294   6.596   4.442   3.160
 9898SOL    HW231295   6.455   4.433   3.078
 9899SOL     OW31296   5.637   4.322   2.994
 9899SOL    HW131297   5.719   4.308   2.939
 9899SOL    HW231298   5.663   4.332   3.091
 9900SOL     OW31299   5.807   4.266   3.631
 9900SOL    HW131300   5.895   4.229   3.601
 9900SOL    HW231301   5.783   4.345   3.574
 9901SOL     OW31302   6.401   4.311   2.219
 9901SOL    HW131303   6.409   4.227   2.166
 9901SOL    HW231304   6.317   4.359   2.193
 9902SOL     OW31305   5.782   5.261   3.586
 9902SOL    HW131306   5.749   5.290   3.676
 9902SOL    HW231307   5.810   5.165   3.591
 9903SOL     OW31308   6.353   4.121   3.092
 9903SOL    HW131309   6.291   4.042   3.082
 9903SOL    HW231310   6.331   4.190   3.023
 9904SOL     OW31311   6.493   5.410   3.261
 9904SOL    HW131312   6.474   5.358   3.177
 9904SOL    HW231313   6.498   5.507   3.239
 9905SOL     OW31314   6.013   4.221   2.045
 9905SOL    HW131315   6.086   4.286   2.066
 9905SOL    HW231316   5.925   4.268   2.048
 9906SOL     OW31317   5.685   4.855   3.349
 9906SOL    HW131318   5.703   4.819   3.441
 9906SOL    HW231319   5.712   4.787   3.281
 9907SOL     OW31320   6.838   4.781   3.039
 9907SOL    HW131321   6.862   4.715   2.968
 9907SOL    HW231322   6.826   4.871   2.997
 9908SOL     OW31323   6.851   4.588   2.130
 9908SOL    HW131324   6.785   4.538   2.187
 9908SOL    HW231325   6.870   4.535   2.048
 9909SOL     OW31326   6.882   5.506   2.973
 9909SOL    HW131327   6.962   5.489   2.916
 9909SOL    HW231328   6.864   5.426   3.030
 9910SOL     OW31329   5.716   4.933   2.871
 9910SOL    HW131330   5.685   4.959   2.962
 9910SOL    HW231331   5.644   4.881   2.824
 9911SOL     OW31332   6.294   5.405   3.625
 9911SOL    HW131333   6.248   5.480   3.578
 9911SOL    HW231334   6.385   5.391   3.585
 9912SOL     OW31335   0.005   5.364   2.384
 9912SOL    HW131336   0.092   5.405   2.357
 9912SOL    HW231337   6.933   5.433   2.380
 9913SOL     OW31338   5.694   5.558   3.703
 9913SOL    HW131339   5.666   5.468   3.735
 9913SOL    HW231340   5.757   5.599   3.769
 9914SOL     OW31341   6.887   4.713   2.534
 9914SOL    HW131342   6.959   4.655   2.573
 9914SOL    HW231343   6.929   4.788   2.483
 9915SOL     OW31344   6.326   4.987   3.289
 9915SOL    HW131345   6.312   5.043   3.371
 9915SOL    HW231346   6.251   5.001   3.226
 9916SOL     OW31347   6.252   5.393   2.027
 9916SOL    HW131348   6.271   5.401   1.929
 9916SOL    HW231349   6.195   5.313   2.044
 9917SOL     OW31350   5.840   4.024   2.580
 9917SOL    HW131351   5.761   4.073   2.542
 9917SOL    HW231352   5.833   4.020   2.679
 9918SOL     OW31353   6.739   5.306   1.862
 9918SOL    HW131354   6.734   5.218   1.816
 9918SOL    HW231355   6.688   5.374   1.810
 9919SOL     OW31356   6.414   4.730   3.270
 9919SOL    HW131357   6.468   4.723   3.186
 9919SOL    HW231358   6.380   4.823   3.280
 9920SOL     OW31359   6.529   4.621   2.057
 9920SOL    HW131360   6.597   4.662   1.996
 9920SOL    HW231361   6.576   4.567   2.127
 9921SOL     OW31362   5.904   5.048   3.333
 9921SOL    HW131363   5.894   5.123   3.269
 9921SOL    HW231364   5.825   4.986   3.325
 9922SOL     OW31365   6.665   4.865   2.608
 9922SOL    HW131366   6.592   4.807   2.642
 9922SOL    HW231367   6.743   4.808   2.582
 9923SOL     OW31368   6.599   3.974   2.784
 9923SOL    HW131369   6.588   3.932   2.694
 9923SOL    HW231370   6.605   3.903   2.854
 9924SOL     OW31371   6.219   5.205   2.319
 9924SOL    HW131372   6.289   5.143   2.284
 9924SOL    HW231373   6.146   5.215   2.252
 9925SOL     OW31374   5.861   5.056   2.151
 9925SOL    HW131375   5.773   5.045   2.106
 9925SOL    HW231376   5.851   5.115   2.231
 9926SOL     OW31377   5.729   4.733   3.597
 9926SOL    HW131378   5.645   4.714   3.648
 9926SOL    HW231379   5.807   4.696   3.647
 9927SOL     OW31380   6.302   3.910   3.351
 9927SOL    HW131381   6.382   3.890   3.295
 9927SOL    HW231382   6.330   3.942   3.441
 9928SOL     OW31383   5.689   4.087   1.840
 9928SOL    HW131384   5.602   4.075   1.791
 9928SOL    HW231385   5.728   4.176   1.816
 9929SOL     OW31386   5.639   3.905   2.082
 9929SOL    HW131387   5.625   3.977   2.014
 9929SOL    HW231388   5.727   3.862   2.067
 9930SOL     OW31389   6.214   4.543   3.298
 9930SOL    HW131390   6.279   4.618   3.289
 9930SOL    HW231391   6.262   4.456   3.290
 9931SOL     OW31392   6.285   4.266   3.574
 9931SOL    HW131393   6.343   4.329   3.626
 9931SOL    HW231394   6.313   4.172   3.591
 9932SOL     OW31395   6.930   4.927   3.482
 9932SOL    HW131396   6.942   4.889   3.573
 9932SOL    HW231397   0.012   4.909   3.427
 9933SOL     OW31398   5.913   5.489   3.465
 9933SOL    HW131399   5.834   5.547   3.445
 9933SOL    HW231400   5.883   5.402   3.503
 9934SOL     OW31401   6.856   4.060   2.310
 9934SOL    HW131402   6.925   4.007   2.260
 9934SOL    HW231403   6.894   4.091   2.397
 9935SOL     OW31404   6.122   4.480   2.564
 9935SOL    HW131405   6.194   4.546   2.542
 9935SOL    HW231406   6.072   4.457   2.480
 9936SOL     OW31407   6.329   5.066   1.964
 9936SOL    HW131408   6.363   5.054   2.057
 9936SOL    HW231409   6.388   5.129   1.914
 9937SOL     OW31410   6.266   5.428   2.825
 9937SOL    HW131411   6.235   5.523   2.816
 9937SOL    HW231412   6.366   5.426   2.824
 9938SOL     OW31413   6.466   4.709   2.727
 9938SOL    HW131414   6.516   4.629   2.760
 9938SOL    HW231415   6.413   4.749   2.801
 9939SOL     OW31416   6.687   4.713   1.827
 9939SOL    HW131417   6.630   4.790   1.798
 9939SOL    HW231418   6.675   4.636   1.764
 9940SOL     OW31419   5.797   4.990   3.675
 9940SOL    HW131420   5.775   4.900   3.638
 9940SOL    HW231421   5.738   5.010   3.753
 9941SOL     OW31422   5.750   4.976   2.536
 9941SOL    HW131423   5.780   4.940   2.624
 9941SOL    HW231424   5.797   4.927   2.462
 9942SOL     OW31425   6.274   5.137   3.516
 9942SOL    HW131426   6.188   5.091   3.538
 9942SOL    HW231427   6.270   5.232   3.548
 9943SOL     OW31428   6.011   4.145   2.393
 9943SOL    HW131429   6.045   4.080   2.325
 9943SOL    HW231430   5.960   4.096   2.464
 9944SOL     OW31431   5.964   4.273   3.142
 9944SOL    HW131432   6.017   4.204   3.192
 9944SOL    HW231433   5.953   4.243   3.047
 9945SOL     OW31434   6.403   5.311   2.536
 9945SOL    HW131435   6.363   5.358   2.457
 9945SOL    HW231436   6.342   5.237   2.565
 9946SOL     OW31437   6.944   3.914   2.952
 9946SOL    HW131438   6.921   3.818   2.969
 9946SOL    HW231439   6.926   3.969   3.034
 9947SOL     OW31440   6.622   3.743   2.938
 9947SOL    HW131441   6.578   3.677   2.878
 9947SOL    HW231442   6.717   3.714   2.954
 9948SOL     OW31443   6.404   5.026   2.222
 9948SOL    HW131444   6.388   4.928   2.233
 9948SOL    HW231445   6.487   5.052   2.272
 9949SOL     OW31446   6.177   5.307   3.160
 9949SOL    HW131447   6.172   5.393   3.211
 9949SOL    HW231448   6.267   5.299   3.118
 9950SOL     OW31449   6.912   3.793   1.996
 9950SOL    HW131450   6.967   3.731   1.940
 9950SOL    HW231451   6.834   3.743   2.034
 9951SOL     OW31452   5.626   4.762   2.151
 9951SOL    HW131453   5.724   4.748   2.132
 9951SOL    HW231454   5.584   4.675   2.176
 9952SOL     OW31455   6.474   5.413   2.196
 9952SOL    HW131456   6.395   5.397   2.138
 9952SOL    HW231457   6.455   5.490   2.258
 9953SOL     OW31458   5.772   4.306   3.902
 9953SOL    HW131459   5.676   4.310   3.929
 9953SOL    HW231460   5.779   4.312   3.803
 9954SOL     OW31461   5.796   4.005   4.729
 9954SOL    HW131462   5.845   3.976   4.811
 9954SOL    HW231463   5.710   3.955   4.722
 9955SOL     OW31464   5.613   4.154   4.368
 9955SOL    HW131465   5.535   4.170   4.428
 9955SOL    HW231466   5.591   4.080   4.304
 9956SOL     OW31467   6.140   5.042   4.938
 9956SOL    HW131468   6.057   5.041   4.881
 9956SOL    HW231469   6.161   5.136   4.964
 9957SOL     OW31470   0.047   5.260   4.498
 9957SOL    HW131471   0.099   5.176   4.488
 9957SOL    HW231472   0.038   5.305   4.409
 9958SOL     OW31473   6.687   4.521   4.372
 9958SOL    HW131474   6.758   4.591   4.371
 9958SOL    HW231475   6.664   4.498   4.466
 9959SOL     OW31476   6.310   4.855   4.801
 9959SOL    HW131477   6.235   4.893   4.856
 9959SOL    HW231478   6.357   4.928   4.752
 9960SOL     OW31479   6.294   4.685   4.356
 9960SOL    HW131480   6.366   4.685   4.425
 9960SOL    HW231481   6.226   4.755   4.378
 9961SOL     OW31482   6.283   4.863   5.509
 9961SOL    HW131483   6.311   4.933   5.575
 9961SOL    HW231484   6.203   4.895   5.458
 9962SOL     OW31485   5.919   5.121   4.781
 9962SOL    HW131486   5.852   5.061   4.738
 9962SOL    HW231487   5.968   5.172   4.711
 9963SOL     OW31488   6.084   4.075   5.187
 9963SOL    HW131489   6.161   4.013   5.202
 9963SOL    HW231490   5.999   4.030   5.216
 9964SOL     OW31491   5.813   5.492   4.195
 9964SOL    HW131492   5.837   5.559   4.265
 9964SOL    HW231493   5.887   5.485   4.129
 9965SOL     OW31494   6.722   5.109   5.363
 9965SOL    HW131495   6.808   5.060   5.345
 9965SOL    HW231496   6.650   5.043   5.385
 9966SOL     OW31497   5.784   5.220   4.236
 9966SOL    HW131498   5.784   5.319   4.243
 9966SOL    HW231499   5.759   5.180   4.325
 9967SOL     OW31500   5.958   4.798   4.648
 9967SOL    HW131501   5.949   4.698   4.651
 9967SOL    HW231502   5.874   4.840   4.683
 9968SOL     OW31503   6.157   5.556   5.132
 9968SOL    HW131504   6.084   5.528   5.195
 9968SOL    HW231505   6.211   5.628   5.175
 9969SOL     OW31506   6.159   4.699   3.901
 9969SOL    HW131507   6.188   4.744   3.816
 9969SOL    HW231508   6.219   4.725   3.976
 9970SOL     OW31509   5.698   4.411   4.290
 9970SOL    HW131510   5.672   4.317   4.312
 9970SOL    HW231511   5.693   4.467   4.373
 9971SOL     OW31512   5.658   5.311   3.829
 9971SOL    HW131513   5.633   5.216   3.852
 9971SOL    HW231514   5.636   5.371   3.906
 9972SOL     OW31515   5.669   4.523   5.283
 9972SOL    HW131516   5.737   4.592   5.307
 9972SOL    HW231517   5.581   4.568   5.267
 9973SOL     OW31518   6.224   5.109   4.442
 9973SOL    HW131519   6.186   5.017   4.447
 9973SOL    HW231520   6.218   5.143   4.348
 9974SOL     OW31521   6.721   4.840   5.163
 9974SOL    HW131522   6.754   4.805   5.075
 9974SOL    HW231523   6.799   4.867   5.219
 9975SOL     OW31524   6.436   3.771   4.221
 9975SOL    HW131525   6.483   3.855   4.193
 9975SOL    HW231526   6.339   3.792   4.235
 9976SOL     OW31527   5.791   4.655   4.965
 9976SOL    HW131528   5.886   4.624   4.966
 9976SOL    HW231529   5.735   4.590   4.914
 9977SOL     OW31530   6.870   5.592   5.326
 9977SOL    HW131531   6.813   5.658   5.277
 9977SOL    HW231532   6.851   5.500   5.293
 9978SOL     OW31533   5.943   3.985   5.554
 9978SOL    HW131534   5.994   4.055   5.604
 9978SOL    HW231535   5.864   4.027   5.509
 9979SOL     OW31536   6.162   4.428   3.995
 9979SOL    HW131537   6.168   4.518   3.950
 9979SOL    HW231538   6.090   4.430   4.064
 9980SOL     OW31539   6.854   4.044   4.592
 9980SOL    HW131540   6.754   4.036   4.593
 9980SOL    HW231541   6.892   3.996   4.671
 9981SOL     OW31542   6.272   4.278   5.192
 9981SOL    HW131543   6.191   4.220   5.201
 9981SOL    HW231544   6.331   4.243   5.119
 9982SOL     OW31545   6.618   4.132   4.900
 9982SOL    HW131546   6.526   4.135   4.938
 9982SOL    HW231547   6.617   4.083   4.812
 9983SOL     OW31548   6.630   4.450   4.116
 9983SOL    HW131549   6.649   4.473   4.211
 9983SOL    HW231550   6.544   4.399   4.111
 9984SOL     OW31551   5.681   4.576   4.509
 9984SOL    HW131552   5.771   4.560   4.548
 9984SOL    HW231553   5.628   4.636   4.569
 9985SOL     OW31554   5.714   5.605   5.303
 9985SOL    HW131555   5.708   5.572   5.397
 9985SOL    HW231556   5.623   5.609   5.263
 9986SOL     OW31557   6.442   4.069   3.925
 9986SOL    HW131558   6.494   4.110   3.851
 9986SOL    HW231559   6.384   3.996   3.889
 9987SOL     OW31560   6.998   4.917   4.251
 9987SOL    HW131561   0.018   4.869   4.166
 9987SOL    HW231562   6.939   4.995   4.232
 9988SOL     OW31563   6.125   3.820   4.678
 9988SOL    HW131564   6.148   3.852   4.770
 9988SOL    HW231565   6.130   3.896   4.614
 9989SOL     OW31566   6.595   5.213   4.209
 9989SOL    HW131567   6.562   5.281   4.143
 9989SOL    HW231568   6.555   5.232   4.299
 9990SOL     OW31569   5.941   5.515   4.608
 9990SOL    HW131570   5.977   5.422   4.602
 9990SOL    HW231571   6.014   5.577   4.636
 9991SOL     OW31572   6.837   5.336   5.232
 9991SOL    HW131573   6.792   5.261   5.281
 9991SOL    HW231574   6.821   5.326   5.134
 9992SOL     OW31575   5.925   4.683   4.068
 9992SOL    HW131576   6.000   4.698   4.003
 9992SOL    HW231577   5.924   4.588   4.098
 9993SOL     OW31578   6.062   5.017   5.426
 9993SOL    HW131579   6.016   5.025   5.337
 9993SOL    HW231580   5.996   5.031   5.499
 9994SOL     OW31581   6.723   5.469   3.947
 9994SOL    HW131582   6.632   5.456   3.986
 9994SOL    HW231583   6.737   5.403   3.873
 9995SOL     OW31584   5.836   3.957   5.231
 9995SOL    HW131585   5.803   4.030   5.292
 9995SOL    HW231586   5.789   3.872   5.253
 9996SOL     OW31587   6.042   5.521   4.041
 9996SOL    HW131588   6.090   5.569   4.115
 9996SOL    HW231589   6.109   5.471   3.985
 9997SOL     OW31590   5.803   5.525   4.942
 9997SOL    HW131591   5.853   5.444   4.974
 9997SOL    HW231592   5.768   5.508   4.850
 9998SOL     OW31593   6.547   5.432   4.609
 9998SOL    HW131594   6.639   5.394   4.601
 9998SOL    HW231595   6.488   5.389   4.541
 9999SOL     OW31596   5.955   4.416   4.185
 9999SOL    HW131597   5.983   4.321   4.200
 9999SOL    HW231598   5.858   4.426   4.209
10000SOL     OW31599   6.266   3.847   3.836
10000SOL    HW131600   6.312   3.765   3.871
10000SOL    HW231601   6.201   3.821   3.764
10001SOL     OW31602   6.339   4.013   5.516
10001SOL    HW131603   6.436   3.991   5.510
10001SOL    HW231604   6.295   3.954   5.583
10002SOL     OW31605   6.432   5.236   4.914
10002SOL    HW131606   6.408   5.201   4.823
10002SOL    HW231607   6.488   5.169   4.962
10003SOL     OW31608   6.393   5.088   4.672
10003SOL    HW131609   6.487   5.097   4.639
10003SOL    HW231610   6.330   5.096   4.596
10004SOL     OW31611   6.511   4.226   4.584
10004SOL    HW131612   6.493   4.220   4.485
10004SOL    HW231613   6.532   4.135   4.619
10005SOL     OW31614   6.167   3.816   4.242
10005SOL    HW131615   6.089   3.806   4.304
10005SOL    HW231616   6.148   3.889   4.176
10006SOL     OW31617   6.960   4.806   3.732
10006SOL    HW131618   6.991   4.808   3.827
10006SOL    HW231619   6.864   4.776   3.729
10007SOL     OW31620   5.890   3.764   3.894
10007SOL    HW131621   5.933   3.841   3.847
10007SOL    HW231622   5.958   3.718   3.951
10008SOL     OW31623   6.584   3.991   4.153
10008SOL    HW131624   6.546   4.023   4.066
10008SOL    HW231625   6.682   4.013   4.156
10009SOL     OW31626   6.777   5.329   4.486
10009SOL    HW131627   6.774   5.390   4.407
10009SOL    HW231628   6.872   5.304   4.506
10010SOL     OW31629   6.101   4.867   4.430
10010SOL    HW131630   6.057   4.842   4.516
10010SOL    HW231631   6.032   4.879   4.359
10011SOL     OW31632   6.773   5.519   4.271
10011SOL    HW131633   6.749   5.528   4.174
10011SOL    HW231634   6.726   5.589   4.324
10012SOL     OW31635   6.594   4.225   3.751
10012SOL    HW131636   6.547   4.312   3.737
10012SOL    HW231637   6.656   4.232   3.829
10013SOL     OW31638   5.712   4.320   5.110
10013SOL    HW131639   5.810   4.302   5.099
10013SOL    HW231640   5.699   4.392   5.178
10014SOL     OW31641   6.172   3.904   4.934
10014SOL    HW131642   6.197   3.828   4.994
10014SOL    HW231643   6.076   3.927   4.947
10015SOL     OW31644   6.471   4.184   4.319
10015SOL    HW131645   6.428   4.241   4.249
10015SOL    HW231646   6.515   4.106   4.276
10016SOL     OW31647   6.575   3.789   4.459
10016SOL    HW131648   6.517   3.784   4.377
10016SOL    HW231649   6.556   3.710   4.517
10017SOL     OW31650   6.095   5.191   3.947
10017SOL    HW131651   6.006   5.149   3.966
10017SOL    HW231652   6.151   5.128   3.893
10018SOL     OW31653   6.122   3.989   4.037
10018SOL    HW131654   6.175   3.938   3.970
10018SOL    HW231655   6.082   4.070   3.994
10019SOL     OW31656   6.561   5.023   5.036
10019SOL    HW131657   6.470   5.014   5.076
10019SOL    HW231658   6.624   4.963   5.083
10020SOL     OW31659   6.749   5.048   4.834
10020SOL    HW131660   6.675   5.040   4.901
10020SOL    HW231661   6.711   5.068   4.744
10021SOL     OW31662   6.545   3.824   5.128
10021SOL    HW131663   6.553   3.805   5.031
10021SOL    HW231664   6.633   3.853   5.165
10022SOL     OW31665   6.555   4.889   5.405
10022SOL    HW131666   6.457   4.881   5.424
10022SOL    HW231667   6.574   4.858   5.311
10023SOL     OW31668   6.353   4.757   4.090
10023SOL    HW131669   6.342   4.719   4.182
10023SOL    HW231670   6.420   4.702   4.039
10024SOL     OW31671   6.039   4.529   4.981
10024SOL    HW131672   6.095   4.556   5.060
10024SOL    HW231673   6.010   4.434   4.991
10025SOL     OW31674   6.851   4.067   5.026
10025SOL    HW131675   6.914   4.144   5.038
10025SOL    HW231676   6.765   4.100   4.987
10026SOL     OW31677   5.636   5.260   5.066
10026SOL    HW131678   5.584   5.328   5.015
10026SOL    HW231679   5.734   5.278   5.055
10027SOL     OW31680   5.905   4.897   4.242
10027SOL    HW131681   5.895   4.972   4.176
10027SOL    HW231682   5.907   4.810   4.192
10028SOL     OW31683   6.102   4.264   4.589
10028SOL    HW131684   6.112   4.324   4.510
10028SOL    HW231685   6.182   4.273   4.649
10029SOL     OW31686   6.862   5.146   4.180
10029SOL    HW131687   6.913   5.227   4.208
10029SOL    HW231688   6.764   5.162   4.191
10030SOL     OW31689   6.863   5.270   4.959
10030SOL    HW131690   6.949   5.247   5.004
10030SOL    HW231691   6.827   5.189   4.913
10031SOL     OW31692   5.909   5.272   5.005
10031SOL    HW131693   5.902   5.215   4.923
10031SOL    HW231694   6.006   5.293   5.022
10032SOL     OW31695   6.058   4.494   5.413
10032SOL    HW131696   6.105   4.528   5.332
10032SOL    HW231697   6.115   4.425   5.458
10033SOL     OW31698   6.590   3.911   5.498
10033SOL    HW131699   6.635   3.868   5.420
10033SOL    HW231700   6.592   3.850   5.577
10034SOL     OW31701   6.077   3.759   5.469
10034SOL    HW131702   6.023   3.701   5.408
10034SOL    HW231703   6.027   3.844   5.486
10035SOL     OW31704   6.245   4.579   4.796
10035SOL    HW131705   6.256   4.678   4.786
10035SOL    HW231706   6.165   4.560   4.853
10036SOL     OW31707   6.881   4.576   4.717
10036SOL    HW131708   6.799   4.525   4.690
10036SOL    HW231709   6.941   4.517   4.770
10037SOL     OW31710   6.743   4.239   3.980
10037SOL    HW131711   6.793   4.176   4.039
10037SOL    HW231712   6.709   4.316   4.033
10038SOL     OW31713   5.899   3.914   4.967
10038SOL    HW131714   5.878   3.943   5.060
10038SOL    HW231715   5.869   3.820   4.954
10039SOL     OW31716   5.665   5.006   4.957
10039SOL    HW131717   5.690   4.943   5.030
10039SOL    HW231718   5.644   5.096   4.997
10040SOL     OW31719   6.313   4.314   4.756
10040SOL    HW131720   6.386   4.297   4.690
10040SOL    HW231721   6.298   4.413   4.765
10041SOL     OW31722   5.934   3.789   4.389
10041SOL    HW131723   5.899   3.880   4.407
10041SOL    HW231724   5.924   3.732   4.471
10042SOL     OW31725   0.150   4.211   4.053
10042SOL    HW131726   0.108   4.121   4.048
10042SOL    HW231727   0.124   4.255   4.139
10043SOL     OW31728   6.618   4.467   4.656
10043SOL    HW131729   6.595   4.475   4.753
10043SOL    HW231730   6.589   4.377   4.622
10044SOL     OW31731   6.569   5.340   5.383
10044SOL    HW131732   6.547   5.369   5.290
10044SOL    HW231733   6.613   5.251   5.381
10045SOL     OW31734   5.852   4.703   5.379
10045SOL    HW131735   5.793   4.706   5.460
10045SOL    HW231736   5.937   4.656   5.402
10046SOL     OW31737   6.957   4.493   3.747
10046SOL    HW131738   0.039   4.468   3.798
10046SOL    HW231739   6.981   4.562   3.678
10047SOL     OW31740   6.649   5.105   4.584
10047SOL    HW131741   6.660   5.021   4.530
10047SOL    HW231742   6.695   5.181   4.538
10048SOL     OW31743   5.928   4.526   4.617
10048SOL    HW131744   5.997   4.512   4.546
10048SOL    HW231745   5.925   4.447   4.678
10049SOL     OW31746   5.888   4.259   4.747
10049SOL    HW131747   5.840   4.172   4.740
10049SOL    HW231748   5.968   4.258   4.686
10050SOL     OW31749   6.800   3.890   5.228
10050SOL    HW131750   6.855   3.921   5.305
10050SOL    HW231751   6.817   3.949   5.149
10051SOL     OW31752   5.626   5.019   3.888
10051SOL    HW131753   5.533   5.050   3.869
10051SOL    HW231754   5.624   4.928   3.928
10052SOL     OW31755   5.682   5.488   4.693
10052SOL    HW131756   5.635   5.415   4.644
10052SOL    HW231757   5.773   5.501   4.654
10053SOL     OW31758   6.072   5.270   4.610
10053SOL    HW131759   6.145   5.326   4.651
10053SOL    HW231760   6.112   5.209   4.542
10054SOL     OW31761   5.682   4.413   4.857
10054SOL    HW131762   5.752   4.367   4.802
10054SOL    HW231763   5.690   4.384   4.952
10055SOL     OW31764   5.812   4.382   5.474
10055SOL    HW131765   5.901   4.423   5.454
10055SOL    HW231766   5.741   4.431   5.423
10056SOL     OW31767   6.398   4.304   4.075
10056SOL    HW131768   6.408   4.219   4.023
10056SOL    HW231769   6.314   4.351   4.048
10057SOL     OW31770   5.815   5.264   5.437
10057SOL    HW131771   5.792   5.347   5.488
10057SOL    HW231772   5.839   5.192   5.501
10058SOL     OW31773   6.348   4.134   4.960
10058SOL    HW131774   6.290   4.052   4.953
10058SOL    HW231775   6.324   4.197   4.886
10059SOL     OW31776   6.503   5.411   5.131
10059SOL    HW131777   6.480   5.359   5.049
10059SOL    HW231778   6.505   5.508   5.109
10060SOL     OW31779   6.022   4.204   3.902
10060SOL    HW131780   6.087   4.278   3.918
10060SOL    HW231781   5.929   4.238   3.914
10061SOL     OW31782   5.743   4.834   5.163
10061SOL    HW131783   5.787   4.799   5.245
10061SOL    HW231784   5.755   4.769   5.088
10062SOL     OW31785   6.802   4.776   4.906
10062SOL    HW131786   6.839   4.717   4.835
10062SOL    HW231787   6.804   4.871   4.874
10063SOL     OW31788   6.853   4.589   3.990
10063SOL    HW131789   6.789   4.535   4.045
10063SOL    HW231790   6.871   4.542   3.904
10064SOL     OW31791   6.888   5.513   4.834
10064SOL    HW131792   6.968   5.497   4.777
10064SOL    HW231793   6.868   5.431   4.887
10065SOL     OW31794   5.718   4.930   4.703
10065SOL    HW131795   5.698   4.960   4.796
10065SOL    HW231796   5.646   4.868   4.672
10066SOL     OW31797   6.328   5.415   5.488
10066SOL    HW131798   6.288   5.494   5.444
10066SOL    HW231799   6.419   5.398   5.450
10067SOL     OW31800   0.005   5.370   4.253
10067SOL    HW131801   0.091   5.411   4.224
10067SOL    HW231802   6.933   5.439   4.251
10068SOL     OW31803   5.732   5.500   5.557
10068SOL    HW131804   5.676   5.437   5.610
10068SOL    HW231805   5.782   5.561   5.619
10069SOL     OW31806   6.883   4.712   4.388
10069SOL    HW131807   6.955   4.654   4.427
10069SOL    HW231808   6.925   4.789   4.340
10070SOL     OW31809   6.316   4.991   5.151
10070SOL    HW131810   6.310   5.054   5.229
10070SOL    HW231811   6.239   5.005   5.090
10071SOL     OW31812   6.252   5.405   3.893
10071SOL    HW131813   6.270   5.407   3.795
10071SOL    HW231814   6.196   5.325   3.915
10072SOL     OW31815   5.849   4.039   4.454
10072SOL    HW131816   5.769   4.086   4.419
10072SOL    HW231817   5.843   4.033   4.554
10073SOL     OW31818   6.736   5.297   3.719
10073SOL    HW131819   6.732   5.208   3.674
10073SOL    HW231820   6.682   5.363   3.667
10074SOL     OW31821   6.368   4.735   5.068
10074SOL    HW131822   6.374   4.750   4.969
10074SOL    HW231823   6.351   4.823   5.113
10075SOL     OW31824   6.533   4.621   3.922
10075SOL    HW131825   6.603   4.665   3.866
10075SOL    HW231826   6.577   4.562   3.990
10076SOL     OW31827   5.928   5.048   5.194
10076SOL    HW131828   5.917   5.125   5.131
10076SOL    HW231829   5.864   4.975   5.169
10077SOL     OW31830   6.664   4.866   4.461
10077SOL    HW131831   6.590   4.807   4.493
10077SOL    HW231832   6.742   4.810   4.435
10078SOL     OW31833   6.588   3.966   4.669
10078SOL    HW131834   6.580   3.916   4.583
10078SOL    HW231835   6.592   3.900   4.745
10079SOL     OW31836   6.232   5.196   4.187
10079SOL    HW131837   6.304   5.138   4.150
10079SOL    HW231838   6.161   5.210   4.118
10080SOL     OW31839   5.859   5.076   4.027
10080SOL    HW131840   5.780   5.055   3.970
10080SOL    HW231841   5.832   5.137   4.101
10081SOL     OW31842   6.300   3.909   5.250
10081SOL    HW131843   6.389   3.892   5.207
10081SOL    HW231844   6.315   3.944   5.343
10082SOL     OW31845   5.674   4.044   3.727
10082SOL    HW131846   5.593   4.031   3.670
10082SOL    HW231847   5.716   4.133   3.706
10083SOL     OW31848   5.655   3.877   3.960
10083SOL    HW131849   5.638   3.945   3.888
10083SOL    HW231850   5.745   3.835   3.946
10084SOL     OW31851   6.212   4.549   5.193
10084SOL    HW131852   6.277   4.614   5.152
10084SOL    HW231853   6.250   4.457   5.187
10085SOL     OW31854   6.229   4.265   5.471
10085SOL    HW131855   6.256   4.291   5.378
10085SOL    HW231856   6.267   4.175   5.493
10086SOL     OW31857   6.933   4.928   5.328
10086SOL    HW131858   6.952   4.911   5.424
10086SOL    HW231859   0.013   4.903   5.273
10087SOL     OW31860   5.960   5.480   5.310
10087SOL    HW131861   5.875   5.530   5.295
10087SOL    HW231862   5.939   5.386   5.338
10088SOL     OW31863   6.857   4.064   4.168
10088SOL    HW131864   6.924   4.009   4.118
10088SOL    HW231865   6.896   4.091   4.256
10089SOL     OW31866   6.108   4.480   4.411
10089SOL    HW131867   6.181   4.545   4.390
10089SOL    HW231868   6.056   4.461   4.327
10090SOL     OW31869   6.317   5.071   3.830
10090SOL    HW131870   6.363   5.058   3.918
10090SOL    HW231871   6.374   5.128   3.771
10091SOL     OW31872   6.269   5.437   4.688
10091SOL    HW131873   6.237   5.531   4.677
10091SOL    HW231874   6.369   5.437   4.690
10092SOL     OW31875   6.469   4.700   4.573
10092SOL    HW131876   6.518   4.618   4.601
10092SOL    HW231877   6.416   4.735   4.651
10093SOL     OW31878   6.699   4.719   3.708
10093SOL    HW131879   6.636   4.791   3.678
10093SOL    HW231880   6.693   4.641   3.645
10094SOL     OW31881   5.875   5.065   5.626
10094SOL    HW131882   5.875   4.969   5.652
10094SOL    HW231883   5.854   5.122   5.706
10095SOL     OW31884   5.737   5.026   4.436
10095SOL    HW131885   5.739   4.992   4.531
10095SOL    HW231886   5.797   4.969   4.380
10096SOL     OW31887   6.287   5.159   5.365
10096SOL    HW131888   6.203   5.113   5.396
10096SOL    HW231889   6.291   5.251   5.404
10097SOL     OW31890   6.012   4.160   4.248
10097SOL    HW131891   6.051   4.089   4.189
10097SOL    HW231892   5.967   4.117   4.326
10098SOL     OW31893   5.967   4.268   5.021
10098SOL    HW131894   6.014   4.194   5.069
10098SOL    HW231895   5.953   4.242   4.926
10099SOL     OW31896   6.411   5.317   4.405
10099SOL    HW131897   6.370   5.368   4.329
10099SOL    HW231898   6.350   5.243   4.431
10100SOL     OW31899   6.932   3.910   4.816
10100SOL    HW131900   6.908   3.813   4.827
10100SOL    HW231901   6.906   3.960   4.898
10101SOL     OW31902   6.606   3.750   4.850
10101SOL    HW131903   6.547   3.679   4.812
10101SOL    HW231904   6.701   3.718   4.847
10102SOL     OW31905   6.419   5.028   4.078
10102SOL    HW131906   6.404   4.930   4.091
10102SOL    HW231907   6.501   5.056   4.130
10103SOL     OW31908   6.183   5.310   5.011
10103SOL    HW131909   6.182   5.399   5.056
10103SOL    HW231910   6.275   5.293   4.973
10104SOL     OW31911   6.908   3.795   3.840
10104SOL    HW131912   6.971   3.734   3.792
10104SOL    HW231913   6.830   3.743   3.873
10105SOL     OW31914   5.657   4.770   4.014
10105SOL    HW131915   5.756   4.761   4.023
10105SOL    HW231916   5.614   4.680   4.024
10106SOL     OW31917   6.477   5.420   4.061
10106SOL    HW131918   6.398   5.406   4.001
10106SOL    HW231919   6.458   5.495   4.124
10107SOL     OW31920   5.811   4.271   5.726
10107SOL    HW131921   5.724   4.231   5.755
10107SOL    HW231922   5.798   4.322   5.641
10108SOL     OW31923   5.778   4.029   6.557
10108SOL    HW131924   5.820   3.977   6.632
10108SOL    HW231925   5.682   4.001   6.547
10109SOL     OW31926   5.559   4.087   6.284
10109SOL    HW131927   5.540   4.041   6.370
10109SOL    HW231928   5.528   4.030   6.208
10110SOL     OW31929   6.109   5.015   6.763
10110SOL    HW131930   6.027   5.049   6.718
10110SOL    HW231931   6.154   5.089   6.812
10111SOL     OW31932   0.057   5.294   6.337
10111SOL    HW131933   0.106   5.208   6.340
10111SOL    HW231934   0.050   5.326   6.243
10112SOL     OW31935   6.723   4.510   6.232
10112SOL    HW131936   6.782   4.588   6.254
10112SOL    HW231937   6.692   4.467   6.317
10113SOL     OW31938   6.299   4.848   6.650
10113SOL    HW131939   6.220   4.878   6.703
10113SOL    HW231940   6.349   4.928   6.616
10114SOL     OW31941   5.898   5.148   6.636
10114SOL    HW131942   5.810   5.111   6.605
10114SOL    HW231943   5.945   5.191   6.559
10115SOL     OW31944   5.829   5.457   6.026
10115SOL    HW131945   5.837   5.512   6.108
10115SOL    HW231946   5.908   5.474   5.966
10116SOL     OW31947   5.761   4.679   6.543
10116SOL    HW131948   5.844   4.622   6.543
10116SOL    HW231949   5.770   4.751   6.475
10117SOL     OW31950   6.212   5.568   0.027
10117SOL    HW131951   6.148   5.552   0.101
10117SOL    HW231952   6.299   5.523   0.048
10118SOL     OW31953   6.156   4.753   5.748
10118SOL    HW131954   6.195   4.770   5.658
10118SOL    HW231955   6.225   4.771   5.818
10119SOL     OW31956   0.200   3.926   0.080
10119SOL    HW131957   0.172   4.018   0.053
10119SOL    HW231958   0.132   3.888   0.143
10120SOL     OW31959   5.619   4.360   6.290
10120SOL    HW131960   5.593   4.264   6.279
10120SOL    HW231961   5.636   4.379   6.386
10121SOL     OW31962   5.613   5.317   5.716
10121SOL    HW131963   5.538   5.252   5.703
10121SOL    HW231964   5.588   5.382   5.789
10122SOL     OW31965   6.173   5.089   6.291
10122SOL    HW131966   6.136   4.996   6.292
10122SOL    HW231967   6.177   5.121   6.196
10123SOL     OW31968   6.771   4.943   0.012
10123SOL    HW131969   6.824   4.912   6.933
10123SOL    HW231970   6.832   4.983   0.080
10124SOL     OW31971   6.391   3.751   6.070
10124SOL    HW131972   6.436   3.830   6.029
10124SOL    HW231973   6.293   3.768   6.079
10125SOL     OW31974   5.659   4.616   6.790
10125SOL    HW131975   5.696   4.649   6.703
10125SOL    HW231976   5.559   4.622   6.787
10126SOL     OW31977   6.894   4.098   6.509
10126SOL    HW131978   6.800   4.070   6.487
10126SOL    HW231979   6.932   4.036   6.577
10127SOL     OW31980   6.437   4.308   6.977
10127SOL    HW131981   6.358   4.365   7.000
10127SOL    HW231982   6.413   4.247   6.901
10128SOL     OW31983   6.614   4.137   6.705
10128SOL    HW131984   6.520   4.134   6.740
10128SOL    HW231985   6.624   4.067   6.634
10129SOL     OW31986   6.658   4.465   5.973
10129SOL    HW131987   6.689   4.484   6.066
10129SOL    HW231988   6.579   4.404   5.976
10130SOL     OW31989   5.754   5.528   0.097
10130SOL    HW131990   5.693   5.451   0.114
10130SOL    HW231991   5.764   5.541   6.998
10131SOL     OW31992   6.371   4.149   5.805
10131SOL    HW131993   6.432   4.212   5.758
10131SOL    HW231994   6.289   4.134   5.750
10132SOL     OW31995   7.000   4.917   6.123
10132SOL    HW131996   0.018   4.872   6.035
10132SOL    HW231997   6.935   4.992   6.109
10133SOL     OW31998   6.134   3.866   6.543
10133SOL    HW131999   6.146   3.887   6.640
10133SOL    HW232000   6.135   3.950   6.489
10134SOL     OW32001   6.585   5.218   6.099
10134SOL    HW132002   6.555   5.292   6.037
10134SOL    HW232003   6.532   5.223   6.184
10135SOL     OW32004   5.919   5.520   6.476
10135SOL    HW132005   5.961   5.429   6.465
10135SOL    HW232006   5.987   5.583   6.514
10136SOL     OW32007   5.889   4.818   5.729
10136SOL    HW132008   5.984   4.785   5.736
10136SOL    HW232009   5.827   4.749   5.767
10137SOL     OW32010   6.720   5.503   5.842
10137SOL    HW132011   6.633   5.477   5.885
10137SOL    HW232012   6.715   5.486   5.744
10138SOL     OW32013   6.055   5.526   5.887
10138SOL    HW132014   6.093   5.573   5.966
10138SOL    HW232015   6.128   5.481   5.836
10139SOL     OW32016   5.805   5.544   6.826
10139SOL    HW132017   5.863   5.464   6.836
10139SOL    HW232018   5.752   5.538   6.742
10140SOL     OW32019   6.553   5.423   6.463
10140SOL    HW132020   6.648   5.396   6.444
10140SOL    HW232021   6.491   5.358   6.420
10141SOL     OW32022   6.223   3.832   5.694
10141SOL    HW132023   6.273   3.754   5.730
10141SOL    HW232024   6.164   3.802   5.618
10142SOL     OW32025   6.415   5.187   6.836
10142SOL    HW132026   6.421   5.154   6.742
10142SOL    HW232027   6.442   5.113   6.898
10143SOL     OW32028   6.409   5.095   6.567
10143SOL    HW132029   6.494   5.110   6.517
10143SOL    HW232030   6.331   5.120   6.510
10144SOL     OW32031   6.572   4.308   6.486
10144SOL    HW132032   6.561   4.255   6.402
10144SOL    HW232033   6.600   4.247   6.561
10145SOL     OW32034   6.126   3.799   6.076
10145SOL    HW132035   6.053   3.794   6.144
10145SOL    HW232036   6.116   3.883   6.023
10146SOL     OW32037   6.982   4.855   5.602
10146SOL    HW132038   0.013   4.838   5.696
10146SOL    HW232039   6.887   4.828   5.593
10147SOL     OW32040   5.847   3.795   5.729
10147SOL    HW132041   5.892   3.864   5.672
10147SOL    HW232042   5.917   3.743   5.779
10148SOL     OW32043   6.510   3.970   5.964
10148SOL    HW132044   6.445   4.019   5.906
10148SOL    HW232045   6.601   4.011   5.955
10149SOL     OW32046   6.790   5.350   6.342
10149SOL    HW132047   6.785   5.408   6.261
10149SOL    HW232048   6.886   5.328   6.362
10150SOL     OW32049   6.795   5.528   6.115
10150SOL    HW132050   6.767   5.535   6.020
10150SOL    HW232051   6.734   5.584   6.172
10151SOL     OW32052   6.149   3.953   6.805
10151SOL    HW132053   6.176   3.884   6.872
10151SOL    HW232054   6.049   3.954   6.797
10152SOL     OW32055   6.525   4.155   6.263
10152SOL    HW132056   6.505   4.200   6.177
10152SOL    HW232057   6.511   4.056   6.253
10153SOL     OW32058   6.517   3.837   6.301
10153SOL    HW132059   6.471   3.810   6.217
10153SOL    HW232060   6.529   3.757   6.360
10154SOL     OW32061   6.105   5.215   5.791
10154SOL    HW132062   6.006   5.214   5.798
10154SOL    HW232063   6.135   5.139   5.733
10155SOL     OW32064   6.112   4.001   5.894
10155SOL    HW132065   6.155   3.935   5.832
10155SOL    HW232066   6.084   4.082   5.842
10156SOL     OW32067   0.308   5.269   0.167
10156SOL    HW132068   0.342   5.356   0.203
10156SOL    HW232069   0.383   5.205   0.158
10157SOL     OW32070   6.705   4.972   6.643
10157SOL    HW132071   6.642   4.897   6.625
10157SOL    HW232072   6.698   5.041   6.571
10158SOL     OW32073   6.355   4.778   5.940
10158SOL    HW132074   6.331   4.720   6.018
10158SOL    HW232075   6.432   4.738   5.891
10159SOL     OW32076   6.204   4.469   6.942
10159SOL    HW132077   6.181   4.538   0.011
10159SOL    HW232078   6.126   4.410   6.926
10160SOL     OW32079   6.842   4.138   6.867
10160SOL    HW132080   6.815   4.210   6.930
10160SOL    HW232081   6.772   4.127   6.796
10161SOL     OW32082   5.703   5.196   6.959
10161SOL    HW132083   5.659   5.247   0.033
10161SOL    HW232084   5.784   5.246   6.928
10162SOL     OW32085   6.141   4.135   6.446
10162SOL    HW132086   6.132   4.137   6.347
10162SOL    HW232087   6.209   4.202   6.475
10163SOL     OW32088   6.852   5.145   6.059
10163SOL    HW132089   6.905   5.228   6.076
10163SOL    HW232090   6.755   5.164   6.078
10164SOL     OW32091   6.835   5.194   6.774
10164SOL    HW132092   6.926   5.158   6.757
10164SOL    HW232093   6.767   5.126   6.746
10165SOL     OW32094   5.937   5.303   6.853
10165SOL    HW132095   5.912   5.244   6.776
10165SOL    HW232096   6.033   5.329   6.846
10166SOL     OW32097   6.226   4.570   6.675
10166SOL    HW132098   6.251   4.667   6.665
10166SOL    HW232099   6.226   4.545   6.772
10167SOL     OW32100   6.918   4.567   6.677
10167SOL    HW132101   6.820   4.563   6.659
10167SOL    HW232102   6.961   4.483   6.643
10168SOL     OW32103   5.879   3.921   6.789
10168SOL    HW132104   5.819   3.985   6.837
10168SOL    HW232105   5.855   3.827   6.814
10169SOL     OW32106   5.606   4.972   6.851
10169SOL    HW132107   5.637   4.894   6.905
10169SOL    HW232108   5.644   5.056   6.889
10170SOL     OW32109   6.304   4.327   6.563
10170SOL    HW132110   6.397   4.334   6.526
10170SOL    HW232111   6.275   4.417   6.596
10171SOL     OW32112   5.904   3.787   6.236
10171SOL    HW132113   5.876   3.882   6.249
10171SOL    HW232114   5.909   3.741   6.325
10172SOL     OW32115   0.187   4.194   5.923
10172SOL    HW132116   0.126   4.114   5.921
10172SOL    HW232117   0.154   4.259   5.991
10173SOL     OW32118   6.650   4.532   6.626
10173SOL    HW132119   6.600   4.535   6.712
10173SOL    HW232120   6.621   4.451   6.574
10174SOL     OW32121   6.949   4.519   5.587
10174SOL    HW132122   0.003   4.440   5.613
10174SOL    HW232123   0.000   4.574   5.520
10175SOL     OW32124   6.646   5.126   6.424
10175SOL    HW132125   6.657   5.043   6.370
10175SOL    HW232126   6.702   5.199   6.385
10176SOL     OW32127   5.978   4.511   6.555
10176SOL    HW132128   6.066   4.541   6.594
10176SOL    HW232129   5.965   4.413   6.572
10177SOL     OW32130   5.944   4.236   6.619
10177SOL    HW132131   5.870   4.172   6.602
10177SOL    HW232132   6.025   4.209   6.566
10178SOL     OW32133   6.833   4.014   0.124
10178SOL    HW132134   6.828   4.092   0.187
10178SOL    HW232135   6.847   4.047   0.031
10179SOL     OW32136   5.670   5.501   6.587
10179SOL    HW132137   5.620   5.422   6.551
10179SOL    HW232138   5.759   5.508   6.540
10180SOL     OW32139   6.061   5.281   6.453
10180SOL    HW132140   6.137   5.343   6.473
10180SOL    HW232141   6.091   5.208   6.392
10181SOL     OW32142   6.519   4.558   6.862
10181SOL    HW132143   6.576   4.607   6.929
10181SOL    HW232144   6.485   4.473   6.903
10182SOL     OW32145   5.706   4.347   6.774
10182SOL    HW132146   5.789   4.332   6.721
10182SOL    HW232147   5.693   4.445   6.790
10183SOL     OW32148   6.433   4.290   6.033
10183SOL    HW132149   6.405   4.234   5.954
10183SOL    HW232150   6.352   4.324   6.080
10184SOL     OW32151   6.346   4.149   6.773
10184SOL    HW132152   6.277   4.077   6.786
10184SOL    HW232153   6.317   4.209   6.699
10185SOL     OW32154   6.433   5.394   0.034
10185SOL    HW132155   6.451   5.324   6.964
10185SOL    HW232156   6.519   5.426   0.073
10186SOL     OW32157   6.070   4.190   5.695
10186SOL    HW132158   6.114   4.241   5.621
10186SOL    HW232159   5.980   4.230   5.714
10187SOL     OW32160   5.670   4.762   0.024
10187SOL    HW132161   5.739   4.733   0.090
10187SOL    HW232162   5.671   4.700   6.946
10188SOL     OW32163   6.893   4.836   6.785
10188SOL    HW132164   6.902   4.741   6.755
10188SOL    HW232165   6.822   4.881   6.730
10189SOL     OW32166   6.882   4.593   5.846
10189SOL    HW132167   6.812   4.538   5.892
10189SOL    HW232168   6.895   4.559   5.753
10190SOL     OW32169   5.643   5.047   6.584
10190SOL    HW132170   5.631   5.017   6.679
10190SOL    HW232171   5.602   4.979   6.523
10191SOL     OW32172   0.011   5.369   6.078
10191SOL    HW132173   0.101   5.411   6.061
10191SOL    HW232174   6.943   5.441   6.088
10192SOL     OW32175   6.899   4.720   6.289
10192SOL    HW132176   6.968   4.653   6.317
10192SOL    HW232177   6.941   4.788   6.229
10193SOL     OW32178   6.281   5.415   5.756
10193SOL    HW132179   6.304   5.418   5.659
10193SOL    HW232180   6.224   5.335   5.774
10194SOL     OW32181   5.839   4.049   6.286
10194SOL    HW132182   5.748   4.078   6.256
10194SOL    HW232183   5.841   4.047   6.386
10195SOL     OW32184   6.731   5.452   5.575
10195SOL    HW132185   6.810   5.392   5.589
10195SOL    HW232186   6.673   5.414   5.502
10196SOL     OW32187   6.336   4.761   6.967
10196SOL    HW132188   6.391   4.698   6.912
10196SOL    HW232189   6.385   4.848   6.977
10197SOL     OW32190   6.565   4.672   5.810
10197SOL    HW132191   6.633   4.707   5.745
10197SOL    HW232192   6.606   4.597   5.862
10198SOL     OW32193   6.672   4.875   6.325
10198SOL    HW132194   6.616   4.833   6.397
10198SOL    HW232195   6.751   4.817   6.306
10199SOL     OW32196   6.651   3.968   6.501
10199SOL    HW132197   6.601   3.946   6.417
10199SOL    HW232198   6.658   3.887   6.558
10200SOL     OW32199   6.210   5.172   6.039
10200SOL    HW132200   6.294   5.128   6.008
10200SOL    HW232201   6.156   5.199   5.959
10201SOL     OW32202   5.834   5.230   5.843
10201SOL    HW132203   5.752   5.257   5.793
10201SOL    HW232204   5.839   5.280   5.929
10202SOL     OW32205   6.289   3.892   0.214
10202SOL    HW132206   6.353   3.829   0.257
10202SOL    HW232207   6.336   3.978   0.192
10203SOL     OW32208   5.737   4.124   5.420
10203SOL    HW132209   5.638   4.122   5.406
10203SOL    HW232210   5.766   4.218   5.442
10204SOL     OW32211   5.625   3.894   5.849
10204SOL    HW132212   5.604   3.984   5.811
10204SOL    HW232213   5.710   3.860   5.807
10205SOL     OW32214   6.004   5.486   0.203
10205SOL    HW132215   5.914   5.516   0.172
10205SOL    HW232216   6.016   5.389   0.181
10206SOL     OW32217   6.337   5.071   5.677
10206SOL    HW132218   6.373   5.064   5.770
10206SOL    HW232219   6.392   5.136   5.625
10207SOL     OW32220   6.259   5.469   6.486
10207SOL    HW132221   6.213   5.553   6.513
10207SOL    HW232222   6.354   5.471   6.517
10208SOL     OW32223   6.545   4.770   6.547
10208SOL    HW132224   6.582   4.681   6.572
10208SOL    HW232225   6.452   4.778   6.583
10209SOL     OW32226   6.728   4.757   5.578
10209SOL    HW132227   6.662   4.808   5.523
10209SOL    HW232228   6.735   4.664   5.543
10210SOL     OW32229   6.082   4.125   6.172
10210SOL    HW132230   6.093   4.093   6.078
10210SOL    HW232231   5.990   4.104   6.204
10211SOL     OW32232   5.998   4.294   6.893
10211SOL    HW132233   6.003   4.216   6.955
10211SOL    HW232234   5.985   4.262   6.799
10212SOL     OW32235   6.385   5.274   6.297
10212SOL    HW132236   6.331   5.358   6.289
10212SOL    HW232237   6.324   5.194   6.291
10213SOL     OW32238   6.973   3.923   6.704
10213SOL    HW132239   6.948   3.827   6.708
10213SOL    HW232240   6.932   3.972   6.782
10214SOL     OW32241   6.658   3.741   6.638
10214SOL    HW132242   6.608   3.673   6.585
10214SOL    HW232243   6.747   3.704   6.664
10215SOL     OW32244   6.428   5.045   5.934
10215SOL    HW132245   6.412   4.947   5.946
10215SOL    HW232246   6.503   5.073   5.993
10216SOL     OW32247   6.196   5.353   6.841
10216SOL    HW132248   6.213   5.436   6.894
10216SOL    HW232249   6.279   5.299   6.836
10217SOL     OW32250   6.481   5.431   5.950
10217SOL    HW132251   6.410   5.414   5.882
10217SOL    HW232252   6.454   5.506   6.009
10218SOL     OW32253   5.809   6.273   0.119
10218SOL    HW132254   5.723   6.225   0.138
10218SOL    HW232255   5.844   6.246   0.030
10219SOL     OW32256   5.796   5.875   1.009
10219SOL    HW132257   5.839   5.841   1.093
10219SOL    HW232258   5.703   5.840   1.003
10220SOL     OW32259   5.577   6.003   0.646
10220SOL    HW132260   5.495   6.021   0.700
10220SOL    HW232261   5.557   5.935   0.576
10221SOL     OW32262   6.143   6.935   1.249
10221SOL    HW132263   6.091   6.941   1.163
10221SOL    HW232264   6.081   6.941   1.326
10222SOL     OW32265   0.010   0.068   0.629
10222SOL    HW132266   6.940   0.062   0.700
10222SOL    HW232267   0.080   6.999   0.645
10223SOL     OW32268   6.699   6.370   0.662
10223SOL    HW132269   6.760   6.449   0.661
10223SOL    HW232270   6.662   6.357   0.754
10224SOL     OW32271   6.237   6.653   0.951
10224SOL    HW132272   6.225   6.732   1.012
10224SOL    HW232273   6.194   6.672   0.863
10225SOL     OW32274   6.445   6.291   1.845
10225SOL    HW132275   6.448   6.350   1.926
10225SOL    HW232276   6.462   6.345   1.763
10226SOL     OW32277   6.310   6.532   0.629
10226SOL    HW132278   6.384   6.530   0.697
10226SOL    HW232279   6.240   6.597   0.657
10227SOL     OW32280   6.307   6.775   1.845
10227SOL    HW132281   6.310   6.827   1.931
10227SOL    HW232282   6.289   6.838   1.769
10228SOL     OW32283   5.979   6.987   1.033
10228SOL    HW132284   5.894   6.948   0.999
10228SOL    HW232285   6.009   0.061   0.973
10229SOL     OW32286   6.095   5.942   1.437
10229SOL    HW132287   6.171   5.880   1.456
10229SOL    HW232288   6.012   5.907   1.480
10230SOL     OW32289   5.891   6.669   0.873
10230SOL    HW132290   5.885   6.571   0.892
10230SOL    HW232291   5.845   6.720   0.946
10231SOL     OW32292   6.166   6.522   0.203
10231SOL    HW132293   6.194   6.525   0.107
10231SOL    HW232294   6.234   6.568   0.259
10232SOL     OW32295   5.667   6.253   0.546
10232SOL    HW132296   5.637   6.163   0.579
10232SOL    HW232297   5.659   6.320   0.620
10233SOL     OW32298   5.716   6.344   1.561
10233SOL    HW132299   5.796   6.403   1.574
10233SOL    HW232300   5.638   6.400   1.536
10234SOL     OW32301   6.800   6.715   1.364
10234SOL    HW132302   6.860   6.655   1.311
10234SOL    HW232303   6.846   6.741   1.449
10235SOL     OW32304   5.795   6.540   1.299
10235SOL    HW132305   5.879   6.488   1.285
10235SOL    HW232306   5.722   6.502   1.242
10236SOL     OW32307   5.944   5.861   1.882
10236SOL    HW132308   5.981   5.943   1.926
10236SOL    HW232309   5.848   5.878   1.858
10237SOL     OW32310   6.174   6.315   0.384
10237SOL    HW132311   6.167   6.390   0.318
10237SOL    HW232312   6.083   6.288   0.414
10238SOL     OW32313   6.869   5.892   0.852
10238SOL    HW132314   6.770   5.896   0.865
10238SOL    HW232315   6.912   5.851   0.932
10239SOL     OW32316   6.354   6.135   1.442
10239SOL    HW132317   6.318   6.106   1.531
10239SOL    HW232318   6.339   6.063   1.374
10240SOL     OW32319   6.965   6.105   1.753
10240SOL    HW132320   6.931   6.195   1.778
10240SOL    HW232321   0.065   6.104   1.757
10241SOL     OW32322   6.510   6.426   1.610
10241SOL    HW132323   6.563   6.350   1.573
10241SOL    HW232324   6.471   6.479   1.535
10242SOL     OW32325   6.628   5.984   1.185
10242SOL    HW132326   6.534   5.977   1.219
10242SOL    HW232327   6.633   5.946   1.093
10243SOL     OW32328   6.647   6.285   0.407
10243SOL    HW132329   6.670   6.316   0.499
10243SOL    HW232330   6.556   6.243   0.408
10244SOL     OW32331   5.643   6.437   0.769
10244SOL    HW132332   5.734   6.413   0.802
10244SOL    HW232333   5.608   6.515   0.822
10245SOL     OW32334   6.983   6.721   0.469
10245SOL    HW132335   0.041   6.691   0.393
10245SOL    HW232336   6.942   6.809   0.447
10246SOL     OW32337   6.148   5.686   0.935
10246SOL    HW132338   6.156   5.710   1.031
10246SOL    HW232339   6.160   5.768   0.879
10247SOL     OW32340   5.906   6.495   0.264
10247SOL    HW132341   6.001   6.507   0.235
10247SOL    HW232342   5.868   6.413   0.221
10248SOL     OW32343   5.838   5.860   1.505
10248SOL    HW132344   5.780   5.941   1.515
10248SOL    HW232345   5.794   5.782   1.548
10249SOL     OW32346   5.942   6.230   0.497
10249SOL    HW132347   5.962   6.137   0.527
10249SOL    HW232348   5.843   6.245   0.499
10250SOL     OW32349   6.386   5.832   1.753
10250SOL    HW132350   6.480   5.798   1.756
10250SOL    HW232351   6.332   5.786   1.824
10251SOL     OW32352   6.505   6.088   0.870
10251SOL    HW132353   6.479   6.078   0.773
10251SOL    HW232354   6.540   6.000   0.903
10252SOL     OW32355   6.536   5.800   0.479
10252SOL    HW132356   6.496   5.771   0.392
10252SOL    HW232357   6.625   5.843   0.462
10253SOL     OW32358   6.614   6.199   1.493
10253SOL    HW132359   6.521   6.167   1.474
10253SOL    HW232360   6.664   6.127   1.543
10254SOL     OW32361   6.825   0.061   0.823
10254SOL    HW132362   6.730   0.032   0.819
10254SOL    HW232363   6.848   0.089   0.917
10255SOL     OW32364   6.101   6.689   0.705
10255SOL    HW132365   6.025   6.684   0.769
10255SOL    HW232366   6.066   6.700   0.612
10256SOL     OW32367   5.708   6.116   1.408
10256SOL    HW132368   5.800   6.108   1.367
10256SOL    HW232369   5.704   6.197   1.466
10257SOL     OW32370   6.163   5.745   1.199
10257SOL    HW132371   6.185   5.667   1.258
10257SOL    HW232372   6.069   5.775   1.217
10258SOL     OW32373   6.443   6.023   0.613
10258SOL    HW132374   6.420   6.087   0.540
10258SOL    HW232375   6.468   5.935   0.574
10259SOL     OW32376   6.619   5.687   0.712
10259SOL    HW132377   6.574   5.717   0.628
10259SOL    HW232378   6.572   5.606   0.748
10260SOL     OW32379   6.597   6.848   1.244
10260SOL    HW132380   6.513   6.847   1.298
10260SOL    HW232381   6.670   6.802   1.295
10261SOL     OW32382   6.802   6.793   1.044
10261SOL    HW132383   6.732   6.814   1.112
10261SOL    HW232384   6.759   6.771   0.956
10262SOL     OW32385   6.525   5.681   1.336
10262SOL    HW132386   6.551   5.662   1.242
10262SOL    HW232387   6.600   5.728   1.383
10263SOL     OW32388   6.537   6.623   1.797
10263SOL    HW132389   6.454   6.676   1.813
10263SOL    HW232390   6.524   6.560   1.721
10264SOL     OW32391   6.358   6.622   0.371
10264SOL    HW132392   6.344   6.584   0.462
10264SOL    HW232393   6.432   6.572   0.325
10265SOL     OW32394   6.014   6.378   1.268
10265SOL    HW132395   6.083   6.390   1.339
10265SOL    HW232396   5.982   6.284   1.268
10266SOL     OW32397   6.884   5.946   1.291
10266SOL    HW132398   6.946   6.018   1.322
10266SOL    HW232399   6.801   5.987   1.254
10267SOL     OW32400   5.958   6.700   0.458
10267SOL    HW132401   5.987   6.771   0.393
10267SOL    HW232402   5.934   6.617   0.408
10268SOL     OW32403   6.108   6.118   0.835
10268SOL    HW132404   6.116   6.203   0.783
10268SOL    HW232405   6.179   6.115   0.906
10269SOL     OW32406   6.888   6.972   0.399
10269SOL    HW132407   6.937   0.017   0.474
10269SOL    HW232408   6.792   0.001   0.400
10270SOL     OW32409   6.065   6.250   1.667
10270SOL    HW132410   6.100   6.303   1.589
10270SOL    HW232411   6.133   6.183   1.695
10271SOL     OW32412   6.642   5.741   1.764
10271SOL    HW132413   6.686   5.829   1.751
10271SOL    HW232414   6.701   5.668   1.729
10272SOL     OW32415   6.092   5.655   1.772
10272SOL    HW132416   6.042   5.596   1.708
10272SOL    HW232417   6.035   5.735   1.794
10273SOL     OW32418   6.206   6.400   1.064
10273SOL    HW132419   6.214   6.490   1.022
10273SOL    HW232420   6.131   6.401   1.131
10274SOL     OW32421   6.883   6.365   0.983
10274SOL    HW132422   6.786   6.344   0.979
10274SOL    HW232423   6.931   6.295   1.035
10275SOL     OW32424   6.764   6.106   0.233
10275SOL    HW132425   6.769   6.025   0.292
10275SOL    HW232426   6.725   6.182   0.284
10276SOL     OW32427   5.893   5.779   1.246
10276SOL    HW132428   5.872   5.815   1.337
10276SOL    HW232429   5.869   5.682   1.241
10277SOL     OW32430   5.661   6.901   1.265
10277SOL    HW132431   5.696   6.855   1.347
10277SOL    HW232432   5.614   6.985   1.291
10278SOL     OW32433   6.294   6.146   1.034
10278SOL    HW132434   6.375   6.138   0.975
10278SOL    HW232435   6.270   6.242   1.044
10279SOL     OW32436   5.874   5.608   0.639
10279SOL    HW132437   5.846   5.703   0.658
10279SOL    HW232438   5.901   5.564   0.724
10280SOL     OW32439   0.208   5.991   0.387
10280SOL    HW132440   0.288   5.980   0.447
10280SOL    HW232441   0.155   6.070   0.417
10281SOL     OW32442   6.605   6.322   0.969
10281SOL    HW132443   6.585   6.325   1.067
10281SOL    HW232444   6.575   6.235   0.931
10282SOL     OW32445   5.943   6.473   1.782
10282SOL    HW132446   6.005   6.518   1.846
10282SOL    HW232447   5.985   6.389   1.748
10283SOL     OW32448   6.943   6.411   6.949
10283SOL    HW132449   0.011   6.345   6.917
10283SOL    HW232450   6.942   6.490   6.888
10284SOL     OW32451   5.893   6.390   0.878
10284SOL    HW132452   5.972   6.383   0.816
10284SOL    HW232453   5.889   6.309   0.935
10285SOL     OW32454   5.889   6.127   0.996
10285SOL    HW132455   5.846   6.037   0.997
10285SOL    HW232456   5.969   6.125   0.936
10286SOL     OW32457   6.727   5.999   1.671
10286SOL    HW132458   6.669   6.025   1.749
10286SOL    HW232459   6.820   6.031   1.687
10287SOL     OW32460   6.733   5.804   1.466
10287SOL    HW132461   6.719   5.870   1.540
10287SOL    HW232462   6.793   5.845   1.397
10288SOL     OW32463   6.534   6.319   1.237
10288SOL    HW132464   6.595   6.287   1.309
10288SOL    HW232465   6.444   6.275   1.248
10289SOL     OW32466   5.639   6.181   1.141
10289SOL    HW132467   5.722   6.175   1.084
10289SOL    HW232468   5.663   6.157   1.235
10290SOL     OW32469   5.804   6.157   1.743
10290SOL    HW132470   5.902   6.167   1.726
10290SOL    HW232471   5.753   6.222   1.686
10291SOL     OW32472   6.399   6.169   0.384
10291SOL    HW132473   6.391   6.121   0.297
10291SOL    HW232474   6.320   6.230   0.396
10292SOL     OW32475   6.348   5.961   1.227
10292SOL    HW132476   6.289   5.880   1.225
10292SOL    HW232477   6.320   6.025   1.155
10293SOL     OW32478   5.777   6.751   1.471
10293SOL    HW132479   5.760   6.713   1.562
10293SOL    HW232480   5.787   6.676   1.405
10294SOL     OW32481   6.945   6.577   1.149
10294SOL    HW132482   6.924   6.498   1.091
10294SOL    HW232483   6.901   6.658   1.112
10295SOL     OW32484   6.975   6.439   0.221
10295SOL    HW132485   6.909   6.391   0.278
10295SOL    HW232486   6.955   6.422   0.124
10296SOL     OW32487   5.723   6.855   1.007
10296SOL    HW132488   5.706   6.872   1.104
10296SOL    HW232489   5.660   6.784   0.974
10297SOL     OW32490   6.877   6.582   0.676
10297SOL    HW132491   6.950   6.524   0.712
10297SOL    HW232492   6.912   6.635   0.599
10298SOL     OW32493   6.353   6.827   1.391
10298SOL    HW132494   6.332   6.857   1.484
10298SOL    HW232495   6.284   6.862   1.328
10299SOL     OW32496   5.799   5.860   0.731
10299SOL    HW132497   5.720   5.914   0.702
10299SOL    HW232498   5.806   5.862   0.831
10300SOL     OW32499   6.406   6.555   1.393
10300SOL    HW132500   6.462   6.527   1.315
10300SOL    HW232501   6.389   6.654   1.389
10301SOL     OW32502   6.548   6.482   0.242
10301SOL    HW132503   6.593   6.484   0.153
10301SOL    HW232504   6.592   6.414   0.300
10302SOL     OW32505   5.951   6.968   1.446
10302SOL    HW132506   5.940   0.027   1.527
10302SOL    HW232507   5.894   6.886   1.457
10303SOL     OW32508   6.677   6.721   0.808
10303SOL    HW132509   6.602   6.656   0.819
10303SOL    HW232510   6.751   6.679   0.756
10304SOL     OW32511   6.607   5.839   0.939
10304SOL    HW132512   6.605   5.797   0.848
10304SOL    HW232513   6.609   5.767   1.008
10305SOL     OW32514   5.734   6.640   1.724
10305SOL    HW132515   5.649   6.615   1.771
10305SOL    HW232516   5.806   6.577   1.750
10306SOL     OW32517   6.307   5.766   1.494
10306SOL    HW132518   6.386   5.745   1.437
10306SOL    HW232519   6.338   5.791   1.586
10307SOL     OW32520   5.663   5.920   0.008
10307SOL    HW132521   5.596   5.878   6.947
10307SOL    HW232522   5.624   6.004   0.048
10308SOL     OW32523   5.647   5.746   0.225
10308SOL    HW132524   5.652   5.822   0.160
10308SOL    HW232525   5.700   5.669   0.190
10309SOL     OW32526   6.210   6.370   1.456
10309SOL    HW132527   6.272   6.448   1.441
10309SOL    HW232528   6.262   6.285   1.449
10310SOL     OW32529   6.294   6.093   1.711
10310SOL    HW132530   6.344   6.159   1.768
10310SOL    HW232531   6.325   6.001   1.732
10311SOL     OW32532   6.947   6.780   1.588
10311SOL    HW132533   6.951   6.762   1.686
10311SOL    HW232534   0.039   6.778   1.550
10312SOL     OW32535   6.781   5.916   0.436
10312SOL    HW132536   6.862   5.858   0.421
10312SOL    HW232537   6.801   5.983   0.507
10313SOL     OW32538   6.099   6.350   0.693
10313SOL    HW132539   6.178   6.404   0.662
10313SOL    HW232540   6.046   6.320   0.614
10314SOL     OW32541   6.475   6.543   0.856
10314SOL    HW132542   6.515   6.465   0.904
10314SOL    HW232543   6.396   6.577   0.906
10315SOL     OW32544   6.678   6.490   6.998
10315SOL    HW132545   6.692   6.589   6.992
10315SOL    HW232546   6.765   6.443   6.984
10316SOL     OW32547   5.748   6.903   1.795
10316SOL    HW132548   5.753   6.807   1.768
10316SOL    HW232549   5.698   6.911   1.880
10317SOL     OW32550   5.797   6.812   0.655
10317SOL    HW132551   5.823   6.763   0.738
10317SOL    HW232552   5.839   6.770   0.576
10318SOL     OW32553   6.239   6.950   1.636
10318SOL    HW132554   6.144   6.954   1.668
10318SOL    HW232555   6.264   0.039   1.596
10319SOL     OW32556   6.007   5.989   0.610
10319SOL    HW132557   6.059   6.027   0.687
10319SOL    HW232558   5.932   5.933   0.645
10320SOL     OW32559   5.949   6.113   1.280
10320SOL    HW132560   6.012   6.053   1.329
10320SOL    HW232561   5.953   6.093   1.182
10321SOL     OW32562   6.953   5.778   1.084
10321SOL    HW132563   6.928   5.682   1.101
10321SOL    HW232564   6.930   5.833   1.165
10322SOL     OW32565   6.625   5.604   1.083
10322SOL    HW132566   6.579   5.546   1.016
10322SOL    HW232567   6.719   5.573   1.096
10323SOL     OW32568   6.398   6.887   0.319
10323SOL    HW132569   6.386   6.790   0.341
10323SOL    HW232570   6.411   6.939   0.402
10324SOL     OW32571   5.676   6.634   0.243
10324SOL    HW132572   5.768   6.595   0.251
10324SOL    HW232573   5.609   6.568   0.277
10325SOL     OW32574   5.774   6.175   2.020
10325SOL    HW132575   5.679   6.166   2.049
10325SOL    HW232576   5.778   6.183   1.920
10326SOL     OW32577   5.803   5.877   2.858
10326SOL    HW132578   5.850   5.843   2.940
10326SOL    HW232579   5.713   5.834   2.851
10327SOL     OW32580   5.586   6.014   2.495
10327SOL    HW132581   5.504   6.031   2.549
10327SOL    HW232582   5.566   5.945   2.425
10328SOL     OW32583   6.148   6.945   3.119
10328SOL    HW132584   6.098   6.949   3.032
10328SOL    HW232585   6.083   6.952   3.195
10329SOL     OW32586   6.978   0.120   2.500
10329SOL    HW132587   6.914   0.107   2.575
10329SOL    HW232588   0.054   0.054   2.510
10330SOL     OW32589   6.684   6.388   2.527
10330SOL    HW132590   6.749   6.463   2.526
10330SOL    HW232591   6.656   6.369   2.621
10331SOL     OW32592   6.228   6.674   2.797
10331SOL    HW132593   6.216   6.752   2.859
10331SOL    HW232594   6.190   6.697   2.708
10332SOL     OW32595   6.447   6.288   3.705
10332SOL    HW132596   6.450   6.347   3.785
10332SOL    HW232597   6.460   6.343   3.623
10333SOL     OW32598   6.287   6.538   2.460
10333SOL    HW132599   6.363   6.535   2.524
10333SOL    HW232600   6.223   6.610   2.487
10334SOL     OW32601   6.306   6.779   3.710
10334SOL    HW132602   6.307   6.830   3.796
10334SOL    HW232603   6.285   6.841   3.634
10335SOL     OW32604   5.994   6.989   2.895
10335SOL    HW132605   5.908   6.950   2.861
10335SOL    HW232606   6.022   0.064   2.835
10336SOL     OW32607   6.092   5.935   3.299
10336SOL    HW132608   6.167   5.872   3.322
10336SOL    HW232609   6.007   5.901   3.339
10337SOL     OW32610   5.897   6.680   2.719
10337SOL    HW132611   5.894   6.582   2.740
10337SOL    HW232612   5.854   6.731   2.792
10338SOL     OW32613   6.120   6.599   1.960
10338SOL    HW132614   6.175   6.657   1.900
10338SOL    HW232615   6.174   6.573   2.040
10339SOL     OW32616   5.679   6.274   2.431
10339SOL    HW132617   5.652   6.181   2.452
10339SOL    HW232618   5.665   6.332   2.511
10340SOL     OW32619   5.701   6.366   3.399
10340SOL    HW132620   5.770   6.420   3.351
10340SOL    HW232621   5.613   6.414   3.397
10341SOL     OW32622   6.811   6.736   3.227
10341SOL    HW132623   6.867   6.674   3.172
10341SOL    HW232624   6.859   6.759   3.312
10342SOL     OW32625   6.424   5.628   2.356
10342SOL    HW132626   6.474   5.710   2.329
10342SOL    HW232627   6.327   5.650   2.367
10343SOL     OW32628   5.809   6.523   3.184
10343SOL    HW132629   5.895   6.479   3.157
10343SOL    HW232630   5.742   6.510   3.112
10344SOL     OW32631   5.951   5.871   3.734
10344SOL    HW132632   5.990   5.950   3.780
10344SOL    HW232633   5.859   5.893   3.702
10345SOL     OW32634   6.158   6.289   2.173
10345SOL    HW132635   6.194   6.382   2.169
10345SOL    HW232636   6.079   6.287   2.235
10346SOL     OW32637   6.866   5.907   2.730
10346SOL    HW132638   6.766   5.898   2.731
10346SOL    HW232639   6.904   5.862   2.811
10347SOL     OW32640   6.351   6.131   3.321
10347SOL    HW132641   6.315   6.098   3.408
10347SOL    HW232642   6.338   6.060   3.251
10348SOL     OW32643   6.963   6.102   3.610
10348SOL    HW132644   6.929   6.192   3.635
10348SOL    HW232645   0.063   6.101   3.615
10349SOL     OW32646   6.507   6.429   3.469
10349SOL    HW132647   6.561   6.356   3.428
10349SOL    HW232648   6.464   6.483   3.397
10350SOL     OW32649   6.633   5.978   3.046
10350SOL    HW132650   6.539   5.973   3.081
10350SOL    HW232651   6.635   5.941   2.953
10351SOL     OW32652   6.613   6.306   2.277
10351SOL    HW132653   6.635   6.332   2.371
10351SOL    HW232654   6.531   6.249   2.277
10352SOL     OW32655   5.644   6.452   2.645
10352SOL    HW132656   5.735   6.429   2.679
10352SOL    HW232657   5.610   6.532   2.693
10353SOL     OW32658   6.438   5.921   2.072
10353SOL    HW132659   6.492   5.961   1.999
10353SOL    HW232660   6.379   5.849   2.035
10354SOL     OW32661   6.967   6.789   2.376
10354SOL    HW132662   0.005   6.747   2.293
10354SOL    HW232663   6.905   6.863   2.351
10355SOL     OW32664   6.155   5.681   2.802
10355SOL    HW132665   6.167   5.709   2.898
10355SOL    HW232666   6.168   5.760   2.743
10356SOL     OW32667   5.905   6.590   2.137
10356SOL    HW132668   5.972   6.601   2.064
10356SOL    HW232669   5.895   6.493   2.159
10357SOL     OW32670   5.831   5.855   3.350
10357SOL    HW132671   5.781   5.941   3.366
10357SOL    HW232672   5.780   5.779   3.390
10358SOL     OW32673   5.945   6.270   2.346
10358SOL    HW132674   5.965   6.172   2.354
10358SOL    HW232675   5.848   6.286   2.363
10359SOL     OW32676   6.262   5.702   1.977
10359SOL    HW132677   6.296   5.616   2.014
10359SOL    HW232678   6.195   5.683   1.905
10360SOL     OW32679   6.381   5.819   3.621
10360SOL    HW132680   6.475   5.783   3.622
10360SOL    HW232681   6.328   5.775   3.693
10361SOL     OW32682   6.506   6.090   2.733
10361SOL    HW132683   6.486   6.083   2.635
10361SOL    HW232684   6.538   6.002   2.767
10362SOL     OW32685   6.156   5.677   2.370
10362SOL    HW132686   6.078   5.670   2.431
10362SOL    HW232687   6.141   5.752   2.304
10363SOL     OW32688   6.982   6.686   1.854
10363SOL    HW132689   0.027   6.712   1.940
10363SOL    HW232690   6.893   6.645   1.874
10364SOL     OW32691   5.870   5.644   2.032
10364SOL    HW132692   5.913   5.721   1.986
10364SOL    HW232693   5.937   5.594   2.086
10365SOL     OW32694   6.583   5.843   2.296
10365SOL    HW132695   6.544   5.877   2.211
10365SOL    HW232696   6.680   5.868   2.301
10366SOL     OW32697   6.608   6.215   3.326
10366SOL    HW132698   6.514   6.179   3.324
10366SOL    HW232699   6.670   6.143   3.357
10367SOL     OW32700   6.818   0.073   2.707
10367SOL    HW132701   6.724   0.040   2.707
10367SOL    HW232702   6.849   0.083   2.802
10368SOL     OW32703   6.102   6.719   2.545
10368SOL    HW132704   6.026   6.703   2.607
10368SOL    HW232705   6.069   6.762   2.461
10369SOL     OW32706   6.597   6.070   1.899
10369SOL    HW132707   6.544   6.153   1.883
10369SOL    HW232708   6.655   6.082   1.979
10370SOL     OW32709   5.711   6.125   3.269
10370SOL    HW132710   5.804   6.120   3.233
10370SOL    HW232711   5.701   6.207   3.325
10371SOL     OW32712   6.177   5.747   3.064
10371SOL    HW132713   6.203   5.676   3.130
10371SOL    HW232714   6.081   5.772   3.080
10372SOL     OW32715   6.466   6.029   2.472
10372SOL    HW132716   6.422   6.083   2.400
10372SOL    HW232717   6.514   5.952   2.430
10373SOL     OW32718   6.582   5.653   2.580
10373SOL    HW132719   6.519   5.645   2.503
10373SOL    HW232720   6.570   5.575   2.642
10374SOL     OW32721   6.113   5.854   2.168
10374SOL    HW132722   6.165   5.802   2.101
10374SOL    HW232723   6.079   5.938   2.126
10375SOL     OW32724   6.600   6.856   3.109
10375SOL    HW132725   6.516   6.849   3.162
10375SOL    HW232726   6.676   6.814   3.160
10376SOL     OW32727   6.789   6.795   2.894
10376SOL    HW132728   6.726   6.820   2.966
10376SOL    HW232729   6.738   6.771   2.811
10377SOL     OW32730   6.517   5.679   3.201
10377SOL    HW132731   6.544   5.663   3.106
10377SOL    HW232732   6.592   5.724   3.250
10378SOL     OW32733   6.534   6.623   3.660
10378SOL    HW132734   6.451   6.676   3.676
10378SOL    HW232735   6.519   6.561   3.584
10379SOL     OW32736   6.275   6.546   2.182
10379SOL    HW132737   6.283   6.546   2.281
10379SOL    HW232738   6.363   6.520   2.141
10380SOL     OW32739   6.032   6.377   3.124
10380SOL    HW132740   6.096   6.388   3.199
10380SOL    HW232741   5.996   6.284   3.123
10381SOL     OW32742   6.884   5.943   3.162
10381SOL    HW132743   6.945   6.017   3.191
10381SOL    HW232744   6.802   5.982   3.120
10382SOL     OW32745   5.958   6.800   2.311
10382SOL    HW132746   5.945   6.886   2.262
10382SOL    HW232747   5.942   6.723   2.249
10383SOL     OW32748   6.104   6.145   2.745
10383SOL    HW132749   6.116   6.211   2.671
10383SOL    HW232750   6.185   6.146   2.803
10384SOL     OW32751   6.825   0.018   2.297
10384SOL    HW132752   6.880   0.068   2.363
10384SOL    HW232753   6.730   0.048   2.301
10385SOL     OW32754   6.068   6.256   3.541
10385SOL    HW132755   6.106   6.306   3.463
10385SOL    HW232756   6.132   6.185   3.570
10386SOL     OW32757   6.636   5.722   3.627
10386SOL    HW132758   6.679   5.812   3.615
10386SOL    HW232759   6.697   5.651   3.593
10387SOL     OW32760   6.077   5.647   3.630
10387SOL    HW132761   6.018   5.586   3.577
10387SOL    HW232762   6.029   5.733   3.648
10388SOL     OW32763   6.216   6.422   2.917
10388SOL    HW132764   6.212   6.512   2.874
10388SOL    HW232765   6.143   6.415   2.985
10389SOL     OW32766   6.890   6.380   2.846
10389SOL    HW132767   6.794   6.357   2.833
10389SOL    HW232768   6.935   6.309   2.900
10390SOL     OW32769   6.732   6.102   2.132
10390SOL    HW132770   6.783   6.041   2.193
10390SOL    HW232771   6.699   6.181   2.184
10391SOL     OW32772   5.905   5.776   3.094
10391SOL    HW132773   5.880   5.814   3.183
10391SOL    HW232774   5.871   5.682   3.088
10392SOL     OW32775   5.668   6.899   3.129
10392SOL    HW132776   5.703   6.855   3.212
10392SOL    HW232777   5.624   6.985   3.153
10393SOL     OW32778   6.323   6.174   2.919
10393SOL    HW132779   6.390   6.156   2.847
10393SOL    HW232780   6.291   6.269   2.913
10394SOL     OW32781   5.923   5.654   2.515
10394SOL    HW132782   5.883   5.743   2.535
10394SOL    HW232783   5.927   5.599   2.598
10395SOL     OW32784   0.140   6.088   2.179
10395SOL    HW132785   0.099   5.997   2.176
10395SOL    HW232786   0.115   6.133   2.264
10396SOL     OW32787   6.607   6.335   2.809
10396SOL    HW132788   6.587   6.345   2.906
10396SOL    HW232789   6.580   6.244   2.778
10397SOL     OW32790   5.941   6.481   3.655
10397SOL    HW132791   6.006   6.526   3.718
10397SOL    HW232792   5.983   6.399   3.618
10398SOL     OW32793   6.956   6.373   1.826
10398SOL    HW132794   0.017   6.353   1.903
10398SOL    HW232795   0.006   6.424   1.756
10399SOL     OW32796   5.895   6.401   2.745
10399SOL    HW132797   5.972   6.388   2.684
10399SOL    HW232798   5.884   6.321   2.803
10400SOL     OW32799   5.870   6.137   2.869
10400SOL    HW132800   5.832   6.045   2.861
10400SOL    HW232801   5.957   6.142   2.821
10401SOL     OW32802   6.728   5.975   3.546
10401SOL    HW132803   6.668   6.008   3.619
10401SOL    HW232804   6.819   6.016   3.557
10402SOL     OW32805   6.729   5.796   3.331
10402SOL    HW132806   6.717   5.857   3.410
10402SOL    HW232807   6.789   5.839   3.265
10403SOL     OW32808   5.588   6.901   2.018
10403SOL    HW132809   5.490   6.921   2.007
10403SOL    HW232810   5.598   6.813   2.064
10404SOL     OW32811   6.526   6.333   3.076
10404SOL    HW132812   6.575   6.300   3.157
10404SOL    HW232813   6.446   6.274   3.060
10405SOL     OW32814   5.630   6.189   3.009
10405SOL    HW132815   5.712   6.183   2.951
10405SOL    HW232816   5.655   6.167   3.103
10406SOL     OW32817   5.803   6.195   3.594
10406SOL    HW132818   5.901   6.204   3.579
10406SOL    HW232819   5.755   6.261   3.537
10407SOL     OW32820   6.388   6.147   2.235
10407SOL    HW132821   6.398   6.067   2.175
10407SOL    HW232822   6.302   6.194   2.212
10408SOL     OW32823   6.355   5.966   3.096
10408SOL    HW132824   6.294   5.888   3.087
10408SOL    HW232825   6.331   6.037   3.030
10409SOL     OW32826   6.026   6.079   2.041
10409SOL    HW132827   6.087   6.152   2.071
10409SOL    HW232828   5.931   6.112   2.043
10410SOL     OW32829   5.790   6.751   3.335
10410SOL    HW132830   5.767   6.720   3.427
10410SOL    HW232831   5.804   6.673   3.275
10411SOL     OW32832   6.946   6.598   3.009
10411SOL    HW132833   6.929   6.515   2.955
10411SOL    HW232834   6.895   6.674   2.969
10412SOL     OW32835   6.852   6.502   2.181
10412SOL    HW132836   6.801   6.437   2.237
10412SOL    HW232837   6.809   6.510   2.091
10413SOL     OW32838   5.739   6.851   2.873
10413SOL    HW132839   5.720   6.870   2.969
10413SOL    HW232840   5.670   6.788   2.836
10414SOL     OW32841   6.867   6.594   2.542
10414SOL    HW132842   6.943   6.537   2.572
10414SOL    HW232843   6.901   6.663   2.478
10415SOL     OW32844   6.356   6.829   3.255
10415SOL    HW132845   6.335   6.856   3.349
10415SOL    HW232846   6.288   6.867   3.194
10416SOL     OW32847   5.824   5.898   2.580
10416SOL    HW132848   5.741   5.945   2.550
10416SOL    HW232849   5.827   5.898   2.680
10417SOL     OW32850   6.872   0.117   1.867
10417SOL    HW132851   6.891   0.043   1.931
10417SOL    HW232852   6.778   0.107   1.833
10418SOL     OW32853   6.398   6.554   3.252
10418SOL    HW132854   6.445   6.522   3.169
10418SOL    HW232855   6.385   6.653   3.247
10419SOL     OW32856   6.508   6.454   2.071
10419SOL    HW132857   6.579   6.504   2.022
10419SOL    HW232858   6.549   6.401   2.145
10420SOL     OW32859   5.949   6.979   3.312
10420SOL    HW132860   5.928   0.044   3.385
10420SOL    HW232861   5.896   6.895   3.325
10421SOL     OW32862   6.656   6.725   2.664
10421SOL    HW132863   6.578   6.662   2.666
10421SOL    HW232864   6.732   6.683   2.615
10422SOL     OW32865   6.600   5.833   2.793
10422SOL    HW132866   6.589   5.790   2.703
10422SOL    HW232867   6.606   5.761   2.863
10423SOL     OW32868   5.732   6.644   3.583
10423SOL    HW132869   5.645   6.619   3.626
10423SOL    HW232870   5.802   6.577   3.610
10424SOL     OW32871   6.297   5.754   3.363
10424SOL    HW132872   6.377   5.734   3.305
10424SOL    HW232873   6.327   5.779   3.454
10425SOL     OW32874   5.678   5.925   1.831
10425SOL    HW132875   5.588   5.915   1.789
10425SOL    HW232876   5.718   6.012   1.801
10426SOL     OW32877   5.628   5.753   2.085
10426SOL    HW132878   5.612   5.819   2.011
10426SOL    HW232879   5.720   5.714   2.075
10427SOL     OW32880   6.211   6.367   3.326
10427SOL    HW132881   6.272   6.444   3.308
10427SOL    HW232882   6.263   6.281   3.322
10428SOL     OW32883   6.288   6.084   3.587
10428SOL    HW132884   6.342   6.150   3.640
10428SOL    HW232885   6.321   5.991   3.606
10429SOL     OW32886   6.959   6.792   3.452
10429SOL    HW132887   6.956   6.772   3.550
10429SOL    HW232888   0.054   6.791   3.421
10430SOL     OW32889   6.854   5.925   2.311
10430SOL    HW132890   6.922   5.874   2.258
10430SOL    HW232891   6.895   5.955   2.398
10431SOL     OW32892   6.098   6.353   2.559
10431SOL    HW132893   6.172   6.411   2.527
10431SOL    HW232894   6.043   6.323   2.481
10432SOL     OW32895   6.451   6.546   2.690
10432SOL    HW132896   6.494   6.471   2.741
10432SOL    HW232897   6.376   6.585   2.744
10433SOL     OW32898   6.752   6.532   1.928
10433SOL    HW132899   6.681   6.569   1.870
10433SOL    HW232900   6.804   6.463   1.878
10434SOL     OW32901   5.755   6.898   3.673
10434SOL    HW132902   5.758   6.804   3.639
10434SOL    HW232903   5.701   6.902   3.757
10435SOL     OW32904   5.802   6.854   2.526
10435SOL    HW132905   5.831   6.792   2.599
10435SOL    HW232906   5.849   6.832   2.441
10436SOL     OW32907   6.234   6.956   3.502
10436SOL    HW132908   6.140   6.960   3.535
10436SOL    HW232909   6.259   0.044   3.460
10437SOL     OW32910   5.989   6.008   2.380
10437SOL    HW132911   6.027   5.940   2.317
10437SOL    HW232912   5.939   5.962   2.453
10438SOL     OW32913   5.954   6.116   3.147
10438SOL    HW132914   6.015   6.054   3.195
10438SOL    HW232915   5.949   6.091   3.051
10439SOL     OW32916   6.947   5.775   2.954
10439SOL    HW132917   6.922   5.680   2.971
10439SOL    HW232918   6.928   5.829   3.036
10440SOL     OW32919   6.622   5.604   2.949
10440SOL    HW132920   6.578   5.538   2.887
10440SOL    HW232921   6.716   5.575   2.965
10441SOL     OW32922   6.258   6.874   2.123
10441SOL    HW132923   6.256   6.778   2.151
10441SOL    HW232924   6.246   6.932   2.204
10442SOL     OW32925   6.905   5.661   1.984
10442SOL    HW132926   6.965   5.599   1.934
10442SOL    HW232927   6.829   5.610   2.024
10443SOL     OW32928   5.633   6.648   2.148
10443SOL    HW132929   5.732   6.647   2.140
10443SOL    HW232930   5.599   6.555   2.157
10444SOL     OW32931   5.784   6.193   3.873
10444SOL    HW132932   5.690   6.175   3.901
10444SOL    HW232933   5.786   6.208   3.774
10445SOL     OW32934   5.788   5.876   4.723
10445SOL    HW132935   5.840   5.846   4.803
10445SOL    HW232936   5.697   5.835   4.725
10446SOL     OW32937   5.556   6.025   4.365
10446SOL    HW132938   5.470   6.037   4.413
10446SOL    HW232939   5.544   5.958   4.291
10447SOL     OW32940   6.151   6.944   4.983
10447SOL    HW132941   6.101   6.948   4.896
10447SOL    HW232942   6.086   6.948   5.059
10448SOL     OW32943   6.972   0.117   4.361
10448SOL    HW132944   6.911   0.104   4.440
10448SOL    HW232945   0.050   0.055   4.370
10449SOL     OW32946   6.682   6.389   4.388
10449SOL    HW132947   6.748   6.464   4.387
10449SOL    HW232948   6.654   6.370   4.482
10450SOL     OW32949   6.224   6.674   4.658
10450SOL    HW132950   6.210   6.752   4.720
10450SOL    HW232951   6.186   6.696   4.568
10451SOL     OW32952   6.458   6.304   5.571
10451SOL    HW132953   6.464   6.369   5.647
10451SOL    HW232954   6.470   6.353   5.484
10452SOL     OW32955   6.286   6.535   4.324
10452SOL    HW132956   6.362   6.535   4.388
10452SOL    HW232957   6.221   6.606   4.350
10453SOL     OW32958   6.279   6.756   5.571
10453SOL    HW132959   6.299   6.805   5.656
10453SOL    HW232960   6.265   6.821   5.497
10454SOL     OW32961   5.997   6.985   4.759
10454SOL    HW132962   5.911   6.947   4.727
10454SOL    HW232963   6.024   0.060   4.699
10455SOL     OW32964   6.093   5.935   5.158
10455SOL    HW132965   6.171   5.876   5.180
10455SOL    HW232966   6.010   5.896   5.199
10456SOL     OW32967   5.895   6.682   4.582
10456SOL    HW132968   5.894   6.585   4.606
10456SOL    HW232969   5.852   6.735   4.655
10457SOL     OW32970   6.119   6.604   3.830
10457SOL    HW132971   6.174   6.662   3.770
10457SOL    HW232972   6.173   6.575   3.908
10458SOL     OW32973   5.671   6.277   4.304
10458SOL    HW132974   5.635   6.186   4.327
10458SOL    HW232975   5.660   6.338   4.383
10459SOL     OW32976   5.690   6.368   5.244
10459SOL    HW132977   5.752   6.420   5.185
10459SOL    HW232978   5.602   6.415   5.249
10460SOL     OW32979   6.818   6.743   5.092
10460SOL    HW132980   6.873   6.679   5.039
10460SOL    HW232981   6.865   6.766   5.177
10461SOL     OW32982   6.421   5.629   4.228
10461SOL    HW132983   6.472   5.709   4.199
10461SOL    HW232984   6.325   5.652   4.237
10462SOL     OW32985   5.810   6.522   5.045
10462SOL    HW132986   5.896   6.477   5.019
10462SOL    HW232987   5.750   6.527   4.965
10463SOL     OW32988   5.951   5.863   5.577
10463SOL    HW132989   5.989   5.940   5.627
10463SOL    HW232990   5.867   5.891   5.531
10464SOL     OW32991   6.155   6.287   4.045
10464SOL    HW132992   6.191   6.380   4.039
10464SOL    HW232993   6.075   6.286   4.106
10465SOL     OW32994   6.869   5.911   4.596
10465SOL    HW132995   6.769   5.902   4.597
10465SOL    HW232996   6.907   5.868   4.678
10466SOL     OW32997   6.352   6.132   5.185
10466SOL    HW132998   6.318   6.104   5.275
10466SOL    HW232999   6.336   6.059   5.119
10467SOL     OW33000   6.961   6.104   5.485
10467SOL    HW133001   6.928   6.191   5.522
10467SOL    HW233002   0.061   6.108   5.476
10468SOL     OW33003   6.508   6.427   5.324
10468SOL    HW133004   6.562   6.355   5.283
10468SOL    HW233005   6.463   6.480   5.252
10469SOL     OW33006   6.635   5.984   4.915
10469SOL    HW133007   6.540   5.977   4.947
10469SOL    HW233008   6.641   5.949   4.822
10470SOL     OW33009   6.608   6.301   4.140
10470SOL    HW133010   6.631   6.330   4.233
10470SOL    HW233011   6.525   6.245   4.142
10471SOL     OW33012   5.647   6.461   4.514
10471SOL    HW133013   5.738   6.437   4.548
10471SOL    HW233014   5.613   6.540   4.564
10472SOL     OW33015   6.433   5.916   3.939
10472SOL    HW133016   6.488   5.958   3.866
10472SOL    HW233017   6.373   5.846   3.900
10473SOL     OW33018   6.967   6.793   4.243
10473SOL    HW133019   0.009   6.760   4.158
10473SOL    HW233020   6.898   6.862   4.221
10474SOL     OW33021   6.153   5.687   4.659
10474SOL    HW133022   6.164   5.715   4.754
10474SOL    HW233023   6.165   5.766   4.599
10475SOL     OW33024   5.896   6.577   3.999
10475SOL    HW133025   5.964   6.596   3.928
10475SOL    HW233026   5.890   6.478   4.013
10476SOL     OW33027   5.843   5.836   5.230
10476SOL    HW133028   5.805   5.903   5.293
10476SOL    HW233029   5.802   5.747   5.247
10477SOL     OW33030   5.937   6.268   4.216
10477SOL    HW133031   5.954   6.170   4.221
10477SOL    HW233032   5.841   6.287   4.235
10478SOL     OW33033   6.247   5.696   3.838
10478SOL    HW133034   6.275   5.609   3.877
10478SOL    HW233035   6.180   5.680   3.765
10479SOL     OW33036   6.375   5.836   5.484
10479SOL    HW133037   6.466   5.794   5.491
10479SOL    HW233038   6.316   5.796   5.554
10480SOL     OW33039   6.507   6.091   4.597
10480SOL    HW133040   6.487   6.082   4.499
10480SOL    HW233041   6.540   6.004   4.632
10481SOL     OW33042   6.153   5.683   4.235
10481SOL    HW133043   6.075   5.678   4.297
10481SOL    HW233044   6.140   5.757   4.170
10482SOL     OW33045   6.975   6.694   3.718
10482SOL    HW133046   0.019   6.720   3.804
10482SOL    HW233047   6.888   6.649   3.737
10483SOL     OW33048   5.862   5.666   3.892
10483SOL    HW133049   5.909   5.739   3.842
10483SOL    HW233050   5.929   5.613   3.945
10484SOL     OW33051   6.583   5.839   4.161
10484SOL    HW133052   6.542   5.873   4.077
10484SOL    HW233053   6.679   5.866   4.164
10485SOL     OW33054   6.607   6.220   5.170
10485SOL    HW133055   6.514   6.183   5.177
10485SOL    HW233056   6.673   6.145   5.171
10486SOL     OW33057   6.818   0.071   4.573
10486SOL    HW133058   6.723   0.039   4.572
10486SOL    HW233059   6.848   0.083   4.668
10487SOL     OW33060   6.099   6.714   4.406
10487SOL    HW133061   6.022   6.702   4.469
10487SOL    HW233062   6.065   6.753   4.320
10488SOL     OW33063   6.592   6.065   3.766
10488SOL    HW133064   6.543   6.149   3.746
10488SOL    HW233065   6.651   6.079   3.845
10489SOL     OW33066   5.690   6.122   5.121
10489SOL    HW133067   5.785   6.109   5.094
10489SOL    HW233068   5.681   6.206   5.175
10490SOL     OW33069   6.173   5.751   4.921
10490SOL    HW133070   6.193   5.674   4.982
10490SOL    HW233071   6.080   5.783   4.937
10491SOL     OW33072   6.467   6.025   4.337
10491SOL    HW133073   6.421   6.079   4.267
10491SOL    HW233074   6.516   5.949   4.295
10492SOL     OW33075   6.585   5.654   4.449
10492SOL    HW133076   6.520   5.647   4.374
10492SOL    HW233077   6.572   5.577   4.512
10493SOL     OW33078   6.106   5.854   4.030
10493SOL    HW133079   6.154   5.799   3.961
10493SOL    HW233080   6.076   5.941   3.989
10494SOL     OW33081   6.604   6.856   4.972
10494SOL    HW133082   6.520   6.848   5.025
10494SOL    HW233083   6.680   6.817   5.024
10495SOL     OW33084   6.793   6.796   4.758
10495SOL    HW133085   6.729   6.820   4.831
10495SOL    HW233086   6.741   6.772   4.675
10496SOL     OW33087   6.526   5.680   5.071
10496SOL    HW133088   6.554   5.666   4.976
10496SOL    HW233089   6.601   5.724   5.121
10497SOL     OW33090   6.520   6.646   5.490
10497SOL    HW133091   6.430   6.679   5.517
10497SOL    HW233092   6.509   6.572   5.423
10498SOL     OW33093   6.276   6.541   4.046
10498SOL    HW133094   6.284   6.542   4.146
10498SOL    HW233095   6.363   6.515   4.005
10499SOL     OW33096   6.030   6.372   4.984
10499SOL    HW133097   6.095   6.383   5.060
10499SOL    HW233098   5.990   6.280   4.987
10500SOL     OW33099   6.884   5.951   5.035
10500SOL    HW133100   6.946   6.026   5.058
10500SOL    HW233101   6.804   5.987   4.988
10501SOL     OW33102   5.956   6.788   4.173
10501SOL    HW133103   5.946   6.874   4.123
10501SOL    HW233104   5.935   6.712   4.112
10502SOL     OW33105   6.102   6.142   4.611
10502SOL    HW133106   6.112   6.208   4.537
10502SOL    HW233107   6.183   6.144   4.669
10503SOL     OW33108   6.804   0.011   4.173
10503SOL    HW133109   6.859   0.063   4.239
10503SOL    HW233110   6.707   0.029   4.189
10504SOL     OW33111   6.068   6.268   5.407
10504SOL    HW133112   6.104   6.314   5.326
10504SOL    HW233113   6.133   6.198   5.437
10505SOL     OW33114   6.612   5.708   5.514
10505SOL    HW133115   6.678   5.778   5.490
10505SOL    HW233116   6.659   5.620   5.525
10506SOL     OW33117   6.099   5.644   5.494
10506SOL    HW133118   6.051   5.581   5.432
10506SOL    HW233119   6.044   5.727   5.506
10507SOL     OW33120   6.214   6.421   4.778
10507SOL    HW133121   6.210   6.512   4.736
10507SOL    HW233122   6.141   6.413   4.846
10508SOL     OW33123   6.890   6.384   4.707
10508SOL    HW133124   6.793   6.361   4.693
10508SOL    HW233125   6.934   6.312   4.759
10509SOL     OW33126   6.731   6.101   3.996
10509SOL    HW133127   6.783   6.040   4.057
10509SOL    HW233128   6.696   6.179   4.048
10510SOL     OW33129   5.900   5.783   4.957
10510SOL    HW133130   5.877   5.819   5.048
10510SOL    HW233131   5.874   5.686   4.952
10511SOL     OW33132   5.673   6.896   4.997
10511SOL    HW133133   5.701   6.851   5.082
10511SOL    HW233134   5.626   6.981   5.019
10512SOL     OW33135   6.322   6.175   4.782
10512SOL    HW133136   6.389   6.157   4.710
10512SOL    HW233137   6.289   6.269   4.774
10513SOL     OW33138   5.918   5.667   4.380
10513SOL    HW133139   5.870   5.752   4.400
10513SOL    HW233140   5.921   5.610   4.462
10514SOL     OW33141   0.140   6.085   4.042
10514SOL    HW133142   0.099   5.993   4.039
10514SOL    HW233143   0.115   6.130   4.127
10515SOL     OW33144   6.607   6.338   4.667
10515SOL    HW133145   6.585   6.350   4.764
10515SOL    HW233146   6.580   6.246   4.638
10516SOL     OW33147   5.947   6.481   5.543
10516SOL    HW133148   6.009   6.509   5.617
10516SOL    HW233149   5.987   6.404   5.493
10517SOL     OW33150   6.951   6.369   3.687
10517SOL    HW133151   0.010   6.346   3.764
10517SOL    HW233152   0.002   6.423   3.621
10518SOL     OW33153   5.896   6.404   4.614
10518SOL    HW133154   5.973   6.389   4.552
10518SOL    HW233155   5.884   6.323   4.672
10519SOL     OW33156   5.866   6.135   4.734
10519SOL    HW133157   5.826   6.044   4.724
10519SOL    HW233158   5.954   6.138   4.686
10520SOL     OW33159   6.740   5.947   5.435
10520SOL    HW133160   6.672   5.986   5.498
10520SOL    HW233161   6.825   5.999   5.442
10521SOL     OW33162   6.733   5.800   5.205
10521SOL    HW133163   6.727   5.854   5.289
10521SOL    HW233164   6.792   5.847   5.139
10522SOL     OW33165   5.585   6.878   3.891
10522SOL    HW133166   5.489   6.900   3.875
10522SOL    HW233167   5.592   6.788   3.935
10523SOL     OW33168   6.519   6.342   4.930
10523SOL    HW133169   6.568   6.309   5.012
10523SOL    HW233170   6.441   6.283   4.913
10524SOL     OW33171   5.620   6.185   4.862
10524SOL    HW133172   5.704   6.181   4.808
10524SOL    HW233173   5.640   6.162   4.957
10525SOL     OW33174   5.799   6.212   5.442
10525SOL    HW133175   5.898   6.224   5.433
10525SOL    HW233176   5.752   6.274   5.380
10526SOL     OW33177   6.383   6.142   4.103
10526SOL    HW133178   6.392   6.063   4.043
10526SOL    HW233179   6.298   6.191   4.082
10527SOL     OW33180   6.357   5.967   4.959
10527SOL    HW133181   6.295   5.889   4.948
10527SOL    HW233182   6.332   6.038   4.894
10528SOL     OW33183   6.029   6.083   3.903
10528SOL    HW133184   6.090   6.154   3.938
10528SOL    HW233185   5.936   6.119   3.898
10529SOL     OW33186   5.786   6.744   5.209
10529SOL    HW133187   5.766   6.709   5.300
10529SOL    HW233188   5.801   6.667   5.146
10530SOL     OW33189   6.948   6.599   4.875
10530SOL    HW133190   6.931   6.517   4.820
10530SOL    HW233191   6.898   6.676   4.836
10531SOL     OW33192   6.864   6.524   4.038
10531SOL    HW133193   6.825   6.455   4.099
10531SOL    HW233194   6.815   6.523   3.951
10532SOL     OW33195   5.742   6.849   4.740
10532SOL    HW133196   5.724   6.869   4.837
10532SOL    HW233197   5.670   6.790   4.704
10533SOL     OW33198   6.867   6.594   4.402
10533SOL    HW133199   6.943   6.536   4.434
10533SOL    HW233200   6.902   6.664   4.340
10534SOL     OW33201   6.360   6.827   5.117
10534SOL    HW133202   6.339   6.851   5.212
10534SOL    HW233203   6.291   6.867   5.057
10535SOL     OW33204   5.796   5.902   4.444
10535SOL    HW133205   5.714   5.950   4.416
10535SOL    HW233206   5.802   5.900   4.544
10536SOL     OW33207   6.865   0.125   3.727
10536SOL    HW133208   6.881   0.058   3.799
10536SOL    HW233209   6.773   0.114   3.691
10537SOL     OW33210   6.396   6.552   5.109
10537SOL    HW133211   6.441   6.520   5.026
10537SOL    HW233212   6.385   6.652   5.106
10538SOL     OW33213   6.508   6.449   3.932
10538SOL    HW133214   6.580   6.500   3.885
10538SOL    HW233215   6.548   6.396   4.007
10539SOL     OW33216   5.949   6.969   5.174
10539SOL    HW133217   5.927   0.038   5.243
10539SOL    HW233218   5.897   6.886   5.192
10540SOL     OW33219   6.658   6.727   4.528
10540SOL    HW133220   6.580   6.665   4.530
10540SOL    HW233221   6.734   6.683   4.479
10541SOL     OW33222   6.604   5.837   4.660
10541SOL    HW133223   6.592   5.794   4.571
10541SOL    HW233224   6.610   5.767   4.731
10542SOL     OW33225   5.736   6.637   5.461
10542SOL    HW133226   5.651   6.610   5.505
10542SOL    HW233227   5.810   6.575   5.490
10543SOL     OW33228   6.306   5.765   5.224
10543SOL    HW133229   6.387   5.745   5.170
10543SOL    HW233230   6.334   5.793   5.316
10544SOL     OW33231   5.698   5.950   3.661
10544SOL    HW133232   5.605   5.940   3.625
10544SOL    HW233233   5.733   6.041   3.639
10545SOL     OW33234   5.618   5.767   3.949
10545SOL    HW133235   5.591   5.825   3.871
10545SOL    HW233236   5.712   5.737   3.937
10546SOL     OW33237   6.209   6.367   5.187
10546SOL    HW133238   6.269   6.444   5.167
10546SOL    HW233239   6.262   6.282   5.184
10547SOL     OW33240   6.291   6.101   5.455
10547SOL    HW133241   6.347   6.166   5.507
10547SOL    HW233242   6.323   6.008   5.473
10548SOL     OW33243   6.967   6.799   5.318
10548SOL    HW133244   6.962   6.783   5.416
10548SOL    HW233245   0.062   6.791   5.287
10549SOL     OW33246   6.854   5.923   4.175
10549SOL    HW133247   6.921   5.872   4.121
10549SOL    HW233248   6.896   5.953   4.260
10550SOL     OW33249   6.095   6.350   4.426
10550SOL    HW133250   6.170   6.408   4.392
10550SOL    HW233251   6.039   6.321   4.349
10551SOL     OW33252   6.450   6.551   4.552
10551SOL    HW133253   6.492   6.475   4.602
10551SOL    HW233254   6.374   6.588   4.606
10552SOL     OW33255   6.751   6.533   3.790
10552SOL    HW133256   6.677   6.570   3.732
10552SOL    HW233257   6.800   6.462   3.740
10553SOL     OW33258   5.751   6.899   5.528
10553SOL    HW133259   5.757   6.803   5.501
10553SOL    HW233260   5.700   6.906   5.613
10554SOL     OW33261   5.799   6.855   4.386
10554SOL    HW133262   5.828   6.793   4.460
10554SOL    HW233263   5.845   6.829   4.301
10555SOL     OW33264   6.235   6.948   5.367
10555SOL    HW133265   6.141   6.954   5.402
10555SOL    HW233266   6.260   0.034   5.324
10556SOL     OW33267   5.970   6.004   4.243
10556SOL    HW133268   6.005   5.935   4.180
10556SOL    HW233269   5.915   5.959   4.314
10557SOL     OW33270   5.942   6.114   5.014
10557SOL    HW133271   6.006   6.052   5.059
10557SOL    HW233272   5.937   6.091   4.917
10558SOL     OW33273   6.949   5.784   4.823
10558SOL    HW133274   6.925   5.688   4.838
10558SOL    HW233275   6.931   5.836   4.907
10559SOL     OW33276   6.627   5.609   4.817
10559SOL    HW133277   6.582   5.543   4.757
10559SOL    HW233278   6.722   5.582   4.831
10560SOL     OW33279   6.258   6.879   3.984
10560SOL    HW133280   6.250   6.783   4.012
10560SOL    HW233281   6.247   6.938   4.065
10561SOL     OW33282   6.906   5.658   3.843
10561SOL    HW133283   6.967   5.597   3.792
10561SOL    HW233284   6.829   5.606   3.880
10562SOL     OW33285   5.623   6.630   4.025
10562SOL    HW133286   5.722   6.624   4.013
10562SOL    HW233287   5.584   6.538   4.035
10563SOL     OW33288   5.777   6.163   5.716
10563SOL    HW133289   5.683   6.159   5.751
10563SOL    HW233290   5.776   6.197   5.622
10564SOL     OW33291   5.813   5.884   6.584
10564SOL    HW133292   5.849   5.857   6.673
10564SOL    HW233293   5.721   5.846   6.572
10565SOL     OW33294   5.570   6.033   6.225
10565SOL    HW133295   5.485   6.048   6.275
10565SOL    HW233296   5.553   5.967   6.152
10566SOL     OW33297   6.148   6.909   6.734
10566SOL    HW133298   6.066   6.955   6.699
10566SOL    HW233299   6.132   6.879   6.828
10567SOL     OW33300   6.980   0.101   6.168
10567SOL    HW133301   6.950   0.071   6.258
10567SOL    HW233302   0.057   0.046   6.137
10568SOL     OW33303   6.693   6.364   6.232
10568SOL    HW133304   6.746   6.444   6.261
10568SOL    HW233305   6.656   6.318   6.312
10569SOL     OW33306   6.229   6.719   6.544
10569SOL    HW133307   6.205   6.786   6.613
10569SOL    HW233308   6.182   6.741   6.458
10570SOL     OW33309   6.289   6.572   6.203
10570SOL    HW133310   6.363   6.575   6.271
10570SOL    HW233311   6.215   6.632   6.233
10571SOL     OW33312   5.911   0.034   6.662
10571SOL    HW133313   5.823   6.998   6.633
10571SOL    HW233314   5.944   0.101   6.596
10572SOL     OW33315   5.886   6.688   6.488
10572SOL    HW133316   5.891   6.589   6.492
10572SOL    HW233317   5.845   6.724   6.572
10573SOL     OW33318   6.136   6.566   5.734
10573SOL    HW133319   6.168   6.620   5.657
10573SOL    HW233320   6.196   6.580   5.813
10574SOL     OW33321   5.684   6.289   6.156
10574SOL    HW133322   5.651   6.198   6.183
10574SOL    HW233323   5.677   6.351   6.234
10575SOL     OW33324   6.752   6.757   6.971
10575SOL    HW133325   6.788   6.769   6.879
10575SOL    HW233326   6.820   6.787   0.038
10576SOL     OW33327   6.409   5.651   6.094
10576SOL    HW133328   6.455   5.736   6.070
10576SOL    HW233329   6.311   5.668   6.105
10577SOL     OW33330   5.764   6.571   6.823
10577SOL    HW133331   5.848   6.518   6.814
10577SOL    HW233332   5.685   6.511   6.811
10578SOL     OW33333   6.154   6.294   5.857
10578SOL    HW133334   6.156   6.378   5.803
10578SOL    HW233335   6.081   6.300   5.925
10579SOL     OW33336   6.911   5.971   6.463
10579SOL    HW133337   6.823   5.925   6.450
10579SOL    HW233338   6.955   5.935   6.545
10580SOL     OW33339   6.630   6.307   5.976
10580SOL    HW133340   6.654   6.328   6.071
10580SOL    HW233341   6.543   6.258   5.973
10581SOL     OW33342   5.671   6.475   6.364
10581SOL    HW133343   5.758   6.447   6.404
10581SOL    HW233344   5.641   6.561   6.407
10582SOL     OW33345   6.433   5.925   5.804
10582SOL    HW133346   6.485   5.966   5.730
10582SOL    HW233347   6.373   5.853   5.768
10583SOL     OW33348   6.939   6.767   6.102
10583SOL    HW133349   6.970   6.727   6.016
10583SOL    HW233350   6.865   6.831   6.083
10584SOL     OW33351   6.119   5.694   6.561
10584SOL    HW133352   6.131   5.709   6.660
10584SOL    HW233353   6.122   5.782   6.514
10585SOL     OW33354   5.910   6.568   5.915
10585SOL    HW133355   5.978   6.574   5.841
10585SOL    HW233356   5.915   6.477   5.957
10586SOL     OW33357   5.942   6.294   6.046
10586SOL    HW133358   5.964   6.197   6.055
10586SOL    HW233359   5.848   6.310   6.078
10587SOL     OW33360   6.255   5.706   5.709
10587SOL    HW133361   6.296   5.622   5.746
10587SOL    HW233362   6.191   5.681   5.636
10588SOL     OW33363   6.569   6.186   6.435
10588SOL    HW133364   6.542   6.144   6.349
10588SOL    HW233365   6.585   6.114   6.503
10589SOL     OW33366   6.135   5.682   6.098
10589SOL    HW133367   6.054   5.669   6.156
10589SOL    HW233368   6.120   5.759   6.036
10590SOL     OW33369   6.984   6.706   5.587
10590SOL    HW133370   0.023   6.715   5.679
10590SOL    HW233371   6.890   6.673   5.595
10591SOL     OW33372   5.864   5.659   5.738
10591SOL    HW133373   5.904   5.734   5.685
10591SOL    HW233374   5.934   5.614   5.792
10592SOL     OW33375   6.577   5.864   6.033
10592SOL    HW133376   6.536   5.891   5.945
10592SOL    HW233377   6.676   5.878   6.029
10593SOL     OW33378   6.887   0.040   6.413
10593SOL    HW133379   6.796   0.003   6.394
10593SOL    HW233380   6.878   0.134   6.446
10594SOL     OW33381   6.083   6.730   6.301
10594SOL    HW133382   6.010   6.715   6.367
10594SOL    HW233383   6.044   6.764   6.215
10595SOL     OW33384   6.587   6.069   5.627
10595SOL    HW133385   6.544   6.157   5.607
10595SOL    HW233386   6.654   6.081   5.700
10596SOL     OW33387   6.135   5.744   6.828
10596SOL    HW133388   6.168   5.686   6.902
10596SOL    HW233389   6.044   5.778   6.850
10597SOL     OW33390   6.493   6.074   6.199
10597SOL    HW133391   6.438   6.123   6.131
10597SOL    HW233392   6.527   5.989   6.160
10598SOL     OW33393   6.602   5.630   6.285
10598SOL    HW133394   6.527   5.641   6.220
10598SOL    HW233395   6.578   5.562   6.354
10599SOL     OW33396   6.103   5.858   5.894
10599SOL    HW133397   6.158   5.801   5.833
10599SOL    HW233398   6.072   5.939   5.845
10600SOL     OW33399   6.520   6.900   6.928
10600SOL    HW133400   6.441   6.852   6.966
10600SOL    HW233401   6.604   6.848   6.948
10601SOL     OW33402   6.772   6.807   6.687
10601SOL    HW133403   6.719   6.888   6.711
10601SOL    HW233404   6.748   6.778   6.594
10602SOL     OW33405   6.322   6.611   5.926
10602SOL    HW133406   6.318   6.592   6.025
10602SOL    HW233407   6.400   6.563   5.887
10603SOL     OW33408   6.012   6.437   6.827
10603SOL    HW133409   6.087   6.478   6.878
10603SOL    HW233410   5.993   6.346   6.863
10604SOL     OW33411   5.934   6.798   6.073
10604SOL    HW133412   5.923   6.881   6.018
10604SOL    HW233413   5.925   6.718   6.014
10605SOL     OW33414   6.107   6.154   6.449
10605SOL    HW133415   6.116   6.212   6.368
10605SOL    HW233416   6.191   6.161   6.504
10606SOL     OW33417   6.764   6.973   6.034
10606SOL    HW133418   6.821   0.043   6.078
10606SOL    HW233419   6.668   6.993   6.049
10607SOL     OW33420   6.178   6.452   6.602
10607SOL    HW133421   6.200   6.548   6.584
10607SOL    HW233422   6.114   6.447   6.679
10608SOL     OW33423   6.854   6.396   6.627
10608SOL    HW133424   6.757   6.407   6.606
10608SOL    HW233425   6.894   6.325   6.568
10609SOL     OW33426   6.749   6.100   5.841
10609SOL    HW133427   6.795   6.037   5.904
10609SOL    HW233428   6.714   6.178   5.893
10610SOL     OW33429   5.866   5.812   6.853
10610SOL    HW133430   5.801   5.856   6.915
10610SOL    HW233431   5.845   5.715   6.847
10611SOL     OW33432   5.609   6.917   6.895
10611SOL    HW133433   5.683   6.868   6.940
10611SOL    HW233434   5.556   6.969   6.963
10612SOL     OW33435   6.333   6.223   6.587
10612SOL    HW133436   6.399   6.229   6.513
10612SOL    HW233437   6.285   6.311   6.596
10613SOL     OW33438   5.892   5.643   6.230
10613SOL    HW133439   5.855   5.735   6.244
10613SOL    HW233440   5.896   5.595   6.318
10614SOL     OW33441   0.168   6.061   5.904
10614SOL    HW133442   0.121   5.972   5.901
10614SOL    HW233443   0.142   6.109   5.988
10615SOL     OW33444   6.584   6.417   6.585
10615SOL    HW133445   6.537   6.417   6.673
10615SOL    HW233446   6.573   6.328   6.541
10616SOL     OW33447   6.955   6.372   5.587
10616SOL    HW133448   0.026   6.330   5.644
10616SOL    HW233449   6.998   6.432   5.519
10617SOL     OW33450   5.908   6.410   6.489
10617SOL    HW133451   6.007   6.413   6.476
10617SOL    HW233452   5.883   6.324   6.533
10618SOL     OW33453   5.887   6.143   6.597
10618SOL    HW133454   5.853   6.049   6.589
10618SOL    HW233455   5.970   6.152   6.543
10619SOL     OW33456   5.590   6.891   5.750
10619SOL    HW133457   5.494   6.909   5.731
10619SOL    HW233458   5.599   6.803   5.796
10620SOL     OW33459   6.466   6.417   6.835
10620SOL    HW133460   6.539   6.437   6.899
10620SOL    HW233461   6.426   6.328   6.858
10621SOL     OW33462   5.635   6.152   6.721
10621SOL    HW133463   5.711   6.161   6.658
10621SOL    HW233464   5.667   6.163   6.815
10622SOL     OW33465   6.391   6.168   5.948
10622SOL    HW133466   6.397   6.081   5.899
10622SOL    HW233467   6.308   6.216   5.921
10623SOL     OW33468   6.028   6.072   5.745
10623SOL    HW133469   6.088   6.147   5.773
10623SOL    HW233470   5.933   6.104   5.742
10624SOL     OW33471   5.795   6.759   0.019
10624SOL    HW133472   5.753   6.721   0.101
10624SOL    HW233473   5.789   6.692   6.945
10625SOL     OW33474   6.953   6.608   6.753
10625SOL    HW133475   6.918   6.530   6.700
10625SOL    HW233476   6.901   6.690   6.728
10626SOL     OW33477   6.895   6.457   5.865
10626SOL    HW133478   6.828   6.407   5.920
10626SOL    HW233479   6.891   6.425   5.770
10627SOL     OW33480   5.658   6.929   6.623
10627SOL    HW133481   5.634   6.921   6.719
10627SOL    HW233482   5.627   6.848   6.574
10628SOL     OW33483   6.864   6.580   6.291
10628SOL    HW133484   6.943   6.524   6.315
10628SOL    HW233485   6.891   6.646   6.221
10629SOL     OW33486   6.307   6.790   0.060
10629SOL    HW133487   6.333   6.816   0.153
10629SOL    HW233488   6.213   6.819   0.043
10630SOL     OW33489   5.812   5.902   6.294
10630SOL    HW133490   5.729   5.952   6.272
10630SOL    HW233491   5.826   5.903   6.393
10631SOL     OW33492   6.871   0.108   5.598
10631SOL    HW133493   6.883   0.041   5.671
10631SOL    HW233494   6.778   0.103   5.562
10632SOL     OW33495   6.244   6.546   6.940
10632SOL    HW133496   6.320   6.504   6.891
10632SOL    HW233497   6.271   6.638   6.970
10633SOL     OW33498   6.532   6.482   5.790
10633SOL    HW133499   6.604   6.534   5.743
10633SOL    HW233500   6.572   6.421   5.858
10634SOL     OW33501   6.055   6.870   7.000
10634SOL    HW133502   6.060   6.966   0.029
10634SOL    HW233503   5.962   6.837   0.010
10635SOL     OW33504   6.687   6.742   6.426
10635SOL    HW133505   6.599   6.695   6.426
10635SOL    HW233506   6.756   6.685   6.381
10636SOL     OW33507   6.690   5.817   6.471
10636SOL    HW133508   6.660   5.768   6.389
10636SOL    HW233509   6.673   5.760   6.552
10637SOL     OW33510   5.720   5.953   5.456
10637SOL    HW133511   5.620   5.942   5.452
10637SOL    HW233512   5.743   6.050   5.455
10638SOL     OW33513   5.621   5.757   5.818
10638SOL    HW133514   5.589   5.822   5.749
10638SOL    HW233515   5.714   5.728   5.795
10639SOL     OW33516   6.859   5.922   6.024
10639SOL    HW133517   6.923   5.865   5.973
10639SOL    HW233518   6.905   5.959   6.105
10640SOL     OW33519   6.135   6.340   6.250
10640SOL    HW133520   6.196   6.416   6.229
10640SOL    HW233521   6.066   6.331   6.177
10641SOL     OW33522   6.453   6.604   6.432
10641SOL    HW133523   6.495   6.535   6.489
10641SOL    HW233524   6.377   6.647   6.481
10642SOL     OW33525   6.744   6.576   5.617
10642SOL    HW133526   6.665   6.609   5.565
10642SOL    HW233527   6.777   6.491   5.578
10643SOL     OW33528   5.793   6.877   6.292
10643SOL    HW133529   5.809   6.812   6.366
10643SOL    HW233530   5.834   6.842   6.208
10644SOL     OW33531   5.975   6.028   6.090
10644SOL    HW133532   6.019   5.959   6.032
10644SOL    HW233533   5.927   5.982   6.165
10645SOL     OW33534   5.914   6.171   6.875
10645SOL    HW133535   5.943   6.082   6.908
10645SOL    HW233536   5.911   6.170   6.775
10646SOL     OW33537   6.636   5.613   6.654
10646SOL    HW133538   6.604   5.541   6.593
10646SOL    HW233539   6.627   5.584   6.749
10647SOL     OW33540   6.314   6.872   5.830
10647SOL    HW133541   6.313   6.778   5.865
10647SOL    HW233542   6.343   6.933   5.903
10648SOL     OW33543   6.890   5.680   5.686
10648SOL    HW133544   6.879   5.626   5.602
10648SOL    HW233545   6.826   5.647   5.755
10649SOL     OW33546   5.633   6.630   5.888
10649SOL    HW133547   5.733   6.621   5.891
10649SOL    HW233548   5.592   6.539   5.891
   7.00000   7.00000   7.00000
