CNT in water
 1640
    1C        C    1   2.240   4.533   3.298
    1C        C    2   2.114   4.521   3.223
    1C        C    3   1.992   4.521   3.300
    1C        C    4   2.745   4.533   3.300
    1C        C    5   2.619   4.517   3.229
    1C        C    6   2.493   4.532   3.300
    1C        C    7   2.368   4.462   3.093
    1C        C    8   2.367   4.517   3.228
    1C        C    9   2.243   4.435   3.025
    1C        C   10   2.115   4.476   3.084
    1C        C   11   2.001   4.401   2.874
    1C        C   12   2.001   4.479   2.992
    1C        C   13   3.249   4.534   3.300
    1C        C   14   3.123   4.519   3.229
    1C        C   15   2.997   4.534   3.300
    1C        C   16   2.872   4.462   3.094
    1C        C   17   2.871   4.517   3.229
    1C        C   18   2.746   4.429   3.029
    1C        C   19   2.620   4.461   3.094
    1C        C   20   2.495   4.354   2.904
    1C        C   21   2.494   4.431   3.028
    1C        C   22   2.369   4.312   2.844
    1C        C   23   2.243   4.355   2.902
    1C        C   24   2.115   4.214   2.742
    1C        C   25   2.118   4.329   2.831
    1C        C   26   1.994   4.139   2.717
    1C        C   27   3.752   4.534   3.300
    1C        C   28   3.627   4.519   3.229
    1C        C   29   3.501   4.534   3.300
    1C        C   30   3.375   4.463   3.094
    1C        C   31   3.375   4.518   3.229
    1C        C   32   3.249   4.431   3.028
    1C        C   33   3.123   4.463   3.094
    1C        C   34   2.998   4.355   2.904
    1C        C   35   2.998   4.432   3.028
    1C        C   36   2.872   4.312   2.845
    1C        C   37   2.746   4.352   2.905
    1C        C   38   2.620   4.213   2.737
    1C        C   39   2.620   4.312   2.844
    1C        C   40   2.494   4.160   2.688
    1C        C   41   2.368   4.213   2.738
    1C        C   42   2.240   4.042   2.601
    1C        C   43   2.241   4.161   2.687
    1C        C   44   2.113   3.974   2.571
    1C        C   45   1.994   4.025   2.635
    1C        C   46   4.256   4.532   3.300
    1C        C   47   4.130   4.519   3.228
    1C        C   48   4.004   4.534   3.300
    1C        C   49   3.878   4.463   3.094
    1C        C   50   3.878   4.518   3.229
    1C        C   51   3.752   4.431   3.028
    1C        C   52   3.627   4.463   3.094
    1C        C   53   3.501   4.355   2.904
    1C        C   54   3.501   4.433   3.027
    1C        C   55   3.375   4.312   2.845
    1C        C   56   3.249   4.353   2.905
    1C        C   57   3.124   4.213   2.738
    1C        C   58   3.124   4.313   2.844
    1C        C   59   2.998   4.159   2.689
    1C        C   60   2.872   4.212   2.739
    1C        C   61   2.746   4.040   2.604
    1C        C   62   2.746   4.160   2.687
    1C        C   63   2.620   3.977   2.569
    1C        C   64   2.494   4.040   2.606
    1C        C   65   2.368   3.842   2.515
    1C        C   66   2.367   3.978   2.566
    1C        C   67   2.242   3.773   2.493
    1C        C   68   2.114   3.842   2.508
    1C        C   69   1.999   3.639   2.419
    1C        C   70   2.000   3.778   2.444
    1C        C   71   4.759   4.536   3.299
    1C        C   72   4.633   4.517   3.228
    1C        C   73   4.508   4.530   3.301
    1C        C   74   4.382   4.462   3.094
    1C        C   75   4.382   4.516   3.229
    1C        C   76   4.256   4.431   3.028
    1C        C   77   4.130   4.463   3.094
    1C        C   78   4.004   4.355   2.904
    1C        C   79   4.004   4.433   3.027
    1C        C   80   3.878   4.312   2.845
    1C        C   81   3.753   4.353   2.905
    1C        C   82   3.627   4.213   2.738
    1C        C   83   3.627   4.313   2.844
    1C        C   84   3.501   4.158   2.689
    1C        C   85   3.375   4.212   2.739
    1C        C   86   3.249   4.039   2.606
    1C        C   87   3.249   4.160   2.688
    1C        C   88   3.124   3.976   2.570
    1C        C   89   2.998   4.039   2.607
    1C        C   90   2.872   3.842   2.513
    1C        C   91   2.872   3.977   2.568
    1C        C   92   2.746   3.772   2.492
    1C        C   93   2.620   3.841   2.516
    1C        C   94   2.494   3.629   2.467
    1C        C   95   2.494   3.772   2.492
    1C        C   96   2.368   3.556   2.459
    1C        C   97   2.242   3.628   2.468
    1C        C   98   2.114   3.414   2.465
    1C        C   99   2.117   3.559   2.440
    1C        C  100   1.993   3.345   2.502
    1C        C  101   5.004   4.573   3.299
    1C        C  102   4.888   4.463   3.096
    1C        C  103   4.886   4.532   3.225
    1C        C  104   4.761   4.431   3.029
    1C        C  105   4.634   4.461   3.094
    1C        C  106   4.508   4.354   2.904
    1C        C  107   4.508   4.432   3.027
    1C        C  108   4.382   4.311   2.846
    1C        C  109   4.256   4.353   2.905
    1C        C  110   4.130   4.212   2.739
    1C        C  111   4.130   4.312   2.844
    1C        C  112   4.004   4.158   2.690
    1C        C  113   3.878   4.211   2.740
    1C        C  114   3.753   4.039   2.606
    1C        C  115   3.753   4.159   2.688
    1C        C  116   3.627   3.975   2.570
    1C        C  117   3.501   4.038   2.608
    1C        C  118   3.375   3.841   2.513
    1C        C  119   3.375   3.976   2.568
    1C        C  120   3.249   3.772   2.491
    1C        C  121   3.123   3.841   2.515
    1C        C  122   2.997   3.629   2.464
    1C        C  123   2.997   3.772   2.490
    1C        C  124   2.871   3.556   2.458
    1C        C  125   2.746   3.629   2.468
    1C        C  126   2.619   3.411   2.461
    1C        C  127   2.620   3.556   2.458
    1C        C  128   2.493   3.338   2.468
    1C        C  129   2.367   3.411   2.463
    1C        C  130   2.240   3.195   2.497
    1C        C  131   2.240   3.339   2.467
    1C        C  132   2.112   3.127   2.527
    1C        C  133   1.993   3.208   2.531
    1C        C  134   5.009   4.332   2.922
    1C        C  135   5.008   4.403   3.043
    1C        C  136   4.888   4.303   2.849
    1C        C  137   4.761   4.352   2.904
    1C        C  138   4.634   4.210   2.740
    1C        C  139   4.634   4.311   2.845
    1C        C  140   4.508   4.155   2.692
    1C        C  141   4.382   4.209   2.741
    1C        C  142   4.256   4.037   2.607
    1C        C  143   4.256   4.158   2.690
    1C        C  144   4.130   3.974   2.571
    1C        C  145   4.004   4.037   2.608
    1C        C  146   3.878   3.840   2.514
    1C        C  147   3.878   3.975   2.569
    1C        C  148   3.752   3.771   2.492
    1C        C  149   3.627   3.840   2.516
    1C        C  150   3.501   3.628   2.464
    1C        C  151   3.501   3.772   2.490
    1C        C  152   3.375   3.556   2.457
    1C        C  153   3.249   3.628   2.466
    1C        C  154   3.123   3.410   2.460
    1C        C  155   3.123   3.556   2.455
    1C        C  156   2.997   3.338   2.468
    1C        C  157   2.871   3.411   2.462
    1C        C  158   2.745   3.196   2.500
    1C        C  159   2.745   3.338   2.467
    1C        C  160   2.619   3.127   2.523
    1C        C  161   2.493   3.197   2.502
    1C        C  162   2.367   2.997   2.587
    1C        C  163   2.366   3.126   2.521
    1C        C  164   2.241   2.934   2.624
    1C        C  165   2.113   2.992   2.583
    1C        C  166   1.998   2.790   2.676
    1C        C  167   1.999   2.901   2.588
    1C        C  168   5.005   4.177   2.659
    1C        C  169   4.887   4.215   2.732
    1C        C  170   4.759   4.039   2.604
    1C        C  171   4.759   4.159   2.687
    1C        C  172   4.634   3.974   2.570
    1C        C  173   4.508   4.035   2.610
    1C        C  174   4.382   3.840   2.514
    1C        C  175   4.382   3.974   2.570
    1C        C  176   4.256   3.770   2.492
    1C        C  177   4.130   3.839   2.516
    1C        C  178   4.004   3.628   2.464
    1C        C  179   4.004   3.771   2.490
    1C        C  180   3.878   3.555   2.457
    1C        C  181   3.752   3.627   2.466
    1C        C  182   3.626   3.410   2.460
    1C        C  183   3.626   3.555   2.455
    1C        C  184   3.500   3.337   2.468
    1C        C  185   3.375   3.410   2.462
    1C        C  186   3.249   3.195   2.501
    1C        C  187   3.249   3.337   2.466
    1C        C  188   3.123   3.126   2.524
    1C        C  189   2.997   3.196   2.503
    1C        C  190   2.871   2.995   2.587
    1C        C  191   2.871   3.126   2.522
    1C        C  192   2.745   2.933   2.625
    1C        C  193   2.619   2.997   2.589
    1C        C  194   2.493   2.819   2.714
    1C        C  195   2.493   2.934   2.624
    1C        C  196   2.367   2.765   2.763
    1C        C  197   2.241   2.819   2.715
    1C        C  198   2.113   2.676   2.874
    1C        C  199   2.116   2.753   2.749
    1C        C  200   1.992   2.660   2.952
    1C        C  201   5.004   4.067   2.571
    1C        C  202   4.888   3.842   2.515
    1C        C  203   4.886   3.983   2.553
    1C        C  204   4.761   3.771   2.492
    1C        C  205   4.634   3.839   2.516
    1C        C  206   4.508   3.627   2.465
    1C        C  207   4.508   3.770   2.491
    1C        C  208   4.382   3.555   2.458
    1C        C  209   4.256   3.627   2.466
    1C        C  210   4.130   3.409   2.461
    1C        C  211   4.130   3.555   2.456
    1C        C  212   4.004   3.337   2.470
    1C        C  213   3.878   3.409   2.463
    1C        C  214   3.752   3.195   2.502
    1C        C  215   3.752   3.336   2.467
    1C        C  216   3.626   3.126   2.525
    1C        C  217   3.500   3.196   2.504
    1C        C  218   3.374   2.994   2.587
    1C        C  219   3.374   3.125   2.523
    1C        C  220   3.248   2.932   2.624
    1C        C  221   3.123   2.996   2.589
    1C        C  222   2.996   2.816   2.712
    1C        C  223   2.997   2.931   2.623
    1C        C  224   2.870   2.763   2.762
    1C        C  225   2.745   2.819   2.715
    1C        C  226   2.618   2.669   2.873
    1C        C  227   2.619   2.763   2.762
    1C        C  228   2.492   2.626   2.932
    1C        C  229   2.366   2.671   2.874
    1C        C  230   2.238   2.554   3.059
    1C        C  231   2.239   2.627   2.932
    1C        C  232   2.111   2.532   3.130
    1C        C  233   1.992   2.591   3.074
    1C        C  234   5.009   3.625   2.497
    1C        C  235   5.008   3.762   2.525
    1C        C  236   4.888   3.552   2.467
    1C        C  237   4.761   3.626   2.466
    1C        C  238   4.633   3.409   2.464
    1C        C  239   4.634   3.554   2.457
    1C        C  240   4.507   3.337   2.473
    1C        C  241   4.381   3.409   2.465
    1C        C  242   4.255   3.195   2.504
    1C        C  243   4.256   3.336   2.470
    1C        C  244   4.129   3.125   2.526
    1C        C  245   4.004   3.195   2.505
    1C        C  246   3.878   2.994   2.587
    1C        C  247   3.878   3.125   2.524
    1C        C  248   3.752   2.931   2.624
    1C        C  249   3.626   2.995   2.589
    1C        C  250   3.500   2.815   2.712
    1C        C  251   3.500   2.930   2.623
    1C        C  252   3.374   2.761   2.761
    1C        C  253   3.248   2.817   2.714
    1C        C  254   3.122   2.666   2.871
    1C        C  255   3.122   2.761   2.760
    1C        C  256   2.996   2.624   2.931
    1C        C  257   2.870   2.669   2.873
    1C        C  258   2.744   2.554   3.059
    1C        C  259   2.744   2.624   2.931
    1C        C  260   2.618   2.525   3.126
    1C        C  261   2.492   2.557   3.060
    1C        C  262   2.366   2.486   3.266
    1C        C  263   2.365   2.524   3.125
    1C        C  264   2.240   2.471   3.338
    1C        C  265   2.112   2.482   3.268
    1C        C  266   1.998   2.409   3.478
    1C        C  267   1.999   2.422   3.337
    1C        C  268   5.004   3.326   2.432
    1C        C  269   4.886   3.406   2.454
    1C        C  270   4.759   3.193   2.501
    1C        C  271   4.759   3.336   2.467
    1C        C  272   4.633   3.125   2.527
    1C        C  273   4.507   3.195   2.508
    1C        C  274   4.381   2.993   2.588
    1C        C  275   4.381   3.125   2.526
    1C        C  276   4.255   2.930   2.624
    1C        C  277   4.129   2.994   2.589
    1C        C  278   4.003   2.814   2.712
    1C        C  279   4.003   2.929   2.623
    1C        C  280   3.877   2.761   2.762
    1C        C  281   3.751   2.816   2.714
    1C        C  282   3.625   2.666   2.872
    1C        C  283   3.626   2.760   2.760
    1C        C  284   3.500   2.624   2.931
    1C        C  285   3.374   2.668   2.873
    1C        C  286   3.248   2.554   3.059
    1C        C  287   3.248   2.622   2.930
    1C        C  288   3.122   2.525   3.126
    1C        C  289   2.996   2.556   3.060
    1C        C  290   2.870   2.483   3.265
    1C        C  291   2.870   2.523   3.125
    1C        C  292   2.744   2.470   3.337
    1C        C  293   2.618   2.486   3.266
    1C        C  294   2.493   2.459   3.482
    1C        C  295   2.492   2.469   3.337
    1C        C  296   2.367   2.461   3.555
    1C        C  297   2.241   2.460   3.484
    1C        C  298   2.114   2.459   3.702
    1C        C  299   2.115   2.435   3.557
    1C        C  300   1.996   2.453   3.784
    1C        C  301   5.003   3.187   2.455
    1C        C  302   4.887   2.994   2.586
    1C        C  303   4.885   3.118   2.508
    1C        C  304   4.760   2.930   2.624
    1C        C  305   4.634   2.994   2.590
    1C        C  306   4.507   2.815   2.714
    1C        C  307   4.508   2.929   2.624
    1C        C  308   4.381   2.761   2.763
    1C        C  309   4.255   2.816   2.714
    1C        C  310   4.129   2.666   2.873
    1C        C  311   4.129   2.759   2.761
    1C        C  312   4.003   2.624   2.932
    1C        C  313   3.877   2.668   2.874
    1C        C  314   3.751   2.554   3.060
    1C        C  315   3.751   2.622   2.931
    1C        C  316   3.625   2.525   3.127
    1C        C  317   3.499   2.556   3.060
    1C        C  318   3.374   2.483   3.266
    1C        C  319   3.374   2.524   3.126
    1C        C  320   3.248   2.469   3.337
    1C        C  321   3.122   2.486   3.266
    1C        C  322   2.996   2.458   3.482
    1C        C  323   2.996   2.468   3.337
    1C        C  324   2.870   2.459   3.555
    1C        C  325   2.744   2.460   3.482
    1C        C  326   2.619   2.479   3.699
    1C        C  327   2.619   2.458   3.555
    1C        C  328   2.493   2.496   3.770
    1C        C  329   2.367   2.482   3.699
    1C        C  330   2.241   2.536   3.910
    1C        C  331   2.241   2.487   3.771
    1C        C  332   2.114   2.552   3.981
    1C        C  333   1.997   2.491   3.919
    1C        C  334   5.009   2.835   2.735
    1C        C  335   5.007   2.947   2.651
    1C        C  336   4.887   2.765   2.771
    1C        C  337   4.760   2.815   2.715
    1C        C  338   4.633   2.668   2.875
    1C        C  339   4.634   2.760   2.762
    1C        C  340   4.507   2.626   2.935
    1C        C  341   4.381   2.669   2.876
    1C        C  342   4.255   2.554   3.061
    1C        C  343   4.255   2.624   2.933
    1C        C  344   4.129   2.525   3.127
    1C        C  345   4.003   2.556   3.061
    1C        C  346   3.877   2.483   3.266
    1C        C  347   3.877   2.523   3.126
    1C        C  348   3.751   2.469   3.338
    1C        C  349   3.625   2.485   3.267
    1C        C  350   3.499   2.457   3.483
    1C        C  351   3.499   2.467   3.337
    1C        C  352   3.373   2.458   3.556
    1C        C  353   3.248   2.460   3.483
    1C        C  354   3.122   2.477   3.700
    1C        C  355   3.122   2.457   3.556
    1C        C  356   2.996   2.493   3.771
    1C        C  357   2.870   2.480   3.699
    1C        C  358   2.744   2.541   3.909
    1C        C  359   2.744   2.493   3.771
    1C        C  360   2.618   2.571   3.975
    1C        C  361   2.492   2.544   3.907
    1C        C  362   2.365   2.647   4.098
    1C        C  363   2.367   2.568   3.976
    1C        C  364   2.238   2.689   4.156
    1C        C  365   2.112   2.644   4.095
    1C        C  366   1.990   2.810   4.235
    1C        C  367   1.992   2.715   4.132
    1C        C  368   5.004   2.591   2.917
    1C        C  369   4.886   2.659   2.872
    1C        C  370   4.758   2.550   3.060
    1C        C  371   4.758   2.621   2.932
    1C        C  372   4.632   2.523   3.128
    1C        C  373   4.506   2.557   3.063
    1C        C  374   4.381   2.483   3.267
    1C        C  375   4.381   2.524   3.128
    1C        C  376   4.254   2.468   3.339
    1C        C  377   4.129   2.484   3.267
    1C        C  378   4.002   2.456   3.483
    1C        C  379   4.003   2.466   3.338
    1C        C  380   3.877   2.457   3.556
    1C        C  381   3.751   2.459   3.483
    1C        C  382   3.625   2.476   3.701
    1C        C  383   3.625   2.456   3.556
    1C        C  384   3.499   2.492   3.772
    1C        C  385   3.373   2.479   3.700
    1C        C  386   3.247   2.540   3.910
    1C        C  387   3.247   2.491   3.772
    1C        C  388   3.121   2.570   3.976
    1C        C  389   2.996   2.542   3.908
    1C        C  390   2.870   2.645   4.101
    1C        C  391   2.870   2.569   3.976
    1C        C  392   2.743   2.689   4.159
    1C        C  393   2.618   2.648   4.099
    1C        C  394   2.491   2.791   4.263
    1C        C  395   2.491   2.689   4.159
    1C        C  396   2.364   2.846   4.311
    1C        C  397   2.238   2.792   4.261
    1C        C  398   2.110   2.968   4.393
    1C        C  399   2.110   2.854   4.301
    1C        C  400   1.990   3.030   4.443
    1C        C  401   5.003   2.514   3.036
    1C        C  402   4.887   2.482   3.265
    1C        C  403   4.885   2.506   3.120
    1C        C  404   4.759   2.467   3.338
    1C        C  405   4.633   2.484   3.268
    1C        C  406   4.507   2.456   3.484
    1C        C  407   4.507   2.466   3.339
    1C        C  408   4.380   2.458   3.557
    1C        C  409   4.254   2.458   3.484
    1C        C  410   4.128   2.476   3.701
    1C        C  411   4.128   2.455   3.557
    1C        C  412   4.002   2.492   3.772
    1C        C  413   3.877   2.478   3.701
    1C        C  414   3.751   2.539   3.910
    1C        C  415   3.751   2.490   3.773
    1C        C  416   3.625   2.570   3.976
    1C        C  417   3.499   2.542   3.909
    1C        C  418   3.373   2.645   4.101
    1C        C  419   3.373   2.568   3.977
    1C        C  420   3.247   2.688   4.160
    1C        C  421   3.121   2.647   4.100
    1C        C  422   2.995   2.788   4.266
    1C        C  423   2.995   2.687   4.161
    1C        C  424   2.869   2.843   4.314
    1C        C  425   2.743   2.790   4.264
    1C        C  426   2.617   2.965   4.394
    1C        C  427   2.617   2.844   4.313
    1C        C  428   2.491   3.029   4.429
    1C        C  429   2.365   2.967   4.392
    1C        C  430   2.239   3.163   4.491
    1C        C  431   2.239   3.029   4.430
    1C        C  432   2.113   3.232   4.522
    1C        C  433   1.991   3.157   4.501
    1C        C  434   5.008   2.487   3.483
    1C        C  435   5.006   2.501   3.343
    1C        C  436   4.887   2.466   3.559
    1C        C  437   4.759   2.457   3.485
    1C        C  438   4.632   2.477   3.701
    1C        C  439   4.633   2.456   3.557
    1C        C  440   4.506   2.495   3.772
    1C        C  441   4.380   2.480   3.700
    1C        C  442   4.254   2.540   3.910
    1C        C  443   4.254   2.491   3.773
    1C        C  444   4.128   2.570   3.977
    1C        C  445   4.002   2.541   3.909
    1C        C  446   3.876   2.644   4.101
    1C        C  447   3.876   2.568   3.977
    1C        C  448   3.751   2.688   4.160
    1C        C  449   3.625   2.647   4.100
    1C        C  450   3.499   2.788   4.266
    1C        C  451   3.499   2.687   4.161
    1C        C  452   3.373   2.843   4.314
    1C        C  453   3.247   2.790   4.265
    1C        C  454   3.121   2.963   4.397
    1C        C  455   3.121   2.842   4.316
    1C        C  456   2.995   3.027   4.433
    1C        C  457   2.869   2.964   4.395
    1C        C  458   2.744   3.162   4.487
    1C        C  459   2.743   3.027   4.432
    1C        C  460   2.618   3.232   4.508
    1C        C  461   2.492   3.164   4.484
    1C        C  462   2.366   3.376   4.534
    1C        C  463   2.366   3.232   4.511
    1C        C  464   2.241   3.448   4.544
    1C        C  465   2.113   3.376   4.547
    1C        C  466   1.998   3.592   4.590
    1C        C  467   1.996   3.451   4.584
    1C        C  468   5.003   2.456   3.787
    1C        C  469   4.885   2.469   3.705
    1C        C  470   4.758   2.537   3.912
    1C        C  471   4.758   2.488   3.774
    1C        C  472   4.632   2.569   3.977
    1C        C  473   4.506   2.543   3.909
    1C        C  474   4.380   2.645   4.102
    1C        C  475   4.380   2.569   3.977
    1C        C  476   4.254   2.687   4.161
    1C        C  477   4.128   2.646   4.101
    1C        C  478   4.002   2.788   4.266
    1C        C  479   4.002   2.686   4.161
    1C        C  480   3.876   2.843   4.314
    1C        C  481   3.751   2.789   4.265
    1C        C  482   3.625   2.962   4.398
    1C        C  483   3.625   2.842   4.316
    1C        C  484   3.499   3.026   4.433
    1C        C  485   3.373   2.964   4.396
    1C        C  486   3.247   3.161   4.489
    1C        C  487   3.247   3.026   4.435
    1C        C  488   3.122   3.231   4.511
    1C        C  489   2.996   3.162   4.487
    1C        C  490   2.870   3.374   4.537
    1C        C  491   2.870   3.231   4.511
    1C        C  492   2.744   3.447   4.543
    1C        C  493   2.618   3.375   4.533
    1C        C  494   2.493   3.594   4.541
    1C        C  495   2.493   3.448   4.543
    1C        C  496   2.367   3.667   4.535
    1C        C  497   2.241   3.594   4.542
    1C        C  498   2.113   3.804   4.496
    1C        C  499   2.115   3.669   4.553
    1C        C  500   1.994   3.863   4.442
    1C        C  501   5.002   2.494   3.923
    1C        C  502   4.886   2.643   4.100
    1C        C  503   4.884   2.552   3.985
    1C        C  504   4.759   2.687   4.161
    1C        C  505   4.632   2.646   4.101
    1C        C  506   4.506   2.787   4.267
    1C        C  507   4.506   2.687   4.162
    1C        C  508   4.380   2.842   4.314
    1C        C  509   4.254   2.789   4.265
    1C        C  510   4.128   2.963   4.397
    1C        C  511   4.128   2.841   4.316
    1C        C  512   4.002   3.026   4.433
    1C        C  513   3.877   2.964   4.396
    1C        C  514   3.751   3.160   4.490
    1C        C  515   3.751   3.025   4.435
    1C        C  516   3.625   3.230   4.512
    1C        C  517   3.499   3.161   4.488
    1C        C  518   3.374   3.374   4.538
    1C        C  519   3.373   3.230   4.513
    1C        C  520   3.248   3.446   4.545
    1C        C  521   3.122   3.374   4.536
    1C        C  522   2.997   3.593   4.542
    1C        C  523   2.996   3.447   4.546
    1C        C  524   2.871   3.665   4.533
    1C        C  525   2.745   3.593   4.539
    1C        C  526   2.619   3.808   4.501
    1C        C  527   2.619   3.666   4.535
    1C        C  528   2.493   3.877   4.478
    1C        C  529   2.367   3.808   4.500
    1C        C  530   2.240   4.011   4.417
    1C        C  531   2.240   3.877   4.478
    1C        C  532   2.113   4.070   4.372
    1C        C  533   1.993   3.991   4.385
    1C        C  534   5.007   2.808   4.243
    1C        C  535   5.006   2.714   4.139
    1C        C  536   4.886   2.849   4.310
    1C        C  537   4.759   2.788   4.267
    1C        C  538   4.632   2.962   4.397
    1C        C  539   4.633   2.841   4.316
    1C        C  540   4.506   3.027   4.431
    1C        C  541   4.380   2.964   4.394
    1C        C  542   4.254   3.161   4.489
    1C        C  543   4.254   3.026   4.433
    1C        C  544   4.129   3.230   4.511
    1C        C  545   4.003   3.161   4.488
    1C        C  546   3.877   3.373   4.539
    1C        C  547   3.877   3.230   4.513
    1C        C  548   3.751   3.446   4.545
    1C        C  549   3.625   3.374   4.536
    1C        C  550   3.500   3.592   4.542
    1C        C  551   3.500   3.446   4.547
    1C        C  552   3.374   3.665   4.533
    1C        C  553   3.248   3.592   4.540
    1C        C  554   3.123   3.807   4.501
    1C        C  555   3.123   3.665   4.535
    1C        C  556   2.997   3.876   4.478
    1C        C  557   2.871   3.807   4.499
    1C        C  558   2.745   4.009   4.416
    1C        C  559   2.745   3.878   4.480
    1C        C  560   2.619   4.071   4.379
    1C        C  561   2.493   4.008   4.415
    1C        C  562   2.368   4.185   4.288
    1C        C  563   2.367   4.073   4.380
    1C        C  564   2.242   4.239   4.239
    1C        C  565   2.114   4.190   4.289
    1C        C  566   2.001   4.376   4.171
    1C        C  567   1.999   4.274   4.268
    1C        C  568   5.002   3.011   4.471
    1C        C  569   4.885   2.959   4.406
    1C        C  570   4.757   3.158   4.495
    1C        C  571   4.757   3.023   4.438
    1C        C  572   4.632   3.229   4.513
    1C        C  573   4.506   3.162   4.486
    1C        C  574   4.381   3.373   4.538
    1C        C  575   4.380   3.230   4.512
    1C        C  576   4.255   3.446   4.545
    1C        C  577   4.129   3.374   4.537
    1C        C  578   4.003   3.592   4.543
    1C        C  579   4.003   3.446   4.547
    1C        C  580   3.877   3.664   4.534
    1C        C  581   3.752   3.592   4.540
    1C        C  582   3.626   3.806   4.500
    1C        C  583   3.626   3.665   4.535
    1C        C  584   3.500   3.875   4.476
    1C        C  585   3.374   3.806   4.498
    1C        C  586   3.249   4.008   4.415
    1C        C  587   3.249   3.877   4.478
    1C        C  588   3.123   4.071   4.378
    1C        C  589   2.997   4.007   4.413
    1C        C  590   2.872   4.186   4.289
    1C        C  591   2.871   4.072   4.380
    1C        C  592   2.746   4.238   4.238
    1C        C  593   2.620   4.184   4.287
    1C        C  594   2.494   4.334   4.129
    1C        C  595   2.494   4.239   4.239
    1C        C  596   2.369   4.380   4.071
    1C        C  597   2.243   4.338   4.131
    1C        C  598   2.114   4.452   3.949
    1C        C  599   2.118   4.401   4.087
    1C        C  600   1.993   4.459   3.873
    1C        C  601   5.002   3.136   4.536
    1C        C  602   4.887   3.368   4.542
    1C        C  603   4.884   3.222   4.534
    1C        C  604   4.760   3.444   4.546
    1C        C  605   4.633   3.373   4.536
    1C        C  606   4.508   3.591   4.540
    1C        C  607   4.507   3.446   4.546
    1C        C  608   4.382   3.664   4.532
    1C        C  609   4.255   3.591   4.540
    1C        C  610   4.130   3.806   4.500
    1C        C  611   4.129   3.665   4.535
    1C        C  612   4.004   3.875   4.476
    1C        C  613   3.878   3.806   4.498
    1C        C  614   3.752   4.007   4.414
    1C        C  615   3.752   3.876   4.478
    1C        C  616   3.626   4.070   4.377
    1C        C  617   3.500   4.006   4.412
    1C        C  618   3.375   4.186   4.289
    1C        C  619   3.375   4.071   4.378
    1C        C  620   3.249   4.240   4.239
    1C        C  621   3.123   4.185   4.287
    1C        C  622   2.997   4.334   4.128
    1C        C  623   2.997   4.241   4.240
    1C        C  624   2.872   4.377   4.069
    1C        C  625   2.746   4.332   4.126
    1C        C  626   2.620   4.448   3.942
    1C        C  627   2.620   4.378   4.070
    1C        C  628   2.493   4.478   3.876
    1C        C  629   2.368   4.448   3.943
    1C        C  630   2.240   4.519   3.736
    1C        C  631   2.241   4.481   3.879
    1C        C  632   2.112   4.525   3.664
    1C        C  633   1.991   4.501   3.740
    1C        C  634   5.009   3.583   4.512
    1C        C  635   5.007   3.443   4.515
    1C        C  636   4.888   3.662   4.521
    1C        C  637   4.760   3.591   4.538
    1C        C  638   4.634   3.805   4.497
    1C        C  639   4.634   3.664   4.533
    1C        C  640   4.508   3.874   4.474
    1C        C  641   4.382   3.805   4.496
    1C        C  642   4.255   4.006   4.413
    1C        C  643   4.256   3.875   4.477
    1C        C  644   4.130   4.069   4.376
    1C        C  645   4.004   4.006   4.412
    1C        C  646   3.878   4.185   4.288
    1C        C  647   3.878   4.071   4.378
    1C        C  648   3.752   4.239   4.238
    1C        C  649   3.626   4.184   4.286
    1C        C  650   3.501   4.335   4.129
    1C        C  651   3.501   4.241   4.240
    1C        C  652   3.375   4.377   4.069
    1C        C  653   3.249   4.333   4.127
    1C        C  654   3.123   4.450   3.943
    1C        C  655   3.123   4.379   4.070
    1C        C  656   2.997   4.479   3.876
    1C        C  657   2.871   4.447   3.941
    1C        C  658   2.745   4.520   3.736
    1C        C  659   2.745   4.480   3.876
    1C        C  660   2.619   4.532   3.664
    1C        C  661   2.492   4.517   3.735
    1C        C  662   2.366   4.538   3.519
    1C        C  663   2.366   4.533   3.664
    1C        C  664   2.240   4.534   3.446
    1C        C  665   2.112   4.530   3.518
    1C        C  666   1.991   4.529   3.440
    1C        C  667   5.009   3.884   4.484
    1C        C  668   4.888   3.806   4.496
    1C        C  669   4.759   4.009   4.415
    1C        C  670   4.760   3.876   4.476
    1C        C  671   4.633   4.069   4.375
    1C        C  672   4.507   4.005   4.410
    1C        C  673   4.381   4.184   4.286
    1C        C  674   4.381   4.069   4.376
    1C        C  675   4.255   4.238   4.237
    1C        C  676   4.130   4.183   4.285
    1C        C  677   4.004   4.334   4.128
    1C        C  678   4.004   4.240   4.239
    1C        C  679   3.878   4.377   4.069
    1C        C  680   3.752   4.333   4.127
    1C        C  681   3.626   4.450   3.943
    1C        C  682   3.626   4.379   4.070
    1C        C  683   3.501   4.479   3.876
    1C        C  684   3.375   4.448   3.942
    1C        C  685   3.249   4.522   3.736
    1C        C  686   3.249   4.481   3.876
    1C        C  687   3.123   4.534   3.664
    1C        C  688   2.997   4.519   3.736
    1C        C  689   2.871   4.540   3.519
    1C        C  690   2.871   4.536   3.665
    1C        C  691   2.745   4.535   3.446
    1C        C  692   2.619   4.535   3.519
    1C        C  693   2.492   4.535   3.446
    1C        C  694   5.008   4.013   4.428
    1C        C  695   4.886   4.193   4.295
    1C        C  696   4.886   4.078   4.386
    1C        C  697   4.759   4.239   4.238
    1C        C  698   4.633   4.182   4.283
    1C        C  699   4.507   4.334   4.127
    1C        C  700   4.507   4.238   4.237
    1C        C  701   4.381   4.378   4.069
    1C        C  702   4.255   4.333   4.126
    1C        C  703   4.130   4.451   3.943
    1C        C  704   4.130   4.379   4.070
    1C        C  705   4.004   4.481   3.876
    1C        C  706   3.878   4.448   3.942
    1C        C  707   3.752   4.522   3.736
    1C        C  708   3.752   4.481   3.876
    1C        C  709   3.626   4.534   3.664
    1C        C  710   3.501   4.519   3.736
    1C        C  711   3.375   4.540   3.519
    1C        C  712   3.375   4.536   3.665
    1C        C  713   3.249   4.536   3.446
    1C        C  714   3.123   4.537   3.519
    1C        C  715   2.997   4.537   3.446
    1C        C  716   5.003   4.369   4.162
    1C        C  717   5.004   4.270   4.263
    1C        C  718   4.885   4.395   4.082
    1C        C  719   4.759   4.337   4.130
    1C        C  720   4.634   4.450   3.943
    1C        C  721   4.633   4.381   4.071
    1C        C  722   4.508   4.480   3.876
    1C        C  723   4.382   4.449   3.942
    1C        C  724   4.256   4.522   3.737
    1C        C  725   4.256   4.483   3.877
    1C        C  726   4.130   4.536   3.665
    1C        C  727   4.004   4.521   3.736
    1C        C  728   3.878   4.541   3.519
    1C        C  729   3.878   4.537   3.665
    1C        C  730   3.752   4.536   3.446
    1C        C  731   3.627   4.537   3.519
    1C        C  732   3.501   4.537   3.446
    1C        C  733   5.007   4.439   3.863
    1C        C  734   4.887   4.442   3.943
    1C        C  735   4.761   4.521   3.736
    1C        C  736   4.761   4.479   3.877
    1C        C  737   4.635   4.533   3.664
    1C        C  738   4.508   4.518   3.736
    1C        C  739   4.382   4.534   3.519
    1C        C  740   4.382   4.533   3.664
    1C        C  741   4.256   4.534   3.446
    1C        C  742   4.130   4.538   3.519
    1C        C  743   4.004   4.538   3.446
    1C        C  744   5.008   4.482   3.730
    1C        C  745   4.887   4.544   3.517
    1C        C  746   4.889   4.527   3.662
    1C        C  747   4.760   4.535   3.446
    1C        C  748   4.634   4.536   3.519
    1C        C  749   4.508   4.530   3.446
    1C        C  750   5.004   4.580   3.440
    1C        O  751   5.113   2.451   3.995
    1C        H  752   5.181   2.409   3.934
    1C        O  753   5.113   3.160   4.616
    1C        H  754   5.179   3.087   4.606
    1C        O  755   5.114   2.431   3.052
    1C        H  756   5.182   2.449   2.981
    1C        O  757   5.114   4.452   4.163
    1C        H  758   5.182   4.421   4.229
    1C        O  759   5.113   4.635   3.239
    1C        H  760   5.184   4.655   3.307
    1C        O  761   5.117   3.120   2.413
    1C        H  762   5.184   3.185   2.374
    1C        O  763   5.115   4.060   2.487
    1C        H  764   5.183   4.129   2.512
    1C        O  765   1.881   2.460   3.991
    1C        H  766   1.817   2.409   3.933
    1C        O  767   1.880   2.384   3.274
    1C        H  768   1.821   2.334   3.339
    1C        O  769   1.882   3.650   4.641
    1C        H  770   1.815   3.582   4.670
    1C        O  771   1.881   2.920   2.516
    1C        H  772   1.819   2.841   2.525
    1C        O  773   1.882   3.844   2.411
    1C        H  774   1.820   3.785   2.357
    1C        O  775   1.884   4.550   3.015
    1C        H  776   1.823   4.548   2.935
    1C        O  777   1.885   4.453   4.164
    1C        H  778   1.819   4.426   4.235
    1C        H  779   5.103   2.691   4.098
    1C        H  780   5.103   2.854   4.263
    1C        H  781   5.088   2.948   4.485
    1C        H  782   5.104   3.396   4.506
    1C        H  783   5.108   3.625   4.514
    1C        H  784   5.089   2.404   3.749
    1C        H  785   5.103   2.503   3.531
    1C        H  786   5.104   2.515   3.299
    1C        H  787   5.088   2.579   2.851
    1C        H  788   5.103   2.813   2.781
    1C        H  789   5.103   2.995   2.638
    1C        H  790   5.090   3.369   2.384
    1C        H  791   5.105   3.576   2.507
    1C        H  792   5.105   3.805   2.545
    1C        H  793   5.090   4.243   2.657
    1C        H  794   5.105   4.289   2.894
    1C        H  795   5.105   4.416   3.088
    1C        H  796   5.088   4.626   3.489
    1C        H  797   5.105   4.482   3.682
    1C        H  798   5.104   4.420   3.905
    1C        H  799   5.088   4.270   4.329
    1C        H  800   5.106   4.050   4.399
    1C        H  801   5.102   3.854   4.529
    1C        H  802   1.918   3.403   4.641
    1C        H  803   1.893   3.200   4.518
    1C        H  804   1.900   2.972   4.462
    1C        H  805   1.891   2.831   4.272
    1C        H  806   1.895   2.691   4.091
    1C        H  807   1.903   2.413   3.746
    1C        H  808   1.900   2.406   3.524
    1C        H  809   1.895   2.579   3.119
    1C        H  810   1.896   2.690   2.915
    1C        H  811   1.915   2.722   2.669
    1C        H  812   1.895   3.167   2.549
    1C        H  813   1.896   3.393   2.499
    1C        H  814   1.916   3.599   2.363
    1C        H  815   1.896   3.983   2.617
    1C        H  816   1.918   4.415   2.806
    1C        H  817   1.897   4.174   2.749
    1C        H  818   1.896   4.498   3.256
    1C        H  819   1.895   4.560   3.480
    1C        H  820   1.897   4.544   3.711
    1C        H  821   1.896   4.436   3.915
    1C        H  822   1.925   4.282   4.345
    1C        H  823   1.896   4.030   4.359
    1C        H  824   1.896   3.820   4.456
    2V3OU   H29  825   4.764   4.655   0.063
    2V3OU   C27  826   4.729   4.570   0.127
    2V3OU   H27  827   4.634   4.593   0.182
    2V3OU   H28  828   4.726   4.473   0.072
    2V3OU   O11  829   4.831   4.556   0.228
    2V3OU   C15  830   4.825   4.466   0.333
    2V3OU   C13  831   4.932   4.468   0.428
    2V3OU   C14  832   4.934   4.374   0.534
    2V3OU   C16  833   4.831   4.280   0.545
    2V3OU    H6  834   4.833   4.207   0.628
    2V3OU   C12  835   5.048   4.364   0.631
    2V3OU    O2  836   5.049   4.289   0.732
    2V3OU   C10  837   5.171   4.436   0.595
    2V3OU    C8  838   5.289   4.407   0.660
    2V3OU   O10  839   5.295   4.319   0.763
    2V3OU   H26  840   5.196   4.290   0.773
    2V3OU    C6  841   5.413   4.469   0.619
    2V3OU    C5  842   5.411   4.563   0.515
    2V3OU    C4  843   5.542   4.423   0.679
    2V3OU    H4  844   5.532   4.421   0.792
    2V3OU    H5  845   5.558   4.316   0.647
    2V3OU    C2  846   5.666   4.505   0.645
    2V3OU    O6  847   5.665   4.624   0.722
    2V3OU   H21  848   5.614   4.688   0.659
    2V3OU    C3  849   5.659   4.556   0.502
    2V3OU    H2  850   5.746   4.623   0.482
    2V3OU    H3  851   5.666   4.468   0.433
    2V3OU   C25  852   5.793   4.418   0.670
    2V3OU    O7  853   5.841   4.342   0.584
    2V3OU   C26  854   5.859   4.428   0.808
    2V3OU   H22  855   5.928   4.516   0.805
    2V3OU   H23  856   5.916   4.334   0.830
    2V3OU    O8  857   5.767   4.440   0.916
    2V3OU   H24  858   5.717   4.525   0.905
    2V3OU    C1  859   5.534   4.633   0.468
    2V3OU    H1  860   5.531   4.650   0.356
    2V3OU    O3  861   5.545   4.756   0.541
    2V3OU   C19  862   5.531   4.873   0.461
    2V3OU    H9  863   5.450   4.865   0.382
    2V3OU    O4  864   5.651   4.880   0.387
    2V3OU   C20  865   5.772   4.923   0.451
    2V3OU   H10  866   5.801   4.842   0.523
    2V3OU   C24  867   5.507   4.992   0.553
    2V3OU   H16  868   5.422   4.968   0.621
    2V3OU   H17  869   5.479   5.079   0.488
    2V3OU   C23  870   5.633   5.027   0.630
    2V3OU   H15  871   5.661   4.936   0.693
    2V3OU    N1  872   5.598   5.139   0.713
    2V3OU   H19  873   5.650   5.131   0.799
    2V3OU   H20  874   5.501   5.132   0.733
    2V3OU   C21  875   5.757   5.053   0.533
    2V3OU   H11  876   5.850   5.060   0.598
    2V3OU    O5  877   5.746   5.179   0.455
    2V3OU   H18  878   5.697   5.244   0.510
    2V3OU   C22  879   5.876   4.932   0.341
    2V3OU   H12  880   5.847   5.012   0.268
    2V3OU   H13  881   5.883   4.835   0.287
    2V3OU   H14  882   5.976   4.957   0.385
    2V3OU   C11  883   5.047   4.560   0.412
    2V3OU    O1  884   5.050   4.656   0.332
    2V3OU    C9  885   5.171   4.532   0.487
    2V3OU    C7  886   5.288   4.593   0.451
    2V3OU    O9  887   5.292   4.688   0.352
    2V3OU   H25  888   5.189   4.692   0.327
    2V3OU   C17  889   4.725   4.368   0.349
    2V3OU    H7  890   4.644   4.364   0.276
    2V3OU   C18  891   4.728   4.276   0.453
    2V3OU    H8  892   4.650   4.199   0.461
    3V3OU   H29  893   6.260   5.589   0.424
    3V3OU   C27  894   6.201   5.675   0.382
    3V3OU   H27  895   6.108   5.642   0.329
    3V3OU   H28  896   6.184   5.756   0.457
    3V3OU   O11  897   6.287   5.731   0.281
    3V3OU   C15  898   6.251   5.837   0.199
    3V3OU   C13  899   6.345   5.879   0.100
    3V3OU   C14  900   6.316   5.990   0.017
    3V3OU   C16  901   6.195   6.058   0.032
    3V3OU    H6  902   6.172   6.144   6.967
    3V3OU   C12  903   6.416   6.045   6.918
    3V3OU    O2  904   6.389   6.137   6.836
    3V3OU   C10  905   6.554   5.998   6.931
    3V3OU    C8  906   6.656   6.067   6.868
    3V3OU   O10  907   6.631   6.172   6.786
    3V3OU   H26  908   6.528   6.178   6.788
    3V3OU    C6  909   6.794   6.028   6.887
    3V3OU    C5  910   6.822   5.918   6.969
    3V3OU    C4  911   6.903   6.114   6.832
    3V3OU    H4  912   6.881   6.136   6.723
    3V3OU    H5  913   6.899   6.213   6.886
    3V3OU    C2  914   0.045   6.058   6.841
    3V3OU    O6  915   0.062   5.960   6.740
    3V3OU   H21  916   0.032   5.875   6.791
    3V3OU    C3  917   0.063   5.980   6.971
    3V3OU    H2  918   0.164   5.933   6.971
    3V3OU    H3  919   0.057   6.052   0.056
    3V3OU   C25  920   0.146   6.176   6.829
    3V3OU    O7  921   0.185   6.242   6.927
    3V3OU   C26  922   0.198   6.209   6.689
    3V3OU   H22  923   0.285   6.142   6.669
    3V3OU   H23  924   0.231   6.316   6.685
    3V3OU    O8  925   0.101   6.198   6.585
    3V3OU   H24  926   0.072   6.102   6.581
    3V3OU    C1  927   6.962   5.871   6.993
    3V3OU    H1  928   6.974   5.832   0.099
    3V3OU    O3  929   6.992   5.771   6.895
    3V3OU   C19  930   0.012   5.640   6.949
    3V3OU    H9  931   6.939   5.613   0.032
    3V3OU    O4  932   0.137   5.647   0.013
    3V3OU   C20  933   0.258   5.647   6.935
    3V3OU   H10  934   0.261   5.746   6.880
    3V3OU   C24  935   0.006   5.539   6.835
    3V3OU   H16  936   6.911   5.555   6.778
    3V3OU   H17  937   0.004   5.437   6.881
    3V3OU   C23  938   0.128   5.551   6.746
    3V3OU   H15  939   0.128   5.656   6.702
    3V3OU    N1  940   0.110   5.452   6.642
    3V3OU   H19  941   0.149   5.489   6.558
    3V3OU   H20  942   0.012   5.440   6.630
    3V3OU   C21  943   0.264   5.535   6.828
    3V3OU   H11  944   0.348   5.563   6.759
    3V3OU    O5  945   0.288   5.398   6.879
    3V3OU   H18  946   0.250   5.335   6.813
    3V3OU   C22  947   0.372   5.641   0.035
    3V3OU   H12  948   0.369   5.544   0.091
    3V3OU   H13  949   0.363   5.725   0.108
    3V3OU   H14  950   0.470   5.649   6.981
    3V3OU   C11  951   6.479   5.815   0.090
    3V3OU    O1  952   6.511   5.708   0.146
    3V3OU    C9  953   6.585   5.886   0.016
    3V3OU    C7  954   6.716   5.848   0.032
    3V3OU    O9  955   6.751   5.739   0.107
    3V3OU   H25  956   6.654   5.706   0.137
    3V3OU   C17  957   6.131   5.910   0.210
    3V3OU    H7  958   6.059   5.881   0.286
    3V3OU   C18  959   6.103   6.019   0.128
    3V3OU    H8  960   6.010   6.076   0.141
    4V3OU   H29  961   4.043   5.349   3.242
    4V3OU   C27  962   4.108   5.260   3.225
    4V3OU   H27  963   4.051   5.172   3.185
    4V3OU   H28  964   4.200   5.284   3.166
    4V3OU   O11  965   4.153   5.222   3.356
    4V3OU   C15  966   4.233   5.111   3.383
    4V3OU   C13  967   4.267   5.086   3.518
    4V3OU   C14  968   4.354   4.978   3.550
    4V3OU   C16  969   4.405   4.898   3.448
    4V3OU    H6  970   4.477   4.818   3.473
    4V3OU   C12  971   4.402   4.952   3.691
    4V3OU    O2  972   4.470   4.852   3.724
    4V3OU   C10  973   4.381   5.060   3.788
    4V3OU    C8  974   4.451   5.058   3.908
    4V3OU   O10  975   4.531   4.955   3.943
    4V3OU   H26  976   4.523   4.891   3.862
    4V3OU    C6  977   4.439   5.169   4.001
    4V3OU    C5  978   4.354   5.275   3.969
    4V3OU    C4  979   4.528   5.173   4.121
    4V3OU    H4  980   4.524   5.074   4.174
    4V3OU    H5  981   4.634   5.186   4.084
    4V3OU    C2  982   4.497   5.283   4.223
    4V3OU    O6  983   4.384   5.243   4.300
    4V3OU   H21  984   4.308   5.284   4.244
    4V3OU    C3  985   4.451   5.410   4.154
    4V3OU    H2  986   4.421   5.485   4.231
    4V3OU    H3  987   4.537   5.451   4.096
    4V3OU   C25  988   4.624   5.306   4.311
    4V3OU    O7  989   4.714   5.387   4.279
    4V3OU   C26  990   4.636   5.226   4.441
    4V3OU   H22  991   4.580   5.283   4.520
    4V3OU   H23  992   4.744   5.217   4.470
    4V3OU    O8  993   4.589   5.092   4.432
    4V3OU   H24  994   4.492   5.095   4.411
    4V3OU    C1  995   4.334   5.392   4.061
    4V3OU    H1  996   4.320   5.488   4.001
    4V3OU    O3  997   4.222   5.363   4.145
    4V3OU   C19  998   4.110   5.449   4.126
    4V3OU    H9  999   4.089   5.473   4.016
    4V3OU    O4 1000   4.149   5.573   4.181
    4V3OU   C20 1001   4.152   5.589   4.324
    4V3OU   H10 1002   4.236   5.526   4.363
    4V3OU   C24 1003   3.989   5.386   4.192
    4V3OU   H16 1004   3.978   5.281   4.156
    4V3OU   H17 1005   3.899   5.446   4.160
    4V3OU   C23 1006   4.000   5.392   4.343
    4V3OU   H15 1007   4.094   5.334   4.372
    4V3OU    N1 1008   3.881   5.329   4.394
    4V3OU   H19 1009   3.906   5.282   4.479
    4V3OU   H20 1010   3.853   5.261   4.327
    4V3OU   C21 1011   4.023   5.542   4.395
    4V3OU   H11 1012   4.048   5.535   4.505
    4V3OU    O5 1013   3.904   5.629   4.379
    4V3OU   H18 1014   3.824   5.573   4.393
    4V3OU   C22 1015   4.183   5.736   4.348
    4V3OU   H12 1016   4.101   5.800   4.309
    4V3OU   H13 1017   4.278   5.764   4.296
    4V3OU   H14 1018   4.195   5.754   4.458
    4V3OU   C11 1019   4.225   5.178   3.626
    4V3OU    O1 1020   4.138   5.266   3.615
    4V3OU    C9 1021   4.295   5.171   3.757
    4V3OU    C7 1022   4.282   5.274   3.847
    4V3OU    O9 1023   4.197   5.379   3.824
    4V3OU   H25 1024   4.156   5.349   3.731
    4V3OU   C17 1025   4.288   5.027   3.283
    4V3OU    H7 1026   4.266   5.047   3.179
    4V3OU   C18 1027   4.373   4.922   3.316
    4V3OU    H8 1028   4.415   4.857   3.237
    5V3OU   H29 1029   5.160   4.345   6.787
    5V3OU   C27 1030   5.089   4.292   6.718
    5V3OU   H27 1031   5.090   4.181   6.733
    5V3OU   H28 1032   4.987   4.337   6.718
    5V3OU   O11 1033   5.143   4.315   6.587
    5V3OU   C15 1034   5.090   4.263   6.470
    5V3OU   C13 1035   5.158   4.292   6.348
    5V3OU   C14 1036   5.104   4.245   6.225
    5V3OU   C16 1037   4.986   4.171   6.224
    5V3OU    H6 1038   4.945   4.135   6.129
    5V3OU   C12 1039   5.165   4.281   6.092
    5V3OU    O2 1040   5.126   4.233   5.982
    5V3OU   C10 1041   5.264   4.389   6.092
    5V3OU    C8 1042   5.300   4.449   5.973
    5V3OU   O10 1043   5.253   4.406   5.853
    5V3OU   H26 1044   5.193   4.326   5.881
    5V3OU    C6 1045   5.390   4.563   5.972
    5V3OU    C5 1046   5.442   4.608   6.094
    5V3OU    C4 1047   5.413   4.637   5.844
    5V3OU    H4 1048   5.438   4.564   5.762
    5V3OU    H5 1049   5.315   4.685   5.815
    5V3OU    C2 1050   5.522   4.744   5.847
    5V3OU    O6 1051   5.648   4.680   5.841
    5V3OU   H21 1052   5.669   4.667   5.941
    5V3OU    C3 1053   5.524   4.814   5.982
    5V3OU    H2 1054   5.610   4.886   5.984
    5V3OU    H3 1055   5.430   4.873   5.992
    5V3OU   C25 1056   5.498   4.843   5.729
    5V3OU    O7 1057   5.425   4.943   5.738
    5V3OU   C26 1058   5.570   4.814   5.597
    5V3OU   H22 1059   5.672   4.859   5.604
    5V3OU   H23 1060   5.514   4.859   5.512
    5V3OU    O8 1061   5.579   4.675   5.564
    5V3OU   H24 1062   5.631   4.629   5.636
    5V3OU    C1 1063   5.538   4.723   6.101
    5V3OU    H1 1064   5.520   4.784   6.195
    5V3OU    O3 1065   5.670   4.671   6.094
    5V3OU   C19 1066   5.747   4.690   6.213
    5V3OU    H9 1067   5.688   4.673   6.309
    5V3OU    O4 1068   5.777   4.827   6.215
    5V3OU   C20 1069   5.878   4.880   6.127
    5V3OU   H10 1070   5.837   4.873   6.022
    5V3OU   C24 1071   5.869   4.600   6.207
    5V3OU   H16 1072   5.836   4.495   6.185
    5V3OU   H17 1073   5.918   4.603   6.308
    5V3OU   C23 1074   5.968   4.649   6.103
    5V3OU   H15 1075   5.916   4.647   6.002
    5V3OU    N1 1076   6.078   4.556   6.106
    5V3OU   H19 1077   6.115   4.547   6.013
    5V3OU   H20 1078   6.042   4.468   6.135
    5V3OU   C21 1079   6.011   4.801   6.129
    5V3OU   H11 1080   6.069   4.836   6.039
    5V3OU    O5 1081   6.095   4.820   6.250
    5V3OU   H18 1082   6.152   4.739   6.259
    5V3OU   C22 1083   5.894   5.026   6.165
    5V3OU   H12 1084   5.933   5.035   6.269
    5V3OU   H13 1085   5.795   5.078   6.160
    5V3OU   H14 1086   5.965   5.076   6.094
    5V3OU   C11 1087   5.277   4.379   6.345
    5V3OU    O1 1088   5.342   4.414   6.446
    5V3OU    C9 1089   5.318   4.438   6.216
    5V3OU    C7 1090   5.406   4.544   6.215
    5V3OU    O9 1091   5.465   4.590   6.329
    5V3OU   H25 1092   5.423   4.523   6.399
    5V3OU   C17 1093   4.970   4.189   6.463
    5V3OU    H7 1094   4.916   4.168   6.555
    5V3OU   C18 1095   4.919   4.143   6.342
    5V3OU    H8 1096   4.823   4.088   6.339
    6V3OU   H29 1097   6.775   2.675   1.885
    6V3OU   C27 1098   6.856   2.634   1.949
    6V3OU   H27 1099   6.951   2.694   1.944
    6V3OU   H28 1100   6.822   2.613   2.054
    6V3OU   O11 1101   6.887   2.506   1.891
    6V3OU   C15 1102   6.986   2.420   1.937
    6V3OU   C13 1103   0.006   2.299   1.866
    6V3OU   C14 1104   0.104   2.206   1.911
    6V3OU   C16 1105   0.179   2.235   2.025
    6V3OU    H6 1106   0.255   2.163   2.060
    6V3OU   C12 1107   0.122   2.071   1.848
    6V3OU    O2 1108   0.214   1.991   1.879
    6V3OU   C10 1109   0.016   2.026   1.756
    6V3OU    C8 1110   0.009   1.893   1.719
    6V3OU   O10 1111   0.102   1.803   1.758
    6V3OU   H26 1112   0.167   1.860   1.814
    6V3OU    C6 1113   6.900   1.846   1.637
    6V3OU    C5 1114   6.804   1.938   1.592
    6V3OU    C4 1115   6.884   1.699   1.613
    6V3OU    H4 1116   6.983   1.656   1.579
    6V3OU    H5 1117   6.860   1.651   1.712
    6V3OU    C2 1118   6.778   1.658   1.511
    6V3OU    O6 1119   6.829   1.681   1.380
    6V3OU   H21 1120   6.798   1.778   1.363
    6V3OU    C3 1121   6.658   1.751   1.518
    6V3OU    H2 1122   6.586   1.725   1.437
    6V3OU    H3 1123   6.607   1.735   1.617
    6V3OU   C25 1124   6.739   1.509   1.535
    6V3OU    O7 1125   6.651   1.475   1.616
    6V3OU   C26 1126   6.816   1.403   1.457
    6V3OU   H22 1127   6.766   1.392   1.358
    6V3OU   H23 1128   6.814   1.305   1.512
    6V3OU    O8 1129   6.955   1.431   1.441
    6V3OU   H24 1130   6.963   1.514   1.386
    6V3OU    C1 1131   6.690   1.898   1.504
    6V3OU    H1 1132   6.596   1.958   1.530
    6V3OU    O3 1133   6.731   1.915   1.368
    6V3OU   C19 1134   6.658   2.016   1.298
    6V3OU    H9 1135   6.638   2.109   1.360
    6V3OU    O4 1136   6.530   1.960   1.277
    6V3OU   C20 1137   6.511   1.860   1.176
    6V3OU   H10 1138   6.565   1.767   1.212
    6V3OU   C24 1139   6.733   2.049   1.170
    6V3OU   H16 1140   6.840   2.073   1.196
    6V3OU   H17 1141   6.685   2.140   1.126
    6V3OU   C23 1142   6.724   1.935   1.070
    6V3OU   H15 1143   6.771   1.844   1.119
    6V3OU    N1 1144   6.799   1.978   0.955
    6V3OU   H19 1145   6.843   1.897   0.915
    6V3OU   H20 1146   6.871   2.040   0.987
    6V3OU   C21 1147   6.572   1.897   1.039
    6V3OU   H11 1148   6.574   1.801   0.978
    6V3OU    O5 1149   6.499   2.000   0.961
    6V3OU   H18 1150   6.563   2.041   0.898
    6V3OU   C22 1151   6.362   1.833   1.171
    6V3OU   H12 1152   6.308   1.924   1.137
    6V3OU   H13 1153   6.325   1.805   1.273
    6V3OU   H14 1154   6.341   1.749   1.100
    6V3OU   C11 1155   6.919   2.261   1.753
    6V3OU    O1 1156   6.841   2.339   1.694
    6V3OU    C9 1157   6.917   2.119   1.710
    6V3OU    C7 1158   6.815   2.075   1.629
    6V3OU    O9 1159   6.720   2.159   1.579
    6V3OU   H25 1160   6.755   2.251   1.618
    6V3OU   C17 1161   0.065   2.444   2.052
    6V3OU    H7 1162   0.049   2.535   2.109
    6V3OU   C18 1163   0.160   2.353   2.095
    6V3OU    H8 1164   0.218   2.372   2.187
    7V3OU   H29 1165   3.844   1.168   3.756
    7V3OU   C27 1166   3.949   1.190   3.788
    7V3OU   H27 1167   4.010   1.237   3.707
    7V3OU   H28 1168   3.953   1.246   3.886
    7V3OU   O11 1169   4.007   1.061   3.813
    7V3OU   C15 1170   4.139   1.041   3.851
    7V3OU   C13 1171   4.183   0.907   3.868
    7V3OU   C14 1172   4.316   0.881   3.911
    7V3OU   C16 1173   4.402   0.988   3.937
    7V3OU    H6 1174   4.505   0.968   3.970
    7V3OU   C12 1175   4.365   0.742   3.942
    7V3OU    O2 1176   4.485   0.715   3.970
    7V3OU   C10 1177   4.263   0.637   3.953
    7V3OU    C8 1178   4.296   0.516   4.011
    7V3OU   O10 1179   4.422   0.488   4.052
    7V3OU   H26 1180   4.474   0.573   4.026
    7V3OU    C6 1181   4.194   0.415   4.032
    7V3OU    C5 1182   4.064   0.441   3.988
    7V3OU    C4 1183   4.228   0.293   4.111
    7V3OU    H4 1184   4.323   0.248   4.070
    7V3OU    H5 1185   4.250   0.325   4.216
    7V3OU    C2 1186   4.121   0.183   4.113
    7V3OU    O6 1187   4.125   0.113   3.990
    7V3OU   H21 1188   4.058   0.167   3.934
    7V3OU    C3 1189   3.982   0.244   4.115
    7V3OU    H2 1190   3.907   0.161   4.108
    7V3OU    H3 1191   3.968   0.296   4.213
    7V3OU   C25 1192   4.147   0.090   4.236
    7V3OU    O7 1193   4.099   0.113   4.349
    7V3OU   C26 1194   4.235   6.967   4.214
    7V3OU   H22 1195   4.169   6.886   4.176
    7V3OU   H23 1196   4.282   6.936   4.311
    7V3OU    O8 1197   4.346   6.989   4.127
    7V3OU   H24 1198   4.310   0.010   4.036
    7V3OU    C1 1199   3.954   0.341   4.004
    7V3OU    H1 1200   3.855   0.393   4.026
    7V3OU    O3 1201   3.949   0.262   3.885
    7V3OU   C19 1202   3.829   0.278   3.809
    7V3OU    H9 1203   3.793   0.386   3.802
    7V3OU    O4 1204   3.729   0.213   3.883
    7V3OU   C20 1205   3.724   0.069   3.884
    7V3OU   H10 1206   3.815   0.033   3.940
    7V3OU   C24 1207   3.852   0.220   3.670
    7V3OU   H16 1208   3.945   0.265   3.627
    7V3OU   H17 1209   3.765   0.250   3.607
    7V3OU   C23 1210   3.860   0.069   3.675
    7V3OU   H15 1211   3.948   0.041   3.742
    7V3OU    N1 1212   3.882   0.025   3.540
    7V3OU   H19 1213   3.940   6.944   3.542
    7V3OU   H20 1214   3.932   0.099   3.493
    7V3OU   C21 1215   3.730   0.005   3.743
    7V3OU   H11 1216   3.750   6.895   3.759
    7V3OU    O5 1217   3.607   0.019   3.661
    7V3OU   H18 1218   3.633   0.009   3.566
    7V3OU   C22 1219   3.599   0.032   3.962
    7V3OU   H12 1220   3.508   0.069   3.908
    7V3OU   H13 1221   3.601   0.081   4.063
    7V3OU   H14 1222   3.593   6.921   3.974
    7V3OU   C11 1223   4.090   0.793   3.853
    7V3OU    O1 1224   3.976   0.801   3.801
    7V3OU    C9 1225   4.129   0.662   3.910
    7V3OU    C7 1226   4.033   0.565   3.926
    7V3OU    O9 1227   3.904   0.582   3.883
    7V3OU   H25 1228   3.913   0.678   3.840
    7V3OU   C17 1229   4.230   1.145   3.880
    7V3OU    H7 1230   4.197   1.248   3.870
    7V3OU   C18 1231   4.360   1.119   3.922
    7V3OU    H8 1232   4.429   1.202   3.946
    8V3OU   H29 1233   2.554   6.811   3.138
    8V3OU   C27 1234   2.598   6.863   3.227
    8V3OU   H27 1235   2.654   6.956   3.198
    8V3OU   H28 1236   2.525   6.878   3.310
    8V3OU   O11 1237   2.697   6.771   3.277
    8V3OU   C15 1238   2.781   6.798   3.384
    8V3OU   C13 1239   2.877   6.699   3.419
    8V3OU   C14 1240   2.963   6.720   3.531
    8V3OU   C16 1241   2.951   6.837   3.606
    8V3OU    H6 1242   3.019   6.853   3.691
    8V3OU   C12 1243   3.058   6.614   3.580
    8V3OU    O2 1244   3.140   6.632   3.673
    8V3OU   C10 1245   3.041   6.479   3.525
    8V3OU    C8 1246   3.102   6.372   3.587
    8V3OU   O10 1247   3.184   6.387   3.693
    8V3OU   H26 1248   3.185   6.491   3.706
    8V3OU    C6 1249   3.077   6.237   3.541
    8V3OU    C5 1250   2.993   6.217   3.430
    8V3OU    C4 1251   3.130   6.121   3.620
    8V3OU    H4 1252   3.240   6.138   3.641
    8V3OU    H5 1253   3.077   6.122   3.720
    8V3OU    C2 1254   3.115   5.983   3.556
    8V3OU    O6 1255   3.215   5.968   3.456
    8V3OU   H21 1256   3.166   6.005   3.373
    8V3OU    C3 1257   2.985   5.974   3.478
    8V3OU    H2 1258   2.981   5.875   3.425
    8V3OU    H3 1259   2.901   5.978   3.551
    8V3OU   C25 1260   3.126   5.874   3.668
    8V3OU    O7 1261   3.027   5.834   3.731
    8V3OU   C26 1262   3.264   5.817   3.697
    8V3OU   H22 1263   3.282   5.734   3.624
    8V3OU   H23 1264   3.268   5.778   3.802
    8V3OU    O8 1265   3.370   5.913   3.692
    8V3OU   H24 1266   3.377   5.946   3.598
    8V3OU    C1 1267   2.965   6.081   3.375
    8V3OU    H1 1268   2.858   6.075   3.336
    8V3OU    O3 1269   3.061   6.054   3.273
    8V3OU   C19 1270   3.006   6.042   3.141
    8V3OU    H9 1271   2.925   6.119   3.119
    8V3OU    O4 1272   2.938   5.919   3.142
    8V3OU   C20 1273   3.012   5.797   3.135
    8V3OU   H10 1274   3.068   5.786   3.233
    8V3OU   C24 1275   3.119   6.051   3.040
    8V3OU   H16 1276   3.179   6.143   3.061
    8V3OU   H17 1277   3.072   6.060   2.939
    8V3OU   C23 1278   3.205   5.926   3.044
    8V3OU   H15 1279   3.249   5.919   3.149
    8V3OU    N1 1280   3.308   5.945   2.945
    8V3OU   H19 1281   3.392   5.903   2.979
    8V3OU   H20 1282   3.322   6.044   2.935
    8V3OU   C21 1283   3.118   5.794   3.022
    8V3OU   H11 1284   3.186   5.706   3.045
    8V3OU    O5 1285   3.066   5.778   2.885
    8V3OU   H18 1286   3.129   5.823   2.823
    8V3OU   C22 1287   2.909   5.686   3.124
    8V3OU   H12 1288   2.853   5.696   3.028
    8V3OU   H13 1289   2.836   5.693   3.208
    8V3OU   H14 1290   2.960   5.586   3.126
    8V3OU   C11 1291   2.883   6.570   3.348
    8V3OU    O1 1292   2.824   6.545   3.240
    8V3OU    C9 1293   2.955   6.457   3.412
    8V3OU    C7 1294   2.934   6.329   3.366
    8V3OU    O9 1295   2.856   6.303   3.257
    8V3OU   H25 1296   2.829   6.402   3.230
    8V3OU   C17 1297   2.774   6.915   3.464
    8V3OU    H7 1298   2.700   6.990   3.440
    8V3OU   C18 1299   2.858   6.934   3.573
    8V3OU    H8 1300   2.849   0.024   3.635
    9V3OU   H29 1301   2.564   5.154   5.658
    9V3OU   C27 1302   2.478   5.224   5.640
    9V3OU   H27 1303   2.512   5.327   5.608
    9V3OU   H28 1304   2.400   5.181   5.573
    9V3OU   O11 1305   2.417   5.241   5.769
    9V3OU   C15 1306   2.309   5.325   5.794
    9V3OU   C13 1307   2.263   5.334   5.928
    9V3OU   C14 1308   2.150   5.415   5.958
    9V3OU   C16 1309   2.086   5.485   5.856
    9V3OU    H6 1310   1.998   5.548   5.880
    9V3OU   C12 1311   2.089   5.420   6.096
    9V3OU    O2 1312   1.995   5.498   6.128
    9V3OU   C10 1313   2.132   5.317   6.191
    9V3OU    C8 1314   2.059   5.295   6.306
    9V3OU   O10 1315   1.952   5.371   6.339
    9V3OU   H26 1316   1.948   5.440   6.261
    9V3OU    C6 1317   2.094   5.188   6.396
    9V3OU    C5 1318   2.206   5.109   6.366
    9V3OU    C4 1319   2.004   5.155   6.510
    9V3OU    H4 1320   1.979   5.249   6.567
    9V3OU    H5 1321   1.907   5.117   6.467
    9V3OU    C2 1322   2.056   5.052   6.611
    9V3OU    O6 1323   2.151   5.115   6.695
    9V3OU   H21 1324   2.238   5.099   6.643
    9V3OU    C3 1325   2.138   4.945   6.540
    9V3OU    H2 1326   2.182   4.877   6.617
    9V3OU    H3 1327   2.069   4.885   6.475
    9V3OU   C25 1328   1.935   4.992   6.689
    9V3OU    O7 1329   1.872   4.893   6.649
    9V3OU   C26 1330   1.896   5.060   6.820
    9V3OU   H22 1331   1.961   5.017   6.901
    9V3OU   H23 1332   1.788   5.040   6.843
    9V3OU    O8 1333   1.906   5.202   6.818
    9V3OU   H24 1334   2.002   5.226   6.805
    9V3OU    C1 1335   2.251   4.997   6.455
    9V3OU    H1 1336   2.292   4.911   6.394
    9V3OU    O3 1337   2.346   5.050   6.547
    9V3OU   C19 1338   2.478   4.997   6.531
    9V3OU    H9 1339   2.510   4.985   6.423
    9V3OU    O4 1340   2.470   4.865   6.580
    9V3OU   C20 1341   2.464   4.841   6.721
    9V3OU   H10 1342   2.364   4.879   6.757
    9V3OU   C24 1343   2.575   5.086   6.607
    9V3OU   H16 1344   2.560   5.192   6.575
    9V3OU   H17 1345   2.679   5.053   6.579
    9V3OU   C23 1346   2.558   5.069   6.757
    9V3OU   H15 1347   2.451   5.100   6.783
    9V3OU    N1 1348   2.654   5.158   6.818
    9V3OU   H19 1349   2.614   5.193   6.903
    9V3OU   H20 1350   2.668   5.234   6.755
    9V3OU   C21 1351   2.572   4.917   6.802
    9V3OU   H11 1352   2.541   4.910   6.910
    9V3OU    O5 1353   2.710   4.864   6.791
    9V3OU   H18 1354   2.773   4.937   6.811
    9V3OU   C22 1355   2.470   4.690   6.739
    9V3OU   H12 1356   2.568   4.652   6.702
    9V3OU   H13 1357   2.389   4.642   6.679
    9V3OU   H14 1358   2.458   4.664   6.847
    9V3OU   C11 1359   2.322   5.252   6.036
    9V3OU    O1 1360   2.430   5.189   6.026
    9V3OU    C9 1361   2.246   5.235   6.162
    9V3OU    C7 1362   2.282   5.134   6.249
    9V3OU    O9 1363   2.391   5.055   6.227
    9V3OU   H25 1364   2.428   5.099   6.138
    9V3OU   C17 1365   2.240   5.398   5.694
    9V3OU    H7 1366   2.273   5.391   5.591
    9V3OU   C18 1367   2.130   5.476   5.725
    9V3OU    H8 1368   2.076   5.530   5.645
   10V3OU   H29 1369   3.458   6.510   4.936
   10V3OU   C27 1370   3.549   6.464   4.888
   10V3OU   H27 1371   3.526   6.417   4.789
   10V3OU   H28 1372   3.636   6.534   4.886
   10V3OU   O11 1373   3.586   6.356   4.976
   10V3OU   C15 1374   3.692   6.270   4.952
   10V3OU   C13 1375   3.714   6.166   5.046
   10V3OU   C14 1376   3.823   6.076   5.029
   10V3OU   C16 1377   3.908   6.092   4.919
   10V3OU    H6 1378   3.993   6.023   4.906
   10V3OU   C12 1379   3.859   5.972   5.131
   10V3OU    O2 1380   3.948   5.885   5.114
   10V3OU   C10 1381   3.794   5.983   5.262
   10V3OU    C8 1382   3.844   5.912   5.370
   10V3OU   O10 1383   3.946   5.824   5.356
   10V3OU   H26 1384   3.967   5.829   5.255
   10V3OU    C6 1385   3.788   5.929   5.502
   10V3OU    C5 1386   3.680   6.017   5.518
   10V3OU    C4 1387   3.855   5.865   5.619
   10V3OU    H4 1388   3.874   5.756   5.596
   10V3OU    H5 1389   3.956   5.913   5.631
   10V3OU    C2 1390   3.780   5.873   5.752
   10V3OU    O6 1391   3.675   5.778   5.751
   10V3OU   H21 1392   3.598   5.834   5.713
   10V3OU    C3 1393   3.708   6.006   5.765
   10V3OU    H2 1394   3.647   6.005   5.859
   10V3OU    H3 1395   3.784   6.087   5.773
   10V3OU   C25 1396   3.882   5.850   5.869
   10V3OU    O7 1397   3.947   5.942   5.920
   10V3OU   C26 1398   3.900   5.706   5.919
   10V3OU   H22 1399   3.820   5.688   5.995
   10V3OU   H23 1400   4.001   5.694   5.965
   10V3OU    O8 1401   3.895   5.607   5.816
   10V3OU   H24 1402   3.805   5.610   5.774
   10V3OU    C1 1403   3.615   6.038   5.651
   10V3OU    H1 1404   3.581   6.146   5.662
   10V3OU    O3 1405   3.506   5.946   5.663
   10V3OU   C19 1406   3.377   6.007   5.668
   10V3OU    H9 1407   3.365   6.094   5.596
   10V3OU    O4 1408   3.370   6.066   5.795
   10V3OU   C20 1409   3.349   5.984   5.911
   10V3OU   H10 1410   3.443   5.923   5.926
   10V3OU   C24 1411   3.272   5.899   5.643
   10V3OU   H16 1412   3.298   5.844   5.549
   10V3OU   H17 1413   3.174   5.952   5.629
   10V3OU   C23 1414   3.262   5.805   5.761
   10V3OU   H15 1415   3.364   5.755   5.774
   10V3OU    N1 1416   3.161   5.708   5.726
   10V3OU   H19 1417   3.188   5.621   5.766
   10V3OU   H20 1418   3.163   5.699   5.626
   10V3OU   C21 1419   3.232   5.884   5.897
   10V3OU   H11 1420   3.243   5.810   5.982
   10V3OU    O5 1421   3.096   5.942   5.904
   10V3OU   H18 1422   3.035   5.881   5.856
   10V3OU   C22 1423   3.333   6.080   6.028
   10V3OU   H12 1424   3.241   6.141   6.014
   10V3OU   H13 1425   3.421   6.148   6.033
   10V3OU   H14 1426   3.325   6.022   6.124
   10V3OU   C11 1427   3.633   6.155   5.169
   10V3OU    O1 1428   3.525   6.216   5.189
   10V3OU    C9 1429   3.684   6.073   5.282
   10V3OU    C7 1430   3.628   6.087   5.407
   10V3OU    O9 1431   3.519   6.167   5.429
   10V3OU   H25 1432   3.502   6.201   5.330
   10V3OU   C17 1433   3.782   6.281   4.844
   10V3OU    H7 1434   3.768   6.362   4.772
   10V3OU   C18 1435   3.888   6.194   4.828
   10V3OU    H8 1436   3.958   6.206   4.743
   11V3OU   H29 1437   2.957   5.697   1.045
   11V3OU   C27 1438   3.027   5.779   1.078
   11V3OU   H27 1439   3.086   5.822   0.993
   11V3OU   H28 1440   2.976   5.856   1.142
   11V3OU   O11 1441   3.122   5.712   1.163
   11V3OU   C15 1442   3.229   5.776   1.225
   11V3OU   C13 1443   3.316   5.696   1.304
   11V3OU   C14 1444   3.426   5.756   1.370
   11V3OU   C16 1445   3.449   5.893   1.356
   11V3OU    H6 1446   3.533   5.940   1.410
   11V3OU   C12 1447   3.513   5.681   1.467
   11V3OU    O2 1448   3.618   5.727   1.519
   11V3OU   C10 1449   3.465   5.549   1.510
   11V3OU    C8 1450   3.523   5.486   1.619
   11V3OU   O10 1451   3.629   5.540   1.684
   11V3OU   H26 1452   3.647   5.627   1.629
   11V3OU    C6 1453   3.471   5.360   1.668
   11V3OU    C5 1454   3.363   5.301   1.601
   11V3OU    C4 1455   3.524   5.304   1.796
   11V3OU    H4 1456   3.637   5.303   1.792
   11V3OU    H5 1457   3.496   5.376   1.878
   11V3OU    C2 1458   3.476   5.164   1.833
   11V3OU    O6 1459   3.548   5.069   1.755
   11V3OU   H21 1460   3.487   5.061   1.672
   11V3OU    C3 1461   3.332   5.143   1.790
   11V3OU    H2 1462   3.303   5.037   1.810
   11V3OU    H3 1463   3.267   5.210   1.852
   11V3OU   C25 1464   3.496   5.143   1.986
   11V3OU    O7 1465   3.410   5.176   2.070
   11V3OU   C26 1466   3.628   5.081   2.032
   11V3OU   H22 1467   3.617   4.970   2.024
   11V3OU   H23 1468   3.649   5.110   2.138
   11V3OU    O8 1469   3.742   5.125   1.960
   11V3OU   H24 1470   3.733   5.095   1.865
   11V3OU    C1 1471   3.305   5.171   1.644
   11V3OU    H1 1472   3.192   5.170   1.628
   11V3OU    O3 1473   3.371   5.066   1.573
   11V3OU   C19 1474   3.287   4.994   1.483
   11V3OU    H9 1475   3.214   5.060   1.425
   11V3OU    O4 1476   3.204   4.916   1.565
   11V3OU   C20 1477   3.257   4.798   1.629
   11V3OU   H10 1478   3.331   4.834   1.707
   11V3OU   C24 1479   3.375   4.914   1.388
   11V3OU   H16 1480   3.451   4.982   1.342
   11V3OU   H17 1481   3.308   4.873   1.308
   11V3OU   C23 1482   3.441   4.798   1.461
   11V3OU   H15 1483   3.506   4.843   1.543
   11V3OU    N1 1484   3.522   4.731   1.362
   11V3OU   H19 1485   3.604   4.696   1.407
   11V3OU   H20 1486   3.549   4.799   1.294
   11V3OU   C21 1487   3.334   4.704   1.533
   11V3OU   H11 1488   3.392   4.632   1.599
   11V3OU    O5 1489   3.251   4.625   1.439
   11V3OU   H18 1490   3.307   4.603   1.361
   11V3OU   C22 1491   3.140   4.731   1.698
   11V3OU   H12 1492   3.065   4.697   1.621
   11V3OU   H13 1493   3.090   4.804   1.766
   11V3OU   H14 1494   3.176   4.643   1.756
   11V3OU   C11 1495   3.286   5.554   1.330
   11V3OU    O1 1496   3.205   5.485   1.264
   11V3OU    C9 1497   3.354   5.486   1.443
   11V3OU    C7 1498   3.307   5.365   1.488
   11V3OU    O9 1499   3.206   5.299   1.424
   11V3OU   H25 1500   3.187   5.367   1.344
   11V3OU   C17 1501   3.256   5.914   1.215
   11V3OU    H7 1502   3.188   5.977   1.158
   11V3OU   C18 1503   3.364   5.972   1.280
   11V3OU    H8 1504   3.382   6.081   1.273
   12V3OU   H29 1505   6.811   4.433   4.961
   12V3OU   C27 1506   6.724   4.468   5.022
   12V3OU   H27 1507   6.720   4.579   5.032
   12V3OU   H28 1508   6.627   4.422   4.990
   12V3OU   O11 1509   6.751   4.417   5.154
   12V3OU   C15 1510   6.669   4.440   5.264
   12V3OU   C13 1511   6.711   4.386   5.389
   12V3OU   C14 1512   6.629   4.403   5.504
   12V3OU   C16 1513   6.509   4.473   5.494
   12V3OU    H6 1514   6.446   4.486   5.584
   12V3OU   C12 1515   6.662   4.338   5.636
   12V3OU    O2 1516   6.597   4.359   5.742
   12V3OU   C10 1517   6.765   4.234   5.635
   12V3OU    C8 1518   6.779   4.149   5.744
   12V3OU   O10 1519   6.704   4.164   5.856
   12V3OU   H26 1520   6.646   4.247   5.834
   12V3OU    C6 1521   6.873   4.040   5.740
   12V3OU    C5 1522   6.953   4.024   5.627
   12V3OU    C4 1523   6.873   3.939   5.851
   12V3OU    H4 1524   6.876   3.993   5.950
   12V3OU    H5 1525   6.774   3.885   5.847
   12V3OU    C2 1526   6.987   3.837   5.849
   12V3OU    O6 1527   0.105   3.899   5.897
   12V3OU   H21 1528   0.145   3.936   5.809
   12V3OU    C3 1529   0.022   3.799   5.706
   12V3OU    H2 1530   0.111   3.731   5.708
   12V3OU    H3 1531   6.936   3.743   5.663
   12V3OU   C25 1532   6.945   3.713   5.935
   12V3OU    O7 1533   6.883   3.617   5.887
   12V3OU   C26 1534   6.983   3.714   6.083
   12V3OU   H22 1535   0.087   3.674   6.090
   12V3OU   H23 1536   6.913   3.648   6.141
   12V3OU    O8 1537   6.973   3.841   6.146
   12V3OU   H24 1538   0.039   3.903   6.103
   12V3OU    C1 1539   0.055   3.915   5.616
   12V3OU    H1 1540   0.062   3.876   5.509
   12V3OU    O3 1541   0.180   3.966   5.664
   12V3OU   C19 1542   0.282   3.975   5.564
   12V3OU    H9 1543   0.244   4.013   5.463
   12V3OU    O4 1544   0.320   3.842   5.538
   12V3OU   C20 1545   0.402   3.772   5.633
   12V3OU   H10 1546   0.339   3.756   5.725
   12V3OU   C24 1547   0.393   4.064   5.617
   12V3OU   H16 1548   0.349   4.160   5.653
   12V3OU   H17 1549   0.463   4.084   5.532
   12V3OU   C23 1550   0.471   3.993   5.727
   12V3OU   H15 1551   0.397   3.971   5.812
   12V3OU    N1 1552   0.572   4.086   5.769
   12V3OU   H19 1553   0.587   4.073   5.867
   12V3OU   H20 1554   0.537   4.178   5.754
   12V3OU   C21 1555   0.527   3.852   5.679
   12V3OU   H11 1556   0.567   3.798   5.770
   12V3OU    O5 1557   0.637   3.862   5.579
   12V3OU   H18 1558   0.689   3.943   5.601
   12V3OU   C22 1559   0.435   3.638   5.570
   12V3OU   H12 1560   0.497   3.654   5.478
   12V3OU   H13 1561   0.341   3.586   5.541
   12V3OU   H14 1562   0.492   3.575   5.643
   12V3OU   C11 1563   6.832   4.301   5.400
   12V3OU    O1 1564   6.920   4.291   5.311
   12V3OU    C9 1565   6.848   4.215   5.519
   12V3OU    C7 1566   6.941   4.113   5.518
   12V3OU    O9 1567   0.025   4.095   5.412
   12V3OU   H25 1568   6.995   4.176   5.350
   12V3OU   C17 1569   6.546   4.509   5.260
   12V3OU    H7 1570   6.512   4.549   5.165
   12V3OU   C18 1571   6.467   4.525   5.373
   12V3OU    H8 1572   6.370   4.577   5.366
   13V3OU   H29 1573   2.102   5.654   2.256
   13V3OU   C27 1574   2.090   5.608   2.155
   13V3OU   H27 1575   2.067   5.498   2.160
   13V3OU   H28 1576   2.021   5.665   2.089
   13V3OU   O11 1577   2.221   5.618   2.095
   13V3OU   C15 1578   2.253   5.570   1.969
   13V3OU   C13 1579   2.388   5.585   1.926
   13V3OU   C14 1580   2.425   5.540   1.796
   13V3OU   C16 1581   2.330   5.482   1.713
   13V3OU    H6 1582   2.359   5.447   1.612
   13V3OU   C12 1583   2.562   5.564   1.740
   13V3OU    O2 1584   2.602   5.517   1.629
   13V3OU   C10 1585   2.648   5.659   1.811
   13V3OU    C8 1586   2.761   5.710   1.750
   13V3OU   O10 1587   2.800   5.669   1.627
   13V3OU   H26 1588   2.729   5.597   1.603
   13V3OU    C6 1589   2.840   5.812   1.815
   13V3OU    C5 1590   2.803   5.855   1.943
   13V3OU    C4 1591   2.951   5.877   1.739
   13V3OU    H4 1592   3.016   5.798   1.692
   13V3OU    H5 1593   2.905   5.936   1.655
   13V3OU    C2 1594   3.042   5.970   1.820
   13V3OU    O6 1595   3.132   5.891   1.896
   13V3OU   H21 1596   3.078   5.879   1.984
   13V3OU    C3 1597   2.962   6.045   1.925
   13V3OU    H2 1598   3.032   6.105   1.988
   13V3OU    H3 1599   2.893   6.116   1.872
   13V3OU   C25 1600   3.116   6.066   1.721
   13V3OU    O7 1601   3.067   6.173   1.682
   13V3OU   C26 1602   3.253   6.021   1.669
   13V3OU   H22 1603   3.329   6.053   1.744
   13V3OU   H23 1604   3.274   6.069   1.570
   13V3OU    O8 1605   3.263   5.881   1.644
   13V3OU   H24 1606   3.251   5.834   1.731
   13V3OU    C1 1607   2.882   5.958   2.018
   13V3OU    H1 1608   2.813   6.024   2.079
   13V3OU    O3 1609   2.978   5.890   2.098
   13V3OU   C19 1610   2.957   5.904   2.239
   13V3OU    H9 1611   2.848   5.897   2.270
   13V3OU    O4 1612   2.993   6.037   2.268
   13V3OU   C20 1613   3.132   6.074   2.273
   13V3OU   H10 1614   3.171   6.067   2.167
   13V3OU   C24 1615   3.041   5.799   2.311
   13V3OU   H16 1616   3.019   5.698   2.267
   13V3OU   H17 1617   3.010   5.800   2.419
   13V3OU   C23 1618   3.189   5.833   2.303
   13V3OU   H15 1619   3.217   5.834   2.192
   13V3OU    N1 1620   3.257   5.727   2.373
   13V3OU   H19 1621   3.345   5.711   2.327
   13V3OU   H20 1622   3.201   5.645   2.366
   13V3OU   C21 1623   3.220   5.979   2.359
   13V3OU   H11 1624   3.327   6.003   2.333
   13V3OU    O5 1625   3.203   5.992   2.506
   13V3OU   H18 1626   3.232   5.906   2.546
   13V3OU   C22 1627   3.136   6.218   2.319
   13V3OU   H12 1628   3.096   6.225   2.424
   13V3OU   H13 1629   3.072   6.281   2.252
   13V3OU   H14 1630   3.241   6.256   2.317
   13V3OU   C11 1631   2.487   5.657   2.007
   13V3OU    O1 1632   2.472   5.687   2.128
   13V3OU    C9 1633   2.611   5.706   1.942
   13V3OU    C7 1634   2.688   5.800   2.006
   13V3OU    O9 1635   2.660   5.844   2.131
   13V3OU   H25 1636   2.575   5.785   2.153
   13V3OU   C17 1637   2.160   5.511   1.880
   13V3OU    H7 1638   2.057   5.501   1.911
   13V3OU   C18 1639   2.198   5.467   1.754
   13V3OU    H8 1640   2.124   5.424   1.685
   7.00000   7.00000   7.00000
