CNT in water
33548
    1C        C    1   2.300   4.523   3.303  0.0722  0.2918  0.0190
    1C        C    2   2.181   4.520   3.225  0.0222  0.1017  0.1068
    1C        C    3   2.063   4.538   3.299  0.0703 -0.1667  0.2487
    1C        C    4   2.782   4.506   3.317  0.3403  0.5176  0.0308
    1C        C    5   2.661   4.493   3.245  0.3172  0.2620  0.1155
    1C        C    6   2.539   4.509   3.313  0.0601  0.3133 -0.3568
    1C        C    7   2.423   4.459   3.101 -0.3377 -0.2304 -0.0206
    1C        C    8   2.421   4.501   3.235 -0.0418  0.3795 -0.2076
    1C        C    9   2.304   4.441   3.028 -0.1728 -0.0839 -0.3271
    1C        C   10   2.182   4.487   3.085  0.1284  0.2059  0.0843
    1C        C   11   2.072   4.409   2.877 -0.1706 -0.3877  0.8235
    1C        C   12   2.075   4.489   2.992 -0.0505  0.3811  0.2953
    1C        C   13   3.271   4.509   3.320  0.2220 -0.0221 -0.0927
    1C        C   14   3.149   4.487   3.253  0.1562 -0.0973  0.0557
    1C        C   15   3.025   4.501   3.321  0.2302 -0.0509  0.1748
    1C        C   16   2.907   4.445   3.115 -0.4818  0.0129  0.0667
    1C        C   17   2.905   4.494   3.247  0.3067  0.1443  0.0348
    1C        C   18   2.787   4.426   3.042 -0.4033  0.4476 -0.1747
    1C        C   19   2.666   4.456   3.109 -0.3620 -0.2292  0.2187
    1C        C   20   2.546   4.355   2.918  0.3842  0.2793 -0.1763
    1C        C   21   2.547   4.427   3.039 -0.2751  0.1753 -0.1041
    1C        C   22   2.425   4.316   2.855  0.3631  0.2762 -0.1400
    1C        C   23   2.304   4.366   2.907  0.1683  0.1674 -0.4846
    1C        C   24   2.187   4.231   2.739 -0.0279 -0.0690  0.1145
    1C        C   25   2.186   4.338   2.834 -0.2934 -0.3644  0.4488
    1C        C   26   2.071   4.186   2.673 -0.0520  0.0860  0.0474
    1C        C   27   3.764   4.511   3.326  0.2920  0.1784  0.0768
    1C        C   28   3.642   4.495   3.256  0.4032  0.3343 -0.1513
    1C        C   29   3.517   4.515   3.319  0.4652  0.2809 -0.0172
    1C        C   30   3.395   4.449   3.120 -0.5124  0.0607  0.1947
    1C        C   31   3.394   4.497   3.253  0.3848  0.0820  0.1907
    1C        C   32   3.274   4.415   3.054 -0.4362 -0.0307  0.1075
    1C        C   33   3.151   4.443   3.119 -0.5055 -0.4716  0.1630
    1C        C   34   3.036   4.343   2.930  0.3608 -0.2258  0.0276
    1C        C   35   3.030   4.415   3.052 -0.5302 -0.8703  0.3782
    1C        C   36   2.914   4.304   2.870  0.2397 -0.1974  0.2522
    1C        C   37   2.792   4.353   2.922  0.3119  0.4174 -0.1372
    1C        C   38   2.667   4.214   2.763  0.1549  0.1569 -0.1528
    1C        C   39   2.669   4.316   2.861  0.3753  0.0602 -0.0536
    1C        C   40   2.547   4.159   2.712  0.0692  0.1752  0.0148
    1C        C   41   2.426   4.215   2.757  0.0281 -0.0198  0.1570
    1C        C   42   2.306   4.047   2.620  0.0036  0.3519 -0.3719
    1C        C   43   2.306   4.165   2.700  0.0314  0.0542  0.0757
    1C        C   44   2.185   3.985   2.580  0.0863 -0.2990  0.3517
    1C        C   45   2.072   4.067   2.601  0.4170  0.3693 -0.4254
    1C        C   46   4.253   4.517   3.328  0.4226  0.0252  0.1042
    1C        C   47   4.132   4.501   3.256  0.3017  0.4156  0.2237
    1C        C   48   4.010   4.507   3.327  0.1539 -0.1089  0.0153
    1C        C   49   3.888   4.453   3.124 -0.3658 -0.0425 -0.1345
    1C        C   50   3.888   4.499   3.258  0.1871 -0.4162 -0.0029
    1C        C   51   3.766   4.419   3.063 -0.2663 -0.7913  0.0816
    1C        C   52   3.641   4.443   3.125 -0.1575 -0.4555  0.1645
    1C        C   53   3.527   4.339   2.942  0.0571 -0.4298  0.7235
    1C        C   54   3.518   4.416   3.060 -0.4156 -0.2532  0.5723
    1C        C   55   3.405   4.300   2.882  0.2549  0.0341  0.0102
    1C        C   56   3.280   4.342   2.933  0.3292  0.4464 -0.1461
    1C        C   57   3.157   4.209   2.768  0.4278  0.5171 -0.3600
    1C        C   58   3.158   4.303   2.873  0.4218  0.5883 -0.4236
    1C        C   59   3.034   4.156   2.723  0.4218  0.6664 -0.5285
    1C        C   60   2.910   4.206   2.769  0.3461 -0.2961  0.3424
    1C        C   61   2.793   4.042   2.636 -0.1972  0.5913 -0.5838
    1C        C   62   2.787   4.154   2.721  0.2213 -0.2855  0.6362
    1C        C   63   2.670   3.980   2.600 -0.1090 -0.0452  0.1567
    1C        C   64   2.548   4.039   2.637 -0.0535 -0.1084  0.4582
    1C        C   65   2.429   3.850   2.538 -0.0222  0.2318 -0.1286
    1C        C   66   2.427   3.980   2.593  0.0005  0.3027 -0.2820
    1C        C   67   2.307   3.784   2.510  0.1633 -0.0821 -0.2287
    1C        C   68   2.185   3.856   2.517  0.2196  0.0364 -0.3565
    1C        C   69   2.075   3.649   2.446 -0.3677  0.0435  0.5950
    1C        C   70   2.070   3.787   2.470 -0.0571  0.1348  0.1631
    1C        C   71   4.740   4.524   3.337  0.1434  0.9191 -0.0698
    1C        C   72   4.619   4.503   3.266  0.2907 -0.5478  0.0924
    1C        C   73   4.498   4.519   3.337  0.3705  0.0865  0.0901
    1C        C   74   4.376   4.459   3.130 -0.2673 -0.9045  0.3545
    1C        C   75   4.378   4.502   3.265  0.3988 -0.0985  0.0893
    1C        C   76   4.256   4.429   3.062 -0.4145 -0.2199  0.3191
    1C        C   77   4.132   4.461   3.120 -0.2731  0.6201  0.1665
    1C        C   78   4.018   4.353   2.938  0.0301  0.1940  0.1283
    1C        C   79   4.010   4.432   3.055 -0.1589  0.0557  0.2057
    1C        C   80   3.896   4.307   2.884  0.1886  0.1370 -0.1701
    1C        C   81   3.773   4.346   2.942  0.0503  0.0266 -0.3907
    1C        C   82   3.646   4.202   2.785  0.6338  0.3735 -0.3607
    1C        C   83   3.652   4.299   2.888 -0.1151  0.3293 -0.2742
    1C        C   84   3.525   4.152   2.734  0.7151 -0.1297 -0.0611
    1C        C   85   3.402   4.206   2.777  0.8117  0.0733 -0.0452
    1C        C   86   3.279   4.040   2.643 -0.8798  0.4638  0.1009
    1C        C   87   3.280   4.153   2.728  0.5582  0.3012  0.3237
    1C        C   88   3.158   3.979   2.604 -0.6978 -0.0614  0.3382
    1C        C   89   3.036   4.041   2.640 -0.6895 -0.1773  0.5731
    1C        C   90   2.919   3.847   2.552  0.1657 -0.3401  0.2788
    1C        C   91   2.915   3.977   2.606 -0.4895 -0.0543 -0.4199
    1C        C   92   2.796   3.785   2.521  0.1723 -0.1259 -0.2138
    1C        C   93   2.673   3.850   2.544  0.2871  0.0588 -0.0884
    1C        C   94   2.549   3.643   2.496  0.0235  0.1546  0.8534
    1C        C   95   2.552   3.783   2.517  0.0755  0.2309  0.3830
    1C        C   96   2.428   3.572   2.483  0.0402  0.1634  0.5727
    1C        C   97   2.307   3.645   2.479 -0.2712 -0.3252  0.8136
    1C        C   98   2.189   3.425   2.469 -0.0840 -0.0914 -0.5464
    1C        C   99   2.189   3.568   2.467 -0.4088 -0.0670  0.4141
    1C        C  100   2.071   3.348   2.466 -0.1023 -0.0963  0.0140
    1C        C  101   4.972   4.581   3.330 -0.1322 -0.4975  0.1678
    1C        C  102   4.861   4.473   3.128 -0.1232 -0.1546 -0.2842
    1C        C  103   4.860   4.528   3.260 -0.1973  0.6569 -0.6191
    1C        C  104   4.741   4.432   3.064 -0.1983 -0.9154  0.3430
    1C        C  105   4.620   4.461   3.131 -0.2161  0.0002 -0.0812
    1C        C  106   4.502   4.351   2.948  0.0006  0.0263 -0.0642
    1C        C  107   4.499   4.425   3.068 -0.2264 -0.0291 -0.0388
    1C        C  108   4.381   4.309   2.889 -0.1101 -0.3875  0.4569
    1C        C  109   4.258   4.357   2.940 -0.0939 -0.1940  0.3111
    1C        C  110   4.136   4.206   2.784  0.5163  0.0631  0.0095
    1C        C  111   4.139   4.308   2.882 -0.0629  0.0194  0.0750
    1C        C  112   4.013   4.152   2.741  0.5991 -0.2535  0.1720
    1C        C  113   3.891   4.208   2.783  0.6164 -0.1867  0.1268
    1C        C  114   3.773   4.036   2.657 -1.0497 -0.0962  0.0247
    1C        C  115   3.769   4.151   2.739  0.5852  0.2246 -0.3202
    1C        C  116   3.650   3.978   2.618 -0.9452 -0.3475  0.0716
    1C        C  117   3.526   4.039   2.648 -0.8981 -0.2171 -0.0001
    1C        C  118   3.412   3.848   2.561  0.1786 -0.0150  0.5660
    1C        C  119   3.403   3.981   2.610 -1.0651  0.1028  0.0470
    1C        C  120   3.291   3.782   2.535  0.2973  0.1315 -0.3978
    1C        C  121   3.167   3.849   2.550  0.2791 -0.1048  0.5960
    1C        C  122   3.036   3.646   2.502  0.4065  0.0356 -0.1997
    1C        C  123   3.043   3.785   2.526  0.3113 -0.0229  0.1947
    1C        C  124   2.915   3.575   2.490  0.3968 -0.0215  0.1549
    1C        C  125   2.793   3.647   2.492  0.2655 -0.2352  0.2587
    1C        C  126   2.673   3.432   2.494 -1.0779  0.1854  0.1418
    1C        C  127   2.672   3.573   2.488  0.0004  0.1987 -0.0711
    1C        C  128   2.551   3.361   2.498 -0.6695 -0.5486 -0.1290
    1C        C  129   2.429   3.431   2.485 -0.2848  0.1417 -0.1055
    1C        C  130   2.312   3.215   2.512 -0.1994 -0.1323 -0.3425
    1C        C  131   2.311   3.354   2.482 -0.1188 -0.1142 -0.2793
    1C        C  132   2.189   3.146   2.533 -0.1848  0.0218  0.2643
    1C        C  133   2.069   3.215   2.508 -0.2145  0.0507  0.4760
    1C        C  134   4.980   4.387   2.928  0.2801 -0.0156 -0.4165
    1C        C  135   4.977   4.456   3.049 -0.1625 -0.1746 -0.3352
    1C        C  136   4.864   4.331   2.871 -0.0276  0.2388 -0.0473
    1C        C  137   4.744   4.364   2.940 -0.1485 -0.1800 -0.0599
    1C        C  138   4.624   4.209   2.791  0.5699 -0.0776 -0.2109
    1C        C  139   4.623   4.312   2.888 -0.1222 -0.0053 -0.2896
    1C        C  140   4.503   4.149   2.751  0.4326  0.0517  0.0092
    1C        C  141   4.381   4.205   2.793  0.4361  0.2792 -0.2839
    1C        C  142   4.261   4.040   2.659 -0.3984  0.2574 -0.4106
    1C        C  143   4.260   4.155   2.740  0.4648  0.1337 -0.2114
    1C        C  144   4.141   3.976   2.621 -0.6353  0.4341  0.0421
    1C        C  145   4.019   4.034   2.663 -0.9626 -0.4400  0.3133
    1C        C  146   3.899   3.845   2.572  0.5939 -0.0994  0.2508
    1C        C  147   3.896   3.975   2.624 -1.0351  0.0871 -0.2648
    1C        C  148   3.778   3.776   2.547  0.5298  0.2647 -0.4677
    1C        C  149   3.658   3.847   2.566  0.3062 -0.1920 -0.1453
    1C        C  150   3.525   3.643   2.520  0.6446  0.0061  0.1417
    1C        C  151   3.535   3.782   2.540  0.1332  0.0571  0.0560
    1C        C  152   3.403   3.572   2.511  0.5420  0.1802  0.1271
    1C        C  153   3.281   3.643   2.511  0.4647  0.0492 -0.0044
    1C        C  154   3.159   3.433   2.506 -1.0227  0.0509 -0.0377
    1C        C  155   3.158   3.575   2.503  0.4371  0.0862  0.0384
    1C        C  156   3.037   3.363   2.514 -0.8051 -0.3759 -0.3718
    1C        C  157   2.916   3.434   2.503 -0.6577 -0.0691 -0.0923
    1C        C  158   2.798   3.225   2.545 -0.0630  0.4785  0.4953
    1C        C  159   2.795   3.362   2.510 -0.9521  0.4498  0.4138
    1C        C  160   2.675   3.157   2.561  0.2633 -0.2966 -0.1450
    1C        C  161   2.554   3.223   2.530  0.1983 -0.7061 -0.8109
    1C        C  162   2.431   3.030   2.620  0.2239  0.2624  0.2156
    1C        C  163   2.433   3.154   2.552 -0.1646  0.1740  0.0290
    1C        C  164   2.310   2.968   2.657  0.2919  0.0094  0.0293
    1C        C  165   2.191   3.017   2.596 -0.0070  0.2919  0.8227
    1C        C  166   2.078   2.825   2.696  0.1910  0.0209  0.1078
    1C        C  167   2.087   2.920   2.594  0.3544 -0.0910  0.0159
    1C        C  168   4.975   4.186   2.696  0.0626  0.1513 -0.1780
    1C        C  169   4.864   4.227   2.772  0.1754  0.2760 -0.0834
    1C        C  170   4.749   4.040   2.662 -0.1387  0.0950 -0.6933
    1C        C  171   4.745   4.160   2.738  0.4410  0.1011 -0.6696
    1C        C  172   4.628   3.975   2.626 -0.3862 -0.0794  0.4209
    1C        C  173   4.507   4.035   2.667 -0.4965 -0.3085  0.4363
    1C        C  174   4.387   3.845   2.577  0.2726 -0.0563  0.0766
    1C        C  175   4.384   3.976   2.631 -0.4616  0.1742 -0.5013
    1C        C  176   4.266   3.777   2.549  0.3292 -0.0667 -0.1452
    1C        C  177   4.144   3.845   2.569  0.6083  0.2184  0.6308
    1C        C  178   4.015   3.638   2.525  0.0062  0.0097  0.7867
    1C        C  179   4.022   3.776   2.553  0.7236 -0.0492  0.9144
    1C        C  180   3.892   3.569   2.511  0.2147 -0.2260  0.0621
    1C        C  181   3.769   3.638   2.518  0.4477  0.2149 -0.2023
    1C        C  182   3.649   3.428   2.525 -0.9218 -0.1746  0.0443
    1C        C  183   3.646   3.569   2.517  0.6019 -0.0869  0.5950
    1C        C  184   3.526   3.359   2.526 -0.9855 -0.0692 -0.4771
    1C        C  185   3.404   3.430   2.516 -0.9350  0.1693  0.4956
    1C        C  186   3.286   3.224   2.549  0.3237  0.1148 -0.2917
    1C        C  187   3.280   3.362   2.520 -0.9663  0.2154  0.3759
    1C        C  188   3.164   3.158   2.572  0.4955 -0.0256  0.2350
    1C        C  189   3.042   3.227   2.554  0.4013 -0.2442 -0.0093
    1C        C  190   2.913   3.033   2.636  0.2865  0.2284 -0.2776
    1C        C  191   2.919   3.160   2.575  0.0212  0.5197  0.2867
    1C        C  192   2.791   2.971   2.669  0.3835  0.1460 -0.0416
    1C        C  193   2.671   3.033   2.628  0.1789 -0.3145 -0.1682
    1C        C  194   2.550   2.857   2.750 -0.1613  0.2159  0.4609
    1C        C  195   2.550   2.968   2.662  0.1028 -0.0244  0.1502
    1C        C  196   2.427   2.803   2.796 -0.2878 -0.2890 -0.4390
    1C        C  197   2.307   2.858   2.747 -0.3274 -0.3541 -0.4245
    1C        C  198   2.181   2.713   2.900 -0.1895 -0.1058  0.5570
    1C        C  199   2.186   2.792   2.781 -0.1886 -0.1302  0.5385
    1C        C  200   2.063   2.690   2.973 -0.5553  0.5846  0.1895
    1C        C  201   4.978   4.073   2.614  0.1659 -0.1012  0.1731
    1C        C  202   4.865   3.853   2.550 -0.0113  0.0281 -0.1660
    1C        C  203   4.867   3.985   2.604  0.0926  0.0276 -0.1654
    1C        C  204   4.746   3.778   2.527  0.1706 -0.4090  0.2713
    1C        C  205   4.630   3.845   2.573  0.3328  0.1179 -0.0583
    1C        C  206   4.504   3.638   2.525 -0.2469  0.1842 -0.5498
    1C        C  207   4.508   3.776   2.554  0.3442 -0.0063  0.3021
    1C        C  208   4.382   3.567   2.515  0.0015 -0.2541 -0.5223
    1C        C  209   4.260   3.639   2.520  0.0926 -0.1466  0.2849
    1C        C  210   4.141   3.427   2.517 -0.5514 -0.0551 -0.2207
    1C        C  211   4.138   3.569   2.517 -0.0004 -0.0310  1.0576
    1C        C  212   4.017   3.359   2.525 -0.5871  0.0694  0.2850
    1C        C  213   3.894   3.428   2.513 -0.7633 -0.2426  0.3016
    1C        C  214   3.774   3.221   2.559  0.1075 -0.0947  0.2003
    1C        C  215   3.772   3.358   2.524 -0.8593 -0.0745  0.3083
    1C        C  216   3.651   3.155   2.585  0.1412 -0.2405 -0.0129
    1C        C  217   3.529   3.223   2.563  0.3220  0.0118 -0.2544
    1C        C  218   3.398   3.030   2.643  0.3872  0.2439  0.0527
    1C        C  219   3.406   3.156   2.580  0.3033 -0.0102 -0.4742
    1C        C  220   3.275   2.972   2.680  0.4562  0.1532  0.1557
    1C        C  221   3.155   3.034   2.639  0.3561 -0.2142 -0.1235
    1C        C  222   3.033   2.854   2.754 -0.6698  0.6111  0.6629
    1C        C  223   3.034   2.969   2.673  0.1763  0.1988  0.0580
    1C        C  224   2.911   2.799   2.799 -0.5809  0.0473  0.2582
    1C        C  225   2.791   2.854   2.749 -0.4092  0.0047 -0.2240
    1C        C  226   2.669   2.710   2.906  0.1850 -0.5081 -0.1079
    1C        C  227   2.670   2.798   2.796 -0.2075 -0.0902  0.2103
    1C        C  228   2.546   2.671   2.964  0.0009 -0.3608 -0.3827
    1C        C  229   2.425   2.711   2.903  0.0226 -0.1207 -0.2816
    1C        C  230   2.300   2.605   3.087 -0.3699  0.0197  0.0013
    1C        C  231   2.303   2.673   2.962  0.1255 -0.2674 -0.1522
    1C        C  232   2.179   2.573   3.154 -0.1587 -0.4239  0.1815
    1C        C  233   2.061   2.617   3.091  0.1665 -0.1497 -0.2483
    1C        C  234   4.987   3.646   2.482  0.1755 -0.1468  0.2926
    1C        C  235   4.982   3.778   2.527 -0.0383 -0.2080  0.4514
    1C        C  236   4.870   3.567   2.481  0.2008 -0.1856 -0.1783
    1C        C  237   4.749   3.639   2.498  0.1206 -0.3512 -0.0253
    1C        C  238   4.626   3.428   2.503 -0.0743  0.1582 -0.2730
    1C        C  239   4.626   3.570   2.507 -0.1475  0.1471  0.2376
    1C        C  240   4.506   3.356   2.522 -0.1495  0.2336 -0.4455
    1C        C  241   4.384   3.426   2.519 -0.4515 -0.2467  0.2231
    1C        C  242   4.263   3.218   2.554  0.4021 -0.1017 -0.2083
    1C        C  243   4.262   3.355   2.520 -0.5600 -0.0661 -0.0617
    1C        C  244   4.141   3.154   2.581  0.1468  0.3319 -0.3166
    1C        C  245   4.019   3.224   2.565 -0.1016 -0.0557 -0.1551
    1C        C  246   3.891   3.027   2.641  0.0918 -0.3595 -0.2204
    1C        C  247   3.897   3.155   2.582  0.0503 -0.3344 -0.1705
    1C        C  248   3.768   2.969   2.680  0.2384 -0.2693  0.3847
    1C        C  249   3.645   3.025   2.639  0.3570 -0.1976  0.1205
    1C        C  250   3.521   2.856   2.762 -0.5499  0.0068  0.0688
    1C        C  251   3.521   2.968   2.675  0.2510 -0.1164 -0.1061
    1C        C  252   3.399   2.802   2.808 -0.4795 -0.2080  0.0151
    1C        C  253   3.277   2.858   2.764 -0.3779 -0.0729 -0.1121
    1C        C  254   3.156   2.710   2.913 -0.0097 -0.4155 -0.5856
    1C        C  255   3.154   2.802   2.806 -0.5131  0.3462  0.0643
    1C        C  256   3.033   2.668   2.968  0.1616 -0.5106 -0.2540
    1C        C  257   2.912   2.710   2.909  0.0971 -0.1012  0.1462
    1C        C  258   2.785   2.603   3.091 -0.1508 -0.5210 -0.0036
    1C        C  259   2.790   2.667   2.966  0.1504 -0.3696  0.0775
    1C        C  260   2.663   2.573   3.157 -0.2903 -0.2848 -0.1423
    1C        C  261   2.544   2.603   3.088 -0.1837 -0.2705 -0.3303
    1C        C  262   2.423   2.526   3.285 -0.0695 -0.1790 -0.3419
    1C        C  263   2.421   2.572   3.151 -0.2259 -0.0729 -0.3070
    1C        C  264   2.302   2.508   3.357  0.0736 -0.1295 -0.0873
    1C        C  265   2.179   2.521   3.288 -0.2204  0.4557  0.5342
    1C        C  266   2.071   2.439   3.493  0.1665  0.5249  0.2872
    1C        C  267   2.066   2.467   3.355 -0.4296  0.6268  0.3270
    1C        C  268   4.979   3.339   2.467  0.0298 -0.4628 -0.2828
    1C        C  269   4.868   3.424   2.482  0.3405 -0.1881  0.5050
    1C        C  270   4.747   3.221   2.556  0.2880  0.0952 -0.5540
    1C        C  271   4.747   3.356   2.511 -0.0781  0.1280 -0.4655
    1C        C  272   4.627   3.152   2.583  0.2798  0.4095  0.2265
    1C        C  273   4.505   3.218   2.554  0.3159  0.2757 -0.2391
    1C        C  274   4.382   3.024   2.642  0.1337  0.0845 -0.0951
    1C        C  275   4.384   3.148   2.574  0.4707  0.0072 -0.2311
    1C        C  276   4.260   2.966   2.681  0.2040  0.0831  0.1269
    1C        C  277   4.138   3.025   2.640  0.4139  0.5485  0.1727
    1C        C  278   4.012   2.858   2.763 -0.4178  0.2284 -0.1989
    1C        C  279   4.014   2.965   2.671  0.4349  0.4503  0.0688
    1C        C  280   3.891   2.803   2.812 -0.1622 -0.5659 -0.4460
    1C        C  281   3.769   2.857   2.766 -0.3441 -0.4511  0.1599
    1C        C  282   3.648   2.713   2.916  0.3621 -0.0684  0.0035
    1C        C  283   3.645   2.807   2.810 -0.5554  0.0044  0.0884
    1C        C  284   3.525   2.670   2.971  0.1666  0.2360 -0.1842
    1C        C  285   3.402   2.706   2.912 -0.0829 -0.0872  0.1216
    1C        C  286   3.277   2.607   3.096  0.1418  0.4290  0.2445
    1C        C  287   3.279   2.668   2.969 -0.1494 -0.1138 -0.0286
    1C        C  288   3.153   2.578   3.158  0.0240  0.9122  0.2458
    1C        C  289   3.030   2.605   3.094 -0.0706  0.2342  0.1228
    1C        C  290   2.908   2.532   3.292 -0.1680  0.0390  0.0225
    1C        C  291   2.907   2.576   3.157 -0.0541 -0.4919 -0.1601
    1C        C  292   2.786   2.510   3.360 -0.3042 -0.4097 -0.3443
    1C        C  293   2.664   2.530   3.292 -0.4115 -0.0277 -0.0541
    1C        C  294   2.542   2.490   3.499 -0.0593 -0.1082  0.1518
    1C        C  295   2.542   2.511   3.359 -0.3381  0.4664  0.2312
    1C        C  296   2.421   2.486   3.573  0.0925  0.6102  0.4486
    1C        C  297   2.302   2.493   3.498  0.3733  0.5247 -0.0133
    1C        C  298   2.178   2.474   3.716 -0.1035 -0.1726 -0.0451
    1C        C  299   2.185   2.463   3.573  0.5139 -0.0556 -0.0256
    1C        C  300   2.059   2.490   3.789  0.0770 -0.3284  0.2849
    1C        C  301   4.977   3.203   2.500  0.8575 -0.2963  0.4835
    1C        C  302   4.867   3.017   2.632 -0.0074  0.0736 -0.2349
    1C        C  303   4.865   3.142   2.562  0.1718 -0.0782 -0.5165
    1C        C  304   4.746   2.955   2.671 -0.0072  0.1927 -0.0406
    1C        C  305   4.626   3.022   2.639  0.0378  0.4478  0.3163
    1C        C  306   4.504   2.848   2.760 -0.1639  0.1663 -0.0278
    1C        C  307   4.504   2.960   2.674  0.1118 -0.0972 -0.3726
    1C        C  308   4.381   2.800   2.811 -0.2349  0.1638 -0.1994
    1C        C  309   4.258   2.852   2.764 -0.3875  0.0478  0.0721
    1C        C  310   4.138   2.713   2.918  0.1143 -0.0412 -0.2880
    1C        C  311   4.133   2.802   2.809 -0.4908  0.1211 -0.1348
    1C        C  312   4.017   2.669   2.976  0.3861 -0.4278 -0.0101
    1C        C  313   3.895   2.709   2.917  0.5176 -0.1847 -0.1215
    1C        C  314   3.765   2.606   3.098  0.4818  0.1246  0.0016
    1C        C  315   3.770   2.674   2.974  0.4630  0.6116  0.2648
    1C        C  316   3.643   2.578   3.163  0.3112  0.1200 -0.3123
    1C        C  317   3.521   2.607   3.098  0.2651  0.1734 -0.2090
    1C        C  318   3.396   2.530   3.294  0.1372  0.2693 -0.0902
    1C        C  319   3.399   2.578   3.162  0.2940  0.3960 -0.0442
    1C        C  320   3.273   2.516   3.363  0.1552  0.0919 -0.0882
    1C        C  321   3.152   2.534   3.292  0.1057  0.2297  0.0273
    1C        C  322   3.029   2.494   3.500 -0.1576  0.0246 -0.2032
    1C        C  323   3.030   2.513   3.360 -0.0166  0.2737 -0.1721
    1C        C  324   2.906   2.493   3.569 -0.1772  0.3127 -0.2309
    1C        C  325   2.783   2.494   3.501 -0.1495 -0.0082 -0.2887
    1C        C  326   2.665   2.494   3.715 -0.0901  0.2132  0.0078
    1C        C  327   2.662   2.489   3.574  0.0298 -0.0433  0.0118
    1C        C  328   2.542   2.504   3.785  0.1221  0.1467  0.3925
    1C        C  329   2.421   2.492   3.714  0.0503  0.4944  0.4535
    1C        C  330   2.298   2.531   3.924  0.0489 -0.2993  0.1182
    1C        C  331   2.299   2.495   3.786 -0.1728 -0.3590  0.1317
    1C        C  332   2.177   2.552   3.994  0.1900  0.3140  0.1841
    1C        C  333   2.058   2.510   3.928  0.2371  0.1160  0.2242
    1C        C  334   4.982   2.839   2.755 -0.6677  0.7821  0.3396
    1C        C  335   4.985   2.953   2.675  0.1514  0.4028 -0.1790
    1C        C  336   4.864   2.783   2.807 -0.3835  0.1518  0.3063
    1C        C  337   4.744   2.845   2.762 -0.2283  0.1842 -0.0533
    1C        C  338   4.622   2.698   2.917 -0.3804 -0.2278 -0.3419
    1C        C  339   4.623   2.792   2.811 -0.1880  0.0710 -0.0744
    1C        C  340   4.500   2.659   2.977 -0.3540  0.0722 -0.0903
    1C        C  341   4.382   2.711   2.920 -0.2608  0.1705 -0.1942
    1C        C  342   4.256   2.604   3.101  0.4535  0.6274  0.4368
    1C        C  343   4.259   2.670   2.977 -0.0647 -0.1481  0.0032
    1C        C  344   4.133   2.574   3.164  0.4928  0.5962  0.5011
    1C        C  345   4.010   2.601   3.100  0.5058 -0.1358  0.1592
    1C        C  346   3.886   2.535   3.299 -0.5504 -0.2803 -0.0507
    1C        C  347   3.886   2.573   3.163  0.4183 -0.1618 -0.0207
    1C        C  348   3.763   2.516   3.366 -0.4633 -0.7251 -0.0125
    1C        C  349   3.641   2.537   3.298 -0.1582  0.1710 -0.2988
    1C        C  350   3.518   2.498   3.505 -0.3152 -0.1800 -0.0239
    1C        C  351   3.518   2.518   3.365  0.0587 -0.4445 -0.0636
    1C        C  352   3.395   2.495   3.574 -0.2570 -0.1806  0.0797
    1C        C  353   3.273   2.500   3.503 -0.1443 -0.2681 -0.1232
    1C        C  354   3.152   2.500   3.714 -0.2677 -0.3670 -0.1879
    1C        C  355   3.150   2.493   3.573 -0.1676 -0.4902 -0.1837
    1C        C  356   3.029   2.510   3.783 -0.1645 -1.0584  0.1027
    1C        C  357   2.909   2.500   3.710 -0.0254 -0.7697 -0.1698
    1C        C  358   2.784   2.558   3.915  0.5134  0.4833 -0.3407
    1C        C  359   2.788   2.510   3.782  0.0389 -0.0829 -0.1520
    1C        C  360   2.662   2.579   3.982  0.4961 -0.6005 -0.0161
    1C        C  361   2.541   2.541   3.921  0.1321 -0.3199  0.5196
    1C        C  362   2.417   2.644   4.105  0.2876  0.3826 -0.1856
    1C        C  363   2.419   2.563   3.989 -0.0250 -0.1759  0.1960
    1C        C  364   2.297   2.685   4.166  0.3117  0.4163 -0.1592
    1C        C  365   2.177   2.630   4.114  0.1511  0.6398 -0.0272
    1C        C  366   2.057   2.782   4.263  0.1146 -0.3649  0.3457
    1C        C  367   2.060   2.668   4.184  0.1091 -0.4990  0.5360
    1C        C  368   4.975   2.608   2.953 -0.0013  0.7604  0.5452
    1C        C  369   4.862   2.680   2.907 -0.2497  0.3620  0.5250
    1C        C  370   4.738   2.585   3.100 -0.0996 -0.0600 -0.0122
    1C        C  371   4.742   2.653   2.975 -0.4545  0.0898  0.0593
    1C        C  372   4.618   2.559   3.169 -0.0534  0.3454  0.2229
    1C        C  373   4.498   2.594   3.103  0.0361  0.2954  0.0334
    1C        C  374   4.375   2.525   3.302 -0.0716  0.0669  0.3677
    1C        C  375   4.375   2.567   3.168  0.2827 -0.2328  0.2753
    1C        C  376   4.251   2.514   3.370 -0.1954  0.1881  0.1590
    1C        C  377   4.130   2.537   3.300 -0.3382 -0.2805  0.2538
    1C        C  378   4.007   2.500   3.509 -0.0508 -0.0993 -0.0354
    1C        C  379   4.008   2.523   3.369 -0.5366  0.2995  0.0265
    1C        C  380   3.884   2.504   3.578 -0.1148  0.2037 -0.1695
    1C        C  381   3.762   2.507   3.507 -0.2404  0.0473  0.0419
    1C        C  382   3.640   2.512   3.717 -0.2023  0.3527 -0.0539
    1C        C  383   3.639   2.496   3.577 -0.2996  0.2253 -0.0367
    1C        C  384   3.517   2.518   3.786 -0.2484 -0.1656 -0.0925
    1C        C  385   3.396   2.500   3.715 -0.3065 -0.5078  0.0931
    1C        C  386   3.271   2.554   3.918  0.0765 -0.1073 -0.0066
    1C        C  387   3.274   2.509   3.785 -0.3631  0.0607 -0.0730
    1C        C  388   3.150   2.588   3.983  0.2555  0.0070  0.2681
    1C        C  389   3.029   2.558   3.916  0.5633 -0.2802 -0.1650
    1C        C  390   2.902   2.665   4.098 -0.5147 -0.4209  0.0128
    1C        C  391   2.906   2.589   3.980  0.5878  0.1337 -0.3166
    1C        C  392   2.779   2.708   4.153 -0.3305 -0.2227  0.2683
    1C        C  393   2.659   2.653   4.103 -0.0483 -0.5236 -0.0722
    1C        C  394   2.538   2.798   4.256  0.1200  0.2180  0.0005
    1C        C  395   2.537   2.692   4.162  0.2507  0.0825  0.1489
    1C        C  396   2.417   2.853   4.302  0.1520 -0.1304  0.5073
    1C        C  397   2.296   2.792   4.262  0.1269  0.1757  0.1101
    1C        C  398   2.175   2.962   4.393  0.0379 -0.1294  0.2377
    1C        C  399   2.174   2.844   4.311  0.0377 -0.0867  0.1733
    1C        C  400   2.061   3.018   4.455 -0.1289 -0.1607 -0.0353
    1C        C  401   4.971   2.534   3.071 -0.4631 -0.1771 -0.0402
    1C        C  402   4.859   2.499   3.296 -0.0196 -0.1287  0.2332
    1C        C  403   4.859   2.536   3.158 -0.2880 -0.2831  0.1925
    1C        C  404   4.738   2.485   3.369 -0.1301 -0.3140  0.0177
    1C        C  405   4.617   2.505   3.299 -0.0783 -0.4640 -0.1106
    1C        C  406   4.496   2.487   3.511  0.0998 -0.3010  0.0604
    1C        C  407   4.496   2.499   3.371  0.0167 -0.3553  0.0572
    1C        C  408   4.375   2.493   3.584  0.0876 -0.0717  0.0167
    1C        C  409   4.254   2.502   3.511  0.0046 -0.5627  0.0913
    1C        C  410   4.126   2.511   3.718 -0.2548  0.2746 -0.0641
    1C        C  411   4.130   2.497   3.577 -0.0670 -0.1518 -0.0133
    1C        C  412   4.006   2.529   3.790 -0.2661  0.1150 -0.0533
    1C        C  413   3.884   2.514   3.719 -0.1692 -0.2374 -0.1398
    1C        C  414   3.760   2.567   3.923  0.2873 -0.1543 -0.0750
    1C        C  415   3.762   2.525   3.788 -0.1289 -0.0511 -0.1079
    1C        C  416   3.636   2.595   3.985  0.3126 -0.1849 -0.0227
    1C        C  417   3.515   2.560   3.921  0.3361 -0.0913 -0.1081
    1C        C  418   3.390   2.669   4.100 -0.3295  0.1042 -0.3828
    1C        C  419   3.391   2.589   3.983  0.2287  0.3114 -0.5133
    1C        C  420   3.267   2.714   4.153 -0.2823  0.0350 -0.2246
    1C        C  421   3.145   2.666   4.100 -0.4921  0.2200  0.0981
    1C        C  422   3.026   2.812   4.254 -0.2855  0.0660 -0.1253
    1C        C  423   3.023   2.710   4.156 -0.6397  0.0478 -0.0938
    1C        C  424   2.903   2.861   4.302 -0.3444 -0.0138 -0.2004
    1C        C  425   2.781   2.809   4.253 -0.4548  0.1495 -0.1019
    1C        C  426   2.659   2.977   4.377  0.5881  0.4834  0.2722
    1C        C  427   2.658   2.856   4.302 -0.1355  0.3227  0.5314
    1C        C  428   2.537   3.040   4.409  0.2671  0.1384 -0.2430
    1C        C  429   2.417   2.973   4.377  0.2055 -0.0597  0.3979
    1C        C  430   2.289   3.166   4.467 -0.2641  0.1883 -0.7332
    1C        C  431   2.295   3.034   4.416  0.0613 -0.0895  0.0046
    1C        C  432   2.169   3.230   4.509  0.1159 -0.0743  0.8152
    1C        C  433   2.057   3.143   4.515  0.0545 -0.0820 -0.1826
    1C        C  434   4.979   2.485   3.514  0.1205 -0.2827  0.1540
    1C        C  435   4.976   2.496   3.375  0.0104  0.6768  0.2244
    1C        C  436   4.858   2.478   3.586 -0.0190  0.0902 -0.0414
    1C        C  437   4.736   2.478   3.512 -0.0547 -0.4006  0.0132
    1C        C  438   4.616   2.493   3.726 -0.1794 -0.1032  0.1455
    1C        C  439   4.616   2.486   3.585  0.0509  0.0266  0.1406
    1C        C  440   4.495   2.508   3.797 -0.2486 -0.0013  0.0015
    1C        C  441   4.373   2.501   3.725 -0.2443 -0.2967  0.0240
    1C        C  442   4.249   2.563   3.923 -0.0504  0.6211 -0.2629
    1C        C  443   4.248   2.518   3.789 -0.2420  0.0763 -0.0763
    1C        C  444   4.128   2.590   3.991 -0.0041  0.0535  0.0441
    1C        C  445   4.005   2.567   3.926  0.0586 -0.2416  0.0446
    1C        C  446   3.880   2.672   4.107 -0.3630 -0.2087  0.2155
    1C        C  447   3.882   2.595   3.989  0.1501 -0.0467  0.1237
    1C        C  448   3.757   2.720   4.157 -0.4674  0.0942 -0.3324
    1C        C  449   3.635   2.676   4.101 -0.5052 -0.0343 -0.1401
    1C        C  450   3.516   2.816   4.255 -0.4733  0.2850 -0.3010
    1C        C  451   3.511   2.714   4.157 -0.4549  0.1790 -0.1874
    1C        C  452   3.393   2.867   4.301 -0.3667  0.1731  0.0955
    1C        C  453   3.272   2.815   4.251 -0.1697 -0.1097 -0.0844
    1C        C  454   3.145   2.984   4.376  0.7184  0.0861 -0.4511
    1C        C  455   3.148   2.867   4.297 -0.1889 -0.3176  0.0884
    1C        C  456   3.022   3.045   4.411  0.6577 -0.2410 -0.0743
    1C        C  457   2.901   2.982   4.375  0.5573  0.1669 -0.4729
    1C        C  458   2.773   3.174   4.465  0.3696  0.0595  0.5945
    1C        C  459   2.779   3.045   4.408  0.7526  0.4358 -0.2417
    1C        C  460   2.651   3.242   4.488  0.1393 -0.2709  0.4025
    1C        C  461   2.532   3.171   4.463  0.0299  0.0854 -0.1264
    1C        C  462   2.409   3.377   4.510 -0.3840 -0.1929  0.2753
    1C        C  463   2.409   3.238   4.483 -0.1403  0.0253 -0.8953
    1C        C  464   2.288   3.447   4.531 -0.1184  0.3205  0.1248
    1C        C  465   2.170   3.370   4.534 -0.0684  0.1969 -0.5870
    1C        C  466   2.051   3.585   4.570  0.1641  0.1810  0.2516
    1C        C  467   2.053   3.446   4.556  0.1151  0.1339  0.6840
    1C        C  468   4.972   2.474   3.812  0.0836 -0.2537 -0.2819
    1C        C  469   4.858   2.476   3.729 -0.0873 -0.0807 -0.0448
    1C        C  470   4.735   2.552   3.930 -0.0144 -1.0491  0.3561
    1C        C  471   4.737   2.497   3.799 -0.0837 -0.1715 -0.0123
    1C        C  472   4.615   2.594   3.991  0.0736 -0.1319 -0.0995
    1C        C  473   4.493   2.560   3.928  0.0127 -0.3912  0.1608
    1C        C  474   4.368   2.664   4.111 -0.1924  0.2819 -0.2441
    1C        C  475   4.370   2.589   3.991 -0.0167  0.0966 -0.1238
    1C        C  476   4.247   2.716   4.161 -0.3587 -0.0250 -0.3303
    1C        C  477   4.124   2.672   4.106 -0.5467  0.1953 -0.0774
    1C        C  478   4.007   2.811   4.266 -0.2807  0.3283 -0.0108
    1C        C  479   4.002   2.714   4.164 -0.4540  0.2719  0.0550
    1C        C  480   3.885   2.870   4.306 -0.5472 -0.0972 -0.2055
    1C        C  481   3.762   2.819   4.258 -0.5717  0.0134 -0.2536
    1C        C  482   3.634   2.989   4.379  0.5566  0.2569 -0.2473
    1C        C  483   3.638   2.872   4.299 -0.4705  0.0407  0.0040
    1C        C  484   3.512   3.051   4.412  0.6126  0.0265  0.3811
    1C        C  485   3.391   2.987   4.376  0.6110  0.1905  0.1070
    1C        C  486   3.262   3.178   4.462 -0.4392  0.1476  0.1423
    1C        C  487   3.267   3.046   4.411  0.5566  0.4064 -0.4541
    1C        C  488   3.140   3.243   4.487 -0.4107  0.1798  0.2052
    1C        C  489   3.017   3.176   4.465 -0.0873 -0.5780  0.6944
    1C        C  490   2.900   3.378   4.520 -0.6744  0.2708  0.4288
    1C        C  491   2.894   3.240   4.491  0.2933  0.1590  0.7161
    1C        C  492   2.777   3.448   4.525 -0.6221  0.3929  0.1907
    1C        C  493   2.654   3.380   4.518 -0.3277 -0.1138 -0.2440
    1C        C  494   2.533   3.590   4.522  0.4628 -0.1743 -0.2484
    1C        C  495   2.530   3.448   4.522 -0.3577 -0.1662 -0.0897
    1C        C  496   2.411   3.660   4.514  0.3632 -0.3529 -0.3924
    1C        C  497   2.289   3.589   4.523  0.0062  0.3646  0.7760
    1C        C  498   2.170   3.793   4.479  0.2400  0.3467  0.1418
    1C        C  499   2.166   3.660   4.531  0.0537  0.4893  0.5020
    1C        C  500   2.051   3.857   4.439  0.0593 -0.1544 -0.1374
    1C        C  501   4.968   2.515   3.946 -0.0777  0.2787 -0.4480
    1C        C  502   4.854   2.665   4.117 -0.0884 -0.3029  0.2069
    1C        C  503   4.855   2.581   4.002 -0.1147 -0.3481  0.2383
    1C        C  504   4.732   2.709   4.175 -0.2279 -0.6144  0.1524
    1C        C  505   4.613   2.672   4.108 -0.2284  0.0338 -0.2142
    1C        C  506   4.495   2.816   4.261  0.1699  0.8935 -0.9412
    1C        C  507   4.490   2.715   4.162 -0.1570 -0.0879  0.0476
    1C        C  508   4.372   2.869   4.308 -0.1969 -0.4139 -0.3509
    1C        C  509   4.250   2.816   4.260 -0.3687 -0.1864 -0.1691
    1C        C  510   4.125   2.988   4.386  0.9639 -0.1380  0.4183
    1C        C  511   4.129   2.871   4.306 -0.1738  0.1024  0.0046
    1C        C  512   4.002   3.049   4.418  0.7020 -0.5677  0.2391
    1C        C  513   3.879   2.991   4.377  0.5979 -0.0514 -0.1804
    1C        C  514   3.752   3.183   4.465 -0.5064 -0.0398 -0.0321
    1C        C  515   3.756   3.053   4.408  0.6467  0.1138 -0.3184
    1C        C  516   3.629   3.249   4.485 -0.2914  0.4157 -0.1907
    1C        C  517   3.506   3.182   4.464 -0.1802  0.1842 -0.0976
    1C        C  518   3.389   3.385   4.520 -0.6356 -0.1846  0.5579
    1C        C  519   3.382   3.249   4.482 -0.2937  0.0110 -0.2330
    1C        C  520   3.267   3.454   4.533 -0.4527  0.1417  0.5760
    1C        C  521   3.146   3.381   4.516 -0.4342  0.1799  0.2285
    1C        C  522   3.019   3.590   4.520  1.2373  0.0995  0.0579
    1C        C  523   3.022   3.449   4.524 -0.5217  0.0375  0.1253
    1C        C  524   2.898   3.662   4.510  1.3455  0.2006 -0.6702
    1C        C  525   2.777   3.590   4.521  1.2590  0.4150 -0.1217
    1C        C  526   2.648   3.800   4.492 -0.1911 -0.5732  0.0668
    1C        C  527   2.655   3.661   4.515  0.6914 -0.4983  0.3093
    1C        C  528   2.529   3.870   4.465 -0.1049 -0.2271  0.5483
    1C        C  529   2.409   3.797   4.482 -0.1641 -0.1667  0.4011
    1C        C  530   2.291   3.996   4.394  0.1516  0.3687  0.0839
    1C        C  531   2.289   3.865   4.451  0.2124  0.4164  0.1990
    1C        C  532   2.168   4.056   4.354  0.1434  0.2306 -0.1064
    1C        C  533   2.050   3.981   4.375  0.2698  0.1940  0.5219
    1C        C  534   4.975   2.813   4.272 -0.0658  0.1573  0.2789
    1C        C  535   4.973   2.715   4.174 -0.2868  0.5028 -0.0665
    1C        C  536   4.855   2.863   4.328 -0.3368  0.3381 -0.4485
    1C        C  537   4.734   2.809   4.276 -0.1856 -0.3332 -0.1240
    1C        C  538   4.608   2.980   4.404  0.4923  0.3299 -0.2134
    1C        C  539   4.613   2.867   4.320  0.0799  0.3294 -0.2441
    1C        C  540   4.487   3.046   4.435  0.3573 -0.4218  0.9378
    1C        C  541   4.368   2.984   4.390  0.7982 -0.4786 -0.1923
    1C        C  542   4.242   3.178   4.478 -0.5819 -0.1795  0.2028
    1C        C  543   4.247   3.048   4.425  1.0665 -0.0267 -0.0645
    1C        C  544   4.119   3.247   4.492 -0.5525 -0.0844  0.0374
    1C        C  545   3.996   3.179   4.473 -0.3633 -0.2656 -0.5580
    1C        C  546   3.883   3.386   4.520 -0.1414 -0.3016  0.2904
    1C        C  547   3.874   3.248   4.492 -0.3019 -0.0649 -0.8680
    1C        C  548   3.759   3.454   4.524 -0.0516 -0.1209  0.0241
    1C        C  549   3.635   3.386   4.516 -0.3172  0.3497  0.1069
    1C        C  550   3.511   3.596   4.530  1.1680 -0.2003  0.2106
    1C        C  551   3.512   3.454   4.530 -0.5985 -0.2353  0.4898
    1C        C  552   3.387   3.664   4.519  1.2938  0.0126  0.1060
    1C        C  553   3.264   3.595   4.528  1.2149  0.1822  0.3379
    1C        C  554   3.136   3.799   4.478 -0.5245 -0.0114 -0.2115
    1C        C  555   3.141   3.662   4.514  1.2078  0.1770  0.3479
    1C        C  556   3.014   3.867   4.458 -0.4148  0.1452 -0.3678
    1C        C  557   2.891   3.800   4.480 -0.4295  0.2930  0.0170
    1C        C  558   2.778   3.992   4.396 -0.4216 -0.0058 -0.0949
    1C        C  559   2.769   3.867   4.461 -0.5512  0.0984  0.0917
    1C        C  560   2.656   4.054   4.360 -0.3598 -0.1017 -0.4845
    1C        C  561   2.534   3.995   4.400 -0.0096 -0.4788  0.0604
    1C        C  562   2.409   4.166   4.272  0.0405  0.1124  0.2920
    1C        C  563   2.413   4.058   4.362  0.2675  0.4688  0.7123
    1C        C  564   2.290   4.226   4.226 -0.0362 -0.2037  0.0728
    1C        C  565   2.168   4.176   4.277 -0.2123  0.5923  0.4476
    1C        C  566   2.056   4.362   4.156 -0.1018 -0.0872 -0.0702
    1C        C  567   2.057   4.260   4.252 -0.4420  0.2449  0.2890
    1C        C  568   4.960   3.020   4.493 -0.1825 -0.1246  0.2078
    1C        C  569   4.848   2.969   4.424 -0.1348 -0.2357  0.2081
    1C        C  570   4.725   3.169   4.507  0.2873  0.6710 -0.1640
    1C        C  571   4.728   3.038   4.452  0.2845  0.5986 -0.0006
    1C        C  572   4.606   3.244   4.521 -0.3563 -0.3736  0.0787
    1C        C  573   4.486   3.178   4.486 -0.5250 -0.0773  0.0725
    1C        C  574   4.367   3.385   4.530 -0.3800 -0.0541 -0.3309
    1C        C  575   4.363   3.246   4.505 -0.5655 -0.1105 -0.0255
    1C        C  576   4.246   3.456   4.537 -0.2489  0.1300  0.2091
    1C        C  577   4.125   3.385   4.518 -0.0909 -0.0895 -0.0233
    1C        C  578   3.999   3.599   4.531  0.5247 -0.2516  0.2999
    1C        C  579   4.004   3.458   4.528 -0.1645 -0.2910  0.6330
    1C        C  580   3.877   3.669   4.520  0.7034  0.0155 -0.0523
    1C        C  581   3.756   3.595   4.522  0.7645 -0.1093 -0.7480
    1C        C  582   3.626   3.802   4.484 -0.6876  0.2945  0.4079
    1C        C  583   3.633   3.665   4.517  0.9020  0.1582 -0.4243
    1C        C  584   3.501   3.866   4.462 -0.6476  0.4897  0.7420
    1C        C  585   3.378   3.801   4.486 -0.4758 -0.1001  0.0503
    1C        C  586   3.270   3.994   4.394 -0.3306 -0.0649 -0.0922
    1C        C  587   3.257   3.867   4.456 -0.4315 -0.2731 -0.5264
    1C        C  588   3.147   4.053   4.359 -0.2749  0.2047  0.1645
    1C        C  589   3.024   3.993   4.394 -0.3953  0.2864 -0.0950
    1C        C  590   2.899   4.164   4.272  0.6753  0.1174 -0.3219
    1C        C  591   2.901   4.052   4.358 -0.4828 -0.3323 -0.8544
    1C        C  592   2.777   4.218   4.225  0.6142  0.2906  0.0293
    1C        C  593   2.655   4.166   4.274  0.5756  0.0579 -0.3080
    1C        C  594   2.533   4.311   4.120 -0.2004  0.2938  0.8233
    1C        C  595   2.533   4.213   4.222  0.1872 -0.2956  0.2664
    1C        C  596   2.414   4.357   4.058 -0.0606  0.0892  0.3960
    1C        C  597   2.292   4.318   4.117 -0.1488 -0.4592 -0.1473
    1C        C  598   2.172   4.436   3.943 -0.1862 -0.2180 -0.0212
    1C        C  599   2.171   4.379   4.074 -0.0171 -0.0473  0.0553
    1C        C  600   2.054   4.453   3.869 -0.1866 -0.5241 -0.0916
    1C        C  601   4.957   3.145   4.556  0.1019 -0.0875  0.1528
    1C        C  602   4.849   3.375   4.557 -0.0459  0.2263  0.4706
    1C        C  603   4.845   3.232   4.547  0.2901  0.2052  0.5817
    1C        C  604   4.732   3.455   4.555 -0.1322  0.1081  0.5637
    1C        C  605   4.611   3.383   4.544  0.1907 -0.3666 -0.0341
    1C        C  606   4.487   3.597   4.540  0.5739 -0.6687 -0.0975
    1C        C  607   4.489   3.455   4.538 -0.0324 -0.6948  0.2886
    1C        C  608   4.365   3.668   4.532  0.8705 -0.0965  0.3313
    1C        C  609   4.243   3.598   4.536  0.6936  0.1579 -0.3391
    1C        C  610   4.120   3.808   4.498 -0.3693 -0.0987 -0.5461
    1C        C  611   4.122   3.669   4.528  0.4991 -0.2298 -1.1387
    1C        C  612   3.997   3.872   4.473 -0.4179 -0.0159 -0.1336
    1C        C  613   3.873   3.806   4.488 -0.4208  0.0643  0.2506
    1C        C  614   3.759   3.996   4.402 -0.2093 -0.3312 -0.1057
    1C        C  615   3.748   3.869   4.464 -0.5079  0.0030  0.5295
    1C        C  616   3.636   4.052   4.361 -0.2173 -0.4846 -0.3012
    1C        C  617   3.514   3.990   4.395 -0.4318 -0.1102 -0.3605
    1C        C  618   3.389   4.162   4.269  1.1313  0.0302 -0.3365
    1C        C  619   3.393   4.052   4.357 -0.4076 -0.0234 -0.2991
    1C        C  620   3.267   4.214   4.221  1.0164 -0.0831 -0.1776
    1C        C  621   3.144   4.164   4.271  1.0309  0.4615  0.4285
    1C        C  622   3.019   4.307   4.116 -0.1678 -0.0400  0.1970
    1C        C  623   3.021   4.214   4.223  0.9339  0.2459  0.4371
    1C        C  624   2.898   4.355   4.062 -0.0278  0.3300  0.2040
    1C        C  625   2.776   4.312   4.120 -0.0679  0.7405  0.4259
    1C        C  626   2.655   4.420   3.938 -0.0061 -0.3431  0.2904
    1C        C  627   2.655   4.355   4.063 -0.3077  0.4063  0.6825
    1C        C  628   2.535   4.450   3.869  0.1115 -0.4808  0.0293
    1C        C  629   2.413   4.428   3.936  0.1388 -0.4439  0.0868
    1C        C  630   2.292   4.500   3.733  0.1916 -0.7555  0.1972
    1C        C  631   2.293   4.462   3.871  0.0412 -0.3951  0.2969
    1C        C  632   2.172   4.520   3.659  0.1731 -1.0871  0.1403
    1C        C  633   2.057   4.504   3.739 -0.0160 -0.0848  0.0828
    1C        C  634   4.969   3.592   4.549  0.2571  0.2376 -0.0430
    1C        C  635   4.967   3.453   4.552 -0.0659  0.2476  0.2847
    1C        C  636   4.852   3.670   4.541  0.2550  0.3017  0.5784
    1C        C  637   4.730   3.597   4.548  0.3489  0.1023  0.1892
    1C        C  638   4.608   3.806   4.503 -0.1766 -0.1364 -0.2633
    1C        C  639   4.609   3.669   4.538  0.2458 -0.0963 -0.0801
    1C        C  640   4.486   3.873   4.478 -0.0588  0.1537 -0.0976
    1C        C  641   4.364   3.805   4.498  0.1251 -0.2113 -0.1499
    1C        C  642   4.248   4.001   4.415 -0.2057 -0.3118  0.4804
    1C        C  643   4.243   3.875   4.479 -0.0604 -0.3619  0.4102
    1C        C  644   4.126   4.060   4.375 -0.0524 -0.1889  0.1639
    1C        C  645   4.004   3.999   4.412 -0.2462 -0.0920 -0.2833
    1C        C  646   3.879   4.168   4.284  1.2311  0.0518 -0.0402
    1C        C  647   3.882   4.059   4.373 -0.3091 -0.1900 -0.2514
    1C        C  648   3.758   4.216   4.230  1.0611 -0.5292 -0.1952
    1C        C  649   3.634   4.162   4.272  0.9800 -0.2954 -0.1181
    1C        C  650   3.508   4.307   4.116 -0.4381  0.2178 -0.0428
    1C        C  651   3.512   4.211   4.220  1.1618  0.2522 -0.0500
    1C        C  652   3.386   4.352   4.061 -0.4555  0.1699 -0.0521
    1C        C  653   3.263   4.311   4.118 -0.3838  0.2463  0.1579
    1C        C  654   3.147   4.424   3.939 -0.2239  0.4230  0.2319
    1C        C  655   3.141   4.354   4.062 -0.3447  0.5324  0.2890
    1C        C  656   3.024   4.453   3.875 -0.0380  0.3845 -0.1436
    1C        C  657   2.902   4.429   3.942  0.0936 -0.1481 -0.0898
    1C        C  658   2.779   4.492   3.742 -0.4322  0.2682  0.3295
    1C        C  659   2.778   4.457   3.879 -0.0765 -0.2636  0.1937
    1C        C  660   2.658   4.507   3.670 -0.2232  0.3787  0.0066
    1C        C  661   2.534   4.494   3.734 -0.0969 -0.1534  0.1406
    1C        C  662   2.417   4.523   3.522  0.3281 -0.6926 -0.0777
    1C        C  663   2.413   4.511   3.662  0.0053 -0.2629 -0.0502
    1C        C  664   2.298   4.527   3.447  0.2660 -0.4007  0.0423
    1C        C  665   2.174   4.534   3.517  0.3791 -0.2483  0.2223
    1C        C  666   2.057   4.536   3.438  0.3481 -0.7250  0.2539
    1C        C  667   4.973   3.879   4.484  0.1011 -0.3684 -0.6386
    1C        C  668   4.852   3.808   4.502 -0.1041  0.0566 -0.3197
    1C        C  669   4.730   4.001   4.412 -0.4451  0.0422  0.0851
    1C        C  670   4.729   3.873   4.476 -0.1966  0.1621  0.3425
    1C        C  671   4.609   4.064   4.376 -0.3199  0.1464 -0.1800
    1C        C  672   4.489   4.000   4.417 -0.2888  0.3266  0.2276
    1C        C  673   4.368   4.168   4.282  0.2176 -0.3941 -0.2690
    1C        C  674   4.369   4.060   4.373 -0.4481  0.1529  0.4042
    1C        C  675   4.245   4.219   4.234  0.2381  0.3189  0.4066
    1C        C  676   4.124   4.170   4.285  0.3591  0.1440  0.5433
    1C        C  677   3.997   4.308   4.125 -0.1312 -0.0224 -0.8318
    1C        C  678   4.002   4.220   4.235  0.8926  0.5481 -0.3944
    1C        C  679   3.876   4.352   4.067 -0.6630 -0.1097  0.1695
    1C        C  680   3.754   4.306   4.121 -0.6663 -0.1214  0.1637
    1C        C  681   3.638   4.421   3.942  0.0506  0.4662  0.0777
    1C        C  682   3.632   4.351   4.065 -0.4436  0.1703 -0.1054
    1C        C  683   3.516   4.449   3.876 -0.0946  0.3747  0.2995
    1C        C  684   3.392   4.424   3.939 -0.2422  0.0580 -0.1090
    1C        C  685   3.269   4.498   3.742 -0.0893  0.0865 -0.0070
    1C        C  686   3.269   4.452   3.875 -0.2806  0.2882  0.0633
    1C        C  687   3.147   4.510   3.672 -0.1339  0.1602  0.0844
    1C        C  688   3.024   4.492   3.739 -0.2969 -0.1036 -0.2817
    1C        C  689   2.904   4.517   3.531  0.0080 -0.1291  0.1758
    1C        C  690   2.901   4.507   3.672 -0.5129  0.2637  0.1912
    1C        C  691   2.783   4.513   3.458  0.0784  0.1454  0.0520
    1C        C  692   2.661   4.517   3.529  0.0364 -0.0259 -0.0153
    1C        C  693   2.541   4.518   3.454  0.2103 -0.4919 -0.3039
    1C        C  694   4.971   3.998   4.412 -0.3068  0.2472  0.3750
    1C        C  695   4.853   4.182   4.294  0.5939 -0.0541  0.1012
    1C        C  696   4.852   4.062   4.373 -0.3846 -0.0265  0.1491
    1C        C  697   4.730   4.229   4.242  0.5182 -0.2425  0.0924
    1C        C  698   4.608   4.176   4.290  0.2399  0.3825  0.1042
    1C        C  699   4.487   4.322   4.132 -0.0364  0.3543  0.2941
    1C        C  700   4.488   4.229   4.238  0.1125  0.0551  0.0422
    1C        C  701   4.364   4.359   4.074 -0.0337 -0.0140  0.0347
    1C        C  702   4.242   4.313   4.128 -0.0165 -0.3006 -0.1502
    1C        C  703   4.127   4.426   3.949 -0.0890  0.3719 -0.0448
    1C        C  704   4.119   4.352   4.069  0.1219  0.1720 -0.1490
    1C        C  705   4.006   4.456   3.883 -0.2421 -0.0168  0.0513
    1C        C  706   3.883   4.427   3.947 -0.1686 -0.2836  0.0827
    1C        C  707   3.758   4.497   3.747  0.0966  0.4163 -0.0661
    1C        C  708   3.761   4.451   3.880  0.0386 -0.0893 -0.2332
    1C        C  709   3.637   4.511   3.676  0.1386  0.2040 -0.1853
    1C        C  710   3.513   4.493   3.742  0.3373 -0.4466  0.0145
    1C        C  711   3.395   4.524   3.531 -0.4585  0.6580  0.4630
    1C        C  712   3.391   4.508   3.672  0.1611  0.0091  0.4132
    1C        C  713   3.273   4.520   3.461 -0.1223  0.0738 -0.0963
    1C        C  714   3.150   4.517   3.531 -0.0160  0.4075  0.1018
    1C        C  715   3.027   4.516   3.461 -0.0228  0.4928  0.1185
    1C        C  716   4.965   4.368   4.176 -0.1435  0.2791  0.0521
    1C        C  717   4.966   4.260   4.265  0.1756  0.7896  0.6775
    1C        C  718   4.851   4.385   4.092 -0.1932  0.1168  0.0811
    1C        C  719   4.730   4.327   4.140 -0.0605  0.0828  0.3925
    1C        C  720   4.612   4.442   3.958 -0.1256 -0.1658 -0.0017
    1C        C  721   4.610   4.371   4.080  0.0419 -0.0450  0.0793
    1C        C  722   4.491   4.469   3.892 -0.1016  0.5524  0.2309
    1C        C  723   4.369   4.434   3.954 -0.0358  0.3193  0.2357
    1C        C  724   4.247   4.501   3.751  0.7185  0.1030 -0.0570
    1C        C  725   4.248   4.464   3.888  0.0381 -0.1011 -0.0993
    1C        C  726   4.125   4.511   3.680  0.5259 -0.5009  0.1780
    1C        C  727   4.002   4.497   3.748  0.3678 -0.3404 -0.0705
    1C        C  728   3.883   4.523   3.538 -0.3725  0.1659  0.1018
    1C        C  729   3.881   4.517   3.679  0.2910 -0.1959  0.0993
    1C        C  730   3.761   4.522   3.466 -0.3582 -0.0666  0.0809
    1C        C  731   3.638   4.523   3.535 -0.5463 -0.4098 -0.2490
    1C        C  732   3.518   4.523   3.460 -0.7134 -0.1739  0.0198
    1C        C  733   4.972   4.489   3.899 -0.2797  0.4248 -0.4491
    1C        C  734   4.853   4.457   3.968  0.0994  0.0642  0.0521
    1C        C  735   4.735   4.526   3.762 -0.2514  0.2170  0.2960
    1C        C  736   4.733   4.485   3.899 -0.0340 -0.1296  0.1993
    1C        C  737   4.614   4.530   3.690  0.0412  0.2681 -0.1981
    1C        C  738   4.491   4.508   3.756  0.2250  0.1693  0.1177
    1C        C  739   4.369   4.529   3.543 -0.2550 -0.3210 -0.3976
    1C        C  740   4.370   4.520   3.684  0.5184  0.3574 -0.3534
    1C        C  741   4.249   4.530   3.469 -0.5793 -0.3879  0.1226
    1C        C  742   4.127   4.527   3.540 -0.5441 -0.2065  0.1914
    1C        C  743   4.005   4.523   3.468 -0.4306 -0.1420 -0.0014
    1C        C  744   4.974   4.543   3.771 -0.1615  0.2336 -0.5295
    1C        C  745   4.857   4.564   3.551  0.1261  0.5093 -0.0026
    1C        C  746   4.857   4.551   3.693 -0.5001  0.6645  0.0139
    1C        C  747   4.739   4.536   3.478  0.3623 -0.7580  0.0860
    1C        C  748   4.616   4.535   3.549  0.1839 -0.1744 -0.2140
    1C        C  749   4.495   4.528   3.478  0.0000 -0.0641  0.0898
    1C        C  750   4.966   4.599   3.468  0.0764  0.7278  0.0252
    1C        O  751   5.061   2.449   4.027 -0.5362  0.3103  0.1117
    1C        H  752   5.142   2.412   3.980  0.2755  0.0910  1.6283
    1C        O  753   5.050   3.153   4.661  0.1893  0.1617  0.0576
    1C        H  754   5.115   3.077   4.672 -0.9694 -0.6793  1.4215
    1C        O  755   5.066   2.430   3.072 -0.4316 -0.1534 -0.5651
    1C        H  756   5.149   2.443   3.017  1.3237 -0.3079  1.9079
    1C        O  757   5.049   4.471   4.221 -0.0621  0.1358  0.2302
    1C        H  758   5.126   4.436   4.275 -0.1754  0.6476  0.7294
    1C        O  759   5.074   4.654   3.267 -0.1630 -0.2673  0.3848
    1C        H  760   5.153   4.658   3.329  0.0607 -0.0895  0.0897
    1C        O  761   5.078   3.127   2.440  0.3522 -0.8192  0.2844
    1C        H  762   5.165   3.177   2.425 -0.5918  0.8793  0.3085
    1C        O  763   5.076   4.064   2.514 -0.1704 -0.3296 -0.1390
    1C        H  764   5.151   4.129   2.529 -0.4444 -0.2058  0.7065
    1C        O  765   1.971   2.428   4.001  0.2214 -0.4129 -0.3760
    1C        H  766   1.914   2.381   3.933 -0.8602  2.3986 -1.5638
    1C        O  767   1.932   2.478   3.315 -0.4797  0.4246  0.4346
    1C        H  768   1.868   2.425   3.373 -1.3280  1.2196  0.2408
    1C        O  769   1.978   3.628   4.682 -0.1293 -0.1051  0.1718
    1C        H  770   1.892   3.576   4.687 -1.4333  1.8843 -0.0594
    1C        O  771   2.048   2.863   2.473  0.0930 -0.7254  0.3934
    1C        H  772   2.115   2.887   2.401 -1.0055 -3.7313 -1.8437
    1C        O  773   1.956   3.845   2.413 -0.2887 -0.4656  0.0017
    1C        H  774   1.866   3.800   2.407 -0.4175 -0.2295  0.1175
    1C        O  775   1.985   4.596   3.002 -0.4130  0.0683  0.3969
    1C        H  776   2.019   4.672   3.059  1.3943  1.0592 -1.8365
    1C        O  777   1.985   4.478   4.188 -0.1507 -0.1289 -0.0264
    1C        H  778   1.907   4.463   4.250 -0.1969  1.0654  0.2368
    1C        H  779   5.069   2.701   4.125 -0.3957  2.0996 -0.8161
    1C        H  780   5.072   2.832   4.314 -0.7929  1.1432  1.6142
    1C        H  781   5.039   2.957   4.531  0.4455  0.5719  0.0719
    1C        H  782   5.060   3.405   4.575 -1.3028 -1.4029  2.1827
    1C        H  783   5.063   3.637   4.578  0.5554 -0.0836 -0.4880
    1C        H  784   5.064   2.431   3.775 -0.2719  0.3353 -1.9362
    1C        H  785   5.072   2.447   3.553  1.4257  1.5306 -1.0227
    1C        H  786   5.076   2.487   3.334 -0.3578 -0.3648 -0.4810
    1C        H  787   5.065   2.608   2.893 -0.0730  0.3629  0.4288
    1C        H  788   5.078   2.790   2.764 -1.0399  0.1573  1.0126
    1C        H  789   5.082   2.962   2.628  0.5009 -2.5614 -0.2196
    1C        H  790   5.077   3.381   2.451  0.6181 -0.9545  1.8154
    1C        H  791   5.064   3.630   2.408 -0.6973 -0.2570 -0.6096
    1C        H  792   5.081   3.816   2.548  0.1732  0.0496 -0.9179
    1C        H  793   5.048   4.265   2.682  0.4900  0.0457  1.3213
    1C        H  794   5.057   4.415   2.858 -0.2305 -1.0357 -1.4076
    1C        H  795   5.057   4.528   3.057 -0.4551  0.0431  0.8886
    1C        H  796   5.061   4.618   3.517  0.4293  1.0335 -0.7674
    1C        H  797   5.063   4.599   3.745 -0.8607  0.9066 -1.5431
    1C        H  798   5.071   4.472   3.939  0.3177  0.8685 -1.6987
    1C        H  799   5.067   4.235   4.292  0.8845  3.0985  0.4306
    1C        H  800   5.069   4.019   4.372 -0.1168  0.2296  0.8170
    1C        H  801   5.039   3.882   4.569 -0.1202 -1.9854 -0.3681
    1C        H  802   1.958   3.398   4.574  0.5046  0.0679  2.8614
    1C        H  803   1.986   3.153   4.596 -0.4075  2.2691 -0.8014
    1C        H  804   1.989   2.951   4.499 -1.5819  0.3183 -1.5500
    1C        H  805   1.960   2.794   4.310 -0.5597  0.9717 -1.2733
    1C        H  806   1.997   2.589   4.224 -1.8233  0.7552  0.1278
    1C        H  807   1.965   2.464   3.743  0.2093  1.5058 -1.1538
    1C        H  808   1.975   2.414   3.536  0.5464 -1.8598 -0.1360
    1C        H  809   1.970   2.559   3.094 -0.6868  1.1428 -0.4280
    1C        H  810   1.965   2.724   2.941 -0.7967 -1.4309 -1.4051
    1C        H  811   2.001   2.750   2.690 -1.0665  1.2927  0.0210
    1C        H  812   1.978   3.165   2.479  0.0839 -1.5132  2.0962
    1C        H  813   1.990   3.377   2.402  0.5582  0.0215 -0.7854
    1C        H  814   1.985   3.606   2.405 -0.7445 -0.1130  1.5532
    1C        H  815   1.972   4.030   2.581  0.1207  0.6107  0.5341
    1C        H  816   1.983   4.419   2.817 -0.5619  2.6655  1.7341
    1C        H  817   1.995   4.258   2.646 -0.6908  0.2933  2.2002
    1C        H  818   1.970   4.556   3.247 -0.1694 -2.0300 -0.0271
    1C        H  819   1.954   4.553   3.466  0.0599 -2.0669  0.0508
    1C        H  820   1.964   4.551   3.712 -0.3147 -1.2758 -1.0851
    1C        H  821   1.991   4.366   3.865 -1.7888  0.4785  1.6269
    1C        H  822   1.973   4.261   4.320 -3.2983 -2.0662 -2.8726
    1C        H  823   1.952   4.026   4.372 -0.1860 -0.8266 -1.1753
    1C        H  824   1.970   3.795   4.404  0.8950 -1.4709  0.2031
    2V3OU   H29  825   2.884   2.069   3.309  1.5984  0.3455 -1.0199
    2V3OU   C27  826   2.947   2.151   3.353  0.4765  0.4568  0.4776
    2V3OU   H27  827   2.895   2.248   3.332 -1.5349 -0.9094 -1.3027
    2V3OU   H28  828   2.987   2.134   3.456  3.6084 -1.6772 -0.9148
    2V3OU   O11  829   3.071   2.170   3.284  0.4877 -0.2543  0.2952
    2V3OU   C15  830   3.069   2.201   3.150 -0.1068  1.2609  0.6369
    2V3OU   C13  831   3.196   2.224   3.092 -0.2110  0.3750  0.0525
    2V3OU   C14  832   3.210   2.275   2.963 -0.4769 -0.0146 -0.1356
    2V3OU   C16  833   3.096   2.315   2.894 -0.3798 -0.1923 -0.4018
    2V3OU    H6  834   3.113   2.383   2.810 -0.2712  1.6021  1.0025
    2V3OU   C12  835   3.341   2.313   2.905 -0.4998 -0.6922 -0.6302
    2V3OU    O2  836   3.361   2.379   2.800  0.3181  0.1185  0.0231
    2V3OU   C10  837   3.462   2.261   2.971 -0.6974 -0.4827 -0.1050
    2V3OU    C8  838   3.584   2.282   2.909 -0.6028  0.6823  0.4539
    2V3OU   O10  839   3.604   2.357   2.797 -0.5744  0.1893  0.1274
    2V3OU   H26  840   3.513   2.383   2.774 -0.1483  1.6180  0.0179
    2V3OU    C6  841   3.700   2.230   2.974 -0.3134  0.3435 -0.3119
    2V3OU    C5  842   3.690   2.171   3.100 -0.3269  0.0814 -0.4347
    2V3OU    C4  843   3.829   2.231   2.900 -0.1722 -0.5119 -0.0901
    2V3OU    H4  844   3.822   2.189   2.795 -1.3410  1.1767 -0.7371
    2V3OU    H5  845   3.842   2.341   2.877 -2.7940  0.0498  0.8265
    2V3OU    C2  846   3.956   2.179   2.968  0.2655  0.5391 -0.0793
    2V3OU    O6  847   3.957   2.037   2.950 -0.5684  0.4850  0.2328
    2V3OU   H21  848   3.900   2.004   3.022  0.1822  0.7049  0.9425
    2V3OU    C3  849   3.939   2.180   3.120 -0.0418  0.3196 -0.1096
    2V3OU    H2  850   4.028   2.137   3.172  1.3047  1.4935 -1.3487
    2V3OU    H3  851   3.943   2.286   3.157  2.4470 -0.1059  1.0353
    2V3OU   C25  852   4.084   2.250   2.923  0.4787  0.1266 -0.1273
    2V3OU    O7  853   4.084   2.348   2.849  0.7028 -0.2330 -0.6095
    2V3OU   C26  854   4.217   2.188   2.964  0.2953 -0.2346 -0.0631
    2V3OU   H22  855   4.299   2.248   2.917 -0.2040 -0.5681 -1.4061
    2V3OU   H23  856   4.220   2.081   2.931  1.2698  0.4375 -2.3826
    2V3OU    O8  857   4.239   2.179   3.103  0.2837 -0.6326 -0.0857
    2V3OU   H24  858   4.327   2.139   3.109  0.0524 -1.1012  0.1751
    2V3OU    C1  859   3.810   2.119   3.172 -0.1732  0.1322 -0.6508
    2V3OU    H1  860   3.797   2.138   3.283  1.0696  0.5126 -0.5514
    2V3OU    O3  861   3.816   1.978   3.149  0.1155  0.0878 -0.3160
    2V3OU   C19  862   3.838   1.878   3.250  0.2885 -0.0186 -0.4587
    2V3OU    H9  863   3.785   1.903   3.347  1.0762  0.9335 -0.2632
    2V3OU    O4  864   3.974   1.881   3.285  0.0314  0.6133  0.5237
    2V3OU   C20  865   4.066   1.818   3.195 -0.0504  0.0772  0.8154
    2V3OU   H10  866   4.072   1.880   3.101 -0.4287 -1.2291 -0.0938
    2V3OU   C24  867   3.778   1.752   3.187  0.1698  0.0362 -0.4577
    2V3OU   H16  868   3.680   1.772   3.137 -0.9886 -2.9127  0.4179
    2V3OU   H17  869   3.759   1.675   3.266 -2.3306  0.5502 -0.4952
    2V3OU   C23  870   3.881   1.695   3.089  0.5133 -0.4870  0.1952
    2V3OU   H15  871   3.893   1.777   3.011  3.1636 -1.2471 -0.2947
    2V3OU    N1  872   3.821   1.574   3.035 -0.1859  0.0454 -0.2419
    2V3OU   H19  873   3.894   1.514   3.004 -0.2364 -0.6246  0.8584
    2V3OU   H20  874   3.749   1.535   3.093 -0.6646  0.2063 -0.7127
    2V3OU   C21  875   4.020   1.677   3.156  0.6126  0.0463  0.1316
    2V3OU   H11  876   4.090   1.633   3.079  0.0034 -0.0718 -0.3640
    2V3OU    O5  877   4.021   1.581   3.260  0.1732 -0.3555 -0.2355
    2V3OU   H18  878   4.030   1.491   3.224 -1.0488  0.2057 -2.0780
    2V3OU   C22  879   4.201   1.824   3.266  0.4580  0.4463 -0.1651
    2V3OU   H12  880   4.225   1.928   3.298  1.5198  0.6266 -1.4555
    2V3OU   H13  881   4.282   1.789   3.197 -0.1483 -2.1192  0.3105
    2V3OU   H14  882   4.198   1.752   3.352 -0.5754 -0.5335 -0.9810
    2V3OU   C11  883   3.316   2.174   3.161 -0.3348  0.2425  0.1736
    2V3OU    O1  884   3.316   2.102   3.263 -0.0073  0.0246  0.0204
    2V3OU    C9  885   3.448   2.195   3.096 -0.3422 -0.6199 -0.1357
    2V3OU    C7  886   3.563   2.152   3.162 -0.1573 -0.1664 -0.1602
    2V3OU    O9  887   3.561   2.113   3.294 -0.3007 -0.1457 -0.1552
    2V3OU   H25  888   3.467   2.103   3.314 -0.2928 -3.4376 -1.1763
    2V3OU   C17  889   2.957   2.229   3.069  0.0103 -0.2287 -0.0706
    2V3OU    H7  890   2.855   2.199   3.094 -0.1852 -0.3383 -0.9784
    2V3OU   C18  891   2.969   2.295   2.947 -0.2477 -0.2348 -0.0983
    2V3OU    H8  892   2.890   2.359   2.904 -0.0967  0.7088  0.9723
    3V3OU   H29  893   4.114   3.372   4.862 -2.3987  1.2346 -0.3203
    3V3OU   C27  894   4.075   3.268   4.855  0.0975  0.2377 -0.5352
    3V3OU   H27  895   4.106   3.222   4.758  2.1177  3.0182 -1.3307
    3V3OU   H28  896   4.110   3.207   4.942  0.7196  1.3541  0.0197
    3V3OU   O11  897   3.932   3.274   4.867  0.1756 -0.1174  0.7569
    3V3OU   C15  898   3.858   3.158   4.873 -0.0161 -0.0917 -0.7678
    3V3OU   C13  899   3.718   3.177   4.868 -0.0713 -0.1912  0.1455
    3V3OU   C14  900   3.639   3.073   4.818  0.0124 -0.1307 -0.1214
    3V3OU   C16  901   3.692   2.953   4.772  0.0028 -0.0775 -0.2765
    3V3OU    H6  902   3.622   2.883   4.724  0.0000  0.8345 -1.6517
    3V3OU   C12  903   3.494   3.093   4.793 -0.0393  0.2803  0.4744
    3V3OU    O2  904   3.424   2.992   4.766 -0.2885  0.5268  0.1854
    3V3OU   C10  905   3.432   3.214   4.849  0.2181  0.3513  0.6130
    3V3OU    C8  906   3.293   3.223   4.847  0.2144  0.2383  0.0414
    3V3OU   O10  907   3.210   3.117   4.838  0.3631  0.1111  0.1618
    3V3OU   H26  908   3.265   3.037   4.830  0.1683  0.1339 -1.9001
    3V3OU    C6  909   3.222   3.341   4.885 -0.0426  0.0935  0.0150
    3V3OU    C5  910   3.301   3.446   4.932 -0.3390  0.6149 -0.6255
    3V3OU    C4  911   3.074   3.354   4.883 -0.0615 -0.1964 -0.5114
    3V3OU    H4  912   3.042   3.345   4.775 -1.5866  0.8202 -0.1783
    3V3OU    H5  913   3.028   3.266   4.937 -1.1975 -0.2171 -1.4621
    3V3OU    C2  914   3.015   3.480   4.946  0.0266 -0.3556 -0.1132
    3V3OU    O6  915   3.033   3.591   4.858 -1.0718 -0.6361 -0.7114
    3V3OU   H21  916   3.118   3.630   4.885 -1.0859 -1.2878  0.3088
    3V3OU    C3  917   3.101   3.520   5.067 -0.2589 -0.2386  0.0520
    3V3OU    H2  918   3.060   3.614   5.112 -0.9134 -1.2752  1.7261
    3V3OU    H3  919   3.095   3.438   5.143 -0.5682 -1.1859 -0.9682
    3V3OU   C25  920   2.865   3.468   4.976  0.0015  0.7157  0.2613
    3V3OU    O7  921   2.826   3.394   5.066 -0.3861  0.7299  0.1050
    3V3OU   C26  922   2.764   3.557   4.907 -0.4992 -0.1531 -0.1507
    3V3OU   H22  923   2.776   3.536   4.797  0.9748  0.9653 -0.2364
    3V3OU   H23  924   2.784   3.664   4.935  0.4480 -0.0821 -1.0280
    3V3OU    O8  925   2.629   3.549   4.947 -0.5927  0.2910 -0.3707
    3V3OU   H24  926   2.593   3.460   4.932 -0.5894  0.6281 -2.7625
    3V3OU    C1  927   3.245   3.545   5.029 -0.2087 -0.1773  0.2810
    3V3OU    H1  928   3.315   3.538   5.118  0.9756 -1.1094 -0.6837
    3V3OU    O3  929   3.253   3.671   4.961  0.0797 -0.2313  0.2082
    3V3OU   C19  930   3.235   3.796   5.029  0.3839  0.0325 -0.1981
    3V3OU    H9  931   3.220   3.782   5.140 -1.3369 -2.4738 -0.6553
    3V3OU    O4  932   3.114   3.847   4.977  0.0252 -0.5770  0.0403
    3V3OU   C20  933   3.119   3.909   4.849  0.3811 -0.1682  0.2498
    3V3OU   H10  934   3.126   3.827   4.771  1.1867 -2.3123  2.4484
    3V3OU   C24  935   3.361   3.879   5.001  0.1048  0.6156  0.2597
    3V3OU   H16  936   3.453   3.821   5.026 -0.2390  0.4726  1.2387
    3V3OU   H17  937   3.353   3.965   5.073  2.3855  1.4708 -0.4173
    3V3OU   C23  938   3.365   3.926   4.855  0.1230  0.5143  0.2272
    3V3OU   H15  939   3.363   3.831   4.792  3.1293 -2.2891  3.8659
    3V3OU    N1  940   3.496   3.986   4.838  0.0573  0.4676 -0.4757
    3V3OU   H19  941   3.509   4.030   4.927 -0.5395  0.8273 -0.5647
    3V3OU   H20  942   3.552   3.902   4.835 -0.4532  0.1298 -0.6573
    3V3OU   C21  943   3.235   4.008   4.832  0.0168  0.1242 -0.5861
    3V3OU   H11  944   3.245   4.054   4.729  0.5411 -0.2972 -0.7266
    3V3OU    O5  945   3.222   4.113   4.927 -0.0984  0.0989 -0.5723
    3V3OU   H18  946   3.174   4.185   4.882  0.3278  0.6377 -0.1856
    3V3OU   C22  947   2.983   3.974   4.829  0.4456 -0.0718  0.1233
    3V3OU   H12  948   2.971   4.062   4.897  0.8479  0.5604 -0.5987
    3V3OU   H13  949   2.903   3.910   4.874  0.6162 -0.0036  0.5242
    3V3OU   H14  950   2.968   3.996   4.720  0.6626 -2.5821 -0.4837
    3V3OU   C11  951   3.659   3.310   4.889  0.3964 -0.0985  0.9147
    3V3OU    O1  952   3.725   3.410   4.924  0.5243  0.2731 -0.3282
    3V3OU    C9  953   3.512   3.322   4.894  0.4071  0.3464  0.2957
    3V3OU    C7  954   3.444   3.437   4.933 -0.3605  0.2276 -0.6453
    3V3OU    O9  955   3.512   3.557   4.930 -0.5679  0.3583 -0.1077
    3V3OU   H25  956   3.605   3.531   4.923  0.0820  2.0415  1.3875
    3V3OU   C17  957   3.907   3.031   4.835  0.1792 -0.0633 -0.6124
    3V3OU    H7  958   4.015   3.015   4.831  0.2742 -0.4030  1.6926
    3V3OU   C18  959   3.829   2.931   4.779 -0.1380 -0.7178  0.9352
    3V3OU    H8  960   3.881   2.839   4.751  2.6363  1.4788 -1.9318
    4V3OU   H29  961   3.127   2.326   4.397 -1.0193  1.4227  0.7832
    4V3OU   C27  962   3.147   2.393   4.310  0.1095 -0.3580 -0.3908
    4V3OU   H27  963   3.132   2.347   4.209 -0.8950 -1.4291  0.2299
    4V3OU   H28  964   3.091   2.490   4.321 -1.9143 -1.7287  3.1044
    4V3OU   O11  965   3.288   2.417   4.311  0.0202  0.1667  0.0319
    4V3OU   C15  966   3.373   2.461   4.411 -0.0990 -0.2559  0.3201
    4V3OU   C13  967   3.510   2.435   4.398 -0.0727 -0.3291  0.7095
    4V3OU   C14  968   3.603   2.516   4.464  0.0914 -0.1947  0.3204
    4V3OU   C16  969   3.556   2.608   4.557 -0.4447 -0.1424 -0.0008
    4V3OU    H6  970   3.628   2.658   4.623 -1.8340  1.9693 -0.0083
    4V3OU   C12  971   3.748   2.488   4.448  0.0969 -0.0002  0.0293
    4V3OU    O2  972   3.839   2.541   4.515 -0.0629 -0.3320  0.5192
    4V3OU   C10  973   3.792   2.395   4.342  0.0391 -0.2502  0.2232
    4V3OU    C8  974   3.925   2.384   4.302  0.1136 -0.1963  0.4561
    4V3OU   O10  975   4.021   2.442   4.379  0.8162 -0.5726 -0.1338
    4V3OU   H26  976   3.967   2.498   4.437  1.0254  0.7086 -1.1232
    4V3OU    C6  977   3.962   2.283   4.208  0.2666 -0.4040  0.7378
    4V3OU    C5  978   3.871   2.187   4.169  0.0696  0.0835 -0.0175
    4V3OU    C4  979   4.110   2.275   4.187  0.1720 -0.2369 -0.0127
    4V3OU    H4  980   4.161   2.376   4.181  0.0147 -0.2170 -1.3872
    4V3OU    H5  981   4.152   2.234   4.284  0.8081 -1.4349 -0.7784
    4V3OU    C2  982   4.147   2.185   4.069 -0.0560 -0.1670 -0.1393
    4V3OU    O6  983   4.101   2.254   3.952  0.7849  0.7600  0.0650
    4V3OU   H21  984   4.027   2.198   3.925  4.4338 -2.6299 -4.4178
    4V3OU    C3  985   4.063   2.058   4.072 -0.0281 -0.1860 -0.1565
    4V3OU    H2  986   4.080   1.999   3.978 -0.8634  0.5458 -0.7743
    4V3OU    H3  987   4.095   1.998   4.162 -0.7775  2.9488  2.3608
    4V3OU   C25  988   4.297   2.161   4.083 -0.0672  0.0751  0.4518
    4V3OU    O7  989   4.350   2.162   4.194  0.4463  0.5472  0.2140
    4V3OU   C26  990   4.387   2.141   3.961 -0.1396 -0.4207  0.4810
    4V3OU   H22  991   4.435   2.040   3.966 -0.5899 -0.8992 -2.8943
    4V3OU   H23  992   4.464   2.221   3.958 -2.6982  2.1880 -2.2082
    4V3OU    O8  993   4.320   2.152   3.837  0.0312  0.0012  0.4266
    4V3OU   H24  994   4.271   2.235   3.831 -0.3044 -0.1637  0.8669
    4V3OU    C1  995   3.912   2.077   4.075  0.0023  0.0257  0.0214
    4V3OU    H1  996   3.861   1.979   4.098 -0.5556  0.7337  2.0890
    4V3OU    O3  997   3.875   2.115   3.943  0.6547 -0.3159 -0.2666
    4V3OU   C19  998   3.815   2.012   3.864 -0.0519 -0.1980  0.1100
    4V3OU    H9  999   3.835   1.908   3.903  0.4953 -0.6027 -1.2212
    4V3OU    O4 1000   3.889   2.014   3.744 -0.4949 -0.4637 -0.1740
    4V3OU   C20 1001   3.869   2.124   3.655 -0.2076 -0.3799 -0.1366
    4V3OU   H10 1002   3.892   2.214   3.719 -0.0378 -0.7879  0.3863
    4V3OU   C24 1003   3.666   2.041   3.840  0.0128  0.2059  0.1960
    4V3OU   H16 1004   3.623   2.072   3.938  0.9991  1.9716  0.1126
    4V3OU   H17 1005   3.617   1.945   3.812 -0.1437  0.1265  0.7332
    4V3OU   C23 1006   3.637   2.152   3.739  0.0331 -0.0133 -0.0530
    4V3OU   H15 1007   3.675   2.248   3.787  1.4608 -0.5743 -0.0110
    4V3OU    N1 1008   3.492   2.148   3.732  0.0451  0.0274 -0.3431
    4V3OU   H19 1009   3.457   2.212   3.800 -2.0896 -1.8372  0.4545
    4V3OU   H20 1010   3.472   2.053   3.755  2.5217 -0.9658 -1.9454
    4V3OU   C21 1011   3.723   2.137   3.610 -0.1166  0.4387 -0.2095
    4V3OU   H11 1012   3.700   2.232   3.553  3.2503  1.2548 -0.4260
    4V3OU    O5 1013   3.679   2.028   3.531 -0.2032 -0.0319  0.4812
    4V3OU   H18 1014   3.642   2.059   3.447  0.1784  0.8129  0.6107
    4V3OU   C22 1015   3.980   2.116   3.552  0.1329 -0.1606  0.2113
    4V3OU   H12 1016   4.010   2.219   3.519  0.2083 -0.2505 -0.0016
    4V3OU   H13 1017   3.943   2.065   3.460  0.1469  2.3487 -1.2640
    4V3OU   H14 1018   4.069   2.065   3.597  0.4572  1.4807  1.5708
    4V3OU   C11 1019   3.550   2.317   4.320 -0.0954 -0.1011  0.3497
    4V3OU    O1 1020   3.471   2.229   4.279 -0.1463  0.0971  0.0175
    4V3OU    C9 1021   3.694   2.308   4.287 -0.1696  0.1542 -0.0476
    4V3OU    C7 1022   3.734   2.201   4.209  0.1807 -0.0533  0.4137
    4V3OU    O9 1023   3.649   2.101   4.164  0.0851  0.0546  0.3558
    4V3OU   H25 1024   3.565   2.128   4.204  0.5993  1.6302  0.4571
    4V3OU   C17 1025   3.327   2.560   4.501 -0.2504  0.1054 -0.1528
    4V3OU    H7 1026   3.221   2.585   4.503 -0.2809  0.0286 -0.7315
    4V3OU   C18 1027   3.420   2.630   4.577 -0.3905  0.5140 -0.3544
    4V3OU    H8 1028   3.391   2.710   4.647  0.6653  1.7770 -1.2852
    5V3OU   H29 1029   4.341   3.628   1.969  3.2969  2.6105  1.3661
    5V3OU   C27 1030   4.350   3.676   1.869  0.1063 -0.3097 -0.5270
    5V3OU   H27 1031   4.428   3.756   1.871 -1.7447  1.6738 -2.0023
    5V3OU   H28 1032   4.362   3.594   1.794 -0.6838  0.5542 -1.6505
    5V3OU   O11 1033   4.230   3.749   1.841  0.1823 -0.1030 -0.3117
    5V3OU   C15 1034   4.102   3.699   1.828  0.0962  0.1430 -0.4202
    5V3OU   C13 1035   3.994   3.789   1.821 -0.2371 -0.2355 -0.2310
    5V3OU   C14 1036   3.865   3.739   1.800 -0.3427 -0.0199 -0.0955
    5V3OU   C16 1037   3.847   3.602   1.806  0.2930 -0.0994  0.1190
    5V3OU    H6 1038   3.749   3.559   1.832  0.6494 -0.8779  0.2085
    5V3OU   C12 1039   3.744   3.824   1.806 -0.4477 -0.1968  0.3249
    5V3OU    O2 1040   3.627   3.792   1.775 -0.1707 -0.5708 -0.3516
    5V3OU   C10 1041   3.765   3.962   1.852  0.1572  0.0756 -0.7253
    5V3OU    C8 1042   3.657   4.043   1.885  0.1187 -0.2272 -0.0812
    5V3OU   O10 1043   3.537   3.986   1.915  0.1326 -0.2683 -0.1082
    5V3OU   H26 1044   3.541   3.915   1.849 -1.2256  0.9564 -1.6115
    5V3OU    C6 1045   3.677   4.179   1.926  0.3082 -0.4555  0.5888
    5V3OU    C5 1046   3.807   4.226   1.943  0.0990  0.1821  0.4032
    5V3OU    C4 1047   3.560   4.254   1.978  0.1749 -0.0376 -0.3005
    5V3OU    H4 1048   3.464   4.217   1.931  0.5519 -0.8746 -0.4198
    5V3OU    H5 1049   3.565   4.217   2.084  1.2766 -0.0623 -0.3475
    5V3OU    C2 1050   3.570   4.407   1.972  0.0496 -0.0470 -0.7979
    5V3OU    O6 1051   3.574   4.445   1.834  0.5928 -0.2318 -0.8357
    5V3OU   H21 1052   3.668   4.430   1.813  0.9525  0.7922 -0.0051
    5V3OU    C3 1053   3.712   4.446   2.014 -0.0875  0.2759 -0.6370
    5V3OU    H2 1054   3.722   4.557   2.000 -1.1513  0.3061 -1.2968
    5V3OU    H3 1055   3.726   4.434   2.124 -2.0793 -0.8528 -0.4601
    5V3OU   C25 1056   3.460   4.472   2.056  0.4839 -0.6490  0.2586
    5V3OU    O7 1057   3.482   4.504   2.173 -0.4005 -0.3385  0.3449
    5V3OU   C26 1058   3.330   4.517   1.991  0.1142 -0.7283  0.9344
    5V3OU   H22 1059   3.357   4.607   1.930 -0.5356 -0.9190  0.3541
    5V3OU   H23 1060   3.256   4.544   2.070  0.8088  0.6289  1.1558
    5V3OU    O8 1061   3.260   4.424   1.911  0.0090 -0.2504  0.4661
    5V3OU   H24 1062   3.236   4.349   1.968  0.3506 -0.4809  0.3144
    5V3OU    C1 1063   3.828   4.375   1.946  0.1843  0.1794 -0.0793
    5V3OU    H1 1064   3.921   4.390   2.007 -0.6161 -4.0978  2.6708
    5V3OU    O3 1065   3.817   4.417   1.810 -0.1544  0.2160 -0.0425
    5V3OU   C19 1066   3.946   4.459   1.765 -0.2559  0.0858 -0.4644
    5V3OU    H9 1067   4.022   4.384   1.801 -1.0345  0.1710  1.4817
    5V3OU    O4 1068   3.975   4.583   1.827 -0.0838 -0.0915 -0.1872
    5V3OU   C20 1069   3.911   4.703   1.782 -0.1666 -0.0386  0.0692
    5V3OU   H10 1070   3.810   4.690   1.831  0.2947 -1.3559  0.7369
    5V3OU   C24 1071   3.933   4.462   1.613 -0.3448 -0.0829 -0.4598
    5V3OU   H16 1072   3.895   4.366   1.569  1.5824 -1.2707  0.3003
    5V3OU   H17 1073   4.038   4.474   1.575  0.9027 -0.2238  2.6111
    5V3OU   C23 1074   3.850   4.582   1.566 -0.0773  0.1802 -0.2639
    5V3OU   H15 1075   3.745   4.562   1.605  0.3509 -0.3839  0.6508
    5V3OU    N1 1076   3.864   4.594   1.422 -0.7535  0.0500 -0.3409
    5V3OU   H19 1077   3.948   4.647   1.415 -1.5791  1.4340 -0.1840
    5V3OU   H20 1078   3.881   4.502   1.387 -2.2013  0.3774 -2.0407
    5V3OU   C21 1079   3.885   4.719   1.632 -0.4957  0.0952  0.1405
    5V3OU   H11 1080   3.794   4.784   1.624 -0.0242  1.1850  2.6810
    5V3OU    O5 1081   3.993   4.791   1.574 -0.2995 -0.3953 -0.1160
    5V3OU   H18 1082   4.077   4.751   1.599 -0.4298 -0.9124 -0.4980
    5V3OU   C22 1083   3.978   4.822   1.848 -0.0697  0.2536 -0.5430
    5V3OU   H12 1084   3.910   4.911   1.837 -1.0760 -0.4078  0.1363
    5V3OU   H13 1085   4.071   4.849   1.793  1.1472 -0.8805  0.8855
    5V3OU   H14 1086   3.991   4.803   1.958  3.4667  0.2535 -0.8652
    5V3OU   C11 1087   4.017   3.926   1.871 -0.2855 -0.3115 -0.0008
    5V3OU    O1 1088   4.129   3.977   1.896 -0.4302  0.1182 -0.2217
    5V3OU    C9 1089   3.896   4.011   1.874  0.0055  0.0986  0.1810
    5V3OU    C7 1090   3.918   4.140   1.921 -0.0252  0.0349  0.3658
    5V3OU    O9 1091   4.042   4.195   1.945  0.0209  0.1720 -0.1865
    5V3OU   H25 1092   4.103   4.125   1.915  1.7372  1.2081  0.7009
    5V3OU   C17 1093   4.076   3.560   1.828  0.2848  0.1041  0.3044
    5V3OU    H7 1094   4.157   3.487   1.836  1.5494  1.2510 -1.3501
    5V3OU   C18 1095   3.948   3.508   1.819  0.3200 -0.0169  0.5078
    5V3OU    H8 1096   3.934   3.398   1.819  1.5419 -0.1984 -0.2921
    6V3OU   H29 1097   2.366   3.637   4.835 -0.9272  1.1841  1.4420
    6V3OU   C27 1098   2.290   3.566   4.877 -0.1037 -0.2457  0.5894
    6V3OU   H27 1099   2.275   3.575   4.987 -1.0483  0.4591  0.4102
    6V3OU   H28 1100   2.191   3.568   4.824  0.7246 -0.0391 -1.0382
    6V3OU   O11 1101   2.355   3.439   4.866  0.1356 -0.1188  0.5224
    6V3OU   C15 1102   2.285   3.323   4.893 -0.1229  0.1270  0.9112
    6V3OU   C13 1103   2.361   3.207   4.866 -0.1292  0.3629 -0.1428
    6V3OU   C14 1104   2.293   3.087   4.847  0.6961 -0.1011 -0.2182
    6V3OU   C16 1105   2.158   3.079   4.879  0.9238 -0.2951  0.7333
    6V3OU    H6 1106   2.107   2.984   4.857  0.9153  0.0440 -0.8633
    6V3OU   C12 1107   2.351   2.982   4.760  0.1300  0.0415 -0.7651
    6V3OU    O2 1108   2.286   2.881   4.726  0.2955 -0.3362  0.0411
    6V3OU   C10 1109   2.497   2.976   4.755  0.1581 -0.1599  0.2807
    6V3OU    C8 1110   2.564   2.861   4.714  0.0085 -0.1296 -0.0439
    6V3OU   O10 1111   2.500   2.755   4.659 -0.1971  0.1306 -0.3123
    6V3OU   H26 1112   2.409   2.786   4.664  0.3798  1.7589  1.0333
    6V3OU    C6 1113   2.707   2.847   4.716  0.0477  0.2186 -0.3969
    6V3OU    C5 1114   2.783   2.952   4.765  0.0527  0.2359 -0.4449
    6V3OU    C4 1115   2.773   2.727   4.659 -0.1666 -0.0976  0.0235
    6V3OU    H4 1116   2.709   2.639   4.690  1.5255 -1.2777  0.3820
    6V3OU    H5 1117   2.784   2.733   4.547 -1.4446  1.9121 -0.0284
    6V3OU    C2 1118   2.906   2.695   4.728  0.0016  0.1293 -0.1946
    6V3OU    O6 1119   2.877   2.653   4.862  0.0803  0.5660 -0.0403
    6V3OU   H21 1120   2.871   2.736   4.912 -0.9195  0.7908 -0.5039
    6V3OU    C3 1121   2.989   2.823   4.738  0.7328 -0.3868  0.4982
    6V3OU    H2 1122   3.088   2.807   4.788  0.4855 -3.0485  0.2621
    6V3OU    H3 1123   3.010   2.857   4.634 -1.3067  0.5091  0.3272
    6V3OU   C25 1124   2.977   2.584   4.650  0.7565  0.8083 -0.4970
    6V3OU    O7 1125   2.972   2.573   4.528  0.1894  0.7205 -0.4703
    6V3OU   C26 1126   3.075   2.497   4.728 -0.0461  0.4471  0.1339
    6V3OU   H22 1127   3.135   2.438   4.654 -0.6954  1.4462 -1.2513
    6V3OU   H23 1128   3.019   2.426   4.794 -0.8256 -0.4995 -1.4943
    6V3OU    O8 1129   3.167   2.569   4.807 -0.0491  0.4775  0.1096
    6V3OU   H24 1130   3.235   2.522   4.858  1.3116  2.9660  0.7586
    6V3OU    C1 1131   2.925   2.939   4.814 -0.0775 -0.3580 -0.2222
    6V3OU    H1 1132   2.985   3.033   4.797 -1.0524  0.2297 -0.5208
    6V3OU    O3 1133   2.920   2.899   4.951  0.0703 -0.0813 -0.1353
    6V3OU   C19 1134   2.993   2.945   5.065  0.0527 -0.0996 -0.1169
    6V3OU    H9 1135   2.991   3.058   5.064 -0.0938 -0.0951 -1.5238
    6V3OU    O4 1136   3.127   2.908   5.041  0.1058 -0.1102  0.1939
    6V3OU   C20 1137   3.161   2.772   5.069 -0.6389 -0.3822 -0.1797
    6V3OU   H10 1138   3.110   2.700   4.999 -0.6377 -0.5770  0.0192
    6V3OU   C24 1139   2.924   2.891   5.190 -0.1425 -0.1949 -0.2643
    6V3OU   H16 1140   2.814   2.895   5.170 -0.1309 -3.0423 -1.3947
    6V3OU   H17 1141   2.948   2.952   5.281 -1.3809  0.5066 -0.3891
    6V3OU   C23 1142   2.964   2.745   5.207  0.3146 -0.0176  0.2055
    6V3OU   H15 1143   2.921   2.687   5.119 -1.6253 -2.6194  2.6288
    6V3OU    N1 1144   2.897   2.706   5.331  0.1960  0.2195  0.2158
    6V3OU   H19 1145   2.933   2.618   5.360 -3.9453 -1.8677 -0.2909
    6V3OU   H20 1146   2.908   2.785   5.391 -1.4850  1.4912 -1.0579
    6V3OU   C21 1147   3.118   2.723   5.208  0.3416  0.1759  0.3300
    6V3OU   H11 1148   3.135   2.611   5.203 -3.0528 -0.3902 -2.0862
    6V3OU    O5 1149   3.183   2.773   5.324  0.2760  0.0827  0.4074
    6V3OU   H18 1150   3.260   2.714   5.330  0.6678  0.6320  0.8686
    6V3OU   C22 1151   3.311   2.765   5.050 -0.4480  0.7655  0.7659
    6V3OU   H12 1152   3.335   2.782   4.942  0.3917 -0.8609  0.6605
    6V3OU   H13 1153   3.347   2.661   5.072 -0.3931  0.7489  0.5913
    6V3OU   H14 1154   3.359   2.848   5.107 -2.4368  1.8155  1.0022
    6V3OU   C11 1155   2.508   3.198   4.870 -0.1462  0.1647  0.0094
    6V3OU    O1 1156   2.574   3.301   4.896  0.0608  0.2104 -0.6630
    6V3OU    C9 1157   2.576   3.083   4.805 -0.1236  0.1366  0.0866
    6V3OU    C7 1158   2.714   3.069   4.810 -0.1493 -0.0925  0.1121
    6V3OU    O9 1159   2.788   3.178   4.852 -0.0559 -0.0344 -0.2029
    6V3OU   H25 1160   2.718   3.237   4.885  0.8612  2.0351 -1.7576
    6V3OU   C17 1161   2.146   3.316   4.915 -0.2681 -0.0586 -0.0620
    6V3OU    H7 1162   2.087   3.406   4.897 -0.2613  0.6869  3.1024
    6V3OU   C18 1163   2.084   3.191   4.916  0.2589 -0.3295 -0.4328
    6V3OU    H8 1164   1.979   3.189   4.949  0.0254  0.2957 -1.1070
    7V3OU   H29 1165   3.594   4.880   2.898 -2.0372 -0.5990 -3.1419
    7V3OU   C27 1166   3.587   4.781   2.949  0.9218  0.3785 -0.4998
    7V3OU   H27 1167   3.677   4.745   3.005  0.1799 -2.5668 -0.9998
    7V3OU   H28 1168   3.495   4.761   3.008 -0.1300 -2.4218 -2.8295
    7V3OU   O11 1169   3.570   4.683   2.845 -0.2576 -0.0287  0.0664
    7V3OU   C15 1170   3.654   4.673   2.736 -0.0134 -0.4250  0.2911
    7V3OU   C13 1171   3.614   4.581   2.637  0.1774 -0.1026 -0.0843
    7V3OU   C14 1172   3.702   4.495   2.570 -0.2862 -0.2098 -0.5579
    7V3OU   C16 1173   3.838   4.508   2.595 -0.4464  0.4511  0.0028
    7V3OU    H6 1174   3.911   4.434   2.557  1.9629  2.4501  0.4807
    7V3OU   C12 1175   3.655   4.396   2.470 -0.2532 -0.5142 -0.2727
    7V3OU    O2 1176   3.727   4.340   2.385 -0.1686  0.0758 -0.5932
    7V3OU   C10 1177   3.512   4.362   2.472 -0.3695 -0.0174 -0.0686
    7V3OU    C8 1178   3.464   4.271   2.378 -0.2372 -0.2201  0.0595
    7V3OU   O10 1179   3.545   4.178   2.322 -0.0104  0.1269 -0.1972
    7V3OU   H26 1180   3.633   4.214   2.338  0.1133 -0.4612  0.5059
    7V3OU    C6 1181   3.324   4.261   2.348 -0.3785 -0.2724  0.7184
    7V3OU    C5 1182   3.229   4.337   2.415 -0.2553  0.3292  0.2224
    7V3OU    C4 1183   3.276   4.141   2.275 -0.2629  0.3156 -0.3426
    7V3OU    H4 1184   3.353   4.106   2.200 -0.2399 -1.5408  0.5052
    7V3OU    H5 1185   3.260   4.062   2.354 -1.8492  0.8686 -0.0670
    7V3OU    C2 1186   3.144   4.157   2.199 -0.5478 -0.0846  0.0604
    7V3OU    O6 1187   3.154   4.281   2.128  0.3394  0.1906  0.6531
    7V3OU   H21 1188   3.127   4.344   2.196 -0.9329  0.3550  0.0261
    7V3OU    C3 1189   3.045   4.202   2.306 -0.5100 -0.2468  0.1627
    7V3OU    H2 1190   2.949   4.221   2.252  0.7027 -0.1323 -2.0485
    7V3OU    H3 1191   3.024   4.120   2.379  1.4335  0.7113  1.8981
    7V3OU   C25 1192   3.105   4.034   2.117 -0.1105 -0.3688  0.2814
    7V3OU    O7 1193   3.107   3.927   2.180  0.3001 -0.1244  0.6935
    7V3OU   C26 1194   3.091   4.045   1.967 -0.6345  0.4693  0.3891
    7V3OU   H22 1195   3.009   4.112   1.929 -1.1224 -0.4535 -0.2382
    7V3OU   H23 1196   3.087   3.943   1.921  0.5169  0.7293 -0.3203
    7V3OU    O8 1197   3.212   4.085   1.907 -0.7369  0.2935  0.0601
    7V3OU   H24 1198   3.256   4.010   1.865  0.8211  2.3514 -2.2763
    7V3OU    C1 1199   3.081   4.324   2.390 -0.1507 -0.1146 -0.1811
    7V3OU    H1 1200   3.023   4.327   2.487  1.3950  0.8197  0.7578
    7V3OU    O3 1201   3.055   4.431   2.300  0.1255  0.0554 -0.0591
    7V3OU   C19 1202   2.984   4.550   2.334 -0.3223 -0.0688 -0.5540
    7V3OU    H9 1203   3.035   4.613   2.412  0.7938 -3.4194  1.5884
    7V3OU    O4 1204   2.870   4.506   2.404 -0.5713  0.8559 -0.3614
    7V3OU   C20 1205   2.763   4.437   2.338  0.0053 -0.3448 -0.0743
    7V3OU   H10 1206   2.797   4.336   2.302  2.0437 -0.1192  1.0755
    7V3OU   C24 1207   2.942   4.617   2.202 -0.8133  0.7159 -0.0097
    7V3OU   H16 1208   3.030   4.624   2.134 -2.5507 -1.3898 -2.6577
    7V3OU   H17 1209   2.909   4.720   2.229 -0.5147  0.7489  0.2481
    7V3OU   C23 1210   2.830   4.542   2.131  0.0595 -0.4449 -0.1884
    7V3OU   H15 1211   2.872   4.439   2.106 -0.7315 -0.7056 -0.4880
    7V3OU    N1 1212   2.807   4.621   2.011 -0.7541 -0.4156 -0.0156
    7V3OU   H19 1213   2.886   4.680   2.001 -1.7724  0.9018 -0.5503
    7V3OU   H20 1214   2.735   4.689   2.026  0.8453  1.9783 -2.4486
    7V3OU   C21 1215   2.706   4.520   2.223  0.1964  0.0572  0.1177
    7V3OU   H11 1216   2.630   4.446   2.183 -1.5559  1.1803  1.2251
    7V3OU    O5 1217   2.639   4.639   2.260  0.1593  0.0352  0.1217
    7V3OU   H18 1218   2.700   4.693   2.313  0.8972 -1.7002  1.0939
    7V3OU   C22 1219   2.654   4.422   2.443 -0.6027  0.6425 -0.5437
    7V3OU   H12 1220   2.690   4.347   2.518  0.3159  1.2287 -0.3987
    7V3OU   H13 1221   2.558   4.387   2.396 -0.2416 -1.5946  0.2288
    7V3OU   H14 1222   2.639   4.517   2.499 -0.4806  0.2860  0.1120
    7V3OU   C11 1223   3.470   4.552   2.628  0.0771  0.4614 -0.3123
    7V3OU    O1 1224   3.380   4.618   2.684  0.1219 -0.0275  0.3500
    7V3OU    C9 1225   3.419   4.444   2.542 -0.0481 -0.2436  0.6286
    7V3OU    C7 1226   3.285   4.425   2.512  0.0153  0.8591 -0.4113
    7V3OU    O9 1227   3.186   4.496   2.577 -0.7451 -0.8212  0.3122
    7V3OU   H25 1228   3.248   4.554   2.624  2.3171 -0.9386 -3.1265
    7V3OU   C17 1229   3.794   4.685   2.750 -0.0829  0.0363  0.6366
    7V3OU    H7 1230   3.830   4.759   2.820 -0.1378  1.7829 -1.0892
    7V3OU   C18 1231   3.885   4.603   2.685 -0.2209  0.5265 -0.1938
    7V3OU    H8 1232   3.968   4.571   2.749 -1.4213 -0.1709  1.0633
    8V3OU   H29 1233   2.418   4.254   4.644 -0.8491  1.1743  0.4982
    8V3OU   C27 1234   2.526   4.264   4.672 -0.4012 -0.2348 -0.6048
    8V3OU   H27 1235   2.544   4.327   4.763  0.0404  3.8553 -3.3025
    8V3OU   H28 1236   2.580   4.166   4.671  0.1661  0.0708 -0.2902
    8V3OU   O11 1237   2.590   4.339   4.569  0.2060  0.3856  0.2120
    8V3OU   C15 1238   2.725   4.370   4.566  0.1167  0.7423 -0.4801
    8V3OU   C13 1239   2.764   4.463   4.468  0.2463  0.2695 -0.8848
    8V3OU   C14 1240   2.901   4.483   4.447  0.4972  0.0799  0.4666
    8V3OU   C16 1241   2.992   4.414   4.526  0.7040  0.1777  0.3167
    8V3OU    H6 1242   3.095   4.454   4.527  1.3083 -1.2928  0.5254
    8V3OU   C12 1243   2.950   4.574   4.342 -0.0904  0.1317  0.2341
    8V3OU    O2 1244   3.073   4.586   4.321 -0.2221  0.0777 -0.6206
    8V3OU   C10 1245   2.849   4.640   4.257  0.3303 -0.3214 -0.6289
    8V3OU    C8 1246   2.884   4.716   4.146 -0.2058  0.0830 -0.5278
    8V3OU   O10 1247   3.016   4.725   4.112 -0.0467 -0.1440  0.0217
    8V3OU   H26 1248   3.069   4.694   4.187 -0.7457  2.0622  1.5598
    8V3OU    C6 1249   2.785   4.773   4.060 -0.1116  0.7724 -0.1853
    8V3OU    C5 1250   2.650   4.758   4.088 -0.0594  0.1462 -0.2471
    8V3OU    C4 1251   2.832   4.848   3.940  0.1872  0.2805 -0.3794
    8V3OU    H4 1252   2.910   4.924   3.969 -0.4519  1.7323 -2.2677
    8V3OU    H5 1253   2.883   4.776   3.869 -0.9848  0.1667 -1.1344
    8V3OU    C2 1254   2.729   4.928   3.861 -0.2950  0.0384  0.0007
    8V3OU    O6 1255   2.692   5.048   3.930 -0.4810  0.0154 -0.0577
    8V3OU   H21 1256   2.633   5.011   3.998  2.3816 -2.9973  1.1164
    8V3OU    C3 1257   2.595   4.853   3.863 -0.2051 -0.1322 -0.3753
    8V3OU    H2 1258   2.516   4.916   3.815  0.5041  0.8061 -0.3320
    8V3OU    H3 1259   2.615   4.760   3.804  2.4336  0.4633 -0.5765
    8V3OU   C25 1260   2.776   4.957   3.718 -0.4277 -0.1803 -0.0868
    8V3OU    O7 1261   2.759   4.869   3.634  0.8078 -0.3176 -0.2167
    8V3OU   C26 1262   2.861   5.080   3.689 -0.3466 -0.2115  0.0245
    8V3OU   H22 1263   2.776   5.153   3.684  0.2492  0.4152 -1.9281
    8V3OU   H23 1264   2.905   5.073   3.587 -0.5752 -0.3616 -0.0634
    8V3OU    O8 1265   2.963   5.124   3.776  0.1554 -0.4295 -0.4493
    8V3OU   H24 1266   2.978   5.213   3.741  0.4511 -1.1594 -2.2522
    8V3OU    C1 1267   2.542   4.815   4.000 -0.1145 -0.0802 -0.3258
    8V3OU    H1 1268   2.463   4.736   3.988 -0.3075  0.0793 -0.1101
    8V3OU    O3 1269   2.494   4.933   4.064 -0.0717 -0.1064 -0.2444
    8V3OU   C19 1270   2.387   4.937   4.159 -0.3004 -0.1754 -0.4983
    8V3OU    H9 1271   2.408   4.875   4.251 -0.9189 -1.9705 -1.5194
    8V3OU    O4 1272   2.274   4.875   4.101 -0.7767  0.1418  0.0828
    8V3OU   C20 1273   2.215   4.949   3.994 -0.1129  0.2492 -0.2185
    8V3OU   H10 1274   2.301   4.969   3.924 -1.3149  1.8186 -1.3330
    8V3OU   C24 1275   2.362   5.081   4.202  1.0464  0.0550 -0.4449
    8V3OU   H16 1276   2.460   5.125   4.235  1.5248 -2.9100  2.6470
    8V3OU   H17 1277   2.292   5.073   4.289  1.4496 -0.1935 -0.1405
    8V3OU   C23 1278   2.288   5.159   4.093  0.2391 -0.2412 -0.1127
    8V3OU   H15 1279   2.364   5.168   4.008  1.2754 -2.5289  0.4834
    8V3OU    N1 1280   2.268   5.291   4.150  0.2261 -0.0953 -0.4543
    8V3OU   H19 1281   2.185   5.315   4.201  0.7388  0.0206  0.3353
    8V3OU   H20 1282   2.347   5.318   4.204  0.1935  1.9901 -1.3570
    8V3OU   C21 1283   2.161   5.084   4.043  0.0282  0.4738 -0.6719
    8V3OU   H11 1284   2.139   5.131   3.943 -0.4490  0.2462 -0.6790
    8V3OU    O5 1285   2.044   5.082   4.124  0.4406 -0.3234 -0.0814
    8V3OU   H18 1286   1.966   5.076   4.067  0.4708 -0.1714 -0.1382
    8V3OU   C22 1287   2.098   4.863   3.950  0.1076 -0.1250 -0.0749
    8V3OU   H12 1288   2.035   4.915   3.873  0.2247 -2.4851 -1.8746
    8V3OU   H13 1289   2.037   4.831   4.038 -1.1467 -0.9058 -1.1908
    8V3OU   H14 1290   2.141   4.777   3.892  2.5235  0.7230  0.3611
    8V3OU   C11 1291   2.664   4.552   4.406 -0.2104 -0.0509 -0.6198
    8V3OU    O1 1292   2.542   4.551   4.434 -0.1691 -0.2546 -0.4406
    8V3OU    C9 1293   2.711   4.622   4.285  0.3373 -0.0872 -0.4344
    8V3OU    C7 1294   2.615   4.678   4.201  0.2295  0.1300 -0.1680
    8V3OU    O9 1295   2.481   4.651   4.218  0.2918  0.2398  0.5231
    8V3OU   H25 1296   2.470   4.595   4.297 -0.9088 -0.5720 -0.1926
    8V3OU   C17 1297   2.822   4.298   4.640 -0.5253 -0.1089 -0.4487
    8V3OU    H7 1298   2.788   4.205   4.686  1.3953 -0.1544  0.9795
    8V3OU   C18 1299   2.958   4.316   4.619 -0.5050  0.3163  0.0304
    8V3OU    H8 1300   3.032   4.252   4.670  1.2545  2.4778  0.3348
    9V3OU   H29 1301   4.808   4.863   3.862 -2.7250 -1.2678  0.9974
    9V3OU   C27 1302   4.778   4.971   3.852  0.1887 -0.4447  0.0971
    9V3OU   H27 1303   4.760   5.021   3.950  1.5991 -1.1944  0.7649
    9V3OU   H28 1304   4.843   5.032   3.784  0.8328  0.7852  1.7786
    9V3OU   O11 1305   4.657   4.967   3.776  0.1189 -0.5259  0.2134
    9V3OU   C15 1306   4.655   4.932   3.642 -0.3021 -0.4543  0.2001
    9V3OU   C13 1307   4.528   4.908   3.585 -0.4857  0.2284  0.3105
    9V3OU   C14 1308   4.504   4.885   3.449  0.1288 -0.1017  0.2545
    9V3OU   C16 1309   4.615   4.866   3.368 -0.1463  0.4429 -0.2560
    9V3OU    H6 1310   4.597   4.816   3.271  0.9626 -1.0898  0.2903
    9V3OU   C12 1311   4.370   4.886   3.387  0.2419 -0.2616  0.0071
    9V3OU    O2 1312   4.349   4.880   3.264  0.3249  0.5861 -0.0526
    9V3OU   C10 1313   4.258   4.883   3.483 -0.0513 -0.5752 -0.3434
    9V3OU    C8 1314   4.129   4.882   3.431 -0.2067 -0.4156  0.0426
    9V3OU   O10 1315   4.102   4.849   3.302 -0.2664 -0.2151  0.0050
    9V3OU   H26 1316   4.192   4.861   3.269  0.1383  1.1461  1.4997
    9V3OU    C6 1317   4.019   4.886   3.522 -0.1200 -0.6835  0.1570
    9V3OU    C5 1318   4.038   4.886   3.660 -0.5808 -0.7470  0.2196
    9V3OU    C4 1319   3.889   4.921   3.460 -0.0400  0.0840  0.4137
    9V3OU    H4 1320   3.908   4.996   3.377  0.9720 -0.2187  0.3633
    9V3OU    H5 1321   3.853   4.824   3.414  0.1462 -0.1708  0.8016
    9V3OU    C2 1322   3.777   4.975   3.550 -0.2320 -0.1847  0.3373
    9V3OU    O6 1323   3.820   5.105   3.592 -0.0347 -0.1657  0.0843
    9V3OU   H21 1324   3.823   5.102   3.689 -1.5712  0.6239  0.1875
    9V3OU    C3 1325   3.788   4.897   3.681 -0.2580 -0.9326 -0.0977
    9V3OU    H2 1326   3.714   4.939   3.754  2.1232 -1.6371  2.9405
    9V3OU    H3 1327   3.760   4.791   3.658  1.0507 -1.0881 -1.0666
    9V3OU   C25 1328   3.640   4.972   3.482 -0.0581  0.1189 -0.0347
    9V3OU    O7 1329   3.603   4.880   3.409  0.1137 -0.0435  0.0815
    9V3OU   C26 1330   3.546   5.087   3.512 -0.4788 -0.1105 -0.4514
    9V3OU   H22 1331   3.470   5.081   3.431  0.6183  1.6812 -1.6946
    9V3OU   H23 1332   3.602   5.184   3.503 -0.6664 -0.0956 -1.5835
    9V3OU    O8 1333   3.489   5.081   3.641 -0.5251  0.4609 -0.4422
    9V3OU   H24 1334   3.400   5.048   3.624 -0.7866  1.6328 -1.4615
    9V3OU    C1 1335   3.922   4.896   3.754 -0.4548  0.0653  0.2916
    9V3OU    H1 1336   3.928   4.808   3.824 -0.4464 -0.7971 -0.7706
    9V3OU    O3 1337   3.929   5.021   3.824  0.8231  0.0250  0.2565
    9V3OU   C19 1338   3.923   5.106   3.939 -0.3866  0.1354  0.1278
    9V3OU    H9 1339   3.860   5.073   4.026  1.5667  0.7435  1.8575
    9V3OU    O4 1340   3.874   5.229   3.891 -0.3948  0.1975  0.2966
    9V3OU   C20 1341   3.953   5.309   3.802 -0.2690 -0.0241  0.2095
    9V3OU   H10 1342   3.970   5.247   3.709 -0.1592  1.1036 -0.5350
    9V3OU   C24 1343   4.070   5.122   3.979 -0.2403 -0.5517 -0.1103
    9V3OU   H16 1344   4.116   5.022   4.000  0.7055 -0.3024 -0.9598
    9V3OU   H17 1345   4.062   5.182   4.074  0.4670 -3.2235  1.7583
    9V3OU   C23 1346   4.160   5.205   3.888 -0.4408 -0.1945  0.0145
    9V3OU   H15 1347   4.172   5.148   3.790  0.2569 -1.0202  0.5721
    9V3OU    N1 1348   4.288   5.202   3.956 -0.1371  0.3143 -0.5215
    9V3OU   H19 1349   4.300   5.109   3.990  0.8413  1.2475  1.9268
    9V3OU   H20 1350   4.290   5.274   4.025  2.7360  1.0236 -1.2277
    9V3OU   C21 1351   4.091   5.342   3.858 -0.1122 -0.0643 -0.1513
    9V3OU   H11 1352   4.143   5.402   3.777  2.7584  1.1272  2.3646
    9V3OU    O5 1353   4.090   5.425   3.974  0.0226 -0.5755  0.2170
    9V3OU   H18 1354   4.120   5.516   3.961  2.2608 -0.5186  4.1519
    9V3OU   C22 1355   3.875   5.431   3.757  0.1068  0.5304  1.0468
    9V3OU   H12 1356   3.776   5.398   3.716  0.6937 -0.4609  0.4003
    9V3OU   H13 1357   3.933   5.484   3.677 -1.7199 -2.4315 -2.5425
    9V3OU   H14 1358   3.846   5.496   3.844 -3.5346  0.0638  0.3111
    9V3OU   C11 1359   4.416   4.876   3.674 -0.5478 -0.3049  0.0436
    9V3OU    O1 1360   4.431   4.851   3.796  0.0455  0.2472  0.0905
    9V3OU    C9 1361   4.277   4.880   3.624 -0.4395 -0.9063 -0.2982
    9V3OU    C7 1362   4.171   4.881   3.713 -0.4014 -0.9916 -0.2567
    9V3OU    O9 1363   4.183   4.860   3.849  0.1892 -0.1615 -0.1753
    9V3OU   H25 1364   4.280   4.861   3.847  0.2083  2.2952 -0.7387
    9V3OU   C17 1365   4.762   4.931   3.551 -0.0508 -0.1590  0.4897
    9V3OU    H7 1366   4.863   4.923   3.591  0.4533  0.0667 -0.6886
    9V3OU   C18 1367   4.742   4.887   3.421 -0.3701 -0.2711  0.5766
    9V3OU    H8 1368   4.836   4.859   3.370  1.0196 -0.0633  2.8965
   10V3OU   H29 1369   4.182   4.250   4.761  0.6763 -0.1193  1.1194
   10V3OU   C27 1370   4.270   4.288   4.702 -0.1017 -0.1622 -0.1114
   10V3OU   H27 1371   4.327   4.359   4.767 -0.2532  0.1599 -0.3264
   10V3OU   H28 1372   4.335   4.221   4.641 -0.8134  1.2625 -2.5558
   10V3OU   O11 1373   4.203   4.374   4.609  0.2215  0.0764 -0.1239
   10V3OU   C15 1374   4.263   4.454   4.514 -0.2796  0.3767 -0.1896
   10V3OU   C13 1375   4.176   4.516   4.421  0.0329 -0.5014 -1.0819
   10V3OU   C14 1376   4.234   4.596   4.321  0.4260 -0.3766 -0.7600
   10V3OU   C16 1377   4.370   4.621   4.325  0.5071 -0.8515 -0.3463
   10V3OU    H6 1378   4.417   4.672   4.239 -0.4069 -1.9350 -1.5148
   10V3OU   C12 1379   4.151   4.656   4.214 -0.0916 -0.0308 -0.1750
   10V3OU    O2 1380   4.208   4.705   4.115  0.1123 -0.2332 -0.1599
   10V3OU   C10 1381   4.005   4.660   4.233 -0.0045  0.2533  0.4639
   10V3OU    C8 1382   3.928   4.751   4.161  0.1552  0.5597  0.6735
   10V3OU   O10 1383   3.979   4.828   4.061  0.3374  0.3739  0.6208
   10V3OU   H26 1384   4.073   4.809   4.046 -0.1427 -2.2430  0.5692
   10V3OU    C6 1385   3.787   4.749   4.184  0.0177 -0.7158 -0.1650
   10V3OU    C5 1386   3.727   4.668   4.280  0.0904 -0.9456 -0.3128
   10V3OU    C4 1387   3.703   4.814   4.079 -0.2719 -0.1311  0.4271
   10V3OU    H4 1388   3.754   4.901   4.028  0.8748 -1.0885 -0.1076
   10V3OU    H5 1389   3.704   4.731   4.003  2.5482 -0.7108  0.9712
   10V3OU    C2 1390   3.559   4.843   4.120 -0.3074 -0.1408  0.3083
   10V3OU    O6 1391   3.560   4.955   4.209  0.6090 -0.0957  0.2446
   10V3OU   H21 1392   3.579   4.901   4.288  1.6042  0.2022  0.2229
   10V3OU    C3 1393   3.499   4.728   4.200 -0.1248 -0.2782  0.2465
   10V3OU    H2 1394   3.398   4.755   4.240  0.8789  2.2712  1.2442
   10V3OU    H3 1395   3.499   4.646   4.124 -2.4356  0.3899 -0.5801
   10V3OU   C25 1396   3.481   4.869   3.991  0.4688  0.0840 -0.1186
   10V3OU    O7 1397   3.480   4.789   3.897 -0.4959  0.2195 -0.2299
   10V3OU   C26 1398   3.390   4.990   3.982 -0.2216 -0.4466 -0.4461
   10V3OU   H22 1399   3.301   4.961   4.043  0.6103  1.6334  1.9406
   10V3OU   H23 1400   3.363   5.010   3.876 -1.9721 -1.6751 -0.2735
   10V3OU    O8 1401   3.454   5.109   4.024 -0.8171 -0.2336 -0.1324
   10V3OU   H24 1402   3.494   5.089   4.110  2.1191  0.2686 -1.2443
   10V3OU    C1 1403   3.584   4.686   4.319  0.2611 -0.2146 -0.0046
   10V3OU    H1 1404   3.542   4.589   4.360 -1.6958 -0.2252 -1.8796
   10V3OU    O3 1405   3.574   4.796   4.410 -0.0562  0.0206 -0.3193
   10V3OU   C19 1406   3.558   4.771   4.550  0.0765  0.1949 -0.2724
   10V3OU    H9 1407   3.594   4.667   4.577 -0.0894 -0.1698 -1.4054
   10V3OU    O4 1408   3.419   4.776   4.572  0.1889  0.2783  0.4432
   10V3OU   C20 1409   3.354   4.904   4.574  0.0623  0.2287 -0.3499
   10V3OU   H10 1410   3.364   4.942   4.468 -0.0252 -0.6659 -0.6928
   10V3OU   C24 1411   3.641   4.874   4.626  0.4009 -0.0959 -0.2303
   10V3OU   H16 1412   3.741   4.884   4.575 -0.0084 -3.0483 -1.8281
   10V3OU   H17 1413   3.660   4.832   4.728  0.3822  1.0195  0.2427
   10V3OU   C23 1414   3.571   5.009   4.617 -0.2912 -0.4437 -0.1052
   10V3OU   H15 1415   3.569   5.042   4.507 -0.2893  2.5076  0.6827
   10V3OU    N1 1416   3.657   5.087   4.703 -0.8440  0.0848 -0.0203
   10V3OU   H19 1417   3.605   5.086   4.788 -0.0183  0.3467  0.5065
   10V3OU   H20 1418   3.724   5.017   4.728  0.9382  0.9100 -2.1679
   10V3OU   C21 1419   3.423   5.005   4.666 -0.2660  0.1064  0.0327
   10V3OU   H11 1420   3.392   5.112   4.649  1.7922  0.7059 -0.1493
   10V3OU    O5 1421   3.406   4.972   4.803  0.1953  0.3212  0.1415
   10V3OU   H18 1422   3.377   4.880   4.816  1.1181  0.1442  1.1164
   10V3OU   C22 1423   3.207   4.878   4.604  0.1667  0.5663  0.4734
   10V3OU   H12 1424   3.151   4.850   4.511  0.0623  2.1945  0.0038
   10V3OU   H13 1425   3.160   4.971   4.646  0.4428  1.4576 -1.0928
   10V3OU   H14 1426   3.194   4.789   4.670 -1.8722 -0.0362 -0.6507
   10V3OU   C11 1427   4.030   4.503   4.432  0.0996  0.0713  0.7406
   10V3OU    O1 1428   3.973   4.435   4.520 -0.2013 -0.3087  0.2512
   10V3OU    C9 1429   3.950   4.574   4.331  0.3598  0.1658  0.5975
   10V3OU    C7 1430   3.813   4.580   4.354  0.1463 -0.8846 -0.3039
   10V3OU    O9 1431   3.748   4.500   4.446  0.2307 -0.0492  0.4953
   10V3OU   H25 1432   3.822   4.453   4.489  0.9923 -0.7006 -1.4387
   10V3OU   C17 1433   4.403   4.469   4.509 -0.1888 -0.5953 -0.9285
   10V3OU    H7 1434   4.471   4.435   4.587  1.5422 -0.3129 -2.2377
   10V3OU   C18 1435   4.455   4.555   4.413  0.7757 -0.5534 -0.3785
   10V3OU    H8 1436   4.565   4.554   4.405  0.8565  0.1027  0.4530
   11V3OU   H29 1437   2.868   1.962   2.559 -0.2639 -1.7008  0.2545
   11V3OU   C27 1438   2.899   1.974   2.666 -0.0684  0.5088  0.0058
   11V3OU   H27 1439   2.875   2.074   2.712  2.3693 -0.2451  3.3017
   11V3OU   H28 1440   2.873   1.889   2.734  1.7723  0.8247  1.1675
   11V3OU   O11 1441   3.041   1.963   2.664 -0.0887  0.0808  0.4942
   11V3OU   C15 1442   3.106   1.957   2.785 -0.0336  1.5940  0.5644
   11V3OU   C13 1443   3.246   1.950   2.771 -0.1824 -0.3304 -0.2657
   11V3OU   C14 1444   3.334   1.878   2.853  0.0327 -0.1309 -0.3217
   11V3OU   C16 1445   3.280   1.804   2.958 -0.3515  0.8276  0.1709
   11V3OU    H6 1446   3.353   1.758   3.026 -1.0546 -0.2027  0.2361
   11V3OU   C12 1447   3.482   1.876   2.840  0.0433 -0.4587 -0.1634
   11V3OU    O2 1448   3.553   1.812   2.920  0.1011  0.0938  0.2335
   11V3OU   C10 1449   3.544   1.961   2.737  0.2303  0.0880  0.3936
   11V3OU    C8 1450   3.679   1.948   2.708  0.2505  0.2496  0.4067
   11V3OU   O10 1451   3.764   1.875   2.785  0.1646 -0.2200  0.0599
   11V3OU   H26 1452   3.700   1.831   2.843  1.7657 -0.4123  1.7789
   11V3OU    C6 1453   3.729   2.024   2.597  0.2930  0.2950  0.4544
   11V3OU    C5 1454   3.647   2.118   2.535 -0.3521 -0.5300  0.0212
   11V3OU    C4 1455   3.857   1.983   2.533 -0.1358  0.0247 -0.2418
   11V3OU    H4 1456   3.930   1.971   2.618 -0.8003 -3.4896 -0.0114
   11V3OU    H5 1457   3.853   1.878   2.490  0.0997  0.5025 -1.4553
   11V3OU    C2 1458   3.919   2.083   2.435  0.2310 -0.1186 -0.1581
   11V3OU    O6 1459   3.960   2.199   2.507  0.2285 -0.0693 -0.2362
   11V3OU   H21 1460   3.881   2.255   2.512 -0.6925 -1.3925  3.9635
   11V3OU    C3 1461   3.811   2.143   2.345 -0.0362 -0.0645  0.1917
   11V3OU    H2 1462   3.856   2.225   2.283  1.1279 -0.0234  1.0507
   11V3OU    H3 1463   3.769   2.054   2.291 -0.5399 -1.1016  2.1874
   11V3OU   C25 1464   4.028   2.016   2.351  0.1358 -0.1244 -0.2771
   11V3OU    O7 1465   4.017   1.894   2.341  0.1205 -0.1449 -0.0175
   11V3OU   C26 1466   4.130   2.089   2.266  0.0320 -0.6086 -0.8260
   11V3OU   H22 1467   4.180   2.010   2.205  1.1209  1.9279 -3.4901
   11V3OU   H23 1468   4.213   2.122   2.333 -1.3923 -0.0949  0.7664
   11V3OU    O8 1469   4.101   2.208   2.195 -0.4947 -0.2081  0.0443
   11V3OU   H24 1470   4.138   2.208   2.105 -0.4429  0.3111  0.0644
   11V3OU    C1 1471   3.697   2.205   2.423  0.0929 -0.1860  0.4777
   11V3OU    H1 1472   3.611   2.219   2.352 -0.7671  1.2399  1.7458
   11V3OU    O3 1473   3.751   2.328   2.471  0.2979 -0.0700 -0.0449
   11V3OU   C19 1474   3.673   2.447   2.485  0.6542  0.1787 -0.1580
   11V3OU    H9 1475   3.597   2.439   2.569 -0.3650 -0.9354 -1.1519
   11V3OU    O4 1476   3.618   2.472   2.358  0.0791  0.0257  0.0578
   11V3OU   C20 1477   3.698   2.523   2.251 -0.4846  0.6750 -0.0633
   11V3OU   H10 1478   3.772   2.441   2.229 -0.5600  0.3364  0.8966
   11V3OU   C24 1479   3.781   2.546   2.530  0.1436  0.5499  0.2855
   11V3OU   H16 1480   3.837   2.491   2.610 -1.1531 -0.0236  0.8233
   11V3OU   H17 1481   3.717   2.625   2.575 -2.2887 -0.1689 -1.6721
   11V3OU   C23 1482   3.861   2.594   2.408 -0.0806  0.1902 -0.0086
   11V3OU   H15 1483   3.910   2.503   2.362 -1.1849 -0.9068  0.9151
   11V3OU    N1 1484   3.959   2.686   2.465  0.0488 -0.0405  0.1421
   11V3OU   H19 1485   3.967   2.654   2.559 -0.4540 -1.0572 -0.1356
   11V3OU   H20 1486   3.915   2.776   2.465  0.5533  0.3040  3.4336
   11V3OU   C21 1487   3.774   2.649   2.291 -0.2181  0.4306  0.2055
   11V3OU   H11 1488   3.846   2.678   2.209  1.9852 -1.5465  1.3117
   11V3OU    O5 1489   3.693   2.759   2.331 -0.1068  0.5568  0.0879
   11V3OU   H18 1490   3.602   2.733   2.357 -0.3741  0.0221 -1.2613
   11V3OU   C22 1491   3.615   2.523   2.124 -0.3656 -0.3992 -0.1509
   11V3OU   H12 1492   3.583   2.419   2.098 -1.4528 -0.2978  0.6709
   11V3OU   H13 1493   3.681   2.548   2.037  0.6003 -0.7928  0.4627
   11V3OU   H14 1494   3.535   2.601   2.133 -0.4520 -0.5044  0.0020
   11V3OU   C11 1495   3.309   2.050   2.683 -0.0269 -0.3026 -0.1250
   11V3OU    O1 1496   3.253   2.158   2.654 -0.2852 -0.4485 -0.1809
   11V3OU    C9 1497   3.455   2.043   2.663  0.2024  0.6602  1.0421
   11V3OU    C7 1498   3.509   2.131   2.570 -0.3204 -0.0915  0.0015
   11V3OU    O9 1499   3.437   2.233   2.511  0.5763  0.5325 -0.0420
   11V3OU   H25 1500   3.350   2.228   2.553 -1.8587 -3.1434 -4.5863
   11V3OU   C17 1501   3.060   1.884   2.897  0.3033  0.3598 -0.0846
   11V3OU    H7 1502   2.957   1.897   2.931 -0.3156 -2.6134 -0.5670
   11V3OU   C18 1503   3.143   1.806   2.977 -0.4125 -0.4067 -0.0766
   11V3OU    H8 1504   3.099   1.721   3.031  0.1851  0.3241  1.6197
   12V3OU   H29 1505   4.045   3.222   2.271 -0.5841  1.3057 -0.5558
   12V3OU   C27 1506   4.130   3.264   2.211  0.1524  0.3691 -0.1983
   12V3OU   H27 1507   4.230   3.266   2.261 -0.6456 -1.5271  1.6025
   12V3OU   H28 1508   4.126   3.235   2.103  1.9132  2.9676 -1.0559
   12V3OU   O11 1509   4.101   3.404   2.208 -0.4344  0.2580  0.2283
   12V3OU   C15 1510   3.977   3.448   2.164 -0.4216 -0.0137 -0.0824
   12V3OU   C13 1511   3.960   3.587   2.169 -0.2365  0.0028  0.1116
   12V3OU   C14 1512   3.833   3.645   2.155 -0.1540  0.1442 -0.0427
   12V3OU   C16 1513   3.717   3.570   2.143 -0.2128  0.2114  0.1165
   12V3OU    H6 1514   3.617   3.612   2.161  0.2103  1.5538 -0.5810
   12V3OU   C12 1515   3.811   3.788   2.189 -0.0788  0.1987 -0.2334
   12V3OU    O2 1516   3.698   3.830   2.224  0.3011  0.8177  0.2557
   12V3OU   C10 1517   3.931   3.870   2.207 -0.0126 -0.0496  0.4763
   12V3OU    C8 1518   3.922   4.003   2.245  0.6725 -0.0066  0.4854
   12V3OU   O10 1519   3.799   4.051   2.276  0.0302 -0.9045 -0.6273
   12V3OU   H26 1520   3.740   3.977   2.252  0.1055 -0.9275 -0.7432
   12V3OU    C6 1521   4.030   4.091   2.276  0.4857  0.3547  0.0954
   12V3OU    C5 1522   4.156   4.040   2.245  0.3685 -0.0230  0.2551
   12V3OU    C4 1523   4.003   4.236   2.302  0.2835  0.3473 -0.0864
   12V3OU    H4 1524   3.920   4.269   2.233 -2.1777 -2.5416  1.2741
   12V3OU    H5 1525   3.975   4.234   2.411  1.8773 -1.1926  0.3497
   12V3OU    C2 1526   4.129   4.322   2.288  0.5286  0.0313  0.1681
   12V3OU    O6 1527   4.156   4.349   2.150  0.1122 -0.0123  0.0775
   12V3OU   H21 1528   4.214   4.277   2.121 -1.4181 -1.0130 -0.6383
   12V3OU    C3 1529   4.254   4.246   2.331  0.3438 -0.0275  0.6057
   12V3OU    H2 1530   4.341   4.316   2.336  1.8746 -1.8213  0.4205
   12V3OU    H3 1531   4.236   4.208   2.435  0.0074 -4.1844 -0.7757
   12V3OU   C25 1532   4.126   4.443   2.381  0.7352  0.1761 -0.0128
   12V3OU    O7 1533   4.136   4.438   2.504  0.2586 -0.2653  0.0101
   12V3OU   C26 1534   4.127   4.583   2.321 -0.1526  0.3701  0.3939
   12V3OU   H22 1535   4.209   4.648   2.360 -0.6264  0.7497  0.7619
   12V3OU   H23 1536   4.030   4.634   2.343 -0.7231 -0.4495 -0.1345
   12V3OU    O8 1537   4.123   4.586   2.180  0.4817 -0.2468  0.3573
   12V3OU   H24 1538   4.159   4.499   2.153  0.5390 -1.1465  3.0623
   12V3OU    C1 1539   4.282   4.121   2.249  0.2478  0.1610  0.2859
   12V3OU    H1 1540   4.365   4.064   2.300  1.1035  2.4054  1.5687
   12V3OU    O3 1541   4.320   4.174   2.122  0.1002 -0.3284  0.0384
   12V3OU   C19 1542   4.417   4.112   2.037  0.1749 -0.3543  0.1434
   12V3OU    H9 1543   4.390   4.005   2.016 -1.1535  0.2149 -1.2142
   12V3OU    O4 1544   4.534   4.105   2.115  0.2068  0.0107  0.1291
   12V3OU   C20 1545   4.599   4.229   2.146  0.5252 -0.0883 -0.1322
   12V3OU   H10 1546   4.525   4.284   2.212 -0.9805 -2.5421  0.3521
   12V3OU   C24 1547   4.439   4.186   1.905 -0.4196 -0.2105  0.1227
   12V3OU   H16 1548   4.345   4.203   1.846  1.2997 -0.9666 -3.0796
   12V3OU   H17 1549   4.506   4.115   1.851 -1.1900 -1.5672  0.9026
   12V3OU   C23 1550   4.510   4.319   1.931  0.2412 -0.4172 -0.5648
   12V3OU   H15 1551   4.443   4.392   1.989  1.0922  2.0073 -2.4513
   12V3OU    N1 1552   4.525   4.369   1.796 -0.6201  0.4137 -0.3673
   12V3OU   H19 1553   4.548   4.296   1.733 -2.6917  0.6519 -1.4845
   12V3OU   H20 1554   4.594   4.439   1.815 -0.9071 -0.0124  2.9294
   12V3OU   C21 1555   4.639   4.302   2.018  0.0108  0.3194 -0.0640
   12V3OU   H11 1556   4.672   4.402   2.059 -1.3822 -0.5322  3.4494
   12V3OU    O5 1557   4.750   4.247   1.950 -0.0677  0.3557 -0.2234
   12V3OU   H18 1558   4.764   4.293   1.865  0.0999 -1.8819 -1.4839
   12V3OU   C22 1559   4.713   4.191   2.239  0.4697 -0.0089 -0.0308
   12V3OU   H12 1560   4.771   4.107   2.193 -1.4613 -0.4148 -1.9085
   12V3OU   H13 1561   4.676   4.171   2.342  2.4223  0.0796  0.7211
   12V3OU   H14 1562   4.780   4.280   2.255 -0.1920  0.4094  0.4742
   12V3OU   C11 1563   4.079   3.673   2.164 -0.3657  0.1547 -0.3176
   12V3OU    O1 1564   4.193   3.632   2.135  0.0831  0.8756  0.3943
   12V3OU    C9 1565   4.062   3.819   2.186 -0.0118  0.1367  0.0513
   12V3OU    C7 1566   4.171   3.903   2.207  0.0795  0.1043 -0.3079
   12V3OU    O9 1567   4.296   3.846   2.214 -0.0931 -0.2341  0.0232
   12V3OU   H25 1568   4.270   3.756   2.190 -0.4458  0.0258 -0.5839
   12V3OU   C17 1569   3.857   3.376   2.150 -0.3160 -0.1660 -0.2031
   12V3OU    H7 1570   3.860   3.267   2.152 -3.0699 -0.3127  1.4246
   12V3OU   C18 1571   3.730   3.431   2.136 -0.1042  0.2512 -0.4919
   12V3OU    H8 1572   3.639   3.372   2.118  0.6994 -1.5830  1.2013
   13V3OU   H29 1573   2.260   2.381   2.868  0.6213  1.7095 -0.0962
   13V3OU   C27 1574   2.317   2.309   2.803 -0.3083  0.6241  0.2661
   13V3OU   H27 1575   2.392   2.243   2.854 -0.1603  0.0318 -0.6931
   13V3OU   H28 1576   2.251   2.246   2.738 -1.1126 -1.0106  2.5159
   13V3OU   O11 1577   2.407   2.392   2.730  0.1014 -0.1036 -0.0660
   13V3OU   C15 1578   2.380   2.445   2.605  0.1288  0.1845  0.0497
   13V3OU   C13 1579   2.496   2.500   2.548 -0.0049 -0.1060 -0.5078
   13V3OU   C14 1580   2.491   2.612   2.464  0.1054  0.4381  0.2050
   13V3OU   C16 1581   2.368   2.661   2.421 -0.0588  0.1818  0.3828
   13V3OU    H6 1582   2.363   2.760   2.373 -0.2568 -0.4442 -0.9308
   13V3OU   C12 1583   2.613   2.687   2.427  0.3886  0.1206  0.4872
   13V3OU    O2 1584   2.608   2.794   2.362  0.1074  0.0947  0.4651
   13V3OU   C10 1585   2.744   2.635   2.469  0.4158 -0.2885 -0.0878
   13V3OU    C8 1586   2.859   2.706   2.437  0.1991  0.4094  0.6462
   13V3OU   O10 1587   2.850   2.833   2.390  0.0146  0.2149  0.1498
   13V3OU   H26 1588   2.755   2.839   2.376  0.0522 -0.1941 -0.3108
   13V3OU    C6 1589   2.989   2.646   2.450 -0.0044 -0.1924 -0.0741
   13V3OU    C5 1590   2.991   2.517   2.501  0.1173 -0.0669  0.2370
   13V3OU    C4 1591   3.112   2.721   2.412  0.0886 -0.1908  0.2350
   13V3OU    H4 1592   3.089   2.784   2.322  0.5222  1.5452  1.2925
   13V3OU    H5 1593   3.141   2.801   2.487 -2.8394  0.6922  0.5515
   13V3OU    C2 1594   3.235   2.637   2.377  0.2282  0.1904 -0.1844
   13V3OU    O6 1595   3.214   2.581   2.247 -0.1898 -0.4697  0.1661
   13V3OU   H21 1596   3.176   2.496   2.276  0.6074 -0.0335  2.6935
   13V3OU    C3 1597   3.241   2.516   2.470  0.0209  0.3531  0.0433
   13V3OU    H2 1598   3.325   2.450   2.435 -1.2564 -0.3932 -1.8180
   13V3OU    H3 1599   3.262   2.562   2.569  0.9856  1.7110 -0.7584
   13V3OU   C25 1600   3.360   2.725   2.378  0.3060  0.0808 -0.2157
   13V3OU    O7 1601   3.448   2.710   2.463 -0.2302 -0.3994  0.2609
   13V3OU   C26 1602   3.363   2.844   2.282  0.8788 -0.2381 -0.5996
   13V3OU   H22 1603   3.339   2.810   2.178  0.5855  1.9603 -1.2987
   13V3OU   H23 1604   3.463   2.894   2.287  1.5616 -1.4177 -1.8075
   13V3OU    O8 1605   3.285   2.951   2.328  0.7882 -0.3834 -0.4113
   13V3OU   H24 1606   3.257   3.013   2.258  1.4080  3.6024  2.5127
   13V3OU    C1 1607   3.114   2.433   2.481  0.2465  0.0668  0.4789
   13V3OU    H1 1608   3.131   2.355   2.561 -0.4257  0.6152  1.1754
   13V3OU    O3 1609   3.099   2.375   2.352 -0.4891  0.0008  0.5885
   13V3OU   C19 1610   3.127   2.235   2.345  0.0618  0.1163  0.4007
   13V3OU    H9 1611   3.175   2.188   2.436  1.2924 -0.2949 -0.4288
   13V3OU    O4 1612   3.231   2.225   2.251 -0.1628 -0.5401  0.2130
   13V3OU   C20 1613   3.189   2.248   2.116 -0.1184 -0.5778  0.1928
   13V3OU   H10 1614   3.151   2.354   2.113 -1.3734 -1.0176 -0.0222
   13V3OU   C24 1615   3.001   2.157   2.309  0.0353  0.2794  0.1379
   13V3OU   H16 1616   2.919   2.182   2.382 -0.8029 -2.7914  0.3957
   13V3OU   H17 1617   3.025   2.048   2.324 -0.1663  0.2420  0.1960
   13V3OU   C23 1618   2.956   2.170   2.163 -0.2885  0.2902  0.2367
   13V3OU   H15 1619   2.908   2.273   2.152 -2.2387 -0.6487 -0.4818
   13V3OU    N1 1620   2.850   2.072   2.150  0.0615 -0.0713  0.0880
   13V3OU   H19 1621   2.811   2.045   2.238  0.0180  0.4761  0.2413
   13V3OU   H20 1622   2.892   1.987   2.116 -1.3682 -0.9434  0.4312
   13V3OU   C21 1623   3.074   2.164   2.061 -0.2381 -0.5102  0.3374
   13V3OU   H11 1624   3.042   2.225   1.972  0.7932  0.0593  0.3393
   13V3OU    O5 1625   3.111   2.036   2.011 -0.1087 -0.1382 -0.5322
   13V3OU   H18 1626   3.116   2.047   1.915 -0.9674 -0.7862 -0.6657
   13V3OU   C22 1627   3.317   2.263   2.035 -0.1258  0.3280  0.3409
   13V3OU   H12 1628   3.294   2.295   1.930  0.2823 -0.8404 -0.1198
   13V3OU   H13 1629   3.360   2.162   2.013 -0.8997  0.2581 -0.9769
   13V3OU   H14 1630   3.396   2.313   2.097  0.4237 -1.0902  0.8261
   13V3OU   C11 1631   2.625   2.433   2.570 -0.0046  0.2060  0.5189
   13V3OU    O1 1632   2.653   2.324   2.625 -0.3206  0.1887  0.6447
   13V3OU    C9 1633   2.747   2.508   2.533  0.1228 -0.1732  0.1563
   13V3OU    C7 1634   2.873   2.449   2.543  0.0635 -0.4077 -0.4471
   13V3OU    O9 1635   2.891   2.327   2.605  0.2008 -0.0801  0.1590
   13V3OU   H25 1636   2.797   2.304   2.611 -0.0415  0.7868 -0.1187
   13V3OU   C17 1637   2.259   2.496   2.554  0.1421 -0.0969 -0.2680
   13V3OU    H7 1638   2.169   2.453   2.598 -0.3873  0.5095 -0.7312
   13V3OU   C18 1639   2.250   2.600   2.462 -0.1832  0.3140  0.2208
   13V3OU    H8 1640   2.156   2.609   2.406 -1.3106  0.4186  2.0302
   14SOL     OW 1641   4.278   5.559   4.642  0.2431  0.2684  0.0292
   14SOL    HW1 1642   4.229   5.593   4.562 -1.8009  0.5717  1.3328
   14SOL    HW2 1643   4.243   5.604   4.724  1.1073 -1.2257  1.2756
   15SOL     OW 1644   1.923   0.167   6.154 -0.2947  0.0505 -0.5216
   15SOL    HW1 1645   1.909   0.190   6.251 -1.5453  0.3762 -0.7586
   15SOL    HW2 1646   1.907   0.070   6.140  0.9381 -0.2101 -0.2310
   16SOL     OW 1647   5.889   0.731   0.062  0.5574 -0.1135  0.2795
   16SOL    HW1 1648   5.840   0.708  -0.022  0.5378 -2.3507  0.8406
   16SOL    HW2 1649   5.831   0.788   0.120  0.5148  1.3283 -1.1244
   17SOL     OW 1650   6.149   0.226   6.522  0.3534 -0.6907 -0.0380
   17SOL    HW1 1651   6.077   0.293   6.540  1.1481  0.2187 -0.1162
   17SOL    HW2 1652   6.146   0.154   6.591  0.8658  0.6271  1.4273
   18SOL     OW 1653   1.102   4.071   0.746 -0.0749 -0.2386 -0.1588
   18SOL    HW1 1654   1.052   4.047   0.829 -0.5979  0.2051 -0.3443
   18SOL    HW2 1655   1.080   4.005   0.674  0.5176 -0.7314  0.0956
   19SOL     OW 1656   4.949   3.834   0.902  0.5161 -0.1228 -0.1219
   19SOL    HW1 1657   4.908   3.886   0.978  1.8671  1.0850 -0.1735
   19SOL    HW2 1658   4.880   3.821   0.831 -0.6249 -0.8161  1.0557
   20SOL     OW 1659   3.119   2.680   0.191 -1.0528  0.1699 -0.3698
   20SOL    HW1 1660   3.033   2.722   0.164 -0.4144  1.3953 -0.5980
   20SOL    HW2 1661   3.113   2.581   0.181 -1.1501  0.4118 -4.3193
   21SOL     OW 1662   4.475   3.240   6.740  0.4604 -0.1034  0.3017
   21SOL    HW1 1663   4.469   3.282   6.830  0.5523  0.4569  0.0569
   21SOL    HW2 1664   4.385   3.211   6.710  0.5915 -1.3461  1.0513
   22SOL     OW 1665   5.334   3.991   4.177 -1.1027 -0.0638 -0.0517
   22SOL    HW1 1666   5.326   3.962   4.272  1.0089  0.2447  0.2692
   22SOL    HW2 1667   5.354   3.912   4.119  1.7677  0.2383  0.4092
   23SOL     OW 1668   5.563   2.788   5.079  0.4612  0.6512 -0.4657
   23SOL    HW1 1669   5.613   2.710   5.116  0.4570  1.5519  1.6114
   23SOL    HW2 1670   5.468   2.785   5.112  0.8732  2.3395  1.0151
   24SOL     OW 1671   7.008   0.704   6.157 -0.3193 -0.1407 -0.0502
   24SOL    HW1 1672   7.076   0.639   6.189  1.4504  0.2404 -2.7015
   24SOL    HW2 1673   6.954   0.737   6.234  0.1707 -3.0310  1.6835
   25SOL     OW 1674   3.519   0.604   2.761 -0.0752 -0.1146  0.3246
   25SOL    HW1 1675   3.611   0.610   2.725  0.2534 -3.2441  0.3488
   25SOL    HW2 1676   3.522   0.565   2.853 -1.3803  0.6817  0.7318
   26SOL     OW 1677   6.173   0.728   6.355  0.1124  0.5339 -0.6581
   26SOL    HW1 1678   6.121   0.723   6.440  2.4977 -1.5788  0.8172
   26SOL    HW2 1679   6.227   0.813   6.354 -0.6093  1.0022 -0.5200
   27SOL     OW 1680   0.683   6.506   3.928  0.2176 -0.2305 -0.7208
   27SOL    HW1 1681   0.750   6.432   3.924 -0.2530 -0.6791 -0.4465
   27SOL    HW2 1682   0.629   6.507   3.843 -1.5559 -1.9201  0.3151
   28SOL     OW 1683   1.664   5.170   6.795  0.5430 -0.1877  0.7008
   28SOL    HW1 1684   1.648   5.100   6.725  1.2619  0.5284 -0.1990
   28SOL    HW2 1685   1.681   5.258   6.751 -0.3735  0.5682  1.8261
   29SOL     OW 1686   1.944   3.992   6.970  0.2296  0.4842 -0.3209
   29SOL    HW1 1687   1.849   3.961   6.965 -0.0198  1.3845 -1.8839
   29SOL    HW2 1688   2.005   3.913   6.968 -0.4402 -0.0463 -2.2086
   30SOL     OW 1689   2.092   1.887   6.999  0.3809 -0.1364  0.0295
   30SOL    HW1 1690   2.110   1.983   7.024  1.4900 -0.5932  1.1081
   30SOL    HW2 1691   2.008   1.882   6.946 -2.2643  0.9371  3.7287
   31SOL     OW 1692   4.260   2.341   5.917  0.0259  0.5350 -0.2647
   31SOL    HW1 1693   4.353   2.306   5.913  0.4439  1.6823 -0.9942
   31SOL    HW2 1694   4.203   2.291   5.851  0.2650  0.2316 -0.2421
   32SOL     OW 1695   5.839   2.246   2.305 -0.2989  0.0260 -0.2281
   32SOL    HW1 1696   5.854   2.343   2.286  0.1146  0.0997  0.4091
   32SOL    HW2 1697   5.862   2.192   2.224 -0.3877  0.4491 -0.5391
   33SOL     OW 1698   5.499   1.457   0.529  0.0733  0.0852  0.3452
   33SOL    HW1 1699   5.436   1.528   0.562 -0.9771 -0.8745  0.4430
   33SOL    HW2 1700   5.498   1.457   0.429  0.5915  0.6413  0.3303
   34SOL     OW 1701   3.758   3.159   3.799 -0.7625  0.3476 -0.5369
   34SOL    HW1 1702   3.775   3.073   3.751  1.6576  0.3777  0.1701
   34SOL    HW2 1703   3.812   3.232   3.759  0.4602  0.6159  1.4529
   35SOL     OW 1704   0.204   0.071   1.299 -0.1002 -0.3634  0.2950
   35SOL    HW1 1705   0.181   0.168   1.303 -0.4223 -0.4241 -0.0421
   35SOL    HW2 1706   0.258   0.053   1.217 -2.6659 -0.9867 -1.3931
   36SOL     OW 1707   0.804   3.093   4.386 -0.3879  0.1138 -0.3418
   36SOL    HW1 1708   0.723   3.074   4.443  0.2108  1.9643  1.2460
   36SOL    HW2 1709   0.886   3.061   4.434  0.0753  1.1611 -0.4132
   37SOL     OW 1710   6.308   0.883   6.820 -0.2713 -0.0503 -0.7000
   37SOL    HW1 1711   6.279   0.790   6.797 -1.9692  0.5718 -1.2359
   37SOL    HW2 1712   6.233   0.931   6.865  0.4172  1.2041 -0.8498
   38SOL     OW 1713   3.971   1.240   5.201  0.0352  0.0308 -0.0401
   38SOL    HW1 1714   3.994   1.156   5.151  1.8052  0.5837 -0.2277
   38SOL    HW2 1715   3.977   1.223   5.299  3.3093  0.5722 -0.0353
   39SOL     OW 1716   4.010   2.631   0.336 -0.3015 -0.1093 -0.1718
   39SOL    HW1 1717   3.947   2.697   0.296  0.2013 -0.4055 -1.4985
   39SOL    HW2 1718   4.063   2.587   0.263  2.3891  1.0541  0.9706
   40SOL     OW 1719   5.970   5.229   5.156 -0.0901 -0.3010 -0.4639
   40SOL    HW1 1720   5.887   5.173   5.151  0.6236 -1.4552  0.1443
   40SOL    HW2 1721   5.973   5.291   5.078 -2.4687  1.1298  0.4929
   41SOL     OW 1722   0.314   1.101   0.389  0.1721 -0.0392 -0.0636
   41SOL    HW1 1723   0.338   1.198   0.398  1.0806 -0.2395 -0.2542
   41SOL    HW2 1724   0.229   1.092   0.337 -0.5832  0.7108  0.9964
   42SOL     OW 1725   5.956   2.235   1.169 -0.1195  0.2955  0.4171
   42SOL    HW1 1726   6.017   2.172   1.216 -0.4613 -1.1925 -1.0503
   42SOL    HW2 1727   5.984   2.244   1.074 -1.9032 -0.0942 -0.1835
   43SOL     OW 1728   6.606   3.289   6.532  0.5690  0.4970  0.5270
   43SOL    HW1 1729   6.590   3.193   6.510  0.4526  0.9765 -1.7497
   43SOL    HW2 1730   6.518   3.335   6.545  0.5524  0.6173  0.0132
   44SOL     OW 1731   0.477   3.389   1.209 -0.2391  0.1609  0.9094
   44SOL    HW1 1732   0.557   3.432   1.252  0.8576 -0.4764 -0.4372
   44SOL    HW2 1733   0.495   3.292   1.195 -1.3112 -0.0138  0.6897
   45SOL     OW 1734   6.702   0.382   1.177  0.2151 -0.4735  0.4710
   45SOL    HW1 1735   6.766   0.306   1.170 -0.7341 -1.2828  0.2068
   45SOL    HW2 1736   6.608   0.346   1.170 -0.2270  0.8747 -1.3175
   46SOL     OW 1737   4.598   3.509   0.208 -0.3178  0.5061 -0.5572
   46SOL    HW1 1738   4.679   3.467   0.167 -0.6589  0.5281 -1.2687
   46SOL    HW2 1739   4.558   3.446   0.274 -0.4560 -0.0309 -1.1462
   47SOL     OW 1740   4.844   2.079   1.585 -0.6700  0.2184  0.0700
   47SOL    HW1 1741   4.800   2.167   1.569 -0.0173  0.2377 -1.8736
   47SOL    HW2 1742   4.873   2.039   1.498 -1.0345 -1.9942  0.8813
   48SOL     OW 1743   6.614   4.866   1.569  0.0057  0.0722 -0.0763
   48SOL    HW1 1744   6.707   4.890   1.597  0.0685 -1.4833  1.2035
   48SOL    HW2 1745   6.550   4.888   1.643 -0.4727  0.0219 -0.4713
   49SOL     OW 1746   4.602   6.744   5.513  0.0514 -0.3894 -0.5713
   49SOL    HW1 1747   4.590   6.649   5.485 -0.8595 -0.6353  0.5940
   49SOL    HW2 1748   4.549   6.804   5.451  0.4949 -0.6401 -1.2033
   50SOL     OW 1749   6.273   6.477   0.687 -0.1015  0.8507  0.1675
   50SOL    HW1 1750   6.265   6.538   0.608  1.1951  0.5710 -0.1937
   50SOL    HW2 1751   6.251   6.528   0.770 -0.3864  1.4382 -0.2563
   51SOL     OW 1752   3.801   6.140   2.971 -0.4046  0.1589 -0.0107
   51SOL    HW1 1753   3.764   6.180   3.056  0.0478 -0.8244  0.6600
   51SOL    HW2 1754   3.754   6.181   2.893 -1.0421  0.8691  0.7200
   52SOL     OW 1755   4.155   5.128   0.414  0.0565  0.2663  0.3298
   52SOL    HW1 1756   4.201   5.156   0.498  0.6650  1.9579 -0.5352
   52SOL    HW2 1757   4.213   5.147   0.336 -1.6097  1.3354 -0.7021
   53SOL     OW 1758   6.908   0.223   2.543 -0.4915  0.1705  0.4697
   53SOL    HW1 1759   6.862   0.134   2.546 -1.2948  0.5143 -1.1083
   53SOL    HW2 1760   7.005   0.209   2.522 -0.8634 -0.2911 -1.0708
   54SOL     OW 1761   3.043   0.518   5.403 -0.3036 -0.1127  0.5444
   54SOL    HW1 1762   3.018   0.589   5.337 -1.9491 -0.6277  0.5729
   54SOL    HW2 1763   3.072   0.436   5.353 -1.4840 -0.4799  0.4367
   55SOL     OW 1764   5.748   4.256   6.452  1.0763 -0.1601  0.4154
   55SOL    HW1 1765   5.784   4.195   6.522  1.7045  0.8785  1.0200
   55SOL    HW2 1766   5.718   4.341   6.495  1.6171  0.5584 -0.6013
   56SOL     OW 1767   2.819   6.027   4.575 -0.5949 -0.2396  0.0689
   56SOL    HW1 1768   2.809   5.960   4.502 -0.7109 -0.4384  0.2652
   56SOL    HW2 1769   2.837   5.979   4.661  1.2935  0.0475 -0.1206
   57SOL     OW 1770   2.132   2.780   6.028  0.2576  0.1469 -0.4442
   57SOL    HW1 1771   2.218   2.730   6.033  0.5666  0.7507  0.4455
   57SOL    HW2 1772   2.090   2.764   5.939  0.8356 -0.8851 -0.5494
   58SOL     OW 1773   2.996   6.462   5.026 -0.4642  0.2950 -0.1195
   58SOL    HW1 1774   2.908   6.415   5.032  0.8960 -2.7299 -1.9279
   58SOL    HW2 1775   3.051   6.439   5.106 -0.5431  0.5190  0.0012
   59SOL     OW 1776   2.556   6.949   1.797 -0.1233  0.0292 -0.3702
   59SOL    HW1 1777   2.655   6.936   1.796 -0.0125  0.7414  0.5800
   59SOL    HW2 1778   2.525   6.963   1.891 -1.3391 -1.6867 -0.4731
   60SOL     OW 1779   0.225   2.215   5.329  0.4360 -0.1635 -0.3557
   60SOL    HW1 1780   0.303   2.179   5.279 -0.3480 -0.3059 -1.5089
   60SOL    HW2 1781   0.205   2.308   5.297 -0.7644 -0.6731 -1.1502
   61SOL     OW 1782   3.103   6.008   0.829 -0.1527 -0.4006  0.1567
   61SOL    HW1 1783   3.119   5.926   0.884  0.5761 -2.1060 -2.4472
   61SOL    HW2 1784   3.188   6.038   0.787 -0.3223  2.0133  1.3335
   62SOL     OW 1785   0.715   5.534   6.212 -0.1409  0.0915  0.0499
   62SOL    HW1 1786   0.675   5.544   6.304  3.9240  2.3988  1.8528
   62SOL    HW2 1787   0.730   5.624   6.172  2.3235 -0.6105 -0.8009
   63SOL     OW 1788   1.175   1.150   4.819 -0.8504 -0.5828  0.1041
   63SOL    HW1 1789   1.158   1.059   4.856  0.0147 -0.9494 -0.3568
   63SOL    HW2 1790   1.151   1.151   4.722 -2.2710  0.1208  0.4319
   64SOL     OW 1791   1.347   6.050   5.970  0.1942  0.0928 -0.5773
   64SOL    HW1 1792   1.254   6.087   5.979  0.3146  1.0257 -2.7287
   64SOL    HW2 1793   1.414   6.123   5.983  0.4722  0.4395 -3.4532
   65SOL     OW 1794   1.169   1.819   2.101  0.1249 -0.4260 -0.3935
   65SOL    HW1 1795   1.094   1.873   2.138 -0.5509 -0.7581 -1.2551
   65SOL    HW2 1796   1.134   1.730   2.070  0.7547 -0.3527 -1.3532
   66SOL     OW 1797   4.584   2.346   1.327  0.0598 -0.3738  0.6366
   66SOL    HW1 1798   4.488   2.330   1.308  0.0622  0.6367 -0.3485
   66SOL    HW2 1799   4.640   2.281   1.276 -0.0887 -0.6733  0.8585
   67SOL     OW 1800   4.983   1.259   5.324  0.6133 -0.7141  0.2216
   67SOL    HW1 1801   4.951   1.349   5.351 -0.4421  0.0355 -3.0193
   67SOL    HW2 1802   5.045   1.222   5.394  0.0924  1.9310  2.2145
   68SOL     OW 1803   6.360   0.031   2.680  0.1402  0.1336  0.4141
   68SOL    HW1 1804   6.339  -0.057   2.722 -0.2221 -0.1651 -0.3566
   68SOL    HW2 1805   6.296   0.048   2.605  0.6970  0.6938  0.0510
   69SOL     OW 1806   5.228   0.841   3.487 -0.4978 -0.1635  0.4362
   69SOL    HW1 1807   5.320   0.803   3.500 -0.0301  1.2709  1.6833
   69SOL    HW2 1808   5.222   0.882   3.395 -0.1748 -0.9822  0.0404
   70SOL     OW 1809   1.745   5.681   2.377  0.2608 -0.1319  0.7332
   70SOL    HW1 1810   1.795   5.728   2.450  0.4779  1.5945 -0.4472
   70SOL    HW2 1811   1.753   5.734   2.293 -1.5699 -1.0690 -0.0821
   71SOL     OW 1812   2.352   1.452   3.880 -0.3754 -0.0123 -0.3098
   71SOL    HW1 1813   2.384   1.393   3.954 -0.2878 -0.2561 -0.5396
   71SOL    HW2 1814   2.413   1.531   3.871  0.0278 -0.3546 -0.5930
   72SOL     OW 1815   1.913   0.551   3.733 -0.4526 -0.7318  0.1219
   72SOL    HW1 1816   1.922   0.564   3.832  0.7780 -0.2869 -0.0382
   72SOL    HW2 1817   1.922   0.453   3.711  1.0888 -0.6458  0.2877
   73SOL     OW 1818   5.734   6.027   0.592  0.4332 -0.4643  0.9230
   73SOL    HW1 1819   5.761   6.016   0.496 -0.4258 -1.2516  0.7491
   73SOL    HW2 1820   5.685   5.945   0.622  0.0502  0.0737  1.8118
   74SOL     OW 1821   5.696   4.611   1.423 -0.1703  0.0620 -0.0013
   74SOL    HW1 1822   5.661   4.538   1.365 -1.5289  1.0747 -0.5033
   74SOL    HW2 1823   5.649   4.608   1.512  1.1671 -0.8476  0.7105
   75SOL     OW 1824   1.701   2.425   0.795  0.7272  0.0966  0.7196
   75SOL    HW1 1825   1.648   2.350   0.756  0.4852  1.2059 -1.2384
   75SOL    HW2 1826   1.643   2.506   0.803  1.6042  0.7596  0.4642
   76SOL     OW 1827   2.864   6.204   1.025 -0.2502 -0.7120  0.1147
   76SOL    HW1 1828   2.850   6.143   0.947  0.9575 -1.4297  0.4261
   76SOL    HW2 1829   2.957   6.241   1.022  0.5522 -2.3429  2.2317
   77SOL     OW 1830   4.758   4.699   2.563  0.8472  0.5135  0.0079
   77SOL    HW1 1831   4.780   4.628   2.496  1.1037 -0.5302  1.1636
   77SOL    HW2 1832   4.668   4.739   2.541  1.0427  0.3784 -1.0924
   78SOL     OW 1833   3.998   0.158   0.739  0.1020  0.0348 -0.1357
   78SOL    HW1 1834   4.038   0.083   0.688 -2.1551 -1.6354  0.3936
   78SOL    HW2 1835   3.978   0.234   0.677  2.6934  0.4071 -0.6266
   79SOL     OW 1836   6.866   0.802   4.679  0.2123 -0.2560  0.2690
   79SOL    HW1 1837   6.814   0.753   4.749 -1.4424 -1.3354 -1.6548
   79SOL    HW2 1838   6.809   0.874   4.639  0.3438 -1.0753 -1.4745
   80SOL     OW 1839   2.397   7.008   2.029 -0.7850  0.4586 -0.4474
   80SOL    HW1 1840   2.307   6.980   1.995 -1.2648  2.6547 -1.1451
   80SOL    HW2 1841   2.398   7.002   2.129 -1.6208  0.1944 -0.4423
   81SOL     OW 1842   0.765   4.942   4.035 -0.2201 -0.0503 -0.4210
   81SOL    HW1 1843   0.781   5.041   4.039 -1.0302  0.0838  2.4746
   81SOL    HW2 1844   0.837   4.894   4.085 -1.1649 -0.6389  0.4456
   82SOL     OW 1845   5.030   5.445   0.358  0.1248  0.0093  0.4838
   82SOL    HW1 1846   5.112   5.452   0.302  1.6154  1.6812  2.7160
   82SOL    HW2 1847   4.967   5.519   0.334  0.7783  0.7468  0.9872
   83SOL     OW 1848   3.849   3.348   2.974  0.3347  0.0895 -0.2113
   83SOL    HW1 1849   3.889   3.420   2.918  0.8542  0.3561  0.4890
   83SOL    HW2 1850   3.921   3.301   3.024 -0.0561 -0.5765 -0.2647
   84SOL     OW 1851   3.564   5.560   4.329 -0.0256  0.2420  0.2411
   84SOL    HW1 1852   3.540   5.469   4.363  1.9650 -0.2386  0.4784
   84SOL    HW2 1853   3.571   5.624   4.406 -1.5663  0.6638  0.0607
   85SOL     OW 1854   1.408   5.016   5.766 -0.4462 -0.4873  0.8822
   85SOL    HW1 1855   1.387   5.102   5.812 -1.5064 -0.5667  0.5887
   85SOL    HW2 1856   1.330   4.955   5.774 -0.8065 -0.3860 -1.2479
   86SOL     OW 1857   3.928   2.595   5.160  0.0462 -0.8914  0.2736
   86SOL    HW1 1858   3.971   2.632   5.242 -0.6811  0.6668 -0.0104
   86SOL    HW2 1859   3.859   2.528   5.186 -2.2965  1.6886  1.2318
   87SOL     OW 1860   3.870   1.156   6.556  0.0922  0.3560 -0.1212
   87SOL    HW1 1861   3.801   1.204   6.609  0.4417  0.7151  0.0073
   87SOL    HW2 1862   3.829   1.124   6.470 -0.1410  0.8600 -0.1980
   88SOL     OW 1863   6.204   1.959   3.111 -0.4733  0.5860  0.1547
   88SOL    HW1 1864   6.226   1.867   3.144 -0.8040  0.7849  0.9392
   88SOL    HW2 1865   6.212   2.024   3.186  0.1151  1.2600 -0.4817
   89SOL     OW 1866   6.575   6.148   5.504  0.0354  0.4510  0.1143
   89SOL    HW1 1867   6.529   6.231   5.474 -1.0026 -0.8334 -2.1193
   89SOL    HW2 1868   6.652   6.129   5.443  1.7905  0.9824  2.0375
   90SOL     OW 1869   4.995   0.322   3.787 -0.1260  0.6952 -0.4713
   90SOL    HW1 1870   5.087   0.284   3.773 -0.9906 -0.9877 -1.9897
   90SOL    HW2 1871   4.961   0.292   3.876  0.1192 -0.2020 -0.6666
   91SOL     OW 1872   6.256   1.034   1.705 -0.0296  0.3417 -0.6634
   91SOL    HW1 1873   6.208   0.971   1.644 -0.3959 -0.4826  0.4274
   91SOL    HW2 1874   6.343   0.993   1.733  0.2206  0.7937 -0.7758
   92SOL     OW 1875   5.506   1.005   6.223  0.1703 -0.6064  0.2746
   92SOL    HW1 1876   5.576   0.941   6.253  2.0848  1.4767  0.5626
   92SOL    HW2 1877   5.541   1.059   6.146 -0.3818  1.6454  1.5018
   93SOL     OW 1878   4.844   2.178   6.884  0.3064  0.1711  0.2108
   93SOL    HW1 1879   4.788   2.261   6.892 -0.7306 -0.5096  0.1919
   93SOL    HW2 1880   4.855   2.155   6.788  0.2734  0.0713  0.2312
   94SOL     OW 1881   0.642   3.745   4.309 -0.4177  0.3712  0.4858
   94SOL    HW1 1882   0.658   3.797   4.392 -1.5706 -0.4350  1.2508
   94SOL    HW2 1883   0.698   3.662   4.310  0.9426  1.2401 -0.4338
   95SOL     OW 1884   2.638   3.998   3.021  0.0113  0.4937  0.8357
   95SOL    HW1 1885   2.689   4.057   3.084 -2.0651  1.3027  1.8658
   95SOL    HW2 1886   2.543   3.991   3.052 -0.4199 -1.3426 -0.7217
   96SOL     OW 1887   3.111   3.661   1.799 -0.1823  0.0734  0.2341
   96SOL    HW1 1888   3.055   3.608   1.862  1.7156 -0.1732  1.8089
   96SOL    HW2 1889   3.063   3.745   1.774 -1.4824 -0.4061  1.0340
   97SOL     OW 1890   5.538   5.487   4.676 -0.1899  0.0662 -0.7295
   97SOL    HW1 1891   5.441   5.486   4.700  0.1219  0.4016  0.6875
   97SOL    HW2 1892   5.569   5.395   4.653 -0.4680 -0.3674  0.5566
   98SOL     OW 1893   6.934   1.531   2.489 -0.4695 -0.5675 -0.6625
   98SOL    HW1 1894   6.990   1.449   2.503 -1.0065 -0.6741  1.0779
   98SOL    HW2 1895   6.867   1.539   2.563  1.5257  3.0544  1.0442
   99SOL     OW 1896   5.168   0.031   4.680 -0.4426 -0.6554 -0.1755
   99SOL    HW1 1897   5.113   0.036   4.764  0.5509 -0.4585  0.4930
   99SOL    HW2 1898   5.200   0.123   4.657  3.0910 -1.1592  1.9072
  100SOL     OW 1899   2.186   2.011   4.567 -0.1067  0.2606  0.1147
  100SOL    HW1 1900   2.285   2.022   4.559  0.0950 -1.0273  0.6561
  100SOL    HW2 1901   2.142   2.055   4.488  0.7452  2.3829  0.7237
  101SOL     OW 1902   6.958   6.742   6.490 -0.3773 -0.3246 -0.0645
  101SOL    HW1 1903   6.958   6.707   6.396 -0.2326  0.5425 -0.3924
  101SOL    HW2 1904   6.913   6.676   6.550 -0.0814 -1.0882 -0.6638
  102SOL     OW 1905   2.810   1.392   5.352 -0.2724  0.5439 -0.2379
  102SOL    HW1 1906   2.713   1.392   5.377 -0.6044 -0.5472 -1.4478
  102SOL    HW2 1907   2.865   1.407   5.435 -1.3886 -1.2964  0.9169
  103SOL     OW 1908   3.996   3.594   2.935  0.2102  0.1136  0.6203
  103SOL    HW1 1909   3.969   3.688   2.956 -0.9651 -0.6966  3.1179
  103SOL    HW2 1910   4.093   3.592   2.912  0.1096  2.0008 -0.1503
  104SOL     OW 1911   2.931   5.198   6.721  0.2190  0.0156  0.2707
  104SOL    HW1 1912   2.831   5.210   6.727 -0.1811 -0.8800 -2.9063
  104SOL    HW2 1913   2.976   5.281   6.755 -1.4927  0.0497  2.7541
  105SOL     OW 1914   0.110   6.083   3.220 -0.3743 -0.7714  0.2058
  105SOL    HW1 1915   0.140   5.993   3.253  2.6041  0.3695  0.9253
  105SOL    HW2 1916   0.120   6.151   3.293  0.6233  0.7340 -1.2649
  106SOL     OW 1917   5.706   3.800   3.986 -0.1052  0.0812 -0.2054
  106SOL    HW1 1918   5.746   3.789   3.895  0.9593 -0.7609  0.3450
  106SOL    HW2 1919   5.608   3.787   3.981 -0.0186 -0.2804 -1.1755
  107SOL     OW 1920   0.662   0.717   6.334  0.6086 -0.1178 -0.0215
  107SOL    HW1 1921   0.684   0.712   6.432 -0.6782  0.4570  0.3203
  107SOL    HW2 1922   0.590   0.652   6.313 -0.9018  1.4770 -0.0331
  108SOL     OW 1923   1.867   0.345   1.689 -0.1965  0.0888 -0.0624
  108SOL    HW1 1924   1.791   0.360   1.752 -0.0272 -1.2420  0.4878
  108SOL    HW2 1925   1.953   0.372   1.734  0.1389 -2.4841  1.0256
  109SOL     OW 1926   0.593   0.169   3.947  0.0398  0.1805 -0.0312
  109SOL    HW1 1927   0.575   0.124   4.035  2.7037 -1.2512 -0.1320
  109SOL    HW2 1928   0.655   0.246   3.960 -0.9188  1.0496 -0.4696
  110SOL     OW 1929   3.673   1.343   3.157 -0.0986 -0.5760  0.3802
  110SOL    HW1 1930   3.729   1.294   3.223  1.1283  0.1767 -0.0636
  110SOL    HW2 1931   3.684   1.301   3.067 -1.3326 -1.2583  0.5292
  111SOL     OW 1932   0.322   2.947   3.446  0.1235 -0.6265  0.2552
  111SOL    HW1 1933   0.227   2.919   3.463 -0.3042  0.9374  0.5701
  111SOL    HW2 1934   0.361   2.890   3.373 -1.8006  0.1904 -1.5018
  112SOL     OW 1935   0.857   5.000   1.252  0.8443  0.1057  0.2004
  112SOL    HW1 1936   0.941   4.957   1.284  0.3619 -0.5719  0.5883
  112SOL    HW2 1937   0.799   4.931   1.209 -0.3317  0.1687  1.6217
  113SOL     OW 1938   4.774   4.230   5.722  0.1477  0.4639  0.4203
  113SOL    HW1 1939   4.808   4.250   5.814  1.6117 -0.1118  0.0386
  113SOL    HW2 1940   4.845   4.254   5.655 -0.0997 -1.0303 -0.4037
  114SOL     OW 1941   3.013   2.533   1.712 -0.0772 -0.1205 -0.4106
  114SOL    HW1 1942   3.031   2.623   1.751 -1.2520  1.1274 -2.5728
  114SOL    HW2 1943   3.099   2.487   1.695  0.5339  0.4029  1.0482
  115SOL     OW 1944   5.088   4.595   0.695  0.0762 -0.0204  0.0048
  115SOL    HW1 1945   5.008   4.623   0.642  1.0910  1.5653 -0.7797
  115SOL    HW2 1946   5.076   4.621   0.791 -1.2353 -1.7757  0.3779
  116SOL     OW 1947   3.232   4.021   5.291  0.3107  0.2228  0.3974
  116SOL    HW1 1948   3.176   4.082   5.349  1.0056  0.0125  1.3093
  116SOL    HW2 1949   3.224   3.927   5.324 -0.4940 -0.1564 -0.8040
  117SOL     OW 1950   4.546   5.752   1.232  0.1631  0.3365 -0.3715
  117SOL    HW1 1951   4.449   5.759   1.254  0.4073  1.8193  0.4219
  117SOL    HW2 1952   4.564   5.668   1.182 -1.1146 -1.1883  1.6077
  118SOL     OW 1953   0.240   4.673   6.134 -0.8311  0.0152  0.4737
  118SOL    HW1 1954   0.143   4.652   6.147 -0.9641 -0.4258 -1.0304
  118SOL    HW2 1955   0.294   4.630   6.207 -1.8444  1.3120  2.0560
  119SOL     OW 1956   1.393   1.967   1.473 -0.1878 -0.1629 -0.0283
  119SOL    HW1 1957   1.334   2.041   1.506  2.7210  1.8446  1.0877
  119SOL    HW2 1958   1.476   1.962   1.530  0.7369 -2.9105 -1.4109
  120SOL     OW 1959   6.100   5.223   0.768  0.3569 -1.0625 -0.5910
  120SOL    HW1 1960   6.046   5.153   0.815  1.3343 -1.4407  0.0059
  120SOL    HW2 1961   6.192   5.225   0.807  0.3468  0.5714 -0.5906
  121SOL     OW 1962   1.965   1.029   1.447 -0.4986  1.0754  0.5014
  121SOL    HW1 1963   1.960   1.073   1.357 -0.7431 -0.4922 -0.2819
  121SOL    HW2 1964   1.999   0.936   1.437  0.4340  1.1955  2.1734
  122SOL     OW 1965   5.452   3.816   1.394 -0.0165  0.5818 -0.0804
  122SOL    HW1 1966   5.446   3.719   1.371 -0.5942  0.9444 -1.5890
  122SOL    HW2 1967   5.494   3.826   1.484 -0.3927 -1.0830  0.3258
  123SOL     OW 1968   1.909   4.810   2.421 -0.5020 -0.2110  0.2803
  123SOL    HW1 1969   1.957   4.797   2.335 -1.9140 -1.4877 -0.3581
  123SOL    HW2 1970   1.851   4.892   2.415 -0.5053 -0.2295  0.0731
  124SOL     OW 1971   4.832   0.907   3.994  0.0467 -0.4450  0.1630
  124SOL    HW1 1972   4.838   0.926   3.896  0.1761 -0.1970  0.2161
  124SOL    HW2 1973   4.877   0.981   4.044 -0.5543 -0.2561  0.4339
  125SOL     OW 1974   3.400   5.868   0.346  0.0172 -0.2962 -0.1956
  125SOL    HW1 1975   3.450   5.933   0.403 -1.9772  0.8897  0.3259
  125SOL    HW2 1976   3.369   5.914   0.262 -0.6837 -0.8067 -0.2284
  126SOL     OW 1977   6.056   3.349   3.007  0.6343  0.2188  0.3969
  126SOL    HW1 1978   6.034   3.401   2.925  1.0629 -2.5806 -1.6557
  126SOL    HW2 1979   5.993   3.272   3.017  1.1289 -0.0143  2.2325
  127SOL     OW 1980   3.107   4.882   3.439 -0.2376 -0.0376  0.0413
  127SOL    HW1 1981   3.176   4.896   3.368  0.3427 -0.7193  0.4438
  127SOL    HW2 1982   3.016   4.885   3.399 -0.0518  2.0682 -0.3113
  128SOL     OW 1983   6.227   3.812   4.038  0.1631  0.0766 -0.6026
  128SOL    HW1 1984   6.163   3.779   4.108 -1.4401  0.7921 -1.6902
  128SOL    HW2 1985   6.234   3.911   4.043  1.5040 -0.0046 -0.2848
  129SOL     OW 1986   3.898   6.766   6.868 -0.1735  0.3906  0.3495
  129SOL    HW1 1987   3.965   6.837   6.889  0.7538  0.1239 -1.5064
  129SOL    HW2 1988   3.857   6.784   6.779 -1.2706 -0.4364  0.6643
  130SOL     OW 1989   4.709   1.577   5.816 -0.2726 -0.0860 -0.4044
  130SOL    HW1 1990   4.672   1.485   5.803 -1.1868  0.1480  0.4507
  130SOL    HW2 1991   4.666   1.639   5.750 -0.6237 -0.0208 -0.1156
  131SOL     OW 1992   6.132   6.911   0.063  0.0568 -0.0726  0.0546
  131SOL    HW1 1993   6.232   6.904   0.072  0.3095  2.4403 -0.1957
  131SOL    HW2 1994   6.089   6.867   0.142  1.2140 -2.9969 -0.7927
  132SOL     OW 1995   1.683   6.790   0.526  0.7608 -0.2984  0.2071
  132SOL    HW1 1996   1.676   6.788   0.626  0.4553  0.2971  0.2067
  132SOL    HW2 1997   1.729   6.875   0.498  1.5769 -0.8399 -0.1244
  133SOL     OW 1998   5.922   4.262   4.407  0.0816 -0.4460 -0.1516
  133SOL    HW1 1999   5.981   4.342   4.422 -0.8981  0.4118 -0.6878
  133SOL    HW2 2000   5.977   4.185   4.375  0.7520  0.7638 -2.0855
  134SOL     OW 2001   6.839   1.907   6.364 -0.3379  0.1310 -0.3719
  134SOL    HW1 2002   6.904   1.839   6.399 -0.0520  1.9459  3.0334
  134SOL    HW2 2003   6.746   1.883   6.393 -0.6786 -0.2872 -1.7168
  135SOL     OW 2004   1.788   6.344   4.421  0.3858 -0.3880 -0.1354
  135SOL    HW1 2005   1.751   6.267   4.368 -1.3475 -1.6109  2.5976
  135SOL    HW2 2006   1.713   6.395   4.462  1.6051  0.7159  0.8199
  136SOL     OW 2007   3.517   5.260   2.010 -0.1801  0.2292 -0.0895
  136SOL    HW1 2008   3.560   5.286   2.096 -1.2571  0.0353  0.5137
  136SOL    HW2 2009   3.519   5.338   1.947 -0.6255  0.8150  0.6054
  137SOL     OW 2010   1.224   6.531   0.284  0.0264 -0.6743  0.2376
  137SOL    HW1 2011   1.260   6.581   0.363  0.9113 -0.6609 -0.1497
  137SOL    HW2 2012   1.125   6.541   0.280  0.0041 -0.4160  1.1611
  138SOL     OW 2013   4.582   2.976   5.415  0.4334  0.2601 -0.9454
  138SOL    HW1 2014   4.650   2.953   5.485  0.6047 -1.1655 -1.5406
  138SOL    HW2 2015   4.591   3.072   5.390  1.9030  0.2130 -0.6681
  139SOL     OW 2016   3.018   3.648   2.918 -0.1245  0.0976 -0.2096
  139SOL    HW1 2017   3.107   3.673   2.879  0.1820  0.3455  0.6107
  139SOL    HW2 2018   2.966   3.732   2.937  0.1782  0.0485  0.9047
  140SOL     OW 2019   6.246   1.175   3.872 -0.3111 -1.0850  0.2324
  140SOL    HW1 2020   6.286   1.088   3.846 -0.2855 -0.9942 -0.0376
  140SOL    HW2 2021   6.280   1.203   3.961 -0.4715 -1.4447  0.4066
  141SOL     OW 2022   0.033   4.266   1.751  0.2619  0.3321 -0.5091
  141SOL    HW1 2023  -0.022   4.252   1.668  0.3607 -2.3620 -0.2030
  141SOL    HW2 2024   0.111   4.324   1.730  0.5255 -0.6344 -2.4524
  142SOL     OW 2025   2.998   3.103   6.516  0.5691  0.0247 -0.3163
  142SOL    HW1 2026   3.048   3.017   6.522 -1.4137 -1.0765  2.3351
  142SOL    HW2 2027   3.022   3.161   6.594 -1.3075 -0.0356  0.3574
  143SOL     OW 2028   4.316   0.839   2.245  0.1137  0.4164 -0.5822
  143SOL    HW1 2029   4.252   0.894   2.191 -2.3516 -0.6616  1.0475
  143SOL    HW2 2030   4.266   0.789   2.316  2.8110 -0.5608  0.7908
  144SOL     OW 2031   0.632   2.336   1.407  0.3085  0.1466 -0.3339
  144SOL    HW1 2032   0.703   2.318   1.339  1.9687 -1.3415  1.6387
  144SOL    HW2 2033   0.604   2.249   1.449 -2.2512  0.7770 -0.5722
  145SOL     OW 2034   4.083   6.638   2.111  0.2014  0.2106  0.6087
  145SOL    HW1 2035   4.176   6.601   2.119 -0.4364 -1.2486  1.8730
  145SOL    HW2 2036   4.049   6.662   2.202 -0.6809  0.7205  0.1608
  146SOL     OW 2037   6.779   0.824   3.111 -0.0861  0.0921 -0.3217
  146SOL    HW1 2038   6.705   0.858   3.168 -0.5568 -0.3812 -0.6361
  146SOL    HW2 2039   6.834   0.758   3.163 -0.2004  0.0529 -0.2516
  147SOL     OW 2040   2.511   0.373   4.764 -0.4682 -0.1748 -0.0932
  147SOL    HW1 2041   2.414   0.387   4.782  0.1485  2.3734  1.8390
  147SOL    HW2 2042   2.548   0.454   4.718  1.4202  0.5830  2.5463
  148SOL     OW 2043   1.216   2.354   6.418 -0.0430  0.0413  0.0204
  148SOL    HW1 2044   1.163   2.299   6.355 -0.8429 -0.2379  0.9149
  148SOL    HW2 2045   1.157   2.388   6.491  1.3639 -2.4691  2.5632
  149SOL     OW 2046   1.449   4.551   5.905 -0.2195 -0.3824  0.2372
  149SOL    HW1 2047   1.447   4.455   5.935 -1.6304 -0.6070 -0.5246
  149SOL    HW2 2048   1.475   4.609   5.982 -0.0805 -1.2992  0.9015
  150SOL     OW 2049   3.594   0.220   0.901 -0.2187  0.5569 -1.0623
  150SOL    HW1 2050   3.629   0.263   0.818  1.5146  0.4358 -0.4349
  150SOL    HW2 2051   3.495   0.205   0.892 -0.0917  0.6716 -3.0151
  151SOL     OW 2052   2.943   2.285   5.762 -0.4814  0.0212 -0.0989
  151SOL    HW1 2053   2.901   2.285   5.853  1.5076 -0.5707  0.8885
  151SOL    HW2 2054   3.035   2.322   5.769 -0.1355 -0.4438 -1.8135
  152SOL     OW 2055   1.634   4.488   5.495 -0.9186 -0.6092 -0.0227
  152SOL    HW1 2056   1.643   4.583   5.465  0.4132 -0.9080 -0.6743
  152SOL    HW2 2057   1.719   4.438   5.474 -1.4337 -1.8410  0.6805
  153SOL     OW 2058   6.344   0.724   3.991  0.1784  0.0063  0.9121
  153SOL    HW1 2059   6.397   0.807   3.977  0.7747 -0.3073  1.2607
  153SOL    HW2 2060   6.279   0.737   4.066  0.1922  0.1902  0.8927
  154SOL     OW 2061   5.174   3.962   1.045  0.0995 -0.0950  0.2800
  154SOL    HW1 2062   5.078   3.958   1.019  0.3821 -2.2999 -0.7104
  154SOL    HW2 2063   5.189   3.903   1.125  0.5937  0.4200  0.5768
  155SOL     OW 2064   1.373   0.677   5.680  0.1082 -0.1898  0.0988
  155SOL    HW1 2065   1.359   0.595   5.735  0.3687 -0.0754  0.3444
  155SOL    HW2 2066   1.303   0.745   5.703 -0.2179 -0.4073 -0.2379
  156SOL     OW 2067   0.184   0.359   5.455  0.5430 -0.0189  0.8077
  156SOL    HW1 2068   0.113   0.288   5.448  0.3479  0.1907  0.6386
  156SOL    HW2 2069   0.166   0.417   5.534 -0.2936  0.9149 -0.0359
  157SOL     OW 2070   0.022   3.181   4.124 -0.3933 -0.2202 -0.5147
  157SOL    HW1 2071   0.104   3.135   4.157  0.0887  0.1273 -1.2115
  157SOL    HW2 2072  -0.021   3.125   4.052 -0.6309 -0.2775 -0.3319
  158SOL     OW 2073   0.987   3.552   4.549  0.7674 -0.2300 -0.0859
  158SOL    HW1 2074   1.029   3.588   4.466  2.2512 -0.8501  0.3658
  158SOL    HW2 2075   0.930   3.473   4.527 -0.2265  0.6455 -0.7157
  159SOL     OW 2076   6.243   0.166   6.287 -0.9127 -0.2016  0.1643
  159SOL    HW1 2077   6.217   0.181   6.382 -1.4902  1.4640 -0.2312
  159SOL    HW2 2078   6.218   0.246   6.232  2.6315  0.4628 -0.7397
  160SOL     OW 2079   4.516   0.395   6.873  0.1312 -0.2602 -0.1483
  160SOL    HW1 2080   4.613   0.382   6.895  0.1691  1.7356  1.1092
  160SOL    HW2 2081   4.502   0.380   6.775  1.3809 -2.0858 -0.1018
  161SOL     OW 2082   4.127   0.894   5.339  0.2548 -0.0668  0.4417
  161SOL    HW1 2083   4.185   0.974   5.359 -0.2696  0.6736 -0.8408
  161SOL    HW2 2084   4.050   0.892   5.403 -0.1492  0.9205  0.0198
  162SOL     OW 2085   5.696   0.971   2.093 -0.6070  0.0083  0.6333
  162SOL    HW1 2086   5.646   1.037   2.038  0.1241 -0.5610 -0.7469
  162SOL    HW2 2087   5.668   0.980   2.189 -0.3110  2.5164  0.5610
  163SOL     OW 2088   0.388   1.952   4.781 -0.6767  0.2080  0.3091
  163SOL    HW1 2089   0.433   1.954   4.870 -0.6544  0.1128  0.3003
  163SOL    HW2 2090   0.457   1.954   4.709 -0.5121 -2.4130  0.2715
  164SOL     OW 2091   3.885   1.973   5.029  0.2504  0.1317  0.5998
  164SOL    HW1 2092   3.934   2.034   5.092  1.4147  0.9225 -0.9963
  164SOL    HW2 2093   3.821   2.025   4.974 -0.1388 -0.4070  0.5298
  165SOL     OW 2094   0.448   5.869   0.889 -0.3610 -0.4795  0.2330
  165SOL    HW1 2095   0.477   5.773   0.893 -1.6326 -0.8959 -0.0325
  165SOL    HW2 2096   0.449   5.899   0.793 -1.2797 -0.6683  0.1545
  166SOL     OW 2097   0.321   2.839   5.848 -0.5231 -0.0388  0.0374
  166SOL    HW1 2098   0.313   2.835   5.748  0.9325  2.9872 -0.3021
  166SOL    HW2 2099   0.393   2.777   5.878  1.5196  1.5811 -1.2698
  167SOL     OW 2100   0.506   1.148   3.022 -0.3432  0.7345  0.2830
  167SOL    HW1 2101   0.454   1.066   3.000  0.4649  0.4628 -0.7381
  167SOL    HW2 2102   0.600   1.122   3.044 -0.2117  1.3418  0.4502
  168SOL     OW 2103   1.999   0.715   0.667 -0.1560  0.3135 -0.4636
  168SOL    HW1 2104   2.043   0.783   0.608 -1.7476  1.3917 -0.4424
  168SOL    HW2 2105   1.907   0.745   0.691  0.7186  0.4534  3.4196
  169SOL     OW 2106   1.124   3.116   0.342 -0.2408 -0.0603 -0.6559
  169SOL    HW1 2107   1.211   3.105   0.390 -1.4341  2.6514  2.5757
  169SOL    HW2 2108   1.058   3.049   0.377 -0.7253  1.0093  0.5348
  170SOL     OW 2109   5.485   3.779   0.080  0.7220 -0.4578 -0.7340
  170SOL    HW1 2110   5.444   3.870   0.079 -4.1628 -2.3387  0.3048
  170SOL    HW2 2111   5.535   3.766   0.165  0.2366  0.7739 -0.2420
  171SOL     OW 2112   5.050   5.007   4.599  0.0281  0.1917  0.0560
  171SOL    HW1 2113   4.965   5.040   4.557  0.5422  0.8538 -0.4974
  171SOL    HW2 2114   5.039   5.002   4.698 -1.4693 -2.1255 -0.1463
  172SOL     OW 2115   5.987   1.291   0.571  0.3803  0.2102 -0.4349
  172SOL    HW1 2116   5.997   1.373   0.626 -0.3158 -0.2050  0.3355
  172SOL    HW2 2117   6.056   1.223   0.597  0.8977  0.5034 -1.0090
  173SOL     OW 2118   0.665   6.692   5.011  0.1409 -0.1704  0.1189
  173SOL    HW1 2119   0.612   6.717   5.093  1.3074  0.5614  0.6750
  173SOL    HW2 2120   0.732   6.622   5.035  1.3790  0.9730  0.1397
  174SOL     OW 2121   3.886   3.852   1.518 -0.3795  0.4441  0.2490
  174SOL    HW1 2122   3.949   3.842   1.440 -0.4859  0.1485  0.2034
  174SOL    HW2 2123   3.819   3.924   1.497  0.9212  1.9301  0.9352
  175SOL     OW 2124   6.931   6.016   6.728 -0.5644  0.3743  0.2263
  175SOL    HW1 2125   7.029   6.035   6.728  0.1648 -2.5869  2.8618
  175SOL    HW2 2126   6.893   6.044   6.640  2.5515  1.8150 -0.8397
  176SOL     OW 2127   3.312   5.977   3.677 -0.0999 -0.7654 -0.3533
  176SOL    HW1 2128   3.220   5.968   3.716  0.2999 -2.2110  0.3300
  176SOL    HW2 2129   3.380   5.949   3.745  0.9391  1.2005 -0.5237
  177SOL     OW 2130   4.788   3.917   6.594 -0.4177  0.0340 -0.3535
  177SOL    HW1 2131   4.727   3.961   6.659  0.4372 -1.0050  1.2349
  177SOL    HW2 2132   4.738   3.845   6.545 -0.6434 -0.3601  0.4431
  178SOL     OW 2133   6.931   3.451   2.042 -0.0940  0.2161  0.1501
  178SOL    HW1 2134   6.901   3.359   2.015  1.0742  0.0480 -0.6790
  178SOL    HW2 2135   7.024   3.467   2.008  0.7003  0.7859  2.4043
  179SOL     OW 2136   4.359   2.805   6.894  0.5209  0.0243 -0.6748
  179SOL    HW1 2137   4.427   2.833   6.961  1.1853  1.4925 -1.9030
  179SOL    HW2 2138   4.384   2.717   6.855  2.1022  0.8378 -1.5741
  180SOL     OW 2139   2.013   0.080   1.982  0.2618 -0.4448 -0.2190
  180SOL    HW1 2140   2.080   0.006   1.971 -1.1428 -1.9075  0.6132
  180SOL    HW2 2141   1.959   0.063   2.064  0.2529  1.8462  0.3022
  181SOL     OW 2142   2.054   4.851   2.202 -0.0511  0.3019 -0.0844
  181SOL    HW1 2143   1.985   4.911   2.161 -0.5611  0.9750  1.6560
  181SOL    HW2 2144   2.122   4.826   2.133 -1.0708  1.0457 -1.4087
  182SOL     OW 2145   1.494   5.560   3.673  0.4029 -0.6534  0.5197
  182SOL    HW1 2146   1.483   5.466   3.643 -2.6270 -0.2409 -0.0146
  182SOL    HW2 2147   1.544   5.612   3.605 -1.6479 -0.9719 -1.3403
  183SOL     OW 2148   1.609   1.732   3.678  0.0172  0.1728  0.1476
  183SOL    HW1 2149   1.555   1.718   3.595 -0.5436 -0.5406  0.6207
  183SOL    HW2 2150   1.637   1.643   3.714  2.8289  0.5196 -0.9175
  184SOL     OW 2151   3.865   3.535   6.767 -0.1221 -0.3439  0.2082
  184SOL    HW1 2152   3.939   3.470   6.778 -2.5782 -3.8362 -1.7493
  184SOL    HW2 2153   3.785   3.505   6.819  0.0726  4.3222  3.9023
  185SOL     OW 2154   2.149   2.593   5.508  0.0142  0.1016 -0.2143
  185SOL    HW1 2155   2.150   2.498   5.476  1.2738  0.6265 -1.8977
  185SOL    HW2 2156   2.226   2.642   5.468  0.3519  1.4469  1.9300
  186SOL     OW 2157   6.492   5.959   6.723  0.1741  0.2444  0.0021
  186SOL    HW1 2158   6.563   6.023   6.753  0.1249  0.1016  0.4310
  186SOL    HW2 2159   6.456   5.988   6.634  0.5131  0.5218 -0.0458
  187SOL     OW 2160   4.807   1.528   5.520  0.1542 -0.3697 -0.7000
  187SOL    HW1 2161   4.835   1.622   5.538 -0.6721 -0.0969 -0.7874
  187SOL    HW2 2162   4.735   1.528   5.451  3.0147 -1.3434 -3.9774
  188SOL     OW 2163   2.313   3.375   2.082 -0.4310  0.1693 -0.0419
  188SOL    HW1 2164   2.299   3.276   2.085 -1.5870  0.3206 -0.0688
  188SOL    HW2 2165   2.409   3.396   2.104 -0.9006 -0.7792  3.7370
  189SOL     OW 2166   5.897   1.634   3.976  0.3746  0.1054  0.3595
  189SOL    HW1 2167   5.981   1.661   4.024 -0.1302  0.4359  1.0687
  189SOL    HW2 2168   5.824   1.619   4.042 -0.5934  1.4869 -0.3617
  190SOL     OW 2169   1.683   6.808   0.819  0.5594 -0.3079 -0.1579
  190SOL    HW1 2170   1.737   6.726   0.834  2.8210  1.0485 -0.3265
  190SOL    HW2 2171   1.705   6.876   0.890 -0.9685  0.3222 -0.2337
  191SOL     OW 2172   6.408   2.696   0.289  0.1978  0.6656 -0.2778
  191SOL    HW1 2173   6.468   2.693   0.209  1.1435 -2.0846  0.4386
  191SOL    HW2 2174   6.313   2.701   0.259  0.5963  2.7171 -1.4585
  192SOL     OW 2175   0.562   5.372   1.498  0.0541  0.3366  0.0161
  192SOL    HW1 2176   0.463   5.373   1.481  0.0142 -0.4979  0.1836
  192SOL    HW2 2177   0.585   5.450   1.557 -0.1088  2.0122 -2.0101
  193SOL     OW 2178   2.510   6.354   5.936  0.5407 -0.0918 -0.1690
  193SOL    HW1 2179   2.411   6.347   5.950  0.6205  2.5095  2.8700
  193SOL    HW2 2180   2.530   6.350   5.838 -2.7835  1.1861 -1.0562
  194SOL     OW 2181   5.568   1.109   6.485  0.5097 -0.0780 -0.2060
  194SOL    HW1 2182   5.554   1.099   6.387 -1.2919  2.4095 -0.3011
  194SOL    HW2 2183   5.631   1.184   6.502 -1.4319  1.4634  0.5085
  195SOL     OW 2184   1.874   3.899   3.435 -0.1444 -0.7676 -0.1322
  195SOL    HW1 2185   1.926   3.970   3.387  0.7777 -1.6022 -0.4089
  195SOL    HW2 2186   1.778   3.925   3.439 -0.0131 -0.0276 -1.2334
  196SOL     OW 2187   1.120   2.622   1.312  0.4200  0.3137 -0.4019
  196SOL    HW1 2188   1.125   2.551   1.243 -0.8483  0.6095 -0.8335
  196SOL    HW2 2189   1.116   2.712   1.268  0.7019  0.5771  0.0929
  197SOL     OW 2190   1.438   0.683   2.775  0.1963  0.3058 -0.1848
  197SOL    HW1 2191   1.520   0.694   2.719 -0.4413 -0.0816 -1.2241
  197SOL    HW2 2192   1.365   0.641   2.720 -0.6212  0.4091  0.7869
  198SOL     OW 2193   4.678   6.876   4.361  0.0410  0.1854  0.6662
  198SOL    HW1 2194   4.708   6.849   4.453  2.0679 -0.9030 -0.2601
  198SOL    HW2 2195   4.757   6.891   4.303 -1.1472  2.5193 -0.5264
  199SOL     OW 2196   5.485   3.185   6.331 -0.0510 -0.1456  0.1699
  199SOL    HW1 2197   5.394   3.224   6.342 -0.3822 -0.4321 -1.3484
  199SOL    HW2 2198   5.524   3.215   6.244  0.6746 -1.2640  0.0908
  200SOL     OW 2199   1.724   1.967   1.185  0.0347 -0.3387  0.1332
  200SOL    HW1 2200   1.783   2.005   1.113 -1.0141  0.0851 -0.5274
  200SOL    HW2 2201   1.645   2.026   1.198  0.5924  0.0335  2.2333
  201SOL     OW 2202   6.643   6.726   4.044  0.1531  0.1503 -0.6211
  201SOL    HW1 2203   6.730   6.774   4.056 -0.0159  0.3744 -0.2659
  201SOL    HW2 2204   6.642   6.680   3.955  0.9109 -0.4443 -0.3262
  202SOL     OW 2205   5.584   0.870   1.221 -0.0193 -0.2801 -0.2283
  202SOL    HW1 2206   5.545   0.905   1.306 -1.1794 -2.4694  0.2212
  202SOL    HW2 2207   5.553   0.926   1.144 -1.1664  0.1448  0.5179
  203SOL     OW 2208   0.360   3.151   4.048  0.4356  0.6887 -0.5583
  203SOL    HW1 2209   0.438   3.140   3.986  1.0794  0.0909  0.3202
  203SOL    HW2 2210   0.353   3.246   4.076  1.5256  0.5771  0.1745
  204SOL     OW 2211   6.967   3.725   2.718 -0.4600  0.6074 -0.0599
  204SOL    HW1 2212   6.908   3.733   2.799  0.2816  0.5206  0.4984
  204SOL    HW2 2213   7.059   3.757   2.740 -0.1393  0.1906 -0.7515
  205SOL     OW 2214   3.594   2.543   0.205 -0.2199  0.2916 -0.0690
  205SOL    HW1 2215   3.612   2.624   0.149  1.3850  0.2899  0.4060
  205SOL    HW2 2216   3.528   2.567   0.277  0.1383  1.1526 -0.0144
  206SOL     OW 2217   6.975   2.525   4.764  0.2333  0.1839  0.1689
  206SOL    HW1 2218   6.963   2.539   4.666  2.5674 -0.4606 -0.2703
  206SOL    HW2 2219   7.065   2.484   4.781 -0.4924 -0.6064  2.5113
  207SOL     OW 2220   0.355   4.803   0.742 -0.0639  0.0948  0.1395
  207SOL    HW1 2221   0.348   4.889   0.793  0.7176 -0.6609  1.5773
  207SOL    HW2 2222   0.447   4.793   0.706 -0.1872 -0.0805 -0.1263
  208SOL     OW 2223   6.922   5.098   2.995  0.5852 -0.2358  0.3590
  208SOL    HW1 2224   6.977   5.019   3.023  2.4760  1.6166  2.4151
  208SOL    HW2 2225   6.828   5.087   3.027  1.1004 -1.1681  1.6344
  209SOL     OW 2226   2.201   6.879   3.032  0.4700  0.3623  0.2071
  209SOL    HW1 2227   2.176   6.793   2.988 -2.8163  1.4596 -0.3683
  209SOL    HW2 2228   2.293   6.871   3.071  0.1314 -3.5123  0.6178
  210SOL     OW 2229   6.378   2.708   2.973 -0.5747 -0.5742  0.1340
  210SOL    HW1 2230   6.317   2.787   2.973 -1.0378 -0.9252 -0.4562
  210SOL    HW2 2231   6.443   2.717   3.048 -1.0034  0.0688  0.4419
  211SOL     OW 2232   5.576   5.521   1.846 -0.6122 -0.3690  0.0180
  211SOL    HW1 2233   5.512   5.468   1.791 -1.2840  0.6190 -0.1776
  211SOL    HW2 2234   5.644   5.460   1.886 -1.4309 -1.3867 -0.1050
  212SOL     OW 2235   6.741   0.116   6.383 -0.0614  0.6065  0.3520
  212SOL    HW1 2236   6.672   0.132   6.312  0.1964 -0.1966 -0.0991
  212SOL    HW2 2237   6.699   0.068   6.460 -0.2184  0.9893  0.5065
  213SOL     OW 2238   3.981   6.119   1.457  0.9517 -0.1129  0.0329
  213SOL    HW1 2239   3.923   6.114   1.376 -0.1883 -1.7547  0.9166
  213SOL    HW2 2240   4.076   6.135   1.428 -0.0561  5.6910 -1.3622
  214SOL     OW 2241   1.272   1.995   1.222 -0.2955  0.0965  0.0238
  214SOL    HW1 2242   1.177   1.995   1.190 -0.0557 -1.4278 -0.7848
  214SOL    HW2 2243   1.276   1.955   1.314 -0.6345  1.8409  0.8275
  215SOL     OW 2244   0.537   6.474   3.689  0.0294 -0.3368  0.1480
  215SOL    HW1 2245   0.618   6.455   3.633 -0.5440  1.2552 -1.2769
  215SOL    HW2 2246   0.456   6.438   3.645 -0.3000 -0.0280  0.4906
  216SOL     OW 2247   6.274   0.060   4.113  0.3879 -0.0374 -0.0674
  216SOL    HW1 2248   6.351  -0.003   4.116 -0.0991 -0.7549 -1.5725
  216SOL    HW2 2249   6.197   0.021   4.164  0.7043  0.2377  0.6266
  217SOL     OW 2250   4.550   2.688   1.140  0.4816  0.3378 -0.4056
  217SOL    HW1 2251   4.536   2.652   1.048  0.5853  0.1207 -0.3394
  217SOL    HW2 2252   4.474   2.660   1.198 -0.9815  2.7256 -1.0549
  218SOL     OW 2253   3.782   1.354   0.500 -0.0370  0.4774 -0.8286
  218SOL    HW1 2254   3.743   1.262   0.500  0.9254  0.0375  0.6777
  218SOL    HW2 2255   3.874   1.351   0.459  0.6397  0.4475  0.6556
  219SOL     OW 2256   5.475   4.531   1.645 -0.1334 -0.4699 -0.1920
  219SOL    HW1 2257   5.410   4.463   1.611 -0.1332 -0.8743  0.5930
  219SOL    HW2 2258   5.551   4.485   1.691  0.0781  0.0467 -0.0120
  220SOL     OW 2259   0.184   5.962   5.049  0.2231  0.2877  0.2080
  220SOL    HW1 2260   0.269   5.909   5.047  0.8945  1.3299  0.3081
  220SOL    HW2 2261   0.206   6.059   5.058 -0.9062  0.8037 -2.0901
  221SOL     OW 2262   3.347   1.667   5.609  0.6138  0.7211  0.4047
  221SOL    HW1 2263   3.355   1.765   5.626  0.8832  0.7041  0.3851
  221SOL    HW2 2264   3.392   1.616   5.683  0.3308  0.6100  0.5001
  222SOL     OW 2265   0.198   1.538   1.032 -0.3309 -0.5480  0.2012
  222SOL    HW1 2266   0.142   1.608   1.078 -0.7612 -0.3818 -0.5569
  222SOL    HW2 2267   0.205   1.560   0.935  0.9526 -0.6478  0.2539
  223SOL     OW 2268   4.395   6.992   6.776  0.8398  0.1106 -0.4322
  223SOL    HW1 2269   4.374   7.061   6.845  1.3552  0.1150 -0.2758
  223SOL    HW2 2270   4.377   7.029   6.685 -2.1350 -0.6627 -0.2653
  224SOL     OW 2271   5.242   0.585   5.956  0.1257  0.0442 -1.0541
  224SOL    HW1 2272   5.203   0.637   5.879 -1.2822  0.6812  0.0369
  224SOL    HW2 2273   5.310   0.521   5.921 -1.2636 -0.4929 -3.0019
  225SOL     OW 2274   2.009   1.692   5.329 -0.4371 -0.2627  0.1165
  225SOL    HW1 2275   2.011   1.791   5.339  0.2111 -0.1059 -1.3002
  225SOL    HW2 2276   2.096   1.660   5.291 -1.8052 -0.9251 -2.7550
  226SOL     OW 2277   2.396   7.003   5.643 -0.6430 -0.2311  0.0815
  226SOL    HW1 2278   2.357   6.966   5.728 -0.0943  0.1258  0.4891
  226SOL    HW2 2279   2.333   7.070   5.605  0.0443  1.1809  1.3323
  227SOL     OW 2280   1.849   5.620   5.212  0.0832  0.2358  0.0772
  227SOL    HW1 2281   1.826   5.713   5.239 -1.9440 -0.7516  2.0785
  227SOL    HW2 2282   1.786   5.589   5.141  0.2371  0.1107 -0.0079
  228SOL     OW 2283   6.718   5.218   5.705  0.0101 -0.4393 -0.1995
  228SOL    HW1 2284   6.767   5.184   5.785  1.8322  1.2717 -0.4924
  228SOL    HW2 2285   6.769   5.294   5.665 -1.1414 -0.8659 -2.6660
  229SOL     OW 2286   2.484   1.342   2.404 -1.2830 -0.2024  0.2493
  229SOL    HW1 2287   2.485   1.379   2.312  0.2045 -0.8973 -0.0405
  229SOL    HW2 2288   2.459   1.245   2.400  0.9947 -0.8387  0.2879
  230SOL     OW 2289   0.232   5.709   4.289  0.1832 -0.1405 -0.6611
  230SOL    HW1 2290   0.198   5.802   4.275  2.1741  0.4665 -2.0240
  230SOL    HW2 2291   0.197   5.649   4.218  1.1469  0.2722 -1.5143
  231SOL     OW 2292   6.164   5.614   6.058 -0.6538 -0.4539 -0.4700
  231SOL    HW1 2293   6.085   5.619   6.120  0.8616  1.1863  1.4666
  231SOL    HW2 2294   6.240   5.569   6.106  0.4456  0.5083 -1.2593
  232SOL     OW 2295   5.213   5.194   4.878  0.2438 -0.5450 -0.1927
  232SOL    HW1 2296   5.186   5.256   4.952  0.5113 -1.9121  1.0693
  232SOL    HW2 2297   5.291   5.140   4.906  1.8172  0.4784 -2.3347
  233SOL     OW 2298   4.112   6.485   3.605 -0.4767 -0.3178 -0.1660
  233SOL    HW1 2299   4.166   6.402   3.617  0.2318  0.0436 -0.8330
  233SOL    HW2 2300   4.101   6.505   3.508 -1.1902  0.0224 -0.0250
  234SOL     OW 2301   0.006   4.950   0.770 -0.0705  0.3158  0.0776
  234SOL    HW1 2302   0.050   4.882   0.828 -1.0969 -0.4272 -0.0120
  234SOL    HW2 2303   0.031   4.934   0.675  1.9758  1.7990  0.2756
  235SOL     OW 2304   5.938   2.197   0.296  0.4461 -0.3071 -0.0206
  235SOL    HW1 2305   5.847   2.206   0.254  0.5229 -0.3305 -0.1939
  235SOL    HW2 2306   5.931   2.140   0.378  0.0743  0.7549  0.7099
  236SOL     OW 2307   0.278   1.310   6.989  0.6806 -0.5947 -0.0068
  236SOL    HW1 2308   0.208   1.250   6.950 -1.3284  0.2953  1.9958
  236SOL    HW2 2309   0.296   1.385   6.926 -1.0280 -0.2410 -0.1258
  237SOL     OW 2310   2.457   5.045   5.389 -0.1729  0.3097  0.5134
  237SOL    HW1 2311   2.470   4.947   5.405 -2.8964 -1.2249 -4.4914
  237SOL    HW2 2312   2.366   5.072   5.420 -0.3911  0.6012 -0.3598
  238SOL     OW 2313   0.413   2.913   2.320  0.0795 -0.2140 -0.1534
  238SOL    HW1 2314   0.363   2.843   2.269  1.7378 -3.0772  1.8877
  238SOL    HW2 2315   0.361   2.939   2.402 -0.6107  1.1851 -0.9893
  239SOL     OW 2316   2.148   4.036   6.504 -0.8685  0.4027 -0.3697
  239SOL    HW1 2317   2.051   4.040   6.529 -1.1353 -1.0046 -1.1329
  239SOL    HW2 2318   2.177   4.125   6.469 -2.1246  0.5877 -0.9839
  240SOL     OW 2319   2.220   2.399   5.214  0.0253  0.3232  0.0008
  240SOL    HW1 2320   2.246   2.471   5.149 -1.1099 -0.5389 -1.4566
  240SOL    HW2 2321   2.285   2.323   5.207 -1.2428 -0.6896 -1.7434
  241SOL     OW 2322   5.178   5.118   1.893 -0.0243  0.5702  0.7475
  241SOL    HW1 2323   5.184   5.217   1.911 -0.1083  0.4692  1.3596
  241SOL    HW2 2324   5.189   5.069   1.979 -0.8199  0.0688  0.5678
  242SOL     OW 2325   3.847   3.108   0.818  0.4234  0.4837  0.0181
  242SOL    HW1 2326   3.922   3.122   0.753  0.1116 -1.7831 -0.9053
  242SOL    HW2 2327   3.874   3.145   0.907  2.9178 -0.7701 -0.1218
  243SOL     OW 2328   0.835   3.037   6.530 -0.5582 -0.0581  0.8395
  243SOL    HW1 2329   0.871   3.095   6.602  1.5952  0.3937 -0.5044
  243SOL    HW2 2330   0.758   3.082   6.486  0.5032  1.4181  0.4175
  244SOL     OW 2331   0.778   5.749   6.534 -0.3665  0.1908  0.6427
  244SOL    HW1 2332   0.850   5.698   6.487  0.0862 -0.9263  2.4311
  244SOL    HW2 2333   0.691   5.699   6.526 -1.4879  2.3575 -2.9559
  245SOL     OW 2334   5.248   6.936   6.139  0.2413 -0.0721 -0.1719
  245SOL    HW1 2335   5.194   6.970   6.062  1.8630  0.2937 -1.1966
  245SOL    HW2 2336   5.200   6.955   6.224 -1.3673 -0.0373 -1.0424
  246SOL     OW 2337   6.082   3.502   2.450 -0.5612  0.3741  0.4437
  246SOL    HW1 2338   6.167   3.556   2.453 -0.1689 -0.2257  0.3984
  246SOL    HW2 2339   6.103   3.407   2.471 -1.0556  0.0104 -0.6561
  247SOL     OW 2340   4.038   0.359   0.909  0.3621 -0.3152 -0.4683
  247SOL    HW1 2341   4.036   0.273   0.860  2.1289 -1.5954  1.5066
  247SOL    HW2 2342   4.045   0.342   1.008  0.6052  2.0728  0.0127
  248SOL     OW 2343   1.899   5.660   1.418 -0.2201 -0.4217 -0.6299
  248SOL    HW1 2344   1.919   5.687   1.324  0.4218 -1.4828 -0.8117
  248SOL    HW2 2345   1.888   5.742   1.475  4.3642  0.3839 -0.5789
  249SOL     OW 2346   4.226   6.421   1.164 -0.3377  0.0722 -0.0101
  249SOL    HW1 2347   4.214   6.439   1.262  0.1036  0.9961 -0.1118
  249SOL    HW2 2348   4.265   6.502   1.121 -1.5057  0.0534 -1.1469
  250SOL     OW 2349   5.205   4.188   1.347  0.1754 -0.1806 -0.5928
  250SOL    HW1 2350   5.153   4.102   1.350 -1.9185  1.0403 -0.3306
  250SOL    HW2 2351   5.184   4.237   1.263 -0.0504  0.8981  0.0809
  251SOL     OW 2352   0.885   3.876   4.945 -0.2706  0.4296 -0.1289
  251SOL    HW1 2353   0.843   3.830   5.023  0.2769 -1.6545 -0.9765
  251SOL    HW2 2354   0.885   3.814   4.866 -3.3137  3.2963 -2.7316
  252SOL     OW 2355   6.698   0.595   4.521  0.2602  0.3736 -0.3223
  252SOL    HW1 2356   6.667   0.584   4.426 -1.2423 -0.5380  0.2470
  252SOL    HW2 2357   6.779   0.539   4.536 -0.7871 -1.2673 -0.5088
  253SOL     OW 2358   0.210   1.646   0.789 -0.1059  0.1044  0.0494
  253SOL    HW1 2359   0.236   1.583   0.716 -0.2573 -0.0177  0.0993
  253SOL    HW2 2360   0.205   1.739   0.754  1.1793  0.2528  0.2085
  254SOL     OW 2361   1.490   6.758   4.788 -0.5811  0.1834 -0.4631
  254SOL    HW1 2362   1.578   6.724   4.820  0.0071  2.1874  0.2237
  254SOL    HW2 2363   1.506   6.826   4.716 -1.5394  0.8261 -0.0838
  255SOL     OW 2364   4.547   1.077   1.047  0.3862  0.0673  0.1144
  255SOL    HW1 2365   4.643   1.069   1.071  0.2145 -0.9912  0.4896
  255SOL    HW2 2366   4.536   1.067   0.948  0.6763  0.3504  0.0531
  256SOL     OW 2367   6.730   0.689   6.116  0.2421  0.0294  0.4567
  256SOL    HW1 2368   6.794   0.667   6.190  1.2173 -1.0745 -0.6623
  256SOL    HW2 2369   6.781   0.718   6.036 -0.8680  2.4604  0.5684
  257SOL     OW 2370   6.893   4.565   1.309  0.3228 -0.4891  0.0190
  257SOL    HW1 2371   6.854   4.476   1.284  2.2006 -1.1604 -0.6874
  257SOL    HW2 2372   6.833   4.610   1.376 -1.4857 -1.5536 -0.8053
  258SOL     OW 2373   4.561   3.938   4.964 -0.3246  0.1791  0.3424
  258SOL    HW1 2374   4.549   4.003   5.039 -0.6229  0.2351  0.2466
  258SOL    HW2 2375   4.577   3.988   4.879  0.4154  0.1119  0.4293
  259SOL     OW 2376   1.941   3.561   6.250 -0.5357 -0.3842 -0.4858
  259SOL    HW1 2377   1.884   3.578   6.330  0.3176  1.0926 -0.1596
  259SOL    HW2 2378   1.929   3.634   6.183  0.9266 -0.0541 -0.4185
  260SOL     OW 2379   3.914   1.596   2.692 -0.0456 -0.3037 -0.2945
  260SOL    HW1 2380   3.915   1.535   2.770 -0.7867  0.5329  0.3945
  260SOL    HW2 2381   3.832   1.653   2.695  0.1522  0.0729 -1.4236
  261SOL     OW 2382   4.428   4.357   6.938 -0.2181 -0.0817  0.1486
  261SOL    HW1 2383   4.382   4.323   7.020  0.3602 -1.8465 -0.2108
  261SOL    HW2 2384   4.368   4.422   6.891 -0.0087  2.0491  2.6411
  262SOL     OW 2385   6.064   3.155   2.673 -0.0521 -0.4733 -0.3273
  262SOL    HW1 2386   6.144   3.105   2.707  0.9941  1.4550  0.1931
  262SOL    HW2 2387   6.083   3.192   2.582 -0.7412 -0.8335 -0.6296
  263SOL     OW 2388   4.607   4.978   1.702  0.2960 -0.1278 -0.0005
  263SOL    HW1 2389   4.522   4.937   1.670 -0.9404  1.6686  0.7960
  263SOL    HW2 2390   4.649   5.030   1.627  0.7521 -1.0717 -0.4131
  264SOL     OW 2391   4.077   4.081   6.195 -0.3277  0.1485  0.4845
  264SOL    HW1 2392   4.091   4.173   6.160 -0.0050 -0.9025 -2.4183
  264SOL    HW2 2393   4.150   4.058   6.260  1.9246  0.6129 -1.7346
  265SOL     OW 2394   6.335   6.597   5.914 -0.0327 -0.2944  0.2658
  265SOL    HW1 2395   6.275   6.676   5.903  0.0967 -0.1393  0.6855
  265SOL    HW2 2396   6.324   6.536   5.835 -2.0726 -1.1477  1.1367
  266SOL     OW 2397   5.586   2.819   0.570 -0.1184 -0.5452  0.0537
  266SOL    HW1 2398   5.587   2.719   0.577 -0.2140 -0.5817 -0.4434
  266SOL    HW2 2399   5.653   2.848   0.503 -0.5926 -0.3217 -0.3303
  267SOL     OW 2400   5.479   3.417   1.686  0.5166 -0.0542  0.1344
  267SOL    HW1 2401   5.508   3.337   1.738  4.4218  1.2814  0.3245
  267SOL    HW2 2402   5.544   3.492   1.700 -1.2229  2.1617 -2.4898
  268SOL     OW 2403   3.286   6.522   1.002 -0.1989 -0.5567  0.2061
  268SOL    HW1 2404   3.338   6.600   0.966  0.5351 -0.2364  1.8529
  268SOL    HW2 2405   3.211   6.500   0.939 -0.8114  1.8709 -0.0359
  269SOL     OW 2406   3.842   6.838   5.355 -0.0643 -0.2090 -0.0928
  269SOL    HW1 2407   3.848   6.806   5.261 -1.5863 -2.5488  0.5435
  269SOL    HW2 2408   3.853   6.938   5.357  2.6260 -0.3546 -2.4084
  270SOL     OW 2409   6.403   3.773   5.482  0.2459 -0.4564 -0.1805
  270SOL    HW1 2410   6.358   3.709   5.543  1.1771 -0.9973 -0.0323
  270SOL    HW2 2411   6.448   3.723   5.408  1.4600 -0.0378  0.2499
  271SOL     OW 2412   4.028   6.302   4.182  0.2780  0.2534 -0.2663
  271SOL    HW1 2413   4.117   6.318   4.140  0.3990  0.9476  0.2445
  271SOL    HW2 2414   3.964   6.269   4.112  1.1367 -1.0483 -0.4734
  272SOL     OW 2415   5.756   3.489   5.237 -0.1137  0.0745 -0.7730
  272SOL    HW1 2416   5.685   3.512   5.170  0.6516 -0.8728 -1.9425
  272SOL    HW2 2417   5.838   3.458   5.190  0.4708 -0.5719  0.6091
  273SOL     OW 2418   3.468   3.686   1.591 -0.3560 -0.7019  0.0669
  273SOL    HW1 2419   3.463   3.588   1.569  1.9704 -0.6120 -1.1392
  273SOL    HW2 2420   3.544   3.702   1.653 -0.5339  0.3869  0.0089
  274SOL     OW 2421   6.334   5.284   5.874  0.0248  0.1601  0.1654
  274SOL    HW1 2422   6.248   5.255   5.833  1.0752 -0.2354 -1.9261
  274SOL    HW2 2423   6.409   5.229   5.836  1.5096  2.2954 -0.2087
  275SOL     OW 2424   1.773   5.446   4.449 -0.7041 -0.0795  0.2806
  275SOL    HW1 2425   1.870   5.429   4.462 -0.3497  0.7572 -1.1453
  275SOL    HW2 2426   1.724   5.359   4.449 -0.4985 -0.4037  4.4621
  276SOL     OW 2427   1.443   4.136   4.644 -0.1876  0.1090  0.4425
  276SOL    HW1 2428   1.345   4.124   4.631 -0.4502 -0.0716  2.3555
  276SOL    HW2 2429   1.486   4.048   4.665  1.1982 -0.6874 -4.4252
  277SOL     OW 2430   0.679   4.089   0.897 -0.0338  0.0118  0.4224
  277SOL    HW1 2431   0.754   4.156   0.895 -0.9826  1.1356 -1.5563
  277SOL    HW2 2432   0.708   4.005   0.851  0.4872 -0.1448  1.0278
  278SOL     OW 2433   1.601   6.010   1.587  0.0521 -0.5736 -0.2797
  278SOL    HW1 2434   1.598   5.946   1.663  0.0183 -1.8903 -1.3575
  278SOL    HW2 2435   1.692   6.053   1.584  0.1635 -0.7597  0.2953
  279SOL     OW 2436   3.720   5.240   2.499  0.5890 -0.2448  0.0228
  279SOL    HW1 2437   3.752   5.152   2.534  1.6390  0.1214  0.0135
  279SOL    HW2 2438   3.793   5.308   2.506  0.1860  0.3344 -1.0396
  280SOL     OW 2439   1.813   3.773   0.547  0.3867 -0.0390 -0.0504
  280SOL    HW1 2440   1.901   3.751   0.589  0.7913  2.7855  0.7670
  280SOL    HW2 2441   1.760   3.831   0.610 -2.1848 -1.7726 -0.4425
  281SOL     OW 2442   6.024   1.933   2.666  0.1733 -0.1080 -0.1236
  281SOL    HW1 2443   5.984   2.001   2.604 -0.6748  0.1326  0.6554
  281SOL    HW2 2444   6.082   1.980   2.733  2.1886 -0.4944 -1.5077
  282SOL     OW 2445   2.161   3.954   5.370 -0.0920 -0.2875  0.0670
  282SOL    HW1 2446   2.172   4.018   5.446  0.4490 -1.9032  1.4046
  282SOL    HW2 2447   2.251   3.916   5.345 -0.3919 -0.4871 -0.7527
  283SOL     OW 2448   1.617   0.373   2.550  0.3851 -0.1008 -0.3242
  283SOL    HW1 2449   1.663   0.284   2.554  0.9377  0.2019  2.5733
  283SOL    HW2 2450   1.638   0.425   2.633 -1.5477  1.9379 -1.0037
  284SOL     OW 2451   4.176   4.492   5.913 -0.0152  0.2634  0.2675
  284SOL    HW1 2452   4.153   4.505   5.817  2.2068  0.1041 -0.3369
  284SOL    HW2 2453   4.212   4.399   5.927 -1.0655 -0.0024  1.4424
  285SOL     OW 2454   2.894   6.421   2.869  0.2151  0.1899 -0.8740
  285SOL    HW1 2455   2.838   6.359   2.924  1.3557 -0.8372 -0.8234
  285SOL    HW2 2456   2.991   6.407   2.890  0.5551  1.4302 -1.4626
  286SOL     OW 2457   3.090   0.250   3.688  0.5671  0.0206  0.6186
  286SOL    HW1 2458   3.116   0.174   3.747 -1.0458 -0.0160  1.3135
  286SOL    HW2 2459   3.078   0.333   3.743 -0.1277  0.1873  0.2275
  287SOL     OW 2460   4.571   4.546   5.071  0.4446 -0.2059  0.2127
  287SOL    HW1 2461   4.534   4.560   5.163  1.5050 -1.2640  0.8255
  287SOL    HW2 2462   4.613   4.456   5.066  1.0358  0.1250 -1.1042
  288SOL     OW 2463   0.040   5.630   2.638  0.2733 -0.0350 -0.5590
  288SOL    HW1 2464   0.082   5.678   2.561 -0.4538  2.2677  0.3647
  288SOL    HW2 2465  -0.049   5.672   2.659  0.3296 -0.7536  1.3362
  289SOL     OW 2466   6.655   3.751   6.376  0.2613 -0.0043 -0.2314
  289SOL    HW1 2467   6.692   3.838   6.408  1.0489 -1.1381  2.2446
  289SOL    HW2 2468   6.568   3.733   6.421 -0.0202 -0.3949 -0.9119
  290SOL     OW 2469   6.708   3.832   2.546  0.6697 -0.2695 -0.0179
  290SOL    HW1 2470   6.700   3.733   2.541 -1.1502 -0.1906  0.5393
  290SOL    HW2 2471   6.694   3.872   2.456  1.3191 -0.5042 -0.2267
  291SOL     OW 2472   6.636   6.346   2.706 -0.2041 -0.7834  0.4977
  291SOL    HW1 2473   6.552   6.390   2.674 -0.6630 -3.4222 -2.4576
  291SOL    HW2 2474   6.714   6.383   2.656 -0.2734 -1.4772 -0.1539
  292SOL     OW 2475   0.036   3.571   3.722  0.0483  0.3517  0.2794
  292SOL    HW1 2476  -0.061   3.579   3.698  0.2233  1.5260 -0.1273
  292SOL    HW2 2477   0.047   3.505   3.796 -1.1246  0.5634  0.6616
  293SOL     OW 2478   0.111   0.757   5.113  0.3269 -0.1681  1.1416
  293SOL    HW1 2479   0.127   0.724   5.206  0.8355 -0.0524  1.0996
  293SOL    HW2 2480   0.123   0.682   5.048 -0.3243 -0.3194  1.1883
  294SOL     OW 2481   6.249   6.773   4.155 -0.3215 -0.3531  0.4263
  294SOL    HW1 2482   6.266   6.703   4.224 -1.1857 -0.0207  0.9875
  294SOL    HW2 2483   6.335   6.818   4.131 -0.0023 -0.5267  1.2219
  295SOL     OW 2484   6.796   4.504   4.629 -0.3895  0.2496  0.4377
  295SOL    HW1 2485   6.845   4.417   4.618  0.2363  0.4582  1.4565
  295SOL    HW2 2486   6.715   4.491   4.684 -0.2757  0.3157  0.6217
  296SOL     OW 2487   2.761   1.513   2.156  0.2092  0.1984 -0.1215
  296SOL    HW1 2488   2.803   1.428   2.190 -1.7503 -0.5827  0.5410
  296SOL    HW2 2489   2.727   1.499   2.064  2.0651  1.0991 -0.9957
  297SOL     OW 2490   4.719   3.886   1.684 -0.1092  0.8315  0.3375
  297SOL    HW1 2491   4.812   3.904   1.715 -0.7774  1.8079  1.8251
  297SOL    HW2 2492   4.679   3.812   1.738 -0.1024  0.1714 -0.5312
  298SOL     OW 2493   1.294   0.600   1.797  0.2318 -0.4863 -0.2513
  298SOL    HW1 2494   1.230   0.562   1.863 -2.0344  1.0964 -1.3896
  298SOL    HW2 2495   1.323   0.691   1.826  2.5990 -1.4105  0.5684
  299SOL     OW 2496   4.744   6.272   0.664  0.1029 -0.3972 -0.4116
  299SOL    HW1 2497   4.675   6.299   0.731  1.3437  0.8029  0.4644
  299SOL    HW2 2498   4.718   6.303   0.573  0.1165  1.2968  0.1315
  300SOL     OW 2499   1.699   3.160   1.205  0.5977 -0.0784  0.5194
  300SOL    HW1 2500   1.777   3.213   1.238  0.6926 -1.4009  2.6861
  300SOL    HW2 2501   1.615   3.210   1.222  0.7036 -0.4249  2.2861
  301SOL     OW 2502   4.893   6.137   1.708 -0.3101 -0.2310  0.6180
  301SOL    HW1 2503   4.883   6.192   1.626  2.2724 -0.3503  0.1226
  301SOL    HW2 2504   4.874   6.041   1.688  0.1397 -0.2320  0.1809
  302SOL     OW 2505   6.629   3.248   0.193  0.1232 -0.1435  0.0984
  302SOL    HW1 2506   6.589   3.157   0.180 -1.3525  0.3257  1.0697
  302SOL    HW2 2507   6.579   3.315   0.138 -0.6189  0.4899  1.4878
  303SOL     OW 2508   5.803   3.169   0.325  0.2311 -0.5968 -0.6404
  303SOL    HW1 2509   5.748   3.188   0.407 -0.1851  0.0752 -1.0625
  303SOL    HW2 2510   5.745   3.181   0.244  0.4906 -1.7990 -1.0104
  304SOL     OW 2511   6.180   1.483   3.632 -0.1384  0.1818  0.8644
  304SOL    HW1 2512   6.204   1.580   3.639 -2.2657  0.9140 -0.8947
  304SOL    HW2 2513   6.082   1.474   3.616  0.4004 -2.0608 -2.1211
  305SOL     OW 2514   3.729   2.423   5.248 -0.0308 -0.5211 -0.0313
  305SOL    HW1 2515   3.643   2.377   5.224 -0.6022  0.2191  0.5279
  305SOL    HW2 2516   3.726   2.448   5.345  1.0515 -0.9717  0.1246
  306SOL     OW 2517   4.968   3.861   0.359  0.1342 -0.2398  0.0888
  306SOL    HW1 2518   4.964   3.900   0.267  0.2972  0.6016  0.4370
  306SOL    HW2 2519   4.952   3.932   0.427 -1.0883 -1.0548  0.6864
  307SOL     OW 2520   6.873   4.317   6.003  0.1573  0.0234 -0.0117
  307SOL    HW1 2521   6.936   4.360   6.067  1.5303 -1.7024 -0.1009
  307SOL    HW2 2522   6.793   4.283   6.052  1.5102 -1.9028  1.0293
  308SOL     OW 2523   2.875   2.685   6.542 -1.0970 -0.0334  1.1708
  308SOL    HW1 2524   2.829   2.646   6.463 -0.1846  0.7651  0.2077
  308SOL    HW2 2525   2.821   2.762   6.577 -1.7182 -0.6600  1.6089
  309SOL     OW 2526   1.878   6.836   4.055 -0.3907  0.0249 -0.2212
  309SOL    HW1 2527   1.956   6.774   4.055 -1.0595 -0.8273  0.3051
  309SOL    HW2 2528   1.905   6.923   4.096 -0.1699 -0.8868  1.6787
  310SOL     OW 2529   3.727   1.755   5.014 -0.1628 -0.1960  0.1114
  310SOL    HW1 2530   3.791   1.827   5.039 -0.3838  0.6539 -1.6233
  310SOL    HW2 2531   3.637   1.795   4.997 -0.6511 -1.0917  0.5440
  311SOL     OW 2532   0.972   4.968   5.115  0.2859 -0.1081 -0.1389
  311SOL    HW1 2533   1.045   4.968   5.184  1.4839  0.5975 -1.3540
  311SOL    HW2 2534   0.913   4.889   5.130  1.3558 -0.7678  0.8336
  312SOL     OW 2535   2.148   5.590   3.780 -0.0827 -0.3146  0.4266
  312SOL    HW1 2536   2.226   5.645   3.751 -0.3932  1.1208  2.1397
  312SOL    HW2 2537   2.064   5.631   3.745 -0.1930 -0.7981  0.1215
  313SOL     OW 2538   1.721   6.986   3.306  0.6155 -0.2694 -0.4062
  313SOL    HW1 2539   1.748   6.919   3.237 -1.8846 -1.0124 -0.7418
  313SOL    HW2 2540   1.694   6.939   3.390 -3.6819 -0.0927 -1.4594
  314SOL     OW 2541   1.617   5.527   0.136  0.4476  0.3622 -0.2735
  314SOL    HW1 2542   1.716   5.512   0.127  0.4463  1.0666 -1.7271
  314SOL    HW2 2543   1.573   5.442   0.164  1.2496 -0.4936 -1.4905
  315SOL     OW 2544   1.763   6.592   1.745  0.4673  0.9844 -0.1291
  315SOL    HW1 2545   1.849   6.543   1.728 -0.2934 -0.4193 -0.0740
  315SOL    HW2 2546   1.783   6.684   1.778  1.9524  0.6247  0.0454
  316SOL     OW 2547   5.769   0.133   6.618  0.0004 -0.4316  0.0246
  316SOL    HW1 2548   5.775   0.068   6.542  0.5501  0.0620 -0.3646
  316SOL    HW2 2549   5.846   0.197   6.613  2.3458 -2.6651  3.1356
  317SOL     OW 2550   3.192   5.869   5.654 -0.1689  0.4753  0.9144
  317SOL    HW1 2551   3.121   5.801   5.673  0.1830 -0.0821  0.2620
  317SOL    HW2 2552   3.231   5.853   5.563 -1.4056  2.6982 -0.0921
  318SOL     OW 2553   5.629   5.988   2.668 -0.3763 -0.2715  0.0004
  318SOL    HW1 2554   5.632   5.967   2.571 -0.5687 -1.8560  0.3192
  318SOL    HW2 2555   5.693   5.929   2.717  1.7719  2.3293  0.5615
  319SOL     OW 2556   6.164   6.317   0.210 -0.3676  0.2068  0.0894
  319SOL    HW1 2557   6.247   6.262   0.212 -0.6034 -0.1641 -0.1719
  319SOL    HW2 2558   6.114   6.305   0.296 -1.3944 -1.5263 -0.6973
  320SOL     OW 2559   2.071   5.395   1.103  0.5450 -0.4184  0.0149
  320SOL    HW1 2560   2.128   5.459   1.051  1.5310 -1.3737 -0.1349
  320SOL    HW2 2561   1.989   5.441   1.135  1.1669  0.8778 -0.1948
  321SOL     OW 2562   4.526   6.521   3.839 -0.0125 -0.0180 -0.3365
  321SOL    HW1 2563   4.520   6.570   3.752 -2.6953 -1.1805 -0.9203
  321SOL    HW2 2564   4.485   6.577   3.912  0.6085  0.2331 -0.1786
  322SOL     OW 2565   6.393   2.769   5.711 -0.2376  0.4228  0.2112
  322SOL    HW1 2566   6.440   2.731   5.790  0.2213 -0.1216 -0.3194
  322SOL    HW2 2567   6.303   2.802   5.739  0.0764  0.6028  1.0373
  323SOL     OW 2568   4.423   0.167   2.059  0.2957  0.1934 -0.8135
  323SOL    HW1 2569   4.465   0.164   1.968  2.0494  0.8570 -0.0782
  323SOL    HW2 2570   4.493   0.151   2.129 -1.0566 -0.5188  0.4311
  324SOL     OW 2571   4.551   2.928   1.289 -0.0850  0.0258 -0.0124
  324SOL    HW1 2572   4.558   2.828   1.290  2.0422  0.1220  0.9764
  324SOL    HW2 2573   4.461   2.955   1.255 -1.2257 -2.2479  0.9640
  325SOL     OW 2574   2.221   6.635   2.026 -0.1390  0.3036 -0.1959
  325SOL    HW1 2575   2.177   6.553   2.064 -0.0271  0.5138  0.3996
  325SOL    HW2 2576   2.287   6.608   1.956  0.0045 -0.1294  0.0987
  326SOL     OW 2577   2.853   5.256   1.957 -0.1000 -0.1026 -0.5792
  326SOL    HW1 2578   2.905   5.227   1.877  1.1297 -0.3523  0.2812
  326SOL    HW2 2579   2.877   5.199   2.036  0.6713  1.7170  0.6039
  327SOL     OW 2580   2.152   0.211   3.322  0.2159  0.1904 -0.2708
  327SOL    HW1 2581   2.129   0.146   3.250 -0.4594  0.0815  0.0387
  327SOL    HW2 2582   2.093   0.196   3.401  0.7436  0.5089  0.1936
  328SOL     OW 2583   3.351   4.850   3.244 -0.0520  0.1888  0.4304
  328SOL    HW1 2584   3.390   4.927   3.194  1.5376 -1.0071 -0.2757
  328SOL    HW2 2585   3.423   4.804   3.297 -0.8753 -0.9799  0.5861
  329SOL     OW 2586   1.509   0.281   0.316  0.0814  0.1902  0.1887
  329SOL    HW1 2587   1.446   0.215   0.275  0.5259  0.1536 -0.4372
  329SOL    HW2 2588   1.514   0.363   0.259 -0.3843  0.7301  0.9067
  330SOL     OW 2589   4.822   0.874   6.134 -0.1970 -0.0414  0.4046
  330SOL    HW1 2590   4.807   0.863   6.036  1.1876  0.9321  0.0591
  330SOL    HW2 2591   4.852   0.786   6.173  1.0175 -0.0058 -0.4010
  331SOL     OW 2592   4.228   0.141   3.332 -0.2021  0.0886 -0.2823
  331SOL    HW1 2593   4.204   0.238   3.325 -1.3984 -0.2187 -0.5907
  331SOL    HW2 2594   4.259   0.107   3.243  0.1112  0.1578 -0.2006
  332SOL     OW 2595   3.439   4.967   6.382 -0.6290 -0.6727 -0.3945
  332SOL    HW1 2596   3.497   4.954   6.302 -0.3540  0.9660 -0.4941
  332SOL    HW2 2597   3.362   4.903   6.378  0.9103 -2.6339 -0.4543
  333SOL     OW 2598   1.815   1.388   5.156 -0.1255 -0.2690 -0.0817
  333SOL    HW1 2599   1.782   1.462   5.215  0.6089 -0.7529  0.9771
  333SOL    HW2 2600   1.753   1.310   5.162  1.8809 -1.8385  3.2554
  334SOL     OW 2601   1.629   4.318   2.901  1.1421  0.3461 -0.0302
  334SOL    HW1 2602   1.654   4.221   2.902  0.6700  0.2207  0.0116
  334SOL    HW2 2603   1.550   4.333   2.961 -0.5071  0.2646 -2.0591
  335SOL     OW 2604   2.658   5.119   0.796 -0.0301 -0.2222  0.4178
  335SOL    HW1 2605   2.614   5.042   0.842  1.4229 -0.3650  1.6184
  335SOL    HW2 2606   2.740   5.087   0.749 -0.6285  0.2165 -0.9849
  336SOL     OW 2607   4.923   5.519   3.714  0.0631 -0.3277  0.7546
  336SOL    HW1 2608   4.872   5.516   3.800  1.6073  0.7753  1.7630
  336SOL    HW2 2609   5.011   5.565   3.729 -1.0100  3.0631 -2.1226
  337SOL     OW 2610   0.849   3.007   0.062 -0.2417 -0.2081  0.5085
  337SOL    HW1 2611   0.896   2.926   0.096  0.8052  0.3274  0.3769
  337SOL    HW2 2612   0.911   3.086   0.066 -1.0109  0.4411 -0.0108
  338SOL     OW 2613   3.408   3.283   1.632  0.2066  0.3841 -0.7146
  338SOL    HW1 2614   3.343   3.330   1.692  0.7033  0.0724  0.0816
  338SOL    HW2 2615   3.419   3.335   1.548 -3.2077 -0.8930 -2.1605
  339SOL     OW 2616   0.099   2.420   6.697  0.0166  0.8500  0.3885
  339SOL    HW1 2617   0.044   2.419   6.781  0.5150  3.1574  0.7824
  339SOL    HW2 2618   0.171   2.351   6.704 -1.6555 -1.0012  0.5989
  340SOL     OW 2619   1.402   5.934   6.801 -0.3990 -0.0647 -0.4677
  340SOL    HW1 2620   1.483   5.961   6.853 -1.6428  1.2012  0.9059
  340SOL    HW2 2621   1.343   5.877   6.858  0.6353 -3.1968 -2.2782
  341SOL     OW 2622   2.053   1.013   5.944  0.0173 -0.2908  0.1536
  341SOL    HW1 2623   2.067   1.006   5.845 -0.2562  0.9664  0.0167
  341SOL    HW2 2624   2.141   1.030   5.988 -0.2194  2.1019 -0.1825
  342SOL     OW 2625   3.592   4.251   4.705 -0.3734 -0.6234  0.4807
  342SOL    HW1 2626   3.549   4.177   4.757  1.0664 -1.6075  0.3179
  342SOL    HW2 2627   3.691   4.239   4.704 -0.2866 -0.2321 -1.8457
  343SOL     OW 2628   3.058   3.690   1.425  0.0005  0.5428 -0.3944
  343SOL    HW1 2629   3.045   3.628   1.502 -1.7222  2.6428  1.1409
  343SOL    HW2 2630   3.030   3.644   1.340 -0.8263 -0.8851  0.6120
  344SOL     OW 2631   4.832   5.673   2.883 -0.0182 -0.1260  0.0925
  344SOL    HW1 2632   4.848   5.715   2.794 -0.1897  0.7517  0.4613
  344SOL    HW2 2633   4.838   5.573   2.875  2.7667 -0.0091 -0.3744
  345SOL     OW 2634   6.683   6.184   2.984 -0.1806 -0.3517 -0.5193
  345SOL    HW1 2635   6.746   6.261   2.971 -0.5058 -0.3318 -2.2257
  345SOL    HW2 2636   6.689   6.122   2.906 -0.6550 -1.5455  0.3582
  346SOL     OW 2637   5.504   6.114   4.049  0.0026 -0.1865  0.6121
  346SOL    HW1 2638   5.592   6.071   4.071  1.7798  3.0270  0.2960
  346SOL    HW2 2639   5.476   6.173   4.124 -1.8184 -0.9735  0.5908
  347SOL     OW 2640   1.071   1.850   3.911 -0.4033  0.9878 -0.0730
  347SOL    HW1 2641   1.060   1.914   3.835  0.1206  1.0433 -0.1025
  347SOL    HW2 2642   1.024   1.764   3.889 -1.6934  1.5796  0.2479
  348SOL     OW 2643   5.761   5.053   5.162 -0.5912  0.1429  0.1437
  348SOL    HW1 2644   5.772   5.006   5.074  1.2780 -1.1389  0.9895
  348SOL    HW2 2645   5.733   4.987   5.232  2.6764  0.0153  1.4904
  349SOL     OW 2646   1.881   1.984   4.420  0.1571  0.2253  0.4103
  349SOL    HW1 2647   1.929   2.066   4.389 -1.0695  0.3156 -1.4217
  349SOL    HW2 2648   1.848   1.933   4.341  1.2503 -2.3211  1.4927
  350SOL     OW 2649   0.006   5.359   1.178  0.2258 -0.6903  0.0952
  350SOL    HW1 2650  -0.049   5.398   1.251 -0.4845 -0.2751 -0.6557
  350SOL    HW2 2651  -0.013   5.261   1.170  0.3883 -0.7573  0.5387
  351SOL     OW 2652   4.819   3.318   3.572  0.3348  0.4877  0.2001
  351SOL    HW1 2653   4.809   3.224   3.606 -0.8080  0.5118 -0.0295
  351SOL    HW2 2654   4.911   3.350   3.590  1.1145 -1.1006 -0.7583
  352SOL     OW 2655   1.268   3.928   4.622 -0.0746  0.4543  0.2823
  352SOL    HW1 2656   1.287   3.847   4.566  0.1145  1.4567 -1.1565
  352SOL    HW2 2657   1.227   3.899   4.708  1.3654 -1.2886  0.4658
  353SOL     OW 2658   5.799   2.670   0.258 -0.4761  0.2038  0.2750
  353SOL    HW1 2659   5.825   2.745   0.320  0.8173 -0.3662  0.4511
  353SOL    HW2 2660   5.870   2.600   0.260 -1.9484 -1.3392  0.5967
  354SOL     OW 2661   2.688   6.815   1.015  0.0628  0.1635 -0.5674
  354SOL    HW1 2662   2.786   6.801   1.006 -0.1259 -1.0988 -0.7978
  354SOL    HW2 2663   2.657   6.881   0.947  0.3459 -1.4509 -2.3450
  355SOL     OW 2664   0.063   6.804   5.438  0.4342  1.0298  0.5202
  355SOL    HW1 2665   0.039   6.812   5.535 -0.0029  0.1255  0.4996
  355SOL    HW2 2666  -0.020   6.798   5.384  0.5722 -2.4866  0.4755
  356SOL     OW 2667   5.075   3.635   0.683 -0.3918 -0.4253 -0.2251
  356SOL    HW1 2668   5.000   3.665   0.624  0.0521  1.2040 -0.0327
  356SOL    HW2 2669   5.087   3.702   0.757  1.3845 -0.5115 -0.3890
  357SOL     OW 2670   3.558   1.018   5.628 -0.0400  0.3127 -0.1965
  357SOL    HW1 2671   3.637   0.963   5.601  1.3677  2.3362 -0.4800
  357SOL    HW2 2672   3.534   1.081   5.554 -2.6384 -0.9470 -0.5268
  358SOL     OW 2673   0.479   3.749   0.064 -0.2218 -0.3254  0.9058
  358SOL    HW1 2674   0.575   3.730   0.085  0.2260 -0.5163 -1.1077
  358SOL    HW2 2675   0.439   3.671   0.015 -0.0816  1.4059 -2.2038
  359SOL     OW 2676   5.647   1.998   4.037  0.2343 -0.3685  0.0564
  359SOL    HW1 2677   5.671   2.091   4.010 -1.4812 -0.1226 -0.8003
  359SOL    HW2 2678   5.558   1.999   4.083 -0.8219 -1.7771 -1.8240
  360SOL     OW 2679   4.176   6.151   5.325  0.2770 -0.1434  0.4767
  360SOL    HW1 2680   4.174   6.216   5.249 -0.1041  1.0078  1.4439
  360SOL    HW2 2681   4.219   6.066   5.294  3.0147  1.3466 -0.2260
  361SOL     OW 2682   2.374   0.178   5.263 -0.2461 -0.1791  0.4602
  361SOL    HW1 2683   2.472   0.191   5.248  0.0130 -1.1376  1.2429
  361SOL    HW2 2684   2.351   0.205   5.357 -0.9532  1.1145 -0.0585
  362SOL     OW 2685   5.757   3.678   3.527  0.0382  0.6480  0.2837
  362SOL    HW1 2686   5.770   3.590   3.572  0.2957 -0.0717 -1.1149
  362SOL    HW2 2687   5.717   3.663   3.436 -1.7125  2.1256  0.7488
  363SOL     OW 2688   0.614   5.126   5.076 -0.2742  0.0141 -0.2798
  363SOL    HW1 2689   0.532   5.155   5.027 -0.7042  0.3199  0.5995
  363SOL    HW2 2690   0.600   5.137   5.175  0.1758 -1.6043 -0.0062
  364SOL     OW 2691   1.764   0.735   0.267  0.4299  0.4626 -0.1502
  364SOL    HW1 2692   1.668   0.731   0.297  0.4052  0.5535 -0.2186
  364SOL    HW2 2693   1.816   0.792   0.329 -0.0801  2.5431 -1.5122
  365SOL     OW 2694   0.513   4.713   2.767 -0.4938 -0.0109 -0.0636
  365SOL    HW1 2695   0.466   4.799   2.747  0.8025  0.2383 -2.4031
  365SOL    HW2 2696   0.596   4.707   2.712 -0.5175 -2.7391  0.0618
  366SOL     OW 2697   0.013   6.937   3.134  0.3978  0.1735 -0.3957
  366SOL    HW1 2698  -0.076   6.972   3.162 -1.7694 -4.1192 -1.0590
  366SOL    HW2 2699   0.080   6.955   3.207 -1.6089  1.2713  1.2940
  367SOL     OW 2700   0.431   2.371   1.124  0.2205  0.5188  0.6316
  367SOL    HW1 2701   0.476   2.447   1.170  1.2517  0.4103 -0.1738
  367SOL    HW2 2702   0.475   2.285   1.151 -0.0704  0.3267  0.5032
  368SOL     OW 2703   6.935   3.788   4.945 -0.1079  0.1136 -0.1006
  368SOL    HW1 2704   6.947   3.719   5.017 -0.3669 -0.0056 -0.1709
  368SOL    HW2 2705   6.841   3.820   4.944 -0.2581 -0.3219 -0.7751
  369SOL     OW 2706   4.660   3.115   1.885  0.6124  0.1017 -0.1255
  369SOL    HW1 2707   4.665   3.015   1.875  1.5757  0.0634  0.6244
  369SOL    HW2 2708   4.584   3.138   1.947 -1.1567 -0.0033 -2.1462
  370SOL     OW 2709   0.299   2.072   3.651 -0.7579  0.3157  0.2283
  370SOL    HW1 2710   0.257   1.983   3.636  0.3298 -0.1419 -0.2406
  370SOL    HW2 2711   0.388   2.075   3.604 -0.2891  1.2555  1.1305
  371SOL     OW 2712   4.864   5.296   2.602 -0.0630 -0.2368 -0.5075
  371SOL    HW1 2713   4.940   5.290   2.666  1.4127 -2.2226 -2.2990
  371SOL    HW2 2714   4.797   5.225   2.622  0.5425 -1.0467 -1.2991
  372SOL     OW 2715   5.492   4.150   1.363 -0.8690 -0.5092 -0.1918
  372SOL    HW1 2716   5.403   4.104   1.361 -0.0176 -2.2046 -1.7312
  372SOL    HW2 2717   5.492   4.225   1.296 -1.0150 -0.7651 -0.4808
  373SOL     OW 2718   6.659   3.087   6.226  0.4500 -0.5246  0.2682
  373SOL    HW1 2719   6.616   3.096   6.136 -1.4163 -1.4383  1.0290
  373SOL    HW2 2720   6.736   3.023   6.219 -0.7862 -2.0149 -0.3522
  374SOL     OW 2721   5.193   1.043   0.687 -0.0443  0.1562  0.0747
  374SOL    HW1 2722   5.156   1.003   0.604  0.7898 -0.0255 -0.2168
  374SOL    HW2 2723   5.293   1.046   0.682 -0.0495  1.6214  0.3891
  375SOL     OW 2724   1.469   0.027   5.692  0.5705  0.2468  0.0887
  375SOL    HW1 2725   1.375   0.009   5.721  0.3302  0.2133 -0.6979
  375SOL    HW2 2726   1.487   0.125   5.698  0.8561  0.1356  1.3146
  376SOL     OW 2727   2.904   1.658   6.727  0.1340 -0.6424  0.3831
  376SOL    HW1 2728   2.992   1.677   6.685  0.0147 -1.6170 -0.3414
  376SOL    HW2 2729   2.917   1.599   6.807  0.1860 -0.3765  0.5702
  377SOL     OW 2730   6.460   3.947   2.786  0.1555 -0.0624  0.2297
  377SOL    HW1 2731   6.463   3.920   2.882  1.8285 -0.6098  0.0661
  377SOL    HW2 2732   6.551   3.980   2.758 -0.3602  0.2808 -1.1002
  378SOL     OW 2733   3.360   2.115   0.461 -0.0238 -0.1432  0.1293
  378SOL    HW1 2734   3.262   2.100   0.450 -0.1409  0.9244 -0.3529
  378SOL    HW2 2735   3.401   2.136   0.372  0.5296  0.0621  0.4265
  379SOL     OW 2736   0.336   6.983   5.725  0.3105  0.2939 -0.0699
  379SOL    HW1 2737   0.369   6.888   5.729 -3.0803 -1.0147  0.3649
  379SOL    HW2 2738   0.315   7.006   5.630 -0.2197  0.0716 -0.0091
  380SOL     OW 2739   2.849   2.070   5.614  0.3226  0.2840  0.3736
  380SOL    HW1 2740   2.888   2.085   5.523 -0.1384 -0.0671  0.1157
  380SOL    HW2 2741   2.883   2.141   5.676  0.6106  0.5500 -0.0767
  381SOL     OW 2742   4.117   6.462   0.695 -0.6470  0.1060 -0.1744
  381SOL    HW1 2743   4.072   6.404   0.762 -1.9019  1.4068  0.1315
  381SOL    HW2 2744   4.104   6.423   0.603 -1.9591  0.1731 -0.0345
  382SOL     OW 2745   3.689   1.663   3.870 -0.2743  0.4656  0.7002
  382SOL    HW1 2746   3.702   1.565   3.884 -1.5362  0.4215  1.6474
  382SOL    HW2 2747   3.679   1.709   3.958 -2.0053  1.1093  0.2102
  383SOL     OW 2748   6.670   6.078   5.771  0.6233  1.1082  0.2717
  383SOL    HW1 2749   6.634   6.112   5.684 -0.5274 -1.4766 -0.3495
  383SOL    HW2 2750   6.770   6.084   5.770  0.6987  0.3082 -1.6418
  384SOL     OW 2751   6.108   5.424   2.877 -0.1095  0.3826 -0.7300
  384SOL    HW1 2752   6.092   5.333   2.837  3.0522 -0.4316 -0.4204
  384SOL    HW2 2753   6.035   5.445   2.942 -0.5028 -2.3271 -0.1662
  385SOL     OW 2754   1.830   6.098   2.455  0.2071  0.2588  0.0029
  385SOL    HW1 2755   1.809   6.151   2.537  1.1829  1.4503 -0.4895
  385SOL    HW2 2756   1.748   6.048   2.426 -1.1056  2.4122 -0.1621
  386SOL     OW 2757   2.009   3.439   0.151 -0.6577  0.1589 -0.8435
  386SOL    HW1 2758   1.993   3.356   0.206  0.8958 -0.6205 -1.5059
  386SOL    HW2 2759   2.029   3.413   0.057  0.3538  1.2510 -0.9484
  387SOL     OW 2760   5.728   6.386   6.680  0.0895 -0.2047 -0.3947
  387SOL    HW1 2761   5.794   6.460   6.672  0.3867 -0.3375  0.7046
  387SOL    HW2 2762   5.654   6.414   6.741 -1.1108  0.0953 -1.9093
  388SOL     OW 2763   0.849   1.870   3.685  0.2810  0.0279 -0.1879
  388SOL    HW1 2764   0.820   1.912   3.771 -0.6515  0.4785 -0.7080
  388SOL    HW2 2765   0.770   1.828   3.640  1.1986 -2.5562  0.4299
  389SOL     OW 2766   0.527   3.526   3.599 -0.3130  0.0751  0.3686
  389SOL    HW1 2767   0.536   3.488   3.507 -1.8224 -1.9591  0.9669
  389SOL    HW2 2768   0.508   3.624   3.593  3.2665  0.8356 -1.2859
  390SOL     OW 2769   4.746   2.300   5.999  0.6421  0.3241 -0.9230
  390SOL    HW1 2770   4.778   2.323   6.090 -0.7120 -1.3121  0.0453
  390SOL    HW2 2771   4.786   2.213   5.970  0.4836  0.4528 -1.5513
  391SOL     OW 2772   5.916   3.659   5.691 -0.4183 -0.1798 -0.2911
  391SOL    HW1 2773   5.950   3.749   5.664  0.9928 -0.3673  0.7693
  391SOL    HW2 2774   5.856   3.623   5.619  1.0815  0.4531 -1.9210
  392SOL     OW 2775   3.928   1.917   1.131  0.0307 -0.2968  0.1643
  392SOL    HW1 2776   4.004   1.968   1.173  1.9260 -0.3461 -2.8732
  392SOL    HW2 2777   3.948   1.819   1.133 -0.0645 -0.3321 -0.3876
  393SOL     OW 2778   1.533   2.189   2.102  0.1037  0.4590 -0.5201
  393SOL    HW1 2779   1.616   2.226   2.061  0.4504  0.8752  0.5216
  393SOL    HW2 2780   1.526   2.091   2.081  0.6333  0.5186 -0.9777
  394SOL     OW 2781   3.091   5.280   4.936 -0.7895 -0.1134  0.5485
  394SOL    HW1 2782   3.060   5.327   4.854 -0.1120 -0.2543  0.2045
  394SOL    HW2 2783   3.163   5.334   4.980  0.1050 -0.8795  0.0676
  395SOL     OW 2784   5.884   1.704   2.672 -0.1371 -0.9676 -0.2529
  395SOL    HW1 2785   5.939   1.787   2.665 -0.6310 -0.6183 -0.0169
  395SOL    HW2 2786   5.941   1.624   2.651  0.2691 -0.5515 -0.7468
  396SOL     OW 2787   0.782   3.212   1.370  0.3529  0.2451  0.0417
  396SOL    HW1 2788   0.814   3.182   1.460  0.6387  1.0350  0.2102
  396SOL    HW2 2789   0.714   3.285   1.380  0.9544  0.8835 -0.3862
  397SOL     OW 2790   1.686   2.314   6.378 -0.0193 -0.0764  0.6196
  397SOL    HW1 2791   1.657   2.319   6.474  0.3095 -0.3690  0.7341
  397SOL    HW2 2792   1.706   2.219   6.354 -0.5926 -0.0802  0.1109
  398SOL     OW 2793   1.884   1.606   0.657 -0.1220 -0.0324 -0.4125
  398SOL    HW1 2794   1.900   1.684   0.717 -0.3981  1.1567 -1.8033
  398SOL    HW2 2795   1.969   1.557   0.642  0.0326 -0.0781  0.5811
  399SOL     OW 2796   6.821   2.588   5.928  0.0003  0.4102 -0.0171
  399SOL    HW1 2797   6.874   2.665   5.892 -1.4973  2.6060  2.1506
  399SOL    HW2 2798   6.865   2.555   6.012  0.6286 -1.1733 -0.9303
  400SOL     OW 2799   3.175   0.111   1.540  0.1397 -0.0245  0.2196
  400SOL    HW1 2800   3.122   0.195   1.551 -0.1723 -0.0687 -0.8389
  400SOL    HW2 2801   3.156   0.071   1.450  0.8494 -0.8336  0.4154
  401SOL     OW 2802   0.227   2.213   2.619  0.0672  0.3238  1.2845
  401SOL    HW1 2803   0.163   2.198   2.543  0.2427  0.6382  1.0737
  401SOL    HW2 2804   0.250   2.311   2.624  1.0822  0.1088  0.9193
  402SOL     OW 2805   6.441   6.043   6.200 -0.1309  0.1511 -0.1242
  402SOL    HW1 2806   6.406   5.954   6.171 -1.6748  0.5591  0.3854
  402SOL    HW2 2807   6.535   6.033   6.231  0.4434 -0.8916 -2.0928
  403SOL     OW 2808   6.003   0.849   2.620 -0.4187  0.1551  0.0175
  403SOL    HW1 2809   5.937   0.773   2.621  0.6436 -0.7981  1.1085
  403SOL    HW2 2810   6.074   0.831   2.552 -0.6278  0.6135 -0.3313
  404SOL     OW 2811   6.583   2.524   2.486  0.3741  0.4401 -0.3358
  404SOL    HW1 2812   6.656   2.582   2.449 -1.5280  1.9192 -1.9463
  404SOL    HW2 2813   6.545   2.568   2.567  2.5608 -1.3685  1.8291
  405SOL     OW 2814   5.752   3.823   4.969 -0.3855  0.0578 -0.1923
  405SOL    HW1 2815   5.689   3.801   4.894 -0.6090  2.1373 -0.6837
  405SOL    HW2 2816   5.846   3.826   4.934 -0.3858  0.1219 -0.1889
  406SOL     OW 2817   0.470   3.758   5.460  0.4920  0.9746  0.3817
  406SOL    HW1 2818   0.521   3.685   5.414  1.5292 -0.9541  4.1382
  406SOL    HW2 2819   0.373   3.750   5.437  0.5536 -1.7645  0.7183
  407SOL     OW 2820   4.354   0.338   1.693 -0.7708  0.0159 -0.6445
  407SOL    HW1 2821   4.402   0.367   1.610  2.3418 -0.9469  0.6577
  407SOL    HW2 2822   4.339   0.418   1.752 -2.8072  0.6668 -1.9472
  408SOL     OW 2823   6.609   0.617   2.158 -0.6106  0.3454 -0.4250
  408SOL    HW1 2824   6.545   0.549   2.121 -0.7258  0.8713 -1.2076
  408SOL    HW2 2825   6.562   0.705   2.168 -0.1308  0.6196 -0.5784
  409SOL     OW 2826   4.366   1.520   3.134 -0.2443  0.4307 -0.4186
  409SOL    HW1 2827   4.363   1.506   3.233 -0.7396 -1.0251 -0.6084
  409SOL    HW2 2828   4.452   1.562   3.109  0.4708 -0.4151  0.5134
  410SOL     OW 2829   6.384   6.901   0.780 -0.1754  0.0187 -0.6934
  410SOL    HW1 2830   6.319   6.974   0.759 -0.7204  0.2554  1.5531
  410SOL    HW2 2831   6.465   6.940   0.823 -0.4430 -0.6721  0.4735
  411SOL     OW 2832   1.058   5.846   4.892  0.3109 -0.1969  0.0557
  411SOL    HW1 2833   1.036   5.942   4.879  0.9974 -0.2975 -2.3797
  411SOL    HW2 2834   0.993   5.789   4.841  0.3855 -0.9797  0.8094
  412SOL     OW 2835   0.746   3.628   0.104 -0.1909  0.1354  1.1594
  412SOL    HW1 2836   0.804   3.709   0.117 -0.2663  0.1245  1.5821
  412SOL    HW2 2837   0.759   3.565   0.181 -1.0791  0.3279  1.4742
  413SOL     OW 2838   0.935   4.441   4.085 -0.0395  0.4031 -0.7299
  413SOL    HW1 2839   1.002   4.463   4.014  0.4492  0.4205 -0.2761
  413SOL    HW2 2840   0.949   4.347   4.115 -2.1378 -0.6044 -2.6793
  414SOL     OW 2841   2.020   4.579   4.463  0.2179  0.4445  0.6819
  414SOL    HW1 2842   2.047   4.485   4.479  0.5224  0.2783 -0.6426
  414SOL    HW2 2843   2.082   4.620   4.395  0.0011  1.5464  1.1316
  415SOL     OW 2844   5.454   6.485   2.814 -0.1006  0.6615  0.0652
  415SOL    HW1 2845   5.532   6.508   2.755  1.3794 -0.7463  1.3610
  415SOL    HW2 2846   5.370   6.485   2.760  1.1849 -0.7071 -2.0749
  416SOL     OW 2847   2.581   4.024   6.431  0.0869 -0.0512 -0.1856
  416SOL    HW1 2848   2.600   3.928   6.412 -1.1581 -0.8456  2.1957
  416SOL    HW2 2849   2.666   4.076   6.428  1.1769 -1.6871  0.8432
  417SOL     OW 2850   0.222   1.638   3.516  1.0507 -0.2078 -0.0283
  417SOL    HW1 2851   0.289   1.648   3.590  1.4840  0.8354 -0.5549
  417SOL    HW2 2852   0.149   1.705   3.527  0.4960 -0.8111  0.0843
  418SOL     OW 2853   4.975   0.517   1.514  0.2926 -0.1178 -0.2630
  418SOL    HW1 2854   4.991   0.424   1.546  2.3120  0.6710  1.2581
  418SOL    HW2 2855   4.898   0.518   1.451 -0.8935 -2.5400  1.0014
  419SOL     OW 2856   3.042   4.556   6.120  0.1022 -0.1955 -0.2572
  419SOL    HW1 2857   3.037   4.650   6.086 -1.5346  0.0877  0.6210
  419SOL    HW2 2858   3.039   4.493   6.043  0.1422  0.4642 -0.8115
  420SOL     OW 2859   2.596   0.773   0.571  0.1418 -0.5353 -0.5156
  420SOL    HW1 2860   2.510   0.736   0.533 -1.1976  1.1348  0.7599
  420SOL    HW2 2861   2.622   0.854   0.519 -0.8186  0.8058  1.0090
  421SOL     OW 2862   3.128   0.515   1.484 -0.0624 -0.2127 -0.4434
  421SOL    HW1 2863   3.142   0.463   1.568  2.9389 -0.5945 -1.0474
  421SOL    HW2 2864   3.133   0.454   1.405 -0.5442  0.4495 -0.9994
  422SOL     OW 2865   5.235   4.040   1.725  0.2908  0.0353  0.2175
  422SOL    HW1 2866   5.291   3.957   1.719  0.0107 -0.1247 -0.2279
  422SOL    HW2 2867   5.139   4.017   1.708  0.5095  0.8034 -2.6330
  423SOL     OW 2868   3.428   5.262   6.012  0.4807 -0.3000  0.2518
  423SOL    HW1 2869   3.498   5.192   6.004  0.4098 -0.3511  0.0790
  423SOL    HW2 2870   3.345   5.222   6.051  0.6583 -0.1648  0.7853
  424SOL     OW 2871   6.585   2.273   6.930 -0.5376 -0.1791  0.0679
  424SOL    HW1 2872   6.658   2.205   6.921  0.7138  0.9850  1.0784
  424SOL    HW2 2873   6.581   2.329   6.847  0.2347  0.2506  0.3202
  425SOL     OW 2874   5.672   1.344   4.737  0.0706  0.5308  0.1383
  425SOL    HW1 2875   5.695   1.386   4.649 -1.2681  0.8273 -0.0879
  425SOL    HW2 2876   5.648   1.416   4.803 -1.2246  0.1954  0.0519
  426SOL     OW 2877   2.647   5.327   4.555 -0.1034  0.0326  0.5107
  426SOL    HW1 2878   2.703   5.249   4.527  0.2738 -0.1492  1.6947
  426SOL    HW2 2879   2.582   5.298   4.625 -2.0308  0.1439 -1.1437
  427SOL     OW 2880   6.920   4.241   1.291 -0.1518 -0.6277  0.0526
  427SOL    HW1 2881   7.020   4.245   1.291 -0.1943  1.2314  0.1125
  427SOL    HW2 2882   6.884   4.291   1.213 -1.0569 -0.1998  0.7275
  428SOL     OW 2883   3.014   2.457   5.397  0.0452  0.1490 -0.0941
  428SOL    HW1 2884   3.102   2.429   5.435 -0.3508  0.9314  1.4539
  428SOL    HW2 2885   3.004   2.418   5.305  0.9889 -1.9020  0.6052
  429SOL     OW 2886   2.525   6.185   6.525 -0.3346 -0.3354 -0.2084
  429SOL    HW1 2887   2.570   6.266   6.485  0.4502 -1.0244 -0.7562
  429SOL    HW2 2888   2.470   6.213   6.604  1.2798  0.4984  0.6570
  430SOL     OW 2889   6.413   4.257   4.275 -0.5676  0.1725  0.2693
  430SOL    HW1 2890   6.453   4.166   4.264  0.2255  0.5484 -0.0352
  430SOL    HW2 2891   6.372   4.286   4.189  1.4189  1.1315 -0.4177
  431SOL     OW 2892   3.140   4.995   4.271 -0.0184  0.2656 -0.3515
  431SOL    HW1 2893   3.115   5.033   4.182 -1.4309 -0.6019 -0.3556
  431SOL    HW2 2894   3.206   5.056   4.316  3.6378 -1.0121 -3.4653
  432SOL     OW 2895   0.483   3.312   5.993  0.0064 -0.1147  0.6790
  432SOL    HW1 2896   0.570   3.263   5.986  1.2212  2.0239 -0.4706
  432SOL    HW2 2897   0.497   3.397   6.045 -1.5474 -0.0086  0.9691
  433SOL     OW 2898   4.244   0.629   5.307  0.9580 -0.4196 -0.2950
  433SOL    HW1 2899   4.262   0.620   5.209  2.2266 -2.0989  0.0558
  433SOL    HW2 2900   4.230   0.726   5.329 -1.5760 -0.1906 -2.4533
  434SOL     OW 2901   1.743   5.210   0.025  0.1278 -0.1628 -0.2668
  434SOL    HW1 2902   1.838   5.218   0.055  0.6950 -0.1041 -1.9640
  434SOL    HW2 2903   1.741   5.190  -0.073 -1.5418 -3.4825  0.3074
  435SOL     OW 2904   2.410   1.287   3.324  0.7269 -0.4827 -0.0138
  435SOL    HW1 2905   2.353   1.331   3.393 -1.6052  1.3900 -2.8755
  435SOL    HW2 2906   2.454   1.357   3.268 -1.1747 -1.6052 -3.2327
  436SOL     OW 2907   0.463   0.190   0.401 -0.1572  0.0150 -0.2650
  436SOL    HW1 2908   0.508   0.206   0.489 -1.6495 -1.0972  0.7490
  436SOL    HW2 2909   0.528   0.146   0.338  0.2011 -1.6571  1.1841
  437SOL     OW 2910   6.188   1.109   0.613 -0.2573 -0.1585  0.3718
  437SOL    HW1 2911   6.252   1.185   0.619  0.4821 -0.7261 -0.1933
  437SOL    HW2 2912   6.166   1.091   0.517 -2.1060  0.7030  0.5831
  438SOL     OW 2913   2.080   5.879   6.700  0.4109  0.3372  0.1137
  438SOL    HW1 2914   2.149   5.837   6.642  0.9324  1.4564 -0.1016
  438SOL    HW2 2915   2.103   5.975   6.714 -0.4758  0.4291  1.0084
  439SOL     OW 2916   6.109   6.663   6.500 -0.0148  0.7899  0.0788
  439SOL    HW1 2917   6.168   6.736   6.535 -1.1352  0.6355  2.5082
  439SOL    HW2 2918   6.139   6.575   6.537 -2.8072  0.9187  3.1417
  440SOL     OW 2919   1.300   2.716   3.633 -0.2515 -0.1057 -0.2272
  440SOL    HW1 2920   1.393   2.730   3.666 -0.2421 -1.2670  0.2904
  440SOL    HW2 2921   1.237   2.714   3.711 -0.6226 -0.0501 -0.5206
  441SOL     OW 2922   1.979   5.991   4.812  0.2882  0.3231  0.0813
  441SOL    HW1 2923   1.945   5.899   4.790  1.7793 -0.3515  0.5145
  441SOL    HW2 2924   1.916   6.059   4.775 -0.6531 -0.8615 -0.5653
  442SOL     OW 2925   5.434   5.278   0.522  0.2218  0.1635 -0.1497
  442SOL    HW1 2926   5.355   5.222   0.547  0.5331  0.5899  2.0703
  442SOL    HW2 2927   5.430   5.365   0.571  1.5832  0.5829 -0.7268
  443SOL     OW 2928   0.586   0.420   1.018  0.0897  0.8231  0.3608
  443SOL    HW1 2929   0.627   0.511   1.031 -0.4872  0.8773  2.0123
  443SOL    HW2 2930   0.538   0.418   0.931  1.2326  1.6586 -0.3333
  444SOL     OW 2931   0.437   5.314   2.108  0.3266  0.0397  0.8076
  444SOL    HW1 2932   0.517   5.353   2.062  0.3216  0.0256  0.7862
  444SOL    HW2 2933   0.370   5.285   2.039  1.1815 -1.8836  0.7083
  445SOL     OW 2934   0.781   4.542   2.304 -0.1736 -0.0297  0.2406
  445SOL    HW1 2935   0.691   4.555   2.345 -0.6879 -1.2404 -0.4349
  445SOL    HW2 2936   0.815   4.451   2.328  0.3689 -0.0016 -0.4069
  446SOL     OW 2937   0.565   2.682   0.497 -0.2097 -0.1588  0.6998
  446SOL    HW1 2938   0.559   2.770   0.544  0.9770 -0.0419  0.6641
  446SOL    HW2 2939   0.560   2.697   0.398  2.2308  0.1488  0.5697
  447SOL     OW 2940   2.847   1.117   4.554  0.4182  0.2778 -0.0052
  447SOL    HW1 2941   2.765   1.061   4.542  0.3641  0.2219  0.6193
  447SOL    HW2 2942   2.891   1.094   4.641  0.3818  1.2221  0.2776
  448SOL     OW 2943   6.913   2.256   5.009 -0.0096  0.5849  0.2640
  448SOL    HW1 2944   6.993   2.260   4.949  0.2641  1.5991  0.6704
  448SOL    HW2 2945   6.917   2.332   5.075 -1.0058  0.3012  0.6703
  449SOL     OW 2946   5.919   6.534   2.053  0.0346 -0.7923 -0.5546
  449SOL    HW1 2947   6.002   6.510   2.102 -0.5726 -0.9984  0.4079
  449SOL    HW2 2948   5.840   6.495   2.100 -0.5027 -2.1502 -2.4257
  450SOL     OW 2949   3.701   6.837   6.672 -0.3743 -0.1293  0.0589
  450SOL    HW1 2950   3.610   6.870   6.698 -0.2461  1.1738 -1.0440
  450SOL    HW2 2951   3.765   6.914   6.671  0.8946 -1.1190  1.3670
  451SOL     OW 2952   0.234   5.409   6.375  0.0463  0.3564  0.3854
  451SOL    HW1 2953   0.281   5.364   6.451  0.2364 -0.0157  0.0470
  451SOL    HW2 2954   0.255   5.362   6.290 -0.9323  0.1841  0.2276
  452SOL     OW 2955   0.502   1.845   0.677  0.1941 -0.4155  0.6595
  452SOL    HW1 2956   0.404   1.865   0.679 -0.0373 -1.1106 -1.2287
  452SOL    HW2 2957   0.519   1.770   0.613  2.1832  1.1995 -0.8337
  453SOL     OW 2958   0.032   2.276   2.992 -0.1658  0.1965 -0.0552
  453SOL    HW1 2959  -0.032   2.313   3.060 -0.7694 -1.4492  0.3283
  453SOL    HW2 2960   0.002   2.184   2.966  0.3618  0.5802 -2.1635
  454SOL     OW 2961   5.794   3.315   0.938  0.0174  0.2853  0.1761
  454SOL    HW1 2962   5.885   3.319   0.897  0.2114  1.1981  0.6646
  454SOL    HW2 2963   5.776   3.223   0.972 -0.9104 -1.1412 -3.6070
  455SOL     OW 2964   2.027   2.987   0.539 -0.3735  0.1604 -0.5664
  455SOL    HW1 2965   2.064   2.897   0.563  0.6059  0.4126 -1.0985
  455SOL    HW2 2966   1.998   2.986   0.443 -0.6924  0.3111 -0.4726
  456SOL     OW 2967   4.387   2.435   1.730 -0.3101  0.3261  0.1279
  456SOL    HW1 2968   4.463   2.372   1.733  0.7774  1.6104  0.7014
  456SOL    HW2 2969   4.305   2.388   1.696  0.2742 -1.5244  1.1821
  457SOL     OW 2970   4.660   0.193   4.391 -0.0559  0.0381 -0.9642
  457SOL    HW1 2971   4.579   0.248   4.371 -0.6607 -0.8470 -1.0220
  457SOL    HW2 2972   4.641   0.097   4.369  0.6354 -0.3498  0.0646
  458SOL     OW 2973   1.841   5.075   3.946  0.6483  0.0094  0.4623
  458SOL    HW1 2974   1.767   5.068   4.013  1.0975 -0.6707  0.8976
  458SOL    HW2 2975   1.829   5.158   3.892 -2.3468 -1.6562 -1.7745
  459SOL     OW 2976   1.013   1.589   6.712 -0.1520  0.0400  0.1396
  459SOL    HW1 2977   1.066   1.665   6.749  0.5054 -0.7324  0.8276
  459SOL    HW2 2978   1.052   1.560   6.624 -0.6992  0.7866 -0.3697
  460SOL     OW 2979   1.322   1.386   1.450 -0.2389 -0.1559 -0.2245
  460SOL    HW1 2980   1.387   1.333   1.396  0.3961  0.9249 -0.5476
  460SOL    HW2 2981   1.253   1.427   1.389  1.4418  2.4612 -0.5378
  461SOL     OW 2982   1.007   1.565   3.846  0.1940 -0.0088 -0.1531
  461SOL    HW1 2983   0.974   1.564   3.751  2.7210 -1.2998 -1.1131
  461SOL    HW2 2984   0.947   1.507   3.902 -1.4907  0.9801 -0.8530
  462SOL     OW 2985   2.423   5.412   0.251 -0.2982 -0.0991  0.1572
  462SOL    HW1 2986   2.505   5.469   0.262 -1.7631  2.1385  0.0973
  462SOL    HW2 2987   2.342   5.466   0.272 -1.7492 -2.6124  1.5405
  463SOL     OW 2988   1.635   4.098   3.393 -0.0481  0.5895 -0.4175
  463SOL    HW1 2989   1.606   4.184   3.351 -3.1287 -0.1674 -0.0375
  463SOL    HW2 2990   1.624   4.023   3.327 -0.4800  0.0561  0.2453
  464SOL     OW 2991   2.077   0.762   0.980 -0.0130  0.3255  0.2578
  464SOL    HW1 2992   2.075   0.752   0.880 -1.6400  0.3307  0.2583
  464SOL    HW2 2993   1.995   0.811   1.010  1.1411  1.5587  1.4944
  465SOL     OW 2994   5.503   0.359   6.124  0.0751  0.0107  0.3066
  465SOL    HW1 2995   5.477   0.294   6.196  0.7076 -1.5168 -0.7908
  465SOL    HW2 2996   5.561   0.313   6.057 -1.6091  0.9763 -1.9495
  466SOL     OW 2997   0.302   2.334   0.251 -0.0893 -0.2755 -0.8275
  466SOL    HW1 2998   0.301   2.318   0.350  1.6449  1.9305 -0.3837
  466SOL    HW2 2999   0.213   2.370   0.223 -0.5556 -0.7868 -0.0635
  467SOL     OW 3000   5.250   4.644   4.719  0.2804  0.4266 -0.7553
  467SOL    HW1 3001   5.164   4.644   4.668  0.7897  0.3731 -1.6496
  467SOL    HW2 3002   5.322   4.603   4.662  0.6059 -0.8440  0.5018
  468SOL     OW 3003   0.468   1.010   5.612  0.9371  0.0122 -0.4175
  468SOL    HW1 3004   0.534   1.021   5.686  0.3413 -0.4188  0.1846
  468SOL    HW2 3005   0.392   0.952   5.642  0.3139  0.4370 -1.1214
  469SOL     OW 3006   5.214   2.630   4.811  0.2500 -0.0002  0.0441
  469SOL    HW1 3007   5.313   2.636   4.825  0.5457 -1.9412 -0.9494
  469SOL    HW2 3008   5.192   2.640   4.714 -0.5667  0.6593  0.2810
  470SOL     OW 3009   0.451   4.130   3.455 -0.5913 -0.2967  0.2451
  470SOL    HW1 3010   0.506   4.141   3.537  2.6390 -0.4858 -1.7441
  470SOL    HW2 3011   0.457   4.213   3.400  0.3598 -1.4535 -1.4734
  471SOL     OW 3012   2.801   4.859   0.567  0.2751 -0.0096 -0.3869
  471SOL    HW1 3013   2.728   4.797   0.595  1.6726 -1.4461  0.1966
  471SOL    HW2 3014   2.846   4.824   0.485  0.3996  0.7955 -0.6751
  472SOL     OW 3015   5.238   2.228   4.603 -0.0294  0.3856  0.0859
  472SOL    HW1 3016   5.187   2.142   4.600 -1.9919  1.4754 -3.5228
  472SOL    HW2 3017   5.175   2.304   4.591  1.7597  2.3675  2.2988
  473SOL     OW 3018   2.126   6.762   0.904  0.2851  0.0599 -0.3423
  473SOL    HW1 3019   2.161   6.757   0.997  0.1842 -1.9343 -0.3715
  473SOL    HW2 3020   2.037   6.808   0.904 -0.0481 -0.5675  0.6464
  474SOL     OW 3021   4.884   6.863   5.276  0.0999 -0.4855 -0.0346
  474SOL    HW1 3022   4.907   6.871   5.374  1.7678  0.3757 -0.4523
  474SOL    HW2 3023   4.894   6.767   5.248 -0.9769 -0.8493  0.7493
  475SOL     OW 3024   1.539   2.987   2.451  1.0713 -0.4096 -0.4845
  475SOL    HW1 3025   1.475   2.920   2.413  0.5348 -1.0356  1.3821
  475SOL    HW2 3026   1.631   2.949   2.453  0.6945 -1.3319  0.9801
  476SOL     OW 3027   6.173   3.451   6.826  0.7918  0.0432  0.5173
  476SOL    HW1 3028   6.270   3.449   6.850  0.5860 -0.4595  1.3642
  476SOL    HW2 3029   6.119   3.413   6.901 -0.2720  2.2600  0.9610
  477SOL     OW 3030   6.305   5.269   1.251  0.9142  0.0397  0.0716
  477SOL    HW1 3031   6.375   5.199   1.234 -0.6955 -0.9645 -3.0946
  477SOL    HW2 3032   6.271   5.259   1.345  4.0814 -0.1897  1.3096
  478SOL     OW 3033   5.933   2.862   3.867  0.6459 -0.0876  0.3705
  478SOL    HW1 3034   5.872   2.785   3.888  0.8883 -0.7809 -1.3334
  478SOL    HW2 3035   6.027   2.830   3.862  0.8539  0.4945  0.4617
  479SOL     OW 3036   0.895   1.427   2.941 -0.2967  0.2903  0.0246
  479SOL    HW1 3037   0.966   1.473   2.994 -0.0850 -0.6876  0.6196
  479SOL    HW2 3038   0.927   1.336   2.914 -0.3033  0.8322 -1.9975
  480SOL     OW 3039   4.221   3.187   5.511 -0.1114  0.2309 -0.0079
  480SOL    HW1 3040   4.231   3.090   5.489  1.3416  0.8438 -2.4384
  480SOL    HW2 3041   4.268   3.207   5.597 -1.8104 -1.4481  1.3899
  481SOL     OW 3042   2.182   4.891   4.724  0.5933  0.3803 -0.2152
  481SOL    HW1 3043   2.196   4.881   4.625  0.8495  0.5796 -0.1997
  481SOL    HW2 3044   2.091   4.928   4.741  0.9429  1.3506 -0.4228
  482SOL     OW 3045   5.167   2.944   6.369  0.0333 -0.2372 -0.7534
  482SOL    HW1 3046   5.237   2.873   6.356 -0.4879 -0.6590 -1.2990
  482SOL    HW2 3047   5.171   2.976   6.464  1.9553  0.8191 -1.1326
  483SOL     OW 3048   6.257   3.649   1.042 -0.4164 -0.6768  0.2927
  483SOL    HW1 3049   6.326   3.662   0.971 -0.2868 -0.4127  0.4659
  483SOL    HW2 3050   6.284   3.572   1.100 -0.4489 -0.7998  0.1461
  484SOL     OW 3051   3.887   6.677   5.605  0.0652  0.3363  0.0647
  484SOL    HW1 3052   3.812   6.659   5.668 -0.6130  0.3425 -0.7245
  484SOL    HW2 3053   3.853   6.728   5.526  1.0736  1.0931  0.0955
  485SOL     OW 3054   6.785   1.513   1.979 -0.4333  0.1612 -0.1010
  485SOL    HW1 3055   6.779   1.579   2.054  0.9832  0.0311  0.1520
  485SOL    HW2 3056   6.745   1.553   1.897 -0.2486  1.0656  0.2338
  486SOL     OW 3057   4.237   6.438   1.425  0.1050 -0.2782 -0.3552
  486SOL    HW1 3058   4.250   6.537   1.435  1.2942 -0.3572 -0.9006
  486SOL    HW2 3059   4.171   6.406   1.493  0.3219  0.7657  0.3834
  487SOL     OW 3060   1.637   4.821   3.706  0.1927  0.7005 -0.0600
  487SOL    HW1 3061   1.610   4.741   3.652 -0.4104  0.8602 -0.0028
  487SOL    HW2 3062   1.672   4.790   3.795 -1.0536  0.5254  0.3968
  488SOL     OW 3063   6.928   1.522   4.591 -0.4032  1.1716 -0.0322
  488SOL    HW1 3064   7.012   1.483   4.630 -0.3382  0.7566 -0.5713
  488SOL    HW2 3065   6.914   1.614   4.627 -0.6602  0.5902  1.4086
  489SOL     OW 3066   3.316   6.715   0.560 -0.1680  0.1948  0.3863
  489SOL    HW1 3067   3.290   6.677   0.649 -1.9412 -0.3563 -0.3226
  489SOL    HW2 3068   3.296   6.649   0.488  0.4996  0.9408 -0.5118
  490SOL     OW 3069   1.018   6.191   1.926  0.5768  0.1650 -0.5236
  490SOL    HW1 3070   0.922   6.178   1.903  0.5195  0.2162 -0.3216
  490SOL    HW2 3071   1.029   6.276   1.978  0.4291 -0.7576  1.1182
  491SOL     OW 3072   6.054   2.569   5.096  0.6352 -0.7660  0.2146
  491SOL    HW1 3073   6.009   2.564   5.006  2.5265  1.5745 -0.9531
  491SOL    HW2 3074   6.150   2.544   5.087  0.7255 -1.0774  1.7534
  492SOL     OW 3075   4.575   5.514   1.117 -0.4919  0.2864  0.1599
  492SOL    HW1 3076   4.495   5.486   1.170 -0.0607 -3.5701 -0.9117
  492SOL    HW2 3077   4.572   5.472   1.026  3.2159 -1.0749  0.4642
  493SOL     OW 3078   5.336   5.022   4.097 -0.1189 -0.1175  0.1602
  493SOL    HW1 3079   5.295   5.058   4.181 -1.3513  0.2112 -0.5568
  493SOL    HW2 3080   5.405   5.086   4.062 -0.9452  0.6567 -0.0839
  494SOL     OW 3081   4.936   0.729   2.654 -0.2425  0.5059  0.2506
  494SOL    HW1 3082   4.953   0.770   2.564 -0.8067 -0.0042 -0.0979
  494SOL    HW2 3083   4.880   0.791   2.709 -1.0444  0.2440 -0.2529
  495SOL     OW 3084   5.716   2.988   1.396  0.1775 -0.3428  0.0876
  495SOL    HW1 3085   5.622   2.967   1.421  0.2348  0.1890  0.7727
  495SOL    HW2 3086   5.769   3.010   1.478  0.4091  1.2843 -0.4508
  496SOL     OW 3087   5.415   3.831   2.976 -0.2986 -0.6984 -0.1075
  496SOL    HW1 3088   5.507   3.825   3.016 -0.2998 -0.9030 -0.1331
  496SOL    HW2 3089   5.407   3.766   2.901 -1.2425 -2.4936  1.4583
  497SOL     OW 3090   4.566   4.858   5.237 -0.2712 -0.4043 -0.0734
  497SOL    HW1 3091   4.544   4.946   5.280 -0.1417  0.4083 -1.5970
  497SOL    HW2 3092   4.495   4.836   5.169  0.2696 -0.9388 -0.4706
  498SOL     OW 3093   1.629   4.950   5.965  0.3499 -0.7096  0.3089
  498SOL    HW1 3094   1.609   4.855   5.987  0.7730 -0.4678  1.8642
  498SOL    HW2 3095   1.568   4.981   5.892 -1.2054 -1.5782  1.1992
  499SOL     OW 3096   6.140   3.017   1.684 -0.1175 -0.4443 -0.1810
  499SOL    HW1 3097   6.149   3.026   1.783 -2.4008 -1.6208  0.2030
  499SOL    HW2 3098   6.172   2.927   1.655 -2.1238 -1.2758 -0.0142
  500SOL     OW 3099   2.264   3.976   0.141 -0.1672 -0.5029  0.0182
  500SOL    HW1 3100   2.231   4.070   0.127 -0.3264 -0.2897  1.6572
  500SOL    HW2 3101   2.266   3.956   0.239  0.6628 -1.9400 -0.2730
  501SOL     OW 3102   6.959   0.983   2.847  0.4931 -0.0841  0.0773
  501SOL    HW1 3103   6.938   0.888   2.825  1.1290 -0.4166  0.8200
  501SOL    HW2 3104   6.901   1.013   2.923  0.3033  0.1155 -0.1467
  502SOL     OW 3105   1.347   4.405   0.014 -0.5233  0.2325  0.1680
  502SOL    HW1 3106   1.429   4.362  -0.026 -0.1129  0.8244  0.3557
  502SOL    HW2 3107   1.360   4.416   0.112 -1.2401 -0.5692  0.3603
  503SOL     OW 3108   6.360   6.749   2.398  0.3529  0.3129 -0.6508
  503SOL    HW1 3109   6.277   6.798   2.427  1.4326  2.6071 -1.2108
  503SOL    HW2 3110   6.347   6.714   2.305 -0.9582 -1.8381  0.2826
  504SOL     OW 3111   5.835   6.433   1.550  0.0472 -0.4027 -0.0322
  504SOL    HW1 3112   5.836   6.364   1.478  1.7548 -0.8085  0.3191
  504SOL    HW2 3113   5.921   6.429   1.601  0.4305  2.3286 -0.2980
  505SOL     OW 3114   6.511   0.727   0.419 -0.1410  0.0112  0.8819
  505SOL    HW1 3115   6.448   0.666   0.371 -0.5504  1.1910 -0.1413
  505SOL    HW2 3116   6.485   0.822   0.401  0.4958  0.5026  2.4101
  506SOL     OW 3117   2.628   5.216   3.524 -0.1531 -0.3976 -0.2957
  506SOL    HW1 3118   2.584   5.210   3.614 -1.3514  1.3049 -0.7163
  506SOL    HW2 3119   2.673   5.305   3.515  0.8049 -0.9407 -1.0261
  507SOL     OW 3120   1.744   4.735   3.381 -0.2420 -0.5875 -0.1458
  507SOL    HW1 3121   1.784   4.776   3.463 -3.0703  0.3800  0.8924
  507SOL    HW2 3122   1.694   4.805   3.330 -1.8482 -1.9486 -0.5314
  508SOL     OW 3123   1.941   1.380   2.620  0.2614  0.1576 -0.1320
  508SOL    HW1 3124   2.017   1.367   2.557  1.0855  0.1202  0.8620
  508SOL    HW2 3125   1.904   1.291   2.646 -2.4836  0.1453 -3.3445
  509SOL     OW 3126   5.664   7.012   2.903 -0.4025  0.3933 -0.2423
  509SOL    HW1 3127   5.591   6.992   2.968 -0.4132  0.0783 -0.3536
  509SOL    HW2 3128   5.752   7.011   2.952 -0.3602 -0.3319 -0.3258
  510SOL     OW 3129   4.931   0.946   5.302  0.2485 -1.0161  0.0139
  510SOL    HW1 3130   4.909   0.903   5.214  1.8732  1.1338 -1.5579
  510SOL    HW2 3131   5.005   0.894   5.346  1.1380 -0.7497 -1.1122
  511SOL     OW 3132   4.259   1.527   6.885  0.1197 -0.4394 -0.5998
  511SOL    HW1 3133   4.219   1.436   6.889 -0.9420  0.0549  1.3437
  511SOL    HW2 3134   4.190   1.593   6.854  0.1956  0.0166  0.1639
  512SOL     OW 3135   0.011   1.872   3.308 -0.3314 -0.1962  0.2004
  512SOL    HW1 3136   0.071   1.840   3.235 -0.2182 -1.2505  0.7376
  512SOL    HW2 3137  -0.004   1.970   3.298 -0.4003 -0.3336 -1.2862
  513SOL     OW 3138   5.118   0.249   1.951  0.0982  0.7490  0.3743
  513SOL    HW1 3139   5.076   0.168   1.910 -0.4170  1.5975 -0.8500
  513SOL    HW2 3140   5.135   0.233   2.048 -1.5193 -0.2383  0.5315
  514SOL     OW 3141   6.658   4.883   6.993  0.4638  0.4177  0.0806
  514SOL    HW1 3142   6.733   4.915   6.935  0.2741 -0.8275 -0.9045
  514SOL    HW2 3143   6.583   4.849   6.935 -0.3140  0.4283  1.0539
  515SOL     OW 3144   0.332   1.618   6.997 -0.0647 -0.9590 -0.1371
  515SOL    HW1 3145   0.327   1.612   7.096 -2.4511 -1.7808 -0.2410
  515SOL    HW2 3146   0.425   1.641   6.969  0.2013  1.5966  2.3762
  516SOL     OW 3147   5.157   6.768   2.383  0.0809  0.3946  0.4817
  516SOL    HW1 3148   5.206   6.720   2.310  1.0395 -0.8657  1.9112
  516SOL    HW2 3149   5.093   6.834   2.342  0.1063 -0.7332 -1.4958
  517SOL     OW 3150   0.283   4.457   5.690  0.1190 -0.5066  0.0947
  517SOL    HW1 3151   0.334   4.407   5.620  1.2899 -0.0792  0.6249
  517SOL    HW2 3152   0.335   4.459   5.775  0.3630  2.0211 -0.0470
  518SOL     OW 3153   5.365   3.885   0.667 -0.7319  0.0513 -0.0669
  518SOL    HW1 3154   5.322   3.967   0.630 -0.8350  0.9388  1.9303
  518SOL    HW2 3155   5.324   3.862   0.755  1.5334 -0.2191  0.9773
  519SOL     OW 3156   3.100   1.096   2.830 -0.0710 -0.6823  0.1756
  519SOL    HW1 3157   3.027   1.029   2.826  0.5935 -1.4041 -3.3056
  519SOL    HW2 3158   3.080   1.171   2.768  0.2233  1.3553  2.3882
  520SOL     OW 3159   0.510   2.019   3.062  0.0989 -0.0088  0.0854
  520SOL    HW1 3160   0.414   2.012   3.088 -0.3317 -2.2791 -1.7551
  520SOL    HW2 3161   0.520   2.081   2.984 -0.0087 -0.3266 -0.1855
  521SOL     OW 3162   6.445   0.131   5.279 -0.2901 -0.6140 -0.0532
  521SOL    HW1 3163   6.545   0.132   5.285 -0.1010 -0.1634 -2.2783
  521SOL    HW2 3164   6.410   0.223   5.301 -0.2654 -0.8700  1.0995
  522SOL     OW 3165   5.330   4.442   6.124  0.8361 -0.8203  0.7809
  522SOL    HW1 3166   5.399   4.512   6.101  1.9314 -1.9669  0.4520
  522SOL    HW2 3167   5.359   4.392   6.205 -1.1279  0.6335  2.4926
  523SOL     OW 3168   3.933   6.875   1.697 -0.9588 -0.0787 -0.1200
  523SOL    HW1 3169   3.990   6.803   1.736 -3.6036 -2.3047 -0.0561
  523SOL    HW2 3170   3.890   6.927   1.771 -1.4453 -0.4845 -0.1120
  524SOL     OW 3171   0.908   2.851   5.120 -0.3230  0.2023  0.2134
  524SOL    HW1 3172   0.963   2.831   5.201 -0.3093 -0.5369  0.0235
  524SOL    HW2 3173   0.954   2.814   5.039 -0.9103 -0.0728  0.0055
  525SOL     OW 3174   2.392   1.759   6.190 -0.3799 -0.4017  0.1427
  525SOL    HW1 3175   2.384   1.772   6.091 -0.3609 -0.4032  0.1410
  525SOL    HW2 3176   2.430   1.669   6.209 -0.7050 -0.5361  0.1617
  526SOL     OW 3177   1.036   1.513   5.555 -0.2020  0.0218  0.6867
  526SOL    HW1 3178   1.090   1.464   5.623  0.9198  0.5825  0.2258
  526SOL    HW2 3179   0.957   1.557   5.600  0.6716  0.6260  1.6867
  527SOL     OW 3180   6.686   6.356   0.593 -0.0374  0.2795  0.1240
  527SOL    HW1 3181   6.771   6.323   0.633 -0.6434 -0.2702  0.9932
  527SOL    HW2 3182   6.651   6.433   0.647 -0.0662  0.5413 -0.2629
  528SOL     OW 3183   6.146   4.714   5.261 -0.1078  0.2532  0.1125
  528SOL    HW1 3184   6.227   4.692   5.206  0.1790  0.0540  0.6045
  528SOL    HW2 3185   6.105   4.799   5.228 -0.5701 -0.4137 -1.0943
  529SOL     OW 3186   0.568   0.756   1.455 -0.1354  0.1543 -0.3875
  529SOL    HW1 3187   0.485   0.799   1.418 -0.6842  0.5403  1.2247
  529SOL    HW2 3188   0.643   0.767   1.390 -0.7917  1.7315 -0.9312
  530SOL     OW 3189   1.643   4.167   6.989  0.6285  0.1931  0.1618
  530SOL    HW1 3190   1.603   4.249   6.948 -0.3626 -0.1579  0.4124
  530SOL    HW2 3191   1.582   4.131   7.059  0.4011 -1.5269 -0.8816
  531SOL     OW 3192   4.517   1.988   0.414 -0.8132 -0.2119  0.3327
  531SOL    HW1 3193   4.447   1.919   0.398 -1.1041  0.1364  0.0969
  531SOL    HW2 3194   4.494   2.040   0.497 -1.3300  0.5102 -0.2464
  532SOL     OW 3195   0.317   2.474   2.648 -0.6098 -0.6828 -0.4792
  532SOL    HW1 3196   0.415   2.467   2.630 -0.5021  0.4712 -0.3882
  532SOL    HW2 3197   0.280   2.553   2.599 -1.5162 -1.1596 -0.5783
  533SOL     OW 3198   1.084   4.833   4.708 -0.1350 -0.4165 -0.1083
  533SOL    HW1 3199   1.142   4.908   4.740  0.2922 -1.0498  0.6382
  533SOL    HW2 3200   1.043   4.857   4.620  0.4109  0.4750 -0.1253
  534SOL     OW 3201   3.564   6.041   0.474 -0.1024  0.4030  0.1578
  534SOL    HW1 3202   3.556   6.139   0.457 -0.5211  0.5504  1.1355
  534SOL    HW2 3203   3.651   6.022   0.520 -0.2529  0.3980  0.4479
  535SOL     OW 3204   6.629   6.208   2.270 -0.0850 -0.1352 -0.6553
  535SOL    HW1 3205   6.707   6.212   2.206  1.4684 -1.7722  1.0337
  535SOL    HW2 3206   6.604   6.113   2.286 -0.4988  0.2476  1.1052
  536SOL     OW 3207   4.993   6.615   4.333  0.6706  0.6295  0.0977
  536SOL    HW1 3208   5.061   6.629   4.261 -0.7908  0.7869 -1.3080
  536SOL    HW2 3209   4.950   6.702   4.356  0.2212  0.3744  0.2393
  537SOL     OW 3210   6.045   2.137   3.634  0.3456 -0.2411 -0.0699
  537SOL    HW1 3211   6.042   2.037   3.630 -0.9708 -0.2451  0.4040
  537SOL    HW2 3212   5.986   2.169   3.709 -0.5758  0.9548 -1.2514
  538SOL     OW 3213   0.240   1.217   0.645 -0.4290 -0.6501  0.0559
  538SOL    HW1 3214   0.245   1.151   0.720 -0.3359 -1.7306 -0.8862
  538SOL    HW2 3215   0.248   1.170   0.557 -0.3303  0.6159 -0.6465
  539SOL     OW 3216   0.919   1.092   6.144  0.0633 -0.4652  0.0288
  539SOL    HW1 3217   1.014   1.124   6.144 -0.1919  0.3248  0.9027
  539SOL    HW2 3218   0.904   1.032   6.222 -0.5282  0.5980  0.7585
  540SOL     OW 3219   6.253   6.115   5.201 -0.5038  0.1183  0.0447
  540SOL    HW1 3220   6.283   6.125   5.296 -2.3720 -0.4143  0.7412
  540SOL    HW2 3221   6.309   6.046   5.155 -1.7318 -2.2423  1.8548
  541SOL     OW 3222   1.067   2.118   2.893  0.1179  0.0704 -0.3196
  541SOL    HW1 3223   1.044   2.196   2.953 -0.9833 -1.1498  0.9333
  541SOL    HW2 3224   1.149   2.139   2.841 -0.7357  2.4919 -0.8188
  542SOL     OW 3225   0.196   1.530   5.696  0.6669  0.2258 -0.7848
  542SOL    HW1 3226   0.141   1.448   5.683 -0.7523  1.0521 -0.1978
  542SOL    HW2 3227   0.164   1.580   5.777  3.3806 -0.1159  0.6310
  543SOL     OW 3228   1.015   0.989   0.366 -0.3183  0.5324  0.0135
  543SOL    HW1 3229   0.974   0.967   0.278  0.2377 -0.0196 -0.1097
  543SOL    HW2 3230   0.944   1.025   0.428 -0.5525  1.7389 -0.9191
  544SOL     OW 3231   4.136   5.707   6.565 -0.4102 -0.3497 -0.3499
  544SOL    HW1 3232   4.112   5.612   6.586  0.8582 -0.3968  1.0545
  544SOL    HW2 3233   4.064   5.747   6.508 -0.6876 -2.3176 -1.5064
  545SOL     OW 3234   0.462   3.036   3.645  0.6542  0.4441 -0.3607
  545SOL    HW1 3235   0.409   3.022   3.561  1.1973  0.0949 -0.6479
  545SOL    HW2 3236   0.437   2.965   3.712  0.7159  0.3164 -0.4737
  546SOL     OW 3237   0.272   0.209   2.213  0.1341  0.0502 -0.1364
  546SOL    HW1 3238   0.339   0.160   2.269 -0.4835 -1.4083 -0.6117
  546SOL    HW2 3239   0.320   0.258   2.140  0.8851  1.3725  1.1845
  547SOL     OW 3240   0.307   4.402   1.827 -0.1376  0.3697  0.3449
  547SOL    HW1 3241   0.334   4.439   1.738 -0.6410  0.6844  0.3205
  547SOL    HW2 3242   0.379   4.341   1.861 -1.2936 -2.3419 -1.7230
  548SOL     OW 3243   1.556   2.713   6.615  0.5322 -0.2352 -0.1501
  548SOL    HW1 3244   1.592   2.799   6.580  2.1734 -1.4406 -1.6277
  548SOL    HW2 3245   1.458   2.707   6.596  0.7724  0.4897 -1.8158
  549SOL     OW 3246   4.651   0.247   5.112  0.2131 -0.5699 -0.2067
  549SOL    HW1 3247   4.712   0.292   5.046 -0.9476 -0.7687 -1.4491
  549SOL    HW2 3248   4.571   0.211   5.064 -1.5561  0.8226  1.5438
  550SOL     OW 3249   5.487   1.917   4.574  0.0098 -0.6795 -0.1557
  550SOL    HW1 3250   5.472   2.006   4.531  1.4928 -0.5100 -0.3604
  550SOL    HW2 3251   5.505   1.930   4.671  0.6576 -0.7161 -0.2698
  551SOL     OW 3252   4.418   3.384   3.293 -0.3608  0.6867  0.5108
  551SOL    HW1 3253   4.515   3.398   3.312 -0.0875 -0.6933  0.2346
  551SOL    HW2 3254   4.371   3.472   3.291  0.6646  1.2924  1.7964
  552SOL     OW 3255   2.814   2.911   3.385  0.0173  0.1209  1.0102
  552SOL    HW1 3256   2.867   2.980   3.335  0.6010  0.1568  1.6543
  552SOL    HW2 3257   2.864   2.886   3.468  0.7602 -2.4624 -0.1210
  553SOL     OW 3258   4.247   0.993   4.078  0.3930  0.4923 -0.2940
  553SOL    HW1 3259   4.341   1.025   4.081  0.3341  0.6651 -0.2731
  553SOL    HW2 3260   4.224   0.965   3.984  0.0998  1.5692 -0.5686
  554SOL     OW 3261   2.012   0.711   6.347  0.1800 -0.8069  0.8681
  554SOL    HW1 3262   2.017   0.617   6.315 -2.6424 -0.5583 -0.6799
  554SOL    HW2 3263   2.047   0.773   6.277 -1.3165 -0.5637  0.2812
  555SOL     OW 3264   3.825   3.113   6.581 -0.2251 -0.1613 -0.1367
  555SOL    HW1 3265   3.909   3.165   6.601 -0.2556 -0.1902  0.0657
  555SOL    HW2 3266   3.781   3.152   6.500 -0.5684  0.5114  0.3624
  556SOL     OW 3267   3.991   0.257   2.925 -0.6355  0.3234  0.3597
  556SOL    HW1 3268   3.979   0.191   2.998 -2.1170  0.6493  0.4446
  556SOL    HW2 3269   3.934   0.232   2.847  1.1746 -0.2128 -0.8563
  557SOL     OW 3270   2.169   1.931   2.023 -0.0192  0.2993  0.4247
  557SOL    HW1 3271   2.080   1.900   2.057  0.1382 -0.0225  0.5458
  557SOL    HW2 3272   2.222   1.971   2.098  0.8678 -1.6365  0.8822
  558SOL     OW 3273   2.159   5.891   5.480  0.2892  0.1776 -0.0102
  558SOL    HW1 3274   2.148   5.912   5.577  2.4164 -0.2477  0.3768
  558SOL    HW2 3275   2.256   5.881   5.459 -0.0579  1.0922 -2.3745
  559SOL     OW 3276   0.239   2.836   4.676 -0.2057  0.2484 -0.0223
  559SOL    HW1 3277   0.175   2.760   4.675 -0.7420  0.6964 -0.6805
  559SOL    HW2 3278   0.274   2.850   4.769  1.3277 -1.9632 -0.2063
  560SOL     OW 3279   5.536   6.937   6.053 -0.3122  0.4516 -0.0145
  560SOL    HW1 3280   5.563   6.852   6.098 -0.3146 -0.0160 -0.8632
  560SOL    HW2 3281   5.460   6.979   6.103 -0.4137 -0.1338  0.3283
  561SOL     OW 3282   2.805   2.551   6.157 -0.3219  0.5245  0.2263
  561SOL    HW1 3283   2.750   2.562   6.240 -0.0177 -0.1659  0.5215
  561SOL    HW2 3284   2.751   2.580   6.078 -1.4189 -0.9077  0.4181
  562SOL     OW 3285   5.979   6.583   5.023 -0.1822 -0.0540  0.4265
  562SOL    HW1 3286   5.882   6.569   5.043  0.3156 -3.6565  0.8589
  562SOL    HW2 3287   5.999   6.548   4.931  0.7200  0.7478  0.3040
  563SOL     OW 3288   3.442   4.488   5.845  0.0044  0.0688  0.3835
  563SOL    HW1 3289   3.519   4.521   5.790 -0.6156 -0.6323 -0.9300
  563SOL    HW2 3290   3.472   4.409   5.899  0.5350  0.5732  0.8397
  564SOL     OW 3291   5.533   5.188   3.457  0.4864 -0.4657 -0.0221
  564SOL    HW1 3292   5.562   5.280   3.483  0.4623 -0.0804 -1.2845
  564SOL    HW2 3293   5.614   5.132   3.438  0.4844 -0.3744 -0.3101
  565SOL     OW 3294   2.961   4.829   6.364 -0.0475 -0.2660 -0.1386
  565SOL    HW1 3295   2.916   4.905   6.316  0.1533 -0.6093 -0.8911
  565SOL    HW2 3296   2.900   4.750   6.366 -0.8466  0.3480  1.9553
  566SOL     OW 3297   0.190   4.875   1.941 -0.3301  0.2815 -0.0691
  566SOL    HW1 3298   0.229   4.817   1.870 -0.8441 -1.4440  0.9940
  566SOL    HW2 3299   0.116   4.825   1.987 -1.3098  2.0829  0.3954
  567SOL     OW 3300   5.836   6.098   4.899  0.4629 -0.5862  0.0627
  567SOL    HW1 3301   5.756   6.110   4.959  0.1702 -0.9406 -0.2518
  567SOL    HW2 3302   5.836   6.170   4.829 -1.2521 -2.2369 -1.7766
  568SOL     OW 3303   4.788   1.202   1.138 -0.2294  0.5204  0.0819
  568SOL    HW1 3304   4.768   1.255   1.220 -1.9706 -0.2502  0.1980
  568SOL    HW2 3305   4.862   1.138   1.157 -0.2077  0.7677  0.8631
  569SOL     OW 3306   3.624   6.540   7.013  0.0848 -0.0385 -0.1344
  569SOL    HW1 3307   3.542   6.523   6.959 -0.3387  1.6559 -0.0591
  569SOL    HW2 3308   3.602   6.539   7.110  0.6416 -1.9820  0.0162
  570SOL     OW 3309   2.222   4.301   0.071  0.0695 -0.1287 -0.4012
  570SOL    HW1 3310   2.142   4.360   0.076  0.9271  1.2197 -1.6793
  570SOL    HW2 3311   2.297   4.342   0.123  1.1511  0.7867 -2.5599
  571SOL     OW 3312   4.238   0.715   2.931 -0.2119 -0.5176 -0.2018
  571SOL    HW1 3313   4.226   0.617   2.915  0.9358 -0.4984 -1.3492
  571SOL    HW2 3314   4.281   0.729   3.021  1.3352 -1.2016 -0.8017
  572SOL     OW 3315   0.131   6.611   6.814 -0.1535  0.0715 -0.4347
  572SOL    HW1 3316   0.148   6.706   6.838  0.5870  0.0247 -0.7356
  572SOL    HW2 3317   0.115   6.604   6.716 -0.8482 -0.0309 -0.3132
  573SOL     OW 3318   6.995   4.058   4.902  0.0321 -0.2163 -0.5521
  573SOL    HW1 3319   7.006   4.043   5.000  1.4929  1.6707 -0.3813
  573SOL    HW2 3320   7.014   3.973   4.853  0.8970 -0.7752  0.7053
  574SOL     OW 3321   1.466   6.256   1.524  0.1004  0.1253  0.1609
  574SOL    HW1 3322   1.380   6.262   1.573  0.5708  0.4508  0.9571
  574SOL    HW2 3323   1.518   6.177   1.557 -0.2160 -0.5476 -0.8696
  575SOL     OW 3324   6.188   3.290   0.238  0.3304  0.4414  0.1634
  575SOL    HW1 3325   6.252   3.337   0.177  0.1489  0.8063  0.2512
  575SOL    HW2 3326   6.215   3.194   0.248  0.5082  0.4441 -0.2880
  576SOL     OW 3327   2.228   5.994   6.225  0.2809 -0.2044  0.0781
  576SOL    HW1 3328   2.290   5.950   6.291  0.5585 -0.9868 -0.6893
  576SOL    HW2 3329   2.282   6.036   6.152  0.0057  1.1906  0.6443
  577SOL     OW 3330   1.753   3.914   5.076 -0.2993  0.2818 -0.3523
  577SOL    HW1 3331   1.743   3.841   5.143 -0.0387 -0.3908 -1.0325
  577SOL    HW2 3332   1.720   4.000   5.115  0.6217  0.0858  0.9408
  578SOL     OW 3333   2.764   6.569   6.402 -0.2518 -0.2566 -0.1833
  578SOL    HW1 3334   2.678   6.519   6.387  0.5045 -1.0201 -2.3518
  578SOL    HW2 3335   2.744   6.661   6.435 -1.8455 -0.7676  0.3811
  579SOL     OW 3336   3.041   3.736   0.042  0.4210 -0.1728 -0.2467
  579SOL    HW1 3337   3.104   3.805   0.080  0.5651 -0.6925  0.4681
  579SOL    HW2 3338   3.050   3.735  -0.058 -0.6662  1.9066 -0.4425
  580SOL     OW 3339   5.926   4.882   0.323  0.4942  0.6587 -0.3175
  580SOL    HW1 3340   5.896   4.962   0.375  1.0106  1.2326 -0.8940
  580SOL    HW2 3341   5.922   4.903   0.226  0.2937 -0.1439 -0.4859
  581SOL     OW 3342   6.509   4.215   0.275  0.8476  0.0665  0.2143
  581SOL    HW1 3343   6.442   4.285   0.248  0.1345 -1.3910 -2.0411
  581SOL    HW2 3344   6.515   4.145   0.204  1.1817 -2.4650  2.5615
  582SOL     OW 3345   4.456   1.117   5.248 -0.1415 -0.2461 -0.0208
  582SOL    HW1 3346   4.527   1.185   5.229 -2.0193  2.0100  0.5837
  582SOL    HW2 3347   4.491   1.026   5.226  3.2662  0.6082  1.2119
  583SOL     OW 3348   1.526   4.401   2.413  0.2680  0.3374 -0.9201
  583SOL    HW1 3349   1.579   4.347   2.348 -1.0963 -2.0923 -0.1414
  583SOL    HW2 3350   1.583   4.423   2.492  0.6465 -0.7126 -0.8835
  584SOL     OW 3351   1.027   2.680   3.315 -0.0094  0.0885  0.2097
  584SOL    HW1 3352   0.985   2.756   3.364  2.7492  1.6638  0.3439
  584SOL    HW2 3353   0.970   2.599   3.324 -3.1492  2.1051 -0.0472
  585SOL     OW 3354   4.964   3.004   5.022 -0.1333  0.1670 -0.0405
  585SOL    HW1 3355   4.883   2.946   5.031  0.2306 -0.4769 -0.8074
  585SOL    HW2 3356   4.947   3.075   4.954  0.3259 -0.6773 -1.0663
  586SOL     OW 3357   5.170   2.804   5.025 -0.0137  0.3283 -0.5421
  586SOL    HW1 3358   5.086   2.856   5.009 -1.3892 -1.5618  0.1535
  586SOL    HW2 3359   5.178   2.732   4.957  1.1026  0.5136 -0.6285
  587SOL     OW 3360   3.942   3.439   3.399 -0.1716 -0.1091 -0.1573
  587SOL    HW1 3361   3.995   3.356   3.418 -0.7510 -0.0827  1.7621
  587SOL    HW2 3362   3.994   3.498   3.338  1.1393 -0.9692  0.0827
  588SOL     OW 3363   0.374   3.430   4.134  0.1527 -0.4343  0.4692
  588SOL    HW1 3364   0.418   3.459   4.049 -0.3282 -0.5516  0.1783
  588SOL    HW2 3365   0.331   3.510   4.177  0.2468 -0.4069  0.5113
  589SOL     OW 3366   2.532   6.996   4.390 -0.0633 -0.3675  0.4099
  589SOL    HW1 3367   2.563   7.040   4.306 -4.2040 -0.6055 -1.4779
  589SOL    HW2 3368   2.583   6.912   4.405  0.4757 -0.5745 -2.1537
  590SOL     OW 3369   5.327   5.317   6.070 -0.1617 -0.2806  0.0270
  590SOL    HW1 3370   5.391   5.258   6.022  0.2415 -0.1223  0.3602
  590SOL    HW2 3371   5.377   5.389   6.118 -0.6802  0.6297 -0.7721
  591SOL     OW 3372   6.410   3.238   5.050 -0.1969  0.1122  0.3978
  591SOL    HW1 3373   6.478   3.224   4.978  0.1133  0.2172  0.6690
  591SOL    HW2 3374   6.339   3.168   5.043 -0.0489 -0.0134  0.1308
  592SOL     OW 3375   6.102   1.259   1.508  0.0141 -0.1279 -0.0333
  592SOL    HW1 3376   6.069   1.176   1.553  0.7260 -0.0404  0.6834
  592SOL    HW2 3377   6.160   1.310   1.572  0.9445  0.0722 -1.0249
  593SOL     OW 3378   1.814   3.978   6.322 -0.8200  0.2533  0.5232
  593SOL    HW1 3379   1.831   3.888   6.364  2.5634  0.1701 -0.7389
  593SOL    HW2 3380   1.783   3.966   6.228  0.4144  0.3326  0.0835
  594SOL     OW 3381   3.630   5.812   5.313  0.1142  0.0923  0.5241
  594SOL    HW1 3382   3.546   5.788   5.361 -0.2595  1.1002  0.4038
  594SOL    HW2 3383   3.708   5.800   5.374  0.2785 -3.5347 -0.1733
  595SOL     OW 3384   6.963   2.794   1.575 -0.0241  0.3828 -0.6248
  595SOL    HW1 3385   6.972   2.871   1.638  0.2319 -1.8952  2.3002
  595SOL    HW2 3386   7.053   2.754   1.557  0.2990  2.3378 -4.5031
  596SOL     OW 3387   6.924   2.989   6.175  0.2544 -0.3941  0.1805
  596SOL    HW1 3388   6.883   2.899   6.193  0.7074 -1.0246 -1.6430
  596SOL    HW2 3389   7.023   2.977   6.161  0.7612  0.7840  2.3648
  597SOL     OW 3390   6.886   3.605   5.209  0.0950 -0.3979  0.2855
  597SOL    HW1 3391   6.942   3.539   5.158 -1.5368 -0.3524 -1.6773
  597SOL    HW2 3392   6.808   3.558   5.250  0.1671 -0.0375  0.8580
  598SOL     OW 3393   1.336   1.436   5.965  0.0918 -0.1530  0.0882
  598SOL    HW1 3394   1.413   1.375   5.943  1.0339  1.0101  0.0577
  598SOL    HW2 3395   1.264   1.383   6.010  1.9369 -0.8378  2.4559
  599SOL     OW 3396   3.957   6.306   0.211  0.0395 -0.1887  0.3130
  599SOL    HW1 3397   3.962   6.283   0.113  1.1154  0.4661  0.1876
  599SOL    HW2 3398   3.947   6.405   0.220  1.1598 -0.1068  0.8561
  600SOL     OW 3399   1.032   1.920   3.489  0.0535 -0.0481  0.0040
  600SOL    HW1 3400   1.010   1.995   3.426  0.6367  1.2157  1.2496
  600SOL    HW2 3401   0.965   1.917   3.562  1.0626  0.4907  0.9810
  601SOL     OW 3402   6.838   6.624   2.999 -0.1206 -0.2594  0.1710
  601SOL    HW1 3403   6.823   6.695   2.929 -0.5402  1.0448  1.5413
  601SOL    HW2 3404   6.876   6.542   2.955 -0.2338  0.5595 -1.5586
  602SOL     OW 3405   1.995   0.019   4.437 -0.0468  0.2007 -0.0072
  602SOL    HW1 3406   2.008  -0.052   4.506 -1.9736 -0.9434 -0.7245
  602SOL    HW2 3407   2.079   0.028   4.383  0.8944 -0.1074  1.3378
  603SOL     OW 3408   5.117   6.684   0.762 -0.2455  0.2481  0.0208
  603SOL    HW1 3409   5.185   6.755   0.746 -0.1307  0.3449  0.9013
  603SOL    HW2 3410   5.059   6.710   0.840 -0.0140 -0.7460  0.5458
  604SOL     OW 3411   4.448   1.625   0.334  0.7534 -0.6668 -0.6900
  604SOL    HW1 3412   4.384   1.548   0.330  0.1854 -0.1561 -1.8252
  604SOL    HW2 3413   4.413   1.693   0.399  0.7432 -0.9208 -0.4292
  605SOL     OW 3414   4.593   5.692   3.045 -0.2010 -0.4957  0.4105
  605SOL    HW1 3415   4.676   5.690   2.989 -0.2502  0.1222  0.3018
  605SOL    HW2 3416   4.535   5.768   3.015 -1.0405 -1.2221  0.1542
  606SOL     OW 3417   0.098   2.130   1.679 -1.1167 -0.2405 -0.1497
  606SOL    HW1 3418   0.004   2.097   1.677 -1.3695  0.4895 -0.7538
  606SOL    HW2 3419   0.132   2.138   1.585 -0.6657  0.0979  0.0432
  607SOL     OW 3420   4.513   6.175   4.280 -0.0842  0.0116 -0.3794
  607SOL    HW1 3421   4.417   6.152   4.263  0.3093 -1.2341 -1.0831
  607SOL    HW2 3422   4.534   6.264   4.239 -0.2516 -0.9944 -2.8006
  608SOL     OW 3423   1.427   0.328   1.964 -0.1105 -0.5218  0.3191
  608SOL    HW1 3424   1.502   0.377   1.920  0.1827 -0.1707  1.1778
  608SOL    HW2 3425   1.344   0.337   1.909  0.7102 -1.8628 -1.2344
  609SOL     OW 3426   2.815   2.413   5.555  0.4856 -0.5540  0.0401
  609SOL    HW1 3427   2.866   2.356   5.619  1.6251  1.7237  1.3178
  609SOL    HW2 3428   2.879   2.458   5.492 -0.2597  0.0741 -0.2912
  610SOL     OW 3429   3.729   0.729   0.635 -0.2641  0.4070 -0.3250
  610SOL    HW1 3430   3.677   0.645   0.644 -0.6140  0.6949  0.4488
  610SOL    HW2 3431   3.684   0.802   0.687 -0.0350  1.1038 -1.0786
  611SOL     OW 3432   4.017   0.038   5.245  0.0263 -0.3317  0.7024
  611SOL    HW1 3433   3.937  -0.015   5.219 -0.5682  0.1656  1.4597
  611SOL    HW2 3434   4.099  -0.017   5.233 -0.3238 -0.5530 -0.9450
  612SOL     OW 3435   1.176   6.890   5.373  0.8503  0.2431  0.1819
  612SOL    HW1 3436   1.148   6.794   5.366  2.7930 -0.4364  1.0617
  612SOL    HW2 3437   1.215   6.920   5.286  2.2474 -0.4821  0.5288
  613SOL     OW 3438   1.699   5.991   6.633  0.0604 -0.7032 -0.2602
  613SOL    HW1 3439   1.664   5.922   6.696  2.3054 -0.8396  0.9239
  613SOL    HW2 3440   1.651   6.078   6.648  0.1527 -0.8932  1.2391
  614SOL     OW 3441   1.010   5.520   5.267  0.1753  0.0063  0.3260
  614SOL    HW1 3442   0.919   5.558   5.282  0.5084  0.7033  0.6157
  614SOL    HW2 3443   1.079   5.586   5.295  0.7742 -0.5976  0.3076
  615SOL     OW 3444   0.785   4.277   2.158 -0.2979  0.1829  0.1096
  615SOL    HW1 3445   0.858   4.290   2.225 -0.6346  0.1725  0.4859
  615SOL    HW2 3446   0.701   4.250   2.206 -0.3909 -0.4056 -0.3726
  616SOL     OW 3447   5.024   2.096   1.794  0.5577  0.6995 -0.6621
  616SOL    HW1 3448   5.021   2.194   1.777  1.6837  1.0144  0.7726
  616SOL    HW2 3449   4.959   2.050   1.734  0.6683  2.2088 -2.0089
  617SOL     OW 3450   2.279   0.814   4.087  0.0089 -0.1251 -0.2524
  617SOL    HW1 3451   2.199   0.754   4.082 -0.4181  0.2227  1.8275
  617SOL    HW2 3452   2.305   0.828   4.182  1.6575  0.9824 -0.8180
  618SOL     OW 3453   4.834   4.731   4.669  0.5684 -0.7425  0.0596
  618SOL    HW1 3454   4.748   4.738   4.719 -1.4332  2.4439 -3.3564
  618SOL    HW2 3455   4.897   4.801   4.701  0.7549 -1.1105  0.5174
  619SOL     OW 3456   6.708   2.405   4.734 -0.1388  0.1907  0.1476
  619SOL    HW1 3457   6.797   2.452   4.730  0.9602 -1.6649  1.4269
  619SOL    HW2 3458   6.719   2.311   4.704 -2.1332  0.4498 -1.5867
  620SOL     OW 3459   0.546   2.046   3.525 -0.0826 -0.3091  0.9156
  620SOL    HW1 3460   0.568   1.954   3.557  0.0124 -0.0369  1.6508
  620SOL    HW2 3461   0.570   2.054   3.428  2.0227 -0.3731  1.3869
  621SOL     OW 3462   5.302   3.256   2.335  0.5736  0.0675  0.0277
  621SOL    HW1 3463   5.293   3.353   2.312  0.4030 -0.1282 -0.7456
  621SOL    HW2 3464   5.390   3.222   2.303 -0.4480 -0.6869 -2.1970
  622SOL     OW 3465   4.817   3.273   5.589 -0.1006 -0.0931 -0.1966
  622SOL    HW1 3466   4.909   3.299   5.559 -0.1461  0.0124 -0.2439
  622SOL    HW2 3467   4.824   3.218   5.672 -0.0125  0.2414  0.0214
  623SOL     OW 3468   0.062   6.327   6.508  0.1267  0.5929  0.0016
  623SOL    HW1 3469   0.080   6.242   6.458 -1.6733 -0.6859  1.3849
  623SOL    HW2 3470   0.029   6.397   6.445  0.7790 -0.0144 -1.0286
  624SOL     OW 3471   5.482   6.102   3.268 -0.4123  0.4580 -0.4451
  624SOL    HW1 3472   5.446   6.122   3.176  0.6490  0.7521 -0.8009
  624SOL    HW2 3473   5.578   6.075   3.261 -0.1719  1.0092  0.6436
  625SOL     OW 3474   2.505   4.332   6.510 -0.4852  0.1332 -0.2617
  625SOL    HW1 3475   2.604   4.334   6.498 -0.4772 -0.2260 -0.2652
  625SOL    HW2 3476   2.479   4.250   6.560 -0.6581  0.8911  0.9272
  626SOL     OW 3477   4.241   0.082   1.013 -0.2389 -0.2633 -0.5393
  626SOL    HW1 3478   4.292   0.018   1.071  0.4671 -0.3158 -1.1983
  626SOL    HW2 3479   4.219   0.037   0.926 -0.6286  0.0587 -0.6099
  627SOL     OW 3480   3.731   2.558   1.641 -0.7554 -0.0329 -0.0560
  627SOL    HW1 3481   3.830   2.572   1.644 -0.7266 -0.1341 -0.4512
  627SOL    HW2 3482   3.691   2.587   1.727 -0.4054  0.2029  0.0309
  628SOL     OW 3483   3.039   1.248   5.234 -0.1159  0.1567  0.1063
  628SOL    HW1 3484   2.956   1.284   5.278 -0.6510  0.3247 -1.0132
  628SOL    HW2 3485   3.090   1.323   5.193 -1.0715 -0.2709 -1.9631
  629SOL     OW 3486   0.472   4.142   4.346  0.2309 -0.1658 -0.6775
  629SOL    HW1 3487   0.432   4.234   4.344 -2.4744 -1.0864  2.4706
  629SOL    HW2 3488   0.562   4.144   4.303 -0.4523  3.5048 -2.3647
  630SOL     OW 3489   5.194   5.645   5.119  0.3566 -0.0526 -0.8037
  630SOL    HW1 3490   5.122   5.676   5.058  0.1502  1.8152  0.3223
  630SOL    HW2 3491   5.283   5.679   5.086  0.4760 -0.5751 -1.0358
  631SOL     OW 3492   6.385   6.238   3.907  0.3971  0.1301  0.5714
  631SOL    HW1 3493   6.287   6.240   3.927  0.4736 -0.2482  1.0305
  631SOL    HW2 3494   6.404   6.294   3.827 -0.5974 -2.0030 -1.2796
  632SOL     OW 3495   5.886   1.942   4.227 -0.2352  0.4843 -0.3490
  632SOL    HW1 3496   5.829   1.900   4.297  0.7364 -1.0072 -0.4050
  632SOL    HW2 3497   5.846   1.926   4.137  0.2125 -0.5138 -0.3841
  633SOL     OW 3498   6.691   6.070   0.816  0.0366  0.2868 -0.2198
  633SOL    HW1 3499   6.614   6.032   0.867  0.1096  1.4602  0.8017
  633SOL    HW2 3500   6.777   6.033   0.852  0.0218 -0.2369 -0.6911
  634SOL     OW 3501   5.149   3.584   1.998  0.5862  0.3080 -0.5675
  634SOL    HW1 3502   5.132   3.570   1.900 -3.2225  2.2353 -0.3693
  634SOL    HW2 3503   5.116   3.674   2.025  2.7372  0.3618  2.3439
  635SOL     OW 3504   5.022   4.022   5.668  0.6197  0.0616  0.6755
  635SOL    HW1 3505   5.100   4.017   5.605  0.0296  2.3437 -0.3527
  635SOL    HW2 3506   5.049   4.073   5.750  0.5742 -0.3551  0.9516
  636SOL     OW 3507   1.167   2.828   6.779  0.6176 -0.0642  0.6009
  636SOL    HW1 3508   1.142   2.923   6.756 -0.0613 -0.2844  0.4143
  636SOL    HW2 3509   1.094   2.786   6.832  0.3460 -0.8853 -0.3959
  637SOL     OW 3510   5.571   3.000   2.516 -0.5925 -0.5728  0.0148
  637SOL    HW1 3511   5.515   2.917   2.517 -0.4926 -0.6358  0.8529
  637SOL    HW2 3512   5.575   3.036   2.423 -2.6234 -0.1685  0.0360
  638SOL     OW 3513   3.754   4.297   5.367  0.2532 -0.2634 -0.3113
  638SOL    HW1 3514   3.795   4.242   5.439  0.0336 -3.0387 -2.1710
  638SOL    HW2 3515   3.655   4.302   5.382  0.3864  0.5935  0.4172
  639SOL     OW 3516   3.187   4.620   5.446 -0.2890  0.1678 -0.5441
  639SOL    HW1 3517   3.094   4.628   5.411  0.0239  1.2467 -1.1645
  639SOL    HW2 3518   3.184   4.597   5.544 -1.2090  0.3576 -0.5193
  640SOL     OW 3519   5.358   3.099   5.922  0.0653 -0.3536 -0.5493
  640SOL    HW1 3520   5.403   3.142   6.000 -1.4848 -0.9206  0.7170
  640SOL    HW2 3521   5.427   3.071   5.855  1.5614 -1.0097  1.1863
  641SOL     OW 3522   0.514   5.607   6.976  0.2130  0.3565  0.3670
  641SOL    HW1 3523   0.510   5.681   6.909 -0.9402 -1.1361 -1.2887
  641SOL    HW2 3524   0.436   5.614   7.039 -0.3877  0.0793 -0.3317
  642SOL     OW 3525   1.559   3.231   6.764 -0.1349  0.2369 -0.4328
  642SOL    HW1 3526   1.465   3.264   6.755  0.3807  1.9655  0.0539
  642SOL    HW2 3527   1.617   3.277   6.697  0.8622  1.4409  1.1695
  643SOL     OW 3528   3.070   3.230   0.497 -0.0791  0.2361  0.0921
  643SOL    HW1 3529   3.127   3.311   0.488 -0.2249  0.3000 -0.2898
  643SOL    HW2 3530   3.096   3.180   0.579 -0.5386  1.1121  0.8009
  644SOL     OW 3531   2.199   4.943   3.467  0.1358 -0.1282 -0.5005
  644SOL    HW1 3532   2.254   4.982   3.541 -1.8939  0.2638  0.8621
  644SOL    HW2 3533   2.120   5.001   3.449 -0.1476 -0.9463 -2.0557
  645SOL     OW 3534   6.359   5.731   3.008  0.2057 -0.0492 -0.3206
  645SOL    HW1 3535   6.433   5.752   2.945  1.4196 -0.0409  1.0499
  645SOL    HW2 3536   6.273   5.724   2.958  0.9143  1.1905 -1.7818
  646SOL     OW 3537   4.946   0.904   3.283  0.2402  0.3886 -0.0074
  646SOL    HW1 3538   5.030   0.923   3.231  0.7905 -0.9758  0.3516
  646SOL    HW2 3539   4.954   0.945   3.374  0.0384  1.2175 -0.3543
  647SOL     OW 3540   6.003   4.130   3.055  0.0279  0.0904  0.6149
  647SOL    HW1 3541   5.986   4.175   2.967  0.9198  0.3766  0.5715
  647SOL    HW2 3542   6.004   4.200   3.127 -1.0869 -0.1908  0.9185
  648SOL     OW 3543   3.714   6.380   6.034  0.1333 -0.4259  0.2845
  648SOL    HW1 3544   3.799   6.410   6.077 -0.3454 -0.5698  1.3616
  648SOL    HW2 3545   3.653   6.458   6.023  0.0501 -0.4811  0.3537
  649SOL     OW 3546   4.231   4.911   6.263  0.6482 -0.0059 -0.2880
  649SOL    HW1 3547   4.272   5.000   6.243 -1.0165  0.8505 -0.1032
  649SOL    HW2 3548   4.184   4.877   6.181 -1.8456  1.0961  0.5709
  650SOL     OW 3549   6.023   6.770   2.791  0.3839  0.1218 -0.2891
  650SOL    HW1 3550   5.927   6.773   2.817  0.5218  2.1212  0.0829
  650SOL    HW2 3551   6.032   6.781   2.692  0.2258 -0.5423 -0.3834
  651SOL     OW 3552   5.323   2.183   1.778  0.2764  0.4479  0.1615
  651SOL    HW1 3553   5.300   2.088   1.757  0.4977  0.5595 -0.6033
  651SOL    HW2 3554   5.320   2.196   1.877  0.2174 -0.3468  0.2741
  652SOL     OW 3555   5.510   6.456   6.834  0.4039 -0.5467  0.2716
  652SOL    HW1 3556   5.540   6.519   6.906  0.5444 -2.0519  1.5851
  652SOL    HW2 3557   5.449   6.504   6.771  0.9803  1.0407  0.8672
  653SOL     OW 3558   0.554   6.424   1.930  0.3957 -0.7154 -0.1678
  653SOL    HW1 3559   0.651   6.424   1.904  0.1513  1.0992 -1.2658
  653SOL    HW2 3560   0.518   6.517   1.924 -1.2730 -1.2494  0.8630
  654SOL     OW 3561   1.874   7.000   1.232  0.7798  0.2214  0.1462
  654SOL    HW1 3562   1.940   6.929   1.256  0.8916  0.7567  1.5165
  654SOL    HW2 3563   1.785   6.979   1.272  0.8347  0.8800  0.6291
  655SOL     OW 3564   0.971   3.436   1.345 -0.7542 -0.1361  0.7968
  655SOL    HW1 3565   1.039   3.413   1.275  1.2643  1.9737  1.9050
  655SOL    HW2 3566   0.902   3.365   1.349  0.8619 -1.9517 -1.0628
  656SOL     OW 3567   5.396   1.544   4.602 -0.3558  0.0771  0.0248
  656SOL    HW1 3568   5.390   1.473   4.672 -3.6467 -0.2925 -0.4983
  656SOL    HW2 3569   5.337   1.621   4.626  0.7901  1.3075 -0.9131
  657SOL     OW 3570   3.873   0.633   3.330 -0.6206 -0.3370  0.0072
  657SOL    HW1 3571   3.787   0.607   3.374 -0.9766  0.5071 -0.1581
  657SOL    HW2 3572   3.908   0.556   3.277 -0.9816 -0.8690  0.5311
  658SOL     OW 3573   5.294   6.976   2.805  0.3886 -0.0878  0.0383
  658SOL    HW1 3574   5.358   6.940   2.737 -1.8899  0.1295 -2.3584
  658SOL    HW2 3575   5.236   6.902   2.840  0.7458  0.0145  0.8833
  659SOL     OW 3576   2.976   6.715   1.387 -0.2376  0.1293 -0.0001
  659SOL    HW1 3577   2.915   6.784   1.426 -0.0508 -0.9374  2.3467
  659SOL    HW2 3578   2.928   6.664   1.316 -2.2905 -0.8950  1.9948
  660SOL     OW 3579   2.415   2.817   1.242  0.3115  0.2656  0.0564
  660SOL    HW1 3580   2.346   2.887   1.228 -1.0104 -0.9009  0.4972
  660SOL    HW2 3581   2.489   2.829   1.176 -0.8346  0.8801 -1.1573
  661SOL     OW 3582   6.782   2.745   0.613 -0.4157 -0.0124  0.7050
  661SOL    HW1 3583   6.776   2.718   0.517 -0.8315  1.2419  0.3558
  661SOL    HW2 3584   6.801   2.665   0.669 -1.6899 -1.0453 -0.2581
  662SOL     OW 3585   2.699   3.658   5.474 -0.4176  0.4778 -0.5328
  662SOL    HW1 3586   2.727   3.646   5.378  2.0580  0.7668  0.0809
  662SOL    HW2 3587   2.710   3.573   5.524  1.7670  1.1618  0.2494
  663SOL     OW 3588   5.307   4.387   2.215  0.2626 -0.1909 -0.1542
  663SOL    HW1 3589   5.372   4.320   2.178 -0.4565 -2.4457  2.3133
  663SOL    HW2 3590   5.215   4.368   2.179  0.0293 -0.6651  0.6693
  664SOL     OW 3591   0.133   0.189   6.473  0.3060  0.1432  0.2035
  664SOL    HW1 3592   0.068   0.210   6.400 -0.8570  0.2710  1.2515
  664SOL    HW2 3593   0.112   0.100   6.513  0.0994  0.6514  1.2609
  665SOL     OW 3594   3.405   5.382   4.047  0.3027  0.3326 -0.1823
  665SOL    HW1 3595   3.409   5.282   4.043  1.0665  0.2781  1.2003
  665SOL    HW2 3596   3.497   5.419   4.046  0.1317  0.8812  1.5322
  666SOL     OW 3597   6.184   1.226   3.463 -0.4457  0.2971 -0.5535
  666SOL    HW1 3598   6.094   1.189   3.488 -1.9712  3.0742 -1.5152
  666SOL    HW2 3599   6.194   1.318   3.501  0.8426  1.1069 -2.6865
  667SOL     OW 3600   1.096   5.929   6.887  0.3720  0.0903  0.4815
  667SOL    HW1 3601   0.998   5.925   6.867  0.3781  1.0782  0.2029
  667SOL    HW2 3602   1.134   5.836   6.883  0.2878  0.0258 -3.8028
  668SOL     OW 3603   0.763   0.788   4.333 -0.3061  0.1708 -0.5379
  668SOL    HW1 3604   0.730   0.880   4.358 -1.1599 -0.2962  0.1187
  668SOL    HW2 3605   0.696   0.720   4.362  1.8143 -0.9617  2.0691
  669SOL     OW 3606   3.040   6.576   1.924 -0.4727 -0.3220  0.5338
  669SOL    HW1 3607   3.105   6.611   1.992 -0.1488 -1.8857  1.0753
  669SOL    HW2 3608   3.064   6.610   1.833 -0.2679  0.9283  1.0420
  670SOL     OW 3609   1.800   1.445   1.194  0.4248 -0.2736 -1.0034
  670SOL    HW1 3610   1.791   1.536   1.235  0.1176 -0.4609 -0.6494
  670SOL    HW2 3611   1.894   1.433   1.161  0.8715 -0.3618  0.2401
  671SOL     OW 3612   4.190   1.079   2.957 -0.7535 -0.3922 -0.3553
  671SOL    HW1 3613   4.289   1.065   2.967 -1.0300 -2.4385  0.1501
  671SOL    HW2 3614   4.164   1.067   2.861 -0.1744  3.2409 -1.0879
  672SOL     OW 3615   0.078   2.223   5.992 -0.2790  0.1704 -0.0152
  672SOL    HW1 3616   0.020   2.257   5.918 -0.5330 -1.7803 -0.7771
  672SOL    HW2 3617   0.065   2.279   6.074 -0.9139  1.6238 -1.0699
  673SOL     OW 3618   5.595   4.582   1.000  0.6046  0.2430 -0.1367
  673SOL    HW1 3619   5.575   4.650   0.929 -0.9603  0.5646  0.5793
  673SOL    HW2 3620   5.627   4.498   0.957 -0.1418  0.4905 -1.2205
  674SOL     OW 3621   6.067   5.969   5.920  0.6814  0.0507 -0.2181
  674SOL    HW1 3622   5.979   5.942   5.958  0.1397 -1.3629 -2.3309
  674SOL    HW2 3623   6.111   6.035   5.982 -2.1096  1.3294  0.5747
  675SOL     OW 3624   4.447   0.399   4.089  0.2507  0.1849  0.0616
  675SOL    HW1 3625   4.511   0.445   4.028  1.4494  0.9733  1.8447
  675SOL    HW2 3626   4.438   0.303   4.062  1.7436  0.2022 -0.5863
  676SOL     OW 3627   1.201   6.565   4.623  0.0664 -0.4280  0.5008
  676SOL    HW1 3628   1.171   6.485   4.570  1.7663 -0.2013 -0.8918
  676SOL    HW2 3629   1.260   6.535   4.698 -0.1023 -0.5529  0.5842
  677SOL     OW 3630   3.741   0.683   2.294 -0.1207  0.1980 -0.4996
  677SOL    HW1 3631   3.744   0.586   2.316  1.5021 -0.2636 -2.3688
  677SOL    HW2 3632   3.648   0.709   2.268 -0.5720 -0.8452  0.0149
  678SOL     OW 3633   6.535   4.638   0.616  0.1427  0.1457 -0.1451
  678SOL    HW1 3634   6.632   4.664   0.610  0.7929 -1.9280  0.6285
  678SOL    HW2 3635   6.497   4.629   0.524  1.2540 -0.9154 -0.5232
  679SOL     OW 3636   4.481   3.309   3.028 -0.1084 -0.0377 -0.4005
  679SOL    HW1 3637   4.385   3.313   2.999 -0.2812  1.2653  0.2896
  679SOL    HW2 3638   4.488   3.334   3.124  0.9701  0.2602 -0.5381
  680SOL     OW 3639   3.240   1.096   1.642  0.2433  0.3909  1.0740
  680SOL    HW1 3640   3.146   1.128   1.631 -0.0833 -0.1781  2.0527
  680SOL    HW2 3641   3.259   1.083   1.739  1.5913  1.2326  0.9407
  681SOL     OW 3642   2.813   3.351   0.245  0.1804 -0.7918 -0.0687
  681SOL    HW1 3643   2.759   3.379   0.166  0.3609 -2.0431 -0.6636
  681SOL    HW2 3644   2.902   3.397   0.243 -0.3336  0.2484  0.1899
  682SOL     OW 3645   5.801   0.684   1.220  0.0261  0.3640 -0.0390
  682SOL    HW1 3646   5.704   0.705   1.211  0.5180  2.4913 -0.9786
  682SOL    HW2 3647   5.855   0.765   1.196  2.0254 -0.4748  1.3521
  683SOL     OW 3648   6.521   3.229   3.490 -0.3127 -0.7201  0.1153
  683SOL    HW1 3649   6.489   3.231   3.584  0.6395 -0.1797  0.4365
  683SOL    HW2 3650   6.588   3.302   3.475  1.0589 -2.0391 -0.4289
  684SOL     OW 3651   4.322   5.326   2.143  0.0522  0.0097 -0.2145
  684SOL    HW1 3652   4.402   5.356   2.092  0.6616 -0.3540  0.5080
  684SOL    HW2 3653   4.336   5.232   2.177  1.6027  1.5928  4.3238
  685SOL     OW 3654   5.742   2.717   3.663  0.3518  0.3078  0.2406
  685SOL    HW1 3655   5.815   2.776   3.697  1.2036  0.1647 -1.2484
  685SOL    HW2 3656   5.653   2.753   3.692  0.9238  1.4824  0.5971
  686SOL     OW 3657   2.685   0.577   4.673 -0.1965 -0.3021 -0.2092
  686SOL    HW1 3658   2.756   0.582   4.743 -1.1564 -0.7625  0.8334
  686SOL    HW2 3659   2.679   0.664   4.625  0.4418  0.0399  0.3195
  687SOL     OW 3660   4.304   2.369   5.475 -0.1962  0.4562  0.1440
  687SOL    HW1 3661   4.320   2.464   5.504  2.7639  0.0134  0.2976
  687SOL    HW2 3662   4.346   2.307   5.541 -0.0883 -0.8638 -1.1237
  688SOL     OW 3663   3.592   1.760   0.050 -0.0311  0.6859  0.4668
  688SOL    HW1 3664   3.505   1.718   0.077 -0.7368  2.2314  0.7552
  688SOL    HW2 3665   3.587   1.790  -0.045  2.0576 -3.7390 -1.3060
  689SOL     OW 3666   1.725   4.129   2.345  0.0931  0.5572  0.4021
  689SOL    HW1 3667   1.680   4.107   2.431 -0.8438  2.1974  0.3580
  689SOL    HW2 3668   1.765   4.045   2.306 -0.5173 -0.4189  1.8072
  690SOL     OW 3669   0.846   0.029   0.780  0.0099  0.2070 -0.3495
  690SOL    HW1 3670   0.811  -0.064   0.796 -0.3352  0.2711 -0.7218
  690SOL    HW2 3671   0.924   0.046   0.841  0.6278 -0.6413 -0.8716
  691SOL     OW 3672   1.673   1.302   4.616 -0.1097  0.3634 -0.0195
  691SOL    HW1 3673   1.603   1.301   4.544 -0.0920  4.2565 -0.2861
  691SOL    HW2 3674   1.633   1.335   4.701  0.6761 -0.7321  0.7933
  692SOL     OW 3675   5.198   0.080   1.050 -0.6589 -0.1339 -0.4402
  692SOL    HW1 3676   5.227   0.175   1.064  0.6142 -0.1385 -2.5534
  692SOL    HW2 3677   5.265   0.033   0.992 -2.4133 -1.6465 -1.3601
  693SOL     OW 3678   3.198   1.383   2.967  0.1153 -0.4435  0.0175
  693SOL    HW1 3679   3.292   1.359   2.942  0.4036  0.2674  0.3956
  693SOL    HW2 3680   3.198   1.467   3.020 -0.8517  0.3187 -1.1420
  694SOL     OW 3681   2.790   6.567   0.776  0.2416 -0.1699 -0.3413
  694SOL    HW1 3682   2.746   6.512   0.847 -0.1796 -0.8322 -1.0935
  694SOL    HW2 3683   2.737   6.651   0.762  0.4666  0.0813  0.2952
  695SOL     OW 3684   0.225   6.676   6.282  0.3113 -0.0453  0.0109
  695SOL    HW1 3685   0.158   6.647   6.213  0.6103 -0.6581 -0.0238
  695SOL    HW2 3686   0.304   6.616   6.278  1.2243  1.1479 -0.4913
  696SOL     OW 3687   2.807   1.353   3.383  0.0156 -0.3965 -0.4505
  696SOL    HW1 3688   2.818   1.436   3.438  0.2812 -0.2465 -0.7331
  696SOL    HW2 3689   2.763   1.282   3.439 -1.6262  0.4136 -0.6413
  697SOL     OW 3690   0.116   4.109   6.108  0.1615  0.2122 -0.4978
  697SOL    HW1 3691   0.050   4.051   6.059 -2.2688  0.6486  2.0417
  697SOL    HW2 3692   0.092   4.205   6.094  0.0415  0.3644  0.6793
  698SOL     OW 3693   3.039   5.275   0.733 -0.0017  0.0221  0.1033
  698SOL    HW1 3694   2.986   5.225   0.664  1.8620 -1.8030 -0.0784
  698SOL    HW2 3695   3.107   5.215   0.774  1.2346  1.9867  1.1091
  699SOL     OW 3696   5.139   3.226   3.275  0.0809 -0.2815  0.2843
  699SOL    HW1 3697   5.094   3.288   3.211  1.8416  1.5197  0.6909
  699SOL    HW2 3698   5.109   3.132   3.257 -3.2909  0.7021  0.1657
  700SOL     OW 3699   6.288   4.970   2.947 -0.3611 -0.0714 -0.6471
  700SOL    HW1 3700   6.214   5.028   2.914 -0.2729  0.4177  0.0066
  700SOL    HW2 3701   6.366   4.975   2.884 -0.8812 -0.6124 -1.3533
  701SOL     OW 3702   1.012   5.952   2.570 -0.0039 -0.6512 -0.3069
  701SOL    HW1 3703   0.985   6.022   2.503  0.1439 -0.6932 -0.4110
  701SOL    HW2 3704   1.101   5.914   2.544  0.1745 -0.4871  0.0543
  702SOL     OW 3705   1.302   4.222   2.374  0.0341  0.5743  0.1918
  702SOL    HW1 3706   1.370   4.296   2.373  0.2354  0.3822 -0.7787
  702SOL    HW2 3707   1.242   4.234   2.454  1.9498  0.0611  1.8021
  703SOL     OW 3708   2.925   5.954   5.826  0.4378 -0.0118  0.0032
  703SOL    HW1 3709   3.018   5.936   5.857  1.3153  1.5293 -1.5314
  703SOL    HW2 3710   2.924   5.955   5.726 -0.6959  2.3553 -0.0205
  704SOL     OW 3711   0.110   4.158   0.583  0.3029 -0.3163  0.1873
  704SOL    HW1 3712   0.159   4.074   0.607  0.7667 -0.2497 -0.5242
  704SOL    HW2 3713   0.037   4.136   0.518  0.9557 -0.0552 -0.6524
  705SOL     OW 3714   2.005   3.538   5.220  0.6370  0.4883 -0.1064
  705SOL    HW1 3715   2.017   3.634   5.194  0.1422  0.4684 -0.4113
  705SOL    HW2 3716   1.908   3.517   5.228  0.7573  0.3719  1.3156
  706SOL     OW 3717   6.270   3.086   6.883  0.2052  0.0963 -0.1271
  706SOL    HW1 3718   6.272   3.101   6.784  0.3292 -1.7728 -0.4362
  706SOL    HW2 3719   6.363   3.073   6.917  0.1740  0.8388  0.2772
  707SOL     OW 3720   5.870   5.049   5.612 -0.6970 -0.1477 -0.1176
  707SOL    HW1 3721   5.878   5.149   5.604 -1.0760 -0.1696 -0.8710
  707SOL    HW2 3722   5.937   5.006   5.553 -1.2946 -0.3307 -0.6778
  708SOL     OW 3723   6.152   6.150   0.760 -0.0379  0.0435  0.6149
  708SOL    HW1 3724   6.076   6.179   0.817 -1.4112 -1.4717 -0.3730
  708SOL    HW2 3725   6.221   6.223   0.758 -2.0978  2.1078  0.3479
  709SOL     OW 3726   6.891   5.348   5.178  0.3594 -0.3538  0.3915
  709SOL    HW1 3727   6.908   5.436   5.222 -2.2237  0.5641 -0.2971
  709SOL    HW2 3728   6.887   5.360   5.079 -2.7819 -0.5968  0.3854
  710SOL     OW 3729   6.738   5.464   6.305  0.4282  0.0362 -0.2830
  710SOL    HW1 3730   6.801   5.537   6.275  0.1226 -0.2252 -1.6506
  710SOL    HW2 3731   6.667   5.452   6.236  0.2819 -1.3327  0.0846
  711SOL     OW 3732   2.625   6.737   5.436 -0.2774 -0.0229  0.4467
  711SOL    HW1 3733   2.601   6.743   5.339  1.9622  2.5041 -0.0527
  711SOL    HW2 3734   2.714   6.694   5.445  0.2144  1.1178  1.2232
  712SOL     OW 3735   1.340   6.327   5.045 -1.0124  0.1007  0.2143
  712SOL    HW1 3736   1.366   6.235   5.017 -1.6698  0.4858 -1.7931
  712SOL    HW2 3737   1.364   6.341   5.141  1.3501 -1.2953 -0.1133
  713SOL     OW 3738   5.211   0.187   3.749 -0.0626  0.7720 -0.1756
  713SOL    HW1 3739   5.275   0.236   3.691  0.6785 -0.7111 -0.6596
  713SOL    HW2 3740   5.169   0.112   3.698  0.8336 -0.7669  1.2133
  714SOL     OW 3741   4.590   6.185   1.323  0.5258 -0.1161 -0.8706
  714SOL    HW1 3742   4.648   6.117   1.279  1.9324  0.3437  0.2033
  714SOL    HW2 3743   4.537   6.142   1.395  1.5672 -0.0705 -0.0525
  715SOL     OW 3744   1.652   6.329   5.228  0.4749 -0.2602 -1.2652
  715SOL    HW1 3745   1.702   6.342   5.314 -0.5544 -1.7066 -0.3925
  715SOL    HW2 3746   1.616   6.417   5.197 -0.9997  0.0512  1.0182
  716SOL     OW 3747   2.379   1.495   5.820  0.3411  0.2904  0.5353
  716SOL    HW1 3748   2.420   1.475   5.731  1.0836 -0.6762  1.0750
  716SOL    HW2 3749   2.412   1.583   5.854  2.6372 -0.7712  1.2838
  717SOL     OW 3750   4.817   6.510   4.527  0.8070  0.0087  0.5818
  717SOL    HW1 3751   4.783   6.428   4.483 -0.3478  0.7070  0.1106
  717SOL    HW2 3752   4.880   6.558   4.466 -1.4909  1.4599 -0.8218
  718SOL     OW 3753   0.325   4.343   3.166 -0.2414  0.2785  0.0258
  718SOL    HW1 3754   0.400   4.343   3.232 -0.3830 -0.1579  0.1889
  718SOL    HW2 3755   0.358   4.374   3.077 -0.3197  2.1721  0.6043
  719SOL     OW 3756   1.515   5.269   0.171 -0.2233  0.2654 -0.1573
  719SOL    HW1 3757   1.590   5.249   0.109  1.2116  2.0797  0.9024
  719SOL    HW2 3758   1.483   5.184   0.213 -0.0510 -0.7619 -2.0125
  720SOL     OW 3759   0.359   4.258   3.929 -0.3930  0.2858  0.3293
  720SOL    HW1 3760   0.367   4.167   3.887  0.0292  0.9762 -1.1669
  720SOL    HW2 3761   0.273   4.264   3.980 -0.0788 -1.1827  1.0898
  721SOL     OW 3762   3.431   1.169   3.330 -0.2854 -0.2312 -0.6197
  721SOL    HW1 3763   3.451   1.264   3.352  0.2936 -0.8617  1.8222
  721SOL    HW2 3764   3.389   1.164   3.239 -0.1998  2.3125 -0.8588
  722SOL     OW 3765   0.281   6.930   2.293  0.0473  0.4166 -0.4910
  722SOL    HW1 3766   0.205   6.875   2.258  0.8167 -2.0274  1.3325
  722SOL    HW2 3767   0.258   6.964   2.384  0.8242  0.2712 -0.2295
  723SOL     OW 3768   2.218   3.258   0.401 -0.2953  0.0198  0.1073
  723SOL    HW1 3769   2.236   3.190   0.472 -0.5161  0.9971  1.1172
  723SOL    HW2 3770   2.301   3.311   0.384 -0.2933 -0.0918 -0.2401
  724SOL     OW 3771   1.923   0.258   1.137 -0.3146  0.2393 -0.0457
  724SOL    HW1 3772   1.904   0.168   1.177  0.0173  0.0733 -0.2573
  724SOL    HW2 3773   1.913   0.253   1.038  0.4937  0.2384 -0.1268
  725SOL     OW 3774   2.282   4.333   5.414 -0.9063 -0.3707 -0.1275
  725SOL    HW1 3775   2.247   4.350   5.322  1.8521 -1.8655 -1.5819
  725SOL    HW2 3776   2.322   4.417   5.450 -1.2940  0.0353 -0.6226
  726SOL     OW 3777   6.304   1.293   1.724 -0.3197 -0.0340  0.3291
  726SOL    HW1 3778   6.270   1.339   1.806  1.1160 -0.3738  1.1604
  726SOL    HW2 3779   6.303   1.194   1.739  0.1356 -0.0873  0.0154
  727SOL     OW 3780   0.650   1.069   6.397 -0.3676  0.4451 -0.0313
  727SOL    HW1 3781   0.724   1.003   6.413 -1.0228 -0.4065 -0.4514
  727SOL    HW2 3782   0.689   1.157   6.370  0.5156  0.2046  0.4369
  728SOL     OW 3783   1.367   6.781   3.229  0.1759 -0.6704  0.3127
  728SOL    HW1 3784   1.456   6.741   3.249  1.0859  1.1429  0.1274
  728SOL    HW2 3785   1.374   6.881   3.232 -1.6426 -0.4692 -0.6564
  729SOL     OW 3786   3.434   3.404   6.507  0.3068 -0.0358  0.3465
  729SOL    HW1 3787   3.423   3.340   6.432 -0.1575 -0.2038  0.5505
  729SOL    HW2 3788   3.515   3.381   6.560  0.1701 -0.4213  0.3875
  730SOL     OW 3789   4.407   2.499   6.810  0.1821  0.5481  0.4090
  730SOL    HW1 3790   4.349   2.424   6.839 -1.6564  1.0903 -1.6139
  730SOL    HW2 3791   4.396   2.514   6.712  2.5494  1.7406  0.2464
  731SOL     OW 3792   4.185   0.343   4.165  0.2136 -0.3102  0.1644
  731SOL    HW1 3793   4.279   0.350   4.133 -0.2071  0.2845 -0.9956
  731SOL    HW2 3794   4.140   0.432   4.158 -1.0474 -1.0220 -1.3157
  732SOL     OW 3795   0.570   4.259   4.128 -0.3849 -0.0482  0.1888
  732SOL    HW1 3796   0.504   4.235   4.057  0.5421 -2.0602 -0.0466
  732SOL    HW2 3797   0.534   4.335   4.182 -1.7572  0.5588 -1.4889
  733SOL     OW 3798   2.637   0.670   1.743 -0.4353 -0.6450 -0.4120
  733SOL    HW1 3799   2.560   0.629   1.791 -2.5355  1.1733 -2.0054
  733SOL    HW2 3800   2.679   0.602   1.682 -0.7957 -1.6516  0.4384
  734SOL     OW 3801   2.619   3.400   6.741  0.3024 -0.0537  0.6178
  734SOL    HW1 3802   2.685   3.467   6.708  0.3404 -0.3210  0.1546
  734SOL    HW2 3803   2.637   3.381   6.838  1.8313 -1.2261  0.1226
  735SOL     OW 3804   5.871   5.010   1.464  0.0963 -0.1579  0.0071
  735SOL    HW1 3805   5.882   5.060   1.378  1.0422  0.0063  0.2137
  735SOL    HW2 3806   5.815   5.065   1.527 -2.4332 -1.1832 -1.2038
  736SOL     OW 3807   1.040   6.511   2.922 -0.2777 -0.0894 -0.6629
  736SOL    HW1 3808   0.954   6.461   2.939 -2.1421  2.9308 -0.4202
  736SOL    HW2 3809   1.045   6.536   2.826 -0.7893  1.5088 -0.3109
  737SOL     OW 3810   6.129   2.986   1.289 -0.2960 -0.4770  0.5559
  737SOL    HW1 3811   6.107   3.078   1.257  1.1536 -0.3416 -0.1519
  737SOL    HW2 3812   6.061   2.921   1.255 -0.4155  0.1051 -0.3561
  738SOL     OW 3813   0.857   5.761   6.812 -0.4295 -0.8846  0.0457
  738SOL    HW1 3814   0.762   5.770   6.839 -0.2712 -3.1318  1.6253
  738SOL    HW2 3815   0.863   5.751   6.712 -1.6901  0.5711 -0.2042
  739SOL     OW 3816   5.236   2.228   2.800 -0.1126  0.5416 -0.3946
  739SOL    HW1 3817   5.175   2.155   2.772  0.2281  0.3518 -0.6462
  739SOL    HW2 3818   5.231   2.303   2.734 -0.8325  0.9643  0.1233
  740SOL     OW 3819   6.903   6.339   2.941 -0.2266 -0.1760 -0.3590
  740SOL    HW1 3820   6.991   6.341   2.988  0.8909  0.8387 -2.3664
  740SOL    HW2 3821   6.905   6.271   2.868 -0.4520  1.0064 -1.5144
  741SOL     OW 3822   4.687   5.352   4.736  0.2966  0.4711  0.0497
  741SOL    HW1 3823   4.735   5.311   4.658  1.1599  0.0460  0.7912
  741SOL    HW2 3824   4.678   5.450   4.722  0.4722  0.4037 -0.5623
  742SOL     OW 3825   0.576   5.620   1.652  0.5949 -0.1044  0.2786
  742SOL    HW1 3826   0.477   5.624   1.663  0.6152  3.3840  0.1723
  742SOL    HW2 3827   0.620   5.631   1.741  0.8350  1.4075 -0.0049
  743SOL     OW 3828   2.546   1.445   5.603  0.2054 -0.0241  0.1471
  743SOL    HW1 3829   2.604   1.526   5.608 -2.1674  1.7020  1.6168
  743SOL    HW2 3830   2.595   1.367   5.643  2.1424  0.8725 -0.3217
  744SOL     OW 3831   5.547   1.950   0.770  0.1187 -0.0696  0.1883
  744SOL    HW1 3832   5.618   1.971   0.703  0.2424 -0.0803  0.3148
  744SOL    HW2 3833   5.475   2.019   0.765 -0.3081 -0.5587 -0.5631
  745SOL     OW 3834   2.257   3.248   3.984 -0.0191 -0.1088  0.1333
  745SOL    HW1 3835   2.329   3.247   4.053 -1.3414 -2.1479  1.6198
  745SOL    HW2 3836   2.251   3.338   3.942  0.1988  1.5788  3.4316
  746SOL     OW 3837   0.882   4.977   2.728 -0.1630 -0.0347 -0.5787
  746SOL    HW1 3838   0.892   4.897   2.788  0.1276 -0.4733 -1.1914
  746SOL    HW2 3839   0.914   5.058   2.776  0.7332 -0.4886 -0.3657
  747SOL     OW 3840   3.948   4.753   5.487 -0.2772 -0.0852 -0.0545
  747SOL    HW1 3841   3.923   4.818   5.416 -1.3241 -0.1010  0.2872
  747SOL    HW2 3842   3.911   4.662   5.464  2.0228 -0.8549 -1.0485
  748SOL     OW 3843   4.681   5.381   0.086 -0.6642  0.7816 -0.3358
  748SOL    HW1 3844   4.635   5.345   0.005  0.0754  1.0740 -0.8993
  748SOL    HW2 3845   4.717   5.305   0.141 -0.7716  0.5961 -0.5203
  749SOL     OW 3846   0.355   5.525   0.382  0.1365 -0.4500 -0.2979
  749SOL    HW1 3847   0.408   5.440   0.378 -0.0358 -0.5180 -1.4259
  749SOL    HW2 3848   0.403   5.591   0.440  0.0139 -1.4793  1.0249
  750SOL     OW 3849   6.242   3.559   6.054 -0.0962 -0.8303  0.1062
  750SOL    HW1 3850   6.231   3.537   5.958 -0.0237 -2.1210  0.3767
  750SOL    HW2 3851   6.214   3.481   6.110 -0.4722  0.0255  1.1450
  751SOL     OW 3852   6.894   1.050   0.568  0.5123 -0.3293 -0.6935
  751SOL    HW1 3853   6.963   1.041   0.640 -0.4400 -1.4603  0.1190
  751SOL    HW2 3854   6.839   1.131   0.584 -0.4848 -1.2246  0.5905
  752SOL     OW 3855   3.379   6.196   5.005 -0.0261  0.2597  0.8771
  752SOL    HW1 3856   3.400   6.119   4.944 -1.9481 -0.8797  1.5651
  752SOL    HW2 3857   3.294   6.240   4.975  0.2372  1.1449  1.4010
  753SOL     OW 3858   4.737   0.446   0.150 -0.3093 -0.3178 -0.2707
  753SOL    HW1 3859   4.822   0.401   0.178  0.3112  1.7345  1.3949
  753SOL    HW2 3860   4.659   0.399   0.193  0.1226 -1.1376 -0.3666
  754SOL     OW 3861   2.559   0.125   3.624  0.0523  0.3938 -0.2624
  754SOL    HW1 3862   2.521   0.215   3.603  0.5453  1.2357  2.1348
  754SOL    HW2 3863   2.656   0.123   3.600 -0.1843  0.0900 -1.2873
  755SOL     OW 3864   5.105   4.470   5.956 -0.4592 -0.2326 -0.3707
  755SOL    HW1 3865   5.142   4.475   5.864 -0.3597  1.6386 -0.2819
  755SOL    HW2 3866   5.178   4.449   6.021 -0.5764 -1.8029 -0.7169
  756SOL     OW 3867   5.805   0.542   2.390  0.2159 -0.1545  0.2198
  756SOL    HW1 3868   5.843   0.620   2.341  0.2752 -0.1244  0.3131
  756SOL    HW2 3869   5.813   0.558   2.489  1.9688 -1.1025  0.2710
  757SOL     OW 3870   1.897   3.030   5.963 -0.6546 -0.0214 -0.1466
  757SOL    HW1 3871   1.810   3.070   5.935 -0.9501 -0.1657  0.5339
  757SOL    HW2 3872   1.883   2.976   6.046 -0.1865 -1.1968 -0.8180
  758SOL     OW 3873   1.077   4.623   2.046 -0.0877  0.2890 -0.4821
  758SOL    HW1 3874   1.025   4.542   2.019  0.6584 -0.0003 -1.0809
  758SOL    HW2 3875   1.017   4.686   2.095 -1.1367  0.2193 -1.6384
  759SOL     OW 3876   0.255   3.225   1.473  0.1438 -0.5329 -0.1392
  759SOL    HW1 3877   0.177   3.175   1.436 -0.8789  0.1615  0.9955
  759SOL    HW2 3878   0.250   3.321   1.445  0.4694 -0.4332  0.1296
  760SOL     OW 3879   2.668   1.839   2.102 -0.5552  0.0250 -0.3017
  760SOL    HW1 3880   2.752   1.807   2.145 -1.2108 -1.6852 -0.2090
  760SOL    HW2 3881   2.669   1.939   2.096  1.0687  0.0842  0.5104
  761SOL     OW 3882   3.704   4.978   6.482  0.5078  0.0994  0.0840
  761SOL    HW1 3883   3.604   4.973   6.480  0.5282 -1.6758  1.4327
  761SOL    HW2 3884   3.735   5.043   6.412 -1.5258 -0.0644 -1.0559
  762SOL     OW 3885   4.863   4.272   5.957  0.1238 -0.3328 -0.8094
  762SOL    HW1 3886   4.894   4.223   6.038 -0.0976 -0.0146 -0.5331
  762SOL    HW2 3887   4.929   4.344   5.934 -0.3555  0.2902 -0.2702
  763SOL     OW 3888   1.866   0.268   5.097  0.3646 -0.3855  0.1701
  763SOL    HW1 3889   1.775   0.289   5.134  0.6302  1.4525 -0.1485
  763SOL    HW2 3890   1.879   0.169   5.097 -0.5430 -0.6036  2.8513
  764SOL     OW 3891   0.411   1.271   5.628 -0.0780 -0.4726 -0.5126
  764SOL    HW1 3892   0.402   1.177   5.594  1.1616 -0.6668 -0.3652
  764SOL    HW2 3893   0.353   1.283   5.708 -1.1457 -0.7545 -1.2263
  765SOL     OW 3894   5.069   6.560   3.258 -0.3786  0.0933 -0.1468
  765SOL    HW1 3895   5.123   6.644   3.248  0.2122 -0.2427  0.1622
  765SOL    HW2 3896   5.086   6.501   3.179  0.0647 -0.2098  0.1714
  766SOL     OW 3897   2.854   0.507   5.638 -0.4233  0.3193 -0.1415
  766SOL    HW1 3898   2.918   0.521   5.562  0.7926 -0.4138  0.6949
  766SOL    HW2 3899   2.851   0.409   5.660 -2.3424  0.2496 -0.5567
  767SOL     OW 3900   1.293   4.324   3.425 -0.3314  0.1746 -0.6756
  767SOL    HW1 3901   1.269   4.227   3.426 -0.8542  0.2811  1.4989
  767SOL    HW2 3902   1.229   4.373   3.365 -0.7429 -0.6510 -0.9241
  768SOL     OW 3903   0.799   6.060   1.817  0.0204  0.1300  0.1533
  768SOL    HW1 3904   0.847   5.979   1.851  2.7944  1.4277 -0.4178
  768SOL    HW2 3905   0.803   6.062   1.717 -0.3480  0.7828  0.1479
  769SOL     OW 3906   1.269   4.951   2.587 -0.0836 -0.0951  0.1458
  769SOL    HW1 3907   1.349   4.977   2.533  1.1865  0.9725  2.4104
  769SOL    HW2 3908   1.266   4.851   2.597  0.3359 -0.2132 -0.8544
  770SOL     OW 3909   1.631   3.775   2.991  0.4251 -0.6951 -0.6158
  770SOL    HW1 3910   1.582   3.688   3.002  0.3584 -0.4961  0.8510
  770SOL    HW2 3911   1.659   3.785   2.896  0.2219 -2.2066 -0.8652
  771SOL     OW 3912   2.126   1.496   0.174  0.3389  0.5867  0.3119
  771SOL    HW1 3913   2.038   1.483   0.218  1.3208 -2.4842  1.6526
  771SOL    HW2 3914   2.113   1.512   0.076 -1.6904  0.7280  0.5780
  772SOL     OW 3915   4.323   4.310   0.401 -0.2220  0.3073 -0.5189
  772SOL    HW1 3916   4.224   4.297   0.410 -0.4276  0.9458 -1.6559
  772SOL    HW2 3917   4.346   4.326   0.305  1.1458 -0.9818 -0.4481
  773SOL     OW 3918   6.761   3.614   3.694 -0.4979  0.3458  0.3074
  773SOL    HW1 3919   6.754   3.697   3.639 -1.0182  0.6395  0.8065
  773SOL    HW2 3920   6.672   3.594   3.735 -0.0296  0.3362  1.3468
  774SOL     OW 3921   2.093   3.231   6.580 -0.1196 -0.1280  0.2585
  774SOL    HW1 3922   2.161   3.219   6.508  0.0065 -1.3032  0.5513
  774SOL    HW2 3923   2.060   3.142   6.610 -0.8112  0.3773  1.0557
  775SOL     OW 3924   2.733   2.508   0.366 -0.6947 -0.1414  0.2208
  775SOL    HW1 3925   2.658   2.442   0.358 -0.5473 -0.4241  1.0269
  775SOL    HW2 3926   2.706   2.583   0.427  0.2475 -1.1409  1.9584
  776SOL     OW 3927   0.452   3.698   1.390 -0.3778 -0.2953  0.2813
  776SOL    HW1 3928   0.366   3.709   1.340  0.1445  0.0102 -0.5537
  776SOL    HW2 3929   0.449   3.612   1.442 -1.6029  0.2206  1.1236
  777SOL     OW 3930   1.997   2.042   3.701  0.3655  0.5402 -0.0960
  777SOL    HW1 3931   2.092   2.056   3.674  0.3399 -0.5644 -0.8010
  777SOL    HW2 3932   1.968   1.950   3.676 -0.6122  0.5364  0.9640
  778SOL     OW 3933   2.165   0.557   1.784  0.0216 -0.0104  0.0272
  778SOL    HW1 3934   2.134   0.495   1.856  1.5193  1.0664  1.7049
  778SOL    HW2 3935   2.125   0.648   1.798  2.3903  0.9433  1.2363
  779SOL     OW 3936   3.761   3.872   5.191 -0.2572 -0.3911  0.5206
  779SOL    HW1 3937   3.697   3.802   5.221 -0.0683 -0.5016  0.6732
  779SOL    HW2 3938   3.854   3.846   5.219 -0.3482  0.5933  1.7973
  780SOL     OW 3939   5.611   6.113   4.532 -0.0495  0.2254 -0.6018
  780SOL    HW1 3940   5.668   6.033   4.513  1.1894  0.9283 -0.0149
  780SOL    HW2 3941   5.555   6.135   4.452 -1.3680 -1.9492 -0.3646
  781SOL     OW 3942   2.150   2.177   1.276 -0.1240 -0.5526 -0.1210
  781SOL    HW1 3943   2.114   2.131   1.357 -1.0586 -0.3381 -0.4085
  781SOL    HW2 3944   2.150   2.276   1.291 -3.3343 -0.2410 -1.5267
  782SOL     OW 3945   2.959   2.462   6.876  0.0881  0.0656 -0.2133
  782SOL    HW1 3946   2.891   2.399   6.911 -0.5628 -0.1896 -1.8356
  782SOL    HW2 3947   3.010   2.419   6.801  1.2928  0.6425  0.2317
  783SOL     OW 3948   5.515   0.214   4.865  0.7992  0.2769 -0.5155
  783SOL    HW1 3949   5.425   0.224   4.907  0.8167 -1.0758 -0.0930
  783SOL    HW2 3950   5.555   0.304   4.850 -0.4093  0.8833 -0.2555
  784SOL     OW 3951   0.566   4.300   5.965 -0.6836 -0.0032 -0.2546
  784SOL    HW1 3952   0.661   4.277   5.943 -0.9880  0.7299 -2.6096
  784SOL    HW2 3953   0.539   4.251   6.048  2.0942  0.7011  1.2213
  785SOL     OW 3954   4.299   1.856   6.309 -0.2597  0.0072 -0.7611
  785SOL    HW1 3955   4.387   1.904   6.310  0.5165 -1.3458 -0.8627
  785SOL    HW2 3956   4.248   1.879   6.226  2.0035 -2.5362 -3.0664
  786SOL     OW 3957   1.123   4.994   5.624 -0.2231  0.2350 -0.1200
  786SOL    HW1 3958   1.183   5.034   5.554  1.1258 -1.2063  0.1402
  786SOL    HW2 3959   1.152   4.900   5.642 -1.4646  0.0998  1.3500
  787SOL     OW 3960   4.139   2.625   6.129  0.1802  0.1513 -0.3885
  787SOL    HW1 3961   4.201   2.638   6.051  1.6297 -1.0012  0.5205
  787SOL    HW2 3962   4.192   2.600   6.210 -1.2868  1.4138  1.0241
  788SOL     OW 3963   2.548   2.014   5.443  0.8058  0.5510  0.2846
  788SOL    HW1 3964   2.604   2.086   5.403  0.2190  1.9938  1.9067
  788SOL    HW2 3965   2.600   1.967   5.515  1.0020 -0.3053 -0.4024
  789SOL     OW 3966   6.166   4.485   0.417  0.4406 -0.3353  0.4915
  789SOL    HW1 3967   6.082   4.431   0.416  0.6444 -0.7004  1.4443
  789SOL    HW2 3968   6.228   4.448   0.487  0.0870  1.8841  2.1019
  790SOL     OW 3969   0.416   6.081   5.573 -0.2599  0.3874  0.2063
  790SOL    HW1 3970   0.326   6.064   5.614 -0.1914  0.8585  0.5524
  790SOL    HW2 3971   0.486   6.078   5.644 -0.0235  0.2390 -0.0306
  791SOL     OW 3972   3.667   4.642   5.703  0.0471  0.3762 -0.3018
  791SOL    HW1 3973   3.713   4.630   5.615  0.3979 -0.0976 -0.0586
  791SOL    HW2 3974   3.732   4.673   5.771 -0.2274  0.7524 -0.2066
  792SOL     OW 3975   3.889   5.201   5.760  0.4945 -0.2715 -0.0143
  792SOL    HW1 3976   3.928   5.292   5.751 -0.6638  0.4988  1.9483
  792SOL    HW2 3977   3.916   5.144   5.683  1.5777  1.6030 -1.0689
  793SOL     OW 3978   2.851   4.736   1.519 -0.5837 -0.2134  0.3054
  793SOL    HW1 3979   2.933   4.769   1.473 -2.4862  2.3268 -1.6346
  793SOL    HW2 3980   2.854   4.760   1.616  0.4082  1.0779 -0.0176
  794SOL     OW 3981   0.658   3.941   2.219  0.8623  0.4948 -0.0487
  794SOL    HW1 3982   0.712   3.870   2.173  0.8516  0.6976 -0.3785
  794SOL    HW2 3983   0.700   3.963   2.307  0.0074 -1.0423  0.7918
  795SOL     OW 3984   2.865   4.836   4.976  0.2419  0.5312  0.9438
  795SOL    HW1 3985   2.938   4.901   4.954  2.6973 -2.1899  0.3542
  795SOL    HW2 3986   2.867   4.817   5.075  0.6663  0.1209  0.8595
  796SOL     OW 3987   6.275   2.725   2.555  0.2448 -0.2044  0.1094
  796SOL    HW1 3988   6.340   2.718   2.630  0.7903  0.3201 -0.3036
  796SOL    HW2 3989   6.234   2.635   2.538 -0.5462 -0.1428  1.5946
  797SOL     OW 3990   2.208   2.134   0.677  0.1249 -0.0156 -0.1546
  797SOL    HW1 3991   2.276   2.194   0.634 -2.4968  1.8962 -1.8925
  797SOL    HW2 3992   2.119   2.177   0.675 -1.1398 -2.1720  2.6102
  798SOL     OW 3993   0.996   4.027   5.692  0.3641 -0.6212 -0.2129
  798SOL    HW1 3994   0.900   4.000   5.688  0.7044 -2.1017  0.9175
  798SOL    HW2 3995   1.003   4.116   5.737 -0.3979 -1.0884  0.8694
  799SOL     OW 3996   5.652   0.624   0.584 -0.0991 -0.2052 -0.3171
  799SOL    HW1 3997   5.574   0.676   0.551 -0.0351  0.0189 -0.1163
  799SOL    HW2 3998   5.652   0.623   0.684  0.7175  0.6585 -0.2925
  800SOL     OW 3999   3.480   4.213   6.465 -0.5622 -0.2317 -0.6493
  800SOL    HW1 4000   3.492   4.309   6.439 -0.5419  0.6513  2.2158
  800SOL    HW2 4001   3.570   4.173   6.485 -0.6762 -0.4278 -0.5308
  801SOL     OW 4002   1.862   3.524   2.843  0.3243 -0.1032  0.4699
  801SOL    HW1 4003   1.954   3.559   2.826  0.1471 -0.3654 -1.2477
  801SOL    HW2 4004   1.838   3.538   2.939  1.7068  1.0012  0.6902
  802SOL     OW 4005   4.062   5.828   0.246 -0.0188 -0.9842  0.0908
  802SOL    HW1 4006   4.044   5.916   0.290 -0.4006 -1.6878  1.4013
  802SOL    HW2 4007   4.045   5.835   0.148 -0.3102  0.3262  0.2241
  803SOL     OW 4008   0.060   4.648   1.745  0.0331  0.4650 -0.6296
  803SOL    HW1 4009  -0.011   4.577   1.745  0.2405  0.1442  2.0635
  803SOL    HW2 4010   0.147   4.609   1.774  1.3080  0.9669 -3.4240
  804SOL     OW 4011   4.705   3.146   1.231 -0.5860  0.0051  0.0391
  804SOL    HW1 4012   4.749   3.120   1.145  1.3502 -2.5287  1.6326
  804SOL    HW2 4013   4.631   3.082   1.251 -1.9418  1.4013 -0.3232
  805SOL     OW 4014   5.972   1.806   5.145 -0.0896 -0.3016  0.8853
  805SOL    HW1 4015   5.990   1.832   5.239  1.6308  1.1522  0.1998
  805SOL    HW2 4016   6.047   1.836   5.086 -0.7497 -1.8379 -0.8551
  806SOL     OW 4017   0.342   1.103   1.552  0.2802 -0.0048 -0.4654
  806SOL    HW1 4018   0.269   1.165   1.524  2.2747  1.9250 -1.6125
  806SOL    HW2 4019   0.354   1.031   1.483  0.4651  0.5663 -1.0297
  807SOL     OW 4020   5.359   3.532   0.163  0.4587  0.2546 -0.1359
  807SOL    HW1 4021   5.299   3.561   0.238  2.8333 -0.2856  2.0894
  807SOL    HW2 4022   5.389   3.613   0.112  1.3916  1.0614  1.5984
  808SOL     OW 4023   2.071   1.442   0.546 -0.8206 -0.5210 -0.0553
  808SOL    HW1 4024   2.059   1.350   0.509 -0.7744 -0.0758 -1.2273
  808SOL    HW2 4025   2.165   1.472   0.534 -0.8668 -0.2678  0.1921
  809SOL     OW 4026   6.663   1.293   6.558  0.3742 -0.8722 -0.7763
  809SOL    HW1 4027   6.588   1.251   6.608 -0.1294 -0.6506 -1.3292
  809SOL    HW2 4028   6.676   1.245   6.471 -1.8333  1.5111 -2.5850
  810SOL     OW 4029   1.555   5.114   4.281 -0.4007 -0.2873  0.2201
  810SOL    HW1 4030   1.552   5.184   4.209 -0.9157 -0.7367 -0.1996
  810SOL    HW2 4031   1.557   5.023   4.239  0.0362 -0.5383  0.7672
  811SOL     OW 4032   5.432   5.250   5.405 -0.1205 -0.2876  0.2641
  811SOL    HW1 4033   5.468   5.157   5.414 -0.1597 -0.2599  0.7217
  811SOL    HW2 4034   5.381   5.274   5.488 -1.4292 -0.4308 -0.4650
  812SOL     OW 4035   4.840   6.763   5.625  0.2745  0.3134  0.3284
  812SOL    HW1 4036   4.857   6.685   5.685  0.2846  1.4388  1.8475
  812SOL    HW2 4037   4.757   6.746   5.571 -1.6001  0.4832  2.9355
  813SOL     OW 4038   3.974   4.921   0.544  0.4630 -0.2494  0.5828
  813SOL    HW1 4039   4.003   4.886   0.633  1.5350 -1.3859 -0.1685
  813SOL    HW2 4040   4.048   4.972   0.502  0.9260 -1.8863 -0.7161
  814SOL     OW 4041   2.010   4.977   0.549 -0.0958 -0.1055 -0.2031
  814SOL    HW1 4042   1.971   5.020   0.631 -0.7666  0.6568 -0.9001
  814SOL    HW2 4043   1.959   4.894   0.527 -1.1615  0.7199 -0.9335
  815SOL     OW 4044   3.576   6.864   3.478 -0.0889 -0.4859  0.0656
  815SOL    HW1 4045   3.646   6.881   3.409 -1.5875 -0.5889 -1.5394
  815SOL    HW2 4046   3.576   6.767   3.502  1.4710 -0.2007  1.4390
  816SOL     OW 4047   0.472   3.228   0.365 -0.2102 -0.0801 -0.2747
  816SOL    HW1 4048   0.394   3.288   0.379 -0.6468 -0.8134  0.5402
  816SOL    HW2 4049   0.521   3.215   0.451 -1.3491 -2.4974  0.1224
  817SOL     OW 4050   0.061   6.744   5.931 -0.4785 -0.4946  0.7271
  817SOL    HW1 4051   0.125   6.812   5.967 -1.6554 -0.8339  3.6786
  817SOL    HW2 4052   0.109   6.683   5.867  1.0053  1.9290 -0.6184
  818SOL     OW 4053   2.542   1.552   6.268 -0.0627  0.5194 -0.0779
  818SOL    HW1 4054   2.607   1.528   6.195 -0.9165 -0.7904 -0.4587
  818SOL    HW2 4055   2.590   1.555   6.355  0.5244 -0.4929 -0.3406
  819SOL     OW 4056   6.013   1.817   3.639 -0.0684 -0.4692 -0.6409
  819SOL    HW1 4057   5.936   1.795   3.699 -0.7912  1.4485 -0.7999
  819SOL    HW2 4058   6.098   1.789   3.682 -0.7471 -1.3579  0.1708
  820SOL     OW 4059   3.946   3.452   0.754 -0.0223 -0.4815 -0.3316
  820SOL    HW1 4060   3.895   3.492   0.677  0.1178  0.7696  0.2000
  820SOL    HW2 4061   3.988   3.366   0.725 -0.8843 -0.5953 -1.3264
  821SOL     OW 4062   5.422   6.418   0.351 -0.0906  0.1948  0.2871
  821SOL    HW1 4063   5.514   6.379   0.338  0.0692  0.3636  0.8865
  821SOL    HW2 4064   5.365   6.394   0.272 -0.1149 -1.5599  0.7926
  822SOL     OW 4065   5.249   5.874   6.808  0.8362 -0.0499  0.2501
  822SOL    HW1 4066   5.308   5.879   6.888  0.0860 -0.5942  0.8490
  822SOL    HW2 4067   5.225   5.778   6.790  0.7152  0.0985 -0.4159
  823SOL     OW 4068   2.970   6.283   3.807 -0.4853 -0.2142 -0.4129
  823SOL    HW1 4069   3.024   6.236   3.876  0.7053  1.5264 -0.0954
  823SOL    HW2 4070   3.005   6.261   3.716  1.0708  1.1808 -0.1950
  824SOL     OW 4071   3.231   1.939   5.408  0.0579  0.2192 -0.2514
  824SOL    HW1 4072   3.195   2.031   5.396 -2.1360 -0.2416  1.9703
  824SOL    HW2 4073   3.282   1.933   5.493 -0.5750 -0.7911  0.0773
  825SOL     OW 4074   5.699   6.753   3.555  0.0038 -0.0851 -0.6624
  825SOL    HW1 4075   5.747   6.815   3.617  0.3215 -1.3605  0.4209
  825SOL    HW2 4076   5.617   6.718   3.600  0.9110 -2.0221 -0.4244
  826SOL     OW 4077   6.940   3.231   4.577  0.1973 -0.0978 -0.0062
  826SOL    HW1 4078   6.949   3.222   4.477  0.9639 -2.5332  0.2037
  826SOL    HW2 4079   6.999   3.305   4.609 -0.4222  1.0486 -1.3695
  827SOL     OW 4080   6.388   4.057   3.093  0.0936  0.0772 -0.2874
  827SOL    HW1 4081   6.340   4.126   3.039  1.7587  1.3602 -0.1928
  827SOL    HW2 4082   6.468   4.098   3.137 -1.1895 -0.8441  3.3056
  828SOL     OW 4083   6.334   1.455   2.184 -0.1715  0.2672 -0.2485
  828SOL    HW1 4084   6.337   1.374   2.242 -1.1212 -0.1306 -0.7366
  828SOL    HW2 4085   6.315   1.536   2.240 -2.3951 -0.2783 -0.1254
  829SOL     OW 4086   0.198   4.252   5.294  0.0362 -0.4702  0.1276
  829SOL    HW1 4087   0.280   4.251   5.237 -0.8799 -0.0715 -1.2323
  829SOL    HW2 4088   0.213   4.193   5.374  1.8758  0.1017  0.2760
  830SOL     OW 4089   3.980   5.550   3.427  0.0842 -0.5419  0.3516
  830SOL    HW1 4090   4.000   5.563   3.330 -0.2169  0.0171  0.3614
  830SOL    HW2 4091   3.964   5.453   3.445 -2.0448 -0.4231 -0.5892
  831SOL     OW 4092   0.264   2.809   0.601 -0.1866 -0.2330  0.0214
  831SOL    HW1 4093   0.195   2.809   0.673 -0.2713 -1.0453 -0.0537
  831SOL    HW2 4094   0.232   2.754   0.524  0.8428 -1.2564  0.2935
  832SOL     OW 4095   5.137   1.277   5.050  0.1508  0.4099  0.3768
  832SOL    HW1 4096   5.092   1.282   4.961 -0.9788  0.9604  0.9444
  832SOL    HW2 4097   5.068   1.286   5.122  1.0689  0.2026  1.3051
  833SOL     OW 4098   6.020   5.212   1.814 -0.3641 -0.0352 -0.6444
  833SOL    HW1 4099   6.022   5.304   1.852  0.0993 -0.5938  0.7463
  833SOL    HW2 4100   6.107   5.195   1.766 -1.0067  0.7192 -2.1639
  834SOL     OW 4101   5.087   4.325   2.080  0.0379  0.5130 -0.2744
  834SOL    HW1 4102   5.100   4.365   1.989  1.9958  0.9962  0.1655
  834SOL    HW2 4103   5.070   4.227   2.071 -0.9349  0.7486 -1.2008
  835SOL     OW 4104   5.735   5.011   4.072 -0.5718  0.0418 -0.0966
  835SOL    HW1 4105   5.651   5.065   4.059 -1.4363 -1.5386 -1.3370
  835SOL    HW2 4106   5.765   4.974   3.985  2.7727  2.3555 -0.1322
  836SOL     OW 4107   0.924   0.294   5.876 -0.5184 -0.8320  0.4667
  836SOL    HW1 4108   0.997   0.330   5.934 -0.0048 -0.6284 -0.2909
  836SOL    HW2 4109   0.836   0.332   5.905 -0.0481  0.6882 -0.0045
  837SOL     OW 4110   2.940   0.561   3.503 -0.3016  0.0098  0.6801
  837SOL    HW1 4111   3.021   0.524   3.547  0.4438 -1.5133 -1.7656
  837SOL    HW2 4112   2.966   0.628   3.434 -1.2557  0.7122  0.9742
  838SOL     OW 4113   3.604   5.454   5.948  0.7928  0.1639 -0.6449
  838SOL    HW1 4114   3.624   5.511   5.869 -0.3905  1.1456 -0.2687
  838SOL    HW2 4115   3.539   5.382   5.923  0.2007  0.6463 -0.5157
  839SOL     OW 4116   1.818   5.293   2.176  0.0649  0.0196  0.2712
  839SOL    HW1 4117   1.741   5.345   2.212 -1.2706 -1.3415 -0.5370
  839SOL    HW2 4118   1.903   5.327   2.217 -1.1156  0.2643  2.6750
  840SOL     OW 4119   0.696   0.708   5.483  0.5176 -0.2600 -0.1627
  840SOL    HW1 4120   0.732   0.750   5.400 -1.8129  1.4215 -0.4335
  840SOL    HW2 4121   0.763   0.718   5.557  1.6416  0.3941 -1.2313
  841SOL     OW 4122   2.230   3.040   3.826  0.1653  0.4367 -0.3533
  841SOL    HW1 4123   2.134   3.026   3.848  0.0620  0.7600 -0.5788
  841SOL    HW2 4124   2.259   3.130   3.859 -0.3721  1.5356 -2.6988
  842SOL     OW 4125   1.533   5.043   4.786 -0.3387  0.4775 -0.5385
  842SOL    HW1 4126   1.490   5.020   4.874  0.7557 -0.8427 -0.3045
  842SOL    HW2 4127   1.504   4.977   4.717  1.5605 -0.7102 -0.2732
  843SOL     OW 4128   1.792   4.871   0.741  0.8267 -0.1945 -0.4807
  843SOL    HW1 4129   1.858   4.897   0.811 -0.0510  0.1298  0.2392
  843SOL    HW2 4130   1.724   4.943   0.730  0.4149 -0.6481 -1.0110
  844SOL     OW 4131   4.888   3.149   0.688 -0.1333 -0.1758  0.5780
  844SOL    HW1 4132   4.937   3.069   0.653 -0.4254 -0.1272  0.0577
  844SOL    HW2 4133   4.943   3.231   0.673 -0.9946  0.0952 -1.4032
  845SOL     OW 4134   1.726   2.724   4.434  0.3129 -0.5082 -0.4852
  845SOL    HW1 4135   1.749   2.791   4.363  0.8869  0.0615  0.2129
  845SOL    HW2 4136   1.758   2.758   4.522 -1.0816 -0.8444  0.1724
  846SOL     OW 4137   5.876   3.270   1.413  0.0810 -0.5300  0.3118
  846SOL    HW1 4138   5.874   3.208   1.492 -0.9779 -0.1265  0.6115
  846SOL    HW2 4139   5.844   3.222   1.331 -0.9100 -0.3487  0.5795
  847SOL     OW 4140   2.546   5.341   0.924 -0.5006  0.0341 -0.8686
  847SOL    HW1 4141   2.463   5.299   0.960 -0.1934  0.3278  0.2447
  847SOL    HW2 4142   2.602   5.272   0.879  0.2544 -0.9630  1.4121
  848SOL     OW 4143   4.860   0.769   0.377 -0.1905 -0.0079  0.1327
  848SOL    HW1 4144   4.849   0.851   0.434  0.8314  1.9892 -2.3377
  848SOL    HW2 4145   4.783   0.763   0.313  0.4060 -0.1847 -0.5852
  849SOL     OW 4146   3.726   1.881   0.943 -0.8528  0.2602 -0.0924
  849SOL    HW1 4147   3.735   1.788   0.907 -0.8617  0.6651 -1.1877
  849SOL    HW2 4148   3.791   1.894   1.018 -0.2595 -0.3812 -0.4762
  850SOL     OW 4149   2.098   4.869   2.835  0.2597  0.2784 -0.1655
  850SOL    HW1 4150   2.192   4.897   2.852  0.0816  1.1809 -0.6330
  850SOL    HW2 4151   2.037   4.913   2.900  0.2630 -1.1828  0.8690
  851SOL     OW 4152   6.260   4.275   3.523  0.0583 -0.0609  0.2202
  851SOL    HW1 4153   6.342   4.290   3.467 -0.4642  2.3183 -0.0336
  851SOL    HW2 4154   6.282   4.290   3.619 -0.1555  1.0902  0.1029
  852SOL     OW 4155   2.689   2.018   4.348  0.2246  0.6313 -0.2713
  852SOL    HW1 4156   2.717   1.924   4.364 -0.9197 -0.1201 -2.2661
  852SOL    HW2 4157   2.646   2.025   4.258 -1.6757  2.6120  0.6878
  853SOL     OW 4158   3.408   5.685   2.116 -0.0734  0.6903 -0.2120
  853SOL    HW1 4159   3.442   5.602   2.073 -0.5552 -0.9084  2.2839
  853SOL    HW2 4160   3.482   5.753   2.121  0.9524 -0.3880 -0.3973
  854SOL     OW 4161   1.729   3.310   2.736 -0.6169 -0.1999 -0.7595
  854SOL    HW1 4162   1.771   3.392   2.775 -1.7282  0.5362 -1.0451
  854SOL    HW2 4163   1.703   3.248   2.810 -0.4983  0.0821 -0.4799
  855SOL     OW 4164   0.255   5.764   3.074 -0.0455  0.2389  0.1954
  855SOL    HW1 4165   0.292   5.680   3.115  0.1473  0.4413  0.4358
  855SOL    HW2 4166   0.277   5.766   2.976 -0.2843 -0.1202  0.1319
  856SOL     OW 4167   4.987   4.909   5.493  0.1693  0.2531 -0.1528
  856SOL    HW1 4168   5.017   4.982   5.431 -0.0222 -1.1292 -1.9547
  856SOL    HW2 4169   4.910   4.860   5.453  0.3078 -0.9769  0.9964
  857SOL     OW 4170   6.887   0.025   5.651 -0.3453 -0.0694  0.4767
  857SOL    HW1 4171   6.900  -0.074   5.655  0.9378  0.0100 -0.7896
  857SOL    HW2 4172   6.789   0.046   5.644 -0.5546 -1.3743 -1.3450
  858SOL     OW 4173   2.313   0.584   0.882  0.2042  0.1337 -0.1814
  858SOL    HW1 4174   2.320   0.636   0.797  2.5349 -0.5531 -0.4826
  858SOL    HW2 4175   2.236   0.520   0.876 -0.3455  0.8655 -1.3013
  859SOL     OW 4176   1.202   4.029   6.799  0.2341  0.0860 -0.3171
  859SOL    HW1 4177   1.294   3.993   6.811 -0.3385 -1.2810  0.2253
  859SOL    HW2 4178   1.195   4.074   6.711  0.8802 -1.6395 -1.3073
  860SOL     OW 4179   2.615   3.912   5.494  0.0608  0.1782 -0.4689
  860SOL    HW1 4180   2.652   3.821   5.512  1.0379  1.0578  2.4887
  860SOL    HW2 4181   2.675   3.959   5.429  0.7655 -0.5205 -0.3456
  861SOL     OW 4182   4.156   1.534   0.574  0.3034  0.3961 -0.2208
  861SOL    HW1 4183   4.202   1.621   0.560  0.9208 -0.2582 -2.7005
  861SOL    HW2 4184   4.078   1.527   0.512  0.4561 -0.9448 -0.2883
  862SOL     OW 4185   0.593   5.425   0.746  0.1174  0.7007 -0.3710
  862SOL    HW1 4186   0.569   5.437   0.650  0.8181  0.7409 -0.5486
  862SOL    HW2 4187   0.692   5.438   0.757  0.5166 -1.9904 -0.0903
  863SOL     OW 4188   6.236   1.930   6.973  0.0345 -0.1042 -0.8277
  863SOL    HW1 4189   6.146   1.891   6.955 -0.4280  0.9385 -0.8363
  863SOL    HW2 4190   6.295   1.917   6.893 -0.4051  0.0264 -1.1756
  864SOL     OW 4191   4.391   1.628   6.133 -0.5013 -0.1637 -0.3037
  864SOL    HW1 4192   4.408   1.676   6.219 -0.7854 -1.2160  0.3682
  864SOL    HW2 4193   4.295   1.637   6.108 -0.5434 -0.3364 -0.2045
  865SOL     OW 4194   6.751   4.953   1.906  0.2201  0.2087 -0.7359
  865SOL    HW1 4195   6.749   4.853   1.917  0.5417  0.1840 -0.8893
  865SOL    HW2 4196   6.658   4.987   1.892  0.0641 -0.0265 -0.2953
  866SOL     OW 4197   4.956   3.422   0.547 -0.0202  0.2238  0.4375
  866SOL    HW1 4198   4.977   3.490   0.616 -3.6174  2.0180 -0.0125
  866SOL    HW2 4199   4.964   3.463   0.456  1.4037 -1.1258 -0.0862
  867SOL     OW 4200   1.144   4.381   3.635 -0.2125 -0.0805  0.9589
  867SOL    HW1 4201   1.070   4.316   3.615 -2.1033  1.3928  2.6772
  867SOL    HW2 4202   1.217   4.371   3.568 -1.5557 -2.2506 -0.2766
  868SOL     OW 4203   6.982   4.115   5.182 -0.8336 -0.0092 -0.1163
  868SOL    HW1 4204   6.921   4.184   5.220  1.2257  1.0919  1.4225
  868SOL    HW2 4205   7.077   4.138   5.205  0.0457 -2.6903 -0.6719
  869SOL     OW 4206   6.508   4.391   5.169 -0.4872 -0.0011 -0.3482
  869SOL    HW1 4207   6.459   4.475   5.150  0.8761  0.5413 -1.6765
  869SOL    HW2 4208   6.486   4.323   5.099 -0.6205 -0.3151 -0.0015
  870SOL     OW 4209   3.973   6.069   0.365 -0.5901 -0.2543  0.2193
  870SOL    HW1 4210   3.914   6.059   0.445 -2.0296 -1.9657 -0.9880
  870SOL    HW2 4211   3.943   6.149   0.312 -1.0808 -0.4462  0.2063
  871SOL     OW 4212   0.927   5.198   5.882 -0.2347  0.2239  0.0571
  871SOL    HW1 4213   0.901   5.254   5.961 -0.3585  1.5282 -0.8960
  871SOL    HW2 4214   0.860   5.209   5.809 -1.3816 -2.7079  0.4957
  872SOL     OW 4215   1.036   1.561   0.320 -0.5701  0.0400  0.1129
  872SOL    HW1 4216   0.988   1.648   0.308 -0.6118  0.1389  0.9633
  872SOL    HW2 4217   1.114   1.574   0.382 -0.5641 -0.5198  0.2243
  873SOL     OW 4218   6.015   4.009   4.984 -0.1518  0.1580  0.9237
  873SOL    HW1 4219   6.057   3.925   5.019 -1.3530 -0.3662  1.1648
  873SOL    HW2 4220   5.973   4.059   5.060 -0.9505  0.0745  0.5508
  874SOL     OW 4221   2.185   4.890   5.955 -0.6808 -0.0841  0.1316
  874SOL    HW1 4222   2.254   4.938   6.010  0.0107  1.0338 -1.6230
  874SOL    HW2 4223   2.096   4.934   5.967 -0.4403  0.4398 -0.0131
  875SOL     OW 4224   4.474   6.017   0.922  0.4910 -0.1777  0.3870
  875SOL    HW1 4225   4.443   5.931   0.882  0.9495 -0.0352 -0.2927
  875SOL    HW2 4226   4.413   6.043   0.997 -1.0525  0.1063 -0.9119
  876SOL     OW 4227   6.662   4.588   5.873  0.2416 -0.7372  0.1198
  876SOL    HW1 4228   6.712   4.564   5.790  0.7653 -3.3708  1.0809
  876SOL    HW2 4229   6.727   4.598   5.949 -0.4090 -0.8491  0.7003
  877SOL     OW 4230   3.515   1.305   6.013 -0.3612 -0.5594 -0.1546
  877SOL    HW1 4231   3.523   1.240   6.089 -0.0238 -0.6220 -0.2446
  877SOL    HW2 4232   3.472   1.260   5.935 -0.0582 -0.6953 -0.2422
  878SOL     OW 4233   1.499   3.366   5.944 -0.1614  0.0375  0.3985
  878SOL    HW1 4234   1.429   3.320   5.999  0.4286 -0.7456  0.5103
  878SOL    HW2 4235   1.459   3.448   5.902 -1.7836 -1.5092 -1.2950
  879SOL     OW 4236   5.662   1.078   4.988 -0.1779  0.1835 -0.1578
  879SOL    HW1 4237   5.623   0.988   5.003 -0.6831  0.4521  0.1556
  879SOL    HW2 4238   5.687   1.088   4.891  0.8025 -0.6473 -0.0140
  880SOL     OW 4239   5.631   4.138   3.205 -0.4048 -0.4114 -0.5286
  880SOL    HW1 4240   5.554   4.075   3.187 -0.0214 -1.1720  0.3872
  880SOL    HW2 4241   5.685   4.103   3.282 -0.0602  0.9535 -0.1226
  881SOL     OW 4242   6.211   2.859   3.383 -0.0225 -0.0726  0.6654
  881SOL    HW1 4243   6.285   2.902   3.434 -0.2285  3.5488 -1.7689
  881SOL    HW2 4244   6.123   2.899   3.410 -0.3379  0.4621 -1.0207
  882SOL     OW 4245   1.453   6.788   2.491  0.4568 -0.3387  0.2606
  882SOL    HW1 4246   1.444   6.875   2.538  0.6676 -0.1771  0.0045
  882SOL    HW2 4247   1.468   6.805   2.393  0.9614 -0.6542  0.2832
  883SOL     OW 4248   3.993   3.014   5.920  0.2188 -0.1961 -0.4455
  883SOL    HW1 4249   3.931   3.057   5.856 -1.3792  0.8902  1.7150
  883SOL    HW2 4250   3.952   2.930   5.956  0.5850 -0.1934 -0.0038
  884SOL     OW 4251   2.984   6.898   5.216 -0.2638 -0.6773  0.3374
  884SOL    HW1 4252   2.921   6.974   5.198 -1.9411 -2.5211 -2.1467
  884SOL    HW2 4253   3.055   6.929   5.279 -2.6984  1.9681  2.0436
  885SOL     OW 4254   0.779   4.960   4.768 -0.4919  0.3028  0.5689
  885SOL    HW1 4255   0.842   5.022   4.815 -1.8411  1.3253  1.1189
  885SOL    HW2 4256   0.820   4.929   4.683 -0.1224  2.7371 -0.2183
  886SOL     OW 4257   5.336   5.811   1.769 -0.1336  0.2281  0.4280
  886SOL    HW1 4258   5.296   5.756   1.696 -0.9795 -0.6448  1.5156
  886SOL    HW2 4259   5.435   5.813   1.759 -0.3037  1.5101 -1.6819
  887SOL     OW 4260   7.010   2.616   3.106  0.5278 -0.7785  0.3246
  887SOL    HW1 4261   6.957   2.667   3.038  0.1966 -1.4787  0.0457
  887SOL    HW2 4262   7.077   2.559   3.059  2.2265  0.7929  0.6973
  888SOL     OW 4263   0.583   6.279   4.770 -0.3635  0.3813 -0.1400
  888SOL    HW1 4264   0.676   6.312   4.783 -0.1886  0.9072 -2.3863
  888SOL    HW2 4265   0.579   6.181   4.791  0.1096  0.8024  2.2319
  889SOL     OW 4266   4.448   5.525   2.693 -0.6774 -0.0659 -0.8409
  889SOL    HW1 4267   4.410   5.617   2.682  0.2804  0.5226  0.4854
  889SOL    HW2 4268   4.545   5.526   2.668 -1.0617 -1.1374 -2.4726
  890SOL     OW 4269   5.458   0.366   1.065  0.0490  0.1113 -0.3339
  890SOL    HW1 4270   5.465   0.413   0.977  1.0623  1.9047  0.6386
  890SOL    HW2 4271   5.534   0.394   1.124 -0.5315 -1.1455  1.0702
  891SOL     OW 4272   0.704   0.108   4.873  0.3317 -0.1275  0.3623
  891SOL    HW1 4273   0.659   0.053   4.943 -0.3281  1.9465  1.6631
  891SOL    HW2 4274   0.704   0.204   4.901  0.6058  0.7044 -2.2153
  892SOL     OW 4275   2.803   4.542   5.002  0.1480  0.3600 -0.4628
  892SOL    HW1 4276   2.802   4.633   5.044 -1.3844  0.9751 -1.7100
  892SOL    HW2 4277   2.874   4.538   4.932 -0.1536  0.8201 -0.8048
  893SOL     OW 4278   6.770   3.682   2.059  0.0208  0.2629 -0.0235
  893SOL    HW1 4279   6.822   3.726   2.132  0.3147 -1.5551  0.9360
  893SOL    HW2 4280   6.818   3.599   2.030  0.0819  1.0936 -2.5656
  894SOL     OW 4281   6.263   1.264   6.087  0.2860 -0.4259  0.0133
  894SOL    HW1 4282   6.262   1.287   5.990  0.5072  0.2465  0.1618
  894SOL    HW2 4283   6.344   1.305   6.130  0.3574 -0.9819  0.4195
  895SOL     OW 4284   0.976   6.910   3.085  0.2030  0.5778 -0.0148
  895SOL    HW1 4285   1.049   6.842   3.080  0.7020  1.0179  1.0351
  895SOL    HW2 4286   1.003   6.984   3.146 -0.9139  1.0038 -0.0143
  896SOL     OW 4287   1.120   4.416   2.588 -0.0928 -0.0693 -0.2595
  896SOL    HW1 4288   1.203   4.424   2.643  0.6409  1.3088 -1.4804
  896SOL    HW2 4289   1.065   4.498   2.599  0.2890  0.4386 -1.8742
  897SOL     OW 4290   0.270   0.361   1.611 -0.1438 -0.2644 -1.0226
  897SOL    HW1 4291   0.266   0.386   1.707  1.3748 -3.3879 -0.0352
  897SOL    HW2 4292   0.356   0.394   1.571  1.0110 -2.1309 -0.2091
  898SOL     OW 4293   1.934   5.124   1.440 -0.0357  0.7000 -0.5120
  898SOL    HW1 4294   2.014   5.182   1.454  0.8138 -0.4412 -0.5597
  898SOL    HW2 4295   1.869   5.138   1.515  2.0626 -1.3840  1.8755
  899SOL     OW 4296   0.878   2.883   3.438 -0.3887 -0.1432  0.1605
  899SOL    HW1 4297   0.898   2.971   3.395  1.2122  0.0362  1.2035
  899SOL    HW2 4298   0.860   2.896   3.535  0.6073 -1.0389  0.4768
  900SOL     OW 4299   4.922   5.449   2.181  0.1835 -0.6283 -0.4018
  900SOL    HW1 4300   4.963   5.514   2.118 -0.9390  0.7840  0.2740
  900SOL    HW2 4301   4.823   5.448   2.168 -0.0970 -0.1804  1.4267
  901SOL     OW 4302   0.949   2.242   1.232 -0.1361  0.1405  0.2658
  901SOL    HW1 4303   1.040   2.268   1.263  0.6014 -2.4993  0.5391
  901SOL    HW2 4304   0.890   2.323   1.230  2.4259  2.1313 -0.8671
  902SOL     OW 4305   2.139   0.633   0.180  0.2767  0.0464  0.2269
  902SOL    HW1 4306   2.225   0.628   0.128  0.6455 -2.2002  0.9429
  902SOL    HW2 4307   2.065   0.660   0.118  1.3861  1.6157 -0.4956
  903SOL     OW 4308   6.045   6.814   0.616  0.2996  0.1665  0.5250
  903SOL    HW1 4309   5.954   6.795   0.653  0.6868  2.3607  2.8446
  903SOL    HW2 4310   6.082   6.898   0.657  1.8295  1.5271 -3.2009
  904SOL     OW 4311   1.498   5.679   6.962  0.1728 -0.1801  0.6149
  904SOL    HW1 4312   1.536   5.613   7.026 -0.4906  1.3291  2.6556
  904SOL    HW2 4313   1.424   5.730   7.006  0.5939  1.8577 -0.8882
  905SOL     OW 4314   5.392   5.312   1.752  0.0668  0.0776  0.0832
  905SOL    HW1 4315   5.327   5.355   1.815  1.3976 -0.5752  1.9904
  905SOL    HW2 4316   5.351   5.229   1.713 -1.5426  1.5850 -1.6024
  906SOL     OW 4317   0.117   3.695   6.314 -0.4243  0.3749 -0.3170
  906SOL    HW1 4318   0.022   3.665   6.326  0.4958 -1.8324  2.8033
  906SOL    HW2 4319   0.178   3.623   6.348  2.2525  3.2915  1.4838
  907SOL     OW 4320   2.076   4.085   3.319 -0.7740  0.7827  0.0388
  907SOL    HW1 4321   2.100   4.116   3.411 -1.7791  1.3698  0.1273
  907SOL    HW2 4322   2.159   4.064   3.268 -0.1970  0.4535  1.0723
  908SOL     OW 4323   0.836   4.460   5.918  0.1382  0.1372 -0.3448
  908SOL    HW1 4324   0.850   4.361   5.913  1.2025  0.3037 -0.9884
  908SOL    HW2 4325   0.923   4.505   5.939 -0.2160  0.9851 -0.6494
  909SOL     OW 4326   5.767   6.108   4.128 -0.1084 -0.2577 -0.3058
  909SOL    HW1 4327   5.825   6.116   4.048  0.5624 -1.6518  0.0014
  909SOL    HW2 4328   5.737   6.198   4.158 -2.1382  0.2318 -3.3494
  910SOL     OW 4329   3.385   0.016   1.998 -0.1538  0.2834 -0.0404
  910SOL    HW1 4330   3.317   0.085   2.023  0.2443  0.0072  1.9686
  910SOL    HW2 4331   3.361  -0.024   1.910 -1.6497  1.3696 -0.1624
  911SOL     OW 4332   5.254   5.517   2.178  0.2214 -0.7887  0.4535
  911SOL    HW1 4333   5.197   5.597   2.158  0.8247 -0.5688 -0.4535
  911SOL    HW2 4334   5.235   5.485   2.270 -0.5457 -0.0283  0.5724
  912SOL     OW 4335   2.925   6.803   4.392 -0.2507 -0.6473 -0.1121
  912SOL    HW1 4336   2.946   6.712   4.356 -0.6687 -1.1127  0.7693
  912SOL    HW2 4337   2.998   6.832   4.454  0.4907  0.1678 -1.3405
  913SOL     OW 4338   0.126   2.852   5.261  0.2718  0.4580 -0.0851
  913SOL    HW1 4339   0.152   2.793   5.337 -2.1702  0.1209  0.5511
  913SOL    HW2 4340   0.169   2.942   5.272  2.2034 -0.4405  0.1302
  914SOL     OW 4341   4.008   4.459   5.376 -0.1250 -0.0874 -0.0884
  914SOL    HW1 4342   3.911   4.439   5.381 -0.0863 -0.0372  1.1636
  914SOL    HW2 4343   4.058   4.379   5.343 -0.3921 -0.7488  1.0961
  915SOL     OW 4344   1.927   5.201   0.998  0.3425  0.2089  0.3675
  915SOL    HW1 4345   1.851   5.222   1.061  0.0086 -0.1356  0.0845
  915SOL    HW2 4346   2.009   5.249   1.028  0.3143 -0.3229  1.3444
  916SOL     OW 4347   2.132   1.199   4.106 -0.1577  0.2819  0.5651
  916SOL    HW1 4348   2.124   1.140   4.186  0.4281  0.9678  1.1484
  916SOL    HW2 4349   2.142   1.294   4.136  1.5094  0.3977 -0.2662
  917SOL     OW 4350   6.373   3.313   5.529  0.1625 -0.7695  0.0195
  917SOL    HW1 4351   6.470   3.296   5.549  0.1927 -0.8049 -0.1557
  917SOL    HW2 4352   6.320   3.230   5.548  0.0184 -0.4642  1.0549
  918SOL     OW 4353   1.074   2.095   3.759  0.3991  0.0101 -0.2822
  918SOL    HW1 4354   1.014   2.163   3.716  0.6593  1.1791  1.1085
  918SOL    HW2 4355   1.168   2.113   3.732  0.5357  0.5974  0.5601
  919SOL     OW 4356   0.707   6.836   6.592 -0.3804 -0.1131  0.4109
  919SOL    HW1 4357   0.803   6.814   6.575  0.4220  2.2243  1.4756
  919SOL    HW2 4358   0.675   6.901   6.523 -0.3113  1.2061  1.5612
  920SOL     OW 4359   0.174   1.895   1.786 -0.2665  0.6350 -0.0172
  920SOL    HW1 4360   0.152   1.989   1.760 -2.1219  0.5930  1.2169
  920SOL    HW2 4361   0.089   1.843   1.796  0.6039 -0.5620  1.5076
  921SOL     OW 4362   6.125   1.913   2.363 -0.0521 -0.2953 -0.1442
  921SOL    HW1 4363   6.166   1.968   2.290  0.1587 -0.4396 -0.1399
  921SOL    HW2 4364   6.029   1.938   2.375 -0.0807 -0.2516 -0.4540
  922SOL     OW 4365   0.079   6.531   2.197  0.3449 -0.2724  0.0731
  922SOL    HW1 4366   0.010   6.475   2.241 -2.3678  0.0199 -3.3697
  922SOL    HW2 4367   0.046   6.625   2.188  1.3180 -0.0101 -1.2902
  923SOL     OW 4368   4.948   0.015   1.162 -0.6003 -0.1771  0.4762
  923SOL    HW1 4369   4.879   0.087   1.164 -0.5530 -0.0253 -1.4273
  923SOL    HW2 4370   5.034   0.053   1.127  0.5163 -0.3348  2.8918
  924SOL     OW 4371   1.202   6.427   0.562  0.0485  0.5922 -0.2286
  924SOL    HW1 4372   1.229   6.387   0.650 -0.7044  1.4140  0.3993
  924SOL    HW2 4373   1.255   6.510   0.546  0.2563  0.3876 -0.6040
  925SOL     OW 4374   0.594   0.589   1.908 -0.1576  0.4831 -0.4309
  925SOL    HW1 4375   0.516   0.582   1.845 -0.0698  2.5827 -0.8563
  925SOL    HW2 4376   0.679   0.579   1.856 -0.1078 -0.2515 -0.2188
  926SOL     OW 4377   3.446   6.531   2.304  0.8411 -0.0221 -0.4954
  926SOL    HW1 4378   3.450   6.468   2.382  3.8568 -1.6869 -1.8262
  926SOL    HW2 4379   3.412   6.482   2.224  1.0744  0.6856 -1.0341
  927SOL     OW 4380   1.118   1.533   1.251 -0.3614  0.2078 -0.4716
  927SOL    HW1 4381   1.194   1.513   1.189 -0.1603  2.3150 -0.9706
  927SOL    HW2 4382   1.035   1.548   1.198 -0.6519  0.0265 -0.0697
  928SOL     OW 4383   3.920   2.748   5.720  0.0602  0.6593  0.1621
  928SOL    HW1 4384   3.835   2.797   5.703 -1.1290 -1.3817 -0.2099
  928SOL    HW2 4385   3.948   2.763   5.815 -1.8533 -0.1854  0.9242
  929SOL     OW 4386   3.452   1.320   1.392  0.6808  0.3925  0.9678
  929SOL    HW1 4387   3.435   1.379   1.471 -0.0320  0.0300  1.0954
  929SOL    HW2 4388   3.378   1.330   1.326 -0.9149 -2.2644  2.1703
  930SOL     OW 4389   0.514   0.801   2.244 -0.3857  0.5233  0.6040
  930SOL    HW1 4390   0.579   0.833   2.313 -0.1739  2.0730 -0.2690
  930SOL    HW2 4391   0.503   0.870   2.173 -1.1489 -0.7306 -0.5630
  931SOL     OW 4392   2.424   2.307   0.618 -0.2315 -0.4853 -0.1523
  931SOL    HW1 4393   2.515   2.284   0.584 -0.2703 -0.1570 -0.4879
  931SOL    HW2 4394   2.383   2.376   0.558  0.3253  1.3119  1.4263
  932SOL     OW 4395   6.500   3.551   3.757  0.5437 -0.0840 -0.1817
  932SOL    HW1 4396   6.467   3.561   3.851  3.0016 -0.0692  0.7385
  932SOL    HW2 4397   6.423   3.529   3.697 -1.3736  1.5724  1.5235
  933SOL     OW 4398   3.884   2.760   1.946  1.1669 -0.0791 -0.1644
  933SOL    HW1 4399   3.869   2.680   2.005  1.0025 -0.4882 -0.7522
  933SOL    HW2 4400   3.883   2.843   2.002  0.7285 -0.4376  0.3710
  934SOL     OW 4401   5.218   5.849   2.337 -0.1248 -0.1095  0.0285
  934SOL    HW1 4402   5.229   5.771   2.399  0.2685 -1.0358 -1.1619
  934SOL    HW2 4403   5.304   5.866   2.290 -0.7785 -0.3144 -1.2727
  935SOL     OW 4404   6.807   0.559   1.739  0.3910  0.2353  0.0211
  935SOL    HW1 4405   6.836   0.577   1.645 -0.5874 -2.4674 -0.9237
  935SOL    HW2 4406   6.872   0.598   1.803  1.8408  0.9654 -1.8163
  936SOL     OW 4407   6.707   0.884   5.708  0.5555  0.1237  0.5671
  936SOL    HW1 4408   6.674   0.878   5.614 -0.3811  2.2678  0.6896
  936SOL    HW2 4409   6.697   0.795   5.753 -1.9315 -0.1903 -0.4485
  937SOL     OW 4410   4.155   1.364   3.070  0.2259 -0.3782  0.9746
  937SOL    HW1 4411   4.239   1.414   3.093  0.7400 -1.0003  0.4972
  937SOL    HW2 4412   4.179   1.276   3.029 -0.5306  1.0353 -2.9568
  938SOL     OW 4413   6.204   5.482   4.820 -0.2276 -0.0324  0.2975
  938SOL    HW1 4414   6.271   5.478   4.894  0.7031 -1.1033 -0.5717
  938SOL    HW2 4415   6.250   5.467   4.732 -0.9426  3.2753 -0.7833
  939SOL     OW 4416   3.121   4.842   3.070 -0.7538  0.0142  0.1778
  939SOL    HW1 4417   3.205   4.829   3.123  0.6144  2.4539 -1.2281
  939SOL    HW2 4418   3.138   4.821   2.974 -1.1408  2.3498 -0.4616
  940SOL     OW 4419   1.956   6.713   1.227  0.1874  0.6704  0.0692
  940SOL    HW1 4420   2.043   6.724   1.179  0.2852 -0.4043 -0.0108
  940SOL    HW2 4421   1.972   6.703   1.325  0.0829  1.3530  0.1650
  941SOL     OW 4422   3.963   0.244   0.092  0.1557 -0.1475 -0.9815
  941SOL    HW1 4423   3.988   0.224  -0.002 -0.5564  1.3050 -1.5119
  941SOL    HW2 4424   3.952   0.158   0.143  2.3502 -0.9124 -1.6946
  942SOL     OW 4425   3.204   6.620   6.366 -0.2331 -0.0867  0.0198
  942SOL    HW1 4426   3.143   6.551   6.404  0.3525  0.3450  1.8833
  942SOL    HW2 4427   3.299   6.588   6.374 -0.1161 -0.2226 -1.6824
  943SOL     OW 4428   6.475   1.877   0.617  0.0009 -0.1596 -0.1923
  943SOL    HW1 4429   6.506   1.848   0.708 -2.3792 -1.6672  0.2160
  943SOL    HW2 4430   6.502   1.808   0.549 -0.7738 -0.5240 -0.1362
  944SOL     OW 4431   3.768   1.205   1.926 -0.1007  0.2376  0.0852
  944SOL    HW1 4432   3.823   1.279   1.886 -0.8761  1.2358  0.8011
  944SOL    HW2 4433   3.772   1.211   2.025 -2.0215  0.7737  0.1754
  945SOL     OW 4434   4.148   0.465   5.076  0.1836  0.0474  0.1410
  945SOL    HW1 4435   4.080   0.495   5.144 -0.2828 -0.7460  0.0357
  945SOL    HW2 4436   4.126   0.506   4.987 -1.4824 -1.8711 -0.4196
  946SOL     OW 4437   5.426   6.664   1.188  0.6084 -0.3525  0.0105
  946SOL    HW1 4438   5.380   6.745   1.223  0.8185 -0.0607 -0.3874
  946SOL    HW2 4439   5.376   6.627   1.110  0.1558 -0.9894  0.5864
  947SOL     OW 4440   1.382   6.259   4.391  0.2050  0.5073 -0.0316
  947SOL    HW1 4441   1.416   6.293   4.479 -0.1241  0.4923  0.1008
  947SOL    HW2 4442   1.458   6.252   4.327  0.1547  2.3104 -0.3360
  948SOL     OW 4443   1.283   4.104   1.630 -0.0798  0.2854 -0.2922
  948SOL    HW1 4444   1.225   4.095   1.549 -1.2795 -0.6140  0.6372
  948SOL    HW2 4445   1.254   4.185   1.682 -1.3625 -0.8470  0.8133
  949SOL     OW 4446   0.744   2.507   5.805 -0.4121 -0.8145  0.0952
  949SOL    HW1 4447   0.822   2.444   5.807 -0.7055 -1.1577  1.2895
  949SOL    HW2 4448   0.753   2.568   5.726  1.0171 -0.9114  0.1608
  950SOL     OW 4449   1.409   1.190   0.365  0.2609  0.3408 -0.2059
  950SOL    HW1 4450   1.330   1.185   0.304  0.2511 -1.8057 -0.1038
  950SOL    HW2 4451   1.474   1.257   0.330 -0.5592  0.4727 -1.5705
  951SOL     OW 4452   6.486   1.969   1.916 -0.1040 -0.1631 -0.1562
  951SOL    HW1 4453   6.503   2.053   1.967  1.5342 -0.2325 -0.5368
  951SOL    HW2 4454   6.452   1.898   1.978  0.6747  0.1164  0.6021
  952SOL     OW 4455   4.368   3.669   3.257  0.0995  0.3730  0.7984
  952SOL    HW1 4456   4.392   3.752   3.207 -0.5853  1.8586  2.7696
  952SOL    HW2 4457   4.408   3.673   3.349 -3.3193  0.6087  2.4474
  953SOL     OW 4458   3.046   0.260   6.333  0.1221 -0.3293  0.4125
  953SOL    HW1 4459   3.058   0.256   6.433  0.5739  1.1706  0.4461
  953SOL    HW2 4460   3.102   0.190   6.290 -0.7900 -1.6133  1.2477
  954SOL     OW 4461   4.096   4.800   2.902 -0.1160  0.3102 -0.0774
  954SOL    HW1 4462   4.018   4.811   2.964 -0.3944 -0.6160 -0.2442
  954SOL    HW2 4463   4.073   4.839   2.813 -0.0507  0.8429  0.1384
  955SOL     OW 4464   6.834   6.003   4.610  0.2529  0.0273 -0.5437
  955SOL    HW1 4465   6.928   6.002   4.579  0.4599  0.3728  0.0553
  955SOL    HW2 4466   6.789   6.087   4.580 -0.6018 -1.1677 -2.9011
  956SOL     OW 4467   1.596   3.113   5.624  0.1281 -0.7672  0.7419
  956SOL    HW1 4468   1.582   3.121   5.723  0.2827  0.4886  0.6693
  956SOL    HW2 4469   1.508   3.124   5.577  0.6476  4.4927  0.4448
  957SOL     OW 4470   4.327   0.520   3.434  0.1499  0.3061 -0.4405
  957SOL    HW1 4471   4.410   0.471   3.406  0.3849  0.3987  0.0830
  957SOL    HW2 4472   4.352   0.596   3.494 -0.3725 -0.2052  0.4524
  958SOL     OW 4473   3.007   1.391   0.155  0.0468 -0.2014 -0.0694
  958SOL    HW1 4474   3.016   1.469   0.093  1.5209 -0.4132 -0.1657
  958SOL    HW2 4475   2.999   1.307   0.100 -4.8603 -0.0082 -0.1040
  959SOL     OW 4476   3.066   0.261   5.863  0.0090 -0.5254  0.2559
  959SOL    HW1 4477   3.056   0.181   5.922  0.4718  0.3629  1.5626
  959SOL    HW2 4478   3.058   0.345   5.917 -0.1654  0.3217 -1.0408
  960SOL     OW 4479   5.339   2.837   1.645 -0.6856 -0.3095 -0.2066
  960SOL    HW1 4480   5.380   2.828   1.555  0.0398 -0.9219  0.1724
  960SOL    HW2 4481   5.240   2.848   1.636 -0.4179  1.9156 -1.1755
  961SOL     OW 4482   1.541   4.134   5.457  0.3347 -0.0950  0.0874
  961SOL    HW1 4483   1.499   4.058   5.506  0.0307 -1.0866 -1.6401
  961SOL    HW2 4484   1.526   4.219   5.507 -3.9803 -0.3215 -0.4879
  962SOL     OW 4485   6.914   0.230   1.402 -0.2171  0.5399 -0.6572
  962SOL    HW1 4486   6.946   0.184   1.485 -0.1632  0.5453 -0.6752
  962SOL    HW2 4487   6.844   0.297   1.427 -1.6660 -0.8597 -0.8231
  963SOL     OW 4488   5.308   2.543   6.246 -0.2229  0.0232 -0.1449
  963SOL    HW1 4489   5.403   2.551   6.219 -0.4903 -2.1874 -2.1218
  963SOL    HW2 4490   5.251   2.601   6.188 -0.2455  0.0932 -0.0541
  964SOL     OW 4491   5.795   5.862   5.585  0.1010  0.1625 -0.4113
  964SOL    HW1 4492   5.810   5.784   5.645 -0.0980 -0.1561 -0.7758
  964SOL    HW2 4493   5.850   5.940   5.617  0.5385 -0.2190 -0.2264
  965SOL     OW 4494   6.725   4.032   2.713  0.9331 -0.0507 -0.1086
  965SOL    HW1 4495   6.728   4.119   2.664  2.5139 -0.5667 -1.0071
  965SOL    HW2 4496   6.723   3.957   2.647  5.4988 -0.8554  0.3762
  966SOL     OW 4497   0.278   3.231   2.051  0.0469 -0.1445 -0.2584
  966SOL    HW1 4498   0.210   3.292   2.012  0.9667  0.8697 -0.3203
  966SOL    HW2 4499   0.281   3.244   2.150  0.8784  0.6072 -0.3664
  967SOL     OW 4500   3.115   3.540   3.718  0.0822  0.2052 -0.3961
  967SOL    HW1 4501   3.168   3.499   3.792  0.4978  2.2317  0.4954
  967SOL    HW2 4502   3.174   3.558   3.639 -0.1354 -0.9818 -0.8506
  968SOL     OW 4503   2.961   0.276   1.536 -0.3806  0.3767 -0.7888
  968SOL    HW1 4504   2.889   0.211   1.557 -0.4866  0.9705  0.8573
  968SOL    HW2 4505   2.920   0.364   1.512 -0.2143  0.2897 -1.4095
  969SOL     OW 4506   1.083   2.746   4.673 -0.0534  0.5238 -0.2536
  969SOL    HW1 4507   1.031   2.698   4.603 -1.0254 -1.3069  1.6136
  969SOL    HW2 4508   1.179   2.719   4.668 -0.4098 -0.8783  0.1143
  970SOL     OW 4509   6.990   4.514   3.376 -0.1297  0.1649 -0.3932
  970SOL    HW1 4510   6.996   4.446   3.449 -0.5030  1.0644  0.5001
  970SOL    HW2 4511   7.056   4.491   3.304  0.4149 -0.6180  0.3260
  971SOL     OW 4512   2.688   6.925   4.728  0.6385 -0.1895 -0.1966
  971SOL    HW1 4513   2.669   6.911   4.631 -0.1035  2.0054 -0.4169
  971SOL    HW2 4514   2.678   6.838   4.776 -0.9623 -0.9535 -1.7864
  972SOL     OW 4515   2.524   5.904   2.162  0.4743  0.4378  0.3432
  972SOL    HW1 4516   2.583   5.839   2.116  1.1899  2.2719 -1.4849
  972SOL    HW2 4517   2.553   5.914   2.258  1.8010 -0.2140  0.0291
  973SOL     OW 4518   5.108   2.927   6.647  0.3828 -0.6959 -0.4544
  973SOL    HW1 4519   5.070   3.019   6.640 -0.7062 -1.1109 -0.3022
  973SOL    HW2 4520   5.204   2.932   6.674  0.0674  0.3588  0.5587
  974SOL     OW 4521   3.137   3.821   6.419  0.0289  0.1186 -0.3922
  974SOL    HW1 4522   3.173   3.826   6.326 -2.1996  1.9797 -1.2465
  974SOL    HW2 4523   3.132   3.913   6.458  1.0266 -0.6464  1.6494
  975SOL     OW 4524   4.412   5.483   2.989  0.0392  0.3691 -0.2275
  975SOL    HW1 4525   4.414   5.502   2.891  0.0058  0.7111 -0.1631
  975SOL    HW2 4526   4.452   5.560   3.039  1.9186 -0.6222 -0.0866
  976SOL     OW 4527   6.868   6.079   0.310  0.2741 -0.0189 -0.0391
  976SOL    HW1 4528   6.923   6.022   0.371  0.1063 -1.8717 -1.5180
  976SOL    HW2 4529   6.913   6.085   0.221  0.7727  3.0490  0.3173
  977SOL     OW 4530   4.916   2.259   2.508  0.2764  0.2340 -0.1554
  977SOL    HW1 4531   4.834   2.306   2.475 -0.0902 -1.1492 -1.3196
  977SOL    HW2 4532   4.934   2.285   2.603  0.0605  2.6381 -0.7095
  978SOL     OW 4533   3.655   4.144   6.183  0.1748  0.6661 -0.4630
  978SOL    HW1 4534   3.679   4.171   6.276 -1.7980  0.9026  0.0217
  978SOL    HW2 4535   3.732   4.096   6.142  0.4642 -1.1123  1.9459
  979SOL     OW 4536   4.426   3.407   6.372  0.1840 -0.0669 -0.0191
  979SOL    HW1 4537   4.450   3.442   6.462 -0.9887 -2.9672  1.5642
  979SOL    HW2 4538   4.506   3.412   6.312  1.5610  0.2800  1.7475
  980SOL     OW 4539   4.709   2.836   1.877  0.4744 -0.0336 -0.7541
  980SOL    HW1 4540   4.804   2.819   1.850  0.1381 -0.0794 -1.9632
  980SOL    HW2 4541   4.660   2.749   1.879  0.9157 -0.2899  1.8440
  981SOL     OW 4542   1.338   1.284   1.989  0.7439 -0.1328  0.4618
  981SOL    HW1 4543   1.373   1.213   1.929  1.1365  0.9527 -0.6334
  981SOL    HW2 4544   1.402   1.360   1.991 -0.7406  1.1912 -0.2424
  982SOL     OW 4545   0.860   3.403   7.002  0.1822  0.1760  0.0981
  982SOL    HW1 4546   0.900   3.334   7.063 -0.2727  0.2058  0.4394
  982SOL    HW2 4547   0.844   3.487   7.053  0.6608  0.5062 -0.3017
  983SOL     OW 4548   4.482   4.696   6.212 -0.3238 -0.1596  0.7137
  983SOL    HW1 4549   4.398   4.645   6.231  0.0510 -1.8421 -1.7934
  983SOL    HW2 4550   4.556   4.660   6.270 -0.2237 -2.1000 -0.5333
  984SOL     OW 4551   6.361   6.599   4.367 -0.9277 -0.9755  0.7934
  984SOL    HW1 4552   6.270   6.574   4.399 -2.2542  1.4890 -0.7162
  984SOL    HW2 4553   6.396   6.675   4.423 -0.2417 -1.2512  0.7423
  985SOL     OW 4554   6.197   2.858   4.918 -0.0721 -0.1062 -0.3539
  985SOL    HW1 4555   6.196   2.786   4.986 -0.8795  0.6317  0.4317
  985SOL    HW2 4556   6.126   2.841   4.850 -0.5851  0.1996  0.1024
  986SOL     OW 4557   0.058   0.662   4.033  0.9152 -0.2687  0.4407
  986SOL    HW1 4558   0.111   0.594   3.982 -0.4662 -0.3633 -0.9406
  986SOL    HW2 4559   0.034   0.624   4.123  1.2102 -1.1318  0.1657
  987SOL     OW 4560   0.586   6.135   1.945 -0.6175 -0.5825  0.1503
  987SOL    HW1 4561   0.642   6.089   1.876  0.4332  0.1429  0.4974
  987SOL    HW2 4562   0.602   6.234   1.940 -3.1548 -0.1427 -0.8846
  988SOL     OW 4563   3.066   5.636   0.349 -0.1591  0.0107  0.2404
  988SOL    HW1 4564   3.074   5.710   0.416  1.7558  0.6672 -0.6419
  988SOL    HW2 4565   3.113   5.554   0.384 -0.3954 -0.1040  0.2932
  989SOL     OW 4566   1.971   2.358   1.837 -0.0936 -0.6166  0.5650
  989SOL    HW1 4567   1.999   2.448   1.805  0.5901 -1.1008 -0.2431
  989SOL    HW2 4568   2.005   2.288   1.774 -0.0886 -1.4863  1.5043
  990SOL     OW 4569   4.537   0.349   1.488  0.2600 -0.3989  0.1864
  990SOL    HW1 4570   4.515   0.260   1.446 -1.2104 -0.0300  0.1196
  990SOL    HW2 4571   4.608   0.336   1.557 -2.3355 -2.3399  2.7607
  991SOL     OW 4572   1.884   3.676   2.067  0.1595 -0.4557  0.0542
  991SOL    HW1 4573   1.841   3.672   1.977 -0.6187  0.2222  0.3868
  991SOL    HW2 4574   1.905   3.583   2.098 -0.2118 -0.7331 -0.5251
  992SOL     OW 4575   1.320   0.983   5.510 -0.1604  0.1416 -0.4230
  992SOL    HW1 4576   1.225   0.953   5.500 -0.7708  1.9184 -0.1752
  992SOL    HW2 4577   1.323   1.080   5.534  1.6565 -0.3068  1.4630
  993SOL     OW 4578   4.440   1.565   3.775 -0.2095 -0.3262  0.1756
  993SOL    HW1 4579   4.346   1.561   3.740 -0.8527  0.7145  1.6533
  993SOL    HW2 4580   4.439   1.601   3.869  1.4862 -2.2394  0.9961
  994SOL     OW 4581   0.239   3.019   4.251 -0.6158 -0.1912 -0.0377
  994SOL    HW1 4582   0.191   2.944   4.206 -0.0804 -0.9381  0.6216
  994SOL    HW2 4583   0.298   3.065   4.184 -0.6566 -0.5964 -0.3579
  995SOL     OW 4584   3.911   6.052   6.796 -0.2637 -0.3702  0.0010
  995SOL    HW1 4585   3.818   6.082   6.815  0.3366  1.1917  0.5993
  995SOL    HW2 4586   3.922   6.040   6.698 -0.7151  0.8193 -0.2174
  996SOL     OW 4587   0.349   3.998   3.816 -0.3469  0.3654 -0.2931
  996SOL    HW1 4588   0.339   3.920   3.755 -0.4273 -0.0684  0.2639
  996SOL    HW2 4589   0.350   3.966   3.911 -2.7231  1.2216  0.0892
  997SOL     OW 4590   5.685   0.809   6.343 -0.1181  1.1479 -0.3513
  997SOL    HW1 4591   5.603   0.751   6.337  0.3131  0.2074  1.7719
  997SOL    HW2 4592   5.758   0.770   6.288  0.0241 -0.1384  0.6976
  998SOL     OW 4593   3.456   4.942   1.147 -0.3544 -0.4565  0.3827
  998SOL    HW1 4594   3.421   4.853   1.116 -0.6081 -0.7853  1.5735
  998SOL    HW2 4595   3.402   5.015   1.105 -1.6619 -0.9217  1.1937
  999SOL     OW 4596   3.219   4.570   5.714  1.0175  0.0123  0.3636
  999SOL    HW1 4597   3.309   4.567   5.757  0.8561  0.1321  0.7098
  999SOL    HW2 4598   3.164   4.492   5.745  0.7993  0.2581  0.6085
 1000SOL     OW 4599   2.830   5.084   1.072  0.3615 -0.4854 -0.0747
 1000SOL    HW1 4600   2.896   5.083   1.147 -0.8061 -0.4999  0.9828
 1000SOL    HW2 4601   2.810   5.179   1.046  1.0881 -0.4909 -0.6684
 1001SOL     OW 4602   4.935   5.597   4.504  0.9569  0.4370 -0.0444
 1001SOL    HW1 4603   4.845   5.624   4.537  1.1265 -0.2282  1.0385
 1001SOL    HW2 4604   4.937   5.498   4.490  1.2478  0.5673 -0.9644
 1002SOL     OW 4605   1.114   2.154   2.426  0.1885  0.6060  0.6595
 1002SOL    HW1 4606   1.130   2.058   2.448  1.4886  0.0452 -2.3343
 1002SOL    HW2 4607   1.195   2.193   2.383 -0.3050  3.1070  1.8017
 1003SOL     OW 4608   3.670   4.510   6.077  0.5999 -0.3135 -0.0960
 1003SOL    HW1 4609   3.584   4.460   6.068 -0.9883  1.8194  1.9090
 1003SOL    HW2 4610   3.704   4.535   5.986  0.1593 -2.7600 -1.0103
 1004SOL     OW 4611   6.247   2.195   5.085 -0.1317  0.2988 -0.6817
 1004SOL    HW1 4612   6.324   2.133   5.075 -0.3067  0.1653 -1.2185
 1004SOL    HW2 4613   6.272   2.285   5.048  0.0613  0.5021 -0.0658
 1005SOL     OW 4614   6.359   3.617   3.489 -0.3964 -0.4562 -0.1271
 1005SOL    HW1 4615   6.266   3.612   3.453 -0.2229  0.1846 -0.6837
 1005SOL    HW2 4616   6.420   3.562   3.432 -0.4378 -0.9127  0.2633
 1006SOL     OW 4617   6.961   5.603   5.265 -0.3066 -0.4060  0.1767
 1006SOL    HW1 4618   7.035   5.660   5.230  1.1587 -1.6240  1.1661
 1006SOL    HW2 4619   6.888   5.661   5.302  0.9042  0.8325  0.6773
 1007SOL     OW 4620   3.606   6.950   0.926  0.5256  0.6726 -0.6765
 1007SOL    HW1 4621   3.575   6.913   1.013  0.7497  1.3677 -0.2933
 1007SOL    HW2 4622   3.580   7.046   0.919  2.3323  1.2217 -0.4518
 1008SOL     OW 4623   2.087   1.764   4.671  0.1114  0.4352 -0.3230
 1008SOL    HW1 4624   2.087   1.723   4.580  0.6715 -0.9558  0.2730
 1008SOL    HW2 4625   2.099   1.863   4.663  0.5407  0.2900 -1.7349
 1009SOL     OW 4626   0.313   1.819   2.549 -0.0178 -0.2686 -0.1125
 1009SOL    HW1 4627   0.294   1.877   2.470  1.2203 -0.8228 -0.8680
 1009SOL    HW2 4628   0.383   1.751   2.524 -0.4328 -1.2018  1.1305
 1010SOL     OW 4629   3.183   1.383   1.293 -0.2149 -0.2240  0.2740
 1010SOL    HW1 4630   3.155   1.290   1.318 -1.6594  0.4797  1.4255
 1010SOL    HW2 4631   3.126   1.449   1.342  0.2615  1.2767 -1.1215
 1011SOL     OW 4632   3.030   2.044   6.245 -0.4520  0.4598  0.5276
 1011SOL    HW1 4633   3.032   2.013   6.150  0.4537  3.9630 -0.7512
 1011SOL    HW2 4634   3.118   2.024   6.288  0.2223  1.4678 -0.3529
 1012SOL     OW 4635   3.253   5.531   2.450  0.9366 -0.1405  0.0905
 1012SOL    HW1 4636   3.237   5.564   2.543  2.4211  1.3325 -0.1376
 1012SOL    HW2 4637   3.343   5.487   2.445  1.2040  0.4895 -0.8168
 1013SOL     OW 4638   6.781   4.830   3.174  0.1761  0.6156  0.2044
 1013SOL    HW1 4639   6.715   4.860   3.106 -1.1551 -0.0431  1.1670
 1013SOL    HW2 4640   6.873   4.837   3.137 -0.5510 -0.5100 -1.9559
 1014SOL     OW 4641   1.968   6.568   5.211 -0.1931 -0.0293 -0.6080
 1014SOL    HW1 4642   2.058   6.604   5.235 -0.1131  0.4595 -1.5950
 1014SOL    HW2 4643   1.921   6.633   5.151 -0.0072 -1.5641 -2.5315
 1015SOL     OW 4644   5.828   6.553   4.607  0.3028  0.0957 -0.2685
 1015SOL    HW1 4645   5.750   6.607   4.576  0.1179  0.8862  1.4645
 1015SOL    HW2 4646   5.900   6.613   4.641  0.4134 -0.6889  0.9722
 1016SOL     OW 4647   5.913   4.709   0.014  0.7833 -0.0833  0.2906
 1016SOL    HW1 4648   5.994   4.760  -0.016  0.8484 -0.9086 -0.9932
 1016SOL    HW2 4649   5.908   4.622  -0.035 -0.6463 -0.2532  0.6884
 1017SOL     OW 4650   4.423   2.787   1.693  0.0136  0.2202  0.3128
 1017SOL    HW1 4651   4.457   2.744   1.777  1.3587  0.0042 -0.3258
 1017SOL    HW2 4652   4.428   2.886   1.703  1.6539  0.1983 -0.0706
 1018SOL     OW 4653   2.562   3.840   4.976 -0.5868  0.3382  0.4588
 1018SOL    HW1 4654   2.561   3.741   4.973  1.9748  0.2426  0.5958
 1018SOL    HW2 4655   2.653   3.872   5.006 -1.3609  2.7089  0.5007
 1019SOL     OW 4656   6.907   5.585   2.033  0.3677  0.0493  0.0939
 1019SOL    HW1 4657   6.977   5.522   2.066  0.2834  0.0314  0.2397
 1019SOL    HW2 4658   6.828   5.581   2.094  0.1634 -0.0701 -0.1767
 1020SOL     OW 4659   0.510   3.527   6.731 -0.2033  0.0056 -0.1787
 1020SOL    HW1 4660   0.415   3.496   6.737  0.1626 -1.0002  0.7088
 1020SOL    HW2 4661   0.550   3.492   6.647 -0.8958  1.3020 -1.0871
 1021SOL     OW 4662   3.915   3.749   1.057 -0.4892  0.0831 -1.0873
 1021SOL    HW1 4663   4.004   3.750   1.012 -0.4664 -0.1701 -1.0453
 1021SOL    HW2 4664   3.853   3.689   1.008 -0.5908  0.1357 -1.0245
 1022SOL     OW 4665   6.987   5.752   2.908 -0.7552 -0.0915  0.0442
 1022SOL    HW1 4666   6.951   5.673   2.957 -0.9028  0.6036  1.0903
 1022SOL    HW2 4667   7.019   5.820   2.974  0.1521  0.3661 -0.8509
 1023SOL     OW 4668   1.617   2.834   6.972  0.4066  0.6439  0.4427
 1023SOL    HW1 4669   1.585   2.752   6.923 -1.3716  2.3111 -1.3668
 1023SOL    HW2 4670   1.712   2.852   6.946 -0.0824  0.7377 -1.4953
 1024SOL     OW 4671   1.103   6.144   1.434  0.2638  0.1473  0.1765
 1024SOL    HW1 4672   1.077   6.224   1.489  1.1908  0.7533 -0.2364
 1024SOL    HW2 4673   1.083   6.061   1.485 -2.5181  0.5412 -0.1567
 1025SOL     OW 4674   6.033   3.939   2.073  0.0262 -0.0559  0.3390
 1025SOL    HW1 4675   5.944   3.951   2.117  0.6008 -1.1035  1.8725
 1025SOL    HW2 4676   6.093   4.014   2.099 -0.2721  0.4487 -0.3915
 1026SOL     OW 4677   0.292   3.254   3.733  0.2572 -0.4389 -0.0544
 1026SOL    HW1 4678   0.341   3.324   3.681 -0.3199  0.8654  1.0884
 1026SOL    HW2 4679   0.344   3.168   3.731  1.0227  0.0182 -1.4134
 1027SOL     OW 4680   7.015   2.509   6.458  0.6949  0.0214  0.3529
 1027SOL    HW1 4681   7.059   2.476   6.542  2.4698  1.3863  0.0095
 1027SOL    HW2 4682   7.004   2.608   6.463 -2.1348 -0.1951  0.2650
 1028SOL     OW 4683   5.191   5.366   5.123 -0.2673 -0.7633  0.4877
 1028SOL    HW1 4684   5.193   5.466   5.120 -1.1980 -0.6958  1.4191
 1028SOL    HW2 4685   5.247   5.334   5.199  0.4192 -0.9827 -0.1022
 1029SOL     OW 4686   4.626   3.723   6.456 -0.0317 -0.8651  0.2718
 1029SOL    HW1 4687   4.553   3.768   6.405  0.3217  0.9753  1.2956
 1029SOL    HW2 4688   4.586   3.668   6.530 -0.4350 -1.4053 -0.3402
 1030SOL     OW 4689   2.849   4.703   5.845 -0.1888 -0.2338  0.3826
 1030SOL    HW1 4690   2.908   4.741   5.916 -1.2386  1.8612  0.2294
 1030SOL    HW2 4691   2.756   4.695   5.881 -0.4927 -0.2381 -0.3852
 1031SOL     OW 4692   6.172   2.801   3.803  0.2113 -0.6631  0.4878
 1031SOL    HW1 4693   6.199   2.731   3.737 -0.1528 -0.7058  0.3830
 1031SOL    HW2 4694   6.192   2.892   3.766  0.9202 -0.7111  0.7276
 1032SOL     OW 4695   3.137   6.356   0.538  0.4063  1.0838  0.3900
 1032SOL    HW1 4696   3.214   6.316   0.489 -0.1831  0.7163 -0.2417
 1032SOL    HW2 4697   3.096   6.429   0.483  0.8161  1.8655  1.0843
 1033SOL     OW 4698   3.952   0.687   1.190 -0.3600 -0.3054  0.0076
 1033SOL    HW1 4699   3.930   0.703   1.286 -1.8336 -0.6948 -0.2483
 1033SOL    HW2 4700   3.911   0.601   1.160 -0.8059  0.3213 -1.2398
 1034SOL     OW 4701   6.588   6.661   0.374  0.0042  0.2032  0.2155
 1034SOL    HW1 4702   6.669   6.657   0.432 -1.8593 -3.5362  2.9591
 1034SOL    HW2 4703   6.526   6.732   0.408  1.2606  1.9108 -0.8721
 1035SOL     OW 4704   3.414   5.559   5.603 -0.0813  0.5852 -0.6194
 1035SOL    HW1 4705   3.338   5.494   5.610 -0.0925  0.5950 -0.6469
 1035SOL    HW2 4706   3.501   5.509   5.603  0.0037  0.6724  1.1136
 1036SOL     OW 4707   0.722   2.930   5.351  0.0871 -0.7996 -0.7439
 1036SOL    HW1 4708   0.780   3.004   5.318  1.1155  0.3076  2.9649
 1036SOL    HW2 4709   0.744   2.846   5.302  5.7596 -0.7242  0.8768
 1037SOL     OW 4710   5.103   1.259   5.751  0.3230 -0.5553  0.3118
 1037SOL    HW1 4711   5.121   1.356   5.770  0.3704 -0.1910 -1.4497
 1037SOL    HW2 4712   5.006   1.246   5.732  0.8027 -0.1718 -2.8685
 1038SOL     OW 4713   1.279   2.014   0.176  0.1237  0.0455 -1.0314
 1038SOL    HW1 4714   1.316   1.967   0.256  0.4860 -0.3615 -1.4298
 1038SOL    HW2 4715   1.187   2.047   0.196  0.7541  1.2386  0.0527
 1039SOL     OW 4716   0.314   0.932   2.979  0.0856  0.0343 -0.0495
 1039SOL    HW1 4717   0.282   0.837   2.977 -0.2830  0.0923  1.7162
 1039SOL    HW2 4718   0.320   0.967   2.885 -1.0559 -1.3011 -0.6567
 1040SOL     OW 4719   1.217   5.350   3.230 -0.7695 -0.2528 -0.3544
 1040SOL    HW1 4720   1.219   5.388   3.323  0.0766  2.4440 -1.3782
 1040SOL    HW2 4721   1.249   5.256   3.233 -0.1667 -0.0551  2.0284
 1041SOL     OW 4722   6.215   4.654   5.731  0.5037  0.2324  0.1205
 1041SOL    HW1 4723   6.193   4.595   5.653 -0.4234 -0.0828  0.5953
 1041SOL    HW2 4724   6.311   4.680   5.727  0.5942 -0.1821 -0.8537
 1042SOL     OW 4725   4.527   3.641   3.476 -0.0232 -0.2238 -0.0121
 1042SOL    HW1 4726   4.606   3.598   3.433 -0.0919 -0.3371 -0.0243
 1042SOL    HW2 4727   4.527   3.620   3.574  0.7070  0.8787  0.2530
 1043SOL     OW 4728   5.887   2.867   1.194 -0.5604 -0.4817 -0.3488
 1043SOL    HW1 4729   5.842   2.870   1.105 -1.1363  2.2786 -0.0450
 1043SOL    HW2 4730   5.828   2.908   1.263  1.0932  0.2372  0.7090
 1044SOL     OW 4731   4.918   6.142   2.472 -0.0516 -0.2106 -0.6367
 1044SOL    HW1 4732   4.948   6.050   2.497  1.0805  0.7056  1.6430
 1044SOL    HW2 4733   4.970   6.174   2.393  2.1029 -0.2375  0.6960
 1045SOL     OW 4734   0.145   1.563   3.020  0.6771 -0.1953 -0.2555
 1045SOL    HW1 4735   0.193   1.602   2.942  3.8188 -1.0951  1.0825
 1045SOL    HW2 4736   0.191   1.589   3.105 -1.6282 -0.6344  1.2200
 1046SOL     OW 4737   1.970   3.793   5.510 -0.1409 -0.1933  0.7348
 1046SOL    HW1 4738   2.032   3.734   5.562  0.7720  0.3194  0.2406
 1046SOL    HW2 4739   2.022   3.858   5.456 -1.1196  0.5045  0.5914
 1047SOL     OW 4740   5.636   3.018   4.974 -0.1503 -0.3466 -0.6345
 1047SOL    HW1 4741   5.571   2.943   4.984 -0.0524 -0.5112 -1.2113
 1047SOL    HW2 4742   5.699   3.018   5.051 -3.4565  2.4427  2.4121
 1048SOL     OW 4743   5.486   2.824   1.406  0.5988 -0.4038 -0.0911
 1048SOL    HW1 4744   5.458   2.827   1.310 -0.0610 -0.3807  0.1009
 1048SOL    HW2 4745   5.535   2.738   1.424  1.4867 -0.0261 -0.6522
 1049SOL     OW 4746   1.160   6.124   0.856  0.0594  0.3603  0.4067
 1049SOL    HW1 4747   1.109   6.201   0.894 -0.1026  0.4792 -0.0445
 1049SOL    HW2 4748   1.130   6.107   0.762  0.4313  0.0536  0.3396
 1050SOL     OW 4749   6.592   6.742   2.789 -0.3871  0.3111 -0.1296
 1050SOL    HW1 4750   6.644   6.811   2.839 -0.8973  1.3563 -1.0141
 1050SOL    HW2 4751   6.599   6.654   2.837  1.4633  0.6219  0.2174
 1051SOL     OW 4752   5.924   5.243   4.006  0.0697  0.4568  0.6967
 1051SOL    HW1 4753   5.880   5.181   4.071  0.0886  0.0823  0.3620
 1051SOL    HW2 4754   6.023   5.227   4.007 -0.0659 -0.7456 -0.6057
 1052SOL     OW 4755   6.129   4.365   4.953 -0.5764 -0.2665 -0.0354
 1052SOL    HW1 4756   6.053   4.330   4.899 -1.3624  1.1532  0.1017
 1052SOL    HW2 4757   6.101   4.373   5.049  0.7230 -2.5255  0.6198
 1053SOL     OW 4758   1.517   3.785   0.882 -0.7757 -0.1491  0.8265
 1053SOL    HW1 4759   1.558   3.695   0.897 -1.7380 -0.7765 -0.1400
 1053SOL    HW2 4760   1.417   3.777   0.881 -0.8741  0.9353  0.7841
 1054SOL     OW 4761   3.448   2.037   1.686  0.0571  0.3216 -0.6470
 1054SOL    HW1 4762   3.361   2.034   1.638 -1.8837 -0.2495  2.5792
 1054SOL    HW2 4763   3.464   2.129   1.720  0.3854  0.2664 -0.6459
 1055SOL     OW 4764   4.982   5.952   5.172  0.0176  0.2659  0.4367
 1055SOL    HW1 4765   4.964   5.873   5.113  3.2505 -0.5451  0.3090
 1055SOL    HW2 4766   5.046   6.013   5.126 -1.8520  2.6534  0.8560
 1056SOL     OW 4767   3.385   3.594   5.762  0.0310  0.1404 -0.6421
 1056SOL    HW1 4768   3.410   3.640   5.848  0.1965  1.8393 -1.5625
 1056SOL    HW2 4769   3.286   3.598   5.750 -0.1806 -1.5067  0.1957
 1057SOL     OW 4770   4.279   6.958   1.527 -0.1456  0.5332 -0.6060
 1057SOL    HW1 4771   4.350   6.994   1.466  1.4060  1.1520  1.4126
 1057SOL    HW2 4772   4.318   6.947   1.619 -2.3162 -0.5094  0.2528
 1058SOL     OW 4773   6.883   0.309   3.849  0.0407 -0.5665  0.3788
 1058SOL    HW1 4774   6.889   0.223   3.797 -1.3847 -0.2728 -0.3276
 1058SOL    HW2 4775   6.812   0.367   3.808  0.3318  0.5499  1.4255
 1059SOL     OW 4776   5.603   0.766   0.828  0.7110 -0.4951 -0.2614
 1059SOL    HW1 4777   5.524   0.773   0.889  0.7364  1.3430 -0.4000
 1059SOL    HW2 4778   5.681   0.729   0.879  0.0725 -1.2869  0.1631
 1060SOL     OW 4779   0.313   5.240   5.733 -0.4310 -0.2994 -0.4377
 1060SOL    HW1 4780   0.249   5.298   5.781  0.8077  2.6030 -2.0462
 1060SOL    HW2 4781   0.274   5.212   5.645 -0.6450 -1.1609 -0.0827
 1061SOL     OW 4782   5.824   2.319   1.539  0.2403 -0.2921  0.2592
 1061SOL    HW1 4783   5.838   2.392   1.471  1.7277 -1.3134 -0.5828
 1061SOL    HW2 4784   5.735   2.331   1.582 -0.0009  1.4075 -0.6176
 1062SOL     OW 4785   4.921   3.520   3.208 -0.3883  0.6058  0.3154
 1062SOL    HW1 4786   4.939   3.468   3.125  1.4949 -1.4667  1.8898
 1062SOL    HW2 4787   5.005   3.565   3.238 -1.4053  2.6039  0.3405
 1063SOL     OW 4788   2.822   0.623   5.164  0.0920  0.3506  0.2925
 1063SOL    HW1 4789   2.836   0.715   5.200  0.4319  0.6068 -0.4716
 1063SOL    HW2 4790   2.728   0.593   5.184 -1.1639  2.1947 -2.2549
 1064SOL     OW 4791   4.682   2.920   5.652 -0.6418 -0.4581  0.4065
 1064SOL    HW1 4792   4.778   2.950   5.651 -1.0725  1.0390  1.3870
 1064SOL    HW2 4793   4.651   2.912   5.747 -1.6915 -0.2785  0.0833
 1065SOL     OW 4794   4.688   1.386   1.799  0.0246  0.0500  0.4047
 1065SOL    HW1 4795   4.708   1.303   1.851 -2.5077 -1.0397 -0.1969
 1065SOL    HW2 4796   4.628   1.446   1.853  0.5628  0.7687  0.2226
 1066SOL     OW 4797   3.255   0.405   3.080  0.0820 -0.2433  0.4239
 1066SOL    HW1 4798   3.179   0.427   3.019  0.3753  0.0025  0.1420
 1066SOL    HW2 4799   3.248   0.461   3.163  0.8267  0.9527 -0.2918
 1067SOL     OW 4800   0.815   1.666   5.664  0.3052  0.5303  0.3084
 1067SOL    HW1 4801   0.778   1.758   5.660  0.9218  0.7524 -0.7582
 1067SOL    HW2 4802   0.741   1.601   5.681 -0.6358  0.9462 -1.8989
 1068SOL     OW 4803   2.818   4.313   5.167 -0.1661 -0.0378  0.1385
 1068SOL    HW1 4804   2.800   4.404   5.129  0.3869 -0.1434 -0.3830
 1068SOL    HW2 4805   2.910   4.284   5.142  0.0981 -0.2418  1.2997
 1069SOL     OW 4806   4.595   1.176   6.754 -0.2733  0.0774  0.0566
 1069SOL    HW1 4807   4.544   1.100   6.795 -1.2513  0.4609 -0.4089
 1069SOL    HW2 4808   4.531   1.238   6.710  0.7620 -0.6172 -2.5979
 1070SOL     OW 4809   3.755   6.804   6.381  0.2520  0.2315 -0.0436
 1070SOL    HW1 4810   3.728   6.836   6.472 -2.1513  4.9564 -2.0554
 1070SOL    HW2 4811   3.830   6.861   6.347 -1.5589  1.4543 -2.3650
 1071SOL     OW 4812   2.645   5.326   5.990 -0.7039  0.2495 -0.2213
 1071SOL    HW1 4813   2.607   5.263   5.922  1.5579 -0.8064 -0.5727
 1071SOL    HW2 4814   2.627   5.420   5.961 -1.0545 -0.1892 -1.5111
 1072SOL     OW 4815   5.098   1.416   0.965  0.0644  0.0790 -0.1485
 1072SOL    HW1 4816   5.059   1.325   0.949 -0.5626  0.3387 -0.1258
 1072SOL    HW2 4817   5.197   1.408   0.976 -0.0866 -0.7230  0.7678
 1073SOL     OW 4818   0.995   4.128   1.855 -0.0607 -0.1102 -0.3619
 1073SOL    HW1 4819   0.963   4.057   1.918  0.0291 -0.5833 -0.8452
 1073SOL    HW2 4820   1.003   4.215   1.904  0.9683 -0.6844  0.5239
 1074SOL     OW 4821   4.311   4.332   5.291 -0.5625 -0.7874  0.4654
 1074SOL    HW1 4822   4.363   4.414   5.310  0.2510 -1.6680  2.2979
 1074SOL    HW2 4823   4.267   4.340   5.202  2.6914 -0.0077 -1.2147
 1075SOL     OW 4824   4.923   3.488   1.036  0.4482 -0.0293  0.3600
 1075SOL    HW1 4825   4.923   3.570   0.978 -0.5605 -0.0918  0.2558
 1075SOL    HW2 4826   4.840   3.436   1.020 -0.1269  0.2441  2.2761
 1076SOL     OW 4827   5.058   5.717   5.348 -0.4973  0.2052  0.0357
 1076SOL    HW1 4828   5.101   5.671   5.270  0.8489 -1.5608  1.7109
 1076SOL    HW2 4829   5.052   5.815   5.329  1.8026  0.1565 -1.4218
 1077SOL     OW 4830   5.116   0.924   1.649 -0.2663 -0.9036 -0.1346
 1077SOL    HW1 4831   5.065   0.838   1.650 -0.9991 -0.4743  0.2019
 1077SOL    HW2 4832   5.059   0.997   1.612  0.3699 -0.5632 -0.4770
 1078SOL     OW 4833   2.808   5.018   6.236 -0.1604 -0.1187  0.2860
 1078SOL    HW1 4834   2.790   5.082   6.312  2.4145  0.7344  0.3038
 1078SOL    HW2 4835   2.837   5.070   6.156  3.1933 -1.1434  0.6479
 1079SOL     OW 4836   3.374   3.361   3.033 -0.0658 -0.1154 -0.2457
 1079SOL    HW1 4837   3.290   3.374   2.980 -0.4432  0.5580  0.4896
 1079SOL    HW2 4838   3.376   3.426   3.109  1.5289  0.4422 -0.7313
 1080SOL     OW 4839   3.314   1.012   4.630 -0.0062 -0.3778  0.2708
 1080SOL    HW1 4840   3.293   0.915   4.626 -0.1546 -0.3201 -0.4887
 1080SOL    HW2 4841   3.387   1.033   4.564 -0.1661  0.0724  0.2334
 1081SOL     OW 4842   4.292   2.156   3.368  0.8802 -0.2338  0.2162
 1081SOL    HW1 4843   4.250   2.162   3.278  1.4357  0.2630 -0.0136
 1081SOL    HW2 4844   4.390   2.176   3.361  0.8109  0.4206  1.0255
 1082SOL     OW 4845   1.783   5.841   2.153  0.2197  0.1706 -0.4633
 1082SOL    HW1 4846   1.872   5.849   2.109 -0.0853 -0.4371 -1.2108
 1082SOL    HW2 4847   1.725   5.918   2.126  0.2528  0.1458 -0.6063
 1083SOL     OW 4848   4.815   5.916   3.230 -0.3415  0.3343  0.1896
 1083SOL    HW1 4849   4.716   5.905   3.225 -0.0550 -2.5024 -0.5206
 1083SOL    HW2 4850   4.847   5.969   3.151 -1.2056  0.5789 -0.0002
 1084SOL     OW 4851   0.372   4.719   2.281  0.3333 -0.8539  0.3115
 1084SOL    HW1 4852   0.390   4.799   2.224  0.6764 -0.7771  0.5227
 1084SOL    HW2 4853   0.274   4.713   2.300  0.3268 -0.3659  0.4580
 1085SOL     OW 4854   4.895   6.824   3.602  0.1499  0.0550 -0.3250
 1085SOL    HW1 4855   4.831   6.776   3.542 -1.2489 -0.0844  1.2192
 1085SOL    HW2 4856   4.979   6.771   3.611 -0.8009 -1.4310  0.1999
 1086SOL     OW 4857   3.125   1.559   4.296 -0.1239  0.8242 -0.5579
 1086SOL    HW1 4858   3.099   1.478   4.243 -0.4332  0.0875  0.6761
 1086SOL    HW2 4859   3.066   1.636   4.272 -1.3341  0.0557 -0.1359
 1087SOL     OW 4860   5.289   3.754   0.895 -0.2529  0.1578 -0.7825
 1087SOL    HW1 4861   5.286   3.677   0.959  0.1067 -0.0318 -0.9857
 1087SOL    HW2 4862   5.231   3.828   0.928  1.3337  0.7992  0.7279
 1088SOL     OW 4863   0.709   5.426   5.349  0.0408 -0.3704 -0.1958
 1088SOL    HW1 4864   0.638   5.411   5.418 -0.0580 -2.0523 -0.6160
 1088SOL    HW2 4865   0.721   5.343   5.295  0.8675  0.5703 -1.5170
 1089SOL     OW 4866   3.750   1.075   6.057  0.5818  0.1074 -0.1776
 1089SOL    HW1 4867   3.663   1.029   6.075  1.2097 -1.0238  0.0842
 1089SOL    HW2 4868   3.792   1.102   6.143  1.3370 -0.9991 -0.1836
 1090SOL     OW 4869   6.686   3.001   0.436 -0.4075  0.2773 -0.3450
 1090SOL    HW1 4870   6.774   3.046   0.420  0.6057 -1.5356 -0.2053
 1090SOL    HW2 4871   6.671   2.992   0.534 -1.0900  1.1716 -0.3578
 1091SOL     OW 4872   3.945   2.509   0.580  0.4512 -0.1934 -0.0181
 1091SOL    HW1 4873   3.995   2.546   0.658  0.7552 -1.1454  0.2562
 1091SOL    HW2 4874   3.961   2.567   0.500 -1.1651  1.7295  0.9627
 1092SOL     OW 4875   1.548   6.284   0.752  0.2706 -0.3836  0.0416
 1092SOL    HW1 4876   1.645   6.274   0.777  0.5270  1.3443 -0.1404
 1092SOL    HW2 4877   1.502   6.196   0.765  1.5451 -0.9012  1.5051
 1093SOL     OW 4878   3.089   1.932   5.146 -0.4081  0.8851  0.4139
 1093SOL    HW1 4879   3.093   1.844   5.195 -0.4532  0.9885  0.6051
 1093SOL    HW2 4880   3.018   1.928   5.076  0.3654  0.3689 -0.3741
 1094SOL     OW 4881   6.110   1.081   0.338  0.0036 -0.6932 -0.1948
 1094SOL    HW1 4882   6.157   1.146   0.278  1.2914  0.0241  1.5031
 1094SOL    HW2 4883   6.106   0.991   0.295  0.6419 -0.1370 -1.4460
 1095SOL     OW 4884   6.067   4.436   5.247 -0.1585  0.1399 -0.5811
 1095SOL    HW1 4885   6.093   4.376   5.323 -0.5197 -0.1133 -0.6574
 1095SOL    HW2 4886   6.096   4.530   5.268  0.2425 -0.0250 -0.3800
 1096SOL     OW 4887   6.102   2.926   6.997 -0.2727 -0.0601 -0.4334
 1096SOL    HW1 4888   6.165   2.992   6.956  0.6258 -0.4777  0.2219
 1096SOL    HW2 4889   6.092   2.947   7.095 -0.2001 -0.7156 -0.2825
 1097SOL     OW 4890   6.240   4.810   0.162  0.3128  0.6033  0.3241
 1097SOL    HW1 4891   6.158   4.814   0.221  0.0400  0.2858 -0.0257
 1097SOL    HW2 4892   6.318   4.848   0.211 -0.1317  1.2988  0.5135
 1098SOL     OW 4893   6.094   1.487   5.863  0.0344 -0.6086  0.2343
 1098SOL    HW1 4894   6.105   1.392   5.835 -0.5780 -0.3315 -1.0150
 1098SOL    HW2 4895   6.121   1.547   5.788 -0.2117  0.1967  0.7771
 1099SOL     OW 4896   2.167   4.679   4.245  0.5558  0.0025 -0.3193
 1099SOL    HW1 4897   2.109   4.609   4.202  3.3272 -2.9156  0.3399
 1099SOL    HW2 4898   2.216   4.729   4.173 -1.3704  1.3511 -0.7905
 1100SOL     OW 4899   4.099   2.176   6.061 -0.5321 -0.2631 -0.3127
 1100SOL    HW1 4900   4.169   2.248   6.065  0.1859 -0.9527 -0.3179
 1100SOL    HW2 4901   4.063   2.170   5.968 -1.6309  1.0456 -0.0075
 1101SOL     OW 4902   5.612   2.333   5.001  0.4611  0.0086  0.0065
 1101SOL    HW1 4903   5.629   2.416   5.054 -0.0319 -0.1732  0.4631
 1101SOL    HW2 4904   5.515   2.310   5.006  0.6038 -0.6306 -0.0646
 1102SOL     OW 4905   4.739   0.832   6.555  0.7674  0.0071  0.5237
 1102SOL    HW1 4906   4.830   0.859   6.524  1.4771 -2.3607  0.3299
 1102SOL    HW2 4907   4.747   0.775   6.637 -0.4505 -0.8703  0.0665
 1103SOL     OW 4908   2.633   4.050   0.403 -0.6359  0.7454  0.3030
 1103SOL    HW1 4909   2.615   4.128   0.344 -1.2521  2.6036  2.7807
 1103SOL    HW2 4910   2.729   4.050   0.430 -0.4282  0.0936 -0.4253
 1104SOL     OW 4911   2.126   3.511   1.040 -0.3332 -0.1782 -0.0092
 1104SOL    HW1 4912   2.034   3.548   1.057 -0.9370 -1.8612  0.6666
 1104SOL    HW2 4913   2.149   3.522   0.943 -1.2215  0.3301 -0.1773
 1105SOL     OW 4914   1.440   4.596   1.237  0.5207  0.1049 -0.0271
 1105SOL    HW1 4915   1.351   4.638   1.256  0.2818 -1.4171  2.8902
 1105SOL    HW2 4916   1.512   4.664   1.251 -0.0441  0.5057  1.1313
 1106SOL     OW 4917   6.415   4.621   2.801 -0.2468  0.7417  0.0514
 1106SOL    HW1 4918   6.424   4.608   2.899  1.2109 -2.9028 -0.4016
 1106SOL    HW2 4919   6.321   4.603   2.773 -0.7809  2.2700  0.7651
 1107SOL     OW 4920   1.644   3.137   4.664 -0.4160 -0.1962 -0.5723
 1107SOL    HW1 4921   1.555   3.120   4.706  0.1038 -1.0898  0.2077
 1107SOL    HW2 4922   1.691   3.211   4.713 -0.3904 -0.2809 -0.4699
 1108SOL     OW 4923   2.161   5.517   0.266 -0.0834  0.1382 -0.2988
 1108SOL    HW1 4924   2.091   5.446   0.265  0.7131 -0.6729 -0.1657
 1108SOL    HW2 4925   2.137   5.588   0.200 -1.6493  0.5131  0.6197
 1109SOL     OW 4926   3.157   0.340   1.282  1.1615  0.3093  0.4490
 1109SOL    HW1 4927   3.111   0.401   1.217 -0.7509 -0.6681  0.8030
 1109SOL    HW2 4928   3.105   0.255   1.291  1.7388  0.1208  2.7207
 1110SOL     OW 4929   3.493   0.504   3.032 -0.0647  0.0434  0.3283
 1110SOL    HW1 4930   3.399   0.474   3.049 -0.2954  0.3555 -0.3533
 1110SOL    HW2 4931   3.522   0.565   3.105 -0.5618  0.3233  0.2952
 1111SOL     OW 4932   1.064   2.794   2.101  0.1199 -0.3006  0.0798
 1111SOL    HW1 4933   0.997   2.779   2.174 -1.1121  0.2136 -0.9009
 1111SOL    HW2 4934   1.063   2.890   2.074 -1.1615 -0.8662 -2.1485
 1112SOL     OW 4935   2.135   3.143   6.890  0.1962  0.0625 -0.4871
 1112SOL    HW1 4936   2.205   3.163   6.958 -0.3280  0.7081 -0.1281
 1112SOL    HW2 4937   2.085   3.226   6.868 -0.6230 -0.4336 -0.5434
 1113SOL     OW 4938   5.510   3.904   5.109  0.6084  0.4401  0.4331
 1113SOL    HW1 4939   5.592   3.860   5.072  0.1916 -1.1798  1.3366
 1113SOL    HW2 4940   5.481   3.977   5.048  1.9301  0.1261 -0.6120
 1114SOL     OW 4941   3.790   6.829   1.419  0.0326 -0.3734  0.8626
 1114SOL    HW1 4942   3.841   6.851   1.502  0.0881  0.6767  0.5639
 1114SOL    HW2 4943   3.769   6.913   1.370 -2.9412 -0.6164  1.5208
 1115SOL     OW 4944   4.377   0.805   2.531 -0.3330 -0.2232  0.2975
 1115SOL    HW1 4945   4.463   0.790   2.483  0.1108 -0.9370  1.2649
 1115SOL    HW2 4946   4.300   0.783   2.471  0.0885  1.8620 -1.0642
 1116SOL     OW 4947   1.055   3.724   1.348 -0.6265 -0.4761 -0.0719
 1116SOL    HW1 4948   1.139   3.673   1.366 -0.5520 -0.1331  0.6066
 1116SOL    HW2 4949   0.976   3.667   1.370 -0.5393 -0.2172  0.9552
 1117SOL     OW 4950   1.197   1.225   4.536  0.7905 -0.3384 -1.4176
 1117SOL    HW1 4951   1.289   1.234   4.498  0.9071  0.2455 -0.9970
 1117SOL    HW2 4952   1.138   1.296   4.497  0.3517 -1.0782 -2.1504
 1118SOL     OW 4953   5.550   2.774   0.195  0.0977  0.1949  0.1584
 1118SOL    HW1 4954   5.506   2.709   0.257 -1.4062 -0.5889 -1.6093
 1118SOL    HW2 4955   5.643   2.745   0.176  0.3725  0.1193  1.5399
 1119SOL     OW 4956   1.971   2.905   3.882 -0.0737 -0.8122 -0.6749
 1119SOL    HW1 4957   2.033   2.871   3.953 -3.0657 -0.0861  2.5680
 1119SOL    HW2 4958   1.885   2.853   3.885 -1.9897  2.1145 -0.6085
 1120SOL     OW 4959   5.477   5.305   6.955  0.4344 -0.3058  0.2560
 1120SOL    HW1 4960   5.510   5.212   6.965 -0.0402 -0.4889  0.1355
 1120SOL    HW2 4961   5.378   5.307   6.969  0.5056  0.2520  0.7444
 1121SOL     OW 4962   5.368   1.337   4.903 -0.2917  0.0771 -0.3526
 1121SOL    HW1 4963   5.430   1.368   4.975 -0.0476 -2.2171  0.5141
 1121SOL    HW2 4964   5.274   1.338   4.936 -0.3344  0.2797 -0.4765
 1122SOL     OW 4965   3.476   6.137   3.965  0.2333  0.0960 -0.5047
 1122SOL    HW1 4966   3.491   6.140   4.064 -1.4663  0.1116 -0.2248
 1122SOL    HW2 4967   3.429   6.220   3.935  0.3966 -0.0792 -1.2684
 1123SOL     OW 4968   5.548   6.350   5.094 -0.2708 -0.1671  0.0188
 1123SOL    HW1 4969   5.465   6.404   5.085  0.4047  0.7502 -0.9598
 1123SOL    HW2 4970   5.553   6.311   5.186 -0.5875  1.7876  0.9237
 1124SOL     OW 4971   4.983   4.458   5.341 -0.2219 -0.1535  0.0762
 1124SOL    HW1 4972   5.018   4.488   5.252  0.4179 -2.0297 -0.3526
 1124SOL    HW2 4973   4.883   4.462   5.340 -0.3067 -1.4826 -1.2752
 1125SOL     OW 4974   5.882   1.547   1.429 -0.0843  0.6042  0.2728
 1125SOL    HW1 4975   5.891   1.626   1.368 -0.2223  1.1859  0.9979
 1125SOL    HW2 4976   5.946   1.556   1.505  1.1060 -0.8068 -0.4818
 1126SOL     OW 4977   3.556   1.365   4.677 -0.6252 -0.1557 -0.0875
 1126SOL    HW1 4978   3.515   1.377   4.767 -3.6581 -0.3619 -1.2888
 1126SOL    HW2 4979   3.597   1.274   4.671  2.6563  1.0137  2.0246
 1127SOL     OW 4980   2.835   4.863   3.060 -0.0910  0.3892  0.3712
 1127SOL    HW1 4981   2.934   4.856   3.066  0.1364  2.6255  0.1475
 1127SOL    HW2 4982   2.805   4.834   2.969  0.1580 -1.5580  0.8612
 1128SOL     OW 4983   3.565   3.650   6.818  0.4190  0.1515 -0.4560
 1128SOL    HW1 4984   3.638   3.700   6.771  0.2433  0.9957  0.1521
 1128SOL    HW2 4985   3.487   3.640   6.756  0.6632  0.1498 -0.7674
 1129SOL     OW 4986   3.685   0.111   4.126  0.7918  0.0210  0.0069
 1129SOL    HW1 4987   3.784   0.111   4.143  0.7292 -4.5929  2.0978
 1129SOL    HW2 4988   3.639   0.062   4.200 -3.3911  3.2802 -0.0881
 1130SOL     OW 4989   1.284   6.974   4.432  0.3386  0.2988  0.3791
 1130SOL    HW1 4990   1.249   7.037   4.362 -1.4460  0.1655  1.1205
 1130SOL    HW2 4991   1.223   6.974   4.511  0.5665 -1.9937  0.6199
 1131SOL     OW 4992   0.788   1.143   0.969  0.3363 -0.5374  0.4249
 1131SOL    HW1 4993   0.745   1.233   0.976 -0.8335 -1.1007  0.7665
 1131SOL    HW2 4994   0.802   1.105   1.060  1.0793 -0.5956  0.2939
 1132SOL     OW 4995   6.951   1.553   1.328  0.5712 -0.0561 -0.6241
 1132SOL    HW1 4996   6.859   1.572   1.359  0.6668  0.1682 -0.4773
 1132SOL    HW2 4997   6.964   1.590   1.236  0.7779  0.6499 -0.3136
 1133SOL     OW 4998   4.754   0.557   1.350  0.4292  0.0463 -0.2036
 1133SOL    HW1 4999   4.782   0.481   1.292 -2.3416 -1.6527  0.5065
 1133SOL    HW2 5000   4.705   0.625   1.295  2.3067  1.0603 -0.7086
 1134SOL     OW 5001   1.043   4.740   0.667 -0.1883  0.5562  0.2605
 1134SOL    HW1 5002   1.137   4.774   0.670 -0.3353  0.9049  1.2033
 1134SOL    HW2 5003   1.042   4.651   0.621  0.3371  1.3449 -1.3720
 1135SOL     OW 5004   4.899   1.380   3.698  0.4780  0.5104  0.2296
 1135SOL    HW1 5005   4.801   1.389   3.678  0.5714  1.5603  0.1563
 1135SOL    HW2 5006   4.952   1.418   3.622  0.9955 -1.2773 -0.3491
 1136SOL     OW 5007   0.840   3.157   5.764 -0.0212  0.2145  0.1516
 1136SOL    HW1 5008   0.815   3.238   5.710  2.2724  0.5530 -0.5109
 1136SOL    HW2 5009   0.842   3.180   5.861 -0.8338  0.5340  0.0992
 1137SOL     OW 5010   6.247   3.280   2.481  0.5666  0.2049 -0.5330
 1137SOL    HW1 5011   6.282   3.355   2.425  0.7543  0.2510 -0.3553
 1137SOL    HW2 5012   6.323   3.223   2.512  0.4054 -0.1874 -0.8474
 1138SOL     OW 5013   1.030   0.680   0.705 -0.3021  0.2797 -0.0887
 1138SOL    HW1 5014   1.058   0.585   0.690  1.8447  0.9666 -0.7445
 1138SOL    HW2 5015   1.030   0.699   0.804  0.9797  0.0435 -0.0207
 1139SOL     OW 5016   5.243   5.821   1.028 -0.1110 -0.2656 -0.3265
 1139SOL    HW1 5017   5.190   5.904   1.012  1.5022  0.5814 -1.5309
 1139SOL    HW2 5018   5.201   5.745   0.978 -0.4680  0.2749 -0.8682
 1140SOL     OW 5019   0.574   5.365   6.623  0.0558  0.3751  0.5865
 1140SOL    HW1 5020   0.502   5.307   6.588 -0.2225  1.1203 -0.1062
 1140SOL    HW2 5021   0.629   5.314   6.690 -0.8132 -0.3401  0.7714
 1141SOL     OW 5022   4.061   4.943   2.672 -0.2218 -0.1396  0.5685
 1141SOL    HW1 5023   4.152   4.985   2.672 -0.8113  1.2313 -0.4026
 1141SOL    HW2 5024   4.039   4.912   2.579 -1.2332  0.6996  0.5153
 1142SOL     OW 5025   3.416   2.557   6.148 -0.2408  0.3738  0.0796
 1142SOL    HW1 5026   3.450   2.464   6.136  0.0048  0.5593 -0.7823
 1142SOL    HW2 5027   3.328   2.556   6.196 -1.5446 -0.5221 -2.1791
 1143SOL     OW 5028   6.513   3.839   1.033 -0.4234  0.1795 -0.1332
 1143SOL    HW1 5029   6.540   3.849   0.937 -0.2643  0.2681 -0.0809
 1143SOL    HW2 5030   6.484   3.927   1.069 -0.3743  0.1687 -0.0678
 1144SOL     OW 5031   0.000   2.784   6.449 -0.3262  0.1791  0.6277
 1144SOL    HW1 5032  -0.019   2.809   6.544 -1.1448 -4.2809  1.8599
 1144SOL    HW2 5033   0.097   2.799   6.430 -0.4077  2.4215  1.6130
 1145SOL     OW 5034   1.812   5.317   3.801  0.0108  0.4848 -0.0084
 1145SOL    HW1 5035   1.830   5.415   3.790  2.2507  0.2527  0.9714
 1145SOL    HW2 5036   1.760   5.284   3.722  1.5438  1.9573 -1.7327
 1146SOL     OW 5037   0.835   0.688   7.006 -0.1429  0.2747 -0.2078
 1146SOL    HW1 5038   0.737   0.680   7.026  0.1302 -1.1633  0.6915
 1146SOL    HW2 5039   0.871   0.599   6.980  1.5676  0.0265  2.6007
 1147SOL     OW 5040   0.776   2.457   0.772 -0.0029  0.1716 -0.0425
 1147SOL    HW1 5041   0.687   2.501   0.782  0.2122  0.5075  0.4536
 1147SOL    HW2 5042   0.822   2.454   0.861  0.7936  0.6991 -0.4248
 1148SOL     OW 5043   2.961   1.903   1.706  0.7126  0.2847  0.2260
 1148SOL    HW1 5044   2.974   1.832   1.775 -1.6955 -1.1703 -0.6649
 1148SOL    HW2 5045   2.982   1.866   1.616 -2.4692 -0.0854 -0.4809
 1149SOL     OW 5046   4.969   3.560   6.833  0.3745  0.0523  0.4184
 1149SOL    HW1 5047   4.931   3.591   6.920 -0.1248 -0.6364  0.4519
 1149SOL    HW2 5048   5.065   3.537   6.846  1.0111  2.2837  0.2208
 1150SOL     OW 5049   2.291   4.439   1.373  0.9772 -0.8593  0.2045
 1150SOL    HW1 5050   2.271   4.431   1.470 -1.7073  2.0439  0.0211
 1150SOL    HW2 5051   2.367   4.503   1.359  3.7643 -3.8308  0.3673
 1151SOL     OW 5052   1.090   2.694   5.874 -0.0441  0.3005  0.0253
 1151SOL    HW1 5053   1.066   2.750   5.954  0.1849  1.6985 -0.8521
 1151SOL    HW2 5054   1.174   2.643   5.894 -0.9714 -0.7849  1.3174
 1152SOL     OW 5055   5.530   5.271   0.276  0.0139 -0.1314 -0.3535
 1152SOL    HW1 5056   5.502   5.352   0.225 -0.1164  0.3831  0.5017
 1152SOL    HW2 5057   5.491   5.275   0.368  1.0961 -0.5041  0.1403
 1153SOL     OW 5058   5.068   6.011   2.161 -0.3466 -0.1347  0.1659
 1153SOL    HW1 5059   5.097   5.988   2.068  0.5722 -0.0243  0.4107
 1153SOL    HW2 5060   5.113   5.949   2.226 -0.7508 -0.0232  0.5561
 1154SOL     OW 5061   1.086   2.308   3.102 -0.0881 -0.4385  0.0870
 1154SOL    HW1 5062   1.084   2.320   3.201 -1.0813  0.0605  0.0228
 1154SOL    HW2 5063   1.046   2.389   3.058  2.6181  0.5076 -0.8552
 1155SOL     OW 5064   5.354   0.572   4.109 -0.2884 -0.3075 -0.0826
 1155SOL    HW1 5065   5.416   0.575   4.187  1.0765  1.5515 -1.1702
 1155SOL    HW2 5066   5.406   0.575   4.024 -1.8132 -0.3951 -1.0590
 1156SOL     OW 5067   2.456   1.731   5.925 -0.3591  0.1481 -0.1853
 1156SOL    HW1 5068   2.518   1.662   5.962 -1.6791 -1.4778 -0.8237
 1156SOL    HW2 5069   2.498   1.774   5.845 -0.6014 -2.1048 -1.6254
 1157SOL     OW 5070   0.405   4.918   5.389 -0.2119  0.4064  0.2752
 1157SOL    HW1 5071   0.432   4.868   5.472  0.6639 -0.9281 -0.7706
 1157SOL    HW2 5072   0.437   5.012   5.395  0.3306  0.1786  1.2111
 1158SOL     OW 5073   0.618   1.618   4.219  0.1210 -0.3356 -0.0495
 1158SOL    HW1 5074   0.582   1.683   4.286  1.0514 -0.9591  1.1018
 1158SOL    HW2 5075   0.716   1.632   4.208 -0.0757 -0.0272 -1.5578
 1159SOL     OW 5076   5.306   5.286   5.669 -0.0345  0.0888 -0.1194
 1159SOL    HW1 5077   5.225   5.338   5.643 -1.3119 -1.4234  0.6297
 1159SOL    HW2 5078   5.294   5.190   5.642  1.5748 -0.1439 -0.1094
 1160SOL     OW 5079   4.657   6.701   6.540  0.1688  0.0369 -0.1287
 1160SOL    HW1 5080   4.724   6.664   6.475  0.3185  0.6208 -0.3130
 1160SOL    HW2 5081   4.568   6.707   6.497 -0.5449 -2.7201  0.7374
 1161SOL     OW 5082   4.413   1.010   1.723 -0.0500 -0.0776 -0.2434
 1161SOL    HW1 5083   4.498   0.959   1.733  0.2807  0.4610 -0.2283
 1161SOL    HW2 5084   4.347   0.979   1.792  0.5507  0.3054  0.5297
 1162SOL     OW 5085   1.168   0.359   3.379 -0.5290  0.8921  0.1203
 1162SOL    HW1 5086   1.101   0.429   3.403 -1.2297  0.2945 -0.0804
 1162SOL    HW2 5087   1.137   0.308   3.299  0.8947  1.6087 -0.9494
 1163SOL     OW 5088   4.620   2.096   3.369  0.4581  0.1580 -0.0608
 1163SOL    HW1 5089   4.598   2.033   3.444 -1.3377  1.7111  0.8031
 1163SOL    HW2 5090   4.703   2.148   3.392  0.5210 -0.1312  0.3664
 1164SOL     OW 5091   1.684   1.210   6.883 -0.5488 -0.1750 -0.4293
 1164SOL    HW1 5092   1.730   1.154   6.814 -0.0513 -1.3792  0.8255
 1164SOL    HW2 5093   1.594   1.170   6.903 -0.4977 -0.1037 -0.0508
 1165SOL     OW 5094   2.901   0.223   5.544  0.1807 -0.0353 -0.2412
 1165SOL    HW1 5095   2.813   0.181   5.565 -0.7088  1.8854  0.1209
 1165SOL    HW2 5096   2.974   0.170   5.586 -0.9786 -0.4744  1.3102
 1166SOL     OW 5097   6.571   2.989   4.215 -0.1484 -0.5535 -0.6407
 1166SOL    HW1 5098   6.544   2.895   4.236  0.8014 -0.9313 -1.0660
 1166SOL    HW2 5099   6.628   3.025   4.289 -0.5874 -0.2775 -0.4352
 1167SOL     OW 5100   5.107   1.550   1.516 -0.5070 -0.2516  0.4409
 1167SOL    HW1 5101   5.055   1.468   1.540  1.6800 -1.9504 -0.1890
 1167SOL    HW2 5102   5.161   1.579   1.596  0.7087 -1.0560 -0.0660
 1168SOL     OW 5103   3.880   5.966   1.868 -0.2436 -0.8303 -0.2076
 1168SOL    HW1 5104   3.922   5.875   1.860  0.6396 -0.4620  0.0804
 1168SOL    HW2 5105   3.833   5.972   1.956 -0.0639 -0.9221 -0.1021
 1169SOL     OW 5106   4.348   6.914   1.987 -0.2382 -0.1449  0.4763
 1169SOL    HW1 5107   4.370   6.829   2.036 -0.9412  0.0954  1.2432
 1169SOL    HW2 5108   4.377   6.993   2.042 -0.7290  0.1216  0.3609
 1170SOL     OW 5109   5.413   2.432   5.287  0.7326 -0.3382  1.0040
 1170SOL    HW1 5110   5.347   2.362   5.258  1.1193 -0.2350 -0.1435
 1170SOL    HW2 5111   5.428   2.423   5.386  0.1908 -1.3798  1.0125
 1171SOL     OW 5112   0.775   4.402   6.261  0.4787  0.7012  0.1071
 1171SOL    HW1 5113   0.730   4.490   6.274 -1.7916 -0.5237  1.0022
 1171SOL    HW2 5114   0.738   4.358   6.180  0.4453 -0.1118  0.5594
 1172SOL     OW 5115   6.724   0.920   2.634  0.2046 -0.0196  0.6271
 1172SOL    HW1 5116   6.759   0.829   2.658  1.9870  0.2829 -0.6104
 1172SOL    HW2 5117   6.801   0.984   2.628 -0.9413  1.3935  0.7084
 1173SOL     OW 5118   1.312   3.685   3.830 -0.3114  0.1499 -0.5239
 1173SOL    HW1 5119   1.396   3.681   3.883  0.5509  2.1663 -1.6302
 1173SOL    HW2 5120   1.268   3.774   3.843 -1.6927 -0.4452 -0.8666
 1174SOL     OW 5121   1.406   3.166   6.257  0.1448 -0.3279 -0.1749
 1174SOL    HW1 5122   1.348   3.124   6.187  0.8877 -0.8652 -0.4819
 1174SOL    HW2 5123   1.490   3.114   6.266 -0.2586 -0.7512  1.6840
 1175SOL     OW 5124   4.709   6.914   1.347 -0.5423 -0.0446 -0.3556
 1175SOL    HW1 5125   4.773   6.890   1.274 -1.3185  0.3461 -1.1796
 1175SOL    HW2 5126   4.722   6.851   1.424 -0.7683 -1.4842 -1.4416
 1176SOL     OW 5127   3.300   5.345   3.512 -0.3777  0.3313  0.2564
 1176SOL    HW1 5128   3.284   5.361   3.610 -1.8951 -0.7693  0.2152
 1176SOL    HW2 5129   3.215   5.356   3.462 -0.2694 -1.8589 -0.5431
 1177SOL     OW 5130   0.654   6.147   4.402 -0.4282  0.5219  0.2363
 1177SOL    HW1 5131   0.596   6.224   4.429 -1.4929 -0.2561  0.2358
 1177SOL    HW2 5132   0.621   6.109   4.316  0.1198  0.0937  0.2105
 1178SOL     OW 5133   4.349   4.895   1.670  0.0101  0.3946  0.1878
 1178SOL    HW1 5134   4.345   4.798   1.647  0.4630  0.6518 -1.0739
 1178SOL    HW2 5135   4.284   4.915   1.743 -0.7425 -0.6854 -0.1616
 1179SOL     OW 5136   1.262   1.599   0.488 -0.0885 -0.4280  0.1582
 1179SOL    HW1 5137   1.267   1.659   0.568 -0.7867 -1.6512  1.1609
 1179SOL    HW2 5138   1.324   1.633   0.417 -2.9653  3.5402 -0.7906
 1180SOL     OW 5139   1.973   3.359   6.894  0.4073  0.1256  0.2327
 1180SOL    HW1 5140   1.880   3.340   6.927  0.6042 -2.3543 -0.3937
 1180SOL    HW2 5141   1.968   3.402   6.804 -0.1448 -0.1086  0.1445
 1181SOL     OW 5142   4.773   6.576   3.627  0.4710  0.3499 -0.3649
 1181SOL    HW1 5143   4.677   6.555   3.640  0.1844  2.3599  1.2495
 1181SOL    HW2 5144   4.788   6.609   3.533 -0.2285 -0.7184 -0.8679
 1182SOL     OW 5145   3.003   2.419   0.450 -0.2053 -0.0983  0.4500
 1182SOL    HW1 5146   3.044   2.353   0.387 -0.6580  0.8454 -0.8854
 1182SOL    HW2 5147   2.913   2.447   0.415  0.1694  1.5642  0.7243
 1183SOL     OW 5148   2.387   2.267   6.161  0.2213  0.1017  0.0088
 1183SOL    HW1 5149   2.302   2.320   6.161  0.3840  0.3740 -0.5889
 1183SOL    HW2 5150   2.386   2.202   6.085  1.1493  1.1250 -0.9294
 1184SOL     OW 5151   5.530   2.836   2.070  0.0443 -0.0874 -0.0148
 1184SOL    HW1 5152   5.620   2.877   2.087  0.5294 -1.0491 -0.2113
 1184SOL    HW2 5153   5.518   2.757   2.130 -0.5364 -0.1578 -0.2221
 1185SOL     OW 5154   4.776   5.248   0.784 -0.0135 -0.4132  0.4023
 1185SOL    HW1 5155   4.869   5.235   0.750 -0.3918 -1.3700 -0.3191
 1185SOL    HW2 5156   4.710   5.224   0.712 -0.8364  1.3189  0.5099
 1186SOL     OW 5157   1.053   1.792   1.390 -0.2908 -0.4609  0.2580
 1186SOL    HW1 5158   1.101   1.801   1.477  0.5058  0.6531 -0.2728
 1186SOL    HW2 5159   1.081   1.706   1.346  0.5953 -0.2418  0.3601
 1187SOL     OW 5160   1.194   4.926   5.291 -0.4040 -0.7525 -0.5758
 1187SOL    HW1 5161   1.218   5.008   5.342 -1.0108 -0.8854 -0.0718
 1187SOL    HW2 5162   1.229   4.934   5.197 -0.7094  0.2005 -0.6149
 1188SOL     OW 5163   0.751   0.363   0.187  0.1839  0.1670 -0.0946
 1188SOL    HW1 5164   0.725   0.316   0.271 -1.0303 -0.4713 -0.8127
 1188SOL    HW2 5165   0.841   0.331   0.157 -0.2815 -1.1361 -0.1447
 1189SOL     OW 5166   4.903   1.766   4.819 -0.1249  0.0380  0.3467
 1189SOL    HW1 5167   4.839   1.695   4.789 -1.3629  0.7326  1.2361
 1189SOL    HW2 5168   4.996   1.741   4.793 -0.9290 -0.0731 -2.8092
 1190SOL     OW 5169   4.082   1.570   1.420 -0.5724 -0.2078  0.3601
 1190SOL    HW1 5170   4.159   1.535   1.473 -1.5957 -0.5165  1.7030
 1190SOL    HW2 5171   4.060   1.663   1.451  0.3750  0.6048 -1.2733
 1191SOL     OW 5172   3.013   1.741   1.017 -0.3040 -0.4401 -0.1560
 1191SOL    HW1 5173   2.955   1.663   0.996  0.6434 -1.1386 -0.2745
 1191SOL    HW2 5174   3.025   1.748   1.116  0.4156 -1.0687 -0.1896
 1192SOL     OW 5175   2.788   4.595   0.403  0.5092 -0.0785 -0.3641
 1192SOL    HW1 5176   2.880   4.610   0.439  0.3311  1.5251 -0.5050
 1192SOL    HW2 5177   2.750   4.682   0.371 -1.0042 -0.7383 -0.4555
 1193SOL     OW 5178   0.476   5.719   5.257 -0.0175  0.4973 -0.4209
 1193SOL    HW1 5179   0.507   5.624   5.265 -2.3457 -0.3812 -1.0059
 1193SOL    HW2 5180   0.475   5.761   5.348 -0.1231 -0.4537  0.0319
 1194SOL     OW 5181   2.436   5.177   6.854  0.2913  0.1601  0.6476
 1194SOL    HW1 5182   2.396   5.086   6.843 -1.1982  0.7703  0.8703
 1194SOL    HW2 5183   2.423   5.208   6.948  1.0553  0.4922  0.6481
 1195SOL     OW 5184   1.180   2.929   1.556 -0.6027  0.5552 -0.4081
 1195SOL    HW1 5185   1.082   2.947   1.566 -0.4016  2.2685 -1.0969
 1195SOL    HW2 5186   1.214   2.974   1.474  0.8656  0.3945  0.0718
 1196SOL     OW 5187   1.720   4.186   5.220  0.1760 -0.0751  0.4752
 1196SOL    HW1 5188   1.814   4.166   5.194 -0.2193 -1.7703  0.2180
 1196SOL    HW2 5189   1.699   4.140   5.307 -1.0257 -1.5603 -0.5488
 1197SOL     OW 5190   4.713   6.018   4.984 -0.2411 -0.6407 -0.8814
 1197SOL    HW1 5191   4.748   5.925   4.996 -0.3034 -0.6086 -0.4462
 1197SOL    HW2 5192   4.761   6.080   5.046  1.4388  0.0400 -2.7513
 1198SOL     OW 5193   1.544   2.458   3.259 -0.4506 -0.2200 -0.1698
 1198SOL    HW1 5194   1.449   2.455   3.230 -0.4893  0.6603 -0.1618
 1198SOL    HW2 5195   1.602   2.480   3.181 -0.6792  3.4611  0.5364
 1199SOL     OW 5196   6.179   5.753   4.006 -0.4674 -0.1280  0.1137
 1199SOL    HW1 5197   6.086   5.730   4.035  0.5145 -0.7176  3.2180
 1199SOL    HW2 5198   6.203   5.843   4.042  0.6158 -0.5902  0.5900
 1200SOL     OW 5199   0.388   5.365   2.743 -0.4327  0.1481  0.0373
 1200SOL    HW1 5200   0.428   5.381   2.653  3.3017  2.2286  1.8322
 1200SOL    HW2 5201   0.291   5.387   2.741 -0.6285 -0.5098 -3.5500
 1201SOL     OW 5202   3.327   3.739   0.338  0.6297  0.5521 -0.1540
 1201SOL    HW1 5203   3.390   3.710   0.265 -1.6915  0.7340 -2.3690
 1201SOL    HW2 5204   3.257   3.669   0.351  1.8008 -0.1777  3.0931
 1202SOL     OW 5205   3.465   3.422   5.561  0.2866 -0.0393  0.4327
 1202SOL    HW1 5206   3.564   3.419   5.575  0.3428 -2.8162 -0.0131
 1202SOL    HW2 5207   3.425   3.494   5.618  2.4689  0.6718  1.1504
 1203SOL     OW 5208   3.812   4.723   5.910 -0.4828  0.7004 -0.1808
 1203SOL    HW1 5209   3.815   4.743   6.008 -1.5455  1.5668 -0.3089
 1203SOL    HW2 5210   3.861   4.793   5.859  0.3952  0.0484 -0.2596
 1204SOL     OW 5211   1.342   7.010   1.131  0.2838  0.0180  0.2149
 1204SOL    HW1 5212   1.365   6.938   1.196  0.1533 -0.1028  0.1274
 1204SOL    HW2 5213   1.285   7.079   1.177 -1.9491 -1.3234 -0.3952
 1205SOL     OW 5214   5.663   4.036   1.862  0.2884  0.6093  0.3783
 1205SOL    HW1 5215   5.762   4.027   1.855  0.1427 -1.8581  0.5065
 1205SOL    HW2 5216   5.633   4.117   1.811  2.4215  1.9695  1.1594
 1206SOL     OW 5217   4.622   0.748   0.628 -0.2064 -0.1651 -0.9239
 1206SOL    HW1 5218   4.528   0.739   0.662  0.1116  0.3978  0.1526
 1206SOL    HW2 5219   4.665   0.828   0.670  1.6882 -2.0122  0.8658
 1207SOL     OW 5220   1.147   6.872   6.018 -0.3210 -0.5002  0.3855
 1207SOL    HW1 5221   1.240   6.836   6.025  0.6159  1.6648 -0.2438
 1207SOL    HW2 5222   1.129   6.900   5.924 -0.8440  1.0610  0.9268
 1208SOL     OW 5223   2.531   3.894   6.703  0.4940 -0.3453 -0.1046
 1208SOL    HW1 5224   2.573   3.921   6.616 -1.3512  1.7439 -0.4452
 1208SOL    HW2 5225   2.519   3.795   6.706  2.9042 -0.7289 -1.0981
 1209SOL     OW 5226   1.541   5.875   4.206  0.4093  0.3209 -0.2651
 1209SOL    HW1 5227   1.594   5.796   4.236  0.4774  1.0131  1.5337
 1209SOL    HW2 5228   1.444   5.849   4.197 -0.3221  0.8277  4.1662
 1210SOL     OW 5229   3.286   6.774   4.234  0.1907 -0.3286  0.7284
 1210SOL    HW1 5230   3.244   6.837   4.299  0.1537 -0.9078  1.2737
 1210SOL    HW2 5231   3.288   6.682   4.273  0.8497 -0.5403  0.2098
 1211SOL     OW 5232   0.683   1.641   3.830 -0.0302 -0.7450 -0.1788
 1211SOL    HW1 5233   0.727   1.626   3.742 -1.0962  0.3931 -0.9300
 1211SOL    HW2 5234   0.709   1.730   3.866 -3.6182  1.1927 -1.9012
 1212SOL     OW 5235   2.785   0.737   1.287 -0.5163 -0.3061 -0.0438
 1212SOL    HW1 5236   2.741   0.726   1.199  0.6721 -2.6042 -0.4176
 1212SOL    HW2 5237   2.884   0.743   1.275 -0.2284 -1.8147  1.1449
 1213SOL     OW 5238   2.354   3.622   5.574 -0.2098  0.2511  0.5149
 1213SOL    HW1 5239   2.384   3.717   5.585  0.9678  0.0699 -0.8576
 1213SOL    HW2 5240   2.313   3.611   5.483 -1.8186 -0.2106  1.2612
 1214SOL     OW 5241   2.597   6.380   6.360 -0.0568 -0.2643  0.0558
 1214SOL    HW1 5242   2.497   6.373   6.352  0.0437 -1.1363 -0.6165
 1214SOL    HW2 5243   2.640   6.332   6.284  0.8794  0.9510 -0.2120
 1215SOL     OW 5244   2.591   6.338   1.409  0.6499  0.0145 -0.0322
 1215SOL    HW1 5245   2.630   6.369   1.495 -0.9189  3.1360 -0.3057
 1215SOL    HW2 5246   2.660   6.343   1.337  0.8821  1.5722  0.2621
 1216SOL     OW 5247   1.669   0.547   2.807 -0.1657 -0.1298  0.3117
 1216SOL    HW1 5248   1.739   0.615   2.790  0.0390 -0.2393  0.6951
 1216SOL    HW2 5249   1.589   0.591   2.850 -0.5578  0.0898 -0.6293
 1217SOL     OW 5250   4.552   2.025   1.141 -0.0106  0.1747 -1.0024
 1217SOL    HW1 5251   4.597   1.936   1.136  0.6531  0.5250 -1.4833
 1217SOL    HW2 5252   4.465   2.021   1.093 -0.3576 -0.4294 -0.3351
 1218SOL     OW 5253   1.313   3.560   1.123  0.1047  1.0413  0.4013
 1218SOL    HW1 5254   1.301   3.623   1.047 -1.8314  0.1923 -0.0505
 1218SOL    HW2 5255   1.333   3.611   1.206 -0.8010  2.2043 -0.0734
 1219SOL     OW 5256   6.744   4.646   3.338  0.1595  0.3766  0.1168
 1219SOL    HW1 5257   6.760   4.718   3.271  0.3876  0.1705 -0.0511
 1219SOL    HW2 5258   6.829   4.595   3.353 -0.1295 -0.1946 -0.1597
 1220SOL     OW 5259   6.017   0.552   4.258 -0.1796 -0.4683 -0.0204
 1220SOL    HW1 5260   5.947   0.581   4.194 -0.7915  0.1555  0.9105
 1220SOL    HW2 5261   5.999   0.458   4.286  0.0831 -0.7392 -0.7370
 1221SOL     OW 5262   3.527   5.201   2.936 -0.1258 -0.1351 -0.0498
 1221SOL    HW1 5263   3.622   5.233   2.938  0.0247 -0.6250  1.0860
 1221SOL    HW2 5264   3.501   5.182   2.841  0.8416  0.2052 -0.3968
 1222SOL     OW 5265   1.691   5.697   3.490 -0.3378 -0.3407 -0.1255
 1222SOL    HW1 5266   1.669   5.784   3.534  0.0146  0.1236 -0.8439
 1222SOL    HW2 5267   1.662   5.699   3.394  1.2250 -0.3490 -0.6269
 1223SOL     OW 5268   6.441   0.013   2.129 -0.5495 -0.0920 -0.3878
 1223SOL    HW1 5269   6.531   0.055   2.141 -0.5045  0.3559 -1.9898
 1223SOL    HW2 5270   6.446  -0.058   2.058 -0.8156 -2.2956  1.6799
 1224SOL     OW 5271   2.498   0.425   6.783 -0.1114  0.0482  0.1147
 1224SOL    HW1 5272   2.408   0.413   6.826 -0.5883 -0.3132 -0.9387
 1224SOL    HW2 5273   2.486   0.467   6.693  0.9336  1.5070  0.6317
 1225SOL     OW 5274   4.670   5.074   2.379  0.5702  0.4774  0.1271
 1225SOL    HW1 5275   4.700   5.067   2.474  2.0232  0.3923 -0.3161
 1225SOL    HW2 5276   4.732   5.023   2.320 -0.3393  0.4913 -0.8729
 1226SOL     OW 5277   3.562   3.058   5.213  0.3685 -0.1210 -0.0965
 1226SOL    HW1 5278   3.634   3.001   5.172 -0.3525 -0.6787 -0.6042
 1226SOL    HW2 5279   3.604   3.136   5.258  1.2934 -0.3691 -0.4980
 1227SOL     OW 5280   1.927   6.049   0.199 -0.7092  0.0969  0.0223
 1227SOL    HW1 5281   1.961   5.981   0.264  1.0673 -0.1290 -1.0905
 1227SOL    HW2 5282   1.827   6.047   0.200 -0.7570 -3.0723 -0.4725
 1228SOL     OW 5283   6.416   4.390   6.163 -0.2437 -0.1907  0.1197
 1228SOL    HW1 5284   6.360   4.400   6.245 -1.5916  0.0706 -0.8012
 1228SOL    HW2 5285   6.374   4.441   6.088 -0.0236 -1.8821 -1.2124
 1229SOL     OW 5286   2.882   4.631   5.326 -0.7835  0.2233 -0.4553
 1229SOL    HW1 5287   2.817   4.558   5.346  0.0218 -0.1192  1.0732
 1229SOL    HW2 5288   2.834   4.711   5.291 -1.7884 -0.6713 -1.1919
 1230SOL     OW 5289   6.120   1.055   5.112 -0.1085 -0.5438  0.0119
 1230SOL    HW1 5290   6.165   1.032   5.199 -1.6946 -0.1369  0.9871
 1230SOL    HW2 5291   6.025   1.082   5.130  0.0188  1.2135 -1.6912
 1231SOL     OW 5292   2.267   5.795   2.764 -0.3610  0.7050  0.6349
 1231SOL    HW1 5293   2.241   5.701   2.740  1.4685  0.1468  0.6491
 1231SOL    HW2 5294   2.264   5.806   2.863  0.4892  0.2835  0.7216
 1232SOL     OW 5295   0.326   6.150   2.061  0.0225  0.4962 -0.6886
 1232SOL    HW1 5296   0.323   6.234   2.115 -1.7127  0.2304 -0.3314
 1232SOL    HW2 5297   0.420   6.134   2.031  0.5322  2.1128 -0.0756
 1233SOL     OW 5298   0.483   3.495   3.885  0.9247  0.1275  0.2114
 1233SOL    HW1 5299   0.522   3.575   3.931 -0.5436  1.0273 -0.0543
 1233SOL    HW2 5300   0.487   3.507   3.786  3.1513 -1.3673  0.0344
 1234SOL     OW 5301   1.941   0.945   6.487 -0.1907 -0.8949  0.0090
 1234SOL    HW1 5302   1.897   0.929   6.575  3.2522 -0.0996  2.0805
 1234SOL    HW2 5303   1.965   0.857   6.446 -0.6335 -1.2653  0.5197
 1235SOL     OW 5304   4.876   6.541   1.575 -0.5198 -0.7471  0.6921
 1235SOL    HW1 5305   4.956   6.513   1.521 -1.3686 -0.5504 -0.6851
 1235SOL    HW2 5306   4.898   6.625   1.624  0.1652 -0.7647  0.4361
 1236SOL     OW 5307   2.254   2.721   2.034  0.0406  0.1156  0.7359
 1236SOL    HW1 5308   2.247   2.628   2.000  1.7806  0.4649 -0.7886
 1236SOL    HW2 5309   2.238   2.785   1.959  0.8548  0.9929  1.2856
 1237SOL     OW 5310   1.146   0.161   3.550  0.0612 -0.1169 -0.2710
 1237SOL    HW1 5311   1.060   0.178   3.597 -0.2705 -0.4370 -0.7552
 1237SOL    HW2 5312   1.156   0.227   3.475  0.9906  0.9511  0.7547
 1238SOL     OW 5313   2.742   3.972   1.312 -0.0848  0.3430  0.5656
 1238SOL    HW1 5314   2.676   3.927   1.371 -0.1163  0.3439  0.5309
 1238SOL    HW2 5315   2.804   4.028   1.368 -0.4070  0.7158  0.5555
 1239SOL     OW 5316   1.751   3.327   4.825  0.3388  0.0397  0.5065
 1239SOL    HW1 5317   1.736   3.357   4.919  0.3184  1.5013  0.0559
 1239SOL    HW2 5318   1.762   3.406   4.765  2.4750 -0.8541 -0.4125
 1240SOL     OW 5319   1.658   4.736   5.349  0.5519 -0.1212 -0.0013
 1240SOL    HW1 5320   1.617   4.799   5.415 -0.3398 -0.3516 -0.3235
 1240SOL    HW2 5321   1.723   4.785   5.292  2.7761 -0.2609  2.2137
 1241SOL     OW 5322   4.363   6.135   4.735 -0.4756  0.1035 -0.2958
 1241SOL    HW1 5323   4.370   6.067   4.809 -0.8942  0.8577  0.4461
 1241SOL    HW2 5324   4.454   6.151   4.697 -0.2482 -0.2644  0.0772
 1242SOL     OW 5325   4.897   3.602   0.188 -0.1428  0.0326 -0.3714
 1242SOL    HW1 5326   4.859   3.511   0.206  1.4792 -0.5048  0.6122
 1242SOL    HW2 5327   4.863   3.667   0.255 -1.3591  0.1835 -1.1150
 1243SOL     OW 5328   0.732   2.752   4.568 -0.2604  0.0728  0.3171
 1243SOL    HW1 5329   0.660   2.822   4.575  0.0995  0.6413 -1.3613
 1243SOL    HW2 5330   0.750   2.715   4.659  0.8379  3.4826  1.6303
 1244SOL     OW 5331   2.126   6.204   0.075 -0.2429 -0.4017  0.0795
 1244SOL    HW1 5332   2.147   6.279   0.138  1.5170  0.0540 -0.9675
 1244SOL    HW2 5333   2.070   6.136   0.121 -0.8659  0.9753  1.4340
 1245SOL     OW 5334   6.623   6.068   2.719  0.5355 -0.2645 -0.2663
 1245SOL    HW1 5335   6.706   6.039   2.671  0.7816  1.6756 -1.0866
 1245SOL    HW2 5336   6.616   6.167   2.718 -2.3412 -0.3856 -1.1402
 1246SOL     OW 5337   0.421   5.786   2.012  0.2322  0.0607 -0.0529
 1246SOL    HW1 5338   0.354   5.713   2.027  1.8507 -1.7357 -1.1689
 1246SOL    HW2 5339   0.395   5.840   1.932  0.3840 -0.9695 -0.8097
 1247SOL     OW 5340   3.177   5.756   2.221 -0.4267 -0.3697 -0.2766
 1247SOL    HW1 5341   3.184   5.760   2.321  1.1640  2.1239 -0.4120
 1247SOL    HW2 5342   3.260   5.715   2.183 -1.5678 -2.5374 -0.5972
 1248SOL     OW 5343   1.855   2.523   2.720 -0.1153  0.1772 -0.3588
 1248SOL    HW1 5344   1.878   2.443   2.776  0.5780  0.6977  0.1174
 1248SOL    HW2 5345   1.867   2.500   2.623  1.1626  0.0196 -0.1788
 1249SOL     OW 5346   2.109   0.801   6.100  0.4648  0.0752 -0.3641
 1249SOL    HW1 5347   2.119   0.720   6.041 -0.6533 -1.1222  1.0065
 1249SOL    HW2 5348   2.053   0.870   6.054 -1.2553 -1.2553 -0.3776
 1250SOL     OW 5349   5.557   5.774   6.052 -0.3046  0.3807  0.0811
 1250SOL    HW1 5350   5.555   5.778   5.952 -0.0741 -0.6627  0.0220
 1250SOL    HW2 5351   5.481   5.828   6.089 -0.2854  0.9232 -0.6453
 1251SOL     OW 5352   1.369   4.458   5.292 -0.0248  0.0367 -0.0264
 1251SOL    HW1 5353   1.387   4.386   5.358 -0.3872  0.3780  0.4548
 1251SOL    HW2 5354   1.361   4.546   5.339  1.3719  0.5560 -0.7112
 1252SOL     OW 5355   4.225   3.538   0.136 -0.0244 -0.0735  0.2647
 1252SOL    HW1 5356   4.228   3.477   0.215  0.7652  1.4372  1.4515
 1252SOL    HW2 5357   4.140   3.592   0.138 -0.9008 -1.3165 -0.9836
 1253SOL     OW 5358   2.018   6.828   6.138  0.2170 -0.1217 -0.1551
 1253SOL    HW1 5359   1.988   6.777   6.057 -0.3271  0.4244 -0.3042
 1253SOL    HW2 5360   2.095   6.887   6.113 -0.3994  0.5686 -0.4509
 1254SOL     OW 5361   0.804   2.657   5.594 -0.0193 -0.5879  0.0812
 1254SOL    HW1 5362   0.854   2.731   5.640  1.1151 -0.5847 -1.0820
 1254SOL    HW2 5363   0.870   2.595   5.550 -0.9543  0.8394 -3.7606
 1255SOL     OW 5364   2.607   2.307   4.201  0.5195 -0.2247  0.0985
 1255SOL    HW1 5365   2.640   2.353   4.283 -1.1497  0.1576  0.5886
 1255SOL    HW2 5366   2.684   2.289   4.140  1.4733  1.6168  0.6762
 1256SOL     OW 5367   3.858   5.533   2.256  0.0482  0.1808 -0.5788
 1256SOL    HW1 5368   3.919   5.483   2.195  0.2684  0.7189 -0.8037
 1256SOL    HW2 5369   3.863   5.631   2.236  0.7297  0.4705  0.8161
 1257SOL     OW 5370   3.944   4.402   6.105 -0.0197  0.2248  0.0977
 1257SOL    HW1 5371   3.957   4.402   6.006 -0.2919 -1.9926  0.0050
 1257SOL    HW2 5372   3.852   4.435   6.127 -0.6103 -0.8833 -0.5633
 1258SOL     OW 5373   1.553   1.935   4.800 -0.2588  0.5096 -0.0904
 1258SOL    HW1 5374   1.593   1.948   4.710 -0.1070 -0.9683 -0.2511
 1258SOL    HW2 5375   1.453   1.931   4.792 -0.2758  0.8881 -0.1104
 1259SOL     OW 5376   3.404   0.330   5.804 -0.3169 -0.1079 -0.4941
 1259SOL    HW1 5377   3.495   0.370   5.808  0.4475 -1.8391  0.3000
 1259SOL    HW2 5378   3.338   0.400   5.773  1.1654  1.3007 -0.5992
 1260SOL     OW 5379   0.770   4.434   4.576 -0.4845  0.2007  0.4035
 1260SOL    HW1 5380   0.803   4.488   4.653 -1.8623  0.9370  0.5259
 1260SOL    HW2 5381   0.806   4.471   4.490 -0.7627  0.8103  0.5470
 1261SOL     OW 5382   3.838   2.443   6.545 -0.5944 -0.1642 -0.6481
 1261SOL    HW1 5383   3.869   2.412   6.635  0.9356 -0.6413 -1.3066
 1261SOL    HW2 5384   3.830   2.542   6.545 -2.6055 -0.2696  0.5877
 1262SOL     OW 5385   6.476   3.123   1.327  0.1701  0.3207  0.3492
 1262SOL    HW1 5386   6.415   3.126   1.407 -0.4599  0.9772 -0.1463
 1262SOL    HW2 5387   6.506   3.215   1.304 -0.7609  0.3233 -0.9894
 1263SOL     OW 5388   1.518   6.794   1.986 -0.3329  0.2275 -0.3516
 1263SOL    HW1 5389   1.472   6.727   1.927 -1.3124  1.5784 -1.1947
 1263SOL    HW2 5390   1.611   6.762   2.007  0.1417 -0.2106 -2.8312
 1264SOL     OW 5391   3.168   5.987   4.224  0.2068 -0.1319  0.4104
 1264SOL    HW1 5392   3.196   6.033   4.308 -0.2403 -1.2675  1.1975
 1264SOL    HW2 5393   3.178   6.051   4.147 -0.9963  1.5208  1.5347
 1265SOL     OW 5394   1.892   2.968   1.354 -0.4080 -0.1056 -0.1539
 1265SOL    HW1 5395   1.936   3.016   1.429  0.2977  2.4933 -2.0869
 1265SOL    HW2 5396   1.794   2.992   1.351 -0.5492 -0.6182  0.2134
 1266SOL     OW 5397   5.038   1.181   6.361 -0.5720 -0.5340 -0.2858
 1266SOL    HW1 5398   4.964   1.189   6.294 -1.2553 -0.5527  0.4556
 1266SOL    HW2 5399   5.122   1.220   6.323 -0.9704 -0.4792 -1.1226
 1267SOL     OW 5400   2.327   3.304   1.431  0.1407  0.2502 -0.1944
 1267SOL    HW1 5401   2.414   3.270   1.396 -0.2370 -0.3896 -0.5107
 1267SOL    HW2 5402   2.255   3.291   1.363 -0.2329  0.6692  0.1094
 1268SOL     OW 5403   4.142   5.861   1.619  0.4318  0.0617 -0.3563
 1268SOL    HW1 5404   4.174   5.918   1.696 -0.0191 -0.1243 -0.0273
 1268SOL    HW2 5405   4.076   5.794   1.653  0.0578  0.1243 -0.9473
 1269SOL     OW 5406   2.611   3.259   1.349 -0.3263  0.6015 -0.5434
 1269SOL    HW1 5407   2.589   3.177   1.402  0.4964  0.2472 -0.7312
 1269SOL    HW2 5408   2.639   3.232   1.257  1.3359  0.9741 -0.1767
 1270SOL     OW 5409   1.638   5.967   1.896  0.3026  0.7693  0.0187
 1270SOL    HW1 5410   1.733   5.995   1.907  0.0595  2.0057 -0.8834
 1270SOL    HW2 5411   1.580   6.048   1.893 -0.6209  0.0935 -0.9329
 1271SOL     OW 5412   3.389   4.922   2.185  0.5874 -0.4696  0.2651
 1271SOL    HW1 5413   3.422   4.958   2.273  1.4120 -1.6576  0.4592
 1271SOL    HW2 5414   3.357   4.998   2.129  1.1080  0.4408  1.1518
 1272SOL     OW 5415   3.280   4.911   3.652  0.2460  0.3544  0.0184
 1272SOL    HW1 5416   3.212   4.893   3.581 -0.0788  1.1606  0.1106
 1272SOL    HW2 5417   3.292   4.829   3.709 -0.0704 -0.0417 -0.4767
 1273SOL     OW 5418   2.526   6.869   0.453  0.3809 -0.1997  0.0416
 1273SOL    HW1 5419   2.546   6.907   0.362  2.7310 -0.0602  0.5548
 1273SOL    HW2 5420   2.439   6.906   0.485 -0.2744  0.1214 -1.9344
 1274SOL     OW 5421   1.883   4.755   1.114 -0.4750 -0.2885  0.1587
 1274SOL    HW1 5422   1.891   4.825   1.044  0.0471 -0.6054 -0.0993
 1274SOL    HW2 5423   1.867   4.666   1.071  1.5978 -0.7861  0.3226
 1275SOL     OW 5424   6.997   6.537   0.680 -0.0820  0.7676  0.1166
 1275SOL    HW1 5425   6.979   6.440   0.691  1.1683  0.4543 -0.4545
 1275SOL    HW2 5426   6.935   6.575   0.610 -0.4036  0.3417  0.1678
 1276SOL     OW 5427   0.359   1.261   3.210 -0.2079 -0.1870  0.0072
 1276SOL    HW1 5428   0.429   1.247   3.140 -1.3551 -0.9983 -1.0220
 1276SOL    HW2 5429   0.275   1.215   3.182 -1.5444  1.7344  0.6282
 1277SOL     OW 5430   4.923   4.509   2.239 -0.2712  0.2473  0.4836
 1277SOL    HW1 5431   4.985   4.437   2.208 -0.3677  0.5021 -0.3137
 1277SOL    HW2 5432   4.960   4.599   2.213  0.1974  0.5554  2.0650
 1278SOL     OW 5433   1.949   4.941   0.933 -0.3679 -0.6828 -0.3125
 1278SOL    HW1 5434   1.953   5.040   0.940 -1.0859 -0.6978  0.4362
 1278SOL    HW2 5435   2.042   4.905   0.918 -0.2558  0.1701 -1.8608
 1279SOL     OW 5436   5.066   1.551   6.577 -1.2623 -0.1139 -0.1643
 1279SOL    HW1 5437   5.122   1.498   6.514  0.4348  0.2782  0.9555
 1279SOL    HW2 5438   4.996   1.492   6.618  1.1712 -1.8283  1.7782
 1280SOL     OW 5439   4.410   2.771   0.671  0.0977  0.0712  0.0693
 1280SOL    HW1 5440   4.317   2.792   0.639  0.7139  1.9506 -0.6044
 1280SOL    HW2 5441   4.433   2.833   0.746  1.5113  1.0489 -1.1115
 1281SOL     OW 5442   0.898   4.425   1.927  0.0096 -0.0761 -0.2376
 1281SOL    HW1 5443   0.848   4.381   2.001  1.2045 -0.0313  0.6255
 1281SOL    HW2 5444   0.838   4.436   1.848 -0.4285 -3.1486 -0.4758
 1282SOL     OW 5445   4.264   3.912   3.047  0.1521 -0.5461 -0.4639
 1282SOL    HW1 5446   4.270   3.978   3.122 -0.8137 -1.0726  0.1031
 1282SOL    HW2 5447   4.350   3.910   2.997  1.2345 -0.9561  1.3163
 1283SOL     OW 5448   2.881   5.129   0.568 -0.0860  0.7763 -0.1924
 1283SOL    HW1 5449   2.804   5.178   0.527 -0.5727  1.4343  1.4235
 1283SOL    HW2 5450   2.861   5.032   0.572  0.6659  0.4078 -2.9460
 1284SOL     OW 5451   6.620   6.665   5.002 -0.0409 -0.2468  0.1982
 1284SOL    HW1 5452   6.591   6.626   4.915 -2.8659 -1.1998  1.4626
 1284SOL    HW2 5453   6.705   6.620   5.033  0.4952 -0.5151 -1.5790
 1285SOL     OW 5454   4.614   6.978   4.945  0.2106  0.0616 -0.2407
 1285SOL    HW1 5455   4.605   6.923   4.862 -0.2115  2.0340 -1.5780
 1285SOL    HW2 5456   4.711   6.985   4.969  0.4025  0.0429 -0.9782
 1286SOL     OW 5457   2.832   1.854   5.085  0.2164 -0.1136 -0.5886
 1286SOL    HW1 5458   2.810   1.917   5.010 -2.0615  0.4676  0.4493
 1286SOL    HW2 5459   2.837   1.761   5.050 -1.0088  0.1235 -1.4621
 1287SOL     OW 5460   5.606   0.398   1.297 -0.3518  0.7992  0.4971
 1287SOL    HW1 5461   5.583   0.311   1.342 -1.1110  0.8658  0.2554
 1287SOL    HW2 5462   5.589   0.473   1.361  0.4739  0.7662  0.7667
 1288SOL     OW 5463   0.856   3.863   0.154  0.9678  0.0446 -0.4060
 1288SOL    HW1 5464   0.915   3.864   0.073 -1.0474 -0.2710 -1.9616
 1288SOL    HW2 5465   0.828   3.957   0.176  1.2567  0.0992 -0.2665
 1289SOL     OW 5466   4.027   4.538   0.514  0.2657 -0.2757 -0.4648
 1289SOL    HW1 5467   4.075   4.624   0.493 -1.0798  0.8268  0.7279
 1289SOL    HW2 5468   3.931   4.558   0.535  0.0700 -2.0062  0.4383
 1290SOL     OW 5469   1.167   6.526   5.416  0.3320  0.2879 -0.4341
 1290SOL    HW1 5470   1.108   6.599   5.384  0.2966  0.2005 -0.5682
 1290SOL    HW2 5471   1.115   6.463   5.473  0.1821 -0.0359 -0.9155
 1291SOL     OW 5472   4.853   4.409   1.711 -0.1113 -0.2385 -0.3370
 1291SOL    HW1 5473   4.922   4.479   1.731  0.8386 -1.3280  0.2806
 1291SOL    HW2 5474   4.892   4.341   1.649  0.1656 -2.0633  1.7191
 1292SOL     OW 5475   4.936   6.748   0.387  0.0664 -0.4712  0.2790
 1292SOL    HW1 5476   4.993   6.666   0.381  1.2686  0.3233  0.4914
 1292SOL    HW2 5477   4.980   6.814   0.448 -1.6640 -0.2785  1.3700
 1293SOL     OW 5478   5.192   2.456   0.914  0.3037 -0.3285 -0.0016
 1293SOL    HW1 5479   5.149   2.442   0.825 -0.7154 -0.0046  0.4245
 1293SOL    HW2 5480   5.144   2.528   0.964  0.0447 -1.3719  1.3201
 1294SOL     OW 5481   4.766   0.158   1.974 -0.5018 -1.0198  0.3232
 1294SOL    HW1 5482   4.701   0.180   1.901  0.8183 -1.1554 -0.9310
 1294SOL    HW2 5483   4.736   0.202   2.059 -1.6247 -0.1540 -0.4888
 1295SOL     OW 5484   1.120   3.929   5.388  0.4832  0.1378 -0.2188
 1295SOL    HW1 5485   1.056   4.006   5.395  0.1225 -0.0261 -1.4784
 1295SOL    HW2 5486   1.075   3.845   5.416  1.6562  0.6490  3.9466
 1296SOL     OW 5487   1.619   3.491   2.541  0.1567 -0.2111  0.1350
 1296SOL    HW1 5488   1.523   3.493   2.570  0.4655  0.8206  1.1724
 1296SOL    HW2 5489   1.669   3.424   2.596 -0.0881 -1.2200 -0.8497
 1297SOL     OW 5490   6.922   3.917   3.810  0.0205 -0.3147  0.0595
 1297SOL    HW1 5491   7.005   3.940   3.759 -0.7350  0.6678 -0.7883
 1297SOL    HW2 5492   6.888   3.999   3.855 -0.7972 -0.5737 -0.0726
 1298SOL     OW 5493   4.160   6.846   6.579 -0.0011 -0.2144 -0.1881
 1298SOL    HW1 5494   4.208   6.924   6.621 -2.5807  1.3459  0.0550
 1298SOL    HW2 5495   4.166   6.767   6.640 -0.4753  0.8974  1.3586
 1299SOL     OW 5496   3.955   5.651   1.119  0.2185  0.2809  0.2699
 1299SOL    HW1 5497   3.890   5.681   1.049  1.6567  0.0960 -1.2172
 1299SOL    HW2 5498   3.939   5.555   1.139 -0.5795  0.4826  0.6474
 1300SOL     OW 5499   6.738   1.020   5.942  0.1836 -0.7784 -0.2136
 1300SOL    HW1 5500   6.832   1.051   5.955  0.3320 -1.0288 -0.6493
 1300SOL    HW2 5501   6.729   0.980   5.850  0.1383 -2.5022  0.4965
 1301SOL     OW 5502   3.297   6.944   1.724 -0.2195  0.1890  0.4347
 1301SOL    HW1 5503   3.252   6.861   1.759 -0.1568  0.5873  1.5064
 1301SOL    HW2 5504   3.238   6.987   1.655  0.9266 -2.1961 -2.2427
 1302SOL     OW 5505   0.267   0.036   5.109 -0.2040 -0.1341  0.7379
 1302SOL    HW1 5506   0.182   0.045   5.160  0.0733  1.4095  1.0016
 1302SOL    HW2 5507   0.257  -0.034   5.038 -1.7906  0.2241  0.5637
 1303SOL     OW 5508   0.988   1.677   3.352  0.7320  0.2403  0.3201
 1303SOL    HW1 5509   0.923   1.692   3.277  2.9253  1.3670 -1.4534
 1303SOL    HW2 5510   1.029   1.764   3.379  1.5636 -0.4519  1.3626
 1304SOL     OW 5511   6.118   1.121   2.412 -0.2891  0.0754  0.0198
 1304SOL    HW1 5512   6.033   1.171   2.430 -0.0876  0.4137  0.0550
 1304SOL    HW2 5513   6.193   1.187   2.404 -0.0251 -0.2247  0.0311
 1305SOL     OW 5514   1.489   5.433   6.036  0.6208 -0.1759  0.4171
 1305SOL    HW1 5515   1.588   5.443   6.024  0.2808  4.2609 -0.4909
 1305SOL    HW2 5516   1.460   5.487   6.115 -1.3185  0.8879 -0.9418
 1306SOL     OW 5517   4.123   6.364   0.419 -0.1199  0.1349  0.3899
 1306SOL    HW1 5518   4.073   6.368   0.332 -1.4453 -2.0095  0.9600
 1306SOL    HW2 5519   4.160   6.272   0.431 -3.4021 -1.0159  3.7705
 1307SOL     OW 5520   1.395   2.228   3.605  0.3397  0.8100 -0.1050
 1307SOL    HW1 5521   1.393   2.240   3.505  3.6592  0.5740 -0.3280
 1307SOL    HW2 5522   1.456   2.152   3.627  0.9791  1.9122  2.1620
 1308SOL     OW 5523   6.701   1.415   3.855 -0.4794  0.0731  0.2863
 1308SOL    HW1 5524   6.605   1.410   3.826 -0.9560 -0.1716  1.7955
 1308SOL    HW2 5525   6.746   1.327   3.838 -0.1917  0.5279 -1.4358
 1309SOL     OW 5526   1.471   5.730   1.911  0.0430 -0.4879 -0.0241
 1309SOL    HW1 5527   1.537   5.799   1.941 -0.8114  0.3775 -0.1036
 1309SOL    HW2 5528   1.387   5.738   1.964 -0.4434 -0.7881 -0.7317
 1310SOL     OW 5529   2.613   5.606   4.573  0.4279 -0.1724  0.1127
 1310SOL    HW1 5530   2.612   5.597   4.673 -2.0827 -2.0407  0.0220
 1310SOL    HW2 5531   2.614   5.514   4.532  2.4542  0.5525 -1.6497
 1311SOL     OW 5532   0.229   6.011   6.751  0.7244  0.0203  0.4848
 1311SOL    HW1 5533   0.222   6.006   6.850 -2.6403 -1.3026  0.3213
 1311SOL    HW2 5534   0.251   6.105   6.723  2.1856  0.3180  2.4020
 1312SOL     OW 5535   4.835   4.853   0.856  0.0867 -0.5076 -0.1099
 1312SOL    HW1 5536   4.755   4.805   0.820 -0.2031 -0.3704  0.3405
 1312SOL    HW2 5537   4.804   4.926   0.917  0.4635  0.9099 -1.5401
 1313SOL     OW 5538   2.824   4.188   6.390  0.1173  0.0261 -0.1608
 1313SOL    HW1 5539   2.894   4.122   6.364  0.0172  0.1043 -0.6253
 1313SOL    HW2 5540   2.857   4.281   6.374 -0.9172  0.0381 -2.5727
 1314SOL     OW 5541   1.589   6.464   5.883 -0.6403  0.5059 -0.0011
 1314SOL    HW1 5542   1.579   6.561   5.860  0.7487  0.8818  0.8713
 1314SOL    HW2 5543   1.636   6.417   5.808 -3.4114 -0.0454 -1.5017
 1315SOL     OW 5544   6.200   5.212   4.037  0.1512  0.5054  0.0278
 1315SOL    HW1 5545   6.246   5.258   3.961 -0.9663  2.4830  0.4576
 1315SOL    HW2 5546   6.237   5.246   4.124 -0.7558  0.6908  0.3574
 1316SOL     OW 5547   2.223   4.015   1.075 -0.2166  0.6781 -0.1507
 1316SOL    HW1 5548   2.182   3.987   1.161 -0.1879  0.4677 -0.2043
 1316SOL    HW2 5549   2.289   4.088   1.091  0.2631  0.2049  0.0961
 1317SOL     OW 5550   4.152   0.112   2.612  0.0094  0.4949 -0.5068
 1317SOL    HW1 5551   4.237   0.083   2.568  0.2905 -1.6825  1.2898
 1317SOL    HW2 5552   4.077   0.053   2.582  0.2823 -1.3347  2.0136
 1318SOL     OW 5553   3.452   2.516   6.449  0.1389  0.0391  0.0570
 1318SOL    HW1 5554   3.497   2.548   6.533  0.0576  0.7502 -0.1619
 1318SOL    HW2 5555   3.507   2.542   6.370 -0.5523  0.7534 -0.2031
 1319SOL     OW 5556   0.395   4.519   5.428  0.1300  0.2552  0.6626
 1319SOL    HW1 5557   0.466   4.498   5.494  0.2103  0.4560  0.6436
 1319SOL    HW2 5558   0.384   4.443   5.364 -0.5410 -0.3032  1.4127
 1320SOL     OW 5559   5.484   2.630   5.712 -0.2507 -0.3070 -0.0404
 1320SOL    HW1 5560   5.575   2.602   5.744 -0.5850 -1.5179 -0.0938
 1320SOL    HW2 5561   5.422   2.634   5.790  0.1243  1.8587  0.2194
 1321SOL     OW 5562   0.104   3.409   4.656 -0.4120 -0.3234 -0.1109
 1321SOL    HW1 5563   0.159   3.452   4.584 -0.3301  1.3629  0.9255
 1321SOL    HW2 5564   0.062   3.479   4.713  0.0384 -1.5896  1.8883
 1322SOL     OW 5565   1.853   6.589   0.889 -0.1982 -0.3791 -0.4204
 1322SOL    HW1 5566   1.825   6.568   0.983 -2.4799  0.7497 -0.7854
 1322SOL    HW2 5567   1.951   6.605   0.887 -0.3114  1.2242  2.1262
 1323SOL     OW 5568   3.671   5.149   5.902 -0.0467  0.1150 -0.5788
 1323SOL    HW1 5569   3.742   5.192   5.846 -1.4293 -0.7898 -3.2357
 1323SOL    HW2 5570   3.700   5.057   5.928  0.2262  0.1723 -0.6791
 1324SOL     OW 5571   0.714   3.788   1.326  0.2429  0.1019 -0.4482
 1324SOL    HW1 5572   0.730   3.887   1.334  0.9587  0.1683 -2.1309
 1324SOL    HW2 5573   0.617   3.769   1.338  0.0909  1.0226 -0.1201
 1325SOL     OW 5574   6.714   0.029   4.248  0.7720 -0.2320 -0.2421
 1325SOL    HW1 5575   6.715   0.106   4.183  0.3139  1.3613  1.5341
 1325SOL    HW2 5576   6.789  -0.033   4.227  0.0963 -0.2958 -2.8291
 1326SOL     OW 5577   3.143   2.860   6.536 -0.1314 -0.1973 -0.0631
 1326SOL    HW1 5578   3.101   2.787   6.590 -1.4541  0.2385 -0.4575
 1326SOL    HW2 5579   3.191   2.922   6.596 -1.2640  0.0704  0.5968
 1327SOL     OW 5580   5.031   5.696   3.076 -0.0564  0.0261 -0.6482
 1327SOL    HW1 5581   4.959   5.690   3.007 -0.3977 -0.5615 -0.2482
 1327SOL    HW2 5582   4.996   5.742   3.157  0.4761  1.1313 -1.0146
 1328SOL     OW 5583   3.973   1.867   5.664  0.2361  0.2604  0.2444
 1328SOL    HW1 5584   3.968   1.919   5.578 -0.4240  1.4262  0.9601
 1328SOL    HW2 5585   4.042   1.795   5.655  0.1353  0.3200 -1.2778
 1329SOL     OW 5586   1.180   1.390   5.744  0.3942  0.1878 -0.1362
 1329SOL    HW1 5587   1.122   1.332   5.801 -1.6648  2.1622 -0.1099
 1329SOL    HW2 5588   1.254   1.428   5.800  1.7231 -2.2178 -0.1319
 1330SOL     OW 5589   0.205   2.702   6.710  0.3753 -0.2922  0.0900
 1330SOL    HW1 5590   0.302   2.721   6.697  0.6454 -0.1741  1.9996
 1330SOL    HW2 5591   0.188   2.605   6.693  1.1743 -0.6812  1.3717
 1331SOL     OW 5592   2.687   1.927   0.102 -0.5039 -0.0984 -0.1404
 1331SOL    HW1 5593   2.645   2.017   0.093  1.1046  0.6684 -0.4549
 1331SOL    HW2 5594   2.738   1.905   0.018  1.4133 -0.0243  0.9372
 1332SOL     OW 5595   6.422   4.305   6.629 -0.5619 -0.1382 -0.4915
 1332SOL    HW1 5596   6.446   4.309   6.726 -0.0520 -0.4679 -0.5989
 1332SOL    HW2 5597   6.447   4.391   6.584  0.3769 -0.4521 -0.5879
 1333SOL     OW 5598   1.185   5.223   5.788 -0.3605 -0.5039  0.3114
 1333SOL    HW1 5599   1.109   5.232   5.851 -0.8775  1.5899 -0.5351
 1333SOL    HW2 5600   1.170   5.145   5.727 -0.4042 -1.8356  1.9585
 1334SOL     OW 5601   4.663   5.370   3.867 -0.2453  0.4166 -0.2455
 1334SOL    HW1 5602   4.567   5.392   3.881  0.1372  1.7499  0.4490
 1334SOL    HW2 5603   4.677   5.340   3.773 -0.9162  2.8567 -1.2001
 1335SOL     OW 5604   2.650   2.286   1.800 -0.1348 -0.6113 -0.8234
 1335SOL    HW1 5605   2.746   2.270   1.779  0.5944  0.8283  1.1058
 1335SOL    HW2 5606   2.598   2.297   1.715  1.6512 -0.0787 -1.8852
 1336SOL     OW 5607   6.540   0.156   2.432  0.6876 -0.1541  0.4987
 1336SOL    HW1 5608   6.578   0.216   2.361  0.9527 -1.9839 -0.9940
 1336SOL    HW2 5609   6.508   0.211   2.508  2.4905  1.7516 -0.0221
 1337SOL     OW 5610   0.770   5.127   1.844  0.2596  0.2222  0.4140
 1337SOL    HW1 5611   0.830   5.109   1.922 -1.2912 -2.6943  1.0990
 1337SOL    HW2 5612   0.782   5.054   1.776  0.3607  1.8051 -1.3574
 1338SOL     OW 5613   5.152   6.267   3.178 -0.1259  0.3201 -0.1424
 1338SOL    HW1 5614   5.209   6.189   3.153 -0.1146  0.8274 -1.8094
 1338SOL    HW2 5615   5.185   6.307   3.263 -0.5511 -1.8885  1.1337
 1339SOL     OW 5616   3.572   6.553   0.259 -0.2909  0.6168 -0.0115
 1339SOL    HW1 5617   3.571   6.579   0.356 -1.9968 -1.7359  0.7049
 1339SOL    HW2 5618   3.623   6.467   0.249 -2.4872 -0.6752 -0.6820
 1340SOL     OW 5619   2.621   6.158   0.513  0.3813 -0.1502 -0.2405
 1340SOL    HW1 5620   2.713   6.173   0.478  0.0830  1.2597 -0.4844
 1340SOL    HW2 5621   2.621   6.168   0.613  0.4691 -0.0126 -0.2538
 1341SOL     OW 5622   5.262   1.626   2.794 -0.5679  0.3371 -0.0907
 1341SOL    HW1 5623   5.261   1.540   2.743  0.4624 -0.2867  0.8819
 1341SOL    HW2 5624   5.233   1.701   2.734 -2.8882 -0.8497 -0.5805
 1342SOL     OW 5625   0.534   1.905   4.988  0.2360 -1.0948  0.4041
 1342SOL    HW1 5626   0.516   1.816   5.032  0.6703 -1.1493  0.4770
 1342SOL    HW2 5627   0.631   1.926   4.995  0.1673 -0.7064  0.2022
 1343SOL     OW 5628   1.892   1.421   0.281 -0.6484  0.1724  0.3562
 1343SOL    HW1 5629   1.913   1.395   0.375  0.6584 -0.4318 -0.0890
 1343SOL    HW2 5630   1.909   1.344   0.220  3.1807  1.8358 -0.9865
 1344SOL     OW 5631   3.562   6.037   0.117  0.3548  0.2774  0.1112
 1344SOL    HW1 5632   3.617   6.004   0.193 -1.2523 -0.1384  1.1519
 1344SOL    HW2 5633   3.491   5.970   0.095  0.3367  0.7137 -1.2780
 1345SOL     OW 5634   0.915   1.082   6.791 -0.1686  0.0728 -0.6287
 1345SOL    HW1 5635   0.916   1.156   6.723 -2.2207 -1.5995 -2.6437
 1345SOL    HW2 5636   0.821   1.053   6.807  0.4507 -1.0256  1.4139
 1346SOL     OW 5637   2.010   2.980   5.699  1.0471  0.0813  0.4020
 1346SOL    HW1 5638   2.007   3.075   5.669 -1.1740  0.0456  0.3397
 1346SOL    HW2 5639   1.993   2.976   5.798  1.4310 -0.2381  0.4587
 1347SOL     OW 5640   1.788   5.044   3.666 -0.3253 -0.0474  0.5850
 1347SOL    HW1 5641   1.715   4.979   3.690 -3.0226  2.6385  0.3227
 1347SOL    HW2 5642   1.840   5.067   3.748 -3.1759  1.7777  2.0442
 1348SOL     OW 5643   1.435   4.583   2.947  0.1127 -0.2216  0.3485
 1348SOL    HW1 5644   1.480   4.577   3.036  2.4388 -0.0244 -0.7605
 1348SOL    HW2 5645   1.416   4.679   2.926  0.6152 -0.1615  0.1505
 1349SOL     OW 5646   0.680   2.539   3.533  0.0104  0.8579 -0.0806
 1349SOL    HW1 5647   0.663   2.469   3.464 -0.3779  1.7615 -0.9274
 1349SOL    HW2 5648   0.777   2.535   3.560 -0.3655 -1.0989  1.1622
 1350SOL     OW 5649   4.482   3.078   3.820 -1.0490  0.1337 -0.1136
 1350SOL    HW1 5650   4.454   3.173   3.803  0.5478  0.8059  0.7789
 1350SOL    HW2 5651   4.413   3.032   3.876 -1.4546  1.0391  0.1463
 1351SOL     OW 5652   6.855   6.604   0.409 -0.3538  0.3346 -0.2033
 1351SOL    HW1 5653   6.893   6.629   0.320 -4.0456  1.9865 -1.5384
 1351SOL    HW2 5654   6.826   6.508   0.408  2.3705 -0.5846  0.4334
 1352SOL     OW 5655   6.402   6.837   0.133 -0.1806  0.2601  0.1551
 1352SOL    HW1 5656   6.423   6.924   0.178  2.0014  0.0648 -0.3526
 1352SOL    HW2 5657   6.350   6.778   0.195 -0.9387  1.5886  0.8129
 1353SOL     OW 5658   0.833   0.107   2.592 -0.0619  0.0765 -0.1243
 1353SOL    HW1 5659   0.788   0.023   2.562 -0.1310 -0.5715  1.6748
 1353SOL    HW2 5660   0.897   0.137   2.521 -1.7046 -0.1738 -1.8014
 1354SOL     OW 5661   1.819   5.795   5.896 -0.0751 -0.1345  0.0609
 1354SOL    HW1 5662   1.888   5.858   5.933  0.7359 -0.8067 -0.2901
 1354SOL    HW2 5663   1.782   5.740   5.970  0.8858 -0.8413  0.0341
 1355SOL     OW 5664   2.456   0.501   1.876  0.1295 -0.1569  0.5552
 1355SOL    HW1 5665   2.464   0.403   1.895 -0.9424 -0.8076 -1.9516
 1355SOL    HW2 5666   2.366   0.520   1.836  0.8083  1.6474 -0.2095
 1356SOL     OW 5667   0.450   4.129   2.223  0.3858  0.4899  0.0409
 1356SOL    HW1 5668   0.523   4.061   2.223 -0.7868 -0.8453 -1.6234
 1356SOL    HW2 5669   0.364   4.085   2.199 -0.4133  2.5869 -1.1568
 1357SOL     OW 5670   1.808   6.814   5.124 -0.1389 -0.3382 -0.2057
 1357SOL    HW1 5671   1.868   6.893   5.110  0.0903 -0.0817  1.9586
 1357SOL    HW2 5672   1.725   6.842   5.171  0.5498 -1.5390  1.8567
 1358SOL     OW 5673   2.059   1.300   1.889 -0.1257  0.5030 -0.2758
 1358SOL    HW1 5674   2.075   1.399   1.897  0.1858  0.4151  0.1973
 1358SOL    HW2 5675   1.970   1.284   1.846 -0.0303  0.9906 -0.6741
 1359SOL     OW 5676   4.599   4.674   4.818 -0.1596  0.3082  0.3266
 1359SOL    HW1 5677   4.569   4.770   4.814 -0.8282  0.0974  0.2627
 1359SOL    HW2 5678   4.570   4.634   4.905  0.7292  0.3583  0.6576
 1360SOL     OW 5679   6.371   0.226   3.500  0.6344 -0.2662  0.0803
 1360SOL    HW1 5680   6.287   0.235   3.554  0.0717 -0.9217 -0.6423
 1360SOL    HW2 5681   6.448   0.206   3.560  0.1051 -0.5432  0.6815
 1361SOL     OW 5682   1.760   0.822   0.725 -0.1916  0.6407 -0.1549
 1361SOL    HW1 5683   1.697   0.746   0.743 -1.0875  1.1281 -1.1355
 1361SOL    HW2 5684   1.713   0.909   0.739  0.4773  1.0209 -0.2223
 1362SOL     OW 5685   5.348   2.832   6.082  0.2681  0.2177 -0.7343
 1362SOL    HW1 5686   5.428   2.856   6.137 -1.1956  1.5445  0.9626
 1362SOL    HW2 5687   5.315   2.913   6.033  0.5803 -0.5762 -2.3449
 1363SOL     OW 5688   5.806   2.616   4.370  0.5845 -0.0217 -0.1229
 1363SOL    HW1 5689   5.849   2.704   4.352  1.1526 -0.4186 -0.7515
 1363SOL    HW2 5690   5.707   2.624   4.359  0.5286  0.7705  0.8164
 1364SOL     OW 5691   5.555   6.821   3.081 -0.0712 -0.2027  0.5593
 1364SOL    HW1 5692   5.620   6.750   3.053 -1.1667 -1.0025 -0.0326
 1364SOL    HW2 5693   5.538   6.814   3.179  2.4853  1.5280  1.2490
 1365SOL     OW 5694   0.904   3.978   2.083 -0.0105 -0.2088  0.0113
 1365SOL    HW1 5695   0.856   4.065   2.095  1.1174  0.3389  0.7076
 1365SOL    HW2 5696   0.955   3.956   2.166  3.2080  0.6819 -1.5346
 1366SOL     OW 5697   5.680   2.377   6.108 -0.4503  0.1236  0.2707
 1366SOL    HW1 5698   5.634   2.289   6.116  0.5655 -0.3909  0.5590
 1366SOL    HW2 5699   5.691   2.400   6.011 -0.3877 -0.2403  0.1906
 1367SOL     OW 5700   5.562   2.929   4.146 -0.0543 -0.4037 -0.5752
 1367SOL    HW1 5701   5.650   2.971   4.120  0.9650 -0.3039  2.6326
 1367SOL    HW2 5702   5.487   2.984   4.108  1.2707  1.5428 -0.5483
 1368SOL     OW 5703   5.730   2.394   1.204  0.1660 -1.1560 -0.7500
 1368SOL    HW1 5704   5.790   2.457   1.255 -1.6283 -0.3907  0.5253
 1368SOL    HW2 5705   5.780   2.309   1.185  1.4738 -0.7895  0.7907
 1369SOL     OW 5706   1.615   4.849   1.894 -0.3396  0.2655  0.1476
 1369SOL    HW1 5707   1.604   4.947   1.877  0.7958  0.2858 -0.5860
 1369SOL    HW2 5708   1.654   4.834   1.984 -0.9675  0.4503  0.4580
 1370SOL     OW 5709   1.181   5.443   0.840  0.3519  0.4301  0.1747
 1370SOL    HW1 5710   1.188   5.434   0.940  0.4025 -0.4464  0.1032
 1370SOL    HW2 5711   1.228   5.526   0.811 -2.4927  2.5260  1.2014
 1371SOL     OW 5712   6.976   1.573   0.078 -0.1240  0.1517  0.0604
 1371SOL    HW1 5713   7.071   1.562   0.108  0.4714  0.3123 -1.6726
 1371SOL    HW2 5714   6.937   1.484   0.055  0.1805  0.2368 -0.8325
 1372SOL     OW 5715   0.545   2.046   0.398 -0.4780  0.5664 -0.4883
 1372SOL    HW1 5716   0.538   2.025   0.495  2.7689 -1.1660 -0.4696
 1372SOL    HW2 5717   0.574   2.141   0.386 -1.5691  0.9940  0.1724
 1373SOL     OW 5718   4.570   2.462   5.877  0.6031  0.7209 -0.2650
 1373SOL    HW1 5719   4.637   2.395   5.907  0.0910  0.4526  0.2995
 1373SOL    HW2 5720   4.587   2.549   5.923  0.1273  0.4502  0.4427
 1374SOL     OW 5721   1.238   5.478   1.110 -0.0633 -0.3587  0.2121
 1374SOL    HW1 5722   1.329   5.517   1.093 -0.0033 -0.7194 -0.3372
 1374SOL    HW2 5723   1.184   5.542   1.165 -0.0760  0.6499 -0.9206
 1375SOL     OW 5724   6.137   5.014   3.845 -0.3702 -0.0186  0.1642
 1375SOL    HW1 5725   6.217   4.954   3.835 -1.6369 -1.8998  0.7543
 1375SOL    HW2 5726   6.156   5.083   3.915  1.3338  0.6799 -0.9368
 1376SOL     OW 5727   0.832   6.920   1.584 -0.2754 -0.1879 -0.1600
 1376SOL    HW1 5728   0.929   6.945   1.585 -0.2303 -0.3051 -1.0421
 1376SOL    HW2 5729   0.818   6.847   1.517 -1.1070  0.3650 -0.6007
 1377SOL     OW 5730   5.526   1.373   6.792  0.3078  0.3185 -0.5259
 1377SOL    HW1 5731   5.443   1.323   6.768 -1.1543  2.8866 -1.2496
 1377SOL    HW2 5732   5.565   1.336   6.877 -3.3174  0.8666  1.5766
 1378SOL     OW 5733   1.074   0.512   5.634  0.1770 -1.1382  0.3573
 1378SOL    HW1 5734   1.146   0.527   5.565 -0.9788  1.2562 -0.4295
 1378SOL    HW2 5735   0.995   0.470   5.590  0.3077 -1.8061  0.7579
 1379SOL     OW 5736   0.890   6.536   4.380  0.0507  0.3083 -0.6851
 1379SOL    HW1 5737   0.921   6.565   4.289 -1.6472  0.0825 -1.3679
 1379SOL    HW2 5738   0.926   6.445   4.399 -0.3712 -0.0614 -1.5725
 1380SOL     OW 5739   1.880   5.355   1.904  0.0326  0.2309 -0.4938
 1380SOL    HW1 5740   1.856   5.451   1.895 -0.9744 -0.1462 -2.3057
 1380SOL    HW2 5741   1.879   5.329   2.000  0.4794  2.0475  0.0338
 1381SOL     OW 5742   0.844   3.000   3.681  0.5946  0.7961  0.3701
 1381SOL    HW1 5743   0.781   3.066   3.640  1.5320  0.9952 -0.7770
 1381SOL    HW2 5744   0.923   3.049   3.718  1.6239  0.2937 -1.0887
 1382SOL     OW 5745   4.937   0.721   1.694  0.5346  0.2774 -0.4317
 1382SOL    HW1 5746   4.961   0.650   1.628 -1.1668 -1.0971  0.3215
 1382SOL    HW2 5747   4.958   0.689   1.786 -1.2626  0.2468  0.0040
 1383SOL     OW 5748   5.403   6.891   5.762 -0.1972  0.2465 -0.0685
 1383SOL    HW1 5749   5.396   6.792   5.755  0.7186  0.2511 -1.6065
 1383SOL    HW2 5750   5.433   6.916   5.854  1.4468 -1.0607 -0.2037
 1384SOL     OW 5751   2.013   3.835   1.251 -0.0715 -0.1797  0.7214
 1384SOL    HW1 5752   1.962   3.907   1.299 -0.1015  0.8202 -0.7259
 1384SOL    HW2 5753   2.058   3.776   1.317 -0.2162  1.0532  1.9707
 1385SOL     OW 5754   1.477   5.619   1.225 -0.2354  0.2135  0.4194
 1385SOL    HW1 5755   1.532   5.573   1.295 -1.0829  0.0485  0.9857
 1385SOL    HW2 5756   1.453   5.711   1.257 -2.8590 -0.7842  1.5488
 1386SOL     OW 5757   5.933   2.032   2.078 -0.4340  0.4341 -0.7747
 1386SOL    HW1 5758   5.906   2.104   2.014  0.1402  1.4642  0.1068
 1386SOL    HW2 5759   6.025   2.051   2.112 -0.6948 -0.1577  0.2809
 1387SOL     OW 5760   5.803   3.281   4.804 -0.7224 -0.0619  0.1010
 1387SOL    HW1 5761   5.846   3.201   4.762 -1.2696 -1.0019  1.2785
 1387SOL    HW2 5762   5.806   3.272   4.903  0.3529  2.0139  0.3033
 1388SOL     OW 5763   0.933   2.846   3.076 -0.3500  0.1935 -0.2503
 1388SOL    HW1 5764   0.906   2.802   2.990  2.4497  1.0594 -1.6696
 1388SOL    HW2 5765   0.981   2.779   3.133 -1.6139 -0.1970  0.3924
 1389SOL     OW 5766   5.488   5.922   6.957 -0.2695  0.0062  0.2372
 1389SOL    HW1 5767   5.467   5.902   7.052 -0.3029  0.4512  0.3278
 1389SOL    HW2 5768   5.494   6.021   6.944 -2.1127  0.0590 -0.5917
 1390SOL     OW 5769   1.568   5.912   3.625  0.3734 -0.2945 -0.4053
 1390SOL    HW1 5770   1.628   5.991   3.630 -0.5586  0.3574  1.1009
 1390SOL    HW2 5771   1.510   5.919   3.544 -0.5384  1.2115  0.3385
 1391SOL     OW 5772   6.832   1.258   5.616  0.3074  0.7883  0.1162
 1391SOL    HW1 5773   6.750   1.262   5.673 -1.1365 -1.3133 -1.6394
 1391SOL    HW2 5774   6.822   1.323   5.540 -0.5831 -0.6052 -1.0213
 1392SOL     OW 5775   0.362   6.278   1.788  0.1477 -0.3225 -0.3215
 1392SOL    HW1 5776   0.326   6.207   1.848 -0.8848  1.9350  1.9430
 1392SOL    HW2 5777   0.423   6.337   1.840 -1.2109  2.0668 -1.2577
 1393SOL     OW 5778   2.592   4.667   5.964  0.4640 -0.3725  0.0756
 1393SOL    HW1 5779   2.508   4.686   5.914 -0.5970 -1.8779  1.1868
 1393SOL    HW2 5780   2.590   4.712   6.053  0.7817 -0.4921  0.1468
 1394SOL     OW 5781   1.655   5.221   4.649 -0.1812 -0.1165  0.4406
 1394SOL    HW1 5782   1.631   5.156   4.722 -1.3083 -0.1238  0.0786
 1394SOL    HW2 5783   1.677   5.310   4.689  2.3030 -0.9182  1.0279
 1395SOL     OW 5784   2.041   6.055   3.086 -0.3660 -0.3453 -0.4605
 1395SOL    HW1 5785   2.127   6.106   3.080 -0.1229 -0.5745  0.7100
 1395SOL    HW2 5786   1.972   6.111   3.133 -0.2164 -0.9186  0.4689
 1396SOL     OW 5787   6.865   0.707   2.743  0.4391  0.0620  0.0958
 1396SOL    HW1 5788   6.857   0.637   2.813 -1.1613  0.5667  0.4475
 1396SOL    HW2 5789   6.922   0.673   2.668  2.4057 -0.3971  1.7166
 1397SOL     OW 5790   1.220   6.591   2.041 -0.2977  0.7751 -0.3241
 1397SOL    HW1 5791   1.215   6.536   2.124 -0.3306 -0.6585 -1.2436
 1397SOL    HW2 5792   1.276   6.544   1.973 -0.9943  1.4882 -1.4254
 1398SOL     OW 5793   0.917   5.782   1.875  0.2372 -0.6034 -0.1036
 1398SOL    HW1 5794   0.973   5.724   1.934 -1.8316 -1.5969  1.0164
 1398SOL    HW2 5795   0.910   5.741   1.784  0.4055 -1.0667  0.0910
 1399SOL     OW 5796   2.386   6.023   4.369 -0.3782 -0.3113 -0.2619
 1399SOL    HW1 5797   2.368   5.953   4.438 -1.9198  2.3805  2.2972
 1399SOL    HW2 5798   2.300   6.052   4.328  0.1135  0.8023 -0.5301
 1400SOL     OW 5799   2.044   6.156   6.280 -0.5555 -0.1822 -0.1798
 1400SOL    HW1 5800   2.079   6.213   6.354  0.2206  0.4108 -0.9804
 1400SOL    HW2 5801   2.118   6.098   6.245 -0.4846  0.6257 -1.4630
 1401SOL     OW 5802   2.179   4.844   1.575 -0.2968  0.9214 -0.3313
 1401SOL    HW1 5803   2.160   4.856   1.478 -0.2016  0.1276 -0.4541
 1401SOL    HW2 5804   2.093   4.836   1.625 -0.4190 -2.3064 -0.8402
 1402SOL     OW 5805   2.072   5.447   4.495 -0.6051  0.4812 -0.3331
 1402SOL    HW1 5806   2.163   5.415   4.466 -0.4487  0.3233  0.2975
 1402SOL    HW2 5807   2.075   5.545   4.511 -0.2806  0.3380  0.5843
 1403SOL     OW 5808   1.716   3.559   4.659  0.4892  0.2605  0.4403
 1403SOL    HW1 5809   1.710   3.651   4.699  2.0378  0.6921 -0.2678
 1403SOL    HW2 5810   1.694   3.564   4.562 -2.8628 -0.7193  1.0072
 1404SOL     OW 5811   1.231   5.873   0.495  0.9526  0.6441 -0.3005
 1404SOL    HW1 5812   1.274   5.946   0.547  0.2928  0.0553  1.1330
 1404SOL    HW2 5813   1.136   5.861   0.526  0.4811  0.3848 -1.7714
 1405SOL     OW 5814   3.563   6.309   0.535 -0.4020  0.9804  0.4946
 1405SOL    HW1 5815   3.512   6.321   0.620  0.0272 -2.3482  1.3502
 1405SOL    HW2 5816   3.655   6.348   0.546  0.0617 -0.4220  2.0589
 1406SOL     OW 5817   4.215   6.375   4.791  0.1905  0.3026 -0.2263
 1406SOL    HW1 5818   4.143   6.383   4.723  0.6813  0.7588 -0.7089
 1406SOL    HW2 5819   4.264   6.289   4.777 -1.4927 -0.9916  1.3645
 1407SOL     OW 5820   3.153   2.796   6.280  0.0198  0.3915  0.3429
 1407SOL    HW1 5821   3.074   2.831   6.230 -1.1078 -1.5839  0.6369
 1407SOL    HW2 5822   3.143   2.815   6.378 -2.5706 -3.7343  1.1387
 1408SOL     OW 5823   4.633   0.646   5.634 -0.0681  0.3352  0.2283
 1408SOL    HW1 5824   4.599   0.617   5.544  0.3227  0.9825 -0.1367
 1408SOL    HW2 5825   4.703   0.581   5.664 -0.4563 -0.0871  0.2362
 1409SOL     OW 5826   4.603   5.140   5.532 -0.0619  1.0880  0.0268
 1409SOL    HW1 5827   4.533   5.202   5.568  0.0477  0.6290  1.0548
 1409SOL    HW2 5828   4.628   5.169   5.439 -2.4288  0.5868 -0.8403
 1410SOL     OW 5829   1.554   1.644   0.881  0.3321 -0.0610  0.0166
 1410SOL    HW1 5830   1.498   1.702   0.939 -1.3100 -0.7915 -0.7829
 1410SOL    HW2 5831   1.601   1.575   0.937  0.2820  0.4309  0.6693
 1411SOL     OW 5832   4.609   6.979   0.139  0.1473  0.1634  0.1870
 1411SOL    HW1 5833   4.626   6.882   0.120  0.7970  0.4851 -1.0106
 1411SOL    HW2 5834   4.515   6.990   0.172  0.4190 -0.9905  1.4531
 1412SOL     OW 5835   4.736   3.758   4.155  0.2460 -0.6085  0.0002
 1412SOL    HW1 5836   4.703   3.803   4.238  2.1953 -1.1040  1.1104
 1412SOL    HW2 5837   4.741   3.660   4.171  0.7350 -0.6926 -0.6656
 1413SOL     OW 5838   0.417   0.321   1.223 -0.1344 -0.3969 -0.2489
 1413SOL    HW1 5839   0.318   0.321   1.241 -0.4302 -1.4165 -1.6619
 1413SOL    HW2 5840   0.434   0.364   1.135  0.7594  0.2233  0.2129
 1414SOL     OW 5841   0.945   1.314   0.150 -0.1204 -0.0372 -0.5624
 1414SOL    HW1 5842   0.972   1.401   0.192  1.0275  0.1038 -1.5092
 1414SOL    HW2 5843   0.912   1.332   0.057  0.9868 -0.6687 -1.0993
 1415SOL     OW 5844   0.494   5.429   3.528  0.1937 -0.1220 -0.0245
 1415SOL    HW1 5845   0.582   5.418   3.481  0.6262 -1.7943  1.0911
 1415SOL    HW2 5846   0.497   5.509   3.587  0.8106  0.0674 -0.3050
 1416SOL     OW 5847   6.850   6.726   6.815  0.1701  0.3947  0.4122
 1416SOL    HW1 5848   6.884   6.639   6.780 -1.0281 -0.3010  0.9284
 1416SOL    HW2 5849   6.779   6.710   6.884 -1.8635  1.7411 -1.2241
 1417SOL     OW 5850   5.564   5.450   4.049 -0.3078  0.4457 -0.5256
 1417SOL    HW1 5851   5.546   5.494   4.137 -1.1740 -0.4906 -0.2219
 1417SOL    HW2 5852   5.483   5.455   3.991  0.7187  2.4169 -1.9094
 1418SOL     OW 5853   3.175   4.987   6.690  0.4090 -0.3625  0.2305
 1418SOL    HW1 5854   3.156   4.992   6.592 -1.9490 -2.0647  0.5127
 1418SOL    HW2 5855   3.113   5.049   6.739  0.7908 -0.3616  0.7174
 1419SOL     OW 5856   0.833   6.248   1.289 -0.2651 -0.3152 -0.6867
 1419SOL    HW1 5857   0.765   6.200   1.344 -0.0482 -0.1878 -0.3002
 1419SOL    HW2 5858   0.924   6.209   1.307  0.2839  1.6741  1.4101
 1420SOL     OW 5859   1.924   2.440   6.788  0.5606  0.3669  0.0680
 1420SOL    HW1 5860   2.022   2.458   6.785  0.3882  1.2481 -0.5983
 1420SOL    HW2 5861   1.878   2.493   6.717 -0.3137 -0.6228 -0.1226
 1421SOL     OW 5862   4.553   4.815   0.335  0.4713  0.6280 -0.0841
 1421SOL    HW1 5863   4.466   4.784   0.299  1.2155  0.0635 -1.4766
 1421SOL    HW2 5864   4.626   4.755   0.303  1.2155  0.0538  2.4334
 1422SOL     OW 5865   4.314   2.609   5.869 -0.5219  0.0654 -0.1228
 1422SOL    HW1 5866   4.275   2.518   5.880  0.9606 -0.3325  2.4365
 1422SOL    HW2 5867   4.413   2.603   5.865 -0.3134  1.6660  1.5257
 1423SOL     OW 5868   1.402   6.557   6.604 -0.1097 -0.2727 -0.2022
 1423SOL    HW1 5869   1.414   6.585   6.699  0.1172 -1.5728  0.1646
 1423SOL    HW2 5870   1.483   6.508   6.573 -1.5043 -2.9268  0.0653
 1424SOL     OW 5871   0.420   2.997   2.005 -0.2208  0.2394  0.0636
 1424SOL    HW1 5872   0.512   2.962   2.025  0.2643  0.7324 -1.1828
 1424SOL    HW2 5873   0.402   3.079   2.060  1.6057  2.3649 -2.2848
 1425SOL     OW 5874   5.759   3.003   2.129 -0.2439 -0.3744  0.2751
 1425SOL    HW1 5875   5.760   2.951   2.214  1.7398 -0.9570 -0.0594
 1425SOL    HW2 5876   5.831   3.072   2.131 -1.3064  0.7747 -0.2471
 1426SOL     OW 5877   4.008   6.667   2.370  0.5937  0.1618  0.6686
 1426SOL    HW1 5878   4.080   6.622   2.422  1.3889  0.3953 -0.1843
 1426SOL    HW2 5879   3.937   6.601   2.347  0.9276 -0.2701  0.8582
 1427SOL     OW 5880   3.006   1.008   6.043 -0.5994 -0.4596  0.4200
 1427SOL    HW1 5881   2.976   0.992   6.137 -1.1825  1.9668  0.6987
 1427SOL    HW2 5882   3.081   1.074   6.042 -0.6795 -0.3595 -0.8294
 1428SOL     OW 5883   6.257   0.891   0.762  0.2758 -0.1989 -0.5117
 1428SOL    HW1 5884   6.341   0.858   0.720  1.0736  0.1388  0.7652
 1428SOL    HW2 5885   6.223   0.971   0.712  1.8689  0.9387  0.1565
 1429SOL     OW 5886   2.047   3.344   3.185 -0.0115  0.0194 -0.2778
 1429SOL    HW1 5887   2.080   3.301   3.269 -0.1636 -0.4269 -0.4437
 1429SOL    HW2 5888   2.125   3.364   3.125  0.0549 -0.0736 -0.2226
 1430SOL     OW 5889   6.924   2.376   6.913  0.1258  0.5397 -0.0588
 1430SOL    HW1 5890   6.859   2.394   6.838  2.0423  0.4125 -1.8551
 1430SOL    HW2 5891   6.910   2.284   6.947  0.1130  0.0694 -1.2660
 1431SOL     OW 5892   1.113   6.288   4.499  0.1418  0.0277  0.1027
 1431SOL    HW1 5893   1.117   6.219   4.571  0.8441  1.3391  1.3646
 1431SOL    HW2 5894   1.202   6.294   4.454  0.2385  0.4768  0.3533
 1432SOL     OW 5895   2.074   2.013   5.025  0.0918  0.4776 -0.0131
 1432SOL    HW1 5896   2.089   2.012   5.124  0.7900 -0.2137 -0.1121
 1432SOL    HW2 5897   2.086   1.921   4.988  1.4373  0.9834 -0.9517
 1433SOL     OW 5898   4.266   5.688   1.816  0.1061  0.2205  0.4111
 1433SOL    HW1 5899   4.261   5.788   1.825  0.5765  0.3435 -0.6184
 1433SOL    HW2 5900   4.353   5.655   1.853 -1.1808 -0.1593  3.4011
 1434SOL     OW 5901   1.845   6.435   2.108  0.1832 -0.4583 -0.2837
 1434SOL    HW1 5902   1.833   6.427   2.207 -0.4333 -0.2448 -0.3344
 1434SOL    HW2 5903   1.786   6.508   2.074  1.9635  0.9393 -0.5129
 1435SOL     OW 5904   3.603   2.376   1.442  0.3310 -0.2644  0.7865
 1435SOL    HW1 5905   3.678   2.333   1.391  0.8812  0.0124  1.3437
 1435SOL    HW2 5906   3.640   2.447   1.502 -0.3397 -0.3722  1.3456
 1436SOL     OW 5907   3.538   2.131   6.444 -0.4585  0.4716 -0.3045
 1436SOL    HW1 5908   3.457   2.189   6.437 -0.9135 -0.2811 -1.6285
 1436SOL    HW2 5909   3.616   2.175   6.399 -0.7497  0.1544 -1.1270
 1437SOL     OW 5910   1.658   1.268   5.644  0.6759 -0.0167  0.7198
 1437SOL    HW1 5911   1.744   1.284   5.692  2.0155  0.4612 -1.6391
 1437SOL    HW2 5912   1.655   1.326   5.562 -1.8710 -0.1055  0.6877
 1438SOL     OW 5913   2.547   2.171   5.809  0.0276  0.2349  0.1641
 1438SOL    HW1 5914   2.455   2.169   5.848 -0.7961  3.6206 -1.2374
 1438SOL    HW2 5915   2.614   2.166   5.883 -1.3795  1.1206  1.5737
 1439SOL     OW 5916   1.885   5.266   1.672 -0.4719  0.0763  0.3559
 1439SOL    HW1 5917   1.806   5.205   1.675 -0.1260 -0.3421  2.2494
 1439SOL    HW2 5918   1.893   5.313   1.760  1.3267  0.1973  0.1517
 1440SOL     OW 5919   3.320   0.244   0.918  0.1721 -0.5402  0.0827
 1440SOL    HW1 5920   3.317   0.320   0.983  0.5869 -0.8166  0.4297
 1440SOL    HW2 5921   3.255   0.261   0.845 -1.1597 -0.7708  1.1700
 1441SOL     OW 5922   5.222   4.584   6.862  0.4637  0.1833 -0.5970
 1441SOL    HW1 5923   5.281   4.654   6.822  0.1846  0.1678 -1.0465
 1441SOL    HW2 5924   5.152   4.559   6.796  1.3590 -1.4968 -0.9626
 1442SOL     OW 5925   3.793   0.414   2.298  0.3903  0.1879  0.1316
 1442SOL    HW1 5926   3.844   0.345   2.246 -1.3820 -1.7184  0.7749
 1442SOL    HW2 5927   3.814   0.405   2.395  1.8282  2.1120  0.0588
 1443SOL     OW 5928   0.715   0.827   2.466 -0.0507  0.0963 -0.4916
 1443SOL    HW1 5929   0.701   0.925   2.478 -0.6305  0.0828 -0.9659
 1443SOL    HW2 5930   0.643   0.777   2.516  0.0729 -0.0762 -0.4852
 1444SOL     OW 5931   5.338   6.017   5.736  0.1061  0.1925 -0.1755
 1444SOL    HW1 5932   5.393   5.934   5.733 -0.4894 -0.2414  0.6506
 1444SOL    HW2 5933   5.324   6.051   5.643 -0.1654 -0.9717 -0.5678
 1445SOL     OW 5934   4.224   6.525   6.667 -0.2204  0.5108 -0.4692
 1445SOL    HW1 5935   4.128   6.509   6.645 -1.1618  2.2788  1.8856
 1445SOL    HW2 5936   4.246   6.484   6.755  1.5142 -0.7119 -1.4158
 1446SOL     OW 5937   0.951   2.781   0.599 -0.4077 -0.2271 -0.4231
 1446SOL    HW1 5938   0.873   2.773   0.662 -0.0484  0.0018  0.0611
 1446SOL    HW2 5939   0.979   2.690   0.569  0.8947 -0.5716  1.6086
 1447SOL     OW 5940   0.375   3.654   5.811  0.3805 -0.4697 -0.3884
 1447SOL    HW1 5941   0.308   3.688   5.877  1.1407 -0.9835  0.6726
 1447SOL    HW2 5942   0.412   3.731   5.759  0.8506  0.1263  0.8117
 1448SOL     OW 5943   5.985   6.807   2.001  0.6223 -0.8863  0.4259
 1448SOL    HW1 5944   6.085   6.799   1.994  0.6882 -1.8077  2.0416
 1448SOL    HW2 5945   5.944   6.717   2.011 -0.2377 -0.4327  1.2047
 1449SOL     OW 5946   5.585   4.657   5.214 -0.5106 -0.3694  0.0045
 1449SOL    HW1 5947   5.653   4.709   5.266 -1.0733  0.0455  0.3393
 1449SOL    HW2 5948   5.540   4.718   5.149 -0.6187 -0.6214 -0.1547
 1450SOL     OW 5949   6.648   6.308   0.922  0.7169 -0.0519 -0.1297
 1450SOL    HW1 5950   6.653   6.241   0.847 -0.0980  0.4316 -0.6413
 1450SOL    HW2 5951   6.739   6.343   0.942  0.7496  1.4372 -2.4368
 1451SOL     OW 5952   6.145   3.006   0.879  0.3192 -0.0227 -0.1397
 1451SOL    HW1 5953   6.060   3.046   0.845  1.3141 -0.2344 -3.1809
 1451SOL    HW2 5954   6.152   2.911   0.850  1.4417 -0.1121  0.3440
 1452SOL     OW 5955   4.759   4.549   7.004  0.1386 -0.1760  0.0440
 1452SOL    HW1 5956   4.709   4.559   6.918 -0.7566  2.2626  0.7793
 1452SOL    HW2 5957   4.841   4.494   6.988  0.8939  1.5415 -2.7601
 1453SOL     OW 5958   5.957   4.726   0.876  0.2397  0.1117  0.1705
 1453SOL    HW1 5959   6.030   4.672   0.918  0.5505 -0.1359 -0.6720
 1453SOL    HW2 5960   5.895   4.758   0.948  1.4199  0.7248  0.9491
 1454SOL     OW 5961   3.149   0.015   2.821 -0.5153  0.0131  0.4732
 1454SOL    HW1 5962   3.216  -0.053   2.851 -0.9450  0.8993  3.8947
 1454SOL    HW2 5963   3.193   0.081   2.760  1.0919 -0.7828  0.7223
 1455SOL     OW 5964   6.487   0.850   2.259 -0.5850 -0.1517 -0.1657
 1455SOL    HW1 5965   6.409   0.822   2.315 -0.4837 -0.0747  0.0153
 1455SOL    HW2 5966   6.460   0.927   2.201 -0.2742  0.7941  0.8905
 1456SOL     OW 5967   5.097   6.644   5.521 -0.4528 -0.1986  0.0242
 1456SOL    HW1 5968   5.156   6.680   5.449  2.9068 -0.1583  2.5014
 1456SOL    HW2 5969   5.004   6.680   5.510  0.9756  3.5519 -1.6225
 1457SOL     OW 5970   5.600   6.696   4.491  0.0386  0.0712 -0.3848
 1457SOL    HW1 5971   5.506   6.675   4.516  0.2982  0.5629  1.1464
 1457SOL    HW2 5972   5.619   6.793   4.511  0.9024 -0.0464 -0.5789
 1458SOL     OW 5973   4.633   1.476   4.530  0.0417 -0.1265 -0.0471
 1458SOL    HW1 5974   4.545   1.521   4.519  0.6781  1.0114 -0.7152
 1458SOL    HW2 5975   4.675   1.507   4.616  0.8662  1.3158 -0.9211
 1459SOL     OW 5976   1.520   4.581   6.452 -0.2074 -0.5050  0.1160
 1459SOL    HW1 5977   1.476   4.663   6.415  0.4977  0.0701  0.5318
 1459SOL    HW2 5978   1.617   4.599   6.468  0.1040 -1.6186 -0.3710
 1460SOL     OW 5979   5.319   3.881   3.545 -0.2935  0.1681  0.4551
 1460SOL    HW1 5980   5.310   3.929   3.458 -0.5435 -0.1303  0.3163
 1460SOL    HW2 5981   5.230   3.880   3.591 -0.3320 -0.3317  0.3706
 1461SOL     OW 5982   5.935   4.707   3.932  0.4297 -0.3046 -0.2453
 1461SOL    HW1 5983   5.890   4.636   3.877  0.1626  0.0418 -0.4719
 1461SOL    HW2 5984   5.952   4.787   3.875  0.3397 -0.0204  0.1287
 1462SOL     OW 5985   0.410   2.208   1.615 -0.2414 -0.0283 -0.3759
 1462SOL    HW1 5986   0.491   2.153   1.591 -0.8005 -0.2321 -1.8824
 1462SOL    HW2 5987   0.328   2.163   1.580 -0.9761  0.4335  0.7122
 1463SOL     OW 5988   5.991   0.329   1.943  0.2063  0.0499 -0.1329
 1463SOL    HW1 5989   5.901   0.327   1.900  0.4610 -0.0764 -0.6746
 1463SOL    HW2 5990   6.042   0.408   1.909  0.0426  0.5244  0.7097
 1464SOL     OW 5991   1.384   6.090   4.871  0.1077 -0.1044  0.2274
 1464SOL    HW1 5992   1.394   6.012   4.932  2.7319  0.7700  1.0516
 1464SOL    HW2 5993   1.451   6.083   4.797 -0.9898  0.3837 -0.8435
 1465SOL     OW 5994   4.741   6.491   5.860 -0.0046  0.4134 -0.2900
 1465SOL    HW1 5995   4.685   6.574   5.860  0.1071  0.4881 -0.2559
 1465SOL    HW2 5996   4.836   6.514   5.838  0.0275  0.2950 -0.2775
 1466SOL     OW 5997   4.967   2.097   6.233  0.5487  0.0558  0.4427
 1466SOL    HW1 5998   4.942   2.011   6.278  1.5893 -0.9081 -0.7686
 1466SOL    HW2 5999   4.949   2.091   6.135  0.8356  1.1538  0.3043
 1467SOL     OW 6000   2.985   0.722   2.660  0.4069  0.1231  0.2317
 1467SOL    HW1 6001   2.907   0.665   2.682  0.2939  0.2860  0.2571
 1467SOL    HW2 6002   3.043   0.732   2.741  0.8585 -0.6228  0.0076
 1468SOL     OW 6003   2.313   5.845   3.019  0.0059 -0.4985  0.6647
 1468SOL    HW1 6004   2.331   5.936   3.057  0.0750  0.2323 -1.0441
 1468SOL    HW2 6005   2.357   5.776   3.077  1.1832  0.6527  1.1908
 1469SOL     OW 6006   0.139   1.534   4.985 -0.7544 -0.0681 -0.3852
 1469SOL    HW1 6007   0.089   1.541   5.071  1.7321 -1.3860  1.2823
 1469SOL    HW2 6008   0.157   1.626   4.949 -2.3864  0.4774  0.0844
 1470SOL     OW 6009   3.961   4.734   1.074 -0.1675 -0.0297 -0.1227
 1470SOL    HW1 6010   3.999   4.825   1.057  0.8322 -0.2762  0.6679
 1470SOL    HW2 6011   4.024   4.683   1.132 -1.1179 -0.9373  0.1282
 1471SOL     OW 6012   5.266   5.361   4.037  0.3229  0.0295 -0.5857
 1471SOL    HW1 6013   5.280   5.450   3.994  0.8070 -0.5914 -1.7799
 1471SOL    HW2 6014   5.181   5.321   4.003 -0.0458  0.1637  0.1758
 1472SOL     OW 6015   0.461   6.548   0.626  0.3121  0.2080 -0.0756
 1472SOL    HW1 6016   0.400   6.626   0.609  0.0950  0.2249  0.7192
 1472SOL    HW2 6017   0.550   6.567   0.585 -0.0104  0.4810 -0.6656
 1473SOL     OW 6018   2.373   2.014   2.236 -0.2123 -0.3221  0.2720
 1473SOL    HW1 6019   2.450   2.040   2.294 -1.0053 -0.2231  1.3306
 1473SOL    HW2 6020   2.374   1.916   2.220 -0.5517 -0.5223  1.3621
 1474SOL     OW 6021   0.043   1.498   0.436  0.4852 -0.6478 -0.2986
 1474SOL    HW1 6022  -0.008   1.570   0.388 -0.2598 -0.3649  0.8622
 1474SOL    HW2 6023   0.049   1.417   0.378 -0.9850 -0.5578 -0.6181
 1475SOL     OW 6024   6.138   4.941   2.618 -0.0027  0.2589 -0.1100
 1475SOL    HW1 6025   6.233   4.963   2.599 -0.3210  1.7724 -0.1009
 1475SOL    HW2 6026   6.105   4.998   2.693 -1.1581  0.3743 -0.6819
 1476SOL     OW 6027   6.658   4.340   2.625 -0.1548 -0.0431  0.3737
 1476SOL    HW1 6028   6.649   4.440   2.633 -1.6345  0.1137 -2.1136
 1476SOL    HW2 6029   6.736   4.318   2.566 -0.5128 -0.2723 -0.0250
 1477SOL     OW 6030   1.758   4.849   0.302 -0.4458 -0.1165  0.6991
 1477SOL    HW1 6031   1.705   4.807   0.229  0.2582 -0.7619  0.5417
 1477SOL    HW2 6032   1.799   4.777   0.358  2.2666  0.2714 -0.6238
 1478SOL     OW 6033   5.142   1.715   5.710  0.2887  0.1935  0.2811
 1478SOL    HW1 6034   5.090   1.643   5.756  1.6721 -1.0555 -0.0310
 1478SOL    HW2 6035   5.094   1.743   5.627  0.7258 -1.9452 -0.7669
 1479SOL     OW 6036   0.229   3.469   6.406  0.5973  0.0779 -0.1421
 1479SOL    HW1 6037   0.212   3.374   6.429 -0.3788  0.6385  1.7124
 1479SOL    HW2 6038   0.326   3.482   6.384  0.6635 -1.3799 -0.7671
 1480SOL     OW 6039   2.374   2.481   0.415  0.2893  1.1137 -0.1408
 1480SOL    HW1 6040   2.422   2.543   0.354 -0.9785  1.5462 -0.7292
 1480SOL    HW2 6041   2.295   2.441   0.368  0.4687 -0.1248  0.5678
 1481SOL     OW 6042   2.983   3.882   0.427  0.1316  0.3174 -0.1248
 1481SOL    HW1 6043   3.065   3.932   0.400 -0.1488  0.0252 -1.5830
 1481SOL    HW2 6044   2.920   3.875   0.349 -2.1685  2.2035  1.4014
 1482SOL     OW 6045   0.137   2.647   6.178 -0.2417  0.1722  0.3913
 1482SOL    HW1 6046   0.142   2.746   6.166  0.8493  0.1352  0.4381
 1482SOL    HW2 6047   0.105   2.626   6.270  2.1786  0.5305  1.3917
 1483SOL     OW 6048   6.963   2.909   4.353 -0.0579 -0.0831  0.6276
 1483SOL    HW1 6049   7.026   2.848   4.307 -1.1945 -0.5726 -0.3450
 1483SOL    HW2 6050   6.981   3.004   4.326 -0.1311 -0.2816 -0.1442
 1484SOL     OW 6051   3.250   3.047   1.558  0.4979 -0.1283 -0.3473
 1484SOL    HW1 6052   3.289   3.027   1.647  2.0053  1.0783 -0.6766
 1484SOL    HW2 6053   3.208   3.138   1.560  1.8214  0.5352 -1.2054
 1485SOL     OW 6054   4.319   2.905   5.505 -0.6256  0.0870  0.0273
 1485SOL    HW1 6055   4.410   2.925   5.468 -1.4907  1.2398 -1.6101
 1485SOL    HW2 6056   4.318   2.812   5.544  0.4669 -1.1742 -2.6945
 1486SOL     OW 6057   0.180   6.108   6.384  0.7523 -0.4526  0.0861
 1486SOL    HW1 6058   0.138   6.046   6.451  1.7385  0.2883  1.4508
 1486SOL    HW2 6059   0.175   6.067   6.293 -2.7285 -0.4562  0.1682
 1487SOL     OW 6060   0.011   3.042   2.724 -0.1425 -0.3164  0.3913
 1487SOL    HW1 6061  -0.088   3.024   2.717 -0.2338  0.1342  0.4527
 1487SOL    HW2 6062   0.034   3.064   2.819 -0.3378  1.4521  0.0793
 1488SOL     OW 6063   6.869   4.989   2.391  0.2135  0.1539 -0.4934
 1488SOL    HW1 6064   6.841   4.904   2.436  1.6261 -0.1057 -0.0582
 1488SOL    HW2 6065   6.916   5.048   2.456 -0.1819  1.0064 -0.9592
 1489SOL     OW 6066   2.596   6.238   3.576  0.5239 -0.4363 -0.3838
 1489SOL    HW1 6067   2.591   6.321   3.632 -2.2283 -0.1757 -0.8576
 1489SOL    HW2 6068   2.524   6.241   3.507  0.6465 -3.0123 -0.7115
 1490SOL     OW 6069   5.924   1.404   5.180 -0.1367  0.2183 -0.5895
 1490SOL    HW1 6070   5.998   1.471   5.174 -0.4336  0.4522 -2.0095
 1490SOL    HW2 6071   5.891   1.383   5.088 -2.1576  0.4808  0.0199
 1491SOL     OW 6072   1.322   2.096   1.852 -0.4292 -0.0722 -0.0051
 1491SOL    HW1 6073   1.271   2.120   1.935 -0.2933 -1.7772  0.6258
 1491SOL    HW2 6074   1.352   2.000   1.859  0.1965 -0.0247 -1.7252
 1492SOL     OW 6075   1.989   2.575   4.903 -0.7524  0.1505 -0.3091
 1492SOL    HW1 6076   2.047   2.524   4.840 -3.6796 -0.4484 -2.7716
 1492SOL    HW2 6077   1.931   2.511   4.955  0.0044  0.7636  1.3802
 1493SOL     OW 6078   0.192   5.440   3.048 -0.0936  0.4308 -0.4414
 1493SOL    HW1 6079   0.220   5.346   3.029  1.5662  0.7203  0.3377
 1493SOL    HW2 6080   0.173   5.487   2.962  0.6028 -0.1928 -0.9542
 1494SOL     OW 6081   1.862   4.304   6.833  0.4633 -0.2526 -0.3419
 1494SOL    HW1 6082   1.917   4.269   6.908 -1.4695 -1.8167  0.4203
 1494SOL    HW2 6083   1.811   4.384   6.863  1.6366  0.7007 -0.8073
 1495SOL     OW 6084   6.749   5.104   0.130  0.1631 -0.7488  0.4107
 1495SOL    HW1 6085   6.717   5.015   0.099 -1.6118 -0.3914  1.0888
 1495SOL    HW2 6086   6.671   5.166   0.140  0.9042 -0.1170  3.1200
 1496SOL     OW 6087   3.177   6.752   6.878 -0.2268  0.1718 -0.3708
 1496SOL    HW1 6088   3.199   6.733   6.974 -0.0767  0.4058 -0.3582
 1496SOL    HW2 6089   3.246   6.709   6.819  1.6596  2.7651 -0.2665
 1497SOL     OW 6090   1.740   6.918   2.344  0.5112  0.7710  0.4125
 1497SOL    HW1 6091   1.656   6.954   2.305  1.0028  0.7370 -0.7454
 1497SOL    HW2 6092   1.819   6.959   2.297  1.1016 -1.8839 -1.1638
 1498SOL     OW 6093   3.481   0.273   4.457 -0.8221  0.0717 -0.3890
 1498SOL    HW1 6094   3.509   0.306   4.367  0.3833 -0.2778 -0.1707
 1498SOL    HW2 6095   3.562   0.242   4.507 -1.7185 -1.9403 -0.0725
 1499SOL     OW 6096   6.702   5.587   3.945 -0.0292  0.8194  0.3219
 1499SOL    HW1 6097   6.641   5.576   3.867  0.6699 -2.6531  0.0827
 1499SOL    HW2 6098   6.653   5.562   4.029  0.7695 -1.4782  0.1846
 1500SOL     OW 6099   1.369   2.258   3.333 -0.3321  0.8133  0.2113
 1500SOL    HW1 6100   1.336   2.206   3.254  1.6975 -1.4726  0.7497
 1500SOL    HW2 6101   1.454   2.305   3.308  0.7944 -0.6199  1.1811
 1501SOL     OW 6102   4.577   1.921   1.417  0.9671 -0.7431  0.0963
 1501SOL    HW1 6103   4.588   1.980   1.336  0.2920 -0.1356  0.4339
 1501SOL    HW2 6104   4.623   1.834   1.401  1.7695 -0.2210 -0.5197
 1502SOL     OW 6105   1.370   5.871   1.694  0.0418 -0.4815 -0.5785
 1502SOL    HW1 6106   1.411   5.817   1.768  0.7837 -0.9125 -1.2991
 1502SOL    HW2 6107   1.356   5.812   1.614 -0.8335 -0.0359 -0.7668
 1503SOL     OW 6108   4.534   6.324   0.148  0.5503  0.1899 -0.4723
 1503SOL    HW1 6109   4.462   6.262   0.117 -1.1672  0.8504  1.9655
 1503SOL    HW2 6110   4.513   6.417   0.117 -0.9144  0.7688  2.0385
 1504SOL     OW 6111   0.517   1.565   1.394  0.0404  0.1701  0.1567
 1504SOL    HW1 6112   0.608   1.596   1.420  0.3180 -1.5826  1.4926
 1504SOL    HW2 6113   0.510   1.558   1.295  2.0124 -1.4310  0.0776
 1505SOL     OW 6114   4.986   4.656   0.955 -0.3379 -0.1879 -0.3346
 1505SOL    HW1 6115   4.927   4.728   0.918 -2.3872 -0.8325  1.4206
 1505SOL    HW2 6116   4.980   4.657   1.055 -2.0859 -3.9507 -0.2216
 1506SOL     OW 6117   1.301   0.640   5.445 -0.2212 -0.5204  0.0252
 1506SOL    HW1 6118   1.265   0.723   5.403 -1.2062  0.0030  1.7988
 1506SOL    HW2 6119   1.345   0.663   5.533 -0.0897 -1.8083  0.3184
 1507SOL     OW 6120   5.292   3.670   0.404 -0.0179  0.3492  0.4537
 1507SOL    HW1 6121   5.282   3.769   0.391 -0.2889  0.2568 -0.0818
 1507SOL    HW2 6122   5.270   3.647   0.499  2.1583  1.0625  1.1947
 1508SOL     OW 6123   4.555   1.539   6.942  0.1514  0.0155  0.2472
 1508SOL    HW1 6124   4.568   1.591   7.026 -0.3446 -0.6165  0.7252
 1508SOL    HW2 6125   4.470   1.568   6.897 -0.7011 -1.1044  1.0793
 1509SOL     OW 6126   1.458   4.135   4.370  0.3390  0.2532  0.2111
 1509SOL    HW1 6127   1.380   4.078   4.344  0.4231  0.4679 -0.5129
 1509SOL    HW2 6128   1.447   4.164   4.465  0.5609 -1.4120  0.7861
 1510SOL     OW 6129   0.653   5.934   4.175 -0.0027  0.4670  0.5566
 1510SOL    HW1 6130   0.738   5.885   4.156 -0.4774  0.4644 -1.9317
 1510SOL    HW2 6131   0.588   5.872   4.220 -0.3599 -1.1267 -1.9469
 1511SOL     OW 6132   4.965   1.541   0.027 -0.1872  0.1208 -0.1327
 1511SOL    HW1 6133   4.953   1.559   0.125  2.7414 -2.2511  0.7973
 1511SOL    HW2 6134   4.931   1.449   0.006  0.7775 -0.0635 -0.9572
 1512SOL     OW 6135   1.052   3.664   5.441 -0.0707  0.3314 -0.6502
 1512SOL    HW1 6136   0.957   3.644   5.463 -0.6462  1.6034 -1.8373
 1512SOL    HW2 6137   1.092   3.585   5.394 -0.9387  0.2591 -1.2968
 1513SOL     OW 6138   6.969   3.608   4.734 -0.1643  0.4316 -0.2345
 1513SOL    HW1 6139   6.895   3.610   4.666  0.3454  1.9526 -0.8041
 1513SOL    HW2 6140   6.953   3.679   4.802  0.6511  0.6114 -0.2280
 1514SOL     OW 6141   3.467   7.016   4.320  0.0481 -0.0191 -0.3136
 1514SOL    HW1 6142   3.438   7.041   4.413  1.5058  2.4943 -0.4489
 1514SOL    HW2 6143   3.422   7.075   4.254  0.7823 -0.2244 -1.0131
 1515SOL     OW 6144   0.302   3.567   1.677  0.2353  0.0748  0.3953
 1515SOL    HW1 6145   0.246   3.567   1.595  0.2206 -1.0604  0.3871
 1515SOL    HW2 6146   0.387   3.516   1.659  1.1783  1.5478  0.4771
 1516SOL     OW 6147   4.542   0.712   3.506 -0.2753  0.1763  0.2048
 1516SOL    HW1 6148   4.590   0.793   3.540 -0.0001 -0.8799  2.4535
 1516SOL    HW2 6149   4.608   0.643   3.478 -0.3373 -1.1579  3.0166
 1517SOL     OW 6150   4.744   2.963   3.164 -0.2054  0.0909 -0.4082
 1517SOL    HW1 6151   4.657   2.956   3.213  0.0009 -0.5618 -0.1267
 1517SOL    HW2 6152   4.734   2.926   3.072 -0.0431 -0.6656 -0.1288
 1518SOL     OW 6153   2.959   1.881   3.964  0.5754  0.4746 -0.5642
 1518SOL    HW1 6154   2.989   1.902   3.871  0.3670  1.1416 -0.4901
 1518SOL    HW2 6155   2.872   1.926   3.982 -0.1181 -0.8331 -0.5220
 1519SOL     OW 6156   6.533   2.943   0.963  0.5133  0.1280 -0.1295
 1519SOL    HW1 6157   6.449   2.987   0.994  0.9411  0.1079  1.1222
 1519SOL    HW2 6158   6.605   2.957   1.031  1.8393  1.0426 -1.6369
 1520SOL     OW 6159   4.322   4.277   6.492 -0.2919 -0.1256 -0.4697
 1520SOL    HW1 6160   4.263   4.291   6.412 -1.7830 -1.7460  0.2600
 1520SOL    HW2 6161   4.415   4.257   6.462 -0.0732  2.2965 -1.6704
 1521SOL     OW 6162   4.959   1.652   2.542 -0.1018 -0.3729 -0.2538
 1521SOL    HW1 6163   5.015   1.585   2.495 -0.2138 -1.2996  0.8733
 1521SOL    HW2 6164   4.886   1.684   2.482  1.1804  0.3093 -1.4918
 1522SOL     OW 6165   4.488   4.916   0.023  0.1426 -0.3251  0.1175
 1522SOL    HW1 6166   4.559   4.846   0.032 -0.1790 -0.5369  1.1271
 1522SOL    HW2 6167   4.466   4.952   0.114  2.0323  2.8083 -0.5013
 1523SOL     OW 6168   1.395   1.488   3.025 -0.2831 -0.3339 -0.6802
 1523SOL    HW1 6169   1.418   1.424   3.098  1.7084 -0.7212 -1.5701
 1523SOL    HW2 6170   1.439   1.576   3.043 -1.1931  0.1127 -0.5799
 1524SOL     OW 6171   0.432   2.096   6.357 -0.1406 -0.4270  0.7752
 1524SOL    HW1 6172   0.452   2.156   6.280  1.0162  0.4759  1.7365
 1524SOL    HW2 6173   0.334   2.099   6.376 -0.3140  0.0059 -0.1160
 1525SOL     OW 6174   5.155   6.218   5.117  0.1618  1.1113  0.1793
 1525SOL    HW1 6175   5.202   6.130   5.125 -0.8773  0.4768 -0.4459
 1525SOL    HW2 6176   5.185   6.264   5.033  0.9495  1.5167  0.6729
 1526SOL     OW 6177   0.493   3.117   1.133 -0.2580 -0.4318 -0.0882
 1526SOL    HW1 6178   0.538   3.118   1.044  1.6256  0.7541  0.8013
 1526SOL    HW2 6179   0.479   3.023   1.163 -0.7438 -0.8430 -1.5221
 1527SOL     OW 6180   1.893   3.959   2.187 -0.3394 -0.0473 -0.4103
 1527SOL    HW1 6181   1.944   3.917   2.262 -0.5828 -0.0097 -0.2222
 1527SOL    HW2 6182   1.847   3.888   2.133  0.1086 -0.0995 -0.7262
 1528SOL     OW 6183   0.389   3.298   4.419 -0.0330  0.4967  0.0343
 1528SOL    HW1 6184   0.359   3.227   4.483  0.7404  1.5161  1.5912
 1528SOL    HW2 6185   0.330   3.378   4.428 -0.6466  0.2460 -1.4155
 1529SOL     OW 6186   0.755   1.719   5.321  0.7056  0.0486 -0.3219
 1529SOL    HW1 6187   0.713   1.685   5.405 -0.0017 -0.0186 -0.6912
 1529SOL    HW2 6188   0.811   1.646   5.280  0.1821 -0.2825 -0.4658
 1530SOL     OW 6189   1.572   1.400   0.315 -0.0250  0.8604  0.1357
 1530SOL    HW1 6190   1.649   1.391   0.378  0.5722  0.0441 -0.6918
 1530SOL    HW2 6191   1.605   1.434   0.227 -0.3178 -1.0258 -0.7523
 1531SOL     OW 6192   3.054   2.492   6.588  0.0759  0.0537  0.2320
 1531SOL    HW1 6193   2.984   2.564   6.592 -0.8787 -0.7914 -0.7509
 1531SOL    HW2 6194   3.051   2.447   6.499  1.1319 -0.7520  0.5810
 1532SOL     OW 6195   6.317   2.759   6.756 -0.0271  0.3248 -0.1637
 1532SOL    HW1 6196   6.240   2.719   6.806 -0.6153  0.8961 -0.5999
 1532SOL    HW2 6197   6.364   2.688   6.704 -0.6345  0.0748 -0.3773
 1533SOL     OW 6198   4.276   4.719   5.084  1.0581 -1.0918  0.0186
 1533SOL    HW1 6199   4.248   4.644   5.024 -0.8646  0.5311 -1.2261
 1533SOL    HW2 6200   4.226   4.802   5.060  0.2681 -0.2719  3.8091
 1534SOL     OW 6201   3.643   0.488   3.447 -0.3456  0.0336 -0.0983
 1534SOL    HW1 6202   3.647   0.546   3.529 -0.0739  0.7067 -0.5739
 1534SOL    HW2 6203   3.653   0.392   3.473  0.5784  0.3044  0.5791
 1535SOL     OW 6204   0.398   5.451   4.467  0.0477  0.2246 -0.3915
 1535SOL    HW1 6205   0.388   5.363   4.419  1.0273  0.6449 -1.3971
 1535SOL    HW2 6206   0.458   5.438   4.546 -1.5520 -0.4643  0.7720
 1536SOL     OW 6207   5.458   5.789   4.622 -0.5409  0.0634 -0.2064
 1536SOL    HW1 6208   5.479   5.844   4.702 -0.5456  0.2232 -0.3149
 1536SOL    HW2 6209   5.371   5.818   4.583  0.6345  1.7342 -1.7713
 1537SOL     OW 6210   4.112   0.761   6.520 -0.2297 -0.1134 -0.5738
 1537SOL    HW1 6211   4.174   0.805   6.455 -0.1811 -1.0080 -1.1471
 1537SOL    HW2 6212   4.073   0.831   6.580 -0.4367  0.7829 -1.6918
 1538SOL     OW 6213   6.291   0.008   3.732  0.0569  0.0303  0.3486
 1538SOL    HW1 6214   6.355   0.019   3.657 -0.2151  0.8675  0.2249
 1538SOL    HW2 6215   6.341   0.003   3.819  0.4345 -1.9291  0.0584
 1539SOL     OW 6216   6.011   4.266   0.781 -0.1504 -0.0670  0.6086
 1539SOL    HW1 6217   5.958   4.283   0.864 -2.3694  0.6964 -0.8544
 1539SOL    HW2 6218   5.990   4.336   0.713  3.5050  0.7858  0.1756
 1540SOL     OW 6219   0.274   5.412   1.047 -0.1130 -0.6593  0.0266
 1540SOL    HW1 6220   0.339   5.483   1.073 -0.1325 -0.0198 -1.5199
 1540SOL    HW2 6221   0.248   5.359   1.127  1.4815 -0.2445  0.8631
 1541SOL     OW 6222   4.103   3.828   3.765  0.7831 -0.4024  0.4306
 1541SOL    HW1 6223   4.193   3.845   3.724 -1.1979  1.4591 -3.7085
 1541SOL    HW2 6224   4.050   3.769   3.704 -0.8044 -1.7499  2.9470
 1542SOL     OW 6225   6.948   1.812   2.671  0.2196  0.3945 -0.3557
 1542SOL    HW1 6226   6.997   1.725   2.677  1.0324  0.8243 -0.6531
 1542SOL    HW2 6227   6.849   1.795   2.679  0.4739 -0.3117  1.9717
 1543SOL     OW 6228   2.216   4.855   4.444  0.6646  0.1196 -0.1103
 1543SOL    HW1 6229   2.222   4.795   4.365 -1.3299 -0.1005 -0.1468
 1543SOL    HW2 6230   2.143   4.922   4.430  0.9860  0.7585  1.1046
 1544SOL     OW 6231   6.333   3.728   1.737 -0.1499 -0.0907 -0.2438
 1544SOL    HW1 6232   6.344   3.827   1.744  1.8611 -0.0976 -2.1371
 1544SOL    HW2 6233   6.255   3.707   1.677  1.1123  0.4680 -2.1632
 1545SOL     OW 6234   1.961   2.732   0.039 -0.4053 -0.2240  0.0884
 1545SOL    HW1 6235   1.888   2.698   0.097  0.1531 -1.1190  0.2903
 1545SOL    HW2 6236   1.937   2.822   0.003 -0.2868  0.9114  2.6392
 1546SOL     OW 6237   2.276   0.859   1.295 -0.3203  0.0783 -0.0748
 1546SOL    HW1 6238   2.246   0.806   1.216 -0.6304 -0.5957  0.4864
 1546SOL    HW2 6239   2.267   0.957   1.275 -2.4963 -0.0903 -0.0900
 1547SOL     OW 6240   1.359   3.430   0.626 -0.2829  0.0366 -0.0377
 1547SOL    HW1 6241   1.373   3.331   0.621 -0.4208 -0.1423  2.0625
 1547SOL    HW2 6242   1.445   3.477   0.607 -0.1309 -0.4886 -0.6858
 1548SOL     OW 6243   5.899   2.189   2.971 -0.1914 -0.0423 -0.1717
 1548SOL    HW1 6244   5.834   2.137   2.916 -0.9364 -1.2384  1.7344
 1548SOL    HW2 6245   5.990   2.147   2.964 -0.1853  0.0762 -0.8214
 1549SOL     OW 6246   4.196   5.241   3.170 -0.3920  0.5958  0.9018
 1549SOL    HW1 6247   4.289   5.274   3.188 -0.3014  0.8133  0.0699
 1549SOL    HW2 6248   4.199   5.168   3.102 -0.8264  0.5510  0.9271
 1550SOL     OW 6249   0.086   6.599   1.741  0.7574 -0.1939  0.1118
 1550SOL    HW1 6250   0.063   6.505   1.766  2.6821 -0.7562 -0.0591
 1550SOL    HW2 6251   0.002   6.652   1.728 -0.3596 -1.4853  1.6445
 1551SOL     OW 6252   0.360   1.898   5.448 -0.3569  0.3915  0.7198
 1551SOL    HW1 6253   0.326   1.804   5.443 -0.9117  0.6244 -0.2395
 1551SOL    HW2 6254   0.300   1.953   5.506  0.2876  0.0302  1.7424
 1552SOL     OW 6255   1.644   1.717   4.949 -0.0613 -0.0020 -0.5695
 1552SOL    HW1 6256   1.600   1.784   4.890  0.0557 -0.3793 -1.0890
 1552SOL    HW2 6257   1.732   1.691   4.911  0.5321  0.5827  0.3542
 1553SOL     OW 6258   2.529   3.102   3.833  0.0264  0.0694  0.4584
 1553SOL    HW1 6259   2.536   3.142   3.924  1.7586 -0.5726  0.6336
 1553SOL    HW2 6260   2.464   3.026   3.835  0.9202 -0.7065  1.4682
 1554SOL     OW 6261   1.075   2.210   5.619  0.2180 -0.1338 -0.2618
 1554SOL    HW1 6262   1.133   2.282   5.581  0.7943 -0.6431 -0.3738
 1554SOL    HW2 6263   1.129   2.127   5.632 -0.7650 -1.0010 -1.5040
 1555SOL     OW 6264   5.760   2.912   5.914  0.5314  0.1206 -0.5126
 1555SOL    HW1 6265   5.812   2.980   5.966 -0.3953  0.0871  0.4906
 1555SOL    HW2 6266   5.678   2.955   5.875 -2.1422 -1.0643  3.2419
 1556SOL     OW 6267   6.095   5.506   5.785 -0.3467  0.1121 -0.0097
 1556SOL    HW1 6268   6.086   5.485   5.882  0.0668  0.2960  0.0709
 1556SOL    HW2 6269   6.036   5.446   5.732  0.9631 -1.4270  0.1923
 1557SOL     OW 6270   4.960   1.738   1.757  0.0100 -0.1317  0.5796
 1557SOL    HW1 6271   4.995   1.689   1.677  0.0252  0.5188  0.1884
 1557SOL    HW2 6272   4.962   1.677   1.836  0.4308 -0.6335  0.1891
 1558SOL     OW 6273   5.116   6.246   1.841 -0.4893  0.3340 -0.5775
 1558SOL    HW1 6274   5.035   6.214   1.792 -0.6580 -1.5366  0.7886
 1558SOL    HW2 6275   5.197   6.197   1.807 -0.2772  0.6262 -0.4940
 1559SOL     OW 6276   6.177   6.647   1.168 -0.0465 -0.1316 -0.2843
 1559SOL    HW1 6277   6.200   6.648   1.071  2.6469  0.5372  0.2884
 1559SOL    HW2 6278   6.137   6.558   1.192  1.7459 -1.3391 -1.5076
 1560SOL     OW 6279   0.826   3.681   5.592 -0.0189  0.3792 -0.0231
 1560SOL    HW1 6280   0.786   3.735   5.519  0.0876  0.1449 -0.2554
 1560SOL    HW2 6281   0.799   3.719   5.681 -1.9953 -0.6424 -0.1384
 1561SOL     OW 6282   3.332   1.093   0.089  0.2456 -0.5874 -0.6234
 1561SOL    HW1 6283   3.360   1.144   0.170 -1.1263 -1.4819  0.4665
 1561SOL    HW2 6284   3.407   1.034   0.059  0.9377  0.1162 -0.3223
 1562SOL     OW 6285   2.340   5.467   3.965 -0.2645 -0.7933 -0.7120
 1562SOL    HW1 6286   2.314   5.417   4.049 -0.7005  0.4280 -0.0955
 1562SOL    HW2 6287   2.271   5.450   3.895 -0.5682 -0.8273 -0.4131
 1563SOL     OW 6288   3.885   6.829   3.630 -0.0763  0.1467  0.4896
 1563SOL    HW1 6289   3.931   6.853   3.544 -0.6603  1.1059  0.4265
 1563SOL    HW2 6290   3.829   6.748   3.616 -3.2255  2.3739 -1.2115
 1564SOL     OW 6291   6.375   0.373   5.375 -0.9531  0.1556 -0.3715
 1564SOL    HW1 6292   6.388   0.471   5.389 -0.6995 -0.0762  1.1519
 1564SOL    HW2 6293   6.280   0.349   5.394 -0.5842 -0.1778  1.1642
 1565SOL     OW 6294   6.815   3.576   1.216 -0.7882  0.4682  0.2772
 1565SOL    HW1 6295   6.818   3.546   1.311 -0.4165 -0.7296 -0.1020
 1565SOL    HW2 6296   6.835   3.499   1.156 -1.7087  1.0541 -0.8132
 1566SOL     OW 6297   4.374   6.206   2.552  0.4421  0.1527  0.1527
 1566SOL    HW1 6298   4.473   6.191   2.558  0.8237  1.8061 -1.1289
 1566SOL    HW2 6299   4.354   6.263   2.473 -1.4665  0.6322  0.9201
 1567SOL     OW 6300   2.125   4.469   2.379 -0.6781  0.5714 -0.1567
 1567SOL    HW1 6301   2.189   4.542   2.404  0.8191 -0.8973  0.5368
 1567SOL    HW2 6302   2.042   4.477   2.435 -1.4542  2.8520 -1.4715
 1568SOL     OW 6303   1.503   0.785   0.296 -0.0369  0.2527  0.0703
 1568SOL    HW1 6304   1.522   0.863   0.356 -0.3843 -0.3031  0.9045
 1568SOL    HW2 6305   1.411   0.794   0.257 -1.1871 -1.0863  2.3116
 1569SOL     OW 6306   0.706   3.112   0.513  0.0366 -0.3111  0.4168
 1569SOL    HW1 6307   0.621   3.074   0.549  0.1573 -0.0434  1.0024
 1569SOL    HW2 6308   0.733   3.192   0.568  1.5900 -1.4181  1.3652
 1570SOL     OW 6309   2.451   4.689   2.666 -0.8701 -0.0912  0.1572
 1570SOL    HW1 6310   2.551   4.683   2.657 -0.7399  2.0580 -0.4173
 1570SOL    HW2 6311   2.425   4.676   2.762  0.1171  0.8726  0.5684
 1571SOL     OW 6312   1.702   0.272   2.270 -0.5320  0.1856 -0.2520
 1571SOL    HW1 6313   1.686   0.264   2.368  0.8331 -0.9704 -0.0821
 1571SOL    HW2 6314   1.626   0.320   2.227 -2.5100 -1.6808  0.9489
 1572SOL     OW 6315   6.818   0.755   3.912  0.4800  0.5195 -0.5189
 1572SOL    HW1 6316   6.796   0.728   3.818 -1.3576 -1.2917  0.3641
 1572SOL    HW2 6317   6.912   0.727   3.933 -0.2861 -2.6108 -0.6907
 1573SOL     OW 6318   1.126   5.128   0.203  0.6231 -0.4314 -0.3803
 1573SOL    HW1 6319   1.027   5.138   0.191  0.6530  0.0814 -0.2343
 1573SOL    HW2 6320   1.173   5.195   0.145  0.8110  1.0054  1.3669
 1574SOL     OW 6321   1.573   0.326   5.463 -0.4110 -0.2287  0.1662
 1574SOL    HW1 6322   1.543   0.287   5.550  0.4428  1.1100  1.1045
 1574SOL    HW2 6323   1.628   0.408   5.481  1.3769 -0.9956 -1.5836
 1575SOL     OW 6324   3.931   0.695   5.792  0.2558 -0.1124 -0.0401
 1575SOL    HW1 6325   4.011   0.695   5.732 -0.0324  0.2690 -0.4360
 1575SOL    HW2 6326   3.873   0.617   5.771 -0.8655  1.1012 -1.6770
 1576SOL     OW 6327   1.582   3.146   4.337 -0.1668  0.1400  0.2860
 1576SOL    HW1 6328   1.612   3.141   4.432 -1.2522 -0.5697  0.6112
 1576SOL    HW2 6329   1.484   3.166   4.334 -0.4365 -1.1598 -0.6242
 1577SOL     OW 6330   3.940   2.141   5.227  0.6955 -0.1559  0.0857
 1577SOL    HW1 6331   3.858   2.196   5.248 -0.8334 -1.9935 -0.7459
 1577SOL    HW2 6332   4.021   2.199   5.233 -0.3829  1.2912  3.0333
 1578SOL     OW 6333   0.992   4.971   1.747  0.2879  0.4231 -0.1350
 1578SOL    HW1 6334   0.996   4.973   1.847  0.2537 -0.8267 -0.0829
 1578SOL    HW2 6335   0.961   4.880   1.717  1.0077  0.5361 -1.2925
 1579SOL     OW 6336   2.871   0.963   1.650  0.6669 -0.1683 -0.7535
 1579SOL    HW1 6337   2.924   0.928   1.573 -0.1010  2.1894 -2.4650
 1579SOL    HW2 6338   2.915   1.046   1.685 -0.4248  0.2832 -0.4229
 1580SOL     OW 6339   0.776   1.264   1.462 -0.4289  0.1863  0.3510
 1580SOL    HW1 6340   0.735   1.324   1.394 -0.2217  0.5650  0.5611
 1580SOL    HW2 6341   0.711   1.249   1.537 -1.7704 -2.4336 -1.1835
 1581SOL     OW 6342   0.491   1.176   0.116 -0.2555  0.2025  0.2190
 1581SOL    HW1 6343   0.470   1.079   0.112  0.6549  0.0160 -2.2151
 1581SOL    HW2 6344   0.433   1.225   0.050 -0.5947  1.3193  1.3004
 1582SOL     OW 6345   3.390   0.492   4.642 -0.1064  0.1932 -0.6247
 1582SOL    HW1 6346   3.442   0.454   4.566  1.3983 -0.0169  0.4673
 1582SOL    HW2 6347   3.342   0.418   4.690  0.8715 -0.0463  0.0327
 1583SOL     OW 6348   3.714   1.091   3.572 -0.3531  0.5660  0.0503
 1583SOL    HW1 6349   3.771   1.155   3.623  0.9260 -1.6226  1.5819
 1583SOL    HW2 6350   3.633   1.068   3.625  0.7549 -1.3745  1.0135
 1584SOL     OW 6351   5.385   0.554   5.297 -0.2202 -0.0620 -0.0154
 1584SOL    HW1 6352   5.332   0.470   5.289 -0.2775 -0.4429  3.1029
 1584SOL    HW2 6353   5.470   0.546   5.245 -0.4430 -1.8488 -0.1418
 1585SOL     OW 6354   1.334   3.951   2.541 -0.2226  0.2316 -0.1513
 1585SOL    HW1 6355   1.257   4.007   2.570 -0.6463 -1.2243  1.7788
 1585SOL    HW2 6356   1.409   4.009   2.511 -1.6266  1.7065 -0.9514
 1586SOL     OW 6357   0.685   5.382   4.136  0.5133 -0.6870  0.8780
 1586SOL    HW1 6358   0.747   5.306   4.120 -0.2915 -1.3019  0.5936
 1586SOL    HW2 6359   0.607   5.350   4.190  0.7623  0.2251  1.8052
 1587SOL     OW 6360   4.775   4.591   1.402 -0.6944  0.3726  0.9493
 1587SOL    HW1 6361   4.863   4.596   1.449 -0.9804  1.5487  1.3955
 1587SOL    HW2 6362   4.713   4.532   1.454  0.4134 -2.2162 -0.4353
 1588SOL     OW 6363   5.446   4.461   4.621  0.0257  0.1961  0.4569
 1588SOL    HW1 6364   5.457   4.404   4.703  1.3825 -0.1601  0.0426
 1588SOL    HW2 6365   5.533   4.504   4.597 -0.2800  0.1004 -0.9410
 1589SOL     OW 6366   4.202   1.441   5.836 -0.4038  0.2424 -0.7416
 1589SOL    HW1 6367   4.138   1.364   5.829  0.3589 -0.4516 -0.1760
 1589SOL    HW2 6368   4.265   1.426   5.912  0.2609  1.0528 -1.1133
 1590SOL     OW 6369   3.911   0.652   1.456  0.2982 -0.5945 -0.0199
 1590SOL    HW1 6370   3.958   0.590   1.519  1.1403  0.5133  0.4798
 1590SOL    HW2 6371   3.829   0.689   1.501  0.8646  0.1474  0.4231
 1591SOL     OW 6372   2.302   1.049   6.044 -0.5798 -0.5688  0.2275
 1591SOL    HW1 6373   2.362   0.971   6.029 -1.0473 -0.6970 -1.0806
 1591SOL    HW2 6374   2.354   1.134   6.029 -1.2043 -0.6643 -3.4461
 1592SOL     OW 6375   0.768   4.289   2.980  0.0919 -0.7833  0.4330
 1592SOL    HW1 6376   0.716   4.344   2.915 -0.6874 -1.1805  0.7137
 1592SOL    HW2 6377   0.757   4.327   3.072 -0.1856 -1.2086  0.5790
 1593SOL     OW 6378   5.955   4.627   5.460 -0.1054  0.3398 -0.2426
 1593SOL    HW1 6379   5.926   4.562   5.390  3.4969 -1.7412 -0.0659
 1593SOL    HW2 6380   6.033   4.680   5.426  0.0179  1.2194  1.3012
 1594SOL     OW 6381   4.857   2.685   5.404 -0.2419 -0.1345 -0.5310
 1594SOL    HW1 6382   4.911   2.629   5.342 -0.9466 -1.8572  0.3423
 1594SOL    HW2 6383   4.760   2.678   5.380 -0.6725 -1.7867  1.3823
 1595SOL     OW 6384   5.469   4.388   4.899 -0.5889 -0.0079 -0.1930
 1595SOL    HW1 6385   5.394   4.335   4.939  0.0769 -0.9953 -0.2214
 1595SOL    HW2 6386   5.503   4.342   4.817 -0.5935  0.9418 -0.7396
 1596SOL     OW 6387   6.935   3.159   4.846 -0.5506 -0.3770 -0.4193
 1596SOL    HW1 6388   6.932   3.162   4.746  1.7364 -2.6285 -0.6471
 1596SOL    HW2 6389   6.961   3.068   4.876  1.2908  0.8813  2.1531
 1597SOL     OW 6390   3.420   1.132   4.985 -0.1513 -0.3976  0.5514
 1597SOL    HW1 6391   3.411   1.067   5.060  0.5389 -0.4862  0.5700
 1597SOL    HW2 6392   3.336   1.133   4.932 -0.0127 -1.6853  0.2568
 1598SOL     OW 6393   2.754   2.444   4.996 -0.1450 -0.4338 -0.2940
 1598SOL    HW1 6394   2.669   2.440   4.944 -0.1717  0.5944 -0.3496
 1598SOL    HW2 6395   2.810   2.521   4.963  1.7049 -2.2030 -1.6010
 1599SOL     OW 6396   5.926   6.557   0.227  0.3642 -0.2717 -0.0647
 1599SOL    HW1 6397   5.928   6.539   0.129  0.9701  0.6437 -0.2318
 1599SOL    HW2 6398   5.944   6.654   0.244 -0.7924 -0.2029  0.8964
 1600SOL     OW 6399   0.465   5.411   2.484 -0.0407  0.1052  0.5435
 1600SOL    HW1 6400   0.545   5.371   2.440  0.0622  0.0188  0.8043
 1600SOL    HW2 6401   0.384   5.395   2.428  0.5183  2.4646 -1.0460
 1601SOL     OW 6402   5.197   2.109   6.975 -0.1151 -1.0796  0.2131
 1601SOL    HW1 6403   5.241   2.176   7.036  1.5315 -1.8578 -0.0549
 1601SOL    HW2 6404   5.100   2.102   6.998 -0.5692  2.0424 -0.3619
 1602SOL     OW 6405   0.191   2.009   6.806 -0.0068 -0.1576 -0.1923
 1602SOL    HW1 6406   0.168   1.930   6.863  0.5113 -1.8570 -2.1985
 1602SOL    HW2 6407   0.118   2.024   6.739 -0.6027  1.7905  0.8206
 1603SOL     OW 6408   6.253   2.404   5.423  0.1770  0.0846  0.1310
 1603SOL    HW1 6409   6.281   2.496   5.451  0.2728 -0.1867  0.9529
 1603SOL    HW2 6410   6.331   2.358   5.380  0.5297 -0.0865  0.9396
 1604SOL     OW 6411   4.100   6.069   4.687 -0.0068 -0.0205  0.8828
 1604SOL    HW1 6412   4.074   6.029   4.599 -1.4049  2.1668  0.2269
 1604SOL    HW2 6413   4.199   6.086   4.687  0.0797 -0.4155 -0.0849
 1605SOL     OW 6414   0.259   0.344   0.224 -0.2838 -0.1098 -0.3159
 1605SOL    HW1 6415   0.310   0.297   0.296  0.7094  1.5820  0.1493
 1605SOL    HW2 6416   0.168   0.367   0.257 -0.6187 -1.2603 -0.3936
 1606SOL     OW 6417   5.276   4.253   6.921 -0.7727  0.2014 -0.0565
 1606SOL    HW1 6418   5.306   4.242   6.827 -0.4351 -1.9962  0.2610
 1606SOL    HW2 6419   5.179   4.229   6.929 -0.8167  0.4364  0.1602
 1607SOL     OW 6420   2.046   0.372   1.982 -0.0892 -0.2483 -0.2371
 1607SOL    HW1 6421   2.039   0.274   1.996  2.1180 -0.4508 -0.1007
 1607SOL    HW2 6422   2.084   0.415   2.065  0.5450  0.4509 -0.8673
 1608SOL     OW 6423   5.032   6.310   6.130 -0.0117 -0.0704  0.1247
 1608SOL    HW1 6424   5.102   6.319   6.201  0.1628 -1.1579  0.1043
 1608SOL    HW2 6425   5.021   6.213   6.106 -0.8221  0.1862 -0.5772
 1609SOL     OW 6426   3.790   3.145   5.786  0.2553  0.1124 -0.2672
 1609SOL    HW1 6427   3.832   3.180   5.703  0.4945  1.1425  0.2763
 1609SOL    HW2 6428   3.716   3.205   5.814  0.1312 -0.2641  0.2263
 1610SOL     OW 6429   4.783   5.710   5.852  0.3726 -0.1273 -0.2213
 1610SOL    HW1 6430   4.759   5.805   5.834  0.4532 -0.3175 -1.4043
 1610SOL    HW2 6431   4.699   5.657   5.871  0.1414 -0.1627 -1.2820
 1611SOL     OW 6432   0.077   2.000   5.315 -0.2372  0.7641  0.3912
 1611SOL    HW1 6433   0.138   1.921   5.305 -3.7496 -2.1500 -0.4455
 1611SOL    HW2 6434   0.131   2.084   5.321  3.7234 -1.4465 -0.7031
 1612SOL     OW 6435   6.824   6.326   3.999  0.2233 -0.1185 -0.2544
 1612SOL    HW1 6436   6.787   6.389   3.930  2.9140  0.1065 -1.6226
 1612SOL    HW2 6437   6.861   6.245   3.954 -1.8318 -2.1142  1.3734
 1613SOL     OW 6438   2.561   3.679   1.075 -0.6938 -0.0899 -0.0580
 1613SOL    HW1 6439   2.489   3.712   1.015 -2.5281  2.0008  2.9915
 1613SOL    HW2 6440   2.531   3.593   1.118 -0.0601 -0.7481 -0.8954
 1614SOL     OW 6441   4.287   0.342   1.371 -0.1159 -0.1233 -0.2963
 1614SOL    HW1 6442   4.260   0.274   1.439  1.3405  0.3825  0.8612
 1614SOL    HW2 6443   4.374   0.385   1.399 -1.0091  2.2741 -0.9039
 1615SOL     OW 6444   0.371   2.537   1.453 -0.3146  0.0940  0.0495
 1615SOL    HW1 6445   0.385   2.446   1.493  1.4205  1.1986  2.1620
 1615SOL    HW2 6446   0.362   2.605   1.525  1.2269  1.9904 -1.4225
 1616SOL     OW 6447   5.722   6.317   4.698 -0.5386  0.0212  0.2107
 1616SOL    HW1 6448   5.781   6.388   4.661  0.1765 -0.5063  0.3180
 1616SOL    HW2 6449   5.706   6.247   4.629 -1.4277  0.3794  0.0303
 1617SOL     OW 6450   3.210   1.968   0.875  0.1646  0.3547 -0.6439
 1617SOL    HW1 6451   3.178   1.879   0.842  0.9639 -0.8712  1.6381
 1617SOL    HW2 6452   3.262   2.013   0.804  1.2035 -1.7963 -1.3390
 1618SOL     OW 6453   5.800   5.656   3.775  0.0964  0.1361  0.5582
 1618SOL    HW1 6454   5.847   5.630   3.860  0.9909  0.1494  0.0876
 1618SOL    HW2 6455   5.867   5.660   3.701 -0.8153 -0.6857 -0.3281
 1619SOL     OW 6456   6.623   3.468   5.073  0.2373  0.3209 -0.2712
 1619SOL    HW1 6457   6.717   3.457   5.040  0.4262 -1.0471  0.6355
 1619SOL    HW2 6458   6.591   3.381   5.111 -1.2744  0.8691 -0.2353
 1620SOL     OW 6459   2.080   4.371   6.671 -0.5995  0.3137  0.1483
 1620SOL    HW1 6460   2.002   4.344   6.728 -0.6023  1.0445  0.5033
 1620SOL    HW2 6461   2.158   4.392   6.730 -0.5670  0.9712 -0.1243
 1621SOL     OW 6462   3.816   3.107   0.452  0.6355  0.6078 -0.0171
 1621SOL    HW1 6463   3.736   3.075   0.504  1.1167  0.3612  0.5840
 1621SOL    HW2 6464   3.822   3.055   0.367  2.2027 -2.0478  1.5606
 1622SOL     OW 6465   4.712   6.613   0.870  0.4526 -0.2643 -0.2553
 1622SOL    HW1 6466   4.785   6.660   0.921  0.2863 -0.4297  0.1464
 1622SOL    HW2 6467   4.736   6.516   0.862 -1.4936 -1.2608  3.4066
 1623SOL     OW 6468   5.074   5.276   2.796  0.1881 -0.1907 -0.4327
 1623SOL    HW1 6469   5.165   5.250   2.828 -0.2933 -0.3878  0.8485
 1623SOL    HW2 6470   5.026   5.325   2.869 -0.1760  1.2993 -1.6421
 1624SOL     OW 6471   2.310   0.289   0.003  0.2231  0.3537 -0.4028
 1624SOL    HW1 6472   2.211   0.279  -0.003  0.2017  1.1222 -1.6873
 1624SOL    HW2 6473   2.342   0.252   0.090 -1.4948  2.4264  1.2088
 1625SOL     OW 6474   0.537   1.679   5.153 -0.6619 -0.4354  0.0710
 1625SOL    HW1 6475   0.483   1.608   5.196 -0.5629  1.0105  2.8366
 1625SOL    HW2 6476   0.614   1.703   5.212  1.4920 -0.5465 -2.4900
 1626SOL     OW 6477   1.373   4.107   2.839 -0.4697  0.3777  0.2593
 1626SOL    HW1 6478   1.420   4.047   2.904  0.0949  1.0987  0.5216
 1626SOL    HW2 6479   1.325   4.051   2.772  1.3452 -0.4040 -0.4495
 1627SOL     OW 6480   5.196   4.251   3.304 -0.1201 -0.2354  0.0865
 1627SOL    HW1 6481   5.232   4.339   3.336  0.0723 -0.6450  1.0237
 1627SOL    HW2 6482   5.098   4.248   3.320 -0.2998  0.1802 -0.8446
 1628SOL     OW 6483   3.491   0.346   6.605  0.0605 -0.0178 -0.1602
 1628SOL    HW1 6484   3.551   0.307   6.674 -1.3730 -4.3936 -1.0877
 1628SOL    HW2 6485   3.406   0.378   6.648  1.2278  2.2573  0.6078
 1629SOL     OW 6486   0.192   4.544   2.022 -0.2099  0.2803 -0.5149
 1629SOL    HW1 6487   0.243   4.541   2.109  0.5870 -2.0857 -0.9982
 1629SOL    HW2 6488   0.232   4.479   1.958 -1.8377  0.7784 -2.1085
 1630SOL     OW 6489   2.353   5.121   0.942  0.4060 -0.2086 -0.2438
 1630SOL    HW1 6490   2.280   5.144   0.878  0.0206  1.0177  0.5887
 1630SOL    HW2 6491   2.315   5.067   1.018  0.4173  0.1538  0.0242
 1631SOL     OW 6492   0.475   6.673   1.849 -0.2643 -0.4907 -0.6964
 1631SOL    HW1 6493   0.405   6.731   1.806  0.8382  1.5594  0.1619
 1631SOL    HW2 6494   0.566   6.708   1.827  0.4357 -1.6456  0.2296
 1632SOL     OW 6495   0.455   2.249   6.124 -0.3187  0.5848  0.1619
 1632SOL    HW1 6496   0.528   2.261   6.057  1.6275  1.6134  2.3385
 1632SOL    HW2 6497   0.411   2.337   6.143 -2.1967 -0.0207 -1.1226
 1633SOL     OW 6498   0.600   2.397   2.635  1.0050 -0.0822 -0.1082
 1633SOL    HW1 6499   0.584   2.381   2.733  0.8697 -1.1296 -0.2884
 1633SOL    HW2 6500   0.694   2.427   2.622  0.8109  0.7830  0.4149
 1634SOL     OW 6501   0.574   0.065   5.450 -0.6257 -0.0106 -0.1583
 1634SOL    HW1 6502   0.572  -0.018   5.506 -1.1783 -0.1857 -0.4354
 1634SOL    HW2 6503   0.656   0.063   5.392  0.0488  0.2557  0.7490
 1635SOL     OW 6504   6.731   0.963   4.025 -0.2518 -0.2038  0.0657
 1635SOL    HW1 6505   6.808   1.026   4.041 -0.6241  0.3726 -0.3644
 1635SOL    HW2 6506   6.763   0.884   3.973 -0.1352  0.5098 -0.9827
 1636SOL     OW 6507   5.055   5.877   3.613  0.1542 -0.3146  0.1389
 1636SOL    HW1 6508   4.956   5.882   3.624  0.1467 -1.8645  1.0595
 1636SOL    HW2 6509   5.090   5.795   3.659  1.7174 -0.4780 -1.2480
 1637SOL     OW 6510   3.602   0.753   4.039  0.1428  0.3075  0.5797
 1637SOL    HW1 6511   3.563   0.841   4.062  0.8151  0.3255  1.7231
 1637SOL    HW2 6512   3.551   0.712   3.963 -0.9200  1.1293  0.8372
 1638SOL     OW 6513   2.684   3.765   6.431 -0.1666  0.3639 -0.2492
 1638SOL    HW1 6514   2.757   3.829   6.456 -1.4984  2.1125 -0.6574
 1638SOL    HW2 6515   2.696   3.680   6.482  1.2956  1.1528  0.8057
 1639SOL     OW 6516   2.851   3.401   3.818  0.5494 -0.1795  0.2437
 1639SOL    HW1 6517   2.904   3.470   3.769 -2.8394  0.7463 -2.4422
 1639SOL    HW2 6518   2.855   3.314   3.767 -0.0784 -0.2545  0.3239
 1640SOL     OW 6519   2.435   3.644   0.703  0.3034 -0.9471 -0.3718
 1640SOL    HW1 6520   2.388   3.680   0.784 -0.5428 -1.0230 -0.8273
 1640SOL    HW2 6521   2.448   3.718   0.636  0.9811 -0.8906 -0.1916
 1641SOL     OW 6522   4.642   6.430   1.542  0.1112  0.2698 -0.6176
 1641SOL    HW1 6523   4.618   6.381   1.458 -0.9698  0.4835 -0.4528
 1641SOL    HW2 6524   4.734   6.468   1.533 -0.6824  1.9463 -2.5147
 1642SOL     OW 6525   2.980   2.025   0.187 -0.6236 -0.3721  0.1920
 1642SOL    HW1 6526   2.933   1.946   0.226 -1.2571 -0.8090 -1.3607
 1642SOL    HW2 6527   3.039   1.996   0.111 -1.4142  0.6771 -0.8837
 1643SOL     OW 6528   2.153   0.471   2.223  0.3456 -0.0041 -0.1927
 1643SOL    HW1 6529   2.177   0.568   2.217  2.3458 -0.4525 -0.3718
 1643SOL    HW2 6530   2.083   0.457   2.293 -0.4462  1.6279 -0.6171
 1644SOL     OW 6531   4.442   6.284   3.117 -0.0595 -0.3389  0.1098
 1644SOL    HW1 6532   4.376   6.224   3.072 -0.6712  0.6397 -0.3282
 1644SOL    HW2 6533   4.528   6.282   3.066 -0.4557  0.0604 -0.5985
 1645SOL     OW 6534   0.212   3.165   1.054 -0.3301 -0.1506 -0.3716
 1645SOL    HW1 6535   0.147   3.104   1.010 -2.2923  2.7098 -1.7336
 1645SOL    HW2 6536   0.290   3.112   1.086 -1.0313 -3.0934 -2.9890
 1646SOL     OW 6537   6.807   0.053   3.179 -0.4751  0.4182 -0.1548
 1646SOL    HW1 6538   6.793   0.152   3.184 -0.4132  0.3833  1.0883
 1646SOL    HW2 6539   6.719   0.008   3.161 -0.9715  0.5800  1.6257
 1647SOL     OW 6540   4.753   3.733   6.955  0.2994 -0.3996 -0.3128
 1647SOL    HW1 6541   4.719   3.818   6.914  1.4187 -0.1232 -0.6985
 1647SOL    HW2 6542   4.802   3.753   7.039  0.7335 -0.6327 -0.5046
 1648SOL     OW 6543   1.470   5.857   6.332  0.0306 -0.9178  0.2267
 1648SOL    HW1 6544   1.434   5.913   6.407  1.8770  3.7596 -2.0033
 1648SOL    HW2 6545   1.399   5.846   6.263 -0.1682 -0.7926  0.4083
 1649SOL     OW 6546   2.493   4.745   5.395  0.5201  0.3240 -0.4967
 1649SOL    HW1 6547   2.533   4.657   5.369 -1.5627 -0.3857 -1.5317
 1649SOL    HW2 6548   2.442   4.735   5.480 -0.8819  0.1250 -1.3266
 1650SOL     OW 6549   0.513   4.175   1.523  0.9182  0.0833  0.9647
 1650SOL    HW1 6550   0.563   4.114   1.462  0.6369  0.7186  0.0779
 1650SOL    HW2 6551   0.417   4.147   1.526  0.3619  1.5609 -0.9553
 1651SOL     OW 6552   2.645   1.531   6.562 -0.0826 -0.4795  0.3952
 1651SOL    HW1 6553   2.731   1.540   6.612  0.1396 -0.7466  0.0622
 1651SOL    HW2 6554   2.597   1.449   6.592 -0.2069 -0.3494  0.5555
 1652SOL     OW 6555   4.953   0.924   6.407  0.0994 -0.3135  0.0957
 1652SOL    HW1 6556   5.001   1.012   6.411  3.0403 -1.7574 -0.5141
 1652SOL    HW2 6557   4.922   0.907   6.314  0.6293 -0.4465 -0.0596
 1653SOL     OW 6558   4.883   5.590   5.638  0.0845  0.0952  0.1465
 1653SOL    HW1 6559   4.869   5.671   5.695  0.9414  0.6121 -0.3692
 1653SOL    HW2 6560   4.831   5.513   5.677 -0.3147  0.7448  0.9338
 1654SOL     OW 6561   4.629   3.517   2.897 -0.2839 -0.2136 -0.1506
 1654SOL    HW1 6562   4.721   3.488   2.872 -0.0644  1.4035 -1.4384
 1654SOL    HW2 6563   4.583   3.444   2.948  1.6125 -1.1250  0.3403
 1655SOL     OW 6564   2.056   1.257   6.265  0.4065  0.9439  0.1600
 1655SOL    HW1 6565   2.117   1.208   6.328  0.8371  0.4788 -0.6007
 1655SOL    HW2 6566   2.112   1.309   6.201  0.1369 -1.3303 -2.0587
 1656SOL     OW 6567   3.921   5.158   2.766  0.2759  0.3811 -0.1894
 1656SOL    HW1 6568   3.943   5.238   2.710  0.9077  1.2913  1.2766
 1656SOL    HW2 6569   3.924   5.075   2.710  1.0315  1.2254 -1.4385
 1657SOL     OW 6570   0.774   3.599   1.956 -0.0654  0.2913 -0.0634
 1657SOL    HW1 6571   0.854   3.618   2.013 -0.5254 -1.0699  1.0973
 1657SOL    HW2 6572   0.803   3.592   1.861  0.8553  1.8161  0.0776
 1658SOL     OW 6573   1.404   4.046   2.174 -0.4602 -0.5023  0.0865
 1658SOL    HW1 6574   1.467   4.111   2.131 -2.0480  1.0663  0.0083
 1658SOL    HW2 6575   1.365   4.087   2.256  0.3493 -2.3582  1.4660
 1659SOL     OW 6576   6.863   6.459   1.327 -0.2263  0.1391 -0.4430
 1659SOL    HW1 6577   6.810   6.504   1.400  1.3270 -0.0664  0.8651
 1659SOL    HW2 6578   6.896   6.528   1.263  0.0782  0.5934  0.1879
 1660SOL     OW 6579   5.360   4.923   3.147  0.4593  0.4032 -0.1082
 1660SOL    HW1 6580   5.449   4.967   3.160  0.1791  1.1255 -0.5806
 1660SOL    HW2 6581   5.287   4.988   3.168  0.0235 -0.4998  1.3264
 1661SOL     OW 6582   4.184   0.952   0.255  0.0283 -0.0221 -0.7423
 1661SOL    HW1 6583   4.088   0.927   0.239 -0.9251  2.1859  1.0142
 1661SOL    HW2 6584   4.199   1.047   0.231  1.2632  0.2399  0.8549
 1662SOL     OW 6585   4.572   0.282   0.257  0.2407  0.1650  0.3306
 1662SOL    HW1 6586   4.587   0.187   0.229  0.0439  0.5225 -1.0512
 1662SOL    HW2 6587   4.474   0.296   0.272  0.1644  0.3647 -0.3249
 1663SOL     OW 6588   0.644   6.792   3.504 -0.3022  0.2647  0.0108
 1663SOL    HW1 6589   0.713   6.759   3.568 -1.9069  0.2604  1.8378
 1663SOL    HW2 6590   0.673   6.880   3.467  0.8491  0.0828  0.4320
 1664SOL     OW 6591   0.051   2.963   1.944 -0.0653 -0.7572 -0.4427
 1664SOL    HW1 6592  -0.042   2.926   1.948  0.6765 -2.6124  0.8764
 1664SOL    HW2 6593   0.071   3.014   2.027  0.1585 -0.4748 -0.6660
 1665SOL     OW 6594   2.812   6.360   1.256 -0.3588 -0.0040 -0.2758
 1665SOL    HW1 6595   2.834   6.449   1.217  3.4332  0.2085  1.8866
 1665SOL    HW2 6596   2.820   6.289   1.185  1.4240  0.8809 -1.0135
 1666SOL     OW 6597   1.288   2.671   6.973  0.2174 -0.3696  0.5724
 1666SOL    HW1 6598   1.363   2.617   6.935  1.3257  1.8622 -0.6201
 1666SOL    HW2 6599   1.249   2.730   6.902 -0.9676  0.3624  1.7803
 1667SOL     OW 6600   5.788   5.433   1.978  0.9461  0.2549  0.2306
 1667SOL    HW1 6601   5.860   5.471   1.920  0.3172  1.2964  0.1067
 1667SOL    HW2 6602   5.814   5.441   2.074  2.3206 -2.1448  0.1267
 1668SOL     OW 6603   1.725   2.930   4.225 -0.0946  0.4925 -0.1079
 1668SOL    HW1 6604   1.711   2.918   4.127 -0.7445 -0.6641  0.1198
 1668SOL    HW2 6605   1.656   2.993   4.261 -0.3198  0.3386 -0.2651
 1669SOL     OW 6606   0.788   3.291   6.014  0.3265  0.4768 -0.5337
 1669SOL    HW1 6607   0.802   3.252   6.105 -0.6503  1.3780  0.0210
 1669SOL    HW2 6608   0.791   3.391   6.020 -0.0383  0.5502 -1.4445
 1670SOL     OW 6609   5.063   4.728   2.170 -0.1155  0.0789 -0.3317
 1670SOL    HW1 6610   5.157   4.700   2.153  0.0352 -0.0368  0.6111
 1670SOL    HW2 6611   5.028   4.779   2.091  0.7776  0.2362 -0.6357
 1671SOL     OW 6612   2.526   6.750   2.808  0.6372 -0.2177  0.1926
 1671SOL    HW1 6613   2.557   6.845   2.800  0.3856 -0.2698 -2.2135
 1671SOL    HW2 6614   2.600   6.689   2.781  0.0597 -0.5722 -0.6244
 1672SOL     OW 6615   3.076   4.748   1.357 -0.3738  0.2247  0.8549
 1672SOL    HW1 6616   3.095   4.694   1.275 -0.2555  0.2578  0.8608
 1672SOL    HW2 6617   3.112   4.701   1.438  1.0251  0.9927  0.7088
 1673SOL     OW 6618   4.665   6.649   0.468  0.3300  0.3981  0.4802
 1673SOL    HW1 6619   4.760   6.681   0.466  0.5375 -0.1724  0.9743
 1673SOL    HW2 6620   4.603   6.728   0.472  0.7447  0.8008 -0.7263
 1674SOL     OW 6621   5.773   2.745   2.273 -0.1942 -0.1589 -0.1683
 1674SOL    HW1 6622   5.701   2.718   2.337  1.3899  0.7856  2.1263
 1674SOL    HW2 6623   5.844   2.675   2.270  0.7945  0.7560  0.8497
 1675SOL     OW 6624   5.830   6.336   5.620 -0.2372 -0.4779  0.2216
 1675SOL    HW1 6625   5.819   6.243   5.655 -0.6988 -0.0305  1.2930
 1675SOL    HW2 6626   5.886   6.389   5.683 -0.2873  0.0816 -0.1966
 1676SOL     OW 6627   2.124   3.777   0.038 -0.2692  0.3288  0.8571
 1676SOL    HW1 6628   2.120   3.716   0.117  1.1447 -0.4276  0.3622
 1676SOL    HW2 6629   2.174   3.861   0.064  1.9925 -0.7662  0.2737
 1677SOL     OW 6630   1.440   2.037   4.150  0.1410  0.3223 -0.1512
 1677SOL    HW1 6631   1.453   1.950   4.198 -0.5465 -0.3072 -1.0507
 1677SOL    HW2 6632   1.493   2.108   4.195 -0.3496 -0.2578  1.4433
 1678SOL     OW 6633   0.122   4.279   4.041 -0.2351  0.0782  0.5878
 1678SOL    HW1 6634   0.103   4.341   4.117 -1.9340 -0.7840  0.9170
 1678SOL    HW2 6635   0.057   4.203   4.043  0.0828 -0.2990 -1.3620
 1679SOL     OW 6636   1.844   0.654   6.569  0.3011  0.3672  0.3777
 1679SOL    HW1 6637   1.863   0.561   6.602  1.0054  0.5070  0.3731
 1679SOL    HW2 6638   1.880   0.664   6.476 -0.8703  0.2606 -0.1023
 1680SOL     OW 6639   1.135   3.045   2.048 -0.2478 -0.8033  0.4050
 1680SOL    HW1 6640   1.233   3.054   2.035 -0.0474 -1.2690  1.4604
 1680SOL    HW2 6641   1.095   3.135   2.064  0.0041 -0.6131 -0.0237
 1681SOL     OW 6642   0.608   4.537   2.101 -0.4368  0.2937  0.9670
 1681SOL    HW1 6643   0.616   4.617   2.042 -0.3086 -0.2548  0.2246
 1681SOL    HW2 6644   0.684   4.534   2.165  1.0427 -0.5965 -0.7189
 1682SOL     OW 6645   4.178   5.238   0.677  0.2977 -0.3604 -0.4513
 1682SOL    HW1 6646   4.098   5.206   0.727  0.0757 -0.0123 -0.5831
 1682SOL    HW2 6647   4.166   5.334   0.651  1.5416  0.2668  1.1460
 1683SOL     OW 6648   2.147   2.550   5.801  0.2666 -0.1300  0.3160
 1683SOL    HW1 6649   2.145   2.565   5.702  1.2338 -1.7608  0.0222
 1683SOL    HW2 6650   2.085   2.475   5.824  1.9238 -1.4808  0.5793
 1684SOL     OW 6651   0.664   2.408   3.257  0.0004 -0.0094 -0.4015
 1684SOL    HW1 6652   0.564   2.415   3.254  0.0990  1.3144 -1.0369
 1684SOL    HW2 6653   0.699   2.379   3.168  0.2280  0.1886 -0.3787
 1685SOL     OW 6654   3.162   4.506   0.856 -0.0602  0.1574  0.1470
 1685SOL    HW1 6655   3.076   4.523   0.809 -0.3229 -1.2749  0.0491
 1685SOL    HW2 6656   3.147   4.441   0.930  1.2442 -1.7231 -1.1448
 1686SOL     OW 6657   1.499   6.213   3.723  0.5458 -0.0163 -0.1259
 1686SOL    HW1 6658   1.451   6.213   3.636  0.8170 -2.0296 -0.3331
 1686SOL    HW2 6659   1.597   6.228   3.708  0.6033 -0.4434 -0.1727
 1687SOL     OW 6660   5.404   4.334   3.086  0.6967  0.1870 -0.1358
 1687SOL    HW1 6661   5.405   4.346   3.186  2.1445  1.8893 -0.3151
 1687SOL    HW2 6662   5.353   4.251   3.064 -0.4740  0.2567  1.9572
 1688SOL     OW 6663   4.815   6.950   3.265 -0.0648  0.2126  0.0942
 1688SOL    HW1 6664   4.880   7.021   3.291  0.9070 -0.5733 -0.1374
 1688SOL    HW2 6665   4.723   6.988   3.264  0.3492  1.2658  0.7326
 1689SOL     OW 6666   1.084   0.408   6.047 -0.3446 -0.1936 -0.2228
 1689SOL    HW1 6667   1.018   0.425   6.120  0.0663  0.6827 -0.0429
 1689SOL    HW2 6668   1.174   0.389   6.088 -0.3959 -1.0364 -0.4731
 1690SOL     OW 6669   2.431   6.056   6.066  0.0940  0.0446  0.2792
 1690SOL    HW1 6670   2.482   6.041   6.151  0.3985 -1.1971 -0.1030
 1690SOL    HW2 6671   2.494   6.087   5.995  0.1660 -0.5741  0.0626
 1691SOL     OW 6672   3.829   0.846   3.529 -0.7707 -0.2290  0.1695
 1691SOL    HW1 6673   3.779   0.932   3.519  0.5669  0.6950  1.1541
 1691SOL    HW2 6674   3.862   0.816   3.439  0.8401  1.6090  0.0772
 1692SOL     OW 6675   2.959   2.084   5.346 -0.6173 -0.1765 -0.1046
 1692SOL    HW1 6676   3.006   2.164   5.309  0.4920  0.2510  2.0690
 1692SOL    HW2 6677   2.996   2.001   5.303  0.5428  0.2954 -0.0538
 1693SOL     OW 6678   0.074   5.114   0.077 -0.2282 -0.1567 -0.2133
 1693SOL    HW1 6679   0.104   5.112  -0.018 -1.6692 -1.3801 -0.6786
 1693SOL    HW2 6680   0.015   5.193   0.092 -0.1162 -0.0421 -0.3754
 1694SOL     OW 6681   1.642   6.707   4.165 -0.0596  0.1491 -0.4006
 1694SOL    HW1 6682   1.648   6.645   4.243 -1.0697  0.9200  0.2936
 1694SOL    HW2 6683   1.725   6.763   4.161 -0.1246  0.2933  0.2676
 1695SOL     OW 6684   0.964   5.107   6.872  0.1738 -0.1035 -0.1509
 1695SOL    HW1 6685   0.939   5.194   6.914  1.0934  0.7410 -1.2733
 1695SOL    HW2 6686   1.062   5.107   6.852  0.5453 -2.0736  1.3383
 1696SOL     OW 6687   0.585   0.544   2.167 -0.1488  0.2496 -0.0904
 1696SOL    HW1 6688   0.606   0.550   2.069  2.6333  1.8335  0.4778
 1696SOL    HW2 6689   0.560   0.634   2.201 -1.9531 -0.4532  0.5639
 1697SOL     OW 6690   6.412   6.293   0.563  0.2930  0.5252 -0.3181
 1697SOL    HW1 6691   6.510   6.310   0.550  0.1296  0.2968 -2.1150
 1697SOL    HW2 6692   6.371   6.370   0.611  1.1626  1.1152 -0.4924
 1698SOL     OW 6693   4.853   6.777   3.904  0.3680 -0.1000  0.2098
 1698SOL    HW1 6694   4.841   6.755   3.807 -0.2706 -1.5204  0.5886
 1698SOL    HW2 6695   4.768   6.817   3.939  0.8927  1.2794 -0.0025
 1699SOL     OW 6696   2.128   2.155   6.983  0.2676 -0.0130 -0.7402
 1699SOL    HW1 6697   2.201   2.125   6.921 -1.3483 -2.1391 -1.7465
 1699SOL    HW2 6698   2.053   2.194   6.930 -0.4324 -0.3036  0.0256
 1700SOL     OW 6699   4.217   6.247   5.058 -0.2732 -0.0790  0.5624
 1700SOL    HW1 6700   4.309   6.227   5.093 -1.0383  0.6393  3.2309
 1700SOL    HW2 6701   4.222   6.323   4.994  0.9374  0.3724  1.1524
 1701SOL     OW 6702   1.331   1.475   1.108 -0.8601  0.0436  0.0957
 1701SOL    HW1 6703   1.345   1.456   1.011 -0.2769 -0.4797  0.2788
 1701SOL    HW2 6704   1.418   1.465   1.157 -0.5469  2.8804  0.2621
 1702SOL     OW 6705   6.099   3.892   6.337  0.9176 -0.3632 -0.0665
 1702SOL    HW1 6706   6.197   3.880   6.326  0.8655 -0.3860 -0.5066
 1702SOL    HW2 6707   6.052   3.862   6.254  0.4822 -1.1100  0.4378
 1703SOL     OW 6708   5.395   4.821   5.381 -0.1172  0.3887 -0.2497
 1703SOL    HW1 6709   5.365   4.863   5.296 -0.5958  0.5963  0.0169
 1703SOL    HW2 6710   5.456   4.744   5.361  0.5877  1.0680 -0.7470
 1704SOL     OW 6711   6.165   3.510   4.903 -0.0359 -0.1017  0.6063
 1704SOL    HW1 6712   6.172   3.484   4.999 -0.7357  2.0088  1.2793
 1704SOL    HW2 6713   6.250   3.554   4.874  0.4466 -1.3671  0.0083
 1705SOL     OW 6714   1.294   3.591   2.352 -0.1895 -0.3971 -0.2803
 1705SOL    HW1 6715   1.321   3.625   2.442  1.7326 -0.1916 -0.8939
 1705SOL    HW2 6716   1.251   3.501   2.363  0.8493 -0.8006  0.7789
 1706SOL     OW 6717   4.207   6.835   4.965 -0.1341 -0.6570 -0.1752
 1706SOL    HW1 6718   4.267   6.756   4.950 -0.1937 -1.0718  1.6053
 1706SOL    HW2 6719   4.252   6.900   5.027 -1.5692 -1.0763  1.3666
 1707SOL     OW 6720   2.866   2.024   6.588  0.3333 -0.3634 -0.1242
 1707SOL    HW1 6721   2.962   2.049   6.589  0.1149  0.5986  2.2094
 1707SOL    HW2 6722   2.849   1.962   6.511  2.8686 -0.8833 -0.3643
 1708SOL     OW 6723   4.621   5.821   1.482 -1.0659 -0.1433  0.2395
 1708SOL    HW1 6724   4.603   5.780   1.392  0.3786  0.9705 -0.5915
 1708SOL    HW2 6725   4.553   5.891   1.500 -1.3866 -0.3946  0.0371
 1709SOL     OW 6726   5.767   3.443   3.683 -0.2460 -0.2235  0.8433
 1709SOL    HW1 6727   5.790   3.374   3.615 -0.5563  1.0370 -0.5909
 1709SOL    HW2 6728   5.835   3.441   3.757  1.5283 -0.0377 -0.7107
 1710SOL     OW 6729   2.594   0.775   6.715 -0.0441 -0.0619 -0.0925
 1710SOL    HW1 6730   2.677   0.829   6.707  0.5182 -0.7913  0.7357
 1710SOL    HW2 6731   2.606   0.688   6.666 -0.0408 -0.4825  0.6417
 1711SOL     OW 6732   1.158   1.857   5.167  0.5187 -0.1115 -0.3672
 1711SOL    HW1 6733   1.158   1.757   5.166 -0.0375 -0.1258  0.3479
 1711SOL    HW2 6734   1.179   1.891   5.076 -1.3365 -0.8916 -1.1437
 1712SOL     OW 6735   1.788   2.849   2.417  0.9383 -0.5434  0.1281
 1712SOL    HW1 6736   1.777   2.756   2.382  2.9210 -0.0208 -2.1858
 1712SOL    HW2 6737   1.876   2.858   2.463 -0.2636 -0.3438  2.5617
 1713SOL     OW 6738   0.985   4.679   2.615 -0.3486  0.5451  0.1397
 1713SOL    HW1 6739   1.038   4.727   2.545 -0.6756  1.0239  0.2183
 1713SOL    HW2 6740   1.028   4.692   2.704 -0.5843  0.9242  0.2017
 1714SOL     OW 6741   4.040   6.377   1.618  0.1462 -0.2185 -0.7392
 1714SOL    HW1 6742   3.956   6.428   1.635  0.6560  0.4267 -0.0883
 1714SOL    HW2 6743   4.018   6.290   1.572 -0.9233 -0.3197 -0.0718
 1715SOL     OW 6744   5.902   6.028   3.559  0.7350 -0.1557  0.1532
 1715SOL    HW1 6745   5.975   6.071   3.613  1.3325 -1.9176  0.8239
 1715SOL    HW2 6746   5.823   6.014   3.618  1.6027 -2.6478  0.8550
 1716SOL     OW 6747   5.867   0.223   1.369  0.5846 -0.5653 -0.0094
 1716SOL    HW1 6748   5.769   0.206   1.376  0.3910  0.3184 -0.4398
 1716SOL    HW2 6749   5.893   0.297   1.431  0.7539  0.0457 -0.7982
 1717SOL     OW 6750   0.210   3.345   6.904  0.9183 -0.0842 -0.4228
 1717SOL    HW1 6751   0.266   3.329   6.985  0.8798 -1.3213 -0.6239
 1717SOL    HW2 6752   0.200   3.260   6.853 -1.1201  0.1031 -0.4134
 1718SOL     OW 6753   2.898   0.973   4.803  0.4526  0.1451  0.7789
 1718SOL    HW1 6754   2.946   1.022   4.875  2.0215  0.2945 -0.3259
 1718SOL    HW2 6755   2.952   0.894   4.775 -0.2204 -0.0098 -0.1146
 1719SOL     OW 6756   2.078   3.236   5.984  0.2166 -0.7073 -0.5263
 1719SOL    HW1 6757   2.078   3.279   6.075 -0.0783  0.1300 -0.9135
 1719SOL    HW2 6758   2.009   3.164   5.982 -1.3103  0.7083 -0.7323
 1720SOL     OW 6759   6.187   2.927   2.983 -0.1502 -0.4035  0.2958
 1720SOL    HW1 6760   6.243   2.965   3.057  0.8660  0.6493 -0.9760
 1720SOL    HW2 6761   6.111   2.988   2.964  0.0011 -0.3091 -0.0067
 1721SOL     OW 6762   2.601   1.557   3.622  0.5531  0.1674 -0.0769
 1721SOL    HW1 6763   2.687   1.570   3.572  0.8217  1.1584  0.6138
 1721SOL    HW2 6764   2.566   1.465   3.605  2.4399 -0.7354  0.6960
 1722SOL     OW 6765   0.816   4.177   6.041 -0.1706  0.0506 -0.2233
 1722SOL    HW1 6766   0.777   4.091   6.072  0.1280  0.7355  2.2801
 1722SOL    HW2 6767   0.916   4.174   6.048 -0.0585  0.1722 -1.4230
 1723SOL     OW 6768   1.164   1.171   1.252  0.2678 -0.5933 -0.0375
 1723SOL    HW1 6769   1.218   1.086   1.246 -0.6306 -1.3091  1.3449
 1723SOL    HW2 6770   1.177   1.211   1.343 -0.0861  0.2335 -0.3483
 1724SOL     OW 6771   2.806   1.501   1.008  0.2110 -0.2578  0.2399
 1724SOL    HW1 6772   2.778   1.493   0.913 -0.4148 -0.7048  0.4541
 1724SOL    HW2 6773   2.827   1.410   1.045  0.9936 -0.0310  0.3717
 1725SOL     OW 6774   5.065   1.453   3.487 -0.0086  0.2828 -0.2766
 1725SOL    HW1 6775   5.162   1.464   3.465  0.0519 -1.0823 -0.8262
 1725SOL    HW2 6776   5.010   1.510   3.427  0.3956 -0.0346 -0.9659
 1726SOL     OW 6777   1.309   0.799   4.273  0.0691  0.1070 -0.3055
 1726SOL    HW1 6778   1.231   0.861   4.263 -0.6183 -0.8170 -0.8449
 1726SOL    HW2 6779   1.309   0.732   4.198  0.5198 -0.8376  0.5054
 1727SOL     OW 6780   0.734   1.935   5.878  0.1813  0.1852  0.6254
 1727SOL    HW1 6781   0.657   1.877   5.906  0.8411 -1.1171 -0.1666
 1727SOL    HW2 6782   0.705   1.993   5.802  0.3031 -1.1996 -0.5086
 1728SOL     OW 6783   6.261   4.666   4.078  0.1626  0.0031  0.8168
 1728SOL    HW1 6784   6.255   4.761   4.110  0.8918  0.3542 -0.0415
 1728SOL    HW2 6785   6.354   4.648   4.045 -0.2172 -0.7314  0.1267
 1729SOL     OW 6786   5.068   2.700   1.292  0.3011 -0.3856 -0.0063
 1729SOL    HW1 6787   4.998   2.741   1.350  1.9050  0.9461  1.0672
 1729SOL    HW2 6788   5.113   2.625   1.342 -1.1094 -2.0626 -1.1391
 1730SOL     OW 6789   3.647   5.330   2.244 -0.3975 -0.2710  0.1762
 1730SOL    HW1 6790   3.720   5.396   2.230 -1.5505  0.9796 -0.1464
 1730SOL    HW2 6791   3.662   5.282   2.330  1.2804 -0.7172 -0.3241
 1731SOL     OW 6792   4.632   1.019   4.459  0.2592 -0.2493 -0.0085
 1731SOL    HW1 6793   4.631   0.920   4.448  0.8689 -0.0864 -1.8344
 1731SOL    HW2 6794   4.613   1.063   4.372  1.5277  1.2468  0.4083
 1732SOL     OW 6795   4.643   4.429   0.718 -0.2689  0.0279 -0.1604
 1732SOL    HW1 6796   4.687   4.372   0.788 -0.7496  1.7281  1.6365
 1732SOL    HW2 6797   4.574   4.375   0.670 -0.5422 -0.9876  1.3036
 1733SOL     OW 6798   4.507   1.625   2.271  0.2272 -0.4528  0.2103
 1733SOL    HW1 6799   4.509   1.543   2.328 -1.2355 -0.9292 -0.3740
 1733SOL    HW2 6800   4.474   1.702   2.325 -2.6113 -1.2228 -0.2860
 1734SOL     OW 6801   6.481   1.889   5.858  0.5644  0.6145 -0.0530
 1734SOL    HW1 6802   6.576   1.903   5.828  0.9087  0.2659  0.8394
 1734SOL    HW2 6803   6.428   1.971   5.838  1.5511  1.6255  1.2833
 1735SOL     OW 6804   2.922   6.192   0.538  0.2673 -0.2407 -0.3480
 1735SOL    HW1 6805   3.021   6.207   0.540  0.1571  0.7608 -1.5416
 1735SOL    HW2 6806   2.878   6.255   0.602  0.4773 -1.6148  1.2085
 1736SOL     OW 6807   4.202   2.735   1.122  0.3890 -0.4029 -0.4678
 1736SOL    HW1 6808   4.237   2.694   1.206  0.9745 -0.8492 -0.9208
 1736SOL    HW2 6809   4.185   2.663   1.054 -2.2316 -0.3199 -0.0024
 1737SOL     OW 6810   1.419   1.017   5.210  0.7874  0.5128  0.3704
 1737SOL    HW1 6811   1.443   0.934   5.160  1.5410  1.5139 -1.0085
 1737SOL    HW2 6812   1.370   0.993   5.294  0.5676 -1.2791 -0.2324
 1738SOL     OW 6813   0.214   0.183   4.105 -0.6011 -0.1989 -0.2095
 1738SOL    HW1 6814   0.177   0.165   4.014 -0.6078  1.7643 -0.6453
 1738SOL    HW2 6815   0.174   0.119   4.171 -2.1720 -0.3421 -1.2504
 1739SOL     OW 6816   6.959   6.587   3.757  0.1178 -0.5082 -0.2766
 1739SOL    HW1 6817   6.993   6.605   3.850 -0.8264  0.9455 -0.1746
 1739SOL    HW2 6818   7.017   6.518   3.713  0.8819 -0.8551  1.2097
 1740SOL     OW 6819   0.449   3.843   4.857 -0.3058  0.1629 -0.3978
 1740SOL    HW1 6820   0.438   3.903   4.778 -2.4140  1.3340  0.6794
 1740SOL    HW2 6821   0.456   3.898   4.940  2.3735 -1.0209  0.2530
 1741SOL     OW 6822   1.095   5.891   1.605 -0.0977 -0.0878  0.3707
 1741SOL    HW1 6823   1.048   5.808   1.633 -2.7784  1.1511 -0.0977
 1741SOL    HW2 6824   1.182   5.899   1.653  0.0633 -2.9253  0.6946
 1742SOL     OW 6825   4.816   1.544   4.335  0.1552  0.5799  0.3391
 1742SOL    HW1 6826   4.754   1.514   4.408 -0.1522  2.5974  0.9619
 1742SOL    HW2 6827   4.766   1.544   4.248  0.3295 -1.1654  0.1872
 1743SOL     OW 6828   5.954   1.517   6.087  0.4993  0.3009 -0.0817
 1743SOL    HW1 6829   6.027   1.535   6.021 -1.6862  1.3497 -2.3765
 1743SOL    HW2 6830   5.956   1.421   6.114  2.4030  0.2088 -0.4536
 1744SOL     OW 6831   3.095   3.596   0.418 -0.4981  0.3734  0.5107
 1744SOL    HW1 6832   3.150   3.539   0.479 -1.6057  0.4161  1.5820
 1744SOL    HW2 6833   3.069   3.680   0.466 -1.2761  0.4643 -0.0639
 1745SOL     OW 6834   3.256   6.368   5.837 -0.0564 -0.4469  0.0928
 1745SOL    HW1 6835   3.348   6.404   5.848  0.5454 -2.6041  3.9988
 1745SOL    HW2 6836   3.260   6.278   5.793 -0.2082 -0.8028  0.7954
 1746SOL     OW 6837   6.352   3.316   3.007  0.1758 -0.4881 -0.5300
 1746SOL    HW1 6838   6.386   3.397   2.960  0.4016  1.4700  2.6816
 1746SOL    HW2 6839   6.253   3.322   3.016  0.0660 -1.1482 -1.2143
 1747SOL     OW 6840   2.267   5.242   5.029  0.3665 -0.3820 -0.1944
 1747SOL    HW1 6841   2.284   5.289   4.943  1.4718 -0.7929 -0.2251
 1747SOL    HW2 6842   2.336   5.170   5.042 -0.9918 -1.6910  0.0696
 1748SOL     OW 6843   6.862   3.930   6.682 -0.7684 -0.1177  0.1592
 1748SOL    HW1 6844   6.819   3.841   6.697 -2.0224  0.8198  2.8481
 1748SOL    HW2 6845   6.792   4.001   6.681  0.3962  1.0766  0.4776
 1749SOL     OW 6846   3.198   6.062   0.137 -0.2574  0.0043 -0.0745
 1749SOL    HW1 6847   3.163   6.103   0.053  1.4998  0.7372 -0.4864
 1749SOL    HW2 6848   3.122   6.044   0.200 -1.8532 -1.9947 -2.3788
 1750SOL     OW 6849   6.304   2.297   6.812  0.3389 -0.1229 -0.3657
 1750SOL    HW1 6850   6.356   2.279   6.896 -2.3507 -0.7894  1.2615
 1750SOL    HW2 6851   6.339   2.239   6.738  0.7220 -1.9163  1.1564
 1751SOL     OW 6852   5.043   3.379   3.753  0.0544  0.8035  0.4486
 1751SOL    HW1 6853   5.127   3.345   3.711 -0.6379  0.7370 -0.9310
 1751SOL    HW2 6854   5.007   3.310   3.815 -1.0182 -0.8554 -1.8593
 1752SOL     OW 6855   5.538   4.143   4.097 -0.6034 -0.5055  0.3931
 1752SOL    HW1 6856   5.450   4.104   4.124 -0.3592  0.1319  2.2941
 1752SOL    HW2 6857   5.558   4.222   4.156  0.5101  0.3341 -1.0661
 1753SOL     OW 6858   3.921   6.420   1.243 -0.2195  0.0480  0.3377
 1753SOL    HW1 6859   3.944   6.509   1.282 -1.7199  0.3467  0.5714
 1753SOL    HW2 6860   3.951   6.416   1.148  1.1306  0.2664  0.7343
 1754SOL     OW 6861   6.700   3.544   3.085 -0.5082 -0.2427 -0.1601
 1754SOL    HW1 6862   6.635   3.581   3.019 -0.1546  0.1280 -0.3098
 1754SOL    HW2 6863   6.739   3.459   3.050  1.9787  1.4864 -1.9130
 1755SOL     OW 6864   6.178   1.817   0.579 -0.5170  0.4118  0.2408
 1755SOL    HW1 6865   6.154   1.753   0.652  0.1938 -0.1998 -0.0482
 1755SOL    HW2 6866   6.257   1.872   0.607 -0.4239  0.3789  0.0445
 1756SOL     OW 6867   2.372   3.433   3.234 -0.4173  0.0573 -0.9021
 1756SOL    HW1 6868   2.302   3.450   3.304  0.0022  0.7813 -0.6470
 1756SOL    HW2 6869   2.435   3.510   3.232  1.5384 -1.4351  0.1991
 1757SOL     OW 6870   3.255   3.151   3.176  0.1957 -0.1636 -0.5988
 1757SOL    HW1 6871   3.218   3.198   3.257  1.4177 -0.5863  0.2214
 1757SOL    HW2 6872   3.287   3.219   3.110 -0.0180  0.1782 -0.3543
 1758SOL     OW 6873   6.369   2.079   1.096 -0.0199 -0.5853  0.0280
 1758SOL    HW1 6874   6.418   2.061   1.181  0.8186 -0.0764 -0.3289
 1758SOL    HW2 6875   6.398   2.168   1.059 -2.2179  0.3820  0.5008
 1759SOL     OW 6876   2.243   4.939   5.156  0.0082 -0.1881  0.2254
 1759SOL    HW1 6877   2.232   4.986   5.243  0.6904 -0.1968  0.3216
 1759SOL    HW2 6878   2.324   4.974   5.109  0.4058 -1.1050  0.2026
 1760SOL     OW 6879   6.378   5.272   0.865 -0.2321  0.3590 -0.1684
 1760SOL    HW1 6880   6.427   5.266   0.951 -0.7460 -2.3752  0.0123
 1760SOL    HW2 6881   6.428   5.332   0.802  0.5038  1.8454  1.7294
 1761SOL     OW 6882   1.717   4.419   4.902  0.2884 -0.4335 -0.2397
 1761SOL    HW1 6883   1.667   4.490   4.853  1.5184  0.2453 -0.5550
 1761SOL    HW2 6884   1.662   4.386   4.979 -1.1504 -0.6278 -1.3066
 1762SOL     OW 6885   0.890   6.194   6.745  0.2785 -0.2527 -0.1506
 1762SOL    HW1 6886   0.849   6.143   6.669  0.1516  0.2094 -0.3975
 1762SOL    HW2 6887   0.990   6.190   6.736  0.3732 -2.3722  1.1054
 1763SOL     OW 6888   6.314   1.321   2.457  0.0253 -0.2589  0.5020
 1763SOL    HW1 6889   6.369   1.264   2.518 -2.0595 -0.7887  1.9906
 1763SOL    HW2 6890   6.312   1.415   2.492 -0.6954 -0.4318  0.9355
 1764SOL     OW 6891   5.958   1.822   5.444  0.1379 -0.5264 -0.4068
 1764SOL    HW1 6892   5.941   1.734   5.488 -0.7278 -0.5409 -0.7503
 1764SOL    HW2 6893   6.023   1.875   5.499 -1.3864 -0.2801  1.2667
 1765SOL     OW 6894   5.939   2.541   2.559  0.2597 -0.1035  1.1133
 1765SOL    HW1 6895   5.945   2.630   2.602  2.1472  0.4408 -0.1570
 1765SOL    HW2 6896   5.908   2.551   2.464  1.5438 -0.6376  0.6074
 1766SOL     OW 6897   3.537   6.584   6.053 -0.2691  0.5179 -0.0275
 1766SOL    HW1 6898   3.553   6.674   6.012 -2.3198 -0.0770 -2.3452
 1766SOL    HW2 6899   3.525   6.594   6.152  1.4159  2.4980  0.0499
 1767SOL     OW 6900   4.928   0.689   4.323  0.0320  0.1861 -0.4245
 1767SOL    HW1 6901   4.992   0.712   4.250 -0.2413  1.8840 -0.1694
 1767SOL    HW2 6902   4.945   0.595   4.354  2.7313  0.7175 -0.0291
 1768SOL     OW 6903   3.216   5.792   5.161  0.0221  0.2248 -0.5918
 1768SOL    HW1 6904   3.154   5.798   5.083 -0.6496 -0.7442 -0.1466
 1768SOL    HW2 6905   3.247   5.884   5.186  0.8092  0.4868 -2.4166
 1769SOL     OW 6906   4.690   1.549   4.833 -0.0445  0.2899  0.2834
 1769SOL    HW1 6907   4.606   1.597   4.858  0.1055  0.4905  0.4006
 1769SOL    HW2 6908   4.736   1.517   4.916  1.7019  3.0140  0.4985
 1770SOL     OW 6909   6.031   2.182   4.899 -0.6246 -0.0402 -0.3956
 1770SOL    HW1 6910   6.105   2.180   4.966  1.1964 -3.8159 -2.2484
 1770SOL    HW2 6911   5.945   2.157   4.944  0.3701 -1.5961  0.7369
 1771SOL     OW 6912   5.266   3.608   3.505 -0.0254 -0.2604  0.2858
 1771SOL    HW1 6913   5.168   3.622   3.519 -0.0326  0.9733 -0.7609
 1771SOL    HW2 6914   5.317   3.686   3.542  0.3806  0.1231 -1.0063
 1772SOL     OW 6915   4.809   1.832   2.756 -0.4957 -0.3450 -0.1843
 1772SOL    HW1 6916   4.892   1.778   2.771  0.0303  0.3489 -0.4998
 1772SOL    HW2 6917   4.752   1.786   2.688 -0.6153 -1.0837  0.4057
 1773SOL     OW 6918   2.132   7.006   2.790  0.3265  0.5531 -0.0106
 1773SOL    HW1 6919   2.164   6.974   2.879  1.9160  0.4482 -0.5833
 1773SOL    HW2 6920   2.202   6.987   2.721 -0.9056  0.5635 -1.3027
 1774SOL     OW 6921   5.308   2.312   6.051  0.0803  0.3331  0.1373
 1774SOL    HW1 6922   5.373   2.246   6.088  0.1500 -0.8771 -1.9810
 1774SOL    HW2 6923   5.292   2.384   6.118 -0.0844 -1.8607  2.6157
 1775SOL     OW 6924   5.148   3.117   0.257  0.5955  0.2473 -0.3543
 1775SOL    HW1 6925   5.132   3.081   0.349  0.2598  0.3029 -0.3906
 1775SOL    HW2 6926   5.230   3.074   0.218  1.2806  0.9092  0.3294
 1776SOL     OW 6927   0.558   3.584   0.436  0.1567 -0.6388 -0.1268
 1776SOL    HW1 6928   0.538   3.682   0.445 -0.6253 -0.8586  0.6969
 1776SOL    HW2 6929   0.472   3.534   0.423  0.6505 -1.1054 -1.8363
 1777SOL     OW 6930   1.518   1.195   1.310  0.6503 -0.1361 -0.1063
 1777SOL    HW1 6931   1.537   1.113   1.256  1.7615  1.3912 -2.2027
 1777SOL    HW2 6932   1.595   1.214   1.371  0.9179 -0.0243 -0.4761
 1778SOL     OW 6933   1.161   1.909   4.345 -0.4227  0.2666  0.6121
 1778SOL    HW1 6934   1.249   1.908   4.393 -1.2421 -0.0738  2.1464
 1778SOL    HW2 6935   1.162   1.982   4.277  1.2290 -0.0677  0.2255
 1779SOL     OW 6936   6.249   3.540   5.554 -0.2013  0.3647 -0.6056
 1779SOL    HW1 6937   6.174   3.562   5.491  1.1445  1.0879 -2.0168
 1779SOL    HW2 6938   6.295   3.457   5.524  0.3834  0.6498 -0.5100
 1780SOL     OW 6939   0.283   1.221   5.864  0.0713 -0.1164 -0.5672
 1780SOL    HW1 6940   0.270   1.152   5.935  0.9790 -1.5853 -1.7511
 1780SOL    HW2 6941   0.195   1.241   5.820 -0.7110  1.6858  1.6718
 1781SOL     OW 6942   2.879   2.872   0.928 -0.3795  0.3948  0.5925
 1781SOL    HW1 6943   2.888   2.775   0.907 -0.2868  0.6250 -0.4897
 1781SOL    HW2 6944   2.824   2.917   0.857  0.1390  1.2475  0.7167
 1782SOL     OW 6945   6.466   1.697   4.578 -0.2325 -0.1197  0.7468
 1782SOL    HW1 6946   6.542   1.635   4.561 -0.1328  0.5985 -1.7970
 1782SOL    HW2 6947   6.451   1.754   4.498 -0.6356  2.8521  2.7769
 1783SOL     OW 6948   5.657   5.016   5.765  0.0346  0.6584 -0.3355
 1783SOL    HW1 6949   5.740   5.021   5.708  0.5266  1.2768  0.4139
 1783SOL    HW2 6950   5.647   4.923   5.800  0.7931  0.7325  0.1078
 1784SOL     OW 6951   0.387   1.162   3.676 -0.3778 -0.0848  0.1989
 1784SOL    HW1 6952   0.441   1.194   3.754 -0.2086 -0.1550  0.1114
 1784SOL    HW2 6953   0.354   1.070   3.694  1.2318 -0.8492 -0.5806
 1785SOL     OW 6954   6.061   2.241   4.646 -0.6389 -0.3500  0.4017
 1785SOL    HW1 6955   5.980   2.277   4.599 -0.7755  0.1789  1.0221
 1785SOL    HW2 6956   6.040   2.228   4.743  0.5741  1.6644  0.9895
 1786SOL     OW 6957   4.444   4.247   1.381 -0.2373 -0.0772  0.2827
 1786SOL    HW1 6958   4.521   4.188   1.355 -0.4207  0.2648 -1.0894
 1786SOL    HW2 6959   4.391   4.202   1.453 -0.0998 -1.3959 -0.4105
 1787SOL     OW 6960   5.107   0.997   0.201 -0.0607  0.5995 -0.2738
 1787SOL    HW1 6961   5.172   1.055   0.152 -2.0366  1.3053 -2.2075
 1787SOL    HW2 6962   5.042   1.054   0.251  1.5128 -0.1050  2.8139
 1788SOL     OW 6963   6.349   0.390   7.015  0.0712  0.4211  0.3185
 1788SOL    HW1 6964   6.385   0.364   6.926 -0.9308  2.3334 -0.7106
 1788SOL    HW2 6965   6.414   0.364   7.087  1.7004  0.4046 -1.1104
 1789SOL     OW 6966   6.743   2.111   6.030 -0.6111  0.1683 -0.1540
 1789SOL    HW1 6967   6.720   2.018   6.002 -1.2340  0.0388  0.7509
 1789SOL    HW2 6968   6.789   2.158   5.955  1.1359 -1.3644 -0.0965
 1790SOL     OW 6969   6.525   6.764   5.284 -0.2300  0.7316  0.4266
 1790SOL    HW1 6970   6.534   6.777   5.185 -0.8321 -1.7124 -0.0176
 1790SOL    HW2 6971   6.428   6.757   5.307 -0.0690  0.6965  1.1028
 1791SOL     OW 6972   0.980   6.249   2.407  0.1949 -0.2969  0.1598
 1791SOL    HW1 6973   0.917   6.248   2.484  0.0594  0.4229  0.0693
 1791SOL    HW2 6974   0.934   6.285   2.326  0.5470 -0.3284 -0.0601
 1792SOL     OW 6975   5.420   2.577   1.698 -0.0358  0.1930 -0.3381
 1792SOL    HW1 6976   5.433   2.547   1.603  0.8020 -0.3720 -0.0635
 1792SOL    HW2 6977   5.408   2.676   1.700  0.9928  0.3513 -0.9634
 1793SOL     OW 6978   3.664   0.736   5.627  0.4832  0.1310  0.2654
 1793SOL    HW1 6979   3.565   0.727   5.643  0.4849 -0.7645 -0.1788
 1793SOL    HW2 6980   3.713   0.675   5.689  0.7124  0.0198 -0.0234
 1794SOL     OW 6981   0.012   6.545   6.109 -0.2722 -0.0706  0.2226
 1794SOL    HW1 6982   0.037   6.469   6.049  0.7208  0.4640 -0.0610
 1794SOL    HW2 6983   0.009   6.629   6.056  2.9872  0.8445  1.2714
 1795SOL     OW 6984   0.150   0.203   3.525  0.1533  0.1588  0.3315
 1795SOL    HW1 6985   0.183   0.110   3.508  2.9571  1.3801 -1.7918
 1795SOL    HW2 6986   0.197   0.266   3.463 -2.5418  2.8816  0.8395
 1796SOL     OW 6987   1.861   5.585   3.744  0.0387  0.0721  0.5153
 1796SOL    HW1 6988   1.854   5.642   3.662 -0.3704  1.0744  1.2335
 1796SOL    HW2 6989   1.837   5.639   3.824 -1.1003 -1.3262  1.1462
 1797SOL     OW 6990   2.619   3.280   6.275  0.1916 -0.6291 -0.1811
 1797SOL    HW1 6991   2.686   3.218   6.313 -0.2463 -0.6661  0.5348
 1797SOL    HW2 6992   2.594   3.251   6.182  0.3238 -1.2545 -0.0182
 1798SOL     OW 6993   5.912   5.757   4.059  0.4988  0.0384 -0.0720
 1798SOL    HW1 6994   5.837   5.810   4.098  1.3922  0.6223  0.8952
 1798SOL    HW2 6995   5.886   5.661   4.054  0.5784 -0.2133  2.7091
 1799SOL     OW 6996   1.363   6.710   4.462 -0.0743 -0.2296  0.4156
 1799SOL    HW1 6997   1.341   6.807   4.464 -0.6213 -0.3636  1.5528
 1799SOL    HW2 6998   1.291   6.658   4.508 -0.1440 -1.2524 -0.8029
 1800SOL     OW 6999   0.166   1.479   0.184 -0.6075  0.0988  0.2243
 1800SOL    HW1 7000   0.247   1.510   0.234  0.5091  0.4440 -1.7188
 1800SOL    HW2 7001   0.193   1.415   0.112 -1.9464  0.7720 -0.9383
 1801SOL     OW 7002   5.505   2.389   2.522 -0.1932 -0.3157 -0.7084
 1801SOL    HW1 7003   5.556   2.347   2.597 -3.1342 -1.8735  0.5900
 1801SOL    HW2 7004   5.499   2.324   2.446 -1.5744 -0.8479 -0.1804
 1802SOL     OW 7005   3.919   3.694   4.155 -0.9847  0.1741  0.2538
 1802SOL    HW1 7006   3.854   3.768   4.137  0.4893  1.6149  0.7080
 1802SOL    HW2 7007   4.012   3.728   4.148 -0.2490 -1.7945 -0.0898
 1803SOL     OW 7008   2.707   6.285   6.116 -0.0154  0.0773 -0.0567
 1803SOL    HW1 7009   2.622   6.319   6.076  0.6234  1.1938 -0.4930
 1803SOL    HW2 7010   2.734   6.201   6.069 -2.0834 -1.6851  1.6334
 1804SOL     OW 7011   0.819   2.004   4.986 -0.1008  0.0102  0.3682
 1804SOL    HW1 7012   0.892   2.060   4.947 -1.0405  0.3751 -0.9127
 1804SOL    HW2 7013   0.817   2.017   5.085  1.3016  0.2973  0.3796
 1805SOL     OW 7014   0.696   1.055   5.836  0.2644  0.3060 -0.1706
 1805SOL    HW1 7015   0.785   1.068   5.794 -0.6785  1.6688 -1.8706
 1805SOL    HW2 7016   0.681   0.957   5.852  2.1400  0.0808  0.4198
 1806SOL     OW 7017   5.708   5.500   5.979  0.0606 -0.3691  0.1302
 1806SOL    HW1 7018   5.806   5.481   5.990  0.3198 -0.6034 -2.1166
 1806SOL    HW2 7019   5.655   5.428   6.022  0.9153 -1.0601  0.0499
 1807SOL     OW 7020   4.061   6.004   4.975  0.0837 -0.3145  0.4616
 1807SOL    HW1 7021   4.046   6.017   4.877 -0.2444 -1.2368  0.3772
 1807SOL    HW2 7022   4.112   6.081   5.012 -2.1836  1.4412  0.1285
 1808SOL     OW 7023   4.410   3.097   6.994  0.1695 -0.5517  0.7578
 1808SOL    HW1 7024   4.391   3.038   6.915  0.2033  1.1949 -0.6264
 1808SOL    HW2 7025   4.342   3.080   7.065  0.5726 -2.6896  0.6954
 1809SOL     OW 7026   3.216   6.910   6.392 -0.1723  0.6234  0.4826
 1809SOL    HW1 7027   3.226   6.971   6.314 -0.0265  1.2286  0.9608
 1809SOL    HW2 7028   3.210   6.815   6.361  0.4772  0.8096 -0.2245
 1810SOL     OW 7029   5.914   4.035   1.858  0.0602 -0.2370  0.2145
 1810SOL    HW1 7030   5.958   4.008   1.943 -0.7987  0.1542  0.7951
 1810SOL    HW2 7031   5.970   4.104   1.811 -0.2888  0.8174  1.3151
 1811SOL     OW 7032   1.690   3.459   2.293  0.0844  0.1232  0.4177
 1811SOL    HW1 7033   1.678   3.481   2.390  0.4248  0.9984  0.2693
 1811SOL    HW2 7034   1.617   3.503   2.240 -0.8687 -1.3994  0.3897
 1812SOL     OW 7035   1.389   6.220   3.445  0.0383 -0.0795 -0.3888
 1812SOL    HW1 7036   1.410   6.273   3.362  1.6024  0.0660  0.0703
 1812SOL    HW2 7037   1.291   6.227   3.465  0.0801  2.1103 -0.7012
 1813SOL     OW 7038   2.615   6.046   6.319  0.2411  0.1717 -0.2561
 1813SOL    HW1 7039   2.714   6.038   6.318  0.2485  0.2053  0.0874
 1813SOL    HW2 7040   2.587   6.102   6.397  0.0079  0.9159 -0.8584
 1814SOL     OW 7041   5.786   0.699   5.439 -0.1231 -0.0955  0.6851
 1814SOL    HW1 7042   5.829   0.780   5.398 -1.2300  0.0987 -0.1205
 1814SOL    HW2 7043   5.750   0.639   5.368  0.5123 -1.2204  1.2852
 1815SOL     OW 7044   2.560   6.942   6.291 -0.1771 -0.2691 -0.2285
 1815SOL    HW1 7045   2.597   6.917   6.380 -0.1622 -0.0334 -0.1672
 1815SOL    HW2 7046   2.515   6.863   6.250  0.0155 -0.4420 -0.1131
 1816SOL     OW 7047   2.921   5.268   2.407 -0.1101 -0.1683  0.0893
 1816SOL    HW1 7048   2.972   5.352   2.389  0.3450  0.0441  2.1548
 1816SOL    HW2 7049   2.827   5.290   2.430 -0.2361 -0.3046 -0.2861
 1817SOL     OW 7050   5.543   6.928   5.520 -0.0154 -0.1950  0.1673
 1817SOL    HW1 7051   5.588   7.016   5.508 -1.7833  0.7497  0.1979
 1817SOL    HW2 7052   5.485   6.930   5.601 -2.7310 -0.1515 -1.6259
 1818SOL     OW 7053   0.137   5.402   6.930 -0.2088 -0.2296  0.5307
 1818SOL    HW1 7054   0.187   5.435   7.010  1.0157  1.4444 -0.8673
 1818SOL    HW2 7055   0.039   5.397   6.952  0.1080  0.1001  2.1433
 1819SOL     OW 7056   6.556   1.411   3.285 -0.1780 -0.0291 -0.0336
 1819SOL    HW1 7057   6.638   1.396   3.341 -0.0602 -0.0116 -0.2016
 1819SOL    HW2 7058   6.484   1.350   3.316 -0.2112  0.1906  0.3375
 1820SOL     OW 7059   3.506   1.509   2.882 -0.6840  0.1851  0.2059
 1820SOL    HW1 7060   3.534   1.560   2.800  0.7698 -0.2424  0.4140
 1820SOL    HW2 7061   3.539   1.557   2.963  1.6095 -1.5526  0.3788
 1821SOL     OW 7062   5.320   4.674   2.160 -0.3112  0.0650 -0.3433
 1821SOL    HW1 7063   5.348   4.751   2.218 -2.3056 -0.5060  1.5131
 1821SOL    HW2 7064   5.350   4.588   2.202 -0.4052 -0.3031 -1.0072
 1822SOL     OW 7065   3.389   3.110   6.549 -0.6665  0.6537  0.1224
 1822SOL    HW1 7066   3.458   3.145   6.612 -0.0336 -0.7740  0.2382
 1822SOL    HW2 7067   3.413   3.135   6.455  0.8207 -1.0439  0.0043
 1823SOL     OW 7068   1.337   2.623   2.612 -0.3209  0.9345 -0.3551
 1823SOL    HW1 7069   1.385   2.705   2.643 -0.2609  0.0069  2.2059
 1823SOL    HW2 7070   1.258   2.649   2.557  0.9991  2.5921 -1.5907
 1824SOL     OW 7071   4.397   6.711   6.420 -0.2970 -0.1311  0.1704
 1824SOL    HW1 7072   4.372   6.800   6.382  3.3910  2.1795  2.4962
 1824SOL    HW2 7073   4.329   6.683   6.487 -3.2741 -0.9463 -2.8903
 1825SOL     OW 7074   4.786   6.783   6.798 -0.2374 -0.2968 -0.1319
 1825SOL    HW1 7075   4.747   6.792   6.707 -1.5562 -0.2106  0.4184
 1825SOL    HW2 7076   4.819   6.690   6.811  0.1014 -0.2672 -0.7413
 1826SOL     OW 7077   6.648   1.926   4.052  0.2331  0.5095 -0.5180
 1826SOL    HW1 7078   6.565   1.917   3.998  0.2749 -0.0084 -0.5033
 1826SOL    HW2 7079   6.666   1.840   4.100  0.3636  0.8662  0.0773
 1827SOL     OW 7080   4.858   5.535   6.956 -0.1444 -0.3164  0.3947
 1827SOL    HW1 7081   4.813   5.623   6.941 -1.6931 -0.8847  1.4630
 1827SOL    HW2 7082   4.813   5.486   7.031  0.6905 -2.0281 -0.1508
 1828SOL     OW 7083   4.113   1.208   6.415 -0.0739 -0.2926 -0.4115
 1828SOL    HW1 7084   4.175   1.229   6.490 -0.8746 -1.2112  0.5321
 1828SOL    HW2 7085   4.018   1.209   6.447 -0.4449 -0.5336 -1.4392
 1829SOL     OW 7086   4.866   1.699   6.417  0.7246  0.2395 -0.0219
 1829SOL    HW1 7087   4.799   1.718   6.489 -0.8061  1.4163 -1.6887
 1829SOL    HW2 7088   4.954   1.678   6.459 -0.5299 -0.9395  2.2323
 1830SOL     OW 7089   2.775   0.756   5.601 -0.4964 -0.0500 -0.0925
 1830SOL    HW1 7090   2.772   0.803   5.690  0.5205 -1.4976  0.7378
 1830SOL    HW2 7091   2.810   0.664   5.614 -0.0837 -0.1951 -2.0636
 1831SOL     OW 7092   6.123   1.414   1.292  0.8950 -0.2836  0.1793
 1831SOL    HW1 7093   6.122   1.377   1.386 -0.5750 -0.4332  0.1326
 1831SOL    HW2 7094   6.079   1.503   1.291  0.2298 -0.6091 -0.4861
 1832SOL     OW 7095   3.937   6.212   3.910  1.0186  0.2557  0.2255
 1832SOL    HW1 7096   3.861   6.154   3.878  0.5380  1.7139 -1.3727
 1832SOL    HW2 7097   3.993   6.240   3.833  2.0034  0.8812  1.1434
 1833SOL     OW 7098   2.314   1.101   4.606  0.0502  0.2218  0.1384
 1833SOL    HW1 7099   2.281   1.195   4.598  0.0351  0.1541 -0.6507
 1833SOL    HW2 7100   2.343   1.084   4.701 -1.5136  0.4955  0.6916
 1834SOL     OW 7101   4.821   0.413   6.456  0.2281  0.5571  0.4285
 1834SOL    HW1 7102   4.789   0.320   6.442  0.0140  0.2218  2.7439
 1834SOL    HW2 7103   4.743   0.473   6.472  0.3865  1.0762 -0.7031
 1835SOL     OW 7104   6.735   5.698   2.698 -0.2202  0.0453  0.2758
 1835SOL    HW1 7105   6.639   5.682   2.676  0.1935 -1.4906 -0.5696
 1835SOL    HW2 7106   6.768   5.777   2.646  0.1941 -2.2882 -3.3277
 1836SOL     OW 7107   1.266   5.027   1.689  0.7359 -0.0514 -0.2737
 1836SOL    HW1 7108   1.292   5.015   1.593  0.8728  0.0960 -0.2556
 1836SOL    HW2 7109   1.188   4.968   1.710  0.6630 -0.0332 -0.4931
 1837SOL     OW 7110   3.410   4.541   5.126 -0.3535 -0.4677 -0.1768
 1837SOL    HW1 7111   3.454   4.480   5.061 -0.4633  0.6216 -1.3177
 1837SOL    HW2 7112   3.339   4.491   5.176 -0.7603 -1.1770 -1.4102
 1838SOL     OW 7113   3.380   0.218   0.372  0.2674  0.0534  0.7772
 1838SOL    HW1 7114   3.421   0.138   0.329  1.1694  1.0407 -0.2956
 1838SOL    HW2 7115   3.423   0.301   0.335 -0.9086  1.0476  1.5504
 1839SOL     OW 7116   3.189   2.555   5.879 -0.0019  0.1038  0.7330
 1839SOL    HW1 7117   3.142   2.573   5.965 -0.9130  0.9308  0.0945
 1839SOL    HW2 7118   3.150   2.613   5.807 -0.1369 -1.4577 -0.5195
 1840SOL     OW 7119   4.853   2.748   0.631  0.5578  0.1807 -0.3182
 1840SOL    HW1 7120   4.938   2.800   0.622 -0.0478  0.9271 -2.4223
 1840SOL    HW2 7121   4.782   2.791   0.574 -1.3691 -0.1737  1.6960
 1841SOL     OW 7122   0.333   1.712   2.210 -0.2328 -0.1713  0.1503
 1841SOL    HW1 7123   0.394   1.633   2.213  0.1963 -0.0891 -2.9188
 1841SOL    HW2 7124   0.305   1.729   2.115 -3.2663  1.1757  1.1682
 1842SOL     OW 7125   4.843   5.819   6.886 -0.1514  0.1208  0.2971
 1842SOL    HW1 7126   4.928   5.838   6.935  0.0038  2.0641 -0.6288
 1842SOL    HW2 7127   4.765   5.830   6.948  0.1775 -0.0621  0.7476
 1843SOL     OW 7128   3.967   2.096   0.886 -0.3472 -0.7125 -0.2036
 1843SOL    HW1 7129   4.059   2.124   0.914 -1.2121  2.5072 -0.2144
 1843SOL    HW2 7130   3.925   2.044   0.960  0.6397 -0.1579  0.7861
 1844SOL     OW 7131   1.047   2.377   2.214 -0.9132 -0.2849  0.0763
 1844SOL    HW1 7132   1.073   2.305   2.150  1.3142 -0.4273  1.0483
 1844SOL    HW2 7133   1.033   2.337   2.305 -0.5291  0.3841  0.4361
 1845SOL     OW 7134   6.626   4.444   3.188  0.8357 -0.1586 -0.2191
 1845SOL    HW1 7135   6.607   4.467   3.092 -0.3264  0.0652  0.0492
 1845SOL    HW2 7136   6.649   4.528   3.238  1.2450 -0.2469 -0.2590
 1846SOL     OW 7137   0.997   4.044   6.258  0.4613  0.5135 -0.2767
 1846SOL    HW1 7138   1.042   3.978   6.318 -0.7996  2.1125  2.6052
 1846SOL    HW2 7139   0.986   4.131   6.306 -2.8731  1.1603 -1.9456
 1847SOL     OW 7140   6.244   5.237   2.212  0.6010 -0.1617  0.0141
 1847SOL    HW1 7141   6.322   5.179   2.235  0.0565 -0.2273  1.8489
 1847SOL    HW2 7142   6.223   5.227   2.115  0.3932 -3.2274  0.2711
 1848SOL     OW 7143   0.472   3.011   0.639  0.3433  0.0449 -0.4485
 1848SOL    HW1 7144   0.390   2.960   0.614 -0.2594 -0.0281  1.5046
 1848SOL    HW2 7145   0.453   3.068   0.720  2.0476  0.4682 -0.2979
 1849SOL     OW 7146   2.253   1.137   1.231  0.7256  0.4722 -0.4412
 1849SOL    HW1 7147   2.227   1.220   1.281  0.1273  0.7585 -1.2080
 1849SOL    HW2 7148   2.221   1.143   1.137  0.8273 -0.5614 -0.5574
 1850SOL     OW 7149   0.884   2.959   4.792  0.7087  0.2822  0.1144
 1850SOL    HW1 7150   0.850   2.982   4.883 -0.4367 -1.1079  0.0819
 1850SOL    HW2 7151   0.877   2.860   4.778 -0.7017  0.6000 -2.0447
 1851SOL     OW 7152   5.232   0.229   0.427 -0.2339  0.3209 -0.3866
 1851SOL    HW1 7153   5.322   0.187   0.415 -0.2642 -0.0971  0.7025
 1851SOL    HW2 7154   5.215   0.295   0.354  1.6075  1.5580  0.2334
 1852SOL     OW 7155   0.663   2.250   4.341 -0.6382 -0.0478  0.2355
 1852SOL    HW1 7156   0.567   2.235   4.365 -0.6784  0.1742  0.2162
 1852SOL    HW2 7157   0.681   2.348   4.338 -0.7769 -0.0455 -1.2031
 1853SOL     OW 7158   1.367   5.542   6.294 -0.7016 -0.1822  0.2858
 1853SOL    HW1 7159   1.350   5.607   6.221 -2.7653 -2.1566 -1.1164
 1853SOL    HW2 7160   1.287   5.537   6.354 -0.3860 -1.0583  0.6597
 1854SOL     OW 7161   6.338   3.011   1.888 -0.0400  0.2526  0.0244
 1854SOL    HW1 7162   6.411   3.022   1.821  1.8616 -0.7112  1.8337
 1854SOL    HW2 7163   6.333   3.093   1.945 -0.0772  0.1292  0.1975
 1855SOL     OW 7164   4.310   5.097   2.646 -0.2409  0.1564 -0.5179
 1855SOL    HW1 7165   4.394   5.071   2.692  0.1483  0.7737 -0.8619
 1855SOL    HW2 7166   4.331   5.132   2.554 -0.7801  1.0856 -0.3086
 1856SOL     OW 7167   4.372   4.498   6.661  0.5603  0.4831  0.4053
 1856SOL    HW1 7168   4.304   4.563   6.626  0.5324 -0.0834 -0.6173
 1856SOL    HW2 7169   4.369   4.415   6.606  0.8731 -0.2357  1.4618
 1857SOL     OW 7170   3.701   6.615   3.524 -0.1969 -0.1106 -0.0667
 1857SOL    HW1 7171   3.723   6.533   3.576  2.6025  0.4189 -0.2822
 1857SOL    HW2 7172   3.660   6.589   3.437  2.8136 -1.5234 -1.1883
 1858SOL     OW 7173   1.054   1.925   6.303  0.0859  0.6154  0.3341
 1858SOL    HW1 7174   1.143   1.963   6.325  2.1752 -1.3264 -3.7042
 1858SOL    HW2 7175   0.994   1.998   6.271  1.7514  1.4534 -1.0143
 1859SOL     OW 7176   2.006   2.610   1.696  0.1250 -0.8674  0.2206
 1859SOL    HW1 7177   2.079   2.672   1.669 -1.7191  1.0539 -0.6413
 1859SOL    HW2 7178   1.927   2.623   1.636 -1.3777 -1.9822  1.8401
 1860SOL     OW 7179   6.824   5.549   4.644 -0.9357  0.0755  0.8351
 1860SOL    HW1 7180   6.899   5.607   4.612 -1.2287 -0.1214 -0.2731
 1860SOL    HW2 7181   6.743   5.564   4.587 -1.1989 -0.9887  0.8909
 1861SOL     OW 7182   5.929   1.142   2.118  0.0071 -0.3148 -0.2852
 1861SOL    HW1 7183   6.002   1.154   2.051 -0.2685 -1.6324 -0.8462
 1861SOL    HW2 7184   5.863   1.075   2.085  0.0056 -1.2190  1.3944
 1862SOL     OW 7185   5.265   1.372   0.148 -0.2409 -0.6165 -0.4942
 1862SOL    HW1 7186   5.183   1.358   0.204 -0.0236 -1.9673 -0.4770
 1862SOL    HW2 7187   5.301   1.283   0.119  0.9332 -0.0240 -0.9212
 1863SOL     OW 7188   2.612   6.968   0.180  0.5378 -0.1304  0.4829
 1863SOL    HW1 7189   2.573   7.053   0.215  1.4528 -0.0949  1.4800
 1863SOL    HW2 7190   2.699   6.987   0.135  0.4718 -0.4669  0.2053
 1864SOL     OW 7191   1.445   5.025   6.576  0.8533 -0.0037  0.1711
 1864SOL    HW1 7192   1.397   5.079   6.645  1.9538 -1.3263  2.0682
 1864SOL    HW2 7193   1.455   5.079   6.492 -1.1715  1.3867  0.7540
 1865SOL     OW 7194   0.935   2.958   0.846 -0.1716  0.3818 -0.2715
 1865SOL    HW1 7195   0.847   2.912   0.859 -0.9869  1.6564 -1.0820
 1865SOL    HW2 7196   0.920   3.050   0.812  1.4132  1.4342  1.6781
 1866SOL     OW 7197   2.542   1.056   4.506 -0.0817  0.3379 -0.5110
 1866SOL    HW1 7198   2.450   1.050   4.545 -0.1736  1.3469 -0.5667
 1866SOL    HW2 7199   2.577   1.149   4.515  1.5734 -0.3717  0.9125
 1867SOL     OW 7200   0.188   2.058   5.056  0.5306 -0.3442 -0.0614
 1867SOL    HW1 7201   0.270   2.062   5.113  0.3984  1.2516  0.0615
 1867SOL    HW2 7202   0.111   2.098   5.104  0.1004 -0.1843 -0.8614
 1868SOL     OW 7203   5.440   0.902   6.625 -0.2981 -0.1523 -0.5152
 1868SOL    HW1 7204   5.501   0.968   6.582 -0.2680  0.2966  0.1987
 1868SOL    HW2 7205   5.371   0.872   6.559 -0.1939  0.4448 -0.9007
 1869SOL     OW 7206   4.369   6.548   6.189  0.1164  0.2938  0.2005
 1869SOL    HW1 7207   4.356   6.567   6.287  1.1143  3.0146 -0.1068
 1869SOL    HW2 7208   4.459   6.507   6.175  0.1380  0.2745  0.3844
 1870SOL     OW 7209   3.732   6.501   1.949  0.4266  0.0977 -0.5619
 1870SOL    HW1 7210   3.669   6.424   1.939  0.1714  0.5138 -2.3524
 1870SOL    HW2 7211   3.680   6.586   1.958  0.7271  0.2374 -0.0623
 1871SOL     OW 7212   4.464   5.270   3.227  0.2616 -0.3512 -0.1620
 1871SOL    HW1 7213   4.498   5.363   3.246  1.8659 -1.1022  0.8424
 1871SOL    HW2 7214   4.478   5.249   3.130 -1.0365  0.7890 -0.6325
 1872SOL     OW 7215   4.082   6.696   3.814  0.2704  0.2470 -0.1209
 1872SOL    HW1 7216   4.017   6.754   3.765 -0.5890 -0.7109 -0.1580
 1872SOL    HW2 7217   4.101   6.614   3.760 -1.2347 -1.1793  1.3852
 1873SOL     OW 7218   1.418   0.502   3.338 -0.1775  0.3407 -0.1415
 1873SOL    HW1 7219   1.499   0.444   3.341 -0.1741  0.2299 -1.7129
 1873SOL    HW2 7220   1.336   0.446   3.350 -0.1153  0.1884 -0.4332
 1874SOL     OW 7221   4.773   4.728   1.756 -0.5666 -0.5453  0.4513
 1874SOL    HW1 7222   4.729   4.797   1.699 -0.3062 -0.4460  0.3688
 1874SOL    HW2 7223   4.713   4.704   1.832  0.7774  2.5008  2.6746
 1875SOL     OW 7224   5.288   2.468   2.942 -0.1748 -0.4772 -0.3415
 1875SOL    HW1 7225   5.296   2.444   2.845  0.2214 -2.0627  0.0527
 1875SOL    HW2 7226   5.351   2.412   2.995 -1.8956 -1.1689  1.0592
 1876SOL     OW 7227   1.555   2.254   5.448 -0.3120 -0.3121 -0.2690
 1876SOL    HW1 7228   1.624   2.327   5.443 -0.6015 -0.1049 -1.2816
 1876SOL    HW2 7229   1.602   2.167   5.463  0.1634 -0.1524 -0.7795
 1877SOL     OW 7230   4.886   4.097   3.154  0.0486 -0.4244 -0.2730
 1877SOL    HW1 7231   4.901   4.190   3.122  4.1954 -0.9544 -0.4192
 1877SOL    HW2 7232   4.899   4.092   3.253 -0.5589 -0.8025 -0.2058
 1878SOL     OW 7233   2.706   3.348   2.864  0.0324 -0.0432 -0.9202
 1878SOL    HW1 7234   2.646   3.268   2.862  0.3162 -0.3321  0.7270
 1878SOL    HW2 7235   2.660   3.423   2.912 -0.1643  0.7578 -2.3003
 1879SOL     OW 7236   6.009   5.652   3.273  0.1649 -0.7190 -0.3320
 1879SOL    HW1 7237   5.971   5.710   3.201  2.5747  1.0374 -0.2946
 1879SOL    HW2 7238   6.091   5.606   3.239  1.0167 -0.3029  1.0882
 1880SOL     OW 7239   5.680   3.955   1.203 -0.3526  0.5005 -0.8984
 1880SOL    HW1 7240   5.631   3.890   1.145  1.0399 -0.3679 -1.1342
 1880SOL    HW2 7241   5.622   3.980   1.281 -1.0104 -0.8444 -0.9248
 1881SOL     OW 7242   2.650   3.760   6.139  0.1821 -0.1888  0.1415
 1881SOL    HW1 7243   2.656   3.753   6.239 -2.9516 -1.0771  0.3623
 1881SOL    HW2 7244   2.667   3.670   6.099 -0.9583 -0.3984  0.0921
 1882SOL     OW 7245   4.975   0.193   6.728  0.3727  0.1901  0.3244
 1882SOL    HW1 7246   5.069   0.221   6.705  0.5507 -0.3034  0.4352
 1882SOL    HW2 7247   4.978   0.119   6.795 -0.1181  0.7918  1.0254
 1883SOL     OW 7248   6.322   2.418   4.246  0.4715 -0.4596 -0.0618
 1883SOL    HW1 7249   6.248   2.484   4.257  1.7201  0.8713  0.8315
 1883SOL    HW2 7250   6.312   2.370   4.159 -0.5872  0.7703 -0.6436
 1884SOL     OW 7251   5.949   0.833   5.929 -0.3264 -0.4091 -0.2899
 1884SOL    HW1 7252   5.991   0.784   6.005 -0.4113 -0.1357 -0.0647
 1884SOL    HW2 7253   5.928   0.927   5.957 -0.1330 -0.2326 -0.7257
 1885SOL     OW 7254   5.294   2.512   6.502  0.0514 -0.4387 -0.7652
 1885SOL    HW1 7255   5.299   2.515   6.402  1.5752 -2.0757 -0.7778
 1885SOL    HW2 7256   5.386   2.503   6.540 -0.4991  0.2261  0.8219
 1886SOL     OW 7257   6.030   3.721   4.287 -0.2125 -0.9567  0.0561
 1886SOL    HW1 7258   5.973   3.787   4.336 -1.6214 -1.9972 -0.1317
 1886SOL    HW2 7259   6.011   3.629   4.320  0.2489 -1.4813 -1.0822
 1887SOL     OW 7260   2.589   4.166   5.097  0.3134  0.4304 -0.2214
 1887SOL    HW1 7261   2.614   4.073   5.071 -0.3669 -0.5348  2.2634
 1887SOL    HW2 7262   2.670   4.215   5.129  0.2759 -0.2696  1.0216
 1888SOL     OW 7263   1.215   5.453   2.647  0.0304  0.2275 -0.4252
 1888SOL    HW1 7264   1.303   5.410   2.667 -0.7869 -1.1198  0.4874
 1888SOL    HW2 7265   1.181   5.420   2.559 -1.8784 -3.4217  1.4522
 1889SOL     OW 7266   0.437   3.801   0.770  0.9310  0.3138  0.3032
 1889SOL    HW1 7267   0.460   3.738   0.844  1.2052 -0.0554 -0.0931
 1889SOL    HW2 7268   0.474   3.892   0.791 -0.4112  0.6550  1.4087
 1890SOL     OW 7269   0.237   1.869   3.041 -0.4798  0.5185 -0.3067
 1890SOL    HW1 7270   0.273   1.837   2.953  1.6428  1.4371  0.1598
 1890SOL    HW2 7271   0.255   1.800   3.111  0.2772  0.9229 -0.0968
 1891SOL     OW 7272   1.274   4.490   2.187 -0.7176 -0.2130 -0.1423
 1891SOL    HW1 7273   1.218   4.536   2.118  0.4736  0.5455 -0.6339
 1891SOL    HW2 7274   1.253   4.392   2.187 -2.6643  0.1523  0.3186
 1892SOL     OW 7275   4.687   6.357   6.922 -0.6365  0.8341 -0.8162
 1892SOL    HW1 7276   4.655   6.295   6.851  0.2654  1.3958 -1.7395
 1892SOL    HW2 7277   4.628   6.350   7.002 -1.4337 -0.0970 -1.4717
 1893SOL     OW 7278   2.966   6.678   2.558 -0.8768 -0.8333 -0.0426
 1893SOL    HW1 7279   2.995   6.774   2.556 -0.7863 -0.8620 -0.1036
 1893SOL    HW2 7280   3.029   6.623   2.503 -0.2954 -1.0973  0.8597
 1894SOL     OW 7281   1.831   4.600   6.468 -0.3335  0.2754 -0.0122
 1894SOL    HW1 7282   1.890   4.656   6.410  0.8712 -0.9280  0.0102
 1894SOL    HW2 7283   1.828   4.638   6.560  0.1068  0.5564 -0.1126
 1895SOL     OW 7284   1.219   0.405   0.068  0.3750  0.2841 -0.2104
 1895SOL    HW1 7285   1.281   0.484   0.064 -3.1813  3.3136 -2.1972
 1895SOL    HW2 7286   1.238   0.344  -0.009  1.0164  1.0349 -0.6601
 1896SOL     OW 7287   1.464   5.323   2.631  0.0735 -0.2041  0.0798
 1896SOL    HW1 7288   1.481   5.252   2.562  1.6031  2.0396 -2.0151
 1896SOL    HW2 7289   1.534   5.317   2.703  1.1527  0.0962 -0.9105
 1897SOL     OW 7290   4.922   6.734   1.869 -0.0974  0.0169  0.0222
 1897SOL    HW1 7291   4.978   6.670   1.921  0.0497  0.9916  1.1136
 1897SOL    HW2 7292   4.948   6.730   1.772 -0.1736 -1.6159  0.0561
 1898SOL     OW 7293   0.578   1.214   1.656  0.5679  0.0326  0.0825
 1898SOL    HW1 7294   0.495   1.171   1.622  0.7300 -0.9531  0.8687
 1898SOL    HW2 7295   0.564   1.241   1.752  0.4451  1.8402 -0.4071
 1899SOL     OW 7296   2.488   3.803   0.405 -1.0785 -0.2925 -0.0935
 1899SOL    HW1 7297   2.554   3.738   0.369 -1.1969 -0.5710  0.1872
 1899SOL    HW2 7298   2.534   3.889   0.426 -0.1268 -1.3855  2.8996
 1900SOL     OW 7299   3.630   3.830   2.962 -0.1937 -0.7458  0.0770
 1900SOL    HW1 7300   3.620   3.731   2.951  1.1720 -1.0570  1.3327
 1900SOL    HW2 7301   3.696   3.864   2.894 -0.5888 -0.7100 -0.2909
 1901SOL     OW 7302   4.141   5.306   6.972 -0.6566 -0.3285 -0.3370
 1901SOL    HW1 7303   4.065   5.297   6.907 -0.9147  1.0637 -0.2468
 1901SOL    HW2 7304   4.193   5.389   6.951  0.1593 -0.6591  0.3249
 1902SOL     OW 7305   5.345   0.638   3.193  0.1249 -0.1112 -0.1403
 1902SOL    HW1 7306   5.386   0.654   3.283 -1.9155 -2.2310  1.2901
 1902SOL    HW2 7307   5.246   0.636   3.202 -0.1449 -0.2204 -2.5181
 1903SOL     OW 7308   3.263   4.817   1.855  0.7605  1.2019  0.2282
 1903SOL    HW1 7309   3.361   4.816   1.837  0.6373 -0.7909 -0.4684
 1903SOL    HW2 7310   3.220   4.888   1.799  1.4483  0.2744 -1.5340
 1904SOL     OW 7311   0.735   6.761   3.126  0.4833  0.0197 -0.4705
 1904SOL    HW1 7312   0.811   6.827   3.125 -0.9642  1.7879  0.1452
 1904SOL    HW2 7313   0.762   6.680   3.178  1.7469  0.8963  0.3016
 1905SOL     OW 7314   5.144   4.142   5.898  0.0073 -0.0876 -0.3361
 1905SOL    HW1 7315   5.207   4.218   5.910  1.4043 -1.4584  1.5955
 1905SOL    HW2 7316   5.082   4.137   5.977 -0.7315 -0.3809 -0.9205
 1906SOL     OW 7317   4.328   2.904   5.867  0.6914  0.6545 -0.7011
 1906SOL    HW1 7318   4.303   2.812   5.838  0.8544 -0.0490  1.2294
 1906SOL    HW2 7319   4.247   2.963   5.870  0.1112 -0.1645  0.5086
 1907SOL     OW 7320   0.230   5.894   1.591  0.5565 -0.4204  0.3477
 1907SOL    HW1 7321   0.131   5.889   1.587  0.4668  1.4399 -1.8817
 1907SOL    HW2 7322   0.258   5.944   1.673 -0.4357  0.3087  0.2582
 1908SOL     OW 7323   2.640   1.565   0.264 -0.3823 -0.0334  0.2921
 1908SOL    HW1 7324   2.582   1.635   0.221 -0.6766  0.0963  0.8946
 1908SOL    HW2 7325   2.679   1.602   0.349 -0.3095 -0.5075  0.4659
 1909SOL     OW 7326   2.006   0.497   1.362 -0.4636 -0.2111  0.1594
 1909SOL    HW1 7327   1.934   0.524   1.425 -0.3147 -1.6010  0.9451
 1909SOL    HW2 7328   2.088   0.471   1.413 -0.4887 -1.8094 -0.5613
 1910SOL     OW 7329   4.687   1.756   1.116 -0.1135 -0.2944 -0.1474
 1910SOL    HW1 7330   4.668   1.726   1.210  0.1877 -0.2160 -0.0593
 1910SOL    HW2 7331   4.671   1.681   1.053 -2.3681  0.2193 -0.2765
 1911SOL     OW 7332   2.565   0.090   3.009  0.2567  0.1834 -0.0798
 1911SOL    HW1 7333   2.525   0.023   3.072 -1.2794  0.5613 -0.6034
 1911SOL    HW2 7334   2.611   0.042   2.934 -0.0134 -0.2809  0.0487
 1912SOL     OW 7335   5.000   4.397   6.977 -0.2616  0.1676  0.5111
 1912SOL    HW1 7336   4.977   4.301   6.987  0.8668 -0.5371 -2.6305
 1912SOL    HW2 7337   5.081   4.418   7.033  0.4632 -1.1560  0.0072
 1913SOL     OW 7338   2.295   5.082   2.585  0.6345  0.0259 -0.2532
 1913SOL    HW1 7339   2.217   5.047   2.533  1.1488 -1.6075  0.0199
 1913SOL    HW2 7340   2.290   5.047   2.679  0.9461  1.0677  0.1566
 1914SOL     OW 7341   5.381   3.223   5.258 -0.2829  0.2535 -0.3424
 1914SOL    HW1 7342   5.366   3.159   5.334  0.5114 -0.4295 -0.7466
 1914SOL    HW2 7343   5.361   3.178   5.171 -0.3084  0.7478 -0.5962
 1915SOL     OW 7344   1.236   0.661   4.956 -0.1610 -0.0938  0.1132
 1915SOL    HW1 7345   1.155   0.604   4.963 -1.0218  0.9752 -0.7678
 1915SOL    HW2 7346   1.226   0.726   4.881  1.7962 -0.3493 -0.4356
 1916SOL     OW 7347   3.591   0.174   6.351 -0.1004 -0.4021 -0.5499
 1916SOL    HW1 7348   3.507   0.185   6.299 -0.8606 -1.9855  0.2583
 1916SOL    HW2 7349   3.612   0.258   6.401 -0.8920  0.1888 -1.1981
 1917SOL     OW 7350   0.285   2.794   6.398 -0.4285 -0.1033 -0.6034
 1917SOL    HW1 7351   0.374   2.758   6.427 -1.3993 -0.9789  1.4928
 1917SOL    HW2 7352   0.291   2.893   6.386  0.7411 -0.1011 -0.1350
 1918SOL     OW 7353   5.899   6.576   6.718  0.4073 -0.5386 -0.3104
 1918SOL    HW1 7354   5.894   6.676   6.721 -0.5602 -0.5916  0.5683
 1918SOL    HW2 7355   5.979   6.548   6.665  1.0195  0.6976 -0.0834
 1919SOL     OW 7356   1.255   5.699   0.810 -0.6247 -0.6067  1.1017
 1919SOL    HW1 7357   1.195   5.769   0.848 -1.2727  1.4170 -3.0192
 1919SOL    HW2 7358   1.350   5.723   0.830 -0.9185  0.3596  1.3893
 1920SOL     OW 7359   5.947   0.137   5.003  0.5034 -0.1572  0.4132
 1920SOL    HW1 7360   5.981   0.150   4.910  1.7314  1.3554  1.0307
 1920SOL    HW2 7361   6.021   0.108   5.062 -0.2476 -1.0229  0.9607
 1921SOL     OW 7362   3.617   5.685   6.292  0.1852  0.0809 -0.0659
 1921SOL    HW1 7363   3.532   5.653   6.335  0.1863  0.0129 -0.1151
 1921SOL    HW2 7364   3.686   5.614   6.298 -0.0383 -0.2131 -0.8342
 1922SOL     OW 7365   2.307   1.045   0.539  0.1822 -0.2024  0.5319
 1922SOL    HW1 7366   2.339   1.001   0.623  2.7222  0.8347  0.2168
 1922SOL    HW2 7367   2.348   0.998   0.460  0.6360  0.9429  0.0705
 1923SOL     OW 7368   4.298   1.975   0.749 -0.7558 -0.1956 -0.1427
 1923SOL    HW1 7369   4.394   1.957   0.771 -0.5324 -0.9146 -1.6268
 1923SOL    HW2 7370   4.289   2.070   0.717 -0.2330 -0.5918 -1.5340
 1924SOL     OW 7371   3.530   1.839   1.895  0.4103 -0.5356  0.1547
 1924SOL    HW1 7372   3.530   1.918   1.834  2.7548  0.9730  1.9406
 1924SOL    HW2 7373   3.565   1.759   1.846  0.1802  0.0614 -1.0344
 1925SOL     OW 7374   5.341   4.771   1.220 -0.0961  0.0351 -0.0080
 1925SOL    HW1 7375   5.408   4.840   1.248  1.2012 -1.3941  0.5258
 1925SOL    HW2 7376   5.357   4.745   1.125 -0.6707  0.5386 -0.2513
 1926SOL     OW 7377   5.807   2.918   6.347 -0.4673  0.2883 -0.0498
 1926SOL    HW1 7378   5.708   2.934   6.344 -0.3702  0.9276  0.1081
 1926SOL    HW2 7379   5.848   2.944   6.260 -0.3272  0.7641  0.1584
 1927SOL     OW 7380   6.956   4.717   5.852  0.0409 -0.1171  0.3703
 1927SOL    HW1 7381   7.038   4.701   5.797  0.5583  2.5304  0.2371
 1927SOL    HW2 7382   6.875   4.689   5.801  0.7086 -0.4396 -0.5375
 1928SOL     OW 7383   5.657   0.267   4.433 -0.1573 -0.8703  0.2476
 1928SOL    HW1 7384   5.610   0.353   4.413 -0.7584 -1.1594  0.4177
 1928SOL    HW2 7385   5.658   0.210   4.351 -0.0943 -0.8673  0.2455
 1929SOL     OW 7386   5.978   6.864   4.913 -0.3864  0.2400  0.0272
 1929SOL    HW1 7387   5.992   6.798   4.987  0.1901  0.2180 -0.0973
 1929SOL    HW2 7388   5.895   6.917   4.930  1.2527  2.2934  2.2460
 1930SOL     OW 7389   6.710   3.349   6.817  0.0370 -0.1908 -0.0830
 1930SOL    HW1 7390   6.805   3.375   6.832 -0.4740  2.9496 -1.4579
 1930SOL    HW2 7391   6.697   3.322   6.722 -0.5462 -0.0051 -0.0587
 1931SOL     OW 7392   2.507   2.302   1.574  0.7812  0.5683 -0.1845
 1931SOL    HW1 7393   2.419   2.345   1.558 -0.2680 -1.0936  0.7823
 1931SOL    HW2 7394   2.514   2.219   1.520  1.4869  0.3652  0.2044
 1932SOL     OW 7395   0.836   4.545   0.335 -0.2389 -0.3152 -0.0339
 1932SOL    HW1 7396   0.850   4.501   0.246  1.0052  2.3901 -1.2896
 1932SOL    HW2 7397   0.899   4.506   0.402  1.3320 -0.0202 -1.2779
 1933SOL     OW 7398   5.523   3.708   5.922 -0.2556 -0.0751 -0.2725
 1933SOL    HW1 7399   5.450   3.672   5.980  0.7051 -1.1639  0.3060
 1933SOL    HW2 7400   5.563   3.788   5.965 -1.1057  0.5351 -0.5977
 1934SOL     OW 7401   3.352   4.169   7.003  0.1291 -0.0317  0.5837
 1934SOL    HW1 7402   3.450   4.159   6.990  0.3142  1.3189  0.7812
 1934SOL    HW2 7403   3.329   4.266   7.011 -1.2664 -0.3043  0.1905
 1935SOL     OW 7404   6.970   3.100   1.580 -0.0715  0.1858 -0.2139
 1935SOL    HW1 7405   7.030   3.136   1.652 -2.5586  0.8797  1.6363
 1935SOL    HW2 7406   6.876   3.093   1.615 -1.1356 -0.7865 -3.0051
 1936SOL     OW 7407   2.642   1.204   5.687 -0.6369 -0.8802 -0.0551
 1936SOL    HW1 7408   2.613   1.144   5.613 -1.1606 -1.2638  0.4574
 1936SOL    HW2 7409   2.700   1.153   5.750 -1.0721 -0.8473  0.3746
 1937SOL     OW 7410   5.967   0.711   4.845 -0.0693 -0.1609  0.6323
 1937SOL    HW1 7411   5.916   0.741   4.926 -0.2619 -2.3610  1.4095
 1937SOL    HW2 7412   6.053   0.669   4.874 -0.3856 -1.4695 -0.2422
 1938SOL     OW 7413   0.517   5.090   1.633  0.1091 -0.1699  0.5027
 1938SOL    HW1 7414   0.527   5.139   1.719  0.4108  2.3448 -0.8807
 1938SOL    HW2 7415   0.607   5.082   1.589 -0.1995 -0.4287 -0.0912
 1939SOL     OW 7416   4.228   5.316   4.898 -0.1812 -0.3308  0.0146
 1939SOL    HW1 7417   4.172   5.234   4.911 -0.0567 -0.4601 -0.2523
 1939SOL    HW2 7418   4.171   5.393   4.873 -0.3981 -0.1415  1.0528
 1940SOL     OW 7419   0.829   4.099   0.376  0.1063  0.2156 -0.2426
 1940SOL    HW1 7420   0.816   4.145   0.464  0.5864  0.7331 -0.4400
 1940SOL    HW2 7421   0.747   4.111   0.319  0.0979  0.5281 -0.1617
 1941SOL     OW 7422   6.230   4.289   5.717 -0.3655 -0.1522  0.3537
 1941SOL    HW1 7423   6.306   4.224   5.728  0.2748  0.4507 -0.4592
 1941SOL    HW2 7424   6.168   4.280   5.795  0.7993 -0.3024  1.2987
 1942SOL     OW 7425   6.873   5.875   6.079  0.2217 -0.0418 -0.2087
 1942SOL    HW1 7426   6.841   5.970   6.075 -2.1296 -0.7228  0.8762
 1942SOL    HW2 7427   6.867   5.834   5.988 -0.7041  0.2834 -0.3068
 1943SOL     OW 7428   4.877   0.570   5.317  0.0990  0.0110  0.3340
 1943SOL    HW1 7429   4.914   0.565   5.410  0.5445 -0.7644  0.1309
 1943SOL    HW2 7430   4.833   0.483   5.294 -0.7258  0.4846  0.1059
 1944SOL     OW 7431   2.946   4.829   6.631 -0.2863 -0.0921 -0.2229
 1944SOL    HW1 7432   3.010   4.867   6.698 -2.2215  0.5755  1.3601
 1944SOL    HW2 7433   2.980   4.846   6.538  1.8576  0.0732  0.5420
 1945SOL     OW 7434   3.861   2.014   6.520  0.0256 -0.3010  0.0457
 1945SOL    HW1 7435   3.885   2.077   6.593  1.6654  2.3507 -2.5658
 1945SOL    HW2 7436   3.795   2.058   6.458 -1.2440 -2.4083 -0.2018
 1946SOL     OW 7437   2.190   0.466   5.640  0.2132  0.0671 -0.3741
 1946SOL    HW1 7438   2.259   0.415   5.589 -0.4092 -2.1343  0.8601
 1946SOL    HW2 7439   2.112   0.407   5.659  0.4237  0.6869  3.1187
 1947SOL     OW 7440   5.686   1.769   2.854  0.3003  0.0480  0.1002
 1947SOL    HW1 7441   5.612   1.715   2.896 -0.3341 -0.0657 -1.1295
 1947SOL    HW2 7442   5.753   1.707   2.814  1.2286  0.1463  1.4376
 1948SOL     OW 7443   5.598   2.052   3.196  0.1120  0.5517  0.0503
 1948SOL    HW1 7444   5.595   2.064   3.097 -2.1825  0.8393  0.1097
 1948SOL    HW2 7445   5.592   1.955   3.218 -1.2134  0.5848 -0.0896
 1949SOL     OW 7446   2.345   5.236   0.071  0.3486 -0.2541 -0.2772
 1949SOL    HW1 7447   2.300   5.165   0.125 -2.1974 -0.0177 -1.9533
 1949SOL    HW2 7448   2.381   5.307   0.132  0.4158 -1.5498  1.2403
 1950SOL     OW 7449   2.807   4.847   1.759 -0.0779  0.2892 -0.1601
 1950SOL    HW1 7450   2.726   4.820   1.811  0.8276  0.0848  1.2303
 1950SOL    HW2 7451   2.888   4.836   1.817  1.0874 -0.6391 -1.8662
 1951SOL     OW 7452   0.568   1.073   0.795  0.0556  0.4294 -0.5011
 1951SOL    HW1 7453   0.548   1.130   0.716  0.5798  0.6053 -0.5054
 1951SOL    HW2 7454   0.656   1.098   0.834  0.0151  0.0301 -0.1399
 1952SOL     OW 7455   6.313   5.408   1.946  0.1349  0.3378  0.0296
 1952SOL    HW1 7456   6.380   5.334   1.960 -0.3801 -0.1861 -0.1965
 1952SOL    HW2 7457   6.331   5.483   2.009 -0.5699 -0.8506  1.7096
 1953SOL     OW 7458   2.999   7.013   3.931  0.0613  0.1756  0.1015
 1953SOL    HW1 7459   2.918   6.958   3.913  0.6758  0.1154 -3.0645
 1953SOL    HW2 7460   3.077   6.975   3.881  1.0375  2.6255 -0.3942
 1954SOL     OW 7461   0.077   3.861   3.273  0.0120  0.1985 -0.4424
 1954SOL    HW1 7462   0.045   3.866   3.179  3.7400  0.2166 -1.8811
 1954SOL    HW2 7463   0.034   3.783   3.319  0.3619 -1.7184 -3.1539
 1955SOL     OW 7464   6.780   4.132   3.565  0.1352 -0.0445 -1.0020
 1955SOL    HW1 7465   6.789   4.053   3.626 -2.1983  0.7214  0.4832
 1955SOL    HW2 7466   6.703   4.117   3.503  0.9315  0.2549 -2.0886
 1956SOL     OW 7467   1.053   3.159   3.791  0.5651 -0.0043  0.0684
 1956SOL    HW1 7468   1.149   3.148   3.766  0.8830  1.1161  0.6764
 1956SOL    HW2 7469   1.044   3.152   3.890 -0.0187 -0.3477 -0.0093
 1957SOL     OW 7470   4.541   0.614   6.559  0.3657  0.1999 -0.4686
 1957SOL    HW1 7471   4.461   0.569   6.518  0.3424 -0.6438  0.4385
 1957SOL    HW2 7472   4.563   0.696   6.508 -3.0410  2.2663  0.9957
 1958SOL     OW 7473   6.452   6.901   6.379  0.2787  0.0671 -0.1138
 1958SOL    HW1 7474   6.516   6.915   6.455  0.6098 -0.0759 -0.3647
 1958SOL    HW2 7475   6.360   6.926   6.409  0.4738  0.4299  0.1988
 1959SOL     OW 7476   2.334   4.679   5.904  0.4278  0.1310 -0.5393
 1959SOL    HW1 7477   2.269   4.755   5.911 -0.1163 -0.2109 -1.6407
 1959SOL    HW2 7478   2.295   4.597   5.946  1.0283  0.4445  0.6788
 1960SOL     OW 7479   1.627   0.752   3.086 -0.1776 -0.2838 -0.4389
 1960SOL    HW1 7480   1.589   0.804   3.010  0.5159 -0.3203 -0.8197
 1960SOL    HW2 7481   1.726   0.744   3.075 -0.0609 -0.2430  0.4990
 1961SOL     OW 7482   5.814   5.857   6.059  0.3674 -0.4151 -0.6795
 1961SOL    HW1 7483   5.719   5.826   6.050  0.2355  0.3207 -2.1146
 1961SOL    HW2 7484   5.868   5.787   6.106 -0.6861 -1.2294 -0.6487
 1962SOL     OW 7485   6.972   3.457   6.832  0.1072 -0.1394 -0.4310
 1962SOL    HW1 7486   6.968   3.455   6.732 -1.9484 -1.7632 -0.3825
 1962SOL    HW2 7487   7.060   3.420   6.862 -0.0172 -1.5262 -1.6486
 1963SOL     OW 7488   0.156   5.803   3.746  0.7973  0.2980 -0.3873
 1963SOL    HW1 7489   0.059   5.802   3.769  0.4255 -2.1918 -1.7551
 1963SOL    HW2 7490   0.210   5.810   3.831 -0.5621 -1.6575  0.7211
 1964SOL     OW 7491   1.206   4.683   1.383  0.7561  0.3824 -0.6747
 1964SOL    HW1 7492   1.226   4.661   1.478  0.3937  1.1746 -0.4106
 1964SOL    HW2 7493   1.134   4.623   1.349  2.8701 -1.9445 -1.3865
 1965SOL     OW 7494   3.565   6.903   1.700 -0.2068 -0.0506 -0.3499
 1965SOL    HW1 7495   3.584   6.818   1.650  1.3521 -0.3677  0.7041
 1965SOL    HW2 7496   3.470   6.931   1.684  0.0475 -0.4414 -2.9900
 1966SOL     OW 7497   5.727   2.066   4.678 -0.1405  0.1532  0.5321
 1966SOL    HW1 7498   5.693   1.987   4.729 -0.2192  0.0495  0.3203
 1966SOL    HW2 7499   5.826   2.058   4.668 -0.2147 -0.1883  0.0542
 1967SOL     OW 7500   4.120   0.685   5.606  0.0436 -0.4292 -0.4591
 1967SOL    HW1 7501   4.115   0.599   5.556 -0.1779 -0.4532 -0.3946
 1967SOL    HW2 7502   4.209   0.691   5.653  0.2830 -0.3697 -0.9201
 1968SOL     OW 7503   5.251   5.033   0.331 -0.4983  0.5788  0.4238
 1968SOL    HW1 7504   5.217   4.939   0.341 -0.3295  0.6732  2.1440
 1968SOL    HW2 7505   5.222   5.069   0.242  2.9603 -2.4927 -2.2291
 1969SOL     OW 7506   4.231   4.659   1.595  0.2352 -0.9667 -0.0823
 1969SOL    HW1 7507   4.282   4.672   1.510  0.5866 -0.3640  0.2098
 1969SOL    HW2 7508   4.249   4.568   1.631  1.1249 -0.7637  0.0119
 1970SOL     OW 7509   3.830   4.757   2.170  0.3785  0.1223  0.4207
 1970SOL    HW1 7510   3.768   4.797   2.102  0.1283  2.1912  1.7465
 1970SOL    HW2 7511   3.924   4.785   2.150  0.6109 -1.1433 -0.3177
 1971SOL     OW 7512   1.826   2.804   4.925  0.3098  0.2590  0.0096
 1971SOL    HW1 7513   1.862   2.876   4.984 -1.5767 -0.7026  2.5281
 1971SOL    HW2 7514   1.887   2.725   4.926 -0.1941 -0.1450  1.6281
 1972SOL     OW 7515   3.360   3.228   5.739  0.1553 -0.0439  0.2388
 1972SOL    HW1 7516   3.413   3.299   5.692  2.5057 -3.0679 -2.1619
 1972SOL    HW2 7517   3.266   3.227   5.704  1.0337 -0.2359 -2.3516
 1973SOL     OW 7518   3.795   5.629   5.700  0.3768 -0.3607  0.4509
 1973SOL    HW1 7519   3.821   5.675   5.615 -2.9010 -1.3482 -1.2279
 1973SOL    HW2 7520   3.765   5.697   5.767  2.2766  0.3646  0.6361
 1974SOL     OW 7521   4.857   4.066   3.881  0.3044  0.3829 -0.0514
 1974SOL    HW1 7522   4.935   4.102   3.932 -0.5784 -0.9379  2.3340
 1974SOL    HW2 7523   4.781   4.132   3.886 -0.3305 -0.4305  1.8327
 1975SOL     OW 7524   0.325   3.031   4.503  0.3612 -0.4160 -0.1183
 1975SOL    HW1 7525   0.294   3.016   4.409 -0.0316  1.0303 -0.2296
 1975SOL    HW2 7526   0.269   2.977   4.565  0.3595 -1.0668 -0.6702
 1976SOL     OW 7527   2.334   0.907   6.297  0.5963 -1.1282  0.0413
 1976SOL    HW1 7528   2.300   0.987   6.346  0.6656 -0.9043 -0.2780
 1976SOL    HW2 7529   2.296   0.905   6.205  0.6414 -1.4305  0.0283
 1977SOL     OW 7530   6.877   2.163   6.290 -0.0474 -0.4912 -0.0564
 1977SOL    HW1 7531   6.844   2.075   6.322  2.1934 -1.2914  0.2550
 1977SOL    HW2 7532   6.848   2.178   6.195 -1.7205 -0.8358  0.3853
 1978SOL     OW 7533   1.163   0.917   0.613 -0.0678 -0.2877 -0.0997
 1978SOL    HW1 7534   1.114   0.836   0.644 -0.1011 -0.2603 -0.0790
 1978SOL    HW2 7535   1.126   0.946   0.525  1.0184 -1.2236 -0.8872
 1979SOL     OW 7536   2.068   5.396   1.480  0.2295 -0.2149  0.1936
 1979SOL    HW1 7537   2.003   5.364   1.549 -0.9467  1.4504 -0.0693
 1979SOL    HW2 7538   2.031   5.479   1.437  2.8603  1.2501  0.5725
 1980SOL     OW 7539   0.625   1.034   1.283  0.3737  0.0958  0.3703
 1980SOL    HW1 7540   0.600   1.117   1.333  2.5906  0.3277  1.2075
 1980SOL    HW2 7541   0.717   1.044   1.246 -1.1055 -0.0493 -3.9573
 1981SOL     OW 7542   5.290   3.934   4.634  0.6410 -0.2991 -0.0430
 1981SOL    HW1 7543   5.319   3.842   4.608  1.6686 -0.3860  1.2640
 1981SOL    HW2 7544   5.354   4.002   4.597  1.1841 -0.3031  0.8582
 1982SOL     OW 7545   5.361   4.034   3.282 -0.5609 -0.2843  0.0148
 1982SOL    HW1 7546   5.298   3.968   3.241 -0.9352 -0.4668  0.8623
 1982SOL    HW2 7547   5.309   4.113   3.316 -0.2842 -0.2533  0.3630
 1983SOL     OW 7548   5.846   3.466   0.217  0.0488 -0.0343 -0.1467
 1983SOL    HW1 7549   5.914   3.525   0.261 -0.7688  0.2795  0.7159
 1983SOL    HW2 7550   5.891   3.410   0.148  1.2140  0.1034  0.4709
 1984SOL     OW 7551   4.883   1.148   6.769 -0.4175 -0.2926  0.3046
 1984SOL    HW1 7552   4.791   1.140   6.731  0.2710 -1.3535 -1.2629
 1984SOL    HW2 7553   4.902   1.068   6.826 -0.5338  0.0217  0.7848
 1985SOL     OW 7554   6.394   0.774   2.874  0.1102  0.2125  0.2626
 1985SOL    HW1 7555   6.457   0.744   2.946  1.3800  1.0688 -0.4581
 1985SOL    HW2 7556   6.444   0.826   2.805 -0.9911 -0.9600 -1.4941
 1986SOL     OW 7557   0.229   2.925   3.041 -0.0862 -1.2933  0.3249
 1986SOL    HW1 7558   0.244   2.872   3.124  1.2806  0.8175  1.5218
 1986SOL    HW2 7559   0.143   2.976   3.048  1.9725  2.2796  2.5598
 1987SOL     OW 7560   1.159   0.918   3.954  0.1717 -0.5164 -0.0325
 1987SOL    HW1 7561   1.143   0.905   3.856 -0.0501  0.1269 -0.0915
 1987SOL    HW2 7562   1.215   0.844   3.990  0.2772 -0.7394 -0.6563
 1988SOL     OW 7563   0.101   0.887   3.889 -0.7388  0.3953 -0.2435
 1988SOL    HW1 7564   0.107   0.987   3.896 -0.4269  0.3188  0.7525
 1988SOL    HW2 7565   0.084   0.848   3.979  0.3419 -0.5360 -0.4205
 1989SOL     OW 7566   4.594   1.459   2.494  0.3727  0.8139  0.2593
 1989SOL    HW1 7567   4.620   1.555   2.504  1.8217  0.3666  1.1531
 1989SOL    HW2 7568   4.676   1.403   2.486 -0.4806 -0.1741 -2.5637
 1990SOL     OW 7569   0.113   5.372   2.715  0.6689  0.3869  0.1560
 1990SOL    HW1 7570   0.084   5.457   2.672 -1.6091 -1.6527 -2.7012
 1990SOL    HW2 7571   0.043   5.341   2.779 -0.6710 -1.3890 -2.0432
 1991SOL     OW 7572   3.907   4.858   3.113  0.1762 -0.3431 -0.0945
 1991SOL    HW1 7573   3.970   4.831   3.187  0.2462 -0.4064 -0.1777
 1991SOL    HW2 7574   3.861   4.943   3.138  0.1466 -0.4024  0.0551
 1992SOL     OW 7575   3.334   1.779   3.844  0.2025  0.5732  0.2895
 1992SOL    HW1 7576   3.355   1.691   3.802  1.5819  0.6560  0.7488
 1992SOL    HW2 7577   3.357   1.775   3.942 -1.2779  0.9369  0.6782
 1993SOL     OW 7578   2.354   6.828   0.128 -0.0583  0.0863 -0.3302
 1993SOL    HW1 7579   2.448   6.860   0.121  0.1338 -0.1429  0.9846
 1993SOL    HW2 7580   2.346   6.763   0.203 -0.9283 -1.2073 -1.4941
 1994SOL     OW 7581   3.075   4.618   0.430 -0.7894  0.7459 -0.3981
 1994SOL    HW1 7582   3.129   4.541   0.398 -2.2369  0.0304 -1.1883
 1994SOL    HW2 7583   3.072   4.689   0.360 -1.1533  0.6368 -0.4947
 1995SOL     OW 7584   2.143   0.436   2.659  0.1311 -0.5024 -0.0359
 1995SOL    HW1 7585   2.189   0.347   2.663  1.8977  0.2405 -1.8722
 1995SOL    HW2 7586   2.191   0.500   2.719  2.2294  0.5013 -2.5863
 1996SOL     OW 7587   6.912   0.468   6.005  1.0187  0.1679  0.6573
 1996SOL    HW1 7588   6.976   0.392   5.998  1.7022  0.6089  1.9137
 1996SOL    HW2 7589   6.951   0.540   6.062 -1.0944 -0.0801  2.5563
 1997SOL     OW 7590   1.255   6.877   0.627  0.5547 -0.0876  0.1093
 1997SOL    HW1 7591   1.158   6.852   0.623  0.5233  0.1717 -0.9668
 1997SOL    HW2 7592   1.298   6.829   0.704 -0.3743 -0.3642  0.4743
 1998SOL     OW 7593   1.749   2.016   5.950 -0.3434 -0.0228  0.0407
 1998SOL    HW1 7594   1.661   1.969   5.937 -0.2926  0.2626 -1.5309
 1998SOL    HW2 7595   1.823   1.950   5.941 -0.3739 -0.3054  1.5865
 1999SOL     OW 7596   6.266   5.015   4.540 -0.1021 -0.2040 -0.0970
 1999SOL    HW1 7597   6.311   4.926   4.533 -1.5715 -0.8651 -1.6568
 1999SOL    HW2 7598   6.188   5.007   4.602 -1.3514 -0.5142 -1.6750
 2000SOL     OW 7599   2.144   6.966   1.339 -0.0446 -0.2883  0.2392
 2000SOL    HW1 7600   2.158   7.045   1.279 -0.0806 -0.6067 -0.1992
 2000SOL    HW2 7601   2.143   6.995   1.434 -0.8114  0.3492  0.0438
 2001SOL     OW 7602   3.743   4.115   1.475 -0.5912  0.0239  0.8152
 2001SOL    HW1 7603   3.822   4.176   1.466 -1.5658  1.3238  0.6998
 2001SOL    HW2 7604   3.678   4.155   1.540 -1.3493 -0.7979  0.5764
 2002SOL     OW 7605   1.735   2.405   3.453  0.6050 -0.5851 -0.8135
 2002SOL    HW1 7606   1.739   2.309   3.477 -0.7416 -0.2118  1.1058
 2002SOL    HW2 7607   1.677   2.417   3.373 -2.2207 -1.1114  1.0257
 2003SOL     OW 7608   6.365   5.618   3.825 -0.1250  0.5505  0.2642
 2003SOL    HW1 7609   6.351   5.649   3.731  0.6975  0.3549  0.0666
 2003SOL    HW2 7610   6.306   5.670   3.886 -1.7920 -0.3526 -0.5157
 2004SOL     OW 7611   4.419   2.461   4.932 -0.3195 -0.1956 -0.4239
 2004SOL    HW1 7612   4.371   2.377   4.957  0.9214 -0.8247 -0.0781
 2004SOL    HW2 7613   4.358   2.540   4.944 -2.5533 -1.2376 -3.6068
 2005SOL     OW 7614   2.941   5.955   3.654 -0.3698  0.1018 -0.5954
 2005SOL    HW1 7615   2.953   5.865   3.613  0.2828 -0.1232  0.0809
 2005SOL    HW2 7616   2.971   5.954   3.749 -1.5543  0.7068 -0.1847
 2006SOL     OW 7617   1.178   3.790   4.870 -0.7663 -0.7298 -0.0651
 2006SOL    HW1 7618   1.162   3.695   4.844 -1.8305 -0.5999  0.0860
 2006SOL    HW2 7619   1.159   3.803   4.967 -0.3351 -0.4220 -0.0143
 2007SOL     OW 7620   1.341   2.305   3.991 -0.1614 -0.5653 -0.0395
 2007SOL    HW1 7621   1.383   2.277   4.078  0.2600 -1.2781 -0.4679
 2007SOL    HW2 7622   1.412   2.337   3.929 -0.2089 -1.9230 -0.8253
 2008SOL     OW 7623   3.111   2.092   0.422 -0.3116 -0.1660  0.7265
 2008SOL    HW1 7624   3.060   2.118   0.504 -0.1778  2.2403  0.1154
 2008SOL    HW2 7625   3.049   2.089   0.344  0.2934  2.1924  0.0897
 2009SOL     OW 7626   1.716   1.706   1.267 -0.0157 -0.3873 -0.2551
 2009SOL    HW1 7627   1.647   1.692   1.338 -0.7815 -1.3020 -1.1518
 2009SOL    HW2 7628   1.720   1.803   1.242 -0.1513 -0.1572  0.6124
 2010SOL     OW 7629   1.992   4.442   0.075 -0.2038 -0.1068  0.1627
 2010SOL    HW1 7630   1.905   4.407   0.108 -0.2965 -0.2267 -0.2050
 2010SOL    HW2 7631   2.032   4.503   0.143 -1.1199  0.8551 -0.1324
 2011SOL     OW 7632   0.513   3.416   5.707 -0.0731  0.3166 -0.6596
 2011SOL    HW1 7633   0.442   3.486   5.704 -0.3816  0.0013 -0.7948
 2011SOL    HW2 7634   0.513   3.372   5.796  0.1883  0.5591 -0.5410
 2012SOL     OW 7635   4.789   3.192   6.929  0.0260  1.1875  0.1055
 2012SOL    HW1 7636   4.870   3.193   6.987 -0.7472  3.7685  1.2957
 2012SOL    HW2 7637   4.760   3.286   6.910 -0.9860  0.4173 -2.8066
 2013SOL     OW 7638   1.054   2.292   3.967  0.3802 -0.0481 -0.1959
 2013SOL    HW1 7639   1.045   2.217   3.902 -1.3328 -1.6016  1.7153
 2013SOL    HW2 7640   1.145   2.291   4.008  0.0226 -1.8714  0.6363
 2014SOL     OW 7641   6.778   1.983   2.052  0.0031 -0.5153  0.3850
 2014SOL    HW1 7642   6.769   1.999   1.953 -0.9541 -1.2950  0.3298
 2014SOL    HW2 7643   6.712   2.039   2.101 -0.7087 -1.3918  0.4527
 2015SOL     OW 7644   3.131   0.355   0.766  0.0375  0.3893 -0.5577
 2015SOL    HW1 7645   3.089   0.332   0.677  0.0108  1.2406 -0.7709
 2015SOL    HW2 7646   3.108   0.449   0.790 -0.4554 -0.0208  0.6482
 2016SOL     OW 7647   5.384   2.433   3.640  0.3220  0.3401 -0.3139
 2016SOL    HW1 7648   5.481   2.406   3.634  0.1928 -0.2858  0.2411
 2016SOL    HW2 7649   5.327   2.361   3.601  0.0579  0.5270 -0.2733
 2017SOL     OW 7650   0.046   4.606   0.645  0.5290 -0.3933  0.0198
 2017SOL    HW1 7651   0.053   4.546   0.566 -0.1224  3.1941 -3.0138
 2017SOL    HW2 7652   0.126   4.666   0.649 -0.2737  0.6705  0.9707
 2018SOL     OW 7653   0.970   5.383   4.961  0.1448 -0.0487 -0.6119
 2018SOL    HW1 7654   0.936   5.381   5.055 -1.5589  0.5020 -1.1885
 2018SOL    HW2 7655   0.951   5.295   4.917 -1.7487  0.6450 -1.2999
 2019SOL     OW 7656   4.686   0.891   1.785 -0.2063 -0.3832 -0.1322
 2019SOL    HW1 7657   4.717   0.968   1.840 -3.2582  0.6993  0.2788
 2019SOL    HW2 7658   4.748   0.877   1.708  1.3848  1.3279  0.7615
 2020SOL     OW 7659   1.111   0.335   1.777  0.4632 -0.6981 -0.1375
 2020SOL    HW1 7660   1.079   0.249   1.814 -1.3520  0.3382  0.8519
 2020SOL    HW2 7661   1.066   0.352   1.689 -1.6642  0.6012  1.0979
 2021SOL     OW 7662   2.554   2.281   4.662  0.5004  0.2348 -0.3636
 2021SOL    HW1 7663   2.499   2.300   4.744  0.1371 -0.5429 -0.4194
 2021SOL    HW2 7664   2.533   2.349   4.592  0.0367  0.2872 -0.1789
 2022SOL     OW 7665   4.680   2.411   2.477  0.3796 -0.3509 -0.4142
 2022SOL    HW1 7666   4.619   2.365   2.542  1.1922 -0.8311  0.0201
 2022SOL    HW2 7667   4.627   2.477   2.423 -0.2565  0.3165  0.9724
 2023SOL     OW 7668   6.237   3.016   0.267  0.0460 -0.1412  0.0286
 2023SOL    HW1 7669   6.220   2.924   0.233  0.7418 -0.3422  0.2149
 2023SOL    HW2 7670   6.209   3.021   0.363 -0.7609  0.0814 -0.2062
 2024SOL     OW 7671   5.680   1.887   2.438  0.1865 -0.2626  0.0263
 2024SOL    HW1 7672   5.685   1.815   2.508 -2.3881 -0.2890  0.2841
 2024SOL    HW2 7673   5.725   1.855   2.355  2.6698 -0.5189  1.3860
 2025SOL     OW 7674   5.578   0.628   2.724  0.3070  0.1433 -0.2201
 2025SOL    HW1 7675   5.545   0.541   2.758  0.3861  0.2650  0.1714
 2025SOL    HW2 7676   5.547   0.702   2.784  0.3575  0.3712 -0.4688
 2026SOL     OW 7677   2.414   2.340   6.955 -0.3365 -0.2812 -0.2064
 2026SOL    HW1 7678   2.327   2.306   6.920 -1.1785  0.5175  1.0225
 2026SOL    HW2 7679   2.402   2.433   6.989  0.4970 -0.8265  1.7558
 2027SOL     OW 7680   2.241   1.891   3.674 -0.3904  0.1996 -0.2076
 2027SOL    HW1 7681   2.298   1.811   3.653 -0.7425  0.2916 -1.6304
 2027SOL    HW2 7682   2.298   1.962   3.716 -0.0048 -0.6585  0.7528
 2028SOL     OW 7683   3.292   2.901   0.234 -0.1053 -0.1309 -0.0147
 2028SOL    HW1 7684   3.231   2.822   0.226 -0.7881  0.1931  1.5520
 2028SOL    HW2 7685   3.242   2.977   0.276  0.7667  0.8844 -0.7620
 2029SOL     OW 7686   5.285   0.800   5.756  0.3453  0.0998 -0.1793
 2029SOL    HW1 7687   5.266   0.760   5.666  1.6930  0.1714 -0.5161
 2029SOL    HW2 7688   5.215   0.868   5.778 -0.0133  0.0668 -1.1673
 2030SOL     OW 7689   6.936   5.036   5.043  0.7127  0.2652 -0.4351
 2030SOL    HW1 7690   6.927   4.941   5.075  0.0343  0.2426 -0.6882
 2030SOL    HW2 7691   7.004   5.040   4.970 -0.2475 -0.2758 -1.3919
 2031SOL     OW 7692   6.885   0.538   2.986  0.6100 -0.2537  0.4736
 2031SOL    HW1 7693   6.922   0.537   3.079  1.5828  0.1241  0.0976
 2031SOL    HW2 7694   6.959   0.534   2.920 -0.0767 -0.5648 -0.3010
 2032SOL     OW 7695   1.326   3.262   4.415 -0.0311  0.2371 -0.0503
 2032SOL    HW1 7696   1.302   3.176   4.460  2.2070  0.2522  1.3186
 2032SOL    HW2 7697   1.351   3.330   4.483 -1.4338  1.9272 -1.1348
 2033SOL     OW 7698   6.858   2.883   0.207  0.1271  0.1542  0.1144
 2033SOL    HW1 7699   6.803   2.814   0.254 -1.0902  0.9216 -0.1563
 2033SOL    HW2 7700   6.868   2.963   0.265  0.3479  0.3126 -0.1371
 2034SOL     OW 7701   3.346   5.097   3.121 -0.2675  0.5728  0.0970
 2034SOL    HW1 7702   3.411   5.133   3.053  0.1502 -1.9566 -0.9558
 2034SOL    HW2 7703   3.254   5.128   3.098 -0.3877 -1.4623 -2.7062
 2035SOL     OW 7704   0.808   3.151   3.986  0.3995 -0.3921  0.2109
 2035SOL    HW1 7705   0.733   3.172   3.923  0.4497  1.0585  0.6121
 2035SOL    HW2 7706   0.792   3.196   4.074  1.6503 -0.1944  0.3581
 2036SOL     OW 7707   4.862   4.730   5.012 -0.2143 -0.0989  0.2622
 2036SOL    HW1 7708   4.781   4.674   4.994  0.1792  0.0960 -2.4810
 2036SOL    HW2 7709   4.936   4.672   5.046 -0.9516 -0.5721  1.0972
 2037SOL     OW 7710   1.099   0.677   1.158 -0.4192  0.0136 -0.1688
 2037SOL    HW1 7711   1.053   0.698   1.072  0.0343  0.0836 -0.3972
 2037SOL    HW2 7712   1.114   0.579   1.165  0.8577  0.1265 -0.8646
 2038SOL     OW 7713   2.434   6.073   0.182  0.4037  0.0635  0.3136
 2038SOL    HW1 7714   2.408   6.128   0.261  2.6151  1.2183  0.3055
 2038SOL    HW2 7715   2.435   6.131   0.100  0.9084 -0.4410 -0.0428
 2039SOL     OW 7716   1.013   3.297   5.514 -0.8914  0.0420  0.0138
 2039SOL    HW1 7717   1.107   3.317   5.541 -0.6559 -0.5846 -0.3192
 2039SOL    HW2 7718   0.950   3.337   5.581 -0.3281 -1.4724  1.5548
 2040SOL     OW 7719   6.669   2.982   3.957  0.4743 -0.2481 -0.4417
 2040SOL    HW1 7720   6.619   2.991   4.043  1.7009 -0.3197  0.2981
 2040SOL    HW2 7721   6.669   3.070   3.909 -2.0113 -0.6970 -1.4370
 2041SOL     OW 7722   6.652   5.114   3.168  0.3451  0.0974 -0.0540
 2041SOL    HW1 7723   6.726   5.083   3.227  0.6974 -0.1620 -0.6197
 2041SOL    HW2 7724   6.590   5.038   3.149  0.7136 -0.0423 -0.7172
 2042SOL     OW 7725   0.339   0.828   0.092  0.0218  0.0682 -0.1618
 2042SOL    HW1 7726   0.405   0.803   0.163  0.5555  1.3726 -0.1808
 2042SOL    HW2 7727   0.385   0.883   0.022 -1.0230  0.7925 -0.2981
 2043SOL     OW 7728   5.834   1.134   0.283  0.4245  0.1760  0.1429
 2043SOL    HW1 7729   5.933   1.133   0.296  0.6969  2.4947 -1.1127
 2043SOL    HW2 7730   5.794   1.208   0.338 -0.4497 -0.0144 -0.2219
 2044SOL     OW 7731   6.419   2.747   6.089 -0.2909  0.0753 -0.0379
 2044SOL    HW1 7732   6.453   2.758   6.182 -0.1018  1.0128 -0.2101
 2044SOL    HW2 7733   6.319   2.737   6.090 -0.1567 -1.5300  0.3774
 2045SOL     OW 7734   2.276   1.004   2.914  0.4758 -0.3406 -0.4128
 2045SOL    HW1 7735   2.287   1.048   3.003 -1.3630 -0.5743 -0.0441
 2045SOL    HW2 7736   2.337   0.925   2.908  1.2037  0.1531  0.3059
 2046SOL     OW 7737   2.080   6.432   3.960  0.3759  0.0128  0.3566
 2046SOL    HW1 7738   2.003   6.385   4.003  1.6404 -0.2205  2.5147
 2046SOL    HW2 7739   2.110   6.508   4.019  1.9842 -0.0950 -0.2759
 2047SOL     OW 7740   4.723   0.734   3.131 -0.4578  0.5963 -0.0667
 2047SOL    HW1 7741   4.810   0.732   3.181  0.0213 -3.2341 -0.7364
 2047SOL    HW2 7742   4.741   0.750   3.034 -0.2943 -1.3609 -0.3913
 2048SOL     OW 7743   1.200   6.956   5.722 -0.0466 -0.0917 -0.0933
 2048SOL    HW1 7744   1.109   6.977   5.685 -0.2094  1.0631  0.9223
 2048SOL    HW2 7745   1.228   6.865   5.690 -2.5883 -1.5540  1.4971
 2049SOL     OW 7746   0.694   3.326   5.139 -0.1009  0.2400  0.0797
 2049SOL    HW1 7747   0.698   3.231   5.108 -0.6164 -1.0096  3.4039
 2049SOL    HW2 7748   0.770   3.378   5.100  1.0459 -1.9085 -0.6962
 2050SOL     OW 7749   4.262   5.095   1.531  0.6193  0.1851 -0.2959
 2050SOL    HW1 7750   4.220   5.163   1.591 -2.2611 -2.2004  0.5924
 2050SOL    HW2 7751   4.303   5.022   1.585 -1.0428 -1.4449 -1.1173
 2051SOL     OW 7752   0.292   4.039   6.826  0.3133  0.7836  0.2471
 2051SOL    HW1 7753   0.195   4.038   6.851  0.5109 -1.9917  1.2381
 2051SOL    HW2 7754   0.314   3.956   6.775  1.7756  2.3704 -1.8395
 2052SOL     OW 7755   0.091   3.569   4.201  0.0992 -0.2631  0.0446
 2052SOL    HW1 7756   0.102   3.619   4.115 -1.4711  0.4431  0.2083
 2052SOL    HW2 7757   0.054   3.631   4.270  0.3841 -1.0812  0.9420
 2053SOL     OW 7758   0.933   3.243   6.762 -0.7722  0.3749  0.3227
 2053SOL    HW1 7759   0.894   3.286   6.844  1.2486  0.5086  1.2839
 2053SOL    HW2 7760   1.032   3.236   6.773 -0.4639  0.2968 -2.1076
 2054SOL     OW 7761   1.671   6.549   3.001 -0.3159  0.1480 -0.4570
 2054SOL    HW1 7762   1.767   6.556   3.029  0.1982 -0.1244 -2.0799
 2054SOL    HW2 7763   1.622   6.630   3.031  0.4958  0.4525  0.0975
 2055SOL     OW 7764   6.110   3.721   3.795 -0.8149  0.2638  0.3908
 2055SOL    HW1 7765   6.171   3.740   3.871  1.9522 -0.9685 -1.3800
 2055SOL    HW2 7766   6.145   3.762   3.712 -1.8654 -1.2849 -0.8914
 2056SOL     OW 7767   4.034   3.296   5.204 -0.1163 -0.3184 -0.0862
 2056SOL    HW1 7768   3.982   3.214   5.228 -0.3947 -0.1079  0.0253
 2056SOL    HW2 7769   4.120   3.296   5.255  0.2018 -0.8899 -0.6018
 2057SOL     OW 7770   1.742   0.730   5.342 -0.5600  0.7377 -0.0775
 2057SOL    HW1 7771   1.742   0.829   5.334 -0.4332  0.7515  0.0859
 2057SOL    HW2 7772   1.734   0.689   5.251 -1.2818  0.8990 -0.0951
 2058SOL     OW 7773   1.482   3.911   0.485 -0.3389 -0.2736  0.0057
 2058SOL    HW1 7774   1.419   3.988   0.475 -2.6991 -1.9719  0.7656
 2058SOL    HW2 7775   1.525   3.915   0.575  1.6959  1.5373 -0.9466
 2059SOL     OW 7776   0.054   5.609   1.555 -0.2020  0.4578 -0.3228
 2059SOL    HW1 7777  -0.033   5.580   1.516 -0.0952 -1.0186  0.4794
 2059SOL    HW2 7778   0.042   5.698   1.599 -0.4065  2.0300 -3.3112
 2060SOL     OW 7779   1.939   3.425   3.984  0.1094 -0.6644  0.5854
 2060SOL    HW1 7780   1.946   3.510   3.932  0.2599  0.3553  2.1881
 2060SOL    HW2 7781   1.920   3.349   3.922 -0.0442  0.5301 -0.8904
 2061SOL     OW 7782   4.119   0.784   2.421 -0.0466 -0.3382 -0.1327
 2061SOL    HW1 7783   4.097   0.699   2.469  2.6660 -1.0847 -0.0660
 2061SOL    HW2 7784   4.034   0.826   2.388 -1.7053 -1.5256  2.3293
 2062SOL     OW 7785   0.747   1.921   0.824 -0.2986 -0.3563 -0.2145
 2062SOL    HW1 7786   0.743   2.015   0.859  0.7448  0.2152 -1.5416
 2062SOL    HW2 7787   0.655   1.892   0.797 -0.6881  0.1400  0.5312
 2063SOL     OW 7788   6.365   3.477   1.830 -0.1028  0.2220  0.1198
 2063SOL    HW1 7789   6.341   3.569   1.796 -0.4003  0.5854  1.2765
 2063SOL    HW2 7790   6.281   3.425   1.846  0.0268  0.1134  0.4487
 2064SOL     OW 7791   1.794   2.321   4.675 -0.3914  0.0865  0.0533
 2064SOL    HW1 7792   1.724   2.367   4.730  0.6016 -1.0497  2.4157
 2064SOL    HW2 7793   1.829   2.242   4.725  1.2626 -0.4856 -1.8694
 2065SOL     OW 7794   2.824   0.924   2.415 -0.1147 -0.4784 -0.3813
 2065SOL    HW1 7795   2.767   0.994   2.371 -0.0012 -1.0799 -1.5223
 2065SOL    HW2 7796   2.920   0.950   2.410 -0.2217  0.2193  0.9554
 2066SOL     OW 7797   5.348   1.070   5.084  0.4284  0.5860  0.5152
 2066SOL    HW1 7798   5.399   1.069   4.997  0.4780 -0.3207  0.5468
 2066SOL    HW2 7799   5.261   1.116   5.070 -0.2336 -0.8568 -0.4225
 2067SOL     OW 7800   6.596   4.100   4.931 -0.3540  0.5963 -0.1897
 2067SOL    HW1 7801   6.672   4.162   4.913 -0.7761  0.7760 -1.3851
 2067SOL    HW2 7802   6.521   4.151   4.973 -0.2181  0.6277  0.0188
 2068SOL     OW 7803   4.653   0.749   4.409  0.5282 -0.5350 -0.0325
 2068SOL    HW1 7804   4.581   0.722   4.346  0.6731 -1.4833  0.1868
 2068SOL    HW2 7805   4.742   0.718   4.374  0.6288 -0.9177  0.5328
 2069SOL     OW 7806   1.747   3.388   1.555 -0.1092  0.1555 -0.3926
 2069SOL    HW1 7807   1.761   3.395   1.653  0.8678  0.6360 -0.5496
 2069SOL    HW2 7808   1.696   3.469   1.523 -3.1427 -1.4062  0.1201
 2070SOL     OW 7809   5.527   5.625   1.066 -0.2340 -0.1438 -0.2809
 2070SOL    HW1 7810   5.448   5.678   1.035 -1.5852 -0.9575  1.5487
 2070SOL    HW2 7811   5.611   5.667   1.032 -1.4246  0.7425 -2.3037
 2071SOL     OW 7812   2.373   0.872   4.351 -0.1728  0.1290  0.1979
 2071SOL    HW1 7813   2.457   0.921   4.377 -1.0991  1.8728  0.0547
 2071SOL    HW2 7814   2.349   0.807   4.422  1.6733 -0.9428 -0.0810
 2072SOL     OW 7815   0.943   0.151   3.255 -0.2338 -0.1709  0.2233
 2072SOL    HW1 7816   0.928   0.245   3.224  0.1966 -0.4959 -1.0293
 2072SOL    HW2 7817   1.036   0.122   3.229 -0.9520 -1.5122 -1.0018
 2073SOL     OW 7818   4.327   6.535   4.400 -0.8283 -0.1967  0.2620
 2073SOL    HW1 7819   4.316   6.495   4.309  0.9044 -0.5659  0.1810
 2073SOL    HW2 7820   4.410   6.499   4.442 -0.4736  1.5491  1.1338
 2074SOL     OW 7821   5.307   2.680   3.262 -0.1714  0.0693 -0.4984
 2074SOL    HW1 7822   5.257   2.721   3.338  0.8750  1.1085 -0.3377
 2074SOL    HW2 7823   5.367   2.608   3.297  1.5168  1.6007 -0.0107
 2075SOL     OW 7824   0.820   4.184   6.954 -0.4286  0.1554 -0.1419
 2075SOL    HW1 7825   0.845   4.253   6.886 -1.2960 -0.1240 -0.7579
 2075SOL    HW2 7826   0.786   4.102   6.907  0.3555 -0.6115  0.5838
 2076SOL     OW 7827   6.078   0.262   0.105 -0.1965 -0.3680 -0.4404
 2076SOL    HW1 7828   6.163   0.288   0.059 -0.9246 -0.6233 -2.0007
 2076SOL    HW2 7829   6.026   0.344   0.129 -0.4834 -0.2520 -1.4208
 2077SOL     OW 7830   1.398   1.787   6.544  0.2580 -0.0455  0.0809
 2077SOL    HW1 7831   1.355   1.861   6.493  0.0326 -1.0743 -1.2853
 2077SOL    HW2 7832   1.406   1.813   6.640 -3.2892  0.2977  0.4043
 2078SOL     OW 7833   2.501   1.254   6.608 -0.0044 -0.0261 -0.1192
 2078SOL    HW1 7834   2.449   1.182   6.654  0.6741 -0.9663 -0.8029
 2078SOL    HW2 7835   2.443   1.297   6.538  0.8020 -2.7868 -2.6761
 2079SOL     OW 7836   4.887   1.068   2.442 -0.6600  0.0191  0.1418
 2079SOL    HW1 7837   4.951   0.991   2.433  0.3432  0.9508 -0.9857
 2079SOL    HW2 7838   4.794   1.032   2.448 -0.3325 -1.2637 -1.6738
 2080SOL     OW 7839   0.866   3.488   4.164 -0.2631 -0.6514  0.0096
 2080SOL    HW1 7840   0.890   3.477   4.068  1.8594 -1.4559  0.5797
 2080SOL    HW2 7841   0.805   3.414   4.193 -1.9748  0.3081 -0.9851
 2081SOL     OW 7842   0.561   4.344   1.887 -0.1661  0.3902 -0.1101
 2081SOL    HW1 7843   0.581   4.250   1.915 -1.9301  0.0761  0.2010
 2081SOL    HW2 7844   0.566   4.404   1.967  0.4004  0.4785 -0.2058
 2082SOL     OW 7845   5.542   1.516   5.713 -0.3792 -0.4040  0.0251
 2082SOL    HW1 7846   5.550   1.579   5.791  2.2354  0.0307 -0.4819
 2082SOL    HW2 7847   5.479   1.554   5.645  0.1795  1.0688  0.2952
 2083SOL     OW 7848   0.310   1.754   6.137 -0.0922  0.0245 -0.2053
 2083SOL    HW1 7849   0.304   1.720   6.231 -0.6264  1.1062  0.1658
 2083SOL    HW2 7850   0.299   1.853   6.136 -1.3667 -0.0967 -1.5335
 2084SOL     OW 7851   3.342   0.807   6.748 -0.2005 -0.8551 -0.0550
 2084SOL    HW1 7852   3.308   0.783   6.657 -0.4970 -0.5564 -0.0224
 2084SOL    HW2 7853   3.268   0.799   6.815  0.4695 -3.0032  0.5144
 2085SOL     OW 7854   1.731   4.512   3.068  0.1391  0.3345  0.4986
 2085SOL    HW1 7855   1.709   4.440   3.002  0.1930  0.8232 -0.0635
 2085SOL    HW2 7856   1.809   4.565   3.035  0.2401  0.5178  1.0152
 2086SOL     OW 7857   5.733   1.748   5.017 -0.1971 -0.2092 -0.5567
 2086SOL    HW1 7858   5.824   1.766   5.055  0.4982  2.9226 -3.2061
 2086SOL    HW2 7859   5.663   1.783   5.079  0.2522 -2.8943  1.6397
 2087SOL     OW 7860   1.464   0.105   6.063  0.0246 -0.3132  0.2212
 2087SOL    HW1 7861   1.415   0.137   6.143 -0.7438 -3.8066  1.3179
 2087SOL    HW2 7862   1.403   0.106   5.984 -0.5014 -0.6630  0.6187
 2088SOL     OW 7863   1.808   5.482   6.319  0.2944  0.4511  0.0898
 2088SOL    HW1 7864   1.756   5.538   6.384  0.6097 -0.1733  0.8972
 2088SOL    HW2 7865   1.906   5.494   6.336  0.3543 -0.8238  0.6929
 2089SOL     OW 7866   3.796   3.028   0.055  0.0847  0.2296 -0.4914
 2089SOL    HW1 7867   3.731   2.954   0.068  0.0962  0.0105 -1.6414
 2089SOL    HW2 7868   3.750   3.116   0.069 -0.5723  0.0952 -1.6618
 2090SOL     OW 7869   4.988   2.180   3.222  0.4278 -0.7295  0.4617
 2090SOL    HW1 7870   4.971   2.129   3.138  3.2404 -0.9540 -0.0647
 2090SOL    HW2 7871   5.015   2.274   3.199 -0.2505 -0.3341  1.2160
 2091SOL     OW 7872   1.514   1.384   6.619 -0.1268 -0.5431  0.4578
 2091SOL    HW1 7873   1.493   1.286   6.618  0.9747 -0.8254  1.8216
 2091SOL    HW2 7874   1.570   1.405   6.699 -0.4278  1.2336  0.2364
 2092SOL     OW 7875   4.556   3.827   2.129  0.4142 -0.2633 -0.7197
 2092SOL    HW1 7876   4.473   3.813   2.182 -0.2735  0.8180 -1.4848
 2092SOL    HW2 7877   4.579   3.924   2.127  1.8424 -0.5664 -0.3238
 2093SOL     OW 7878   5.219   6.395   5.475 -0.2208  0.1503  0.4324
 2093SOL    HW1 7879   5.262   6.339   5.546  0.4789 -0.3837 -0.4082
 2093SOL    HW2 7880   5.196   6.485   5.514  2.4091  0.7796  0.7112
 2094SOL     OW 7881   2.380   6.701   3.653 -0.1458  0.2868  0.3126
 2094SOL    HW1 7882   2.408   6.676   3.561  0.9439 -0.6001  0.8562
 2094SOL    HW2 7883   2.296   6.652   3.677  0.3262 -0.5524  0.2808
 2095SOL     OW 7884   3.770   1.263   4.981  0.3137 -0.3090  0.0781
 2095SOL    HW1 7885   3.803   1.215   4.900 -1.0164 -0.5209 -0.3669
 2095SOL    HW2 7886   3.823   1.235   5.061  1.8426  0.1249 -0.7498
 2096SOL     OW 7887   3.388   1.812   5.210  0.3502  0.5760 -0.1904
 2096SOL    HW1 7888   3.313   1.856   5.260 -0.8702 -0.4205 -1.0886
 2096SOL    HW2 7889   3.401   1.860   5.123  1.0754  1.0231  0.1575
 2097SOL     OW 7890   3.760   2.323   5.962  0.5424 -0.5725  0.0286
 2097SOL    HW1 7891   3.831   2.361   6.021  1.2113 -0.1914 -0.9763
 2097SOL    HW2 7892   3.790   2.233   5.928  0.1330 -0.8229  0.3248
 2098SOL     OW 7893   2.425   5.068   1.384  0.4546  0.5388 -0.4290
 2098SOL    HW1 7894   2.379   5.138   1.329 -0.1598  0.0203 -0.5924
 2098SOL    HW2 7895   2.367   5.044   1.461  1.0737  0.8675  0.1501
 2099SOL     OW 7896   5.114   5.622   6.870 -0.0794  0.1031  0.5087
 2099SOL    HW1 7897   5.029   5.572   6.885  0.0414 -0.3881 -0.3614
 2099SOL    HW2 7898   5.117   5.701   6.931 -1.2471  0.2395  0.4228
 2100SOL     OW 7899   6.501   2.098   6.319  0.5056  0.6247 -0.5867
 2100SOL    HW1 7900   6.485   2.163   6.245 -0.1420  0.0624 -0.9475
 2100SOL    HW2 7901   6.542   2.015   6.282 -1.2326 -0.2781 -0.5875
 2101SOL     OW 7902   4.248   0.404   5.500  0.0342 -0.2985  0.3197
 2101SOL    HW1 7903   4.247   0.473   5.428  0.8210 -1.7009 -1.0897
 2101SOL    HW2 7904   4.201   0.321   5.468 -1.2659 -0.3245  2.1232
 2102SOL     OW 7905   3.735   3.051   1.233  0.4699 -0.1077  0.0597
 2102SOL    HW1 7906   3.828   3.019   1.250  1.3394  2.6647  0.9980
 2102SOL    HW2 7907   3.677   3.029   1.311  0.8621 -0.0525  0.3697
 2103SOL     OW 7908   3.065   2.608   6.124  0.5689 -0.1847  0.0517
 2103SOL    HW1 7909   3.103   2.681   6.181 -0.8014  0.4235  0.2071
 2103SOL    HW2 7910   2.966   2.605   6.133  0.5289 -1.6376 -0.4858
 2104SOL     OW 7911   0.337   6.008   1.344  0.4187 -0.1042 -0.3734
 2104SOL    HW1 7912   0.256   6.039   1.394  0.7194  0.5326 -0.2671
 2104SOL    HW2 7913   0.371   5.923   1.386  0.1635 -0.0431 -0.0333
 2105SOL     OW 7914   6.887   5.521   3.125  0.3700 -1.0614 -0.2603
 2105SOL    HW1 7915   6.810   5.577   3.093  2.2994  1.5063 -0.7859
 2105SOL    HW2 7916   6.863   5.478   3.212 -1.3817  0.3485  0.0218
 2106SOL     OW 7917   1.207   5.025   6.714  0.1092  0.0874  0.0235
 2106SOL    HW1 7918   1.147   4.945   6.703 -0.8821  0.9260 -0.8631
 2106SOL    HW2 7919   1.276   5.005   6.784 -2.6443 -0.0570  2.9216
 2107SOL     OW 7920   5.553   1.360   6.101  0.2308 -0.1353 -0.0014
 2107SOL    HW1 7921   5.571   1.293   6.029  0.1655 -1.6250  1.2912
 2107SOL    HW2 7922   5.455   1.366   6.117  0.2111  0.5668 -0.3696
 2108SOL     OW 7923   0.241   6.268   5.051  0.1607 -0.1165  0.1137
 2108SOL    HW1 7924   0.164   6.332   5.047 -0.0192 -0.1905  1.6597
 2108SOL    HW2 7925   0.326   6.316   5.029 -0.0654  0.4818  0.5097
 2109SOL     OW 7926   0.100   2.501   4.388  0.2064  0.3786  0.5892
 2109SOL    HW1 7927   0.093   2.453   4.301  2.4543  1.1997 -0.0916
 2109SOL    HW2 7928   0.179   2.467   4.439 -0.5328  0.5686  1.9323
 2110SOL     OW 7929   5.138   5.683   1.291 -0.2106  0.7346  0.7191
 2110SOL    HW1 7930   5.122   5.683   1.192  0.8176  4.6232  0.3744
 2110SOL    HW2 7931   5.234   5.661   1.309 -0.7384 -1.4793  1.0453
 2111SOL     OW 7932   4.439   5.326   4.624  0.1975 -0.1397 -0.8571
 2111SOL    HW1 7933   4.399   5.417   4.634  0.0728 -0.0720 -1.8538
 2111SOL    HW2 7934   4.505   5.310   4.698 -0.0275  0.6237 -0.4814
 2112SOL     OW 7935   2.782   3.551   3.077  0.1127  0.3850 -0.4101
 2112SOL    HW1 7936   2.714   3.563   3.149  1.3278  1.3206  0.6395
 2112SOL    HW2 7937   2.802   3.640   3.035 -1.3448 -0.2890 -2.6970
 2113SOL     OW 7938   1.206   3.441   3.796  0.1272  0.5610 -1.0176
 2113SOL    HW1 7939   1.285   3.396   3.756  1.0519 -1.5352  2.7307
 2113SOL    HW2 7940   1.231   3.533   3.825  1.1981 -0.0043 -0.0629
 2114SOL     OW 7941   6.643   2.171   3.500  0.5527  0.0584  0.0486
 2114SOL    HW1 7942   6.682   2.261   3.521  0.1050  0.1706  0.4097
 2114SOL    HW2 7943   6.670   2.144   3.408  1.7667 -0.0178  0.4094
 2115SOL     OW 7944   3.965   0.480   3.109 -0.2445 -0.0843  0.2647
 2115SOL    HW1 7945   3.930   0.403   3.056 -2.4561 -0.1620  1.6876
 2115SOL    HW2 7946   3.957   0.564   3.055  0.6396 -0.6016 -0.6887
 2116SOL     OW 7947   2.405   3.899   6.082 -0.0980 -0.7848 -0.3454
 2116SOL    HW1 7948   2.496   3.877   6.117  1.4201  1.3108 -2.6403
 2116SOL    HW2 7949   2.355   3.953   6.150  1.0878 -0.4015  0.2413
 2117SOL     OW 7950   3.292   3.822   3.445  0.3747  0.5634 -0.3832
 2117SOL    HW1 7951   3.332   3.913   3.459  0.8021  0.6546 -2.0569
 2117SOL    HW2 7952   3.195   3.824   3.469  0.9915  0.6472  2.5640
 2118SOL     OW 7953   4.256   2.200   1.604 -0.1580 -0.5446 -0.1540
 2118SOL    HW1 7954   4.318   2.130   1.639 -0.6930 -0.8816  0.1236
 2118SOL    HW2 7955   4.168   2.194   1.650 -1.0032 -1.2136 -1.7652
 2119SOL     OW 7956   4.282   3.576   2.911 -0.0525  0.1831 -0.3026
 2119SOL    HW1 7957   4.363   3.532   2.870 -0.0305  0.9577 -1.1173
 2119SOL    HW2 7958   4.307   3.668   2.941 -0.0154 -0.4401  1.6843
 2120SOL     OW 7959   4.888   0.936   4.707  0.0942  0.2862 -0.2812
 2120SOL    HW1 7960   4.906   1.028   4.672 -1.8083  0.9181  0.2677
 2120SOL    HW2 7961   4.810   0.939   4.769 -0.8344 -1.9263 -1.2405
 2121SOL     OW 7962   0.038   6.082   2.491  0.7650 -0.3219  0.0787
 2121SOL    HW1 7963   0.082   6.044   2.572 -1.1552 -1.9325  0.4679
 2121SOL    HW2 7964   0.085   6.050   2.409  0.5665 -1.7184  0.4859
 2122SOL     OW 7965   3.454   5.337   0.562  0.8671 -0.1030  0.0310
 2122SOL    HW1 7966   3.484   5.430   0.540  0.6910  0.2264  1.1141
 2122SOL    HW2 7967   3.518   5.297   0.628 -0.1325  0.0004  1.1014
 2123SOL     OW 7968   6.983   4.786   5.164 -0.3805 -0.1428  0.2545
 2123SOL    HW1 7969   7.068   4.737   5.186 -0.0772 -0.3711 -1.2748
 2123SOL    HW2 7970   6.936   4.811   5.248  0.2206 -1.7413  1.1152
 2124SOL     OW 7971   2.440   2.374   4.904  0.6527 -0.2789  0.3003
 2124SOL    HW1 7972   2.383   2.293   4.918  0.6394 -0.9351 -2.7395
 2124SOL    HW2 7973   2.384   2.456   4.917 -0.2931 -0.8485 -0.0273
 2125SOL     OW 7974   5.983   0.823   3.569  0.4170  0.3048 -0.3467
 2125SOL    HW1 7975   6.076   0.820   3.606  0.1906 -1.4343  0.1923
 2125SOL    HW2 7976   5.918   0.821   3.645 -0.0652  0.8707 -0.7417
 2126SOL     OW 7977   0.955   5.605   3.324  0.5714 -0.3213  0.0590
 2126SOL    HW1 7978   0.975   5.647   3.413 -0.7259  1.8926 -0.6024
 2126SOL    HW2 7979   0.976   5.671   3.251 -2.2536 -0.4683 -1.0058
 2127SOL     OW 7980   6.884   6.931   4.079  0.6798 -0.0985  0.3133
 2127SOL    HW1 7981   6.937   6.979   4.149  0.8411  0.7686 -0.3868
 2127SOL    HW2 7982   6.870   6.991   4.001 -0.5829 -0.6213  0.1132
 2128SOL     OW 7983   4.120   3.846   4.051 -0.0629  0.0248 -0.5636
 2128SOL    HW1 7984   4.218   3.853   4.066 -0.1553  1.6262 -0.5809
 2128SOL    HW2 7985   4.102   3.810   3.960  0.4916 -0.5283 -0.4625
 2129SOL     OW 7986   5.705   6.583   5.906 -0.1915 -0.1848  0.0379
 2129SOL    HW1 7987   5.667   6.559   5.995 -0.4783 -0.2872 -0.1115
 2129SOL    HW2 7988   5.793   6.630   5.919  0.4870 -1.4781  0.3293
 2130SOL     OW 7989   3.298   0.995   4.267 -0.3726 -0.3518 -0.6378
 2130SOL    HW1 7990   3.367   1.024   4.333 -0.3762 -1.2499 -0.2220
 2130SOL    HW2 7991   3.239   0.927   4.309 -2.6132  1.6094 -0.4142
 2131SOL     OW 7992   5.689   3.393   2.969  0.2433  0.1187 -0.2148
 2131SOL    HW1 7993   5.728   3.400   2.877 -1.3896 -0.3060 -0.9697
 2131SOL    HW2 7994   5.601   3.440   2.972 -1.2197 -2.4628  0.2453
 2132SOL     OW 7995   0.853   4.867   0.831 -0.2204  0.2408 -1.2915
 2132SOL    HW1 7996   0.900   4.947   0.869  2.2028 -2.4933  2.0856
 2132SOL    HW2 7997   0.913   4.821   0.765 -0.8651  0.2463 -1.8871
 2133SOL     OW 7998   6.171   5.004   1.070 -0.4765  0.0543  0.0728
 2133SOL    HW1 7999   6.191   4.935   1.000 -1.4922  0.3371 -0.5208
 2133SOL    HW2 8000   6.250   5.064   1.081  0.0187 -0.5328 -0.1847
 2134SOL     OW 8001   0.964   1.781   0.977  0.3403 -0.0973  0.3560
 2134SOL    HW1 8002   0.980   1.844   1.053 -0.3629  0.3653  0.1394
 2134SOL    HW2 8003   0.896   1.821   0.915  1.4551 -0.1122 -0.9317
 2135SOL     OW 8004   1.483   3.394   3.385  0.2764 -0.4086 -0.3253
 2135SOL    HW1 8005   1.525   3.311   3.350 -1.1141 -0.9615 -0.7604
 2135SOL    HW2 8006   1.411   3.424   3.322  1.1637  1.5007 -0.5061
 2136SOL     OW 8007   6.075   6.010   2.005  0.2019  0.7942  0.1500
 2136SOL    HW1 8008   6.150   6.001   2.071  0.6325 -0.1724 -0.4571
 2136SOL    HW2 8009   5.989   5.984   2.049  0.2033  1.8859  0.8434
 2137SOL     OW 8010   0.642   4.873   4.991  0.5718  0.5454  0.2741
 2137SOL    HW1 8011   0.705   4.878   4.914 -0.5694 -0.2684 -0.7456
 2137SOL    HW2 8012   0.628   4.964   5.029 -0.3014  1.3016 -1.7145
 2138SOL     OW 8013   1.137   4.908   1.249 -0.4063  0.1961  0.9390
 2138SOL    HW1 8014   1.153   4.835   1.315  0.2946  0.4377  1.0390
 2138SOL    HW2 8015   1.174   4.882   1.160 -0.2957  0.3602  0.9356
 2139SOL     OW 8016   4.397   6.187   7.015  0.2497 -0.5851  0.2202
 2139SOL    HW1 8017   4.474   6.160   6.957 -0.4626 -0.2838 -0.9094
 2139SOL    HW2 8018   4.353   6.105   7.051  0.4160 -0.8033 -0.0624
 2140SOL     OW 8019   5.865   4.981   2.249  0.0440  0.4436  0.3840
 2140SOL    HW1 8020   5.828   4.896   2.213 -1.0125  0.6252  1.0114
 2140SOL    HW2 8021   5.900   5.037   2.174  1.6083 -0.9174  0.0425
 2141SOL     OW 8022   0.479   5.101   0.615  0.2426 -0.0275 -0.2465
 2141SOL    HW1 8023   0.529   5.014   0.624  0.2663  0.0765  0.7934
 2141SOL    HW2 8024   0.471   5.143   0.705 -0.6463  0.5683 -0.5948
 2142SOL     OW 8025   4.795   6.301   5.527 -0.1703 -0.0281  0.2222
 2142SOL    HW1 8026   4.735   6.230   5.563 -0.0184 -0.1302  0.2742
 2142SOL    HW2 8027   4.891   6.274   5.541 -0.1083 -0.1342 -0.3770
 2143SOL     OW 8028   3.249   5.038   2.804 -0.2387  0.2710  0.3777
 2143SOL    HW1 8029   3.233   4.944   2.832 -1.0157 -0.8412 -3.2356
 2143SOL    HW2 8030   3.310   5.039   2.725  0.5374  2.9097  0.9259
 2144SOL     OW 8031   1.505   3.872   5.325 -0.1687 -0.5660  0.4781
 2144SOL    HW1 8032   1.512   3.964   5.364 -1.6398  0.0905 -0.7073
 2144SOL    HW2 8033   1.596   3.830   5.322  0.0958 -0.6431  4.3926
 2145SOL     OW 8034   6.077   3.375   6.180 -0.0225  0.9240 -0.7027
 2145SOL    HW1 8035   6.046   3.339   6.092 -0.5218  0.3345 -0.3021
 2145SOL    HW2 8036   6.010   3.352   6.250  1.6373 -1.0691  0.3496
 2146SOL     OW 8037   6.468   1.270   4.640 -0.4260  0.1786  0.6828
 2146SOL    HW1 8038   6.414   1.188   4.662  1.3922 -1.0101  0.9660
 2146SOL    HW2 8039   6.488   1.271   4.542 -0.6937  0.4537  0.6299
 2147SOL     OW 8040   6.365   6.671   3.807  0.9072  0.1592 -0.0562
 2147SOL    HW1 8041   6.423   6.748   3.784 -2.0309  1.8907 -2.4099
 2147SOL    HW2 8042   6.393   6.591   3.753  1.4016  0.8120 -0.7905
 2148SOL     OW 8043   4.325   0.874   3.579  0.2676  0.0383  0.2040
 2148SOL    HW1 8044   4.408   0.830   3.546 -0.1252 -0.0013 -0.7559
 2148SOL    HW2 8045   4.268   0.901   3.501 -0.7797 -0.2537  0.8493
 2149SOL     OW 8046   1.925   1.526   4.302 -0.2827  0.0881 -0.7444
 2149SOL    HW1 8047   1.955   1.513   4.208 -1.1468  0.4046 -1.0728
 2149SOL    HW2 8048   1.975   1.463   4.362 -1.2145 -1.6293 -1.6915
 2150SOL     OW 8049   6.821   2.764   6.243 -0.1172 -0.2862  0.1857
 2150SOL    HW1 8050   6.872   2.765   6.329  1.0769 -0.8058 -0.4928
 2150SOL    HW2 8051   6.762   2.684   6.240  0.5204 -0.7610  0.1478
 2151SOL     OW 8052   3.650   6.962   4.671 -0.0223  0.3034 -0.2315
 2151SOL    HW1 8053   3.622   6.867   4.687 -0.0453  0.7116  2.7047
 2151SOL    HW2 8054   3.750   6.968   4.672 -0.0240  0.3694  0.3276
 2152SOL     OW 8055   2.791   3.476   1.377  0.8135 -0.2868 -0.5107
 2152SOL    HW1 8056   2.723   3.403   1.373 -0.0803  0.5210 -0.3799
 2152SOL    HW2 8057   2.845   3.467   1.460 -1.2564  0.8577  1.0784
 2153SOL     OW 8058   1.607   3.531   0.909  0.0526  0.1328 -0.2325
 2153SOL    HW1 8059   1.572   3.438   0.920 -0.4235  0.2067 -1.0324
 2153SOL    HW2 8060   1.683   3.546   0.972 -1.3448 -0.0449  1.5585
 2154SOL     OW 8061   6.078   6.290   0.509  0.4528 -0.0791  0.4865
 2154SOL    HW1 8062   6.043   6.197   0.517 -1.5974  0.5892  0.1858
 2154SOL    HW2 8063   6.126   6.316   0.592  0.6588 -1.2469  0.7436
 2155SOL     OW 8064   2.186   0.080   4.908  0.0011 -0.1522  0.1046
 2155SOL    HW1 8065   2.220   0.163   4.952  0.7934 -0.6108  0.3605
 2155SOL    HW2 8066   2.254   0.045   4.844 -0.7794  0.0045 -0.8294
 2156SOL     OW 8067   4.269   2.507   4.507 -0.2081 -0.2764  0.1472
 2156SOL    HW1 8068   4.368   2.515   4.495 -0.2671  0.6088  0.1660
 2156SOL    HW2 8069   4.223   2.563   4.439 -0.7377 -1.6453 -0.6451
 2157SOL     OW 8070   0.587   4.979   2.550 -0.3563  0.8990 -0.2738
 2157SOL    HW1 8071   0.586   5.003   2.453 -3.0497 -0.3574 -0.6280
 2157SOL    HW2 8072   0.640   4.895   2.563 -0.6758  0.6171 -0.7807
 2158SOL     OW 8073   0.823   2.452   0.498  0.1277  0.3777 -0.3694
 2158SOL    HW1 8074   0.758   2.523   0.470 -0.1091  0.3062  0.0085
 2158SOL    HW2 8075   0.807   2.427   0.593 -0.9588 -1.4544 -0.9970
 2159SOL     OW 8076   4.829   3.621   1.488 -0.6792 -0.0448  0.5490
 2159SOL    HW1 8077   4.811   3.562   1.409 -1.2080  1.1147 -0.2156
 2159SOL    HW2 8078   4.799   3.574   1.571 -2.5335 -0.2577 -0.1943
 2160SOL     OW 8079   4.146   7.002   2.878 -0.1570 -0.1905  0.1526
 2160SOL    HW1 8080   4.071   7.022   2.942 -1.5235  0.0810 -1.4509
 2160SOL    HW2 8081   4.115   7.020   2.785  1.2560 -2.0629 -0.7322
 2161SOL     OW 8082   0.756   0.218   2.026  0.2683 -0.5426  0.2427
 2161SOL    HW1 8083   0.740   0.120   2.029 -0.9678 -0.3326  1.4899
 2161SOL    HW2 8084   0.739   0.253   1.934 -1.9558 -1.0914  0.4036
 2162SOL     OW 8085   5.495   5.394   1.505 -0.0239 -0.1937  0.9611
 2162SOL    HW1 8086   5.481   5.342   1.589  0.9384  1.9401  2.5466
 2162SOL    HW2 8087   5.593   5.410   1.492 -0.2480  0.6116  0.1787
 2163SOL     OW 8088   4.543   4.806   2.260  0.0475 -0.0265 -0.1642
 2163SOL    HW1 8089   4.626   4.856   2.283 -1.0826  1.3641  1.0847
 2163SOL    HW2 8090   4.549   4.713   2.297  0.6899  0.3343  0.6770
 2164SOL     OW 8091   4.343   6.971   6.307 -0.1312 -0.0348  0.3118
 2164SOL    HW1 8092   4.272   6.965   6.237 -0.4534 -1.6959  0.7372
 2164SOL    HW2 8093   4.405   7.047   6.286 -0.5821 -0.1163 -1.4163
 2165SOL     OW 8094   2.423   6.480   1.216 -0.8744  0.4625 -0.1607
 2165SOL    HW1 8095   2.335   6.445   1.183 -0.0100 -0.1548 -1.9132
 2165SOL    HW2 8096   2.454   6.425   1.294 -0.7993 -1.0321 -1.2144
 2166SOL     OW 8097   6.464   6.825   6.045 -0.5983  0.3843  0.6207
 2166SOL    HW1 8098   6.381   6.876   6.071 -0.2692  1.3076 -0.0704
 2166SOL    HW2 8099   6.443   6.728   6.042 -1.8923  0.6653 -0.3631
 2167SOL     OW 8100   2.316   0.695   5.210  0.6169 -0.2719  0.0858
 2167SOL    HW1 8101   2.284   0.700   5.305  0.5964 -1.2056  0.1441
 2167SOL    HW2 8102   2.236   0.695   5.149  0.6159  0.0295  0.0894
 2168SOL     OW 8103   2.626   4.697   0.735 -0.4641  0.2247  0.1930
 2168SOL    HW1 8104   2.604   4.776   0.791  0.7248  0.3477  0.5106
 2168SOL    HW2 8105   2.585   4.615   0.775 -2.8003  0.7935 -0.8229
 2169SOL     OW 8106   1.711   6.262   2.936  0.2623  0.1557 -1.0413
 2169SOL    HW1 8107   1.750   6.227   2.851  0.7038  0.0189 -0.7889
 2169SOL    HW2 8108   1.687   6.358   2.925  0.2309  0.1129 -1.3499
 2170SOL     OW 8109   2.599   1.925   1.658  0.2777  0.0804  0.0630
 2170SOL    HW1 8110   2.574   1.865   1.734  1.0334 -2.1288 -1.3327
 2170SOL    HW2 8111   2.695   1.953   1.666  0.3291 -0.0726 -0.0093
 2171SOL     OW 8112   3.849   5.715   6.140  0.7675 -0.0258  0.1213
 2171SOL    HW1 8113   3.897   5.639   6.096 -0.1193  0.0981 -1.1342
 2171SOL    HW2 8114   3.751   5.709   6.120  0.8346  2.2375 -1.3205
 2172SOL     OW 8115   1.965   5.378   3.063  0.0127  0.6367 -0.4521
 2172SOL    HW1 8116   2.020   5.458   3.085 -0.3351  1.2002 -1.5606
 2172SOL    HW2 8117   2.011   5.295   3.097  0.2159  1.3120  0.9781
 2173SOL     OW 8118   5.800   3.589   2.294 -0.5095 -0.3459 -0.1277
 2173SOL    HW1 8119   5.865   3.541   2.354 -0.2015 -0.5347 -0.6081
 2173SOL    HW2 8120   5.796   3.685   2.321  0.1521 -0.2780 -0.2448
 2174SOL     OW 8121   2.502   6.748   1.210 -0.5652 -0.5526 -0.2490
 2174SOL    HW1 8122   2.480   6.650   1.209 -1.3112 -0.4159  0.7737
 2174SOL    HW2 8123   2.562   6.770   1.133  0.0951 -1.9215 -0.1469
 2175SOL     OW 8124   7.000   5.216   0.638 -0.5258 -0.1628 -0.3929
 2175SOL    HW1 8125   7.029   5.127   0.673 -0.2067 -0.6952 -1.9089
 2175SOL    HW2 8126   7.079   5.277   0.632 -0.5993 -0.0374 -0.0869
 2176SOL     OW 8127   4.140   5.842   2.082  0.2106 -0.1881 -0.0025
 2176SOL    HW1 8128   4.153   5.916   2.148  0.9852  0.0278 -0.3925
 2176SOL    HW2 8129   4.200   5.766   2.104 -1.2072 -1.0782  0.9153
 2177SOL     OW 8130   2.853   3.832   3.013  0.1679 -0.8241  0.4271
 2177SOL    HW1 8131   2.928   3.892   3.041  1.7250 -1.6770 -1.7024
 2177SOL    HW2 8132   2.770   3.886   3.003  1.2112  0.7339 -0.1412
 2178SOL     OW 8133   5.196   3.346   6.753 -0.0091 -0.0470  0.3002
 2178SOL    HW1 8134   5.122   3.294   6.712 -0.5498 -0.3229  1.5780
 2178SOL    HW2 8135   5.213   3.312   6.846  1.7009  0.0240  0.0518
 2179SOL     OW 8136   4.259   1.667   1.634 -0.1580 -0.0845  0.8399
 2179SOL    HW1 8137   4.353   1.664   1.666  0.9017 -2.4600 -2.0268
 2179SOL    HW2 8138   4.255   1.719   1.548 -0.7410 -2.5485 -0.7343
 2180SOL     OW 8139   1.202   5.452   3.475 -0.8035  0.0643 -0.2374
 2180SOL    HW1 8140   1.205   5.549   3.452  2.3212  0.2201  0.3978
 2180SOL    HW2 8141   1.176   5.441   3.571 -0.8698  0.2810 -0.2304
 2181SOL     OW 8142   3.691   5.494   4.749  0.5355  0.2829  0.0037
 2181SOL    HW1 8143   3.730   5.436   4.677  1.3614 -0.1615  0.7829
 2181SOL    HW2 8144   3.745   5.578   4.757  0.7609  0.1014  0.4359
 2182SOL     OW 8145   6.547   0.456   4.954  0.1042  0.7259 -0.2733
 2182SOL    HW1 8146   6.542   0.363   4.990  0.9397  0.1313 -1.6377
 2182SOL    HW2 8147   6.455   0.497   4.956  0.0646  0.6432  2.2259
 2183SOL     OW 8148   0.208   1.902   3.906 -0.2624  0.1820  0.6586
 2183SOL    HW1 8149   0.293   1.882   3.955  0.0238  0.3812  0.2476
 2183SOL    HW2 8150   0.223   1.979   3.843 -0.5547 -0.2459  0.0620
 2184SOL     OW 8151   4.791   5.740   3.587 -0.0001  0.0296  0.5347
 2184SOL    HW1 8152   4.808   5.661   3.646 -1.6620  0.1894  1.2660
 2184SOL    HW2 8153   4.808   5.714   3.492  0.3098 -0.9499  0.8392
 2185SOL     OW 8154   0.938   2.303   0.943  0.2246  0.3305  0.3530
 2185SOL    HW1 8155   1.038   2.300   0.938  0.2011 -1.3706  0.2328
 2185SOL    HW2 8156   0.909   2.286   1.037  0.0419 -1.0742  0.0686
 2186SOL     OW 8157   3.120   0.113   3.146  0.2913  0.3622  0.1248
 2186SOL    HW1 8158   3.159   0.142   3.234 -0.6483  1.1009  0.3138
 2186SOL    HW2 8159   3.101   0.194   3.090 -1.5102  0.0696  0.2797
 2187SOL     OW 8160   4.495   5.956   3.324  0.0318  0.1224 -0.3320
 2187SOL    HW1 8161   4.513   5.968   3.227  0.0305  1.1278 -0.2215
 2187SOL    HW2 8162   4.454   5.866   3.340  1.5022 -0.7093 -1.0509
 2188SOL     OW 8163   1.514   5.614   0.947 -0.2607 -0.1339  0.5879
 2188SOL    HW1 8164   1.519   5.623   1.046 -0.8326 -0.9001  0.7014
 2188SOL    HW2 8165   1.523   5.518   0.922  1.1258  0.1819 -0.2002
 2189SOL     OW 8166   0.301   4.428   0.273 -0.0031  0.3134 -0.2738
 2189SOL    HW1 8167   0.378   4.486   0.245  0.7900 -1.3886 -1.8391
 2189SOL    HW2 8168   0.264   4.382   0.192 -1.6935 -0.0961  0.6906
 2190SOL     OW 8169   6.558   0.250   0.238  0.4199  0.2921  0.1265
 2190SOL    HW1 8170   6.598   0.276   0.150  0.0645  0.7847  0.1061
 2190SOL    HW2 8171   6.503   0.167   0.227 -1.3245  1.4803 -0.5841
 2191SOL     OW 8172   6.065   1.714   1.289  0.0966 -0.0057 -0.0711
 2191SOL    HW1 8173   6.130   1.717   1.364 -0.4029 -0.0012  0.3689
 2191SOL    HW2 8174   6.034   1.807   1.267  0.9875  0.0976 -0.9519
 2192SOL     OW 8175   6.050   5.474   0.983  0.3948  0.6815  0.2145
 2192SOL    HW1 8176   6.078   5.422   0.902 -0.7150  0.9635 -0.3715
 2192SOL    HW2 8177   5.964   5.521   0.964 -0.3538  0.0467  1.8560
 2193SOL     OW 8178   4.056   0.189   6.506  0.3688  0.7200  0.4774
 2193SOL    HW1 8179   4.006   0.265   6.547 -1.5634 -0.0696 -0.2874
 2193SOL    HW2 8180   3.992   0.128   6.460  2.0271 -0.5967 -0.2015
 2194SOL     OW 8181   4.148   6.717   1.018 -0.4628 -0.2768  0.1059
 2194SOL    HW1 8182   4.064   6.706   1.071 -1.1705 -0.6239 -1.0495
 2194SOL    HW2 8183   4.125   6.741   0.924  0.8033  1.3782  0.1864
 2195SOL     OW 8184   0.596   2.774   2.779  0.0444 -0.1617 -0.0492
 2195SOL    HW1 8185   0.497   2.769   2.791  0.0776  1.7418  1.4819
 2195SOL    HW2 8186   0.618   2.775   2.681 -1.4717 -0.0803 -0.4099
 2196SOL     OW 8187   4.363   5.726   3.413  0.1317 -0.2096  0.3940
 2196SOL    HW1 8188   4.407   5.638   3.397  0.8819  0.0976  0.7501
 2196SOL    HW2 8189   4.399   5.767   3.497  0.1954  0.6934 -0.0593
 2197SOL     OW 8190   5.627   0.281   3.657  0.2417 -0.0341 -0.5088
 2197SOL    HW1 8191   5.528   0.272   3.658  0.0854 -0.1071 -3.7841
 2197SOL    HW2 8192   5.652   0.377   3.647  0.5732  0.0655  1.0709
 2198SOL     OW 8193   2.883   0.585   2.423 -0.5787 -0.0748  0.2997
 2198SOL    HW1 8194   2.911   0.602   2.517  1.7671 -2.9543  0.2866
 2198SOL    HW2 8195   2.881   0.671   2.372  1.0870  1.2136  2.2612
 2199SOL     OW 8196   1.087   2.147   0.737  0.7781 -0.1748 -0.2964
 2199SOL    HW1 8197   0.988   2.163   0.744  0.5029 -2.3184  2.3820
 2199SOL    HW2 8198   1.103   2.059   0.691  1.3747 -0.2943  0.1323
 2200SOL     OW 8199   6.756   1.255   0.615 -0.1470  0.2770 -0.3309
 2200SOL    HW1 8200   6.688   1.310   0.566  0.0245  1.3502  0.5996
 2200SOL    HW2 8201   6.714   1.219   0.699  0.0322 -0.2288 -0.4547
 2201SOL     OW 8202   1.509   4.644   3.191 -0.0378  0.1537  0.0319
 2201SOL    HW1 8203   1.585   4.605   3.140 -1.2620 -1.6411 -0.5364
 2201SOL    HW2 8204   1.516   4.744   3.190  1.2748  0.0940 -1.6212
 2202SOL     OW 8205   1.973   0.287   5.635 -0.2965 -0.4518  0.6085
 2202SOL    HW1 8206   2.001   0.211   5.693  0.3390 -1.1621 -0.5995
 2202SOL    HW2 8207   2.005   0.272   5.541  0.5281  1.6528  0.4776
 2203SOL     OW 8208   6.392   0.801   1.365  0.1471 -0.0117 -0.3365
 2203SOL    HW1 8209   6.440   0.877   1.408  0.9906 -0.3282 -0.6902
 2203SOL    HW2 8210   6.452   0.758   1.297 -0.9506  0.1409 -1.4375
 2204SOL     OW 8211   3.289   6.583   4.417  0.0257 -0.2966  0.9560
 2204SOL    HW1 8212   3.274   6.611   4.512  0.5460 -1.3682  1.3680
 2204SOL    HW2 8213   3.382   6.550   4.406 -0.2376 -0.8270  0.2351
 2205SOL     OW 8214   0.782   5.241   2.615 -0.1695 -0.0526 -0.0221
 2205SOL    HW1 8215   0.739   5.269   2.529 -2.1833 -1.8000  0.3211
 2205SOL    HW2 8216   0.769   5.142   2.627 -0.3251  0.2247  2.4972
 2206SOL     OW 8217   0.708   3.939   6.803 -0.6109  0.2702  0.2269
 2206SOL    HW1 8218   0.612   3.925   6.782 -0.4446  1.2381 -1.3325
 2206SOL    HW2 8219   0.751   3.852   6.824 -1.2091 -0.5966 -1.8713
 2207SOL     OW 8220   5.705   6.571   1.157 -0.1174 -0.1079  0.2944
 2207SOL    HW1 8221   5.623   6.623   1.180 -0.0785 -0.0345  0.2665
 2207SOL    HW2 8222   5.678   6.482   1.120 -0.2182  0.4974 -1.1428
 2208SOL     OW 8223   5.301   2.339   0.178 -0.5159 -0.1828  0.0890
 2208SOL    HW1 8224   5.248   2.424   0.180 -0.0625  0.1126 -0.2798
 2208SOL    HW2 8225   5.295   2.294   0.267 -0.6305  0.3143  0.3394
 2209SOL     OW 8226   4.126   5.436   6.594  0.0742 -0.1111  0.1681
 2209SOL    HW1 8227   4.140   5.396   6.503  1.7881  0.1888  0.2695
 2209SOL    HW2 8228   4.083   5.368   6.654  0.0775 -0.7311 -0.5231
 2210SOL     OW 8229   3.358   3.306   6.024 -0.0194  0.1932  0.2145
 2210SOL    HW1 8230   3.332   3.213   6.050  1.1125 -0.5241 -1.0915
 2210SOL    HW2 8231   3.389   3.307   5.929  0.1063  1.8964  0.2369
 2211SOL     OW 8232   5.114   5.006   5.856  0.0374  0.0403  0.4039
 2211SOL    HW1 8233   5.167   5.083   5.891 -0.1622  0.2414  0.2662
 2211SOL    HW2 8234   5.017   5.022   5.872 -0.1563  0.6306 -1.1768
 2212SOL     OW 8235   2.385   6.025   0.766  0.0895  0.8434  0.1933
 2212SOL    HW1 8236   2.403   5.928   0.747 -0.8460  0.1770  2.3194
 2212SOL    HW2 8237   2.468   6.078   0.749  0.1711 -0.0204 -2.5842
 2213SOL     OW 8238   3.236   3.987   5.883 -0.3732  0.0925 -0.0504
 2213SOL    HW1 8239   3.326   3.945   5.895 -0.5563  0.0053  1.1569
 2213SOL    HW2 8240   3.244   4.086   5.893 -0.3639  0.1081 -0.2179
 2214SOL     OW 8241   0.163   5.918   5.419 -0.5867  0.1414 -0.3730
 2214SOL    HW1 8242   0.181   5.948   5.325 -0.9098 -0.4215 -0.6183
 2214SOL    HW2 8243   0.246   5.875   5.456 -0.9105 -0.9910 -0.9347
 2215SOL     OW 8244   1.106   6.892   3.940  0.1749 -0.1273  0.4964
 2215SOL    HW1 8245   1.201   6.914   3.963 -0.1293  2.4202 -0.3181
 2215SOL    HW2 8246   1.096   6.887   3.840 -0.7566  0.9275  0.5143
 2216SOL     OW 8247   2.409   0.504   6.121 -0.5148 -0.0435 -0.6251
 2216SOL    HW1 8248   2.337   0.526   6.055 -1.3504  0.4350  0.4352
 2216SOL    HW2 8249   2.445   0.412   6.101 -0.2684  0.3443 -2.1563
 2217SOL     OW 8250   2.116   6.831   5.778  0.2086  0.1039 -0.0683
 2217SOL    HW1 8251   2.166   6.800   5.859 -0.5734  1.1601  0.8608
 2217SOL    HW2 8252   2.160   6.796   5.696  2.5055  1.0239  0.6903
 2218SOL     OW 8253   0.924   4.771   3.445  0.0717  0.2037  0.2945
 2218SOL    HW1 8254   0.964   4.831   3.375 -2.7317  1.7368 -0.1284
 2218SOL    HW2 8255   0.863   4.824   3.503 -0.6697 -1.8262  1.4455
 2219SOL     OW 8256   2.604   4.260   0.241 -0.1153  0.4628  0.0439
 2219SOL    HW1 8257   2.539   4.336   0.241 -1.4770 -0.6481 -0.4439
 2219SOL    HW2 8258   2.590   4.204   0.159  1.6854  0.3420 -0.2188
 2220SOL     OW 8259   0.979   6.923   6.824 -0.3967 -0.4252 -0.2659
 2220SOL    HW1 8260   1.071   6.917   6.863 -0.6309  0.9820  0.5585
 2220SOL    HW2 8261   0.968   6.853   6.753  1.3480 -0.5060 -0.4889
 2221SOL     OW 8262   2.404   6.122   6.859 -0.1296  0.2342  0.6308
 2221SOL    HW1 8263   2.415   6.195   6.926 -0.0287 -0.2069  1.1036
 2221SOL    HW2 8264   2.494   6.091   6.828 -0.1781  0.4958  0.2271
 2222SOL     OW 8265   6.203   2.379   3.960 -1.2533  0.3731  0.3737
 2222SOL    HW1 8266   6.137   2.306   3.950 -2.1440  1.3810 -2.0355
 2222SOL    HW2 8267   6.253   2.390   3.874  0.9851  0.6725  1.6297
 2223SOL     OW 8268   2.914   0.946   1.098 -0.6581  0.0339  0.3445
 2223SOL    HW1 8269   2.881   1.029   1.142 -1.3876 -1.4459  2.7207
 2223SOL    HW2 8270   2.846   0.913   1.033 -2.6375 -1.3030  2.9500
 2224SOL     OW 8271   2.017   1.850   0.427 -0.0168 -0.2869 -0.3125
 2224SOL    HW1 8272   2.092   1.847   0.360 -1.1802 -0.0047 -1.6700
 2224SOL    HW2 8273   1.956   1.772   0.413  0.0916 -0.6181  0.9047
 2225SOL     OW 8274   2.895   1.409   1.660  0.3941  0.3830  0.0671
 2225SOL    HW1 8275   2.847   1.457   1.734  1.3173  1.4903 -0.0270
 2225SOL    HW2 8276   2.847   1.424   1.574 -1.6859 -2.3327  0.6236
 2226SOL     OW 8277   2.857   3.364   4.090 -0.0662  0.0050  0.0140
 2226SOL    HW1 8278   2.914   3.283   4.105  0.9267  0.1921 -2.3005
 2226SOL    HW2 8279   2.845   3.378   3.991 -3.1354  0.7092  0.3878
 2227SOL     OW 8280   1.411   0.434   2.221  0.6274  0.1085  0.0303
 2227SOL    HW1 8281   1.380   0.416   2.128 -2.9330 -1.1211  1.2887
 2227SOL    HW2 8282   1.397   0.530   2.243 -0.8874 -0.0899  0.0219
 2228SOL     OW 8283   5.421   4.629   5.718  0.2701 -0.1260 -0.1372
 2228SOL    HW1 8284   5.396   4.534   5.734 -0.5065  0.2304  0.8662
 2228SOL    HW2 8285   5.339   4.683   5.697  0.3131  0.8018  1.8807
 2229SOL     OW 8286   1.570   1.569   6.101  0.9316 -0.1769  0.1802
 2229SOL    HW1 8287   1.510   1.571   6.181  1.5156  0.5424  0.6117
 2229SOL    HW2 8288   1.514   1.558   6.019  0.1932  0.4670  0.5740
 2230SOL     OW 8289   0.103   6.970   0.270 -0.0936  0.4257 -0.1384
 2230SOL    HW1 8290   0.051   6.920   0.340 -0.3036 -0.1322 -0.6932
 2230SOL    HW2 8291   0.040   7.007   0.202  0.1182  0.9346 -0.0634
 2231SOL     OW 8292   4.746   2.053   5.349  0.1474 -0.2362 -0.0129
 2231SOL    HW1 8293   4.746   1.960   5.313 -0.9203 -1.3690  2.6533
 2231SOL    HW2 8294   4.662   2.099   5.321 -0.1200 -0.6909  0.0179
 2232SOL     OW 8295   1.457   5.327   3.515  0.4099 -0.0129 -0.6464
 2232SOL    HW1 8296   1.449   5.229   3.535 -0.7619  0.3710  0.9550
 2232SOL    HW2 8297   1.365   5.366   3.503  0.8063  1.1016 -0.1682
 2233SOL     OW 8298   4.112   1.755   4.296 -0.0316 -0.3392 -0.3220
 2233SOL    HW1 8299   4.170   1.681   4.329 -0.2713 -0.1022  0.6685
 2233SOL    HW2 8300   4.148   1.790   4.210 -0.4857 -2.2832 -1.3674
 2234SOL     OW 8301   4.424   1.002   6.517  0.3170  0.0667 -0.7202
 2234SOL    HW1 8302   4.355   0.938   6.482  0.5962  0.5476 -2.1869
 2234SOL    HW2 8303   4.499   1.011   6.451  0.8661  1.0036  0.0020
 2235SOL     OW 8304   5.805   0.551   6.507 -0.3752 -0.3925  0.1586
 2235SOL    HW1 8305   5.719   0.584   6.545 -1.6246 -2.2212 -0.9145
 2235SOL    HW2 8306   5.832   0.609   6.430  0.0614  0.9369  1.2788
 2236SOL     OW 8307   3.613   1.606   2.660 -0.0197 -0.8954  0.0790
 2236SOL    HW1 8308   3.567   1.664   2.593  0.1214 -1.1577 -0.2433
 2236SOL    HW2 8309   3.653   1.527   2.615  1.9680  0.0254  0.1346
 2237SOL     OW 8310   4.465   2.344   6.155  0.0259 -0.2680 -0.1529
 2237SOL    HW1 8311   4.561   2.343   6.183 -0.2816  0.6766  1.0170
 2237SOL    HW2 8312   4.454   2.290   6.071  1.5740 -0.3500 -0.3316
 2238SOL     OW 8313   3.381   5.467   6.192  0.0672  0.5212 -0.2476
 2238SOL    HW1 8314   3.290   5.495   6.161 -0.0707  0.5425  0.1740
 2238SOL    HW2 8315   3.435   5.436   6.113 -0.8810 -1.1469 -0.2880
 2239SOL     OW 8316   0.833   5.641   2.959  0.5988 -0.0651  0.5415
 2239SOL    HW1 8317   0.855   5.563   3.018  1.8756 -0.6433 -0.6423
 2239SOL    HW2 8318   0.895   5.642   2.881  0.4260  1.9973  0.3747
 2240SOL     OW 8319   4.937   5.329   5.340 -0.6729  0.0217  0.2103
 2240SOL    HW1 8320   4.919   5.283   5.253  0.6917  1.9167 -1.1804
 2240SOL    HW2 8321   4.885   5.415   5.342  0.4747  0.7239  0.5614
 2241SOL     OW 8322   2.099   1.802   2.502  0.0080  0.0003  0.3874
 2241SOL    HW1 8323   2.049   1.716   2.512 -1.7181  0.4842 -2.7294
 2241SOL    HW2 8324   2.051   1.874   2.551  0.0088 -0.3269  0.8744
 2242SOL     OW 8325   5.293   5.448   3.676 -0.0486  0.3435 -0.3588
 2242SOL    HW1 8326   5.337   5.359   3.673 -0.9163 -0.0826 -0.6811
 2242SOL    HW2 8327   5.335   5.508   3.608 -0.6218 -0.3740 -1.3707
 2243SOL     OW 8328   3.449   4.558   1.628  0.1334 -0.2712  0.1859
 2243SOL    HW1 8329   3.494   4.508   1.702  3.6787 -1.5313 -2.5033
 2243SOL    HW2 8330   3.476   4.518   1.541 -1.7710  2.6800 -1.9272
 2244SOL     OW 8331   1.159   4.857   5.958  0.1432  0.6111  0.3270
 2244SOL    HW1 8332   1.181   4.820   5.868  1.3386  0.4195  0.6870
 2244SOL    HW2 8333   1.066   4.895   5.956 -0.8743 -1.7092 -0.2666
 2245SOL     OW 8334   3.500   1.282   4.242  0.4536 -0.3901  0.1551
 2245SOL    HW1 8335   3.473   1.335   4.162  0.9065  0.5885  0.6305
 2245SOL    HW2 8336   3.581   1.324   4.284  1.2757 -1.8745  0.1264
 2246SOL     OW 8337   5.120   2.907   3.456 -0.2235  0.4795 -0.2156
 2246SOL    HW1 8338   5.091   2.971   3.527  2.4439  1.4851  0.0495
 2246SOL    HW2 8339   5.186   2.842   3.494 -0.8407 -0.7481 -1.1499
 2247SOL     OW 8340   3.974   6.044   4.213 -0.6271 -0.3929 -0.2356
 2247SOL    HW1 8341   3.886   6.016   4.173 -0.9970  1.3782 -0.7982
 2247SOL    HW2 8342   3.990   6.141   4.191  0.0273  0.1676  2.4211
 2248SOL     OW 8343   5.946   5.212   2.381  0.2238  0.0200  0.3887
 2248SOL    HW1 8344   5.860   5.165   2.360  0.6261 -1.9291  2.6659
 2248SOL    HW2 8345   6.022   5.164   2.335  0.4207 -0.3740  1.1053
 2249SOL     OW 8346   0.327   2.417   4.469 -0.2169 -0.5320 -0.4058
 2249SOL    HW1 8347   0.373   2.331   4.446  1.4981  0.4926 -0.9775
 2249SOL    HW2 8348   0.381   2.466   4.538  0.3718  1.3354 -2.0939
 2250SOL     OW 8349   2.519   3.715   4.059 -0.0414 -0.3553  0.1458
 2250SOL    HW1 8350   2.535   3.665   3.973  1.4988  1.0993 -0.4522
 2250SOL    HW2 8351   2.606   3.738   4.101 -0.7716 -0.0955  1.5764
 2251SOL     OW 8352   3.136   0.803   5.891 -0.1927  0.2994  0.2324
 2251SOL    HW1 8353   3.233   0.812   5.911 -0.0533  0.2754 -0.4369
 2251SOL    HW2 8354   3.086   0.879   5.934  0.3439  1.3465 -0.9609
 2252SOL     OW 8355   1.249   3.775   0.836  0.3738  0.2347 -0.3092
 2252SOL    HW1 8356   1.165   3.807   0.880  0.2448 -1.2458  0.5603
 2252SOL    HW2 8357   1.231   3.760   0.738 -0.3271  0.0642 -0.1618
 2253SOL     OW 8358   5.708   1.883   5.581 -0.0564  0.0058 -0.3102
 2253SOL    HW1 8359   5.791   1.895   5.527 -0.5094 -0.6241 -1.1691
 2253SOL    HW2 8360   5.631   1.927   5.535 -1.0085 -2.8107 -1.6673
 2254SOL     OW 8361   4.555   1.905   0.754 -0.1382  0.3465 -0.6254
 2254SOL    HW1 8362   4.618   1.979   0.730  2.3332  0.1288  4.0361
 2254SOL    HW2 8363   4.607   1.825   0.784 -2.7216 -1.2682 -0.1126
 2255SOL     OW 8364   4.918   4.038   3.423  0.2518  0.1616 -0.0191
 2255SOL    HW1 8365   4.963   4.040   3.513 -0.3934  0.4876  0.2979
 2255SOL    HW2 8366   4.898   3.943   3.399  0.4672  0.0676  0.1605
 2256SOL     OW 8367   1.470   1.394   3.553 -0.0601 -0.5610 -0.5455
 2256SOL    HW1 8368   1.474   1.416   3.651 -0.7129  1.9914 -1.0109
 2256SOL    HW2 8369   1.554   1.427   3.508 -0.1642 -0.9031 -1.0009
 2257SOL     OW 8370   1.393   5.509   0.562  0.0089  0.6143  0.1230
 2257SOL    HW1 8371   1.383   5.564   0.479 -1.3268  1.1895  0.6448
 2257SOL    HW2 8372   1.337   5.548   0.635 -1.0410 -1.4566  0.5018
 2258SOL     OW 8373   4.354   1.950   1.662 -0.4819  0.0554  0.8770
 2258SOL    HW1 8374   4.404   1.892   1.598  0.4873  1.9716 -0.2003
 2258SOL    HW2 8375   4.259   1.920   1.668 -1.1330  0.9114 -2.9855
 2259SOL     OW 8376   3.310   2.324   5.794 -0.0658  0.0868  0.1592
 2259SOL    HW1 8377   3.316   2.424   5.806  3.2993 -0.0676  1.0132
 2259SOL    HW2 8378   3.323   2.280   5.883  0.0807 -1.1209 -0.4493
 2260SOL     OW 8379   0.023   0.443   4.479 -0.0651  0.2324  0.7275
 2260SOL    HW1 8380  -0.037   0.363   4.474  1.7061 -1.1183  0.3949
 2260SOL    HW2 8381   0.115   0.415   4.506  1.0328  1.9082 -0.9970
 2261SOL     OW 8382   6.579   3.457   4.633  0.2010  0.0377  0.4837
 2261SOL    HW1 8383   6.485   3.435   4.657 -0.1661 -0.8081 -1.5104
 2261SOL    HW2 8384   6.632   3.373   4.625  0.4839  0.3172 -0.7759
 2262SOL     OW 8385   0.583   5.235   0.176 -0.3278  0.3379 -0.1254
 2262SOL    HW1 8386   0.635   5.279   0.103  0.0211 -0.4080 -0.3296
 2262SOL    HW2 8387   0.511   5.179   0.137 -0.7716  0.7239  0.1363
 2263SOL     OW 8388   4.650   2.821   0.480 -0.5453  0.2649 -0.4325
 2263SOL    HW1 8389   4.568   2.783   0.523 -1.7230  0.8571 -2.0627
 2263SOL    HW2 8390   4.649   2.802   0.382  1.8652 -0.7029 -0.3507
 2264SOL     OW 8391   2.822   4.323   0.396  0.0449 -0.1309 -0.0209
 2264SOL    HW1 8392   2.739   4.292   0.348 -1.5822  2.2374  1.0819
 2264SOL    HW2 8393   2.812   4.419   0.421  3.2239  0.2533  0.0925
 2265SOL     OW 8394   1.018   0.419   0.860 -0.1938 -0.3819  0.3639
 2265SOL    HW1 8395   0.979   0.419   0.768  1.6061 -1.6253 -0.4684
 2265SOL    HW2 8396   0.962   0.364   0.921 -0.7081 -0.6425 -0.3345
 2266SOL     OW 8397   6.232   1.725   5.974 -0.3232  0.3588  0.2442
 2266SOL    HW1 8398   6.312   1.677   6.010 -0.1923  0.6544  0.3492
 2266SOL    HW2 8399   6.172   1.753   6.049 -2.2251 -2.7412  0.0481
 2267SOL     OW 8400   1.270   0.898   1.110  0.1747 -0.0208 -0.4089
 2267SOL    HW1 8401   1.273   0.898   1.011  1.1407 -3.1869 -0.4794
 2267SOL    HW2 8402   1.214   0.821   1.142  1.1142  0.0237  1.4959
 2268SOL     OW 8403   0.882   4.754   5.757 -0.3722 -0.2281 -0.2815
 2268SOL    HW1 8404   0.802   4.711   5.800 -0.9190  0.8229 -0.2114
 2268SOL    HW2 8405   0.866   4.762   5.658 -0.8662  1.0077 -0.1217
 2269SOL     OW 8406   2.732   5.113   2.746  0.4380  0.0892  0.0444
 2269SOL    HW1 8407   2.688   5.089   2.659  0.9916  0.5376 -0.3651
 2269SOL    HW2 8408   2.804   5.180   2.730 -0.0066  0.8181  0.9683
 2270SOL     OW 8409   6.826   0.432   3.560 -0.3482  0.5244  0.4065
 2270SOL    HW1 8410   6.844   0.341   3.523 -1.3037 -0.1098  1.4410
 2270SOL    HW2 8411   6.742   0.430   3.614 -0.8390  2.2157 -0.2248
 2271SOL     OW 8412   5.209   0.560   1.391  0.1210  0.0836 -0.1900
 2271SOL    HW1 8413   5.233   0.472   1.348  1.9470 -0.8041  2.3767
 2271SOL    HW2 8414   5.114   0.557   1.422 -0.5692 -0.0400 -2.1581
 2272SOL     OW 8415   1.868   6.016   3.453  0.3351  0.6963  0.3555
 2272SOL    HW1 8416   1.938   5.945   3.441 -2.5561 -2.2273 -0.8935
 2272SOL    HW2 8417   1.807   6.016   3.374 -1.9259  2.0696  1.9747
 2273SOL     OW 8418   4.964   2.507   4.949 -0.5230  0.2795  0.3986
 2273SOL    HW1 8419   4.962   2.413   4.916 -0.7888  0.6300 -0.6238
 2273SOL    HW2 8420   5.044   2.554   4.912  0.6939 -0.0659  2.4618
 2274SOL     OW 8421   2.241   1.823   0.293 -0.2441  0.6107 -0.8685
 2274SOL    HW1 8422   2.255   1.776   0.206  2.3755 -1.1264  0.3584
 2274SOL    HW2 8423   2.273   1.918   0.285  2.6540 -0.2960 -1.1552
 2275SOL     OW 8424   0.900   0.867   5.946  0.1525 -0.2058  0.6795
 2275SOL    HW1 8425   0.988   0.819   5.954  0.9130  0.7442 -1.3170
 2275SOL    HW2 8426   0.894   0.936   6.018  1.7427  0.7021  0.0080
 2276SOL     OW 8427   2.448   6.513   2.441  0.5347  0.3385  0.1820
 2276SOL    HW1 8428   2.504   6.465   2.509 -0.8226 -1.4147  0.1299
 2276SOL    HW2 8429   2.357   6.472   2.439 -0.7740  3.0690  0.2122
 2277SOL     OW 8430   1.189   4.887   2.181  0.0629 -0.7308 -0.1515
 2277SOL    HW1 8431   1.165   4.832   2.260  1.6487 -0.8164  0.3055
 2277SOL    HW2 8432   1.289   4.888   2.169 -0.0445  0.5012 -1.2585
 2278SOL     OW 8433   1.631   1.158   3.856 -0.2216 -0.3039 -0.3174
 2278SOL    HW1 8434   1.594   1.221   3.923  0.6664  0.6721 -0.7281
 2278SOL    HW2 8435   1.730   1.150   3.867 -0.2316 -1.1168 -0.6963
 2279SOL     OW 8436   3.583   0.658   3.227  0.3600  0.5917 -0.0446
 2279SOL    HW1 8437   3.592   0.591   3.301 -1.7281 -0.6352 -0.8103
 2279SOL    HW2 8438   3.577   0.750   3.266  1.6038  0.2137  1.1322
 2280SOL     OW 8439   0.268   0.431   3.402  0.3367  0.1544  0.1049
 2280SOL    HW1 8440   0.194   0.488   3.439  1.7054  1.9720  0.1964
 2280SOL    HW2 8441   0.356   0.476   3.418  1.3780 -1.3508 -1.0843
 2281SOL     OW 8442   4.918   5.408   2.955 -0.5873 -0.0235  0.2759
 2281SOL    HW1 8443   4.823   5.377   2.957 -0.3494 -0.7501  1.6050
 2281SOL    HW2 8444   4.947   5.430   3.048  0.8173 -0.6430 -0.0032
 2282SOL     OW 8445   2.281   5.136   4.767  0.5922  0.3895  0.0881
 2282SOL    HW1 8446   2.191   5.175   4.750  1.0838  1.3463 -0.3926
 2282SOL    HW2 8447   2.273   5.036   4.777 -0.7387  0.6034  1.6681
 2283SOL     OW 8448   2.994   5.932   2.102  0.3321 -0.3258 -0.0008
 2283SOL    HW1 8449   3.067   5.889   2.156 -0.3944 -1.4223  0.1262
 2283SOL    HW2 8450   2.981   6.026   2.134 -1.1002 -1.3559  2.8659
 2284SOL     OW 8451   3.158   0.341   4.475 -0.1376  0.2744 -0.3812
 2284SOL    HW1 8452   3.152   0.359   4.573  0.6253 -2.0032  0.1486
 2284SOL    HW2 8453   3.250   0.309   4.452 -1.0434 -1.9175 -1.2880
 2285SOL     OW 8454   6.589   2.957   5.076  0.1435  0.6926 -0.5275
 2285SOL    HW1 8455   6.507   3.003   5.110 -0.0867  0.3980 -0.6774
 2285SOL    HW2 8456   6.562   2.883   5.015  0.3477 -1.4720  1.8108
 2286SOL     OW 8457   2.574   2.245   0.941  0.0323  0.0776  0.0560
 2286SOL    HW1 8458   2.481   2.207   0.933  0.7441 -1.5736 -0.7502
 2286SOL    HW2 8459   2.640   2.178   0.909  1.8294 -0.1301  3.7294
 2287SOL     OW 8460   1.736   3.740   5.306 -0.7532  0.3742  0.4910
 2287SOL    HW1 8461   1.810   3.763   5.369 -0.1045  0.0352 -0.1171
 2287SOL    HW2 8462   1.718   3.642   5.311 -0.1492  0.1969 -0.3875
 2288SOL     OW 8463   6.387   5.226   6.124  0.0913 -0.4938  0.0288
 2288SOL    HW1 8464   6.368   5.240   6.027 -1.2032  1.3765  0.5044
 2288SOL    HW2 8465   6.305   5.191   6.169 -0.2986  1.5267  0.9640
 2289SOL     OW 8466   6.117   6.181   3.669  0.1743  0.0432  0.0897
 2289SOL    HW1 8467   6.113   6.244   3.747  1.3082 -0.1011  0.2745
 2289SOL    HW2 8468   6.139   6.233   3.586 -0.5913  0.1301 -0.0689
 2290SOL     OW 8469   0.091   4.470   6.723 -0.0246  0.9354  0.6295
 2290SOL    HW1 8470   0.054   4.544   6.780  1.0495  1.4885  0.6379
 2290SOL    HW2 8471   0.114   4.392   6.782 -0.7593  0.7502  0.6791
 2291SOL     OW 8472   3.896   2.030   1.844 -0.7886  0.2785  0.0452
 2291SOL    HW1 8473   3.824   2.093   1.872 -0.4773  0.6128  0.0959
 2291SOL    HW2 8474   3.927   1.978   1.924 -0.8505  0.2609  0.0578
 2292SOL     OW 8475   5.505   2.872   3.740 -0.0311 -0.3777  0.3044
 2292SOL    HW1 8476   5.487   2.941   3.670  0.9887 -1.0460 -0.6581
 2292SOL    HW2 8477   5.586   2.897   3.792 -0.3734 -0.2368  0.7696
 2293SOL     OW 8478   2.140   1.411   5.732 -0.1060 -0.5081 -0.0963
 2293SOL    HW1 8479   2.150   1.360   5.646  0.8604 -1.0232  0.2950
 2293SOL    HW2 8480   2.221   1.467   5.747 -0.5576  0.0792  0.1620
 2294SOL     OW 8481   2.205   0.279   4.067 -0.0309 -0.3936 -0.3183
 2294SOL    HW1 8482   2.216   0.210   3.996 -0.1284  0.0993 -0.8173
 2294SOL    HW2 8483   2.121   0.261   4.118 -0.2726 -0.3970 -0.7178
 2295SOL     OW 8484   2.557   1.005   3.093  0.6524 -0.1095 -0.0953
 2295SOL    HW1 8485   2.603   1.093   3.083  0.8714 -0.3602 -1.4514
 2295SOL    HW2 8486   2.462   1.020   3.122  1.3856  0.4271  2.2433
 2296SOL     OW 8487   4.938   6.811   3.018 -0.5142 -0.1420 -0.7840
 2296SOL    HW1 8488   4.853   6.842   2.974 -0.0979  0.7165 -1.0148
 2296SOL    HW2 8489   4.950   6.860   3.104 -0.1853 -0.1615 -0.8190
 2297SOL     OW 8490   4.571   1.355   5.809  0.1598  0.0239  0.2680
 2297SOL    HW1 8491   4.614   1.272   5.844 -0.7846 -0.4050  0.4535
 2297SOL    HW2 8492   4.498   1.384   5.871  0.4226  0.9555  0.1604
 2298SOL     OW 8493   0.727   6.339   1.621 -0.0518 -0.3552  0.7492
 2298SOL    HW1 8494   0.694   6.256   1.575 -0.0153  0.1546 -0.2428
 2298SOL    HW2 8495   0.662   6.414   1.604  0.0689 -0.1045  1.3783
 2299SOL     OW 8496   0.512   1.109   2.209  0.2932  0.6306 -0.7913
 2299SOL    HW1 8497   0.575   1.158   2.270  0.7885 -1.1688  0.2115
 2299SOL    HW2 8498   0.424   1.157   2.207 -0.2897 -0.0032  2.6045
 2300SOL     OW 8499   5.043   2.832   5.851  0.3899 -0.2276  0.1293
 2300SOL    HW1 8500   4.979   2.756   5.864  0.6507 -0.3044  1.0433
 2300SOL    HW2 8501   5.010   2.891   5.776  0.6097 -1.6683 -1.1533
 2301SOL     OW 8502   3.924   3.279   1.048 -0.3493  0.0296 -0.2430
 2301SOL    HW1 8503   3.857   3.328   0.992  2.4339  3.7711 -0.6847
 2301SOL    HW2 8504   3.934   3.324   1.136  0.1711 -1.7007  0.6434
 2302SOL     OW 8505   0.157   0.614   5.369  0.2681  0.1505 -0.2611
 2302SOL    HW1 8506   0.177   0.518   5.386 -0.4140  0.2384  1.2195
 2302SOL    HW2 8507   0.236   0.670   5.396  0.4784  0.0405 -0.6492
 2303SOL     OW 8508   6.103   3.607   3.418  0.8185  0.0029 -0.2163
 2303SOL    HW1 8509   6.078   3.572   3.327 -1.3455 -0.0003  0.3227
 2303SOL    HW2 8510   6.085   3.536   3.487 -0.7272  1.0753  0.5463
 2304SOL     OW 8511   4.735   1.140   5.885 -0.3551 -0.1310 -0.3173
 2304SOL    HW1 8512   4.731   1.044   5.854  1.1339 -0.5450  0.6323
 2304SOL    HW2 8513   4.777   1.143   5.975  2.1535  1.6072 -1.4398
 2305SOL     OW 8514   4.580   2.271   4.440  0.1514  0.1150 -1.0169
 2305SOL    HW1 8515   4.496   2.228   4.474  1.3550 -0.9109  0.7892
 2305SOL    HW2 8516   4.608   2.227   4.355 -0.5982 -0.1920 -1.1159
 2306SOL     OW 8517   0.616   6.089   5.757  0.0434 -0.1758  0.3332
 2306SOL    HW1 8518   0.708   6.121   5.731  0.5437  0.3091  2.5211
 2306SOL    HW2 8519   0.622   5.999   5.799 -0.4436  0.0056  0.7989
 2307SOL     OW 8520   1.359   2.281   7.007  0.4953  0.2145  0.4502
 2307SOL    HW1 8521   1.352   2.293   7.106  1.0309  0.7775  0.4228
 2307SOL    HW2 8522   1.393   2.189   6.988 -0.0941 -0.0761  0.7708
 2308SOL     OW 8523   3.407   5.869   3.933 -0.6868  0.4642  0.4950
 2308SOL    HW1 8524   3.438   5.961   3.958  1.0773 -0.0904  0.4885
 2308SOL    HW2 8525   3.439   5.804   4.002 -1.0004 -0.2795 -0.0565
 2309SOL     OW 8526   4.620   2.896   6.980 -0.3395 -0.0603 -0.0128
 2309SOL    HW1 8527   4.645   2.867   6.888 -1.5526  2.3535 -1.1962
 2309SOL    HW2 8528   4.623   2.996   6.986 -0.5039 -0.1414  2.5195
 2310SOL     OW 8529   3.006   5.832   2.869 -0.5407 -0.2411 -0.0598
 2310SOL    HW1 8530   3.040   5.913   2.822 -0.0032 -0.2577  0.2951
 2310SOL    HW2 8531   3.004   5.754   2.806  0.4390 -0.3332  0.0078
 2311SOL     OW 8532   2.461   5.797   0.191  0.8324  0.0737 -0.3316
 2311SOL    HW1 8533   2.455   5.894   0.168  1.4480  0.0448 -0.6339
 2311SOL    HW2 8534   2.407   5.779   0.273  0.4304  0.6038 -0.4720
 2312SOL     OW 8535   0.703   0.832   1.703 -0.6131  0.1667 -0.2719
 2312SOL    HW1 8536   0.672   0.812   1.610  0.3013 -1.1017 -0.3397
 2312SOL    HW2 8537   0.681   0.754   1.762 -1.6224  1.1682  0.6993
 2313SOL     OW 8538   6.149   3.595   1.596 -0.1567 -0.1216 -0.4268
 2313SOL    HW1 8539   6.183   3.544   1.517 -2.3115  0.0315 -1.5074
 2313SOL    HW2 8540   6.050   3.584   1.603 -0.1490  0.7375  1.6530
 2314SOL     OW 8541   1.616   5.280   2.834 -0.6940  0.2027 -0.1646
 2314SOL    HW1 8542   1.652   5.187   2.836 -0.3858  0.2997 -1.1144
 2314SOL    HW2 8543   1.611   5.316   2.928  0.6653 -0.1899  0.0678
 2315SOL     OW 8544   0.087   1.167   3.377  0.0440 -0.0689  0.2026
 2315SOL    HW1 8545   0.153   1.222   3.427  0.1880 -1.0822  1.1736
 2315SOL    HW2 8546   0.101   1.179   3.279  1.9075 -0.5141  0.3771
 2316SOL     OW 8547   2.034   0.185   7.006  0.2276  0.2241  1.1678
 2316SOL    HW1 8548   2.054   0.112   7.072 -0.5916 -0.1925  0.9734
 2316SOL    HW2 8549   1.974   0.149   6.934 -0.2912  1.1160  1.1384
 2317SOL     OW 8550   6.822   3.075   5.201 -0.2030  0.7299  0.1728
 2317SOL    HW1 8551   6.782   3.061   5.110 -0.0502  0.0897  0.2023
 2317SOL    HW2 8552   6.910   3.121   5.192  1.0332 -1.5960 -0.2116
 2318SOL     OW 8553   6.688   4.680   2.878 -0.0427 -0.5956 -0.9313
 2318SOL    HW1 8554   6.607   4.629   2.850 -0.0956 -0.2201 -1.4810
 2318SOL    HW2 8555   6.770   4.625   2.862 -0.0550 -0.3220 -2.0366
 2319SOL     OW 8556   1.024   3.888   6.956  0.1414  0.3197 -0.6076
 2319SOL    HW1 8557   1.089   3.942   6.902 -1.3537  0.8946 -1.9058
 2319SOL    HW2 8558   0.969   3.831   6.895 -1.0443  0.3664  0.3778
 2320SOL     OW 8559   4.262   4.891   2.347  0.1059 -0.6195  0.5277
 2320SOL    HW1 8560   4.208   4.896   2.263  0.2308 -1.9662  0.3483
 2320SOL    HW2 8561   4.331   4.963   2.346  1.1715 -1.5866 -1.3087
 2321SOL     OW 8562   0.751   3.625   3.765  0.5564 -0.2720 -0.3084
 2321SOL    HW1 8563   0.690   3.584   3.697 -0.8039  1.1715 -0.0163
 2321SOL    HW2 8564   0.765   3.560   3.839  1.7441 -1.7220 -1.7297
 2322SOL     OW 8565   3.026   0.740   3.299  0.3122  0.3945  0.0773
 2322SOL    HW1 8566   2.961   0.795   3.246  0.9260  0.8938 -0.1818
 2322SOL    HW2 8567   3.094   0.801   3.340 -0.4496  0.0731  1.8941
 2323SOL     OW 8568   5.125   0.530   0.192 -0.4079 -0.1666 -0.1389
 2323SOL    HW1 8569   5.085   0.604   0.138  0.0105  0.8343  0.8808
 2323SOL    HW2 8570   5.054   0.485   0.245 -0.3529  1.1369  1.1157
 2324SOL     OW 8571   3.885   1.575   4.819 -0.0001  0.0779  0.4741
 2324SOL    HW1 8572   3.913   1.671   4.814 -1.2357  0.4937  1.0260
 2324SOL    HW2 8573   3.817   1.564   4.891 -0.3052 -1.1132  0.0336
 2325SOL     OW 8574   2.209   5.158   3.131 -0.0271 -0.7229 -0.1950
 2325SOL    HW1 8575   2.212   5.059   3.120  1.5522 -0.5244 -2.2613
 2325SOL    HW2 8576   2.301   5.195   3.119 -1.0481  1.2494 -2.8752
 2326SOL     OW 8577   4.212   2.930   3.383 -0.2011  0.2363 -0.4236
 2326SOL    HW1 8578   4.213   2.953   3.286  0.2614  0.7074 -0.3140
 2326SOL    HW2 8579   4.282   2.984   3.430 -2.1412  1.9969  0.6083
 2327SOL     OW 8580   6.626   3.663   2.814 -0.1146  0.1187  0.1882
 2327SOL    HW1 8581   6.670   3.582   2.775  0.1818  0.2610  0.2203
 2327SOL    HW2 8582   6.657   3.744   2.765  0.3312  0.3085  0.7654
 2328SOL     OW 8583   2.804   0.644   0.738 -0.1741 -0.2227  0.7788
 2328SOL    HW1 8584   2.797   0.544   0.730 -1.2384 -0.1021  0.0388
 2328SOL    HW2 8585   2.744   0.687   0.671  2.1523  0.9373 -0.6820
 2329SOL     OW 8586   3.731   0.185   4.523  0.1059  0.1709  0.1180
 2329SOL    HW1 8587   3.697   0.091   4.523  0.2170  0.1181  1.1586
 2329SOL    HW2 8588   3.830   0.184   4.539  0.2191  0.4368 -0.5450
 2330SOL     OW 8589   2.554   4.876   3.011  0.2019 -0.1590 -0.0740
 2330SOL    HW1 8590   2.608   4.924   3.080  0.9067  0.6452 -1.1735
 2330SOL    HW2 8591   2.614   4.838   2.941 -0.5571 -0.3743 -0.6193
 2331SOL     OW 8592   5.909   6.171   1.409 -0.4576  0.3558 -0.2431
 2331SOL    HW1 8593   5.976   6.127   1.468  1.0066  2.3681 -0.3123
 2331SOL    HW2 8594   5.828   6.113   1.401  1.2775 -2.2096 -0.2500
 2332SOL     OW 8595   6.206   6.004   4.128  0.0335 -0.3820 -0.1442
 2332SOL    HW1 8596   6.158   6.001   4.216  2.3376  0.1198  1.2192
 2332SOL    HW2 8597   6.290   6.057   4.138 -0.0925  0.5346 -2.9358
 2333SOL     OW 8598   6.933   6.823   4.691  0.2647 -0.5375  0.6432
 2333SOL    HW1 8599   6.877   6.814   4.609  1.1023  0.0873 -0.0105
 2333SOL    HW2 8600   6.909   6.907   4.740  1.8727  0.7479 -0.6537
 2334SOL     OW 8601   4.846   3.132   5.833  0.0661 -0.3395 -0.1022
 2334SOL    HW1 8602   4.821   3.062   5.900  0.2885 -1.1287 -0.8262
 2334SOL    HW2 8603   4.934   3.172   5.859  0.8122 -1.5790 -0.6094
 2335SOL     OW 8604   2.283   6.802   6.454  0.4726 -0.0079  0.6631
 2335SOL    HW1 8605   2.299   6.742   6.533  1.2767  1.0286  1.3249
 2335SOL    HW2 8606   2.327   6.891   6.471 -2.9658  1.8180  0.9886
 2336SOL     OW 8607   2.831   1.433   4.766  0.2555  0.1532 -0.3855
 2336SOL    HW1 8608   2.786   1.355   4.811 -1.7248  0.8234 -1.0762
 2336SOL    HW2 8609   2.915   1.402   4.723 -0.4167 -1.6017 -0.5349
 2337SOL     OW 8610   6.120   5.991   5.550  0.0786  0.0326  0.2253
 2337SOL    HW1 8611   6.058   6.034   5.485  2.1639  1.9943 -0.5871
 2337SOL    HW2 8612   6.080   5.905   5.582 -2.9855  1.1527 -0.2584
 2338SOL     OW 8613   5.445   6.156   6.097  0.1104 -0.2594 -0.1109
 2338SOL    HW1 8614   5.483   6.186   6.009  1.0659 -1.4860 -0.1551
 2338SOL    HW2 8615   5.426   6.058   6.092  2.3373 -0.8841  1.7202
 2339SOL     OW 8616   6.121   3.958   2.897  0.0689  0.1890  0.4904
 2339SOL    HW1 8617   6.076   4.023   2.957  0.2757  0.2698  0.5597
 2339SOL    HW2 8618   6.182   3.900   2.950 -1.2650 -1.0975  0.6701
 2340SOL     OW 8619   1.866   1.120   2.233 -0.0223  0.2089  0.3214
 2340SOL    HW1 8620   1.816   1.124   2.320 -0.7976  2.2164 -0.1587
 2340SOL    HW2 8621   1.963   1.137   2.251 -0.3693  1.9633  0.6939
 2341SOL     OW 8622   3.031   0.755   1.517  0.0333 -0.0128  0.8434
 2341SOL    HW1 8623   3.095   0.815   1.469 -2.4981  1.3431 -1.0676
 2341SOL    HW2 8624   3.064   0.661   1.511  1.4445  0.5254 -0.7828
 2342SOL     OW 8625   6.100   3.275   5.917 -0.2370 -0.2499 -0.3127
 2342SOL    HW1 8626   6.178   3.217   5.894 -0.3061 -0.2666 -0.5025
 2342SOL    HW2 8627   6.097   3.353   5.855 -1.5592 -1.3072 -1.6417
 2343SOL     OW 8628   3.939   0.794   6.241  0.4087  0.0321 -0.0128
 2343SOL    HW1 8629   4.005   0.837   6.303 -0.5333  1.3658  0.1178
 2343SOL    HW2 8630   3.982   0.778   6.153  1.3053 -0.4259  0.4924
 2344SOL     OW 8631   0.599   3.175   4.773 -0.5108 -1.1526  0.5748
 2344SOL    HW1 8632   0.635   3.174   4.867  1.2390  0.4321 -0.0276
 2344SOL    HW2 8633   0.586   3.269   4.743 -0.6904 -1.6254 -0.9185
 2345SOL     OW 8634   4.349   6.685   3.997 -0.4030  0.0872 -0.2139
 2345SOL    HW1 8635   4.330   6.744   4.075  1.1976 -0.1677  0.4261
 2345SOL    HW2 8636   4.295   6.714   3.918 -3.1809 -0.5375  1.3392
 2346SOL     OW 8637   4.825   1.930   0.952  0.6405 -0.3853 -0.2362
 2346SOL    HW1 8638   4.797   1.861   1.018  0.5975  0.0393  0.1970
 2346SOL    HW2 8639   4.828   2.019   0.996 -1.0493  0.1994 -1.2095
 2347SOL     OW 8640   6.302   3.744   0.508  0.5157  0.8217 -0.0958
 2347SOL    HW1 8641   6.316   3.838   0.537 -1.8811  1.3223 -0.3655
 2347SOL    HW2 8642   6.227   3.704   0.561  1.0478 -0.7314 -0.4548
 2348SOL     OW 8643   5.869   0.577   2.641  0.0648  0.8715 -0.1735
 2348SOL    HW1 8644   5.957   0.531   2.654 -0.9869 -0.9506  0.9539
 2348SOL    HW2 8645   5.820   0.581   2.728 -2.7017 -1.9597 -1.4099
 2349SOL     OW 8646   6.885   5.936   1.368  0.6654  0.2920  0.1388
 2349SOL    HW1 8647   6.802   5.882   1.354  0.2574  0.0861  2.7579
 2349SOL    HW2 8648   6.957   5.904   1.306 -0.6203 -0.8499 -0.8226
 2350SOL     OW 8649   6.357   4.940   5.486 -0.1439 -0.0982 -0.0018
 2350SOL    HW1 8650   6.405   4.980   5.564 -1.3782  1.0471  0.2111
 2350SOL    HW2 8651   6.371   4.997   5.405 -0.5129 -0.1737 -0.1224
 2351SOL     OW 8652   4.535   1.983   6.227 -0.2635  0.4624 -0.0368
 2351SOL    HW1 8653   4.558   2.064   6.282  1.7931 -0.3840  0.4363
 2351SOL    HW2 8654   4.619   1.936   6.200 -1.4136 -1.6543 -0.1418
 2352SOL     OW 8655   2.322   4.022   6.302 -0.1994 -0.0311  0.2279
 2352SOL    HW1 8656   2.413   4.031   6.341 -0.3424  1.7145  0.2272
 2352SOL    HW2 8657   2.261   3.981   6.369  0.6280 -1.4678  0.1309
 2353SOL     OW 8658   5.495   5.334   5.145 -0.5395 -0.2456 -0.3582
 2353SOL    HW1 8659   5.473   5.300   5.237 -1.8822  0.4555 -0.3982
 2353SOL    HW2 8660   5.581   5.384   5.148 -0.8299  0.2232  0.6464
 2354SOL     OW 8661   6.163   5.982   1.088  0.1668  0.2301  0.1517
 2354SOL    HW1 8662   6.063   5.984   1.094  0.2689  0.6856  3.0368
 2354SOL    HW2 8663   6.197   6.076   1.078  0.3323  0.1936  0.3651
 2355SOL     OW 8664   4.457   6.915   1.730 -0.1890  0.0481  0.1284
 2355SOL    HW1 8665   4.497   6.826   1.710  0.0458 -0.2999  1.9321
 2355SOL    HW2 8666   4.405   6.909   1.816  1.5895  2.1047  1.4498
 2356SOL     OW 8667   6.317   1.336   0.646  0.3258 -0.1193  0.7128
 2356SOL    HW1 8668   6.315   1.396   0.726 -0.8169 -1.1826  1.5281
 2356SOL    HW2 8669   6.313   1.391   0.563 -2.5242  0.9752  1.4410
 2357SOL     OW 8670   3.126   3.199   5.346  0.3104 -0.6133  0.5143
 2357SOL    HW1 8671   3.182   3.155   5.275 -0.1514 -0.6303  0.1539
 2357SOL    HW2 8672   3.172   3.281   5.379  0.6669 -0.7670  0.4025
 2358SOL     OW 8673   5.024   0.202   5.284  0.1489  0.6136 -0.0416
 2358SOL    HW1 8674   4.971   0.209   5.368 -0.5533  0.9606 -0.5120
 2358SOL    HW2 8675   4.966   0.170   5.210  0.8382  0.0083 -0.3318
 2359SOL     OW 8676   1.271   5.143   5.440 -0.0907 -0.7479 -0.2930
 2359SOL    HW1 8677   1.360   5.181   5.463  0.0128 -0.8481 -0.5371
 2359SOL    HW2 8678   1.200   5.213   5.454  0.0730 -0.5390 -0.5133
 2360SOL     OW 8679   3.586   2.893   6.289  0.7474 -0.4135 -0.6845
 2360SOL    HW1 8680   3.556   2.863   6.198 -1.2158 -0.1266 -0.1603
 2360SOL    HW2 8681   3.546   2.833   6.359 -0.0911  1.0626  0.1442
 2361SOL     OW 8682   4.502   2.141   2.675  0.6452  0.2369  0.1369
 2361SOL    HW1 8683   4.498   2.240   2.667 -0.6807  0.2136  0.4156
 2361SOL    HW2 8684   4.412   2.101   2.656  0.9052 -0.8408  1.0312
 2362SOL     OW 8685   5.462   0.671   3.441  0.1229 -0.0973  0.0693
 2362SOL    HW1 8686   5.484   0.756   3.393 -0.4014  0.1292  0.2224
 2362SOL    HW2 8687   5.526   0.658   3.517 -0.4314  0.7041  0.6956
 2363SOL     OW 8688   4.432   0.569   2.274  0.8961  0.2379  0.4718
 2363SOL    HW1 8689   4.390   0.486   2.236 -1.6790  1.2265  0.9502
 2363SOL    HW2 8690   4.402   0.648   2.221  3.0214  0.9517  0.2558
 2364SOL     OW 8691   6.666   0.292   0.669 -0.0738 -0.1381 -0.5132
 2364SOL    HW1 8692   6.613   0.359   0.617  2.1825  0.9791 -1.5530
 2364SOL    HW2 8693   6.756   0.281   0.625  1.0602 -0.9287  1.8730
 2365SOL     OW 8694   6.515   2.397   3.127  0.1409  0.3422  0.3589
 2365SOL    HW1 8695   6.522   2.322   3.062  3.0726  1.8004 -1.1703
 2365SOL    HW2 8696   6.491   2.481   3.079  0.4952  1.0904  1.4504
 2366SOL     OW 8697   2.259   1.099   6.728 -0.2957  0.2648  0.0512
 2366SOL    HW1 8698   2.253   1.182   6.784 -0.6312 -0.0836  0.5434
 2366SOL    HW2 8699   2.182   1.039   6.750 -0.3251  0.0381 -0.6543
 2367SOL     OW 8700   2.092   2.367   4.763 -0.7014  0.2427  0.3265
 2367SOL    HW1 8701   2.147   2.294   4.805 -3.2580 -1.0324  1.6840
 2367SOL    HW2 8702   2.004   2.330   4.735 -1.4403  2.4951 -0.5031
 2368SOL     OW 8703   4.195   6.755   5.683  0.2235  0.0646  0.5844
 2368SOL    HW1 8704   4.107   6.712   5.703 -0.6012  2.6100  2.8843
 2368SOL    HW2 8705   4.257   6.741   5.760  1.3691 -0.4004 -0.3815
 2369SOL     OW 8706   3.474   6.251   6.507  0.1966 -0.0369  0.0452
 2369SOL    HW1 8707   3.402   6.208   6.453  0.9655 -0.1313 -0.9361
 2369SOL    HW2 8708   3.491   6.343   6.471  0.0843  0.2521  0.7210
 2370SOL     OW 8709   5.742   5.987   2.934  0.0677  0.2383  0.2723
 2370SOL    HW1 8710   5.727   6.086   2.927 -0.9751  0.1408  0.8843
 2370SOL    HW2 8711   5.655   5.942   2.953  0.5783 -0.7800  0.2294
 2371SOL     OW 8712   3.105   6.225   6.904  0.1189  0.0640  0.6342
 2371SOL    HW1 8713   3.110   6.312   6.855  2.4272 -0.6954 -0.6364
 2371SOL    HW2 8714   3.025   6.174   6.872 -1.3693  1.7293  1.5268
 2372SOL     OW 8715   2.208   5.814   4.890 -0.2452 -0.4034 -0.8110
 2372SOL    HW1 8716   2.129   5.875   4.878 -0.3409 -0.6213 -1.2790
 2372SOL    HW2 8717   2.189   5.750   4.965 -0.7725 -0.8699 -1.3328
 2373SOL     OW 8718   6.223   5.106   6.920 -0.4808 -0.4996  0.3010
 2373SOL    HW1 8719   6.163   5.186   6.909  0.4207 -0.0248 -1.6820
 2373SOL    HW2 8720   6.309   5.135   6.962 -0.2148 -0.4506 -0.2738
 2374SOL     OW 8721   3.135   2.822   1.056 -0.1471  0.7289  0.5500
 2374SOL    HW1 8722   3.049   2.817   1.006 -0.2529 -1.6349  0.8723
 2374SOL    HW2 8723   3.116   2.816   1.155  0.4187 -1.5755  0.5713
 2375SOL     OW 8724   1.677   5.102   1.578  0.3159  0.0721 -0.7819
 2375SOL    HW1 8725   1.635   5.170   1.519 -1.6465  0.5708  1.0603
 2375SOL    HW2 8726   1.629   5.014   1.568 -0.3897  0.3025  0.4052
 2376SOL     OW 8727   1.684   6.630   4.961 -0.4430  0.0158 -0.7509
 2376SOL    HW1 8728   1.618   6.610   5.034 -0.5640  0.6965 -0.6677
 2376SOL    HW2 8729   1.740   6.708   4.987  1.2019 -1.2546 -0.3112
 2377SOL     OW 8730   0.933   6.444   5.853  0.1704  0.3890  0.1198
 2377SOL    HW1 8731   0.953   6.516   5.920  1.7381 -0.6184  0.8003
 2377SOL    HW2 8732   0.930   6.356   5.900  0.7561 -0.2795 -1.0767
 2378SOL     OW 8733   3.638   5.851   2.054 -0.3283 -0.2187  0.1922
 2378SOL    HW1 8734   3.733   5.830   2.077 -0.2701  0.2425  0.3757
 2378SOL    HW2 8735   3.629   5.860   1.955 -0.4091 -1.3738  0.0818
 2379SOL     OW 8736   1.107   3.466   5.279 -0.1116 -0.2952  0.2671
 2379SOL    HW1 8737   1.194   3.456   5.229 -0.8545 -0.4688 -1.0270
 2379SOL    HW2 8738   1.087   3.381   5.327 -0.5605 -0.9883 -1.1032
 2380SOL     OW 8739   2.047   0.069   5.774  0.5038  0.3181 -0.2615
 2380SOL    HW1 8740   1.947   0.073   5.776  0.4403 -0.8843 -0.1598
 2380SOL    HW2 8741   2.077  -0.027   5.778  1.7085  0.7087  1.9361
 2381SOL     OW 8742   6.459   5.966   2.068  0.0233  0.1037 -0.1722
 2381SOL    HW1 8743   6.382   6.029   2.074 -0.9396 -1.0825  0.1146
 2381SOL    HW2 8744   6.504   5.960   2.157 -0.5769 -0.4573  0.1019
 2382SOL     OW 8745   5.953   4.701   3.540  0.0787 -0.0041 -0.3219
 2382SOL    HW1 8746   5.872   4.757   3.555 -0.7832 -1.4603  0.8450
 2382SOL    HW2 8747   5.941   4.613   3.587  2.6943  0.0510  0.6029
 2383SOL     OW 8748   0.162   4.033   2.278 -0.4720 -0.6529  0.0694
 2383SOL    HW1 8749   0.221   3.990   2.347 -1.0197 -0.9274  0.3804
 2383SOL    HW2 8750   0.190   4.004   2.187  0.3113 -0.2261  0.1642
 2384SOL     OW 8751   2.182   1.081   6.468  0.2572  0.1949  0.2599
 2384SOL    HW1 8752   2.091   1.040   6.475 -0.4372  1.7211  0.8203
 2384SOL    HW2 8753   2.223   1.088   6.558  1.0199 -0.6240 -0.0088
 2385SOL     OW 8754   2.931   6.531   6.180 -0.3107  0.1475  0.2419
 2385SOL    HW1 8755   2.890   6.567   6.264 -2.2273 -0.4571 -0.3647
 2385SOL    HW2 8756   2.972   6.442   6.198 -1.0892 -0.1764  0.4800
 2386SOL     OW 8757   3.245   5.848   1.747  0.0279  0.8437 -0.1074
 2386SOL    HW1 8758   3.211   5.770   1.800 -2.9347  1.0915 -1.4561
 2386SOL    HW2 8759   3.212   5.841   1.653  1.1815  2.8638 -0.7074
 2387SOL     OW 8760   0.869   2.814   1.301  0.2942  0.2070 -0.4121
 2387SOL    HW1 8761   0.913   2.896   1.265 -0.8767  0.1048 -2.1562
 2387SOL    HW2 8762   0.852   2.750   1.227 -1.1990 -0.4875  0.4990
 2388SOL     OW 8763   4.315   3.237   1.891  0.1585  0.5836 -0.2016
 2388SOL    HW1 8764   4.325   3.139   1.906  1.6983  1.0187  2.2505
 2388SOL    HW2 8765   4.231   3.255   1.841 -0.7601 -1.8892  0.3257
 2389SOL     OW 8766   0.199   3.190   2.603 -0.0688  0.6938  0.0522
 2389SOL    HW1 8767   0.149   3.275   2.585 -0.6818  0.7712  1.8953
 2389SOL    HW2 8768   0.136   3.122   2.640  0.8118  0.1215  0.5237
 2390SOL     OW 8769   1.836   4.674   0.498 -0.0689  0.5194 -0.4050
 2390SOL    HW1 8770   1.910   4.611   0.520  0.2962  0.0810 -2.6823
 2390SOL    HW2 8771   1.804   4.717   0.582  1.6026 -0.5453  0.8552
 2391SOL     OW 8772   3.559   4.266   1.599 -0.6918 -0.2498  0.4146
 2391SOL    HW1 8773   3.551   4.332   1.524  0.5203 -1.9646 -1.3161
 2391SOL    HW2 8774   3.473   4.264   1.651 -2.6569 -0.9332 -2.5933
 2392SOL     OW 8775   0.988   5.610   2.727  0.3225 -0.1540  0.0197
 2392SOL    HW1 8776   1.070   5.567   2.691  0.9492  1.0837 -0.0794
 2392SOL    HW2 8777   0.911   5.591   2.666  1.1868  1.1872 -1.5854
 2393SOL     OW 8778   0.065   5.867   1.188  0.1783  0.1190 -0.1701
 2393SOL    HW1 8779   0.095   5.776   1.217  0.3449  0.3280  0.3244
 2393SOL    HW2 8780   0.086   5.880   1.091 -0.7299 -0.7336 -0.5050
 2394SOL     OW 8781   2.403   1.003   1.609  0.3390 -0.1183  0.1788
 2394SOL    HW1 8782   2.315   0.998   1.561  0.5550  2.3094 -0.5923
 2394SOL    HW2 8783   2.475   0.967   1.549  0.0546 -0.9944  0.3478
 2395SOL     OW 8784   0.288   6.667   5.095  0.0470 -0.2955 -0.1220
 2395SOL    HW1 8785   0.348   6.595   5.058  0.4516 -0.4347  0.7866
 2395SOL    HW2 8786   0.315   6.688   5.189 -1.5756 -0.6434  0.4657
 2396SOL     OW 8787   0.305   0.342   2.732  1.1133 -0.7453 -0.2121
 2396SOL    HW1 8788   0.298   0.362   2.634  0.0122 -1.9228 -0.3877
 2396SOL    HW2 8789   0.219   0.363   2.777  1.3704 -0.9272  0.3750
 2397SOL     OW 8790   0.941   2.275   5.838  1.3389  0.1985  0.0002
 2397SOL    HW1 8791   0.917   2.200   5.899 -0.1061  1.1043  0.5862
 2397SOL    HW2 8792   0.986   2.239   5.756 -0.3434 -1.4057 -0.2626
 2398SOL     OW 8793   4.644   4.017   5.879 -0.5936  0.4300 -0.1436
 2398SOL    HW1 8794   4.661   4.114   5.858 -1.0680  0.5829  0.1733
 2398SOL    HW2 8795   4.546   3.999   5.874 -0.6087  0.2120  0.8586
 2399SOL     OW 8796   1.682   0.613   4.478 -0.4230 -0.4613 -0.1007
 2399SOL    HW1 8797   1.621   0.688   4.504 -0.5185 -0.3912 -0.5078
 2399SOL    HW2 8798   1.712   0.564   4.559 -2.2166 -1.4318  0.0290
 2400SOL     OW 8799   3.981   3.857   3.031 -0.5655 -0.3084  0.1732
 2400SOL    HW1 8800   4.079   3.864   3.010 -0.6847 -1.5258 -0.9212
 2400SOL    HW2 8801   3.963   3.899   3.120  1.0755 -0.7585  0.7543
 2401SOL     OW 8802   4.321   4.916   6.548 -0.1016 -0.0886  0.1045
 2401SOL    HW1 8803   4.331   5.010   6.582 -0.3498 -0.2039  0.4986
 2401SOL    HW2 8804   4.325   4.917   6.448 -0.8572  0.4372  0.0683
 2402SOL     OW 8805   4.955   5.926   4.425  0.0587 -0.1257  0.2060
 2402SOL    HW1 8806   4.856   5.926   4.428 -0.0188 -1.5826 -0.8894
 2402SOL    HW2 8807   4.987   5.842   4.381  1.8037 -0.0524  1.2236
 2403SOL     OW 8808   1.669   5.331   1.072  0.1198 -0.2227 -0.2695
 2403SOL    HW1 8809   1.599   5.321   1.001 -0.5721  0.0669  0.3497
 2403SOL    HW2 8810   1.667   5.251   1.132  0.7301 -0.4860 -0.6042
 2404SOL     OW 8811   5.791   4.793   1.080  0.1677 -0.1151  0.4211
 2404SOL    HW1 8812   5.711   4.732   1.080 -0.9609  1.2621  2.3067
 2404SOL    HW2 8813   5.850   4.771   1.157  1.3059 -0.6656 -0.5652
 2405SOL     OW 8814   1.824   0.413   4.882 -0.4266 -0.1304  0.0476
 2405SOL    HW1 8815   1.883   0.348   4.931 -0.7910 -0.7509 -0.3174
 2405SOL    HW2 8816   1.733   0.374   4.873 -0.5079  0.2075 -0.6469
 2406SOL     OW 8817   4.876   5.505   0.858  0.6585  0.4581 -0.2438
 2406SOL    HW1 8818   4.926   5.426   0.822 -0.8943 -1.3001  1.2446
 2406SOL    HW2 8819   4.778   5.486   0.855  0.2624  2.2968  0.2903
 2407SOL     OW 8820   0.799   6.339   2.802  0.2085  0.1702  0.1850
 2407SOL    HW1 8821   0.753   6.420   2.839  1.7368  0.6591  1.0837
 2407SOL    HW2 8822   0.816   6.274   2.875 -0.4055 -0.6903 -0.4191
 2408SOL     OW 8823   0.852   6.341   2.170  0.0013 -0.0018  0.2461
 2408SOL    HW1 8824   0.797   6.406   2.222  2.5024  1.9455  0.6566
 2408SOL    HW2 8825   0.842   6.360   2.072 -1.3796 -0.8423  0.2035
 2409SOL     OW 8826   2.973   5.387   3.700 -0.4070  0.4067  0.5520
 2409SOL    HW1 8827   2.883   5.428   3.713 -1.3302 -1.5464  0.6815
 2409SOL    HW2 8828   3.037   5.425   3.768 -0.8536  2.4333 -0.0743
 2410SOL     OW 8829   2.944   0.203   1.895 -0.4875  0.0116 -0.6272
 2410SOL    HW1 8830   2.931   0.294   1.856 -1.7532 -0.3991 -1.2035
 2410SOL    HW2 8831   3.042   0.186   1.908 -0.2696  1.7809  0.3181
 2411SOL     OW 8832   3.169   3.417   1.004 -0.1195  0.4321  0.1582
 2411SOL    HW1 8833   3.155   3.468   0.919  1.3312 -1.9094 -1.5938
 2411SOL    HW2 8834   3.122   3.465   1.078  0.4420  3.8304 -1.4445
 2412SOL     OW 8835   2.187   4.688   6.707  0.1489  0.1089 -0.2253
 2412SOL    HW1 8836   2.273   4.637   6.713 -0.3046 -0.5670  0.9230
 2412SOL    HW2 8837   2.185   4.741   6.622  0.6418 -1.7694 -1.4681
 2413SOL     OW 8838   1.334   0.640   0.520  0.8531  0.0527 -0.9368
 2413SOL    HW1 8839   1.280   0.697   0.458  0.2745  0.0618 -0.4287
 2413SOL    HW2 8840   1.278   0.565   0.554  1.1781  0.0250 -0.4548
 2414SOL     OW 8841   6.129   5.625   5.449  0.0427  0.4278  0.5020
 2414SOL    HW1 8842   6.045   5.595   5.494 -0.3432  0.8343  0.0515
 2414SOL    HW2 8843   6.174   5.693   5.507 -0.8151  1.4720 -0.0378
 2415SOL     OW 8844   3.492   3.505   3.267 -0.2153 -0.2335 -0.2600
 2415SOL    HW1 8845   3.468   3.448   3.345 -1.5502  0.5042 -0.0870
 2415SOL    HW2 8846   3.584   3.542   3.279 -0.7890  0.7580  1.5423
 2416SOL     OW 8847   1.326   5.083   0.610 -0.2296  0.4131  0.3956
 2416SOL    HW1 8848   1.312   4.988   0.584 -3.0582  0.5435  1.1126
 2416SOL    HW2 8849   1.307   5.143   0.532  0.4181  0.4512  0.2615
 2417SOL     OW 8850   5.693   4.788   3.568 -0.1655  0.2570  0.2314
 2417SOL    HW1 8851   5.672   4.886   3.572  0.6126  0.3996  1.3190
 2417SOL    HW2 8852   5.626   4.737   3.620  0.9718  0.5174  2.0419
 2418SOL     OW 8853   2.739   1.529   2.867  0.4051  0.2689 -0.8934
 2418SOL    HW1 8854   2.808   1.479   2.920 -0.7409  0.5101  0.9188
 2418SOL    HW2 8855   2.715   1.613   2.915 -1.2252  0.1376 -1.4197
 2419SOL     OW 8856   1.432   3.997   6.112 -0.2089 -0.2514 -0.4106
 2419SOL    HW1 8857   1.428   3.951   6.201  0.1821  0.1933 -0.1591
 2419SOL    HW2 8858   1.348   3.980   6.061 -1.4052  1.3324  0.9501
 2420SOL     OW 8859   1.867   0.108   6.817 -0.2113  0.2450 -0.2015
 2420SOL    HW1 8860   1.924   0.032   6.788  1.9469  1.6565  0.0812
 2420SOL    HW2 8861   1.799   0.128   6.747 -0.9406 -1.9971 -0.1956
 2421SOL     OW 8862   5.136   6.677   3.619  0.8138  0.0663 -0.3314
 2421SOL    HW1 8863   5.191   6.599   3.648  1.1564  0.1194 -0.8252
 2421SOL    HW2 8864   5.194   6.741   3.569  0.2643  0.0324 -1.0200
 2422SOL     OW 8865   2.187   2.876   6.870 -0.3098 -0.1268 -0.8376
 2422SOL    HW1 8866   2.137   2.818   6.934  1.0631 -0.7606 -0.3066
 2422SOL    HW2 8867   2.158   2.971   6.881 -1.1861 -0.4417 -0.3573
 2423SOL     OW 8868   0.671   3.924   6.338  0.3764  0.0177 -0.2299
 2423SOL    HW1 8869   0.626   3.985   6.274  3.2553  1.3692 -1.1289
 2423SOL    HW2 8870   0.737   3.975   6.393 -0.9218 -1.3737  2.8727
 2424SOL     OW 8871   2.686   1.670   5.618  0.3764 -0.3889 -0.4682
 2424SOL    HW1 8872   2.688   1.761   5.659  0.4455 -0.0999 -1.1080
 2424SOL    HW2 8873   2.708   1.676   5.521 -0.4743 -0.9853 -0.7143
 2425SOL     OW 8874   6.181   0.662   1.547  0.3936 -0.3555  0.1834
 2425SOL    HW1 8875   6.273   0.695   1.525  0.4654 -0.3433  0.4936
 2425SOL    HW2 8876   6.188   0.591   1.617  0.1275 -0.0361  0.5335
 2426SOL     OW 8877   3.739   3.376   1.613 -0.2825 -0.2334  0.5331
 2426SOL    HW1 8878   3.766   3.463   1.571 -1.1182 -0.4491 -0.4985
 2426SOL    HW2 8879   3.641   3.361   1.599 -0.1667 -1.3123  0.7672
 2427SOL     OW 8880   3.707   6.833   2.810  0.2006  0.6019  0.3248
 2427SOL    HW1 8881   3.793   6.809   2.764 -0.7411 -1.5714 -0.4063
 2427SOL    HW2 8882   3.630   6.814   2.750 -0.9332  0.1772  1.8412
 2428SOL     OW 8883   6.787   0.328   3.245  1.0009 -0.6588  0.4959
 2428SOL    HW1 8884   6.702   0.367   3.211  0.6684 -2.6461 -1.1614
 2428SOL    HW2 8885   6.863   0.389   3.220  0.4610 -0.7501 -1.5664
 2429SOL     OW 8886   2.066   0.119   1.716 -0.4564  0.3447  0.3837
 2429SOL    HW1 8887   2.014   0.048   1.668 -0.5177 -1.1142  2.4748
 2429SOL    HW2 8888   2.036   0.124   1.811  1.7398  0.9427  1.1002
 2430SOL     OW 8889   4.881   1.224   0.868  0.0801 -0.2560  0.5282
 2430SOL    HW1 8890   4.880   1.238   0.967  2.3107  0.4387  0.5223
 2430SOL    HW2 8891   4.855   1.130   0.847 -1.9818  0.0150  1.6137
 2431SOL     OW 8892   4.457   3.195   0.955  0.3297 -0.0838  0.1799
 2431SOL    HW1 8893   4.505   3.198   0.867 -0.5047  0.2382 -0.2845
 2431SOL    HW2 8894   4.522   3.207   1.030  0.8687  1.3100 -0.4650
 2432SOL     OW 8895   3.839   5.075   6.723  0.2139 -0.3751  0.1908
 2432SOL    HW1 8896   3.789   5.021   6.790 -2.3811  0.3194 -1.0380
 2432SOL    HW2 8897   3.805   5.054   6.631  1.4332  0.9709 -0.6178
 2433SOL     OW 8898   5.887   3.280   6.344 -0.0023  0.1217 -0.0929
 2433SOL    HW1 8899   5.915   3.266   6.439 -0.1230 -2.0305 -0.3263
 2433SOL    HW2 8900   5.798   3.326   6.342 -1.4838 -2.4613  1.0029
 2434SOL     OW 8901   2.272   0.059   3.907  0.0662  0.3942  0.1784
 2434SOL    HW1 8902   2.335  -0.016   3.927 -0.2582 -0.3136 -1.3698
 2434SOL    HW2 8903   2.221   0.040   3.823 -1.1579  1.6354  0.5868
 2435SOL     OW 8904   6.576   6.582   0.674 -0.6662  0.6343  0.0053
 2435SOL    HW1 8905   6.611   6.640   0.748  1.0907 -0.0267 -0.2590
 2435SOL    HW2 8906   6.491   6.622   0.637 -0.8060  1.7180  1.4159
 2436SOL     OW 8907   4.543   5.721   5.001  0.5151 -0.3752  0.1962
 2436SOL    HW1 8908   4.583   5.770   5.078  1.4601  0.7576 -0.9734
 2436SOL    HW2 8909   4.527   5.626   5.027  0.1188  0.1395  2.0115
 2437SOL     OW 8910   5.458   3.534   5.604  1.0058 -0.0640 -0.0548
 2437SOL    HW1 8911   5.399   3.582   5.670  0.8832  0.6464 -0.6685
 2437SOL    HW2 8912   5.435   3.436   5.605  1.0222 -0.0698  0.9643
 2438SOL     OW 8913   0.560   0.253   0.645  0.0462  0.1795 -0.4379
 2438SOL    HW1 8914   0.502   0.328   0.675  0.8484  0.6741 -0.0967
 2438SOL    HW2 8915   0.593   0.202   0.724  0.1699 -0.0284 -0.6221
 2439SOL     OW 8916   6.017   6.025   2.661 -0.0405  0.5667  0.4107
 2439SOL    HW1 8917   6.043   6.038   2.757 -0.8612 -1.5957  0.9937
 2439SOL    HW2 8918   5.941   5.960   2.656  0.0567  0.5480 -1.7311
 2440SOL     OW 8919   1.742   1.104   3.457  0.0768 -0.2551 -0.1941
 2440SOL    HW1 8920   1.732   1.203   3.453  2.0967  0.0176  0.3313
 2440SOL    HW2 8921   1.683   1.068   3.529  1.6959  1.0080  1.8800
 2441SOL     OW 8922   2.325   6.412   1.473 -0.1375 -0.5318 -0.2976
 2441SOL    HW1 8923   2.414   6.369   1.485  0.3568 -0.1066 -2.0725
 2441SOL    HW2 8924   2.336   6.512   1.474 -0.4500 -0.4767 -1.3067
 2442SOL     OW 8925   5.092   3.085   5.355 -0.0673  0.1825  0.6732
 2442SOL    HW1 8926   5.022   3.075   5.285  2.5614 -0.4712 -2.0547
 2442SOL    HW2 8927   5.088   3.177   5.393  1.2848  2.3803 -3.8422
 2443SOL     OW 8928   1.692   2.563   5.659  0.7238  0.2174  0.1286
 2443SOL    HW1 8929   1.688   2.650   5.609 -0.5148  0.4101  0.5406
 2443SOL    HW2 8930   1.707   2.488   5.594 -1.5615  0.3862 -0.6877
 2444SOL     OW 8931   5.104   5.071   3.160  0.1218 -0.3617 -0.2206
 2444SOL    HW1 8932   5.135   5.139   3.094 -0.4382 -0.4149 -0.5450
 2444SOL    HW2 8933   5.061   5.118   3.238  0.2337 -0.3215 -0.1833
 2445SOL     OW 8934   2.025   6.475   1.687  0.5809  0.1677  0.0044
 2445SOL    HW1 8935   2.042   6.531   1.605 -0.8672  2.4426  1.1604
 2445SOL    HW2 8936   2.106   6.419   1.705  2.5305  2.4924 -0.8092
 2446SOL     OW 8937   3.190   4.722   2.834 -0.1927  0.2643 -0.1157
 2446SOL    HW1 8938   3.283   4.688   2.819 -0.0426  0.2097  0.8672
 2446SOL    HW2 8939   3.151   4.752   2.747  1.1210  1.2317 -0.4030
 2447SOL     OW 8940   2.113   6.254   4.915 -0.3616  0.0520  0.0510
 2447SOL    HW1 8941   2.123   6.186   4.843  1.3665  0.0351  0.2736
 2447SOL    HW2 8942   2.016   6.279   4.924 -0.5644  0.3868 -2.5321
 2448SOL     OW 8943   3.170   5.891   5.992 -0.0857  0.5299  0.0999
 2448SOL    HW1 8944   3.129   5.882   6.083  1.9084  0.6447  1.0657
 2448SOL    HW2 8945   3.225   5.974   5.989  1.6770 -0.6036 -0.4433
 2449SOL     OW 8946   0.183   0.996   5.654  0.1512  0.3085  0.1498
 2449SOL    HW1 8947   0.094   1.041   5.658 -1.0402 -1.9693  2.4728
 2449SOL    HW2 8948   0.174   0.901   5.685  3.2544 -0.2854 -0.3872
 2450SOL     OW 8949   6.123   3.392   1.404  0.6153  0.4197 -0.2454
 2450SOL    HW1 8950   6.163   3.408   1.314 -2.0333 -1.2036 -1.8384
 2450SOL    HW2 8951   6.033   3.349   1.394  0.7457 -1.0227  3.2300
 2451SOL     OW 8952   4.639   0.964   2.444  0.2387 -0.4694 -0.1205
 2451SOL    HW1 8953   4.689   0.912   2.375 -0.0190 -2.7906  1.3216
 2451SOL    HW2 8954   4.559   1.007   2.402  2.5663  2.2066 -2.1791
 2452SOL     OW 8955   3.588   2.594   1.170  0.1731 -0.2083 -0.2582
 2452SOL    HW1 8956   3.517   2.619   1.105 -1.1292 -1.2341  0.7070
 2452SOL    HW2 8957   3.560   2.511   1.219  1.2183  0.3887  1.4276
 2453SOL     OW 8958   2.094   5.317   3.751 -0.4214  0.3989  0.7735
 2453SOL    HW1 8959   2.007   5.311   3.704  0.0992  1.5469 -0.3839
 2453SOL    HW2 8960   2.133   5.408   3.739  1.1572 -0.2298  0.8690
 2454SOL     OW 8961   2.534   0.628   5.767 -0.4344 -0.3720 -0.3115
 2454SOL    HW1 8962   2.454   0.686   5.750  0.1063  0.4661 -0.0435
 2454SOL    HW2 8963   2.573   0.599   5.680 -1.8822 -2.0272 -0.4753
 2455SOL     OW 8964   5.194   5.117   2.290  0.4073 -0.5125 -0.5150
 2455SOL    HW1 8965   5.141   5.197   2.320  1.7398  0.2204 -0.0488
 2455SOL    HW2 8966   5.155   5.035   2.332 -1.1059 -0.1681 -1.1563
 2456SOL     OW 8967   4.318   6.849   3.003 -0.1545  0.2556 -0.1290
 2456SOL    HW1 8968   4.354   6.761   2.972 -1.3118  0.2653 -1.6171
 2456SOL    HW2 8969   4.240   6.875   2.946 -1.5073  1.0024  1.9521
 2457SOL     OW 8970   1.969   1.170   4.834 -0.0317 -0.3665 -0.1793
 2457SOL    HW1 8971   1.961   1.148   4.737 -1.1557  1.5289 -0.5801
 2457SOL    HW2 8972   1.957   1.269   4.847 -1.1280 -0.7200  2.0082
 2458SOL     OW 8973   1.975   5.651   0.932  0.2873 -0.6440  0.4460
 2458SOL    HW1 8974   1.918   5.633   1.012  0.1908  1.6995  0.9819
 2458SOL    HW2 8975   2.071   5.633   0.956  0.2398 -0.1516  1.0400
 2459SOL     OW 8976   6.400   2.403   2.340  0.5488 -0.5116  0.2988
 2459SOL    HW1 8977   6.342   2.340   2.391  0.5145 -0.8650 -0.1707
 2459SOL    HW2 8978   6.451   2.461   2.404  0.1240 -0.6009  0.7210
 2460SOL     OW 8979   0.709   5.978   3.744  0.0985 -0.4758  0.0807
 2460SOL    HW1 8980   0.691   5.880   3.752  0.3612 -0.6319 -1.0017
 2460SOL    HW2 8981   0.622   6.027   3.734 -0.1775 -0.3533  2.5715
 2461SOL     OW 8982   3.082   0.524   4.255 -0.2925 -0.0377  0.3372
 2461SOL    HW1 8983   3.178   0.550   4.251 -0.4789  0.7983  1.0357
 2461SOL    HW2 8984   3.075   0.428   4.284  0.3156  0.0681  0.8694
 2462SOL     OW 8985   3.909   3.502   6.291  0.1739 -0.1388 -0.1555
 2462SOL    HW1 8986   3.856   3.437   6.236 -0.2263  2.4686 -3.1725
 2462SOL    HW2 8987   4.006   3.483   6.280  0.0678 -1.8420  1.3089
 2463SOL     OW 8988   5.403   1.898   1.043  0.0441 -0.4495 -0.1459
 2463SOL    HW1 8989   5.307   1.872   1.031  0.3980 -1.4247 -1.0038
 2463SOL    HW2 8990   5.446   1.909   0.953  1.2995 -2.2101  0.1753
 2464SOL     OW 8991   3.302   5.277   1.451  0.3037  0.0558 -0.3242
 2464SOL    HW1 8992   3.307   5.343   1.377  1.1937 -0.6360 -0.8910
 2464SOL    HW2 8993   3.278   5.187   1.415 -0.7371  0.0078  0.4219
 2465SOL     OW 8994   6.912   3.340   0.611  0.1477  0.3828 -0.3080
 2465SOL    HW1 8995   6.940   3.430   0.643 -0.3620  0.2606  0.5136
 2465SOL    HW2 8996   6.820   3.346   0.572  0.5876  0.4418 -1.3740
 2466SOL     OW 8997   3.468   2.208   0.202 -0.5874  0.4494 -0.2126
 2466SOL    HW1 8998   3.556   2.218   0.250 -0.8592  0.0469  0.3809
 2466SOL    HW2 8999   3.479   2.236   0.107  0.4479 -0.5801 -0.4222
 2467SOL     OW 9000   0.288   0.431   4.556  0.2440 -0.1199 -0.0309
 2467SOL    HW1 9001   0.306   0.502   4.624 -0.2702 -0.7354  0.7576
 2467SOL    HW2 9002   0.363   0.365   4.557  0.3361 -0.0199 -0.2130
 2468SOL     OW 9003   3.997   4.188   1.365  0.3277 -0.2686  0.6476
 2468SOL    HW1 9004   4.049   4.247   1.302  1.9375 -3.0718 -0.8852
 2468SOL    HW2 9005   3.914   4.156   1.319  0.7689 -1.1580  0.4312
 2469SOL     OW 9006   2.870   5.598   2.210  0.1746 -0.3343 -0.4454
 2469SOL    HW1 9007   2.959   5.557   2.230  0.0744  0.6619  2.5614
 2469SOL    HW2 9008   2.801   5.525   2.204  0.6837 -0.9167  0.5223
 2470SOL     OW 9009   5.571   5.555   4.949  0.2968 -0.0342  0.1138
 2470SOL    HW1 9010   5.549   5.464   4.985  2.1937 -0.0610  1.3039
 2470SOL    HW2 9011   5.588   5.547   4.850  0.2581 -0.9387  0.1648
 2471SOL     OW 9012   4.131   4.504   4.966 -0.0972 -0.6838  0.0341
 2471SOL    HW1 9013   4.039   4.520   5.001 -0.5316 -1.0605 -0.8985
 2471SOL    HW2 9014   4.159   4.411   4.986 -0.2482 -0.8221 -0.3775
 2472SOL     OW 9015   1.884   0.791   3.084  0.1554 -0.0716  0.1915
 2472SOL    HW1 9016   1.871   0.809   3.181  1.2690 -1.1773  0.5559
 2472SOL    HW2 9017   1.915   0.874   3.038  0.5775  0.1996  0.9631
 2473SOL     OW 9018   0.874   6.664   3.650  0.0061 -0.1602 -0.4302
 2473SOL    HW1 9019   0.895   6.570   3.623 -1.0997 -1.2693  2.2386
 2473SOL    HW2 9020   0.932   6.690   3.726 -1.8962  0.0385  1.0335
 2474SOL     OW 9021   1.517   4.698   6.107 -0.1339  0.0757 -0.0401
 2474SOL    HW1 9022   1.486   4.764   6.175 -2.3796  0.9754 -1.8065
 2474SOL    HW2 9023   1.615   4.679   6.121 -0.2797  0.9275  2.7602
 2475SOL     OW 9024   3.391   4.170   0.327  0.6073  0.0464 -0.2506
 2475SOL    HW1 9025   3.336   4.248   0.357 -1.9879 -1.5100 -0.6111
 2475SOL    HW2 9026   3.420   4.184   0.232  0.5546  0.7683 -0.1606
 2476SOL     OW 9027   0.428   0.647   3.704  0.4539 -0.0464  0.6015
 2476SOL    HW1 9028   0.402   0.613   3.795 -0.9667  1.0482  0.6426
 2476SOL    HW2 9029   0.424   0.572   3.638  1.8662 -0.9431  1.4757
 2477SOL     OW 9030   5.512   0.871   4.230 -0.0833 -0.0152  0.2328
 2477SOL    HW1 9031   5.535   0.895   4.324 -0.3040 -1.9828  0.8433
 2477SOL    HW2 9032   5.423   0.911   4.206  0.0848  0.6969  0.7672
 2478SOL     OW 9033   0.003   1.097   1.934 -0.2819 -0.0353  0.0504
 2478SOL    HW1 9034  -0.075   1.102   1.996 -0.0910 -1.1186  0.3840
 2478SOL    HW2 9035   0.086   1.127   1.981 -0.4866  1.2366 -0.3401
 2479SOL     OW 9036   0.861   3.385   0.878  0.0277  0.1233  0.5128
 2479SOL    HW1 9037   0.953   3.413   0.905  0.7844  0.9197 -2.4926
 2479SOL    HW2 9038   0.796   3.455   0.905  0.5357  0.3491  1.1823
 2480SOL     OW 9039   5.162   6.759   5.949  0.1810 -0.3857  0.0929
 2480SOL    HW1 9040   5.091   6.750   6.019  2.0212 -3.2301  1.8051
 2480SOL    HW2 9041   5.221   6.836   5.972 -0.1432 -0.3411  0.8244
 2481SOL     OW 9042   4.930   2.200   5.179 -0.4029  0.0234 -0.3624
 2481SOL    HW1 9043   4.935   2.195   5.080 -0.5207 -0.3393 -0.3532
 2481SOL    HW2 9044   4.862   2.135   5.212 -0.2413  0.0190 -0.0335
 2482SOL     OW 9045   6.531   4.937   0.872 -0.7167 -0.2491 -0.4792
 2482SOL    HW1 9046   6.448   4.949   0.818  0.1618 -1.3171 -2.1495
 2482SOL    HW2 9047   6.602   4.999   0.839  0.0523 -1.4026 -1.0694
 2483SOL     OW 9048   5.881   3.054   1.606 -0.0607  0.1865 -0.3020
 2483SOL    HW1 9049   5.828   3.024   1.686  1.2109 -0.7971  0.2082
 2483SOL    HW2 9050   5.977   3.061   1.631  0.1576  1.3077 -1.3852
 2484SOL     OW 9051   0.877   1.548   4.195  0.0339  0.4318  0.6253
 2484SOL    HW1 9052   0.971   1.583   4.190  0.9389 -1.8409  0.6493
 2484SOL    HW2 9053   0.864   1.478   4.125 -1.6984  0.7742  0.5692
 2485SOL     OW 9054   2.163   4.121   6.800  0.3208  0.0590  0.0848
 2485SOL    HW1 9055   2.112   4.097   6.882 -0.3597  1.0495 -0.0224
 2485SOL    HW2 9056   2.106   4.106   6.719  1.0287 -1.0262 -0.2334
 2486SOL     OW 9057   0.191   4.695   6.636 -0.1917 -0.4509 -0.0415
 2486SOL    HW1 9058   0.162   4.605   6.669 -0.6103  0.4298  2.1600
 2486SOL    HW2 9059   0.131   4.765   6.674  0.3626  0.8022 -1.4033
 2487SOL     OW 9060   0.710   1.648   6.587  0.1023  0.5459  0.0469
 2487SOL    HW1 9061   0.775   1.723   6.591  0.0011  0.6169  0.3940
 2487SOL    HW2 9062   0.729   1.591   6.507  0.5765  0.5758  0.1368
 2488SOL     OW 9063   3.685   0.549   5.354 -0.8998  0.6276  0.7804
 2488SOL    HW1 9064   3.618   0.620   5.332 -0.1556  1.1553  0.1893
 2488SOL    HW2 9065   3.637   0.463   5.374 -1.7166  0.6136 -1.0591
 2489SOL     OW 9066   4.135   5.751   0.714 -0.5554  0.4078 -0.1658
 2489SOL    HW1 9067   4.190   5.800   0.647 -1.8990  3.4465  0.7590
 2489SOL    HW2 9068   4.038   5.764   0.693 -0.9981 -1.8165  0.2448
 2490SOL     OW 9069   3.767   5.164   0.202  0.1797  0.2462 -0.3255
 2490SOL    HW1 9070   3.740   5.246   0.151  0.7747 -0.2933 -1.5449
 2490SOL    HW2 9071   3.796   5.191   0.294 -0.9819  1.2331 -0.2161
 2491SOL     OW 9072   0.808   2.637   5.299  0.5356  0.0714 -0.1081
 2491SOL    HW1 9073   0.897   2.667   5.266 -0.3722  1.4760 -1.4115
 2491SOL    HW2 9074   0.789   2.681   5.387 -0.3103  2.6801 -1.4864
 2492SOL     OW 9075   4.610   6.865   3.987  0.2217  0.2520 -0.1531
 2492SOL    HW1 9076   4.555   6.854   3.905 -1.0614 -1.2363  0.8468
 2492SOL    HW2 9077   4.589   6.952   4.030 -1.1518 -0.1503  0.0338
 2493SOL     OW 9078   4.365   3.405   2.103 -0.2497 -0.1718 -0.0079
 2493SOL    HW1 9079   4.335   3.357   2.021 -1.3075  0.5611 -0.0712
 2493SOL    HW2 9080   4.291   3.463   2.136  0.9097  1.2327  0.1968
 2494SOL     OW 9081   5.016   0.673   4.674 -0.3616  0.5164 -0.4777
 2494SOL    HW1 9082   5.081   0.620   4.728 -1.2564  1.2816  1.4721
 2494SOL    HW2 9083   5.026   0.770   4.696 -0.8279  0.8435 -1.6425
 2495SOL     OW 9084   6.420   1.814   4.347  0.3366 -0.4158  0.2466
 2495SOL    HW1 9085   6.326   1.835   4.318 -0.0929 -0.1533  1.7435
 2495SOL    HW2 9086   6.483   1.878   4.302 -0.6178  2.0609  2.1493
 2496SOL     OW 9087   5.739   2.554   0.657 -0.5474  0.1176  0.2194
 2496SOL    HW1 9088   5.733   2.559   0.757 -1.1009 -0.1401  0.2045
 2496SOL    HW2 9089   5.810   2.489   0.631 -1.3292 -0.8614  0.4593
 2497SOL     OW 9090   0.913   1.417   4.630  0.2311 -0.3712 -0.1658
 2497SOL    HW1 9091   0.906   1.487   4.559  1.5182 -0.9338 -0.8904
 2497SOL    HW2 9092   0.913   1.460   4.720  2.7366  0.7772 -0.6329
 2498SOL     OW 9093   1.022   5.457   0.582  0.3987 -0.2493 -0.2020
 2498SOL    HW1 9094   1.073   5.463   0.668 -0.8539 -1.8773  0.7136
 2498SOL    HW2 9095   0.971   5.371   0.579 -1.0100  0.5734 -1.7959
 2499SOL     OW 9096   0.212   6.946   3.317 -0.0106  0.0042 -0.8102
 2499SOL    HW1 9097   0.305   6.933   3.282  0.0441 -1.8699 -0.1204
 2499SOL    HW2 9098   0.203   6.898   3.404 -1.4121  0.8417 -0.4596
 2500SOL     OW 9099   4.477   2.107   3.136 -0.2370  0.1406  0.4363
 2500SOL    HW1 9100   4.548   2.109   3.066  1.0531  0.8217  1.7192
 2500SOL    HW2 9101   4.519   2.107   3.227 -1.8666 -0.5429  1.2336
 2501SOL     OW 9102   2.732   1.349   2.644  0.1533  0.3240 -0.0513
 2501SOL    HW1 9103   2.739   1.405   2.727  0.6164 -0.8772  0.7502
 2501SOL    HW2 9104   2.719   1.408   2.565 -1.9013  1.4500  1.0322
 2502SOL     OW 9105   1.820   6.836   1.905 -0.0640  0.4906  0.8102
 2502SOL    HW1 9106   1.801   6.783   1.987  0.2975  0.1496  0.6776
 2502SOL    HW2 9107   1.799   6.932   1.922 -0.6528  0.3227  1.0765
 2503SOL     OW 9108   4.339   5.515   6.791 -0.5582 -0.3231  0.2800
 2503SOL    HW1 9109   4.282   5.445   6.748  1.5588 -2.3284  0.5473
 2503SOL    HW2 9110   4.426   5.474   6.819  0.4471  2.2704  1.2012
 2504SOL     OW 9111   5.131   4.881   2.380  0.6088  0.2271  0.0198
 2504SOL    HW1 9112   5.107   4.840   2.468 -1.7772  1.2278 -0.0843
 2504SOL    HW2 9113   5.091   4.827   2.306 -1.1846  1.7716 -0.1930
 2505SOL     OW 9114   5.594   3.755   0.343 -0.0426  0.0761 -0.1686
 2505SOL    HW1 9115   5.523   3.698   0.385  0.4085 -0.0380  0.4459
 2505SOL    HW2 9116   5.683   3.729   0.378  0.1318  1.4568  0.4888
 2506SOL     OW 9117   0.964   3.832   2.369 -0.3693  0.1817  0.3755
 2506SOL    HW1 9118   1.062   3.844   2.356 -0.3489 -0.9654 -0.6513
 2506SOL    HW2 9119   0.944   3.737   2.392 -1.2567  0.3708  0.4399
 2507SOL     OW 9120   1.600   6.319   2.260  0.3657 -0.4315  0.4369
 2507SOL    HW1 9121   1.597   6.385   2.335  0.1909 -0.1299  0.1665
 2507SOL    HW2 9122   1.526   6.253   2.271 -1.1740  1.0082 -0.7398
 2508SOL     OW 9123   0.719   5.325   3.085  0.4550 -0.0746 -0.4938
 2508SOL    HW1 9124   0.677   5.243   3.046 -1.4502  0.7953 -0.4126
 2508SOL    HW2 9125   0.662   5.404   3.063  0.3807  0.7458  2.3055
 2509SOL     OW 9126   4.033   7.014   1.473  0.1761  0.2248 -0.5578
 2509SOL    HW1 9127   3.988   6.972   1.552  0.1493  2.5767  0.7770
 2509SOL    HW2 9128   4.131   6.997   1.477  0.4027  1.6318  0.9373
 2510SOL     OW 9129   1.043   4.871   6.312  0.1521 -0.0620  0.0962
 2510SOL    HW1 9130   1.125   4.901   6.264  0.1427  0.9820  0.6920
 2510SOL    HW2 9131   0.984   4.819   6.250  0.7498  0.1355 -0.6403
 2511SOL     OW 9132   2.337   0.408   3.177 -0.2577 -0.2585 -0.3176
 2511SOL    HW1 9133   2.404   0.456   3.234  1.0612  0.5057 -2.3623
 2511SOL    HW2 9134   2.286   0.343   3.233 -0.1055  1.4668  1.9879
 2512SOL     OW 9135   1.475   6.834   1.557  0.4353  0.0716  0.3788
 2512SOL    HW1 9136   1.527   6.889   1.624  2.5458  0.8026 -1.7049
 2512SOL    HW2 9137   1.506   6.739   1.561  1.7305  0.4240 -0.5720
 2513SOL     OW 9138   5.751   5.307   0.542 -0.1577  0.1339 -0.3924
 2513SOL    HW1 9139   5.818   5.233   0.537 -0.8982 -0.5354 -0.9387
 2513SOL    HW2 9140   5.659   5.268   0.530 -0.4817  1.2847 -2.0289
 2514SOL     OW 9141   0.264   6.628   3.641 -0.0491 -0.2190  0.6711
 2514SOL    HW1 9142   0.213   6.548   3.672  0.5547 -0.1277  1.9829
 2514SOL    HW2 9143   0.329   6.655   3.712  1.6054 -0.1325 -0.8266
 2515SOL     OW 9144   2.621   6.182   4.517  0.4175  0.0492 -0.0373
 2515SOL    HW1 9145   2.563   6.121   4.463  1.1304 -0.7284  0.0564
 2515SOL    HW2 9146   2.708   6.138   4.535  0.1084  0.1689  1.9917
 2516SOL     OW 9147   2.826   6.117   3.475 -0.1943 -0.0111  0.1203
 2516SOL    HW1 9148   2.868   6.067   3.550 -2.6389 -0.9836  0.9165
 2516SOL    HW2 9149   2.762   6.184   3.510 -1.1356 -0.2425 -1.0790
 2517SOL     OW 9150   4.609   5.701   0.815  0.2360  0.2141  0.2596
 2517SOL    HW1 9151   4.590   5.603   0.811  0.6792  0.1729 -1.1320
 2517SOL    HW2 9152   4.527   5.749   0.847 -0.4423 -0.4761 -0.3921
 2518SOL     OW 9153   5.365   4.955   2.499 -0.1819  0.0062 -0.0031
 2518SOL    HW1 9154   5.278   4.911   2.474  0.5887 -2.4007  1.2846
 2518SOL    HW2 9155   5.431   4.943   2.425 -0.2645 -0.1125 -0.0582
 2519SOL     OW 9156   5.683   6.029   1.741  0.2270 -0.3739  0.4128
 2519SOL    HW1 9157   5.780   6.043   1.721  0.5514 -1.7858  0.8845
 2519SOL    HW2 9158   5.661   5.932   1.733 -0.5503 -0.4594  2.7885
 2520SOL     OW 9159   3.504   5.891   1.806  0.8679 -0.2197 -0.0000
 2520SOL    HW1 9160   3.508   5.968   1.742 -0.0806  0.3190  0.5648
 2520SOL    HW2 9161   3.408   5.866   1.822  1.0528 -0.0428  1.5504
 2521SOL     OW 9162   3.378   3.996   6.722  0.1343  0.6343 -0.4127
 2521SOL    HW1 9163   3.452   3.945   6.678  2.0993  0.7575  2.4878
 2521SOL    HW2 9164   3.405   4.021   6.815 -2.8423  2.4212  0.1073
 2522SOL     OW 9165   4.701   5.055   0.993 -0.4272 -0.0830 -0.3542
 2522SOL    HW1 9166   4.609   5.017   0.982 -1.1526  1.2337  0.8006
 2522SOL    HW2 9167   4.716   5.127   0.925 -1.0717  1.1281  0.7475
 2523SOL     OW 9168   6.633   5.013   6.658  0.8448  0.4473 -0.0585
 2523SOL    HW1 9169   6.663   5.095   6.707  1.8043 -0.5250  1.0359
 2523SOL    HW2 9170   6.534   5.002   6.667  0.2417  2.8084 -2.3277
 2524SOL     OW 9171   0.457   0.073   3.410  0.3314  0.2010  0.2762
 2524SOL    HW1 9172   0.410   0.037   3.491  1.2858 -1.0274  0.3059
 2524SOL    HW2 9173   0.501  -0.002   3.360  1.4805  1.1950 -0.2586
 2525SOL     OW 9174   3.741   3.813   4.906  0.4302 -0.4185  0.3359
 2525SOL    HW1 9175   3.777   3.720   4.898  3.5143  0.7757 -1.2414
 2525SOL    HW2 9176   3.733   3.837   5.003  0.2293 -2.0518  0.7596
 2526SOL     OW 9177   4.338   1.234   6.662  0.6164 -0.0012  0.2246
 2526SOL    HW1 9178   4.270   1.219   6.734  0.2722 -1.1430 -0.3100
 2526SOL    HW2 9179   4.351   1.149   6.610  2.7919  0.0552  0.5962
 2527SOL     OW 9180   3.863   5.514   4.373 -0.3163  0.2622 -0.2993
 2527SOL    HW1 9181   3.880   5.577   4.297  0.7993  3.8479  2.6038
 2527SOL    HW2 9182   3.769   5.481   4.367 -0.5228  1.0713 -2.7581
 2528SOL     OW 9183   5.028   4.646   1.737  0.0306  0.8673  0.3359
 2528SOL    HW1 9184   5.079   4.723   1.776  1.7602 -0.5262  0.9328
 2528SOL    HW2 9185   4.935   4.676   1.715  1.0984  3.5803 -1.0204
 2529SOL     OW 9186   5.372   1.076   3.758 -0.0068 -0.2755  0.3831
 2529SOL    HW1 9187   5.455   1.123   3.788  1.2461 -0.8537 -1.9244
 2529SOL    HW2 9188   5.311   1.142   3.714  0.1090 -0.1852  0.3565
 2530SOL     OW 9189   2.773   2.465   4.422  0.4426  0.7045 -0.5078
 2530SOL    HW1 9190   2.844   2.524   4.460 -1.6668  1.0733  3.4489
 2530SOL    HW2 9191   2.684   2.509   4.436 -0.9078 -1.7331 -0.9681
 2531SOL     OW 9192   4.537   1.091   2.087 -0.1464  0.4783 -0.3038
 2531SOL    HW1 9193   4.492   1.102   2.176 -1.2309  1.2882 -0.9245
 2531SOL    HW2 9194   4.473   1.117   2.015  1.1745  1.1851 -1.2447
 2532SOL     OW 9195   3.436   6.219   3.255  0.3700  0.1171 -0.6621
 2532SOL    HW1 9196   3.505   6.180   3.317  0.0470 -0.0824 -0.4288
 2532SOL    HW2 9197   3.403   6.305   3.294 -0.2611 -0.2992 -0.2592
 2533SOL     OW 9198   2.570   4.066   5.922 -0.0505 -0.1998 -0.2347
 2533SOL    HW1 9199   2.606   4.024   5.839 -1.8891 -1.4522 -0.4645
 2533SOL    HW2 9200   2.505   4.003   5.966 -1.5323  1.6795  0.4195
 2534SOL     OW 9201   2.138   5.246   2.241 -0.0722  0.0483  0.6356
 2534SOL    HW1 9202   2.106   5.340   2.251  2.2535  1.0407 -0.5356
 2534SOL    HW2 9203   2.161   5.229   2.145  2.7261 -0.5403  1.3332
 2535SOL     OW 9204   6.781   6.347   4.262 -0.0562  0.2632  0.2024
 2535SOL    HW1 9205   6.717   6.416   4.295  0.1638 -0.7377  2.9850
 2535SOL    HW2 9206   6.793   6.357   4.164 -1.1858  3.1905  0.2641
 2536SOL     OW 9207   3.071   5.125   6.463  0.1793 -0.6434 -0.5692
 2536SOL    HW1 9208   2.974   5.112   6.443  0.1849 -1.4491 -0.1045
 2536SOL    HW2 9209   3.081   5.182   6.545  0.1339  0.8893 -1.5929
 2537SOL     OW 9210   2.723   4.659   1.181 -0.0951 -0.2220  0.2863
 2537SOL    HW1 9211   2.772   4.592   1.126  0.0311  0.9692 -1.1105
 2537SOL    HW2 9212   2.773   4.746   1.180 -1.6330  0.6959 -0.2219
 2538SOL     OW 9213   3.210   5.176   2.073 -0.0832  0.0162 -0.0059
 2538SOL    HW1 9214   3.224   5.268   2.036 -0.9889 -0.0713 -0.5806
 2538SOL    HW2 9215   3.113   5.162   2.092  0.1759 -0.4535  1.0880
 2539SOL     OW 9216   2.800   6.355   6.814 -0.1235 -0.5749  0.4140
 2539SOL    HW1 9217   2.883   6.409   6.828 -1.3858  1.7988 -0.7709
 2539SOL    HW2 9218   2.765   6.325   6.903  0.7011  0.4440  1.1102
 2540SOL     OW 9219   0.069   5.110   3.522 -0.7388  0.0603  0.1854
 2540SOL    HW1 9220   0.063   5.035   3.589 -1.0017 -0.2332 -0.1626
 2540SOL    HW2 9221   0.155   5.159   3.535 -0.6444 -0.1888  0.5348
 2541SOL     OW 9222   4.249   5.980   4.245 -0.9313 -0.4477 -0.2214
 2541SOL    HW1 9223   4.300   5.935   4.172 -0.8840 -0.4628 -0.1792
 2541SOL    HW2 9224   4.152   5.986   4.220 -0.9927 -0.8655 -0.0812
 2542SOL     OW 9225   0.926   5.146   6.368 -0.0828 -0.2676 -0.4956
 2542SOL    HW1 9226   0.975   5.067   6.333  0.9555 -0.1098  0.5446
 2542SOL    HW2 9227   0.863   5.117   6.441 -2.4477 -0.6381 -2.5624
 2543SOL     OW 9228   2.992   4.092   3.720 -0.3097  0.3400  0.0970
 2543SOL    HW1 9229   2.974   4.030   3.796 -0.9783 -0.1769 -0.4723
 2543SOL    HW2 9230   3.039   4.174   3.754 -0.8440  0.2412  1.0984
 2544SOL     OW 9231   5.304   4.969   6.985 -0.0113 -0.6103 -0.1771
 2544SOL    HW1 9232   5.246   4.959   6.905  1.2530 -1.1293 -1.0588
 2544SOL    HW2 9233   5.264   5.037   7.047 -0.0369  1.3094 -2.1707
 2545SOL     OW 9234   5.846   3.772   3.760  0.2067 -0.2559 -0.5966
 2545SOL    HW1 9235   5.814   3.757   3.666  2.0512  0.4543 -1.3999
 2545SOL    HW2 9236   5.940   3.739   3.769 -0.0651 -0.6571  1.1407
 2546SOL     OW 9237   1.242   1.477   2.218 -0.9690  0.4424  0.1122
 2546SOL    HW1 9238   1.228   1.384   2.253 -1.8158  0.5867  0.1797
 2546SOL    HW2 9239   1.288   1.532   2.288  1.2465 -0.3970 -0.6022
 2547SOL     OW 9240   3.711   2.192   1.941 -0.0141  0.9396  0.1630
 2547SOL    HW1 9241   3.654   2.140   2.004  0.5285  1.6576  1.2801
 2547SOL    HW2 9242   3.653   2.242   1.877 -0.5618 -0.1742 -0.2376
 2548SOL     OW 9243   0.098   1.307   4.392  1.0528  0.1316  0.5467
 2548SOL    HW1 9244   0.164   1.357   4.448  2.2138 -0.3461 -0.3470
 2548SOL    HW2 9245   0.146   1.262   4.316  0.1901 -2.9565  1.6769
 2549SOL     OW 9246   4.498   4.289   5.756  0.1013  0.1766 -0.5299
 2549SOL    HW1 9247   4.514   4.362   5.823  0.3443 -1.6143  1.4794
 2549SOL    HW2 9248   4.585   4.263   5.714  0.5032 -0.8861  0.9067
 2550SOL     OW 9249   1.048   3.949   0.459  0.0251  0.4176  0.6815
 2550SOL    HW1 9250   0.976   4.012   0.429 -0.4077  0.4208  1.6905
 2550SOL    HW2 9251   1.027   3.857   0.427  0.3056  0.6550 -0.2154
 2551SOL     OW 9252   0.801   5.277   7.011  0.2206 -0.6553  0.2820
 2551SOL    HW1 9253   0.804   5.347   6.940  0.5914 -0.4462  0.5045
 2551SOL    HW2 9254   0.839   5.313   7.096  0.2851 -1.0783  0.4379
 2552SOL     OW 9255   3.162   2.375   6.206  0.1711 -0.4109 -0.0095
 2552SOL    HW1 9256   3.137   2.468   6.180  1.1267 -0.1444  0.0036
 2552SOL    HW2 9257   3.078   2.322   6.223 -0.3809  0.4263 -0.0405
 2553SOL     OW 9258   0.036   3.195   5.154  0.1875  0.0492 -0.3333
 2553SOL    HW1 9259   0.102   3.166   5.223  0.3507 -1.2132 -0.9790
 2553SOL    HW2 9260   0.084   3.218   5.069 -0.1807 -0.9778 -0.8414
 2554SOL     OW 9261   5.671   5.983   3.728  0.6776  0.2948 -0.2227
 2554SOL    HW1 9262   5.585   6.028   3.703  0.9068  0.6040 -0.4710
 2554SOL    HW2 9263   5.653   5.889   3.756  0.1389  0.6570  0.6845
 2555SOL     OW 9264   1.072   2.772   2.576  0.2383 -0.3073  0.4752
 2555SOL    HW1 9265   1.099   2.867   2.592 -0.5543  0.1035 -0.5131
 2555SOL    HW2 9266   1.031   2.734   2.659 -0.8520  0.7195  0.4260
 2556SOL     OW 9267   0.829   6.008   1.541 -0.0689  0.4869  0.1221
 2556SOL    HW1 9268   0.911   5.951   1.541  0.1014  0.7285 -0.1484
 2556SOL    HW2 9269   0.757   5.962   1.489  0.5860  1.2332 -1.5318
 2557SOL     OW 9270   6.353   1.220   3.242  0.0883  0.1743  0.6334
 2557SOL    HW1 9271   6.286   1.245   3.312  0.3313  1.4719  0.4134
 2557SOL    HW2 9272   6.305   1.195   3.158 -0.1558 -0.0427  0.8353
 2558SOL     OW 9273   5.192   1.328   1.260 -0.3058  0.1714 -0.0947
 2558SOL    HW1 9274   5.173   1.357   1.167  0.5771  1.0906 -0.0061
 2558SOL    HW2 9275   5.175   1.404   1.323 -2.2134 -0.8344  0.6784
 2559SOL     OW 9276   0.149   0.627   1.300  0.8199  0.1088 -0.3767
 2559SOL    HW1 9277   0.092   0.710   1.303  0.7084  0.0147  0.5975
 2559SOL    HW2 9278   0.238   0.649   1.261  0.6979  0.6384 -0.3676
 2560SOL     OW 9279   5.579   0.736   5.612  0.3161  0.4485 -0.6750
 2560SOL    HW1 9280   5.645   0.706   5.544  1.4662  0.4728  0.3852
 2560SOL    HW2 9281   5.626   0.750   5.699 -1.4462 -1.6816  0.7262
 2561SOL     OW 9282   5.743   3.893   2.247 -0.2481 -0.2295  0.5667
 2561SOL    HW1 9283   5.666   3.904   2.184 -0.1261 -1.9403  0.0765
 2561SOL    HW2 9284   5.792   3.980   2.254  0.3743 -0.1965 -2.5992
 2562SOL     OW 9285   2.904   3.201   2.958 -0.1505  0.1017  0.4595
 2562SOL    HW1 9286   2.863   3.110   2.962 -0.3648 -0.0953 -2.9317
 2562SOL    HW2 9287   2.837   3.266   2.924  1.1112  0.6218 -1.1466
 2563SOL     OW 9288   1.413   3.850   1.154  0.3230 -0.5159 -0.2628
 2563SOL    HW1 9289   1.464   3.833   1.069 -1.4652 -1.7259 -1.1513
 2563SOL    HW2 9290   1.342   3.918   1.138  0.8484  0.2825  0.6610
 2564SOL     OW 9291   1.119   5.365   2.405  0.0938  0.4494  0.6338
 2564SOL    HW1 9292   1.168   5.369   2.318 -0.5388  1.2244  0.3029
 2564SOL    HW2 9293   1.050   5.293   2.401 -0.1586  0.7082  0.3812
 2565SOL     OW 9294   0.140   0.345   1.319 -0.3589 -0.1995 -0.1598
 2565SOL    HW1 9295   0.161   0.439   1.346  0.6996 -0.7575  1.0753
 2565SOL    HW2 9296   0.052   0.317   1.357 -3.0397  1.6975 -4.2195
 2566SOL     OW 9297   5.607   1.037   0.027 -0.4271  0.0826 -0.4514
 2566SOL    HW1 9298   5.691   1.019  -0.025  0.0059 -0.2176  0.3325
 2566SOL    HW2 9299   5.627   1.100   0.102 -0.4821 -1.4105  0.8547
 2567SOL     OW 9300   3.531   5.649   6.936  0.1850 -0.4624 -0.0751
 2567SOL    HW1 9301   3.466   5.574   6.923  0.2645 -0.2699 -1.7509
 2567SOL    HW2 9302   3.529   5.710   6.857  1.8116  0.0217  0.2147
 2568SOL     OW 9303   1.126   6.849   3.385  0.0068 -0.3297  0.3604
 2568SOL    HW1 9304   1.134   6.947   3.368  0.6428 -0.3741  0.3859
 2568SOL    HW2 9305   1.198   6.800   3.336 -1.1573 -0.9282 -0.8395
 2569SOL     OW 9306   5.267   2.726   4.556  0.2923  0.1588 -0.5135
 2569SOL    HW1 9307   5.244   2.636   4.519 -1.7208  0.7464 -0.7791
 2569SOL    HW2 9308   5.333   2.770   4.495  3.1447 -1.9491  0.7753
 2570SOL     OW 9309   6.394   5.823   5.321 -0.5694  0.2075  0.5104
 2570SOL    HW1 9310   6.400   5.842   5.419 -0.6299 -2.7766  1.1828
 2570SOL    HW2 9311   6.467   5.872   5.273 -1.2478  2.6606  1.8080
 2571SOL     OW 9312   6.800   1.956   1.523  0.1487  0.3578 -0.4587
 2571SOL    HW1 9313   6.756   1.874   1.488  1.0324 -0.5388  0.4653
 2571SOL    HW2 9314   6.870   1.988   1.458  0.1309  0.1039 -0.6019
 2572SOL     OW 9315   0.214   0.446   1.877  0.5801  0.1622 -0.5414
 2572SOL    HW1 9316   0.246   0.535   1.909  1.5764 -0.2530 -0.3619
 2572SOL    HW2 9317   0.122   0.429   1.914  0.7280  0.7448  0.1102
 2573SOL     OW 9318   6.302   3.399   1.172  0.4063  0.0146  0.0307
 2573SOL    HW1 9319   6.386   3.387   1.225  2.3096  1.8316 -2.3039
 2573SOL    HW2 9320   6.296   3.326   1.104  1.3452  1.0118 -1.1935
 2574SOL     OW 9321   6.051   1.599   1.661  0.1350 -0.2890 -0.7262
 2574SOL    HW1 9322   6.017   1.664   1.728  0.6280 -0.8264  0.0503
 2574SOL    HW2 9323   6.036   1.505   1.694 -1.1580 -0.6079 -2.1046
 2575SOL     OW 9324   4.316   0.469   4.672  0.3035 -0.3736  0.0475
 2575SOL    HW1 9325   4.385   0.411   4.717  2.6497  0.1216 -2.6048
 2575SOL    HW2 9326   4.260   0.412   4.612 -0.4223 -0.5027  0.8296
 2576SOL     OW 9327   3.763   2.195   1.294 -0.2980  0.2607  0.0811
 2576SOL    HW1 9328   3.838   2.166   1.234 -1.6185 -0.5831 -1.2277
 2576SOL    HW2 9329   3.722   2.115   1.337  1.5502  0.9069  3.4324
 2577SOL     OW 9330   0.104   6.290   0.250  0.0727  0.1056 -0.2260
 2577SOL    HW1 9331   0.180   6.352   0.271  1.0522 -1.3486  0.6522
 2577SOL    HW2 9332   0.104   6.214   0.314 -1.5360 -0.4676 -0.8515
 2578SOL     OW 9333   5.899   2.538   5.309 -0.3286 -0.7427  0.0179
 2578SOL    HW1 9334   5.960   2.561   5.233 -0.2464  0.5827  0.4643
 2578SOL    HW2 9335   5.947   2.480   5.375  0.4312  0.2204  0.3229
 2579SOL     OW 9336   5.498   3.114   4.751  0.2280  0.7320 -0.0147
 2579SOL    HW1 9337   5.536   3.091   4.661  0.1063  1.5556 -0.2844
 2579SOL    HW2 9338   5.565   3.090   4.821  0.7769  1.0782 -0.4045
 2580SOL     OW 9339   3.115   5.118   3.992 -0.2657 -0.1049 -0.1125
 2580SOL    HW1 9340   3.170   5.193   4.030 -0.9652  0.8528 -0.9537
 2580SOL    HW2 9341   3.092   5.138   3.897 -2.4038 -0.2793  0.3188
 2581SOL     OW 9342   6.913   0.522   2.115  0.7122 -0.0113  0.1204
 2581SOL    HW1 9343   6.968   0.603   2.095 -1.3074  1.0767 -1.3492
 2581SOL    HW2 9344   6.819   0.536   2.083 -0.5171 -1.7430  2.6130
 2582SOL     OW 9345   5.180   1.169   2.928 -0.2543  0.0107 -0.4930
 2582SOL    HW1 9346   5.166   1.081   2.883  0.1849  0.3376 -1.3035
 2582SOL    HW2 9347   5.204   1.238   2.859 -0.0128  0.6292  0.1948
 2583SOL     OW 9348   1.142   3.419   3.421  0.0801 -0.4622  0.3383
 2583SOL    HW1 9349   1.080   3.487   3.382  0.5933 -0.1813 -0.0094
 2583SOL    HW2 9350   1.095   3.368   3.494 -0.6691 -0.5188 -0.1711
 2584SOL     OW 9351   2.966   6.124   1.468  0.0364  0.1011 -0.3949
 2584SOL    HW1 9352   3.035   6.181   1.422 -0.4052 -0.2193 -1.4975
 2584SOL    HW2 9353   3.009   6.043   1.506  0.3999  0.3286 -0.3126
 2585SOL     OW 9354   4.177   5.210   4.625 -0.1461 -0.6800  0.3714
 2585SOL    HW1 9355   4.257   5.268   4.639 -0.9103 -0.1168  2.9456
 2585SOL    HW2 9356   4.141   5.224   4.533  0.3382  2.1555  0.5412
 2586SOL     OW 9357   0.226   4.109   3.026 -0.6236  0.0975  0.1405
 2586SOL    HW1 9358   0.128   4.103   3.046 -0.3999  0.1201  1.3428
 2586SOL    HW2 9359   0.269   4.173   3.089  0.0375  0.7484 -0.9383
 2587SOL     OW 9360   1.220   3.921   3.941  0.0787 -0.2237 -0.0265
 2587SOL    HW1 9361   1.172   4.002   3.907  0.2941  0.0089  0.2131
 2587SOL    HW2 9362   1.157   3.864   3.994  0.7539  1.7298  3.1290
 2588SOL     OW 9363   4.862   1.686   3.793 -0.4127  0.4554  0.6573
 2588SOL    HW1 9364   4.861   1.772   3.843 -2.5450  0.2824  1.0060
 2588SOL    HW2 9365   4.926   1.623   3.838  0.3193  1.4530  1.0604
 2589SOL     OW 9366   6.220   1.338   5.411 -0.2011 -0.0248 -0.4149
 2589SOL    HW1 9367   6.189   1.348   5.316  0.5771  0.0162 -0.6650
 2589SOL    HW2 9368   6.268   1.251   5.421 -1.4729 -0.6924  0.2780
 2590SOL     OW 9369   6.639   4.427   1.624 -0.3717  0.2370 -0.3858
 2590SOL    HW1 9370   6.675   4.341   1.589  0.3241  0.0988  0.6315
 2590SOL    HW2 9371   6.575   4.408   1.699 -2.0150  0.5162 -1.6338
 2591SOL     OW 9372   5.929   0.297   4.338  0.2950 -0.1929 -0.0774
 2591SOL    HW1 9373   5.851   0.306   4.401  1.0872  0.8290  0.7801
 2591SOL    HW2 9374   5.906   0.230   4.267 -0.9326 -0.7566  0.8091
 2592SOL     OW 9375   6.190   1.743   6.582  0.2875 -0.2515  0.2412
 2592SOL    HW1 9376   6.099   1.733   6.542  0.0952 -1.5730  0.9343
 2592SOL    HW2 9377   6.259   1.737   6.510 -0.1517  0.4180 -0.2473
 2593SOL     OW 9378   5.534   5.180   0.978  0.0836  0.7896  0.0201
 2593SOL    HW1 9379   5.571   5.262   1.022 -1.3457  2.2306 -1.3394
 2593SOL    HW2 9380   5.479   5.129   1.044  2.0539  0.1348  1.2553
 2594SOL     OW 9381   0.717   2.167   0.883 -0.2485 -0.2347 -0.3282
 2594SOL    HW1 9382   0.662   2.224   0.822 -1.9880  1.1754  2.3593
 2594SOL    HW2 9383   0.798   2.218   0.912 -0.7406  0.1263  0.4612
 2595SOL     OW 9384   2.284   4.580   0.781  0.2551  0.1880  0.3934
 2595SOL    HW1 9385   2.199   4.550   0.823  0.4630  1.4372  1.8238
 2595SOL    HW2 9386   2.349   4.504   0.777 -0.4659 -0.4390  0.5393
 2596SOL     OW 9387   0.930   1.016   6.432 -0.6761  0.7708 -0.1321
 2596SOL    HW1 9388   1.015   0.968   6.454 -0.0659  0.8276 -2.2192
 2596SOL    HW2 9389   0.925   1.101   6.485 -0.3322 -0.0835  1.3453
 2597SOL     OW 9390   3.903   0.889   2.299  0.6148  0.2162 -0.3936
 2597SOL    HW1 9391   3.850   0.805   2.286 -0.8559  1.2352 -1.3436
 2597SOL    HW2 9392   3.862   0.943   2.373  1.6406  0.0464  0.3142
 2598SOL     OW 9393   1.819   3.105   2.221  0.5392 -0.1172  0.3777
 2598SOL    HW1 9394   1.734   3.154   2.239 -0.8071 -2.0152 -0.5308
 2598SOL    HW2 9395   1.831   3.033   2.289 -0.4586 -2.1239 -1.4536
 2599SOL     OW 9396   1.557   5.264   4.078  0.9061 -0.0285 -0.3558
 2599SOL    HW1 9397   1.602   5.353   4.074  5.1095 -1.9168  0.0330
 2599SOL    HW2 9398   1.541   5.232   3.985  0.5443  0.5577 -0.5055
 2600SOL     OW 9399   0.927   1.283   2.358 -0.0890  0.6030  0.2222
 2600SOL    HW1 9400   0.996   1.351   2.383 -0.1706 -0.0817  2.6301
 2600SOL    HW2 9401   0.949   1.243   2.270  1.8127  1.3847  0.3055
 2601SOL     OW 9402   6.416   4.081   5.730  0.5830 -0.4963  0.5252
 2601SOL    HW1 9403   6.366   4.037   5.655 -1.0666 -0.0181  1.2796
 2601SOL    HW2 9404   6.501   4.032   5.748  0.4366 -1.3060 -0.8790
 2602SOL     OW 9405   6.369   3.053   3.155 -0.1126  0.2482  0.2625
 2602SOL    HW1 9406   6.379   3.150   3.133 -0.0117  0.0576 -0.5542
 2602SOL    HW2 9407   6.451   3.020   3.201  1.2037 -0.1790 -2.2356
 2603SOL     OW 9408   1.796   0.359   6.035 -0.2501 -0.1631  1.1755
 2603SOL    HW1 9409   1.860   0.294   6.075 -1.5135 -1.2180  1.5468
 2603SOL    HW2 9410   1.823   0.377   5.940  1.1684  0.2245  1.6200
 2604SOL     OW 9411   4.154   2.265   1.926  0.7628 -0.3650  0.4133
 2604SOL    HW1 9412   4.187   2.357   1.948  0.9568 -0.6379  1.2686
 2604SOL    HW2 9413   4.230   2.200   1.929  0.5666 -0.6156  0.1204
 2605SOL     OW 9414   4.574   6.056   0.528 -0.5536  0.1679 -0.6778
 2605SOL    HW1 9415   4.629   6.136   0.502  0.4701 -0.3329 -0.1164
 2605SOL    HW2 9416   4.502   6.042   0.460 -0.5248  1.3442 -0.9806
 2606SOL     OW 9417   2.648   4.297   1.881  0.0480  0.4945  0.1248
 2606SOL    HW1 9418   2.705   4.281   1.801 -0.9085  0.4209 -0.5668
 2606SOL    HW2 9419   2.552   4.281   1.857 -0.2345  0.2574  1.3479
 2607SOL     OW 9420   0.139   6.008   2.252 -0.0976  0.0276  0.3352
 2607SOL    HW1 9421   0.215   6.061   2.213 -0.5160  0.5290  0.1932
 2607SOL    HW2 9422   0.064   6.005   2.187 -0.3968 -0.0317  0.6799
 2608SOL     OW 9423   6.397   1.407   1.279  0.0529  0.3563  0.1290
 2608SOL    HW1 9424   6.392   1.318   1.324  1.1925 -0.0100 -0.4068
 2608SOL    HW2 9425   6.309   1.428   1.237  0.1028 -1.0939 -0.7834
 2609SOL     OW 9426   6.418   2.810   6.372  0.2311 -0.0837 -0.5421
 2609SOL    HW1 9427   6.322   2.795   6.395  0.0255 -0.1200 -1.3702
 2609SOL    HW2 9428   6.471   2.827   6.455 -0.3630 -0.7684 -0.0137
 2610SOL     OW 9429   6.975   2.891   4.869 -0.3906  0.2932  0.1426
 2610SOL    HW1 9430   6.950   2.819   4.934  2.1598 -0.8641 -0.0350
 2610SOL    HW2 9431   6.958   2.860   4.776  2.2738 -0.8736 -0.0314
 2611SOL     OW 9432   1.495   1.720   5.167  0.4769  0.1255  0.7671
 2611SOL    HW1 9433   1.560   1.712   5.092 -1.7977 -3.0952 -1.1189
 2611SOL    HW2 9434   1.469   1.629   5.199 -1.4698  1.3168  2.9148
 2612SOL     OW 9435   0.834   4.098   1.129 -0.0335 -0.0739  0.0510
 2612SOL    HW1 9436   0.775   4.093   1.049  1.5376 -0.6927 -1.1250
 2612SOL    HW2 9437   0.930   4.099   1.100  0.5769  0.0639  1.9187
 2613SOL     OW 9438   3.657   6.555   6.681  0.5095 -0.2446  0.5837
 2613SOL    HW1 9439   3.601   6.530   6.760  1.5498 -2.5443  0.6704
 2613SOL    HW2 9440   3.682   6.652   6.687 -0.3822 -0.0896  2.4435
 2614SOL     OW 9441   2.397   3.926   5.624  0.5127 -0.5040  0.2539
 2614SOL    HW1 9442   2.336   4.003   5.603 -0.6286 -0.8392  2.0540
 2614SOL    HW2 9443   2.480   3.934   5.570  0.2135  1.7267 -0.0005
 2615SOL     OW 9444   3.501   6.512   2.889  0.5132 -0.2027 -0.3825
 2615SOL    HW1 9445   3.479   6.418   2.916  1.8274 -0.8917 -1.5556
 2615SOL    HW2 9446   3.447   6.537   2.808  1.7206 -0.7867 -1.4084
 2616SOL     OW 9447   4.037   5.713   4.175  0.0124  0.1957 -0.3812
 2616SOL    HW1 9448   4.103   5.707   4.099  0.0334  3.2676 -0.7283
 2616SOL    HW2 9449   3.973   5.788   4.157 -2.5368 -1.5644  0.8026
 2617SOL     OW 9450   2.546   1.018   0.776 -0.6523 -0.4877  0.2315
 2617SOL    HW1 9451   2.462   0.965   0.789 -1.9288  1.2392 -0.6252
 2617SOL    HW2 9452   2.582   1.002   0.684 -2.0032  1.3401 -0.6752
 2618SOL     OW 9453   3.380   1.982   2.218 -0.2307 -0.0080 -0.4919
 2618SOL    HW1 9454   3.465   2.005   2.169  1.0119 -1.3027  0.9486
 2618SOL    HW2 9455   3.331   2.066   2.240  1.8962  1.0017  0.7236
 2619SOL     OW 9456   1.161   4.440   3.923 -0.3963 -0.0074  0.1653
 2619SOL    HW1 9457   1.175   4.426   3.825 -2.7722 -1.5126 -0.0255
 2619SOL    HW2 9458   1.205   4.365   3.973  0.3358  0.4557  0.2220
 2620SOL     OW 9459   6.430   0.895   2.623  0.6277  0.0572  0.1623
 2620SOL    HW1 9460   6.427   0.992   2.648  0.6654 -0.2733  1.5794
 2620SOL    HW2 9461   6.517   0.873   2.580  1.3349  0.3329  1.3902
 2621SOL     OW 9462   0.403   0.461   0.745  0.2173 -0.1064  0.3503
 2621SOL    HW1 9463   0.309   0.448   0.712  0.4703  0.9470 -0.8535
 2621SOL    HW2 9464   0.405   0.538   0.809  0.2454 -0.1573  0.4099
 2622SOL     OW 9465   5.933   1.983   6.963  0.2768  0.7268 -0.2753
 2622SOL    HW1 9466   5.856   2.014   7.020  0.4456  1.1518 -0.2759
 2622SOL    HW2 9467   5.992   2.061   6.942  1.1642  0.2620  0.4139
 2623SOL     OW 9468   3.111   0.323   0.160 -0.2575  0.7003 -0.4665
 2623SOL    HW1 9469   3.196   0.337   0.211 -0.7551 -0.6590  0.8123
 2623SOL    HW2 9470   3.036   0.368   0.209 -0.7602 -0.7102  0.1069
 2624SOL     OW 9471   1.632   3.506   3.789 -0.3441  0.4882  0.0621
 2624SOL    HW1 9472   1.719   3.468   3.760 -0.1348  0.2735  0.9430
 2624SOL    HW2 9473   1.644   3.603   3.813 -0.2245  0.3169  0.7074
 2625SOL     OW 9474   3.432   6.638   5.258 -0.3107  0.6974 -0.4678
 2625SOL    HW1 9475   3.377   6.659   5.339  0.3515 -0.3256  0.2751
 2625SOL    HW2 9476   3.446   6.539   5.253 -3.0714  0.3112 -3.6444
 2626SOL     OW 9477   2.310   5.039   1.701  0.3404 -0.2434  0.0213
 2626SOL    HW1 9478   2.248   5.076   1.770  0.7207 -2.4645  1.6845
 2626SOL    HW2 9479   2.266   4.962   1.655  1.4208 -1.1363  0.4372
 2627SOL     OW 9480   2.845   0.806   0.198  0.8043 -0.3218  0.2900
 2627SOL    HW1 9481   2.870   0.901   0.180  0.4657 -0.0561  1.1521
 2627SOL    HW2 9482   2.918   0.746   0.167  1.0588  0.2212 -0.1887
 2628SOL     OW 9483   3.795   0.562   4.056 -0.1929 -0.2511  0.1474
 2628SOL    HW1 9484   3.749   0.649   4.074  0.9676  0.3234  0.4352
 2628SOL    HW2 9485   3.787   0.503   4.137  1.4184  0.7054  1.0606
 2629SOL     OW 9486   5.164   6.366   3.453 -0.4107 -0.9340 -0.1018
 2629SOL    HW1 9487   5.233   6.409   3.511 -1.1296  0.4669 -0.2274
 2629SOL    HW2 9488   5.111   6.437   3.406 -2.0474 -1.9499  0.1159
 2630SOL     OW 9489   3.745   3.577   5.834  0.0013  0.0769 -0.3004
 2630SOL    HW1 9490   3.827   3.598   5.781 -1.2471 -0.1351 -2.4088
 2630SOL    HW2 9491   3.687   3.658   5.837 -0.4843 -0.2734 -0.2712
 2631SOL     OW 9492   6.924   6.786   5.677  0.1451 -0.4175 -0.0031
 2631SOL    HW1 9493   6.943   6.763   5.772  0.0378 -0.9175 -0.1014
 2631SOL    HW2 9494   6.841   6.739   5.647 -1.0068  1.3358  0.2709
 2632SOL     OW 9495   0.244   6.235   4.054 -0.3958 -0.0830 -0.3032
 2632SOL    HW1 9496   0.316   6.200   3.994  0.4197  1.7980 -0.4939
 2632SOL    HW2 9497   0.279   6.244   4.147 -0.9030 -0.7140 -0.0503
 2633SOL     OW 9498   3.751   3.516   3.220  0.0943 -0.4142 -0.2489
 2633SOL    HW1 9499   3.805   3.468   3.291  1.6328  1.6455  0.0642
 2633SOL    HW2 9500   3.786   3.491   3.130  0.4168 -0.4435 -0.1192
 2634SOL     OW 9501   2.355   4.837   2.301  0.4356  0.3862  0.0439
 2634SOL    HW1 9502   2.306   4.807   2.383 -0.5081  2.3640  0.2854
 2634SOL    HW2 9503   2.357   4.764   2.234 -0.5973 -0.6003  1.0447
 2635SOL     OW 9504   3.676   5.298   5.375 -0.6505 -0.0973 -0.2495
 2635SOL    HW1 9505   3.655   5.202   5.393  0.8963 -0.3445  0.4090
 2635SOL    HW2 9506   3.601   5.339   5.323 -2.5469 -0.9669  1.6304
 2636SOL     OW 9507   6.686   6.773   6.188  0.0861  0.8071  0.4516
 2636SOL    HW1 9508   6.614   6.812   6.131 -0.7845 -0.1987  0.8335
 2636SOL    HW2 9509   6.701   6.831   6.268 -1.2495  0.3644  1.0568
 2637SOL     OW 9510   1.934   3.022   6.550  0.1359  0.6611  0.0851
 2637SOL    HW1 9511   1.854   2.979   6.591 -0.0897  0.3048 -0.6970
 2637SOL    HW2 9512   2.004   2.952   6.532  0.5160  0.9255  0.5144
 2638SOL     OW 9513   0.419   5.589   1.230 -0.0228  0.5275 -0.2489
 2638SOL    HW1 9514   0.463   5.652   1.294 -1.1589 -0.4638  1.6017
 2638SOL    HW2 9515   0.323   5.615   1.219 -0.2279 -0.2411 -0.3033
 2639SOL     OW 9516   6.756   1.906   5.824 -0.3546  0.3875 -0.0975
 2639SOL    HW1 9517   6.837   1.875   5.874 -1.1772 -0.0176  1.0271
 2639SOL    HW2 9518   6.779   1.919   5.727  1.1072  0.5344  0.2446
 2640SOL     OW 9519   0.613   6.788   6.304 -0.3345 -0.2933 -0.0838
 2640SOL    HW1 9520   0.626   6.738   6.218  0.1865  0.4681 -0.4557
 2640SOL    HW2 9521   0.516   6.810   6.314 -0.2459  0.6743 -1.0973
 2641SOL     OW 9522   5.721   1.130   2.820  0.0406 -0.3924  0.0549
 2641SOL    HW1 9523   5.653   1.199   2.795 -0.0121 -0.0137  1.1933
 2641SOL    HW2 9524   5.802   1.175   2.857  0.8202 -0.8565 -1.0459
 2642SOL     OW 9525   1.799   1.014   5.010 -0.4772  0.0606  0.3849
 2642SOL    HW1 9526   1.734   1.061   5.069 -0.0451  0.4689  0.5430
 2642SOL    HW2 9527   1.865   1.080   4.974  0.2869 -0.4622  0.8025
 2643SOL     OW 9528   0.293   1.503   1.532  0.3167 -0.0881 -0.4844
 2643SOL    HW1 9529   0.383   1.525   1.493  0.7321  0.6367  0.8424
 2643SOL    HW2 9530   0.243   1.587   1.550  0.1848 -0.3975  0.6427
 2644SOL     OW 9531   0.428   1.707   4.610 -0.5435 -0.4739 -0.0311
 2644SOL    HW1 9532   0.472   1.689   4.699 -0.0338 -0.7818 -0.3407
 2644SOL    HW2 9533   0.484   1.771   4.558 -0.7772 -0.3981 -0.1896
 2645SOL     OW 9534   0.528   2.616   1.236  0.0448  0.0740 -0.3316
 2645SOL    HW1 9535   0.558   2.711   1.243 -0.7554  0.5918 -2.7277
 2645SOL    HW2 9536   0.456   2.598   1.303  0.0538  1.2160  0.0019
 2646SOL     OW 9537   4.063   0.019   1.965  0.0684  0.3767 -0.1196
 2646SOL    HW1 9538   3.998  -0.056   1.953 -0.8259  0.5719  2.7379
 2646SOL    HW2 9539   4.155  -0.019   1.976  0.4447  0.0580 -3.3701
 2647SOL     OW 9540   3.093   5.424   1.582 -0.0799  0.2062 -0.5540
 2647SOL    HW1 9541   3.157   5.379   1.521  0.7533  1.8585 -0.9606
 2647SOL    HW2 9542   3.053   5.357   1.644  1.8287 -0.9276 -0.4800
 2648SOL     OW 9543   6.302   5.602   4.442  0.0835  0.1037 -0.8385
 2648SOL    HW1 9544   6.292   5.675   4.509  0.4496 -0.0197 -0.6503
 2648SOL    HW2 9545   6.306   5.641   4.350 -2.9043  0.1494 -1.0383
 2649SOL     OW 9546   3.433   5.448   4.755  0.3459 -0.2694 -0.1242
 2649SOL    HW1 9547   3.419   5.376   4.824  0.7994  1.2131  1.5766
 2649SOL    HW2 9548   3.531   5.468   4.747  0.2846 -0.2964 -1.1058
 2650SOL     OW 9549   6.456   5.047   1.140 -0.2335  1.3171  0.8247
 2650SOL    HW1 9550   6.485   5.009   1.052 -1.1768  2.0471  0.1631
 2650SOL    HW2 9551   6.530   5.039   1.206  0.3931  0.4779  0.0521
 2651SOL     OW 9552   5.063   2.080   4.196  0.0205 -0.4956  0.2941
 2651SOL    HW1 9553   5.033   2.011   4.261  1.8220 -1.9087 -0.3039
 2651SOL    HW2 9554   5.026   2.169   4.224 -2.3144 -1.6151  1.1151
 2652SOL     OW 9555   5.976   0.509   0.210  0.1472  0.1708  0.0925
 2652SOL    HW1 9556   5.945   0.516   0.305  1.0547  1.3016  0.3280
 2652SOL    HW2 9557   5.940   0.586   0.158  1.0325  0.4900 -0.0628
 2653SOL     OW 9558   0.045   2.290   1.304 -0.2796 -0.0850 -0.3388
 2653SOL    HW1 9559  -0.023   2.361   1.323 -3.0243 -2.2406 -1.3062
 2653SOL    HW2 9560   0.111   2.324   1.238 -0.4364  2.0746  0.5218
 2654SOL     OW 9561   1.490   0.779   3.337 -0.0464  0.0108  0.0841
 2654SOL    HW1 9562   1.477   0.684   3.365 -0.6877 -0.0793 -0.5089
 2654SOL    HW2 9563   1.548   0.782   3.256  0.7031  0.1869  0.6204
 2655SOL     OW 9564   6.577   4.436   4.786 -0.4419 -0.4133  0.3821
 2655SOL    HW1 9565   6.484   4.428   4.751 -0.1413 -0.3853 -0.4494
 2655SOL    HW2 9566   6.611   4.346   4.813 -0.1531 -0.6799 -0.8164
 2656SOL     OW 9567   1.233   1.413   0.819 -0.1780 -0.5269  0.0343
 2656SOL    HW1 9568   1.259   1.358   0.740 -1.0663  0.8868 -1.3051
 2656SOL    HW2 9569   1.196   1.354   0.891  2.5319 -2.0780  0.2741
 2657SOL     OW 9570   3.104   1.844   1.455 -0.0087  0.7742  0.1893
 2657SOL    HW1 9571   3.105   1.922   1.391  0.7064 -0.5054 -1.4412
 2657SOL    HW2 9572   3.198   1.827   1.486 -0.0435  0.0977 -0.0754
 2658SOL     OW 9573   4.507   1.358   1.073  0.7721  0.1207 -0.1973
 2658SOL    HW1 9574   4.550   1.270   1.053  1.6796  0.7867 -1.2635
 2658SOL    HW2 9575   4.457   1.352   1.159  0.6004 -1.5111 -0.3880
 2659SOL     OW 9576   0.232   1.537   4.525 -0.1114 -0.5828  0.0542
 2659SOL    HW1 9577   0.307   1.579   4.577  1.4254 -4.4348  1.2916
 2659SOL    HW2 9578   0.254   1.539   4.428  1.0762 -0.6350  0.3094
 2660SOL     OW 9579   2.170   6.685   2.564 -0.1467 -0.6121 -0.2211
 2660SOL    HW1 9580   2.163   6.779   2.530 -0.3443 -0.7045 -0.4394
 2660SOL    HW2 9581   2.225   6.631   2.501  1.6979 -0.1673  0.9195
 2661SOL     OW 9582   3.800   2.803   1.411  0.3933 -0.1312 -0.1286
 2661SOL    HW1 9583   3.707   2.815   1.377  0.1491 -0.3446  0.4601
 2661SOL    HW2 9584   3.801   2.809   1.510  1.0019 -0.1801 -0.1273
 2662SOL     OW 9585   6.401   6.005   0.511 -0.1934  0.1768 -0.0414
 2662SOL    HW1 9586   6.394   6.086   0.570  1.5634 -0.4994  1.1716
 2662SOL    HW2 9587   6.473   6.019   0.444  0.8001 -0.7231  0.8021
 2663SOL     OW 9588   3.015   3.741   3.552 -0.5283 -0.0833 -0.0984
 2663SOL    HW1 9589   2.954   3.796   3.609 -1.5851 -1.2334 -0.0548
 2663SOL    HW2 9590   3.057   3.669   3.608  1.5730  1.1766  0.0545
 2664SOL     OW 9591   0.569   1.616   3.349 -0.7501 -0.0623 -0.6456
 2664SOL    HW1 9592   0.572   1.517   3.337 -1.9589 -0.0660 -1.0567
 2664SOL    HW2 9593   0.646   1.658   3.300 -0.1622 -0.7902 -0.3715
 2665SOL     OW 9594   6.356   5.237   4.975  0.4798  0.2238  0.0315
 2665SOL    HW1 9595   6.396   5.312   5.027 -0.0297  0.3621  0.2264
 2665SOL    HW2 9596   6.356   5.260   4.877  0.2119  0.5261  0.1038
 2666SOL     OW 9597   0.568   6.296   5.921 -0.4055 -0.3061  0.3168
 2666SOL    HW1 9598   0.597   6.373   5.865  1.6480 -0.5394  0.9867
 2666SOL    HW2 9599   0.584   6.211   5.871  3.7572 -0.7062  1.9564
 2667SOL     OW 9600   4.053   5.808   3.438  0.1485  0.6890 -0.2603
 2667SOL    HW1 9601   4.021   5.714   3.444  1.5271  0.0532 -1.9461
 2667SOL    HW2 9602   4.030   5.845   3.348  1.8756  1.0500 -0.5905
 2668SOL     OW 9603   5.723   6.258   1.868 -0.4763  0.3196 -0.2088
 2668SOL    HW1 9604   5.820   6.262   1.845 -0.0675 -0.2373  1.3204
 2668SOL    HW2 9605   5.684   6.171   1.836 -0.4501  0.4891 -0.7099
 2669SOL     OW 9606   4.546   4.476   1.513 -0.0914  0.0635 -0.0244
 2669SOL    HW1 9607   4.571   4.459   1.609 -1.3335  0.7448  0.4535
 2669SOL    HW2 9608   4.503   4.394   1.475  1.2883 -0.5416 -0.3275
 2670SOL     OW 9609   3.292   6.117   6.379  0.2377 -0.0678  0.3505
 2670SOL    HW1 9610   3.329   6.067   6.300  0.0977 -0.7845  0.7263
 2670SOL    HW2 9611   3.196   6.092   6.391  0.9360 -2.0614  2.3390
 2671SOL     OW 9612   0.186   2.108   3.167  0.0769 -0.1545 -0.5408
 2671SOL    HW1 9613   0.204   2.029   3.109 -1.2404 -1.5939  0.9116
 2671SOL    HW2 9614   0.126   2.172   3.118  0.0578 -0.6985 -1.2427
 2672SOL     OW 9615   0.312   4.974   2.941  0.2522  0.2552  0.1339
 2672SOL    HW1 9616   0.375   5.008   2.870  2.0312  0.2939  1.6417
 2672SOL    HW2 9617   0.296   5.047   3.008 -2.7330  0.7615 -1.0095
 2673SOL     OW 9618   0.445   5.706   4.754 -0.1056 -0.0274  0.3210
 2673SOL    HW1 9619   0.376   5.728   4.685  0.3960 -0.0946 -0.2085
 2673SOL    HW2 9620   0.461   5.607   4.754  0.2653  0.0325  0.1783
 2674SOL     OW 9621   4.259   6.164   0.725  0.3361  0.0969 -0.6915
 2674SOL    HW1 9622   4.283   6.260   0.739  0.3283  0.0856 -0.5940
 2674SOL    HW2 9623   4.238   6.148   0.629 -2.0916  0.7606 -0.3644
 2675SOL     OW 9624   0.884   1.949   2.753 -0.3806  0.3952  0.4448
 2675SOL    HW1 9625   0.875   1.978   2.657 -0.0500 -0.6461  0.0823
 2675SOL    HW2 9626   0.949   2.009   2.800  0.7652 -0.0935 -0.4486
 2676SOL     OW 9627   3.348   4.094   3.775  0.3920 -0.1025 -0.0944
 2676SOL    HW1 9628   3.380   4.114   3.683  0.1492  1.4988  0.1435
 2676SOL    HW2 9629   3.295   4.171   3.810  0.6606 -0.5850  1.4742
 2677SOL     OW 9630   5.270   6.864   0.204 -0.7038 -0.2737 -0.1942
 2677SOL    HW1 9631   5.316   6.943   0.164 -1.5323  0.2216 -0.1829
 2677SOL    HW2 9632   5.335   6.814   0.263  0.0088  0.0029 -0.7348
 2678SOL     OW 9633   6.309   0.762   5.792 -0.2197  0.2872  0.2976
 2678SOL    HW1 9634   6.221   0.748   5.746  0.1514 -1.7246  0.1148
 2678SOL    HW2 9635   6.301   0.839   5.856 -1.3426  1.8150 -1.5545
 2679SOL     OW 9636   4.739   2.040   6.508  0.6972  0.1354  0.0526
 2679SOL    HW1 9637   4.771   1.996   6.424  1.1566 -1.8396  1.2178
 2679SOL    HW2 9638   4.700   1.972   6.569 -0.1864  1.6269  1.2228
 2680SOL     OW 9639   0.854   3.539   6.064 -0.3623  0.3539 -0.2108
 2680SOL    HW1 9640   0.781   3.607   6.055 -0.1032  0.5280 -1.1213
 2680SOL    HW2 9641   0.918   3.569   6.135 -1.2803  0.0809  0.7748
 2681SOL     OW 9642   2.385   2.188   5.259  0.0531 -0.1679  0.5816
 2681SOL    HW1 9643   2.452   2.261   5.250 -1.2327  0.9459 -0.3469
 2681SOL    HW2 9644   2.427   2.109   5.304  1.5293  1.0536  1.4219
 2682SOL     OW 9645   6.702   5.251   4.701 -0.2030  0.1717 -0.0456
 2682SOL    HW1 9646   6.752   5.334   4.677  0.2205  0.3528  1.3386
 2682SOL    HW2 9647   6.746   5.172   4.659  1.5541  0.2852  1.4511
 2683SOL     OW 9648   5.940   4.549   1.291  0.9115  0.5205  0.0315
 2683SOL    HW1 9649   6.032   4.574   1.321  0.1173  2.5992  0.9144
 2683SOL    HW2 9650   5.872   4.589   1.352 -0.6167 -0.8993 -0.6431
 2684SOL     OW 9651   6.037   2.648   1.093 -0.6316  0.5233 -0.0509
 2684SOL    HW1 9652   6.078   2.601   1.171 -2.3848 -1.3424 -0.1715
 2684SOL    HW2 9653   5.980   2.723   1.126  0.0857  0.9245  0.3140
 2685SOL     OW 9654   2.974   3.868   1.667 -0.3130 -0.1759 -0.5701
 2685SOL    HW1 9655   2.958   3.811   1.587 -0.2718 -0.5133 -0.3386
 2685SOL    HW2 9656   2.958   3.964   1.644  1.5247 -0.0469 -1.5141
 2686SOL     OW 9657   2.993   5.197   1.739  0.1022  0.5612  0.1870
 2686SOL    HW1 9658   3.072   5.136   1.732 -0.1340  0.1557  0.9376
 2686SOL    HW2 9659   2.941   5.194   1.653 -0.2454 -0.7808  0.4153
 2687SOL     OW 9660   1.278   5.800   4.457  0.2771  0.6019 -0.0642
 2687SOL    HW1 9661   1.181   5.783   4.476 -0.1080  0.6318 -1.8522
 2687SOL    HW2 9662   1.331   5.717   4.477 -0.1157  0.5770  0.8929
 2688SOL     OW 9663   6.673   1.418   3.045  0.0437  0.8085  0.0962
 2688SOL    HW1 9664   6.702   1.510   3.021  2.2851  0.3172  0.7338
 2688SOL    HW2 9665   6.635   1.419   3.138  2.8511  0.6811  1.3528
 2689SOL     OW 9666   0.178   3.484   1.960 -0.2819 -0.0340 -0.2811
 2689SOL    HW1 9667   0.187   3.510   1.864  0.5008  2.4210  0.3686
 2689SOL    HW2 9668   0.210   3.559   2.018 -4.1278  0.1027  2.0026
 2690SOL     OW 9669   2.225   0.376   5.027  0.5393  0.4810  0.3466
 2690SOL    HW1 9670   2.130   0.391   5.056 -0.4209 -2.1288 -1.1284
 2690SOL    HW2 9671   2.247   0.439   4.953  0.0086  1.2227  0.8056
 2691SOL     OW 9672   5.493   2.002   5.467 -0.3426 -0.1242  0.1468
 2691SOL    HW1 9673   5.449   2.066   5.530 -0.7307  0.0133 -0.2609
 2691SOL    HW2 9674   5.481   2.034   5.373  0.0511 -0.4394 -0.0154
 2692SOL     OW 9675   7.018   5.690   4.494 -0.2017  0.2869 -0.1841
 2692SOL    HW1 9676   7.017   5.662   4.398  4.9596 -1.7451  0.0571
 2692SOL    HW2 9677   7.037   5.788   4.500  3.6805 -0.2133 -1.5346
 2693SOL     OW 9678   1.768   5.393   6.038  0.1175  0.0131 -0.0378
 2693SOL    HW1 9679   1.776   5.452   6.119 -1.1467  1.1901 -0.7376
 2693SOL    HW2 9680   1.773   5.449   5.955  0.8218 -1.1147 -0.7869
 2694SOL     OW 9681   3.927   6.931   2.589 -0.4483  0.0768 -0.1910
 2694SOL    HW1 9682   3.903   6.935   2.492 -2.3220 -1.2685  0.1500
 2694SOL    HW2 9683   3.943   6.836   2.616  0.3209  0.4572  0.7645
 2695SOL     OW 9684   4.966   2.528   6.450  0.3076 -0.2116  0.4645
 2695SOL    HW1 9685   4.984   2.577   6.536  0.4089 -1.0499  0.9361
 2695SOL    HW2 9686   5.040   2.463   6.433 -0.2289 -0.7891  0.2828
 2696SOL     OW 9687   5.374   5.574   5.722 -0.7379  0.1334  0.4744
 2696SOL    HW1 9688   5.282   5.571   5.761 -0.3546 -1.8394  1.3703
 2696SOL    HW2 9689   5.400   5.482   5.691  0.9266  0.6484  0.2372
 2697SOL     OW 9690   1.453   3.937   5.030 -0.0126  0.2243  0.8374
 2697SOL    HW1 9691   1.546   3.954   4.998  0.0112 -0.9339  0.2578
 2697SOL    HW2 9692   1.388   3.973   4.963  0.0332 -0.5124  0.3871
 2698SOL     OW 9693   1.439   1.935   5.327 -0.1996  0.3111  0.3199
 2698SOL    HW1 9694   1.525   1.936   5.378  0.2704 -1.2593 -0.3777
 2698SOL    HW2 9695   1.446   1.870   5.252 -1.6376  0.9686 -0.4174
 2699SOL     OW 9696   2.892   0.035   2.898  0.3748 -0.6942 -0.4489
 2699SOL    HW1 9697   2.889   0.027   2.997  0.6403  1.7278 -0.1716
 2699SOL    HW2 9698   2.987   0.032   2.867  0.6021  1.6948 -0.2016
 2700SOL     OW 9699   6.106   5.751   4.895 -0.1803  0.5891  0.9095
 2700SOL    HW1 9700   6.081   5.721   4.987  2.4993 -1.7304  1.0596
 2700SOL    HW2 9701   6.156   5.677   4.849  2.8207  3.2762 -0.5787
 2701SOL     OW 9702   2.085   3.331   6.252 -0.5980  0.3033 -0.3688
 2701SOL    HW1 9703   2.029   3.414   6.262 -0.3959  0.3273  0.6446
 2701SOL    HW2 9704   2.182   3.356   6.250 -0.5087  0.0716  0.4352
 2702SOL     OW 9705   6.130   4.540   0.979  0.4415 -0.0582  0.1198
 2702SOL    HW1 9706   6.221   4.545   0.938 -0.2835  1.3037 -1.4405
 2702SOL    HW2 9707   6.100   4.444   0.981  0.6916 -0.2374 -2.1949
 2703SOL     OW 9708   6.170   4.542   3.086  0.3637  0.5788 -0.0246
 2703SOL    HW1 9709   6.110   4.500   3.153 -0.2240  0.7384 -0.4426
 2703SOL    HW2 9710   6.116   4.592   3.019  0.8709 -0.3582 -1.1655
 2704SOL     OW 9711   5.844   1.289   6.202 -0.2796 -0.0152  0.4406
 2704SOL    HW1 9712   5.780   1.329   6.137 -1.1033 -0.2712  1.0827
 2704SOL    HW2 9713   5.794   1.251   6.280  0.5254 -1.4791  0.2922
 2705SOL     OW 9714   5.620   0.389   4.013  0.2916  0.2212  0.0672
 2705SOL    HW1 9715   5.582   0.437   3.934 -0.3489  0.8424  0.7408
 2705SOL    HW2 9716   5.554   0.322   4.047  1.1729 -1.1546 -0.8541
 2706SOL     OW 9717   1.869   6.157   4.627 -0.9582  0.2755 -0.1294
 2706SOL    HW1 9718   1.835   6.215   4.553 -0.5551 -1.0606 -1.4203
 2706SOL    HW2 9719   1.969   6.158   4.626 -0.9515  0.1427  0.3112
 2707SOL     OW 9720   2.950   5.538   6.886  0.2768  0.4861  0.1350
 2707SOL    HW1 9721   2.862   5.493   6.867 -0.2036  1.6303 -0.4329
 2707SOL    HW2 9722   2.969   5.532   6.984  1.6840 -3.5068 -0.2032
 2708SOL     OW 9723   5.201   1.847   3.586  0.1980  0.0044  0.1376
 2708SOL    HW1 9724   5.111   1.886   3.607  0.4676  0.6173  0.1690
 2708SOL    HW2 9725   5.221   1.861   3.489 -1.3159 -3.3681 -0.8019
 2709SOL     OW 9726   0.118   6.038   2.952 -0.3100 -0.1422  0.2981
 2709SOL    HW1 9727   0.116   6.056   3.050 -1.7248 -1.9602  0.6626
 2709SOL    HW2 9728   0.206   5.998   2.927 -0.2235 -0.3831  0.9798
 2710SOL     OW 9729   6.565   2.392   4.996 -0.2602  0.0422  0.3004
 2710SOL    HW1 9730   6.626   2.398   4.917 -1.5587 -0.8335 -0.8122
 2710SOL    HW2 9731   6.600   2.325   5.061  0.6873  0.5852  0.3726
 2711SOL     OW 9732   5.713   0.615   6.868  0.2461 -0.3992 -0.0431
 2711SOL    HW1 9733   5.645   0.561   6.917  1.1799 -2.6142 -1.0532
 2711SOL    HW2 9734   5.674   0.647   6.781 -0.5503  1.2951  0.8821
 2712SOL     OW 9735   3.182   1.847   6.728 -0.3869 -0.5112 -0.1801
 2712SOL    HW1 9736   3.164   1.899   6.645  2.5696  0.6324 -0.2153
 2712SOL    HW2 9737   3.188   1.909   6.806  0.8247 -1.0721  0.1903
 2713SOL     OW 9738   1.011   5.011   0.543  0.1014 -0.3575  0.5053
 2713SOL    HW1 9739   1.101   5.034   0.505 -0.5826 -0.7214 -1.4725
 2713SOL    HW2 9740   1.007   4.913   0.562 -0.1707 -0.5064 -0.2944
 2714SOL     OW 9741   3.222   3.694   2.161  0.2663  0.0649  0.2940
 2714SOL    HW1 9742   3.147   3.760   2.165 -0.4710 -0.5869 -1.5378
 2714SOL    HW2 9743   3.309   3.742   2.151 -0.2307  0.8040 -0.7530
 2715SOL     OW 9744   2.792   0.889   0.853 -0.8148  0.5948  0.9694
 2715SOL    HW1 9745   2.792   0.795   0.817  0.4893  1.2055 -0.7269
 2715SOL    HW2 9746   2.697   0.920   0.863 -1.2676  0.2411 -1.6356
 2716SOL     OW 9747   3.778   1.376   4.243 -0.6321  0.1116 -0.3708
 2716SOL    HW1 9748   3.774   1.472   4.269 -0.4514  0.4122 -1.4049
 2716SOL    HW2 9749   3.866   1.337   4.273 -0.7279  0.2492  0.0933
 2717SOL     OW 9750   4.516   3.348   0.442 -0.2508  0.0995 -0.3305
 2717SOL    HW1 9751   4.560   3.404   0.512 -1.8883  0.0509  0.8001
 2717SOL    HW2 9752   4.533   3.251   0.460  0.1371  0.1253 -0.5638
 2718SOL     OW 9753   6.291   5.229   6.488  0.3463  0.5115 -0.2911
 2718SOL    HW1 9754   6.261   5.178   6.408 -0.0500  2.1665 -1.2537
 2718SOL    HW2 9755   6.373   5.282   6.464  1.4980 -0.5983  1.0377
 2719SOL     OW 9756   4.292   1.795   0.524 -0.4647  0.0361 -0.1768
 2719SOL    HW1 9757   4.240   1.842   0.452  0.4789  0.2236 -0.7491
 2719SOL    HW2 9758   4.286   1.847   0.609 -0.3780  0.5863 -0.5040
 2720SOL     OW 9759   5.326   3.889   2.565 -0.0586  0.2587  0.1930
 2720SOL    HW1 9760   5.416   3.922   2.592 -0.5423  0.9177  1.0308
 2720SOL    HW2 9761   5.266   3.886   2.645 -0.3365 -1.7020 -0.0407
 2721SOL     OW 9762   1.830   2.237   6.055  0.4324 -0.4351  0.6850
 2721SOL    HW1 9763   1.777   2.153   6.044  0.0723 -0.0375 -0.8695
 2721SOL    HW2 9764   1.767   2.314   6.070  0.5873 -0.0841 -0.3667
 2722SOL     OW 9765   1.292   1.936   3.584 -0.2181 -0.1864  0.2289
 2722SOL    HW1 9766   1.195   1.919   3.563 -0.3586 -0.0042  0.7164
 2722SOL    HW2 9767   1.309   2.035   3.582  0.6477 -0.3103 -2.8228
 2723SOL     OW 9768   6.658   4.197   5.556 -0.5826  0.5379 -0.4793
 2723SOL    HW1 9769   6.591   4.270   5.545 -1.1396  0.1439  0.2151
 2723SOL    HW2 9770   6.722   4.221   5.629  0.2602  1.0660 -1.3667
 2724SOL     OW 9771   3.693   4.193   3.425 -0.0381  0.1125  0.2211
 2724SOL    HW1 9772   3.707   4.113   3.367  1.4475  0.8020 -0.4266
 2724SOL    HW2 9773   3.704   4.276   3.370  1.7155  0.7964  1.5037
 2725SOL     OW 9774   6.033   5.404   1.252 -0.3540  0.8974  0.2069
 2725SOL    HW1 9775   6.015   5.437   1.159 -0.5830  0.2203 -0.0020
 2725SOL    HW2 9776   6.096   5.326   1.248  1.0630  1.9697  0.7762
 2726SOL     OW 9777   0.609   2.304   5.937 -0.5385 -0.1586  0.5470
 2726SOL    HW1 9778   0.653   2.379   5.888 -0.2066  0.0641  1.1685
 2726SOL    HW2 9779   0.627   2.217   5.891  0.1419 -0.0088  0.5304
 2727SOL     OW 9780   5.252   4.250   4.998  0.3184  0.2278  0.3537
 2727SOL    HW1 9781   5.228   4.237   5.094 -0.1464 -0.5979  0.1375
 2727SOL    HW2 9782   5.175   4.290   4.949  0.0111 -0.7246  0.0333
 2728SOL     OW 9783   6.756   4.686   1.941  0.0635 -0.0104  0.0535
 2728SOL    HW1 9784   6.673   4.642   1.974  0.5716 -1.0452 -0.0271
 2728SOL    HW2 9785   6.792   4.636   1.862  0.4767  0.7409 -0.2482
 2729SOL     OW 9786   5.285   2.220   1.291  0.5432  0.3234 -0.2680
 2729SOL    HW1 9787   5.380   2.194   1.271 -0.0382 -1.1163 -1.3906
 2729SOL    HW2 9788   5.261   2.189   1.383  0.6595 -0.9031 -0.6256
 2730SOL     OW 9789   3.197   4.839   5.798 -0.2792  0.1696 -0.2725
 2730SOL    HW1 9790   3.255   4.893   5.738 -0.6872  2.0999  0.9862
 2730SOL    HW2 9791   3.179   4.749   5.756  0.8622  0.7834 -2.1711
 2731SOL     OW 9792   0.303   5.248   3.588  0.6399  0.1529  0.4832
 2731SOL    HW1 9793   0.324   5.195   3.670 -0.0909  1.8741  1.8521
 2731SOL    HW2 9794   0.387   5.287   3.551  1.0106 -0.8692  0.2319
 2732SOL     OW 9795   5.590   1.682   5.895 -0.1945  0.1359 -0.2024
 2732SOL    HW1 9796   5.678   1.695   5.849 -0.5758  1.2427 -0.6618
 2732SOL    HW2 9797   5.606   1.662   5.991  0.5648  2.2046  0.1552
 2733SOL     OW 9798   6.510   3.191   1.773 -0.2860 -0.0440  0.6618
 2733SOL    HW1 9799   6.503   3.206   1.674  1.1597 -0.8256  0.4209
 2733SOL    HW2 9800   6.486   3.275   1.821 -0.7333  0.4254 -0.3530
 2734SOL     OW 9801   2.921   3.177   3.606  0.4663  0.2480 -0.3005
 2734SOL    HW1 9802   2.914   3.081   3.634  0.8664  1.1109  3.2477
 2734SOL    HW2 9803   2.830   3.213   3.589  0.2256 -0.4780 -0.6073
 2735SOL     OW 9804   6.164   1.546   5.192 -1.0596 -0.0806 -0.3392
 2735SOL    HW1 9805   6.217   1.533   5.108  1.1988  1.7548  0.6718
 2735SOL    HW2 9806   6.150   1.643   5.208 -2.8685 -0.4490  0.6342
 2736SOL     OW 9807   4.457   4.560   5.319 -0.5000 -0.3165 -0.0022
 2736SOL    HW1 9808   4.549   4.592   5.339 -0.2837 -1.2758  0.5605
 2736SOL    HW2 9809   4.393   4.637   5.329  0.3534  0.6494 -1.5401
 2737SOL     OW 9810   1.393   1.810   1.023  0.2087  0.1109 -0.3190
 2737SOL    HW1 9811   1.325   1.751   0.978  0.2571 -0.2765  0.1051
 2737SOL    HW2 9812   1.347   1.866   1.092  0.1906  0.4538 -0.6058
 2738SOL     OW 9813   1.817   3.148   5.283 -0.7278 -0.2160 -0.2417
 2738SOL    HW1 9814   1.806   3.235   5.235  0.7967  0.2766  0.2214
 2738SOL    HW2 9815   1.812   3.164   5.382  0.3028 -0.4999 -0.1267
 2739SOL     OW 9816   1.548   4.333   6.582  0.8363  0.7808 -0.0501
 2739SOL    HW1 9817   1.510   4.413   6.536 -0.8879 -0.2562 -0.4909
 2739SOL    HW2 9818   1.638   4.311   6.543 -0.3245  0.2599 -2.6145
 2740SOL     OW 9819   3.588   0.701   3.670  0.0620 -0.2747 -0.5287
 2740SOL    HW1 9820   3.633   0.642   3.737 -0.0927 -1.0684 -1.1018
 2740SOL    HW2 9821   3.653   0.767   3.634 -0.5342  2.2492  2.5922
 2741SOL     OW 9822   0.293   4.048   5.498 -0.1542  0.0812  0.1350
 2741SOL    HW1 9823   0.223   3.991   5.542  1.3800 -2.2966 -0.3116
 2741SOL    HW2 9824   0.336   4.107   5.566  0.5674 -1.8205  1.3936
 2742SOL     OW 9825   5.258   5.656   4.040 -0.0685  0.1273  0.0536
 2742SOL    HW1 9826   5.168   5.684   4.073 -0.1549  1.5866 -1.3145
 2742SOL    HW2 9827   5.318   5.736   4.036  0.5265 -0.3645 -1.3834
 2743SOL     OW 9828   3.759   1.448   5.907  0.2101 -0.3576  0.6456
 2743SOL    HW1 9829   3.679   1.424   5.961 -0.6167 -2.3237 -1.3050
 2743SOL    HW2 9830   3.819   1.369   5.898  0.2482 -0.1639 -1.3491
 2744SOL     OW 9831   4.263   3.462   5.728  0.2647  0.6591  0.1598
 2744SOL    HW1 9832   4.286   3.463   5.825  1.3877  2.3214 -0.0896
 2744SOL    HW2 9833   4.341   3.494   5.674 -0.1870 -0.6449 -1.3554
 2745SOL     OW 9834   5.607   5.228   4.563  0.5778 -0.6236  0.0236
 2745SOL    HW1 9835   5.598   5.146   4.620  0.0014  0.1518  1.0817
 2745SOL    HW2 9836   5.630   5.201   4.470 -0.0465 -2.0239  0.2435
 2746SOL     OW 9837   5.347   7.007   4.385 -0.0858 -0.1617  0.7603
 2746SOL    HW1 9838   5.384   7.043   4.471 -0.4970  2.6644 -0.1253
 2746SOL    HW2 9839   5.421   6.986   4.322  0.1698  0.5782  0.8016
 2747SOL     OW 9840   5.944   5.004   6.274 -0.6430 -0.8321  0.1505
 2747SOL    HW1 9841   5.911   4.963   6.190 -0.6089 -0.4416 -0.0582
 2747SOL    HW2 9842   5.895   4.966   6.352 -1.1045 -0.7530 -0.1007
 2748SOL     OW 9843   4.708   3.850   1.369  0.4317 -0.2464  0.3266
 2748SOL    HW1 9844   4.763   3.771   1.394  0.4935  0.3909  2.4207
 2748SOL    HW2 9845   4.613   3.822   1.355  0.6357 -0.8203  0.0729
 2749SOL     OW 9846   0.315   6.143   0.821 -0.2186 -0.7216 -0.5338
 2749SOL    HW1 9847   0.361   6.054   0.814  0.0599 -0.4650 -2.5440
 2749SOL    HW2 9848   0.277   6.153   0.913 -0.1110 -2.8428 -0.1950
 2750SOL     OW 9849   4.064   1.242   2.306  0.0392  0.2277  0.4070
 2750SOL    HW1 9850   4.098   1.299   2.232  2.9489 -1.4733  0.2515
 2750SOL    HW2 9851   3.965   1.233   2.299 -0.0615  2.1359 -1.7337
 2751SOL     OW 9852   2.869   1.601   3.496 -0.2254  0.3026 -0.8206
 2751SOL    HW1 9853   2.967   1.586   3.506 -0.5179 -0.9788  0.4912
 2751SOL    HW2 9854   2.847   1.695   3.522  0.5863  0.4268 -0.5573
 2752SOL     OW 9855   6.774   4.610   5.630 -0.2911  0.2789  0.0159
 2752SOL    HW1 9856   6.862   4.574   5.601  0.1215  2.6206 -2.0300
 2752SOL    HW2 9857   6.720   4.635   5.549 -2.6697 -0.6404  1.2184
 2753SOL     OW 9858   1.730   6.743   2.575  0.1395 -0.6269  0.3342
 2753SOL    HW1 9859   1.770   6.791   2.497  1.3607  0.9179  1.8407
 2753SOL    HW2 9860   1.632   6.731   2.560  0.2671  0.0084 -1.2276
 2754SOL     OW 9861   0.767   6.674   1.431 -0.0081  0.0922 -0.1184
 2754SOL    HW1 9862   0.677   6.704   1.462  0.3392 -0.7858  1.8919
 2754SOL    HW2 9863   0.757   6.611   1.354 -0.9635  1.5816 -1.2604
 2755SOL     OW 9864   5.162   0.615   2.188  0.0729 -0.2706 -0.1150
 2755SOL    HW1 9865   5.203   0.525   2.197  0.0884 -0.4732 -1.8787
 2755SOL    HW2 9866   5.138   0.631   2.092 -1.2857  1.0050  0.4046
 2756SOL     OW 9867   1.713   6.748   6.726 -0.0714  0.2869 -0.4868
 2756SOL    HW1 9868   1.744   6.654   6.709 -1.4674 -0.1722 -0.6946
 2756SOL    HW2 9869   1.745   6.779   6.815  2.5323  0.5775 -1.4378
 2757SOL     OW 9870   0.630   0.082   1.566 -0.0780 -0.2241  0.5277
 2757SOL    HW1 9871   0.704   0.015   1.564 -0.6198 -0.8332 -1.1644
 2757SOL    HW2 9872   0.549   0.041   1.609 -0.3054 -0.5531 -0.2042
 2758SOL     OW 9873   6.583   2.923   0.688  0.2276  0.0600 -0.5638
 2758SOL    HW1 9874   6.552   2.928   0.783 -0.8868 -0.7158 -0.8664
 2758SOL    HW2 9875   6.658   2.857   0.681 -0.2765 -0.5431 -0.3571
 2759SOL     OW 9876   4.871   1.276   6.159 -0.5249  0.3942  0.1596
 2759SOL    HW1 9877   4.778   1.242   6.174 -0.2095  0.0865  1.5088
 2759SOL    HW2 9878   4.872   1.375   6.173 -0.3623  0.1962  1.6758
 2760SOL     OW 9879   4.182   2.695   4.716  0.3378  0.2352 -0.5595
 2760SOL    HW1 9880   4.222   2.632   4.650  0.5316  0.0156 -0.2303
 2760SOL    HW2 9881   4.235   2.780   4.717  1.1675 -0.2829  0.3208
 2761SOL     OW 9882   6.337   5.835   6.036 -0.4332 -0.4710 -0.1149
 2761SOL    HW1 9883   6.397   5.860   5.961 -0.1501  1.0812  0.5858
 2761SOL    HW2 9884   6.258   5.785   6.001  2.0323 -4.2480 -0.8847
 2762SOL     OW 9885   5.322   4.524   1.364 -0.0815  0.1068  0.2825
 2762SOL    HW1 9886   5.361   4.468   1.292 -1.6403  0.1528 -0.6374
 2762SOL    HW2 9887   5.317   4.619   1.334 -0.4747  0.1798  0.5713
 2763SOL     OW 9888   0.677   1.328   5.273  0.1438 -0.4004  0.5417
 2763SOL    HW1 9889   0.591   1.364   5.235  0.8231 -0.1393 -0.8181
 2763SOL    HW2 9890   0.658   1.245   5.325 -1.3694  1.4346  3.1687
 2764SOL     OW 9891   4.869   1.831   4.017  0.2789  0.0053 -0.1926
 2764SOL    HW1 9892   4.850   1.762   4.087  0.7940 -0.7826 -0.7947
 2764SOL    HW2 9893   4.963   1.865   4.028  0.5469 -0.5053 -0.7894
 2765SOL     OW 9894   2.767   0.496   3.024 -0.3393 -0.1241 -0.1342
 2765SOL    HW1 9895   2.822   0.421   3.061 -2.2381 -0.5015  2.1471
 2765SOL    HW2 9896   2.703   0.528   3.093 -0.6466  2.6350 -1.5521
 2766SOL     OW 9897   4.552   5.440   5.011  0.0971 -0.3099  0.1131
 2766SOL    HW1 9898   4.486   5.383   5.060  0.2755 -1.2342 -0.6996
 2766SOL    HW2 9899   4.573   5.399   4.923 -0.2194  1.3235 -0.7672
 2767SOL     OW 9900   4.252   2.810   5.024 -0.2203  0.3879  0.6169
 2767SOL    HW1 9901   4.227   2.865   4.944  2.0764 -0.6402 -0.9265
 2767SOL    HW2 9902   4.347   2.830   5.048  0.5990 -2.5705  0.2024
 2768SOL     OW 9903   3.283   6.394   2.752  0.1944 -0.1079  0.0689
 2768SOL    HW1 9904   3.297   6.364   2.657 -0.1250 -1.0942  0.3172
 2768SOL    HW2 9905   3.257   6.315   2.808  0.4072  0.4595  0.9883
 2769SOL     OW 9906   5.570   6.415   1.627 -0.0067 -0.1303  0.2757
 2769SOL    HW1 9907   5.557   6.320   1.657 -0.4411 -0.4063 -0.7690
 2769SOL    HW2 9908   5.660   6.424   1.584 -0.8332 -0.6281 -1.6604
 2770SOL     OW 9909   0.670   4.729   0.474 -0.8495 -0.3122  0.0597
 2770SOL    HW1 9910   0.719   4.665   0.415 -1.8885 -0.2196 -0.9578
 2770SOL    HW2 9911   0.620   4.795   0.417  0.3352  1.5455  1.0629
 2771SOL     OW 9912   0.018   4.461   4.939  0.4160  0.5480  0.0476
 2771SOL    HW1 9913  -0.020   4.447   5.031 -0.5817  0.5742 -0.3519
 2771SOL    HW2 9914   0.053   4.374   4.904 -1.4171 -0.0063 -0.5042
 2772SOL     OW 9915   1.420   5.053   6.871 -0.4552 -0.4563  0.1627
 2772SOL    HW1 9916   1.426   4.954   6.884  0.7803 -0.3525  0.5301
 2772SOL    HW2 9917   1.511   5.091   6.859 -0.7526  0.8228  1.5012
 2773SOL     OW 9918   1.269   2.125   4.983  0.5265 -0.5957  0.1296
 2773SOL    HW1 9919   1.293   2.048   4.924  2.0740  1.0917 -1.6023
 2773SOL    HW2 9920   1.170   2.139   4.982  0.5621  0.1221 -3.1843
 2774SOL     OW 9921   2.330   4.684   5.615  0.6457  0.2089 -0.2937
 2774SOL    HW1 9922   2.239   4.723   5.597  0.2358 -0.8100 -0.5020
 2774SOL    HW2 9923   2.342   4.670   5.713  1.5137  2.5061 -0.0059
 2775SOL     OW 9924   6.268   2.378   1.950  0.1307 -0.5225  0.1657
 2775SOL    HW1 9925   6.230   2.381   2.043 -0.1098 -0.3510  0.0626
 2775SOL    HW2 9926   6.215   2.438   1.891  0.2395 -0.6873 -0.0998
 2776SOL     OW 9927   5.443   3.721   3.957  0.0788 -0.2958  0.6063
 2776SOL    HW1 9928   5.434   3.663   3.877 -0.4405 -1.5155  1.5200
 2776SOL    HW2 9929   5.352   3.746   3.990  0.2947  0.7238  0.4553
 2777SOL     OW 9930   6.630   2.084   0.523 -0.1975  0.4045  0.4735
 2777SOL    HW1 9931   6.572   2.007   0.548  0.0472 -1.0359 -2.8605
 2777SOL    HW2 9932   6.593   2.129   0.441  0.9740  2.3410  0.9388
 2778SOL     OW 9933   5.863   2.153   5.447  0.0006 -0.4169 -0.0925
 2778SOL    HW1 9934   5.831   2.088   5.378  1.4216 -2.8135  1.3718
 2778SOL    HW2 9935   5.959   2.174   5.431  0.0720 -0.2119  0.5768
 2779SOL     OW 9936   4.867   0.654   6.268  0.8953 -0.3462 -0.0489
 2779SOL    HW1 9937   4.900   0.591   6.198  0.3835 -1.5769  0.7736
 2779SOL    HW2 9938   4.898   0.623   6.358 -0.6539 -0.3191  0.5263
 2780SOL     OW 9939   5.809   6.966   6.418 -0.3532 -0.0813 -0.0117
 2780SOL    HW1 9940   5.905   6.962   6.390 -0.2471  0.0207  0.3406
 2780SOL    HW2 9941   5.768   6.875   6.409 -0.3428 -0.0337 -0.5754
 2781SOL     OW 9942   4.565   1.783   3.930 -0.5883 -0.6124 -0.1566
 2781SOL    HW1 9943   4.602   1.875   3.946 -1.5182 -0.3436  0.5287
 2781SOL    HW2 9944   4.601   1.747   3.844  0.5509 -0.0043  0.0482
 2782SOL     OW 9945   4.819   1.556   6.187  0.1647  0.2665 -0.7999
 2782SOL    HW1 9946   4.748   1.612   6.144 -0.3342  0.0593 -0.2723
 2782SOL    HW2 9947   4.830   1.583   6.283 -0.2271 -0.6504 -0.4757
 2783SOL     OW 9948   5.584   0.542   4.417  0.3231  0.2915  0.1373
 2783SOL    HW1 9949   5.496   0.586   4.438  0.1815  0.8787 -1.5439
 2783SOL    HW2 9950   5.658   0.606   4.438  0.1981  0.7515 -0.7480
 2784SOL     OW 9951   0.363   5.669   2.819  0.6230 -0.0123 -0.5514
 2784SOL    HW1 9952   0.368   5.757   2.770  1.2987  0.5818  0.5423
 2784SOL    HW2 9953   0.381   5.594   2.755  0.3482  0.6599 -1.4375
 2785SOL     OW 9954   3.865   0.415   1.889 -0.5545 -0.2585 -0.2219
 2785SOL    HW1 9955   3.884   0.366   1.975  0.6813  1.2734  0.4371
 2785SOL    HW2 9956   3.942   0.403   1.827  0.1799  1.4769  0.2889
 2786SOL     OW 9957   6.872   4.963   6.829 -0.3886  0.0410  0.4119
 2786SOL    HW1 9958   6.835   5.056   6.827 -1.8891 -0.4620  2.2546
 2786SOL    HW2 9959   6.964   4.963   6.791  0.4261  2.6551  2.1556
 2787SOL     OW 9960   5.884   6.369   5.370 -0.4036 -0.1206 -0.2577
 2787SOL    HW1 9961   5.865   6.354   5.467 -0.3814  0.8705 -0.0892
 2787SOL    HW2 9962   5.805   6.414   5.328  0.8798  2.6752  0.1141
 2788SOL     OW 9963   5.986   5.544   6.600  0.1574  0.5604  0.0087
 2788SOL    HW1 9964   6.079   5.580   6.594  0.2032  0.4606  0.1244
 2788SOL    HW2 9965   5.989   5.445   6.605  0.0509  0.5628  0.1372
 2789SOL     OW 9966   1.308   5.809   6.114  0.2418  0.2719  0.3780
 2789SOL    HW1 9967   1.214   5.785   6.088  0.1089  0.4543  0.6803
 2789SOL    HW2 9968   1.345   5.873   6.047 -0.3440  1.2845  0.9905
 2790SOL     OW 9969   2.877   0.012   3.191  0.0174  0.0366 -0.6023
 2790SOL    HW1 9970   2.965   0.054   3.167  0.7487 -1.1376 -0.1121
 2790SOL    HW2 9971   2.855   0.032   3.286 -0.1040  0.1028 -0.6448
 2791SOL     OW 9972   3.264   2.069   3.524 -0.3417  0.6076  0.2903
 2791SOL    HW1 9973   3.266   2.083   3.425 -0.5515 -0.7305  0.0860
 2791SOL    HW2 9974   3.339   2.120   3.567  0.1563  0.6549 -0.6234
 2792SOL     OW 9975   6.289   4.898   1.339  0.0194 -0.5898 -0.7007
 2792SOL    HW1 9976   6.283   4.941   1.249  1.4637  1.6801  0.1943
 2792SOL    HW2 9977   6.356   4.824   1.336  0.5985 -0.0600 -1.3502
 2793SOL     OW 9978   3.985   0.531   4.412  0.5437 -0.1940 -0.2605
 2793SOL    HW1 9979   3.906   0.541   4.352 -0.7267  1.1578  1.5261
 2793SOL    HW2 9980   4.026   0.620   4.430  1.9973 -0.7798 -0.4670
 2794SOL     OW 9981   3.701   4.884   0.847 -0.6843  0.8080  0.7530
 2794SOL    HW1 9982   3.631   4.891   0.776  0.7496  0.5920 -0.7734
 2794SOL    HW2 9983   3.753   4.799   0.833 -0.6068  0.5773  2.3119
 2795SOL     OW 9984   6.824   5.094   3.419  0.0606 -0.1993 -0.0973
 2795SOL    HW1 9985   6.786   5.022   3.476  0.9023 -1.8800 -1.5398
 2795SOL    HW2 9986   6.923   5.084   3.415  0.1902  1.0660 -0.3168
 2796SOL     OW 9987   4.343   0.277   5.013 -0.1619 -0.6397 -0.1262
 2796SOL    HW1 9988   4.391   0.309   4.931  0.6020  0.2918  0.6654
 2796SOL    HW2 9989   4.273   0.343   5.038 -0.0061 -0.6370  0.3049
 2797SOL     OW 9990   4.670   0.525   2.542 -0.3843 -0.0034  0.0820
 2797SOL    HW1 9991   4.731   0.592   2.585 -0.3458  0.2892 -0.4234
 2797SOL    HW2 9992   4.700   0.509   2.448 -0.2948 -0.8548  0.2518
 2798SOL     OW 9993   1.900   1.167   4.566  0.0568 -0.0956  0.8988
 2798SOL    HW1 9994   1.871   1.076   4.536 -2.7315  0.8442  0.4771
 2798SOL    HW2 9995   1.822   1.229   4.565  1.7467  2.1854  1.7772
 2799SOL     OW 9996   6.387   4.089   1.474 -0.0463 -0.6582  0.1305
 2799SOL    HW1 9997   6.472   4.036   1.474  0.6622  0.4310  0.7960
 2799SOL    HW2 9998   6.338   4.073   1.389  1.3265 -0.5407 -0.7093
 2800SOL     OW 9999   4.693   4.485   5.473 -0.1959 -0.2688 -0.1720
 2800SOL    HW110000   4.725   4.566   5.423  1.1674 -0.9503 -0.4406
 2800SOL    HW210001   4.657   4.514   5.561  0.4140  0.6338 -0.1943
 2801SOL     OW10002   1.599   1.353   1.033  0.4039 -0.5689  0.6964
 2801SOL    HW110003   1.544   1.275   1.061  0.6197 -1.1017 -0.3201
 2801SOL    HW210004   1.669   1.371   1.103  1.2787 -2.1960  0.2930
 2802SOL     OW10005   0.104   4.012   0.186  0.0102 -0.1816 -0.1502
 2802SOL    HW110006   0.049   4.034   0.266  0.7248 -1.2368  0.6716
 2802SOL    HW210007   0.116   4.093   0.129 -1.4728  0.3034  0.2051
 2803SOL     OW10008   5.665   3.568   1.830  0.1157  0.2259  0.0874
 2803SOL    HW110009   5.583   3.582   1.885  0.3599  2.8496 -0.0806
 2803SOL    HW210010   5.746   3.585   1.886  0.4721 -0.2694 -0.2696
 2804SOL     OW10011   0.313   3.773   3.673 -0.2593  0.0743  0.5810
 2804SOL    HW110012   0.303   3.821   3.585 -0.8844 -0.5147  0.3215
 2804SOL    HW210013   0.237   3.709   3.685  0.2907 -0.4920  1.1508
 2805SOL     OW10014   1.722   1.000   6.335  0.1911  0.5941  0.0590
 2805SOL    HW110015   1.757   1.031   6.247  0.4036 -0.2110 -0.1419
 2805SOL    HW210016   1.795   1.001   6.403  0.2165  0.4384  0.0328
 2806SOL     OW10017   3.554   6.706   4.744 -0.1166 -0.0691  0.4250
 2806SOL    HW110018   3.523   6.637   4.678 -0.2654  2.3844 -2.2790
 2806SOL    HW210019   3.476   6.736   4.799 -1.3401  1.4946 -1.9586
 2807SOL     OW10020   1.640   3.154   3.685 -0.4701  0.3715 -0.3150
 2807SOL    HW110021   1.587   3.070   3.678  0.1662  0.0715 -1.8755
 2807SOL    HW210022   1.578   3.233   3.677 -0.7126  0.0297 -2.5124
 2808SOL     OW10023   2.912   2.277   1.727 -0.1205 -0.1710 -0.3065
 2808SOL    HW110024   2.944   2.365   1.691  0.5490  0.4790  1.7479
 2808SOL    HW210025   2.991   2.222   1.754 -0.5862 -0.2206  1.0317
 2809SOL     OW10026   5.292   6.970   2.211 -0.1603 -0.2834 -0.0844
 2809SOL    HW110027   5.333   6.974   2.119  1.3732 -0.9945  0.5338
 2809SOL    HW210028   5.218   7.037   2.218 -1.1668 -1.0551 -2.2357
 2810SOL     OW10029   3.312   2.605   6.781 -0.0826  0.3251 -0.0617
 2810SOL    HW110030   3.332   2.642   6.872 -1.3445 -2.4357  1.4818
 2810SOL    HW210031   3.388   2.549   6.750  0.4215  1.4049 -0.8525
 2811SOL     OW10032   6.261   4.350   6.401  0.8024 -0.2649  0.2990
 2811SOL    HW110033   6.177   4.295   6.394  0.6987  0.1411 -2.8971
 2811SOL    HW210034   6.312   4.321   6.482 -2.1230 -0.8816  2.1076
 2812SOL     OW10035   4.432   0.398   6.207 -0.7068 -0.5774 -0.4419
 2812SOL    HW110036   4.405   0.430   6.298 -0.2085 -0.0610 -0.4700
 2812SOL    HW210037   4.363   0.426   6.140  0.2025  1.3522 -0.6213
 2813SOL     OW10038   3.009   5.342   4.321 -0.0645  0.6933  0.5620
 2813SOL    HW110039   2.915   5.323   4.290  0.2672 -1.8031  0.9063
 2813SOL    HW210040   3.061   5.382   4.245 -1.1183  1.1513  0.0566
 2814SOL     OW10041   5.211   2.463   1.882 -0.1314 -0.0578  0.4933
 2814SOL    HW110042   5.189   2.538   1.944  2.0575  0.7625  0.3543
 2814SOL    HW210043   5.276   2.495   1.813  0.0184 -1.8221 -0.2230
 2815SOL     OW10044   6.754   3.014   1.763 -0.2609  0.2284  0.2629
 2815SOL    HW110045   6.717   2.924   1.739 -1.3823  0.4681  1.0045
 2815SOL    HW210046   6.679   3.080   1.769  0.7183  1.6869 -2.1053
 2816SOL     OW10047   3.971   4.072   6.666 -0.0215  0.0093  0.1022
 2816SOL    HW110048   4.004   4.158   6.625 -0.0856  0.3747  0.8136
 2816SOL    HW210049   3.931   4.091   6.755  0.3982 -0.8314  0.4721
 2817SOL     OW10050   1.522   5.349   0.847 -0.0065  0.2167  0.0113
 2817SOL    HW110051   1.428   5.319   0.832  0.4715 -2.0983  1.0954
 2817SOL    HW210052   1.572   5.344   0.761 -0.7926  1.2428 -0.5260
 2818SOL     OW10053   4.390   3.988   5.706 -0.1905  0.2446 -0.3518
 2818SOL    HW110054   4.459   3.919   5.683 -0.8592 -0.5713  0.0434
 2818SOL    HW210055   4.406   4.070   5.652 -0.1572 -0.6854 -1.7982
 2819SOL     OW10056   1.643   0.502   6.211 -0.0930 -0.5790  0.0788
 2819SOL    HW110057   1.685   0.455   6.133 -0.9652  0.0931 -0.8090
 2819SOL    HW210058   1.675   0.597   6.213 -3.0879  0.6303 -1.9273
 2820SOL     OW10059   0.640   4.611   5.813  0.6039  0.1842  0.2339
 2820SOL    HW110060   0.550   4.589   5.850  0.6949 -0.3791  0.1206
 2820SOL    HW210061   0.705   4.540   5.839  0.4318 -0.8550 -1.9386
 2821SOL     OW10062   1.764   2.476   5.373 -0.2461 -0.4598  0.1838
 2821SOL    HW110063   1.830   2.430   5.433  1.2873 -0.2518 -1.2784
 2821SOL    HW210064   1.804   2.560   5.338 -2.2999  1.0551  1.2887
 2822SOL     OW10065   5.446   6.153   3.676 -0.5528  0.5215  0.3016
 2822SOL    HW110066   5.487   6.236   3.638  1.8513 -1.4564 -1.8419
 2822SOL    HW210067   5.355   6.141   3.637 -0.6539  1.7874  0.0930
 2823SOL     OW10068   4.333   1.380   2.466  0.2962  0.3482  0.0343
 2823SOL    HW110069   4.300   1.400   2.559  0.0401 -2.0448  0.5169
 2823SOL    HW210070   4.433   1.388   2.464  0.4352 -0.9399  0.9129
 2824SOL     OW10071   0.567   3.031   0.188 -0.6009 -0.7335  0.7792
 2824SOL    HW110072   0.556   3.103   0.256  0.3262 -1.9917  2.3188
 2824SOL    HW210073   0.662   3.028   0.157 -0.4920 -1.6392  1.1647
 2825SOL     OW10074   4.794   1.773   2.361  0.0101  0.4663 -0.2267
 2825SOL    HW110075   4.843   1.857   2.341  2.9821 -0.9790  0.4223
 2825SOL    HW210076   4.763   1.731   2.275 -1.5682  2.1633 -0.5467
 2826SOL     OW10077   6.899   2.004   0.470 -0.2461 -0.3025  0.4103
 2826SOL    HW110078   6.944   2.048   0.548 -1.3421  0.8837  0.4000
 2826SOL    HW210079   6.812   1.963   0.501  0.1358 -1.3392  0.1483
 2827SOL     OW10080   1.937   5.734   4.172  0.2999  0.0598  0.4925
 2827SOL    HW110081   1.959   5.794   4.095 -3.4895 -0.2708 -1.1164
 2827SOL    HW210082   1.930   5.640   4.140  1.8605 -0.6231  2.0256
 2828SOL     OW10083   4.387   4.131   5.475 -0.1022  0.4778  0.8529
 2828SOL    HW110084   4.307   4.075   5.456  0.9203 -0.3674 -1.3159
 2828SOL    HW210085   4.376   4.220   5.430  0.2268  0.2873  0.3808
 2829SOL     OW10086   1.050   0.119   4.631  0.1974 -0.2038  0.1393
 2829SOL    HW110087   0.972   0.056   4.630  0.1012 -0.0995  0.6013
 2829SOL    HW210088   1.037   0.189   4.561  1.0445 -1.5563 -1.4598
 2830SOL     OW10089   4.134   2.846   2.284  0.0028  0.0453  0.3877
 2830SOL    HW110090   4.094   2.775   2.342 -0.6749 -0.4561 -0.6596
 2830SOL    HW210091   4.067   2.874   2.215  0.3012  1.6276  0.6968
 2831SOL     OW10092   5.964   1.322   4.911 -0.1860  0.8292 -0.5187
 2831SOL    HW110093   6.041   1.262   4.887  0.2672  1.5801 -0.9811
 2831SOL    HW210094   5.896   1.322   4.838 -1.0350 -0.4658  0.2416
 2832SOL     OW10095   0.348   1.021   1.928 -0.1068  0.3762 -0.0562
 2832SOL    HW110096   0.384   1.009   1.835 -0.6829  0.5324 -0.3067
 2832SOL    HW210097   0.351   1.117   1.953  0.6094  0.2612  0.3274
 2833SOL     OW10098   0.910   4.889   4.507  0.4123  0.4509 -0.6801
 2833SOL    HW110099   0.918   4.966   4.444 -0.0753  1.0791  0.0072
 2833SOL    HW210100   0.839   4.826   4.475 -0.3884  1.1726 -0.3624
 2834SOL     OW10101   1.796   6.734   4.515  0.3599 -0.5101  0.2043
 2834SOL    HW110102   1.876   6.736   4.576 -0.5676 -1.3776  1.4991
 2834SOL    HW210103   1.747   6.648   4.527 -1.7750  0.7112  0.7838
 2835SOL     OW10104   1.386   6.727   6.003  0.3099 -0.0520  0.3454
 2835SOL    HW110105   1.466   6.773   5.965 -0.6731  0.6654 -0.9435
 2835SOL    HW210106   1.356   6.655   5.941  1.4777 -2.1098  2.0656
 2836SOL     OW10107   6.704   2.093   1.759  0.1276  0.3593  0.0629
 2836SOL    HW110108   6.619   2.048   1.787  0.3283 -0.1593 -0.1398
 2836SOL    HW210109   6.742   2.046   1.679  1.7438 -0.8323  1.4500
 2837SOL     OW10110   5.852   1.119   6.899 -0.0674 -0.4869  0.7357
 2837SOL    HW110111   5.857   1.082   6.806  0.8805 -0.2839  0.6921
 2837SOL    HW210112   5.803   1.206   6.897 -0.1304 -0.5260  0.4405
 2838SOL     OW10113   4.932   5.251   4.290  0.4520  0.2099 -0.3123
 2838SOL    HW110114   4.904   5.292   4.203 -0.8689  0.6911  0.2961
 2838SOL    HW210115   4.960   5.157   4.276 -0.7790 -0.0605 -1.1323
 2839SOL     OW10116   0.643   1.463   3.029  0.1708 -0.4873 -0.2912
 2839SOL    HW110117   0.731   1.441   2.988 -1.1118 -2.1369 -2.3457
 2839SOL    HW210118   0.583   1.505   2.960 -0.5426  1.0695  1.1882
 2840SOL     OW10119   2.752   6.005   1.567 -0.3241  0.1593 -0.6565
 2840SOL    HW110120   2.775   6.046   1.655 -1.0528  1.3314 -0.9918
 2840SOL    HW210121   2.813   6.042   1.496 -1.0749  0.7784 -0.9859
 2841SOL     OW10122   2.628   6.460   4.948  0.7863 -0.2630 -0.5254
 2841SOL    HW110123   2.675   6.395   5.008 -2.4214 -1.2996  1.0431
 2841SOL    HW210124   2.549   6.416   4.906 -0.5720  2.1668 -0.7023
 2842SOL     OW10125   1.302   2.439   0.627  0.0300 -0.0336 -0.3802
 2842SOL    HW110126   1.279   2.384   0.707 -0.5665  0.8612  0.0840
 2842SOL    HW210127   1.386   2.404   0.586 -1.6518 -2.9056 -1.6651
 2843SOL     OW10128   4.545   0.719   4.672  0.6265  0.0015  0.4752
 2843SOL    HW110129   4.464   0.667   4.645 -0.0349  0.5522  1.3625
 2843SOL    HW210130   4.609   0.721   4.596 -0.9647  1.0910 -0.8978
 2844SOL     OW10131   4.906   2.037   2.370  0.3003  0.2132 -0.4666
 2844SOL    HW110132   4.995   2.019   2.329  0.5283 -1.0797  0.5166
 2844SOL    HW210133   4.906   2.126   2.416  2.0233 -0.8933  1.8734
 2845SOL     OW10134   2.656   2.081   6.090  0.0133 -0.1244  0.6785
 2845SOL    HW110135   2.672   1.985   6.114 -2.5571 -0.7034  0.4471
 2845SOL    HW210136   2.634   2.133   6.173 -0.8452 -0.2816  0.5611
 2846SOL     OW10137   3.450   3.244   0.407 -0.8290  0.0825 -0.6689
 2846SOL    HW110138   3.504   3.295   0.474 -3.2119  1.5592  0.2563
 2846SOL    HW210139   3.421   3.306   0.334 -3.0431 -0.0920  0.0082
 2847SOL     OW10140   1.788   0.098   1.588  0.0152 -0.3611 -0.3971
 2847SOL    HW110141   1.805   0.194   1.608  0.2719 -0.3554 -0.6339
 2847SOL    HW210142   1.731   0.090   1.506  0.0952 -0.4130 -0.4480
 2848SOL     OW10143   0.331   0.912   3.739  0.4545  0.0298  0.1585
 2848SOL    HW110144   0.388   0.832   3.719  0.5072 -0.0566  0.6419
 2848SOL    HW210145   0.241   0.882   3.771  0.7581  0.1596  1.1425
 2849SOL     OW10146   4.377   1.562   4.266 -0.3120 -0.2012 -0.2187
 2849SOL    HW110147   4.473   1.581   4.245 -0.7576 -0.2283 -2.4613
 2849SOL    HW210148   4.365   1.463   4.277 -0.2080 -0.2554 -0.5927
 2850SOL     OW10149   2.461   1.521   6.864 -0.4452 -0.3189  0.6991
 2850SOL    HW110150   2.416   1.584   6.927 -1.9583 -1.6236  1.0132
 2850SOL    HW210151   2.409   1.518   6.778  0.7769  0.3598 -0.0936
 2851SOL     OW10152   0.756   6.193   2.556 -0.0057  0.1433  0.0011
 2851SOL    HW110153   0.696   6.113   2.554 -0.1696  0.2730 -0.5163
 2851SOL    HW210154   0.768   6.223   2.650 -1.8431  0.9168  0.0434
 2852SOL     OW10155   0.484   6.005   0.162 -0.4607  0.9402 -0.0213
 2852SOL    HW110156   0.504   6.091   0.209  2.4737  0.4173 -0.1205
 2852SOL    HW210157   0.556   5.939   0.181 -2.8647 -1.7302  0.4304
 2853SOL     OW10158   4.291   6.226   6.343  0.4399  0.2635 -0.4220
 2853SOL    HW110159   4.258   6.249   6.251 -0.6301  1.8476  0.3081
 2853SOL    HW210160   4.366   6.287   6.368  0.5194  0.0480 -0.1229
 2854SOL     OW10161   4.011   5.770   2.467  0.1720  0.0095 -0.0551
 2854SOL    HW110162   4.021   5.864   2.500  0.1205 -0.0621  0.1690
 2854SOL    HW210163   3.946   5.721   2.525  0.1495 -0.1460 -0.2103
 2855SOL     OW10164   6.466   6.455   5.238 -0.1136  0.2324 -0.4037
 2855SOL    HW110165   6.392   6.425   5.178 -0.2906  0.5636 -0.3560
 2855SOL    HW210166   6.511   6.536   5.199  0.4231 -0.1461 -0.5827
 2856SOL     OW10167   0.029   2.941   3.944 -0.2779  0.0441 -0.4150
 2856SOL    HW110168  -0.035   2.865   3.959 -0.5385  0.7913  3.0896
 2856SOL    HW210169   0.122   2.906   3.937 -0.4165 -0.6821  0.9927
 2857SOL     OW10170   3.449   3.854   2.107 -0.0391 -0.1134 -0.5364
 2857SOL    HW110171   3.497   3.894   2.028  0.2301 -1.1357 -0.9164
 2857SOL    HW210172   3.502   3.871   2.190  0.2804 -0.0376 -0.7528
 2858SOL     OW10173   0.247   4.011   2.019 -0.4596 -0.5591  0.3092
 2858SOL    HW110174   0.268   3.963   1.933 -0.0033 -0.1246  0.1735
 2858SOL    HW210175   0.172   4.076   2.003 -1.1288 -1.2658  0.5111
 2859SOL     OW10176   1.256   1.186   0.617  0.1874  0.0235  0.3824
 2859SOL    HW110177   1.226   1.092   0.629 -0.4044 -0.3078 -2.8618
 2859SOL    HW210178   1.333   1.189   0.553 -0.3130  1.7972 -0.1887
 2860SOL     OW10179   1.500   4.056   6.610  0.4780  0.4072 -0.4711
 2860SOL    HW110180   1.579   4.005   6.645  0.9862  1.5568  0.1216
 2860SOL    HW210181   1.528   4.150   6.588 -0.6940  0.7911 -0.3879
 2861SOL     OW10182   6.362   2.127   0.338  0.1334  0.3388  0.1148
 2861SOL    HW110183   6.387   2.035   0.308  0.3959  0.3031  0.4505
 2861SOL    HW210184   6.300   2.168   0.270  1.5131  0.6433 -1.0082
 2862SOL     OW10185   5.854   4.642   4.619  0.6464 -0.5049 -0.2961
 2862SOL    HW110186   5.884   4.725   4.573  0.5654 -1.6358 -2.4891
 2862SOL    HW210187   5.819   4.666   4.710  2.7966  1.5369  0.1077
 2863SOL     OW10188   7.017   0.689   1.861 -0.0548  0.5053 -0.4277
 2863SOL    HW110189   7.106   0.672   1.817  0.4639  1.4668  0.2232
 2863SOL    HW210190   7.031   0.718   1.955 -1.1848 -2.2210  0.6789
 2864SOL     OW10191   2.887   1.811   3.247  0.4029  0.7826  0.2719
 2864SOL    HW110192   2.986   1.815   3.259  0.8378 -2.1443 -1.4857
 2864SOL    HW210193   2.858   1.716   3.237 -2.4784  1.6170 -0.2409
 2865SOL     OW10194   1.227   6.860   0.140  0.1083  0.0477  0.3840
 2865SOL    HW110195   1.249   6.897   0.050  1.1581 -1.2387  0.0866
 2865SOL    HW210196   1.311   6.827   0.184 -0.2358  1.4879  2.2420
 2866SOL     OW10197   6.140   0.065   6.743 -0.5031 -0.2486  0.3686
 2866SOL    HW110198   6.222   0.088   6.796 -0.5728  1.4160 -0.2006
 2866SOL    HW210199   6.070   0.029   6.805 -0.0562  0.2549  1.1944
 2867SOL     OW10200   0.605   3.239   4.235 -0.0768 -0.2153  0.4806
 2867SOL    HW110201   0.522   3.271   4.282 -0.2412 -0.0316  0.0630
 2867SOL    HW210202   0.671   3.208   4.303 -1.0668 -1.7735  0.7915
 2868SOL     OW10203   3.777   3.101   1.621  0.0000 -0.4253  0.3577
 2868SOL    HW110204   3.756   3.199   1.619  0.4035 -0.3330  0.5697
 2868SOL    HW210205   3.854   3.082   1.561 -1.9510 -1.0892 -2.0969
 2869SOL     OW10206   0.905   4.733   6.128 -0.7226 -1.1915  0.3173
 2869SOL    HW110207   0.977   4.667   6.106  1.4675  0.8369  1.0205
 2869SOL    HW210208   0.902   4.804   6.058  0.6863  0.8299  2.1902
 2870SOL     OW10209   6.376   1.506   4.731 -0.1054  0.8132 -0.1312
 2870SOL    HW110210   6.401   1.569   4.657 -0.5460 -0.0765 -1.0541
 2870SOL    HW210211   6.408   1.414   4.709 -3.1542 -0.1730 -0.8487
 2871SOL     OW10212   3.523   2.849   1.978  0.1468  0.4026  0.3355
 2871SOL    HW110213   3.589   2.826   1.905  1.2653  0.6087  1.2561
 2871SOL    HW210214   3.476   2.766   2.007  0.8785  0.0340  0.4940
 2872SOL     OW10215   1.568   4.683   5.047  0.2201  0.2709  0.1806
 2872SOL    HW110216   1.651   4.731   5.076  0.4304  0.1886 -0.2784
 2872SOL    HW210217   1.521   4.647   5.128  0.6921  0.2160  0.4365
 2873SOL     OW10218   3.472   4.243   5.049 -0.0509 -0.1683 -0.4347
 2873SOL    HW110219   3.481   4.306   4.972 -0.2110 -1.1252 -1.2541
 2873SOL    HW210220   3.397   4.179   5.032  0.2122 -0.6915  0.3038
 2874SOL     OW10221   3.820   4.015   0.310 -1.1678 -0.3429 -1.1031
 2874SOL    HW110222   3.743   4.021   0.375  0.5186  4.4859  0.9034
 2874SOL    HW210223   3.836   4.105   0.269  4.1454 -0.6802 -0.4133
 2875SOL     OW10224   5.740   3.514   1.379  0.4039  0.0032  0.3056
 2875SOL    HW110225   5.763   3.417   1.390 -2.4843 -0.8817 -0.5191
 2875SOL    HW210226   5.753   3.540   1.283  0.4993  0.1968  0.3735
 2876SOL     OW10227   5.232   3.999   2.851 -0.5027  0.2895  0.4041
 2876SOL    HW110228   5.142   3.967   2.881 -0.3786 -1.2858 -0.7925
 2876SOL    HW210229   5.303   3.947   2.898 -0.1483  1.9216  1.7812
 2877SOL     OW10230   4.114   2.583   0.092  0.5969  0.1647  0.0383
 2877SOL    HW110231   4.132   2.502   0.036  0.1105  0.8952 -1.2150
 2877SOL    HW210232   4.051   2.644   0.043 -0.2724  0.5848  1.6285
 2878SOL     OW10233   1.323   1.177   4.092 -0.2569  0.4672 -0.0732
 2878SOL    HW110234   1.255   1.127   4.038 -1.2017  1.0232  0.5683
 2878SOL    HW210235   1.370   1.113   4.153 -2.2930  0.4693  1.6122
 2879SOL     OW10236   3.686   5.364   3.272  0.1686 -0.2365  0.1555
 2879SOL    HW110237   3.718   5.379   3.179 -0.6152  2.1456  0.1973
 2879SOL    HW210238   3.587   5.382   3.276 -0.0097 -1.3403  1.2552
 2880SOL     OW10239   5.871   0.134   2.295  0.2915  0.1720  0.1392
 2880SOL    HW110240   5.960   0.118   2.253  0.4387  1.2059  0.0346
 2880SOL    HW210241   5.804   0.159   2.225  0.8089  3.0537  0.5606
 2881SOL     OW10242   5.131   1.915   0.657  0.2193  0.4057  0.4417
 2881SOL    HW110243   5.138   1.886   0.562  0.4195  0.3528  0.4732
 2881SOL    HW210244   5.034   1.927   0.681  0.1711  0.4538  0.2222
 2882SOL     OW10245   4.016   5.214   6.028  0.0428 -0.4638 -0.1908
 2882SOL    HW110246   4.012   5.144   5.956 -0.7225 -0.5576 -0.0644
 2882SOL    HW210247   4.111   5.225   6.058  0.9861  1.8657 -3.4540
 2883SOL     OW10248   0.620   1.476   5.544 -0.2013  0.2613  0.6910
 2883SOL    HW110249   0.595   1.427   5.461 -0.4597  0.1190  0.8522
 2883SOL    HW210250   0.634   1.410   5.618  0.4762  0.3501  0.6506
 2884SOL     OW10251   5.171   6.755   2.867 -0.0564  0.5569 -0.0477
 2884SOL    HW110252   5.087   6.772   2.919 -0.8655 -1.5486 -0.5627
 2884SOL    HW210253   5.241   6.716   2.928  0.0850  1.0196  0.0913
 2885SOL     OW10254   0.705   1.498   5.908  0.5780  0.5605 -0.2303
 2885SOL    HW110255   0.650   1.581   5.915 -0.0769  0.0794  0.6469
 2885SOL    HW210256   0.651   1.420   5.940  1.8824  0.1258  1.0233
 2886SOL     OW10257   3.932   5.453   6.332 -0.9236 -0.6660 -0.1451
 2886SOL    HW110258   3.861   5.439   6.263 -1.5183 -2.7568  0.7790
 2886SOL    HW210259   3.978   5.366   6.349 -1.2384 -0.3903  2.5171
 2887SOL     OW10260   0.122   6.425   0.899 -0.3926  0.0380 -0.3652
 2887SOL    HW110261   0.104   6.476   0.815  1.0802 -1.0394 -1.3847
 2887SOL    HW210262   0.208   6.457   0.939 -0.7909  0.1385  0.4239
 2888SOL     OW10263   6.174   4.717   3.707 -0.4781  0.1652 -0.4444
 2888SOL    HW110264   6.251   4.735   3.647 -1.0624  0.1999 -1.2016
 2888SOL    HW210265   6.089   4.714   3.653 -0.8595 -1.0842  0.1905
 2889SOL     OW10266   5.530   6.942   3.891  0.2687 -0.1823 -0.8028
 2889SOL    HW110267   5.618   6.989   3.891  0.5673 -0.5859  1.8142
 2889SOL    HW210268   5.492   6.942   3.984 -1.6197 -1.6121 -1.5079
 2890SOL     OW10269   6.879   0.193   3.458  0.4830 -0.0154 -0.0889
 2890SOL    HW110270   6.978   0.188   3.447  0.2879 -1.4978 -1.5377
 2890SOL    HW210271   6.838   0.232   3.375 -0.2982 -1.7446 -0.5626
 2891SOL     OW10272   4.345   2.980   1.956 -0.7129  0.5252 -0.3953
 2891SOL    HW110273   4.346   2.997   2.055 -0.9843  0.2745 -0.3472
 2891SOL    HW210274   4.294   2.896   1.938  2.0296 -1.2554 -0.4651
 2892SOL     OW10275   2.868   5.477   5.087 -0.2715  0.1471  0.0103
 2892SOL    HW110276   2.936   5.533   5.040  0.9261  0.8315  2.3694
 2892SOL    HW210277   2.892   5.380   5.076  0.4977  0.3363 -0.0823
 2893SOL     OW10278   0.260   6.683   4.213  0.4870 -0.2797 -0.9062
 2893SOL    HW110279   0.337   6.645   4.161  0.2953  0.3298 -1.6601
 2893SOL    HW210280   0.179   6.627   4.199  0.8780 -1.1203  0.1690
 2894SOL     OW10281   6.905   0.808   6.931 -0.2002 -0.3591  0.1233
 2894SOL    HW110282   6.913   0.871   7.008  0.4821  0.7257 -0.8088
 2894SOL    HW210283   6.958   0.725   6.950  0.3855  0.1164  0.6186
 2895SOL     OW10284   1.153   4.280   4.407  0.1481 -0.6033  0.4895
 2895SOL    HW110285   1.110   4.250   4.492 -1.4567  1.8253  0.6225
 2895SOL    HW210286   1.216   4.355   4.426  1.2841 -1.3261 -0.2689
 2896SOL     OW10287   0.588   0.883   3.380  0.3200  0.5308  0.2489
 2896SOL    HW110288   0.528   0.961   3.366 -0.4005  0.0177  0.3994
 2896SOL    HW210289   0.661   0.884   3.312  0.0517  1.0748 -0.0404
 2897SOL     OW10290   5.309   4.266   0.357 -0.5932  0.2170 -0.1323
 2897SOL    HW110291   5.401   4.254   0.319 -0.0572  1.4289  0.7103
 2897SOL    HW210292   5.292   4.195   0.425 -0.7514 -0.7135 -1.1199
 2898SOL     OW10293   3.758   2.195   0.649 -0.3719  1.0448 -0.3932
 2898SOL    HW110294   3.818   2.121   0.681  0.1394  0.9283 -1.5784
 2898SOL    HW210295   3.723   2.246   0.728 -2.1628 -1.5220  0.6168
 2899SOL     OW10296   5.134   6.059   3.926  0.0876 -0.9979 -0.5222
 2899SOL    HW110297   5.230   6.033   3.938  0.0961 -1.1668 -0.9174
 2899SOL    HW210298   5.102   6.025   3.837  0.3481  1.0915 -1.4679
 2900SOL     OW10299   4.263   2.816   1.482 -0.1282  0.2805 -0.6510
 2900SOL    HW110300   4.190   2.750   1.501 -0.5340  0.5950 -1.1116
 2900SOL    HW210301   4.328   2.816   1.558 -1.8933  1.7742  0.9783
 2901SOL     OW10302   0.151   5.841   3.294  0.4885  0.6138  0.8607
 2901SOL    HW110303   0.195   5.811   3.209 -0.8126 -0.1590  0.4210
 2901SOL    HW210304   0.118   5.761   3.344 -0.9620  1.1732  0.8436
 2902SOL     OW10305   0.818   4.535   3.476 -0.1281  0.1635  0.0904
 2902SOL    HW110306   0.851   4.629   3.469 -0.0751  0.1827  0.5563
 2902SOL    HW210307   0.726   4.535   3.514 -1.2651  0.2060 -2.4464
 2903SOL     OW10308   3.390   6.968   3.273 -0.0026  0.2623 -0.2136
 2903SOL    HW110309   3.439   6.925   3.349  0.2413  0.3937 -0.2969
 2903SOL    HW210310   3.431   7.057   3.252 -0.2160  0.3309 -0.3459
 2904SOL     OW10311   2.855   1.071   2.015  0.2655  0.0673  0.5941
 2904SOL    HW110312   2.799   0.993   1.987  0.3732 -0.5047  1.9068
 2904SOL    HW210313   2.896   1.113   1.934 -1.3642 -0.0102 -0.3149
 2905SOL     OW10314   0.767   0.690   5.166  0.1089 -0.2706  0.3021
 2905SOL    HW110315   0.794   0.760   5.100 -0.4251 -1.6075 -1.4081
 2905SOL    HW210316   0.758   0.602   5.120 -3.2211 -0.7247  1.4818
 2906SOL     OW10317   3.783   1.026   6.322 -0.0170 -0.3117  0.1186
 2906SOL    HW110318   3.715   0.974   6.375 -0.0677  0.7714  1.1545
 2906SOL    HW210319   3.832   0.964   6.261  0.1675 -1.6398  1.5604
 2907SOL     OW10320   2.345   3.095   2.106 -0.0087  0.0473  0.5050
 2907SOL    HW110321   2.336   3.066   2.011  0.1778  1.0611  0.1630
 2907SOL    HW210322   2.284   3.041   2.163  1.7687 -2.3979  0.2370
 2908SOL     OW10323   6.158   1.822   4.968 -0.5782 -0.1231 -0.0408
 2908SOL    HW110324   6.186   1.867   4.883 -0.4513 -1.2144 -0.5816
 2908SOL    HW210325   6.170   1.724   4.960 -0.1562 -0.2123  1.4028
 2909SOL     OW10326   0.415   0.361   2.051 -0.5044  0.0558 -0.0022
 2909SOL    HW110327   0.483   0.420   2.093 -1.4069  0.8395  0.3764
 2909SOL    HW210328   0.365   0.412   1.980 -0.3159 -0.6800 -0.6812
 2910SOL     OW10329   4.721   0.018   3.684  0.3855 -0.2556 -0.1482
 2910SOL    HW110330   4.741   0.099   3.629  1.3011 -0.6877 -0.4712
 2910SOL    HW210331   4.769  -0.061   3.646  0.5832 -0.6792  0.9489
 2911SOL     OW10332   4.580   6.326   4.861  0.6706 -0.1612 -0.1081
 2911SOL    HW110333   4.501   6.385   4.844  0.6134 -0.5420 -1.2944
 2911SOL    HW210334   4.548   6.234   4.885  0.6929 -0.6563 -1.7970
 2912SOL     OW10335   5.412   0.812   6.959  0.2199 -0.5696 -0.3598
 2912SOL    HW110336   5.378   0.820   6.866  1.6642 -1.0226 -0.9530
 2912SOL    HW210337   5.473   0.888   6.979 -1.4370  0.5092  0.8612
 2913SOL     OW10338   6.642   4.862   4.902 -0.1102  0.1074  0.4175
 2913SOL    HW110339   6.673   4.956   4.915  1.4518 -0.4153  0.5902
 2913SOL    HW210340   6.694   4.800   4.961  1.8543 -1.3806 -2.6169
 2914SOL     OW10341   2.600   2.960   2.146 -0.5368 -0.3835 -0.5032
 2914SOL    HW110342   2.580   2.893   2.218 -2.2150 -0.0711 -0.6355
 2914SOL    HW210343   2.531   3.031   2.146 -0.4948 -0.2842 -2.3177
 2915SOL     OW10344   5.815   0.988   6.661  0.2843 -0.0882  0.1906
 2915SOL    HW110345   5.873   0.981   6.580  0.2170 -2.2659  0.2718
 2915SOL    HW210346   5.720   0.970   6.637  0.0881  0.4142  0.5686
 2916SOL     OW10347   3.199   6.265   1.368  0.0206  0.0809  0.6318
 2916SOL    HW110348   3.153   6.226   1.288  2.4518 -1.4469 -0.1394
 2916SOL    HW210349   3.264   6.335   1.339 -2.4961  3.0789  1.8030
 2917SOL     OW10350   6.023   2.197   4.191 -0.4641 -0.2461  0.0312
 2917SOL    HW110351   5.955   2.143   4.241 -0.4398 -0.3472 -0.0456
 2917SOL    HW210352   5.995   2.293   4.190 -0.2793 -0.1829  0.5595
 2918SOL     OW10353   2.923   5.637   5.923 -0.9134  0.8071  0.0418
 2918SOL    HW110354   2.824   5.648   5.913 -1.0546 -0.1775  0.2587
 2918SOL    HW210355   2.969   5.658   5.837 -1.5050 -0.8217 -0.7024
 2919SOL     OW10356   4.945   6.370   3.722  0.5699 -0.0419  0.3532
 2919SOL    HW110357   4.894   6.455   3.719  1.3469  0.4069 -0.4470
 2919SOL    HW210358   5.008   6.365   3.645  2.2933 -0.2333  1.7119
 2920SOL     OW10359   3.054   2.054   4.291  0.1719 -0.0886  0.3293
 2920SOL    HW110360   3.002   2.132   4.327  0.1196 -0.0152  0.0973
 2920SOL    HW210361   3.041   2.049   4.192 -0.4356 -0.8467  0.4362
 2921SOL     OW10362   0.490   4.080   6.166  0.1054  0.1083 -0.1954
 2921SOL    HW110363   0.416   4.148   6.165 -0.8552 -0.9188 -0.3028
 2921SOL    HW210364   0.470   4.007   6.101  1.5371  0.1204 -0.6907
 2922SOL     OW10365   3.291   4.973   6.040  0.1694 -0.1883 -0.1279
 2922SOL    HW110366   3.267   5.022   6.124  1.5158 -0.2740  0.3308
 2922SOL    HW210367   3.355   4.899   6.062  0.9527  0.1126 -1.2867
 2923SOL     OW10368   0.010   4.592   2.752 -0.1491  0.4974 -0.0283
 2923SOL    HW110369   0.004   4.542   2.666 -1.2901 -0.4111  0.5575
 2923SOL    HW210370   0.106   4.617   2.769  0.3611 -0.9316 -0.6380
 2924SOL     OW10371   1.201   6.199   1.189 -0.1747  0.2439  0.5780
 2924SOL    HW110372   1.150   6.242   1.115  1.0209 -1.8427 -1.6332
 2924SOL    HW210373   1.139   6.175   1.264 -1.4351  2.3552  0.2631
 2925SOL     OW10374   5.569   3.988   2.629  0.2100  0.2487 -0.4968
 2925SOL    HW110375   5.544   4.035   2.713 -3.2011  0.8336 -1.6585
 2925SOL    HW210376   5.642   4.037   2.582 -2.1650  3.7035 -0.9211
 2926SOL     OW10377   2.089   6.142   6.811  0.3284 -0.0700 -0.4769
 2926SOL    HW110378   2.130   6.179   6.895  1.1112 -0.0435 -0.8622
 2926SOL    HW210379   1.998   6.182   6.798  0.3877  0.2726  0.1104
 2927SOL     OW10380   3.584   5.940   6.155  0.1070 -0.0475 -0.2156
 2927SOL    HW110381   3.581   5.862   6.217  0.8021 -0.2935 -0.4819
 2927SOL    HW210382   3.645   5.919   6.078  0.9085  1.0395  0.0991
 2928SOL     OW10383   5.475   6.722   3.705 -0.0987  0.2275 -0.0517
 2928SOL    HW110384   5.447   6.630   3.732  0.8498  0.3498  1.4725
 2928SOL    HW210385   5.496   6.776   3.787 -1.1704  1.9955 -0.8822
 2929SOL     OW10386   0.064   5.314   5.872 -0.4125 -0.3538  0.3500
 2929SOL    HW110387   0.013   5.341   5.953  0.0889 -2.0878  1.2879
 2929SOL    HW210388   0.003   5.312   5.793 -1.5963 -1.4239  1.2512
 2930SOL     OW10389   6.516   2.968   5.972 -0.0850  0.2875 -0.3296
 2930SOL    HW110390   6.484   2.877   5.998 -1.7930  0.7560 -0.6578
 2930SOL    HW210391   6.606   2.960   5.928  0.0507 -1.1639  0.1444
 2931SOL     OW10392   0.973   1.407   3.328  0.0733 -0.0384  0.3292
 2931SOL    HW110393   0.880   1.388   3.297 -0.4821  1.9737  0.6482
 2931SOL    HW210394   0.983   1.505   3.345  1.6473 -0.4772  2.2438
 2932SOL     OW10395   1.327   1.698   2.743  0.4836  0.4737  0.3440
 2932SOL    HW110396   1.230   1.722   2.731  0.4961  0.7602  0.8129
 2932SOL    HW210397   1.336   1.598   2.745  0.1527  0.4486  0.6786
 2933SOL     OW10398   0.537   4.743   4.206 -0.0500 -0.3268 -0.2515
 2933SOL    HW110399   0.614   4.790   4.162 -0.9769  0.3427 -1.2196
 2933SOL    HW210400   0.475   4.709   4.135 -0.5273 -1.0713  0.5097
 2934SOL     OW10401   4.753   0.050   0.485  0.5341  0.3235 -0.7652
 2934SOL    HW110402   4.675  -0.012   0.487  0.1159  0.8315 -1.0994
 2934SOL    HW210403   4.768   0.081   0.391  2.6304 -1.6298 -1.1760
 2935SOL     OW10404   6.531   0.645   4.731 -0.4534 -0.2658  0.2242
 2935SOL    HW110405   6.579   0.637   4.643 -1.1762  2.0501 -0.4296
 2935SOL    HW210406   6.593   0.619   4.805  0.8674 -0.1328 -0.8019
 2936SOL     OW10407   3.935   3.659   3.640 -0.4142 -0.0994 -0.3680
 2936SOL    HW110408   3.887   3.678   3.726 -0.6634 -1.5382 -0.1749
 2936SOL    HW210409   3.918   3.565   3.612 -0.7677  0.4922 -2.2820
 2937SOL     OW10410   1.896   3.450   3.621  0.0354  0.4029 -0.1016
 2937SOL    HW110411   1.961   3.511   3.666 -1.5239  0.4848  2.2135
 2937SOL    HW210412   1.929   3.356   3.627 -0.3673  0.3421  1.7789
 2938SOL     OW10413   2.344   6.786   4.458 -0.2068  0.4146 -0.0525
 2938SOL    HW110414   2.382   6.739   4.379 -1.0465 -0.2110 -0.1006
 2938SOL    HW210415   2.341   6.885   4.441  2.8465  0.7146  0.5741
 2939SOL     OW10416   1.623   3.103   0.780 -0.2185  0.5990  0.6318
 2939SOL    HW110417   1.685   3.128   0.854  0.1237 -1.0258  0.9409
 2939SOL    HW210418   1.669   3.114   0.692  0.4116 -0.2752  0.8412
 2940SOL     OW10419   6.371   5.522   5.026 -0.6014  0.6577 -0.4952
 2940SOL    HW110420   6.289   5.560   5.069 -1.0017 -1.0960  0.3943
 2940SOL    HW210421   6.447   5.525   5.091  0.1250  2.4055 -1.3639
 2941SOL     OW10422   6.417   5.251   3.098 -0.6524  0.0334  0.1781
 2941SOL    HW110423   6.486   5.192   3.141 -1.4594 -0.2069  1.1906
 2941SOL    HW210424   6.328   5.233   3.140 -1.3091  0.4459 -1.0005
 2942SOL     OW10425   5.789   5.361   3.239  1.0801 -0.0006  0.4456
 2942SOL    HW110426   5.847   5.394   3.313  2.3765  0.7015 -0.8211
 2942SOL    HW210427   5.760   5.268   3.258  2.8653 -0.4841  1.0129
 2943SOL     OW10428   3.458   0.766   2.287 -0.4535 -0.0890  0.0763
 2943SOL    HW110429   3.375   0.755   2.342 -0.2473  0.0280  0.4111
 2943SOL    HW210430   3.493   0.859   2.297 -1.8506  0.7857 -2.2644
 2944SOL     OW10431   5.578   5.727   6.808 -0.1244 -0.0301 -0.5135
 2944SOL    HW110432   5.673   5.706   6.830 -0.3918  1.1510  2.2871
 2944SOL    HW210433   5.551   5.812   6.854 -2.4680 -0.1750 -1.4567
 2945SOL     OW10434   5.751   2.183   3.498 -0.6429 -0.1700  0.3927
 2945SOL    HW110435   5.691   2.107   3.522 -0.5277  0.1574  1.8218
 2945SOL    HW210436   5.846   2.160   3.521 -0.4962  0.0942  0.0657
 2946SOL     OW10437   0.420   2.589   3.061 -0.2192  0.0825 -0.2894
 2946SOL    HW110438   0.414   2.524   3.136  2.9332 -0.8121 -0.6519
 2946SOL    HW210439   0.340   2.580   3.001 -0.8894 -1.9262  0.8484
 2947SOL     OW10440   3.199   0.258   2.023 -0.4584 -0.7178  0.2273
 2947SOL    HW110441   3.228   0.284   2.115  0.5639 -0.3162 -0.1857
 2947SOL    HW210442   3.207   0.337   1.962  1.8093 -1.6873 -0.8495
 2948SOL     OW10443   6.514   2.936   6.660  0.2633 -0.5231  0.1426
 2948SOL    HW110444   6.438   2.889   6.705  0.1885  0.6215  1.2644
 2948SOL    HW210445   6.595   2.933   6.718  0.6018 -0.2974 -0.3104
 2949SOL     OW10446   5.874   6.049   0.369  0.3402  0.2289  0.2804
 2949SOL    HW110447   5.966   6.020   0.394 -0.0514 -2.5454 -1.0421
 2949SOL    HW210448   5.879   6.126   0.305  1.5531  1.9165  2.2737
 2950SOL     OW10449   6.166   2.820   6.508  0.6220  0.4871 -0.3267
 2950SOL    HW110450   6.173   2.840   6.605  2.1530 -0.5236 -0.1735
 2950SOL    HW210451   6.074   2.789   6.486  0.0543  1.4447  0.6395
 2951SOL     OW10452   6.198   1.598   4.179 -0.3497  0.0470 -0.7317
 2951SOL    HW110453   6.166   1.617   4.272  1.9772  0.8816 -0.0394
 2951SOL    HW210454   6.201   1.499   4.165 -2.3545 -0.0861 -0.5788
 2952SOL     OW10455   1.445   1.926   2.068 -0.2891 -0.1502 -0.3438
 2952SOL    HW110456   1.523   1.892   2.016 -1.4112 -0.0486 -2.1868
 2952SOL    HW210457   1.365   1.870   2.048 -2.0333  2.9220 -2.9416
 2953SOL     OW10458   0.698   4.268   5.187 -0.2986 -0.4481  0.4531
 2953SOL    HW110459   0.735   4.223   5.106  0.9721  1.2404  0.0432
 2953SOL    HW210460   0.772   4.286   5.252 -0.6145  1.5240  0.3421
 2954SOL     OW10461   2.433   4.565   6.610 -0.7913 -0.0564 -0.0332
 2954SOL    HW110462   2.439   4.485   6.551 -0.1778  0.3132 -0.4852
 2954SOL    HW210463   2.381   4.637   6.563  0.1849  0.4462 -0.3815
 2955SOL     OW10464   1.763   2.071   2.264 -0.2893  0.3197  0.0005
 2955SOL    HW110465   1.670   2.104   2.246 -0.5750 -0.7465 -0.5697
 2955SOL    HW210466   1.819   2.147   2.297 -1.5265  0.8398  1.0267
 2956SOL     OW10467   6.425   5.942   4.393  0.1220  0.4846 -0.6059
 2956SOL    HW110468   6.380   5.993   4.466  0.6271 -0.6024  0.4954
 2956SOL    HW210469   6.455   6.005   4.322 -1.7209  1.4057 -0.6273
 2957SOL     OW10470   3.447   3.793   5.436  0.2975 -0.2850  0.3016
 2957SOL    HW110471   3.480   3.887   5.447  1.8569 -0.8158  0.4193
 2957SOL    HW210472   3.347   3.793   5.434  0.1934  1.7687 -2.8924
 2958SOL     OW10473   0.910   4.281   0.824  0.6540 -0.2229 -0.2797
 2958SOL    HW110474   0.848   4.276   0.746 -0.6704 -1.2986  0.7821
 2958SOL    HW210475   0.987   4.218   0.811  1.1390  0.5581 -1.2715
 2959SOL     OW10476   3.782   0.870   0.401 -0.4294  0.7369 -0.3581
 2959SOL    HW110477   3.778   0.805   0.477  0.0884  0.9297 -0.1611
 2959SOL    HW210478   3.743   0.957   0.429 -4.0064 -0.2947 -1.5250
 2960SOL     OW10479   3.992   1.897   2.043 -0.0368 -0.4204 -0.1956
 2960SOL    HW110480   4.057   1.822   2.033  0.2045 -0.2550  0.1355
 2960SOL    HW210481   3.934   1.880   2.123  0.9155  0.4118  0.6963
 2961SOL     OW10482   5.189   1.902   6.447 -0.8713  0.3345  0.8028
 2961SOL    HW110483   5.228   1.819   6.488  0.8506 -0.3784 -1.9546
 2961SOL    HW210484   5.198   1.978   6.511  0.8899 -0.8496  2.0625
 2962SOL     OW10485   0.177   0.363   6.016 -0.3734 -0.0342  0.3273
 2962SOL    HW110486   0.264   0.404   5.985 -1.0148  1.1125 -0.0009
 2962SOL    HW210487   0.150   0.292   5.951  0.0702 -0.0677  0.1714
 2963SOL     OW10488   6.524   2.579   5.909 -0.0738 -0.6726  0.3507
 2963SOL    HW110489   6.484   2.616   5.992 -0.1975 -0.4018  0.1720
 2963SOL    HW210490   6.623   2.568   5.921 -0.0154 -0.1566  0.3606
 2964SOL     OW10491   2.315   0.790   5.790  0.2733 -0.3428  0.0971
 2964SOL    HW110492   2.237   0.848   5.764  0.2637 -0.1442  0.5547
 2964SOL    HW210493   2.345   0.815   5.882  0.0797 -1.2703  0.4210
 2965SOL     OW10494   4.795   6.697   3.335 -0.0488 -0.1388  0.2908
 2965SOL    HW110495   4.859   6.655   3.270 -2.0293 -0.8854 -1.2695
 2965SOL    HW210496   4.795   6.796   3.321 -0.9778 -0.3347 -1.4423
 2966SOL     OW10497   0.621   6.819   5.552  0.1603  0.2894 -0.4145
 2966SOL    HW110498   0.689   6.851   5.617  0.7131 -1.5211 -0.0597
 2966SOL    HW210499   0.535   6.802   5.600  1.0273 -2.6395  0.2520
 2967SOL     OW10500   3.270   1.168   0.622 -0.4548  0.0154  0.3214
 2967SOL    HW110501   3.347   1.231   0.633 -1.3348  0.8299  2.4055
 2967SOL    HW210502   3.299   1.075   0.645  0.3868 -0.0582 -0.9353
 2968SOL     OW10503   2.537   5.185   5.754 -0.1896 -0.1771 -0.0711
 2968SOL    HW110504   2.463   5.200   5.689 -0.1378  1.7539  0.2563
 2968SOL    HW210505   2.624   5.179   5.705 -0.5117 -2.6508 -0.4758
 2969SOL     OW10506   0.312   4.946   6.061  0.4501  0.1916  0.1291
 2969SOL    HW110507   0.404   4.974   6.086  0.7564 -0.6837  0.0122
 2969SOL    HW210508   0.299   4.850   6.085 -0.0477 -0.0044 -0.8970
 2970SOL     OW10509   0.626   2.069   1.542 -0.5002  0.0410 -0.0538
 2970SOL    HW110510   0.597   1.977   1.571 -0.6496  0.4916  1.2800
 2970SOL    HW210511   0.725   2.068   1.525 -0.4861 -0.3567  0.0234
 2971SOL     OW10512   1.858   6.495   5.436  0.6627 -0.2338 -0.1838
 2971SOL    HW110513   1.901   6.508   5.347  2.2713 -1.1444  0.4127
 2971SOL    HW210514   1.840   6.397   5.450  0.4088 -0.0966  0.4885
 2972SOL     OW10515   0.408   4.950   0.975 -0.8432 -0.3064  0.2561
 2972SOL    HW110516   0.333   4.930   1.038 -1.3886  2.0568  0.4648
 2972SOL    HW210517   0.405   5.047   0.951  2.1965 -0.1112  0.3465
 2973SOL     OW10518   5.685   0.006   4.931  1.1654 -0.9279 -0.6982
 2973SOL    HW110519   5.625   0.085   4.918  2.0690 -0.5971 -3.3177
 2973SOL    HW210520   5.754   0.029   5.000 -0.1621 -0.4337  0.5209
 2974SOL     OW10521   4.453   6.729   2.165  0.5631 -0.0265 -0.4143
 2974SOL    HW110522   4.460   6.821   2.203  2.3667  1.0118 -2.9807
 2974SOL    HW210523   4.532   6.711   2.105  0.7694 -3.6138  0.6671
 2975SOL     OW10524   6.207   4.548   0.018 -0.3077  0.1783  0.1103
 2975SOL    HW110525   6.219   4.567  -0.079  2.3859 -0.3036  0.2690
 2975SOL    HW210526   6.190   4.633   0.067  0.8551  0.7913 -0.4997
 2976SOL     OW10527   3.996   5.720   1.817 -0.1947  0.2442 -0.2677
 2976SOL    HW110528   3.935   5.646   1.788  0.2355  0.0316 -0.6354
 2976SOL    HW210529   4.090   5.687   1.817  0.1356  1.1405 -1.5942
 2977SOL     OW10530   1.513   4.028   3.745  0.8132  0.1493  0.4118
 2977SOL    HW110531   1.597   4.055   3.699  0.1949 -1.4549 -1.8148
 2977SOL    HW210532   1.491   4.095   3.817  2.3231  2.2904 -1.0072
 2978SOL     OW10533   2.046   0.287   5.364  0.1804  0.4222 -0.1025
 2978SOL    HW110534   2.072   0.382   5.380 -1.2140  1.2022 -2.0528
 2978SOL    HW210535   2.017   0.276   5.269 -0.5035 -1.7727  0.3018
 2979SOL     OW10536   1.755   4.472   4.319  0.4566 -0.0017  0.1286
 2979SOL    HW110537   1.755   4.381   4.360 -0.4525  0.3414  0.9152
 2979SOL    HW210538   1.694   4.532   4.371 -2.0498  0.0524 -2.6062
 2980SOL     OW10539   0.271   6.179   5.353  0.2458 -0.5146  0.2110
 2980SOL    HW110540   0.302   6.150   5.444  1.2824 -1.6789 -0.4769
 2980SOL    HW210541   0.179   6.216   5.360  0.8525  0.8164  1.9591
 2981SOL     OW10542   0.844   5.680   1.360 -0.6379 -0.1325  0.0897
 2981SOL    HW110543   0.817   5.606   1.299 -0.7152  0.1358 -0.2033
 2981SOL    HW210544   0.780   5.756   1.350 -0.6574 -0.0893  0.5136
 2982SOL     OW10545   5.493   6.621   5.486  0.1495 -0.4691  0.3066
 2982SOL    HW110546   5.508   6.720   5.487  1.9245 -0.6876  2.4102
 2982SOL    HW210547   5.480   6.588   5.579 -1.0691 -2.1747 -0.4077
 2983SOL     OW10548   5.667   4.080   3.784 -0.0218 -0.1051 -0.0597
 2983SOL    HW110549   5.686   4.016   3.858  1.5882 -0.0908 -0.4166
 2983SOL    HW210550   5.620   4.032   3.710 -0.7539 -0.3486  0.5518
 2984SOL     OW10551   0.253   4.303   0.022  0.0410  0.5891  0.3589
 2984SOL    HW110552   0.210   4.261  -0.058  0.0896  0.8751  0.1827
 2984SOL    HW210553   0.343   4.339  -0.003  0.4194 -0.0762  0.7465
 2985SOL     OW10554   3.809   0.109   6.179  0.2067 -0.0912 -0.6467
 2985SOL    HW110555   3.867   0.036   6.214 -0.5646 -0.9000 -1.0268
 2985SOL    HW210556   3.748   0.141   6.252  1.1950  0.8569 -0.2062
 2986SOL     OW10557   2.539   5.187   4.796 -0.4782  0.1755 -0.1350
 2986SOL    HW110558   2.593   5.105   4.778 -0.2435 -0.0874  1.6238
 2986SOL    HW210559   2.443   5.169   4.776 -0.3790 -0.4056 -0.0939
 2987SOL     OW10560   4.965   4.359   5.594  0.2435 -0.1131  0.2225
 2987SOL    HW110561   5.009   4.294   5.532 -0.3017 -0.4133  0.1381
 2987SOL    HW210562   4.938   4.441   5.543 -1.5455 -0.9708 -0.3006
 2988SOL     OW10563   5.921   0.185   0.508 -0.5310 -0.1313  0.5789
 2988SOL    HW110564   5.922   0.278   0.471  0.7409 -0.6714 -0.8408
 2988SOL    HW210565   5.883   0.186   0.601  0.5792  1.9766  1.0575
 2989SOL     OW10566   4.184   1.209   3.579  0.5101  0.2023 -0.1710
 2989SOL    HW110567   4.226   1.237   3.665  2.1575  1.1713 -1.2359
 2989SOL    HW210568   4.106   1.267   3.559 -0.3604 -0.5206  1.0094
 2990SOL     OW10569   5.628   5.044   3.138  0.4226  0.3739  0.4950
 2990SOL    HW110570   5.687   5.002   3.070  2.3070  0.5622  1.9413
 2990SOL    HW210571   5.677   5.052   3.225 -0.6118  3.4253  0.9239
 2991SOL     OW10572   3.873   5.753   5.438 -0.9027 -0.0323 -0.2646
 2991SOL    HW110573   3.963   5.790   5.460 -1.0612  1.2779 -1.6691
 2991SOL    HW210574   3.881   5.686   5.364 -1.0809  0.0894 -0.3956
 2992SOL     OW10575   5.823   5.095   6.977  0.2064 -0.2913 -0.1009
 2992SOL    HW110576   5.726   5.105   6.953  0.5827  0.9667 -1.1627
 2992SOL    HW210577   5.877   5.084   6.894  1.1465  0.5790  0.3852
 2993SOL     OW10578   0.674   0.393   5.246 -0.3553 -0.3538 -0.1656
 2993SOL    HW110579   0.736   0.318   5.266 -0.0870 -0.5036 -1.4919
 2993SOL    HW210580   0.585   0.374   5.288 -0.0261 -0.9624  0.2806
 2994SOL     OW10581   2.529   2.518   1.918 -0.4389  0.0539  0.6874
 2994SOL    HW110582   2.551   2.437   1.863 -0.3071  0.3504  0.2978
 2994SOL    HW210583   2.431   2.521   1.935 -1.1460  1.9251 -2.7668
 2995SOL     OW10584   3.546   0.607   6.442 -0.0188 -0.9825 -0.7177
 2995SOL    HW110585   3.521   0.555   6.523 -1.5068 -0.7593 -0.9970
 2995SOL    HW210586   3.510   0.561   6.361  0.6807 -0.7406 -1.1756
 2996SOL     OW10587   6.233   6.587   0.210  0.4073  0.2848  0.0729
 2996SOL    HW110588   6.235   6.629   0.119 -0.5828  1.0667  0.3998
 2996SOL    HW210589   6.158   6.521   0.215 -0.0848  0.8790  0.5938
 2997SOL     OW10590   2.606   0.454   2.513 -0.0136 -0.0584  0.2784
 2997SOL    HW110591   2.633   0.491   2.424 -1.0166  1.1814  0.4600
 2997SOL    HW210592   2.665   0.493   2.584 -0.3161  0.2941  0.3392
 2998SOL     OW10593   1.191   2.307   1.342  0.0027  0.4956  0.1345
 2998SOL    HW110594   1.188   2.276   1.437  0.6560 -0.7106 -0.2180
 2998SOL    HW210595   1.225   2.402   1.339  1.0218  0.1831  1.0453
 2999SOL     OW10596   2.823   1.532   3.144  0.8882 -0.4986 -0.0319
 2999SOL    HW110597   2.745   1.537   3.206 -1.1977 -2.7817 -2.2458
 2999SOL    HW210598   2.857   1.438   3.141  0.9173 -0.4682 -2.2850
 3000SOL     OW10599   4.157   5.074   2.955  0.5967 -0.4252  0.5181
 3000SOL    HW110600   4.156   4.974   2.955  0.4352 -0.4240  0.1169
 3000SOL    HW210601   4.083   5.108   2.897 -1.0449 -0.0454  2.6997
 3001SOL     OW10602   5.069   4.555   1.455  0.3228  0.5196  0.1615
 3001SOL    HW110603   5.164   4.576   1.435  0.3737  0.9781  0.8624
 3001SOL    HW210604   5.043   4.595   1.543 -0.3641 -0.0494  0.2332
 3002SOL     OW10605   5.531   1.705   4.230  0.0731 -0.3851 -0.2533
 3002SOL    HW110606   5.600   1.772   4.260 -1.2348  1.6019 -1.4663
 3002SOL    HW210607   5.578   1.626   4.190  1.7335  1.2828 -1.8620
 3003SOL     OW10608   4.353   1.875   2.024 -0.0104  0.2852 -0.5326
 3003SOL    HW110609   4.309   1.963   2.003  0.8433  1.2614  1.4517
 3003SOL    HW210610   4.285   1.812   2.059 -0.0044  1.7642  2.4655
 3004SOL     OW10611   1.576   4.926   3.234  0.1083 -0.0560  0.1666
 3004SOL    HW110612   1.533   4.927   3.144  1.0888  0.9555 -0.3094
 3004SOL    HW210613   1.596   5.019   3.263 -0.0234 -0.3787  1.3655
 3005SOL     OW10614   5.151   1.049   4.806 -0.9525  0.0827  0.7717
 3005SOL    HW110615   5.149   0.961   4.853 -4.0080 -0.2652  0.1990
 3005SOL    HW210616   5.243   1.065   4.770 -0.3315 -2.9510  0.7282
 3006SOL     OW10617   1.453   5.886   5.248 -0.1725  0.1964 -0.1691
 3006SOL    HW110618   1.510   5.814   5.287  0.6346  0.6696 -0.4248
 3006SOL    HW210619   1.401   5.850   5.170 -0.8703 -0.4495  0.5895
 3007SOL     OW10620   3.895   7.017   0.207  0.4048  0.1957 -0.4609
 3007SOL    HW110621   3.867   7.011   0.303  0.0235 -1.2788 -0.6422
 3007SOL    HW210622   3.821   6.985   0.149  0.8598  0.5138 -1.2247
 3008SOL     OW10623   0.687   6.346   3.502  0.0836  0.0306 -0.2179
 3008SOL    HW110624   0.620   6.273   3.493 -1.2616  1.2786 -0.7864
 3008SOL    HW210625   0.721   6.372   3.412 -0.0522  0.6200 -0.1096
 3009SOL     OW10626   0.724   6.777   0.288 -0.9930  0.3242 -0.2991
 3009SOL    HW110627   0.821   6.754   0.291 -0.9568  0.5250  0.0928
 3009SOL    HW210628   0.710   6.851   0.222 -0.8276  0.5502 -0.0817
 3010SOL     OW10629   2.262   1.881   2.909  0.4257  0.6024  0.1307
 3010SOL    HW110630   2.307   1.967   2.888  0.4355  0.3968 -0.7459
 3010SOL    HW210631   2.170   1.898   2.942  0.1007  0.9294 -0.9109
 3011SOL     OW10632   4.381   5.626   6.500 -0.3561  0.0290  0.4515
 3011SOL    HW110633   4.436   5.699   6.540 -0.7545  1.2148 -1.0774
 3011SOL    HW210634   4.286   5.637   6.529  0.0753 -1.9556  3.0047
 3012SOL     OW10635   2.528   6.996   3.389 -0.0956  0.5213  0.9222
 3012SOL    HW110636   2.588   7.073   3.366 -1.7715  1.5632 -0.2353
 3012SOL    HW210637   2.478   7.016   3.472 -0.3365  0.5677  0.7669
 3013SOL     OW10638   4.942   1.571   1.990 -0.1679 -0.8388  0.5011
 3013SOL    HW110639   4.868   1.611   2.044 -1.0820 -1.1552 -0.4787
 3013SOL    HW210640   4.935   1.471   1.992 -0.0912 -0.8604 -0.0142
 3014SOL     OW10641   5.724   4.742   2.466  0.1930 -0.1327  0.0648
 3014SOL    HW110642   5.786   4.765   2.541  1.8537  1.8411 -1.7874
 3014SOL    HW210643   5.763   4.669   2.410  0.7087  0.8212 -0.8603
 3015SOL     OW10644   6.468   0.970   4.016 -0.0681 -0.4700  0.2819
 3015SOL    HW110645   6.566   0.960   4.037  0.2573 -1.4416 -1.5243
 3015SOL    HW210646   6.428   1.037   4.078  1.8123  0.2065  0.8478
 3016SOL     OW10647   0.325   5.208   5.018  0.3329 -0.0983 -0.1012
 3016SOL    HW110648   0.293   5.214   4.923  0.4748 -0.6128 -0.1827
 3016SOL    HW210649   0.296   5.121   5.058  1.1401 -0.3205  0.0060
 3017SOL     OW10650   6.762   3.977   3.254  0.2255  0.4809 -0.2811
 3017SOL    HW110651   6.845   4.023   3.285 -0.1409  1.0371 -0.1012
 3017SOL    HW210652   6.769   3.879   3.272  1.1118  0.4212 -0.8716
 3018SOL     OW10653   5.710   2.350   5.557 -0.2012 -0.3063 -0.4282
 3018SOL    HW110654   5.617   2.375   5.531  0.1086  1.2731 -0.0742
 3018SOL    HW210655   5.743   2.277   5.496 -1.2187 -0.0365 -1.3277
 3019SOL     OW10656   1.358   1.376   0.074  0.2919 -0.5375 -0.5073
 3019SOL    HW110657   1.337   1.331   0.161  1.0393 -1.8664 -0.9887
 3019SOL    HW210658   1.456   1.393   0.068 -0.0179  1.5598 -0.1799
 3020SOL     OW10659   4.922   0.581   3.719 -0.7134 -0.1551 -0.7938
 3020SOL    HW110660   4.928   0.483   3.742 -2.3022  0.0088  0.4985
 3020SOL    HW210661   4.864   0.627   3.787 -1.2130  1.4182 -2.2414
 3021SOL     OW10662   1.258   2.448   4.960  0.9097 -0.3138  0.0802
 3021SOL    HW110663   1.302   2.489   4.880  0.4648  0.4958  0.2384
 3021SOL    HW210664   1.274   2.349   4.960  2.7954 -0.0391  0.1848
 3022SOL     OW10665   2.458   1.805   1.269  0.2029  0.2458  0.1089
 3022SOL    HW110666   2.394   1.730   1.252  1.1227 -0.7566  0.9066
 3022SOL    HW210667   2.430   1.885   1.217  0.8796 -1.5435 -3.3302
 3023SOL     OW10668   6.455   3.487   6.871  0.0525  0.6025 -0.2037
 3023SOL    HW110669   6.536   3.432   6.848 -0.2813  0.0673 -0.1127
 3023SOL    HW210670   6.481   3.584   6.875  0.9706  0.3424  1.0149
 3024SOL     OW10671   6.780   2.483   0.694 -0.0723  0.2452  0.3880
 3024SOL    HW110672   6.705   2.421   0.671  0.1559 -0.0025  0.2937
 3024SOL    HW210673   6.815   2.461   0.785 -0.3837  0.6315  0.6014
 3025SOL     OW10674   4.385   5.213   0.869  0.0241 -0.2269 -0.1524
 3025SOL    HW110675   4.316   5.202   0.798 -1.2644  1.0909  0.8441
 3025SOL    HW210676   4.407   5.123   0.907 -1.9784 -0.5935  0.2523
 3026SOL     OW10677   5.712   2.876   3.296 -0.1563  0.0446 -0.8328
 3026SOL    HW110678   5.646   2.950   3.313 -0.6313 -0.4352 -0.5259
 3026SOL    HW210679   5.684   2.825   3.215 -0.5940 -0.6255 -0.2687
 3027SOL     OW10680   3.972   0.147   4.406 -0.8481 -0.1371  0.1228
 3027SOL    HW110681   3.975   0.048   4.394 -1.2057 -0.1868  0.4271
 3027SOL    HW210682   3.922   0.188   4.330 -3.7872 -0.5232  1.6747
 3028SOL     OW10683   4.888   6.180   3.113  0.4329  0.1041  0.0798
 3028SOL    HW110684   4.982   6.199   3.141  0.4392 -1.8125  1.6065
 3028SOL    HW210685   4.826   6.193   3.191 -0.3648 -0.0654 -0.5073
 3029SOL     OW10686   4.932   6.017   6.084 -0.2911  0.1779 -0.3341
 3029SOL    HW110687   4.839   6.049   6.067 -0.2733  0.9129  0.8872
 3029SOL    HW210688   4.979   6.004   5.996 -1.3644  0.3096 -0.9441
 3030SOL     OW10689   2.580   0.114   4.159  0.1510 -0.1750  0.0087
 3030SOL    HW110690   2.482   0.111   4.175  0.0172 -2.1658 -0.9573
 3030SOL    HW210691   2.599   0.110   4.061  1.1796 -3.5663  0.2098
 3031SOL     OW10692   0.659   1.303   2.448 -0.2251 -0.6177  0.6700
 3031SOL    HW110693   0.755   1.297   2.420 -0.2542 -1.4549  0.7246
 3031SOL    HW210694   0.632   1.217   2.492 -1.0204 -0.4092  0.5938
 3032SOL     OW10695   1.934   1.039   0.742 -0.3441  0.2298  0.0900
 3032SOL    HW110696   1.915   0.941   0.755  0.5264 -0.1195 -1.1364
 3032SOL    HW210697   2.004   1.050   0.672  1.1882  1.6406  1.7340
 3033SOL     OW10698   2.635   1.917   5.707 -0.2350 -0.6436  0.0539
 3033SOL    HW110699   2.721   1.954   5.671 -1.7630 -0.7587 -4.3540
 3033SOL    HW210700   2.580   1.991   5.745  0.8204 -0.1867  0.7391
 3034SOL     OW10701   0.600   2.689   2.250  0.4657  0.0641  0.4006
 3034SOL    HW110702   0.575   2.675   2.154 -0.6364  0.8319  0.5513
 3034SOL    HW210703   0.554   2.620   2.307 -0.9371  1.1315  0.6182
 3035SOL     OW10704   0.829   6.172   3.017  0.4655  0.4718  0.6270
 3035SOL    HW110705   0.901   6.146   3.081 -0.3037 -2.3230  0.5116
 3035SOL    HW210706   0.778   6.090   2.991 -2.7608  2.3048  0.6999
 3036SOL     OW10707   1.267   5.499   1.924 -0.0086  0.4678 -0.1196
 3036SOL    HW110708   1.275   5.542   1.834  0.7438  0.8715  0.1308
 3036SOL    HW210709   1.286   5.401   1.917  4.3384  1.0857  0.1789
 3037SOL     OW10710   1.768   0.922   6.735 -0.3856 -0.0261  0.2230
 3037SOL    HW110711   1.723   0.852   6.680 -1.5571 -0.4150  1.6329
 3037SOL    HW210712   1.728   0.924   6.827  0.2872  1.8355  0.5204
 3038SOL     OW10713   6.538   5.228   5.479 -0.3834  0.9817  0.2269
 3038SOL    HW110714   6.585   5.214   5.566 -3.1645 -1.2966  1.5071
 3038SOL    HW210715   6.498   5.320   5.477 -0.7773  0.8533  1.6128
 3039SOL     OW10716   3.574   1.587   1.752 -0.9687 -0.0450  0.1391
 3039SOL    HW110717   3.585   1.549   1.660 -0.7274  0.1886  0.0710
 3039SOL    HW210718   3.544   1.515   1.814  0.1998 -0.5199  0.1707
 3040SOL     OW10719   6.587   6.146   1.130 -0.5879  0.0308 -0.1951
 3040SOL    HW110720   6.521   6.193   1.189 -0.5265 -0.2075  0.0634
 3040SOL    HW210721   6.615   6.208   1.056 -1.1751  0.1022 -0.3664
 3041SOL     OW10722   5.619   5.007   1.948  0.3147 -0.0634  0.0952
 3041SOL    HW110723   5.542   5.039   2.003  1.2431  1.1816  0.7036
 3041SOL    HW210724   5.614   4.907   1.939 -2.0193  0.0845 -0.9143
 3042SOL     OW10725   2.494   0.082   4.802 -0.0616 -0.3470  0.4673
 3042SOL    HW110726   2.519   0.168   4.756 -0.4804 -1.4438 -2.0012
 3042SOL    HW210727   2.573   0.020   4.801 -0.6212 -1.0757 -0.5621
 3043SOL     OW10728   3.006   5.542   0.806 -0.0434 -0.7547 -0.1554
 3043SOL    HW110729   3.020   5.446   0.780  2.5471 -0.7790  1.0039
 3043SOL    HW210730   2.954   5.546   0.891  2.1818 -1.3871  1.3409
 3044SOL     OW10731   6.027   5.409   4.479 -0.6274  0.1480  0.0425
 3044SOL    HW110732   5.945   5.438   4.430 -1.2959  0.8885  1.5205
 3044SOL    HW210733   6.107   5.454   4.440 -1.1738  0.9143 -0.2209
 3045SOL     OW10734   0.474   1.318   4.306 -0.7674  0.2784  0.9545
 3045SOL    HW110735   0.523   1.365   4.380  0.2434 -0.9296  1.0815
 3045SOL    HW210736   0.534   1.307   4.227 -0.7366 -1.3549  1.1624
 3046SOL     OW10737   2.401   1.024   4.866 -0.2112  0.1975  0.1909
 3046SOL    HW110738   2.415   1.109   4.917  0.9718 -0.8951  1.7952
 3046SOL    HW210739   2.470   0.957   4.893 -0.7918 -1.1262 -1.4140
 3047SOL     OW10740   1.478   6.564   1.822 -0.2770  0.6722  0.2843
 3047SOL    HW110741   1.568   6.578   1.781 -0.3719  0.4732  0.0107
 3047SOL    HW210742   1.485   6.497   1.896 -0.0323  1.3091  0.8590
 3048SOL     OW10743   6.162   4.874   1.847  0.2086  0.2725  0.2351
 3048SOL    HW110744   6.068   4.870   1.883  0.9517 -0.0179  2.2421
 3048SOL    HW210745   6.162   4.839   1.753 -1.5568 -0.5143  0.4778
 3049SOL     OW10746   5.120   2.282   6.401  0.4540  0.2025 -0.2002
 3049SOL    HW110747   5.111   2.222   6.322 -0.6951  1.4939 -1.0997
 3049SOL    HW210748   5.214   2.314   6.408  0.4673  0.4465 -1.3251
 3050SOL     OW10749   5.134   6.258   1.310 -0.1473 -0.0113 -0.6301
 3050SOL    HW110750   5.077   6.195   1.256 -0.0780 -0.9867  0.3899
 3050SOL    HW210751   5.214   6.284   1.256 -0.5182 -0.2677 -1.3227
 3051SOL     OW10752   5.661   1.745   5.340 -0.4027 -0.6173  0.0226
 3051SOL    HW110753   5.664   1.778   5.434 -1.7332 -0.1732 -0.0716
 3051SOL    HW210754   5.691   1.650   5.336 -0.3573 -0.6435  0.8871
 3052SOL     OW10755   1.341   4.311   4.144 -0.1443  0.2894 -0.1307
 3052SOL    HW110756   1.270   4.313   4.214 -0.9946 -2.2891 -0.8280
 3052SOL    HW210757   1.421   4.261   4.178  0.1418  0.5516 -0.3992
 3053SOL     OW10758   3.862   4.246   0.146 -0.4960  0.0031  0.1560
 3053SOL    HW110759   3.889   4.341   0.129  1.4732 -0.1745  1.9727
 3053SOL    HW210760   3.893   4.189   0.070 -0.7415  0.6119 -0.4251
 3054SOL     OW10761   1.211   3.326   6.040 -0.5975  0.4324  0.4986
 3054SOL    HW110762   1.176   3.388   5.969  0.7669  0.2292 -0.3971
 3054SOL    HW210763   1.156   3.243   6.041  0.0741 -0.0952 -1.2302
 3055SOL     OW10764   4.839   1.284   5.617 -0.3154 -0.1355 -0.0707
 3055SOL    HW110765   4.819   1.379   5.594  0.9753  0.0305 -0.6178
 3055SOL    HW210766   4.757   1.241   5.655 -0.6358  1.4932  1.2417
 3056SOL     OW10767   3.698   6.276   2.761  0.1862 -0.0747 -0.1991
 3056SOL    HW110768   3.765   6.278   2.687  0.9417  0.1349  0.4887
 3056SOL    HW210769   3.650   6.364   2.765  1.3637  0.5567  0.6591
 3057SOL     OW10770   3.988   0.361   0.532 -0.4746  0.0524 -0.1533
 3057SOL    HW110771   3.994   0.455   0.565  2.0374  0.5104 -1.6897
 3057SOL    HW210772   3.938   0.358   0.446  0.2788  0.1387 -0.5978
 3058SOL     OW10773   2.862   4.066   6.012  0.3769  0.0940  0.0798
 3058SOL    HW110774   2.880   3.974   6.049  1.1366 -1.8044 -4.3862
 3058SOL    HW210775   2.765   4.074   5.990  0.3714  0.2870  0.1714
 3059SOL     OW10776   1.992   0.476   3.267  0.1853  0.1822  0.0762
 3059SOL    HW110777   2.041   0.401   3.311 -0.3401  0.8092  1.8070
 3059SOL    HW210778   2.039   0.501   3.182  1.8044 -0.4599  0.7397
 3060SOL     OW10779   0.508   1.335   1.091 -0.0277  0.1398  0.0179
 3060SOL    HW110780   0.428   1.310   1.145 -1.0312  1.8627 -0.5751
 3060SOL    HW210781   0.480   1.397   1.017  1.3680 -1.6376 -2.1401
 3061SOL     OW10782   2.940   0.863   5.203 -0.4281  0.0346  0.0506
 3061SOL    HW110783   3.012   0.795   5.194 -0.7128 -0.0587 -2.0885
 3061SOL    HW210784   2.956   0.937   5.138 -1.9431  0.2922 -0.0729
 3062SOL     OW10785   0.550   5.322   0.447 -0.9014 -0.3597  0.1424
 3062SOL    HW110786   0.568   5.264   0.368 -1.1450 -0.1696 -0.0530
 3062SOL    HW210787   0.530   5.264   0.526  0.4772 -0.5807  0.3577
 3063SOL     OW10788   2.400   4.610   2.162  0.7268  0.0400 -0.3628
 3063SOL    HW110789   2.489   4.611   2.208  1.5709 -0.5177 -1.9202
 3063SOL    HW210790   2.413   4.599   2.063 -1.1122 -1.3605 -0.5083
 3064SOL     OW10791   5.946   6.038   1.658  0.7306  0.0386 -0.1108
 3064SOL    HW110792   6.022   6.095   1.688  0.1430  0.5082  0.4926
 3064SOL    HW210793   5.964   5.943   1.684  1.1610  0.1239 -0.0817
 3065SOL     OW10794   6.470   4.216   0.556  0.1151 -0.1379 -0.0533
 3065SOL    HW110795   6.553   4.262   0.587  0.0453 -1.3099  2.0762
 3065SOL    HW210796   6.477   4.195   0.459  1.6744  1.0847 -0.2257
 3066SOL     OW10797   5.680   4.497   6.555  0.0969 -0.3294 -0.1413
 3066SOL    HW110798   5.703   4.571   6.619  1.7032  0.9289 -2.0541
 3066SOL    HW210799   5.581   4.484   6.554 -0.1439  1.0747  1.0213
 3067SOL     OW10800   1.493   6.845   1.284 -0.1572 -0.2892 -0.6016
 3067SOL    HW110801   1.538   6.760   1.257  0.1512 -0.2257 -0.2945
 3067SOL    HW210802   1.469   6.840   1.380 -1.3407 -0.5538 -0.8940
 3068SOL     OW10803   2.824   4.701   2.594  0.1974  0.4019 -0.1107
 3068SOL    HW110804   2.912   4.747   2.604  0.2167  0.7213 -1.5465
 3068SOL    HW210805   2.836   4.616   2.542 -0.2897  0.2784 -0.0253
 3069SOL     OW10806   1.839   6.524   0.589 -0.2751 -0.2478 -0.1776
 3069SOL    HW110807   1.919   6.573   0.556  0.3863 -0.4340  1.1143
 3069SOL    HW210808   1.834   6.529   0.688 -2.2028  0.2548 -0.2613
 3070SOL     OW10809   6.445   1.200   6.697  0.4527 -0.2997 -0.7599
 3070SOL    HW110810   6.408   1.119   6.743  0.8806 -0.8169 -1.3004
 3070SOL    HW210811   6.388   1.221   6.617 -0.5819  0.8933  0.2491
 3071SOL     OW10812   6.947   4.177   3.262  0.4995 -0.5859 -0.1304
 3071SOL    HW110813   6.979   4.257   3.211 -1.6628  0.3047 -0.2136
 3071SOL    HW210814   6.964   4.190   3.359  2.3218 -1.1360 -0.3490
 3072SOL     OW10815   3.926   6.669   2.724  0.2476  0.2718  0.4110
 3072SOL    HW110816   4.005   6.614   2.753  0.1051 -0.0180  0.2522
 3072SOL    HW210817   3.851   6.608   2.697  0.4955  0.5215 -0.8970
 3073SOL     OW10818   4.947   5.221   3.580  0.3888  0.1526 -0.3449
 3073SOL    HW110819   4.966   5.300   3.638  0.8399 -0.6351  0.6018
 3073SOL    HW210820   5.015   5.217   3.507  1.0370  0.0368  0.2473
 3074SOL     OW10821   3.657   6.070   6.873  0.7639 -0.3507 -0.3704
 3074SOL    HW110822   3.575   6.064   6.816  0.3752 -0.5134  0.2003
 3074SOL    HW210823   3.631   6.084   6.969  1.3980 -0.5319 -0.1652
 3075SOL     OW10824   5.310   3.741   5.166  0.2415 -0.1724  0.3045
 3075SOL    HW110825   5.392   3.796   5.154  0.0528 -0.0246 -0.3078
 3075SOL    HW210826   5.326   3.648   5.133 -0.5903  0.4928 -2.2052
 3076SOL     OW10827   3.219   4.804   6.342 -0.1038 -0.6551  0.2781
 3076SOL    HW110828   3.232   4.706   6.330  0.5060 -0.7521  1.5689
 3076SOL    HW210829   3.122   4.825   6.344 -0.2674 -1.4362  1.3924
 3077SOL     OW10830   3.467   1.896   4.940  0.1278 -1.0340 -0.2117
 3077SOL    HW110831   3.373   1.930   4.939  0.9376  1.5166 -1.8297
 3077SOL    HW210832   3.479   1.828   4.868 -0.1699 -0.2952 -0.9770
 3078SOL     OW10833   3.567   3.016   0.274  0.4745  0.0280 -0.5200
 3078SOL    HW110834   3.497   2.962   0.228  0.3398 -0.9046  0.7372
 3078SOL    HW210835   3.526   3.100   0.310 -0.3371 -1.0378  1.2178
 3079SOL     OW10836   0.437   6.697   6.967  0.5728  0.2974  0.0031
 3079SOL    HW110837   0.534   6.692   6.944  0.1930  0.7244 -1.8375
 3079SOL    HW210838   0.382   6.658   6.893 -0.8445  3.8514 -1.0789
 3080SOL     OW10839   1.330   3.175   5.532 -0.0167  0.2520 -0.6619
 3080SOL    HW110840   1.262   3.146   5.599  1.1941 -0.6114  0.2242
 3080SOL    HW210841   1.338   3.275   5.535 -0.5168  0.2812 -0.0785
 3081SOL     OW10842   5.726   6.914   4.636  0.2761 -0.0158  0.5482
 3081SOL    HW110843   5.681   6.976   4.700  0.1278 -0.6023  1.0208
 3081SOL    HW210844   5.823   6.909   4.658  0.4837  0.8297 -0.1305
 3082SOL     OW10845   6.648   5.285   1.964  0.5606  0.3691  0.6217
 3082SOL    HW110846   6.695   5.264   2.050  2.6387  0.7271 -0.3680
 3082SOL    HW210847   6.570   5.224   1.953  0.9209 -0.4300  2.2197
 3083SOL     OW10848   4.077   1.788   6.422  0.4505  0.4936 -0.1813
 3083SOL    HW110849   4.041   1.880   6.438 -0.8430  0.0605 -0.4579
 3083SOL    HW210850   4.162   1.794   6.369 -1.4929  1.4192 -3.4747
 3084SOL     OW10851   3.227   0.751   5.334 -0.2950  0.5278 -0.2210
 3084SOL    HW110852   3.324   0.730   5.342 -0.0913  1.2215 -0.7093
 3084SOL    HW210853   3.194   0.793   5.418 -0.1290  0.4375 -0.1120
 3085SOL     OW10854   5.225   4.275   2.499  0.1352 -0.4164 -0.1853
 3085SOL    HW110855   5.245   4.263   2.402 -0.1043  0.8643 -0.4126
 3085SOL    HW210856   5.290   4.339   2.539  0.5320 -1.3068  0.6238
 3086SOL     OW10857   1.007   4.801   6.575  0.1653  0.1476 -0.6462
 3086SOL    HW110858   0.956   4.875   6.618  1.0430 -0.2926  1.2511
 3086SOL    HW210859   1.043   4.832   6.487 -0.0165  1.7502 -0.1799
 3087SOL     OW10860   0.608   0.914   0.113 -0.3744  0.4997 -0.1962
 3087SOL    HW110861   0.700   0.952   0.106  0.0086 -0.1232  1.1522
 3087SOL    HW210862   0.595   0.875   0.204 -2.2092  1.1429 -0.1488
 3088SOL     OW10863   4.205   1.912   0.291  0.1833 -0.5460  0.1545
 3088SOL    HW110864   4.211   1.896   0.193 -1.3774  0.2300 -0.1026
 3088SOL    HW210865   4.194   2.010   0.308 -3.4051 -0.8917  0.7812
 3089SOL     OW10866   5.528   1.523   3.893  0.0330 -0.3819 -0.1020
 3089SOL    HW110867   5.514   1.597   3.826  1.9450 -0.7026 -0.9208
 3089SOL    HW210868   5.441   1.503   3.939 -1.0530  0.7411 -1.5585
 3090SOL     OW10869   3.535   0.475   1.009 -0.6856 -0.6737 -0.4252
 3090SOL    HW110870   3.518   0.520   0.921  0.1020 -0.9897 -0.7410
 3090SOL    HW210871   3.570   0.383   0.994  4.4056  0.8879  0.0413
 3091SOL     OW10872   1.082   2.261   4.295 -0.2533  0.8642  0.8034
 3091SOL    HW110873   1.137   2.196   4.242 -1.8051 -0.8265  1.2040
 3091SOL    HW210874   1.068   2.344   4.241 -0.7051 -0.2958 -0.9382
 3092SOL     OW10875   1.570   0.788   5.849 -0.2667  0.5030  0.3212
 3092SOL    HW110876   1.508   0.748   5.782 -0.6463 -0.3752  1.1791
 3092SOL    HW210877   1.553   0.886   5.855 -0.8865  0.4352 -0.1732
 3093SOL     OW10878   5.874   2.492   6.268 -0.3998  0.1885  0.4522
 3093SOL    HW110879   5.959   2.439   6.268 -0.2879  0.3695  0.8302
 3093SOL    HW210880   5.802   2.438   6.225  0.4199  0.8709 -2.0009
 3094SOL     OW10881   4.431   2.043   6.852  0.3224  0.1659 -0.1255
 3094SOL    HW110882   4.412   2.106   6.776  2.1077  0.7664 -0.1339
 3094SOL    HW210883   4.451   1.952   6.816  0.4127  0.2626 -0.3223
 3095SOL     OW10884   4.453   6.951   3.719  0.1138 -0.4590 -0.2290
 3095SOL    HW110885   4.539   7.002   3.717 -0.2679  0.1763 -0.9888
 3095SOL    HW210886   4.379   7.009   3.683 -0.5102 -1.2193 -0.1950
 3096SOL     OW10887   6.207   2.127   2.197 -0.5898 -0.1129 -0.3649
 3096SOL    HW110888   6.207   2.174   2.285 -2.4645  0.6683 -0.7431
 3096SOL    HW210889   6.297   2.137   2.154 -0.3594  1.5085  0.4155
 3097SOL     OW10890   1.995   1.235   0.032 -0.2289  0.1153  0.3098
 3097SOL    HW110891   1.924   1.241  -0.037  0.5082  0.5267 -0.4247
 3097SOL    HW210892   2.084   1.228  -0.012  0.2200 -0.0645  1.2191
 3098SOL     OW10893   3.563   4.860   2.518 -0.3897 -0.6010  0.2458
 3098SOL    HW110894   3.563   4.788   2.450 -0.3139 -0.2388 -0.1414
 3098SOL    HW210895   3.474   4.862   2.565  0.3938 -2.4820  1.9287
 3099SOL     OW10896   5.994   2.801   2.649  0.1926 -0.1691  0.0866
 3099SOL    HW110897   6.025   2.760   2.734 -0.2247 -0.1398  0.2560
 3099SOL    HW210898   5.909   2.851   2.665 -0.9516 -1.7856 -0.7351
 3100SOL     OW10899   5.952   2.725   6.017 -0.2646 -0.0147 -0.4937
 3100SOL    HW110900   5.899   2.802   6.053 -0.0469 -0.1028  0.0241
 3100SOL    HW210901   5.897   2.642   6.018  0.3690 -0.4530  1.5513
 3101SOL     OW10902   0.969   2.024   2.179  0.4216 -0.0252 -0.0020
 3101SOL    HW110903   0.986   2.036   2.277 -0.9290 -0.1482  0.2629
 3101SOL    HW210904   0.904   1.950   2.165 -0.2436  0.7134 -0.9293
 3102SOL     OW10905   5.454   4.936   0.506 -0.7597 -0.2990  0.3198
 3102SOL    HW110906   5.454   4.987   0.592 -0.2493 -0.3705  0.3648
 3102SOL    HW210907   5.391   4.980   0.441 -0.5812  0.1896  0.4726
 3103SOL     OW10908   4.692   3.685   5.291 -0.3226  0.3026  0.4796
 3103SOL    HW110909   4.791   3.695   5.288 -0.3776  0.7058 -1.5298
 3103SOL    HW210910   4.651   3.770   5.325 -0.0177  0.5717  0.1874
 3104SOL     OW10911   4.119   4.752   6.067 -0.4763  0.0353  0.4475
 3104SOL    HW110912   4.077   4.663   6.045 -1.3157  0.9366 -1.9463
 3104SOL    HW210913   4.181   4.778   5.994 -0.8049  1.7600  0.7493
 3105SOL     OW10914   1.989   0.582   5.305  0.0904 -0.2850 -0.2755
 3105SOL    HW110915   1.984   0.559   5.208 -1.0682  0.0558 -0.3135
 3105SOL    HW210916   1.906   0.632   5.332  1.5711  2.0948  0.2470
 3106SOL     OW10917   6.699   2.468   4.313  0.5490  0.2747 -0.2310
 3106SOL    HW110918   6.631   2.453   4.384  0.2871 -1.5391 -0.8024
 3106SOL    HW210919   6.653   2.475   4.224  1.0619 -1.0918 -0.6397
 3107SOL     OW10920   0.813   0.716   1.284 -0.5245  0.5749 -0.2196
 3107SOL    HW110921   0.858   0.632   1.316 -1.9046 -0.9183 -1.9407
 3107SOL    HW210922   0.881   0.787   1.269  0.7598 -0.3862  0.8220
 3108SOL     OW10923   4.575   2.475   0.064  0.0286  0.1699 -0.4655
 3108SOL    HW110924   4.634   2.462  -0.016  1.0756 -0.8811  0.4375
 3108SOL    HW210925   4.542   2.569   0.065  0.3781  0.3422 -1.8693
 3109SOL     OW10926   6.097   6.383   6.614 -0.0496 -0.2623 -0.5171
 3109SOL    HW110927   6.096   6.347   6.707 -0.3717 -1.1911 -0.8695
 3109SOL    HW210928   6.189   6.375   6.576 -0.3372 -1.7878 -0.9782
 3110SOL     OW10929   6.080   6.977   6.351 -0.3853  0.1375 -0.0309
 3110SOL    HW110930   6.154   7.039   6.323 -0.6886  1.1026  1.2026
 3110SOL    HW210931   6.119   6.902   6.403 -0.1597  0.0256 -0.3540
 3111SOL     OW10932   3.301   0.361   5.235  0.1526  0.3607  0.2610
 3111SOL    HW110933   3.216   0.389   5.189  0.1285  0.2756  0.2539
 3111SOL    HW210934   3.322   0.266   5.212  1.3147  0.9532 -1.3353
 3112SOL     OW10935   1.044   5.750   5.455  0.8757 -0.0238  0.0287
 3112SOL    HW110936   0.953   5.711   5.439  1.3529 -0.9340 -0.5334
 3112SOL    HW210937   1.090   5.697   5.527  1.8479 -1.0484 -1.3145
 3113SOL     OW10938   3.780   2.804   5.402 -0.2731 -0.2422 -0.7782
 3113SOL    HW110939   3.689   2.795   5.361 -1.4498  0.8380  1.4405
 3113SOL    HW210940   3.778   2.769   5.495  1.2835  0.8996 -0.2752
 3114SOL     OW10941   0.012   1.744   4.169  0.3626 -0.3871  0.2081
 3114SOL    HW110942  -0.002   1.769   4.074  2.5280  1.0446  0.1905
 3114SOL    HW210943   0.054   1.653   4.174  2.3307  0.4269 -0.4123
 3115SOL     OW10944   6.350   5.909   5.034 -0.1534 -0.2491 -0.5765
 3115SOL    HW110945   6.277   5.882   4.971  0.0227  3.0247 -2.4371
 3115SOL    HW210946   6.436   5.920   4.983  0.0889  2.1276  0.2168
 3116SOL     OW10947   4.983   4.368   4.930 -0.6455  0.3698  0.4526
 3116SOL    HW110948   4.903   4.338   4.981 -0.8369 -1.3821 -0.8079
 3116SOL    HW210949   4.965   4.362   4.831  0.6935  0.8957  0.1463
 3117SOL     OW10950   2.515   6.645   2.229  0.2749 -0.3066 -0.3729
 3117SOL    HW110951   2.507   6.591   2.313 -0.9886  1.2740  0.5740
 3117SOL    HW210952   2.424   6.654   2.187  0.6575  0.1533 -1.1223
 3118SOL     OW10953   4.154   4.921   4.969  0.3254 -0.3280  0.6479
 3118SOL    HW110954   4.226   4.943   4.903  0.4979 -0.8181  0.6673
 3118SOL    HW210955   4.067   4.909   4.920  0.7719 -2.3817  0.2581
 3119SOL     OW10956   1.535   4.388   1.387  0.1921  0.0284  0.3429
 3119SOL    HW110957   1.494   4.452   1.322 -2.9899 -0.6462  1.4735
 3119SOL    HW210958   1.557   4.303   1.340  0.5249  0.4850 -0.3480
 3120SOL     OW10959   4.199   5.566   2.372 -0.0735 -0.2715  0.8549
 3120SOL    HW110960   4.129   5.622   2.417 -1.1445  0.7749 -1.9083
 3120SOL    HW210961   4.163   5.474   2.355 -1.3015  0.5648 -1.4938
 3121SOL     OW10962   6.176   0.679   2.992  0.3232  0.2443  0.6430
 3121SOL    HW110963   6.081   0.705   2.976  0.2096  1.1143  2.4318
 3121SOL    HW210964   6.237   0.740   2.940 -0.0769  0.4891  0.4556
 3122SOL     OW10965   3.320   0.056   4.563  0.0918 -0.0214  0.0348
 3122SOL    HW110966   3.241   0.116   4.574 -1.6980 -2.2968  0.4837
 3122SOL    HW210967   3.376   0.060   4.646 -1.4900 -0.9157  1.2103
 3123SOL     OW10968   5.359   0.943   1.509 -0.5311  0.2366  0.2453
 3123SOL    HW110969   5.265   0.919   1.534 -0.7227  0.2202 -0.4725
 3123SOL    HW210970   5.359   0.988   1.420  0.3653 -1.9646 -0.9456
 3124SOL     OW10971   2.322   0.707   2.979  0.2217  0.4239  0.5010
 3124SOL    HW110972   2.233   0.669   2.952 -1.1062  3.5831 -0.0796
 3124SOL    HW210973   2.324   0.719   3.078  0.0626  0.1835  0.5345
 3125SOL     OW10974   3.153   3.437   2.087  0.1364  0.2142  0.0285
 3125SOL    HW110975   3.183   3.519   2.136 -1.5413  0.8012  0.1723
 3125SOL    HW210976   3.053   3.431   2.093  0.2495 -2.1286  0.4529
 3126SOL     OW10977   1.585   0.187   0.556  0.4541 -0.1685  0.1131
 3126SOL    HW110978   1.525   0.216   0.482  0.8731  0.0360 -0.1492
 3126SOL    HW210979   1.530   0.152   0.632  0.0167 -0.2249 -0.2269
 3127SOL     OW10980   5.837   4.116   2.641  0.3865 -0.6233 -0.4921
 3127SOL    HW110981   5.809   4.104   2.736  0.3695 -0.9350 -0.5351
 3127SOL    HW210982   5.901   4.044   2.616 -0.5145 -1.2547 -1.0650
 3128SOL     OW10983   5.689   5.853   4.442 -0.1210 -0.0592  0.0601
 3128SOL    HW110984   5.646   5.808   4.521  0.6664 -0.2491  0.3910
 3128SOL    HW210985   5.765   5.798   4.409 -0.4350  0.0291 -0.8357
 3129SOL     OW10986   0.245   0.830   2.254  0.2729 -0.2130 -0.3292
 3129SOL    HW110987   0.341   0.807   2.240  0.4559 -1.1286  2.1068
 3129SOL    HW210988   0.237   0.900   2.325 -0.8920 -0.7245  0.0751
 3130SOL     OW10989   3.554   2.832   1.289  0.5783  0.4488 -0.1774
 3130SOL    HW110990   3.487   2.823   1.363  0.9464 -0.9829  0.0110
 3130SOL    HW210991   3.577   2.741   1.254  1.7792  0.9821 -0.8160
 3131SOL     OW10992   6.291   2.472   4.982  0.1929 -0.1622 -0.4984
 3131SOL    HW110993   6.390   2.459   4.990  0.0885 -0.6092  0.1645
 3131SOL    HW210994   6.267   2.483   4.886  0.9792  0.7674 -0.6060
 3132SOL     OW10995   5.455   0.196   4.076 -0.4025  1.1112  0.1893
 3132SOL    HW110996   5.385   0.225   4.142 -1.2864  0.0234 -0.2314
 3132SOL    HW210997   5.413   0.135   4.009  1.2435 -0.7303  0.7588
 3133SOL     OW10998   2.094   0.536   0.439  0.1469 -0.0256  0.1516
 3133SOL    HW110999   2.033   0.601   0.484  0.0136 -0.1206  0.1106
 3133SOL    HW211000   2.096   0.555   0.340 -1.0984 -1.0307 -0.0986
 3134SOL     OW11001   5.349   6.584   4.538  0.0829 -0.1696 -0.1356
 3134SOL    HW111002   5.413   6.541   4.601  1.1436 -0.2992 -1.2708
 3134SOL    HW211003   5.342   6.529   4.455 -0.2573  0.6857 -0.6846
 3135SOL     OW11004   1.251   5.678   2.359  0.0216  0.6886 -0.4406
 3135SOL    HW111005   1.259   5.596   2.415  0.2014 -0.0249 -1.4865
 3135SOL    HW211006   1.156   5.691   2.331 -0.3019  1.7596  1.0513
 3136SOL     OW11007   2.642   0.053   6.750 -0.1037 -0.0469 -0.3983
 3136SOL    HW111008   2.691   0.140   6.750  1.1050 -0.6931  0.8088
 3136SOL    HW211009   2.551   0.066   6.790  1.2035  0.1207  2.7894
 3137SOL     OW11010   6.006   2.742   5.551  0.5698 -0.3641 -0.6412
 3137SOL    HW111011   5.984   2.644   5.560  1.8072 -0.6059 -0.1000
 3137SOL    HW211012   5.961   2.778   5.470 -1.7131 -0.8429  0.3306
 3138SOL     OW11013   3.239   0.881   3.374 -1.0423  0.4905 -0.7703
 3138SOL    HW111014   3.274   0.961   3.326  0.5057 -0.5466 -1.4666
 3138SOL    HW211015   3.288   0.869   3.460 -0.8605 -0.0003 -0.9336
 3139SOL     OW11016   2.862   5.168   4.101  0.4621 -0.9746 -0.0727
 3139SOL    HW111017   2.801   5.167   4.022  0.6291  0.0004 -0.2316
 3139SOL    HW211018   2.957   5.164   4.069  0.5731  0.4320 -0.0134
 3140SOL     OW11019   1.814   5.428   6.870 -0.5431  0.4721 -0.6605
 3140SOL    HW111020   1.836   5.519   6.835  1.0290  0.6177  0.5891
 3140SOL    HW211021   1.736   5.434   6.932  1.9499  1.7956  2.6422
 3141SOL     OW11022   5.418   0.407   5.799 -0.1405  0.1356  0.0498
 3141SOL    HW111023   5.417   0.474   5.724 -2.0978 -0.3335 -0.4038
 3141SOL    HW211024   5.496   0.346   5.788  0.0498  0.5660 -1.1687
 3142SOL     OW11025   6.311   2.337   2.885  0.5098  0.3807 -0.1832
 3142SOL    HW111026   6.393   2.288   2.913  0.6992 -0.2574 -1.7538
 3142SOL    HW211027   6.254   2.357   2.965  0.0252 -3.1258  0.4928
 3143SOL     OW11028   2.472   5.048   5.042  0.2488 -0.1096 -0.6330
 3143SOL    HW111029   2.518   5.016   4.959 -1.4851 -0.5136 -1.4874
 3143SOL    HW211030   2.526   5.121   5.084  2.0666 -1.1109 -1.0980
 3144SOL     OW11031   1.292   2.700   2.032 -0.4899 -0.0521  0.2656
 3144SOL    HW111032   1.197   2.729   2.041 -0.2452  0.5646  1.0043
 3144SOL    HW211033   1.305   2.612   2.077 -1.1855 -1.2498 -1.7688
 3145SOL     OW11034   2.754   0.089   1.279 -0.1364 -0.0289  0.4226
 3145SOL    HW111035   2.668   0.044   1.259 -1.2294 -0.3762  4.7716
 3145SOL    HW211036   2.745   0.188   1.265 -1.5944  0.0312  1.5581
 3146SOL     OW11037   3.446   1.680   4.781  0.9370 -0.0004  0.4313
 3146SOL    HW111038   3.436   1.637   4.691 -0.8215 -0.3533  0.7578
 3146SOL    HW211039   3.466   1.610   4.849  2.1654  0.2544  0.3522
 3147SOL     OW11040   0.760   0.983   0.559  0.1663 -0.4344  0.2732
 3147SOL    HW111041   0.829   1.039   0.604 -0.8225 -0.5738  2.0732
 3147SOL    HW211042   0.669   1.013   0.587 -0.4454 -1.6187 -0.3463
 3148SOL     OW11043   1.581   0.871   4.864  0.6796  0.4679  0.6149
 3148SOL    HW111044   1.673   0.904   4.884  0.4592  0.0874  2.5039
 3148SOL    HW211045   1.516   0.947   4.869  0.7296  0.5125  0.5770
 3149SOL     OW11046   0.509   6.228   5.233  0.3010  0.0043  0.3012
 3149SOL    HW111047   0.422   6.194   5.270  0.8084 -2.1775 -0.3740
 3149SOL    HW211048   0.490   6.285   5.153 -0.5500  0.6044  0.9072
 3150SOL     OW11049   1.368   1.449   5.197 -0.2553 -0.2041  0.5945
 3150SOL    HW111050   1.320   1.365   5.172 -0.1826 -0.2270  0.5309
 3150SOL    HW211051   1.433   1.430   5.271 -1.7996  0.2360  2.1266
 3151SOL     OW11052   5.491   5.747   5.124  0.2457  0.0408 -0.3088
 3151SOL    HW111053   5.523   5.671   5.068  0.3188  0.3366 -0.6717
 3151SOL    HW211054   5.551   5.759   5.203  1.3953  0.9687 -1.2925
 3152SOL     OW11055   0.002   0.679   2.513  0.2536  0.3612 -0.0875
 3152SOL    HW111056   0.089   0.630   2.502  0.2139  0.5915 -1.6841
 3152SOL    HW211057  -0.069   0.632   2.461  0.1023  1.8148 -1.2398
 3153SOL     OW11058   2.174   0.693   5.462  0.3026 -0.4193  0.2421
 3153SOL    HW111059   2.169   0.634   5.542  1.2815 -0.7637  0.0691
 3153SOL    HW211060   2.102   0.668   5.397 -0.3534 -0.2864  0.9019
 3154SOL     OW11061   3.262   1.373   5.802  0.1938 -0.7978  0.2442
 3154SOL    HW111062   3.330   1.303   5.781  0.5561 -0.1443 -0.8484
 3154SOL    HW211063   3.308   1.460   5.819 -0.2839 -0.6939  1.0749
 3155SOL     OW11064   2.870   1.057   0.140  0.5314 -0.0691 -0.8934
 3155SOL    HW111065   2.948   1.078   0.081  0.5105  1.3807 -0.4422
 3155SOL    HW211066   2.799   1.127   0.128  1.2372  1.3099  2.0563
 3156SOL     OW11067   6.792   6.207   1.674 -0.6211  0.6824 -0.1063
 3156SOL    HW111068   6.773   6.140   1.746 -0.3907  1.9350  1.1602
 3156SOL    HW211069   6.725   6.196   1.600 -0.5898 -0.9154  0.0559
 3157SOL     OW11070   0.668   0.655   1.043 -0.5575  0.4135 -0.3828
 3157SOL    HW111071   0.732   0.699   0.980  0.6406  0.9435  1.1511
 3157SOL    HW211072   0.683   0.689   1.135 -1.9969 -0.6449  0.2826
 3158SOL     OW11073   2.807   5.778   2.458 -0.1776  0.0360  0.3248
 3158SOL    HW111074   2.822   5.732   2.371 -2.5895 -0.4182  0.0944
 3158SOL    HW211075   2.809   5.711   2.532  0.9918  0.2984  0.5579
 3159SOL     OW11076   2.696   1.552   6.013  0.3414  0.5324  0.2220
 3159SOL    HW111077   2.774   1.604   5.978  1.2246 -1.7933 -1.5245
 3159SOL    HW211078   2.719   1.455   6.014 -1.9399 -0.0418  1.3841
 3160SOL     OW11079   0.140   5.660   6.355 -0.3817  0.4389  0.3088
 3160SOL    HW111080   0.173   5.565   6.363 -0.9909  0.2345  0.4532
 3160SOL    HW211081   0.149   5.705   6.444  0.8463  0.8439  0.0086
 3161SOL     OW11082   3.481   3.339   3.488  0.2101  0.0529  0.7507
 3161SOL    HW111083   3.411   3.269   3.474 -0.4556  0.3164  2.5711
 3161SOL    HW211084   3.446   3.411   3.547  1.2851  1.3629 -0.1384
 3162SOL     OW11085   3.637   1.514   6.817 -0.1804  0.2113 -0.1925
 3162SOL    HW111086   3.733   1.526   6.845  0.0319 -1.1814 -0.2375
 3162SOL    HW211087   3.578   1.535   6.895  0.0954  1.8173 -0.3773
 3163SOL     OW11088   1.381   3.386   1.868  0.6150  0.4009 -0.3140
 3163SOL    HW111089   1.281   3.387   1.870  0.5764 -0.3909 -1.1222
 3163SOL    HW211090   1.414   3.292   1.870  1.3717  0.6736  0.6143
 3164SOL     OW11091   4.830   3.504   4.182  0.0380 -0.3785  0.2648
 3164SOL    HW111092   4.838   3.407   4.206  0.3436 -0.1155  1.2830
 3164SOL    HW211093   4.921   3.547   4.185 -0.0605 -0.1050 -0.4220
 3165SOL     OW11094   2.372   1.805   2.496  0.3153 -0.2523  0.2876
 3165SOL    HW111095   2.409   1.789   2.404 -0.4522 -1.7868  0.2167
 3165SOL    HW211096   2.274   1.789   2.496  0.2203  0.2652  1.2668
 3166SOL     OW11097   5.491   1.907   4.863 -0.1970 -0.0373 -0.3997
 3166SOL    HW111098   5.485   1.808   4.857  3.5223 -0.3987 -0.5343
 3166SOL    HW211099   5.496   1.935   4.959  4.3441 -0.7156 -0.2216
 3167SOL     OW11100   6.474   4.734   5.751 -0.3102 -0.7047  0.4975
 3167SOL    HW111101   6.528   4.663   5.797  3.2999  1.3601 -0.1529
 3167SOL    HW211102   6.494   4.732   5.653  1.0270  1.9546  0.6284
 3168SOL     OW11103   0.571   3.634   4.995  0.0732 -0.2515 -0.3668
 3168SOL    HW111104   0.582   3.546   4.948  0.1801  0.2205 -1.2488
 3168SOL    HW211105   0.551   3.705   4.928 -0.9195  0.2498  0.4301
 3169SOL     OW11106   2.608   4.260   6.116  0.3731  0.6133  0.4231
 3169SOL    HW111107   2.586   4.183   6.057 -0.1668  0.7699  0.4179
 3169SOL    HW211108   2.694   4.242   6.164  0.4981  0.2214  0.0575
 3170SOL     OW11109   0.642   6.996   6.894  0.0466 -0.1337 -0.0557
 3170SOL    HW111110   0.651   6.923   6.825  0.2907 -0.0709 -0.0920
 3170SOL    HW211111   0.547   7.025   6.899  0.0814  0.1021 -0.6192
 3171SOL     OW11112   5.773   2.477   2.001 -0.6300  0.4354  0.2256
 3171SOL    HW111113   5.755   2.538   1.924 -0.3979  0.6742  0.3583
 3171SOL    HW211114   5.687   2.454   2.046 -0.5436  2.3831  1.4834
 3172SOL     OW11115   6.385   0.915   4.411  0.1882  0.7407 -0.2999
 3172SOL    HW111116   6.444   0.834   4.401 -1.1403 -0.1461 -1.3321
 3172SOL    HW211117   6.412   0.983   4.343 -1.2069 -0.4948 -2.2042
 3173SOL     OW11118   0.280   5.580   0.102 -0.1509  0.2477  0.0588
 3173SOL    HW111119   0.195   5.629   0.079  1.3810  3.3124  0.4770
 3173SOL    HW211120   0.285   5.568   0.201 -0.3047 -0.3647 -0.0063
 3174SOL     OW11121   3.196   6.087   3.294 -0.9437  0.3083  0.9889
 3174SOL    HW111122   3.150   6.120   3.211 -1.9866 -2.7082  0.2488
 3174SOL    HW211123   3.285   6.131   3.302 -0.1458 -0.3384 -2.5973
 3175SOL     OW11124   4.373   0.262   0.748  0.3954  0.7738 -0.3318
 3175SOL    HW111125   4.388   0.309   0.835 -1.5512 -0.2667  0.6300
 3175SOL    HW211126   4.333   0.326   0.682  0.0317  1.0940  0.1876
 3176SOL     OW11127   3.682   3.254   0.150  0.0691 -0.2031 -0.8351
 3176SOL    HW111128   3.593   3.239   0.192 -0.5717 -1.5418 -2.5494
 3176SOL    HW211129   3.736   3.315   0.208 -1.5564 -0.1783  0.7558
 3177SOL     OW11130   5.322   1.435   4.033  0.0185 -0.1533  0.4741
 3177SOL    HW111131   5.237   1.464   3.988  0.4506  1.1075  0.4262
 3177SOL    HW211132   5.306   1.426   4.132 -0.9220 -2.8901  0.1534
 3178SOL     OW11133   4.006   3.120   6.878  0.6110  0.4184 -0.3182
 3178SOL    HW111134   3.970   3.155   6.792  0.1958  1.2813  0.1867
 3178SOL    HW211135   3.930   3.106   6.942  1.0645  1.3273  0.4399
 3179SOL     OW11136   2.830   3.074   0.720 -0.1925 -0.0362  0.3369
 3179SOL    HW111137   2.814   3.164   0.760 -0.7608 -0.4008  0.9540
 3179SOL    HW211138   2.928   3.063   0.701 -0.0381  0.4909  0.7840
 3180SOL     OW11139   6.972   5.871   1.618  0.2543  0.4106  0.5394
 3180SOL    HW111140   6.893   5.839   1.671 -1.9886  1.2754 -2.0309
 3180SOL    HW211141   6.940   5.921   1.537  3.5021  1.6230 -0.1631
 3181SOL     OW11142   3.648   6.379   1.322  0.0259 -0.3176 -0.6446
 3181SOL    HW111143   3.628   6.338   1.411 -0.3215 -0.2040 -0.6708
 3181SOL    HW211144   3.745   6.366   1.300 -0.1503 -1.4290 -0.8120
 3182SOL     OW11145   5.585   4.800   0.817 -0.0525 -0.2575 -0.5262
 3182SOL    HW111146   5.521   4.744   0.766  0.6375 -0.3728 -1.2943
 3182SOL    HW211147   5.671   4.807   0.766  0.0805  1.0136 -0.1694
 3183SOL     OW11148   0.132   6.959   3.794 -0.0916  1.0784  0.0522
 3183SOL    HW111149   0.063   7.031   3.794 -2.4751 -1.0486 -0.3056
 3183SOL    HW211150   0.151   6.931   3.888 -0.0365  1.3692  0.1296
 3184SOL     OW11151   3.415   0.080   4.825 -0.4103  0.0513 -0.0137
 3184SOL    HW111152   3.505   0.039   4.841  0.4924  2.0675  0.4414
 3184SOL    HW211153   3.371   0.098   4.913  0.4322  2.4710  0.0012
 3185SOL     OW11154   6.143   6.502   4.484  0.0163 -0.5202 -0.4673
 3185SOL    HW111155   6.060   6.530   4.533 -0.4365  0.9498 -1.9850
 3185SOL    HW211156   6.138   6.405   4.462 -0.5998 -0.7876  0.7613
 3186SOL     OW11157   2.457   0.021   5.993 -0.9698 -0.6638  0.3160
 3186SOL    HW111158   2.464   0.013   6.092  1.3838  0.4841  0.3260
 3186SOL    HW211159   2.517  -0.047   5.950  1.8104  1.8263 -0.0999
 3187SOL     OW11160   3.806   5.605   2.551  0.1772  0.1604  0.0508
 3187SOL    HW111161   3.852   5.528   2.595  1.6241  1.4973  0.9885
 3187SOL    HW211162   3.798   5.588   2.453  2.8350 -0.1101 -0.1974
 3188SOL     OW11163   0.210   6.802   0.054  0.4220  0.0426 -0.4713
 3188SOL    HW111164   0.283   6.734   0.053  0.7858  0.4311 -0.2668
 3188SOL    HW211165   0.205   6.845   0.143 -0.6639 -0.6204 -0.1846
 3189SOL     OW11166   1.417   0.294   2.829 -0.6226 -0.3238 -0.5483
 3189SOL    HW111167   1.489   0.229   2.855  0.0037  0.5284 -0.0937
 3189SOL    HW211168   1.424   0.375   2.887 -1.3129  0.2036 -1.1956
 3190SOL     OW11169   1.313   2.832   2.322  0.3172  0.2251  0.5728
 3190SOL    HW111170   1.297   2.861   2.228 -1.2620  0.8660  0.9983
 3190SOL    HW211171   1.272   2.742   2.336 -1.6780  1.1606  1.2306
 3191SOL     OW11172   4.804   5.517   5.137 -0.0818  0.5737  0.4049
 3191SOL    HW111173   4.722   5.487   5.089  0.5024 -2.3372  1.0588
 3191SOL    HW211174   4.778   5.569   5.219 -1.1258  2.3906 -0.9822
 3192SOL     OW11175   1.944   3.220   0.312 -0.0811  0.5409  0.5555
 3192SOL    HW111176   1.917   3.124   0.309  0.5144  0.3622 -2.3881
 3192SOL    HW211177   2.031   3.229   0.360 -0.5923 -0.2349  1.6646
 3193SOL     OW11178   6.665   4.641   1.433  0.0278 -0.3231 -0.2241
 3193SOL    HW111179   6.620   4.718   1.478  0.8360 -0.4753  0.8897
 3193SOL    HW211180   6.664   4.562   1.494  1.7095 -0.3525 -0.2127
 3194SOL     OW11181   0.147   6.504   1.473 -0.0142 -0.2393  0.4413
 3194SOL    HW111182   0.127   6.540   1.564 -0.0827 -0.2936  0.4481
 3194SOL    HW211183   0.079   6.434   1.449 -0.1347 -0.0612  0.2546
 3195SOL     OW11184   1.374   3.576   5.789 -0.6342 -0.4021  0.0379
 3195SOL    HW111185   1.314   3.627   5.851 -3.0251  0.2096 -2.6055
 3195SOL    HW211186   1.435   3.639   5.742  0.4312 -0.7440  0.9192
 3196SOL     OW11187   2.260   2.462   1.928  0.1312  0.3375  0.5614
 3196SOL    HW111188   2.298   2.423   2.012  2.2437 -0.0687 -0.5205
 3196SOL    HW211189   2.246   2.390   1.861  0.0998  0.8774 -0.0261
 3197SOL     OW11190   2.149   6.121   4.319 -0.6875 -0.0691  0.1276
 3197SOL    HW111191   2.068   6.064   4.334 -0.0961 -0.7622  0.8205
 3197SOL    HW211192   2.144   6.163   4.229  0.0676 -3.3240 -1.6068
 3198SOL     OW11193   5.765   4.202   1.250 -0.7698  0.4023 -0.4783
 3198SOL    HW111194   5.790   4.217   1.345 -0.1530  3.0732 -0.9987
 3198SOL    HW211195   5.733   4.107   1.239  1.6169 -0.8036  1.8081
 3199SOL     OW11196   4.658   3.721   0.358 -0.1508  0.3592 -0.2902
 3199SOL    HW111197   4.636   3.641   0.302  0.3353  0.2788 -0.3735
 3199SOL    HW211198   4.613   3.802   0.319 -0.8544  0.0908 -0.0592
 3200SOL     OW11199   0.417   6.986   1.082  0.0504  0.2257 -0.6234
 3200SOL    HW111200   0.490   7.031   1.134 -0.9483 -1.0069  2.0251
 3200SOL    HW211201   0.391   7.044   1.004  1.3533  2.3933  0.4545
 3201SOL     OW11202   0.488   0.596   3.418  0.1068 -0.5235  0.5444
 3201SOL    HW111203   0.490   0.695   3.432 -0.7859 -0.5977  1.3000
 3201SOL    HW211204   0.496   0.576   3.321  1.8232  0.2208  0.4877
 3202SOL     OW11205   1.838   5.279   5.693  0.5032 -0.2097  0.5670
 3202SOL    HW111206   1.822   5.376   5.710  2.1763  0.2178 -0.0181
 3202SOL    HW211207   1.875   5.237   5.775 -1.1865 -0.6181  1.1452
 3203SOL     OW11208   1.211   3.838   3.374 -0.0904 -0.6731  0.2469
 3203SOL    HW111209   1.237   3.765   3.438  1.5410 -1.2266 -0.9654
 3203SOL    HW211210   1.255   3.923   3.401  0.6531 -0.9223 -0.1290
 3204SOL     OW11211   3.643   6.380   4.436 -0.0118  0.3080  0.9135
 3204SOL    HW111212   3.740   6.397   4.450 -0.0497  0.5210  0.9339
 3204SOL    HW211213   3.590   6.454   4.479 -0.2187 -0.3577  1.8346
 3205SOL     OW11214   1.760   5.949   3.216  0.0859  0.0360  0.5117
 3205SOL    HW111215   1.718   5.859   3.226  1.7291 -0.7042  1.2140
 3205SOL    HW211216   1.734   5.990   3.129  0.1837 -1.5943 -0.3006
 3206SOL     OW11217   6.357   4.736   3.503  0.1873  0.0668 -0.0947
 3206SOL    HW111218   6.381   4.647   3.466  1.7449  1.0641 -1.6560
 3206SOL    HW211219   6.436   4.776   3.550  0.0760  1.3137 -0.9054
 3207SOL     OW11220   5.877   6.496   6.985  0.2021 -0.2902  0.4923
 3207SOL    HW111221   5.887   6.400   6.962 -0.3143 -0.0239 -0.9241
 3207SOL    HW211222   5.877   6.551   6.902 -1.4898  0.7498  1.1215
 3208SOL     OW11223   0.786   6.896   6.011  0.4018  0.2797 -0.6590
 3208SOL    HW111224   0.771   6.947   6.095 -1.2168  1.4705 -1.6259
 3208SOL    HW211225   0.862   6.832   6.024 -1.2254 -1.2293  2.4408
 3209SOL     OW11226   5.474   3.596   6.883  0.1201  0.0861 -0.0604
 3209SOL    HW111227   5.471   3.672   6.948  1.4833  0.3584 -0.2805
 3209SOL    HW211228   5.453   3.631   6.791 -0.4708 -0.0398  0.0265
 3210SOL     OW11229   6.129   0.360   6.146 -0.0347  0.2066  0.2736
 3210SOL    HW111230   6.033   0.360   6.119 -0.3117 -1.4096  1.1339
 3210SOL    HW211231   6.186   0.389   6.069 -1.2222  1.7863 -0.0666
 3211SOL     OW11232   5.893   2.693   6.472  0.4048 -0.2185 -0.2891
 3211SOL    HW111233   5.852   2.778   6.439  3.0031  1.0093 -0.6552
 3211SOL    HW211234   5.898   2.627   6.398 -0.1371 -0.0909 -0.4432
 3212SOL     OW11235   0.766   1.683   3.185  0.6021 -0.2605 -0.1729
 3212SOL    HW111236   0.742   1.765   3.134 -2.8896 -1.1034 -0.1205
 3212SOL    HW211237   0.722   1.603   3.143  0.8280 -1.5495  1.8892
 3213SOL     OW11238   3.621   6.664   1.568  0.2535  0.4672 -0.0156
 3213SOL    HW111239   3.706   6.692   1.523  0.1611 -0.2643 -0.6610
 3213SOL    HW211240   3.549   6.652   1.500  0.3273 -1.4491  0.1951
 3214SOL     OW11241   1.096   2.199   2.016 -0.1105  0.0406  0.1000
 3214SOL    HW111242   1.058   2.202   1.923  1.0228 -1.0613 -0.4349
 3214SOL    HW211243   1.064   2.116   2.062 -1.3364  0.9876  1.0365
 3215SOL     OW11244   2.376   2.567   1.361 -0.0384  0.5844  0.0414
 3215SOL    HW111245   2.446   2.512   1.316 -0.3392  1.2831 -1.3140
 3215SOL    HW211246   2.357   2.649   1.306 -1.6062  0.6337  0.6151
 3216SOL     OW11247   5.087   0.389   4.864  0.0513  0.0911  0.5627
 3216SOL    HW111248   4.998   0.405   4.823  0.1712 -0.1878  0.1825
 3216SOL    HW211249   5.082   0.312   4.927  0.6122 -1.8566 -1.5974
 3217SOL     OW11250   0.566   1.581   0.903 -0.5510 -0.2735 -0.1519
 3217SOL    HW111251   0.494   1.551   0.840 -1.1479  0.3395  0.2220
 3217SOL    HW211252   0.651   1.593   0.852 -0.8645 -0.4113 -0.7208
 3218SOL     OW11253   0.200   2.494   2.925  0.3746  0.1137 -0.2765
 3218SOL    HW111254   0.232   2.472   2.833  0.3030 -0.0713 -0.2578
 3218SOL    HW211255   0.172   2.410   2.972 -0.4418  0.3039 -0.4099
 3219SOL     OW11256   0.600   3.118   6.454  0.4697  0.0294  0.2826
 3219SOL    HW111257   0.543   3.060   6.512  1.4345 -1.2954 -0.0625
 3219SOL    HW211258   0.578   3.099   6.358  0.0712  0.9936  0.1729
 3220SOL     OW11259   6.969   1.163   1.273  0.1360  0.2277 -0.0499
 3220SOL    HW111260   6.918   1.231   1.221  0.9301  1.6293  0.9641
 3220SOL    HW211261   7.019   1.207   1.347  1.4527 -1.3300  0.0499
 3221SOL     OW11262   5.747   5.216   3.781  0.2634  0.3240  0.2880
 3221SOL    HW111263   5.807   5.241   3.857  0.3807  1.5602 -0.1821
 3221SOL    HW211264   5.656   5.194   3.816  0.1673  1.4081  0.7605
 3222SOL     OW11265   0.861   1.574   3.601 -0.3971  0.3747  0.5044
 3222SOL    HW111266   0.870   1.611   3.509 -0.0796  0.1365  0.4359
 3222SOL    HW211267   0.841   1.476   3.596  0.2176  0.2326  0.6863
 3223SOL     OW11268   1.583   2.408   6.150  0.9025  0.3304 -0.1802
 3223SOL    HW111269   1.626   2.367   6.230  0.5154  1.1798  0.4738
 3223SOL    HW211270   1.518   2.343   6.111  0.9581 -0.0188  0.2971
 3224SOL     OW11271   5.071   3.939   5.325 -0.8662  0.2636  0.1061
 3224SOL    HW111272   5.067   3.853   5.274  0.2882  1.0810 -1.4722
 3224SOL    HW211273   5.145   3.935   5.392  1.2435  0.9507 -1.9951
 3225SOL     OW11274   1.101   0.315   6.645 -0.2043  0.3300 -0.4501
 3225SOL    HW111275   1.034   0.251   6.682  2.6624 -2.4646  0.4805
 3225SOL    HW211276   1.103   0.306   6.545 -0.4389 -0.4655 -0.3942
 3226SOL     OW11277   2.020   5.245   5.160 -0.0428 -0.7666 -0.0915
 3226SOL    HW111278   2.094   5.259   5.095  1.7594 -2.1945  1.5542
 3226SOL    HW211279   2.025   5.313   5.232 -0.9760 -0.2554 -0.4887
 3227SOL     OW11280   4.923   2.019   0.053 -1.1271  0.0694  0.2212
 3227SOL    HW111281   4.899   2.082  -0.021 -1.5126 -0.1567  0.1543
 3227SOL    HW211282   4.862   1.940   0.052 -0.4204 -0.4893  0.0768
 3228SOL     OW11283   0.506   1.445   3.606 -0.1428  0.1034 -0.0586
 3228SOL    HW111284   0.459   1.500   3.675  0.6963  0.1867  0.4633
 3228SOL    HW211285   0.439   1.391   3.555 -0.9226  1.1608 -0.1877
 3229SOL     OW11286   0.514   1.254   6.609  0.1481  0.0479 -0.4761
 3229SOL    HW111287   0.563   1.280   6.526  0.3770 -0.4660 -0.5047
 3229SOL    HW211288   0.466   1.168   6.593 -2.1774  1.3631 -1.0150
 3230SOL     OW11289   1.746   6.168   3.666 -0.0266  0.2970 -0.2394
 3230SOL    HW111290   1.801   6.188   3.747 -0.4685 -1.5818  0.5941
 3230SOL    HW211291   1.803   6.128   3.595  0.0112  0.0935 -0.0938
 3231SOL     OW11292   3.410   3.875   3.908  0.7405 -1.0468 -0.0477
 3231SOL    HW111293   3.399   3.954   3.847  0.7836  0.0813  1.3588
 3231SOL    HW211294   3.331   3.868   3.969  0.4613 -2.4621 -0.5294
 3232SOL     OW11295   3.051   4.133   5.127 -0.0462  0.5095 -0.1187
 3232SOL    HW111296   3.114   4.126   5.050 -0.5779 -1.0793 -0.4347
 3232SOL    HW211297   3.088   4.084   5.206 -0.6965 -0.1341 -0.1990
 3233SOL     OW11298   7.016   5.122   1.826  0.2309  0.3445 -0.3334
 3233SOL    HW111299   6.956   5.110   1.906  0.7874  1.1417  0.2138
 3233SOL    HW211300   7.014   5.038   1.771 -0.1987 -0.2012  0.4804
 3234SOL     OW11301   0.683   1.030   4.422  0.0969 -0.2197  0.2408
 3234SOL    HW111302   0.636   1.082   4.493  0.4252 -1.3464  1.3177
 3234SOL    HW211303   0.638   1.045   4.334  0.5607  2.3565  0.3760
 3235SOL     OW11304   6.723   0.250   4.069  0.1573 -0.2065  0.3463
 3235SOL    HW111305   6.794   0.260   3.999 -0.8016  0.0312 -0.6325
 3235SOL    HW211306   6.719   0.333   4.124  1.1559 -0.5288  0.9243
 3236SOL     OW11307   2.482   4.312   5.782 -0.9145  0.2559  0.1782
 3236SOL    HW111308   2.513   4.231   5.831  0.4776  0.0964 -0.9189
 3236SOL    HW211309   2.383   4.322   5.794 -1.2418 -1.9617 -0.1787
 3237SOL     OW11310   6.990   4.610   4.443 -0.5888  1.1897  0.8572
 3237SOL    HW111311   6.999   4.707   4.422  0.3302  1.8820  3.9364
 3237SOL    HW211312   6.919   4.597   4.512  0.6987 -0.0074  2.0209
 3238SOL     OW11313   5.597   0.142   1.875  0.3426 -0.5930 -0.4822
 3238SOL    HW111314   5.525   0.100   1.819  0.5799 -0.2315 -1.0664
 3238SOL    HW211315   5.683   0.093   1.859  0.6336  0.1248 -1.2088
 3239SOL     OW11316   5.817   6.386   3.307 -0.3957  0.3303  0.2998
 3239SOL    HW111317   5.862   6.310   3.260 -0.2174  0.1232  0.7910
 3239SOL    HW211318   5.722   6.393   3.277 -0.4516 -0.1721  0.3371
 3240SOL     OW11319   4.334   6.621   4.868  0.4737  0.1276 -0.7731
 3240SOL    HW111320   4.380   6.670   4.794 -1.3272  1.0940 -1.3226
 3240SOL    HW211321   4.275   6.550   4.830 -0.6621  0.7970 -0.3277
 3241SOL     OW11322   1.770   1.572   5.334 -0.0380 -0.0035  0.0789
 3241SOL    HW111323   1.720   1.655   5.357  0.1605  0.0934  0.1649
 3241SOL    HW211324   1.864   1.596   5.309  0.1668 -0.2513  0.5991
 3242SOL     OW11325   1.747   3.841   4.193  0.5701 -0.0718  0.2666
 3242SOL    HW111326   1.675   3.867   4.129  0.2485  0.1725  0.7198
 3242SOL    HW211327   1.834   3.833   4.145  0.3600  0.2723 -0.1692
 3243SOL     OW11328   6.271   3.231   0.977  0.5172 -0.3315 -0.1202
 3243SOL    HW111329   6.206   3.157   0.963  0.1616  0.2344 -1.6493
 3243SOL    HW211330   6.349   3.219   0.916  1.1376 -0.1877  0.6273
 3244SOL     OW11331   1.550   6.008   2.682 -0.0702 -0.6124  0.1276
 3244SOL    HW111332   1.476   5.942   2.694  0.1733 -1.2061 -1.4614
 3244SOL    HW211333   1.637   5.964   2.705  0.3016 -1.4901 -2.5899
 3245SOL     OW11334   1.592   1.678   3.062 -1.0335  0.4750  0.1560
 3245SOL    HW111335   1.655   1.611   3.020 -0.7323  0.8390  0.0193
 3245SOL    HW211336   1.643   1.736   3.125 -1.6779 -0.7844  1.9259
 3246SOL     OW11337   4.294   4.275   0.119  0.2529  0.1940 -0.1387
 3246SOL    HW111338   4.232   4.352   0.111 -0.2307 -0.3155 -2.0862
 3246SOL    HW211339   4.248   4.192   0.088  1.7881 -0.2395 -1.4473
 3247SOL     OW11340   4.568   5.563   3.283  0.1472  0.5362  1.4092
 3247SOL    HW111341   4.644   5.529   3.338  0.3439  0.6491  1.2069
 3247SOL    HW211342   4.603   5.612   3.203 -0.0649 -1.5986 -0.1091
 3248SOL     OW11343   5.138   1.810   0.984  0.0804  0.3751 -0.2695
 3248SOL    HW111344   5.074   1.878   0.947 -0.1531 -0.1000 -0.7591
 3248SOL    HW211345   5.147   1.734   0.919 -1.1248 -0.9880  1.0729
 3249SOL     OW11346   2.302   0.134   1.024 -0.1746 -0.0056 -1.1453
 3249SOL    HW111347   2.399   0.155   1.012  0.3030  0.3922  2.4656
 3249SOL    HW211348   2.277   0.141   1.120 -3.5999 -1.1405 -1.7903
 3250SOL     OW11349   6.240   6.994   6.095 -0.1891  0.2984  1.2943
 3250SOL    HW111350   6.244   7.077   6.150 -0.3216  2.0895 -1.2455
 3250SOL    HW211351   6.144   6.973   6.074 -0.0442  1.8574 -1.2907
 3251SOL     OW11352   0.077   2.863   1.044  0.0198 -0.0409 -0.2085
 3251SOL    HW111353   0.154   2.831   0.988 -0.0856  0.6232 -0.7497
 3251SOL    HW211354  -0.008   2.829   1.005  0.1025 -2.2517  1.3895
 3252SOL     OW11355   6.257   0.698   4.689  0.3759  0.0492  0.6373
 3252SOL    HW111356   6.352   0.679   4.713 -0.1432 -0.2543  2.6577
 3252SOL    HW211357   6.254   0.762   4.612  2.1978 -0.0728  0.4210
 3253SOL     OW11358   3.436   3.406   0.930 -0.1912 -0.0968  0.5966
 3253SOL    HW111359   3.341   3.409   0.961 -0.4308  0.4823 -0.1436
 3253SOL    HW211360   3.455   3.317   0.888 -0.0639 -0.6274  1.7481
 3254SOL     OW11361   5.196   3.752   4.047 -0.4226 -0.4372 -0.3170
 3254SOL    HW111362   5.111   3.769   3.996 -1.1117  0.0313  0.9555
 3254SOL    HW211363   5.181   3.679   4.113  0.6369 -1.4409 -1.1453
 3255SOL     OW11364   4.055   6.650   4.088  0.3224 -0.2516 -0.3057
 3255SOL    HW111365   4.071   6.552   4.091 -0.4221 -0.3884 -0.5228
 3255SOL    HW211366   4.083   6.686   3.999  0.6338 -0.2540 -0.2108
 3256SOL     OW11367   2.244   1.549   3.377 -0.8840  0.2603  0.3602
 3256SOL    HW111368   2.265   1.576   3.471 -0.4123  1.4121 -0.0537
 3256SOL    HW211369   2.225   1.631   3.322 -1.8348 -0.4403 -0.3966
 3257SOL     OW11370   5.664   6.767   6.234 -0.0518  0.0332 -0.2990
 3257SOL    HW111371   5.743   6.737   6.288 -0.4182 -1.2804 -0.4768
 3257SOL    HW211372   5.582   6.719   6.264 -1.0711  2.2470  0.6869
 3258SOL     OW11373   1.996   0.996   2.934  1.0420 -0.5008  0.0681
 3258SOL    HW111374   2.093   0.987   2.914  0.9211 -0.3852 -0.5808
 3258SOL    HW211375   1.984   1.064   3.007  1.5897 -2.0520  1.6997
 3259SOL     OW11376   5.125   2.821   2.053  0.0117 -0.2935 -0.1651
 3259SOL    HW111377   5.094   2.914   2.075 -0.7679  0.0334 -2.3560
 3259SOL    HW211378   5.225   2.821   2.042  0.3668 -0.3578  2.4906
 3260SOL     OW11379   6.358   5.724   0.223  0.0714  0.1153  0.0306
 3260SOL    HW111380   6.287   5.794   0.220 -1.3128 -1.2537 -1.7200
 3260SOL    HW211381   6.338   5.660   0.298 -1.3094 -0.9277 -1.1582
 3261SOL     OW11382   1.211   6.846   1.980 -0.0603  0.4698  0.0019
 3261SOL    HW111383   1.213   6.750   2.007 -1.8684  0.2848 -0.3781
 3261SOL    HW211384   1.226   6.903   2.061  1.7734 -0.1015  0.1043
 3262SOL     OW11385   5.578   5.517   2.951  0.4021  0.5937 -0.0271
 3262SOL    HW111386   5.483   5.528   2.922  0.4716 -0.6857 -0.8043
 3262SOL    HW211387   5.597   5.580   3.026 -1.2099  0.4918  0.5003
 3263SOL     OW11388   1.129   4.107   2.661 -0.6828 -0.1465 -0.1757
 3263SOL    HW111389   1.052   4.048   2.683 -1.7429  1.9582  2.4710
 3263SOL    HW211390   1.097   4.202   2.656  1.4197  0.5640 -1.2015
 3264SOL     OW11391   6.179   6.635   0.898 -0.6697  0.0399  0.5705
 3264SOL    HW111392   6.204   6.725   0.864  1.3319 -1.0006 -0.9102
 3264SOL    HW211393   6.090   6.608   0.860  0.9454 -0.5982 -3.2096
 3265SOL     OW11394   6.883   4.840   1.221 -0.0762 -0.4627  0.4927
 3265SOL    HW111395   6.848   4.838   1.128 -0.2644  0.1901  0.5466
 3265SOL    HW211396   6.917   4.749   1.246  0.4654 -0.5158 -0.3953
 3266SOL     OW11397   6.485   1.261   1.014  0.1893 -0.0280 -0.5354
 3266SOL    HW111398   6.533   1.249   1.100  1.3090  1.0584 -0.9823
 3266SOL    HW211399   6.388   1.241   1.027  0.3329  0.1563  0.9769
 3267SOL     OW11400   3.004   6.777   0.898 -0.1660 -0.5459  0.1520
 3267SOL    HW111401   2.969   6.758   0.806  1.3393  0.4460 -0.6731
 3267SOL    HW211402   3.088   6.832   0.891  0.9659 -1.9187  2.0709
 3268SOL     OW11403   3.954   4.156   5.839 -0.2700 -0.4154  0.0617
 3268SOL    HW111404   3.934   4.253   5.848  1.1518 -0.0734 -0.1873
 3268SOL    HW211405   3.916   4.107   5.917 -1.1265  0.3083  0.1157
 3269SOL     OW11406   5.314   1.874   3.350  0.8823  0.5965 -0.4324
 3269SOL    HW111407   5.282   1.779   3.344 -1.9836  1.3714  0.6827
 3269SOL    HW211408   5.322   1.912   3.258  1.8510 -0.6498 -0.8803
 3270SOL     OW11409   5.369   0.388   2.159  0.8031 -0.1523 -0.3324
 3270SOL    HW111410   5.418   0.457   2.213  1.5617  0.4592 -1.7342
 3270SOL    HW211411   5.385   0.405   2.062  2.9264 -3.6627 -0.7615
 3271SOL     OW11412   5.846   0.962   3.315  0.3674 -0.4448  0.4335
 3271SOL    HW111413   5.898   0.877   3.323 -2.7239 -2.8058 -1.9440
 3271SOL    HW211414   5.859   1.017   3.398  1.4014 -3.9131  2.8028
 3272SOL     OW11415   2.416   4.162   6.733  0.2352 -0.7072  0.4296
 3272SOL    HW111416   2.322   4.159   6.767  0.3462 -0.1847  0.7947
 3272SOL    HW211417   2.442   4.071   6.698  0.1388 -1.2900  1.8047
 3273SOL     OW11418   5.183   3.748   6.865 -0.2031 -0.6567  0.6132
 3273SOL    HW111419   5.126   3.718   6.789  1.1924 -0.9346 -0.3730
 3273SOL    HW211420   5.275   3.769   6.831 -0.3993  2.4122  1.6283
 3274SOL     OW11421   2.577   3.040   5.354  0.0512 -0.0124  0.1993
 3274SOL    HW111422   2.656   3.022   5.412  0.2040 -1.6579 -0.4780
 3274SOL    HW211423   2.606   3.083   5.269  0.4037 -1.7457 -0.5855
 3275SOL     OW11424   6.782   6.262   4.543  0.8377  0.0747 -0.2376
 3275SOL    HW111425   6.762   6.343   4.598 -0.2710 -1.3426  1.5572
 3275SOL    HW211426   6.782   6.286   4.446  4.4806  3.0145  0.2724
 3276SOL     OW11427   0.959   6.732   6.642 -0.2740 -0.1180 -0.3484
 3276SOL    HW111428   0.933   6.636   6.642 -2.7658  0.4556  1.0815
 3276SOL    HW211429   1.056   6.741   6.621 -0.0139 -2.9077 -0.6484
 3277SOL     OW11430   2.826   1.050   5.805 -0.5966  0.3206  0.4252
 3277SOL    HW111431   2.917   1.066   5.843 -0.9613  1.6520  0.8142
 3277SOL    HW211432   2.793   0.960   5.835  0.3046  0.1173  0.8512
 3278SOL     OW11433   3.808   5.790   0.938  0.2465  1.1027  0.4641
 3278SOL    HW111434   3.724   5.798   0.992  0.4387  1.6820  0.6848
 3278SOL    HW211435   3.840   5.881   0.911  0.6942  0.8771  0.2170
 3279SOL     OW11436   4.277   3.455   0.764 -0.4577  0.9131  0.5392
 3279SOL    HW111437   4.244   3.372   0.809  0.7492 -0.2575 -0.6164
 3279SOL    HW211438   4.361   3.486   0.809  0.5001 -0.0006 -0.5367
 3280SOL     OW11439   6.561   5.261   3.966 -0.0256  0.6859 -0.0152
 3280SOL    HW111440   6.560   5.340   4.027 -4.1829  0.1396  0.9158
 3280SOL    HW211441   6.615   5.188   4.007  0.3480  1.5814  1.1471
 3281SOL     OW11442   6.657   4.720   4.107  0.9761 -0.0237  0.7853
 3281SOL    HW111443   6.736   4.660   4.115  1.4456  0.5843  0.8529
 3281SOL    HW211444   6.652   4.779   4.188 -0.0661 -0.6544  1.2048
 3282SOL     OW11445   1.681   2.851   5.577  0.0374 -0.3020 -0.0080
 3282SOL    HW111446   1.777   2.840   5.551 -0.1440  1.5967 -1.7127
 3282SOL    HW211447   1.666   2.944   5.611 -1.3416 -0.3462 -0.4379
 3283SOL     OW11448   0.875   3.293   1.899 -0.3625 -0.4394 -0.5505
 3283SOL    HW111449   0.966   3.296   1.859 -0.6752 -1.2202 -1.3518
 3283SOL    HW211450   0.853   3.382   1.939  0.8262 -0.3035 -0.1494
 3284SOL     OW11451   6.780   4.743   0.634  0.1599  0.0460 -0.2129
 3284SOL    HW111452   6.808   4.825   0.584 -0.2116 -0.7378 -1.7392
 3284SOL    HW211453   6.854   4.677   0.634  0.1461  0.0278  0.2601
 3285SOL     OW11454   0.804   0.457   5.556 -0.1194  0.2596 -0.4730
 3285SOL    HW111455   0.724   0.514   5.539 -0.2371  0.3654  0.3678
 3285SOL    HW211456   0.795   0.413   5.646  0.4936 -0.1864 -0.6218
 3286SOL     OW11457   1.339   4.995   5.035  0.0880  0.1339  0.2648
 3286SOL    HW111458   1.407   5.016   5.105  0.4275  0.8934 -0.2835
 3286SOL    HW211459   1.341   4.897   5.015  1.2522  0.1881  0.0381
 3287SOL     OW11460   5.604   3.975   6.856  0.0739 -0.4245 -0.1190
 3287SOL    HW111461   5.684   4.009   6.806 -0.1760  0.2313 -0.0812
 3287SOL    HW211462   5.633   3.942   6.946  0.2223  0.3768  0.1345
 3288SOL     OW11463   2.777   1.834   6.119 -0.0666  0.0493 -0.1746
 3288SOL    HW111464   2.871   1.847   6.089 -0.2418  0.5216 -0.5398
 3288SOL    HW211465   2.775   1.781   6.203  0.6138  1.3758  0.7013
 3289SOL     OW11466   3.099   2.816   1.797 -0.6565  0.3606  0.6867
 3289SOL    HW111467   3.168   2.852   1.860 -0.3321  0.9439  0.0207
 3289SOL    HW211468   3.051   2.893   1.754 -1.1089 -0.0347  0.4792
 3290SOL     OW11469   3.482   4.645   0.379 -0.2860 -0.3185  0.8903
 3290SOL    HW111470   3.489   4.715   0.308  1.1582 -1.2714  0.0172
 3290SOL    HW211471   3.495   4.686   0.469 -0.3561  0.6517  0.4632
 3291SOL     OW11472   4.443   3.699   0.122  0.1287 -0.0902 -0.5176
 3291SOL    HW111473   4.523   3.638   0.125  0.2895  0.1647  0.9365
 3291SOL    HW211474   4.359   3.644   0.129  0.2558 -0.2001  0.2149
 3292SOL     OW11475   1.298   2.664   6.600  0.1866  0.5018 -0.0956
 3292SOL    HW111476   1.272   2.734   6.667  0.6803 -1.2575  2.0465
 3292SOL    HW211477   1.224   2.597   6.591  0.5461  0.1621 -0.5661
 3293SOL     OW11478   2.360   5.374   6.661  0.4484 -0.3000 -0.3859
 3293SOL    HW111479   2.447   5.423   6.655 -0.0987  0.8490  0.6110
 3293SOL    HW211480   2.367   5.303   6.732  0.3942  0.2147  0.1460
 3294SOL     OW11481   0.917   1.490   1.064  0.1315  0.2501 -0.0353
 3294SOL    HW111482   0.987   1.429   1.027 -1.0766 -0.8771 -0.5564
 3294SOL    HW211483   0.923   1.579   1.020 -0.5183 -0.6982 -2.1832
 3295SOL     OW11484   3.756   0.361   4.263 -0.2109  0.0157  0.4027
 3295SOL    HW111485   3.659   0.378   4.248  0.0994  1.4676 -0.0356
 3295SOL    HW211486   3.766   0.292   4.335 -1.6101 -3.2547 -2.2740
 3296SOL     OW11487   5.548   2.455   4.068  0.5087  0.3575  0.2692
 3296SOL    HW111488   5.592   2.381   4.017 -1.1605  0.6638 -1.7610
 3296SOL    HW211489   5.522   2.422   4.159  0.0303 -1.5061 -0.4934
 3297SOL     OW11490   0.084   3.387   3.933 -0.4059 -0.0069  0.8085
 3297SOL    HW111491   0.076   3.328   4.014  1.3901 -0.8952  0.4043
 3297SOL    HW211492   0.166   3.361   3.882 -0.7305  1.4879 -0.5381
 3298SOL     OW11493   1.870   5.425   0.787  0.0285  0.3495  0.1843
 3298SOL    HW111494   1.841   5.364   0.861  0.4812 -0.0715  0.0218
 3298SOL    HW211495   1.917   5.504   0.826  0.0915  0.2261  0.3574
 3299SOL     OW11496   2.476   3.452   3.650 -0.2672  0.2627 -0.2827
 3299SOL    HW111497   2.504   3.371   3.598 -0.6967  0.4229 -0.7847
 3299SOL    HW211498   2.536   3.465   3.728 -1.0733 -1.3956  0.6715
 3300SOL     OW11499   0.484   4.581   0.132 -0.0958  0.0534  0.6762
 3300SOL    HW111500   0.540   4.640   0.191  0.7354  0.0928 -0.1401
 3300SOL    HW211501   0.541   4.510   0.092 -0.8053 -0.4290  0.4986
 3301SOL     OW11502   0.410   2.753   4.109  0.3391  0.7707  0.2296
 3301SOL    HW111503   0.464   2.677   4.074  0.0303 -0.5221  2.3621
 3301SOL    HW211504   0.469   2.820   4.154  0.4192  0.7283  0.1857
 3302SOL     OW11505   0.070   1.005   4.900 -0.4662  0.5097 -0.1482
 3302SOL    HW111506   0.150   0.948   4.918 -0.7223  0.3475  0.5361
 3302SOL    HW211507   0.018   0.966   4.824 -0.5105 -0.0453  0.1537
 3303SOL     OW11508   3.746   3.371   3.583 -0.0068  0.6290 -0.1905
 3303SOL    HW111509   3.815   3.390   3.513  0.8615  0.9487  0.7165
 3303SOL    HW211510   3.663   3.335   3.540  0.6526  0.4184 -1.3263
 3304SOL     OW11511   2.221   3.409   3.728 -0.3510  0.0086 -0.8206
 3304SOL    HW111512   2.178   3.499   3.733  1.0390  0.8295 -2.2711
 3304SOL    HW211513   2.316   3.420   3.698  0.9129 -1.6984  2.1649
 3305SOL     OW11514   6.082   5.339   6.907 -0.0800 -0.3398 -0.1612
 3305SOL    HW111515   6.094   5.418   6.968  1.0166  0.0984 -0.9231
 3305SOL    HW211516   5.985   5.327   6.888 -0.3262  0.3546  0.5704
 3306SOL     OW11517   3.076   6.696   3.526 -0.0089 -0.4887 -0.4773
 3306SOL    HW111518   3.089   6.660   3.618  0.0696 -0.6319 -0.5435
 3306SOL    HW211519   3.026   6.782   3.530  1.4879  0.3917 -0.1661
 3307SOL     OW11520   5.840   6.047   6.451 -0.0606 -1.0228 -0.4531
 3307SOL    HW111521   5.753   6.019   6.411 -1.6244  0.3670  1.7262
 3307SOL    HW211522   5.839   6.029   6.550  1.4466  0.4916 -0.0980
 3308SOL     OW11523   4.007   6.976   3.402 -0.1897  0.4530  0.2723
 3308SOL    HW111524   4.064   6.904   3.363 -1.5873 -0.9550  0.7151
 3308SOL    HW211525   4.064   7.053   3.430  1.0816  0.9142 -3.0597
 3309SOL     OW11526   4.417   5.803   5.484 -0.2999  0.8998  0.3260
 3309SOL    HW111527   4.438   5.720   5.434 -0.1993  1.0681  0.0890
 3309SOL    HW211528   4.418   5.784   5.583  0.5700  0.8171  0.3084
 3310SOL     OW11529   4.312   6.050   3.019 -0.5825 -0.3179  0.0661
 3310SOL    HW111530   4.231   6.052   3.078 -0.7954  2.5596 -0.2174
 3310SOL    HW211531   4.284   6.056   2.923 -0.0465  0.2834 -0.0558
 3311SOL     OW11532   5.183   3.599   3.228 -0.6930  0.0107 -0.3823
 3311SOL    HW111533   5.237   3.580   3.310  0.5889 -1.9760 -1.6028
 3311SOL    HW211534   5.220   3.680   3.182 -0.6192  0.3922  0.3379
 3312SOL     OW11535   5.777   2.598   3.437  0.6705  0.0975 -0.1967
 3312SOL    HW111536   5.762   2.673   3.372 -0.0035 -0.8005 -1.1281
 3312SOL    HW211537   5.760   2.630   3.530  0.1613  1.0477 -0.6015
 3313SOL     OW11538   1.319   5.552   5.030 -0.3730  0.5683 -0.8491
 3313SOL    HW111539   1.316   5.652   5.034 -2.5606  0.5606 -0.9889
 3313SOL    HW211540   1.226   5.516   5.030  0.3463 -1.5944  1.6499
 3314SOL     OW11541   5.215   0.325   3.265  0.1477 -0.1185  0.0354
 3314SOL    HW111542   5.190   0.414   3.305  1.4310  0.4671 -0.3858
 3314SOL    HW211543   5.312   0.327   3.240 -0.4916 -0.5832 -2.7767
 3315SOL     OW11544   6.326   4.331   4.047  0.2451 -0.0921 -0.0051
 3315SOL    HW111545   6.395   4.395   4.012  0.4559 -1.0048 -1.3606
 3315SOL    HW211546   6.235   4.372   4.038  0.5900  1.4118  2.4534
 3316SOL     OW11547   6.830   2.794   0.914 -0.4067 -0.6900  0.3487
 3316SOL    HW111548   6.829   2.894   0.923 -0.2240 -0.7241  0.8087
 3316SOL    HW211549   6.740   2.758   0.938 -0.0393 -0.7453  1.7401
 3317SOL     OW11550   3.872   5.135   3.160  0.0742 -0.0028  0.0182
 3317SOL    HW111551   3.899   5.185   3.243 -0.0199 -0.3111  0.2357
 3317SOL    HW211552   3.826   5.198   3.097 -0.4783  0.0835  0.4983
 3318SOL     OW11553   0.671   2.790   0.264 -0.3327  0.1623  0.0464
 3318SOL    HW111554   0.626   2.862   0.210  0.6165  0.4854 -0.3354
 3318SOL    HW211555   0.753   2.828   0.306  0.3272 -0.7772 -0.3833
 3319SOL     OW11556   4.833   0.556   3.434  0.4815 -0.4788 -0.0699
 3319SOL    HW111557   4.762   0.486   3.441 -0.4699  0.3442 -1.0225
 3319SOL    HW211558   4.855   0.591   3.525  0.0041 -1.0725  0.2817
 3320SOL     OW11559   1.286   1.230   2.643  0.3854  0.3439 -0.2121
 3320SOL    HW111560   1.191   1.258   2.628  0.9643  2.0776 -1.0242
 3320SOL    HW211561   1.330   1.294   2.706  0.9432 -0.5993  0.3678
 3321SOL     OW11562   0.491   2.641   5.903 -0.4635  0.1936 -0.2666
 3321SOL    HW111563   0.456   2.635   5.810 -0.3447  2.1884 -0.4837
 3321SOL    HW211564   0.584   2.604   5.906 -1.0259 -1.3396 -0.5540
 3322SOL     OW11565   2.290   2.046   2.570 -0.2901  0.0731 -0.3238
 3322SOL    HW111566   2.211   2.068   2.512  0.5103  1.7215 -0.8602
 3322SOL    HW211567   2.307   1.948   2.566 -3.1804 -0.5844  0.9978
 3323SOL     OW11568   0.413   4.177   4.884  0.8522 -0.5370  0.3441
 3323SOL    HW111569   0.494   4.214   4.839  1.2190 -0.3920  1.1246
 3323SOL    HW211570   0.439   4.131   4.969  0.1151 -0.4474  0.6273
 3324SOL     OW11571   6.483   4.364   1.831 -0.6990 -0.8723  0.1759
 3324SOL    HW111572   6.498   4.275   1.876  0.4824 -1.0170 -0.4878
 3324SOL    HW211573   6.465   4.433   1.901  2.2465 -0.8594  1.0352
 3325SOL     OW11574   3.243   5.170   2.359  0.1807  0.8034 -0.0927
 3325SOL    HW111575   3.254   5.174   2.260  1.0098  3.6745  0.0253
 3325SOL    HW211576   3.150   5.197   2.383 -0.6735 -1.8603 -0.0991
 3326SOL     OW11577   3.001   0.795   2.190  0.2617 -0.2378 -0.0824
 3326SOL    HW111578   2.938   0.766   2.118 -1.3985 -0.2293  1.2792
 3326SOL    HW211579   3.002   0.895   2.194  1.0381 -0.2156 -0.6429
 3327SOL     OW11580   2.310   3.044   6.408  0.1533  0.2785  0.0328
 3327SOL    HW111581   2.298   2.973   6.477 -0.0963 -0.2468 -0.5429
 3327SOL    HW211582   2.279   3.010   6.319  0.6055  0.8975 -0.3688
 3328SOL     OW11583   6.064   1.135   6.256  0.1077 -0.3369 -0.1868
 3328SOL    HW111584   5.971   1.172   6.249 -0.1647 -0.1883  3.0313
 3328SOL    HW211585   6.128   1.199   6.213 -0.9988  0.8128 -0.1904
 3329SOL     OW11586   6.791   1.868   4.571  0.1838  0.5021 -0.0819
 3329SOL    HW111587   6.703   1.843   4.609 -0.7300  1.0615 -1.7051
 3329SOL    HW211588   6.807   1.966   4.584  0.4075  0.4683 -0.0915
 3330SOL     OW11589   5.482   2.683   4.837  0.2059  0.5592 -0.1603
 3330SOL    HW111590   5.528   2.729   4.913  0.1111 -0.4340  0.5247
 3330SOL    HW211591   5.536   2.695   4.753  0.5150  1.3374  0.1436
 3331SOL     OW11592   6.917   1.065   3.545 -0.2135 -0.0727  0.1033
 3331SOL    HW111593   6.970   1.123   3.484  1.1833  0.9987  2.2211
 3331SOL    HW211594   6.826   1.049   3.505  0.4869  0.8763 -2.0200
 3332SOL     OW11595   1.562   0.821   4.588 -0.8445 -0.6606  0.1758
 3332SOL    HW111596   1.478   0.874   4.573  0.1365  1.2770  1.2196
 3332SOL    HW211597   1.589   0.827   4.684  1.8769  0.9480 -0.5850
 3333SOL     OW11598   1.644   2.617   4.094  0.5638  0.1004  0.1261
 3333SOL    HW111599   1.686   2.539   4.139 -0.2835 -1.6357 -1.9707
 3333SOL    HW211600   1.552   2.632   4.132 -0.2293 -1.4852 -1.0865
 3334SOL     OW11601   5.624   0.181   5.966 -0.1537  0.9673  0.8577
 3334SOL    HW111602   5.640   0.184   5.867  1.2001  1.3890  1.0609
 3334SOL    HW211603   5.633   0.087   5.999  2.3269  1.1629  0.9649
 3335SOL     OW11604   1.124   5.450   4.591 -0.8887 -0.3446  0.4931
 3335SOL    HW111605   1.074   5.434   4.677 -2.5458  0.0790 -0.3503
 3335SOL    HW211606   1.071   5.511   4.533  0.3509 -0.3914 -0.7246
 3336SOL     OW11607   6.616   5.933   3.136 -0.1182  0.0073  0.2936
 3336SOL    HW111608   6.590   6.018   3.092 -0.8880 -0.6890 -0.6504
 3336SOL    HW211609   6.536   5.873   3.143  0.3969 -0.6220  0.9737
 3337SOL     OW11610   4.612   4.672   0.827  0.1297  0.1252 -0.4123
 3337SOL    HW111611   4.641   4.586   0.786 -0.7719 -0.3946  0.0269
 3337SOL    HW211612   4.629   4.670   0.926  0.1703  0.4794 -0.4101
 3338SOL     OW11613   2.946   3.831   5.492  0.4988 -0.0618  0.3825
 3338SOL    HW111614   2.990   3.824   5.581  1.2974 -1.7549 -0.1213
 3338SOL    HW211615   2.854   3.793   5.497  1.0973 -1.5808  0.1372
 3339SOL     OW11616   3.761   4.149   5.072 -0.3268  0.7378  0.0062
 3339SOL    HW111617   3.751   4.063   5.121 -1.8758  0.0282 -1.4416
 3339SOL    HW211618   3.677   4.203   5.082  0.1628  1.5471 -0.1067
 3340SOL     OW11619   2.698   2.526   5.258  0.1076  0.0070 -0.9313
 3340SOL    HW111620   2.765   2.596   5.283  0.1089 -0.5137  0.6263
 3340SOL    HW211621   2.725   2.485   5.171  2.1989 -0.5994 -0.0751
 3341SOL     OW11622   5.264   3.646   6.032 -0.3427 -0.3822 -0.4044
 3341SOL    HW111623   5.275   3.702   6.114 -0.9711 -1.7277  0.6518
 3341SOL    HW211624   5.175   3.601   6.035 -0.0259 -1.1086 -1.4119
 3342SOL     OW11625   5.318   6.859   3.534  0.3573  0.1471 -0.1532
 3342SOL    HW111626   5.368   6.858   3.447  2.4305 -1.6909  0.9700
 3342SOL    HW211627   5.371   6.811   3.603 -2.0088  0.1033  1.7367
 3343SOL     OW11628   2.709   0.306   0.072 -0.5544  0.2115  0.5675
 3343SOL    HW111629   2.615   0.320   0.041  0.3179  0.5027 -2.2442
 3343SOL    HW211630   2.745   0.222   0.032  1.1649  1.4137 -0.5842
 3344SOL     OW11631   6.972   0.533   6.452  0.2836 -0.0245  0.5605
 3344SOL    HW111632   6.952   0.474   6.530 -0.4418  0.6748  0.9146
 3344SOL    HW211633   7.056   0.501   6.408  0.5308 -0.6271  1.4237
 3345SOL     OW11634   0.517   4.545   4.562  0.7369  0.6785 -0.1443
 3345SOL    HW111635   0.443   4.518   4.624 -1.4169  0.9292 -2.4695
 3345SOL    HW211636   0.598   4.492   4.583 -1.2968 -2.6969 -0.1389
 3346SOL     OW11637   4.519   2.154   1.727 -0.4321 -0.0281 -0.4429
 3346SOL    HW111638   4.497   2.060   1.702 -0.1780 -0.4615  0.8372
 3346SOL    HW211639   4.568   2.199   1.653  0.9774 -1.4784 -0.4334
 3347SOL     OW11640   4.940   3.968   4.828  0.1206  0.3894  0.3803
 3347SOL    HW111641   4.844   3.969   4.856  0.3960 -0.7855  1.4061
 3347SOL    HW211642   4.988   3.892   4.872  1.8217  1.6711  0.8826
 3348SOL     OW11643   4.982   6.084   4.154 -0.2715  0.1173 -0.1413
 3348SOL    HW111644   5.010   6.162   4.209 -1.0338  0.5287 -0.3229
 3348SOL    HW211645   5.036   6.081   4.070  0.4214 -0.1147  0.3054
 3349SOL     OW11646   0.762   4.060   2.422  0.8374 -0.1435  0.1957
 3349SOL    HW111647   0.816   4.007   2.488  0.2839 -0.8199  0.1172
 3349SOL    HW211648   0.695   4.116   2.470  0.9452 -0.0563  0.2447
 3350SOL     OW11649   2.225   0.497   1.537 -0.4049 -0.0841 -0.5864
 3350SOL    HW111650   2.292   0.552   1.487  2.9847 -2.0901  1.3238
 3350SOL    HW211651   2.227   0.523   1.634 -1.5879 -0.9646 -0.3091
 3351SOL     OW11652   3.018   5.416   3.429 -0.0153 -0.0644 -0.1739
 3351SOL    HW111653   2.992   5.405   3.525  0.3441 -0.9561 -0.1766
 3351SOL    HW211654   2.985   5.338   3.376  0.4123  0.0765 -0.6534
 3352SOL     OW11655   5.418   2.184   6.503 -0.5134 -0.0223 -0.4473
 3352SOL    HW111656   5.346   2.201   6.571 -0.2433  0.6491 -0.3246
 3352SOL    HW211657   5.470   2.103   6.529  0.4797  1.0152  0.9072
 3353SOL     OW11658   0.513   1.291   3.888  0.2053  0.7083  0.6077
 3353SOL    HW111659   0.564   1.253   3.965  0.7026  0.9731  0.4130
 3353SOL    HW211660   0.491   1.387   3.907  1.2681  1.0908 -0.0328
 3354SOL     OW11661   5.034   4.963   2.817  0.1868 -0.7016 -0.2424
 3354SOL    HW111662   5.038   5.062   2.810 -1.0395 -0.5521  0.7495
 3354SOL    HW211663   4.989   4.937   2.903  1.5417 -2.1325  0.0830
 3355SOL     OW11664   5.364   2.102   4.195 -0.0521 -0.1450  0.0462
 3355SOL    HW111665   5.316   2.082   4.109  0.1435  0.3846 -0.1937
 3355SOL    HW211666   5.340   2.034   4.263 -2.1006  0.7737  0.3158
 3356SOL     OW11667   3.581   6.145   4.253  0.0608 -0.4716 -0.0597
 3356SOL    HW111668   3.615   6.056   4.283  0.0822 -0.3023  0.4370
 3356SOL    HW211669   3.629   6.217   4.304 -0.6550 -0.2136  0.2609
 3357SOL     OW11670   5.983   5.255   3.488 -0.1627  0.6990 -0.1464
 3357SOL    HW111671   6.024   5.345   3.499 -0.0282  0.8084 -1.3937
 3357SOL    HW211672   6.038   5.187   3.535 -0.2819  1.2656  0.8306
 3358SOL     OW11673   1.225   4.428   6.602 -0.1520 -0.6982 -0.2225
 3358SOL    HW111674   1.188   4.448   6.693 -1.3420  0.8672 -0.9837
 3358SOL    HW211675   1.157   4.453   6.533  1.6138  0.4486 -1.6448
 3359SOL     OW11676   4.519   5.689   1.935 -0.4226 -0.4187 -0.4507
 3359SOL    HW111677   4.548   5.780   1.906  0.0254 -0.3159  0.2941
 3359SOL    HW211678   4.497   5.691   2.033 -0.2166 -1.1584 -0.3840
 3360SOL     OW11679   5.835   0.390   6.105  0.2119 -0.2479  0.0329
 3360SOL    HW111680   5.789   0.321   6.048  0.9013 -0.4537 -0.2900
 3360SOL    HW211681   5.807   0.378   6.200  1.2958 -1.8169  0.1819
 3361SOL     OW11682   1.806   5.824   1.176  0.2119 -0.0619 -0.1204
 3361SOL    HW111683   1.793   5.892   1.247 -0.3370  0.7143 -0.9406
 3361SOL    HW211684   1.867   5.861   1.106 -0.2710 -0.3216 -0.6876
 3362SOL     OW11685   0.578   2.190   5.440 -0.4225 -0.2529  0.5131
 3362SOL    HW111686   0.539   2.273   5.400  0.8255 -0.4313 -1.1670
 3362SOL    HW211687   0.678   2.195   5.437 -0.2562 -2.8132 -1.9723
 3363SOL     OW11688   5.248   6.775   3.170  0.5592 -1.2031  0.1510
 3363SOL    HW111689   5.330   6.760   3.224  1.2633  0.7164 -0.2923
 3363SOL    HW211690   5.227   6.873   3.168 -1.1754 -1.5531 -0.5654
 3364SOL     OW11691   1.736   3.575   4.381 -0.1743 -0.3262 -0.0675
 3364SOL    HW111692   1.708   3.671   4.384  1.2572  0.1746 -1.4796
 3364SOL    HW211693   1.703   3.533   4.297  1.5651 -0.2551 -0.8241
 3365SOL     OW11694   6.993   2.052   2.497  0.4878  0.3952  0.3257
 3365SOL    HW111695   6.971   1.994   2.576 -0.0221  1.2074  0.7900
 3365SOL    HW211696   6.931   2.130   2.494 -0.2920 -0.2569 -1.5907
 3366SOL     OW11697   2.388   5.422   3.359 -0.6742 -0.3701  0.3796
 3366SOL    HW111698   2.384   5.379   3.449  1.0870  0.0967  0.7298
 3366SOL    HW211699   2.415   5.354   3.290 -1.8629 -0.6904  0.2094
 3367SOL     OW11700   5.059   6.546   1.104  0.8325  0.4225  0.3555
 3367SOL    HW111701   5.124   6.529   1.178  1.6654 -1.5738 -0.7619
 3367SOL    HW211702   4.983   6.482   1.112  0.6896  0.5150 -0.2440
 3368SOL     OW11703   3.038   6.591   0.432 -0.3682 -0.2757 -0.3628
 3368SOL    HW111704   3.034   6.673   0.489 -0.1949 -1.0702  0.8421
 3368SOL    HW211705   3.113   6.599   0.367 -0.7989  0.8107 -0.7432
 3369SOL     OW11706   2.160   6.340   1.227 -0.9803  0.0232  0.2391
 3369SOL    HW111707   2.164   6.355   1.326 -2.8037  2.5306  0.0273
 3369SOL    HW211708   2.066   6.323   1.199 -1.5974  4.9441 -1.5856
 3370SOL     OW11709   1.676   5.680   6.109 -0.1388  0.0978 -0.0073
 3370SOL    HW111710   1.614   5.752   6.138 -2.0625 -1.2839 -0.4821
 3370SOL    HW211711   1.705   5.626   6.188 -0.5233  0.0294  0.0903
 3371SOL     OW11712   3.423   6.473   6.867 -0.1077 -0.0025  0.3746
 3371SOL    HW111713   3.352   6.505   6.804 -2.2959  1.4905  3.3430
 3371SOL    HW211714   3.411   6.375   6.884 -0.6047 -0.0391 -0.1476
 3372SOL     OW11715   0.070   0.992   1.582  0.0197  0.0161  0.2994
 3372SOL    HW111716   0.107   1.079   1.613  2.5032 -0.2827 -1.5087
 3372SOL    HW211717  -0.018   0.975   1.626 -0.2683  3.1300  1.1346
 3373SOL     OW11718   1.183   2.535   1.794 -0.0697  0.0077 -0.0090
 3373SOL    HW111719   1.228   2.584   1.868 -0.6104  1.1309 -0.3921
 3373SOL    HW211720   1.106   2.482   1.830  1.1081 -1.3794  0.5483
 3374SOL     OW11721   2.458   1.283   3.670  0.2184 -0.1553 -0.0386
 3374SOL    HW111722   2.423   1.336   3.747 -1.8107  1.6245 -2.0185
 3374SOL    HW211723   2.406   1.198   3.661 -0.5685  0.3422 -0.2925
 3375SOL     OW11724   6.283   6.892   4.544  0.1931 -0.1494 -0.3865
 3375SOL    HW111725   6.368   6.926   4.504 -0.3811  3.1238  0.7895
 3375SOL    HW211726   6.206   6.946   4.508 -1.1961 -1.8374 -0.0834
 3376SOL     OW11727   4.844   2.814   1.401  0.0070 -0.3318 -0.1470
 3376SOL    HW111728   4.816   2.910   1.400  0.0704 -0.3080  0.1160
 3376SOL    HW211729   4.769   2.759   1.439  0.2496 -0.2876  0.4144
 3377SOL     OW11730   2.748   1.730   5.355  0.0492 -0.5812 -0.1024
 3377SOL    HW111731   2.711   1.655   5.299  0.4403  0.4549 -1.8002
 3377SOL    HW211732   2.835   1.760   5.317 -0.6493  1.4933 -0.1664
 3378SOL     OW11733   6.347   4.751   4.867  0.8115  0.1651 -0.3386
 3378SOL    HW111734   6.294   4.833   4.889 -2.5210 -1.6245 -1.0307
 3378SOL    HW211735   6.433   4.778   4.823 -1.0127  3.2796 -2.3936
 3379SOL     OW11736   6.921   5.178   3.749 -0.9262 -0.4743  0.0567
 3379SOL    HW111737   6.962   5.180   3.658 -0.3974 -1.4026  0.2537
 3379SOL    HW211738   6.887   5.269   3.773 -1.5495 -0.3423 -1.2688
 3380SOL     OW11739   3.509   3.046   1.706  0.3887  0.1133  0.6071
 3380SOL    HW111740   3.459   3.128   1.678  0.2759  0.0825  0.7133
 3380SOL    HW211741   3.603   3.050   1.672 -0.2008 -0.7108 -1.2468
 3381SOL     OW11742   3.758   3.609   1.466 -0.8119 -0.2214  0.4986
 3381SOL    HW111743   3.797   3.698   1.491  1.0803  0.0740 -2.8885
 3381SOL    HW211744   3.706   3.619   1.381  0.4129 -2.5463 -0.5843
 3382SOL     OW11745   3.194   1.408   6.705 -0.5123  0.5915  0.1071
 3382SOL    HW111746   3.290   1.384   6.695 -0.7794  0.0422 -1.4376
 3382SOL    HW211747   3.169   1.407   6.802  1.0089  0.6938  0.5260
 3383SOL     OW11748   5.087   1.413   0.354  0.6796  0.2684 -0.0967
 3383SOL    HW111749   5.100   1.503   0.397  1.3764 -0.1313  0.5459
 3383SOL    HW211750   5.046   1.350   0.420  0.9354 -0.1087 -0.2935
 3384SOL     OW11751   6.995   5.187   1.500 -0.6227  0.2349 -0.0889
 3384SOL    HW111752   6.990   5.089   1.521  0.9337 -0.0494 -0.9372
 3384SOL    HW211753   7.086   5.222   1.525 -0.9960  1.3575 -0.2446
 3385SOL     OW11754   1.939   4.046   3.002 -0.1494 -0.1061  0.6988
 3385SOL    HW111755   1.885   4.079   3.080 -0.0463  1.6291  0.0909
 3385SOL    HW211756   2.036   4.058   3.022 -0.0513 -1.3045  0.9816
 3386SOL     OW11757   5.251   1.827   3.873  0.3567  0.5357 -0.4411
 3386SOL    HW111758   5.237   1.926   3.866  0.4092  0.7012  1.3268
 3386SOL    HW211759   5.195   1.781   3.804  1.1637  1.8231 -2.0325
 3387SOL     OW11760   3.350   5.215   6.486 -0.2222 -0.0515 -0.0261
 3387SOL    HW111761   3.372   5.139   6.424  1.0396  1.0764 -1.0265
 3387SOL    HW211762   3.369   5.302   6.440  1.5997  0.8369  2.2009
 3388SOL     OW11763   1.433   3.223   2.605  0.2489  0.0254  0.0160
 3388SOL    HW111764   1.428   3.281   2.687 -1.2633 -0.1974  0.1116
 3388SOL    HW211765   1.504   3.154   2.618  0.4113  0.3411  0.9148
 3389SOL     OW11766   5.979   1.095   5.584 -0.2890  0.4307  0.0704
 3389SOL    HW111767   5.889   1.136   5.597 -0.0268  1.2299 -0.5461
 3389SOL    HW211768   6.050   1.163   5.600  0.2332 -0.3014  0.9587
 3390SOL     OW11769   4.875   1.954   1.337  0.2269 -0.3365 -0.1618
 3390SOL    HW111770   4.840   1.978   1.246 -2.6454 -1.4208  0.5521
 3390SOL    HW211771   4.946   1.883   1.328  1.0293  0.5887 -1.5875
 3391SOL     OW11772   2.424   3.717   3.532 -0.1657 -0.2646  0.4680
 3391SOL    HW111773   2.509   3.750   3.573 -0.2220 -0.2349  0.5590
 3391SOL    HW211774   2.413   3.619   3.552 -1.6927  0.3653  3.1053
 3392SOL     OW11775   0.396   5.237   4.285 -0.6655 -0.7574  0.2068
 3392SOL    HW111776   0.340   5.219   4.204  1.0396 -1.5213 -0.8824
 3392SOL    HW211777   0.444   5.153   4.311  1.8810  0.3694 -0.4749
 3393SOL     OW11778   4.220   4.307   1.213  0.4082 -0.2336 -0.2607
 3393SOL    HW111779   4.240   4.269   1.122  0.3894  1.2599 -0.9216
 3393SOL    HW211780   4.301   4.297   1.271  0.8774 -0.0787 -0.8612
 3394SOL     OW11781   4.195   6.497   2.744 -0.6221 -0.1572  0.2734
 3394SOL    HW111782   4.272   6.436   2.765 -0.6908  0.4748  2.6153
 3394SOL    HW211783   4.230   6.577   2.695  0.3765  0.3708  1.7464
 3395SOL     OW11784   5.742   4.377   5.014 -0.2200  0.3847  0.1468
 3395SOL    HW111785   5.645   4.360   4.998 -0.2848  1.0224 -0.1562
 3395SOL    HW211786   5.766   4.352   5.108 -0.8119  0.8183  0.4142
 3396SOL     OW11787   6.323   0.240   2.234  0.2175  0.5080 -0.3795
 3396SOL    HW111788   6.271   0.254   2.149  1.9779  0.6919 -1.4840
 3396SOL    HW211789   6.391   0.168   2.219 -1.0861 -1.2611  1.6901
 3397SOL     OW11790   5.316   2.983   5.509 -0.2185  0.0352 -0.0156
 3397SOL    HW111791   5.392   2.929   5.472 -0.4187 -0.7017  0.6371
 3397SOL    HW211792   5.239   2.981   5.445  0.6822  1.7454 -1.2462
 3398SOL     OW11793   2.273   0.259   6.319 -0.5380  0.2373 -0.6080
 3398SOL    HW111794   2.240   0.335   6.263 -1.1183 -0.2287 -0.9019
 3398SOL    HW211795   2.215   0.249   6.400  0.1249  0.7234 -0.0605
 3399SOL     OW11796   6.036   3.103   3.667 -0.5465 -0.0417  0.2452
 3399SOL    HW111797   5.995   3.127   3.755 -0.0173  0.0394  0.4768
 3399SOL    HW211798   5.968   3.056   3.610 -0.7378 -0.5965  0.9133
 3400SOL     OW11799   5.046   3.203   3.950 -0.1490  1.0632  0.8029
 3400SOL    HW111800   5.119   3.146   3.911 -1.5624 -0.2701  0.0247
 3400SOL    HW211801   4.960   3.183   3.905 -1.2247  1.8748  2.3988
 3401SOL     OW11802   6.306   5.730   3.566 -0.4199 -0.6196 -0.6404
 3401SOL    HW111803   6.256   5.798   3.619  1.1453 -0.3499  0.5686
 3401SOL    HW211804   6.320   5.764   3.473  2.1330  1.7535  0.4767
 3402SOL     OW11805   0.399   1.483   5.289 -0.4212 -0.3791  0.8080
 3402SOL    HW111806   0.326   1.432   5.245 -1.0631  0.7548  0.5108
 3402SOL    HW211807   0.375   1.498   5.386 -0.5552 -0.0827  0.7317
 3403SOL     OW11808   4.445   6.649   2.423 -0.3674 -0.2279 -0.1438
 3403SOL    HW111809   4.445   6.688   2.330  0.3049 -1.8406 -0.8603
 3403SOL    HW211810   4.533   6.668   2.466  0.6942 -2.4152 -1.1940
 3404SOL     OW11811   4.234   6.935   6.014 -0.4124  0.3052  0.3952
 3404SOL    HW111812   4.289   6.852   6.025 -1.7755 -0.6845  0.1146
 3404SOL    HW211813   4.256   6.979   5.927 -0.7238 -0.6120 -0.1623
 3405SOL     OW11814   5.358   4.676   4.973  0.3405  0.1172  0.7706
 3405SOL    HW111815   5.317   4.658   4.884  0.6269  0.1383  0.6328
 3405SOL    HW211816   5.406   4.594   5.005  3.0545  1.0248 -0.6031
 3406SOL     OW11817   0.924   6.462   6.575  0.0198 -0.0277 -0.9661
 3406SOL    HW111818   0.874   6.450   6.660 -0.2448 -0.0173 -1.1179
 3406SOL    HW211819   0.997   6.394   6.569  1.2398  1.1209  0.1184
 3407SOL     OW11820   1.443   3.113   3.449  0.0847 -0.4064  0.3673
 3407SOL    HW111821   1.451   3.017   3.421 -0.4250 -0.0624 -1.0230
 3407SOL    HW211822   1.354   3.149   3.420  1.0067  1.0128 -0.8150
 3408SOL     OW11823   2.380   6.543   6.989 -0.2927 -0.2236  0.4663
 3408SOL    HW111824   2.307   6.522   6.925 -0.4842  2.1931 -0.2018
 3408SOL    HW211825   2.345   6.598   7.064  0.2144 -1.8785  2.0106
 3409SOL     OW11826   2.691   2.330   6.884  0.3439  0.2628 -0.4235
 3409SOL    HW111827   2.706   2.236   6.853 -1.3386 -0.2626  0.2285
 3409SOL    HW211828   2.593   2.345   6.897  0.7655  1.3166  1.9343
 3410SOL     OW11829   2.116   5.409   5.743 -0.7991 -0.2723  0.5685
 3410SOL    HW111830   2.038   5.367   5.788 -0.4138 -1.8893 -0.1853
 3410SOL    HW211831   2.195   5.348   5.749  0.0831  0.8072  0.2985
 3411SOL     OW11832   2.475   4.506   5.245  0.1312 -0.5487  0.3153
 3411SOL    HW111833   2.489   4.463   5.156  2.4024  1.6416 -0.5129
 3411SOL    HW211834   2.395   4.567   5.240  1.3833  1.0969 -0.9584
 3412SOL     OW11835   0.501   2.063   6.964 -0.0308 -0.3348 -0.9119
 3412SOL    HW111836   0.536   2.156   6.980  0.3967 -0.7718  1.0235
 3412SOL    HW211837   0.413   2.052   7.009  0.1017 -0.9737 -0.7938
 3413SOL     OW11838   0.645   3.204   3.304  0.2838  0.2013 -0.4443
 3413SOL    HW111839   0.673   3.132   3.241 -2.3155  1.0694 -2.8171
 3413SOL    HW211840   0.699   3.287   3.286  1.5108 -0.3525  0.5285
 3414SOL     OW11841   4.250   0.608   3.841  0.2779  0.1866  0.0452
 3414SOL    HW111842   4.191   0.600   3.760  0.3720  2.0618 -0.2436
 3414SOL    HW211843   4.330   0.549   3.830 -0.3699 -0.6001 -0.6070
 3415SOL     OW11844   0.837   6.265   0.172 -0.2480 -0.4180 -0.0766
 3415SOL    HW111845   0.744   6.260   0.209  0.5708 -1.5109  1.9794
 3415SOL    HW211846   0.875   6.173   0.163  1.7932  0.0877  2.3515
 3416SOL     OW11847   3.573   6.061   2.541 -0.3096 -0.5489 -0.1097
 3416SOL    HW111848   3.573   6.131   2.612  0.3864  1.0448 -1.6285
 3416SOL    HW211849   3.615   5.977   2.578  0.2586  0.3078  1.2791
 3417SOL     OW11850   6.214   6.056   2.879  0.0752 -0.6586 -0.3379
 3417SOL    HW111851   6.285   6.004   2.832 -0.5353 -1.5008 -0.3509
 3417SOL    HW211852   6.252   6.143   2.911  0.3008  0.3544 -3.0961
 3418SOL     OW11853   5.237   2.480   1.341  0.0947 -0.7295 -0.0952
 3418SOL    HW111854   5.226   2.382   1.324 -0.5892 -0.5937 -0.4469
 3418SOL    HW211855   5.300   2.493   1.418  0.6131 -1.4291 -0.3922
 3419SOL     OW11856   2.615   2.544   6.675  0.1077 -0.1715  0.0840
 3419SOL    HW111857   2.706   2.581   6.656 -0.2141 -0.0631 -1.3773
 3419SOL    HW211858   2.620   2.484   6.755  0.9411  1.7840  1.5852
 3420SOL     OW11859   0.405   6.765   2.487 -0.4115 -0.2381  0.1966
 3420SOL    HW111860   0.345   6.688   2.466 -2.0281  0.8424  0.6346
 3420SOL    HW211861   0.381   6.842   2.428 -0.1866  0.5646  1.1369
 3421SOL     OW11862   6.307   0.440   6.611  0.3433  0.1488  0.5643
 3421SOL    HW111863   6.239   0.376   6.575  0.6362 -0.4132  1.0075
 3421SOL    HW211864   6.330   0.507   6.540  0.9147 -0.9493 -0.3118
 3422SOL     OW11865   1.309   6.551   2.485 -0.0383 -0.2511 -0.3365
 3422SOL    HW111866   1.380   6.487   2.512  0.7676  0.6305 -0.3173
 3422SOL    HW211867   1.347   6.644   2.481 -1.3835  0.3678  0.4808
 3423SOL     OW11868   3.345   1.012   1.900 -0.1586  0.0580 -0.1052
 3423SOL    HW111869   3.292   1.065   1.967 -1.3968 -1.3355  0.0763
 3423SOL    HW211870   3.306   0.920   1.893  0.9743 -0.3373 -1.5502
 3424SOL     OW11871   3.215   0.028   3.495  0.1912 -0.2732 -0.2397
 3424SOL    HW111872   3.251  -0.008   3.580  0.3702  0.0507 -0.1763
 3424SOL    HW211873   3.280   0.009   3.421 -0.0467 -0.7106 -0.3354
 3425SOL     OW11874   0.827   4.992   5.508 -0.4336  0.0387  0.2746
 3425SOL    HW111875   0.785   4.908   5.473 -0.0674 -0.1142  0.1958
 3425SOL    HW211876   0.922   4.974   5.533 -1.1085 -0.2922  2.9275
 3426SOL     OW11877   0.948   3.437   3.900 -0.0539 -0.2560  0.1584
 3426SOL    HW111878   1.044   3.419   3.878 -0.5891 -0.8993 -1.8861
 3426SOL    HW211879   0.892   3.358   3.873 -1.3468  0.7165 -0.1211
 3427SOL     OW11880   2.394   6.289   4.878  0.1844  0.4006 -0.1137
 3427SOL    HW111881   2.295   6.275   4.873  0.2763  0.1791 -1.5560
 3427SOL    HW211882   2.439   6.202   4.899  0.0781  0.5156  0.6150
 3428SOL     OW11883   4.206   0.347   6.721  0.2204 -1.0707  0.1834
 3428SOL    HW111884   4.118   0.376   6.681  1.2298  0.4524 -1.0720
 3428SOL    HW211885   4.251   0.426   6.762  2.3341 -1.1094 -1.8633
 3429SOL     OW11886   3.443   0.714   0.471  0.4657 -0.0805 -0.2047
 3429SOL    HW111887   3.366   0.721   0.408 -0.7094 -2.2450  0.8634
 3429SOL    HW211888   3.459   0.802   0.516 -2.4255  0.0996  0.6732
 3430SOL     OW11889   5.865   0.176   1.735  0.3561 -0.4425  0.0115
 3430SOL    HW111890   5.820   0.252   1.688 -0.6783 -0.2144  1.2980
 3430SOL    HW211891   5.964   0.183   1.723  0.4055  1.9266  1.2577
 3431SOL     OW11892   3.999   3.350   1.363  0.4356 -0.3936  0.1707
 3431SOL    HW111893   4.042   3.421   1.418  0.7063  0.4546 -1.0966
 3431SOL    HW211894   4.068   3.308   1.303 -0.2039  0.0236 -0.8881
 3432SOL     OW11895   6.323   0.459   5.996 -0.0204  0.1649  0.0392
 3432SOL    HW111896   6.324   0.468   5.897  1.5136 -0.9461 -0.0902
 3432SOL    HW211897   6.417   0.450   6.029 -0.5540 -0.3789  1.5002
 3433SOL     OW11898   0.154   5.998   5.674  0.4896 -0.3611 -0.1018
 3433SOL    HW111899   0.179   5.915   5.725  2.7266  0.9225  1.0846
 3433SOL    HW211900   0.128   5.974   5.581 -0.8332 -2.5380  0.7553
 3434SOL     OW11901   4.771   3.687   2.077 -0.0304 -0.0924 -0.3661
 3434SOL    HW111902   4.754   3.589   2.065  0.7403 -0.0780 -1.7084
 3434SOL    HW211903   4.685   3.733   2.101 -0.1584 -1.2600  1.6403
 3435SOL     OW11904   1.978   3.850   4.015  0.9076 -0.4678  0.0906
 3435SOL    HW111905   1.958   3.833   3.918  1.7432 -0.6184 -0.0581
 3435SOL    HW211906   2.075   3.839   4.032  0.6401 -1.3635  1.1470
 3436SOL     OW11907   3.120   5.335   6.056  0.4099 -0.1721  0.2989
 3436SOL    HW111908   3.175   5.384   5.988 -1.0687 -0.2843 -1.0377
 3436SOL    HW211909   3.054   5.398   6.097 -0.7012 -0.7350 -0.5653
 3437SOL     OW11910   6.858   5.931   2.634 -0.0492  0.1305 -0.1084
 3437SOL    HW111911   6.897   5.973   2.716  3.3983 -0.5972 -1.2162
 3437SOL    HW211912   6.902   5.969   2.553 -2.6062  0.0570 -1.6551
 3438SOL     OW11913   1.215   3.169   6.495  0.0197 -0.0225  0.0569
 3438SOL    HW111914   1.143   3.213   6.441  0.3629  1.0716  0.4645
 3438SOL    HW211915   1.304   3.190   6.456  0.1289 -1.7894 -0.7427
 3439SOL     OW11916   4.837   6.941   6.393 -0.2896  0.1102 -0.2151
 3439SOL    HW111917   4.773   6.874   6.429  0.7578 -0.5331  0.4922
 3439SOL    HW211918   4.846   6.929   6.294  0.1053 -0.9897 -0.0542
 3440SOL     OW11919   6.468   3.552   0.790  0.0021  0.0521  0.1821
 3440SOL    HW111920   6.372   3.527   0.785  0.3092 -1.6387  1.8607
 3440SOL    HW211921   6.477   3.651   0.779 -1.9540  0.2988  0.4736
 3441SOL     OW11922   6.801   5.539   0.701 -0.0836  0.0686  0.3418
 3441SOL    HW111923   6.834   5.492   0.783 -1.6945 -0.1313  0.9026
 3441SOL    HW211924   6.834   5.490   0.620  1.1410  0.0042  0.8517
 3442SOL     OW11925   4.547   0.153   6.229  0.2343 -0.0346  0.2556
 3442SOL    HW111926   4.505   0.242   6.247 -0.3603  0.1354 -1.7485
 3442SOL    HW211927   4.647   0.162   6.236  0.4499  1.7302 -3.2250
 3443SOL     OW11928   6.245   1.218   2.996 -0.0201 -0.6106 -0.6261
 3443SOL    HW111929   6.160   1.264   3.021  0.5849  0.1555  0.0947
 3443SOL    HW211930   6.227   1.151   2.924 -1.3528 -0.9639 -0.0013
 3444SOL     OW11931   2.914   5.047   2.167  0.1926  0.4645 -0.2397
 3444SOL    HW111932   2.816   5.067   2.154  0.5781  2.7534 -0.0422
 3444SOL    HW211933   2.937   5.056   2.264  0.4295 -1.1120 -0.1218
 3445SOL     OW11934   1.657   1.858   1.933  0.1751  0.1587 -0.1178
 3445SOL    HW111935   1.735   1.911   1.901 -0.2075 -0.4444 -2.1583
 3445SOL    HW211936   1.665   1.764   1.901  0.1922 -0.7655  2.3556
 3446SOL     OW11937   0.868   0.289   0.659 -0.2622 -0.0718  0.2135
 3446SOL    HW111938   0.864   0.202   0.707  0.5173  0.3268  1.0230
 3446SOL    HW211939   0.885   0.273   0.562 -1.4722 -0.8648  0.1161
 3447SOL     OW11940   0.347   3.392   0.792 -0.1083 -0.0392 -0.0546
 3447SOL    HW111941   0.332   3.434   0.703 -0.4186 -0.8034 -0.3705
 3447SOL    HW211942   0.404   3.452   0.848  0.9111  0.0209 -1.1120
 3448SOL     OW11943   3.195   5.036   1.662 -0.0060  0.5121 -0.6364
 3448SOL    HW111944   3.264   5.096   1.703 -0.2428 -1.0547  2.3147
 3448SOL    HW211945   3.226   5.006   1.572  1.6381  2.3764 -0.7562
 3449SOL     OW11946   1.194   1.520   4.411  0.1728  0.0018  0.2047
 3449SOL    HW111947   1.266   1.487   4.351  1.5993  3.1973 -0.0151
 3449SOL    HW211948   1.111   1.536   4.357  0.4954  0.0131 -0.2935
 3450SOL     OW11949   1.967   6.008   1.032  0.0274 -0.5300 -0.0088
 3450SOL    HW111950   2.052   5.979   0.989  0.7851 -0.5171  1.3981
 3450SOL    HW211951   1.964   6.108   1.036 -1.1252 -0.4421 -2.0556
 3451SOL     OW11952   4.635   1.928   2.011 -0.4921 -0.1582 -0.5364
 3451SOL    HW111953   4.536   1.917   2.008 -0.3799 -1.4015 -0.0156
 3451SOL    HW211954   4.673   1.909   1.921 -0.6402 -0.5495 -0.5160
 3452SOL     OW11955   3.147   4.042   6.599 -0.5826 -0.3433 -0.4748
 3452SOL    HW111956   3.236   4.033   6.643  0.5193  1.0144 -2.2887
 3452SOL    HW211957   3.081   4.076   6.666  0.6877  0.3206  0.4953
 3453SOL     OW11958   6.896   5.412   1.424  0.2062 -0.7290 -0.0175
 3453SOL    HW111959   6.813   5.364   1.397 -0.1966  0.3387 -0.7368
 3453SOL    HW211960   6.942   5.362   1.498 -0.8455 -1.5459  0.0911
 3454SOL     OW11961   3.926   4.525   0.195  0.0027  0.3348 -0.0156
 3454SOL    HW111962   3.845   4.523   0.253 -0.0386 -0.2207 -0.0891
 3454SOL    HW211963   3.998   4.577   0.241 -0.7366  1.7597 -0.4257
 3455SOL     OW11964   0.983   5.161   3.551  0.4473  0.0848 -0.0372
 3455SOL    HW111965   0.981   5.214   3.466  2.2254  0.9617  0.4347
 3455SOL    HW211966   1.043   5.205   3.617 -0.7950 -0.6507  1.6609
 3456SOL     OW11967   2.379   0.298   5.574 -0.3830 -0.6447  0.2054
 3456SOL    HW111968   2.452   0.363   5.551 -0.5706  0.0747  1.5453
 3456SOL    HW211969   2.370   0.291   5.673  0.1559 -3.3515  0.1306
 3457SOL     OW11970   4.071   1.832   2.812  0.3654  0.2040  0.2730
 3457SOL    HW111971   4.028   1.744   2.833  0.2862  0.4972  1.3667
 3457SOL    HW211972   4.036   1.902   2.874  0.5093  0.9958 -0.5164
 3458SOL     OW11973   5.455   5.574   6.621  0.4839 -0.0407  0.5499
 3458SOL    HW111974   5.503   5.491   6.651  1.5423 -0.1091 -1.1926
 3458SOL    HW211975   5.491   5.653   6.671  1.0068 -0.3645  0.6909
 3459SOL     OW11976   3.885   1.211   3.790  0.5977  0.1568  0.4295
 3459SOL    HW111977   3.913   1.248   3.702 -1.2635 -0.8189 -0.6044
 3459SOL    HW211978   3.920   1.118   3.800 -2.0484 -1.0749 -0.8734
 3460SOL     OW11979   4.624   2.661   1.498 -0.3481 -0.1823  0.0120
 3460SOL    HW111980   4.614   2.597   1.421  1.2083 -1.7608  1.0344
 3460SOL    HW211981   4.535   2.675   1.541 -0.5098 -3.3970  1.0083
 3461SOL     OW11982   4.739   1.788   6.664  0.6350 -0.1773 -0.1803
 3461SOL    HW111983   4.790   1.755   6.743  0.7071  2.7892  1.1598
 3461SOL    HW211984   4.644   1.758   6.670  0.9980 -1.2828  0.1786
 3462SOL     OW11985   1.388   4.484   5.612  0.3945 -0.0006 -0.1196
 3462SOL    HW111986   1.473   4.493   5.560  0.5189  0.3936  0.1548
 3462SOL    HW211987   1.391   4.542   5.693  0.1791 -0.5738  0.3120
 3463SOL     OW11988   0.221   5.175   6.726  0.2713  0.1577 -0.0423
 3463SOL    HW111989   0.194   5.264   6.764  1.3012  0.3966  0.1577
 3463SOL    HW211990   0.277   5.127   6.793 -0.0173 -0.5202 -0.2799
 3464SOL     OW11991   2.853   5.012   4.308  1.0093  0.3548  0.2757
 3464SOL    HW111992   2.944   4.971   4.309  1.0027  0.2153 -1.7686
 3464SOL    HW211993   2.839   5.062   4.223 -1.5803 -1.4381 -0.4806
 3465SOL     OW11994   6.519   3.606   4.863  0.2072  0.4127 -0.3089
 3465SOL    HW111995   6.552   3.555   4.942  0.3382 -0.2841 -0.7972
 3465SOL    HW211996   6.573   3.580   4.782  0.2573  1.3080 -0.5782
 3466SOL     OW11997   0.481   0.207   5.694 -0.6052  0.2413 -0.1170
 3466SOL    HW111998   0.528   0.190   5.607 -1.9656  1.4480 -1.1108
 3466SOL    HW211999   0.451   0.120   5.733  1.9096 -0.5302  0.2917
 3467SOL     OW12000   6.668   5.726   6.995 -0.2360 -0.4059 -0.1229
 3467SOL    HW112001   6.729   5.798   6.961  1.4357 -1.4349  0.5527
 3467SOL    HW212002   6.648   5.742   7.092 -0.8932 -0.1933 -0.2872
 3468SOL     OW12003   0.595   3.031   4.529  0.6539 -0.1008  0.1987
 3468SOL    HW112004   0.496   3.045   4.524  0.8546  1.0467 -0.8423
 3468SOL    HW212005   0.629   3.069   4.615  0.1631 -0.7303  0.6819
 3469SOL     OW12006   3.689   7.016   3.044  0.2028  0.3839 -0.6149
 3469SOL    HW112007   3.670   6.935   2.988  1.6296  0.0114 -0.6051
 3469SOL    HW212008   3.661   7.098   2.994  0.7637  0.0128 -1.5768
 3470SOL     OW12009   0.237   3.632   6.910  0.5150 -0.3720 -0.0571
 3470SOL    HW112010   0.220   3.644   6.812 -0.7397 -1.7776 -0.0479
 3470SOL    HW212011   0.225   3.536   6.935  0.5012  0.0090  1.5283
 3471SOL     OW12012   4.677   1.673   1.378 -0.0539  0.4284 -0.4719
 3471SOL    HW112013   4.624   1.590   1.398  1.2690 -0.1937  0.6070
 3471SOL    HW212014   4.759   1.675   1.435  0.3550  2.0968 -1.0598
 3472SOL     OW12015   6.596   2.988   5.593 -0.1376 -0.3131 -0.4300
 3472SOL    HW112016   6.657   2.981   5.673  2.2010  0.0457 -2.0711
 3472SOL    HW212017   6.548   2.901   5.580  1.1569 -1.1406  0.1116
 3473SOL     OW12018   4.008   1.023   3.179 -0.6518  0.4258 -0.1287
 3473SOL    HW112019   4.072   1.039   3.103  1.4157 -0.5922  1.2939
 3473SOL    HW212020   3.948   0.947   3.155  1.5442 -1.4870  0.0451
 3474SOL     OW12021   3.478   1.474   4.015 -0.1785  0.4805  0.0458
 3474SOL    HW112022   3.433   1.472   3.925  2.5913  1.6158 -1.4566
 3474SOL    HW212023   3.570   1.437   4.007 -0.2907 -0.5914  2.7553
 3475SOL     OW12024   5.786   3.556   4.052  0.0068  0.0426  0.0924
 3475SOL    HW112025   5.762   3.653   4.052  1.4985  0.5645  3.6761
 3475SOL    HW212026   5.850   3.538   3.977 -3.6642  0.6538 -3.5107
 3476SOL     OW12027   5.076   4.067   3.646 -0.2016  0.3021 -0.3116
 3476SOL    HW112028   5.141   4.130   3.602 -0.6742  0.6350 -0.5406
 3476SOL    HW212029   5.078   4.081   3.745  0.7259 -0.3132 -0.2268
 3477SOL     OW12030   2.398   0.309   2.926  0.3366 -0.2155  0.2908
 3477SOL    HW112031   2.360   0.348   3.009 -2.5232 -0.6273 -0.6868
 3477SOL    HW212032   2.470   0.244   2.949  1.3415  1.4832  2.2246
 3478SOL     OW12033   5.288   1.283   6.288  0.3872  0.0787 -0.3173
 3478SOL    HW112034   5.295   1.343   6.209  1.6937 -1.0741 -1.1201
 3478SOL    HW212035   5.335   1.324   6.366  1.1220  0.1812 -0.8091
 3479SOL     OW12036   1.055   5.563   2.072  0.1444  0.6340  0.1774
 3479SOL    HW112037   1.151   5.580   2.047 -0.3057  2.2183 -0.5552
 3479SOL    HW212038   1.029   5.624   2.147 -0.9491  1.9517 -1.2045
 3480SOL     OW12039   6.789   1.962   0.954  0.1898  0.2204 -0.2116
 3480SOL    HW112040   6.802   2.038   0.891  2.5402  0.3636  0.3637
 3480SOL    HW212041   6.749   1.996   1.040 -2.0010  0.1891 -1.1517
 3481SOL     OW12042   0.460   5.778   1.455 -0.3963  0.5202  0.3807
 3481SOL    HW112043   0.528   5.733   1.514  1.1445  3.1654  0.7897
 3481SOL    HW212044   0.369   5.767   1.495  0.2062 -0.3524  1.5850
 3482SOL     OW12045   6.935   6.884   0.454  0.2032 -0.2193 -0.4660
 3482SOL    HW112046   6.930   6.790   0.422 -3.6689  0.1443 -1.4420
 3482SOL    HW212047   6.893   6.891   0.545 -1.9952  0.8136 -1.4655
 3483SOL     OW12048   0.381   0.655   1.007 -0.1061 -0.0534 -0.1493
 3483SOL    HW112049   0.385   0.741   0.956 -0.5418  0.9820  1.4841
 3483SOL    HW212050   0.471   0.633   1.045  0.9728 -2.3357 -3.5924
 3484SOL     OW12051   0.043   5.675   3.483  0.1247  0.1415  0.3556
 3484SOL    HW112052  -0.039   5.653   3.536 -0.4847  0.6730 -0.3269
 3484SOL    HW212053   0.123   5.634   3.525 -0.4148  0.1094  1.3787
 3485SOL     OW12054   5.713   1.238   5.590  0.0980 -0.5117 -0.3846
 3485SOL    HW112055   5.644   1.168   5.601  1.6062 -1.9196  0.5881
 3485SOL    HW212056   5.732   1.281   5.678  1.4841 -1.2039 -0.3070
 3486SOL     OW12057   5.081   5.986   5.853  0.0071 -0.2325 -0.1119
 3486SOL    HW112058   5.023   6.011   5.775  0.2727  0.1952 -0.1769
 3486SOL    HW212059   5.175   6.013   5.835 -0.3379  2.4694  1.4417
 3487SOL     OW12060   5.238   2.180   6.701 -0.1068  0.1751  0.2528
 3487SOL    HW112061   5.142   2.190   6.674 -0.1286 -0.1614  0.1937
 3487SOL    HW212062   5.244   2.177   6.801 -0.2196 -0.3529  0.2463
 3488SOL     OW12063   1.937   2.035   3.329  0.6244 -0.9032  0.1519
 3488SOL    HW112064   1.863   2.053   3.394  0.1388 -0.7347 -0.4350
 3488SOL    HW212065   2.024   2.058   3.370  0.1492  1.5843 -0.0828
 3489SOL     OW12066   1.529   4.612   0.704  0.0763  0.9260 -0.1760
 3489SOL    HW112067   1.568   4.573   0.620  0.4916 -0.8953  0.8066
 3489SOL    HW212068   1.483   4.540   0.755  0.3723  1.8667  1.4747
 3490SOL     OW12069   4.082   3.170   0.380 -0.1274  0.5362 -0.4242
 3490SOL    HW112070   4.000   3.149   0.432 -1.3240  2.5057 -1.3741
 3490SOL    HW212071   4.126   3.251   0.418  1.6863 -0.7436  0.3413
 3491SOL     OW12072   4.653   3.380   3.970  0.2260  0.0229  0.2559
 3491SOL    HW112073   4.661   3.457   3.906  0.4508 -0.7352 -0.6580
 3491SOL    HW212074   4.681   3.410   4.061  1.2507  0.7824 -0.2715
 3492SOL     OW12075   2.223   0.148   0.342 -0.5986  0.0833  0.0522
 3492SOL    HW112076   2.162   0.224   0.317 -1.4822 -0.6518 -0.0808
 3492SOL    HW212077   2.193   0.065   0.296  0.2579 -0.3926  0.3313
 3493SOL     OW12078   3.110   1.727   0.777  0.3071  0.2722  0.1974
 3493SOL    HW112079   3.209   1.731   0.764  0.0404 -0.6332 -2.8085
 3493SOL    HW212080   3.090   1.721   0.875  3.1853  0.4451  0.8967
 3494SOL     OW12081   1.427   0.728   6.925  0.2555  0.5190 -0.0074
 3494SOL    HW112082   1.344   0.784   6.923 -0.1626 -0.1026 -2.1582
 3494SOL    HW212083   1.423   0.660   6.852  1.5957 -1.1241  1.3612
 3495SOL     OW12084   3.430   1.128   5.835  0.5732 -0.0277 -0.1194
 3495SOL    HW112085   3.404   1.052   5.894  1.3878 -1.1320 -1.1244
 3495SOL    HW212086   3.467   1.092   5.749 -1.2842  1.5076 -1.6645
 3496SOL     OW12087   2.686   5.577   0.842  0.1400 -0.3511 -0.4883
 3496SOL    HW112088   2.679   5.590   0.743 -2.6029 -0.4354 -0.3921
 3496SOL    HW212089   2.632   5.497   0.869  0.3120  0.0375  1.1431
 3497SOL     OW12090   6.494   3.503   3.288 -0.4551 -0.2275  0.0146
 3497SOL    HW112091   6.423   3.441   3.254  0.7811 -0.9756 -1.3037
 3497SOL    HW212092   6.566   3.512   3.219  0.0144  1.7014  0.6964
 3498SOL     OW12093   6.825   2.343   3.782  0.3026  0.6362 -0.2085
 3498SOL    HW112094   6.841   2.353   3.684  0.2565 -3.2579 -0.7832
 3498SOL    HW212095   6.871   2.261   3.815 -0.5029  1.2922  2.8654
 3499SOL     OW12096   4.228   2.030   2.655 -0.8864 -0.0287  0.5568
 3499SOL    HW112097   4.181   1.957   2.704 -1.2754  0.5560  1.0709
 3499SOL    HW212098   4.165   2.107   2.641 -0.3561  0.3894  0.4281
 3500SOL     OW12099   2.396   5.760   1.486 -0.0425  0.7510 -0.2831
 3500SOL    HW112100   2.384   5.664   1.461  2.8209  0.6935 -1.9041
 3500SOL    HW212101   2.323   5.814   1.446 -1.2624 -0.6396 -0.0008
 3501SOL     OW12102   1.258   4.759   5.692  0.1597  0.0133  0.3297
 3501SOL    HW112103   1.303   4.725   5.610 -2.1656 -0.2425 -0.9314
 3501SOL    HW212104   1.189   4.694   5.722 -1.0667  1.4364  0.7130
 3502SOL     OW12105   4.423   0.588   0.991  0.2680  0.0971  0.6153
 3502SOL    HW112106   4.366   0.622   1.066  0.2050 -0.7677  0.9594
 3502SOL    HW212107   4.475   0.508   1.021  0.7356  0.1314 -0.0721
 3503SOL     OW12108   0.959   6.665   6.015  0.3992 -0.0365 -0.2903
 3503SOL    HW112109   0.942   6.630   6.107 -0.0662 -0.4888 -0.5369
 3503SOL    HW212110   1.044   6.717   6.013  0.3607  0.0538  0.4159
 3504SOL     OW12111   6.196   6.496   2.742 -0.3823  0.2773 -0.2688
 3504SOL    HW112112   6.157   6.404   2.747  0.9321 -0.5314 -2.8528
 3504SOL    HW212113   6.124   6.564   2.759 -2.0451 -1.2050 -1.0641
 3505SOL     OW12114   1.220   0.768   3.188  0.3095  0.1658 -0.2724
 3505SOL    HW112115   1.304   0.737   3.230 -0.4846 -0.0719  1.2057
 3505SOL    HW212116   1.240   0.808   3.098  1.6191 -2.5086 -1.2578
 3506SOL     OW12117   3.569   4.336   0.582 -0.2562 -0.2424  0.4711
 3506SOL    HW112118   3.471   4.348   0.563 -0.1232  0.5935  0.2565
 3506SOL    HW212119   3.599   4.408   0.644 -0.1201 -1.4571  1.8614
 3507SOL     OW12120   3.954   6.572   0.193  0.1453  0.1111 -0.1128
 3507SOL    HW112121   3.953   6.573   0.093  1.6080 -0.3694 -0.1563
 3507SOL    HW212122   3.987   6.660   0.227  0.2275  0.0649 -0.0725
 3508SOL     OW12123   2.475   3.470   0.365 -0.6814 -0.2478  0.3488
 3508SOL    HW112124   2.544   3.427   0.425 -1.2262 -2.1044 -0.2723
 3508SOL    HW212125   2.459   3.564   0.395  1.3244 -0.1066  1.1762
 3509SOL     OW12126   4.136   2.825   5.308 -0.2975  0.0667  0.2507
 3509SOL    HW112127   4.187   2.881   5.373  2.7266 -2.8990  0.7225
 3509SOL    HW212128   4.157   2.855   5.215 -0.9851  1.3898  0.4877
 3510SOL     OW12129   6.615   5.874   1.109  0.0935 -0.2092  0.0987
 3510SOL    HW112130   6.623   5.973   1.118  0.4373 -0.3308  1.2933
 3510SOL    HW212131   6.609   5.832   1.199  1.0041 -1.3627 -0.3410
 3511SOL     OW12132   6.271   1.194   6.468  0.3988  0.6499 -0.4463
 3511SOL    HW112133   6.177   1.196   6.435 -0.5514  0.1995  2.0212
 3511SOL    HW212134   6.314   1.108   6.442 -0.6653 -0.1456  0.3196
 3512SOL     OW12135   1.717   4.801   2.129  0.1081 -0.2060 -0.0320
 3512SOL    HW112136   1.787   4.732   2.148  0.8750  0.2420 -1.0921
 3512SOL    HW212137   1.757   4.892   2.139 -0.1356  0.0538 -1.2268
 3513SOL     OW12138   3.887   0.205   2.073  0.4280  0.0659  0.0315
 3513SOL    HW112139   3.794   0.171   2.061  0.6149 -0.8292  0.9507
 3513SOL    HW212140   3.950   0.147   2.020  0.8296 -1.5801  2.1531
 3514SOL     OW12141   0.727   0.156   4.438 -0.4151 -0.2861  0.0216
 3514SOL    HW112142   0.791   0.090   4.478 -0.0254 -1.0376 -1.7607
 3514SOL    HW212143   0.648   0.107   4.402 -1.8243  0.5938  1.7930
 3515SOL     OW12144   1.090   2.300   4.741 -0.0630 -0.2140  0.3841
 3515SOL    HW112145   1.036   2.313   4.658  0.1490  1.0824  0.4246
 3515SOL    HW212146   1.187   2.288   4.716 -0.2865 -2.2083  0.3307
 3516SOL     OW12147   5.387   6.316   6.538 -0.9295  0.1551 -0.1321
 3516SOL    HW112148   5.336   6.372   6.604 -0.2942  1.3870 -0.6550
 3516SOL    HW212149   5.342   6.319   6.449 -1.1627 -0.5929 -0.0507
 3517SOL     OW12150   4.600   1.345   3.756 -0.4482 -0.5725 -0.0237
 3517SOL    HW112151   4.555   1.434   3.748 -0.0130 -0.2982  0.5307
 3517SOL    HW212152   4.576   1.289   3.676  0.2116  0.4629 -0.9816
 3518SOL     OW12153   2.729   4.822   5.241 -0.2287  0.1790  0.0092
 3518SOL    HW112154   2.765   4.915   5.250  0.0406 -0.0107  0.9914
 3518SOL    HW212155   2.629   4.825   5.238 -0.2203  0.5021  0.0207
 3519SOL     OW12156   0.735   2.351   1.784 -0.0013 -0.5958  0.0741
 3519SOL    HW112157   0.805   2.381   1.850 -0.6719 -0.1133  0.5777
 3519SOL    HW212158   0.710   2.427   1.725 -0.6543 -0.5598  0.3973
 3520SOL     OW12159   0.384   2.540   3.509 -0.3945 -0.4321 -0.7537
 3520SOL    HW112160   0.374   2.515   3.605  0.0635 -1.3929 -0.9435
 3520SOL    HW212161   0.468   2.592   3.496  0.9783 -2.5603 -1.0092
 3521SOL     OW12162   4.196   2.170   4.995  0.4177  0.3213 -0.6591
 3521SOL    HW112163   4.216   2.236   5.068  1.3791  0.4354 -1.0151
 3521SOL    HW212164   4.121   2.204   4.939 -0.2380  0.2999  0.1865
 3522SOL     OW12165   4.270   6.839   4.217 -0.1269  0.2750  0.2933
 3522SOL    HW112166   4.195   6.773   4.231 -0.3540  0.0501 -1.6765
 3522SOL    HW212167   4.232   6.931   4.212 -0.0892  0.3157  0.7109
 3523SOL     OW12168   0.352   0.106   0.878 -0.1260  0.0712 -0.1918
 3523SOL    HW112169   0.260   0.072   0.899  0.3728 -1.3958 -0.2899
 3523SOL    HW212170   0.346   0.169   0.800 -1.1092  0.4028  0.1287
 3524SOL     OW12171   2.382   6.084   3.145  0.5440 -0.0483  0.7253
 3524SOL    HW112172   2.421   6.161   3.095 -0.6804  1.4660  1.9761
 3524SOL    HW212173   2.363   6.113   3.239  0.6941 -2.1156  1.4283
 3525SOL     OW12174   4.962   0.612   5.810  0.5604  0.8314  0.1800
 3525SOL    HW112175   5.004   0.573   5.728  1.8986  0.6939  0.8944
 3525SOL    HW212176   4.935   0.706   5.792 -0.1637  0.4561 -0.7349
 3526SOL     OW12177   4.221   6.352   6.086 -0.5448 -0.2887 -0.0244
 3526SOL    HW112178   4.278   6.430   6.110  0.7947 -1.2665  0.0813
 3526SOL    HW212179   4.205   6.351   5.987 -0.0744 -0.2045 -0.1019
 3527SOL     OW12180   4.736   5.066   2.657 -0.1308  0.6892  0.3682
 3527SOL    HW112181   4.798   4.992   2.678  0.0027  0.4412 -0.7948
 3527SOL    HW212182   4.645   5.045   2.693 -0.6415 -1.0862 -1.7183
 3528SOL     OW12183   5.179   3.329   0.996 -0.0502  0.2508  0.1640
 3528SOL    HW112184   5.088   3.360   1.021 -0.7621 -2.0678  0.6747
 3528SOL    HW212185   5.181   3.303   0.899 -0.2184 -0.6020  0.3827
 3529SOL     OW12186   3.913   4.088   6.962 -0.5369 -0.1609 -0.6139
 3529SOL    HW112187   4.002   4.064   7.003 -0.3454  1.5032  0.0481
 3529SOL    HW212188   3.846   4.018   6.987  0.3154 -0.8463 -0.1313
 3530SOL     OW12189   6.304   3.069   4.015 -0.1103 -0.0685 -0.3503
 3530SOL    HW112190   6.367   3.082   4.091 -0.6308  0.0280  0.0649
 3530SOL    HW212191   6.291   2.971   3.999  0.2369 -0.0884 -0.5142
 3531SOL     OW12192   4.350   0.455   6.457 -0.6910 -0.0221 -0.1021
 3531SOL    HW112193   4.269   0.460   6.514 -0.9298 -0.6972 -0.3745
 3531SOL    HW212194   4.421   0.402   6.503 -1.1249 -1.1451 -0.7052
 3532SOL     OW12195   2.258   4.825   0.597 -0.1503 -0.4942  0.1366
 3532SOL    HW112196   2.179   4.885   0.589 -0.2471 -0.6902 -0.3650
 3532SOL    HW212197   2.262   4.787   0.690 -0.4627 -0.2377  0.2543
 3533SOL     OW12198   0.194   2.211   3.407  0.2385 -0.1478  0.1274
 3533SOL    HW112199   0.215   2.166   3.493  0.7517 -0.7256 -0.2916
 3533SOL    HW212200   0.214   2.149   3.331 -0.3879  0.2842 -0.3997
 3534SOL     OW12201   6.816   6.542   2.561  0.4879  0.2908 -0.2066
 3534SOL    HW112202   6.851   6.614   2.622  1.2004  0.3243 -0.6408
 3534SOL    HW212203   6.813   6.576   2.467  0.2666 -0.0535 -0.3268
 3535SOL     OW12204   6.028   3.144   6.565 -0.1112 -0.1262  0.3096
 3535SOL    HW112205   6.042   3.045   6.567  1.0249  0.0219  0.4358
 3535SOL    HW212206   6.089   3.184   6.496  0.5678  0.6363  1.3241
 3536SOL     OW12207   2.757   2.943   3.815 -0.2005  0.1855 -0.6977
 3536SOL    HW112208   2.791   2.907   3.902  0.3880  0.6292 -0.7344
 3536SOL    HW212209   2.693   3.018   3.833  0.6930  0.9625 -0.6370
 3537SOL     OW12210   2.490   1.215   4.022 -0.3637 -0.2564  0.3522
 3537SOL    HW112211   2.451   1.192   4.111  0.3009 -0.0487  0.7070
 3537SOL    HW212212   2.512   1.130   3.973 -1.7578 -0.3800 -0.0923
 3538SOL     OW12213   3.993   4.858   2.417 -0.4598 -0.5522 -0.1736
 3538SOL    HW112214   3.916   4.823   2.363 -0.3268 -1.9948  0.5218
 3538SOL    HW212215   4.077   4.850   2.363 -0.7382  0.8500 -0.8633
 3539SOL     OW12216   3.074   3.483   0.183  0.0842  0.1306  0.4353
 3539SOL    HW112217   3.106   3.526   0.268  1.5646 -1.3858  0.7235
 3539SOL    HW212218   3.078   3.548   0.108  2.5264  0.4794  0.7914
 3540SOL     OW12219   5.021   2.355   4.496 -0.0757 -0.6337  0.8256
 3540SOL    HW112220   4.984   2.347   4.403  0.1660  1.9339  0.4272
 3540SOL    HW212221   4.953   2.323   4.562 -1.4636  0.2580 -0.1142
 3541SOL     OW12222   3.515   2.292   5.484 -0.1553 -0.4195 -0.6486
 3541SOL    HW112223   3.571   2.372   5.505 -0.8661 -0.5477  2.0910
 3541SOL    HW212224   3.570   2.209   5.496 -0.3535 -0.4622 -0.0028
 3542SOL     OW12225   4.966   6.256   2.051 -0.1851 -0.0638 -0.2343
 3542SOL    HW112226   5.028   6.266   1.973  1.6825 -1.6140  0.9613
 3542SOL    HW212227   4.985   6.169   2.098 -1.1906  0.8356  1.9774
 3543SOL     OW12228   2.794   6.501   0.470  0.3368 -0.5409  0.4104
 3543SOL    HW112229   2.792   6.531   0.566  0.3492 -0.9032  0.5276
 3543SOL    HW212230   2.885   6.517   0.432  0.2774 -0.2220  0.4031
 3544SOL     OW12231   5.285   0.548   6.821  0.5496 -0.4111 -0.1590
 3544SOL    HW112232   5.207   0.577   6.876  1.2732 -0.1917  0.7645
 3544SOL    HW212233   5.283   0.597   6.733 -0.1181 -0.1039  0.0194
 3545SOL     OW12234   0.749   3.402   2.282 -0.4779 -0.0993 -0.5229
 3545SOL    HW112235   0.682   3.462   2.238 -1.2573  1.0110  1.9801
 3545SOL    HW212236   0.770   3.325   2.222 -3.1541  0.1142 -1.8609
 3546SOL     OW12237   6.777   3.594   4.524 -0.5477 -0.1898  0.2266
 3546SOL    HW112238   6.816   3.541   4.450 -0.8353 -0.0204 -0.0489
 3546SOL    HW212239   6.690   3.554   4.553  0.0241 -0.8177  1.1313
 3547SOL     OW12240   0.481   2.875   1.286  0.0885  0.3883  0.2562
 3547SOL    HW112241   0.384   2.890   1.304  0.0356 -1.1456  1.5116
 3547SOL    HW212242   0.531   2.870   1.373  0.6759 -2.3233 -0.1331
 3548SOL     OW12243   4.761   5.104   4.839  0.0410 -0.5580  0.6381
 3548SOL    HW112244   4.722   5.189   4.802  0.5247 -0.4123  0.4517
 3548SOL    HW212245   4.819   5.126   4.917  2.2364 -0.4033 -0.9471
 3549SOL     OW12246   1.361   0.002   3.978 -0.3388  0.3930 -0.5352
 3549SOL    HW112247   1.447  -0.046   3.995 -0.6197  0.6055  1.8761
 3549SOL    HW212248   1.379   0.099   3.963 -0.1439  0.4848  0.2366
 3550SOL     OW12249   0.369   6.761   0.852  0.0259  0.0875  0.2488
 3550SOL    HW112250   0.374   6.669   0.891 -2.8787  0.1638  1.0194
 3550SOL    HW212251   0.394   6.758   0.755  1.3396 -1.2321  0.6031
 3551SOL     OW12252   3.745   0.153   0.441  0.3026 -0.1493  0.3967
 3551SOL    HW112253   3.720   0.182   0.533 -0.3486 -0.1538  0.2304
 3551SOL    HW212254   3.756   0.234   0.383  0.7139 -0.1463  0.4783
 3552SOL     OW12255   5.315   6.321   4.830 -0.1469 -0.1645 -0.7698
 3552SOL    HW112256   5.225   6.351   4.797 -0.0727 -0.1182 -0.9303
 3552SOL    HW212257   5.353   6.391   4.890 -1.4019 -1.3243  1.5121
 3553SOL     OW12258   2.224   2.924   0.215 -0.1352 -0.3512 -0.8370
 3553SOL    HW112259   2.305   2.871   0.242  0.1850  0.0892 -0.9143
 3553SOL    HW212260   2.254   3.009   0.170 -0.6306  0.2193 -0.1119
 3554SOL     OW12261   3.205   5.428   0.512  0.5208 -0.3429 -0.1533
 3554SOL    HW112262   3.138   5.376   0.565 -0.8887  1.2142 -0.3051
 3554SOL    HW212263   3.296   5.390   0.526 -0.2657 -2.0235  0.7219
 3555SOL     OW12264   6.369   3.451   0.100 -0.3826  0.4186  0.2574
 3555SOL    HW112265   6.395   3.452   0.004 -0.8821  0.7634  0.1186
 3555SOL    HW212266   6.366   3.545   0.135 -0.6364  0.3271  0.4852
 3556SOL     OW12267   3.231   0.165   6.777 -0.4044  0.9415 -0.1449
 3556SOL    HW112268   3.193   0.129   6.863 -0.7935  0.7458 -0.3952
 3556SOL    HW212269   3.242   0.264   6.785 -0.8600  0.9877 -0.0198
 3557SOL     OW12270   4.634   5.137   1.929 -0.2269 -0.3121 -0.7836
 3557SOL    HW112271   4.612   5.067   1.861  0.7646 -0.6729 -0.7545
 3557SOL    HW212272   4.723   5.177   1.909  0.3638 -0.8460  0.6169
 3558SOL     OW12273   1.905   5.516   0.096 -0.1775 -0.0885 -0.7648
 3558SOL    HW112274   1.948   5.469   0.019  1.1143  0.6461 -0.5138
 3558SOL    HW212275   1.950   5.604   0.112  0.4363 -0.7480  1.6082
 3559SOL     OW12276   2.714   3.647   0.348  0.1716  0.0046 -0.4841
 3559SOL    HW112277   2.730   3.708   0.426 -0.3354  1.6430 -1.6264
 3559SOL    HW212278   2.762   3.560   0.365 -0.3829  0.0733  1.8888
 3560SOL     OW12279   0.769   1.829   2.127 -0.4325  0.1419 -0.0166
 3560SOL    HW112280   0.740   1.865   2.039 -0.8479 -1.3253 -0.5054
 3560SOL    HW212281   0.766   1.729   2.125  0.9267  0.0364  1.1910
 3561SOL     OW12282   6.735   4.622   4.999  0.1201  0.1960 -0.5174
 3561SOL    HW112283   6.675   4.553   4.957  1.7979 -0.3981 -2.0794
 3561SOL    HW212284   6.829   4.589   4.997  0.6332  1.4568  1.1203
 3562SOL     OW12285   5.551   4.460   2.376  0.5277 -0.4370  0.1948
 3562SOL    HW112286   5.489   4.418   2.310  0.6439 -0.4184  0.0702
 3562SOL    HW212287   5.507   4.467   2.465  0.9228 -1.9432  0.5361
 3563SOL     OW12288   3.896   5.276   3.395  0.1762 -0.3523 -0.4703
 3563SOL    HW112289   3.817   5.301   3.341  0.1678 -0.2865 -0.4275
 3563SOL    HW212290   3.867   5.221   3.474  0.1282  0.0288 -0.2233
 3564SOL     OW12291   6.939   6.123   3.856  0.2518  0.3448 -0.0057
 3564SOL    HW112292   6.950   6.151   3.760 -1.0443  1.0836  0.0387
 3564SOL    HW212293   6.910   6.028   3.859 -0.7938  0.6359 -0.4123
 3565SOL     OW12294   0.387   2.855   3.833  0.2107 -0.3761 -0.1228
 3565SOL    HW112295   0.463   2.799   3.800  1.0254 -0.0336  1.0928
 3565SOL    HW212296   0.404   2.880   3.928 -1.3875 -0.1991  0.1377
 3566SOL     OW12297   5.539   4.361   3.517  0.5566  0.0576 -0.1888
 3566SOL    HW112298   5.607   4.329   3.451  1.7611 -0.5515  1.2864
 3566SOL    HW212299   5.581   4.369   3.608 -0.3580  3.3011  0.1008
 3567SOL     OW12300   6.900   3.448   4.983 -0.2530  0.4942  0.1185
 3567SOL    HW112301   6.884   3.475   4.888  1.2593  0.1994 -0.2381
 3567SOL    HW212302   6.916   3.350   4.988 -0.3519  0.5019  0.6912
 3568SOL     OW12303   4.330   2.562   6.298 -0.2763  0.1219  0.6181
 3568SOL    HW112304   4.405   2.614   6.258 -2.1964  3.0851  0.5798
 3568SOL    HW212305   4.350   2.464   6.292  3.0201  0.7464 -0.3565
 3569SOL     OW12306   3.044   3.842   5.737 -0.4179 -0.2791  0.0107
 3569SOL    HW112307   3.117   3.905   5.766 -1.5438  1.0171  0.1374
 3569SOL    HW212308   2.980   3.828   5.813 -1.2524  0.0107 -0.6227
 3570SOL     OW12309   0.058   5.718   0.068  0.0270  0.2288 -0.1539
 3570SOL    HW112310   0.015   5.675   0.148 -1.5919  0.5313 -0.8236
 3570SOL    HW212311  -0.013   5.755   0.008  1.2521  0.7641 -1.3196
 3571SOL     OW12312   6.413   5.125   1.970 -1.0534  0.5903  0.0100
 3571SOL    HW112313   6.408   5.064   2.049 -0.5969  0.1960 -0.2592
 3571SOL    HW212314   6.352   5.092   1.898 -0.2009 -0.0304 -0.4500
 3572SOL     OW12315   1.095   3.849   6.449  0.1163  0.5443  0.3203
 3572SOL    HW112316   1.145   3.800   6.521 -1.3037 -1.2201  0.1867
 3572SOL    HW212317   1.015   3.894   6.490 -0.0046  0.5808  0.0426
 3573SOL     OW12318   4.863   1.779   3.107  0.0342 -0.0780 -0.3811
 3573SOL    HW112319   4.879   1.867   3.063  2.3363  0.2909  1.0279
 3573SOL    HW212320   4.927   1.711   3.070 -1.3729 -1.0757 -1.0873
 3574SOL     OW12321   1.098   3.307   2.176 -0.8045  0.5368  0.1823
 3574SOL    HW112322   1.155   3.285   2.255 -0.2445  0.7587 -0.1539
 3574SOL    HW212323   1.061   3.400   2.186 -3.0433 -0.4160  1.5268
 3575SOL     OW12324   0.774   1.719   1.345  0.7531 -0.1601 -0.1699
 3575SOL    HW112325   0.788   1.632   1.297 -0.1210 -1.1887  1.3265
 3575SOL    HW212326   0.862   1.766   1.355  0.8305  0.7098 -3.6971
 3576SOL     OW12327   2.924   2.277   6.314 -0.3522  0.1545  0.2978
 3576SOL    HW112328   2.952   2.184   6.337 -0.1972 -0.5430 -2.4471
 3576SOL    HW212329   2.830   2.292   6.346  0.8255  0.4597  4.1365
 3577SOL     OW12330   1.674   5.739   0.312  0.3149 -0.2492  0.0430
 3577SOL    HW112331   1.616   5.817   0.289 -0.9363 -0.7087  1.4699
 3577SOL    HW212332   1.649   5.661   0.254 -1.3174 -0.7659  1.3554
 3578SOL     OW12333   6.291   1.436   0.388 -0.4935 -0.3263  0.2031
 3578SOL    HW112334   6.270   1.532   0.375 -0.2296 -0.1175  1.2834
 3578SOL    HW212335   6.278   1.387   0.301 -0.4185  0.7089 -0.4041
 3579SOL     OW12336   0.579   2.592   5.176 -0.2877  0.1736 -0.0420
 3579SOL    HW112337   0.540   2.683   5.161  0.9901  0.5536 -1.2736
 3579SOL    HW212338   0.667   2.601   5.222  0.0082 -0.4123 -0.4906
 3580SOL     OW12339   0.938   6.974   4.366  0.1780 -0.3240  0.2283
 3580SOL    HW112340   0.977   6.932   4.448  0.3851  1.7681  1.2683
 3580SOL    HW212341   0.841   6.953   4.361  0.2080 -0.6577  0.8936
 3581SOL     OW12342   6.919   1.135   2.509 -0.1158 -0.3926  0.1519
 3581SOL    HW112343   6.894   1.170   2.599  2.9964 -0.2679  1.0748
 3581SOL    HW212344   6.918   1.209   2.442 -0.2592 -0.0127  0.5750
 3582SOL     OW12345   4.911   5.688   0.260 -0.6678  0.0256  0.0354
 3582SOL    HW112346   4.891   5.765   0.321 -3.8555 -0.0667 -0.6885
 3582SOL    HW212347   4.825   5.654   0.221  1.0702 -0.8804 -3.3644
 3583SOL     OW12348   5.256   2.170   0.401 -0.1579  0.7025 -0.1682
 3583SOL    HW112349   5.166   2.137   0.374 -0.1299 -0.6219  1.2278
 3583SOL    HW212350   5.246   2.239   0.473 -0.0566  0.2520  0.2839
 3584SOL     OW12351   7.003   0.094   5.208  0.3630 -0.4983 -0.2700
 3584SOL    HW112352   6.993   0.178   5.155 -0.4159 -0.5115 -0.1656
 3584SOL    HW212353   7.009   0.118   5.305  1.1012 -0.5108 -0.3131
 3585SOL     OW12354   1.232   0.540   4.594  0.2930  0.4978  0.3799
 3585SOL    HW112355   1.268   0.485   4.518 -0.9833  0.2053 -0.0424
 3585SOL    HW212356   1.232   0.486   4.678 -0.7788 -0.1254  0.0057
 3586SOL     OW12357   4.226   4.130   3.621  0.4866 -0.5324 -0.3671
 3586SOL    HW112358   4.147   4.134   3.560  0.1192 -1.6672  0.0067
 3586SOL    HW212359   4.300   4.079   3.577  0.0953 -1.6657  0.2334
 3587SOL     OW12360   1.899   3.427   5.924  0.0064  0.4801 -0.3662
 3587SOL    HW112361   1.979   3.371   5.945 -0.0884 -0.1368 -1.5420
 3587SOL    HW212362   1.911   3.517   5.964  0.9047  0.1282  0.2038
 3588SOL     OW12363   4.717   1.826   0.027  0.0917  0.3696  0.1013
 3588SOL    HW112364   4.667   1.771   0.094 -0.6565  0.2780 -0.5214
 3588SOL    HW212365   4.752   1.768  -0.046  1.0331  0.4490  0.4816
 3589SOL     OW12366   0.394   6.417   2.743  0.1336 -0.2583 -0.1977
 3589SOL    HW112367   0.402   6.388   2.647 -2.4677 -0.3673 -0.4344
 3589SOL    HW212368   0.300   6.443   2.763  0.7190  0.2660  2.2297
 3590SOL     OW12369   2.411   3.139   0.552 -0.2837 -0.0321 -0.1660
 3590SOL    HW112370   2.501   3.103   0.528  0.1046 -0.8864  2.2708
 3590SOL    HW212371   2.420   3.236   0.576 -0.1091  0.0234 -0.4511
 3591SOL     OW12372   0.910   4.532   3.733 -0.5276 -0.7828  0.0484
 3591SOL    HW112373   1.000   4.491   3.746 -0.7363 -1.7980 -1.4723
 3591SOL    HW212374   0.887   4.531   3.636 -1.8210  0.2594  0.3203
 3592SOL     OW12375   5.905   2.504   2.244  0.4494  0.1173  0.3777
 3592SOL    HW112376   6.004   2.503   2.231  0.3078  1.1387 -1.0223
 3592SOL    HW212377   5.860   2.507   2.155 -0.8178  0.4286  1.0047
 3593SOL     OW12378   5.830   1.402   3.430  0.2720 -0.0485  0.0504
 3593SOL    HW112379   5.831   1.422   3.528  0.2028 -1.2583  0.3102
 3593SOL    HW212380   5.822   1.488   3.379  0.0879  0.5816  1.1032
 3594SOL     OW12381   3.267   1.170   2.106 -0.1679  0.2002  0.1814
 3594SOL    HW112382   3.220   1.259   2.115 -1.5483 -0.3552 -0.9959
 3594SOL    HW212383   3.365   1.185   2.105 -0.3634  1.9550 -1.5202
 3595SOL     OW12384   6.156   5.098   1.441  0.0388  0.3115  0.0699
 3595SOL    HW112385   6.209   5.022   1.405  0.0757  0.6970 -0.6946
 3595SOL    HW212386   6.063   5.067   1.462  0.9822 -0.8345  3.1166
 3596SOL     OW12387   6.422   4.634   3.089 -0.1551  0.2130 -0.1234
 3596SOL    HW112388   6.444   4.724   3.126 -0.7824 -0.2114  1.3113
 3596SOL    HW212389   6.326   4.613   3.106 -0.6159  0.1905 -2.4437
 3597SOL     OW12390   1.606   0.660   3.646  0.4339  0.3897 -0.3123
 3597SOL    HW112391   1.575   0.749   3.613 -0.6027 -0.5383 -2.0219
 3597SOL    HW212392   1.693   0.637   3.602  1.0811  0.8423  0.6896
 3598SOL     OW12393   5.446   0.374   1.879  0.1457 -0.1723  0.1522
 3598SOL    HW112394   5.506   0.295   1.890 -0.3866 -0.3605  1.8727
 3598SOL    HW212395   5.369   0.348   1.821 -0.1950 -1.0223  0.9636
 3599SOL     OW12396   5.112   3.284   4.885 -0.2427  0.3878 -0.2065
 3599SOL    HW112397   5.114   3.279   4.785 -0.3349  0.0233 -0.1915
 3599SOL    HW212398   5.162   3.207   4.924 -1.1847 -0.1208  0.0336
 3600SOL     OW12399   3.898   2.717   6.557 -0.6089 -0.4169 -0.5756
 3600SOL    HW112400   3.864   2.763   6.639  0.9267 -2.3218  1.2436
 3600SOL    HW212401   3.997   2.711   6.559 -0.4081  0.5416 -3.2438
 3601SOL     OW12402   3.699   2.279   0.374  0.2490 -0.3840 -0.2286
 3601SOL    HW112403   3.670   2.375   0.376  3.0641  0.5548  0.7524
 3601SOL    HW212404   3.719   2.249   0.467  3.5657 -0.4139 -0.8219
 3602SOL     OW12405   5.879   0.455   0.490 -0.1047  0.3283  0.6482
 3602SOL    HW112406   5.803   0.508   0.526  0.2172  0.6389  0.8802
 3602SOL    HW212407   5.965   0.490   0.527  0.1073 -0.4397  0.9061
 3603SOL     OW12408   2.157   3.272   5.315  0.0525  0.6966  0.3305
 3603SOL    HW112409   2.091   3.325   5.262 -0.8126 -0.7775 -0.1163
 3603SOL    HW212410   2.230   3.332   5.346 -0.6235  2.0443 -0.5871
 3604SOL     OW12411   6.432   5.329   4.718  0.1220  0.2180  0.5549
 3604SOL    HW112412   6.524   5.318   4.756 -0.5818 -0.8051  2.0231
 3604SOL    HW212413   6.437   5.324   4.618  1.4586 -1.6503  0.6541
 3605SOL     OW12414   0.968   0.876   1.550  0.3972  0.3302  0.4141
 3605SOL    HW112415   0.934   0.926   1.471  1.1109 -0.9109 -0.7212
 3605SOL    HW212416   0.903   0.883   1.625 -0.5333  1.1230 -0.4473
 3606SOL     OW12417   4.846   2.252   4.856  0.2324 -0.7312  0.2549
 3606SOL    HW112418   4.761   2.223   4.901  0.1766 -1.5835 -0.3778
 3606SOL    HW212419   4.837   2.240   4.757  0.5434  0.6299  0.0435
 3607SOL     OW12420   5.459   4.756   6.719 -0.1379  0.5495  0.1281
 3607SOL    HW112421   5.437   4.839   6.668  0.2495  1.3930  1.2833
 3607SOL    HW212422   5.534   4.776   6.783  0.4280 -0.8787 -0.0583
 3608SOL     OW12423   4.519   6.674   3.599 -0.1815  0.3539 -0.3544
 3608SOL    HW112424   4.501   6.676   3.501  2.7815  0.8312 -0.9827
 3608SOL    HW212425   4.483   6.757   3.641 -0.3369  0.7492 -1.2497
 3609SOL     OW12426   0.012   6.265   4.756 -0.4526 -0.7850 -0.4480
 3609SOL    HW112427  -0.032   6.299   4.673 -1.0538  2.4470  1.0026
 3609SOL    HW212428   0.107   6.295   4.757 -0.2286 -1.5016 -0.3294
 3610SOL     OW12429   0.006   5.688   5.613 -0.6366  0.2242  0.6656
 3610SOL    HW112430  -0.057   5.723   5.683 -0.8440 -0.3602  0.7746
 3610SOL    HW212431  -0.021   5.723   5.523 -0.9712  0.1762  0.7473
 3611SOL     OW12432   3.161   1.396   3.888 -0.5743 -0.1298 -0.3726
 3611SOL    HW112433   3.101   1.469   3.920  0.2079  1.4104 -2.1780
 3611SOL    HW212434   3.244   1.436   3.850  2.1174 -2.2071  2.8351
 3612SOL     OW12435   0.274   4.906   6.419  0.1673  0.8029  0.0155
 3612SOL    HW112436   0.288   4.822   6.473  0.5978 -0.2181 -1.6138
 3612SOL    HW212437   0.179   4.934   6.427 -0.1336 -0.1875  0.1263
 3613SOL     OW12438   5.662   4.130   6.124 -0.3873 -0.4131  0.4407
 3613SOL    HW112439   5.673   4.150   6.027 -3.0432  0.3445  0.1968
 3613SOL    HW212440   5.713   4.047   6.147  2.4241  0.7989 -0.9437
 3614SOL     OW12441   6.918   1.232   4.756  0.5551  0.8110  0.4852
 3614SOL    HW112442   7.006   1.280   4.748  1.8561 -1.5885 -0.7943
 3614SOL    HW212443   6.911   1.164   4.683 -0.9515 -1.2607  2.4335
 3615SOL     OW12444   3.447   0.012   6.605 -0.3321  0.2476 -0.1651
 3615SOL    HW112445   3.371   0.064   6.643  0.5925  0.8778  0.8901
 3615SOL    HW212446   3.478   0.054   6.520 -0.8890  0.2207 -0.3843
 3616SOL     OW12447   4.356   1.252   4.223  0.5670 -0.1990 -0.1651
 3616SOL    HW112448   4.453   1.238   4.242  0.4115 -1.0442  0.0363
 3616SOL    HW212449   4.305   1.249   4.309  0.5645  2.2919  0.0124
 3617SOL     OW12450   1.694   3.611   1.866 -0.1493  0.8240  0.2473
 3617SOL    HW112451   1.731   3.519   1.859  0.6230  1.2076 -0.9508
 3617SOL    HW212452   1.654   3.624   1.957  3.0690  0.5243  1.8417
 3618SOL     OW12453   5.255   2.980   4.686  0.2237  0.0670  0.0616
 3618SOL    HW112454   5.257   2.884   4.657  0.4683 -0.6974  2.4087
 3618SOL    HW212455   5.348   3.013   4.699  0.1037  0.0841  0.8906
 3619SOL     OW12456   1.194   6.806   4.891 -0.5211  0.0337 -0.1288
 3619SOL    HW112457   1.280   6.797   4.841 -1.1538 -0.0937 -1.2212
 3619SOL    HW212458   1.119   6.774   4.834 -1.2000 -0.7658  1.1533
 3620SOL     OW12459   5.663   4.358   3.757 -0.0635  0.5437  0.1078
 3620SOL    HW112460   5.643   4.262   3.780  0.7510  0.3262 -0.0470
 3620SOL    HW212461   5.756   4.380   3.786  0.0494  1.0429 -0.6149
 3621SOL     OW12462   1.775   1.377   0.554  0.1251  0.2751  0.1359
 3621SOL    HW112463   1.723   1.322   0.619 -0.5252 -0.8849 -1.3183
 3621SOL    HW212464   1.822   1.451   0.603  0.4897 -1.1530  2.0520
 3622SOL     OW12465   2.434   6.513   5.434  0.2535 -0.1851  0.2822
 3622SOL    HW112466   2.364   6.579   5.461 -0.4867 -0.1117 -1.6990
 3622SOL    HW212467   2.513   6.561   5.395  0.6985 -0.3678  0.9355
 3623SOL     OW12468   5.175   4.432   1.823 -0.1645  0.9281 -0.1668
 3623SOL    HW112469   5.140   4.522   1.800 -0.9396  0.6883  0.0355
 3623SOL    HW212470   5.215   4.390   1.741 -3.0076  0.0255 -1.2424
 3624SOL     OW12471   4.216   2.554   2.056  0.1841  0.3339 -0.3946
 3624SOL    HW112472   4.215   2.627   1.988 -0.2471 -0.2274 -0.9997
 3624SOL    HW212473   4.251   2.590   2.143  1.5382  0.8624 -1.1203
 3625SOL     OW12474   1.503   2.022   0.005  0.4781  0.4236  0.3839
 3625SOL    HW112475   1.570   1.976   0.063  0.9300  1.8972  1.0977
 3625SOL    HW212476   1.411   2.006   0.041  0.5023 -0.9363 -0.1225
 3626SOL     OW12477   0.654   3.377   0.647 -0.8758  0.3482  0.1058
 3626SOL    HW112478   0.729   3.417   0.700 -0.3752 -0.1167 -0.2365
 3626SOL    HW212479   0.592   3.449   0.618 -0.9699  0.6536  1.0193
 3627SOL     OW12480   4.330   0.683   3.214  0.0085  0.0837 -0.1843
 3627SOL    HW112481   4.303   0.646   3.303  1.0765  1.9565  0.9881
 3627SOL    HW212482   4.407   0.630   3.178  2.5108  1.8629  2.1668
 3628SOL     OW12483   0.730   4.857   3.604 -0.4133  0.5807 -0.4340
 3628SOL    HW112484   0.665   4.911   3.552 -1.9359 -0.1963  0.5930
 3628SOL    HW212485   0.689   4.830   3.691  2.0580  1.9372  1.2979
 3629SOL     OW12486   6.675   5.668   2.990  0.6332 -0.6309 -0.0961
 3629SOL    HW112487   6.711   5.675   2.897  2.1833  0.1399  0.5232
 3629SOL    HW212488   6.687   5.755   3.037 -1.8989 -0.3927  0.2587
 3630SOL     OW12489   6.445   1.006   0.398  0.3870  0.1569 -0.6467
 3630SOL    HW112490   6.450   1.035   0.302  1.4392  1.5020 -0.2062
 3630SOL    HW212491   6.512   1.057   0.452  0.2249 -1.0096  0.7111
 3631SOL     OW12492   5.530   1.127   4.096 -0.5015  0.8186 -0.2445
 3631SOL    HW112493   5.445   1.088   4.061 -0.4702 -0.3766  0.9150
 3631SOL    HW212494   5.512   1.171   4.184 -0.0340  1.1138 -0.2938
 3632SOL     OW12495   5.180   5.083   0.906  0.4557 -0.6496 -0.7159
 3632SOL    HW112496   5.160   5.149   0.978 -0.3480 -0.7394 -0.8436
 3632SOL    HW212497   5.278   5.063   0.905  0.7377  0.6884 -0.8170
 3633SOL     OW12498   1.481   1.443   0.571 -0.5352 -0.1989 -0.3749
 3633SOL    HW112499   1.514   1.470   0.480  0.4015  0.0982  0.0400
 3633SOL    HW212500   1.383   1.461   0.578 -0.5700 -0.0048 -1.2456
 3634SOL     OW12501   1.463   5.998   4.503 -0.4547 -0.2026 -0.4284
 3634SOL    HW112502   1.440   6.077   4.447 -0.9600  0.5546  0.7908
 3634SOL    HW212503   1.386   5.934   4.503  0.1023 -0.8869 -1.7185
 3635SOL     OW12504   5.588   0.679   6.622  0.0569 -0.4769  0.1817
 3635SOL    HW112505   5.553   0.632   6.541 -0.0862 -0.6123  0.3219
 3635SOL    HW212506   5.538   0.765   6.635  1.3091  0.4584 -0.9270
 3636SOL     OW12507   3.328   0.879   0.846 -0.1971  0.0283  0.4610
 3636SOL    HW112508   3.276   0.879   0.932 -0.9166  1.4521  0.0685
 3636SOL    HW212509   3.269   0.849   0.772  0.3777 -1.0400  0.4266
 3637SOL     OW12510   6.650   1.330   2.388 -0.1053  0.3544  0.5744
 3637SOL    HW112511   6.617   1.238   2.408  0.1983 -0.1016 -0.9274
 3637SOL    HW212512   6.632   1.353   2.293 -0.8400  2.1572  1.0944
 3638SOL     OW12513   3.507   4.074   5.478 -0.1847  0.2953  0.6745
 3638SOL    HW112514   3.511   4.109   5.572 -0.9182 -0.4424  0.9904
 3638SOL    HW212515   3.474   4.147   5.417  0.8053  0.9416  0.8910
 3639SOL     OW12516   2.303   5.830   1.145  0.0921  0.6986  0.4039
 3639SOL    HW112517   2.262   5.882   1.220 -0.7643  1.4593 -0.5572
 3639SOL    HW212518   2.341   5.894   1.077 -3.5467  0.3620 -2.2827
 3640SOL     OW12519   4.679   4.888   4.165  0.1980 -0.2508  0.3026
 3640SOL    HW112520   4.611   4.869   4.094  0.6219  0.4447 -0.2994
 3640SOL    HW212521   4.684   4.810   4.228 -0.6702 -0.5892 -0.0288
 3641SOL     OW12522   2.702   6.837   6.511  0.2800 -0.1235 -0.2474
 3641SOL    HW112523   2.642   6.863   6.586 -0.9815  0.6470 -1.4786
 3641SOL    HW212524   2.786   6.891   6.515  1.0596 -1.3815  1.6273
 3642SOL     OW12525   2.690   5.145   0.328 -0.2433 -0.1654 -0.0310
 3642SOL    HW112526   2.597   5.181   0.339 -1.3402 -2.0229 -2.2400
 3642SOL    HW212527   2.698   5.057   0.374  0.0865 -0.4846 -0.6820
 3643SOL     OW12528   6.418   2.749   4.206 -0.2778 -0.2676 -0.2615
 3643SOL    HW112529   6.331   2.757   4.156  0.0620 -0.3064 -0.8670
 3643SOL    HW212530   6.463   2.663   4.182  0.7860  0.5482 -1.3730
 3644SOL     OW12531   1.604   0.020   1.019 -0.2627 -0.2077 -0.4269
 3644SOL    HW112532   1.509  -0.011   1.018 -0.6824  0.9939 -0.6180
 3644SOL    HW212533   1.612   0.099   1.081  0.4013  0.2902 -1.1290
 3645SOL     OW12534   4.695   4.551   6.320  0.1508 -0.6991  0.3102
 3645SOL    HW112535   4.671   4.493   6.242  0.0069  0.4219 -0.5052
 3645SOL    HW212536   4.689   4.498   6.404 -2.8207 -1.1575 -0.0679
 3646SOL     OW12537   5.386   2.918   6.698  0.2956 -0.1472 -0.9171
 3646SOL    HW112538   5.393   2.874   6.787  0.0290  0.2701 -0.6856
 3646SOL    HW212539   5.450   2.996   6.694 -1.4150  1.3732 -0.1598
 3647SOL     OW12540   6.546   1.147   2.657 -0.0735 -0.6703 -0.0623
 3647SOL    HW112541   6.602   1.068   2.680  1.0077  0.6153  2.0702
 3647SOL    HW212542   6.531   1.202   2.739 -1.4747  0.9214 -1.3138
 3648SOL     OW12543   5.863   0.761   5.096 -0.4369  0.3496  0.1701
 3648SOL    HW112544   5.781   0.811   5.070 -0.1616  0.5213 -0.3875
 3648SOL    HW212545   5.894   0.792   5.186  1.1782  3.0943 -1.2063
 3649SOL     OW12546   5.066   6.467   0.608 -0.0945 -0.3294  0.0952
 3649SOL    HW112547   5.086   6.500   0.516  0.7567  0.7070  0.6276
 3649SOL    HW212548   5.070   6.544   0.672 -0.4143 -1.0808  1.0404
 3650SOL     OW12549   2.661   6.840   2.352 -0.1383  0.6926  0.0869
 3650SOL    HW112550   2.660   6.747   2.389 -2.1728  1.0706  1.1506
 3650SOL    HW212551   2.679   6.838   2.254 -3.3345 -1.1734 -0.6041
 3651SOL     OW12552   1.410   1.681   4.479  0.0551 -0.3110  0.6439
 3651SOL    HW112553   1.475   1.616   4.519  0.5015 -1.3865 -1.6146
 3651SOL    HW212554   1.320   1.639   4.473  0.1769 -0.4711 -0.1666
 3652SOL     OW12555   1.932   4.764   1.679  0.3199  0.1770  0.3474
 3652SOL    HW112556   1.965   4.702   1.750 -1.1916 -1.3845 -0.2433
 3652SOL    HW212557   1.906   4.711   1.598  0.0554  1.7109 -0.6217
 3653SOL     OW12558   4.450   3.175   5.697 -0.3126  0.0754  0.4776
 3653SOL    HW112559   4.528   3.154   5.637 -0.5467  1.2010 -0.2443
 3653SOL    HW212560   4.430   3.096   5.754  1.1818 -0.3402  0.4722
 3654SOL     OW12561   4.925   6.526   4.001 -0.1420 -0.6832 -0.4852
 3654SOL    HW112562   4.875   6.441   3.982 -1.4937  0.1322 -0.7206
 3654SOL    HW212563   4.875   6.603   3.961  1.2834  0.1901 -0.6479
 3655SOL     OW12564   2.038   0.008   3.184  0.2678  0.7032  0.4152
 3655SOL    HW112565   1.938  -0.005   3.181  0.2759  0.7547 -0.3853
 3655SOL    HW212566   2.080  -0.052   3.116  0.7389  1.0853  0.3704
 3656SOL     OW12567   3.844   1.738   0.158  0.4475  0.6439 -0.2426
 3656SOL    HW112568   3.866   1.789   0.241  1.0118 -2.6462  1.7644
 3656SOL    HW212569   3.745   1.730   0.149  0.3853  0.8749  0.2004
 3657SOL     OW12570   5.426   5.756   3.208 -0.4298 -0.0669  0.0795
 3657SOL    HW112571   5.429   5.805   3.121 -0.6167 -1.9304 -1.0344
 3657SOL    HW212572   5.381   5.813   3.277  0.0636  1.5996 -0.9258
 3658SOL     OW12573   3.808   6.020   0.625  0.8713  0.3005 -0.1070
 3658SOL    HW112574   3.831   5.923   0.636  0.2435  0.2488  0.7645
 3658SOL    HW212575   3.826   6.069   0.710  1.0102  0.9191 -0.4867
 3659SOL     OW12576   0.744   0.390   3.957  0.3034 -0.4643 -0.4074
 3659SOL    HW112577   0.720   0.426   4.047  1.9172  0.1813 -0.2110
 3659SOL    HW212578   0.696   0.443   3.887  0.7783  0.5233 -0.0100
 3660SOL     OW12579   6.702   4.298   4.123  0.3858 -0.1779  0.0785
 3660SOL    HW112580   6.717   4.395   4.143 -1.3088 -0.2003  1.7457
 3660SOL    HW212581   6.615   4.287   4.074  0.1549 -0.9070  0.6319
 3661SOL     OW12582   4.663   4.854   1.334  0.2163 -0.8521 -0.0911
 3661SOL    HW112583   4.697   4.947   1.327  0.0610 -0.7360  0.6787
 3661SOL    HW212584   4.735   4.795   1.372  0.6840 -1.2724 -1.5400
 3662SOL     OW12585   6.731   1.668   3.004 -0.2736 -0.1780 -0.1233
 3662SOL    HW112586   6.645   1.692   2.959  0.0685 -0.1002 -0.7557
 3662SOL    HW212587   6.729   1.700   3.099 -2.1834 -2.9279  0.8990
 3663SOL     OW12588   4.908   0.528   0.488  0.0776 -0.2192 -0.0318
 3663SOL    HW112589   4.882   0.620   0.457 -0.2291  0.3395  1.7629
 3663SOL    HW212590   4.826   0.471   0.496 -0.2008  0.3739  1.9357
 3664SOL     OW12591   0.237   1.252   5.226  0.4996 -0.3474 -0.0602
 3664SOL    HW112592   0.143   1.246   5.192  0.5517 -0.3197 -0.2101
 3664SOL    HW212593   0.254   1.176   5.289  0.4216 -0.4334 -0.1414
 3665SOL     OW12594   3.733   3.837   6.991  0.2633 -0.1186  0.0415
 3665SOL    HW112595   3.702   3.839   6.896  3.1241  4.0142 -1.0750
 3665SOL    HW212596   3.654   3.832   7.052 -1.7019 -2.1067 -2.4714
 3666SOL     OW12597   2.498   1.707   1.514  0.1902  0.0928 -0.3524
 3666SOL    HW112598   2.485   1.743   1.421  1.2955 -1.0519 -0.9930
 3666SOL    HW212599   2.568   1.761   1.560 -0.1440  0.4768 -0.2885
 3667SOL     OW12600   4.145   0.319   4.525 -0.1712  0.0152  0.2391
 3667SOL    HW112601   4.088   0.246   4.489 -1.0105  0.2977  0.9673
 3667SOL    HW212602   4.118   0.406   4.484  0.9687 -0.0859 -0.7912
 3668SOL     OW12603   6.632   1.053   3.421 -0.1143  0.2689 -0.6705
 3668SOL    HW112604   6.630   1.062   3.322 -0.5790  1.5978 -0.5577
 3668SOL    HW212605   6.541   1.030   3.454  0.1547 -0.7122 -0.5844
 3669SOL     OW12606   2.808   3.744   4.115  0.4189  0.0640 -0.3732
 3669SOL    HW112607   2.878   3.673   4.125  1.2494  0.6390 -1.8076
 3669SOL    HW212608   2.852   3.829   4.088 -0.5908  1.1102  1.1586
 3670SOL     OW12609   6.633   1.086   0.815 -0.6506  0.4296 -0.1670
 3670SOL    HW112610   6.628   0.993   0.852  1.1427 -0.5832 -2.2257
 3670SOL    HW212611   6.565   1.143   0.860 -0.7355 -1.4474  2.3106
 3671SOL     OW12612   5.333   6.374   1.136 -0.2924 -0.2240 -0.1684
 3671SOL    HW112613   5.346   6.403   1.041 -0.3426 -0.6767 -0.3123
 3671SOL    HW212614   5.417   6.333   1.170  0.6765  2.3914  0.8707
 3672SOL     OW12615   7.005   1.221   5.087 -0.2354 -0.4440  0.1444
 3672SOL    HW112616   6.947   1.273   5.024  0.6022 -0.7483 -0.8961
 3672SOL    HW212617   7.047   1.145   5.038  1.7758  0.2981  0.6375
 3673SOL     OW12618   4.210   3.786   5.218  0.0656  0.1782  0.3890
 3673SOL    HW112619   4.145   3.732   5.165 -2.2040  0.7269  2.4259
 3673SOL    HW212620   4.287   3.812   5.160 -0.6868 -1.9089 -1.6889
 3674SOL     OW12621   6.523   1.542   5.925 -0.1570 -0.3298  0.1894
 3674SOL    HW112622   6.466   1.510   6.001  1.1924 -0.6271  1.1135
 3674SOL    HW212623   6.609   1.579   5.961  0.8209 -1.1260 -1.2235
 3675SOL     OW12624   5.607   4.358   0.156 -0.2050  0.2313  0.1638
 3675SOL    HW112625   5.548   4.393   0.083  2.5616  0.7372 -2.0046
 3675SOL    HW212626   5.640   4.434   0.212 -1.6671 -0.0740  1.5176
 3676SOL     OW12627   1.457   2.803   4.442 -0.4378  0.0082  0.0879
 3676SOL    HW112628   1.429   2.757   4.358  0.1933 -0.9093  0.3740
 3676SOL    HW212629   1.557   2.804   4.448 -0.3810  2.1926 -0.3341
 3677SOL     OW12630   3.847   5.875   2.955 -0.2499 -0.2358 -0.2450
 3677SOL    HW112631   3.826   5.972   2.950  1.0000  0.0311 -0.6706
 3677SOL    HW212632   3.762   5.822   2.949 -1.1431  0.8500  1.8403
 3678SOL     OW12633   1.870   2.237   2.637  0.3880  0.3422 -0.5721
 3678SOL    HW112634   1.784   2.205   2.598  0.0929  0.2894  0.0968
 3678SOL    HW212635   1.928   2.158   2.658  0.3477  0.3424 -0.4596
 3679SOL     OW12636   0.718   6.874   2.268 -0.1535 -0.1599 -0.2832
 3679SOL    HW112637   0.794   6.813   2.290  0.3356  0.4093 -0.3680
 3679SOL    HW212638   0.684   6.916   2.352  0.0959  0.1278 -0.3238
 3680SOL     OW12639   5.024   4.455   6.707 -0.3515 -0.6156 -0.2540
 3680SOL    HW112640   5.016   4.423   6.801  0.0992 -0.4385 -0.1556
 3680SOL    HW212641   5.078   4.389   6.654 -3.0369 -2.2578 -1.1331
 3681SOL     OW12642   5.716   5.821   0.989  0.2571 -0.0608 -0.0911
 3681SOL    HW112643   5.751   5.915   0.994  0.5882 -0.1124 -1.2357
 3681SOL    HW212644   5.779   5.765   0.936  0.1921 -1.0090  0.7958
 3682SOL     OW12645   0.449   2.332   0.014 -0.1953 -0.4833  0.2186
 3682SOL    HW112646   0.474   2.428   0.027 -0.4479 -0.2531 -0.8901
 3682SOL    HW212647   0.405   2.297   0.097  2.4431 -0.4919  1.7123
 3683SOL     OW12648   5.253   6.269   6.276 -0.6701  0.0466  0.3467
 3683SOL    HW112649   5.201   6.208   6.335  0.7526  0.4529  2.1185
 3683SOL    HW212650   5.323   6.216   6.227 -0.9656 -0.0871  0.0657
 3684SOL     OW12651   1.990   5.693   6.478  0.5929 -0.0872 -0.6221
 3684SOL    HW112652   1.906   5.721   6.525  0.4550  0.4001 -1.1499
 3684SOL    HW212653   2.001   5.747   6.394  0.3145 -1.6342 -1.6774
 3685SOL     OW12654   2.273   1.043   3.930  0.4930 -0.4843  0.5834
 3685SOL    HW112655   2.206   1.095   3.983  0.8169 -0.6240  1.1429
 3685SOL    HW212656   2.289   0.954   3.973  0.2402 -0.8910 -0.1446
 3686SOL     OW12657   1.735   4.297   6.154 -0.9468 -0.5557  0.1257
 3686SOL    HW112658   1.637   4.289   6.136 -0.8060  1.4655 -1.9979
 3686SOL    HW212659   1.786   4.248   6.082 -0.3989  0.2631 -0.0579
 3687SOL     OW12660   4.237   0.939   1.908 -0.2472 -0.4011  0.2345
 3687SOL    HW112661   4.191   0.982   1.985 -0.4807 -0.4025  0.0940
 3687SOL    HW212662   4.171   0.888   1.853 -0.2626  0.4362 -0.5463
 3688SOL     OW12663   5.586   3.273   6.059 -0.4388  0.3401  0.1102
 3688SOL    HW112664   5.578   3.371   6.044 -0.9011  0.3823  0.6030
 3688SOL    HW212665   5.676   3.242   6.029  0.2883  1.1796  1.3404
 3689SOL     OW12666   6.263   6.465   3.261 -0.2138 -0.8421  0.7398
 3689SOL    HW112667   6.274   6.484   3.358  0.8413  1.9910  0.1671
 3689SOL    HW212668   6.354   6.455   3.219 -0.6136 -0.9932 -0.1012
 3690SOL     OW12669   0.506   6.077   6.399 -0.0089 -0.0555  0.1753
 3690SOL    HW112670   0.521   6.047   6.493  1.3594  1.3773  0.4604
 3690SOL    HW212671   0.422   6.130   6.393  0.0373  0.0698  0.6421
 3691SOL     OW12672   3.875   2.479   1.046  0.2039 -0.6404 -0.3828
 3691SOL    HW112673   3.822   2.475   1.131  0.0060 -1.0185 -0.5256
 3691SOL    HW212674   3.860   2.568   1.002  2.7851  0.9203  1.5814
 3692SOL     OW12675   6.480   4.392   5.567 -0.3976 -0.0395 -0.3214
 3692SOL    HW112676   6.472   4.488   5.539  0.4391  0.0292 -0.3702
 3692SOL    HW212677   6.401   4.366   5.621 -0.5475  0.7405 -0.1537
 3693SOL     OW12678   2.415   6.749   3.331  0.2568 -0.3020  0.2008
 3693SOL    HW112679   2.318   6.767   3.351  0.4997 -0.7428  1.9788
 3693SOL    HW212680   2.472   6.814   3.381  0.9074 -0.6041 -0.1351
 3694SOL     OW12681   1.774   0.728   6.196 -0.1783 -0.1241  0.1608
 3694SOL    HW112682   1.779   0.739   6.096 -2.6839 -1.5043 -0.1997
 3694SOL    HW212683   1.865   0.709   6.232  1.6600  4.6145 -1.1812
 3695SOL     OW12684   5.047   2.246   5.622 -0.3720  0.1384  0.3103
 3695SOL    HW112685   5.078   2.293   5.705 -1.2096  3.3509 -1.0505
 3695SOL    HW212686   4.951   2.220   5.632 -0.0693 -0.8370  0.8432
 3696SOL     OW12687   4.212   1.912   7.018  0.1162 -0.7245  0.1448
 3696SOL    HW112688   4.291   1.949   6.970 -0.2438 -0.9948 -0.6729
 3696SOL    HW212689   4.154   1.862   6.954 -2.7480  2.6789 -0.2517
 3697SOL     OW12690   4.812   4.447   1.030  0.3027 -0.6129 -0.9462
 3697SOL    HW112691   4.883   4.506   0.990  0.4226  0.0556  0.2326
 3697SOL    HW212692   4.849   4.355   1.043  0.7605 -0.4264 -0.9167
 3698SOL     OW12693   0.390   2.378   3.258 -0.3722  0.3576 -0.0180
 3698SOL    HW112694   0.320   2.306   3.252 -0.3348  0.3819 -0.7962
 3698SOL    HW212695   0.393   2.414   3.352 -0.2484 -0.7900  0.4290
 3699SOL     OW12696   1.781   2.889   3.025 -0.0776 -0.5127  0.1194
 3699SOL    HW112697   1.687   2.906   3.055  0.3218 -0.4129  1.4139
 3699SOL    HW212698   1.826   2.976   3.006 -0.4162 -0.5907 -1.1048
 3700SOL     OW12699   1.020   2.104   0.284 -0.0729  0.2466 -0.0139
 3700SOL    HW112700   1.056   2.166   0.354  2.6898 -1.6354  0.3639
 3700SOL    HW212701   0.943   2.052   0.322  0.8164 -0.1087  1.3589
 3701SOL     OW12702   2.260   2.588   5.022  0.3817  0.2820  0.0190
 3701SOL    HW112703   2.334   2.645   4.985  0.8975  0.8311  1.8394
 3701SOL    HW212704   2.176   2.641   5.026 -0.5578 -0.6965 -3.2415
 3702SOL     OW12705   4.679   2.447   5.595  0.1022 -0.0269  0.8054
 3702SOL    HW112706   4.617   2.447   5.673 -2.0237  2.7184 -0.7077
 3702SOL    HW212707   4.758   2.505   5.615 -1.8659  3.1099  0.0523
 3703SOL     OW12708   6.177   2.302   5.668 -0.0221 -0.1304  0.1353
 3703SOL    HW112709   6.188   2.364   5.590  0.8562  2.0563  1.8694
 3703SOL    HW212710   6.262   2.252   5.683 -0.6545 -1.6473 -1.1223
 3704SOL     OW12711   1.930   2.151   6.699 -0.6754  0.2393 -0.0453
 3704SOL    HW112712   1.840   2.133   6.659 -0.1519 -1.2039 -0.6564
 3704SOL    HW212713   1.950   2.249   6.693 -1.2684  0.2951 -1.9633
 3705SOL     OW12714   5.097   5.593   0.998  0.5510 -0.1662 -0.2316
 3705SOL    HW112715   5.019   5.583   0.935  0.8918 -1.7691 -0.4518
 3705SOL    HW212716   5.138   5.503   1.014  2.1345  0.6009  0.1840
 3706SOL     OW12717   6.677   2.537   2.195 -0.4304 -0.2874  0.8431
 3706SOL    HW112718   6.604   2.480   2.232 -2.2107  0.7173 -0.9155
 3706SOL    HW212719   6.713   2.495   2.112  0.2455 -0.2233  1.0950
 3707SOL     OW12720   6.223   3.758   5.089 -0.5736  0.1035 -0.1978
 3707SOL    HW112721   6.225   3.666   5.126  1.8210 -0.7821 -2.2746
 3707SOL    HW212722   6.312   3.802   5.102 -0.5459  0.7906 -2.2874
 3708SOL     OW12723   5.516   6.181   6.887 -0.1884  0.1637  0.1947
 3708SOL    HW112724   5.569   6.157   6.806 -0.5471  1.0561 -0.3187
 3708SOL    HW212725   5.505   6.280   6.891 -2.3823 -0.0331 -0.0785
 3709SOL     OW12726   5.529   0.891   3.279  0.6996  0.0935 -0.0491
 3709SOL    HW112727   5.623   0.885   3.246  1.0489 -0.9013  1.0529
 3709SOL    HW212728   5.520   0.969   3.340  0.8466  0.1035 -0.0414
 3710SOL     OW12729   3.403   0.082   5.353 -0.2516  0.0464 -0.0717
 3710SOL    HW112730   3.405   0.110   5.449  1.4036  1.1461 -0.3991
 3710SOL    HW212731   3.496   0.071   5.319 -0.7440  1.1997 -1.9789
 3711SOL     OW12732   2.735   0.366   0.681  0.2417  0.0699  0.1171
 3711SOL    HW112733   2.655   0.310   0.703  0.2749 -0.6477 -1.4642
 3711SOL    HW212734   2.817   0.310   0.684  0.3550  0.1659 -0.8321
 3712SOL     OW12735   5.560   1.770   6.809  0.3441 -0.3214  0.2195
 3712SOL    HW112736   5.505   1.708   6.753 -1.7943  2.0941 -0.5508
 3712SOL    HW212737   5.527   1.767   6.903  1.9507 -2.1401  0.7947
 3713SOL     OW12738   2.310   6.041   5.200  0.0059 -0.3008 -0.2787
 3713SOL    HW112739   2.216   6.008   5.200 -0.4512  0.6687 -3.1367
 3713SOL    HW212740   2.316   6.125   5.254 -0.3223 -1.2813  1.3574
 3714SOL     OW12741   6.806   5.218   6.764 -0.0493 -0.0547  0.2805
 3714SOL    HW112742   6.808   5.304   6.816  1.1703 -1.0976  2.0363
 3714SOL    HW212743   6.841   5.235   6.672 -2.5822  1.9092 -0.4578
 3715SOL     OW12744   3.687   2.620   0.596  0.0828 -0.2344 -1.0003
 3715SOL    HW112745   3.757   2.554   0.570 -0.3161 -1.2905  0.4382
 3715SOL    HW212746   3.731   2.701   0.636  0.5453  0.0165 -1.9950
 3716SOL     OW12747   0.964   0.318   4.410  0.2812 -0.0458  0.2283
 3716SOL    HW112748   1.059   0.314   4.379  1.0221 -1.3280  2.4114
 3716SOL    HW212749   0.907   0.262   4.349  0.5800  1.8141 -1.9097
 3717SOL     OW12750   2.242   3.842   5.841  0.2976 -0.6187  0.3180
 3717SOL    HW112751   2.265   3.889   5.757 -1.1365  3.2925  1.8964
 3717SOL    HW212752   2.326   3.808   5.884  1.2385 -0.8733 -1.6193
 3718SOL     OW12753   4.071   1.382   3.861  0.4154 -0.6113 -0.0583
 3718SOL    HW112754   3.996   1.318   3.847 -0.1660  0.2512 -1.0131
 3718SOL    HW212755   4.053   1.438   3.942 -0.2126 -0.0799 -0.5598
 3719SOL     OW12756   2.590   6.697   4.850 -0.5814 -0.2613  0.0643
 3719SOL    HW112757   2.614   6.608   4.889 -1.6846  0.0145  1.4824
 3719SOL    HW212758   2.528   6.684   4.773  0.6035 -0.7691 -0.8284
 3720SOL     OW12759   6.415   3.245   5.873  0.1515 -0.3504  0.2907
 3720SOL    HW112760   6.398   3.240   5.774 -2.5875 -1.2683  0.7319
 3720SOL    HW212761   6.428   3.153   5.909 -2.0886 -0.3582  1.2180
 3721SOL     OW12762   1.595   6.534   4.479 -0.0789  0.5604 -0.2370
 3721SOL    HW112763   1.551   6.624   4.481  0.2646  0.7222  1.2391
 3721SOL    HW212764   1.561   6.478   4.555  0.6836 -0.0830 -0.3513
 3722SOL     OW12765   3.607   4.675   2.322 -0.5794 -0.5902  0.3416
 3722SOL    HW112766   3.684   4.707   2.268 -0.2774  0.0868  1.1562
 3722SOL    HW212767   3.582   4.582   2.293  1.1444 -1.2055  0.6846
 3723SOL     OW12768   5.436   5.524   0.670 -0.5834  0.4847  0.3048
 3723SOL    HW112769   5.507   5.594   0.662  0.0601 -0.2329 -0.4713
 3723SOL    HW212770   5.357   5.549   0.614  1.0307 -1.0242 -2.9575
 3724SOL     OW12771   6.987   1.588   5.880  0.1086  0.0948 -0.0406
 3724SOL    HW112772   6.990   1.677   5.926 -2.9864 -0.6246  1.9095
 3724SOL    HW212773   6.980   1.601   5.781 -0.1458  2.0318  0.1919
 3725SOL     OW12774   2.383   3.538   2.854 -0.2981 -0.2188 -0.6405
 3725SOL    HW112775   2.301   3.592   2.866 -0.0423  0.0538 -0.1001
 3725SOL    HW212776   2.387   3.503   2.760 -0.3962  0.8093 -1.0358
 3726SOL     OW12777   0.315   6.099   4.575 -0.3871  0.0854  0.5768
 3726SOL    HW112778   0.382   6.026   4.572 -0.0613  0.4184 -0.8703
 3726SOL    HW212779   0.325   6.150   4.660  0.9006 -0.1416  0.5791
 3727SOL     OW12780   2.150   5.530   3.420 -0.1315 -0.1091 -0.1851
 3727SOL    HW112781   2.234   5.496   3.378 -0.7383 -0.1114 -1.4453
 3727SOL    HW212782   2.100   5.454   3.460  0.2990 -0.1513  0.2885
 3728SOL     OW12783   1.645   4.722   2.496 -0.1310  0.0872 -0.1379
 3728SOL    HW112784   1.739   4.740   2.468 -0.5265  0.4668 -1.2909
 3728SOL    HW212785   1.592   4.692   2.417 -0.4899 -2.2994  0.9119
 3729SOL     OW12786   5.761   3.222   2.540  0.0151  0.3775  0.4339
 3729SOL    HW112787   5.716   3.144   2.583  3.3507 -1.6535  0.5719
 3729SOL    HW212788   5.779   3.292   2.610  0.3839 -0.4366  1.1829
 3730SOL     OW12789   0.784   5.399   1.659  0.4414  0.7673 -0.8448
 3730SOL    HW112790   0.724   5.368   1.585 -0.7931 -0.7530  0.6852
 3730SOL    HW212791   0.855   5.330   1.674 -1.1093 -0.5261  1.2535
 3731SOL     OW12792   6.869   3.369   1.040 -0.6368 -0.0503 -0.2842
 3731SOL    HW112793   6.954   3.366   0.986  1.3508  2.0122  2.4392
 3731SOL    HW212794   6.791   3.354   0.979  1.5724 -1.3448 -3.0637
 3732SOL     OW12795   2.967   0.342   6.935  0.2318  0.8694 -0.1112
 3732SOL    HW112796   2.944   0.300   7.023  2.2498 -0.7903 -0.2884
 3732SOL    HW212797   2.893   0.326   6.870 -0.2333 -0.0850  0.6233
 3733SOL     OW12798   1.396   4.885   3.956  0.1356  0.1398 -0.2986
 3733SOL    HW112799   1.489   4.849   3.953  0.7724  1.6269  0.4915
 3733SOL    HW212800   1.340   4.829   4.017  0.8298 -0.0987  0.1242
 3734SOL     OW12801   6.514   4.008   4.271  0.1357  0.0761  0.4171
 3734SOL    HW112802   6.459   3.945   4.327  0.2949  0.0734  0.5712
 3734SOL    HW212803   6.608   4.009   4.305  0.0560  0.6564  0.6365
 3735SOL     OW12804   1.812   4.771   4.372 -0.0628 -0.1687  0.3067
 3735SOL    HW112805   1.808   4.842   4.443  2.0020  0.2368  0.1003
 3735SOL    HW212806   1.884   4.705   4.395 -0.2777 -0.7903 -0.7367
 3736SOL     OW12807   5.130   5.717   4.326  0.4671  0.3731  0.2415
 3736SOL    HW112808   5.189   5.785   4.370 -1.2387  1.6037  0.7134
 3736SOL    HW212809   5.085   5.662   4.396  0.1507  0.2348 -0.0673
 3737SOL     OW12810   3.539   6.905   2.179  0.4323 -0.3314 -0.5950
 3737SOL    HW112811   3.467   6.948   2.124  1.4753 -0.6911 -2.3217
 3737SOL    HW212812   3.500   6.832   2.234 -1.0970  1.6953  1.1762
 3738SOL     OW12813   6.093   6.873   2.549  0.2873 -0.5893  0.5830
 3738SOL    HW112814   6.140   6.951   2.508 -0.1141 -0.3443  0.5870
 3738SOL    HW212815   6.011   6.851   2.496  0.5412 -1.1829  0.4217
 3739SOL     OW12816   1.405   0.061   3.502 -0.1872 -0.3118 -0.3109
 3739SOL    HW112817   1.439  -0.019   3.551 -0.2058 -0.0151  0.1903
 3739SOL    HW212818   1.324   0.097   3.549 -0.6526 -0.4641 -0.9763
 3740SOL     OW12819   6.882   6.395   0.963 -0.1992  0.0907  0.4986
 3740SOL    HW112820   6.969   6.388   0.915 -1.6438  0.0479 -2.2933
 3740SOL    HW212821   6.882   6.477   1.020  1.0852  0.9503 -0.6765
 3741SOL     OW12822   4.528   4.195   6.301  0.0025 -0.3727 -0.6059
 3741SOL    HW112823   4.554   4.273   6.244 -0.2234 -2.7480 -4.3407
 3741SOL    HW212824   4.599   4.125   6.296 -0.8638 -1.3902  0.5963
 3742SOL     OW12825   5.510   2.533   1.148  0.2652  0.4122  0.2271
 3742SOL    HW112826   5.457   2.493   1.073  0.2781  0.0401  0.4158
 3742SOL    HW212827   5.576   2.467   1.182 -0.3112  0.2755  1.1223
 3743SOL     OW12828   1.006   3.414   5.868 -0.1164 -0.3137  0.2041
 3743SOL    HW112829   0.939   3.440   5.799  0.4325  1.7333  0.3637
 3743SOL    HW212830   0.976   3.447   5.957  0.1945 -1.0809  0.6035
 3744SOL     OW12831   1.749   0.320   3.235  0.2039  0.2531 -0.0443
 3744SOL    HW112832   1.692   0.315   3.317 -0.5642 -1.7760 -0.6680
 3744SOL    HW212833   1.833   0.370   3.257 -0.7280  1.2294  1.5040
 3745SOL     OW12834   5.867   5.296   4.706  0.0479 -0.3344  0.5473
 3745SOL    HW112835   5.785   5.263   4.658  0.0324  0.7059 -0.1573
 3745SOL    HW212836   5.918   5.358   4.647  0.0761  0.9220  1.8526
 3746SOL     OW12837   6.948   4.448   5.202  0.2144 -0.7517  0.3996
 3746SOL    HW112838   6.991   4.521   5.255  0.4410 -0.3447 -0.3227
 3746SOL    HW212839   6.882   4.400   5.258  0.4305 -0.3152  1.0382
 3747SOL     OW12840   2.858   1.856   3.592  0.0021 -0.1664 -0.4224
 3747SOL    HW112841   2.795   1.933   3.598  0.5495  0.2203  0.7127
 3747SOL    HW212842   2.944   1.887   3.551  0.2394 -0.1529  0.0793
 3748SOL     OW12843   4.774   1.046   5.495  0.1371 -0.1070 -0.1658
 3748SOL    HW112844   4.825   1.013   5.415 -0.9908  0.4904 -1.1509
 3748SOL    HW212845   4.812   1.133   5.525  1.8524 -1.2671  1.2269
 3749SOL     OW12846   5.444   3.554   1.328  0.7296 -0.1359  0.6717
 3749SOL    HW112847   5.535   3.523   1.356  1.4927  0.4204 -1.0529
 3749SOL    HW212848   5.444   3.575   1.230 -0.8256  1.3930  0.9352
 3750SOL     OW12849   3.443   2.953   3.774  0.3532  0.4682 -0.5952
 3750SOL    HW112850   3.446   2.989   3.681  1.6115 -0.1084 -0.7889
 3750SOL    HW212851   3.534   2.925   3.803 -0.3900 -1.6846 -0.1014
 3751SOL     OW12852   2.038   0.769   1.431 -0.4270  0.2237 -0.3670
 3751SOL    HW112853   2.058   0.781   1.528 -2.0662 -1.8505  0.3070
 3751SOL    HW212854   2.091   0.692   1.396 -1.1554 -0.1735 -0.6227
 3752SOL     OW12855   0.810   3.195   1.648 -0.3956  0.2785 -0.4890
 3752SOL    HW112856   0.836   3.100   1.665 -0.6516  0.1010 -1.0459
 3752SOL    HW212857   0.816   3.248   1.733 -4.3090 -1.1626  0.8939
 3753SOL     OW12858   3.088   2.752   1.324  0.3606  0.2701  0.0291
 3753SOL    HW112859   3.069   2.662   1.284  0.5992 -0.0478  0.6168
 3753SOL    HW212860   3.038   2.762   1.410  1.6750  0.0076  0.8449
 3754SOL     OW12861   0.407   2.476   0.616  0.0617  0.3485  0.4486
 3754SOL    HW112862   0.467   2.550   0.589 -0.6509  0.7047 -0.2090
 3754SOL    HW212863   0.328   2.473   0.555 -0.0526 -0.7883  0.6185
 3755SOL     OW12864   3.397   0.810   5.928  0.2070  0.4033  0.5013
 3755SOL    HW112865   3.485   0.782   5.966  0.6615  0.5501 -0.4157
 3755SOL    HW212866   3.392   0.782   5.832  0.3537  2.6802 -0.2294
 3756SOL     OW12867   5.403   4.168   5.581 -0.5925  0.1077 -0.2047
 3756SOL    HW112868   5.435   4.148   5.489 -1.8355 -0.5706 -0.5122
 3756SOL    HW212869   5.481   4.184   5.641  0.3935 -2.5628 -0.6681
 3757SOL     OW12870   3.267   1.770   1.873 -0.3564  0.0886  0.1892
 3757SOL    HW112871   3.275   1.779   1.773 -0.1544  1.1633  0.2886
 3757SOL    HW212872   3.355   1.792   1.915 -0.3795 -0.5778  0.5989
 3758SOL     OW12873   1.507   4.391   4.691  0.1635  0.2318  0.1097
 3758SOL    HW112874   1.591   4.433   4.657  0.4756 -0.9615 -0.6393
 3758SOL    HW212875   1.510   4.292   4.675 -0.8844  0.0124  1.1316
 3759SOL     OW12876   7.011   0.091   1.894 -0.0390 -0.3094  0.2465
 3759SOL    HW112877   7.021   0.170   1.955  0.4983  0.2830 -0.5830
 3759SOL    HW212878   7.083   0.024   1.914  1.0532  0.5492 -0.6974
 3760SOL     OW12879   5.624   2.117   1.978 -0.3796  0.3507  0.6742
 3760SOL    HW112880   5.714   2.125   1.936 -0.2677 -0.9625  0.6153
 3760SOL    HW212881   5.591   2.208   2.004  0.8672  0.8670  0.5260
 3761SOL     OW12882   6.137   2.588   1.327 -0.1534  0.5453 -0.4129
 3761SOL    HW112883   6.183   2.676   1.331  0.1095  0.3761  2.5325
 3761SOL    HW212884   6.205   2.514   1.327 -0.3284  0.3354  1.3729
 3762SOL     OW12885   2.004   5.428   5.382 -0.3506 -0.2445 -0.0124
 3762SOL    HW112886   1.930   5.494   5.372 -0.0445  0.2364  0.7290
 3762SOL    HW212887   2.028   5.420   5.479  0.5713 -0.3791 -0.2375
 3763SOL     OW12888   6.566   5.468   0.396  0.2462  0.1839 -0.1290
 3763SOL    HW112889   6.467   5.471   0.411  0.5439 -0.4937  2.4528
 3763SOL    HW212890   6.610   5.539   0.451  1.2363  0.5002 -1.2725
 3764SOL     OW12891   3.546   6.039   3.447 -0.3160  0.2039 -0.0366
 3764SOL    HW112892   3.588   5.949   3.435 -1.2309 -0.1751 -0.4609
 3764SOL    HW212893   3.467   6.031   3.508  0.2440  0.9206  0.7957
 3765SOL     OW12894   1.212   6.363   6.588 -0.1144  0.5155  0.4592
 3765SOL    HW112895   1.190   6.305   6.666 -0.2657  2.4393  1.9098
 3765SOL    HW212896   1.296   6.414   6.605  0.7942 -0.2444 -1.3783
 3766SOL     OW12897   5.926   5.044   6.723 -0.0909  0.8280 -0.1996
 3766SOL    HW112898   5.827   5.046   6.709 -0.1194  0.7491 -0.0196
 3766SOL    HW212899   5.969   5.119   6.672 -0.2795  1.0838  0.0172
 3767SOL     OW12900   0.599   6.162   1.433 -0.1346  0.3603 -0.6584
 3767SOL    HW112901   0.565   6.080   1.387 -1.0773 -0.1906  0.9474
 3767SOL    HW212902   0.521   6.220   1.457  0.4570  1.2938 -0.9570
 3768SOL     OW12903   6.702   6.791   5.492 -0.2723 -0.0706  0.3943
 3768SOL    HW112904   6.659   6.823   5.577  0.7406  0.2641  0.8051
 3768SOL    HW212905   6.642   6.809   5.415 -1.4784 -0.9254  1.1020
 3769SOL     OW12906   5.937   6.005   3.870 -0.0737 -1.0864 -0.2676
 3769SOL    HW112907   5.979   5.941   3.934 -1.3900  0.4153  2.2537
 3769SOL    HW212908   5.843   5.977   3.850 -0.8828  0.2739  1.3615
 3770SOL     OW12909   4.956   4.857   3.088  0.1222  0.3020  0.2223
 3770SOL    HW112910   4.985   4.782   3.147  0.5155  0.4998  0.2850
 3770SOL    HW212911   5.000   4.942   3.118 -0.4555  0.5938  0.2631
 3771SOL     OW12912   6.051   6.729   4.681 -0.8769  0.1712 -0.0794
 3771SOL    HW112913   6.045   6.791   4.759 -1.4988  0.7631 -0.5879
 3771SOL    HW212914   6.112   6.768   4.612  1.8131 -1.5462  1.1555
 3772SOL     OW12915   3.243   4.250   5.928 -0.4309 -0.0532 -0.0270
 3772SOL    HW112916   3.153   4.288   5.952 -0.2741  0.4194 -0.1801
 3772SOL    HW212917   3.314   4.304   5.972 -0.2349 -0.6997  0.4570
 3773SOL     OW12918   5.383   6.586   1.463 -0.3321  0.4672  0.3993
 3773SOL    HW112919   5.415   6.587   1.368 -1.6572 -2.5496 -0.2222
 3773SOL    HW212920   5.451   6.539   1.520 -0.9031 -0.5620  0.2627
 3774SOL     OW12921   1.357   3.749   4.441  0.1068  0.1453  0.4531
 3774SOL    HW112922   1.347   3.750   4.341 -0.7275  0.3505  0.5324
 3774SOL    HW212923   1.380   3.656   4.471  0.4978  0.1124  0.0608
 3775SOL     OW12924   1.697   0.748   3.931 -0.2083 -0.0746  0.3467
 3775SOL    HW112925   1.617   0.741   3.991  0.5339  1.7188  1.6493
 3775SOL    HW212926   1.680   0.699   3.846 -2.8630  0.6279  0.3968
 3776SOL     OW12927   3.054   4.811   6.022 -0.3760  0.0026  0.6841
 3776SOL    HW112928   3.090   4.855   6.104  2.0484 -0.3461 -0.1295
 3776SOL    HW212929   3.116   4.827   5.945 -0.8718 -2.4271 -0.3203
 3777SOL     OW12930   5.460   5.676   2.468  0.2775  0.9244  0.0810
 3777SOL    HW112931   5.496   5.766   2.445 -2.3464  1.5802 -1.9162
 3777SOL    HW212932   5.500   5.607   2.408  0.0961  1.2536 -0.4257
 3778SOL     OW12933   5.467   5.370   2.151  0.3222 -0.3794 -0.0242
 3778SOL    HW112934   5.382   5.422   2.153  0.7753  0.3492  0.8255
 3778SOL    HW212935   5.541   5.428   2.115  0.9625 -0.1945  1.5075
 3779SOL     OW12936   6.723   2.993   2.513  0.1649  0.2502 -0.2712
 3779SOL    HW112937   6.730   2.903   2.469 -0.2379 -0.1816  0.5142
 3779SOL    HW212938   6.782   3.058   2.466  0.1696 -0.3300 -1.0930
 3780SOL     OW12939   4.803   0.469   4.649  0.8155 -0.1621 -0.5620
 3780SOL    HW112940   4.870   0.533   4.612  0.9654  0.4168  0.6610
 3780SOL    HW212941   4.813   0.380   4.604  2.7075 -0.2272 -0.1163
 3781SOL     OW12942   6.223   2.163   0.097 -0.4702  0.0909 -0.6522
 3781SOL    HW112943   6.141   2.205   0.058  0.3271  1.1636 -1.2225
 3781SOL    HW212944   6.240   2.075   0.053 -1.1703 -0.0312 -0.6944
 3782SOL     OW12945   1.781   4.657   6.017 -0.1483  0.2692 -0.1254
 3782SOL    HW112946   1.789   4.639   5.919  0.4129 -1.3640  0.1906
 3782SOL    HW212947   1.849   4.604   6.066 -0.7492  0.6827  1.1976
 3783SOL     OW12948   4.490   6.648   1.290 -0.1533  0.3262 -0.4125
 3783SOL    HW112949   4.578   6.684   1.321 -0.2324  0.4567 -0.3385
 3783SOL    HW212950   4.505   6.576   1.223  0.0058  0.5522 -0.6228
 3784SOL     OW12951   0.853   1.641   4.479  0.0874  0.1497 -0.3757
 3784SOL    HW112952   0.833   1.729   4.523 -1.8152 -0.4057 -0.0142
 3784SOL    HW212953   0.864   1.654   4.381 -2.5188  0.5580 -0.6895
 3785SOL     OW12954   0.993   1.969   1.173  0.0207  0.0290 -0.2792
 3785SOL    HW112955   0.999   1.923   1.262 -0.5751  0.4747 -0.0022
 3785SOL    HW212956   0.958   2.062   1.186  0.1158  0.1635 -0.9606
 3786SOL     OW12957   5.859   3.851   5.304  0.2733  0.4604  0.2355
 3786SOL    HW112958   5.825   3.816   5.217  0.5466 -0.9720  0.6716
 3786SOL    HW212959   5.782   3.861   5.368  0.3700 -0.8483  0.5852
 3787SOL     OW12960   5.008   3.817   2.098 -0.6449 -0.4687 -0.2859
 3787SOL    HW112961   4.923   3.764   2.104 -0.5008 -0.6814 -0.1345
 3787SOL    HW212962   5.004   3.894   2.161 -0.5360 -0.7442  0.0609
 3788SOL     OW12963   0.373   6.838   0.581  0.6191 -0.5981  0.1459
 3788SOL    HW112964   0.323   6.919   0.552  0.6162 -0.7940 -0.4171
 3788SOL    HW212965   0.471   6.851   0.564  0.5029 -1.1717 -1.1108
 3789SOL     OW12966   5.882   6.529   0.923 -0.2329  0.3483 -0.3857
 3789SOL    HW112967   5.814   6.578   0.869 -1.4247 -0.8970 -0.0906
 3789SOL    HW212968   5.856   6.533   1.020  0.0767 -0.1726 -0.2779
 3790SOL     OW12969   4.623   0.935   3.651 -0.0945  0.1083 -0.0737
 3790SOL    HW112970   4.712   0.980   3.656  0.1817 -0.4770  0.4891
 3790SOL    HW212971   4.571   0.954   3.734  0.0969 -0.7390  0.2493
 3791SOL     OW12972   5.066   1.189   2.597  0.7593 -0.2781 -0.1530
 3791SOL    HW112973   5.114   1.110   2.635  0.9259  0.7072  1.8427
 3791SOL    HW212974   4.999   1.159   2.529  1.3515 -2.0448  0.0174
 3792SOL     OW12975   6.533   3.804   0.750  0.4673  0.1762  0.2369
 3792SOL    HW112976   6.622   3.768   0.721  0.7167 -0.3316  1.5382
 3792SOL    HW212977   6.492   3.856   0.676  1.1795 -0.8238 -0.8961
 3793SOL     OW12978   6.649   2.847   0.002 -0.6830 -0.6307  0.2366
 3793SOL    HW112979   6.621   2.751   0.004  1.1909 -1.2012  1.1706
 3793SOL    HW212980   6.609   2.895   0.080  0.4784 -1.3185  1.2883
 3794SOL     OW12981   4.966   4.985   4.125  0.2799 -0.0346 -0.1320
 3794SOL    HW112982   4.868   4.998   4.143 -0.3482 -1.6347 -1.9987
 3794SOL    HW212983   4.991   4.891   4.145  1.0955 -0.0205 -1.0258
 3795SOL     OW12984   3.856   1.594   2.411  0.3841 -0.3074 -0.0447
 3795SOL    HW112985   3.865   1.590   2.510  1.4329  2.2262  0.0320
 3795SOL    HW212986   3.947   1.592   2.369  0.0551  0.5209 -0.8311
 3796SOL     OW12987   1.749   2.269   1.544  0.5043  0.5907  0.0079
 3796SOL    HW112988   1.706   2.265   1.454  0.8938 -0.1203 -0.1498
 3796SOL    HW212989   1.684   2.308   1.610 -0.5237 -0.7644 -0.1576
 3797SOL     OW12990   6.603   0.037   0.907  0.2514  0.2810 -0.0437
 3797SOL    HW112991   6.638  -0.050   0.941 -0.6004 -0.4510 -0.9580
 3797SOL    HW212992   6.679   0.093   0.875  0.7719 -0.3552  0.0499
 3798SOL     OW12993   1.632   0.192   7.015 -0.4590 -0.1395 -0.4649
 3798SOL    HW112994   1.714   0.149   6.977  0.5797 -0.0235  1.5069
 3798SOL    HW212995   1.610   0.274   6.963  1.0923  0.2014 -0.6256
 3799SOL     OW12996   6.255   4.923   4.214  0.1751 -0.0867 -0.0545
 3799SOL    HW112997   6.323   4.995   4.198  1.0420 -0.1766  2.6674
 3799SOL    HW212998   6.289   4.860   4.284 -1.7447 -1.5493 -0.3456
 3800SOL     OW12999   1.120   0.802   6.506  0.1784  0.1017  0.1665
 3800SOL    HW113000   1.073   0.777   6.590  2.3702  0.2294  1.5143
 3800SOL    HW213001   1.155   0.720   6.461 -0.1026  0.1099 -0.0681
 3801SOL     OW13002   0.822   5.512   4.760  0.5864 -0.4687 -0.2754
 3801SOL    HW113003   0.745   5.449   4.766 -0.0697  0.4128  2.1205
 3801SOL    HW213004   0.874   5.509   4.845  0.9776  1.6214 -0.3766
 3802SOL     OW13005   0.853   6.870   4.059 -0.0790  0.0154 -0.0249
 3802SOL    HW113006   0.949   6.897   4.057 -0.1337  0.1764 -1.0607
 3802SOL    HW213007   0.826   6.837   3.968 -1.6913  2.3752 -0.4691
 3803SOL     OW13008   1.141   3.541   4.770 -0.6254 -0.8680  0.5427
 3803SOL    HW113009   1.082   3.532   4.690 -0.7246 -2.1262  0.7377
 3803SOL    HW213010   1.136   3.457   4.824 -0.0479 -0.2856  1.5192
 3804SOL     OW13011   0.269   6.920   2.819 -0.1903  0.2839 -0.2988
 3804SOL    HW113012   0.326   6.850   2.776 -0.9617  0.2721 -1.3291
 3804SOL    HW213013   0.327   6.995   2.852  0.5830 -0.5546  0.3077
 3805SOL     OW13014   4.867   6.180   0.055  0.3152  0.7151  0.7969
 3805SOL    HW113015   4.802   6.254   0.037 -0.3975 -0.1405 -0.2804
 3805SOL    HW213016   4.866   6.116  -0.021  2.4389  0.6560  0.7716
 3806SOL     OW13017   5.663   3.504   5.851  0.1905 -0.4814  0.0900
 3806SOL    HW113018   5.675   3.498   5.752  0.5420 -1.5318  0.1831
 3806SOL    HW213019   5.609   3.585   5.874  0.0328 -0.2836 -0.9700
 3807SOL     OW13020   4.186   5.699   3.169 -0.0601  0.1268 -0.0153
 3807SOL    HW113021   4.114   5.768   3.161  1.0202  1.1533 -1.6786
 3807SOL    HW213022   4.228   5.705   3.259 -1.0237  0.5717  0.4161
 3808SOL     OW13023   6.717   6.504   3.844 -0.1816 -0.3210  0.5909
 3808SOL    HW113024   6.797   6.525   3.789 -0.1406  1.0195  1.1401
 3808SOL    HW213025   6.646   6.463   3.785  0.0528  0.5980 -0.3529
 3809SOL     OW13026   4.273   5.749   4.873 -0.1958  0.2918  0.5230
 3809SOL    HW113027   4.369   5.722   4.883 -0.5239 -0.2724  2.7267
 3809SOL    HW213028   4.253   5.824   4.936 -0.6761  2.0564 -1.6164
 3810SOL     OW13029   3.872   5.101   2.177  0.1277  0.1947  0.1077
 3810SOL    HW113030   3.792   5.118   2.120  1.0643  0.6144 -1.1172
 3810SOL    HW213031   3.863   5.152   2.263 -1.1394 -0.1818  0.2173
 3811SOL     OW13032   2.883   2.233   0.046  0.5159  0.1932  0.3449
 3811SOL    HW113033   2.807   2.294   0.071 -0.5784  0.2582 -2.7028
 3811SOL    HW213034   2.915   2.185   0.127 -1.4879  1.6039  2.0845
 3812SOL     OW13035   0.707   4.888   6.452  0.0459  0.0977  0.0405
 3812SOL    HW113036   0.760   4.937   6.522  2.0457  0.0896 -1.3705
 3812SOL    HW213037   0.666   4.806   6.492 -0.0318  0.8256  1.5112
 3813SOL     OW13038   5.989   3.336   5.586  0.0193  0.4086  0.6566
 3813SOL    HW113039   6.048   3.414   5.605  1.4176 -0.1988 -0.9303
 3813SOL    HW213040   5.968   3.333   5.488 -0.4583 -0.8913  0.7811
 3814SOL     OW13041   1.558   1.003   0.742  0.0566 -0.3462 -0.4670
 3814SOL    HW113042   1.481   0.969   0.796  0.1968 -0.4344 -0.3206
 3814SOL    HW213043   1.569   1.101   0.757 -0.4599 -0.1966 -1.0261
 3815SOL     OW13044   1.491   4.413   1.013  0.2455  0.2319 -0.2496
 3815SOL    HW113045   1.469   4.494   1.066 -2.1842 -0.6612  0.2207
 3815SOL    HW213046   1.565   4.363   1.058  0.2989  1.0495  0.6002
 3816SOL     OW13047   0.701   6.451   0.761  0.4771 -0.0962 -0.0832
 3816SOL    HW113048   0.602   6.450   0.748  0.3283 -0.8839  0.9129
 3816SOL    HW213049   0.746   6.418   0.678 -0.2231 -1.6301  0.1009
 3817SOL     OW13050   0.446   3.281   1.802  0.6115  0.2544 -0.1009
 3817SOL    HW113051   0.497   3.195   1.792  1.6105  0.8179  0.0340
 3817SOL    HW213052   0.398   3.281   1.890  0.1599 -0.3907 -0.3415
 3818SOL     OW13053   2.520   3.032   1.456  0.0976  0.0000 -0.2491
 3818SOL    HW113054   2.473   2.976   1.389 -4.2996  1.2148  1.4319
 3818SOL    HW213055   2.540   2.978   1.537 -0.3067 -0.1161 -0.2233
 3819SOL     OW13056   6.207   3.289   0.651  0.6164  0.0615 -0.7766
 3819SOL    HW113057   6.171   3.319   0.740  0.7439 -1.0000 -0.3520
 3819SOL    HW213058   6.161   3.340   0.578  0.5135  0.9545 -0.1127
 3820SOL     OW13059   5.251   6.511   6.697 -0.4460 -0.1647 -0.3013
 3820SOL    HW113060   5.175   6.474   6.749 -0.7191  0.6761 -0.0921
 3820SOL    HW213061   5.238   6.609   6.682  1.3984  0.3756  1.2003
 3821SOL     OW13062   2.042   4.559   4.737  0.5041 -0.8070 -0.2224
 3821SOL    HW113063   2.076   4.465   4.744  3.1344 -0.3463 -3.9643
 3821SOL    HW213064   2.046   4.589   4.642  0.7566  3.4576  0.9320
 3822SOL     OW13065   1.120   6.787   1.718 -0.0887 -0.1344  0.6859
 3822SOL    HW113066   1.177   6.716   1.677  0.0411 -0.2649  1.0864
 3822SOL    HW213067   1.164   6.820   1.802 -0.1230  0.4535  0.4752
 3823SOL     OW13068   1.864   5.028   3.401 -0.7163 -0.4328 -0.1499
 3823SOL    HW113069   1.805   5.089   3.348 -0.5525  0.0357  0.1979
 3823SOL    HW213070   1.841   5.037   3.498  0.8994  0.8526  0.1491
 3824SOL     OW13071   3.034   5.549   1.322  0.3451  0.1031 -0.3931
 3824SOL    HW113072   3.064   5.535   1.416 -1.2480  0.0998  0.1408
 3824SOL    HW213073   2.952   5.605   1.321 -0.1623 -0.6128 -1.7291
 3825SOL     OW13074   1.631   6.060   6.218 -0.3206 -0.6159  0.6964
 3825SOL    HW113075   1.565   5.994   6.255 -0.5093 -0.8151  0.0166
 3825SOL    HW213076   1.723   6.032   6.244 -0.4729 -0.5650  1.3031
 3826SOL     OW13077   6.736   3.280   2.186  0.2591  0.3474 -0.2180
 3826SOL    HW113078   6.687   3.360   2.152 -0.7945 -0.4171 -0.5135
 3826SOL    HW213079   6.674   3.202   2.193  1.1389 -0.3060  0.6134
 3827SOL     OW13080   6.814   5.966   1.850  1.3365  0.4416 -0.8754
 3827SOL    HW113081   6.773   5.876   1.836  1.4698  0.5016 -1.7057
 3827SOL    HW213082   6.820   5.986   1.948 -0.8754  0.5471 -0.7256
 3828SOL     OW13083   5.580   2.135   2.342  0.5130 -0.0513  0.2971
 3828SOL    HW113084   5.648   2.205   2.321  0.0779  0.4319  0.4794
 3828SOL    HW213085   5.624   2.059   2.389  1.2161 -0.4669 -1.0033
 3829SOL     OW13086   6.070   0.970   6.490 -0.0847  0.0533 -0.4839
 3829SOL    HW113087   6.111   1.054   6.525  2.3232 -1.1540 -0.1949
 3829SOL    HW213088   6.058   0.977   6.391  0.4209  0.6069 -0.5057
 3830SOL     OW13089   0.508   5.760   3.519  0.3404 -0.4725 -0.1239
 3830SOL    HW113090   0.460   5.848   3.513 -0.0954 -0.5178  1.9439
 3830SOL    HW213091   0.577   5.755   3.447  0.6235  1.7219 -0.0828
 3831SOL     OW13092   3.716   4.119   0.705 -0.1958 -0.7210 -0.0012
 3831SOL    HW113093   3.673   4.207   0.682 -0.0191 -0.5356  0.3629
 3831SOL    HW213094   3.666   4.045   0.662 -0.2937 -0.4308 -0.3889
 3832SOL     OW13095   2.748   6.607   2.732  0.1976 -0.0327  0.3947
 3832SOL    HW113096   2.805   6.546   2.787  0.1328 -3.4013 -2.8442
 3832SOL    HW213097   2.798   6.632   2.648 -1.4723  0.6917 -0.4338
 3833SOL     OW13098   6.251   4.505   5.974  0.5936 -0.8768  0.5232
 3833SOL    HW113099   6.164   4.537   6.012  0.1066 -0.4179 -0.9283
 3833SOL    HW213100   6.258   4.533   5.878  2.6675 -0.2583  0.8080
 3834SOL     OW13101   4.462   1.044   3.837  0.2998  0.6973 -0.6910
 3834SOL    HW113102   4.442   1.135   3.875  0.4803  0.5292 -0.1773
 3834SOL    HW213103   4.411   0.975   3.889  2.5216  0.2082  0.9877
 3835SOL     OW13104   3.940   2.172   6.962 -0.0858 -0.5595 -0.6873
 3835SOL    HW113105   3.922   2.075   6.949  0.7823 -0.7901 -0.2334
 3835SOL    HW213106   3.943   2.194   7.059  0.0243 -0.1362 -0.7810
 3836SOL     OW13107   4.293   2.616   5.589 -0.3090 -0.1936 -0.3565
 3836SOL    HW113108   4.202   2.633   5.551  0.2768  3.0810 -0.5873
 3836SOL    HW213109   4.287   2.605   5.688 -0.9266  0.5390 -0.3046
 3837SOL     OW13110   0.893   2.041   4.657  0.0407 -0.7073 -0.2392
 3837SOL    HW113111   0.924   2.131   4.626  0.4542 -1.2956 -1.5751
 3837SOL    HW213112   0.972   1.987   4.685 -0.2809 -0.3686  1.4209
 3838SOL     OW13113   0.209   4.771   1.366 -0.2702 -0.0284  0.3055
 3838SOL    HW113114   0.274   4.845   1.383  0.9684 -0.6065 -1.5812
 3838SOL    HW213115   0.242   4.715   1.289 -3.4516  0.2210 -1.4135
 3839SOL     OW13116   6.378   2.546   6.588 -0.4739 -0.0445  0.4762
 3839SOL    HW113117   6.341   2.456   6.613  1.4449 -1.4118 -1.2766
 3839SOL    HW213118   6.343   2.573   6.498 -0.6159  0.7512  0.7568
 3840SOL     OW13119   2.642   5.431   4.850  0.0519  0.0188  0.2745
 3840SOL    HW113120   2.596   5.347   4.823  1.3178 -1.7478  3.1701
 3840SOL    HW213121   2.645   5.437   4.950 -0.7116  3.9881  0.2267
 3841SOL     OW13122   0.622   1.061   4.915 -0.6001 -0.7179 -0.1110
 3841SOL    HW113123   0.582   1.130   4.976 -0.3985  0.0217 -0.7934
 3841SOL    HW213124   0.697   1.102   4.863 -2.2986 -0.5682 -2.6562
 3842SOL     OW13125   5.454   1.195   1.922  0.1897 -0.2534 -0.4428
 3842SOL    HW113126   5.386   1.149   1.864  0.7555  0.5520 -1.7795
 3842SOL    HW213127   5.546   1.172   1.889  0.4905  1.5608 -0.9425
 3843SOL     OW13128   4.086   6.646   4.463  0.2028 -0.1294 -0.1425
 3843SOL    HW113129   4.084   6.697   4.548  1.0741 -0.6892  0.2222
 3843SOL    HW213130   4.181   6.632   4.434 -0.0036 -1.5563 -0.2116
 3844SOL     OW13131   1.631   3.767   3.845 -0.5310  0.4092 -0.1188
 3844SOL    HW113132   1.620   3.806   3.754 -1.4056 -0.3906 -0.3716
 3844SOL    HW213133   1.604   3.835   3.913 -1.6475  0.4204 -0.5431
 3845SOL     OW13134   2.069   1.356   3.351  0.5151  0.1987 -0.2386
 3845SOL    HW113135   1.995   1.414   3.316  0.1843 -0.8334 -1.3148
 3845SOL    HW213136   2.148   1.413   3.373 -0.0451  1.1400 -0.5727
 3846SOL     OW13137   5.673   1.324   7.005  0.2323  0.3620  0.1572
 3846SOL    HW113138   5.726   1.390   6.953 -0.2347  0.2275 -0.4984
 3846SOL    HW213139   5.681   1.344   7.103  0.2379  1.2787 -0.0214
 3847SOL     OW13140   5.619   6.157   2.129 -0.1663 -0.0124 -0.9355
 3847SOL    HW113141   5.635   6.206   2.043  2.4608  2.1393  0.6199
 3847SOL    HW213142   5.688   6.184   2.196 -1.6369 -2.1998  1.6544
 3848SOL     OW13143   5.841   1.316   1.161 -0.4819 -0.7395  0.2852
 3848SOL    HW113144   5.937   1.344   1.166 -0.3731 -0.4406 -2.1282
 3848SOL    HW213145   5.800   1.320   1.252  1.3773  0.5880  1.1238
 3849SOL     OW13146   3.729   3.327   6.170 -0.1951  0.3118  0.0643
 3849SOL    HW113147   3.765   3.240   6.202  0.0317  0.5338  0.4218
 3849SOL    HW213148   3.704   3.320   6.073 -1.8826 -0.6801  0.5311
 3850SOL     OW13149   6.202   6.633   3.502 -0.1533  0.5650  0.0283
 3850SOL    HW113150   6.105   6.608   3.507 -0.1467  0.4042 -0.5771
 3850SOL    HW213151   6.232   6.667   3.591  0.0201 -2.2738  1.1746
 3851SOL     OW13152   1.947   4.547   6.195 -0.5263  0.2897 -0.1591
 3851SOL    HW113153   1.902   4.463   6.224  0.0942  0.0456  0.1033
 3851SOL    HW213154   2.045   4.531   6.185 -0.5487  0.6859 -1.1942
 3852SOL     OW13155   5.916   5.268   2.675 -0.5128  0.3000 -0.6256
 3852SOL    HW113156   5.825   5.281   2.714 -0.5532 -0.5430 -0.4107
 3852SOL    HW213157   5.907   5.247   2.577 -0.4598  1.5781 -0.9210
 3853SOL     OW13158   3.558   1.078   4.076 -0.4242 -0.8924 -0.1093
 3853SOL    HW113159   3.535   1.154   4.137 -1.8892 -0.7868 -0.7441
 3853SOL    HW213160   3.657   1.070   4.068 -0.2382  0.5748  0.4280
 3854SOL     OW13161   4.762   6.682   2.329 -0.6290  0.4131 -0.7071
 3854SOL    HW113162   4.772   6.588   2.296  0.3544  0.0754  0.5012
 3854SOL    HW213163   4.752   6.743   2.250 -0.4953 -0.6042 -1.5401
 3855SOL     OW13164   3.634   6.039   5.165  0.0944  0.8149 -0.2433
 3855SOL    HW113165   3.641   5.952   5.215  0.7197  0.7292 -0.4625
 3855SOL    HW213166   3.726   6.079   5.156 -0.1563  1.3671 -0.3758
 3856SOL     OW13167   6.215   7.001   4.961 -0.3814  0.1840 -0.2633
 3856SOL    HW113168   6.126   6.973   4.926 -2.2379  2.9826  1.7609
 3856SOL    HW213169   6.227   6.969   5.055  1.1050 -0.7079 -0.7115
 3857SOL     OW13170   2.885   6.944   1.494  0.1768 -0.1749 -0.2702
 3857SOL    HW113171   2.865   7.009   1.420  0.9361 -0.0229 -0.3569
 3857SOL    HW213172   2.858   6.984   1.581  1.1353  0.5110 -0.2625
 3858SOL     OW13173   2.681   5.766   4.979  0.7179  0.5212  0.3096
 3858SOL    HW113174   2.663   5.685   5.034  1.5247 -0.5473 -0.9216
 3858SOL    HW213175   2.615   5.772   4.904  0.8373  0.8319  0.2247
 3859SOL     OW13176   4.339   5.756   0.886 -0.0900 -0.1826  0.3872
 3859SOL    HW113177   4.357   5.659   0.905 -2.7153 -0.5353  1.5200
 3859SOL    HW213178   4.262   5.763   0.822 -1.4110  1.1214  2.0400
 3860SOL     OW13179   6.481   2.615   0.024 -0.1583 -0.0983 -0.1448
 3860SOL    HW113180   6.487   2.525   0.067 -1.1025  0.1485  0.5424
 3860SOL    HW213181   6.397   2.621  -0.030 -0.5218  0.6493  0.4863
 3861SOL     OW13182   2.303   6.691   1.570 -0.4856 -0.1173  0.0903
 3861SOL    HW113183   2.332   6.658   1.660 -1.1314 -0.7212  0.0886
 3861SOL    HW213184   2.318   6.789   1.564  0.8147 -0.2764  0.3675
 3862SOL     OW13185   6.597   1.116   0.145  0.1196  0.4433 -0.0256
 3862SOL    HW113186   6.556   1.026   0.133 -2.4970  1.5248  0.0075
 3862SOL    HW213187   6.611   1.158   0.056 -1.1560  0.9803  0.0007
 3863SOL     OW13188   3.431   2.963   5.693  0.1497  0.7995  0.4116
 3863SOL    HW113189   3.406   3.059   5.696 -0.2496  0.6850  1.0249
 3863SOL    HW213190   3.349   2.907   5.690  0.3821  0.4970 -1.4920
 3864SOL     OW13191   5.122   6.997   4.217 -0.4385  0.8981 -0.3932
 3864SOL    HW113192   5.172   7.011   4.132  0.3719 -1.3385 -0.3447
 3864SOL    HW213193   5.186   6.974   4.290 -1.3935 -0.6590 -0.0061
 3865SOL     OW13194   2.893   6.481   5.448  0.4893 -0.0120 -0.1554
 3865SOL    HW113195   2.929   6.574   5.435  0.6401 -0.1022 -0.3829
 3865SOL    HW213196   2.907   6.428   5.365  2.0053 -0.7761  0.5420
 3866SOL     OW13197   5.313   1.876   4.331 -0.7075 -0.0574 -0.2473
 3866SOL    HW113198   5.381   1.804   4.327 -0.5294  0.0572  0.4698
 3866SOL    HW213199   5.288   1.893   4.427 -0.1571  1.3607 -0.3186
 3867SOL     OW13200   2.546   3.204   3.357  0.1142 -0.3102 -0.1559
 3867SOL    HW113201   2.542   3.122   3.300 -1.5275 -0.3380 -0.0373
 3867SOL    HW213202   2.509   3.282   3.306 -1.5328 -0.3684  0.8970
 3868SOL     OW13203   5.487   0.390   3.305  0.2227  0.1438 -0.1576
 3868SOL    HW113204   5.498   0.385   3.206 -0.3730 -0.3864 -0.2019
 3868SOL    HW213205   5.548   0.460   3.342 -1.4936  2.2910 -1.2117
 3869SOL     OW13206   3.266   1.093   6.729  0.7938 -0.2394 -0.2689
 3869SOL    HW113207   3.309   1.007   6.755 -0.7516 -0.6083  1.2352
 3869SOL    HW213208   3.167   1.087   6.744  0.7893  2.2522  1.2026
 3870SOL     OW13209   1.215   7.015   2.237 -0.0067  0.1067  0.1767
 3870SOL    HW113210   1.216   6.968   2.325  2.0178  2.6525  1.6767
 3870SOL    HW213211   1.164   7.101   2.245 -1.5222 -0.5286 -1.7751
 3871SOL     OW13212   1.085   0.303   4.839  0.6560 -0.1843  0.7750
 3871SOL    HW113213   1.027   0.260   4.769  2.2429 -2.8469  0.9651
 3871SOL    HW213214   1.180   0.303   4.808  1.1239  0.4019  2.1390
 3872SOL     OW13215   5.155   5.355   4.486  0.1245 -0.3106 -0.5234
 3872SOL    HW113216   5.233   5.364   4.423 -0.3844  0.6729 -1.0503
 3872SOL    HW213217   5.103   5.274   4.462  0.5469 -0.5434 -0.6736
 3873SOL     OW13218   5.358   3.074   4.038 -0.2229  0.3452  0.0990
 3873SOL    HW113219   5.391   3.167   4.021  0.6148  0.0240 -0.0999
 3873SOL    HW213220   5.298   3.045   3.964 -2.5880  1.6493  1.4117
 3874SOL     OW13221   4.280   6.340   3.316  0.0408 -0.1175 -0.2360
 3874SOL    HW113222   4.224   6.423   3.316  1.8214  1.1421 -0.1194
 3874SOL    HW213223   4.331   6.334   3.230 -1.1584 -1.9203 -0.8814
 3875SOL     OW13224   4.456   3.684   5.063  0.1807 -0.0425 -0.2103
 3875SOL    HW113225   4.460   3.773   5.017  0.1073 -0.3988 -0.9115
 3875SOL    HW213226   4.545   3.639   5.056 -0.3417 -0.9192 -1.6753
 3876SOL     OW13227   4.190   7.001   3.899  0.6499 -0.2793  0.2235
 3876SOL    HW113228   4.152   7.093   3.896  0.5685 -0.3368 -1.2139
 3876SOL    HW213229   4.174   6.955   3.811 -0.4553 -2.1288  1.3289
 3877SOL     OW13230   4.855   3.688   0.542  0.1195  0.0184 -0.1131
 3877SOL    HW113231   4.766   3.662   0.506 -0.5628 -0.3784  1.7630
 3877SOL    HW213232   4.896   3.758   0.482 -2.2493  1.5476 -0.0646
 3878SOL     OW13233   1.725   0.405   4.284 -0.1843  0.1147  0.6170
 3878SOL    HW113234   1.750   0.325   4.338  1.2791 -0.6527 -1.1070
 3878SOL    HW213235   1.718   0.485   4.344 -0.3228 -1.0185  2.1627
 3879SOL     OW13236   5.378   1.416   6.521 -0.5916  0.0442  0.1002
 3879SOL    HW113237   5.471   1.379   6.518 -0.7817 -0.4485  0.2144
 3879SOL    HW213238   5.374   1.493   6.585 -0.0706  0.6114 -0.5342
 3880SOL     OW13239   4.090   0.057   6.198  0.0573 -0.4168 -0.0950
 3880SOL    HW113240   4.097   0.150   6.233  1.0981 -0.4233 -0.2324
 3880SOL    HW213241   4.149   0.047   6.117  0.2350 -1.2811  0.1284
 3881SOL     OW13242   1.709   0.191   3.865 -0.2342  0.1858 -0.6644
 3881SOL    HW113243   1.795   0.186   3.916 -0.8872 -0.2848  0.4108
 3881SOL    HW213244   1.728   0.224   3.772  1.1345 -0.1265 -0.5234
 3882SOL     OW13245   0.240   4.718   2.883 -0.2266  0.0475  0.4563
 3882SOL    HW113246   0.322   4.662   2.884  0.7477  1.3793 -0.9256
 3882SOL    HW213247   0.258   4.806   2.928 -0.6357  0.6630 -0.5416
 3883SOL     OW13248   4.312   0.410   0.542 -0.7040  0.1333  0.0034
 3883SOL    HW113249   4.271   0.437   0.455 -0.6911  1.4167  0.3755
 3883SOL    HW213250   4.350   0.491   0.588  0.5085 -0.7264  0.5781
 3884SOL     OW13251   0.800   4.775   5.184  0.1139 -0.4860  0.2515
 3884SOL    HW113252   0.769   4.780   5.279  0.5913 -0.7813  0.4272
 3884SOL    HW213253   0.721   4.776   5.123 -0.2218 -0.7543  0.6750
 3885SOL     OW13254   0.412   0.093   1.969  0.0871  0.6745 -0.0945
 3885SOL    HW113255   0.502   0.079   2.008  0.2359 -0.6559 -0.8665
 3885SOL    HW213256   0.377   0.183   1.996  1.2735  0.8495  0.8983
 3886SOL     OW13257   6.225   4.856   0.864  0.2158  0.6012  0.0137
 3886SOL    HW113258   6.270   4.900   0.787  1.9392  0.5728  0.9550
 3886SOL    HW213259   6.254   4.760   0.870 -0.9722  0.2161 -0.0936
 3887SOL     OW13260   6.005   5.337   6.282  0.3663  0.6364  0.3631
 3887SOL    HW113261   5.921   5.377   6.320  0.3368  0.3902  0.5576
 3887SOL    HW213262   5.982   5.289   6.197  0.1996  0.0158  0.7581
 3888SOL     OW13263   5.893   4.170   1.502  0.0592 -0.5997 -0.1686
 3888SOL    HW113264   5.954   4.204   1.573 -1.3039  2.8293 -0.4332
 3888SOL    HW213265   5.944   4.109   1.441  3.1223  1.5643 -0.0410
 3889SOL     OW13266   0.159   0.743   1.647  0.4353  0.5099 -0.4383
 3889SOL    HW113267   0.208   0.696   1.574  0.1637  0.4168 -0.5619
 3889SOL    HW213268   0.154   0.841   1.627  1.2384  0.6413 -0.0483
 3890SOL     OW13269   6.821   6.893   1.936  0.2118 -0.7706  0.2337
 3890SOL    HW113270   6.882   6.971   1.919 -1.1787  0.0407 -1.3266
 3890SOL    HW213271   6.851   6.815   1.882  1.1717 -1.1264  1.2333
 3891SOL     OW13272   3.680   0.164   5.485  0.1430 -0.2506 -0.6822
 3891SOL    HW113273   3.721   0.176   5.394  1.4725  2.5400  0.1586
 3891SOL    HW213274   3.628   0.245   5.509 -0.1258 -0.9043  1.0869
 3892SOL     OW13275   1.794   5.485   0.517 -0.1856 -0.1648  0.1551
 3892SOL    HW113276   1.840   5.470   0.604  1.0565 -0.3150 -0.4999
 3892SOL    HW213277   1.780   5.583   0.502  1.3277  0.0091 -0.3017
 3893SOL     OW13278   5.522   3.164   1.855 -0.2688  0.5333  0.1010
 3893SOL    HW113279   5.435   3.120   1.878 -1.2021  2.7404  1.0662
 3893SOL    HW213280   5.543   3.234   1.923  0.6059  2.3362 -1.9140
 3894SOL     OW13281   2.702   1.220   4.901  0.0352  0.4307  0.0941
 3894SOL    HW113282   2.604   1.208   4.911  0.1515  0.9998  2.6471
 3894SOL    HW213283   2.744   1.133   4.875 -0.9659 -0.2513  0.6949
 3895SOL     OW13284   5.941   0.118   4.716 -0.0555 -0.0499 -0.0994
 3895SOL    HW113285   5.888   0.203   4.716 -0.6161 -0.3385 -2.2725
 3895SOL    HW213286   6.030   0.134   4.674 -0.3587 -0.6188 -0.9897
 3896SOL     OW13287   5.331   3.755   2.341  0.4105  0.4504 -0.7559
 3896SOL    HW113288   5.344   3.813   2.422 -0.0679 -0.9592  0.3781
 3896SOL    HW213289   5.333   3.811   2.259 -0.2105  2.0894  0.3026
 3897SOL     OW13290   3.173   1.683   4.680  0.3985 -0.1904 -0.0794
 3897SOL    HW113291   3.240   1.653   4.612  0.9658  0.1350  0.3211
 3897SOL    HW213292   3.221   1.722   4.758 -0.1465 -2.1904  1.3324
 3898SOL     OW13293   7.008   1.241   1.685 -0.1010 -0.2300  0.3816
 3898SOL    HW113294   6.980   1.335   1.704  0.2908 -0.2564  1.1226
 3898SOL    HW213295   6.999   1.186   1.768  1.9772 -0.2656  0.6439
 3899SOL     OW13296   5.754   3.629   6.466 -0.0765 -0.7281 -0.0455
 3899SOL    HW113297   5.813   3.589   6.537 -0.6428 -1.3263  0.0918
 3899SOL    HW213298   5.741   3.727   6.485 -0.5539 -0.9706  0.8979
 3900SOL     OW13299   0.168   4.719   5.698 -0.4644  0.2778  0.1018
 3900SOL    HW113300   0.223   4.640   5.672  0.0024  1.4654 -2.8798
 3900SOL    HW213301   0.229   4.797   5.718 -0.9846  0.9466 -0.8628
 3901SOL     OW13302   1.774   3.145   0.550  0.3628 -0.2559  0.1932
 3901SOL    HW113303   1.757   3.220   0.486 -2.9335 -1.2492 -0.3106
 3901SOL    HW213304   1.868   3.113   0.540  0.7497  1.3508 -2.2176
 3902SOL     OW13305   4.873   2.301   2.784  0.4226  0.1926 -0.1589
 3902SOL    HW113306   4.913   2.344   2.865 -0.6191 -2.9617  2.2379
 3902SOL    HW213307   4.786   2.345   2.762  0.8370  1.2439  0.2634
 3903SOL     OW13308   4.879   6.898   4.192 -0.0429 -0.0863 -0.1212
 3903SOL    HW113309   4.977   6.915   4.199 -0.0466 -0.3605  0.6917
 3903SOL    HW213310   4.854   6.885   4.096  0.5073  1.1956 -0.4609
 3904SOL     OW13311   6.455   3.890   3.788  0.8687  0.2864  0.4996
 3904SOL    HW113312   6.399   3.936   3.858 -1.2720 -1.9700  0.3953
 3904SOL    HW213313   6.420   3.913   3.697 -0.6953 -1.9039  0.4608
 3905SOL     OW13314   6.972   0.214   6.252 -0.5637  0.1675  0.2575
 3905SOL    HW113315   6.898   0.184   6.312  0.1629  0.1354  1.1629
 3905SOL    HW213316   6.955   0.181   6.159 -0.1778 -2.4958  1.0359
 3906SOL     OW13317   6.791   3.793   0.484  0.4188  0.1873 -0.0425
 3906SOL    HW113318   6.802   3.725   0.556  2.6330  0.6268  0.1121
 3906SOL    HW213319   6.753   3.750   0.402 -1.6658 -0.4137  1.1810
 3907SOL     OW13320   6.059   4.318   0.082  0.2287  0.4991 -0.0110
 3907SOL    HW113321   6.065   4.301   0.181  2.0963 -1.1366 -0.3427
 3907SOL    HW213322   6.104   4.404   0.060  3.2277 -0.8888  0.2209
 3908SOL     OW13323   3.358   5.350   0.153  0.1649  0.2610 -0.4004
 3908SOL    HW113324   3.392   5.435   0.193 -0.6418  0.6398 -0.4999
 3908SOL    HW213325   3.430   5.280   0.157  1.0391  1.1029 -0.8335
 3909SOL     OW13326   3.186   0.801   6.989 -0.2306 -0.6321 -0.0842
 3909SOL    HW113327   3.102   0.751   7.011 -2.2556  2.4753 -0.0281
 3909SOL    HW213328   3.198   0.875   7.055  1.0877  0.6108 -1.6420
 3910SOL     OW13329   0.698   0.355   4.960  0.1041 -0.3030 -0.4624
 3910SOL    HW113330   0.714   0.446   4.923 -0.8774  0.0222 -0.1344
 3910SOL    HW213331   0.681   0.361   5.058  1.0369 -0.9656 -0.2448
 3911SOL     OW13332   5.583   0.539   5.077 -0.1561  0.4368 -0.5345
 3911SOL    HW113333   5.499   0.522   5.024  0.2666  0.6653 -1.2933
 3911SOL    HW213334   5.659   0.490   5.035  0.5570  2.0507 -1.2098
 3912SOL     OW13335   4.877   5.238   5.953  0.2393 -0.5582 -0.1893
 3912SOL    HW113336   4.916   5.174   6.019  2.7712  1.9515  0.9879
 3912SOL    HW213337   4.950   5.296   5.916 -1.7925  1.2625 -1.5957
 3913SOL     OW13338   5.092   3.565   1.252 -0.0959  0.1919 -0.0447
 3913SOL    HW113339   5.119   3.489   1.311 -1.8344 -0.0469  0.5014
 3913SOL    HW213340   5.014   3.537   1.195 -0.8861  1.6035  0.2974
 3914SOL     OW13341   6.463   4.087   1.141 -0.6131 -0.1205 -0.3942
 3914SOL    HW113342   6.490   4.164   1.084  0.6797  0.0428  0.4061
 3914SOL    HW213343   6.367   4.098   1.168 -0.1863  1.7693  0.5532
 3915SOL     OW13344   4.946   4.966   6.141  0.0541 -1.0624 -0.4509
 3915SOL    HW113345   5.029   5.014   6.169 -0.6479 -1.1704  2.0104
 3915SOL    HW213346   4.945   4.875   6.182 -1.5653 -0.8357  0.0794
 3916SOL     OW13347   1.813   3.598   1.072 -0.1605  0.6332 -0.4939
 3916SOL    HW113348   1.772   3.622   1.160 -1.2167  1.8950 -1.3041
 3916SOL    HW213349   1.849   3.680   1.028  1.8841 -0.2221 -0.5280
 3917SOL     OW13350   2.063   1.179   0.490  0.1185  0.1789 -0.3996
 3917SOL    HW113351   2.139   1.133   0.535  0.0388 -0.0244 -0.4725
 3917SOL    HW213352   2.093   1.214   0.401  0.3922  0.9501 -0.0117
 3918SOL     OW13353   4.822   2.172   0.417 -0.0431 -0.1678  0.2944
 3918SOL    HW113354   4.757   2.177   0.340 -0.9306  1.4409  1.0888
 3918SOL    HW213355   4.904   2.123   0.388 -1.1158 -1.2341 -1.1066
 3919SOL     OW13356   0.530   3.629   2.212  0.1873 -0.0730  0.3143
 3919SOL    HW113357   0.580   3.639   2.126 -0.1229  0.6338  0.2055
 3919SOL    HW213358   0.434   3.609   2.191 -0.2526  1.7532  0.4438
 3920SOL     OW13359   4.271   6.387   6.890  0.0460 -0.5127 -0.2731
 3920SOL    HW113360   4.180   6.356   6.917  0.1562  0.4472  1.3543
 3920SOL    HW213361   4.340   6.340   6.946  0.5162 -0.7525 -1.0383
 3921SOL     OW13362   1.117   3.801   5.134  0.6487 -0.4299 -0.3770
 3921SOL    HW113363   1.155   3.834   5.220 -0.0679 -0.4130 -0.0619
 3921SOL    HW213364   1.070   3.876   5.087  0.5992 -0.5622 -0.5406
 3922SOL     OW13365   4.233   0.292   2.248 -0.0626 -0.2341 -0.3137
 3922SOL    HW113366   4.181   0.344   2.180  0.9935 -0.2227 -1.1418
 3922SOL    HW213367   4.288   0.223   2.201  2.0705  0.9431  0.3192
 3923SOL     OW13368   1.592   6.483   5.474  0.2650 -0.0825  0.5633
 3923SOL    HW113369   1.691   6.494   5.466  0.1744  0.1056 -0.4108
 3923SOL    HW213370   1.553   6.564   5.518  0.1930  1.3711 -1.9898
 3924SOL     OW13371   0.068   2.793   3.307  0.4127  0.5233 -0.5214
 3924SOL    HW113372   0.092   2.730   3.380 -2.8222  0.4777  0.6626
 3924SOL    HW213373   0.070   2.745   3.219  1.7486 -0.1276 -0.1641
 3925SOL     OW13374   5.977   3.937   5.584 -0.3639  0.5891 -0.1727
 3925SOL    HW113375   5.949   4.031   5.602 -2.4247  0.1732 -0.8814
 3925SOL    HW213376   5.924   3.901   5.507 -1.6362 -1.9894  1.7452
 3926SOL     OW13377   4.628   6.663   1.680 -0.4335 -0.3412 -0.1011
 3926SOL    HW113378   4.728   6.669   1.689 -0.3937 -1.5211  0.4833
 3926SOL    HW213379   4.605   6.595   1.612 -0.8297 -0.9922  0.6645
 3927SOL     OW13380   0.501   2.849   4.826 -0.1088 -0.8054  1.2219
 3927SOL    HW113381   0.474   2.940   4.856 -1.4452 -0.5140 -0.6913
 3927SOL    HW213382   0.592   2.852   4.787 -0.4161 -0.1393  0.5432
 3928SOL     OW13383   0.622   6.274   3.214  0.5823 -0.0142  0.0020
 3928SOL    HW113384   0.627   6.342   3.141 -0.3442  0.0598  0.0040
 3928SOL    HW213385   0.638   6.183   3.176  2.1463  0.2162  0.0495
 3929SOL     OW13386   4.050   2.716   6.892  0.4119 -0.2759  0.3661
 3929SOL    HW113387   3.980   2.779   6.858  1.5696  1.4785  1.1684
 3929SOL    HW213388   4.141   2.752   6.872  1.1382 -0.3031  3.2638
 3930SOL     OW13389   3.904   6.907   4.584  0.5983 -0.3829 -0.2500
 3930SOL    HW113390   3.905   6.876   4.489 -0.1292  1.2243 -0.8122
 3930SOL    HW213391   3.990   6.881   4.629  1.0712 -0.8832 -1.4166
 3931SOL     OW13392   5.613   6.142   6.608 -0.1220 -0.6249 -0.0091
 3931SOL    HW113393   5.557   6.154   6.527 -0.0013  1.1484  0.1249
 3931SOL    HW213394   5.652   6.231   6.635  0.9615 -1.4213  1.1712
 3932SOL     OW13395   5.616   1.916   6.362 -0.2052  0.0435  0.1220
 3932SOL    HW113396   5.705   1.913   6.318 -1.5391 -2.1613 -2.7282
 3932SOL    HW213397   5.569   1.829   6.350 -1.9945  0.3603  3.3931
 3933SOL     OW13398   4.833   5.416   1.188 -0.1289  0.0878  0.4198
 3933SOL    HW113399   4.736   5.425   1.166 -0.3597 -3.4088 -0.5579
 3933SOL    HW213400   4.887   5.427   1.105 -0.0483 -1.4389  0.2330
 3934SOL     OW13401   5.345   2.729   2.892  0.5783  0.0939 -0.8315
 3934SOL    HW113402   5.292   2.793   2.948  1.3854 -0.1364  0.2326
 3934SOL    HW213403   5.309   2.637   2.904  0.5489  0.0928 -0.9343
 3935SOL     OW13404   5.619   6.966   2.368  0.0980  0.0868  0.4873
 3935SOL    HW113405   5.594   7.042   2.308 -0.5773 -0.0492  0.5926
 3935SOL    HW213406   5.619   6.998   2.463  1.0344  0.2681  0.4367
 3936SOL     OW13407   4.721   0.966   5.081  0.1059 -0.2653 -0.1209
 3936SOL    HW113408   4.690   0.947   4.988 -1.4601 -1.3067  0.5692
 3936SOL    HW213409   4.703   0.887   5.139 -4.3719  2.1060  2.3555
 3937SOL     OW13410   2.582   6.076   1.924  0.0595 -0.1189  0.1535
 3937SOL    HW113411   2.563   6.036   2.013  0.3074  0.8403  0.6483
 3937SOL    HW213412   2.677   6.105   1.919 -0.2991  1.1368  0.1191
 3938SOL     OW13413   6.880   0.934   1.762 -0.0409  0.3072  0.8831
 3938SOL    HW113414   6.915   0.988   1.839 -0.6743 -0.4558  1.7186
 3938SOL    HW213415   6.887   0.837   1.783  3.9917 -0.2513 -1.7903
 3939SOL     OW13416   6.855   4.945   3.898  0.3388  0.1661  0.2771
 3939SOL    HW113417   6.924   4.926   3.967 -0.9255  1.2230  1.9022
 3939SOL    HW213418   6.877   5.030   3.850  0.1523  0.5427  0.8475
 3940SOL     OW13419   2.685   1.190   3.574  0.0763 -0.1056  0.3641
 3940SOL    HW113420   2.724   1.116   3.629  1.7003  0.9332  0.6869
 3940SOL    HW213421   2.596   1.216   3.611 -0.7479 -2.1775 -0.0403
 3941SOL     OW13422   3.809   0.345   6.038 -0.4403 -0.0160  0.1269
 3941SOL    HW113423   3.818   0.255   6.082 -0.2116 -0.3917 -0.6604
 3941SOL    HW213424   3.833   0.416   6.104 -0.0444 -0.5644  0.5952
 3942SOL     OW13425   4.928   1.541   1.153  0.1541 -0.2072  0.2235
 3942SOL    HW113426   4.847   1.583   1.110 -0.5700  0.8396  2.4754
 3942SOL    HW213427   4.996   1.522   1.082 -1.6324 -0.1901 -1.6137
 3943SOL     OW13428   4.806   2.198   4.611  0.0037  0.5203 -0.1317
 3943SOL    HW113429   4.821   2.104   4.581  1.2470  0.6898 -0.0809
 3943SOL    HW213430   4.726   2.235   4.564  0.2389 -0.1578 -1.0925
 3944SOL     OW13431   4.801   1.925   4.580  0.3410  0.2186  0.0026
 3944SOL    HW113432   4.837   1.869   4.655  0.0901 -0.8201 -0.6306
 3944SOL    HW213433   4.702   1.925   4.584  0.2874 -0.6463 -0.8732
 3945SOL     OW13434   4.305   6.059   3.867 -0.8575 -0.3656  0.3558
 3945SOL    HW113435   4.268   6.139   3.820  1.6336  0.6558 -0.0464
 3945SOL    HW213436   4.270   5.976   3.823 -2.0213  0.5101 -0.4496
 3946SOL     OW13437   0.630   1.221   4.114  0.6178  0.2989  0.2693
 3946SOL    HW113438   0.624   1.121   4.121 -0.5118  0.1710 -1.7071
 3946SOL    HW213439   0.724   1.248   4.095  0.9103 -0.3977  0.7002
 3947SOL     OW13440   1.835   6.160   2.725 -0.3876 -0.4882  0.5413
 3947SOL    HW113441   1.882   6.081   2.765 -0.7214  0.0442  2.0676
 3947SOL    HW213442   1.892   6.241   2.736 -0.5798 -0.2962  0.1188
 3948SOL     OW13443   0.599   4.814   3.855  0.6962  0.3517  0.4007
 3948SOL    HW113444   0.643   4.886   3.908  0.1299  0.5141  0.6513
 3948SOL    HW213445   0.624   4.725   3.891  0.5236  0.4548  0.7745
 3949SOL     OW13446   2.307   6.984   0.538  0.2459  0.2718  0.0353
 3949SOL    HW113447   2.271   7.062   0.485 -0.0631  1.2869  1.6670
 3949SOL    HW213448   2.262   6.980   0.627  1.6473 -0.6009  0.7504
 3950SOL     OW13449   3.724   1.477   6.295  0.2730  0.5970 -0.6631
 3950SOL    HW113450   3.650   1.422   6.332  0.8123  1.2616  1.5810
 3950SOL    HW213451   3.786   1.419   6.242  0.1383 -0.7208  0.5611
 3951SOL     OW13452   5.237   3.221   3.556 -0.0885 -0.2748  0.0480
 3951SOL    HW113453   5.201   3.228   3.463  0.5688  0.2290 -0.1718
 3951SOL    HW213454   5.303   3.146   3.561  0.4286  0.1741 -0.0712
 3952SOL     OW13455   2.729   1.233   6.055  0.7230 -0.4606  0.1748
 3952SOL    HW113456   2.736   1.168   5.980  1.8428  0.2906 -0.3976
 3952SOL    HW213457   2.808   1.221   6.116  0.6554 -0.0061  0.3544
 3953SOL     OW13458   1.929   2.947   5.132 -0.3140 -0.1413  0.3665
 3953SOL    HW113459   1.888   3.012   5.196 -0.7139 -0.3256  0.2976
 3953SOL    HW213460   2.025   2.935   5.154 -0.1604  0.7013  0.2030
 3954SOL     OW13461   2.161   6.059   2.445  0.4341 -0.5558 -0.4773
 3954SOL    HW113462   2.207   6.125   2.505 -1.8519  1.1916 -0.5139
 3954SOL    HW213463   2.062   6.073   2.449 -0.1378 -3.5953 -1.0325
 3955SOL     OW13464   0.661   4.836   1.183  0.0576 -0.5062 -0.0772
 3955SOL    HW113465   0.580   4.851   1.239  1.0138  1.1401  0.9704
 3955SOL    HW213466   0.635   4.829   1.087 -1.1928  2.0265  0.0009
 3956SOL     OW13467   1.226   0.928   3.675 -0.1906 -0.0156  0.5670
 3956SOL    HW113468   1.255   1.022   3.655  1.5070 -0.5535  0.4192
 3956SOL    HW213469   1.138   0.911   3.631  1.2045  0.3189 -2.6280
 3957SOL     OW13470   0.742   2.818   6.666  0.4893  0.2696  0.2034
 3957SOL    HW113471   0.702   2.859   6.748  1.0743  0.1172  0.5698
 3957SOL    HW213472   0.787   2.889   6.612  0.3125  0.3306  0.1351
 3958SOL     OW13473   0.220   6.991   1.549 -0.9925 -0.1658 -0.4985
 3958SOL    HW113474   0.218   7.017   1.453  2.7178 -0.3561 -0.7717
 3958SOL    HW213475   0.222   7.073   1.606  3.0229  0.2878 -1.0140
 3959SOL     OW13476   2.705   4.436   5.377  0.1110 -0.2992  0.0604
 3959SOL    HW113477   2.637   4.450   5.305  0.2806 -0.0876 -0.0616
 3959SOL    HW213478   2.668   4.468   5.464 -0.7100 -2.0306  0.3859
 3960SOL     OW13479   3.392   3.332   1.996  1.0054  0.1395 -0.1918
 3960SOL    HW113480   3.420   3.417   1.952  1.2175  0.9134  1.3565
 3960SOL    HW213481   3.318   3.351   2.061  1.2326 -0.7935  0.3645
 3961SOL     OW13482   0.186   5.772   5.830  0.1015 -0.1085  0.0051
 3961SOL    HW113483   0.124   5.717   5.885 -0.6768 -0.0991 -0.8480
 3961SOL    HW213484   0.280   5.739   5.842 -0.3357 -1.6136 -0.4685
 3962SOL     OW13485   3.078   4.814   2.601 -0.4232 -0.1443  0.3017
 3962SOL    HW113486   3.022   4.885   2.558 -1.4160  0.1294  1.9636
 3962SOL    HW213487   3.124   4.761   2.530 -4.9008 -2.1868 -1.4632
 3963SOL     OW13488   3.065   6.507   6.768 -0.5877  0.4364  0.0236
 3963SOL    HW113489   3.084   6.524   6.671 -1.8238  0.7556 -0.1790
 3963SOL    HW213490   3.045   6.593   6.814  1.2993  0.4504  0.8860
 3964SOL     OW13491   5.248   3.203   5.673 -0.0237  0.2284  0.7168
 3964SOL    HW113492   5.265   3.128   5.608 -0.8224  0.6371  0.0327
 3964SOL    HW213493   5.303   3.187   5.755  3.1394  1.0737 -1.0506
 3965SOL     OW13494   4.540   1.205   4.637 -0.8054 -0.0558 -0.2557
 3965SOL    HW113495   4.561   1.291   4.590  1.1424 -0.8312 -0.8864
 3965SOL    HW213496   4.565   1.128   4.579 -1.5043 -1.0603  0.7354
 3966SOL     OW13497   1.576   2.418   4.823 -0.1573  0.1013 -0.2217
 3966SOL    HW113498   1.485   2.419   4.781 -0.3636 -1.9594  0.0421
 3966SOL    HW213499   1.566   2.418   4.923  0.2169  1.6309 -0.1640
 3967SOL     OW13500   5.550   4.331   4.289 -0.2302 -0.2111  0.1248
 3967SOL    HW113501   5.605   4.366   4.364  3.1837 -3.8284 -0.3916
 3967SOL    HW213502   5.577   4.376   4.204  2.2866 -2.0590 -0.1501
 3968SOL     OW13503   0.933   5.259   3.286 -0.5085  0.4273 -0.6599
 3968SOL    HW113504   0.872   5.292   3.215 -1.9054  0.7994  0.6513
 3968SOL    HW213505   1.025   5.297   3.273 -1.1425  1.7726 -1.3450
 3969SOL     OW13506   1.261   1.993   5.914  0.5590 -0.2516 -0.1030
 3969SOL    HW113507   1.241   2.089   5.899  2.6444  0.2545  0.0612
 3969SOL    HW213508   1.186   1.937   5.879  0.0045  1.3651 -1.6148
 3970SOL     OW13509   0.354   6.518   1.015 -0.2645  0.2460 -0.2700
 3970SOL    HW113510   0.389   6.431   1.049  0.1951  0.2087 -0.8281
 3970SOL    HW213511   0.396   6.593   1.067  0.0169  0.1669 -0.3810
 3971SOL     OW13512   6.747   4.307   5.314  0.1908 -0.2394  0.2151
 3971SOL    HW113513   6.658   4.337   5.278 -0.4726  0.3508  2.2106
 3971SOL    HW213514   6.733   4.256   5.399  1.7065 -1.1796 -0.0626
 3972SOL     OW13515   5.149   0.943   2.774  0.6981 -0.2020  0.4302
 3972SOL    HW113516   5.066   0.898   2.741  0.9515 -1.5526  1.5313
 3972SOL    HW213517   5.228   0.907   2.722  1.2187 -3.0292  2.8989
 3973SOL     OW13518   0.771   2.655   4.811 -0.7231 -0.0077 -0.1181
 3973SOL    HW113519   0.701   2.602   4.860 -0.0761 -1.7285 -1.0045
 3973SOL    HW213520   0.861   2.637   4.851 -0.2896 -0.8405 -1.4206
 3974SOL     OW13521   6.447   1.870   3.873  0.0695  0.0894 -0.2247
 3974SOL    HW113522   6.416   1.951   3.824  1.0044  0.0832 -0.8453
 3974SOL    HW213523   6.479   1.802   3.808  0.5435 -0.2501  0.3529
 3975SOL     OW13524   4.576   4.284   1.061 -0.4512  0.1602 -0.7346
 3975SOL    HW113525   4.667   4.317   1.086 -0.3236 -0.0067 -0.9740
 3975SOL    HW213526   4.519   4.362   1.034 -0.6364  0.3561  0.2005
 3976SOL     OW13527   5.415   0.728   1.033 -0.1420 -0.0056  0.1082
 3976SOL    HW113528   5.326   0.747   1.075  0.1442  1.5110  0.0836
 3976SOL    HW213529   5.485   0.725   1.104 -0.4668 -3.6438  0.4722
 3977SOL     OW13530   0.175   6.934   6.838 -0.3492 -0.6687  0.1908
 3977SOL    HW113531   0.175   6.895   6.931  0.2463  0.1343  0.5318
 3977SOL    HW213532   0.262   6.979   6.821 -0.1575 -1.4622 -1.0537
 3978SOL     OW13533   2.755   1.147   6.661 -0.0798 -0.2333  0.6043
 3978SOL    HW113534   2.813   1.227   6.673  1.2028 -0.7982 -1.4438
 3978SOL    HW213535   2.673   1.172   6.609  0.5953 -0.3147 -0.5366
 3979SOL     OW13536   6.223   0.213   1.974 -0.3571 -0.1613 -0.2232
 3979SOL    HW113537   6.244   0.127   1.927 -0.1237 -0.5717  0.6141
 3979SOL    HW213538   6.128   0.239   1.954  0.5297  1.1816 -3.1965
 3980SOL     OW13539   1.939   6.657   2.987  0.6678 -0.1222 -0.3418
 3980SOL    HW113540   1.953   6.650   2.888  0.3324  0.1217 -0.4074
 3980SOL    HW213541   1.904   6.748   3.010 -2.6101 -1.2304 -0.4254
 3981SOL     OW13542   2.064   0.471   6.235 -0.0864  0.2256 -0.1305
 3981SOL    HW113543   2.033   0.377   6.226  0.0244  0.3228 -1.6832
 3981SOL    HW213544   2.078   0.511   6.145  5.6622 -0.1593  0.2408
 3982SOL     OW13545   1.316   5.738   3.809  0.0042 -0.2919  0.2128
 3982SOL    HW113546   1.324   5.837   3.802  1.4948 -0.3050  1.2368
 3982SOL    HW213547   1.382   5.695   3.747 -1.7652 -0.7148 -1.4779
 3983SOL     OW13548   6.730   1.671   4.113 -0.5657 -0.2803  0.0399
 3983SOL    HW113549   6.801   1.654   4.181 -0.1989 -2.7147 -0.8599
 3983SOL    HW213550   6.768   1.658   4.021 -1.5868  0.8089 -0.5584
 3984SOL     OW13551   0.978   1.537   4.899  0.1442 -0.1684  0.0825
 3984SOL    HW113552   0.931   1.458   4.938 -0.1633  0.3527  0.8104
 3984SOL    HW213553   0.981   1.610   4.968  3.3692 -0.6898  0.6681
 3985SOL     OW13554   6.419   6.886   6.803 -0.5426  0.7547 -0.1379
 3985SOL    HW113555   6.480   6.961   6.825 -0.3281 -0.0386  2.2552
 3985SOL    HW213556   6.345   6.882   6.869  0.3239 -2.0407  0.8303
 3986SOL     OW13557   5.073   2.476   0.658  0.1876  0.3638 -0.0823
 3986SOL    HW113558   4.985   2.436   0.634  0.9282 -1.3158 -0.0775
 3986SOL    HW213559   5.080   2.568   0.618 -0.4314 -0.5795 -2.4864
 3987SOL     OW13560   1.961   6.343   6.054  0.0067  0.1017  0.4850
 3987SOL    HW113561   1.964   6.265   6.117 -1.9872 -0.3596  0.0631
 3987SOL    HW213562   1.903   6.321   5.976 -0.4506  1.9373  0.2613
 3988SOL     OW13563   3.805   6.991   3.830  0.8155  0.2410  0.7559
 3988SOL    HW113564   3.821   6.932   3.751 -0.2842  1.3397 -0.3496
 3988SOL    HW213565   3.800   6.936   3.913 -2.0039 -1.5478 -0.4408
 3989SOL     OW13566   4.590   0.857   5.330  0.4308  0.7494  0.2543
 3989SOL    HW113567   4.576   0.764   5.364  1.1996  0.9613  1.1716
 3989SOL    HW213568   4.672   0.896   5.372  0.6939  1.4770 -0.9008
 3990SOL     OW13569   1.225   5.171   0.834  0.3005 -0.1273 -0.2002
 3990SOL    HW113570   1.196   5.262   0.806  2.2772 -0.4040 -3.5933
 3990SOL    HW213571   1.278   5.128   0.761  3.1917 -2.3415  2.8886
 3991SOL     OW13572   5.914   3.101   0.703  0.1041 -0.4866 -0.2647
 3991SOL    HW113573   5.951   3.063   0.617 -3.4411  0.6899 -2.5256
 3991SOL    HW213574   5.883   3.195   0.687 -0.9739 -0.3532  2.2506
 3992SOL     OW13575   0.012   2.809   5.870  0.1967  0.2964 -0.5214
 3992SOL    HW113576   0.042   2.885   5.813  0.9547  2.0607  2.0397
 3992SOL    HW213577   0.083   2.789   5.938 -0.5161 -1.9311 -0.3626
 3993SOL     OW13578   5.286   0.118   1.497  0.2595  0.0134 -0.1609
 3993SOL    HW113579   5.216   0.189   1.503  1.9345  1.7028  0.5664
 3993SOL    HW213580   5.299   0.075   1.586 -0.8081 -1.3338 -0.6165
 3994SOL     OW13581   5.530   4.743   1.967  0.3680  0.0131  0.1677
 3994SOL    HW113582   5.449   4.716   2.018 -0.0871  2.4890  0.8814
 3994SOL    HW213583   5.507   4.752   1.870 -1.2902  3.8313  0.7034
 3995SOL     OW13584   6.308   3.758   6.731 -0.3992  0.1465  0.5626
 3995SOL    HW113585   6.288   3.853   6.752  0.3927  0.1624  1.3195
 3995SOL    HW213586   6.226   3.702   6.745 -0.3632  0.4270  2.0804
 3996SOL     OW13587   2.477   5.240   3.158 -0.1279  0.0548 -0.0220
 3996SOL    HW113588   2.471   5.247   3.059 -1.8137  0.5333  0.0745
 3996SOL    HW213589   2.549   5.175   3.183  1.0478  0.7214 -1.5121
 3997SOL     OW13590   2.379   3.271   6.749 -0.0134  0.1792 -0.2425
 3997SOL    HW113591   2.453   3.320   6.703 -0.1298 -1.4257 -2.2608
 3997SOL    HW213592   2.312   3.240   6.682 -0.6955 -1.4340  1.1135
 3998SOL     OW13593   0.568   0.100   1.276  0.4959 -0.3877  0.3819
 3998SOL    HW113594   0.586   0.110   1.374  2.3316  0.5229 -0.0011
 3998SOL    HW213595   0.497   0.164   1.248  1.4534  0.8984  0.7697
 3999SOL     OW13596   6.581   4.330   4.472  0.1256  0.0107  0.2677
 3999SOL    HW113597   6.527   4.299   4.394  2.1609 -0.1230 -1.1619
 3999SOL    HW213598   6.626   4.252   4.516  0.6344  0.3090  0.2860
 4000SOL     OW13599   0.584   1.070   2.550 -0.1831  0.4900 -0.1098
 4000SOL    HW113600   0.503   1.012   2.563 -0.0736  0.3285 -0.1496
 4000SOL    HW213601   0.643   1.063   2.630  0.5064 -0.5257 -0.6865
 4001SOL     OW13602   3.801   0.428   0.019 -0.4146  0.0155 -0.7256
 4001SOL    HW113603   3.835   0.493  -0.049 -0.5260  0.9379  0.0693
 4001SOL    HW213604   3.871   0.360   0.039 -0.1667  0.0939 -1.3214
 4002SOL     OW13605   5.478   5.128   4.975 -0.4191 -0.1912  0.8292
 4002SOL    HW113606   5.463   5.223   5.004  0.5917  0.3779 -0.4305
 4002SOL    HW213607   5.575   5.106   4.982 -0.1126 -0.0437 -1.9066
 4003SOL     OW13608   6.576   1.440   0.453  0.5959 -0.3113 -0.1560
 4003SOL    HW113609   6.479   1.417   0.450  0.3215  0.7242  0.3666
 4003SOL    HW213610   6.587   1.539   0.446  1.4880 -0.2239  1.8246
 4004SOL     OW13611   3.525   4.786   0.609 -0.0577  0.1876 -0.1670
 4004SOL    HW113612   3.555   4.879   0.587 -1.4268  0.7950  0.4539
 4004SOL    HW213613   3.426   4.784   0.616 -0.1381 -1.5901 -1.3456
 4005SOL     OW13614   4.999   5.852   0.685  0.2366 -0.4603 -0.4283
 4005SOL    HW113615   5.028   5.776   0.627 -0.8413 -0.8430 -0.4897
 4005SOL    HW213616   4.900   5.863   0.679  0.3621  0.8887 -0.3303
 4006SOL     OW13617   5.677   0.502   1.978  0.4584 -0.6179 -0.1833
 4006SOL    HW113618   5.735   0.581   1.957  0.8600 -0.6688  0.7267
 4006SOL    HW213619   5.597   0.504   1.917 -0.5030  1.5378  1.0291
 4007SOL     OW13620   1.585   0.038   2.832  0.2626 -0.1755  0.0224
 4007SOL    HW113621   1.635   0.090   2.901  2.1659 -0.9403 -0.7194
 4007SOL    HW213622   1.598  -0.060   2.847 -0.5402 -0.3841 -0.5441
 4008SOL     OW13623   4.177   5.812   1.155  0.8559 -0.0003 -0.0526
 4008SOL    HW113624   4.252   5.783   1.096  1.0339  0.6738 -0.1588
 4008SOL    HW213625   4.093   5.764   1.127  1.5681 -2.1023  1.1780
 4009SOL     OW13626   5.840   6.281   0.178 -0.1899  0.5991  0.2257
 4009SOL    HW113627   5.741   6.277   0.161 -0.2194  0.9681  0.2978
 4009SOL    HW213628   5.865   6.375   0.204  0.3689  0.8010 -0.9883
 4010SOL     OW13629   5.539   3.906   2.069  0.1830 -0.0156  0.3988
 4010SOL    HW113630   5.571   3.956   1.989  0.5797 -0.1944  0.4416
 4010SOL    HW213631   5.439   3.903   2.069  0.1634 -1.8750 -1.2789
 4011SOL     OW13632   5.809   3.910   6.129 -0.3585  0.8631  0.6518
 4011SOL    HW113633   5.867   3.907   6.048 -0.6027  0.2984  0.4923
 4011SOL    HW213634   5.805   3.819   6.171 -1.5545  0.7641  0.3532
 4012SOL     OW13635   0.989   1.545   0.787 -0.0864  0.0940 -0.1255
 4012SOL    HW113636   1.078   1.498   0.782  0.4468  1.0469  0.2184
 4012SOL    HW213637   0.997   1.625   0.846 -1.8140 -1.2040  2.0148
 4013SOL     OW13638   5.847   4.504   0.737 -0.4306  0.0926 -0.4633
 4013SOL    HW113639   5.831   4.530   0.642 -1.3122  0.7690 -0.1485
 4013SOL    HW213640   5.870   4.586   0.791  0.8980 -0.4058 -0.2528
 4014SOL     OW13641   3.524   1.213   0.932 -0.5647  0.5505  0.1865
 4014SOL    HW113642   3.429   1.226   0.959  0.2105  2.1767  2.3759
 4014SOL    HW213643   3.559   1.128   0.970 -1.9420 -1.8673 -3.3642
 4015SOL     OW13644   0.128   6.711   2.926 -0.1017 -0.1094  0.0782
 4015SOL    HW113645   0.196   6.767   2.879  1.0196 -0.6566  1.0011
 4015SOL    HW213646   0.073   6.769   2.986  1.2116  0.0219  1.2215
 4016SOL     OW13647   5.601   1.014   4.464 -0.1307 -0.3350  0.1029
 4016SOL    HW113648   5.578   1.103   4.426 -3.5987 -0.8910  0.5491
 4016SOL    HW213649   5.651   1.026   4.550  0.8695  1.0773 -0.6458
 4017SOL     OW13650   3.423   0.184   6.090 -0.0562 -0.1035  0.0851
 4017SOL    HW113651   3.460   0.095   6.063 -0.4943 -0.7381  1.4851
 4017SOL    HW213652   3.391   0.233   6.008  0.2158 -1.2186 -0.7087
 4018SOL     OW13653   6.416   4.215   2.197  0.3252  0.8087  0.3421
 4018SOL    HW113654   6.441   4.217   2.293  0.0885  0.4048  0.4158
 4018SOL    HW213655   6.419   4.307   2.159  1.3241  0.8530  0.4984
 4019SOL     OW13656   3.892   5.604   5.206 -0.1908 -0.1603 -0.4133
 4019SOL    HW113657   3.908   5.509   5.179  0.4550  0.4404 -2.3000
 4019SOL    HW213658   3.857   5.655   5.128 -1.3827  0.9792  0.8137
 4020SOL     OW13659   1.729   1.861   3.178 -0.8481  0.3199 -0.2304
 4020SOL    HW113660   1.815   1.873   3.229 -0.0237 -0.4561 -1.4060
 4020SOL    HW213661   1.657   1.911   3.225  0.4134  1.6991  0.3416
 4021SOL     OW13662   1.456   0.373   4.187 -0.3474  0.2186 -0.1125
 4021SOL    HW113663   1.459   0.321   4.101  0.3704 -0.2651  0.1918
 4021SOL    HW213664   1.547   0.410   4.206 -0.9858  2.2185 -0.6778
 4022SOL     OW13665   6.457   6.551   4.812  0.0476 -0.3204  0.2872
 4022SOL    HW113666   6.503   6.558   4.723  0.7062 -1.2221  0.5480
 4022SOL    HW213667   6.422   6.641   4.838  0.6062  0.1314 -0.4822
 4023SOL     OW13668   3.985   1.533   0.804 -0.4052 -0.0003 -0.3064
 4023SOL    HW113669   4.019   1.457   0.859 -1.7718 -0.2937  0.1717
 4023SOL    HW213670   4.035   1.536   0.717  3.2192  1.6775  1.5952
 4024SOL     OW13671   5.731   1.671   6.154  0.0991 -0.1114 -0.3803
 4024SOL    HW113672   5.823   1.636   6.134  0.9718  1.1938  1.1393
 4024SOL    HW213673   5.727   1.769   6.134 -0.7382 -0.0097  0.2272
 4025SOL     OW13674   4.545   1.051   0.361 -0.0010  0.1868 -0.2009
 4025SOL    HW113675   4.511   1.114   0.431  0.8667  1.8673 -1.2123
 4025SOL    HW213676   4.517   1.084   0.271 -1.7047 -2.3095 -0.6903
 4026SOL     OW13677   3.760   6.139   5.916 -0.0815 -0.1578 -0.2663
 4026SOL    HW113678   3.839   6.098   5.963  0.1448 -0.3481 -0.8086
 4026SOL    HW213679   3.747   6.232   5.950  0.6524  0.0333 -0.4833
 4027SOL     OW13680   2.293   5.487   1.680 -0.8405  0.3979  0.0076
 4027SOL    HW113681   2.389   5.460   1.677 -0.4860  1.5198  0.6114
 4027SOL    HW213682   2.240   5.430   1.617  0.1561 -0.4499 -0.0900
 4028SOL     OW13683   1.245   5.592   1.571 -0.1501 -0.1736  0.3429
 4028SOL    HW113684   1.247   5.494   1.593 -0.2008 -0.4660 -0.8739
 4028SOL    HW213685   1.185   5.606   1.493  3.3157  0.1853 -2.4858
 4029SOL     OW13686   1.083   2.803   4.047 -0.4103 -0.1645  0.0741
 4029SOL    HW113687   0.993   2.817   4.090 -0.2070 -1.9592  1.1745
 4029SOL    HW213688   1.133   2.889   4.048 -1.7017  0.6181  0.4368
 4030SOL     OW13689   1.712   2.334   6.915  0.2932 -0.4795 -0.3429
 4030SOL    HW113690   1.787   2.386   6.873 -0.2718  0.4486 -0.1962
 4030SOL    HW213691   1.720   2.338   7.014 -0.1032 -0.1608 -0.3240
 4031SOL     OW13692   1.053   4.773   6.832 -0.1150  0.4600  0.3766
 4031SOL    HW113693   1.021   4.791   6.739 -0.0164  0.0539  0.2603
 4031SOL    HW213694   0.976   4.753   6.891 -0.3116  2.0874  0.7095
 4032SOL     OW13695   1.322   3.321   2.826  0.1813 -0.2350 -0.0674
 4032SOL    HW113696   1.237   3.301   2.776 -0.6184 -2.0749  1.8878
 4032SOL    HW213697   1.326   3.265   2.908  3.0817  0.2226  0.1830
 4033SOL     OW13698   5.810   4.292   6.999 -0.0224  0.0347 -0.0685
 4033SOL    HW113699   5.746   4.306   7.075  1.0856  1.0831  0.7213
 4033SOL    HW213700   5.904   4.298   7.034  0.5099  0.0378 -1.4520
 4034SOL     OW13701   6.704   1.730   2.699 -0.1271 -0.0808  0.0366
 4034SOL    HW113702   6.630   1.783   2.742 -0.9585  0.7066 -2.1961
 4034SOL    HW213703   6.683   1.633   2.705 -0.6453  0.0615  0.6620
 4035SOL     OW13704   4.411   3.457   3.742  0.3029 -0.3833  0.0772
 4035SOL    HW113705   4.480   3.527   3.759 -2.6879  2.4967  1.7236
 4035SOL    HW213706   4.376   3.467   3.649 -0.8174  1.1741  0.6092
 4036SOL     OW13707   5.744   0.590   3.125 -0.1086  0.1206 -0.7885
 4036SOL    HW113708   5.676   0.518   3.112 -0.9509  0.5046  1.0867
 4036SOL    HW213709   5.795   0.573   3.210  0.0326  1.4400 -0.5796
 4037SOL     OW13710   1.666   6.984   0.156  0.1311  0.0132  0.0109
 4037SOL    HW113711   1.594   6.915   0.164  0.3549 -0.2489 -0.2315
 4037SOL    HW213712   1.633   7.060   0.099 -0.6873  0.8690  1.5508
 4038SOL     OW13713   4.856   6.071   3.730  0.1462 -0.3061 -0.4625
 4038SOL    HW113714   4.881   6.166   3.708  0.5390 -0.6539 -1.6311
 4038SOL    HW213715   4.777   6.070   3.791 -1.0996  0.7891 -1.9826
 4039SOL     OW13716   4.296   5.148   6.070  0.3033  0.4363  0.9086
 4039SOL    HW113717   4.376   5.089   6.056  0.2421  0.1684  1.6339
 4039SOL    HW213718   4.320   5.242   6.048  0.7252  0.3057  0.7951
 4040SOL     OW13719   6.169   6.259   1.097 -0.8323 -0.3158  0.1522
 4040SOL    HW113720   6.100   6.268   1.024  1.5123  1.7149 -2.0309
 4040SOL    HW213721   6.143   6.316   1.175 -2.1748 -0.5293 -0.1227
 4041SOL     OW13722   6.925   6.373   3.419 -0.1002  0.0271  0.7096
 4041SOL    HW113723   7.024   6.382   3.431  0.2918 -1.5892 -0.7597
 4041SOL    HW213724   6.881   6.462   3.432  1.5999  0.8806  0.8867
 4042SOL     OW13725   6.724   3.416   6.267 -0.4914 -0.4060  0.2519
 4042SOL    HW113726   6.662   3.397   6.191  0.5777 -1.1677 -0.4569
 4042SOL    HW213727   6.692   3.369   6.349 -1.0113 -0.5317 -0.0205
 4043SOL     OW13728   5.766   5.017   0.945  0.7491 -0.1983 -0.3631
 4043SOL    HW113729   5.763   4.928   0.991  0.1046 -0.1150 -0.2351
 4043SOL    HW213730   5.675   5.057   0.944  1.1952  0.8788  0.3768
 4044SOL     OW13731   6.744   1.659   6.125 -0.1006 -0.0376  0.3831
 4044SOL    HW113732   6.726   1.580   6.184 -0.6424 -0.5570 -0.4693
 4044SOL    HW213733   6.822   1.639   6.066  0.6673  0.6172  1.1449
 4045SOL     OW13734   5.195   2.184   0.997  0.2873 -0.0429 -0.6895
 4045SOL    HW113735   5.214   2.190   1.095 -5.1321 -0.2078  0.6785
 4045SOL    HW213736   5.189   2.276   0.959  1.1919  0.0564 -0.6169
 4046SOL     OW13737   1.065   1.565   2.023  0.4080 -0.4370  0.9936
 4046SOL    HW113738   1.127   1.515   2.083  1.3200 -0.2426  0.2420
 4046SOL    HW213739   1.091   1.548   1.927  1.2923  2.0989  0.7093
 4047SOL     OW13740   6.546   5.539   3.494  0.9620  0.8650 -0.0314
 4047SOL    HW113741   6.507   5.629   3.512 -1.5859 -0.0345 -0.5736
 4047SOL    HW213742   6.571   5.532   3.397  0.0537  0.6513 -0.2649
 4048SOL     OW13743   6.510   6.452   1.705  0.0334 -0.3780  0.7568
 4048SOL    HW113744   6.453   6.534   1.714  0.5001 -0.2622  3.5436
 4048SOL    HW213745   6.451   6.373   1.684 -0.4018  0.5804 -2.0770
 4049SOL     OW13746   0.948   6.704   5.691  0.2647 -0.4926  0.1181
 4049SOL    HW113747   0.899   6.780   5.734  0.0897 -0.0711 -0.7973
 4049SOL    HW213748   0.972   6.636   5.760 -0.2892  0.0134  0.8218
 4050SOL     OW13749   5.437   4.179   5.908 -0.3935  0.0535 -0.1098
 4050SOL    HW113750   5.378   4.101   5.928  0.5565 -0.5678  0.3740
 4050SOL    HW213751   5.509   4.152   5.844 -0.8665  0.9128 -1.0335
 4051SOL     OW13752   6.579   1.925   3.274  0.1930  0.2377  0.2777
 4051SOL    HW113753   6.504   1.858   3.271  0.9648 -0.6345 -0.2078
 4051SOL    HW213754   6.664   1.878   3.296  0.4895  1.3361  1.6117
 4052SOL     OW13755   5.400   2.031   5.201  0.0873 -0.0991  0.7834
 4052SOL    HW113756   5.342   2.112   5.188 -1.2907 -0.4277  3.9722
 4052SOL    HW213757   5.343   1.949   5.195  1.2244 -0.8053 -1.0038
 4053SOL     OW13758   3.874   1.682   5.237  0.1928  0.0895  0.4201
 4053SOL    HW113759   3.795   1.675   5.176  0.4879 -1.2548  0.1738
 4053SOL    HW213760   3.860   1.760   5.299 -0.6618  0.7394 -0.5415
 4054SOL     OW13761   0.267   2.855   2.764 -0.2595 -0.5000 -0.4511
 4054SOL    HW113762   0.289   2.868   2.861  0.8159  1.3094 -0.8955
 4054SOL    HW213763   0.188   2.911   2.740  0.6994  0.6386 -1.0387
 4055SOL     OW13764   3.558   6.272   1.856  0.5053  0.6156 -0.9445
 4055SOL    HW113765   3.461   6.292   1.848  0.5929  0.5426 -2.5977
 4055SOL    HW213766   3.605   6.299   1.772  1.8372  0.1665 -0.3837
 4056SOL     OW13767   0.918   3.183   0.723  0.1537  0.1328 -0.2364
 4056SOL    HW113768   0.947   3.213   0.632  1.0498 -0.9770 -0.3420
 4056SOL    HW213769   0.880   3.260   0.773 -0.6099  0.7065 -1.6452
 4057SOL     OW13770   3.963   5.365   2.573 -0.2681 -0.0295 -0.1987
 4057SOL    HW113771   3.999   5.343   2.482  0.6483  4.0875 -1.0663
 4057SOL    HW213772   4.040   5.388   2.633 -1.0427  0.6167  0.5575
 4058SOL     OW13773   5.578   6.922   6.876 -0.0020 -0.6100  0.9198
 4058SOL    HW113774   5.508   6.888   6.813  0.5876  1.4353 -0.9848
 4058SOL    HW213775   5.665   6.877   6.856 -0.1403 -1.0885  1.3652
 4059SOL     OW13776   5.549   5.225   5.891 -0.3052 -0.0885 -0.0153
 4059SOL    HW113777   5.593   5.150   5.842 -2.2953 -2.2763  1.3019
 4059SOL    HW213778   5.553   5.309   5.836  3.4236 -0.6457 -0.8435
 4060SOL     OW13779   3.366   6.212   6.930  0.1970 -0.1232  0.7762
 4060SOL    HW113780   3.373   6.154   6.849  0.1786  0.7566  0.1296
 4060SOL    HW213781   3.272   6.245   6.941 -0.0071 -0.9452  1.6754
 4061SOL     OW13782   5.370   0.781   2.217  0.5905 -0.0869  0.5841
 4061SOL    HW113783   5.447   0.720   2.236 -0.6129 -2.2163 -0.9176
 4061SOL    HW213784   5.287   0.727   2.203 -0.4156  1.8260 -1.5512
 4062SOL     OW13785   0.601   5.051   3.022  0.0557  0.1038 -0.5977
 4062SOL    HW113786   0.562   5.081   2.935 -0.0315  0.7356 -0.3510
 4062SOL    HW213787   0.534   5.061   3.095  0.0486 -0.6567 -0.4916
 4063SOL     OW13788   0.163   6.572   3.234  0.3216 -1.1135  0.2587
 4063SOL    HW113789   0.249   6.621   3.247 -0.7484  0.3324  2.5120
 4063SOL    HW213790   0.091   6.636   3.209 -0.3520 -2.1565 -0.5887
 4064SOL     OW13791   0.723   3.444   3.198  0.5677 -0.5973 -0.1869
 4064SOL    HW113792   0.691   3.420   3.106 -2.0651 -1.3120  0.8302
 4064SOL    HW213793   0.680   3.530   3.226  2.3237  0.2744 -0.0487
 4065SOL     OW13794   5.193   1.839   5.343 -0.2250  0.2996 -0.7117
 4065SOL    HW113795   5.215   1.928   5.385  1.3491  0.7013 -2.2769
 4065SOL    HW213796   5.150   1.854   5.254 -0.2410 -0.5245 -0.8503
 4066SOL     OW13797   2.252   1.746   0.820 -0.6951 -0.1342  0.0998
 4066SOL    HW113798   2.178   1.801   0.857 -3.4531 -2.5607 -1.3664
 4066SOL    HW213799   2.269   1.772   0.725 -0.7715 -0.5737 -0.0394
 4067SOL     OW13800   6.051   4.158   6.447  0.0741 -0.2427  0.3891
 4067SOL    HW113801   6.075   4.072   6.401 -0.7964 -0.0778 -0.3821
 4067SOL    HW213802   5.990   4.211   6.389 -0.6068  0.2209  1.5093
 4068SOL     OW13803   4.315   2.242   0.687 -0.3113 -0.1599  0.7692
 4068SOL    HW113804   4.268   2.328   0.667  0.0598  0.4936  2.5147
 4068SOL    HW213805   4.411   2.249   0.662 -0.2625 -0.0158  0.9890
 4069SOL     OW13806   4.354   6.938   1.179 -0.2766 -0.7191  0.2682
 4069SOL    HW113807   4.287   6.865   1.195  0.6177 -1.6512 -0.0831
 4069SOL    HW213808   4.425   6.905   1.116 -1.4262  1.4441 -2.3622
 4070SOL     OW13809   3.906   1.214   5.878 -0.1995  0.1688  0.0545
 4070SOL    HW113810   3.860   1.153   5.943 -0.5929  0.5458  0.1349
 4070SOL    HW213811   3.967   1.160   5.820  1.7150  0.0601  2.0566
 4071SOL     OW13812   0.732   0.444   3.548  0.0564 -1.0879 -0.5459
 4071SOL    HW113813   0.684   0.366   3.588  1.6585 -1.5083  0.6325
 4071SOL    HW213814   0.665   0.504   3.505 -1.5706 -1.5656  1.1421
 4072SOL     OW13815   0.011   6.689   3.999  0.2272  0.3000 -0.2407
 4072SOL    HW113816  -0.016   6.752   4.072 -1.6355 -1.0824  0.3245
 4072SOL    HW213817   0.044   6.604   4.039  0.9223  0.2013 -1.0081
 4073SOL     OW13818   6.291   6.997   1.835  0.4888  0.0080 -0.3364
 4073SOL    HW113819   6.300   6.927   1.906  2.8550  0.0777 -0.4935
 4073SOL    HW213820   6.340   6.966   1.753  0.6552  1.3765 -0.7650
 4074SOL     OW13821   1.422   5.644   4.035  0.8687  0.2372  0.1418
 4074SOL    HW113822   1.373   5.686   3.958 -0.8071  0.8213  1.4786
 4074SOL    HW213823   1.504   5.599   4.000  0.0977  0.3460 -2.0187
 4075SOL     OW13824   6.111   6.981   2.183  0.8661 -0.0221 -0.4197
 4075SOL    HW113825   6.211   6.979   2.170  0.8059 -1.5485 -0.8196
 4075SOL    HW213826   6.066   6.944   2.102  0.1102 -1.7053  0.7128
 4076SOL     OW13827   2.509   1.749   1.907  0.3610  0.3424  0.0316
 4076SOL    HW113828   2.443   1.688   1.950  0.5017 -0.4535 -0.8504
 4076SOL    HW213829   2.567   1.791   1.976 -1.8765  2.0869  1.0027
 4077SOL     OW13830   4.134   4.719   6.645 -0.8630 -0.2478 -0.1750
 4077SOL    HW113831   4.197   4.792   6.620 -1.4848  0.0547 -0.8877
 4077SOL    HW213832   4.043   4.757   6.661 -0.7709 -0.6141  1.3212
 4078SOL     OW13833   2.965   4.428   1.859  0.3232 -0.6841 -0.3509
 4078SOL    HW113834   2.877   4.454   1.898 -0.3322 -1.1335 -1.4810
 4078SOL    HW213835   3.032   4.500   1.876 -1.0994  1.2225 -2.3325
 4079SOL     OW13836   3.342   2.204   6.051  0.0027 -0.0474  0.3296
 4079SOL    HW113837   3.272   2.261   6.095  0.9815  2.3881 -1.1069
 4079SOL    HW213838   3.432   2.226   6.089  0.2675 -1.7130  0.7441
 4080SOL     OW13839   2.737   4.437   6.649 -0.1024  0.4809  0.6846
 4080SOL    HW113840   2.695   4.438   6.740  0.4605  0.4354  0.9528
 4080SOL    HW213841   2.832   4.468   6.656  1.0214 -2.6080  0.6928
 4081SOL     OW13842   5.200   6.096   3.577 -0.6017 -0.0866  0.6298
 4081SOL    HW113843   5.150   6.157   3.515 -0.0530  1.0988  1.3258
 4081SOL    HW213844   5.139   6.021   3.605 -1.2830  0.1127 -0.2563
 4082SOL     OW13845   2.633   3.471   1.790 -0.1050  0.1111  0.2114
 4082SOL    HW113846   2.640   3.398   1.722 -0.0410  0.1227  0.2056
 4082SOL    HW213847   2.537   3.493   1.806 -0.1544 -0.3977  0.6572
 4083SOL     OW13848   4.398   4.831   2.986  0.0567 -0.7271 -0.3346
 4083SOL    HW113849   4.389   4.798   3.080 -1.6165 -0.3778 -0.3460
 4083SOL    HW213850   4.309   4.828   2.940  0.2679  1.7170 -1.0281
 4084SOL     OW13851   4.340   0.530   1.932  0.8424  0.6161  0.2898
 4084SOL    HW113852   4.258   0.507   1.985 -1.3417  0.3483 -2.9313
 4084SOL    HW213853   4.354   0.629   1.935  1.5166  0.5063  2.2621
 4085SOL     OW13854   6.035   6.662   5.281  0.2063 -0.1614  0.4310
 4085SOL    HW113855   6.006   6.608   5.202  1.4844 -0.7763  0.3605
 4085SOL    HW213856   6.131   6.643   5.301  0.1511  0.6722  1.5832
 4086SOL     OW13857   1.628   1.993   1.622  0.1098 -0.6224 -0.4606
 4086SOL    HW113858   1.623   2.074   1.681 -0.7966 -0.1506 -1.1507
 4086SOL    HW213859   1.723   1.978   1.595  0.7697 -1.5801  2.0574
 4087SOL     OW13860   5.156   4.718   5.655 -0.0292 -0.0447  0.3930
 4087SOL    HW113861   5.124   4.793   5.597 -0.1463 -0.3974 -0.0047
 4087SOL    HW213862   5.098   4.711   5.736  0.3063  0.6326  0.7015
 4088SOL     OW13863   1.833   6.242   3.184 -0.5741 -0.1465  0.3865
 4088SOL    HW113864   1.798   6.241   3.090 -0.5345 -0.4887  0.3757
 4088SOL    HW213865   1.756   6.246   3.248 -0.5885  1.6171  0.3284
 4089SOL     OW13866   3.742   3.399   5.547  0.0543  0.0331  0.4837
 4089SOL    HW113867   3.813   3.328   5.540  1.2100  1.2799 -1.0194
 4089SOL    HW213868   3.770   3.466   5.616  0.6922  0.8770 -0.5727
 4090SOL     OW13869   6.420   5.020   2.271  0.4005 -0.2493  0.0701
 4090SOL    HW113870   6.374   5.019   2.359  3.0801  0.7422  1.6041
 4090SOL    HW213871   6.455   4.928   2.251 -0.1811 -0.4672  0.0389
 4091SOL     OW13872   1.974   0.758   7.001 -0.2623 -0.2587  0.0790
 4091SOL    HW113873   1.885   0.767   7.046 -0.1104  1.0495  0.1290
 4091SOL    HW213874   1.963   0.699   6.920 -1.0301 -0.6281  0.4351
 4092SOL     OW13875   1.256   6.521   5.876  0.3084 -0.1633  0.0581
 4092SOL    HW113876   1.207   6.449   5.926  1.6627  0.3005  2.2024
 4092SOL    HW213877   1.335   6.482   5.830  0.7530 -0.1674  0.8014
 4093SOL     OW13878   4.374   3.532   1.221 -0.5827  0.0948  0.0189
 4093SOL    HW113879   4.367   3.474   1.302  2.1278 -0.6666 -0.1806
 4093SOL    HW213880   4.293   3.520   1.165 -1.8543 -0.4862  1.8855
 4094SOL     OW13881   3.928   1.212   1.578 -0.5677 -0.4383  0.7102
 4094SOL    HW113882   3.884   1.128   1.611 -1.8069 -0.3849 -0.6970
 4094SOL    HW213883   3.910   1.222   1.481  0.1813  1.1083  0.7123
 4095SOL     OW13884   4.843   5.838   3.910 -0.0110  0.1345 -0.8849
 4095SOL    HW113885   4.751   5.874   3.924  0.4181  1.6747 -1.7221
 4095SOL    HW213886   4.884   5.882   3.830  1.2217 -0.9947 -0.9098
 4096SOL     OW13887   5.571   1.986   6.616 -0.0960 -0.0484 -0.5597
 4096SOL    HW113888   5.553   1.915   6.685  4.1206  1.4578  2.5224
 4096SOL    HW213889   5.610   1.944   6.534 -0.6167 -1.4788 -0.1080
 4097SOL     OW13890   6.003   2.463   0.246  0.4548  0.4136 -0.2187
 4097SOL    HW113891   5.997   2.470   0.146  2.4852  2.0987 -0.2819
 4097SOL    HW213892   5.970   2.373   0.275 -2.2934  0.6667 -2.1563
 4098SOL     OW13893   6.654   0.584   5.325 -0.1037 -0.1046 -0.2105
 4098SOL    HW113894   6.657   0.639   5.409  2.6996 -0.3078 -0.0941
 4098SOL    HW213895   6.595   0.629   5.258 -0.8846  1.0537  1.1965
 4099SOL     OW13896   1.093   0.846   5.515 -0.1554  0.0961  0.5922
 4099SOL    HW113897   1.098   0.757   5.469  2.0828 -0.6274  2.0644
 4099SOL    HW213898   1.002   0.887   5.499 -1.3114 -2.4926  0.0180
 4100SOL     OW13899   6.137   4.588   2.662  0.2027 -0.1045  0.2881
 4100SOL    HW113900   6.100   4.573   2.754  1.3183 -1.3442  0.5666
 4100SOL    HW213901   6.076   4.648   2.611 -0.3772  0.7067  1.8768
 4101SOL     OW13902   6.672   3.323   0.467 -0.0316 -0.6913 -0.5992
 4101SOL    HW113903   6.665   3.256   0.393 -1.0599 -1.1350 -0.1201
 4101SOL    HW213904   6.582   3.363   0.483 -0.2771 -1.9868  1.6602
 4102SOL     OW13905   1.796   2.088   0.175  0.0703 -0.0054 -0.0638
 4102SOL    HW113906   1.818   2.054   0.084 -1.9096  0.0992 -0.6197
 4102SOL    HW213907   1.781   2.187   0.171 -0.9836 -0.1492  0.1755
 4103SOL     OW13908   5.742   5.616   5.741 -0.7905 -0.2058 -0.0566
 4103SOL    HW113909   5.722   5.596   5.837 -0.4721  0.1210  0.0825
 4103SOL    HW213910   5.709   5.541   5.684  2.5360 -2.4228  0.6404
 4104SOL     OW13911   1.992   5.477   4.032 -0.4693 -0.2536 -0.6599
 4104SOL    HW113912   1.943   5.391   4.018  0.0910 -0.1923 -3.6204
 4104SOL    HW213913   2.005   5.523   3.944 -1.4164  3.2832  0.8455
 4105SOL     OW13914   4.236   0.067   3.596 -0.7151 -0.2082  0.1859
 4105SOL    HW113915   4.180   0.139   3.637 -0.6261 -0.5671  0.9500
 4105SOL    HW213916   4.254   0.089   3.500  1.7172  2.2461  1.0976
 4106SOL     OW13917   1.940   2.225   0.735  0.3143  0.4776  0.1177
 4106SOL    HW113918   1.976   2.317   0.754  1.9462  0.1354 -1.1149
 4106SOL    HW213919   1.892   2.191   0.816  1.1039  1.7562  1.1681
 4107SOL     OW13920   3.315   5.881   1.098 -0.7129  0.0191  0.1616
 4107SOL    HW113921   3.241   5.846   1.041 -0.4991 -0.9708  0.4664
 4107SOL    HW213922   3.341   5.972   1.067 -1.6452  0.1296 -0.3281
 4108SOL     OW13923   0.878   2.798   2.305  0.2150 -0.3565  0.3452
 4108SOL    HW113924   0.780   2.789   2.323  0.0798  2.1668  1.3305
 4108SOL    HW213925   0.929   2.777   2.388  0.5704 -1.9739 -0.2526
 4109SOL     OW13926   2.728   6.824   6.857 -0.3526 -0.3501  0.2983
 4109SOL    HW113927   2.702   6.914   6.822  0.3208  0.0493  0.7948
 4109SOL    HW213928   2.806   6.789   6.806 -0.7554 -0.7670 -0.0458
 4110SOL     OW13929   0.815   4.852   3.076 -0.2416 -0.0527  0.0069
 4110SOL    HW113930   0.729   4.902   3.064 -0.4768 -0.2566  0.7980
 4110SOL    HW213931   0.867   4.893   3.151 -0.3312 -0.8451  0.5149
 4111SOL     OW13932   4.375   0.004   2.720 -0.1063 -0.0956  0.2749
 4111SOL    HW113933   4.443   0.060   2.769 -0.3837 -0.3376  0.9389
 4111SOL    HW213934   4.284   0.022   2.757 -0.7281  1.7117 -1.9098
 4112SOL     OW13935   4.755   0.384   4.169 -0.4079 -0.4657 -0.0474
 4112SOL    HW113936   4.686   0.372   4.240 -0.9625 -2.4319 -0.8315
 4112SOL    HW213937   4.813   0.302   4.165 -0.0441 -0.1656 -1.4878
 4113SOL     OW13938   6.963   6.220   1.388  0.2413 -0.0266 -0.1505
 4113SOL    HW113939   6.916   6.161   1.453  0.7958 -0.1460  0.1488
 4113SOL    HW213940   6.915   6.307   1.381 -0.3167 -0.3381 -0.2415
 4114SOL     OW13941   5.456   3.007   0.712  0.1083  0.5228  0.2143
 4114SOL    HW113942   5.419   2.992   0.803  0.6303  1.5617  0.6121
 4114SOL    HW213943   5.505   2.925   0.682 -0.6760 -0.0861  0.5515
 4115SOL     OW13944   2.414   0.594   1.158 -0.4228 -0.2546 -0.2787
 4115SOL    HW113945   2.355   0.561   1.085 -0.1208 -2.7143  0.5033
 4115SOL    HW213946   2.361   0.653   1.220 -0.6754  1.8535 -2.3734
 4116SOL     OW13947   5.044   0.848   2.412 -0.0566 -0.2430  0.3026
 4116SOL    HW113948   5.139   0.878   2.414 -0.9359  3.0061 -0.1115
 4116SOL    HW213949   5.026   0.798   2.328  1.1619 -0.4546  0.1542
 4117SOL     OW13950   6.434   6.620   2.168 -0.2928 -0.2899  0.4231
 4117SOL    HW113951   6.512   6.660   2.121 -0.9276  1.0085  0.4282
 4117SOL    HW213952   6.463   6.538   2.218  0.6506 -0.9489 -1.1404
 4118SOL     OW13953   4.651   0.948   6.340  0.0570 -0.3755 -0.3495
 4118SOL    HW113954   4.682   0.909   6.427 -0.6245  0.6296  0.3579
 4118SOL    HW213955   4.708   0.911   6.266  0.4169 -1.5255  0.4591
 4119SOL     OW13956   5.577   5.871   4.886 -0.4192 -0.3105  0.3589
 4119SOL    HW113957   5.554   5.813   4.964 -1.3993 -1.8350 -0.9985
 4119SOL    HW213958   5.661   5.839   4.843  1.7237  2.2112  2.3231
 4120SOL     OW13959   2.922   6.750   5.438  0.4446 -0.4094  0.4551
 4120SOL    HW113960   2.963   6.813   5.504  1.0266 -0.1934 -0.0960
 4120SOL    HW213961   2.942   6.782   5.345 -1.1088 -0.2164  0.1578
 4121SOL     OW13962   4.718   1.886   1.761 -0.3359 -0.4807  0.2419
 4121SOL    HW113963   4.736   1.952   1.688  0.0750  2.6193  2.8963
 4121SOL    HW213964   4.795   1.823   1.770 -0.2663 -0.7418 -1.6913
 4122SOL     OW13965   0.172   2.097   5.597 -0.3341 -0.2798  0.0848
 4122SOL    HW113966   0.131   2.173   5.648  0.9419 -0.1017  0.8969
 4122SOL    HW213967   0.197   2.128   5.506 -3.5441 -0.8587 -1.1476
 4123SOL     OW13968   2.915   1.586   5.003 -0.0843  0.2556 -0.2927
 4123SOL    HW113969   2.902   1.561   4.907  0.6501  2.7721 -1.1312
 4123SOL    HW213970   3.010   1.571   5.029 -0.6015 -1.9256  0.6091
 4124SOL     OW13971   4.574   3.914   5.388 -0.0662  0.6151 -0.2750
 4124SOL    HW113972   4.516   3.960   5.320  1.3625  0.7848 -1.4362
 4124SOL    HW213973   4.650   3.974   5.413  0.8161 -0.4067 -0.4372
 4125SOL     OW13974   2.818   1.955   1.176 -0.3992 -0.2374  0.1472
 4125SOL    HW113975   2.875   1.970   1.257 -0.2520 -1.9974  0.3979
 4125SOL    HW213976   2.798   1.858   1.166 -1.4564  0.0845 -1.2487
 4126SOL     OW13977   4.083   3.882   0.333  0.0421 -0.0715 -0.4225
 4126SOL    HW113978   3.996   3.925   0.355 -0.5380 -0.9504 -0.9019
 4126SOL    HW213979   4.067   3.786   0.307  1.2588 -0.5160  0.3944
 4127SOL     OW13980   0.053   4.179   4.343  0.0513 -1.3322 -0.1522
 4127SOL    HW113981   0.115   4.109   4.377 -0.3430 -1.5195  0.1914
 4127SOL    HW213982  -0.038   4.140   4.331  0.2802 -1.4070 -1.9192
 4128SOL     OW13983   6.535   1.381   6.183 -0.2667 -0.5612  0.3231
 4128SOL    HW113984   6.619   1.382   6.237 -1.3331  1.2158  2.0676
 4128SOL    HW213985   6.456   1.388   6.244 -1.6242 -0.2087 -1.3886
 4129SOL     OW13986   6.532   6.539   3.357 -0.3523 -0.0266  0.9199
 4129SOL    HW113987   6.552   6.443   3.339  1.5552  0.1184  1.9559
 4129SOL    HW213988   6.602   6.597   3.314  0.5558  0.6529  3.1654
 4130SOL     OW13989   1.080   5.864   2.821  0.2141  0.2142 -0.0761
 4130SOL    HW113990   1.032   5.776   2.821  0.9264 -0.2155  1.3650
 4130SOL    HW213991   1.058   5.914   2.738 -4.2560  0.8697  1.2133
 4131SOL     OW13992   0.926   1.214   4.433 -0.1605 -0.2661 -0.0065
 4131SOL    HW113993   0.850   1.154   4.458  1.9180 -1.4561  4.5165
 4131SOL    HW213994   0.925   1.295   4.491  1.2925  0.3702 -0.8190
 4132SOL     OW13995   0.277   6.876   4.921 -0.0561 -0.0224  0.7410
 4132SOL    HW113996   0.244   6.866   4.828  1.8492  0.6721 -0.0479
 4132SOL    HW213997   0.274   6.787   4.967 -2.1609 -0.1452  0.4711
 4133SOL     OW13998   5.017   5.544   1.821 -0.0624  0.5731 -0.5445
 4133SOL    HW113999   4.979   5.498   1.741 -1.3750  1.6395 -0.5720
 4133SOL    HW214000   4.969   5.630   1.836  1.9799  1.7195 -0.2015
 4134SOL     OW14001   0.528   3.165   0.869  0.1737  0.3207 -0.4499
 4134SOL    HW114002   0.444   3.219   0.862  0.5588  0.9161 -0.6169
 4134SOL    HW214003   0.595   3.201   0.804  0.9311  0.5550  0.4504
 4135SOL     OW14004   5.651   2.559   5.197  0.2057  0.4105  0.3208
 4135SOL    HW114005   5.733   2.534   5.250 -0.0746 -1.4028 -0.0250
 4135SOL    HW214006   5.571   2.516   5.238  0.0502 -1.4980 -1.8015
 4136SOL     OW14007   0.675   6.681   6.813 -0.1191  1.0644 -0.6369
 4136SOL    HW114008   0.741   6.608   6.827 -2.1012 -0.9367 -1.0629
 4136SOL    HW214009   0.700   6.735   6.733  0.8376  0.1712 -0.9507
 4137SOL     OW14010   4.189   2.560   5.042 -0.3527  0.1602 -0.2019
 4137SOL    HW114011   4.237   2.647   5.052  0.2724  0.0087 -1.5676
 4137SOL    HW214012   4.091   2.574   5.059  0.1253  0.4059  2.9356
 4138SOL     OW14013   4.414   0.968   6.796 -0.0803  0.4139 -0.3172
 4138SOL    HW114014   4.397   0.976   6.698 -1.7757  0.6149 -0.0365
 4138SOL    HW214015   4.437   0.874   6.819 -1.4106 -0.0201 -0.6923
 4139SOL     OW14016   5.985   2.755   4.714  0.2861 -0.4225 -0.0945
 4139SOL    HW114017   5.945   2.688   4.777 -0.9263  0.2001 -0.1573
 4139SOL    HW214018   6.050   2.709   4.653  0.3553 -1.3136  0.6279
 4140SOL     OW14019   1.274   2.595   6.247  0.2301 -0.1670  0.5088
 4140SOL    HW114020   1.299   2.561   6.156 -0.1132 -1.9326  1.0380
 4140SOL    HW214021   1.247   2.518   6.305 -2.0665  1.1571  1.3311
 4141SOL     OW14022   4.792   2.498   0.738 -0.0928 -0.2943 -0.2635
 4141SOL    HW114023   4.833   2.589   0.728 -1.6023  0.4158 -0.2968
 4141SOL    HW214024   4.784   2.476   0.836 -0.8673  0.1669 -0.2162
 4142SOL     OW14025   3.419   0.644   1.727 -0.1481  0.1967  0.0583
 4142SOL    HW114026   3.496   0.584   1.707 -0.9379 -1.3770  1.4960
 4142SOL    HW214027   3.425   0.675   1.822 -2.3875 -1.8270  0.9789
 4143SOL     OW14028   4.380   5.195   4.364  0.4305  0.0441 -0.1593
 4143SOL    HW114029   4.421   5.229   4.448 -0.6688  0.3681  0.2674
 4143SOL    HW214030   4.335   5.270   4.315 -0.2543 -0.4147 -0.2500
 4144SOL     OW14031   6.704   5.014   6.386 -0.0797  0.6786  0.5325
 4144SOL    HW114032   6.693   5.028   6.484  0.3213  2.2108  0.3775
 4144SOL    HW214033   6.774   4.945   6.370  0.4197  0.9926  1.3093
 4145SOL     OW14034   0.735   5.825   2.581  0.2504 -0.0545 -0.1340
 4145SOL    HW114035   0.820   5.878   2.581  0.4925 -0.3523 -1.8691
 4145SOL    HW214036   0.756   5.729   2.562 -0.1406 -0.9508  3.3650
 4146SOL     OW14037   4.296   3.964   1.683  0.4485 -0.7600 -0.3773
 4146SOL    HW114038   4.269   3.966   1.779 -1.6897 -0.2416 -0.9522
 4146SOL    HW214039   4.338   3.875   1.662 -0.9614 -1.6700  0.5514
 4147SOL     OW14040   1.017   5.775   3.131  0.0887 -0.6038  0.4251
 4147SOL    HW114041   0.960   5.780   3.050 -0.9186 -0.0926  1.1504
 4147SOL    HW214042   1.100   5.830   3.117 -1.2144  1.5090  0.6299
 4148SOL     OW14043   0.439   1.423   0.249  0.4851  1.1384  0.1432
 4148SOL    HW114044   0.523   1.475   0.233  1.6860 -0.6053  0.4019
 4148SOL    HW214045   0.451   1.330   0.213 -1.5286  0.9808 -0.2214
 4149SOL     OW14046   0.661   6.849   0.926  0.0655  0.2727 -0.7168
 4149SOL    HW114047   0.565   6.874   0.911 -0.1509 -0.0929 -0.0248
 4149SOL    HW214048   0.693   6.893   1.010  0.2580 -0.2332 -0.5241
 4150SOL     OW14049   5.641   1.719   3.557  0.3078 -0.2314 -0.3141
 4150SOL    HW114050   5.691   1.732   3.642 -0.5474 -0.8583  0.2993
 4150SOL    HW214051   5.704   1.685   3.487  0.6704 -1.5322  0.5949
 4151SOL     OW14052   4.068   1.322   0.948  0.2066  0.2328 -0.1407
 4151SOL    HW114053   4.107   1.359   1.032  3.7912  0.3040 -1.6601
 4151SOL    HW214054   4.073   1.222   0.950 -3.2893 -0.0489  1.1810
 4152SOL     OW14055   2.161   3.710   2.915 -0.1993 -0.0948  0.4211
 4152SOL    HW114056   2.073   3.702   2.962 -0.7998 -0.1447 -0.6766
 4152SOL    HW214057   2.211   3.789   2.951 -1.4236  0.9326 -0.0642
 4153SOL     OW14058   3.007   4.847   1.967  0.7115 -0.4766 -0.6471
 4153SOL    HW114059   3.103   4.858   1.940  0.2936  1.7235 -1.4344
 4153SOL    HW214060   2.976   4.930   2.014 -1.4503 -0.1469 -2.5149
 4154SOL     OW14061   6.311   3.190   1.537 -0.3497  0.6878  0.0095
 4154SOL    HW114062   6.257   3.127   1.593  0.4898  0.2290  0.3254
 4154SOL    HW214063   6.250   3.249   1.484 -1.1555 -0.6346 -0.5742
 4155SOL     OW14064   2.585   2.976   3.198 -0.1481 -0.2862 -0.8123
 4155SOL    HW114065   2.560   2.910   3.127 -0.0038 -1.7245  0.4188
 4155SOL    HW214066   2.658   2.938   3.255  0.5065  1.2860 -0.5474
 4156SOL     OW14067   0.675   3.185   3.568  0.1222  0.0874  0.2693
 4156SOL    HW114068   0.601   3.124   3.597 -0.0876  0.3158  0.2261
 4156SOL    HW214069   0.670   3.200   3.470 -0.1643  0.6043  0.3579
 4157SOL     OW14070   0.559   6.150   0.480  0.0453 -0.5623 -0.3603
 4157SOL    HW114071   0.511   6.223   0.528  2.8553  1.3449 -0.1833
 4157SOL    HW214072   0.570   6.176   0.383  1.1410 -0.6692 -0.2756
 4158SOL     OW14073   2.426   3.618   6.697  0.0597 -0.6407 -0.0398
 4158SOL    HW114074   2.341   3.606   6.749  0.5877 -0.0548  0.9787
 4158SOL    HW214075   2.494   3.552   6.729  0.6912  0.3387  0.6957
 4159SOL     OW14076   2.626   5.617   0.263  0.0026 -0.1259 -0.1115
 4159SOL    HW114077   2.558   5.683   0.232 -0.3292  1.0189  2.7800
 4159SOL    HW214078   2.704   5.617   0.200 -1.9628 -0.4332 -2.7141
 4160SOL     OW14079   0.797   4.144   2.730  0.2277 -0.1363 -0.3716
 4160SOL    HW114080   0.828   4.049   2.729  0.8196  0.0561 -0.8212
 4160SOL    HW214081   0.805   4.180   2.823 -1.2896 -0.9301  0.0908
 4161SOL     OW14082   1.091   2.711   0.881  0.0923  0.5084 -0.0921
 4161SOL    HW114083   1.126   2.690   0.790 -0.7008 -0.4286 -0.1919
 4161SOL    HW214084   1.087   2.811   0.893  0.3435  0.6359 -1.0171
 4162SOL     OW14085   4.421   1.468   6.525 -0.1048 -0.2487 -0.0487
 4162SOL    HW114086   4.396   1.395   6.589 -0.5643 -0.9027 -0.9550
 4162SOL    HW214087   4.358   1.468   6.448  0.1635  0.8302 -0.2877
 4163SOL     OW14088   0.618   6.662   4.364 -0.8175 -0.1805 -0.2423
 4163SOL    HW114089   0.691   6.595   4.378 -1.0336 -0.1299  1.4075
 4163SOL    HW214090   0.562   6.635   4.286 -0.1522 -1.2289 -0.3801
 4164SOL     OW14091   1.625   2.678   6.154 -0.4199  0.2354  0.5869
 4164SOL    HW114092   1.616   2.579   6.154 -2.3383  0.3833  0.2615
 4164SOL    HW214093   1.612   2.713   6.247  0.8501  0.1650  0.8115
 4165SOL     OW14094   4.668   1.640   0.707  0.1558 -0.5031 -0.4838
 4165SOL    HW114095   4.583   1.597   0.675  0.1213 -1.3485  0.6852
 4165SOL    HW214096   4.728   1.658   0.628 -0.0405 -2.2362 -1.0648
 4166SOL     OW14097   2.259   6.600   4.977 -0.0235 -0.2530 -0.2454
 4166SOL    HW114098   2.273   6.551   4.891  0.4266 -0.0716 -0.2767
 4166SOL    HW214099   2.266   6.698   4.960  3.0956 -0.2586  0.4996
 4167SOL     OW14100   3.009   4.621   6.985  0.5008  0.0035  0.2698
 4167SOL    HW114101   3.005   4.599   6.887  0.4561  0.9794  0.0327
 4167SOL    HW214102   2.953   4.557   7.036  0.3740 -0.4069 -0.3730
 4168SOL     OW14103   3.375   2.164   4.018  0.4030 -0.5018  0.2377
 4168SOL    HW114104   3.458   2.212   4.046  0.5975 -0.1133 -0.9638
 4168SOL    HW214105   3.340   2.110   4.095  0.7055  0.8098  1.3386
 4169SOL     OW14106   0.587   0.856   4.745  0.0978  0.3027 -0.0642
 4169SOL    HW114107   0.525   0.880   4.670 -0.6598  0.3404  0.5558
 4169SOL    HW214108   0.602   0.936   4.803 -0.2305 -0.0080  0.4558
 4170SOL     OW14109   2.590   1.215   5.158 -0.2499 -0.1660  0.3147
 4170SOL    HW114110   2.613   1.297   5.104  0.0813 -0.5217 -0.0938
 4170SOL    HW214111   2.666   1.151   5.155 -0.8747 -0.9106 -0.1731
 4171SOL     OW14112   5.460   4.917   5.999  0.0006 -0.9321  0.6090
 4171SOL    HW114113   5.362   4.918   5.981 -0.3309  0.6710  2.1793
 4171SOL    HW214114   5.509   4.963   5.925 -0.7377  0.5733  1.0084
 4172SOL     OW14115   5.952   4.348   1.095 -0.4155 -0.1400  0.4548
 4172SOL    HW114116   5.966   4.410   1.172 -2.3526 -0.4254  1.0803
 4172SOL    HW214117   5.886   4.278   1.120  0.9625 -1.9014 -0.5841
 4173SOL     OW14118   4.166   1.088   1.470  0.1746 -0.5227 -0.6160
 4173SOL    HW114119   4.093   1.136   1.518  1.4447  1.5850 -0.6791
 4173SOL    HW214120   4.168   0.992   1.499 -1.5617 -0.2365  0.5689
 4174SOL     OW14121   6.542   3.390   1.299  0.2835 -0.1348 -0.5384
 4174SOL    HW114122   6.516   3.474   1.345  1.4718  0.6076 -1.1735
 4174SOL    HW214123   6.641   3.391   1.280  0.0511 -0.9588 -1.9424
 4175SOL     OW14124   2.835   4.012   5.322  0.2835 -0.2083 -0.7746
 4175SOL    HW114125   2.900   3.973   5.387 -1.4484 -0.7051  0.7645
 4175SOL    HW214126   2.817   4.107   5.345 -0.9759 -0.6186  0.0981
 4176SOL     OW14127   3.071   0.096   1.223  0.3643  0.5518  0.2322
 4176SOL    HW114128   2.983   0.094   1.177  0.0261  1.2101  0.8358
 4176SOL    HW214129   3.134   0.033   1.177 -0.3967  0.1148 -0.2304
 4177SOL     OW14130   0.968   0.793   0.945  0.2156  0.0064 -0.2924
 4177SOL    HW114131   0.897   0.797   0.875  1.7810 -0.0740 -1.9538
 4177SOL    HW214132   1.023   0.876   0.943  0.8018 -0.3475  0.2639
 4178SOL     OW14133   0.645   6.670   6.085  0.1306  0.5132  0.3134
 4178SOL    HW114134   0.675   6.753   6.038 -0.5395 -0.3648 -1.8100
 4178SOL    HW214135   0.706   6.594   6.060 -1.6773 -0.5199 -1.2279
 4179SOL     OW14136   3.976   1.923   5.402  0.2305 -0.1555  0.2956
 4179SOL    HW114137   3.962   1.996   5.336 -0.8420  0.5975  1.3158
 4179SOL    HW214138   4.055   1.867   5.375 -0.0051  0.3055 -1.4352
 4180SOL     OW14139   3.827   5.587   6.529 -0.6555 -0.0657  0.2915
 4180SOL    HW114140   3.728   5.571   6.522 -0.5961 -0.8301  1.0009
 4180SOL    HW214141   3.874   5.530   6.462 -0.5479 -1.7364  1.7293
 4181SOL     OW14142   0.341   3.055   5.142  0.0481  0.2268  0.2297
 4181SOL    HW114143   0.388   3.143   5.142  0.2092  0.1399  0.3435
 4181SOL    HW214144   0.286   3.047   5.059 -0.6898  0.8229  0.6479
 4182SOL     OW14145   6.878   5.545   3.650 -0.1801 -0.2361 -0.2131
 4182SOL    HW114146   6.802   5.602   3.681  1.9164  2.0369  1.1288
 4182SOL    HW214147   6.915   5.494   3.728  0.1609 -0.7188 -0.6836
 4183SOL     OW14148   2.004   6.066   5.115 -0.0599  0.1808  0.4239
 4183SOL    HW114149   2.048   6.133   5.055  2.9746 -1.4110  0.6736
 4183SOL    HW214150   1.973   5.988   5.061 -0.9149  0.4723  0.4842
 4184SOL     OW14151   3.597   1.468   2.196  0.2108  0.0597  0.1403
 4184SOL    HW114152   3.543   1.527   2.257  3.4584  3.5611  0.0250
 4184SOL    HW214153   3.587   1.500   2.102  1.1195 -0.3188 -0.0939
 4185SOL     OW14154   1.762   6.748   3.469  0.2597  0.0480  1.4612
 4185SOL    HW114155   1.692   6.698   3.519 -0.8683  0.8851  0.7824
 4185SOL    HW214156   1.850   6.702   3.478 -0.4313 -1.1747  2.1196
 4186SOL     OW14157   0.235   3.711   1.213 -0.4606 -0.0145  0.4560
 4186SOL    HW114158   0.269   3.629   1.166  0.0274  1.2299 -1.4801
 4186SOL    HW214159   0.136   3.713   1.208 -0.5266 -0.8258  1.1568
 4187SOL     OW14160   5.458   5.896   0.846 -0.3718 -0.0610  0.3890
 4187SOL    HW114161   5.370   5.931   0.814 -0.2371  0.2742  0.3841
 4187SOL    HW214162   5.465   5.910   0.945 -0.4697 -0.4069  0.4462
 4188SOL     OW14163   4.583   0.681   0.145 -0.4163  0.3944 -0.8434
 4188SOL    HW114164   4.537   0.711   0.229 -1.3813  0.2846 -1.3322
 4188SOL    HW214165   4.611   0.586   0.155 -1.6652 -0.0186 -1.1083
 4189SOL     OW14166   6.259   0.794   3.599 -0.4045 -0.4925 -0.1167
 4189SOL    HW114167   6.260   0.728   3.674  1.3055 -0.8947 -0.4522
 4189SOL    HW214168   6.334   0.774   3.536  3.4069  4.4338  2.1952
 4190SOL     OW14169   2.919   3.039   2.240 -0.1576 -0.0534  0.1766
 4190SOL    HW114170   2.897   2.984   2.321 -0.3627  0.8441  0.7612
 4190SOL    HW214171   2.859   3.120   2.238 -1.7252 -1.1673 -2.1157
 4191SOL     OW14172   3.935   2.218   0.217 -0.1092  0.4203  0.2775
 4191SOL    HW114173   4.021   2.197   0.262 -0.4921 -1.7295  0.1241
 4191SOL    HW214174   3.859   2.194   0.277 -0.6175 -1.6087 -1.0684
 4192SOL     OW14175   0.843   0.237   5.389 -0.3155  0.0596 -0.4294
 4192SOL    HW114176   0.926   0.264   5.341  0.8502 -1.2985  0.7239
 4192SOL    HW214177   0.817   0.309   5.454  0.3578  0.2243 -0.3352
 4193SOL     OW14178   4.720   6.882   2.856 -0.0954  0.5352  0.3071
 4193SOL    HW114179   4.633   6.930   2.854 -0.5058 -0.1840 -1.9252
 4193SOL    HW214180   4.778   6.915   2.781  0.5052 -0.7948  0.1538
 4194SOL     OW14181   1.171   2.065   4.109 -0.1139 -0.1381  0.1014
 4194SOL    HW114182   1.271   2.057   4.105 -0.1397 -0.3539 -0.2120
 4194SOL    HW214183   1.131   2.017   4.030 -0.4937 -0.5647  0.5469
 4195SOL     OW14184   6.706   2.781   5.285 -0.4902 -0.0283 -0.0970
 4195SOL    HW114185   6.762   2.704   5.254  1.8692  1.5971 -0.1231
 4195SOL    HW214186   6.704   2.852   5.214 -1.0541  0.7396  0.6600
 4196SOL     OW14187   4.657   4.666   1.103  0.2778  0.1846  0.7331
 4196SOL    HW114188   4.709   4.581   1.112  1.8688  1.2111  1.8166
 4196SOL    HW214189   4.661   4.718   1.189  2.7485  3.1411 -0.9218
 4197SOL     OW14190   6.070   6.930   3.480  0.2619  0.6431 -0.2488
 4197SOL    HW114191   6.050   6.861   3.411 -2.9504  0.7931  0.3603
 4197SOL    HW214192   6.167   6.927   3.503  1.0099 -0.9243 -3.0729
 4198SOL     OW14193   7.003   2.025   2.922  0.0685  0.0405  0.0876
 4198SOL    HW114194   7.077   2.003   2.859 -2.4304  0.7376 -3.3941
 4198SOL    HW214195   6.954   1.941   2.946  0.2147 -0.0770 -0.0229
 4199SOL     OW14196   0.895   6.764   4.766  0.3453  0.6241  0.2949
 4199SOL    HW114197   0.862   6.837   4.826  1.1523  1.9844 -0.8921
 4199SOL    HW214198   0.822   6.696   4.754 -0.4173  1.2191  1.3903
 4200SOL     OW14199   1.536   5.104   1.813 -0.4807 -0.2548 -0.2518
 4200SOL    HW114200   1.459   5.046   1.786  0.1929 -1.1430 -0.2869
 4200SOL    HW214201   1.588   5.131   1.732  0.4500 -1.3862 -0.0598
 4201SOL     OW14202   2.619   5.794   1.648 -0.1171  0.6860  0.2412
 4201SOL    HW114203   2.533   5.787   1.598  0.2312  0.5509 -0.3500
 4201SOL    HW214204   2.674   5.869   1.609  0.8298 -0.4191 -0.6407
 4202SOL     OW14205   3.620   5.552   3.601  0.6729  0.5162 -0.3737
 4202SOL    HW114206   3.670   5.509   3.525  1.8866  1.1918  0.0027
 4202SOL    HW214207   3.568   5.483   3.650  2.2054 -0.4787 -0.0638
 4203SOL     OW14208   1.410   2.939   1.945  0.4474 -0.4553 -0.0381
 4203SOL    HW114209   1.382   2.844   1.959 -0.1042  0.0687  3.0091
 4203SOL    HW214210   1.348   2.982   1.879 -0.6692 -1.6360  0.1986
 4204SOL     OW14211   6.726   3.489   5.717 -0.4086 -0.0351  0.0136
 4204SOL    HW114212   6.704   3.585   5.699 -2.2449 -0.4198  0.0101
 4204SOL    HW214213   6.730   3.473   5.815  0.1900  0.0856  0.0158
 4205SOL     OW14214   6.880   3.767   1.781  0.1750 -0.1045 -0.5879
 4205SOL    HW114215   6.861   3.804   1.872  0.0250  1.6819 -1.3119
 4205SOL    HW214216   6.807   3.703   1.756  0.6630 -1.2926  0.8616
 4206SOL     OW14217   4.678   6.353   2.965 -0.2206 -0.3991 -0.1482
 4206SOL    HW114218   4.695   6.385   2.872  1.0369 -2.3084 -0.6274
 4206SOL    HW214219   4.735   6.405   3.029  0.2072 -0.2519 -0.6405
 4207SOL     OW14220   1.214   4.775   3.750 -0.3781 -0.2081 -0.1633
 4207SOL    HW114221   1.142   4.709   3.772 -1.4070  1.5222  1.9751
 4207SOL    HW214222   1.245   4.820   3.834  0.3091  2.0106 -1.5308
 4208SOL     OW14223   0.955   4.523   6.527 -0.2591  0.0706 -0.3274
 4208SOL    HW114224   0.981   4.492   6.436 -0.7931 -1.1454 -0.0799
 4208SOL    HW214225   0.959   4.623   6.530 -1.5335  0.2347 -2.0922
 4209SOL     OW14226   3.261   5.410   0.873 -0.0491 -0.1362 -0.4798
 4209SOL    HW114227   3.179   5.459   0.843 -0.4128 -1.1512 -1.2261
 4209SOL    HW214228   3.329   5.413   0.800  1.2136  1.9863  0.6972
 4210SOL     OW14229   2.937   6.373   0.208  0.6435  0.4183  0.6847
 4210SOL    HW114230   2.966   6.298   0.268 -0.7798 -0.2257  0.6086
 4210SOL    HW214231   2.837   6.376   0.204  0.6691  2.2878  0.6107
 4211SOL     OW14232   0.965   4.253   5.368  0.0029 -0.1573  0.3279
 4211SOL    HW114233   1.042   4.281   5.424 -0.0970  0.3667  0.2101
 4211SOL    HW214234   0.960   4.311   5.287 -1.2161  0.5994  0.9169
 4212SOL     OW14235   5.412   3.855   6.719  0.1005  0.3211  0.3261
 4212SOL    HW114236   5.474   3.904   6.781  2.2183 -2.3662  0.5107
 4212SOL    HW214237   5.446   3.864   6.625 -0.2481  0.2712  0.1951
 4213SOL     OW14238   6.792   6.706   2.334 -0.1217  0.2237  0.7844
 4213SOL    HW114239   6.731   6.642   2.286  1.3640  0.6863 -1.8585
 4213SOL    HW214240   6.737   6.778   2.377 -1.4932  0.8144 -1.7692
 4214SOL     OW14241   2.984   4.134   0.753  0.3539  0.1545 -0.0292
 4214SOL    HW114242   3.007   4.173   0.665 -0.8260  0.7176 -0.1051
 4214SOL    HW214243   2.898   4.084   0.747  1.7723 -2.5302  0.0627
 4215SOL     OW14244   6.630   5.743   0.259 -0.2002  0.3826 -0.2097
 4215SOL    HW114245   6.532   5.728   0.255  0.0057 -1.1211 -0.3857
 4215SOL    HW214246   6.657   5.765   0.353 -0.7659  1.4070 -0.2765
 4216SOL     OW14247   2.946   5.999   3.265 -0.5991  0.5594 -0.2084
 4216SOL    HW114248   2.893   6.050   3.333  0.9964  0.7398  0.9485
 4216SOL    HW214249   3.043   6.017   3.278 -0.2027 -0.0455 -2.0525
 4217SOL     OW14250   1.451   6.438   0.976 -0.4295  0.4414 -0.4451
 4217SOL    HW114251   1.469   6.361   0.916  2.5223  1.2257 -0.7430
 4217SOL    HW214252   1.472   6.413   1.070 -1.8208  0.2083 -0.1760
 4218SOL     OW14253   5.373   3.074   2.997  0.6629 -0.5773  0.1127
 4218SOL    HW114254   5.314   3.076   2.917 -2.1377  1.1379  2.0041
 4218SOL    HW214255   5.364   2.986   3.043 -0.0444 -0.5371  0.0687
 4219SOL     OW14256   6.219   0.254   4.869  0.0903  0.1700  0.3377
 4219SOL    HW114257   6.253   0.178   4.925  1.0880  1.4667  1.5796
 4219SOL    HW214258   6.240   0.236   4.773  1.1580 -0.7057  0.7037
 4220SOL     OW14259   2.197   6.959   3.675  0.1702  0.3672  0.3074
 4220SOL    HW114260   2.178   6.925   3.583  1.9732  1.3729 -0.4953
 4220SOL    HW214261   2.177   6.887   3.741 -0.7868 -0.5192 -0.9001
 4221SOL     OW14262   4.775   0.323   6.883  0.4985 -0.5824  0.5826
 4221SOL    HW114263   4.835   0.294   6.809  0.6673 -0.8622  0.8270
 4221SOL    HW214264   4.827   0.330   6.968  0.1240 -1.1252  0.8586
 4222SOL     OW14265   6.879   0.169   0.837  0.2182 -0.1363  0.0821
 4222SOL    HW114266   6.963   0.140   0.790  0.9229  0.2475  1.0713
 4222SOL    HW214267   6.846   0.254   0.797  1.0828  0.4458  0.5605
 4223SOL     OW14268   5.974   3.471   3.857  0.0403 -0.4813 -0.0276
 4223SOL    HW114269   6.019   3.552   3.819 -0.0257  0.0015  0.8895
 4223SOL    HW214270   6.038   3.422   3.917 -0.7005  0.3782  1.5281
 4224SOL     OW14271   1.476   3.683   6.834 -0.8362  0.1520  0.0041
 4224SOL    HW114272   1.434   3.637   6.912  1.1481 -3.2675 -0.7404
 4224SOL    HW214273   1.561   3.728   6.863 -0.0736 -1.1603 -0.1275
 4225SOL     OW14274   4.620   5.917   1.852  0.2673 -0.1548  0.2278
 4225SOL    HW114275   4.701   5.947   1.804  0.0627  1.5186  0.8658
 4225SOL    HW214276   4.561   5.996   1.872 -0.4201 -0.9974  1.7569
 4226SOL     OW14277   0.671   5.885   1.326 -0.5781  0.6723 -0.5388
 4226SOL    HW114278   0.578   5.862   1.354 -0.7368  1.6126 -0.2749
 4226SOL    HW214279   0.675   5.888   1.226 -0.5245 -0.5784 -0.5892
 4227SOL     OW14280   4.067   0.490   6.518  0.1306 -0.1778  0.6261
 4227SOL    HW114281   4.103   0.578   6.489  1.7069 -0.6202  1.1256
 4227SOL    HW214282   3.973   0.501   6.550  0.2358  1.2719  0.4993
 4228SOL     OW14283   0.405   6.702   2.745  0.2956  0.5034  0.2298
 4228SOL    HW114284   0.461   6.625   2.775  1.7064  1.5487  0.3610
 4228SOL    HW214285   0.436   6.733   2.655  0.0830  1.2343  0.3963
 4229SOL     OW14286   6.719   0.299   0.018  0.0296  0.6607 -0.3008
 4229SOL    HW114287   6.714   0.305  -0.081  1.5853 -0.4371 -0.4635
 4229SOL    HW214288   6.793   0.358   0.052  0.3728  0.0239  0.0814
 4230SOL     OW14289   5.567   0.382   0.409 -0.1883 -0.0557 -0.0923
 4230SOL    HW114290   5.499   0.452   0.387 -0.0648 -0.1196 -0.6998
 4230SOL    HW214291   5.653   0.426   0.434  0.3582  0.0161 -1.9947
 4231SOL     OW14292   1.908   1.944   2.676  0.1690 -0.0170 -0.1397
 4231SOL    HW114293   1.809   1.957   2.685  0.3463  2.0387 -0.7396
 4231SOL    HW214294   1.952   1.956   2.765 -0.1301 -1.4461  0.2312
 4232SOL     OW14295   4.083   2.262   1.209 -0.5037  0.0016  0.1937
 4232SOL    HW114296   4.021   2.338   1.195 -1.0671 -0.2901  1.0077
 4232SOL    HW214297   4.138   2.247   1.127 -1.9424 -0.1262 -0.7793
 4233SOL     OW14298   2.821   3.688   3.795  0.1309  0.6860 -0.4182
 4233SOL    HW114299   2.757   3.623   3.836 -0.2870  1.6224  0.4458
 4233SOL    HW214300   2.770   3.757   3.744  0.2987  2.1771  1.3082
 4234SOL     OW14301   1.206   6.101   2.779  0.1879 -0.9187 -0.3593
 4234SOL    HW114302   1.181   6.112   2.682 -0.5625 -1.1037 -0.1906
 4234SOL    HW214303   1.176   6.011   2.810  2.1132 -1.6382 -0.4620
 4235SOL     OW14304   1.113   6.752   1.024 -0.5218  0.3196 -0.3625
 4235SOL    HW114305   1.030   6.761   0.969 -1.0988 -0.8709  0.2823
 4235SOL    HW214306   1.163   6.670   0.996 -0.5022  0.0413  0.4624
 4236SOL     OW14307   1.844   0.601   1.944 -0.3262  0.1643  0.3181
 4236SOL    HW114308   1.917   0.539   1.973  0.8687  1.6936  0.7399
 4236SOL    HW214309   1.836   0.676   2.010 -0.4472  1.4631 -1.1084
 4237SOL     OW14310   4.445   5.253   1.402  0.1971  1.0076 -0.7387
 4237SOL    HW114311   4.365   5.207   1.442  0.6280  1.7978  1.1591
 4237SOL    HW214312   4.521   5.248   1.467  1.1260  1.8778 -1.7329
 4238SOL     OW14313   3.366   6.051   2.344 -0.2466  0.1213 -0.5019
 4238SOL    HW114314   3.448   6.027   2.396 -0.8609  2.0335  1.4697
 4238SOL    HW214315   3.391   6.067   2.248  1.2704 -1.4696 -0.4215
 4239SOL     OW14316   2.289   0.653   3.517 -0.2428 -0.4757  0.4068
 4239SOL    HW114317   2.202   0.686   3.552 -0.4792  0.8396 -1.3022
 4239SOL    HW214318   2.360   0.722   3.531 -0.0906 -0.3998 -0.6235
 4240SOL     OW14319   0.970   5.721   2.288 -0.0915  0.0121  0.6693
 4240SOL    HW114320   0.873   5.697   2.295 -0.2158  0.8566  2.1464
 4240SOL    HW214321   0.979   5.819   2.271  0.5107 -0.1200  0.1814
 4241SOL     OW14322   6.180   4.642   4.575  0.0171  0.5277  0.0859
 4241SOL    HW114323   6.239   4.580   4.626  1.0010  0.3181 -1.2457
 4241SOL    HW214324   6.103   4.670   4.633 -0.5800 -2.0662  0.6797
 4242SOL     OW14325   2.252   5.291   1.320  0.0701  0.2199  0.3162
 4242SOL    HW114326   2.189   5.334   1.385  0.5573  2.9311 -0.8616
 4242SOL    HW214327   2.199   5.253   1.243 -0.2690  0.6753  0.3171
 4243SOL     OW14328   1.371   1.957   4.511 -0.4627  0.6479  0.1867
 4243SOL    HW114329   1.442   1.888   4.520  0.9162  2.0035  0.1678
 4243SOL    HW214330   1.413   2.047   4.495 -2.2352  1.2946 -1.1597
 4244SOL     OW14331   1.636   0.076   1.367  0.0042  0.2435 -0.2617
 4244SOL    HW114332   1.667   0.139   1.295  1.4555 -1.0063 -0.7859
 4244SOL    HW214333   1.568   0.014   1.329  0.9119 -0.5419 -0.6458
 4245SOL     OW14334   1.577   1.690   6.933  0.2092  0.6019 -0.2907
 4245SOL    HW114335   1.637   1.634   6.876  0.1641 -0.3987  0.6162
 4245SOL    HW214336   1.610   1.784   6.934  0.1316  0.6668 -2.0503
 4246SOL     OW14337   4.273   5.068   5.606 -0.4559 -0.2377 -0.5925
 4246SOL    HW114338   4.233   5.043   5.694  1.6282 -0.3518  0.3872
 4246SOL    HW214339   4.309   5.161   5.611 -0.0787 -0.3436 -1.2193
 4247SOL     OW14340   3.757   1.620   0.885 -0.0234  0.4162  0.4788
 4247SOL    HW114341   3.839   1.583   0.842 -1.0137 -0.5517 -0.6903
 4247SOL    HW214342   3.732   1.564   0.964 -0.4665 -0.3179 -0.1652
 4248SOL     OW14343   0.368   5.739   5.580 -0.3680 -0.1845 -0.3066
 4248SOL    HW114344   0.303   5.663   5.579  0.7049 -1.1604  1.4039
 4248SOL    HW214345   0.433   5.728   5.655  1.7894  0.7724 -1.9070
 4249SOL     OW14346   5.300   4.288   1.610 -0.8902 -0.2580  0.7838
 4249SOL    HW114347   5.283   4.278   1.512  1.0068 -2.7066  0.6055
 4249SOL    HW214348   5.290   4.199   1.654  2.9768 -0.2540  1.9608
 4250SOL     OW14349   3.376   6.743   0.880  0.1550 -0.5671  0.1817
 4250SOL    HW114350   3.325   6.825   0.856 -1.1224 -1.8666 -1.7995
 4250SOL    HW214351   3.472   6.766   0.894 -0.2374  1.3023  0.0292
 4251SOL     OW14352   0.631   6.491   1.259 -0.0565 -0.2140 -0.0402
 4251SOL    HW114353   0.532   6.505   1.252 -0.0077 -0.0825 -0.5210
 4251SOL    HW214354   0.650   6.399   1.293 -0.3572  0.1613  1.1890
 4252SOL     OW14355   3.479   0.576   0.748 -0.2689  0.3532 -0.1114
 4252SOL    HW114356   3.443   0.521   0.672 -1.1781 -0.5788  0.9523
 4252SOL    HW214357   3.460   0.673   0.731 -2.0505  0.0120 -0.2690
 4253SOL     OW14358   3.835   0.402   0.302 -0.2134 -0.0794 -0.2030
 4253SOL    HW114359   3.805   0.369   0.212 -2.4793  0.1199  0.4222
 4253SOL    HW214360   3.884   0.488   0.291  0.5322 -0.6115 -1.3208
 4254SOL     OW14361   2.308   5.735   1.803  0.0814  0.6850 -0.2170
 4254SOL    HW114362   2.388   5.725   1.862 -0.9420 -1.4251  0.9548
 4254SOL    HW214363   2.302   5.656   1.742 -1.1446  0.7562 -0.2104
 4255SOL     OW14364   1.283   2.906   2.862 -0.4184 -0.0416 -0.2300
 4255SOL    HW114365   1.308   2.977   2.928 -0.4269 -1.2575  1.1349
 4255SOL    HW214366   1.360   2.890   2.800 -0.1173  0.5805 -0.0230
 4256SOL     OW14367   3.088   5.778   0.572 -0.0834  0.6618 -0.8242
 4256SOL    HW114368   3.003   5.828   0.591  0.8506  1.4455  1.5751
 4256SOL    HW214369   3.092   5.697   0.630 -0.2563 -0.7314 -2.6672
 4257SOL     OW14370   4.228   0.588   1.195  0.4024 -0.0649 -0.1731
 4257SOL    HW114371   4.129   0.592   1.210  0.0690 -1.9851 -1.4332
 4257SOL    HW214372   4.263   0.499   1.224  1.7767  0.5930  0.2630
 4258SOL     OW14373   6.704   0.118   5.328  0.6683 -0.2087 -0.6343
 4258SOL    HW114374   6.727   0.098   5.424 -1.9035  0.6307  0.2336
 4258SOL    HW214375   6.743   0.206   5.303  0.4483  0.0741 -0.0041
 4259SOL     OW14376   2.508   1.875   6.401 -0.1535  0.6279  0.8316
 4259SOL    HW114377   2.473   1.838   6.315 -0.7459 -1.5089  1.9238
 4259SOL    HW214378   2.489   1.973   6.405  1.2690  1.1274 -2.0930
 4260SOL     OW14379   6.728   3.780   6.049 -0.4219  0.0656  0.6130
 4260SOL    HW114380   6.702   3.792   5.953 -1.0536  0.1052  0.7830
 4260SOL    HW214381   6.657   3.820   6.108 -0.3530 -0.5207  1.1096
 4261SOL     OW14382   2.159   1.284   2.401  0.1965 -0.8349  0.0684
 4261SOL    HW114383   2.212   1.202   2.423  1.4088 -0.0291  0.2498
 4261SOL    HW214384   2.165   1.302   2.303  0.4338 -0.6213  0.1226
 4262SOL     OW14385   5.778   0.812   1.671 -0.2153  0.0839 -0.1222
 4262SOL    HW114386   5.828   0.800   1.757  0.3284 -1.5759 -0.6300
 4262SOL    HW214387   5.815   0.750   1.602 -2.2043 -0.3355 -0.8786
 4263SOL     OW14388   4.927   0.283   0.967  0.1156 -0.3518 -0.3346
 4263SOL    HW114389   4.926   0.381   0.947 -2.5186 -0.0049  1.0180
 4263SOL    HW214390   4.957   0.233   0.886  1.1778  1.5230 -1.1744
 4264SOL     OW14391   3.842   0.514   0.799 -0.1738 -0.9353  0.4750
 4264SOL    HW114392   3.914   0.457   0.840  0.6766 -2.4820 -2.8226
 4264SOL    HW214393   3.843   0.604   0.842  2.3692 -1.5675  1.9736
 4265SOL     OW14394   5.555   1.330   2.688 -0.4288  0.0713 -0.0347
 4265SOL    HW114395   5.469   1.313   2.736 -1.3427 -1.9140 -2.1307
 4265SOL    HW214396   5.537   1.381   2.604  1.0401  2.9296  1.2438
 4266SOL     OW14397   6.241   3.799   3.088  0.1845 -0.0349  0.0490
 4266SOL    HW114398   6.249   3.890   3.129  0.6676 -0.4544  0.9057
 4266SOL    HW214399   6.186   3.740   3.147  2.6147 -1.2594  1.2219
 4267SOL     OW14400   4.634   0.121   2.514  0.3539  0.2028  0.2750
 4267SOL    HW114401   4.718   0.071   2.494 -0.0409  0.2080 -1.5782
 4267SOL    HW214402   4.622   0.126   2.613  1.7619 -1.0593  0.5639
 4268SOL     OW14403   0.413   0.970   4.282  0.4096 -0.1971  0.2055
 4268SOL    HW114404   0.486   0.916   4.240 -0.3086 -1.6560  0.7523
 4268SOL    HW214405   0.424   0.970   4.381 -1.4100 -2.2297  0.4990
 4269SOL     OW14406   4.181   5.013   5.848  0.1017  0.0482  0.1133
 4269SOL    HW114407   4.216   5.061   5.929 -0.0874  0.7448 -0.2122
 4269SOL    HW214408   4.206   4.916   5.854  0.4498  0.1709  0.8030
 4270SOL     OW14409   5.096   5.266   3.347 -0.3361 -0.3071 -0.1719
 4270SOL    HW114410   5.012   5.291   3.299 -0.9032  1.2313  1.5040
 4270SOL    HW214411   5.168   5.332   3.325 -0.5718  0.3494  0.9456
 4271SOL     OW14412   1.509   1.785   4.259  0.7947  0.6731  0.1895
 4271SOL    HW114413   1.452   1.746   4.187  2.1238 -0.6366 -0.2037
 4271SOL    HW214414   1.473   1.760   4.348  0.8617 -0.3517 -0.0595
 4272SOL     OW14415   4.914   1.083   4.213 -0.4360  0.5235  0.3846
 4272SOL    HW114416   4.879   1.146   4.283  0.3392  0.1957  1.0753
 4272SOL    HW214417   4.961   1.007   4.257 -0.2181  0.1399 -0.4941
 4273SOL     OW14418   0.361   0.875   4.532  0.1338 -0.6558  0.5937
 4273SOL    HW114419   0.316   0.796   4.490 -1.1953  0.7959 -0.8347
 4273SOL    HW214420   0.295   0.950   4.541  2.0786  1.3583 -0.9707
 4274SOL     OW14421   6.435   5.277   3.571 -0.2682 -0.4891  0.4809
 4274SOL    HW114422   6.487   5.357   3.540  1.0987 -0.8855  1.6304
 4274SOL    HW214423   6.387   5.299   3.655 -2.1493 -0.0858 -0.6543
 4275SOL     OW14424   3.832   5.885   6.524 -0.1464 -0.0050 -0.2346
 4275SOL    HW114425   3.821   5.787   6.539  1.3729 -0.0178  1.1628
 4275SOL    HW214426   3.896   5.900   6.449 -0.2487 -0.0838 -0.3382
 4276SOL     OW14427   6.755   4.707   3.787 -0.1122  0.3839  0.3014
 4276SOL    HW114428   6.769   4.795   3.833  1.0376  1.1301 -1.3791
 4276SOL    HW214429   6.730   4.722   3.692 -0.5685 -1.1207  0.1492
 4277SOL     OW14430   2.386   0.355   3.863  0.1501 -0.2412 -0.0628
 4277SOL    HW114431   2.397   0.450   3.894  0.1435 -0.3817  0.3756
 4277SOL    HW214432   2.359   0.298   3.940  2.8956 -1.1416  0.3414
 4278SOL     OW14433   1.546   4.878   1.512 -0.1933 -0.4668  0.2148
 4278SOL    HW114434   1.604   4.846   1.437  1.6458 -0.5891  1.6404
 4278SOL    HW214435   1.503   4.798   1.556 -2.1468 -0.3399 -1.2911
 4279SOL     OW14436   6.805   4.256   4.861  0.3677  0.0383 -0.1724
 4279SOL    HW114437   6.842   4.339   4.820  0.1754 -1.1415 -2.9127
 4279SOL    HW214438   6.879   4.192   4.879  0.4312  0.4819  1.2962
 4280SOL     OW14439   4.136   3.572   1.504  0.8101 -0.1750  0.0236
 4280SOL    HW114440   4.093   3.629   1.434 -0.8619 -0.5535  0.6918
 4280SOL    HW214441   4.098   3.595   1.594  1.2619 -1.2609  0.5111
 4281SOL     OW14442   6.248   2.404   5.955  0.1611 -0.4172 -0.4922
 4281SOL    HW114443   6.231   2.468   5.879  0.3279  0.0486 -0.1436
 4281SOL    HW214444   6.161   2.367   5.987  0.1069 -0.8130 -1.0734
 4282SOL     OW14445   5.866   2.238   1.924  0.1463 -0.3045 -0.0018
 4282SOL    HW114446   5.905   2.217   1.834 -2.4391 -1.5098 -0.9660
 4282SOL    HW214447   5.869   2.337   1.940  2.1802 -0.2314 -0.6212
 4283SOL     OW14448   5.858   1.714   6.516 -0.4522  0.3333 -0.3479
 4283SOL    HW114449   5.870   1.724   6.615 -2.2055  0.8546 -0.1561
 4283SOL    HW214450   5.852   1.804   6.474 -1.1026  0.1189 -0.7256
 4284SOL     OW14451   3.568   0.706   1.139 -0.7861  0.0594 -0.5957
 4284SOL    HW114452   3.549   0.611   1.114 -2.8584 -0.6133  2.8200
 4284SOL    HW214453   3.612   0.708   1.229 -0.7909  2.3443 -0.5982
 4285SOL     OW14454   3.659   4.812   6.844  0.2903 -0.5386  0.3493
 4285SOL    HW114455   3.641   4.864   6.927 -2.6854 -1.3127  0.2997
 4285SOL    HW214456   3.589   4.740   6.834  1.6302 -1.6339 -1.8939
 4286SOL     OW14457   4.311   3.818   3.585 -0.4520 -0.0113  0.0493
 4286SOL    HW114458   4.287   3.728   3.547  0.2775 -0.0462 -0.3335
 4286SOL    HW214459   4.380   3.861   3.528 -1.2482  1.0775 -0.1266
 4287SOL     OW14460   2.467   2.067   4.538  0.0158  0.5046  0.3611
 4287SOL    HW114461   2.542   2.047   4.475 -0.6783  2.0435 -1.0144
 4287SOL    HW214462   2.500   2.126   4.611  0.7454 -1.0211  1.3187
 4288SOL     OW14463   6.872   4.494   1.752 -0.0552 -0.4389  0.5192
 4288SOL    HW114464   6.928   4.414   1.774  1.1874 -0.1569 -1.4182
 4288SOL    HW214465   6.791   4.464   1.702  0.9919 -0.4381 -1.2434
 4289SOL     OW14466   1.143   5.647   5.685  0.1457 -0.1624 -0.1916
 4289SOL    HW114467   1.188   5.735   5.700  1.8632 -0.7090 -1.6930
 4289SOL    HW214468   1.191   5.576   5.736  0.9231 -0.7206 -1.6296
 4290SOL     OW14469   5.100   1.495   2.364  0.7768 -0.2086  0.3846
 4290SOL    HW114470   5.185   1.529   2.323 -0.9284  1.6790 -1.8537
 4290SOL    HW214471   5.101   1.396   2.367  2.3875 -0.2818 -1.1350
 4291SOL     OW14472   3.159   1.807   3.281 -0.4285 -0.3884  0.0534
 4291SOL    HW114473   3.197   1.736   3.340 -0.4762  0.3334  0.9811
 4291SOL    HW214474   3.233   1.853   3.232  0.0022  1.1208  1.9763
 4292SOL     OW14475   0.781   5.238   1.120 -0.1762 -0.3783  0.0604
 4292SOL    HW114476   0.689   5.265   1.149 -0.1596 -0.7179  0.4288
 4292SOL    HW214477   0.812   5.159   1.173 -0.2416 -1.1690 -1.0374
 4293SOL     OW14478   5.701   2.647   1.793 -0.2164  0.0165  0.4500
 4293SOL    HW114479   5.717   2.745   1.802  0.7290 -0.1567  0.7983
 4293SOL    HW214480   5.678   2.625   1.699 -0.0391  0.5162  0.2895
 4294SOL     OW14481   3.037   4.966   5.443 -0.5143 -0.1240 -0.1086
 4294SOL    HW114482   3.096   5.028   5.493  0.5901  0.1238 -1.6294
 4294SOL    HW214483   3.004   4.894   5.504  0.2816  0.4870  1.0770
 4295SOL     OW14484   6.512   4.076   1.923 -0.2977 -0.0857 -0.5993
 4295SOL    HW114485   6.477   4.111   2.010  1.6352 -0.4089  0.3770
 4295SOL    HW214486   6.522   3.976   1.930  2.5708  0.1513 -0.0612
 4296SOL     OW14487   2.465   0.596   0.324 -0.2066 -0.3694 -0.6642
 4296SOL    HW114488   2.463   0.590   0.224 -0.4182 -1.6701 -0.6049
 4296SOL    HW214489   2.510   0.515   0.361  1.4395  0.8986  0.2579
 4297SOL     OW14490   1.377   0.434   6.109 -0.1890  0.2759 -0.2348
 4297SOL    HW114491   1.455   0.496   6.108  0.6251 -0.6941 -2.2751
 4297SOL    HW214492   1.391   0.363   6.178  1.2145 -0.4062 -1.1733
 4298SOL     OW14493   1.860   3.843   6.626 -0.4033  0.7156 -0.2627
 4298SOL    HW114494   1.954   3.818   6.603 -0.8867 -0.5690 -0.9571
 4298SOL    HW214495   1.849   3.942   6.621  1.5978  1.2080  2.5138
 4299SOL     OW14496   4.937   6.186   2.850 -0.4407 -0.2712  0.0076
 4299SOL    HW114497   4.959   6.283   2.839  1.0570 -0.4127  1.3848
 4299SOL    HW214498   4.914   6.168   2.945  0.6890 -1.4892  0.0827
 4300SOL     OW14499   6.388   5.730   4.221  0.1415  0.1282  0.6889
 4300SOL    HW114500   6.403   5.767   4.130 -2.0792  1.1091  0.6515
 4300SOL    HW214501   6.393   5.803   4.289 -1.9763  0.1926  0.8699
 4301SOL     OW14502   0.365   6.398   0.351 -0.1379 -0.7840 -0.4250
 4301SOL    HW114503   0.365   6.347   0.437  0.9421 -2.8867 -1.6029
 4301SOL    HW214504   0.371   6.496   0.371  1.6592 -1.2661  1.8802
 4302SOL     OW14505   5.656   2.395   3.641  0.1539 -0.1341 -0.2153
 4302SOL    HW114506   5.723   2.469   3.634  1.5863 -1.2869  0.9074
 4302SOL    HW214507   5.686   2.318   3.585 -0.0377 -0.8185  0.6203
 4303SOL     OW14508   2.659   6.444   0.193 -0.1222  0.2058  1.1200
 4303SOL    HW114509   2.709   6.488   0.267  2.2794 -0.0813 -0.2391
 4303SOL    HW214510   2.642   6.510   0.120  1.9003 -0.5566 -0.1392
 4304SOL     OW14511   2.408   2.587   6.507 -0.3646  0.6876 -0.6779
 4304SOL    HW114512   2.359   2.503   6.484  0.7758  0.0859 -0.9596
 4304SOL    HW214513   2.485   2.566   6.567  0.0317  1.5116 -0.8800
 4305SOL     OW14514   1.055   6.594   6.348  0.0791 -0.3863  0.4739
 4305SOL    HW114515   1.099   6.681   6.374 -0.6185  0.5748 -1.3805
 4305SOL    HW214516   1.000   6.561   6.425 -0.0289  1.0724  1.0603
 4306SOL     OW14517   1.473   3.916   4.050  0.1402  0.7715 -0.5782
 4306SOL    HW114518   1.391   3.906   3.994  0.2337  1.3568 -0.8167
 4306SOL    HW214519   1.490   4.013   4.068  0.2900  0.6093  0.1927
 4307SOL     OW14520   6.049   6.731   2.296 -0.1782 -0.1362 -0.0173
 4307SOL    HW114521   5.980   6.747   2.367  0.8768 -0.9234  1.2227
 4307SOL    HW214522   6.070   6.818   2.250  1.1894  1.0239  2.5866
 4308SOL     OW14523   6.894   5.878   6.953 -0.5782  0.5526 -0.4868
 4308SOL    HW114524   6.903   5.929   7.038 -0.0441 -0.7425  0.2733
 4308SOL    HW214525   6.899   5.941   6.875  2.0852  1.4753  0.3170
 4309SOL     OW14526   0.501   3.077   1.602  0.5426 -0.4137 -0.3629
 4309SOL    HW114527   0.600   3.093   1.608  0.1794  1.9929  0.3310
 4309SOL    HW214528   0.462   3.133   1.530 -0.4362 -0.7932 -0.1525
 4310SOL     OW14529   4.303   2.987   6.528 -0.3755 -0.1760  0.6940
 4310SOL    HW114530   4.253   3.054   6.473 -1.7615 -0.9835  0.9156
 4310SOL    HW214531   4.279   2.999   6.624 -1.2903 -1.5087  0.6503
 4311SOL     OW14532   5.917   0.778   2.301 -0.1392  0.0524 -0.9115
 4311SOL    HW114533   5.898   0.863   2.254 -0.0909  1.1537  0.9517
 4311SOL    HW214534   6.003   0.739   2.268 -0.4324  0.4199 -2.1510
 4312SOL     OW14535   1.660   2.242   6.657  0.0416  0.4799 -0.1356
 4312SOL    HW114536   1.575   2.288   6.632  1.4514  2.6285 -1.2828
 4312SOL    HW214537   1.687   2.269   6.749 -1.0792 -1.1925  0.7448
 4313SOL     OW14538   3.422   3.307   6.920 -0.0743  0.5258  0.5876
 4313SOL    HW114539   3.337   3.295   6.971  0.0847  1.4175  1.0754
 4313SOL    HW214540   3.413   3.264   6.830 -0.2464 -1.3530  1.4620
 4314SOL     OW14541   5.291   4.776   4.383 -0.6255 -0.1753 -0.1918
 4314SOL    HW114542   5.381   4.733   4.372  0.4208  1.0635  2.4792
 4314SOL    HW214543   5.299   4.875   4.371 -1.6015 -0.0350  0.2158
 4315SOL     OW14544   2.588   3.245   4.069 -0.0154  0.1028  0.5722
 4315SOL    HW114545   2.679   3.245   4.110  0.3221 -0.0552 -0.1575
 4315SOL    HW214546   2.530   3.311   4.116  0.1023 -0.6557  1.8473
 4316SOL     OW14547   2.121   4.149   4.835 -0.2498  0.1295  0.2219
 4316SOL    HW114548   2.114   4.051   4.815 -0.8942  0.3165 -0.5313
 4316SOL    HW214549   2.205   4.167   4.886  0.3440 -0.6904 -0.4369
 4317SOL     OW14550   6.683   0.701   3.664  0.3940  0.1128 -0.0817
 4317SOL    HW114551   6.680   0.673   3.568  0.5006 -0.4223  0.0729
 4317SOL    HW214552   6.651   0.796   3.671 -1.7680 -0.5427 -0.3762
 4318SOL     OW14553   4.125   0.210   4.777 -0.6876 -0.1388  0.6988
 4318SOL    HW114554   4.148   0.241   4.685 -3.1818 -0.8202 -0.2683
 4318SOL    HW214555   4.208   0.186   4.827  0.7496  0.4327 -1.3054
 4319SOL     OW14556   6.642   1.528   5.263 -0.0769 -0.4674  0.1171
 4319SOL    HW114557   6.642   1.519   5.163 -0.7573 -0.7573  0.1419
 4319SOL    HW214558   6.551   1.554   5.295  0.0223 -0.8294  0.7046
 4320SOL     OW14559   3.974   6.447   6.592  0.6873  0.3101  0.3362
 4320SOL    HW114560   3.902   6.510   6.624  1.6965  0.9070  1.5135
 4320SOL    HW214561   3.939   6.394   6.515 -1.0919  0.4230  1.0099
 4321SOL     OW14562   6.831   5.032   0.413 -1.1893  0.6888  0.4113
 4321SOL    HW114563   6.827   5.059   0.317  1.5093  0.7399  0.2243
 4321SOL    HW214564   6.762   5.082   0.465 -3.7899 -0.4955 -1.6846
 4322SOL     OW14565   5.508   2.771   5.462  0.0849 -0.4163 -0.2622
 4322SOL    HW114566   5.492   2.714   5.542 -0.0935  0.9123  0.6708
 4322SOL    HW214567   5.450   2.741   5.387  0.5829 -1.9589 -0.0560
 4323SOL     OW14568   6.543   1.630   4.931 -0.5143  0.0641 -0.1920
 4323SOL    HW114569   6.484   1.632   4.851  1.0613 -0.6370 -1.4332
 4323SOL    HW214570   6.584   1.721   4.945 -1.8292  0.5576  0.6854
 4324SOL     OW14571   2.727   1.783   4.483  0.3333  0.3837  0.0744
 4324SOL    HW114572   2.778   1.702   4.510 -1.0769 -0.4840  0.2024
 4324SOL    HW214573   2.676   1.818   4.561  0.6272  1.1752 -0.0807
 4325SOL     OW14574   0.301   3.156   0.132 -0.0819 -0.2574 -0.8367
 4325SOL    HW114575   0.367   3.123   0.200 -0.4646  1.2637  0.3080
 4325SOL    HW214576   0.326   3.120   0.042  1.5244 -0.8041 -0.2091
 4326SOL     OW14577   5.420   1.242   5.815  0.3785 -0.5622 -0.4451
 4326SOL    HW114578   5.438   1.332   5.774 -0.0232 -0.6762 -0.8803
 4326SOL    HW214579   5.389   1.179   5.745 -4.1601  0.2585  0.4960
 4327SOL     OW14580   5.064   5.721   2.103  0.1661  0.5035 -0.1603
 4327SOL    HW114581   4.980   5.752   2.150 -1.7546 -2.6483 -1.2069
 4327SOL    HW214582   5.051   5.728   2.004  0.4190 -1.4963 -0.3791
 4328SOL     OW14583   3.909   4.246   4.688  1.1635 -0.5090  0.4521
 4328SOL    HW114584   3.984   4.183   4.668  1.4360 -0.1829  0.4530
 4328SOL    HW214585   3.924   4.333   4.641  1.6398  0.1473  1.7708
 4329SOL     OW14586   4.714   6.815   4.620 -0.0061  0.0607  0.2687
 4329SOL    HW114587   4.770   6.808   4.702  0.5902 -0.7599 -0.1933
 4329SOL    HW214588   4.624   6.776   4.637  0.2676 -0.5118  0.4006
 4330SOL     OW14589   4.717   1.213   5.201  0.1705  0.2769 -0.5830
 4330SOL    HW114590   4.799   1.217   5.258  0.0000  0.4490 -0.3465
 4330SOL    HW214591   4.723   1.134   5.140 -0.8142 -1.5384  1.5140
 4331SOL     OW14592   4.784   0.795   2.873 -0.2447 -0.1085  0.8331
 4331SOL    HW114593   4.800   0.890   2.901 -2.4760  0.0487  1.7957
 4331SOL    HW214594   4.690   0.785   2.842  0.4667 -1.6628 -0.9940
 4332SOL     OW14595   4.918   0.481   6.040 -0.0482 -0.3975 -0.0341
 4332SOL    HW114596   4.821   0.461   6.025  0.1526 -1.3448 -0.1416
 4332SOL    HW214597   4.954   0.533   5.962 -0.1747 -1.1256 -0.5893
 4333SOL     OW14598   1.517   1.120   2.997 -0.2670  0.1199 -0.2452
 4333SOL    HW114599   1.439   1.066   2.966 -0.5588  0.0425  0.5813
 4333SOL    HW214600   1.539   1.094   3.091  0.6855  0.2242 -0.4335
 4334SOL     OW14601   4.660   6.069   5.605 -0.1340 -0.2742 -0.3777
 4334SOL    HW114602   4.599   5.990   5.608  1.5554 -1.6095  0.7714
 4334SOL    HW214603   4.674   6.105   5.697  0.9961 -0.1592 -0.5750
 4335SOL     OW14604   3.008   0.449   6.046  0.0770  0.0047 -0.0209
 4335SOL    HW114605   2.915   0.417   6.062  0.2595  0.3580  2.0693
 4335SOL    HW214606   3.068   0.415   6.119  1.4618  0.3466 -0.9497
 4336SOL     OW14607   4.028   6.729   0.725  0.0902  0.6656 -0.3150
 4336SOL    HW114608   4.059   6.635   0.709  1.6137  1.0613  0.1284
 4336SOL    HW214609   3.930   6.729   0.746  0.1305 -0.8569 -0.0093
 4337SOL     OW14610   5.211   2.674   2.498 -0.4108 -0.1674  0.2448
 4337SOL    HW114611   5.133   2.733   2.479 -0.3040 -0.3825 -0.9173
 4337SOL    HW214612   5.238   2.626   2.414  1.3299  0.3263  0.4886
 4338SOL     OW14613   4.674   4.122   3.503 -0.3058 -0.0038  0.4820
 4338SOL    HW114614   4.758   4.092   3.459  0.0977  0.6980  0.7587
 4338SOL    HW214615   4.661   4.070   3.588 -0.0863 -0.0268  0.5026
 4339SOL     OW14616   4.493   0.761   0.397  0.4387 -0.1871  0.2261
 4339SOL    HW114617   4.476   0.856   0.370 -1.0725 -0.8678 -1.3694
 4339SOL    HW214618   4.536   0.760   0.487 -1.0009  1.9590  1.0324
 4340SOL     OW14619   2.295   0.758   6.758 -0.2875  0.3657 -0.3757
 4340SOL    HW114620   2.241   0.802   6.687  0.9084  1.8456 -0.4281
 4340SOL    HW214621   2.391   0.758   6.732 -0.1806 -2.1470 -0.2558
 4341SOL     OW14622   3.484   0.659   5.167  0.2890  0.2067 -0.2163
 4341SOL    HW114623   3.432   0.686   5.087 -4.0111 -0.3256  2.1256
 4341SOL    HW214624   3.516   0.565   5.155 -2.5488 -0.8271 -0.4474
 4342SOL     OW14625   6.247   2.204   2.463 -0.3462 -0.8468 -0.2059
 4342SOL    HW114626   6.237   2.274   2.533  1.0005 -0.3547 -0.4707
 4342SOL    HW214627   6.299   2.127   2.500 -0.8113 -1.1879 -0.2609
 4343SOL     OW14628   6.340   5.771   0.604  0.3563 -0.1087 -0.6066
 4343SOL    HW114629   6.373   5.849   0.551 -2.0440  1.8513  0.5618
 4343SOL    HW214630   6.351   5.790   0.702  3.9709 -3.3092 -0.1360
 4344SOL     OW14631   6.824   1.085   6.747 -0.0771 -0.9698 -0.4542
 4344SOL    HW114632   6.822   1.126   6.656 -0.3841  0.8974  0.3515
 4344SOL    HW214633   6.919   1.072   6.774  0.0288 -0.8344 -0.7490
 4345SOL     OW14634   5.036   0.097   4.922 -0.3236 -0.2776  0.1741
 4345SOL    HW114635   5.113   0.118   4.982 -0.3812  2.2783 -0.5127
 4345SOL    HW214636   4.954   0.082   4.977 -0.0522  0.4951  0.8068
 4346SOL     OW14637   3.676   1.558   5.568  0.2018  0.1365  0.8994
 4346SOL    HW114638   3.584   1.520   5.574 -0.3376  1.0786 -0.7391
 4346SOL    HW214639   3.739   1.488   5.534 -0.8563  0.6534 -2.5037
 4347SOL     OW14640   1.539   5.514   1.714 -0.6586 -0.3201  0.1979
 4347SOL    HW114641   1.466   5.448   1.699  0.2714 -1.0978 -1.0556
 4347SOL    HW214642   1.512   5.577   1.787 -2.8899 -0.1108 -0.7278
 4348SOL     OW14643   3.493   1.937   1.047 -0.0935  0.3911 -0.0977
 4348SOL    HW114644   3.437   1.904   0.971 -0.0091  2.1193 -0.9438
 4348SOL    HW214645   3.590   1.929   1.023 -0.0508  0.5042  0.0374
 4349SOL     OW14646   3.834   0.432   1.136  0.0015 -0.1835 -0.3449
 4349SOL    HW114647   3.793   0.405   1.048  0.3594 -0.8785 -0.3053
 4349SOL    HW214648   3.885   0.355   1.174 -1.5790 -0.4733  1.3344
 4350SOL     OW14649   0.048   4.549   3.677  0.1691  0.0708 -0.5882
 4350SOL    HW114650   0.066   4.463   3.629 -0.4508 -0.9527  0.9184
 4350SOL    HW214651  -0.048   4.575   3.664  0.6233  1.1860 -1.9769
 4351SOL     OW14652   5.120   1.950   4.566  1.0519  0.5259 -0.0354
 4351SOL    HW114653   5.073   1.942   4.478  1.6445  0.1028 -0.3206
 4351SOL    HW214654   5.129   1.859   4.607  1.9379  0.5602 -0.1509
 4352SOL     OW14655   2.952   6.995   3.536  0.1760 -0.4704 -0.0771
 4352SOL    HW114656   2.897   7.063   3.585 -0.9740  0.2923 -2.2735
 4352SOL    HW214657   3.047   7.027   3.530  0.4247 -0.7592  1.8805
 4353SOL     OW14658   4.782   1.026   0.512  0.1497 -0.4263 -0.6096
 4353SOL    HW114659   4.716   1.059   0.444  0.2828 -0.8635 -0.9609
 4353SOL    HW214660   4.867   1.078   0.503 -0.9316  1.9066  1.5364
 4354SOL     OW14661   0.943   2.751   0.087 -0.2519  0.3027  0.1598
 4354SOL    HW114662   1.035   2.722   0.062 -0.4491  2.0203 -3.0228
 4354SOL    HW214663   0.879   2.677   0.068 -0.0048  0.5518 -1.7675
 4355SOL     OW14664   5.829   3.632   1.593 -0.5340 -0.0929 -0.6357
 4355SOL    HW114665   5.792   3.591   1.509 -0.6113 -0.5375 -0.3876
 4355SOL    HW214666   5.753   3.650   1.656 -0.5991  1.1978 -1.0665
 4356SOL     OW14667   0.216   6.268   6.735  0.2829 -0.5850  0.5733
 4356SOL    HW114668   0.175   6.293   6.823 -0.5193  1.1751 -0.2395
 4356SOL    HW214669   0.147   6.279   6.663  0.4800 -3.4028 -0.1527
 4357SOL     OW14670   1.228   4.942   0.375 -0.3378 -0.3674 -0.2212
 4357SOL    HW114671   1.326   4.959   0.375 -0.2608 -0.7977 -0.4840
 4357SOL    HW214672   1.185   4.993   0.299 -0.4586  0.5730  0.4638
 4358SOL     OW14673   3.028   2.512   1.181  0.0308  0.0239  0.4922
 4358SOL    HW114674   2.987   2.429   1.221  0.6619 -0.7002 -0.3258
 4358SOL    HW214675   3.080   2.487   1.100  2.2823  0.8618  1.5963
 4359SOL     OW14676   6.031   1.560   6.817  0.4184 -0.3172  0.5906
 4359SOL    HW114677   5.979   1.646   6.818 -1.6275 -1.4898  0.2078
 4359SOL    HW214678   5.976   1.488   6.774  2.3149 -1.6990  0.3723
 4360SOL     OW14679   1.746   4.020   0.408  0.5826  0.3314 -0.1409
 4360SOL    HW114680   1.654   4.000   0.374  0.8522 -0.1018 -0.6384
 4360SOL    HW214681   1.790   3.936   0.438  1.0737  0.4191 -0.5799
 4361SOL     OW14682   1.231   6.321   2.965 -0.5220  0.5095 -0.0485
 4361SOL    HW114683   1.150   6.375   2.941  0.9295  1.8002 -2.3949
 4361SOL    HW214684   1.249   6.254   2.893  0.6026  0.3336  0.3776
 4362SOL     OW14685   0.848   1.743   0.457 -0.1840  0.2251 -0.0200
 4362SOL    HW114686   0.849   1.784   0.548 -0.2596  0.0295  0.0679
 4362SOL    HW214687   0.829   1.814   0.389  0.5830  0.5125  0.0479
 4363SOL     OW14688   4.424   1.209   0.759  0.0183  0.1482  0.3641
 4363SOL    HW114689   4.340   1.206   0.814 -0.3427  0.1071 -0.1800
 4363SOL    HW214690   4.446   1.304   0.738 -0.1690  0.1336  0.0950
 4364SOL     OW14691   4.017   0.971   6.662  0.4785 -0.0135  0.5997
 4364SOL    HW114692   4.051   1.008   6.749  0.6079  2.8460 -0.5432
 4364SOL    HW214693   3.954   1.036   6.621 -0.6515 -1.9150 -0.8529
 4365SOL     OW14694   2.606   3.387   0.024 -0.3393  0.1608 -0.5626
 4365SOL    HW114695   2.653   3.475   0.017 -1.8974  1.0689 -0.0985
 4365SOL    HW214696   2.507   3.402   0.032 -0.4346 -1.4200  3.0788
 4366SOL     OW14697   4.576   4.032   0.970  0.0782  0.0984 -0.8634
 4366SOL    HW114698   4.654   3.994   1.020  0.1216 -0.6367 -1.4750
 4366SOL    HW214699   4.569   4.130   0.989  0.2803 -0.0975  0.3361
 4367SOL     OW14700   4.555   3.137   6.394 -0.2007  0.6546  0.4662
 4367SOL    HW114701   4.504   3.220   6.416 -0.6996  0.7241 -0.9005
 4367SOL    HW214702   4.503   3.081   6.330  1.3332  0.6217 -0.8197
 4368SOL     OW14703   1.081   6.122   0.589  0.7361  0.6832 -0.1975
 4368SOL    HW114704   1.099   6.211   0.547  0.7645  1.3540  1.1668
 4368SOL    HW214705   0.989   6.091   0.563  1.6918 -0.1911 -2.8248
 4369SOL     OW14706   3.763   6.514   2.300  0.2779  0.2522 -0.1138
 4369SOL    HW114707   3.727   6.571   2.226  0.0249  0.4408  0.1517
 4369SOL    HW214708   3.739   6.419   2.284  0.4087  0.2649 -0.3846
 4370SOL     OW14709   5.375   2.763   6.482  0.2760 -0.2811 -0.2824
 4370SOL    HW114710   5.385   2.821   6.563  1.4015  0.0439 -0.6415
 4370SOL    HW214711   5.350   2.671   6.511 -0.2647  0.0613  0.3718
 4371SOL     OW14712   6.075   4.888   6.884  0.3777  0.0384 -0.5618
 4371SOL    HW114713   6.018   4.913   6.805 -1.0112 -0.2389  0.3117
 4371SOL    HW214714   6.135   4.964   6.907 -1.4841  1.3931  0.0512
 4372SOL     OW14715   5.900   4.795   1.888  0.0097  0.3794  0.5571
 4372SOL    HW114716   5.852   4.840   1.813 -0.4758 -0.6668  0.2278
 4372SOL    HW214717   5.839   4.787   1.967  0.0593  0.2065  0.5783
 4373SOL     OW14718   5.291   4.236   3.594 -0.4004 -0.1725  0.0814
 4373SOL    HW114719   5.312   4.243   3.692  0.1367 -1.5220  0.0755
 4373SOL    HW214720   5.373   4.254   3.541 -0.1947 -1.4714 -0.0569
 4374SOL     OW14721   1.014   6.772   0.614  0.2254  0.2394 -0.1591
 4374SOL    HW114722   0.965   6.773   0.701  0.4913 -1.5270  0.0413
 4374SOL    HW214723   0.992   6.688   0.565  0.8080  0.7838 -1.3917
 4375SOL     OW14724   4.821   6.279   5.244 -0.0923  0.4934 -0.5892
 4375SOL    HW114725   4.803   6.302   5.340  0.6025 -0.5456 -0.1878
 4375SOL    HW214726   4.905   6.323   5.215 -0.9352  1.8009 -1.1155
 4376SOL     OW14727   2.082   2.163   4.357  0.5552  0.8953  0.0799
 4376SOL    HW114728   2.038   2.242   4.398  0.7456  0.5696  0.9432
 4376SOL    HW214729   2.175   2.187   4.329  0.6743  0.9315  0.5045
 4377SOL     OW14730   2.765   5.069   4.544  0.1805 -0.2721  0.1347
 4377SOL    HW114731   2.678   5.022   4.558  0.2129  0.0769  1.7257
 4377SOL    HW214732   2.806   5.040   4.458 -0.9847 -1.2699 -0.0983
 4378SOL     OW14733   3.534   1.374   1.909  0.6226  0.2380 -0.8611
 4378SOL    HW114734   3.487   1.303   1.858 -2.2354  0.5980  1.0404
 4378SOL    HW214735   3.630   1.348   1.921  0.0881 -2.4436 -1.6808
 4379SOL     OW14736   5.734   0.666   5.844 -0.1879 -0.4978 -0.6714
 4379SOL    HW114737   5.811   0.713   5.886 -0.4917  0.4860 -1.2013
 4379SOL    HW214738   5.665   0.645   5.914  0.8821 -2.1171 -0.0378
 4380SOL     OW14739   5.162   4.345   1.137  0.6219  0.3264 -0.4060
 4380SOL    HW114740   5.227   4.323   1.064  1.2287 -0.5282  0.3657
 4380SOL    HW214741   5.144   4.443   1.137  3.2889  0.8975  0.4167
 4381SOL     OW14742   1.722   0.781   1.741  0.3421 -0.1940  0.1026
 4381SOL    HW114743   1.703   0.717   1.667 -2.9661 -0.5955  1.1657
 4381SOL    HW214744   1.762   0.732   1.818  1.8185 -0.1291 -0.5715
 4382SOL     OW14745   3.262   4.319   0.634 -0.3552  0.4124 -0.3535
 4382SOL    HW114746   3.227   4.387   0.699 -1.1203 -1.5227  1.3336
 4382SOL    HW214747   3.187   4.287   0.576 -0.5298 -0.6832  0.4502
 4383SOL     OW14748   0.165   2.501   1.162  0.5703 -0.7291  0.6146
 4383SOL    HW114749   0.261   2.484   1.137  0.6973  0.7853 -0.0428
 4383SOL    HW214750   0.162   2.567   1.237  0.0896  3.1220 -2.4615
 4384SOL     OW14751   0.399   5.649   6.229  0.1272 -0.6100  0.1173
 4384SOL    HW114752   0.301   5.653   6.248  0.0158 -0.2410 -0.4987
 4384SOL    HW214753   0.425   5.555   6.206 -0.2203 -0.5796 -0.4136
 4385SOL     OW14754   5.384   1.363   5.429 -0.0603  0.2368  0.0622
 4385SOL    HW114755   5.348   1.441   5.482  0.2982  0.5538 -0.1557
 4385SOL    HW214756   5.472   1.388   5.390 -0.3845  0.0577 -0.8013
 4386SOL     OW14757   1.596   5.943   2.418  0.5054  0.0111 -0.5891
 4386SOL    HW114758   1.653   5.861   2.409 -1.0475 -1.2984  0.7374
 4386SOL    HW214759   1.562   5.950   2.512 -1.3778  0.7973 -1.2704
 4387SOL     OW14760   2.486   4.481   6.234  0.3178 -0.2118  0.1374
 4387SOL    HW114761   2.472   4.433   6.321 -0.5336  0.5591  0.4393
 4387SOL    HW214762   2.538   4.422   6.172 -1.0650 -1.7171  0.3375
 4388SOL     OW14763   0.686   0.381   2.504 -0.3721  0.4543 -0.6674
 4388SOL    HW114764   0.728   0.315   2.568  0.1262 -0.5817 -2.0168
 4388SOL    HW214765   0.759   0.430   2.456 -0.7351  0.6221 -1.0428
 4389SOL     OW14766   6.395   1.099   5.725 -0.0203 -1.2301 -0.1360
 4389SOL    HW114767   6.470   1.158   5.756 -0.7312 -0.1902 -0.3508
 4389SOL    HW214768   6.405   1.008   5.765 -0.2657 -0.2892  2.1976
 4390SOL     OW14769   4.928   4.049   0.555  0.0693  0.7654  0.3853
 4390SOL    HW114770   4.897   4.120   0.492 -0.1379 -0.5503 -1.0501
 4390SOL    HW214771   4.850   4.016   0.609 -0.1687  0.4759 -0.1332
 4391SOL     OW14772   4.131   5.650   6.236 -0.0206 -0.6842  0.3277
 4391SOL    HW114773   4.067   5.582   6.272 -0.0313 -0.4155  0.8163
 4391SOL    HW214774   4.107   5.740   6.272 -0.4255 -0.3035 -0.8535
 4392SOL     OW14775   3.641   2.366   0.930  0.8530 -0.4675  0.4615
 4392SOL    HW114776   3.567   2.362   0.997  0.2403  0.0545 -0.1661
 4392SOL    HW214777   3.711   2.430   0.962 -1.0343  2.4788 -0.8936
 4393SOL     OW14778   1.923   4.144   0.235 -0.3187 -0.2787  0.4276
 4393SOL    HW114779   1.915   4.100   0.145  1.6359 -1.2774  0.6906
 4393SOL    HW214780   1.841   4.124   0.289 -0.7534 -1.1311 -0.5075
 4394SOL     OW14781   6.058   0.457   2.330 -0.4379  0.1337 -0.0076
 4394SOL    HW114782   6.074   0.361   2.351 -1.2916 -0.4737 -1.8674
 4394SOL    HW214783   5.961   0.471   2.310  0.0331  0.8180 -2.1545
 4395SOL     OW14784   0.704   2.727   3.280 -0.0123 -0.2764  0.0274
 4395SOL    HW114785   0.778   2.766   3.336  0.1472 -0.8968  0.2655
 4395SOL    HW214786   0.713   2.627   3.280 -1.6533 -0.4640  1.1939
 4396SOL     OW14787   1.721   3.747   2.428 -0.3672 -0.0751 -0.6816
 4396SOL    HW114788   1.686   3.656   2.449 -1.6972  0.3980 -0.7412
 4396SOL    HW214789   1.675   3.783   2.347  0.7377  0.3382 -1.1531
 4397SOL     OW14790   3.117   5.757   0.973  0.0021  0.1627 -0.4099
 4397SOL    HW114791   3.053   5.756   1.049  0.9079  0.1008  0.3777
 4397SOL    HW214792   3.101   5.677   0.915 -1.0797  0.5225 -0.6274
 4398SOL     OW14793   4.237   3.504   6.702  0.0163  0.8362 -0.2589
 4398SOL    HW114794   4.220   3.455   6.787 -0.9480 -0.6271 -1.2431
 4398SOL    HW214795   4.329   3.542   6.703  0.9565 -1.3001  0.4605
 4399SOL     OW14796   2.104   6.148   4.042  0.6986 -0.2180  0.3589
 4399SOL    HW114797   2.146   6.218   3.984  1.4138 -1.0193 -0.1128
 4399SOL    HW214798   2.156   6.063   4.035  0.3813 -0.5379  1.6506
 4400SOL     OW14799   3.779   3.783   5.507 -0.0915 -0.3091 -0.5733
 4400SOL    HW114800   3.832   3.756   5.427  0.9042  2.6188 -1.0435
 4400SOL    HW214801   3.682   3.770   5.490  0.1554 -0.4116 -1.9899
 4401SOL     OW14802   1.235   4.178   6.503  0.4127 -0.1645 -0.0538
 4401SOL    HW114803   1.254   4.274   6.524  0.3833  0.2555 -1.7558
 4401SOL    HW214804   1.318   4.124   6.513  0.6284  0.1985  0.1148
 4402SOL     OW14805   0.649   2.523   4.296 -0.2492  0.4005  0.2447
 4402SOL    HW114806   0.555   2.513   4.327  0.0453  0.2840  1.1138
 4402SOL    HW214807   0.649   2.560   4.203 -1.2898 -3.0459 -1.3050
 4403SOL     OW14808   3.798   1.657   1.960 -0.3441  0.1167 -0.1218
 4403SOL    HW114809   3.895   1.675   1.944  0.0324  0.5254  2.3166
 4403SOL    HW214810   3.752   1.645   1.872  1.8416  0.1752 -1.3486
 4404SOL     OW14811   2.131   4.220   6.100  0.1264 -0.3333  0.3600
 4404SOL    HW114812   2.168   4.127   6.106  3.7037  0.9934  1.2662
 4404SOL    HW214813   2.085   4.242   6.186  0.3633 -0.8274  0.6217
 4405SOL     OW14814   1.455   3.395   6.460 -0.1576 -0.1243  0.0922
 4405SOL    HW114815   1.544   3.393   6.505 -0.1838 -0.7855  0.1195
 4405SOL    HW214816   1.452   3.327   6.386 -1.5915 -2.2591  1.9627
 4406SOL     OW14817   5.346   2.675   3.972  0.0483 -0.5416  0.0465
 4406SOL    HW114818   5.389   2.713   4.054  0.0162 -0.3204 -0.0380
 4406SOL    HW214819   5.354   2.576   3.973 -0.1105 -0.5497  0.4049
 4407SOL     OW14820   4.510   4.960   2.763 -0.3180  0.2598  0.1541
 4407SOL    HW114821   4.468   4.897   2.697 -1.1895 -0.1657  1.0803
 4407SOL    HW214822   4.512   4.916   2.853 -0.2330  1.2765  0.6571
 4408SOL     OW14823   1.743   0.590   5.102 -0.0092 -0.1438  0.7559
 4408SOL    HW114824   1.648   0.608   5.074 -0.8885 -4.8228 -0.0366
 4408SOL    HW214825   1.790   0.539   5.030  1.8811 -1.3002  2.7052
 4409SOL     OW14826   0.773   3.814   6.045  0.0934 -0.2153 -0.5478
 4409SOL    HW114827   0.820   3.817   6.134 -1.6326  1.0784  0.3748
 4409SOL    HW214828   0.683   3.773   6.056 -0.8328  1.4968 -1.3212
 4410SOL     OW14829   1.137   2.121   5.282  0.0568 -0.1258 -0.1043
 4410SOL    HW114830   1.174   2.033   5.252 -0.5880  0.4461 -2.8397
 4410SOL    HW214831   1.063   2.148   5.221 -0.0883  2.1001  0.9727
 4411SOL     OW14832   2.983   1.030   0.731 -0.2489  0.0055 -0.1741
 4411SOL    HW114833   2.949   1.111   0.683 -2.7050  0.2098  1.6794
 4411SOL    HW214834   2.906   0.970   0.754  1.4459 -2.7071 -1.0862
 4412SOL     OW14835   4.120   5.594   7.016 -0.5890  0.2875 -0.2807
 4412SOL    HW114836   4.022   5.575   7.014 -1.0268  1.5157  3.0058
 4412SOL    HW214837   4.148   5.632   6.928 -3.5977  2.1294 -0.6003
 4413SOL     OW14838   3.677   5.019   4.994  0.5422 -0.2678 -0.7894
 4413SOL    HW114839   3.611   4.957   4.950 -1.2533  1.5199 -0.7894
 4413SOL    HW214840   3.656   5.025   5.091 -1.2226  2.4386 -1.2322
 4414SOL     OW14841   0.583   2.544   0.167 -0.2532 -0.0204 -0.3925
 4414SOL    HW114842   0.562   2.478   0.240  0.7510 -0.6893 -0.6882
 4414SOL    HW214843   0.599   2.634   0.208  1.5225 -0.6414  0.3985
 4415SOL     OW14844   1.919   6.889   6.407 -0.0790  0.0825 -0.3398
 4415SOL    HW114845   2.005   6.873   6.358 -0.4373  0.3637 -1.0649
 4415SOL    HW214846   1.850   6.825   6.374 -1.2120  2.2572 -2.4697
 4416SOL     OW14847   1.255   3.866   5.875 -0.0748  0.4401 -0.6255
 4416SOL    HW114848   1.220   3.828   5.789  0.1323 -0.1730 -0.4407
 4416SOL    HW214849   1.224   3.810   5.951  0.0225  0.7932 -0.3263
 4417SOL     OW14850   0.191   5.154   5.514 -0.6814 -0.4269  0.1972
 4417SOL    HW114851   0.213   5.115   5.424 -1.0109 -0.4331  0.1178
 4417SOL    HW214852   0.137   5.237   5.502  1.3389  0.9635  0.3091
 4418SOL     OW14853   1.569   3.711   5.647  0.0519 -0.4242 -0.3088
 4418SOL    HW114854   1.632   3.640   5.678  1.3398 -0.7062 -3.2666
 4418SOL    HW214855   1.518   3.678   5.567  0.0829  1.6861 -1.2591
 4419SOL     OW14856   4.831   1.167   4.575  0.1991 -0.3940 -0.6882
 4419SOL    HW114857   4.871   1.223   4.502 -0.5168  1.4679  0.2726
 4419SOL    HW214858   4.759   1.108   4.537  1.9805 -1.8401 -1.9776
 4420SOL     OW14859   0.585   5.875   6.237  0.3931  0.1876 -0.3498
 4420SOL    HW114860   0.554   5.948   6.298  0.3632  0.9481 -1.2513
 4420SOL    HW214861   0.507   5.821   6.207  0.6298 -1.7839  2.1869
 4421SOL     OW14862   2.284   1.347   6.478  0.1435  0.7104 -0.0606
 4421SOL    HW114863   2.296   1.354   6.379  0.1677 -1.5034 -0.2590
 4421SOL    HW214864   2.224   1.270   6.499  0.8487  0.5993  1.6965
 4422SOL     OW14865   3.854   6.871   1.971  0.3147 -0.2023 -0.0587
 4422SOL    HW114866   3.769   6.898   2.018 -0.0742 -0.3474 -0.6661
 4422SOL    HW214867   3.895   6.793   2.019  0.6999  0.5542  0.8822
 4423SOL     OW14868   5.479   2.490   3.365 -0.2279 -0.2843 -0.0166
 4423SOL    HW114869   5.568   2.529   3.390 -0.1848 -0.8387  0.6967
 4423SOL    HW214870   5.450   2.423   3.433 -1.7626  0.7500  0.4171
 4424SOL     OW14871   5.751   0.115   3.861  0.1567  0.4887  0.4584
 4424SOL    HW114872   5.787   0.075   3.777  0.3523  1.6244 -0.0148
 4424SOL    HW214873   5.685   0.187   3.838 -1.4337 -0.6213  1.2918
 4425SOL     OW14874   3.610   5.820   1.114 -0.1752 -0.5090  0.3482
 4425SOL    HW114875   3.511   5.835   1.126 -0.2271 -0.6256  0.0793
 4425SOL    HW214876   3.635   5.732   1.155 -0.1333 -0.3581  0.6512
 4426SOL     OW14877   3.449   1.072   3.816 -0.0836 -0.2141  0.1114
 4426SOL    HW114878   3.514   1.094   3.889 -0.5491  0.0009  0.4675
 4426SOL    HW214879   3.381   1.007   3.850  1.3430 -2.4006 -0.9663
 4427SOL     OW14880   5.799   2.664   6.930 -0.1741 -0.8248 -0.3594
 4427SOL    HW114881   5.823   2.662   6.833  0.7313 -1.4307 -0.1400
 4427SOL    HW214882   5.781   2.758   6.959 -0.1785 -0.6129 -1.0515
 4428SOL     OW14883   3.572   0.242   2.940 -0.5754 -0.0628  0.1290
 4428SOL    HW114884   3.509   0.234   2.863 -0.6519 -1.3345  0.2959
 4428SOL    HW214885   3.568   0.335   2.978 -1.4613  0.2074 -0.6033
 4429SOL     OW14886   5.252   2.481   4.459 -0.1842 -0.1643  1.0015
 4429SOL    HW114887   5.160   2.443   4.456 -0.2464  0.0596 -1.2757
 4429SOL    HW214888   5.313   2.427   4.402  0.8295  0.4126  1.4953
 4430SOL     OW14889   5.106   0.836   0.825  0.1902  0.0999 -0.0326
 4430SOL    HW114890   5.138   0.923   0.789  0.9430 -0.5865 -1.0862
 4430SOL    HW214891   5.184   0.778   0.848 -0.2832 -0.7681 -0.5406
 4431SOL     OW14892   4.344   3.281   4.024 -0.1716  0.4890  0.0417
 4431SOL    HW114893   4.313   3.360   3.969  0.3022  1.0251  0.5348
 4431SOL    HW214894   4.436   3.298   4.057 -0.5093  0.2279  1.1343
 4432SOL     OW14895   1.664   5.825   4.964 -0.3934 -0.8921  0.2422
 4432SOL    HW114896   1.579   5.827   4.911  0.5921 -1.4847 -1.4415
 4432SOL    HW214897   1.683   5.916   5.000 -1.0179 -0.4192 -0.5888
 4433SOL     OW14898   5.347   1.108   0.077 -0.3625  0.5893 -0.2057
 4433SOL    HW114899   5.441   1.077   0.062 -0.7833 -0.4410 -0.8292
 4433SOL    HW214900   5.304   1.125  -0.012 -1.5799 -1.4959 -0.0660
 4434SOL     OW14901   0.168   4.213   4.789  0.0701  0.0051 -0.3656
 4434SOL    HW114902   0.100   4.158   4.837 -0.2844  2.1227  1.7347
 4434SOL    HW214903   0.258   4.199   4.831  0.1931  0.1417 -0.5820
 4435SOL     OW14904   6.276   0.941   5.315  0.0927  0.1112  0.2493
 4435SOL    HW114905   6.326   1.014   5.361  0.8814 -1.0979  1.4026
 4435SOL    HW214906   6.341   0.880   5.269 -0.6661  1.1039 -2.2534
 4436SOL     OW14907   3.006   1.279   4.392  0.2141  0.1671 -0.0491
 4436SOL    HW114908   2.951   1.198   4.413  0.5995  0.5624  3.0982
 4436SOL    HW214909   3.063   1.261   4.312 -1.4175 -1.7782 -0.8472
 4437SOL     OW14910   0.916   4.608   4.740 -0.2301  0.2791 -0.0446
 4437SOL    HW114911   0.987   4.547   4.775 -0.5181  1.1327  2.1405
 4437SOL    HW214912   0.956   4.696   4.715 -0.3640  0.4450  0.3155
 4438SOL     OW14913   2.025   4.716   2.639 -0.2935 -0.1491 -0.4436
 4438SOL    HW114914   1.989   4.767   2.561 -1.0147  0.7805  0.4586
 4438SOL    HW214915   2.036   4.778   2.717  0.5970 -1.0110  0.1459
 4439SOL     OW14916   5.008   3.237   0.080  0.5903  0.0334 -0.7934
 4439SOL    HW114917   5.057   3.182   0.147  1.1100 -0.8018 -1.8186
 4439SOL    HW214918   5.072   3.301   0.037 -0.0660  1.6713  0.5828
 4440SOL     OW14919   5.535   5.584   4.259 -0.1677  0.6366 -0.0127
 4440SOL    HW114920   5.506   5.586   4.355 -1.2994  1.1396 -0.3464
 4440SOL    HW214921   5.563   5.676   4.231  1.7212  0.2003  0.2554
 4441SOL     OW14922   4.085   0.958   1.209  0.7113  0.2488 -0.3335
 4441SOL    HW114923   4.015   0.889   1.191  0.4269  0.7677 -1.3031
 4441SOL    HW214924   4.103   0.962   1.307  0.8255 -1.2808 -0.2553
 4442SOL     OW14925   5.309   4.721   3.372 -0.1724  0.1992 -0.5030
 4442SOL    HW114926   5.316   4.780   3.291  0.3689  1.7587  0.6339
 4442SOL    HW214927   5.325   4.776   3.454  0.4878 -1.5824  0.6062
 4443SOL     OW14928   3.369   6.106   1.537 -0.3534 -0.0355 -0.1342
 4443SOL    HW114929   3.293   6.162   1.504  0.4158 -0.5196 -2.9692
 4443SOL    HW214930   3.448   6.165   1.554 -0.5948  0.1443  0.4120
 4444SOL     OW14931   4.210   3.985   1.232  0.5362 -0.0310 -0.3124
 4444SOL    HW114932   4.159   4.058   1.277 -1.1597 -0.4477 -1.4775
 4444SOL    HW214933   4.191   3.987   1.133 -0.2798 -2.5674 -0.2835
 4445SOL     OW14934   0.328   6.340   6.053 -0.8574 -0.4600  0.1674
 4445SOL    HW114935   0.336   6.394   6.137 -1.2347  1.2625 -0.8439
 4445SOL    HW214936   0.419   6.309   6.025 -0.6267 -0.3260  0.7506
 4446SOL     OW14937   3.463   6.261   2.983  0.1391 -0.6638 -0.0346
 4446SOL    HW114938   3.472   6.180   2.925  1.3701 -1.1805  0.8448
 4446SOL    HW214939   3.473   6.234   3.079  0.7083  0.5469  0.2625
 4447SOL     OW14940   0.999   3.655   6.263 -0.0478  0.0491  0.0916
 4447SOL    HW114941   1.047   3.721   6.320 -0.8632  0.4413  0.3461
 4447SOL    HW214942   0.957   3.585   6.321 -0.6797  0.3152 -0.0304
 4448SOL     OW14943   4.286   4.488   0.919  0.2815 -0.3257 -0.5308
 4448SOL    HW114944   4.188   4.495   0.937  0.1851  0.8798 -1.3982
 4448SOL    HW214945   4.321   4.577   0.889  1.8504 -0.4702  0.7095
 4449SOL     OW14946   5.086   1.889   5.920 -0.6517 -0.4221 -0.0331
 4449SOL    HW114947   5.125   1.839   5.998 -0.3360 -0.0010  0.0827
 4449SOL    HW214948   5.092   1.832   5.838 -1.8514 -1.2557  0.4196
 4450SOL     OW14949   1.968   2.943   0.261  0.2625 -0.1897 -0.1577
 4450SOL    HW114950   1.911   2.903   0.190  0.9923 -1.4804 -0.0506
 4450SOL    HW214951   2.062   2.949   0.229 -0.0955  3.4049 -0.9403
 4451SOL     OW14952   5.260   5.686   0.458  0.5573  0.8932  0.8348
 4451SOL    HW114953   5.187   5.654   0.518 -0.8033  1.3999 -0.4888
 4451SOL    HW214954   5.278   5.783   0.477 -1.4447  1.6988 -0.9879
 4452SOL     OW14955   3.670   0.742   1.874 -0.4513 -0.0048 -0.1679
 4452SOL    HW114956   3.643   0.820   1.818  1.9258  1.0095 -0.0208
 4452SOL    HW214957   3.592   0.710   1.927 -1.5480  2.1143 -0.4091
 4453SOL     OW14958   7.017   4.876   3.643 -0.0543 -0.5913 -0.1435
 4453SOL    HW114959   7.048   4.882   3.738 -0.0541 -0.9000 -0.1243
 4453SOL    HW214960   6.918   4.858   3.641  0.0891 -1.4195 -0.1940
 4454SOL     OW14961   3.732   2.818   5.099  0.4080 -0.0274 -0.5648
 4454SOL    HW114962   3.824   2.783   5.120  0.6623 -0.2426 -1.9506
 4454SOL    HW214963   3.689   2.760   5.030 -0.7496  0.1198  0.0274
 4455SOL     OW14964   1.321   2.550   5.976  0.9059 -0.8122  0.2249
 4455SOL    HW114965   1.405   2.572   5.926  1.6504 -1.9441  0.9420
 4455SOL    HW214966   1.291   2.458   5.953 -1.2622  0.2135 -1.4930
 4456SOL     OW14967   3.815   3.074   6.297  0.4991 -0.0404  0.0141
 4456SOL    HW114968   3.900   3.023   6.283  1.4078  0.8895  1.7653
 4456SOL    HW214969   3.742   3.011   6.322  1.5997 -0.5623  2.1554
 4457SOL     OW14970   0.823   1.333   5.011  0.2188 -0.6253  0.1605
 4457SOL    HW114971   0.738   1.361   4.966  0.0589  2.3493  1.9938
 4457SOL    HW214972   0.803   1.304   5.104  1.1725  0.4130  0.7196
 4458SOL     OW14973   2.212   0.010   0.807 -0.3161  0.4820  0.1627
 4458SOL    HW114974   2.245   0.061   0.886 -0.7805  1.2577 -0.1330
 4458SOL    HW214975   2.183  -0.082   0.836  1.9846 -0.2144  0.4347
 4459SOL     OW14976   2.657   4.909   2.371  0.5212  0.9348  0.2318
 4459SOL    HW114977   2.623   4.987   2.423  1.4955  2.4350 -1.2901
 4459SOL    HW214978   2.580   4.860   2.330 -0.0733  1.3314  0.8511
 4460SOL     OW14979   3.586   3.998   0.449 -0.0629 -0.3055 -0.4049
 4460SOL    HW114980   3.548   4.090   0.444  0.5858 -0.0967 -1.9704
 4460SOL    HW214981   3.545   3.949   0.526 -0.7922  1.1100  0.1336
 4461SOL     OW14982   1.715   4.481   3.434 -0.2325  0.6757 -0.6891
 4461SOL    HW114983   1.658   4.424   3.375 -0.7003  0.9055 -0.4624
 4461SOL    HW214984   1.718   4.574   3.398 -0.2100  0.7251 -0.5604
 4462SOL     OW14985   2.899   2.859   0.201  0.7500  0.1858  0.1033
 4462SOL    HW114986   2.867   2.781   0.255  2.3629 -1.3060 -0.9885
 4462SOL    HW214987   2.861   2.943   0.239 -0.3621 -1.0263  1.8510
 4463SOL     OW14988   2.949   3.052   5.842  0.3706 -0.0852  0.4324
 4463SOL    HW114989   2.987   3.024   5.930 -0.7108  0.8524  1.2381
 4463SOL    HW214990   2.854   3.079   5.854  0.4888  1.0170 -0.8331
 4464SOL     OW14991   2.150   1.047   4.323 -0.2817  0.2193  0.0823
 4464SOL    HW114992   2.086   1.059   4.399 -0.3722 -2.7450  0.5884
 4464SOL    HW214993   2.220   0.980   4.349  0.6113  0.3136 -1.9155
 4465SOL     OW14994   0.673   4.407   1.441 -0.3242  0.0322 -0.7499
 4465SOL    HW114995   0.638   4.318   1.471  1.5999  0.2187  2.4685
 4465SOL    HW214996   0.686   4.405   1.341 -0.7418 -3.1185 -0.8538
 4466SOL     OW14997   6.949   6.026   5.447 -0.0706  0.2149 -0.1722
 4466SOL    HW114998   7.026   5.966   5.422 -0.5256 -0.1703 -0.6889
 4466SOL    HW214999   6.871   6.006   5.387 -1.8377 -1.9859  2.5814
 4467SOL     OW15000   1.152   4.497   6.877  0.1187  0.5606 -0.2249
 4467SOL    HW115001   1.228   4.466   6.935 -0.5284 -1.5781 -0.4267
 4467SOL    HW215002   1.157   4.596   6.865  0.1601  1.1904  3.6911
 4468SOL     OW15003   1.365   3.691   5.472  0.2746  0.2748  0.7861
 4468SOL    HW115004   1.400   3.763   5.412  0.0240  0.0188  0.3239
 4468SOL    HW215005   1.283   3.723   5.519 -0.3209  0.0139 -0.0537
 4469SOL     OW15006   3.435   1.523   0.877  0.1395 -0.0819  0.3977
 4469SOL    HW115007   3.356   1.490   0.929 -0.0786 -1.7512 -0.9086
 4469SOL    HW215008   3.514   1.530   0.938 -0.5861 -0.0809  1.3578
 4470SOL     OW15009   0.967   1.174   0.619 -0.0195  0.0119 -1.6354
 4470SOL    HW115010   0.920   1.258   0.592  0.4381  0.8941  0.1891
 4470SOL    HW215011   1.066   1.190   0.621 -0.0475  0.3554  1.4631
 4471SOL     OW15012   4.047   3.984   3.359  0.1302  0.0037 -0.5621
 4471SOL    HW115013   3.981   3.919   3.322 -0.1874  0.7423 -1.3264
 4471SOL    HW215014   4.006   4.034   3.436  1.0790 -2.1394  1.4380
 4472SOL     OW15015   3.377   0.744   4.943  0.0238 -0.2984 -0.4371
 4472SOL    HW115016   3.287   0.717   4.977  0.0838  0.7721  0.6204
 4472SOL    HW215017   3.366   0.807   4.866 -0.1150 -1.2412 -1.2026
 4473SOL     OW15018   0.677   1.705   4.783  0.5022  0.1620 -0.6992
 4473SOL    HW115019   0.676   1.798   4.746  0.7311  0.9501  1.1396
 4473SOL    HW215020   0.764   1.688   4.829  0.1878 -0.7161 -0.4014
 4474SOL     OW15021   3.983   4.860   4.548  0.1506 -0.3942 -0.5287
 4474SOL    HW115022   4.076   4.827   4.561 -0.0382 -1.0120 -0.7156
 4474SOL    HW215023   3.984   4.940   4.489  0.7988  1.0966  1.3840
 4475SOL     OW15024   4.040   0.552   4.821 -0.3303 -0.4053 -0.4439
 4475SOL    HW115025   4.055   0.462   4.781  1.2818 -0.5556  0.4086
 4475SOL    HW215026   3.964   0.598   4.774 -1.8680 -2.5789 -0.2425
 4476SOL     OW15027   1.786   1.671   0.354 -0.2607  0.3914 -0.2443
 4476SOL    HW115028   1.839   1.595   0.316 -0.3737  0.3861 -0.3911
 4476SOL    HW215029   1.737   1.639   0.436 -0.9115  0.0973 -0.7382
 4477SOL     OW15030   1.965   4.618   6.863 -0.3773  0.3682 -0.5918
 4477SOL    HW115031   1.993   4.543   6.922 -1.0553  1.0187  0.5834
 4477SOL    HW215032   2.042   4.646   6.805 -0.0968 -1.1638 -1.0106
 4478SOL     OW15033   3.117   0.816   1.867  0.8946 -0.1613  0.2847
 4478SOL    HW115034   3.073   0.851   1.784  0.6319 -0.6743  0.2029
 4478SOL    HW215035   3.051   0.762   1.919  1.5087 -1.2026  0.0077
 4479SOL     OW15036   6.036   1.568   6.338 -0.3336  0.2962 -0.4155
 4479SOL    HW115037   5.960   1.591   6.400 -0.6903  1.4760 -1.2486
 4479SOL    HW215038   6.001   1.559   6.245  0.2720 -1.0118 -0.5355
 4480SOL     OW15039   0.504   0.492   6.296 -0.4680  0.2111 -0.3604
 4480SOL    HW115040   0.454   0.437   6.363 -0.4532  0.8100  0.1536
 4480SOL    HW215041   0.507   0.443   6.209 -0.4036 -0.6229  0.0971
 4481SOL     OW15042   3.867   6.592   6.226  0.0073 -0.7829  0.4610
 4481SOL    HW115043   3.836   6.651   6.300 -1.6553 -1.0457  0.0184
 4481SOL    HW215044   3.878   6.499   6.260  1.7862 -0.4354  0.9526
 4482SOL     OW15045   4.802   5.171   4.521 -0.4104  0.2523 -0.5498
 4482SOL    HW115046   4.706   5.148   4.505 -0.0317 -1.0420 -1.0535
 4482SOL    HW215047   4.840   5.213   4.438 -0.4307  0.3954 -0.4875
 4483SOL     OW15048   5.471   5.024   0.197 -0.2921  0.0137 -0.0526
 4483SOL    HW115049   5.502   5.115   0.226 -1.6826  0.0971  1.3800
 4483SOL    HW215050   5.382   5.006   0.239 -0.8690 -1.3013 -1.7491
 4484SOL     OW15051   1.210   6.952   2.504 -0.0796 -0.4064  0.8560
 4484SOL    HW115052   1.155   6.928   2.584 -0.9212  0.4949  0.5787
 4484SOL    HW215053   1.289   7.005   2.533  0.9077 -2.0826  1.3023
 4485SOL     OW15054   0.814   5.042   6.670  0.3037  0.4719 -0.0439
 4485SOL    HW115055   0.730   5.089   6.699  0.8552 -0.0851  2.7560
 4485SOL    HW215056   0.881   5.047   6.743  0.8410 -3.5669 -0.0600
 4486SOL     OW15057   1.883   2.692   5.277  0.1350 -0.1682  0.0387
 4486SOL    HW115058   1.921   2.709   5.368 -0.7864  1.9693  0.0979
 4486SOL    HW215059   1.890   2.776   5.223 -0.7075 -0.9582 -1.3481
 4487SOL     OW15060   3.080   1.339   6.216  0.3650 -0.1714 -0.2400
 4487SOL    HW115061   3.030   1.403   6.274 -1.4863 -0.9874 -0.8241
 4487SOL    HW215062   3.072   1.368   6.121  0.6820 -0.5273 -0.3768
 4488SOL     OW15063   3.816   1.039   4.037 -0.5875  0.2989  0.0794
 4488SOL    HW115064   3.875   1.076   4.109 -1.2618  1.2786  0.1641
 4488SOL    HW215065   3.870   1.018   3.956 -0.1855  1.7087 -0.0417
 4489SOL     OW15066   0.184   1.119   6.443  1.0888  0.5594 -0.5026
 4489SOL    HW115067   0.107   1.060   6.467  2.4917 -1.3452 -0.4681
 4489SOL    HW215068   0.152   1.191   6.381 -0.7556 -0.0231 -0.3000
 4490SOL     OW15069   0.685   6.572   2.917 -0.1919  0.0092  0.4289
 4490SOL    HW115070   0.599   6.527   2.939 -0.0226 -0.2555  0.5611
 4490SOL    HW215071   0.703   6.645   2.982 -1.0816  1.1113 -0.5183
 4491SOL     OW15072   6.933   2.547   5.496  0.4151 -0.2846  0.0153
 4491SOL    HW115073   6.922   2.561   5.398 -2.3372 -1.0488  0.1413
 4491SOL    HW215074   6.959   2.633   5.540 -1.7336  0.9647 -0.9934
 4492SOL     OW15075   3.800   1.198   2.939  0.0672  0.2574 -0.0276
 4492SOL    HW115076   3.863   1.273   2.920  0.2100 -0.1223 -1.1951
 4492SOL    HW215077   3.852   1.112   2.944 -0.4720 -0.3766 -3.1013
 4493SOL     OW15078   2.880   0.830   4.401 -0.1137  0.3012  0.3954
 4493SOL    HW115079   2.877   0.912   4.345 -1.4782 -0.1189 -0.1684
 4493SOL    HW215080   2.797   0.824   4.456  0.3952 -0.2304  1.1278
 4494SOL     OW15081   5.081   0.450   2.599 -0.2414 -0.3563  0.3431
 4494SOL    HW115082   5.043   0.417   2.513  0.0517  1.4424 -0.5206
 4494SOL    HW215083   5.033   0.533   2.627  0.2818 -0.4046  1.4432
 4495SOL     OW15084   6.960   1.400   0.743 -0.1415  0.2786  0.1367
 4495SOL    HW115085   7.054   1.368   0.742  0.2585  1.3588 -1.4247
 4495SOL    HW215086   6.904   1.338   0.688 -0.2591 -0.0924  0.6645
 4496SOL     OW15087   4.872   1.370   1.353  0.4177  0.2616  0.1238
 4496SOL    HW115088   4.826   1.421   1.425  2.3311  1.9025  0.2808
 4496SOL    HW215089   4.895   1.432   1.278 -0.8474 -1.2652 -1.6098
 4497SOL     OW15090   3.676   0.902   2.737  0.0812 -0.0744 -0.2278
 4497SOL    HW115091   3.593   0.875   2.687  0.9827 -0.1064 -1.7600
 4497SOL    HW215092   3.746   0.833   2.726  1.0870  1.0184 -0.8953
 4498SOL     OW15093   4.803   6.445   2.205  0.1936  0.1582  0.1274
 4498SOL    HW115094   4.744   6.390   2.265  1.3626  0.3096  1.4796
 4498SOL    HW215095   4.855   6.384   2.145 -2.7962  0.0713 -2.6742
 4499SOL     OW15096   0.480   5.183   5.367 -0.6261  0.5316 -0.3906
 4499SOL    HW115097   0.465   5.233   5.452  1.6554  1.7866 -0.6666
 4499SOL    HW215098   0.464   5.243   5.289  2.6662  1.1244 -0.7211
 4500SOL     OW15099   1.668   5.735   6.754 -0.3611  0.2332 -0.3931
 4500SOL    HW115100   1.603   5.730   6.830  0.2383 -2.1472  0.0289
 4500SOL    HW215101   1.761   5.722   6.788 -0.0539 -0.5538 -1.4752
 4501SOL     OW15102   3.976   6.197   2.084  0.4675 -0.0461 -0.0414
 4501SOL    HW115103   4.012   6.287   2.059  3.1366 -0.7830  0.7601
 4501SOL    HW215104   3.985   6.135   2.006 -1.6882  0.3790 -0.7068
 4502SOL     OW15105   4.083   4.583   5.680  0.4760 -0.1898 -0.2169
 4502SOL    HW115106   4.061   4.653   5.612 -0.7098  0.3529  0.6846
 4502SOL    HW215107   4.141   4.513   5.638 -0.1571  0.1602 -1.7634
 4503SOL     OW15108   4.668   1.175   2.661  0.4275  0.4870 -0.4872
 4503SOL    HW115109   4.737   1.242   2.689  0.8603  0.5530 -1.6469
 4503SOL    HW215110   4.703   1.123   2.583  0.0372 -0.9899  0.2841
 4504SOL     OW15111   6.986   4.048   2.467 -0.8935  0.0966 -0.0114
 4504SOL    HW115112   6.951   3.954   2.475 -0.3300 -0.0236  1.2525
 4504SOL    HW215113   7.057   4.051   2.397  0.6015 -0.9210  1.3874
 4505SOL     OW15114   4.443   5.641   0.512  0.2431 -0.1552  0.3946
 4505SOL    HW115115   4.507   5.608   0.442  0.4630  1.2014 -0.0698
 4505SOL    HW215116   4.370   5.574   0.523  1.3350 -1.3896  0.4056
 4506SOL     OW15117   0.904   2.367   5.222 -0.0540 -0.2287 -0.5453
 4506SOL    HW115118   0.875   2.311   5.299  1.9789 -1.0175 -0.2912
 4506SOL    HW215119   0.889   2.464   5.243 -2.4876 -0.5437 -0.5131
 4507SOL     OW15120   6.993   3.724   1.061  0.2250 -0.5113  0.0915
 4507SOL    HW115121   6.932   3.674   1.122  1.3918 -0.8339  1.0206
 4507SOL    HW215122   6.983   3.689   0.968 -0.6789 -0.8532  0.3093
 4508SOL     OW15123   0.909   2.933   1.606 -0.6018  0.4403 -0.1138
 4508SOL    HW115124   0.921   2.872   1.685  1.7710  0.5899 -0.3116
 4508SOL    HW215125   0.840   2.893   1.545  0.5041 -1.8451  0.0073
 4509SOL     OW15126   6.918   1.239   3.038  0.1245 -0.6543 -0.5442
 4509SOL    HW115127   6.828   1.231   3.081  0.5289 -1.7560  0.1310
 4509SOL    HW215128   6.920   1.320   2.978 -0.2286  1.4092  2.0641
 4510SOL     OW15129   5.963   2.448   7.001 -0.5307 -0.3141  0.7831
 4510SOL    HW115130   5.876   2.495   7.017 -1.2222 -1.2695 -0.0758
 4510SOL    HW215131   6.030   2.513   6.966 -0.7935  0.4979  1.7275
 4511SOL     OW15132   5.427   4.534   0.029 -0.2390 -0.0958 -0.0200
 4511SOL    HW115133   5.370   4.562  -0.049 -0.5888  0.6149  0.4873
 4511SOL    HW215134   5.458   4.615   0.078 -0.8329 -0.5671  1.1681
 4512SOL     OW15135   5.730   4.903   6.430  0.3178  0.4978 -0.2672
 4512SOL    HW115136   5.775   4.821   6.464 -0.9244 -0.7130 -1.4091
 4512SOL    HW215137   5.712   4.966   6.506  0.5729 -0.6422  0.7589
 4513SOL     OW15138   5.326   3.076   2.705  0.0430  0.5158  0.5057
 4513SOL    HW115139   5.345   2.979   2.687 -0.3263  0.5289  0.0097
 4513SOL    HW215140   5.398   3.132   2.665  1.2500  0.3780  2.3753
 4514SOL     OW15141   5.729   3.557   5.526  0.3879 -0.4802 -0.0263
 4514SOL    HW115142   5.765   3.553   5.433 -0.4776  1.4921 -0.4806
 4514SOL    HW215143   5.629   3.550   5.524  0.3090  0.2596  0.6975
 4515SOL     OW15144   2.055   1.995   5.348  0.5801  0.5419  0.5917
 4515SOL    HW115145   2.030   2.090   5.363  1.0204  0.6789  0.4766
 4515SOL    HW215146   2.141   1.975   5.395 -0.8761 -0.5456  2.9300
 4516SOL     OW15147   6.901   4.051   2.936  0.3927 -0.0956  0.0633
 4516SOL    HW115148   6.829   4.037   2.868  1.2068 -1.9586 -0.4757
 4516SOL    HW215149   6.860   4.078   3.023 -1.0156 -1.4056 -0.1501
 4517SOL     OW15150   3.389   5.114   5.779 -0.4611 -0.2125  0.1204
 4517SOL    HW115151   3.338   5.072   5.853 -0.1543 -2.1899 -0.7370
 4517SOL    HW215152   3.487   5.114   5.802 -0.1990 -2.0966 -0.7905
 4518SOL     OW15153   2.194   5.497   6.253  0.3861  0.0603  0.1013
 4518SOL    HW115154   2.290   5.526   6.256  0.5251 -0.3469 -0.4461
 4518SOL    HW215155   2.170   5.454   6.340  1.0252 -0.8504 -0.1580
 4519SOL     OW15156   5.207   3.201   0.761 -0.0900 -0.1073  0.3919
 4519SOL    HW115157   5.298   3.162   0.744  0.3885  1.1934 -0.1235
 4519SOL    HW215158   5.151   3.133   0.809  0.9549 -1.1440  0.2089
 4520SOL     OW15159   4.391   6.310   1.651 -0.1598  0.1047  0.3272
 4520SOL    HW115160   4.436   6.346   1.570 -2.4825  0.2436 -0.9930
 4520SOL    HW215161   4.321   6.243   1.624 -1.1735  0.3298  2.1703
 4521SOL     OW15162   2.602   1.067   6.285 -0.4459  0.0145  0.2621
 4521SOL    HW115163   2.589   1.103   6.193  0.5163 -1.4281 -0.4776
 4521SOL    HW215164   2.528   1.002   6.306  0.0364 -0.6367 -0.0200
 4522SOL     OW15165   4.311   0.919   0.886  0.4045  0.4995  0.1514
 4522SOL    HW115166   4.359   0.886   0.967 -1.7272 -0.2524  1.1715
 4522SOL    HW215167   4.364   0.896   0.804  0.6549 -2.5133  1.0366
 4523SOL     OW15168   2.663   2.050   3.645 -0.0282 -0.4546  0.3820
 4523SOL    HW115169   2.593   2.100   3.595 -0.0988 -0.5911  0.3436
 4523SOL    HW215170   2.653   2.066   3.743 -0.3233 -0.7439  0.3999
 4524SOL     OW15171   2.456   3.337   5.565 -0.0233 -0.2048 -0.3550
 4524SOL    HW115172   2.521   3.329   5.489  0.8282  1.4815  0.1486
 4524SOL    HW215173   2.458   3.430   5.601 -1.4962 -0.5779  0.7963
 4525SOL     OW15174   4.138   1.659   1.072  0.0427  0.1479 -0.1351
 4525SOL    HW115175   4.126   1.592   1.146 -0.9750 -0.3598 -0.7314
 4525SOL    HW215176   4.092   1.625   0.990  0.8273  0.8871 -0.8930
 4526SOL     OW15177   1.733   1.036   5.388  0.5730  0.3415 -0.0561
 4526SOL    HW115178   1.821   1.078   5.408  0.5313  0.4481 -0.0979
 4526SOL    HW215179   1.670   1.052   5.464  0.5877  0.2681 -0.0277
 4527SOL     OW15180   0.370   6.312   6.451 -0.2350 -0.0607  0.2504
 4527SOL    HW115181   0.374   6.387   6.385 -0.4925  0.3019  0.6459
 4527SOL    HW215182   0.275   6.291   6.473 -0.1320  0.8905  1.7173
 4528SOL     OW15183   1.104   0.583   3.739 -1.0601 -0.4232 -0.7335
 4528SOL    HW115184   1.030   0.623   3.793  0.6111 -2.1544  3.1767
 4528SOL    HW215185   1.117   0.488   3.766  3.5253  0.1799  0.0081
 4529SOL     OW15186   1.007   3.318   2.570 -0.5321  0.3791 -0.2306
 4529SOL    HW115187   0.992   3.245   2.504  0.6711 -1.3387  1.3038
 4529SOL    HW215188   0.927   3.327   2.629 -1.1126  1.0736 -1.1000
 4530SOL     OW15189   5.768   0.784   4.423 -0.0699  0.0345 -0.7144
 4530SOL    HW115190   5.825   0.784   4.341  0.7821 -1.2293 -0.1569
 4530SOL    HW215191   5.712   0.867   4.424  1.0129  0.8272 -1.7837
 4531SOL     OW15192   4.613   0.590   6.138  0.2411 -0.1615 -0.0160
 4531SOL    HW115193   4.566   0.507   6.167 -0.8660 -0.1748 -1.6824
 4531SOL    HW215194   4.676   0.621   6.210 -1.4963 -0.7724  1.8357
 4532SOL     OW15195   1.942   3.840   3.722 -0.4422  0.6628  0.0881
 4532SOL    HW115196   1.924   3.845   3.624  1.6479  2.3746 -0.3024
 4532SOL    HW215197   1.943   3.933   3.760  0.0776  0.1263  1.4521
 4533SOL     OW15198   3.060   1.421   4.642 -0.1322  0.2542 -0.3211
 4533SOL    HW115199   3.040   1.372   4.557  0.8511 -1.2198  0.2663
 4533SOL    HW215200   3.139   1.480   4.629  2.1385 -2.4351  0.3663
 4534SOL     OW15201   1.560   2.214   2.870  0.1193  0.2257 -0.0315
 4534SOL    HW115202   1.547   2.311   2.891  1.2798  0.5437 -0.6875
 4534SOL    HW215203   1.604   2.205   2.781 -1.5783 -0.9783 -0.8198
 4535SOL     OW15204   0.464   4.891   1.357 -0.4561  0.2590  0.0585
 4535SOL    HW115205   0.482   4.811   1.414 -0.7285  0.8861  1.0685
 4535SOL    HW215206   0.472   4.973   1.414 -0.9357  0.8947 -0.7827
 4536SOL     OW15207   6.121   4.050   4.412  0.1792  0.4927  0.2957
 4536SOL    HW115208   6.194   3.985   4.388  2.5030  3.2106 -0.5040
 4536SOL    HW215209   6.044   4.000   4.451  1.7088 -2.7369 -0.4738
 4537SOL     OW15210   0.893   2.618   6.745  0.2816  0.1882  0.1062
 4537SOL    HW115211   0.856   2.593   6.834  0.8810  2.1912  0.9931
 4537SOL    HW215212   0.829   2.679   6.698 -1.0983 -2.6010 -1.9373
 4538SOL     OW15213   2.365   1.538   1.216  0.0244  0.1071 -0.4213
 4538SOL    HW115214   2.452   1.488   1.214  1.9925  3.2695 -1.8395
 4538SOL    HW215215   2.324   1.538   1.125 -0.5159  0.1632 -0.1792
 4539SOL     OW15216   2.056   5.886   2.031  0.2681  0.5037  0.3584
 4539SOL    HW115217   2.128   5.902   2.097 -0.0432  0.2242  0.7712
 4539SOL    HW215218   2.078   5.806   1.974  0.1816  0.2835  0.6328
 4540SOL     OW15219   6.472   6.928   1.570 -0.6610 -0.5366 -0.1683
 4540SOL    HW115220   6.427   6.964   1.489  1.5769  0.3105 -1.1163
 4540SOL    HW215221   6.528   7.000   1.613  1.1033 -1.9084 -0.0451
 4541SOL     OW15222   5.611   1.519   4.950 -0.2535 -0.0923 -0.4413
 4541SOL    HW115223   5.664   1.602   4.967 -0.0558 -0.6011  1.6625
 4541SOL    HW215224   5.601   1.467   5.035  0.4858 -2.7520 -1.8576
 4542SOL     OW15225   3.132   5.019   5.031  0.3136  0.1491 -0.1636
 4542SOL    HW115226   3.180   5.042   5.116  0.6469  2.0940 -0.8158
 4542SOL    HW215227   3.136   5.098   4.969  0.3950 -1.3419 -2.1388
 4543SOL     OW15228   1.880   2.110   4.847  0.1170  0.4589 -0.8183
 4543SOL    HW115229   1.820   2.031   4.845  0.9667 -0.1921 -1.3910
 4543SOL    HW215230   1.959   2.091   4.907 -0.3142  1.3712  0.0829
 4544SOL     OW15231   5.642   4.759   5.848  0.1457  0.0874  0.4072
 4544SOL    HW115232   5.558   4.715   5.818 -0.0426  1.5570 -1.3948
 4544SOL    HW215233   5.721   4.710   5.810 -0.0598  1.1542 -1.5342
 4545SOL     OW15234   4.419   5.409   2.443  1.0319 -0.0348  0.0636
 4545SOL    HW115235   4.338   5.453   2.405  0.7688  0.4470  1.1668
 4545SOL    HW215236   4.478   5.477   2.485  0.7749 -0.6705  1.5094
 4546SOL     OW15237   6.777   2.097   6.830 -0.4851 -0.5539  0.5601
 4546SOL    HW115238   6.844   2.138   6.767 -2.3916  1.0099 -0.5647
 4546SOL    HW215239   6.782   1.997   6.823  1.0058 -0.4633 -0.2408
 4547SOL     OW15240   6.027   6.250   4.433  0.3793 -0.0421  0.3137
 4547SOL    HW115241   6.028   6.159   4.392 -2.1611 -0.4183  0.9449
 4547SOL    HW215242   6.037   6.242   4.532 -0.7521  0.2841  0.4592
 4548SOL     OW15243   5.176   3.470   5.287  0.5057 -0.1766 -0.1331
 4548SOL    HW115244   5.246   3.407   5.254  0.9434  0.2735 -0.0797
 4548SOL    HW215245   5.153   3.448   5.382 -1.3646 -2.0088 -0.9395
 4549SOL     OW15246   5.060   2.913   1.552  0.3780 -0.1018  0.2459
 4549SOL    HW115247   4.980   2.899   1.494 -0.6271 -1.8416  1.9337
 4549SOL    HW215248   5.075   3.012   1.564 -2.0491  0.2948  0.5634
 4550SOL     OW15249   0.473   2.834   5.247  0.1877  0.2046  0.1585
 4550SOL    HW115250   0.512   2.883   5.326 -0.9513 -0.5909  1.2576
 4550SOL    HW215251   0.439   2.900   5.181  3.3026  0.9646 -0.8926
 4551SOL     OW15252   0.673   3.756   2.978 -0.2017  0.5994 -0.1226
 4551SOL    HW115253   0.748   3.822   2.977  0.1945  0.2084  1.5429
 4551SOL    HW215254   0.646   3.737   3.072 -1.8276  0.0789 -0.6680
 4552SOL     OW15255   5.831   5.499   4.056 -0.2570  0.2778 -0.3556
 4552SOL    HW115256   5.862   5.407   4.036  0.1994  0.3156  0.1570
 4552SOL    HW215257   5.731   5.503   4.049 -0.3604 -0.4772  0.4856
 4553SOL     OW15258   1.659   2.381   1.058 -0.0524  0.5012  0.2081
 4553SOL    HW115259   1.657   2.381   0.958  1.5921 -0.2706  0.1414
 4553SOL    HW215260   1.566   2.368   1.093 -0.5075 -0.4477 -1.2453
 4554SOL     OW15261   2.001   5.872   6.187  0.7002  0.1035 -0.4810
 4554SOL    HW115262   1.937   5.913   6.251 -0.5002 -2.4822  0.0841
 4554SOL    HW215263   2.092   5.913   6.199 -0.0953  1.4921  1.0114
 4555SOL     OW15264   3.306   1.677   4.125 -0.4346  0.0888  0.2884
 4555SOL    HW115265   3.368   1.604   4.095 -0.8264 -0.3702  0.5980
 4555SOL    HW215266   3.246   1.643   4.196  0.0112  0.9844  1.1134
 4556SOL     OW15267   6.930   1.594   1.678  0.2946  0.5732 -0.0958
 4556SOL    HW115268   6.995   1.620   1.607  0.1430  1.4993  0.0816
 4556SOL    HW215269   6.959   1.632   1.766  0.2530 -0.1925  0.2581
 4557SOL     OW15270   2.182   2.413   6.480 -0.2346 -0.5017 -0.2850
 4557SOL    HW115271   2.173   2.314   6.486  0.6125 -1.0234 -4.5246
 4557SOL    HW215272   2.094   2.453   6.452  0.0422 -0.4241 -1.0789
 4558SOL     OW15273   2.295   2.217   0.929 -0.0176  0.0031  0.0294
 4558SOL    HW115274   2.286   2.313   0.953 -0.1449 -0.2164  0.8845
 4558SOL    HW215275   2.260   2.202   0.837  1.2906  1.0231 -0.6627
 4559SOL     OW15276   3.677   0.487   3.819 -0.1637  0.5711  0.3101
 4559SOL    HW115277   3.684   0.501   3.917  2.5788 -0.3915  0.3391
 4559SOL    HW215278   3.697   0.391   3.797  1.4893  1.2081 -1.2919
 4560SOL     OW15279   6.396   0.044   3.303 -0.2050  0.0178  0.4706
 4560SOL    HW115280   6.357  -0.044   3.330 -1.4501  0.6056  0.6890
 4560SOL    HW215281   6.393   0.107   3.380 -1.0542  0.8040 -0.1755
 4561SOL     OW15282   1.438   2.905   6.002  0.6573 -0.1548  0.2278
 4561SOL    HW115283   1.450   2.858   6.089  0.0188 -0.7844 -0.0135
 4561SOL    HW215284   1.477   2.849   5.929  0.7881  0.1595  0.0571
 4562SOL     OW15285   5.317   6.484   3.759  0.4661 -0.1663  0.9674
 4562SOL    HW115286   5.242   6.453   3.818  0.5426  0.5531  1.4572
 4562SOL    HW215287   5.402   6.439   3.788  0.2180 -1.0739  0.3355
 4563SOL     OW15288   5.016   0.392   0.703 -0.2345 -0.1409 -0.0107
 4563SOL    HW115289   5.016   0.292   0.709 -0.4261 -0.0878  1.1429
 4563SOL    HW215290   4.957   0.420   0.627 -3.0212 -0.8483  1.7116
 4564SOL     OW15291   4.556   0.520   3.118  0.0383 -0.0016 -0.6416
 4564SOL    HW115292   4.605   0.433   3.116 -1.8580 -1.1904  0.9521
 4564SOL    HW215293   4.621   0.594   3.136  1.5137 -1.2363 -0.6138
 4565SOL     OW15294   1.431   0.035   2.587 -0.5439  0.0716  0.3183
 4565SOL    HW115295   1.475   0.098   2.522  1.6134 -0.3654  1.2435
 4565SOL    HW215296   1.474   0.045   2.677 -0.3744 -2.4216  0.5915
 4566SOL     OW15297   0.113   5.947   6.171  0.1098  0.0414  0.2022
 4566SOL    HW115298   0.018   5.918   6.157  0.6524 -2.2733  0.9269
 4566SOL    HW215299   0.173   5.868   6.165  1.8186  1.1716  1.5678
 4567SOL     OW15300   6.991   4.895   0.244  0.2073  0.9170  0.3715
 4567SOL    HW115301   6.948   4.939   0.323 -2.0569  1.5868 -1.1486
 4567SOL    HW215302   7.024   4.965   0.181  0.3989  0.4085 -0.1014
 4568SOL     OW15303   6.307   6.052   1.807  0.6961  0.0071 -0.9787
 4568SOL    HW115304   6.367   5.971   1.807  0.1228 -0.4234 -0.6561
 4568SOL    HW215305   6.282   6.075   1.901 -0.9474 -0.8121 -1.1864
 4569SOL     OW15306   4.097   1.520   5.245  1.2994  0.5871 -0.7986
 4569SOL    HW115307   4.063   1.431   5.214 -0.3462  0.9840 -0.2243
 4569SOL    HW215308   4.033   1.591   5.217  1.9509  1.4465 -0.1373
 4570SOL     OW15309   2.811   6.162   4.209  0.0670 -0.1336 -0.2579
 4570SOL    HW115310   2.713   6.159   4.193  0.1619 -0.2721 -0.8448
 4570SOL    HW215311   2.850   6.071   4.194  0.5507  0.3085 -1.8769
 4571SOL     OW15312   2.291   5.109   3.716  0.1236 -0.1284 -1.0193
 4571SOL    HW115313   2.208   5.164   3.730 -0.4838 -1.3280  0.2050
 4571SOL    HW215314   2.369   5.156   3.758 -0.5969 -0.7106  1.0749
 4572SOL     OW15315   5.215   6.060   0.124 -0.1456  0.0572 -0.1211
 4572SOL    HW115316   5.234   6.157   0.137 -0.7167  0.0435  0.9511
 4572SOL    HW215317   5.286   6.006   0.169 -0.8578  0.0003  0.9772
 4573SOL     OW15318   4.602   0.135   3.225  0.0049 -0.0468  0.8976
 4573SOL    HW115319   4.638   0.199   3.156  0.5040 -0.3104  0.9076
 4573SOL    HW215320   4.508   0.112   3.203  0.1311 -0.0536  0.3486
 4574SOL     OW15321   3.852   2.804   0.719 -0.1812 -0.4597  0.4063
 4574SOL    HW115322   3.812   2.896   0.727 -1.2687 -0.9604  0.9007
 4574SOL    HW215323   3.866   2.767   0.811  1.7545 -0.1830  0.2667
 4575SOL     OW15324   1.441   1.068   6.916  0.1575 -0.0326  0.3757
 4575SOL    HW115325   1.359   1.113   6.950 -0.0424 -0.0818 -0.0353
 4575SOL    HW215326   1.484   1.017   6.991  0.9416  1.6211  1.0970
 4576SOL     OW15327   5.522   0.214   6.444  0.2513 -0.0931 -0.0544
 4576SOL    HW115328   5.508   0.119   6.416 -0.9368 -0.3762  1.3723
 4576SOL    HW215329   5.558   0.217   6.537 -0.4817  0.8560  0.2146
 4577SOL     OW15330   1.718   1.320   1.423  0.3699 -0.7231 -0.0355
 4577SOL    HW115331   1.777   1.291   1.499  0.8318 -1.4681 -0.6617
 4577SOL    HW215332   1.773   1.369   1.355  0.4282 -2.0101 -0.9476
 4578SOL     OW15333   1.954   5.334   3.488  0.2456 -0.4195  0.1736
 4578SOL    HW115334   1.866   5.375   3.463  0.7850  1.2388  0.8433
 4578SOL    HW215335   1.955   5.238   3.460 -1.9448 -0.6156  0.5921
 4579SOL     OW15336   0.310   2.180   0.883 -0.1598  0.0675  0.3978
 4579SOL    HW115337   0.249   2.254   0.856 -1.5815 -0.2322  2.5955
 4579SOL    HW215338   0.281   2.095   0.840 -0.5901  0.1507  0.5248
 4580SOL     OW15339   3.732   1.460   5.187  0.6957  0.3626 -0.4299
 4580SOL    HW115340   3.804   1.522   5.220  0.1408  0.5866  0.3709
 4580SOL    HW215341   3.766   1.411   5.107  1.8136  0.3344  0.0387
 4581SOL     OW15342   1.327   6.667   0.495 -0.1877  0.1810  0.2857
 4581SOL    HW115343   1.306   6.764   0.510  0.7186  0.4356 -0.0051
 4581SOL    HW215344   1.420   6.648   0.526 -1.0196 -1.0576  2.1685
 4582SOL     OW15345   5.869   0.447   5.237  0.4715 -0.5253  0.0420
 4582SOL    HW115346   5.949   0.502   5.212  0.2303 -0.0864  0.2307
 4582SOL    HW215347   5.801   0.453   5.165  0.1526  0.0040  0.3792
 4583SOL     OW15348   5.987   6.640   5.890  0.3473  0.1935 -0.3123
 4583SOL    HW115349   6.050   6.706   5.849 -0.5711  0.5178 -1.2320
 4583SOL    HW215350   6.018   6.547   5.868 -0.2813  0.3572 -2.0256
 4584SOL     OW15351   6.089   3.692   5.373  0.0616  0.2524  0.6838
 4584SOL    HW115352   6.005   3.744   5.360 -1.0328 -1.5595  0.2480
 4584SOL    HW215353   6.167   3.747   5.341 -1.0153  1.6420  0.3313
 4585SOL     OW15354   3.605   0.319   6.848 -0.5887  0.4280 -0.2907
 4585SOL    HW115355   3.655   0.283   6.927  0.7051 -0.0921 -1.3050
 4585SOL    HW215356   3.556   0.402   6.874  0.1284  0.4825  0.9693
 4586SOL     OW15357   3.307   5.991   0.638 -0.1719 -0.0723 -0.3742
 4586SOL    HW115358   3.259   5.918   0.590 -1.3035  1.2383 -1.3418
 4586SOL    HW215359   3.396   6.007   0.596  0.8634 -2.0214  0.9548
 4587SOL     OW15360   1.330   1.255   5.539  0.1688 -0.5634  0.8240
 4587SOL    HW115361   1.269   1.303   5.602 -0.4668  0.2363 -0.3516
 4587SOL    HW215362   1.403   1.316   5.508  0.4727 -0.9396  0.7793
 4588SOL     OW15363   3.233   3.975   0.393  0.3658 -0.2446  0.4821
 4588SOL    HW115364   3.274   3.884   0.398  2.2131  0.5861  1.3094
 4588SOL    HW215365   3.304   4.042   0.375 -0.9827  1.0544 -0.2155
 4589SOL     OW15366   2.093   3.201   0.792 -0.2163  0.1070 -0.7652
 4589SOL    HW115367   2.065   3.128   0.730  1.2754 -0.5159 -0.7633
 4589SOL    HW215368   2.016   3.227   0.850 -0.8707 -1.2866 -0.9548
 4590SOL     OW15369   1.014   1.158   2.941  0.3328  0.0077 -0.4032
 4590SOL    HW115370   1.063   1.104   2.872 -0.8328 -0.5934 -0.7752
 4590SOL    HW215371   1.080   1.193   3.008  0.9551 -4.6412  1.8443
 4591SOL     OW15372   3.321   6.030   5.238 -0.6648 -0.2600  0.4848
 4591SOL    HW115373   3.365   6.044   5.327  0.7265 -1.1708 -0.0238
 4591SOL    HW215374   3.347   6.103   5.176  1.4742 -1.5842 -0.2775
 4592SOL     OW15375   3.647   6.691   3.025  0.7736  0.2460 -0.5854
 4592SOL    HW115376   3.692   6.746   2.955 -0.5677  0.9675 -0.9161
 4592SOL    HW215377   3.607   6.610   2.983  1.2236 -0.0832 -0.3921
 4593SOL     OW15378   1.085   0.272   6.346  0.0918  0.0075  0.2252
 4593SOL    HW115379   0.998   0.318   6.329 -0.0584 -0.6286 -0.8278
 4593SOL    HW215380   1.083   0.180   6.305  1.2390 -0.0325  0.2231
 4594SOL     OW15381   0.694   5.903   1.059  0.4227 -0.1188  0.0421
 4594SOL    HW115382   0.744   5.985   1.087  0.0026 -0.8116  3.1443
 4594SOL    HW215383   0.619   5.928   0.998  1.6225  1.4765 -0.8532
 4595SOL     OW15384   0.123   5.784   6.585 -0.1775 -0.8093 -0.7760
 4595SOL    HW115385   0.158   5.859   6.642  1.6854 -1.3875 -1.1050
 4595SOL    HW215386   0.103   5.705   6.643  1.4411 -1.2972 -0.8230
 4596SOL     OW15387   2.639   0.635   3.880  0.2260  0.1258 -0.7984
 4596SOL    HW115388   2.635   0.659   3.977  2.1160  2.4398 -1.1831
 4596SOL    HW215389   2.552   0.658   3.836  0.3155  1.8867 -0.1514
 4597SOL     OW15390   4.052   3.444   5.965 -0.3094 -0.1194  0.3149
 4597SOL    HW115391   4.145   3.412   5.952 -1.0177 -1.9227 -0.7460
 4597SOL    HW215392   4.009   3.461   5.876 -1.2074  0.0038  0.7538
 4598SOL     OW15393   0.403   3.244   5.469  0.1001 -0.3511 -0.1511
 4598SOL    HW115394   0.453   3.170   5.514  1.5264  0.5328 -0.1901
 4598SOL    HW215395   0.431   3.332   5.509  1.1475  0.4362 -2.4196
 4599SOL     OW15396   1.249   3.702   1.763 -0.0510  0.2666 -0.2716
 4599SOL    HW115397   1.301   3.625   1.800  0.4604  0.0571 -1.3527
 4599SOL    HW215398   1.298   3.787   1.781  0.2160  0.1623 -0.4925
 4600SOL     OW15399   3.946   2.583   4.775  0.1488 -0.2417 -0.2445
 4600SOL    HW115400   3.917   2.580   4.679  1.2516  1.2770 -0.6891
 4600SOL    HW215401   4.046   2.587   4.778  0.1097  0.0330  0.9552
 4601SOL     OW15402   1.680   5.766   3.871 -0.8447 -0.2804 -0.0548
 4601SOL    HW115403   1.637   5.811   3.793 -0.3857 -1.3038 -0.9363
 4601SOL    HW215404   1.733   5.832   3.923  0.8157  0.0200 -2.0077
 4602SOL     OW15405   6.703   2.708   3.341 -0.5573 -0.5363 -0.1236
 4602SOL    HW115406   6.776   2.769   3.311 -1.6133  0.1247 -1.4369
 4602SOL    HW215407   6.744   2.626   3.383  0.9032  0.1668 -0.1009
 4603SOL     OW15408   6.347   2.823   1.353 -0.2991  0.3232  0.0381
 4603SOL    HW115409   6.282   2.896   1.335 -1.6292 -1.1017 -1.1720
 4603SOL    HW215410   6.419   2.824   1.284 -0.7683 -0.0018 -0.4588
 4604SOL     OW15411   3.027   1.585   2.454 -1.2869 -0.3147 -0.4024
 4604SOL    HW115412   2.933   1.569   2.482 -1.5735 -0.0152 -1.1776
 4604SOL    HW215413   3.085   1.593   2.535 -2.2147  1.2792  0.1510
 4605SOL     OW15414   4.721   3.421   5.206  0.0003 -0.3737 -0.3503
 4605SOL    HW115415   4.815   3.403   5.177  0.5765 -1.6948  2.0908
 4605SOL    HW215416   4.716   3.513   5.246  0.9045 -1.1799  1.7529
 4606SOL     OW15417   6.121   6.216   6.849 -0.5014 -0.0784 -0.2263
 4606SOL    HW115418   6.203   6.226   6.905 -0.8095  1.1024  0.0395
 4606SOL    HW215419   6.123   6.127   6.802  0.3645 -0.5419  0.6608
 4607SOL     OW15420   1.004   4.168   3.033  0.3640  0.5699  0.2325
 4607SOL    HW115421   0.914   4.206   3.011  0.9267  2.1556  0.5327
 4607SOL    HW215422   1.043   4.217   3.111 -0.4828 -3.1721  3.3301
 4608SOL     OW15423   5.952   3.186   2.354  0.2594  0.3391  0.5297
 4608SOL    HW115424   5.989   3.277   2.333 -1.2426  0.5100 -1.6566
 4608SOL    HW215425   5.871   3.196   2.412 -0.5102  0.5085 -0.5462
 4609SOL     OW15426   5.966   6.360   2.915 -1.5424 -0.0110  0.3638
 4609SOL    HW115427   6.038   6.297   2.943 -0.3168  1.3485  0.3829
 4609SOL    HW215428   5.950   6.352   2.816 -0.3128  0.7020  0.0933
 4610SOL     OW15429   3.160   0.771   2.855  0.5089 -0.1366 -0.4623
 4610SOL    HW115430   3.214   0.792   2.937 -1.3275 -0.3957  0.8711
 4610SOL    HW215431   3.180   0.838   2.784  3.1021 -0.6441 -0.3056
 4611SOL     OW15432   2.642   5.091   3.289 -0.1299  0.5105  0.5290
 4611SOL    HW115433   2.703   5.016   3.316  0.0627  0.1128 -0.9616
 4611SOL    HW215434   2.610   5.139   3.371  2.6214  1.0771  1.3852
 4612SOL     OW15435   0.607   3.368   6.928  0.1477  0.3390 -0.5139
 4612SOL    HW115436   0.575   3.443   6.870 -0.3558  1.7252  1.4586
 4612SOL    HW215437   0.705   3.380   6.946  0.3608 -0.2283 -1.2116
 4613SOL     OW15438   1.587   3.822   2.220  0.1057 -0.3931  0.4282
 4613SOL    HW115439   1.510   3.885   2.215 -0.0954 -0.4935  1.9223
 4613SOL    HW215440   1.563   3.736   2.174  0.4820  0.6576 -1.8653
 4614SOL     OW15441   6.496   1.968   2.796  0.4910  0.1716 -0.5903
 4614SOL    HW115442   6.433   1.947   2.721 -0.8182 -0.1887  0.5640
 4614SOL    HW215443   6.473   1.913   2.875  3.2345 -1.0736 -0.5479
 4615SOL     OW15444   2.705   5.892   0.346 -0.3591 -0.5443 -0.1099
 4615SOL    HW115445   2.770   5.926   0.278 -2.9475  2.1153 -1.4929
 4615SOL    HW215446   2.624   5.856   0.299 -1.2265 -0.8342  1.5374
 4616SOL     OW15447   5.163   6.820   3.870  0.5318 -0.6221 -0.0366
 4616SOL    HW115448   5.082   6.820   3.929  1.0038  1.0387  0.6645
 4616SOL    HW215449   5.143   6.769   3.786 -1.0891 -0.6093  0.3092
 4617SOL     OW15450   6.329   4.507   4.337 -0.7520  0.4157 -0.1531
 4617SOL    HW115451   6.235   4.534   4.317 -0.1693  1.3377 -1.8378
 4617SOL    HW215452   6.344   4.412   4.309 -1.7064 -0.4486  2.0565
 4618SOL     OW15453   3.373   6.676   1.490 -0.0214 -0.2034 -0.6897
 4618SOL    HW115454   3.313   6.624   1.552 -0.0551  0.3240 -0.2646
 4618SOL    HW215455   3.319   6.710   1.413  0.2197 -1.7075 -1.5708
 4619SOL     OW15456   0.547   3.102   6.173 -0.1967 -0.6300 -0.1214
 4619SOL    HW115457   0.511   3.161   6.100 -0.2321 -0.6197 -0.0955
 4619SOL    HW215458   0.571   3.013   6.134  0.9671 -0.2186 -0.3885
 4620SOL     OW15459   1.260   3.738   0.535 -0.2890 -0.2508 -0.2796
 4620SOL    HW115460   1.331   3.805   0.511 -1.3528  0.9421 -0.2227
 4620SOL    HW215461   1.303   3.651   0.559  1.0827  0.1110 -1.2926
 4621SOL     OW15462   4.372   0.812   1.203 -0.4127  0.4186  0.3502
 4621SOL    HW115463   4.328   0.723   1.219  0.1891 -0.1648 -1.0911
 4621SOL    HW215464   4.304   0.885   1.213 -1.3371 -0.3383 -0.2329
 4622SOL     OW15465   4.471   2.131   5.958 -0.0228 -0.4718 -0.5774
 4622SOL    HW115466   4.554   2.114   5.905 -1.2152 -0.0855 -2.6895
 4622SOL    HW215467   4.441   2.047   6.002  2.2340 -0.3129  1.4384
 4623SOL     OW15468   2.660   1.477   1.877  0.1077  0.2895 -0.1739
 4623SOL    HW115469   2.623   1.568   1.860  0.0080  0.4510  0.8595
 4623SOL    HW215470   2.586   1.410   1.875 -0.1088  0.4765  0.8394
 4624SOL     OW15471   0.062   0.327   2.861  0.9681 -0.7916 -0.2339
 4624SOL    HW115472  -0.024   0.340   2.910  0.0940  0.2084 -1.9180
 4624SOL    HW215473   0.043   0.314   2.763  2.7404 -0.4565 -0.6661
 4625SOL     OW15474   0.111   2.125   6.361  0.1250  0.1632 -0.0418
 4625SOL    HW115475   0.140   2.047   6.305 -0.9795 -0.7656  0.6077
 4625SOL    HW215476   0.021   2.157   6.330 -1.8888 -2.1646  2.7342
 4626SOL     OW15477   4.762   6.038   6.404 -0.3737  0.6508 -0.0015
 4626SOL    HW115478   4.782   6.018   6.500 -0.3604  0.7191  0.0105
 4626SOL    HW215479   4.670   6.005   6.382  0.6013 -1.7727 -0.6927
 4627SOL     OW15480   1.442   5.922   0.146 -0.0692  0.2798  0.2466
 4627SOL    HW115481   1.514   5.965   0.091  0.0444 -1.5925 -1.1589
 4627SOL    HW215482   1.355   5.966   0.128  0.1671  0.4045 -0.6080
 4628SOL     OW15483   2.683   5.396   2.140 -0.0270 -0.1705  0.4100
 4628SOL    HW115484   2.752   5.346   2.088  1.6540  1.7411  0.6617
 4628SOL    HW215485   2.597   5.399   2.088  0.5388 -1.2690 -0.6276
 4629SOL     OW15486   3.772   0.911   1.288  0.0730  0.0157 -0.2766
 4629SOL    HW115487   3.758   0.817   1.317  0.9018 -0.3688 -1.0710
 4629SOL    HW215488   3.727   0.973   1.353 -0.4559 -0.9130  0.2683
 4630SOL     OW15489   2.001   1.442   1.033 -0.3843  0.0937 -0.1179
 4630SOL    HW115490   2.100   1.452   1.022 -0.5934  2.2130 -0.6478
 4630SOL    HW215491   1.968   1.367   0.975  0.9871 -1.1542  0.6672
 4631SOL     OW15492   2.714   6.785   0.621 -1.1364 -0.4613  0.0230
 4631SOL    HW115493   2.660   6.813   0.542  1.5349  1.9290 -1.1321
 4631SOL    HW215494   2.719   6.861   0.686  0.5290 -0.6801  0.1969
 4632SOL     OW15495   2.671   6.796   4.486  0.1888  0.1600 -0.0244
 4632SOL    HW115496   2.664   6.697   4.504  0.4708  0.3477  1.2393
 4632SOL    HW215497   2.762   6.817   4.451  0.5601  0.1165  0.8779
 4633SOL     OW15498   5.648   2.717   6.638  0.4900 -0.2797  0.2699
 4633SOL    HW115499   5.593   2.654   6.694  0.8784  0.0644  1.0476
 4633SOL    HW215500   5.703   2.664   6.573  2.4737 -0.9493  2.3780
 4634SOL     OW15501   3.209   3.046   6.738 -0.0062 -0.3798 -0.9716
 4634SOL    HW115502   3.259   3.085   6.661  1.1210 -0.1288 -0.1434
 4634SOL    HW215503   3.145   3.114   6.774  1.0950  0.3299 -0.2874
 4635SOL     OW15504   1.579   3.209   2.247  0.3180  0.1139 -0.2409
 4635SOL    HW115505   1.598   3.304   2.274 -1.5936  0.5644 -0.3301
 4635SOL    HW215506   1.529   3.164   2.321  0.0517 -0.4255 -0.7502
 4636SOL     OW15507   2.738   3.986   0.810 -0.8665  0.5789 -0.7795
 4636SOL    HW115508   2.776   3.981   0.902 -0.9480 -0.7929 -0.8091
 4636SOL    HW215509   2.639   4.001   0.815 -1.0758 -0.7276 -0.5948
 4637SOL     OW15510   1.977   5.910   3.964  0.1131 -0.0457  0.3071
 4637SOL    HW115511   1.985   5.890   3.866 -0.0398  0.3937  0.1995
 4637SOL    HW215512   2.017   6.000   3.983 -0.1143 -0.0012  0.5973
 4638SOL     OW15513   2.712   0.146   1.598 -0.0486 -0.2161  0.4287
 4638SOL    HW115514   2.633   0.205   1.582 -0.1853 -0.1891  1.1930
 4638SOL    HW215515   2.686   0.051   1.582 -0.0664 -0.1531  0.0716
 4639SOL     OW15516   0.330   2.362   5.779  0.7269 -0.1076 -0.5035
 4639SOL    HW115517   0.360   2.346   5.873  0.7176  0.5908 -0.3756
 4639SOL    HW215518   0.368   2.291   5.720 -0.9470 -1.7795  0.3312
 4640SOL     OW15519   2.683   3.851   3.588  0.1321  0.5525 -0.2582
 4640SOL    HW115520   2.704   3.851   3.490 -2.9987  3.6929 -1.1230
 4640SOL    HW215521   2.701   3.942   3.626 -0.5919 -0.0336  1.6264
 4641SOL     OW15522   1.568   1.008   5.604 -0.0963 -0.0912  0.2688
 4641SOL    HW115523   1.577   1.102   5.635 -0.4692  0.0179  0.0535
 4641SOL    HW215524   1.471   0.985   5.596 -0.0199 -0.0286 -1.0623
 4642SOL     OW15525   4.942   1.632   5.186 -0.2157 -0.4961  0.8304
 4642SOL    HW115526   4.857   1.681   5.210 -0.7901 -1.1128  0.1030
 4642SOL    HW215527   4.919   1.547   5.138  0.8296 -0.5666  0.4359
 4643SOL     OW15528   5.467   5.047   0.741 -0.0137  0.0323  0.4079
 4643SOL    HW115529   5.467   4.960   0.791  0.8353  0.1326  0.5947
 4643SOL    HW215530   5.498   5.120   0.802  0.2375  0.2965 -0.0393
 4644SOL     OW15531   4.059   4.966   0.987  0.2216 -1.1886  0.0861
 4644SOL    HW115532   4.042   5.052   0.938 -1.5573 -1.7496 -0.3489
 4644SOL    HW215533   4.138   4.978   1.048 -0.6262  1.0704  0.8491
 4645SOL     OW15534   1.974   7.006   4.742  0.8766 -0.1497  0.3932
 4645SOL    HW115535   2.040   6.954   4.688 -1.0269 -1.3010 -0.9607
 4645SOL    HW215536   2.022   7.073   4.798  3.0902 -0.0732 -1.4447
 4646SOL     OW15537   1.291   3.750   4.164 -0.2149  0.6522  0.0120
 4646SOL    HW115538   1.354   3.821   4.134  0.5159  0.0682  0.1525
 4646SOL    HW215539   1.337   3.662   4.166 -0.7690  0.3624  1.0107
 4647SOL     OW15540   2.940   4.131   6.748  0.4637  0.5485 -0.5516
 4647SOL    HW115541   2.926   4.137   6.847  2.0623  0.6906 -0.3037
 4647SOL    HW215542   2.930   4.222   6.708  0.2796  0.5736 -0.4492
 4648SOL     OW15543   1.366   2.173   5.671 -0.1557  0.0117 -0.0169
 4648SOL    HW115544   1.345   2.081   5.639 -0.7857  0.3329 -0.5565
 4648SOL    HW215545   1.418   2.222   5.602 -1.1305  0.5563 -0.3849
 4649SOL     OW15546   6.342   0.108   5.542 -0.5743  0.8892  0.1190
 4649SOL    HW115547   6.261   0.052   5.556 -0.8470  1.1239 -0.4803
 4649SOL    HW215548   6.381   0.087   5.453  0.0835  0.7104  0.4439
 4650SOL     OW15549   4.654   4.374   4.756  0.0672 -0.3503  0.3232
 4650SOL    HW115550   4.612   4.459   4.788  0.6865 -0.4291  1.4064
 4650SOL    HW215551   4.736   4.396   4.703 -0.0233 -0.2602  0.2203
 4651SOL     OW15552   2.499   3.030   5.628  0.2449  0.3518 -0.1750
 4651SOL    HW115553   2.482   2.939   5.592  2.1791 -0.1677  0.1164
 4651SOL    HW215554   2.474   3.098   5.560 -2.3059 -0.2758  0.0083
 4652SOL     OW15555   1.903   1.925   5.676  0.2534  0.5190  0.1339
 4652SOL    HW115556   2.002   1.923   5.690  0.2265 -2.3873  0.4267
 4652SOL    HW215557   1.874   1.841   5.631 -2.1898  0.9724  0.7231
 4653SOL     OW15558   5.363   4.214   2.780  0.1774  0.2665  0.2539
 4653SOL    HW115559   5.304   4.286   2.815  0.0483 -0.6405  2.0141
 4653SOL    HW215560   5.322   4.125   2.798  1.4537 -0.3352  0.3089
 4654SOL     OW15561   7.015   2.943   7.001 -0.1643 -0.5922 -0.2909
 4654SOL    HW115562   6.953   2.900   7.067 -0.5541  0.0739 -0.2219
 4654SOL    HW215563   7.006   3.042   7.006 -1.3013 -0.5388 -2.3796
 4655SOL     OW15564   3.123   5.665   1.926 -0.0045 -0.7093  0.1228
 4655SOL    HW115565   3.114   5.705   2.017  0.1102 -0.6850  0.1232
 4655SOL    HW215566   3.034   5.631   1.896  0.0982 -1.3613  0.5324
 4656SOL     OW15567   1.206   4.500   0.275  0.0603 -0.1803  0.1840
 4656SOL    HW115568   1.171   4.513   0.367 -0.3545  0.0717 -0.0098
 4656SOL    HW215569   1.133   4.464   0.216  0.1971  0.0843 -0.1514
 4657SOL     OW15570   4.551   3.227   2.188 -0.3466  0.8308  0.5297
 4657SOL    HW115571   4.488   3.156   2.218 -0.5695 -0.8829 -3.3396
 4657SOL    HW215572   4.502   3.314   2.181 -1.2397  0.3964  1.2077
 4658SOL     OW15573   2.181   2.847   5.195  0.3361  0.2173 -0.3411
 4658SOL    HW115574   2.234   2.927   5.223 -0.1649  1.1753 -1.9656
 4658SOL    HW215575   2.195   2.773   5.260  0.5172  1.7442  1.4509
 4659SOL     OW15576   6.104   5.688   2.906 -0.5648 -1.3464  0.3395
 4659SOL    HW115577   6.112   5.593   2.875 -0.8103 -0.9705 -0.9142
 4659SOL    HW215578   6.027   5.696   2.969  0.5450 -2.3220  1.8855
 4660SOL     OW15579   4.780   1.132   3.167  0.0062 -0.1368 -0.3634
 4660SOL    HW115580   4.814   1.040   3.189 -1.3546 -0.8502 -1.1512
 4660SOL    HW215581   4.693   1.148   3.213 -0.1807  0.4309 -0.8947
 4661SOL     OW15582   5.249   6.281   4.459  0.2986  0.0086  0.3669
 4661SOL    HW115583   5.324   6.231   4.413 -1.0615  0.7400 -2.9554
 4661SOL    HW215584   5.167   6.276   4.402 -1.1693  2.2933  2.1388
 4662SOL     OW15585   1.048   6.338   0.979  0.5328 -0.1800  0.1233
 4662SOL    HW115586   0.981   6.393   1.029  0.7014 -0.4423  0.6422
 4662SOL    HW215587   1.119   6.398   0.941  0.9417 -0.0690  1.0369
 4663SOL     OW15588   3.767   6.333   0.862 -0.0387 -0.0810  0.0064
 4663SOL    HW115589   3.740   6.398   0.791  0.6200  1.2877  0.9655
 4663SOL    HW215590   3.863   6.347   0.885  0.3270 -1.9141 -0.2678
 4664SOL     OW15591   5.096   6.417   4.664  0.1331 -0.0009  0.2538
 4664SOL    HW115592   5.066   6.505   4.627  1.0020  0.5871  0.9263
 4664SOL    HW215593   5.160   6.374   4.600  0.1154  0.0962  0.1717
 4665SOL     OW15594   2.665   1.578   2.422 -0.3692 -0.8611  0.0882
 4665SOL    HW115595   2.597   1.506   2.433 -1.6812  0.4331  0.6025
 4665SOL    HW215596   2.692   1.583   2.326  0.1890 -2.4090  0.1357
 4666SOL     OW15597   4.361   6.696   5.921 -0.1400  0.1872 -0.0716
 4666SOL    HW115598   4.452   6.719   5.888 -0.0547  0.1858  0.1600
 4666SOL    HW215599   4.368   6.635   6.001 -0.3350  0.3930  0.1053
 4667SOL     OW15600   4.947   0.297   0.282  0.1579  0.8075 -0.2758
 4667SOL    HW115601   4.952   0.230   0.208 -0.2867  2.4280 -1.8259
 4667SOL    HW215602   4.946   0.249   0.370 -0.8863 -1.2531 -1.3403
 4668SOL     OW15603   6.263   6.311   2.963  0.7792 -0.2890  0.0492
 4668SOL    HW115604   6.240   6.403   2.933 -0.3936 -0.2045  1.0830
 4668SOL    HW215605   6.344   6.314   3.022 -1.0691  0.6623  2.7852
 4669SOL     OW15606   4.824   4.905   2.242  0.3607  0.5041  0.1186
 4669SOL    HW115607   4.821   4.875   2.147  1.1476 -2.0643  0.8394
 4669SOL    HW215608   4.918   4.900   2.276  0.5446  3.7201  0.4244
 4670SOL     OW15609   5.860   1.138   5.192  0.3475 -0.6728  0.0134
 4670SOL    HW115610   5.788   1.117   5.127  0.7446  1.0092 -1.0487
 4670SOL    HW215611   5.881   1.236   5.188  2.3961 -1.0324  0.5621
 4671SOL     OW15612   0.193   0.196   7.011 -0.2762 -0.3361 -0.1564
 4671SOL    HW115613   0.106   0.146   7.019 -1.1129  1.2092  1.0513
 4671SOL    HW215614   0.214   0.239   7.098  0.9290  0.5685 -0.8711
 4672SOL     OW15615   0.912   6.073   5.210  0.0512  0.3018 -0.3501
 4672SOL    HW115616   0.893   6.122   5.295 -1.1202  0.8445 -0.9126
 4672SOL    HW215617   0.833   6.018   5.185  0.4620  0.0006 -1.0058
 4673SOL     OW15618   5.102   0.029   3.563  0.1021 -0.0004  0.7057
 4673SOL    HW115619   5.193  -0.007   3.539 -0.2592 -1.5810  1.5397
 4673SOL    HW215620   5.057  -0.035   3.626 -1.7329  0.5858  0.0451
 4674SOL     OW15621   6.030   0.770   3.899 -0.3059 -0.4742 -0.2992
 4674SOL    HW115622   6.057   0.829   3.975 -1.8709 -1.1193  0.8019
 4674SOL    HW215623   6.050   0.675   3.923  0.4593 -0.5789 -1.2899
 4675SOL     OW15624   5.672   2.223   0.266  0.3141  0.3487 -0.1752
 4675SOL    HW115625   5.699   2.214   0.362 -0.8504 -0.6577  0.0818
 4675SOL    HW215626   5.581   2.263   0.260 -0.0389 -0.5035 -0.8042
 4676SOL     OW15627   3.532   5.586   0.458  0.0968 -0.2401 -0.0099
 4676SOL    HW115628   3.516   5.585   0.359 -0.5574 -0.4719  0.0937
 4676SOL    HW215629   3.469   5.651   0.501  1.3669  0.9625  0.1018
 4677SOL     OW15630   4.405   1.604   0.955 -0.0021 -0.5174  0.0168
 4677SOL    HW115631   4.322   1.644   0.995  0.7903 -0.9622  2.2537
 4677SOL    HW215632   4.428   1.521   1.004  1.9247 -0.2658 -0.3971
 4678SOL     OW15633   0.573   4.083   1.968  0.7152 -0.0005 -0.0302
 4678SOL    HW115634   0.494   4.107   2.024 -0.4281  0.2041 -1.6510
 4678SOL    HW215635   0.609   3.994   1.996  0.0263 -0.0128  0.8449
 4679SOL     OW15636   5.728   2.240   0.517 -0.4770 -0.0482 -0.5717
 4679SOL    HW115637   5.645   2.237   0.572 -0.6263  1.1010 -0.7025
 4679SOL    HW215638   5.806   2.266   0.574 -0.3328 -0.4383 -0.5876
 4680SOL     OW15639   3.667   4.307   5.687 -0.1427 -0.0221 -0.0512
 4680SOL    HW115640   3.572   4.277   5.699 -0.1393  0.3540  1.0084
 4680SOL    HW215641   3.725   4.228   5.667 -0.1974 -0.7360  2.2939
 4681SOL     OW15642   6.531   1.650   3.671 -0.4334  0.2831 -0.2109
 4681SOL    HW115643   6.504   1.554   3.674 -0.1753  0.2239  1.1254
 4681SOL    HW215644   6.624   1.658   3.637 -0.4450  0.0568 -0.2966
 4682SOL     OW15645   0.153   6.448   2.850  0.3572 -0.1132  0.4016
 4682SOL    HW115646   0.178   6.386   2.924 -0.0955 -0.6318  0.1295
 4682SOL    HW215647   0.131   6.538   2.887  1.7474  0.1123  0.7358
 4683SOL     OW15648   6.312   4.075   6.489 -0.2883  0.1205  0.1730
 4683SOL    HW115649   6.347   4.081   6.396  1.6713  2.0439  0.9301
 4683SOL    HW215650   6.389   4.080   6.553 -1.6901  0.2700  1.9195
 4684SOL     OW15651   1.142   0.479   1.993 -0.2512 -0.1755  0.0428
 4684SOL    HW115652   1.140   0.423   2.075  1.8747  0.4384  0.5643
 4684SOL    HW215653   1.133   0.421   1.912 -0.0471 -1.0363  0.6327
 4685SOL     OW15654   2.382   0.339   3.568  0.1004  0.4053  0.0225
 4685SOL    HW115655   2.356   0.335   3.665  0.4155 -0.2395  0.0891
 4685SOL    HW215656   2.368   0.431   3.534 -3.4622 -0.1223 -0.3127
 4686SOL     OW15657   4.803   2.769   0.905  0.5205  0.2344 -0.0195
 4686SOL    HW115658   4.716   2.723   0.918  1.9876 -2.6112  0.5597
 4686SOL    HW215659   4.818   2.785   0.807 -0.4015  0.2597 -0.1600
 4687SOL     OW15660   3.206   1.192   6.032 -0.2336 -0.3811 -0.4351
 4687SOL    HW115661   3.234   1.254   6.105  0.0001 -0.5300 -0.3956
 4687SOL    HW215662   3.229   1.232   5.943 -1.1867  0.1304 -0.4607
 4688SOL     OW15663   2.287   3.342   3.003 -0.1345  0.5136 -0.2024
 4688SOL    HW115664   2.294   3.414   2.934 -1.0931  0.3109 -0.5168
 4688SOL    HW215665   2.336   3.371   3.086  1.5355  0.5135 -1.1367
 4689SOL     OW15666   4.760   5.474   3.466  0.3352  0.3970  0.0804
 4689SOL    HW115667   4.722   5.385   3.492  0.7052 -0.4988 -2.1953
 4689SOL    HW215668   4.848   5.487   3.511  0.4394 -0.5515  0.1737
 4690SOL     OW15669   1.315   3.443   5.537  0.2040 -0.4120 -0.5035
 4690SOL    HW115670   1.284   3.460   5.630  1.3300 -2.4563  0.3292
 4690SOL    HW215671   1.333   3.529   5.491 -0.4699  0.6449  1.1308
 4691SOL     OW15672   6.075   6.979   4.281 -0.5214 -0.0409  0.5158
 4691SOL    HW115673   6.004   6.967   4.351  1.9820 -0.6891  3.1692
 4691SOL    HW215674   6.113   6.890   4.256  0.2923  0.3688  0.2432
 4692SOL     OW15675   0.027   0.882   4.424  0.1523  0.0005  0.0888
 4692SOL    HW115676   0.039   0.785   4.443  1.3607  0.1062 -0.0681
 4692SOL    HW215677  -0.063   0.912   4.458 -0.8948 -1.5004 -1.2304
 4693SOL     OW15678   3.837   5.868   4.036 -0.2724 -0.0492  0.6520
 4693SOL    HW115679   3.803   5.782   3.999 -0.8373  0.9711 -1.3472
 4693SOL    HW215680   3.849   5.934   3.962  0.0055  1.6607  2.1363
 4694SOL     OW15681   3.222   5.575   5.920 -0.5019  0.1654  0.1365
 4694SOL    HW115682   3.301   5.611   5.871 -0.4616  0.0372  0.1051
 4694SOL    HW215683   3.169   5.650   5.959 -0.0580  0.2258  0.6334
 4695SOL     OW15684   2.957   3.107   1.056 -0.3812  1.1183 -0.2427
 4695SOL    HW115685   2.946   3.033   0.989 -0.7165  0.0763  0.9222
 4695SOL    HW215686   3.050   3.105   1.093 -0.7952  0.3575  0.8060
 4696SOL     OW15687   4.418   5.994   0.290 -0.8127  0.0040 -0.0782
 4696SOL    HW115688   4.494   6.008   0.227 -2.0709 -0.1116 -1.7261
 4696SOL    HW215689   4.406   5.896   0.307  0.5640  0.1204  1.7418
 4697SOL     OW15690   5.456   4.804   1.726 -0.5107  0.1860 -0.2927
 4697SOL    HW115691   5.466   4.715   1.682  1.9728  0.9396 -1.4788
 4697SOL    HW215692   5.489   4.876   1.664  2.4905  1.3953  2.4325
 4698SOL     OW15693   3.215   6.222   6.068  0.5601  0.2224  0.2194
 4698SOL    HW115694   3.309   6.215   6.102  0.4833  0.7787  0.5662
 4698SOL    HW215695   3.215   6.241   5.970  0.8059  0.2733  0.2308
 4699SOL     OW15696   6.238   1.203   1.102 -0.2928 -0.2229 -0.5286
 4699SOL    HW115697   6.230   1.119   1.156 -1.8434 -0.8825 -1.6950
 4699SOL    HW215698   6.196   1.279   1.152  3.3595  0.5806  1.7049
 4700SOL     OW15699   3.443   4.785   5.606  0.2116  0.1417 -0.0580
 4700SOL    HW115700   3.445   4.712   5.538 -1.1707 -0.0039  0.0382
 4700SOL    HW215701   3.507   4.763   5.680  1.7529  0.3172 -1.2884
 4701SOL     OW15702   3.817   3.941   6.472  0.1463 -0.0947 -0.4099
 4701SOL    HW115703   3.820   3.842   6.487  1.8965 -0.0279 -0.0564
 4701SOL    HW215704   3.898   3.983   6.513 -1.4126  1.7269  1.0142
 4702SOL     OW15705   3.568   2.127   6.735  0.2239  0.3105 -0.5973
 4702SOL    HW115706   3.540   2.032   6.744 -2.7786  1.2655  1.2771
 4702SOL    HW215707   3.554   2.157   6.641 -0.5616 -0.5985 -0.7820
 4703SOL     OW15708   0.814   3.259   2.983  0.3110  0.7427  0.2183
 4703SOL    HW115709   0.763   3.173   2.990 -1.3078  1.7216  1.2885
 4703SOL    HW215710   0.906   3.241   2.950  0.4743 -1.5598  1.7044
 4704SOL     OW15711   6.950   4.965   2.098 -0.0032 -0.2818 -0.0054
 4704SOL    HW115712   6.898   4.969   2.183  0.9850 -0.5151  0.6260
 4704SOL    HW215713   6.888   4.970   2.020 -0.8466  1.2285  0.7169
 4705SOL     OW15714   4.799   1.130   0.179  0.7605  0.0301  0.3817
 4705SOL    HW115715   4.816   1.179   0.093 -2.0750 -1.6344 -1.2534
 4705SOL    HW215716   4.776   1.196   0.251  3.3899  1.4673  0.0555
 4706SOL     OW15717   1.685   1.289   6.081 -0.4565  0.1386  0.1403
 4706SOL    HW115718   1.645   1.341   6.157  0.2783  0.5018  0.2793
 4706SOL    HW215719   1.736   1.211   6.117 -0.9969 -0.3069 -0.0391
 4707SOL     OW15720   3.527   3.413   3.800 -0.4565 -0.3100  0.0407
 4707SOL    HW115721   3.517   3.512   3.789  0.3523 -0.0501  1.4074
 4707SOL    HW215722   3.593   3.378   3.734  0.3929  0.3318  0.5249
 4708SOL     OW15723   3.744   6.099   4.859 -0.1036 -0.1689  0.4245
 4708SOL    HW115724   3.664   6.086   4.918 -0.3296  0.2015  0.1990
 4708SOL    HW215725   3.782   6.190   4.874 -0.3977  0.0783 -0.2865
 4709SOL     OW15726   4.774   3.424   1.696  0.3461 -0.3745  0.1088
 4709SOL    HW115727   4.855   3.372   1.723  0.2216  0.5925  2.6087
 4709SOL    HW215728   4.693   3.367   1.704  0.6915 -1.3650 -2.4606
 4710SOL     OW15729   1.621   3.556   0.607  0.1337  0.2419 -0.2246
 4710SOL    HW115730   1.679   3.631   0.572 -0.2709  0.7566  0.1916
 4710SOL    HW215731   1.643   3.540   0.703  0.4491 -0.4022 -0.4034
 4711SOL     OW15732   6.042   3.575   3.165  0.1478 -0.2099 -0.1654
 4711SOL    HW115733   5.982   3.634   3.111 -0.4501  0.2935  1.0043
 4711SOL    HW215734   6.064   3.492   3.113  0.3429  0.6701 -1.5112
 4712SOL     OW15735   0.718   5.566   1.157 -0.1801  0.2126  0.1402
 4712SOL    HW115736   0.624   5.544   1.180 -0.4071 -0.0133 -0.9397
 4712SOL    HW215737   0.761   5.489   1.110  0.4102  0.4690  0.2390
 4713SOL     OW15738   4.397   3.731   5.906  0.6138 -0.6475 -0.5706
 4713SOL    HW115739   4.327   3.788   5.949  0.9060 -1.6176  1.2523
 4713SOL    HW215740   4.426   3.774   5.820  1.0199  2.1138  0.8357
 4714SOL     OW15741   6.816   1.172   3.786  0.3137 -0.2811  0.2767
 4714SOL    HW115742   6.737   1.111   3.783 -1.2068  1.5294  1.2943
 4714SOL    HW215743   6.877   1.151   3.710 -1.1814 -1.7000 -0.5956
 4715SOL     OW15744   5.802   1.421   6.747  0.3488 -0.0547 -0.1690
 4715SOL    HW115745   5.710   1.458   6.735  0.2582 -0.4476 -0.7683
 4715SOL    HW215746   5.822   1.357   6.672  1.4007  0.6091 -0.4732
 4716SOL     OW15747   2.211   5.928   1.381 -0.6887  0.0629 -0.0153
 4716SOL    HW115748   2.235   6.008   1.435 -0.3775 -0.1823  0.2126
 4716SOL    HW215749   2.111   5.918   1.379 -0.6865 -0.6876  1.6620
 4717SOL     OW15750   6.419   3.681   6.483 -0.0962 -0.3321  0.3057
 4717SOL    HW115751   6.386   3.587   6.486 -0.8318 -0.0559  1.4334
 4717SOL    HW215752   6.394   3.728   6.567  2.6221  0.1196  0.9575
 4718SOL     OW15753   4.537   4.530   5.894 -0.6129 -0.1237  0.1644
 4718SOL    HW115754   4.488   4.596   5.951 -0.6926  0.8214 -0.9594
 4718SOL    HW215755   4.575   4.576   5.814  0.8889 -1.1135  0.2623
 4719SOL     OW15756   2.799   6.382   4.012 -0.0621 -0.1039  0.0723
 4719SOL    HW115757   2.871   6.374   3.944  0.7506 -0.3557  0.9316
 4719SOL    HW215758   2.820   6.321   4.089 -0.9721  0.1455  0.5280
 4720SOL     OW15759   4.289   1.934   1.057 -0.3753  0.2249  0.1540
 4720SOL    HW115760   4.264   1.870   1.129  0.6269 -0.1469  0.1844
 4720SOL    HW215761   4.285   1.888   0.968 -1.1843  0.5625  0.0078
 4721SOL     OW15762   5.873   5.781   2.705 -1.0815 -0.0241 -0.1247
 4721SOL    HW115763   5.806   5.708   2.688  1.9960 -2.7152 -2.1084
 4721SOL    HW215764   5.949   5.744   2.757  0.0119  2.2221 -0.0144
 4722SOL     OW15765   1.841   0.877   3.337  0.3289  0.1288 -0.3782
 4722SOL    HW115766   1.806   0.958   3.383 -0.7629 -0.4119 -0.2400
 4722SOL    HW215767   1.844   0.801   3.401  1.2544  0.0153 -0.5371
 4723SOL     OW15768   3.289   6.228   4.330 -0.0307 -0.2429 -0.4016
 4723SOL    HW115769   3.270   6.216   4.428 -1.5831  0.5944 -0.5511
 4723SOL    HW215770   3.380   6.194   4.309  0.8639  0.7220  1.5833
 4724SOL     OW15771   4.980   6.290   0.816 -0.5167 -0.1070  0.0936
 4724SOL    HW115772   5.022   6.357   0.755 -0.1444  0.6506  1.1442
 4724SOL    HW215773   4.894   6.259   0.777  0.4325 -0.8054 -1.5346
 4725SOL     OW15774   0.157   1.499   6.754  0.4095  0.4603 -0.7418
 4725SOL    HW115775   0.210   1.536   6.831  1.2778  0.8145 -1.4946
 4725SOL    HW215776   0.068   1.469   6.787  0.6167  0.9690  0.3358
 4726SOL     OW15777   4.540   6.840   1.028  0.4707  0.8640 -0.1468
 4726SOL    HW115778   4.526   6.743   1.050 -1.7361  1.0005 -0.6977
 4726SOL    HW215779   4.560   6.849   0.930 -1.8299  1.0802 -0.6547
 4727SOL     OW15780   1.323   3.360   6.744 -0.3490 -0.3323  0.1376
 4727SOL    HW115781   1.308   3.409   6.658  0.9445  1.7215  1.0032
 4727SOL    HW215782   1.251   3.384   6.809 -1.3889 -1.9679 -0.3422
 4728SOL     OW15783   5.136   5.441   5.521  0.1076 -0.1910 -0.0164
 4728SOL    HW115784   5.090   5.514   5.571  0.3694  0.2123 -0.3546
 4728SOL    HW215785   5.068   5.387   5.470 -0.2657 -1.1384  1.4152
 4729SOL     OW15786   6.073   2.639   2.851 -0.5051  0.2717  0.2615
 4729SOL    HW115787   6.171   2.653   2.865 -0.2939 -0.6367 -0.2696
 4729SOL    HW215788   6.025   2.654   2.938  0.0565  1.0231  0.4565
 4730SOL     OW15789   6.889   3.452   4.306  0.0532  0.0765 -0.0636
 4730SOL    HW115790   6.978   3.439   4.262  0.4797 -0.2635  0.8592
 4730SOL    HW215791   6.825   3.491   4.241  1.2725  1.7050 -0.3620
 4731SOL     OW15792   6.159   4.488   1.824 -0.5535 -0.4242  0.3528
 4731SOL    HW115793   6.063   4.497   1.797  0.1913  1.7220 -1.9061
 4731SOL    HW215794   6.218   4.506   1.745  1.7835 -4.7972  0.7938
 4732SOL     OW15795   4.839   4.946   6.960 -0.0835  0.3978  0.5295
 4732SOL    HW115796   4.858   4.935   7.057  3.2412  0.1576 -0.0539
 4732SOL    HW215797   4.835   4.856   6.916  1.6393  0.5722 -0.0413
 4733SOL     OW15798   6.444   4.013   6.246  0.5085  0.0121  0.2017
 4733SOL    HW115799   6.386   4.051   6.175 -1.2651 -0.8381  1.1151
 4733SOL    HW215800   6.442   3.913   6.240  1.7349 -0.0371  0.3892
 4734SOL     OW15801   3.421   4.656   1.109  0.1203  0.3859 -0.3683
 4734SOL    HW115802   3.374   4.580   1.065  1.2800 -1.1257  0.9090
 4734SOL    HW215803   3.519   4.650   1.089  0.5801  0.0674  1.7524
 4735SOL     OW15804   3.591   0.989   2.366 -0.0697 -0.1618  0.1661
 4735SOL    HW115805   3.516   1.008   2.429 -0.2745 -1.9648  0.5185
 4735SOL    HW215806   3.679   1.003   2.412 -0.0891  2.5721 -0.4280
 4736SOL     OW15807   5.309   6.692   5.289  0.7735 -0.3539 -0.4583
 4736SOL    HW115808   5.339   6.667   5.197  0.0798  1.5978 -1.2607
 4736SOL    HW215809   5.366   6.646   5.356  0.6085 -2.6981 -1.8091
 4737SOL     OW15810   6.323   4.104   6.032 -0.4239 -0.6046 -0.2326
 4737SOL    HW115811   6.395   4.123   5.965  0.2143  2.6166  1.1528
 4737SOL    HW215812   6.265   4.186   6.041 -3.0385 -2.3948  0.2048
 4738SOL     OW15813   5.244   5.787   2.721 -0.3793 -0.0742  0.0424
 4738SOL    HW115814   5.226   5.748   2.630  0.0014  0.1831 -0.1437
 4738SOL    HW215815   5.215   5.883   2.722 -0.0367  0.0301  0.0756
 4739SOL     OW15816   6.485   2.392   4.476 -0.1402 -0.3445  0.0136
 4739SOL    HW115817   6.432   2.403   4.391 -1.0966  0.0480  0.6383
 4739SOL    HW215818   6.473   2.299   4.511  1.5727 -1.0372 -1.1116
 4740SOL     OW15819   1.893   2.639   0.561 -0.4963  0.5044 -0.1472
 4740SOL    HW115820   1.960   2.667   0.492 -0.3667 -0.0023 -0.2330
 4740SOL    HW215821   1.893   2.704   0.637  0.6500  0.1042  0.2217
 4741SOL     OW15822   5.187   4.182   5.259 -0.0698 -0.0120  0.3125
 4741SOL    HW115823   5.146   4.249   5.321  0.3417 -0.9171  1.6011
 4741SOL    HW215824   5.120   4.111   5.238 -0.4418  0.6634 -0.8942
 4742SOL     OW15825   1.165   4.266   2.030 -0.2551 -0.2526  0.0495
 4742SOL    HW115826   1.234   4.272   1.958 -0.2624  1.5992  0.1477
 4742SOL    HW215827   1.146   4.170   2.050  0.3108 -0.8059 -1.8582
 4743SOL     OW15828   5.898   3.355   2.767  0.0541  0.8030  0.5997
 4743SOL    HW115829   5.976   3.297   2.742  0.3878 -0.0013  3.2484
 4743SOL    HW215830   5.929   3.449   2.779  0.4177  0.6794  0.6555
 4744SOL     OW15831   2.801   1.045   3.769 -0.2437 -0.2463  0.0568
 4744SOL    HW115832   2.869   1.107   3.809 -0.2349 -0.4741  0.4017
 4744SOL    HW215833   2.844   0.957   3.748 -0.3381 -0.2560 -0.0942
 4745SOL     OW15834   0.905   1.876   6.540  0.3989 -0.1106  0.1477
 4745SOL    HW115835   0.832   1.929   6.497  0.0064 -0.7288  0.0418
 4745SOL    HW215836   0.990   1.889   6.488 -0.3219 -1.7504 -1.5495
 4746SOL     OW15837   5.213   2.671   0.496  0.2245 -0.8483  0.2977
 4746SOL    HW115838   5.209   2.603   0.422 -0.7100 -1.6233  1.0413
 4746SOL    HW215839   5.250   2.757   0.460 -0.8338 -0.9978 -1.2507
 4747SOL     OW15840   5.335   0.451   2.711  0.0423 -0.3002  0.5251
 4747SOL    HW115841   5.324   0.494   2.801  1.7414 -0.0145  0.6327
 4747SOL    HW215842   5.245   0.442   2.668 -0.6989  0.5275  1.8008
 4748SOL     OW15843   1.156   6.272   6.030  0.5869 -0.2637 -0.0966
 4748SOL    HW115844   1.063   6.253   5.996  0.2526  0.4875  0.3648
 4748SOL    HW215845   1.152   6.286   6.129  1.2091 -0.2957 -0.0680
 4749SOL     OW15846   3.658   2.774   0.063 -0.5625 -0.3483  0.2719
 4749SOL    HW115847   3.728   2.706   0.042 -0.2318 -0.1731  0.7755
 4749SOL    HW215848   3.620   2.811  -0.022  0.9712  0.5850 -0.0484
 4750SOL     OW15849   1.536   2.401   3.845  0.4868 -0.1998 -0.9130
 4750SOL    HW115850   1.590   2.372   3.766 -0.2484  0.5658 -1.7101
 4750SOL    HW215851   1.579   2.480   3.888  1.4734 -1.2535  0.1394
 4751SOL     OW15852   3.156   1.968   4.638 -0.5361  0.2940 -0.2893
 4751SOL    HW115853   3.191   2.041   4.580  0.1180  0.4929  0.3419
 4751SOL    HW215854   3.140   1.886   4.582 -0.9545  0.8114 -0.9351
 4752SOL     OW15855   0.252   5.148   1.293 -0.2125  0.3469  0.0154
 4752SOL    HW115856   0.257   5.108   1.384  2.2473 -0.4450 -0.3972
 4752SOL    HW215857   0.207   5.085   1.230 -0.7417  0.3477  0.3869
 4753SOL     OW15858   0.795   4.506   5.589 -0.2241 -0.0963  0.1945
 4753SOL    HW115859   0.803   4.443   5.513  0.7675 -0.4103  0.5349
 4753SOL    HW215860   0.717   4.480   5.647  0.1902 -1.0404  0.3492
 4754SOL     OW15861   0.618   5.090   6.097  0.4708  0.1726  0.4563
 4754SOL    HW115862   0.671   5.006   6.087 -0.7235 -0.5615  0.0208
 4754SOL    HW215863   0.593   5.103   6.193  2.2685  1.0768  0.8350
 4755SOL     OW15864   2.177   6.142   0.907  0.7061  0.0248 -0.6159
 4755SOL    HW115865   2.250   6.097   0.856  0.5769  1.5742 -2.3149
 4755SOL    HW215866   2.215   6.217   0.961  0.8682 -1.7432  1.8521
 4756SOL     OW15867   4.821   1.341   2.418 -0.1919  0.0284  0.1285
 4756SOL    HW115868   4.842   1.255   2.371 -0.5800 -0.1707  0.3164
 4756SOL    HW215869   4.897   1.367   2.477  0.6041  0.6266 -1.0994
 4757SOL     OW15870   2.505   3.365   5.992  0.4420  0.3565  0.5242
 4757SOL    HW115871   2.434   3.354   5.923 -1.2859 -0.3931  2.3468
 4757SOL    HW215872   2.479   3.438   6.056  0.6994 -0.7317  1.9090
 4758SOL     OW15873   6.340   6.114   4.595 -0.2039 -0.8473  0.0267
 4758SOL    HW115874   6.246   6.139   4.617 -0.2351 -0.4700 -0.5295
 4758SOL    HW215875   6.398   6.131   4.675 -0.6624 -1.4082  0.4834
 4759SOL     OW15876   0.575   2.615   0.968 -0.0624  0.1246  0.3187
 4759SOL    HW115877   0.550   2.528   0.925  0.7615  0.0586 -0.0530
 4759SOL    HW215878   0.575   2.604   1.067  2.9125 -1.1832  0.2746
 4760SOL     OW15879   0.353   6.247   4.310 -0.7587  0.3709  0.0181
 4760SOL    HW115880   0.343   6.165   4.367 -0.0103 -0.0428 -0.4223
 4760SOL    HW215881   0.402   6.317   4.361  2.0070 -0.8109 -0.8065
 4761SOL     OW15882   5.780   3.422   3.243 -0.3864  0.0059  0.5694
 4761SOL    HW115883   5.752   3.516   3.260 -0.1590 -0.0133  1.0562
 4761SOL    HW215884   5.783   3.405   3.144  0.2654  0.7170  0.4626
 4762SOL     OW15885   2.468   6.914   3.806 -0.0093  0.6260 -0.5388
 4762SOL    HW115886   2.436   6.857   3.730 -1.0538  2.4420 -1.5403
 4762SOL    HW215887   2.509   6.997   3.769 -0.7459  1.6504  0.8675
 4763SOL     OW15888   0.952   2.033   0.016  0.2105 -0.0249 -0.3530
 4763SOL    HW115889   0.968   2.061   0.110  0.2277  1.2939 -0.7405
 4763SOL    HW215890   0.858   2.000   0.007  0.7367 -1.9233  0.5134
 4764SOL     OW15891   6.930   1.698   5.564 -0.2086 -0.5121  0.1090
 4764SOL    HW115892   7.014   1.706   5.509 -2.1091 -0.5752 -3.0982
 4764SOL    HW215893   6.899   1.790   5.591  1.2744 -0.5407  2.0972
 4765SOL     OW15894   5.649   5.239   6.354  0.5267  0.0278  0.4044
 4765SOL    HW115895   5.650   5.196   6.263 -0.5068  0.4490  0.1845
 4765SOL    HW215896   5.673   5.335   6.345  1.2719 -0.1184  0.7026
 4766SOL     OW15897   4.670   5.623   0.208  0.7873  0.3367  0.4543
 4766SOL    HW115898   4.600   5.689   0.183  0.1827 -0.7647 -0.9266
 4766SOL    HW215899   4.643   5.532   0.176  1.4430 -0.6596  2.5784
 4767SOL     OW15900   3.103   6.259   3.557 -0.0045  0.2414  0.2290
 4767SOL    HW115901   3.104   6.327   3.484  2.1158  0.4558  0.3973
 4767SOL    HW215902   3.081   6.169   3.519 -0.7245  0.6568 -0.3532
 4768SOL     OW15903   4.367   0.015   0.239 -0.2021 -0.3548  0.0717
 4768SOL    HW115904   4.306   0.094   0.228 -1.3883 -1.0115  1.4657
 4768SOL    HW215905   4.320  -0.067   0.207  0.5651 -0.6589 -0.2725
 4769SOL     OW15906   1.922   0.615   4.677 -0.0436  0.0680  0.4295
 4769SOL    HW115907   1.930   0.543   4.746  2.5126  1.0000  1.2375
 4769SOL    HW215908   1.914   0.704   4.723  1.8484  0.7243 -0.4063
 4770SOL     OW15909   1.841   0.885   1.077 -0.1272 -0.1446  1.0713
 4770SOL    HW115910   1.845   0.985   1.086 -0.5552  0.2206 -1.8258
 4770SOL    HW215911   1.745   0.856   1.071 -0.1400  0.0873 -3.6913
 4771SOL     OW15912   4.289   1.381   0.268  0.0311  0.8325  0.2897
 4771SOL    HW115913   4.356   1.346   0.203 -0.1195  1.7643 -0.3879
 4771SOL    HW215914   4.310   1.347   0.359 -0.4423 -1.4786 -0.4055
 4772SOL     OW15915   6.078   0.583   5.573  0.2865 -0.7469  0.4376
 4772SOL    HW115916   6.071   0.676   5.609 -1.0513 -0.5102 -0.3812
 4772SOL    HW215917   6.012   0.524   5.620 -0.0187 -0.9095 -0.1949
 4773SOL     OW15918   4.819   4.942   0.242  0.0794  0.3296  0.1360
 4773SOL    HW115919   4.734   4.890   0.245 -0.4290  0.9246 -2.0749
 4773SOL    HW215920   4.888   4.896   0.297 -0.5638 -2.2730 -1.1025
 4774SOL     OW15921   5.344   0.807   2.597 -0.6130  0.6266 -0.1768
 4774SOL    HW115922   5.362   0.712   2.624 -0.9130  0.5354 -0.2979
 4774SOL    HW215923   5.420   0.840   2.540 -1.1000  0.0487 -1.1892
 4775SOL     OW15924   2.381   3.572   6.143 -0.0149  0.0889  0.2545
 4775SOL    HW115925   2.365   3.668   6.124 -0.5499  0.2032  1.2160
 4775SOL    HW215926   2.398   3.560   6.241  1.2827 -0.6362 -0.0309
 4776SOL     OW15927   5.420   3.503   3.731  0.4361  0.0711  0.0793
 4776SOL    HW115928   5.350   3.505   3.660  0.3787  1.6478  0.1540
 4776SOL    HW215929   5.500   3.453   3.698  0.2046  0.3300 -0.8975
 4777SOL     OW15930   6.411   0.869   1.021 -0.1331  0.6022 -0.2340
 4777SOL    HW115931   6.376   0.877   0.927 -1.2277 -0.3715  0.0740
 4777SOL    HW215932   6.343   0.903   1.085  0.7656  1.6208  0.2033
 4778SOL     OW15933   6.787   3.952   0.085  0.6876 -0.0226  0.3755
 4778SOL    HW115934   6.815   4.039   0.046  0.4036  0.5112  1.3239
 4778SOL    HW215935   6.859   3.884   0.072  0.8925  0.3364 -0.4022
 4779SOL     OW15936   0.405   2.161   4.404 -0.1689  0.0878  0.2869
 4779SOL    HW115937   0.426   2.153   4.307 -2.1321  2.1593 -0.4183
 4779SOL    HW215938   0.341   2.089   4.431  0.3723 -0.4856  0.0539
 4780SOL     OW15939   4.368   5.718   0.169 -0.1101 -0.3328  0.8011
 4780SOL    HW115940   4.282   5.768   0.177  0.0880  0.0677  0.4839
 4780SOL    HW215941   4.351   5.620   0.180 -0.8838 -0.4290 -0.9485
 4781SOL     OW15942   4.007   1.383   4.396  0.5079 -0.1106  0.1037
 4781SOL    HW115943   3.973   1.372   4.489  0.0148  0.2487 -0.0304
 4781SOL    HW215944   4.095   1.336   4.387  0.6899  0.0784  0.8250
 4782SOL     OW15945   5.936   5.095   0.535  0.0286  0.1314 -0.7555
 4782SOL    HW115946   5.933   5.030   0.610 -1.0415 -0.0101 -0.9087
 4782SOL    HW215947   6.021   5.148   0.540  1.0175 -1.4068 -0.7642
 4783SOL     OW15948   6.644   6.937   4.985 -0.0876  0.0490 -0.4318
 4783SOL    HW115949   6.730   6.940   5.037  0.3765 -0.1003 -1.1701
 4783SOL    HW215950   6.619   6.842   4.968 -0.3694  0.0941 -0.2805
 4784SOL     OW15951   4.135   1.073   6.084  0.5802 -0.1281 -0.3451
 4784SOL    HW115952   4.103   0.983   6.052  0.1849 -0.4536  0.9210
 4784SOL    HW215953   4.235   1.073   6.088  0.6528 -0.0360 -1.6580
 4785SOL     OW15954   5.120   6.965   6.399  0.3987 -0.0828  0.2756
 4785SOL    HW115955   5.160   7.041   6.450  0.3297  0.9570 -1.1316
 4785SOL    HW215956   5.021   6.965   6.410  0.2323  1.0640 -0.9972
 4786SOL     OW15957   7.007   4.386   2.562  0.4353  0.0843 -0.8841
 4786SOL    HW115958   7.038   4.376   2.468  0.2940 -1.5231 -0.7841
 4786SOL    HW215959   7.011   4.298   2.608  1.4058  1.0151  0.9164
 4787SOL     OW15960   6.788   0.269   2.938  0.8045 -0.0566  0.3233
 4787SOL    HW115961   6.715   0.226   2.886  2.2255 -0.0046 -1.8621
 4787SOL    HW215962   6.757   0.357   2.973  0.2204  0.6091 -1.7660
 4788SOL     OW15963   2.574   4.873   6.149 -0.1733  0.3893  0.4683
 4788SOL    HW115964   2.510   4.941   6.112  0.7522  1.7262  1.2086
 4788SOL    HW215965   2.648   4.921   6.197 -0.1197 -1.1895  2.0516
 4789SOL     OW15966   2.690   0.515   3.569  0.4181  0.1846 -0.0639
 4789SOL    HW115967   2.674   0.455   3.648 -0.0912 -0.3462 -0.5634
 4789SOL    HW215968   2.789   0.525   3.555  0.5108  0.0312  0.4500
 4790SOL     OW15969   2.265   3.569   5.310 -0.8068  0.1170  0.4889
 4790SOL    HW115970   2.175   3.556   5.269 -1.3306  1.2163  1.2322
 4790SOL    HW215971   2.285   3.666   5.316  0.5263 -0.1173  0.1692
 4791SOL     OW15972   2.591   1.784   2.922  0.2931 -0.1820 -0.2816
 4791SOL    HW115973   2.586   1.867   2.867 -0.4599 -0.1669 -0.2041
 4791SOL    HW215974   2.499   1.750   2.939  0.2850  1.0685  2.8662
 4792SOL     OW15975   2.494   0.183   2.478  0.2552  0.2916  0.0366
 4792SOL    HW115976   2.516   0.280   2.472  1.7334  0.0751  1.3137
 4792SOL    HW215977   2.454   0.163   2.568 -2.1290  0.0523 -0.9888
 4793SOL     OW15978   4.412   1.826   2.452  0.2481 -0.0754 -0.2090
 4793SOL    HW115979   4.430   1.923   2.465 -0.1552 -0.0152 -0.1117
 4793SOL    HW215980   4.320   1.803   2.485 -0.0480 -0.2887 -1.1468
 4794SOL     OW15981   4.326   5.479   0.945 -0.3477 -0.6915  0.4103
 4794SOL    HW115982   4.338   5.447   1.039  0.0249  1.7574  1.2582
 4794SOL    HW215983   4.345   5.403   0.882  1.2894 -1.9068  2.2354
 4795SOL     OW15984   3.062   2.731   6.833  0.1566  0.4807 -0.3850
 4795SOL    HW115985   3.001   2.653   6.846 -0.3971  1.3016  2.7159
 4795SOL    HW215986   3.151   2.699   6.802 -0.8055 -1.0699 -1.7313
 4796SOL     OW15987   0.684   4.663   6.255 -0.0674 -0.0183  0.3860
 4796SOL    HW115988   0.768   4.672   6.201  0.4121  0.9584  1.2549
 4796SOL    HW215989   0.679   4.738   6.322 -2.0535  0.4165 -0.1954
 4797SOL     OW15990   0.285   1.046   0.898  0.1344  0.1663 -0.2078
 4797SOL    HW115991   0.256   1.053   0.994 -0.6071  1.1492 -0.4794
 4797SOL    HW215992   0.383   1.066   0.892  0.1880  0.1042  0.3499
 4798SOL     OW15993   2.748   5.773   2.049 -0.4608  0.2327 -0.0605
 4798SOL    HW115994   2.810   5.847   2.021 -0.3899 -0.1533 -0.9528
 4798SOL    HW215995   2.793   5.716   2.118 -0.0976  0.3786 -0.1746
 4799SOL     OW15996   5.960   3.059   2.931 -0.2933 -0.5169  0.1843
 4799SOL    HW115997   5.949   3.083   2.835  0.8958 -1.8267 -0.3206
 4799SOL    HW215998   5.873   3.068   2.979 -0.5160  1.9184 -0.5718
 4800SOL     OW15999   4.355   2.119   6.587 -0.1453 -0.0598 -0.0982
 4800SOL    HW116000   4.316   2.210   6.600 -1.0408 -0.4131 -0.2591
 4800SOL    HW216001   4.448   2.128   6.552 -0.4236  0.7896 -0.6578
 4801SOL     OW16002   3.003   2.807   0.623 -0.4600  0.0776  0.0989
 4801SOL    HW116003   2.957   2.730   0.668 -1.2664  0.5252  0.0567
 4801SOL    HW216004   3.089   2.776   0.583 -0.6229 -0.7311  0.3674
 4802SOL     OW16005   3.285   4.485   0.031  0.1964 -0.0549 -0.6543
 4802SOL    HW116006   3.202   4.537   0.012  0.0969  0.0708  0.0816
 4802SOL    HW216007   3.364   4.545   0.025  0.0317  0.3531  0.7800
 4803SOL     OW16008   0.362   3.516   2.505 -0.0596 -0.1392  0.2221
 4803SOL    HW116009   0.436   3.583   2.509 -0.0256 -0.1892  0.4461
 4803SOL    HW216010   0.395   3.428   2.540 -0.0610 -0.3134 -0.2035
 4804SOL     OW16011   5.934   1.050   3.040  0.3934  0.1586 -0.3808
 4804SOL    HW116012   5.887   0.984   3.097  1.3365 -0.0942  0.1139
 4804SOL    HW216013   6.001   1.003   2.982  0.3743  0.5649 -0.7392
 4805SOL     OW16014   6.073   3.353   3.566  0.1381 -0.1685 -0.5276
 4805SOL    HW116015   5.981   3.343   3.529 -0.6883  2.3466  0.6492
 4805SOL    HW216016   6.105   3.265   3.600 -3.0003 -0.6028  1.6828
 4806SOL     OW16017   6.098   1.533   2.624 -0.2050  0.0126  0.1031
 4806SOL    HW116018   6.138   1.583   2.547 -2.6167  1.7790 -0.0886
 4806SOL    HW216019   6.050   1.452   2.589  0.5145 -0.3993  0.0289
 4807SOL     OW16020   2.028   2.420   2.134  0.2129  0.3082  0.3106
 4807SOL    HW116021   2.120   2.385   2.156  1.1054  0.7721 -2.3244
 4807SOL    HW216022   2.009   2.405   2.037 -1.2622  2.9487  0.1103
 4808SOL     OW16023   0.192   4.842   2.619  0.4140 -1.0660 -0.3383
 4808SOL    HW116024   0.208   4.837   2.717  3.1972 -3.6003 -0.7935
 4808SOL    HW216025   0.165   4.752   2.585 -5.0218  0.6205 -1.4252
 4809SOL     OW16026   1.381   6.881   3.722 -0.2521 -0.0156  0.6960
 4809SOL    HW116027   1.422   6.936   3.795 -1.5510  0.1482  1.3427
 4809SOL    HW216028   1.285   6.908   3.711 -0.2251 -0.4326 -0.7004
 4810SOL     OW16029   1.243   6.143   0.183  0.1451 -0.4642 -0.1396
 4810SOL    HW116030   1.256   6.235   0.222  1.8631 -0.5740 -0.3798
 4810SOL    HW216031   1.145   6.120   0.186 -0.5275  1.8634 -1.1901
 4811SOL     OW16032   3.743   2.289   6.352 -0.0289 -0.0463 -0.2301
 4811SOL    HW116033   3.771   2.345   6.430 -0.8734  0.5476 -0.3278
 4811SOL    HW216034   3.798   2.313   6.272  0.3571 -0.1450  0.0064
 4812SOL     OW16035   4.421   5.142   6.317 -0.4560 -0.0914  0.2957
 4812SOL    HW116036   4.510   5.096   6.321 -1.3243 -1.9057 -0.3891
 4812SOL    HW216037   4.414   5.206   6.394  1.3329 -0.0523  0.4904
 4813SOL     OW16038   6.477   0.229   1.101  0.0968 -0.1972 -0.7104
 4813SOL    HW116039   6.543   0.159   1.074  0.7648  0.0793  0.1537
 4813SOL    HW216040   6.442   0.208   1.193 -0.5738 -0.0195 -0.9184
 4814SOL     OW16041   6.950   6.164   3.591  0.5001 -0.2535 -0.0399
 4814SOL    HW116042   6.937   6.238   3.526  0.3590  0.4787  0.7954
 4814SOL    HW216043   6.926   6.077   3.549  1.6883  0.0371 -1.3792
 4815SOL     OW16044   0.547   6.531   1.638  0.1411  0.0183  0.1787
 4815SOL    HW116045   0.491   6.509   1.558  0.9113  0.3127 -0.4538
 4815SOL    HW216046   0.495   6.590   1.700 -0.8271 -1.0062  0.4017
 4816SOL     OW16047   2.172   2.473   0.997 -0.3531  0.3314 -0.0027
 4816SOL    HW116048   2.085   2.479   0.950  0.0040 -1.5281 -0.9582
 4816SOL    HW216049   2.158   2.484   1.096 -1.7957 -0.8623 -0.0494
 4817SOL     OW16050   5.172   4.296   6.322 -0.1342 -0.2038  0.2969
 4817SOL    HW116051   5.224   4.337   6.247 -2.2071  0.6132 -0.7874
 4817SOL    HW216052   5.160   4.199   6.306  0.4953 -0.2731  0.2345
 4818SOL     OW16053   6.491   1.315   4.943 -0.5297 -1.0663  0.6649
 4818SOL    HW116054   6.476   1.264   4.858  2.2440 -0.4883 -0.2841
 4818SOL    HW216055   6.482   1.413   4.925  4.1838 -0.5535 -0.2524
 4819SOL     OW16056   6.421   6.834   0.523 -0.4274  0.6197  0.0585
 4819SOL    HW116057   6.413   6.855   0.620  0.8283  1.9659 -0.0844
 4819SOL    HW216058   6.345   6.775   0.495 -1.1563  0.7145  1.7008
 4820SOL     OW16059   0.961   2.607   1.531  0.6478 -0.4496  0.4839
 4820SOL    HW116060   1.022   2.604   1.610 -0.0455  0.9049  1.1100
 4820SOL    HW216061   1.013   2.626   1.448  1.1965 -0.4065  0.8374
 4821SOL     OW16062   5.335   6.835   0.764  0.1182  0.5354  0.0974
 4821SOL    HW116063   5.390   6.841   0.681  2.1150 -0.4808  1.2711
 4821SOL    HW216064   5.357   6.912   0.824 -0.1647  0.4349  0.3298
 4822SOL     OW16065   5.547   2.326   1.634 -0.3899 -0.3966 -0.1293
 4822SOL    HW116066   5.513   2.236   1.658  0.1513 -0.8266 -0.9268
 4822SOL    HW216067   5.527   2.391   1.708  0.4654 -1.4646  1.0827
 4823SOL     OW16068   1.552   5.046   5.180 -0.0199 -0.2529 -0.4048
 4823SOL    HW116069   1.593   5.088   5.261  0.5741  0.6762 -1.1569
 4823SOL    HW216070   1.608   5.067   5.100  0.2498 -2.4371 -0.8491
 4824SOL     OW16071   2.501   0.269   2.007  0.3083 -0.4753  0.0206
 4824SOL    HW116072   2.505   0.169   2.008 -0.6586 -0.5875 -2.2162
 4824SOL    HW216073   2.469   0.302   2.096 -0.4769 -2.2210  0.4161
 4825SOL     OW16074   6.472   1.592   1.486  0.2756  0.6109  0.5744
 4825SOL    HW116075   6.508   1.543   1.566  1.1337  1.5003  0.7551
 4825SOL    HW216076   6.469   1.530   1.408  0.0885 -0.0861  1.1205
 4826SOL     OW16077   5.926   0.943   1.176 -0.5671  0.6825 -0.1517
 4826SOL    HW116078   5.908   0.997   1.257 -0.8689  0.4271 -0.0476
 4826SOL    HW216079   5.888   0.988   1.096  0.0768  1.1340 -0.2119
 4827SOL     OW16080   1.898   3.132   0.980  0.1215  0.2984  0.3509
 4827SOL    HW116081   1.925   3.036   0.973 -0.3979  0.2586 -1.5035
 4827SOL    HW216082   1.835   3.143   1.057  1.2153 -0.5706  1.4089
 4828SOL     OW16083   0.679   2.739   1.788 -0.3332  0.3195 -0.1887
 4828SOL    HW116084   0.687   2.673   1.713 -1.6514 -1.4927  1.1669
 4828SOL    HW216085   0.608   2.806   1.767  0.1251  0.5560 -1.0385
 4829SOL     OW16086   3.805   5.260   1.707  0.6578 -0.3912  0.6675
 4829SOL    HW116087   3.851   5.208   1.635  1.9243  0.7102  0.6339
 4829SOL    HW216088   3.783   5.199   1.783  1.2135 -1.1599  0.2292
 4830SOL     OW16089   1.465   0.926   2.081 -0.3802  0.2483 -0.3190
 4830SOL    HW116090   1.559   0.893   2.072 -0.6316 -1.0377  1.1474
 4830SOL    HW216091   1.451   0.961   2.173 -0.6080  3.0945 -1.3565
 4831SOL     OW16092   3.229   5.640   4.738 -0.0651 -0.6646  0.2761
 4831SOL    HW116093   3.190   5.650   4.647  0.3841 -0.0020  0.1577
 4831SOL    HW216094   3.294   5.564   4.739  1.3190  0.4860 -0.4270
 4832SOL     OW16095   5.183   3.826   1.277  0.5019  0.4133 -0.1170
 4832SOL    HW116096   5.132   3.742   1.260 -0.7668  1.2226 -0.4036
 4832SOL    HW216097   5.265   3.805   1.330  0.0985 -0.9681 -0.0111
 4833SOL     OW16098   1.339   4.662   3.507  0.0953 -0.0789  0.1628
 4833SOL    HW116099   1.403   4.586   3.520  0.1754  0.0902  0.8390
 4833SOL    HW216100   1.290   4.678   3.593 -1.3389 -0.6380 -0.5257
 4834SOL     OW16101   1.007   0.685   5.297 -0.3192 -0.2331  0.1583
 4834SOL    HW116102   0.912   0.670   5.269 -1.0261  1.7447  1.3167
 4834SOL    HW216103   1.061   0.710   5.217 -1.5198  1.7703 -0.1040
 4835SOL     OW16104   5.950   0.359   6.664  0.2770  1.0647  0.0561
 4835SOL    HW116105   5.900   0.431   6.617 -1.4546  0.5824  1.0694
 4835SOL    HW216106   5.937   0.368   6.763  0.6878 -0.1594  0.2404
 4836SOL     OW16107   3.643   3.207   3.101 -0.5328  0.0648  0.2648
 4836SOL    HW116108   3.713   3.259   3.052  1.2513 -1.8320  0.6829
 4836SOL    HW216109   3.564   3.266   3.119  0.3039  1.8371 -1.5673
 4837SOL     OW16110   4.243   4.115   3.257  0.0145 -0.4283  0.6257
 4837SOL    HW116111   4.207   4.208   3.249  0.6413 -0.2265  0.0557
 4837SOL    HW216112   4.174   4.057   3.300 -1.0937 -0.1046 -0.6289
 4838SOL     OW16113   2.451   4.047   0.832 -0.1201  0.6751 -0.1668
 4838SOL    HW116114   2.445   4.120   0.764  0.8295  0.2892 -0.6843
 4838SOL    HW216115   2.418   4.081   0.920 -1.4521  1.1511 -0.8206
 4839SOL     OW16116   0.308   2.269   2.300  0.2360  0.3818  0.1586
 4839SOL    HW116117   0.331   2.278   2.203 -0.7828  0.8759 -0.0498
 4839SOL    HW216118   0.296   2.172   2.322 -0.5507  0.3236 -0.4688
 4840SOL     OW16119   0.558   3.799   1.957  0.3580 -0.0953  0.1300
 4840SOL    HW116120   0.478   3.812   1.899 -1.1218 -1.7541  1.6798
 4840SOL    HW216121   0.614   3.725   1.920  0.2175 -0.1364 -0.0021
 4841SOL     OW16122   1.091   1.713   4.167 -0.3115  0.3667 -0.1320
 4841SOL    HW116123   1.073   1.759   4.080  0.2031 -0.2674 -0.5791
 4841SOL    HW216124   1.116   1.781   4.236  1.8990  0.6880 -1.1507
 4842SOL     OW16125   6.213   3.225   6.366  0.2541 -0.1742  0.1242
 4842SOL    HW116126   6.170   3.281   6.294  1.1084  0.7349  0.2981
 4842SOL    HW216127   6.244   3.139   6.326 -2.4141 -1.2356  0.1600
 4843SOL     OW16128   6.167   1.884   6.219 -0.2889  0.2334 -0.2868
 4843SOL    HW116129   6.198   1.968   6.175 -1.1406  0.3987 -0.5964
 4843SOL    HW216130   6.243   1.841   6.267  0.1330  1.2634  0.0011
 4844SOL     OW16131   4.495   5.423   1.942 -0.0978 -0.4083  0.4176
 4844SOL    HW116132   4.566   5.357   1.917  0.1174 -0.0819  0.1628
 4844SOL    HW216133   4.523   5.515   1.915 -0.0368 -0.0975  1.5121
 4845SOL     OW16134   6.940   5.349   6.479  0.1281 -0.0994 -0.4450
 4845SOL    HW116135   6.845   5.361   6.450  0.2574  2.0129 -0.1193
 4845SOL    HW216136   6.994   5.315   6.402 -0.8142 -1.0689 -0.7051
 4846SOL     OW16137   6.105   5.166   5.791 -0.0703  0.0493  0.5794
 4846SOL    HW116138   6.097   5.068   5.776  0.6890  0.1047 -0.2799
 4846SOL    HW216139   6.070   5.215   5.711 -1.4936  0.5304  1.4513
 4847SOL     OW16140   1.854   3.240   6.401  0.1054  0.3434  0.4121
 4847SOL    HW116141   1.875   3.188   6.484 -1.6831 -0.7497  0.2476
 4847SOL    HW216142   1.935   3.245   6.343  0.8231 -0.6731  1.2957
 4848SOL     OW16143   4.613   6.100   6.838  0.2778 -0.4334  0.1387
 4848SOL    HW116144   4.694   6.067   6.790 -0.5886 -3.0020  0.3035
 4848SOL    HW216145   4.531   6.058   6.799 -0.5949 -1.3230  2.7418
 4849SOL     OW16146   3.225   2.084   5.846 -0.6507 -0.1998  0.0905
 4849SOL    HW116147   3.251   2.161   5.789 -1.5630  0.7889  0.9602
 4849SOL    HW216148   3.280   2.084   5.930 -0.5997 -0.5420  0.0593
 4850SOL     OW16149   2.349   1.623   3.644  0.2559 -0.3664  0.1619
 4850SOL    HW116150   2.302   1.567   3.713  0.3912  0.7455  1.1912
 4850SOL    HW216151   2.445   1.597   3.640  0.2893 -0.3014  0.5318
 4851SOL     OW16152   2.319   3.877   3.336 -0.6067 -0.6306 -0.2012
 4851SOL    HW116153   2.360   3.824   3.411 -2.7390 -0.3843  1.2031
 4851SOL    HW216154   2.225   3.847   3.321 -1.3591  1.6552 -0.4277
 4852SOL     OW16155   1.626   3.959   0.724 -0.1958  0.2520  0.0514
 4852SOL    HW116156   1.570   3.921   0.798 -2.7971  1.1971 -1.2873
 4852SOL    HW216157   1.632   4.059   0.735  0.8045  0.2153 -0.1248
 4853SOL     OW16158   4.661   0.456   0.566  0.1889 -0.1949 -0.9179
 4853SOL    HW116159   4.659   0.552   0.594 -0.2008 -0.3579 -0.3834
 4853SOL    HW216160   4.611   0.445   0.481 -0.5865 -0.0834 -0.4797
 4854SOL     OW16161   1.715   2.457   4.337  0.3891 -0.3321  0.0323
 4854SOL    HW116162   1.680   2.543   4.373 -0.0851  0.2011 -1.6039
 4854SOL    HW216163   1.810   2.445   4.365  0.2433  0.3579  0.8664
 4855SOL     OW16164   5.938   2.564   6.711  0.6904 -0.4537 -0.3131
 4855SOL    HW116165   5.912   2.613   6.628 -2.8657  0.3465  1.1090
 4855SOL    HW216166   5.877   2.486   6.725  1.0553 -0.4486  1.6411
 4856SOL     OW16167   2.857   6.788   3.083  0.1918 -0.3531  0.3841
 4856SOL    HW116168   2.782   6.779   3.018 -0.0055 -0.3677  0.6132
 4856SOL    HW216169   2.866   6.883   3.110  1.0594 -0.1423 -0.5919
 4857SOL     OW16170   1.920   4.087   1.900  0.5602 -0.2658 -0.4170
 4857SOL    HW116171   1.908   4.186   1.902  2.1380 -0.0583 -0.2244
 4857SOL    HW216172   1.904   4.049   1.991 -1.4575 -0.4179 -0.7699
 4858SOL     OW16173   4.086   0.776   6.023  0.5732  0.3750 -0.2915
 4858SOL    HW116174   4.153   0.711   6.060  0.1162 -0.2669 -0.5805
 4858SOL    HW216175   4.054   0.744   5.934 -1.3769 -0.2407  0.5765
 4859SOL     OW16176   5.477   1.455   1.598  0.0094  0.6345  0.0510
 4859SOL    HW116177   5.573   1.465   1.626  0.6722 -2.6091 -0.7226
 4859SOL    HW216178   5.472   1.452   1.498 -0.5740 -1.3896  0.1106
 4860SOL     OW16179   5.530   2.365   2.081 -0.1726 -0.3392  0.2157
 4860SOL    HW116180   5.495   2.451   2.119  0.3101 -0.6197  1.3490
 4860SOL    HW216181   5.453   2.306   2.055 -0.5123  0.0763  0.2758
 4861SOL     OW16182   6.501   6.239   3.484 -0.1789 -0.1291 -0.0382
 4861SOL    HW116183   6.587   6.226   3.435  0.5510 -1.6183  1.5427
 4861SOL    HW216184   6.436   6.168   3.459 -0.4154  0.1111 -0.1149
 4862SOL     OW16185   5.954   4.967   0.770 -0.7165 -0.1093  0.4499
 4862SOL    HW116186   5.891   5.006   0.837 -0.4081 -1.2244  1.4146
 4862SOL    HW216187   6.011   4.897   0.814 -0.2578 -0.6078 -0.8922
 4863SOL     OW16188   5.398   4.201   1.897 -0.6572 -0.0493  0.4330
 4863SOL    HW116189   5.427   4.248   1.814 -0.6534 -1.6299 -0.4971
 4863SOL    HW216190   5.298   4.195   1.898 -0.7702  1.4931  1.4377
 4864SOL     OW16191   0.295   3.899   6.014  0.1055 -0.4893  0.4492
 4864SOL    HW116192   0.268   3.806   6.042 -1.8422 -0.8755 -2.2456
 4864SOL    HW216193   0.220   3.962   6.032  1.0483  0.3938  1.3617
 4865SOL     OW16194   3.807   6.170   3.494  0.2526  0.0449 -0.2033
 4865SOL    HW116195   3.742   6.112   3.541 -0.2951  0.6446 -0.2025
 4865SOL    HW216196   3.823   6.253   3.548  0.5334  0.1893 -0.5036
 4866SOL     OW16197   2.527   5.968   1.322  0.0013  0.5794  0.1127
 4866SOL    HW116198   2.599   6.025   1.361  1.4296 -1.0454 -0.0162
 4866SOL    HW216199   2.492   5.905   1.391 -1.2014  1.2174  0.1196
 4867SOL     OW16200   5.755   6.150   6.148 -0.2655  0.1079 -0.0163
 4867SOL    HW116201   5.742   6.051   6.147 -1.1850  0.1966 -1.7395
 4867SOL    HW216202   5.800   6.177   6.232  0.1227 -1.7881  0.4325
 4868SOL     OW16203   0.717   4.751   5.447 -0.1142  0.1075  0.1233
 4868SOL    HW116204   0.642   4.753   5.514 -1.6794 -0.6460 -1.5290
 4868SOL    HW216205   0.734   4.656   5.420  0.3670  0.4222 -0.6820
 4869SOL     OW16206   2.073   1.449   1.577 -0.2192  0.6514  0.1343
 4869SOL    HW116207   2.018   1.531   1.593 -0.7996  0.3176 -0.0991
 4869SOL    HW216208   2.161   1.458   1.623 -0.5392  1.1185  0.6622
 4870SOL     OW16209   2.666   6.114   5.788  0.0742  0.2189 -0.0102
 4870SOL    HW116210   2.717   6.144   5.708 -0.4916  0.0349 -0.4488
 4870SOL    HW216211   2.703   6.027   5.821  0.7118  0.6113  0.3125
 4871SOL     OW16212   2.890   3.927   6.492 -0.2390 -0.0405 -0.3152
 4871SOL    HW116213   2.936   4.003   6.538 -0.2933  0.6153 -1.3015
 4871SOL    HW216214   2.953   3.850   6.484  0.6798  0.7823 -1.4981
 4872SOL     OW16215   2.373   1.166   5.295 -0.2084  0.3767 -0.4452
 4872SOL    HW116216   2.320   1.099   5.242  1.5010 -2.4412  1.1726
 4872SOL    HW216217   2.457   1.189   5.244  1.0450 -1.7228  0.5376
 4873SOL     OW16218   2.669   2.861   6.633 -0.0637  0.4225 -0.0208
 4873SOL    HW116219   2.611   2.779   6.627  3.1721 -2.2675  1.9869
 4873SOL    HW216220   2.641   2.916   6.712 -1.6462  0.8412 -0.8194
 4874SOL     OW16221   3.125   0.951   6.462 -0.5795  0.7299  0.0338
 4874SOL    HW116222   3.074   0.932   6.546  1.0578 -0.2361  0.8552
 4874SOL    HW216223   3.064   0.992   6.395 -2.1106  0.8271  1.4241
 4875SOL     OW16224   0.491   6.461   4.992 -0.0138  0.0804  0.2593
 4875SOL    HW116225   0.524   6.394   4.925  0.4919  1.1895 -0.6324
 4875SOL    HW216226   0.542   6.547   4.981 -1.4520  1.0056  0.5896
 4876SOL     OW16227   0.609   6.503   5.324  0.7422 -0.5092 -0.0138
 4876SOL    HW116228   0.553   6.582   5.348  2.5930  0.4265  1.5059
 4876SOL    HW216229   0.551   6.422   5.315 -0.6754  0.0041  3.2919
 4877SOL     OW16230   4.761   1.134   1.945  0.9123 -0.5677 -0.0699
 4877SOL    HW116231   4.831   1.190   1.989  1.0742  0.2687 -1.3335
 4877SOL    HW216232   4.679   1.134   2.001  1.1088  0.4929  0.2493
 4878SOL     OW16233   1.663   6.215   0.282  0.8723  0.1444 -0.3959
 4878SOL    HW116234   1.573   6.257   0.269 -0.3969 -2.5654 -1.0290
 4878SOL    HW216235   1.665   6.167   0.370  1.2639 -0.8336 -0.9339
 4879SOL     OW16236   6.426   4.916   6.289  0.3420  0.2030 -0.4102
 4879SOL    HW116237   6.490   4.983   6.326  0.6401 -0.3745  0.1443
 4879SOL    HW216238   6.447   4.898   6.193  2.2422 -1.3516  0.2286
 4880SOL     OW16239   0.940   4.922   3.772  0.5841 -0.0587  0.9154
 4880SOL    HW116240   0.904   4.880   3.689 -1.4120  2.6717  0.2488
 4880SOL    HW216241   0.875   4.909   3.847  1.0107 -0.0245  1.2984
 4881SOL     OW16242   3.874   1.888   6.934  0.2754  0.4076 -0.6573
 4881SOL    HW116243   3.853   1.842   7.020 -0.0188 -0.3251 -1.1128
 4881SOL    HW216244   3.792   1.893   6.877  0.7539 -0.3496 -1.4541
 4882SOL     OW16245   0.243   1.430   1.811  0.1921 -0.4169 -0.1124
 4882SOL    HW116246   0.282   1.438   1.719 -1.9263  1.4679 -0.9263
 4882SOL    HW216247   0.314   1.396   1.873  2.1123 -0.3992 -2.1379
 4883SOL     OW16248   6.820   4.747   6.310 -0.0499  1.1111  0.0856
 4883SOL    HW116249   6.740   4.740   6.250 -0.4658  1.4335  0.5900
 4883SOL    HW216250   6.807   4.687   6.388  0.6931  0.3550 -0.3631
 4884SOL     OW16251   3.709   5.898   4.292 -0.1809  0.0243  0.0402
 4884SOL    HW116252   3.744   5.824   4.235 -0.3782  0.2752 -0.4188
 4884SOL    HW216253   3.630   5.866   4.344 -0.1511 -0.1381 -0.0154
 4885SOL     OW16254   2.583   5.106   1.781 -0.0886 -0.0551  0.0636
 4885SOL    HW116255   2.647   5.044   1.736 -0.6484 -0.5609 -0.0476
 4885SOL    HW216256   2.491   5.066   1.780 -1.2173  2.2015 -3.0518
 4886SOL     OW16257   1.923   2.846   1.904 -0.4681 -0.0702 -1.0263
 4886SOL    HW116258   1.973   2.785   1.842 -1.2943  0.3809 -2.1740
 4886SOL    HW216259   1.824   2.837   1.887 -0.6332  1.1160 -0.7719
 4887SOL     OW16260   2.130   0.592   4.189 -0.0673  0.0786 -0.6193
 4887SOL    HW116261   2.097   0.604   4.283  0.2745  0.1567 -0.5065
 4887SOL    HW216262   2.221   0.550   4.191 -0.4059 -0.6888 -0.9460
 4888SOL     OW16263   0.236   5.990   1.859  0.5723  0.1974  0.2548
 4888SOL    HW116264   0.259   6.032   1.946  1.3722  0.3227 -0.0092
 4888SOL    HW216265   0.164   5.922   1.872 -1.2951  2.1044  0.6001
 4889SOL     OW16266   5.810   0.350   4.723  0.1617  0.0583  0.4168
 4889SOL    HW116267   5.874   0.420   4.690 -0.2498  0.3889  0.2995
 4889SOL    HW216268   5.729   0.350   4.664  0.0711 -0.3778  0.5440
 4890SOL     OW16269   4.970   1.587   0.751 -0.1505  0.1552  0.6728
 4890SOL    HW116270   4.893   1.637   0.791  0.3649  1.0259  0.6169
 4890SOL    HW216271   5.012   1.530   0.821 -0.6081 -0.0238  0.8024
 4891SOL     OW16272   6.445   0.568   6.340  0.2182  0.1349  0.0102
 4891SOL    HW116273   6.363   0.611   6.301 -0.4962 -1.0368  0.1791
 4891SOL    HW216274   6.493   0.516   6.269  0.9941  1.0444 -0.1556
 4892SOL     OW16275   2.596   3.164   1.740 -0.0032 -0.0874  0.4231
 4892SOL    HW116276   2.538   3.086   1.761  0.1423 -0.8629 -1.8229
 4892SOL    HW216277   2.669   3.137   1.677  1.1926  1.4711  1.0299
 4893SOL     OW16278   4.515   1.935   4.635 -0.0857  1.0013 -0.1997
 4893SOL    HW116279   4.465   1.995   4.572 -0.2845  1.9017  0.7856
 4893SOL    HW216280   4.465   1.849   4.645 -0.2442  0.9974 -0.9739
 4894SOL     OW16281   4.707   6.345   6.437  0.2148  0.0912 -0.2768
 4894SOL    HW116282   4.705   6.252   6.399  1.2351  0.0198 -0.1944
 4894SOL    HW216283   4.630   6.358   6.498 -0.8000 -0.1900 -1.4587
 4895SOL     OW16284   1.154   6.230   3.613  0.1263 -0.9185  0.0963
 4895SOL    HW116285   1.057   6.215   3.594 -0.2344  0.6154  0.5382
 4895SOL    HW216286   1.196   6.145   3.645 -0.6195 -2.0807 -1.8274
 4896SOL     OW16287   0.174   3.195   6.099  0.4041  0.0620  0.2219
 4896SOL    HW116288   0.108   3.217   6.171 -0.1523 -1.3048  0.1693
 4896SOL    HW216289   0.176   3.269   6.032 -2.3826 -0.5574 -0.6917
 4897SOL     OW16290   1.283   1.938   5.548  0.1656 -0.5534  0.3794
 4897SOL    HW116291   1.324   1.968   5.462 -0.3020  1.7117  0.8684
 4897SOL    HW216292   1.202   1.882   5.530 -0.4136  0.5850 -0.6904
 4898SOL     OW16293   3.895   1.328   4.633  0.0360  0.0121 -0.1869
 4898SOL    HW116294   3.910   1.246   4.688  0.4220  1.1531  1.4820
 4898SOL    HW216295   3.870   1.404   4.692 -1.1364  0.9398 -1.7766
 4899SOL     OW16296   2.899   4.110   1.486  0.1313 -0.2435  0.7826
 4899SOL    HW116297   2.862   4.171   1.556  1.0316 -0.4408  1.4518
 4899SOL    HW216298   2.989   4.143   1.458 -0.0766 -0.3543 -0.0539
 4900SOL     OW16299   6.136   6.810   1.604 -0.2877  0.3478  0.2377
 4900SOL    HW116300   6.041   6.778   1.612 -0.5720  1.2472  0.6110
 4900SOL    HW216301   6.139   6.891   1.546  0.2238  0.4719  0.4313
 4901SOL     OW16302   4.232   0.870   3.849 -0.2986  0.2496 -0.1517
 4901SOL    HW116303   4.238   0.771   3.857 -1.2671  0.1488 -0.5405
 4901SOL    HW216304   4.275   0.899   3.764 -1.8103 -0.0680 -1.0602
 4902SOL     OW16305   4.088   2.022   1.380 -0.0215 -0.3876 -0.1704
 4902SOL    HW116306   4.096   2.102   1.322  0.1256 -0.7790 -0.6958
 4902SOL    HW216307   4.040   2.047   1.464 -0.2427  0.1790 -0.4580
 4903SOL     OW16308   3.541   4.796   1.756 -0.1333 -0.3299 -0.3755
 4903SOL    HW116309   3.501   4.710   1.725  0.3115 -0.2499 -1.1901
 4903SOL    HW216310   3.564   4.853   1.677  3.2920 -1.1318 -0.1056
 4904SOL     OW16311   3.914   1.299   3.528 -0.3061 -0.0915  0.5971
 4904SOL    HW116312   3.860   1.382   3.534  0.0575  0.1865  0.1487
 4904SOL    HW216313   3.889   1.248   3.445 -1.2076 -0.9303  1.3553
 4905SOL     OW16314   1.130   4.075   6.023 -0.4399  0.0298 -0.0712
 4905SOL    HW116315   1.082   4.020   6.091  1.9507 -0.9677  0.8851
 4905SOL    HW216316   1.121   4.032   5.933 -1.8642  0.2428 -0.0525
 4906SOL     OW16317   3.690   5.174   4.250  0.1383  0.2010 -0.6908
 4906SOL    HW116318   3.779   5.148   4.289  1.5549  1.8143 -2.6655
 4906SOL    HW216319   3.631   5.093   4.245  2.2093 -1.3511 -1.1378
 4907SOL     OW16320   2.553   0.276   0.952 -0.3400  0.0281  0.0683
 4907SOL    HW116321   2.489   0.342   0.991  0.0945 -0.0269  0.9132
 4907SOL    HW216322   2.644   0.294   0.988  0.2086  0.3370 -1.4068
 4908SOL     OW16323   3.292   6.697   1.994  0.5726  0.2964 -0.1856
 4908SOL    HW116324   3.273   6.728   2.087  0.4816 -0.7772  0.1652
 4908SOL    HW216325   3.390   6.684   1.983  0.7605  2.0388 -0.7742
 4909SOL     OW16326   2.899   3.097   1.378  0.3340 -0.6329  0.4280
 4909SOL    HW116327   2.822   3.133   1.326  0.9352 -1.2599 -0.9426
 4909SOL    HW216328   2.914   3.001   1.354  0.3377 -1.0910  2.1358
 4910SOL     OW16329   6.460   5.482   5.482  0.1233  0.4294  0.0880
 4910SOL    HW116330   6.511   5.538   5.547  0.5951  0.6040 -0.4258
 4910SOL    HW216331   6.362   5.489   5.501  0.1709  1.5011 -0.0186
 4911SOL     OW16332   1.111   4.353   1.497  0.2110  0.3388 -0.3198
 4911SOL    HW116333   1.197   4.302   1.494  0.3885  0.6578 -1.0447
 4911SOL    HW216334   1.104   4.402   1.584  0.4691 -0.1819 -0.0023
 4912SOL     OW16335   0.779   3.905   4.108 -0.5700  0.6020 -0.2746
 4912SOL    HW116336   0.699   3.894   4.166 -0.2641 -1.7998 -0.2247
 4912SOL    HW216337   0.857   3.857   4.148  0.2635  0.8493 -1.5213
 4913SOL     OW16338   0.025   5.617   5.990 -0.6278 -0.2541 -0.6767
 4913SOL    HW116339  -0.013   5.611   6.083 -0.4957  2.3380 -0.3800
 4913SOL    HW216340  -0.050   5.623   5.924 -0.7602  0.4514 -0.4782
 4914SOL     OW16341   3.636   1.441   1.068  0.0023  0.3266 -0.2249
 4914SOL    HW116342   3.579   1.368   1.032  1.2315 -0.6046 -0.3534
 4914SOL    HW216343   3.670   1.416   1.159  1.1946  0.2869 -0.6551
 4915SOL     OW16344   5.362   5.442   0.962 -0.1388 -0.1371 -0.4375
 4915SOL    HW116345   5.358   5.443   0.862 -0.8822  2.4315 -0.4333
 4915SOL    HW216346   5.441   5.496   0.993  1.3687 -2.6241  0.4200
 4916SOL     OW16347   2.438   1.337   1.906  0.4837  0.0494  0.7031
 4916SOL    HW116348   2.438   1.237   1.905  1.2063  0.0371  0.8549
 4916SOL    HW216349   2.384   1.371   1.830  0.2566 -0.4569  0.6321
 4917SOL     OW16350   0.770   1.299   6.917 -0.0493  0.2362 -0.3422
 4917SOL    HW116351   0.694   1.242   6.948  0.7562 -0.5709  0.2069
 4917SOL    HW216352   0.739   1.359   6.844 -1.3009  0.1906  0.1294
 4918SOL     OW16353   4.209   2.191   0.975 -0.1832  0.2165 -0.2739
 4918SOL    HW116354   4.246   2.214   0.885 -0.2606  0.3867 -0.2633
 4918SOL    HW216355   4.233   2.097   0.998 -1.4386 -0.3317 -1.1224
 4919SOL     OW16356   4.590   2.831   2.267 -0.3724 -0.1012  0.3126
 4919SOL    HW116357   4.630   2.753   2.316  0.2002  0.1316  0.2257
 4919SOL    HW216358   4.632   2.839   2.177 -0.7361  0.0518  0.1553
 4920SOL     OW16359   2.163   1.077   1.981  0.2229  0.4313 -0.6482
 4920SOL    HW116360   2.257   1.064   1.949  0.2384  0.0393 -0.4578
 4920SOL    HW216361   2.121   1.154   1.933  1.1133  1.5313  0.2735
 4921SOL     OW16362   3.718   1.706   5.806  0.2296 -0.0668 -0.1367
 4921SOL    HW116363   3.738   1.678   5.712 -0.0530 -0.4406 -0.0893
 4921SOL    HW216364   3.751   1.636   5.869  2.0586  0.9970  0.1749
 4922SOL     OW16365   4.968   0.169   3.335 -0.3103  0.6307  0.3108
 4922SOL    HW116366   5.011   0.246   3.288  0.4081 -0.1139 -0.2847
 4922SOL    HW216367   5.033   0.127   3.397 -0.8242  0.7405  0.9303
 4923SOL     OW16368   4.277   2.462   0.537  0.2118  0.4905 -0.6140
 4923SOL    HW116369   4.266   2.441   0.440  0.8900 -0.6334 -0.4617
 4923SOL    HW216370   4.374   2.464   0.560  0.0803  1.3868 -0.0776
 4924SOL     OW16371   5.124   0.769   0.029  0.6930 -0.1902 -0.2919
 4924SOL    HW116372   5.119   0.829   0.109 -2.0507 -1.4952  0.6317
 4924SOL    HW216373   5.213   0.782  -0.017  1.0630  2.9371  1.0493
 4925SOL     OW16374   2.523   2.872   0.240 -0.2952 -0.0070  0.4288
 4925SOL    HW116375   2.521   2.914   0.331  1.3560 -0.1733  0.5725
 4925SOL    HW216376   2.537   2.943   0.171  1.5290 -0.1474  0.5938
 4926SOL     OW16377   1.139   1.920   0.605  0.0845  0.7098  0.0397
 4926SOL    HW116378   1.188   1.855   0.663 -0.6402  0.6503  0.6012
 4926SOL    HW216379   1.197   1.945   0.527  0.5937 -0.1673  0.1161
 4927SOL     OW16380   1.347   5.437   6.842  0.0461 -0.1677 -0.0762
 4927SOL    HW116381   1.433   5.436   6.893 -0.3117  0.7812  0.5740
 4927SOL    HW216382   1.366   5.433   6.744  0.8285 -0.1128  0.0707
 4928SOL     OW16383   3.051   6.749   4.987 -0.2776  0.2319  0.4167
 4928SOL    HW116384   3.031   6.651   4.994 -0.3771  0.3080  1.4276
 4928SOL    HW216385   3.028   6.793   5.074  0.4173  1.0309  0.2042
 4929SOL     OW16386   2.000   3.110   1.999  0.2553  0.4151 -0.4288
 4929SOL    HW116387   1.941   3.106   2.080 -1.5421  0.3339 -1.6735
 4929SOL    HW216388   1.979   3.033   1.939  0.5623  1.2058 -1.5947
 4930SOL     OW16389   2.874   5.586   2.691 -0.2717  0.1072  0.4051
 4930SOL    HW116390   2.856   5.495   2.652  0.2135 -0.2601  1.0164
 4930SOL    HW216391   2.792   5.619   2.737 -0.3597 -0.1543  0.4400
 4931SOL     OW16392   5.150   0.867   5.511  0.7139 -0.3382  0.1058
 4931SOL    HW116393   5.168   0.964   5.492  0.6911  0.1113  2.1133
 4931SOL    HW216394   5.062   0.858   5.558  1.0137 -1.2669  0.5134
 4932SOL     OW16395   3.542   2.914   3.470  0.2178  0.1822 -0.3307
 4932SOL    HW116396   3.464   2.975   3.483 -1.2096 -1.9242  1.6573
 4932SOL    HW216397   3.537   2.871   3.379 -1.1069 -0.1390 -0.1175
 4933SOL     OW16398   3.675   5.486   1.577  0.0996  0.2874 -0.1945
 4933SOL    HW116399   3.700   5.399   1.619 -1.6552 -0.3331 -0.3168
 4933SOL    HW216400   3.737   5.505   1.501  1.7273  0.1572  1.0532
 4934SOL     OW16401   5.206   5.330   2.578  0.5740  0.3694  0.2800
 4934SOL    HW116402   5.152   5.317   2.661  0.6548  1.2696  0.4816
 4934SOL    HW216403   5.152   5.302   2.499  0.9373 -1.6826  0.7001
 4935SOL     OW16404   4.447   3.030   3.519  0.1745  0.1559 -0.5639
 4935SOL    HW116405   4.429   3.059   3.613  0.2631 -1.5768  0.0239
 4935SOL    HW216406   4.529   2.973   3.517  0.9663  1.2426 -1.9344
 4936SOL     OW16407   5.851   1.837   0.709 -0.3306  0.0643  0.2342
 4936SOL    HW116408   5.882   1.834   0.613  1.4678  0.0037  0.7788
 4936SOL    HW216409   5.850   1.745   0.747 -0.0894  0.1961  0.5628
 4937SOL     OW16410   4.454   6.332   6.573 -0.2031 -0.0461  0.2880
 4937SOL    HW116411   4.398   6.402   6.616 -1.5154  0.7116 -2.4432
 4937SOL    HW216412   4.421   6.241   6.599 -0.0270  0.3462  1.9446
 4938SOL     OW16413   0.907   2.859   1.854 -0.2197  0.5476 -0.2048
 4938SOL    HW116414   0.951   2.818   1.933  1.9547 -1.4563 -2.3051
 4938SOL    HW216415   0.824   2.809   1.831 -0.4515  0.6744  0.3563
 4939SOL     OW16416   5.585   2.644   2.456 -0.4510 -0.5049 -0.2166
 4939SOL    HW116417   5.568   2.708   2.531  0.4340  0.2285 -0.6128
 4939SOL    HW216418   5.630   2.562   2.491 -0.5623 -0.4184  0.1333
 4940SOL     OW16419   3.672   0.987   4.820  1.0614  0.5419  0.4022
 4940SOL    HW116420   3.674   0.893   4.853  1.4206 -0.0351 -1.1737
 4940SOL    HW216421   3.595   1.035   4.862 -0.9081 -1.2981 -0.8736
 4941SOL     OW16422   0.652   6.927   3.820 -0.3674  0.1714 -0.0272
 4941SOL    HW116423   0.709   6.925   3.738 -0.2222 -1.0405  0.0795
 4941SOL    HW216424   0.625   7.021   3.839 -0.7673  0.4357 -1.7106
 4942SOL     OW16425   0.902   5.928   3.916 -0.1815 -0.2969 -0.0186
 4942SOL    HW116426   0.807   5.943   3.889 -0.2695 -1.9970 -0.7757
 4942SOL    HW216427   0.909   5.843   3.968  1.0150 -0.5597 -0.5788
 4943SOL     OW16428   1.535   0.978   4.206  0.1917  0.4203  0.3033
 4943SOL    HW116429   1.628   0.950   4.185  0.1995  0.4962  0.2341
 4943SOL    HW216430   1.480   0.898   4.230  0.0960  0.2845 -0.3381
 4944SOL     OW16431   6.186   2.342   0.499  0.1309 -0.0197  0.5808
 4944SOL    HW116432   6.249   2.281   0.547 -0.2411 -0.7820  0.1045
 4944SOL    HW216433   6.162   2.303   0.410 -0.4338  0.6193  0.4432
 4945SOL     OW16434   0.201   0.506   2.459  0.4267 -0.5101 -0.1655
 4945SOL    HW116435   0.161   0.414   2.454  1.7857 -1.0976 -0.5896
 4945SOL    HW216436   0.295   0.504   2.426  0.3460  1.1365 -0.5998
 4946SOL     OW16437   0.412   5.352   6.873 -0.3026 -0.4261  0.7783
 4946SOL    HW116438   0.474   5.425   6.900 -1.2323  0.2850  1.0176
 4946SOL    HW216439   0.318   5.385   6.875 -0.5884 -0.9925 -1.1526
 4947SOL     OW16440   5.701   3.838   5.761  0.4013  0.2822  0.6649
 4947SOL    HW116441   5.776   3.771   5.756  0.5755  0.2698  2.6358
 4947SOL    HW216442   5.620   3.794   5.799  0.3550  1.0433  1.4704
 4948SOL     OW16443   2.723   4.639   6.391 -0.0873 -0.1457 -0.0191
 4948SOL    HW116444   2.665   4.686   6.324 -0.4263  0.6638  0.8122
 4948SOL    HW216445   2.668   4.569   6.438 -0.6859  1.1898  1.3626
 4949SOL     OW16446   5.960   4.332   0.344 -0.1242  0.4220  0.4158
 4949SOL    HW116447   5.933   4.386   0.265  0.6591  0.1032 -0.0781
 4949SOL    HW216448   5.940   4.235   0.327  0.6520  0.2708  0.3385
 4950SOL     OW16449   6.147   2.767   0.724 -0.0053 -0.3639  0.3867
 4950SOL    HW116450   6.196   2.746   0.640 -1.2574  1.4003 -0.8482
 4950SOL    HW216451   6.110   2.683   0.763  2.9752 -1.6084  0.7945
 4951SOL     OW16452   1.601   4.688   4.758  0.1603  0.5180 -0.0623
 4951SOL    HW116453   1.597   4.658   4.853  0.0278  1.2260  0.1592
 4951SOL    HW216454   1.569   4.783   4.751 -1.8336 -0.1788 -1.1165
 4952SOL     OW16455   6.637   5.904   2.374  0.6281  0.5000  0.0368
 4952SOL    HW116456   6.601   5.941   2.460 -0.0569 -0.0053 -0.0252
 4952SOL    HW216457   6.703   5.832   2.394 -1.6211 -1.6634  0.2017
 4953SOL     OW16458   5.940   2.809   1.973 -0.3320  0.0813 -0.4348
 4953SOL    HW116459   5.953   2.906   1.950 -2.0494  0.1996 -1.0596
 4953SOL    HW216460   5.860   2.799   2.032 -0.6441 -1.0301 -1.0195
 4954SOL     OW16461   4.585   5.838   4.763 -0.3324 -0.1048 -0.0617
 4954SOL    HW116462   4.498   5.887   4.754 -0.0555  0.6377  1.0847
 4954SOL    HW216463   4.591   5.799   4.855  0.8095  0.3976  0.0917
 4955SOL     OW16464   6.760   1.521   0.915 -0.0310  0.5967 -0.1822
 4955SOL    HW116465   6.843   1.486   0.870 -1.5528 -1.1409 -1.8069
 4955SOL    HW216466   6.708   1.577   0.851 -1.7255 -1.0564 -0.3413
 4956SOL     OW16467   2.683   6.477   1.632  0.3673  0.5587 -0.3836
 4956SOL    HW116468   2.722   6.508   1.719 -0.1394  1.0504 -0.3284
 4956SOL    HW216469   2.695   6.548   1.563 -2.3205  1.6538  0.1701
 4957SOL     OW16470   1.093   3.972   1.426  0.4191  0.4491  0.5896
 4957SOL    HW116471   1.084   3.881   1.385 -1.4304  0.9126 -0.1514
 4957SOL    HW216472   1.031   3.979   1.504  0.7968  0.9608  0.8423
 4958SOL     OW16473   6.529   0.144   3.942  0.2830 -0.0949  0.2185
 4958SOL    HW116474   6.436   0.161   3.975  0.1122  0.2554 -0.4376
 4958SOL    HW216475   6.592   0.205   3.990  0.0668  0.2548  0.0602
 4959SOL     OW16476   0.387   4.726   3.503 -0.4565  0.4911  0.5677
 4959SOL    HW116477   0.302   4.728   3.451  0.4215  1.9595 -0.9181
 4959SOL    HW216478   0.434   4.814   3.494  2.6124 -1.1344 -1.0812
 4960SOL     OW16479   6.194   1.641   2.363 -0.7035 -0.6030 -0.1360
 4960SOL    HW116480   6.274   1.624   2.421  0.2302 -0.7116 -1.4307
 4960SOL    HW216481   6.175   1.739   2.361 -0.9348 -0.6214  0.5698
 4961SOL     OW16482   6.842   2.731   2.896  0.3853  0.1780  0.0201
 4961SOL    HW116483   6.804   2.817   2.860  0.2987 -0.1176 -0.6251
 4961SOL    HW216484   6.930   2.713   2.852  1.4592  1.0117  1.7353
 4962SOL     OW16485   6.649   5.741   1.358  0.8287 -0.2870  0.2108
 4962SOL    HW116486   6.598   5.656   1.365  2.7143 -1.4290  0.9512
 4962SOL    HW216487   6.631   5.798   1.438  0.8639 -0.7809  0.5748
 4963SOL     OW16488   5.388   1.277   0.763  0.3117  0.6289 -0.0088
 4963SOL    HW116489   5.433   1.309   0.680  1.3893  0.5497  0.5302
 4963SOL    HW216490   5.409   1.180   0.777  0.4677  0.7386  0.5557
 4964SOL     OW16491   3.079   5.650   3.133  0.4406 -0.2859 -0.1856
 4964SOL    HW116492   3.065   5.722   3.065  1.0321  0.3917  0.3911
 4964SOL    HW216493   3.129   5.688   3.211 -0.6639 -0.9072  0.8629
 4965SOL     OW16494   0.569   3.687   2.499 -0.2029 -0.3204 -0.2850
 4965SOL    HW116495   0.581   3.690   2.400  0.9577 -2.2047 -0.2456
 4965SOL    HW216496   0.659   3.686   2.543 -0.6914  1.6211  0.8862
 4966SOL     OW16497   6.496   1.554   4.196 -0.2506 -0.0325  0.1050
 4966SOL    HW116498   6.580   1.592   4.157 -0.1493 -0.1193  0.2356
 4966SOL    HW216499   6.450   1.625   4.250  1.6972 -0.9126  3.2402
 4967SOL     OW16500   2.282   5.633   5.686  0.0816  0.2467  0.2517
 4967SOL    HW116501   2.217   5.558   5.699 -0.9502  0.8330 -1.3071
 4967SOL    HW216502   2.244   5.717   5.725  0.0163  0.5304 -0.4105
 4968SOL     OW16503   1.603   1.812   0.649 -0.2649 -0.2452  0.3573
 4968SOL    HW116504   1.687   1.866   0.644  0.1436 -0.7976  1.0660
 4968SOL    HW216505   1.614   1.740   0.717 -0.9052 -1.0507 -0.3727
 4969SOL     OW16506   6.616   0.443   6.133  0.5726 -0.4310  0.2029
 4969SOL    HW116507   6.649   0.378   6.065 -1.4507  0.7822 -2.1324
 4969SOL    HW216508   6.665   0.530   6.122  0.5429 -0.3576  0.6266
 4970SOL     OW16509   4.188   0.801   4.269 -0.3193  0.0425 -0.1556
 4970SOL    HW116510   4.188   0.881   4.208 -0.9375  1.6272  1.8289
 4970SOL    HW216511   4.143   0.724   4.223  1.0364  0.5256 -2.4432
 4971SOL     OW16512   0.716   2.883   3.937  0.1843 -0.1141  0.4565
 4971SOL    HW116513   0.724   2.888   3.838  0.5014 -1.7075  0.3689
 4971SOL    HW216514   0.769   2.957   3.979 -0.5532  1.0289 -0.5502
 4972SOL     OW16515   0.026   1.779   0.383  0.3931 -0.7181 -0.0349
 4972SOL    HW116516  -0.042   1.834   0.431 -2.4546 -2.7315 -1.4200
 4972SOL    HW216517   0.115   1.824   0.387 -1.4561  3.3920 -0.2088
 4973SOL     OW16518   5.855   3.911   3.100 -0.0418  0.0952  0.0874
 4973SOL    HW116519   5.896   3.872   3.182 -0.9621  1.3992  1.2163
 4973SOL    HW216520   5.897   3.999   3.080 -0.0026 -0.0965 -0.7087
 4974SOL     OW16521   4.339   5.487   6.258  0.1848 -0.0015 -0.2278
 4974SOL    HW116522   4.267   5.556   6.260  0.1944  0.0098 -0.2645
 4974SOL    HW216523   4.391   5.491   6.343  0.3110  0.1725 -0.3103
 4975SOL     OW16524   7.011   3.964   1.587 -0.3552  0.7347  0.0642
 4975SOL    HW116525   6.972   3.956   1.495 -0.2274 -2.1339  0.1656
 4975SOL    HW216526   6.985   3.884   1.641  0.8797  1.5978  2.0313
 4976SOL     OW16527   5.806   3.966   4.180  0.0095  0.4270 -0.4162
 4976SOL    HW116528   5.814   4.060   4.148 -2.2969  1.3562  1.4711
 4976SOL    HW216529   5.761   3.910   4.109  0.9336  0.8280 -1.3416
 4977SOL     OW16530   4.122   0.997   2.150 -0.6965  0.0325  0.3411
 4977SOL    HW116531   4.040   0.958   2.190 -0.8999 -0.4865 -0.5652
 4977SOL    HW216532   4.132   1.092   2.181 -0.6511 -0.4489  1.8740
 4978SOL     OW16533   3.901   3.576   0.514 -0.0469 -0.2343  0.1365
 4978SOL    HW116534   3.999   3.580   0.531 -0.1824  0.3763  0.8319
 4978SOL    HW216535   3.863   3.669   0.518 -0.4786 -0.3397 -1.1890
 4979SOL     OW16536   4.281   3.049   0.565 -0.0174  0.5649 -0.0759
 4979SOL    HW116537   4.369   3.073   0.525 -0.3443  1.5182 -0.2460
 4979SOL    HW216538   4.249   2.963   0.525  0.6763  0.3810 -0.2519
 4980SOL     OW16539   0.129   3.701   0.292 -0.2002 -0.4320  0.0699
 4980SOL    HW116540   0.086   3.721   0.203  0.5122  1.1878  0.0631
 4980SOL    HW216541   0.216   3.749   0.299  0.1251 -1.1498  1.3689
 4981SOL     OW16542   1.349   4.727   5.401  0.1175 -0.0753  0.1985
 4981SOL    HW116543   1.440   4.769   5.405 -0.5105  1.2950  2.6687
 4981SOL    HW216544   1.282   4.795   5.371 -0.4534 -0.2057  1.1163
 4982SOL     OW16545   6.834   2.276   2.392  0.0660 -0.1294 -0.2745
 4982SOL    HW116546   6.907   2.343   2.390  0.4435 -0.5380 -0.3016
 4982SOL    HW216547   6.774   2.294   2.470  1.3223 -0.9655  0.9277
 4983SOL     OW16548   2.848   5.191   5.007 -0.0979 -0.0017  0.0910
 4983SOL    HW116549   2.940   5.223   4.985 -0.3666 -0.5777 -2.1351
 4983SOL    HW216550   2.786   5.211   4.931 -1.4623 -1.0138  0.8805
 4984SOL     OW16551   4.575   6.236   4.548  0.4229  0.5262  1.0269
 4984SOL    HW116552   4.580   6.209   4.452  0.2289 -0.3396  1.2511
 4984SOL    HW216553   4.651   6.194   4.598  1.2587  1.9692  1.0367
 4985SOL     OW16554   6.211   0.944   1.205  0.4642 -0.0465 -0.4054
 4985SOL    HW116555   6.113   0.937   1.190  0.4671 -0.1025 -0.3942
 4985SOL    HW216556   6.235   0.900   1.292  0.4203  0.4390 -0.1400
 4986SOL     OW16557   3.718   1.346   1.305 -0.5784  0.2254 -0.0743
 4986SOL    HW116558   3.795   1.282   1.309  0.0618  0.6951 -2.9599
 4986SOL    HW216559   3.637   1.303   1.346  0.6114 -1.1520  0.9571
 4987SOL     OW16560   2.490   4.149   7.002  0.3711  0.0592  0.4504
 4987SOL    HW116561   2.478   4.185   6.910 -0.6907  0.7498  0.8426
 4987SOL    HW216562   2.423   4.077   7.019  0.3680  0.1396  0.7863
 4988SOL     OW16563   1.614   2.027   6.259  0.2025 -0.7391  0.0141
 4988SOL    HW116564   1.611   2.005   6.356  1.7886  2.5023  0.9253
 4988SOL    HW216565   1.523   2.057   6.229 -0.4334 -2.3052  0.3027
 4989SOL     OW16566   6.117   0.514   2.741 -0.6888 -0.7411  0.1132
 4989SOL    HW116567   6.107   0.567   2.825 -2.4468 -0.1269 -0.4522
 4989SOL    HW216568   6.177   0.563   2.678  0.1999 -0.9496  0.7626
 4990SOL     OW16569   4.448   0.670   4.219  0.0477 -0.2468 -0.0026
 4990SOL    HW116570   4.431   0.592   4.159  1.1397  0.1943 -0.9290
 4990SOL    HW216571   4.361   0.712   4.245 -0.4716 -0.6956 -0.9543
 4991SOL     OW16572   5.694   5.747   5.338 -0.2979  0.2642  0.1101
 4991SOL    HW116573   5.700   5.764   5.437  1.1138  1.6912 -0.1745
 4991SOL    HW216574   5.744   5.819   5.290 -0.9650 -0.4221 -1.6560
 4992SOL     OW16575   3.450   5.594   1.488  0.2726  0.2333  0.4975
 4992SOL    HW116576   3.473   5.686   1.459  1.7417 -0.1046  0.5039
 4992SOL    HW216577   3.529   5.553   1.534 -0.4054 -0.9656  0.6357
 4993SOL     OW16578   2.067   2.716   4.673  0.6859 -0.7595 -0.4349
 4993SOL    HW116579   2.134   2.786   4.698  0.5053 -0.8053  0.1862
 4993SOL    HW216580   2.009   2.696   4.752 -1.8262  1.2216 -1.6361
 4994SOL     OW16581   1.173   4.665   2.412  0.0017 -0.0113 -0.4404
 4994SOL    HW116582   1.220   4.686   2.497 -2.3912  0.0926  0.9622
 4994SOL    HW216583   1.205   4.577   2.376  1.2231  0.0642  0.4166
 4995SOL     OW16584   0.408   0.118   6.834 -0.1249 -0.3668 -0.1549
 4995SOL    HW116585   0.481   0.185   6.831 -0.3689 -0.1059 -0.3283
 4995SOL    HW216586   0.350   0.134   6.915  0.3567 -0.9474  0.3208
 4996SOL     OW16587   0.080   4.155   2.697 -0.3660 -0.7897 -0.1227
 4996SOL    HW116588   0.048   4.128   2.788  0.3122  0.1240  0.4066
 4996SOL    HW216589   0.043   4.093   2.628 -1.8266 -0.8146  0.6506
 4997SOL     OW16590   4.136   6.930   6.924  0.6436 -0.2672 -0.0977
 4997SOL    HW116591   4.229   6.926   6.887  0.8020 -0.5170  0.3102
 4997SOL    HW216592   4.139   6.911   7.023  0.0890 -0.9271 -0.1964
 4998SOL     OW16593   2.113   1.938   5.995  0.4954 -0.4421  0.1671
 4998SOL    HW116594   2.038   1.982   6.044  0.2177  0.3899 -0.9526
 4998SOL    HW216595   2.083   1.848   5.961 -0.4554  0.3985 -1.3352
 4999SOL     OW16596   4.994   4.524   0.294 -0.0813 -0.1931 -0.6945
 4999SOL    HW116597   5.036   4.485   0.375 -1.2213 -0.4721 -0.2158
 4999SOL    HW216598   5.047   4.499   0.213  1.4017  0.5704 -0.0064
 5000SOL     OW16599   6.358   6.174   1.334 -0.5884 -0.3080 -0.1274
 5000SOL    HW116600   6.384   6.270   1.324 -1.9524  0.0485 -0.4407
 5000SOL    HW216601   6.287   6.152   1.268 -1.5539 -1.0601  1.1287
 5001SOL     OW16602   5.922   1.641   1.929  0.0090 -0.0825 -0.6290
 5001SOL    HW116603   5.823   1.653   1.937 -0.1215 -0.8602 -0.9889
 5001SOL    HW216604   5.960   1.614   2.017 -0.3214 -1.2394 -0.8283
 5002SOL     OW16605   6.577   6.948   3.123 -0.5296 -0.1158  0.1906
 5002SOL    HW116606   6.521   6.999   3.188  0.6836 -1.2259  2.1751
 5002SOL    HW216607   6.534   6.860   3.104 -0.4514 -0.1395  0.1218
 5003SOL     OW16608   3.869   5.793   2.201 -0.0314  0.4138  0.0306
 5003SOL    HW116609   3.967   5.802   2.183 -0.1697  0.8598 -0.5242
 5003SOL    HW216610   3.852   5.805   2.299  0.4335  0.6832  0.0814
 5004SOL     OW16611   1.580   2.174   0.746  0.0755  0.3908  0.2638
 5004SOL    HW116612   1.592   2.087   0.696 -1.8859  1.2544 -1.8949
 5004SOL    HW216613   1.542   2.155   0.836 -2.1813 -0.9977 -0.8737
 5005SOL     OW16614   0.312   4.637   1.140  0.5968  0.2365 -0.5452
 5005SOL    HW116615   0.318   4.538   1.145 -0.0911  0.2389  0.6364
 5005SOL    HW216616   0.393   4.673   1.092  0.0313 -0.9812 -2.5515
 5006SOL     OW16617   5.866   6.832   6.774 -0.9832 -0.0120 -1.0819
 5006SOL    HW116618   5.877   6.917   6.824  0.4710 -0.0802 -1.2357
 5006SOL    HW216619   5.816   6.849   6.689 -2.8106  0.2293 -0.0017
 5007SOL     OW16620   0.533   6.121   3.532 -0.3370 -0.2143  0.6301
 5007SOL    HW116621   0.438   6.146   3.551 -0.5503  1.2213 -1.9260
 5007SOL    HW216622   0.541   6.087   3.439  1.6774 -0.2564  0.7735
 5008SOL     OW16623   1.303   6.600   3.724 -0.2815  0.2870 -0.1371
 5008SOL    HW116624   1.321   6.696   3.743 -1.7575  0.4541  0.5201
 5008SOL    HW216625   1.300   6.548   3.809 -0.5528 -0.1450 -0.4026
 5009SOL     OW16626   2.537   0.212   6.311 -0.5567  0.2723 -0.3820
 5009SOL    HW116627   2.440   0.234   6.321 -0.4865 -0.7249  4.5764
 5009SOL    HW216628   2.551   0.114   6.321  1.1231  0.7213  3.4267
 5010SOL     OW16629   2.864   0.631   4.892 -0.1434  0.2001  0.2836
 5010SOL    HW116630   2.857   0.648   4.991 -2.3230  0.6542  0.1064
 5010SOL    HW216631   2.960   0.634   4.865  0.6630 -1.3548  2.6085
 5011SOL     OW16632   5.565   3.037   5.772 -0.3372  0.3722  0.5615
 5011SOL    HW116633   5.517   2.983   5.702 -0.9019  1.2484  0.2524
 5011SOL    HW216634   5.630   3.098   5.728 -2.0261  2.3066  0.5717
 5012SOL     OW16635   2.398   5.788   4.535 -0.4160 -0.0596 -0.0571
 5012SOL    HW116636   2.406   5.826   4.628 -3.3005 -1.3288  0.8032
 5012SOL    HW216637   2.487   5.751   4.508  1.2936  2.8930  0.9415
 5013SOL     OW16638   2.213   4.827   0.882  0.4078 -0.3025 -0.2882
 5013SOL    HW116639   2.245   4.736   0.857  1.5555 -0.0296  0.0835
 5013SOL    HW216640   2.247   4.850   0.973 -0.6140  0.1528 -0.0171
 5014SOL     OW16641   3.975   2.905   1.231  0.0480 -0.2507  0.3764
 5014SOL    HW116642   3.931   2.853   1.304 -1.8432  0.2420 -0.3488
 5014SOL    HW216643   4.049   2.850   1.191 -1.7627 -2.3801 -0.2697
 5015SOL     OW16644   0.438   3.907   2.918  0.1713 -0.7178 -0.1792
 5015SOL    HW116645   0.399   3.979   2.975 -0.4914 -1.0683 -0.1884
 5015SOL    HW216646   0.527   3.880   2.955  0.1013 -0.3996  0.2286
 5016SOL     OW16647   6.546   4.792   2.118  0.1765  0.0924  0.0126
 5016SOL    HW116648   6.467   4.753   2.071 -0.9885  1.2995  0.9130
 5016SOL    HW216649   6.591   4.720   2.171 -0.0842 -0.6898 -0.7999
 5017SOL     OW16650   0.645   4.504   2.844 -0.2421 -0.1816 -0.1488
 5017SOL    HW116651   0.584   4.582   2.829  0.1478 -0.3608 -3.5373
 5017SOL    HW216652   0.739   4.536   2.852  0.0415 -0.2497 -2.5300
 5018SOL     OW16653   3.596   5.400   4.999  0.5938 -0.3310  0.4419
 5018SOL    HW116654   3.546   5.325   4.956  0.6501 -0.6640  0.9482
 5018SOL    HW216655   3.674   5.426   4.942  0.7758 -0.8887  0.4335
 5019SOL     OW16656   2.561   3.003   6.054  0.2116  0.4142 -0.1047
 5019SOL    HW116657   2.596   3.027   5.964 -0.8466 -1.9014 -1.2180
 5019SOL    HW216658   2.461   3.006   6.053  0.1774  0.0341  0.9072
 5020SOL     OW16659   4.136   1.656   5.667 -0.6529  0.2385  0.1589
 5020SOL    HW116660   4.167   1.637   5.574 -0.7731  0.4440  0.0760
 5020SOL    HW216661   4.158   1.579   5.726  0.0945  0.4130  0.1197
 5021SOL     OW16662   1.927   0.900   3.901 -0.1846  0.3560  0.7696
 5021SOL    HW116663   1.924   0.999   3.885  0.9823  0.4255  0.8919
 5021SOL    HW216664   1.834   0.864   3.909 -0.6659  1.2116 -0.7044
 5022SOL     OW16665   2.203   2.552   0.134 -0.3170 -0.0452 -0.7120
 5022SOL    HW116666   2.292   2.599   0.132  0.8615 -1.6466  3.3922
 5022SOL    HW216667   2.130   2.620   0.141  0.9730  1.2943  0.4529
 5023SOL     OW16668   6.806   3.068   0.878  0.2711 -0.6114  0.1334
 5023SOL    HW116669   6.732   3.113   0.828  0.7278 -0.9036 -0.8240
 5023SOL    HW216670   6.893   3.086   0.832  0.7154 -0.8079  0.8831
 5024SOL     OW16671   1.286   1.556   3.351 -0.5164  0.2673 -0.2166
 5024SOL    HW116672   1.285   1.458   3.370 -0.5191  0.5179  1.2047
 5024SOL    HW216673   1.192   1.588   3.339 -0.9211  0.6868  2.9870
 5025SOL     OW16674   5.854   1.466   3.735 -0.4422 -0.5102 -0.5352
 5025SOL    HW116675   5.803   1.538   3.781  0.4421  0.0723 -0.4566
 5025SOL    HW216676   5.926   1.432   3.796 -0.7386 -1.3433 -0.6363
 5026SOL     OW16677   0.173   2.901   0.270  0.6304 -0.1608 -0.2298
 5026SOL    HW116678   0.149   2.994   0.241 -0.5635 -0.8197 -1.4348
 5026SOL    HW216679   0.185   2.842   0.190  0.0536 -1.3605  0.5380
 5027SOL     OW16680   1.897   0.295   3.680 -0.4021  0.1603  0.3070
 5027SOL    HW116681   1.993   0.267   3.681  0.3025  2.4053  2.0465
 5027SOL    HW216682   1.852   0.257   3.598  1.4956 -2.2656  0.2717
 5028SOL     OW16683   5.566   1.271   4.353  0.3402  0.0807  0.2425
 5028SOL    HW116684   5.635   1.292   4.284  0.3711  1.1629  0.5831
 5028SOL    HW216685   5.510   1.352   4.370 -2.8753 -1.4272 -2.0459
 5029SOL     OW16686   6.700   5.203   5.002 -0.2977 -0.3539  0.1384
 5029SOL    HW116687   6.688   5.232   4.907  0.8749 -1.7710 -0.4779
 5029SOL    HW216688   6.786   5.153   5.011 -0.7040 -0.8130  1.8310
 5030SOL     OW16689   3.329   2.402   5.137 -0.1352  0.4006  0.0273
 5030SOL    HW116690   3.359   2.466   5.208 -1.1745  0.3225  0.5640
 5030SOL    HW216691   3.357   2.436   5.048  1.2218  0.4893  0.4663
 5031SOL     OW16692   3.097   2.400   0.705 -0.1327  0.1992  0.2704
 5031SOL    HW116693   3.196   2.388   0.699 -0.2072 -0.1364 -0.4307
 5031SOL    HW216694   3.061   2.428   0.616 -0.7257 -0.1265  0.4011
 5032SOL     OW16695   1.026   3.209   0.076 -0.1751 -0.7016  0.0062
 5032SOL    HW116696   1.094   3.153   0.028  0.5412 -0.4269  0.6713
 5032SOL    HW216697   1.063   3.236   0.165 -1.1103 -0.4238  0.3188
 5033SOL     OW16698   2.308   3.332   5.800  0.1163  0.2121  0.2117
 5033SOL    HW116699   2.346   3.323   5.708 -1.2292 -1.0904 -0.2573
 5033SOL    HW216700   2.226   3.277   5.807 -0.6423  1.4677  1.7647
 5034SOL     OW16701   0.047   2.685   2.750  0.0172 -0.1761  0.4111
 5034SOL    HW116702   0.136   2.663   2.791  0.6681  2.5973  0.6742
 5034SOL    HW216703   0.061   2.718   2.657 -0.7907 -0.0314  0.3326
 5035SOL     OW16704   5.636   2.151   6.820 -0.3385  0.4504  0.1476
 5035SOL    HW116705   5.590   2.101   6.747 -0.0839  0.1028  0.2219
 5035SOL    HW216706   5.688   2.227   6.781 -0.0603  0.1605 -0.0597
 5036SOL     OW16707   3.626   1.100   1.487 -0.0692  0.1005  0.6003
 5036SOL    HW116708   3.623   1.095   1.587 -0.4320  0.9182  0.6340
 5036SOL    HW216709   3.542   1.142   1.454  0.6996  1.2227  0.0418
 5037SOL     OW16710   1.131   3.221   1.223  0.1918  0.3095  0.5399
 5037SOL    HW116711   1.050   3.168   1.200  1.3066 -0.4293 -1.9830
 5037SOL    HW216712   1.182   3.243   1.140  1.1563  3.1551  1.7390
 5038SOL     OW16713   2.795   0.623   0.391 -0.0787  0.4857 -0.0135
 5038SOL    HW116714   2.702   0.611   0.427 -0.5804  0.8377 -1.1558
 5038SOL    HW216715   2.795   0.697   0.323  0.6394 -0.7809 -1.4383
 5039SOL     OW16716   4.747   5.384   5.755 -0.3389  0.0882  0.4206
 5039SOL    HW116717   4.795   5.357   5.838 -2.8273 -0.9026  1.6319
 5039SOL    HW216718   4.758   5.312   5.686  0.3078  0.1058  0.5000
 5040SOL     OW16719   3.759   6.949   2.320  0.0485 -0.4527  0.3689
 5040SOL    HW116720   3.723   6.957   2.413 -1.4723  0.8200 -0.2812
 5040SOL    HW216721   3.683   6.946   2.255  1.0166 -2.9581 -0.7802
 5041SOL     OW16722   5.375   4.188   1.030  0.4214  0.3359  0.5662
 5041SOL    HW116723   5.301   4.122   1.018  2.0789 -1.4774 -0.1773
 5041SOL    HW216724   5.434   4.159   1.106  0.0456  2.1091  1.5853
 5042SOL     OW16725   2.157   0.199   3.603 -0.2678  0.3717 -0.1662
 5042SOL    HW116726   2.246   0.232   3.573 -0.8642  0.0835 -2.4882
 5042SOL    HW216727   2.160   0.100   3.615 -0.2706  0.3674 -0.2021
 5043SOL     OW16728   1.768   5.846   2.715  0.3511 -0.2378 -0.3483
 5043SOL    HW116729   1.769   5.748   2.734  0.4307 -0.5431 -1.8217
 5043SOL    HW216730   1.859   5.884   2.733  0.2127 -0.3423  0.6120
 5044SOL     OW16731   5.245   0.985   3.240  0.0790 -0.3346 -0.0206
 5044SOL    HW116732   5.345   0.979   3.232  0.0234 -0.3639 -0.7759
 5044SOL    HW216733   5.216   1.079   3.220 -0.2178 -0.8081 -2.0460
 5045SOL     OW16734   4.668   0.438   3.830 -0.0876  0.2582 -0.3216
 5045SOL    HW116735   4.707   0.508   3.890 -1.2180  1.8160 -1.3058
 5045SOL    HW216736   4.703   0.348   3.856  0.7471  1.0668  1.5578
 5046SOL     OW16737   1.242   5.351   2.959  0.5162  0.3643 -0.1969
 5046SOL    HW116738   1.161   5.356   2.901  1.0233  1.1433 -0.8457
 5046SOL    HW216739   1.213   5.346   3.055 -0.2934  1.0866 -0.3907
 5047SOL     OW16740   6.848   6.719   5.272 -0.2577  0.0708 -0.3924
 5047SOL    HW116741   6.794   6.734   5.355 -0.8107  0.0168 -0.7381
 5047SOL    HW216742   6.888   6.627   5.275 -0.0375  0.1754 -0.0537
 5048SOL     OW16743   3.774   4.440   5.108 -0.6946 -0.2785  0.6231
 5048SOL    HW116744   3.768   4.422   5.206 -0.1012 -0.7012  0.5875
 5048SOL    HW216745   3.789   4.354   5.059  3.8422  0.2932  0.5745
 5049SOL     OW16746   3.591   5.735   4.538  0.0445 -0.1404 -0.4882
 5049SOL    HW116747   3.524   5.769   4.605 -0.5693 -2.9566  0.4566
 5049SOL    HW216748   3.683   5.739   4.578 -0.1431 -0.4694 -0.0118
 5050SOL     OW16749   5.116   0.293   5.703 -0.2346  0.4603 -0.3541
 5050SOL    HW116750   5.115   0.273   5.801 -1.4966 -0.4767 -0.5256
 5050SOL    HW216751   5.152   0.214   5.653  0.3723  0.9206 -0.6662
 5051SOL     OW16752   5.233   2.876   3.094 -0.0616 -0.8021 -0.8232
 5051SOL    HW116753   5.147   2.917   3.123  0.2946 -0.0343 -0.8376
 5051SOL    HW216754   5.245   2.787   3.139 -0.3645 -0.4394 -0.0230
 5052SOL     OW16755   6.632   1.210   6.907 -0.1917 -0.0258  0.4160
 5052SOL    HW116756   6.579   1.244   6.830 -0.5208 -0.9638  0.2063
 5052SOL    HW216757   6.695   1.139   6.876  0.4135  0.3120  0.8478
 5053SOL     OW16758   0.065   1.472   3.820  0.0748 -0.2838  0.0942
 5053SOL    HW116759   0.144   1.528   3.849  0.2714  0.0793 -1.1009
 5053SOL    HW216760   0.094   1.377   3.809  0.2464 -0.2294  0.0721
 5054SOL     OW16761   1.631   3.802   2.721 -0.5860 -0.3059  0.4598
 5054SOL    HW116762   1.707   3.806   2.657 -0.3973  0.4601  0.7172
 5054SOL    HW216763   1.546   3.783   2.672 -0.0763 -2.3788  0.3075
 5055SOL     OW16764   4.460   1.428   5.129  0.2175 -1.0318 -0.2353
 5055SOL    HW116765   4.460   1.410   5.030 -0.1581 -0.7579 -0.2875
 5055SOL    HW216766   4.416   1.352   5.177 -1.9324 -0.0321 -0.5062
 5056SOL     OW16767   1.499   1.431   3.910 -0.1257 -0.4068  0.1088
 5056SOL    HW116768   1.428   1.487   3.866 -0.3484 -1.7016 -1.2860
 5056SOL    HW216769   1.456   1.360   3.965  0.1016 -0.5256  0.1349
 5057SOL     OW16770   2.752   5.974   3.953  0.6449 -0.3331  0.4787
 5057SOL    HW116771   2.700   5.992   3.870 -0.3440 -0.9186  0.9480
 5057SOL    HW216772   2.689   5.946   4.026  1.2237  2.1491  2.0552
 5058SOL     OW16773   6.645   6.955   6.584  0.2969 -0.0893  0.5078
 5058SOL    HW116774   6.601   7.010   6.654  0.0858 -0.0852  0.3744
 5058SOL    HW216775   6.706   6.889   6.626 -1.1292 -1.2692  0.8179
 5059SOL     OW16776   6.482   6.305   3.141  0.1354  0.1360  0.3069
 5059SOL    HW116777   6.421   6.258   3.206  1.1502  0.6577  1.6884
 5059SOL    HW216778   6.559   6.246   3.118  0.1004  0.1839  0.0657
 5060SOL     OW16779   1.270   4.487   4.549  0.5495  1.0201  0.1378
 5060SOL    HW116780   1.192   4.487   4.611  1.1035  1.3929  0.8384
 5060SOL    HW216781   1.355   4.498   4.601  1.0600  0.8437 -0.6356
 5061SOL     OW16782   4.528   6.509   4.595 -0.2344 -0.1924  0.2679
 5061SOL    HW116783   4.622   6.529   4.565 -0.1296  0.6913  1.1346
 5061SOL    HW216784   4.511   6.411   4.588 -0.4251 -0.0608 -3.2366
 5062SOL     OW16785   0.896   6.187   5.966 -0.7181 -0.4659  0.7037
 5062SOL    HW116786   0.935   6.131   5.893 -1.7960 -0.0434 -0.2280
 5062SOL    HW216787   0.853   6.127   6.034 -0.0443 -0.8430  0.8073
 5063SOL     OW16788   1.530   2.852   3.370  0.7239  0.0666 -0.6040
 5063SOL    HW116789   1.450   2.802   3.337  0.7807 -0.5530  0.1666
 5063SOL    HW216790   1.613   2.799   3.352  0.9891  0.7508 -1.4894
 5064SOL     OW16791   4.446   6.024   1.470 -0.4509 -0.5571  0.0835
 5064SOL    HW116792   4.363   6.014   1.414 -0.4680  1.7931 -0.4365
 5064SOL    HW216793   4.421   6.021   1.567 -1.1015 -0.2167 -0.0673
 5065SOL     OW16794   6.973   4.358   0.216  0.3755 -0.4645 -0.7942
 5065SOL    HW116795   6.886   4.312   0.237  1.4138 -1.7051  1.0771
 5065SOL    HW216796   7.038   4.342   0.291  1.9709  1.1117 -1.7698
 5066SOL     OW16797   4.646   1.006   0.739  0.1759  0.3600  0.6247
 5066SOL    HW116798   4.570   1.070   0.735  0.1287  0.2730  0.1202
 5066SOL    HW216799   4.687   0.997   0.649 -0.6945 -1.3564  0.3491
 5067SOL     OW16800   3.412   2.490   4.900 -0.7327 -0.1898 -1.4302
 5067SOL    HW116801   3.500   2.538   4.891  0.1358 -1.1889  0.9911
 5067SOL    HW216802   3.409   2.413   4.836  1.6395 -2.1465  0.6198
 5068SOL     OW16803   2.436   1.656   5.079  0.6118  0.4522 -0.1572
 5068SOL    HW116804   2.534   1.641   5.090  0.3383  0.3348  3.2561
 5068SOL    HW216805   2.398   1.691   5.165 -2.8258 -2.2568 -0.3601
 5069SOL     OW16806   5.038   1.587   2.998  0.2618 -0.5529  0.1694
 5069SOL    HW116807   5.029   1.489   3.016  0.8211 -0.8831 -1.2005
 5069SOL    HW216808   5.098   1.601   2.919 -2.0837  0.7552 -1.4930
 5070SOL     OW16809   5.544   3.139   3.283 -0.0130  0.0023  0.9028
 5070SOL    HW116810   5.554   3.237   3.301  0.9469 -0.1191  1.1065
 5070SOL    HW216811   5.493   3.126   3.198  3.7874  0.8805 -1.8316
 5071SOL     OW16812   2.610   6.558   6.714 -0.3904 -0.7590 -0.1297
 5071SOL    HW116813   2.688   6.600   6.669 -0.4851 -0.1244  0.2833
 5071SOL    HW216814   2.633   6.464   6.742 -0.4451 -1.2810 -1.7723
 5072SOL     OW16815   5.530   2.517   1.425  0.3683 -0.3016 -0.2247
 5072SOL    HW116816   5.530   2.527   1.325 -0.7638  0.6953 -0.1486
 5072SOL    HW216817   5.564   2.427   1.449 -0.1820 -0.9026 -1.5729
 5073SOL     OW16818   3.721   1.264   7.015 -0.0066  0.1633  0.0453
 5073SOL    HW116819   3.684   1.305   6.932 -2.4975 -1.3682  0.2680
 5073SOL    HW216820   3.704   1.325   7.093 -0.1063  0.4219 -0.1775
 5074SOL     OW16821   6.440   5.488   2.247 -0.4229  0.6037  0.6741
 5074SOL    HW116822   6.424   5.496   2.346  1.2313 -0.3087  1.0540
 5074SOL    HW216823   6.395   5.405   2.213 -1.7094  1.3614  0.4667
 5075SOL     OW16824   0.002   3.398   1.711  0.3890 -0.6561 -0.3098
 5075SOL    HW116825   0.028   3.421   1.617  0.5830  0.3000 -0.0407
 5075SOL    HW216826   0.070   3.335   1.750  2.0025  1.2317  0.1320
 5076SOL     OW16827   1.327   0.278   4.729 -0.5081 -0.4235  0.4870
 5076SOL    HW116828   1.404   0.239   4.779 -0.1804  1.3635  1.4492
 5076SOL    HW216829   1.323   0.238   4.637  1.8355 -0.2578  0.2556
 5077SOL     OW16830   1.638   2.970   6.572  0.2497 -0.1601  0.3130
 5077SOL    HW116831   1.640   3.007   6.479 -0.6740 -0.8937 -0.0206
 5077SOL    HW216832   1.607   3.041   6.636 -1.8298 -0.3831 -0.3625
 5078SOL     OW16833   1.867   2.322   1.238 -0.3343  0.3189  0.0926
 5078SOL    HW116834   1.914   2.251   1.187 -0.7680 -0.1866  0.3863
 5078SOL    HW216835   1.794   2.361   1.182  0.1691  0.8365 -0.2217
 5079SOL     OW16836   1.522   2.720   5.408  0.0150  0.1478 -0.4477
 5079SOL    HW116837   1.560   2.701   5.317  0.3533  2.0617 -0.7486
 5079SOL    HW216838   1.591   2.765   5.464 -1.0344  1.5511 -0.2142
 5080SOL     OW16839   0.519   5.700   5.778  0.4810  0.3883 -0.6872
 5080SOL    HW116840   0.561   5.757   5.848 -0.7605  1.1052 -0.4979
 5080SOL    HW216841   0.566   5.612   5.774  0.0439  0.0009  1.6445
 5081SOL     OW16842   4.973   5.478   1.406  0.9164  0.3158 -0.0527
 5081SOL    HW116843   5.049   5.541   1.388  0.7219  0.7019  0.4583
 5081SOL    HW216844   4.915   5.473   1.325 -0.1175  2.2638  0.5065
 5082SOL     OW16845   0.349   4.332   6.138 -0.4340 -0.2650  0.4666
 5082SOL    HW116846   0.252   4.322   6.161 -0.0864 -1.6397  1.5227
 5082SOL    HW216847   0.386   4.412   6.184 -1.5894  1.8088 -1.9706
 5083SOL     OW16848   1.964   4.262   1.291  0.1286  1.0753  0.1888
 5083SOL    HW116849   2.059   4.232   1.284  0.6213  2.6049  0.1644
 5083SOL    HW216850   1.950   4.308   1.378 -0.8122  0.1676  0.5375
 5084SOL     OW16851   1.466   4.940   2.175  0.4657  0.1548  0.2105
 5084SOL    HW116852   1.503   5.032   2.159  0.7701  0.2514  1.4085
 5084SOL    HW216853   1.539   4.873   2.168  0.0796 -0.1432 -1.6409
 5085SOL     OW16854   6.434   3.451   2.365  0.5850 -0.3200  0.3451
 5085SOL    HW116855   6.422   3.484   2.271  0.5562  0.2394  0.5395
 5085SOL    HW216856   6.514   3.494   2.405 -0.4230  0.8522  1.1799
 5086SOL     OW16857   5.167   0.213   2.254  0.5106  0.6200 -0.3364
 5086SOL    HW116858   5.167   0.206   2.354 -1.4368  2.5897 -0.1115
 5086SOL    HW216859   5.241   0.274   2.225 -0.0859  1.6004  0.1247
 5087SOL     OW16860   5.556   0.571   2.234 -0.4864  0.8194 -0.1611
 5087SOL    HW116861   5.629   0.549   2.299  0.0293  1.7086 -0.4325
 5087SOL    HW216862   5.588   0.553   2.141 -0.9201  0.3938 -0.2331
 5088SOL     OW16863   1.499   5.589   5.645 -0.0176  0.3049  0.3936
 5088SOL    HW116864   1.436   5.539   5.706 -0.5902  2.4695  1.6825
 5088SOL    HW216865   1.479   5.687   5.649  0.5468  0.6440 -2.6443
 5089SOL     OW16866   3.273   4.127   3.269 -0.0578  0.1995 -0.0657
 5089SOL    HW116867   3.317   4.083   3.190  0.4195  0.7094 -0.0874
 5089SOL    HW216868   3.220   4.206   3.238  0.2548  0.4916  0.1367
 5090SOL     OW16869   4.428   4.998   2.072 -0.0759 -0.0664 -0.7529
 5090SOL    HW116870   4.462   4.907   2.097 -0.1185  0.3814  1.1468
 5090SOL    HW216871   4.505   5.058   2.053  0.2942  0.5792  2.2032
 5091SOL     OW16872   2.700   5.810   0.963  0.5368 -0.2388  0.5820
 5091SOL    HW116873   2.652   5.802   1.051 -1.5424 -0.8477 -0.5370
 5091SOL    HW216874   2.690   5.725   0.912  1.0031  0.3878 -0.5755
 5092SOL     OW16875   3.149   4.604   1.582 -0.0969 -0.3637 -0.2845
 5092SOL    HW116876   3.107   4.525   1.627  1.9894 -2.5143 -1.8165
 5092SOL    HW216877   3.247   4.605   1.601  0.0471  1.3785 -0.9864
 5093SOL     OW16878   1.417   3.514   4.209 -0.3693  0.3224 -0.0055
 5093SOL    HW116879   1.357   3.434   4.200  0.9222 -0.7197  0.2656
 5093SOL    HW216880   1.512   3.485   4.198  0.0592  2.0571 -1.1756
 5094SOL     OW16881   6.202   3.831   1.275 -0.1336  0.4459  0.2056
 5094SOL    HW116882   6.105   3.816   1.261  0.5228 -2.2786 -2.4316
 5094SOL    HW216883   6.248   3.744   1.288  2.1382  1.5307 -0.0224
 5095SOL     OW16884   5.473   6.575   5.755  0.1295  0.2158  0.3894
 5095SOL    HW116885   5.417   6.494   5.772 -0.1894  0.3140 -0.1802
 5095SOL    HW216886   5.534   6.590   5.833  0.0355 -0.4421  0.5968
 5096SOL     OW16887   1.897   3.052   3.380 -0.3337 -0.6385 -0.1489
 5096SOL    HW116888   1.996   3.047   3.377  0.0884  2.7496  2.4534
 5096SOL    HW216889   1.864   3.008   3.464 -0.8940 -0.4011 -0.2422
 5097SOL     OW16890   1.387   1.580   5.578  0.0537  0.5312 -0.1318
 5097SOL    HW116891   1.295   1.603   5.548 -0.3101 -0.2460  0.3476
 5097SOL    HW216892   1.433   1.662   5.613 -1.4689  0.4745  2.2592
 5098SOL     OW16893   3.157   4.027   1.287 -0.4468  0.0385  0.0184
 5098SOL    HW116894   3.191   3.945   1.333  2.5349  0.6764 -0.8146
 5098SOL    HW216895   3.160   4.104   1.351 -0.3740  0.0840 -0.0398
 5099SOL     OW16896   3.896   6.488   6.920  0.5432 -0.6266  0.5449
 5099SOL    HW116897   3.925   6.575   6.879 -1.4851 -1.2006 -2.4267
 5099SOL    HW216898   3.801   6.497   6.952  0.3470 -1.7033  0.2921
 5100SOL     OW16899   0.876   1.360   3.978  0.1087  0.4372 -0.1292
 5100SOL    HW116900   0.845   1.352   3.883  2.9586  0.5234 -1.1556
 5100SOL    HW216901   0.916   1.274   4.008 -1.6208  0.0995  1.4035
 5101SOL     OW16902   1.118   1.511   6.454  0.0151 -0.3580 -0.2409
 5101SOL    HW116903   1.206   1.551   6.428 -0.9015  1.0505 -1.3701
 5101SOL    HW216904   1.051   1.530   6.383 -1.5395 -0.2233  1.1935
 5102SOL     OW16905   3.685   3.286   5.307 -0.7620  0.4180 -0.0754
 5102SOL    HW116906   3.703   3.361   5.243  1.3521  1.1851  1.3243
 5102SOL    HW216907   3.686   3.322   5.400  0.4971 -1.3679  0.6412
 5103SOL     OW16908   1.693   2.679   3.666  0.3146  0.2489 -0.4777
 5103SOL    HW116909   1.652   2.616   3.599 -1.5503  0.3150  0.5434
 5103SOL    HW216910   1.764   2.733   3.621  0.0638 -0.6588 -2.0577
 5104SOL     OW16911   6.348   1.705   6.362  0.2633 -0.0591 -0.0335
 5104SOL    HW116912   6.442   1.731   6.382  0.0973 -0.3790  1.2127
 5104SOL    HW216913   6.340   1.605   6.362 -0.3044 -0.0298  1.0434
 5105SOL     OW16914   2.852   3.849   5.099 -0.0197  0.0061 -0.0093
 5105SOL    HW116915   2.946   3.829   5.069  0.0102  0.6927 -0.4004
 5105SOL    HW216916   2.853   3.927   5.161 -0.1141 -1.2603  1.6628
 5106SOL     OW16917   4.195   3.578   3.474  0.1532  0.1720  0.2087
 5106SOL    HW116918   4.107   3.588   3.519  0.6976 -0.0153  1.3640
 5106SOL    HW216919   4.212   3.482   3.453 -0.2581  0.3013 -0.7476
 5107SOL     OW16920   2.005   5.890   0.399  0.0567 -0.2767  0.2619
 5107SOL    HW116921   1.967   5.837   0.475  1.6882 -1.2078  0.4792
 5107SOL    HW216922   2.080   5.947   0.433  0.1641  0.0387 -0.4897
 5108SOL     OW16923   3.653   2.056   5.509 -0.4078  0.4431  0.1326
 5108SOL    HW116924   3.631   1.970   5.463 -1.5469  0.1225  1.2373
 5108SOL    HW216925   3.701   2.037   5.594 -1.5659  0.8191  0.8959
 5109SOL     OW16926   5.811   2.158   5.034  0.1238 -0.7407  0.2918
 5109SOL    HW116927   5.789   2.105   5.116  0.4644 -0.6252  0.4636
 5109SOL    HW216928   5.738   2.222   5.015 -0.6268 -1.7575 -0.3289
 5110SOL     OW16929   1.397   5.827   2.852 -0.2148  0.6395 -0.1225
 5110SOL    HW116930   1.396   5.732   2.882  0.8445  0.2775 -1.1658
 5110SOL    HW216931   1.325   5.841   2.783 -0.3598  0.5951  0.0193
 5111SOL     OW16932   6.625   4.730   5.256 -0.0589  1.1677 -0.1896
 5111SOL    HW116933   6.688   4.669   5.209  0.3391  0.9859  0.5626
 5111SOL    HW216934   6.656   4.825   5.245 -0.3148  1.1806 -0.8109
 5112SOL     OW16935   3.674   6.504   3.831  0.3757  0.2043 -0.2761
 5112SOL    HW116936   3.669   6.484   3.929 -1.8986  0.1840 -0.3496
 5112SOL    HW216937   3.608   6.575   3.808 -1.2674 -1.8232 -2.2443
 5113SOL     OW16938   0.149   5.554   0.838 -0.0929 -0.1167  0.6247
 5113SOL    HW116939   0.205   5.499   0.900  0.1164  0.4317  0.9223
 5113SOL    HW216940   0.058   5.565   0.878 -0.1913 -0.3963  0.4804
 5114SOL     OW16941   4.926   2.403   1.329  0.3665 -0.4826  0.3506
 5114SOL    HW116942   4.991   2.458   1.277  0.2293 -2.5608 -2.1977
 5114SOL    HW216943   4.976   2.342   1.390  0.6072  0.3515  1.0217
 5115SOL     OW16944   3.218   6.706   1.237  0.1461  0.3168 -0.4770
 5115SOL    HW116945   3.228   6.650   1.155 -0.1946 -0.2147 -0.1604
 5115SOL    HW216946   3.122   6.712   1.263  0.1124  1.5078 -0.8151
 5116SOL     OW16947   2.894   4.558   0.799 -0.1519  0.2217 -0.1245
 5116SOL    HW116948   2.834   4.608   0.737 -0.1293 -0.1974 -0.4842
 5116SOL    HW216949   2.850   4.552   0.889 -0.2222  0.7522 -0.1198
 5117SOL     OW16950   0.115   4.958   0.495 -0.1326  0.5265 -0.0192
 5117SOL    HW116951   0.165   5.029   0.445  0.2333  0.0588 -0.3172
 5117SOL    HW216952   0.063   4.902   0.432 -1.5425  1.3793  0.3374
 5118SOL     OW16953   0.109   2.191   4.836  0.4650 -0.3367 -0.0313
 5118SOL    HW116954   0.171   2.268   4.819 -0.5280  1.3042  2.9881
 5118SOL    HW216955   0.153   2.126   4.897  1.0138 -1.8922 -1.9817
 5119SOL     OW16956   2.830   4.250   5.586  0.4596  0.2585 -0.2134
 5119SOL    HW116957   2.837   4.310   5.666  4.0423  0.1662 -0.2759
 5119SOL    HW216958   2.783   4.298   5.512  0.2112  1.6741  0.8312
 5120SOL     OW16959   1.261   5.071   3.264  0.0353 -0.0647  0.0057
 5120SOL    HW116960   1.334   5.036   3.205 -0.9904 -0.6895 -0.9425
 5120SOL    HW216961   1.265   5.025   3.353  0.9271  0.0861  0.0576
 5121SOL     OW16962   5.518   1.067   3.471 -0.1516 -0.0982 -0.3415
 5121SOL    HW116963   5.508   1.016   3.556 -0.1739 -1.3837 -1.0784
 5121SOL    HW216964   5.515   1.165   3.489 -1.6126 -0.3485  0.9610
 5122SOL     OW16965   6.629   3.301   2.529  0.4134 -0.0254 -0.8568
 5122SOL    HW116966   6.592   3.213   2.559 -2.3410  1.8487  1.8113
 5122SOL    HW216967   6.576   3.334   2.450  0.3139 -0.0197 -0.7880
 5123SOL     OW16968   3.802   3.825   0.613  0.0785  0.0332  0.2247
 5123SOL    HW116969   3.742   3.826   0.693 -1.1269 -0.8474 -0.6392
 5123SOL    HW216970   3.786   3.907   0.558  1.4785  1.0416  1.2604
 5124SOL     OW16971   3.919   2.965   2.093 -0.3301 -0.2134 -0.8517
 5124SOL    HW116972   3.856   2.993   2.165  1.5788  1.8650  0.1485
 5124SOL    HW216973   3.947   3.046   2.041  1.3672 -1.0726 -1.3361
 5125SOL     OW16974   0.553   4.957   7.007  0.4154 -0.2200 -0.0393
 5125SOL    HW116975   0.499   4.949   7.091  1.0791  0.4829  0.4721
 5125SOL    HW216976   0.648   4.933   7.027  0.0921 -2.8353 -1.2438
 5126SOL     OW16977   2.349   6.228   0.406  0.1950 -0.6456 -0.1912
 5126SOL    HW116978   2.446   6.242   0.425 -0.2353  1.2254  0.8812
 5126SOL    HW216979   2.319   6.143   0.449  0.6888  0.3533  2.3100
 5127SOL     OW16980   1.913   5.136   2.564 -0.4088  0.4553  0.5945
 5127SOL    HW116981   1.934   5.206   2.632 -0.0438  1.2338 -0.3017
 5127SOL    HW216982   1.993   5.121   2.506  0.2841 -2.2404  2.0449
 5128SOL     OW16983   5.795   3.616   6.144 -0.7395 -0.2877  0.2996
 5128SOL    HW116984   5.733   3.562   6.088 -0.1505 -0.4766 -0.1765
 5128SOL    HW216985   5.767   3.609   6.240 -2.5189  1.0429 -0.0569
 5129SOL     OW16986   4.061   6.392   1.895  0.3161 -0.3202 -0.5982
 5129SOL    HW116987   4.044   6.482   1.934  1.3641 -0.3193 -0.0983
 5129SOL    HW216988   4.050   6.396   1.796  0.1953  0.3167 -0.5638
 5130SOL     OW16989   6.498   3.669   5.243 -0.5292 -0.8989 -0.2711
 5130SOL    HW116990   6.572   3.613   5.204 -0.1079  0.5005 -1.5761
 5130SOL    HW216991   6.508   3.763   5.212 -2.8836 -0.6645 -0.4599
 5131SOL     OW16992   4.589   1.562   5.328 -0.2325 -0.4026 -0.1139
 5131SOL    HW116993   4.523   1.557   5.402 -0.1073 -0.7628 -0.0242
 5131SOL    HW216994   4.553   1.517   5.247 -0.5955  0.4760 -0.4493
 5132SOL     OW16995   5.261   0.570   6.258 -0.4459 -0.4157  0.3668
 5132SOL    HW116996   5.226   0.627   6.183 -0.1569 -0.6772  0.0306
 5132SOL    HW216997   5.233   0.475   6.244  1.0635 -0.7894 -0.3623
 5133SOL     OW16998   6.243   6.435   1.973  0.0173  0.0884 -0.3451
 5133SOL    HW116999   6.331   6.395   1.997 -1.4294 -2.1540  1.6932
 5133SOL    HW217000   6.186   6.444   2.055 -2.6807 -1.3392 -1.9015
 5134SOL     OW17001   0.955   0.553   2.771 -0.4134 -0.2851 -0.1337
 5134SOL    HW117002   0.950   0.631   2.833  1.3884 -0.3089  0.1087
 5134SOL    HW217003   0.913   0.473   2.814 -0.6508  0.1128  0.3766
 5135SOL     OW17004   6.722   6.844   1.217  0.2367  0.3544 -0.2557
 5135SOL    HW117005   6.689   6.775   1.282  1.2829 -0.8654 -0.9564
 5135SOL    HW217006   6.724   6.933   1.261 -1.1439 -0.0453  0.6926
 5136SOL     OW17007   2.426   6.632   4.238  0.0114  0.1257  0.7520
 5136SOL    HW117008   2.518   6.649   4.275  0.3497  1.4406 -0.6014
 5136SOL    HW217009   2.423   6.663   4.143 -1.7674 -0.1683  0.6947
 5137SOL     OW17010   3.005   6.270   6.223  0.3594 -0.1431 -0.0757
 5137SOL    HW117011   3.092   6.226   6.201 -0.2575 -1.0824 -0.7229
 5137SOL    HW217012   2.939   6.253   6.150 -0.2352  0.9658  0.1706
 5138SOL     OW17013   0.353   3.850   0.272 -0.5951 -0.1192 -0.3115
 5138SOL    HW117014   0.406   3.806   0.201 -2.2892 -2.0223 -0.4895
 5138SOL    HW217015   0.306   3.930   0.234 -0.3671 -0.2835 -0.9509
 5139SOL     OW17016   6.951   3.270   6.210 -0.4264 -0.3840  0.0775
 5139SOL    HW117017   6.907   3.181   6.200 -3.2369  0.8038  1.0829
 5139SOL    HW217018   6.891   3.333   6.259  1.3865  2.1686 -0.7372
 5140SOL     OW17019   0.285   4.621   3.775  0.2104 -0.2295 -0.2935
 5140SOL    HW117020   0.191   4.595   3.754  0.4632  0.0688 -1.9435
 5140SOL    HW217021   0.327   4.662   3.694  1.5193  0.3697  0.6516
 5141SOL     OW17022   1.984   2.591   6.119 -0.5634 -0.2909  0.8330
 5141SOL    HW117023   2.044   2.669   6.103 -1.3866 -0.0340 -1.3332
 5141SOL    HW217024   1.920   2.581   6.042 -1.7725 -1.9341  1.9716
 5142SOL     OW17025   6.592   2.344   0.377  0.4777  0.6249 -0.2097
 5142SOL    HW117026   6.561   2.338   0.471  0.2506  0.8470 -0.2700
 5142SOL    HW217027   6.527   2.297   0.317 -0.6468  2.4970 -0.5367
 5143SOL     OW17028   2.302   4.432   6.850 -0.3064  0.6026  0.2714
 5143SOL    HW117029   2.368   4.399   6.783  1.0261  0.2294  1.7012
 5143SOL    HW217030   2.294   4.365   6.925 -2.1301  0.7629  0.2850
 5144SOL     OW17031   3.990   5.005   6.976  0.5636  0.1748  0.2341
 5144SOL    HW117032   3.991   5.092   7.026  2.5914  0.4302 -0.1753
 5144SOL    HW217033   3.971   5.022   6.880  1.9862  0.3224 -0.0426
 5145SOL     OW17034   3.784   5.530   6.793 -0.5084  0.0322  0.0820
 5145SOL    HW117035   3.802   5.563   6.701 -1.1474 -1.1637 -0.4879
 5145SOL    HW217036   3.727   5.596   6.842 -0.9826  0.2150 -0.7084
 5146SOL     OW17037   6.302   6.608   6.903  0.5216 -0.0086 -0.3894
 5146SOL    HW117038   6.266   6.544   6.835 -0.8889  0.8500 -0.5041
 5146SOL    HW217039   6.358   6.677   6.857 -0.8311  0.8579 -0.7917
 5147SOL     OW17040   5.781   5.096   1.742 -0.2348  0.0986 -0.0944
 5147SOL    HW117041   5.876   5.127   1.747 -0.0687 -0.3651 -0.2598
 5147SOL    HW217042   5.743   5.090   1.835 -0.2840  0.8180 -0.0638
 5148SOL     OW17043   6.124   2.902   2.388  0.1006  0.0843  0.0874
 5148SOL    HW117044   6.049   2.968   2.384 -0.5962 -0.7338 -0.7460
 5148SOL    HW217045   6.111   2.842   2.468  0.2456  0.3695  0.3285
 5149SOL     OW17046   6.457   6.784   1.017  0.7422  0.3019  0.2156
 5149SOL    HW117047   6.456   6.688   1.046  0.1775  0.5742  1.1678
 5149SOL    HW217048   6.423   6.792   0.924  0.6181 -0.4123  0.1956
 5150SOL     OW17049   4.832   5.989   6.672  0.0239  0.0147 -0.6706
 5150SOL    HW117050   4.922   6.031   6.687  1.0878 -2.0581 -0.8669
 5150SOL    HW217051   4.812   5.926   6.748 -1.8806  1.3978  0.0385
 5151SOL     OW17052   5.878   3.933   4.450  0.2851 -0.5388 -0.1555
 5151SOL    HW117053   5.805   3.918   4.517  0.9576 -0.3128  0.6563
 5151SOL    HW217054   5.839   3.945   4.359 -0.5604 -2.4788 -0.0957
 5152SOL     OW17055   2.958   5.418   4.751  0.1171  0.7559  0.0295
 5152SOL    HW117056   2.858   5.416   4.746  0.0502  3.3009 -2.9060
 5152SOL    HW217057   2.991   5.503   4.711  3.5075  0.2209  1.3806
 5153SOL     OW17058   5.268   3.914   2.018 -0.2333 -0.2093  0.1530
 5153SOL    HW117059   5.261   3.954   1.927  0.3468 -0.4491 -0.0082
 5153SOL    HW217060   5.184   3.866   2.040 -0.0411 -0.9572 -0.6587
 5154SOL     OW17061   4.142   5.431   5.448 -0.3763  0.1425 -0.4213
 5154SOL    HW117062   4.108   5.455   5.539  0.7248 -0.5674  0.2034
 5154SOL    HW217063   4.067   5.394   5.392 -1.3524  1.7810 -0.2720
 5155SOL     OW17064   6.133   2.085   2.888 -0.0612  0.3860  0.3375
 5155SOL    HW117065   6.186   2.168   2.874  1.4002 -0.6250 -0.4577
 5155SOL    HW217066   6.169   2.035   2.967 -0.0636 -0.1302  0.0195
 5156SOL     OW17067   5.182   1.119   0.974 -0.6107  0.6253 -0.1075
 5156SOL    HW117068   5.258   1.063   1.006 -1.5750  0.3317  1.7587
 5156SOL    HW217069   5.170   1.104   0.875 -0.6091 -2.2204  0.2203
 5157SOL     OW17070   4.229   4.194   6.756  0.3423 -0.7402 -0.1351
 5157SOL    HW117071   4.157   4.256   6.789  1.0975 -0.6980  1.5368
 5157SOL    HW217072   4.247   4.213   6.659  0.4873  1.6345  0.2899
 5158SOL     OW17073   1.084   6.377   5.142  0.1900  0.1208 -0.4212
 5158SOL    HW117074   1.074   6.474   5.167 -0.7541 -0.6533  2.6067
 5158SOL    HW217075   1.180   6.350   5.152  0.1141  0.2637  0.9088
 5159SOL     OW17076   6.542   1.332   1.568 -0.3766  0.1032  0.2193
 5159SOL    HW117077   6.454   1.354   1.610 -0.6868 -0.4264 -0.1445
 5159SOL    HW217078   6.575   1.244   1.603 -0.4024 -0.1065 -0.2774
 5160SOL     OW17079   4.897   2.565   6.730  0.1155  0.5266 -0.2023
 5160SOL    HW117080   4.990   2.554   6.763 -0.5081  0.4940  1.6984
 5160SOL    HW217081   4.870   2.661   6.737  0.3789  0.7666 -1.9355
 5161SOL     OW17082   0.600   2.125   5.711 -0.2368  0.0541  0.3683
 5161SOL    HW117083   0.526   2.062   5.735 -0.8312  0.4835 -0.3121
 5161SOL    HW217084   0.581   2.167   5.623 -0.7923  2.5957  1.6035
 5162SOL     OW17085   6.475   0.898   0.032  0.2895  0.4841 -0.1444
 5162SOL    HW117086   6.428   0.892  -0.056 -1.4443 -0.2282  0.7701
 5162SOL    HW217087   6.488   0.806   0.069  1.3195  0.7559  0.1944
 5163SOL     OW17088   3.347   1.668   0.240 -0.5233  0.2770  0.0183
 5163SOL    HW117089   3.409   1.701   0.311 -1.1108  2.5935 -0.4711
 5163SOL    HW217090   3.256   1.704   0.257 -0.9323 -0.1227 -1.2651
 5164SOL     OW17091   1.935   6.585   4.329  0.7043 -0.4865  0.2827
 5164SOL    HW117092   1.904   6.493   4.353  1.4237 -0.5086  1.1952
 5164SOL    HW217093   1.892   6.652   4.390  1.7428 -0.4358  0.9905
 5165SOL     OW17094   1.727   5.156   6.170 -0.4026  0.4843 -0.1036
 5165SOL    HW117095   1.700   5.084   6.107  0.3931 -0.1039  0.2066
 5165SOL    HW217096   1.724   5.244   6.124  0.9502 -0.0193 -1.2359
 5166SOL     OW17097   1.281   5.247   0.401  0.0541 -0.3927 -0.6173
 5166SOL    HW117098   1.244   5.213   0.315  0.4390  1.9663 -1.8129
 5166SOL    HW217099   1.285   5.347   0.399  2.4376 -0.3341  1.1352
 5167SOL     OW17100   5.521   6.777   6.629  0.1559 -0.3225  0.1009
 5167SOL    HW117101   5.523   6.701   6.565 -0.0424 -0.5133  0.3236
 5167SOL    HW217102   5.508   6.863   6.578  0.6347 -0.4056 -0.1724
 5168SOL     OW17103   3.159   3.100   2.122  0.0155 -0.0387  0.0413
 5168SOL    HW117104   3.064   3.095   2.153 -0.8522 -0.4875 -2.4947
 5168SOL    HW217105   3.174   3.186   2.073  1.3392  0.6417  1.5413
 5169SOL     OW17106   1.964   4.111   3.718  0.2667 -0.4035 -0.2533
 5169SOL    HW117107   1.884   4.150   3.672  0.0900 -3.7659 -3.2387
 5169SOL    HW217108   2.044   4.120   3.660  1.8237  1.4428  1.9924
 5170SOL     OW17109   6.880   6.756   1.679  0.0450  0.1636 -0.0302
 5170SOL    HW117110   6.911   6.819   1.608 -1.0798 -1.2353 -1.8559
 5170SOL    HW217111   6.834   6.678   1.637  0.1330 -1.1988  2.2123
 5171SOL     OW17112   6.175   1.685   3.218  0.1435  0.0534 -0.0926
 5171SOL    HW117113   6.118   1.760   3.254  2.0278  0.7374  1.6360
 5171SOL    HW217114   6.119   1.603   3.210 -1.6242  1.2472 -0.6055
 5172SOL     OW17115   1.393   6.651   5.520 -0.3460  0.1795 -0.6944
 5172SOL    HW117116   1.313   6.591   5.523  0.1688 -0.4895  0.6421
 5172SOL    HW217117   1.375   6.728   5.459 -1.7072 -0.3658 -1.0208
 5173SOL     OW17118   6.147   3.246   4.755  0.6756 -1.0777 -0.2416
 5173SOL    HW117119   6.071   3.274   4.815 -0.4741 -2.9056 -0.7393
 5173SOL    HW217120   6.200   3.175   4.801  0.6306 -1.4946 -0.8277
 5174SOL     OW17121   5.713   5.374   3.560 -0.4201  0.4122 -0.2742
 5174SOL    HW117122   5.711   5.321   3.645 -1.5819  1.5265  0.4376
 5174SOL    HW217123   5.788   5.341   3.502  1.0644  0.2802  1.6037
 5175SOL     OW17124   1.258   2.713   0.640  0.5755 -0.5735  0.0602
 5175SOL    HW117125   1.271   2.775   0.562  0.4685  0.4373  0.8130
 5175SOL    HW217126   1.281   2.620   0.614 -0.2670 -0.3896 -1.4177
 5176SOL     OW17127   6.586   1.763   6.516 -0.8108 -0.5921 -0.0274
 5176SOL    HW117128   6.581   1.856   6.551  0.6827  0.5069 -2.4213
 5176SOL    HW217129   6.646   1.708   6.575 -0.4762  0.4073  0.5917
 5177SOL     OW17130   0.086   1.678   1.508  0.2775  0.3956 -0.2892
 5177SOL    HW117131   0.124   1.758   1.461  0.9272  0.3425  0.1347
 5177SOL    HW217132   0.035   1.622   1.443  0.9094  0.4843 -0.8658
 5178SOL     OW17133   6.909   2.978   3.298  0.2824  0.0334 -0.5281
 5178SOL    HW117134   6.966   2.897   3.307 -2.2744 -1.9250 -0.8250
 5178SOL    HW217135   6.896   3.020   3.388  0.2122 -0.9475 -0.0697
 5179SOL     OW17136   3.842   0.498   6.277 -0.2086  0.1171  0.6575
 5179SOL    HW117137   3.761   0.500   6.335 -1.8904 -0.8670 -1.5330
 5179SOL    HW217138   3.854   0.587   6.233 -0.3263  0.1596  0.7120
 5180SOL     OW17139   5.952   0.124   6.075  0.7896  0.3228  0.1248
 5180SOL    HW117140   5.937   0.179   6.157  1.7972  0.2209  0.3939
 5180SOL    HW217141   5.918   0.031   6.090  0.0342  0.5770  0.0449
 5181SOL     OW17142   3.695   5.087   1.897  0.0031 -0.4086 -0.0614
 5181SOL    HW117143   3.647   5.148   1.960 -0.2694 -0.8426  0.1607
 5181SOL    HW217144   3.656   4.995   1.904 -0.5442 -0.3066 -1.4173
 5182SOL     OW17145   6.384   4.252   5.000  0.4552 -0.0198  0.4432
 5182SOL    HW117146   6.299   4.293   4.966  0.3692 -1.4403 -1.1969
 5182SOL    HW217147   6.363   4.188   5.074  0.4278  1.6076  1.9065
 5183SOL     OW17148   5.009   5.571   6.154  0.3690 -1.0756  0.6746
 5183SOL    HW117149   5.014   5.581   6.055 -0.3729 -0.0453  0.7310
 5183SOL    HW217150   4.972   5.654   6.195 -1.3940 -2.2591  1.6307
 5184SOL     OW17151   5.734   5.294   5.413  0.2410 -0.1572  0.0115
 5184SOL    HW117152   5.694   5.202   5.414  0.4918 -0.3008 -1.2603
 5184SOL    HW217153   5.741   5.326   5.318  0.7288  0.9261  0.4007
 5185SOL     OW17154   6.063   6.403   1.332  0.0119  0.5251 -0.1623
 5185SOL    HW117155   6.100   6.453   1.411 -0.3211  0.7963 -0.1759
 5185SOL    HW217156   6.030   6.313   1.362 -1.7329  1.2927  0.3643
 5186SOL     OW17157   5.470   0.521   0.840  0.3764 -0.3763  0.0118
 5186SOL    HW117158   5.410   0.528   0.760  0.1965  0.3851  0.2030
 5186SOL    HW217159   5.443   0.589   0.907  0.1806 -1.3695  0.9675
 5187SOL     OW17160   6.533   2.893   4.651 -0.1993 -0.0377  0.4428
 5187SOL    HW117161   6.451   2.906   4.595  0.1384  0.6148  0.0903
 5187SOL    HW217162   6.615   2.900   4.593  0.1401  0.2381  0.9513
 5188SOL     OW17163   3.857   2.833   1.677  1.0145 -0.3391 -0.8066
 5188SOL    HW117164   3.869   2.806   1.773 -1.6961 -2.1114 -0.8713
 5188SOL    HW217165   3.827   2.928   1.673 -2.5046 -1.2427  0.4890
 5189SOL     OW17166   6.977   2.073   6.617  0.3982 -0.3895 -0.2594
 5189SOL    HW117167   6.962   1.982   6.580  0.1893 -0.0581 -0.9989
 5189SOL    HW217168   7.036   2.125   6.555 -0.3779  0.3422 -0.3953
 5190SOL     OW17169   2.189   5.038   5.457  0.5538  0.7580  0.5553
 5190SOL    HW117170   2.111   5.021   5.397  1.7138  0.1041 -0.8078
 5190SOL    HW217171   2.178   4.986   5.542 -2.6271  3.9903  2.4599
 5191SOL     OW17172   5.649   2.972   6.973 -0.6019  0.3265  0.1332
 5191SOL    HW117173   5.684   2.979   6.880  1.1572  1.2027  0.8084
 5191SOL    HW217174   5.580   3.042   6.989 -2.5315 -1.1998 -1.1242
 5192SOL     OW17175   6.413   2.734   1.946 -0.2280  0.1538 -0.9918
 5192SOL    HW117176   6.347   2.727   2.021  1.6964  0.9246  0.8631
 5192SOL    HW217177   6.425   2.830   1.921  0.3220  0.0319 -1.2146
 5193SOL     OW17178   0.612   1.486   0.632 -0.3151 -0.2261  0.5633
 5193SOL    HW117179   0.697   1.475   0.582 -0.1765  0.3076  0.6682
 5193SOL    HW217180   0.559   1.562   0.592  0.4411  1.1489  2.0480
 5194SOL     OW17181   0.766   3.358   2.709 -0.1431  0.2471 -0.2807
 5194SOL    HW117182   0.754   3.332   2.804 -1.4125 -1.5835 -0.9070
 5194SOL    HW217183   0.714   3.297   2.650  1.7382  0.4258 -2.2693
 5195SOL     OW17184   3.198   1.655   6.547 -0.0789  0.8926 -0.2602
 5195SOL    HW117185   3.241   1.717   6.613 -1.6082  0.3024  1.3708
 5195SOL    HW217186   3.182   1.566   6.591  0.5335 -0.1356 -2.0270
 5196SOL     OW17187   1.914   3.821   0.982 -0.5051 -0.1756 -0.0257
 5196SOL    HW117188   1.901   3.912   0.942  1.4010 -0.1287 -0.6263
 5196SOL    HW217189   1.951   3.830   1.074  1.0514 -0.3191 -0.6114
 5197SOL     OW17190   3.489   1.320   0.682  0.9239 -0.3130 -0.4074
 5197SOL    HW117191   3.477   1.417   0.700 -2.3233 -0.5470 -0.6018
 5197SOL    HW217192   3.526   1.275   0.763  0.4812  0.7990  0.4434
 5198SOL     OW17193   2.545   3.937   3.870 -0.2788  0.5604 -0.1957
 5198SOL    HW117194   2.516   3.893   3.955 -0.7794 -1.2960 -1.2598
 5198SOL    HW217195   2.645   3.947   3.870 -0.1189 -0.8292  0.0079
 5199SOL     OW17196   1.374   0.225   6.291 -0.2953  0.0281  0.6078
 5199SOL    HW117197   1.457   0.263   6.332  0.6133 -1.0585 -0.1619
 5199SOL    HW217198   1.299   0.228   6.358 -0.1773  2.7116  0.7164
 5200SOL     OW17199   0.790   3.420   5.672  0.0583 -0.0566 -0.0857
 5200SOL    HW117200   0.809   3.502   5.619 -0.9067 -1.0665 -2.1173
 5200SOL    HW217201   0.692   3.402   5.672  0.2857 -1.4011  0.0027
 5201SOL     OW17202   4.627   6.485   5.414  0.4642  0.6234 -0.1868
 5201SOL    HW117203   4.664   6.503   5.323  0.1790 -2.1373 -0.9308
 5201SOL    HW217204   4.690   6.427   5.465 -1.6284 -2.3282 -0.6799
 5202SOL     OW17205   3.218   5.701   6.828  0.6410 -0.1183 -0.0658
 5202SOL    HW117206   3.123   5.669   6.825 -0.1021  1.9574  0.1816
 5202SOL    HW217207   3.273   5.636   6.882 -1.0533 -0.3390  1.4836
 5203SOL     OW17208   6.912   6.464   6.346 -0.5336  0.2446 -0.1913
 5203SOL    HW117209   6.956   6.498   6.263 -0.1747 -0.6646 -0.3832
 5203SOL    HW217210   6.814   6.452   6.330 -0.4745  0.1321 -0.4661
 5204SOL     OW17211   3.021   6.544   4.362 -0.2661 -0.1873 -0.7077
 5204SOL    HW117212   3.118   6.561   4.380 -0.5821  1.9572 -0.7481
 5204SOL    HW217213   2.980   6.497   4.441  0.5934 -0.2876 -0.3092
 5205SOL     OW17214   5.158   2.517   6.751 -0.3360  0.4596  0.0453
 5205SOL    HW117215   5.187   2.517   6.655  0.5703  0.4514  0.3143
 5205SOL    HW217216   5.209   2.447   6.801 -0.4714  0.7782  0.6367
 5206SOL     OW17217   6.034   4.333   6.662 -0.0890 -0.1938  0.3568
 5206SOL    HW117218   6.097   4.311   6.737  0.0389  1.5927  0.8126
 5206SOL    HW217219   6.053   4.273   6.584  0.5924 -1.2610  1.2950
 5207SOL     OW17220   1.566   6.542   0.624  0.1903  0.5853 -0.4428
 5207SOL    HW117221   1.527   6.450   0.629  0.4709  0.4639 -0.4982
 5207SOL    HW217222   1.663   6.536   0.602  0.8122  0.7705  1.9668
 5208SOL     OW17223   4.394   6.544   1.782  0.0372  0.5934  0.4020
 5208SOL    HW117224   4.485   6.582   1.765  0.0397  0.8584  0.9810
 5208SOL    HW217225   4.384   6.459   1.730 -0.7125  2.3418 -2.5296
 5209SOL     OW17226   2.396   0.421   4.176 -0.7384 -0.1161  0.3895
 5209SOL    HW117227   2.333   0.352   4.140  1.5971 -2.4676  0.5373
 5209SOL    HW217228   2.434   0.391   4.263 -0.0386  1.6636  0.7577
 5210SOL     OW17229   6.494   5.033   5.731 -0.3691 -0.6299 -0.0441
 5210SOL    HW117230   6.506   4.940   5.765 -0.1649 -0.3697  0.6080
 5210SOL    HW217231   6.574   5.088   5.754 -0.7387 -0.1425  0.1076
 5211SOL     OW17232   3.833   2.472   0.088 -0.6490 -0.5731 -0.1731
 5211SOL    HW117233   3.748   2.466   0.139  0.3366  0.1774  1.6657
 5211SOL    HW217234   3.902   2.413   0.130  0.7959  1.5889  0.6869
 5212SOL     OW17235   2.174   0.353   4.520  0.2465  0.1282 -0.4888
 5212SOL    HW117236   2.121   0.271   4.500  0.9601 -0.1974 -1.0918
 5212SOL    HW217237   2.271   0.336   4.502  1.0336 -0.2187  3.2191
 5213SOL     OW17238   6.652   2.274   2.590  0.2897 -0.6711  0.1557
 5213SOL    HW117239   6.610   2.360   2.560  1.7617 -0.2267 -0.7053
 5213SOL    HW217240   6.673   2.280   2.688 -1.6965 -0.9548  0.6536
 5214SOL     OW17241   5.271   2.458   2.662  0.5750  0.2220  0.6489
 5214SOL    HW117242   5.349   2.412   2.620 -0.9559 -0.9069 -1.1644
 5214SOL    HW217243   5.245   2.537   2.607  0.3892  0.5481  1.1959
 5215SOL     OW17244   6.009   2.412   3.555  0.3011  0.0350 -0.6089
 5215SOL    HW117245   5.959   2.429   3.470 -0.2211 -0.0545 -0.3255
 5215SOL    HW217246   6.032   2.314   3.561 -0.4909 -0.1363 -0.2117
 5216SOL     OW17247   2.376   6.025   1.750 -0.5951  0.1295  0.2143
 5216SOL    HW117248   2.337   5.933   1.748 -1.1648  0.3597 -1.9886
 5216SOL    HW217249   2.471   6.021   1.779 -0.3727 -1.2583 -0.6462
 5217SOL     OW17250   1.933   5.021   1.822 -0.5599 -0.4252 -0.5313
 5217SOL    HW117251   1.919   4.929   1.784  1.6554 -1.4784  0.9789
 5217SOL    HW217252   1.872   5.085   1.776 -2.1867 -2.6166 -1.6682
 5218SOL     OW17253   1.435   6.446   6.202 -0.2447  0.3562 -0.0892
 5218SOL    HW117254   1.460   6.467   6.107 -2.7866 -0.7885 -1.1058
 5218SOL    HW217255   1.336   6.447   6.211 -0.1106 -1.0305  2.2258
 5219SOL     OW17256   4.498   5.484   5.780 -1.0390 -0.0735 -0.0790
 5219SOL    HW117257   4.466   5.452   5.869  0.4254  0.3345  0.6201
 5219SOL    HW217258   4.587   5.443   5.760  0.6420  2.9591  0.5795
 5220SOL     OW17259   2.808   6.260   5.088 -0.5681 -0.3264 -0.0787
 5220SOL    HW117260   2.878   6.189   5.095 -1.0700 -1.1771 -2.7399
 5220SOL    HW217261   2.755   6.263   5.172  0.9223 -1.5167  0.9571
 5221SOL     OW17262   2.813   4.446   1.036  0.2522  0.4345  0.7637
 5221SOL    HW117263   2.762   4.365   1.065 -0.7654  0.1798 -1.4894
 5221SOL    HW217264   2.911   4.423   1.031  0.2943  0.0965  2.4202
 5222SOL     OW17265   0.378   0.427   4.857  0.3519 -0.1010  0.0978
 5222SOL    HW117266   0.455   0.389   4.806  0.7680 -0.2987  0.8574
 5222SOL    HW217267   0.370   0.380   4.945  0.8476  1.5320  1.0591
 5223SOL     OW17268   3.189   5.129   6.218  0.8251  0.1979 -0.3906
 5223SOL    HW117269   3.170   5.144   6.315 -0.2906 -2.7574 -0.0479
 5223SOL    HW217270   3.142   5.199   6.164  1.4259  1.8654  1.1455
 5224SOL     OW17271   6.785   0.985   4.470 -0.5912 -0.6005  0.0439
 5224SOL    HW117272   6.719   0.928   4.421  1.2710 -1.6095 -1.4321
 5224SOL    HW217273   6.786   1.077   4.431  1.2099 -1.5255 -2.2699
 5225SOL     OW17274   3.852   5.426   6.072  0.7157  0.2858 -0.3508
 5225SOL    HW117275   3.904   5.349   6.035  0.2455 -0.4323  0.4352
 5225SOL    HW217276   3.764   5.433   6.025 -0.9797 -2.1948  2.1330
 5226SOL     OW17277   5.877   2.185   3.849 -0.1072 -0.5203 -0.4760
 5226SOL    HW117278   5.895   2.095   3.889 -1.6433 -0.3442  0.7548
 5226SOL    HW217279   5.781   2.209   3.866  0.5782  1.8828  0.3451
 5227SOL     OW17280   5.994   0.498   4.585 -0.3894  0.0732  0.3722
 5227SOL    HW117281   6.027   0.502   4.490 -0.9159  0.2131  0.1924
 5227SOL    HW217282   6.069   0.521   4.647 -0.3726  1.3207 -0.0776
 5228SOL     OW17283   3.848   3.397   0.309 -0.0269  0.3434  0.6480
 5228SOL    HW117284   3.857   3.463   0.383  0.9099  1.5816 -0.5202
 5228SOL    HW217285   3.921   3.328   0.316  1.7732  2.0246 -0.6046
 5229SOL     OW17286   3.008   0.832   4.054 -0.8499 -0.5835 -0.5181
 5229SOL    HW117287   2.946   0.893   4.104 -1.8444 -1.8118 -0.2113
 5229SOL    HW217288   2.958   0.787   3.980 -0.4208 -1.8142 -0.0877
 5230SOL     OW17289   6.537   5.208   0.279  0.3610 -0.1786  0.0755
 5230SOL    HW117290   6.549   5.296   0.326  1.5938 -0.8879  1.1402
 5230SOL    HW217291   6.455   5.213   0.221 -0.4078  1.2023  1.1959
 5231SOL     OW17292   4.483   0.795   1.961  0.3161 -0.1209 -0.5934
 5231SOL    HW117293   4.417   0.865   1.988  0.3501 -0.3578  0.1310
 5231SOL    HW217294   4.560   0.838   1.913  0.9390  0.5231  0.9233
 5232SOL     OW17295   2.756   6.895   5.632 -0.0895 -0.3980 -0.4263
 5232SOL    HW117296   2.708   6.982   5.641 -0.2061 -0.5784  1.0331
 5232SOL    HW217297   2.714   6.841   5.559 -2.9030 -0.9747  1.4119
 5233SOL     OW17298   3.272   4.110   1.061 -0.0737  0.4066  0.9295
 5233SOL    HW117299   3.223   4.085   1.145  0.8347 -0.4343  1.2312
 5233SOL    HW217300   3.268   4.033   0.996 -0.4442  0.9101  0.3420
 5234SOL     OW17301   1.968   6.773   0.252 -1.1377  0.2592 -0.1696
 5234SOL    HW117302   1.997   6.679   0.269 -1.6041  0.5005  2.2659
 5234SOL    HW217303   1.928   6.811   0.335 -1.9023  2.2914 -1.4006
 5235SOL     OW17304   0.024   2.016   2.230 -0.0757 -0.9953  0.6752
 5235SOL    HW117305  -0.001   2.035   2.326 -0.8958  0.6544  0.1846
 5235SOL    HW217306  -0.058   1.990   2.179  0.0845 -0.4307  0.1139
 5236SOL     OW17307   0.798   0.571   1.736  0.4140  0.1913  0.2862
 5236SOL    HW117308   0.752   0.518   1.665  0.6309 -0.8099  0.8669
 5236SOL    HW217309   0.887   0.602   1.703 -0.3699  1.5802 -0.6125
 5237SOL     OW17310   5.011   6.579   5.801  0.3133 -0.3826 -0.3729
 5237SOL    HW117311   5.082   6.631   5.849  0.0851 -2.1889  2.1025
 5237SOL    HW217312   5.052   6.527   5.726  1.2906 -0.1244 -0.0320
 5238SOL     OW17313   6.831   3.875   4.196  0.0298  0.2643  0.1752
 5238SOL    HW117314   6.805   3.963   4.235  0.6457  0.0293  1.1368
 5238SOL    HW217315   6.763   3.848   4.127  0.0436  1.6615 -0.4235
 5239SOL     OW17316   0.412   4.797   4.856  0.7435  0.1373 -0.1560
 5239SOL    HW117317   0.383   4.870   4.795  0.9717  0.0755 -0.3435
 5239SOL    HW217318   0.495   4.825   4.905  1.5154 -0.4244 -1.0970
 5240SOL     OW17319   2.853   3.221   6.939 -0.3691 -0.1214 -0.4640
 5240SOL    HW117320   2.886   3.129   6.959  1.5528  0.7624  0.6632
 5240SOL    HW217321   2.786   3.248   7.008 -0.7310 -0.5508 -0.6413
 5241SOL     OW17322   4.387   1.456   0.697 -0.4231 -0.3330 -0.6543
 5241SOL    HW117323   4.388   1.526   0.768  1.5502  0.9145 -1.8302
 5241SOL    HW217324   4.300   1.460   0.647 -2.1386 -1.6685  1.9765
 5242SOL     OW17325   0.726   1.317   3.509  0.2418  0.4952 -0.0945
 5242SOL    HW117326   0.712   1.322   3.410 -0.6860 -2.1427 -0.1843
 5242SOL    HW217327   0.649   1.360   3.556  0.0992  0.7130 -0.5254
 5243SOL     OW17328   5.946   3.786   6.798 -0.1167  0.3734  0.2903
 5243SOL    HW117329   5.972   3.778   6.894  0.8337  0.6981  0.0687
 5243SOL    HW217330   6.022   3.824   6.746  0.7090 -2.9928 -1.2132
 5244SOL     OW17331   3.106   3.443   5.631  0.0117  0.1464  0.4562
 5244SOL    HW117332   3.087   3.346   5.647 -0.3781  0.0620 -0.4866
 5244SOL    HW217333   3.051   3.499   5.693 -1.4214 -0.1800 -0.4734
 5245SOL     OW17334   0.586   1.805   1.620  0.3215 -0.5749 -0.4008
 5245SOL    HW117335   0.531   1.786   1.538 -1.9105 -1.0565  1.1131
 5245SOL    HW217336   0.634   1.721   1.648 -0.2860 -0.8846 -0.2673
 5246SOL     OW17337   6.064   2.205   1.662  0.6988 -0.0213 -0.2630
 5246SOL    HW117338   6.080   2.295   1.703  0.5343 -0.1064 -0.0048
 5246SOL    HW217339   5.968   2.198   1.633 -0.2378 -1.2686  2.7300
 5247SOL     OW17340   2.203   4.178   1.317  0.4482  0.2521  0.8144
 5247SOL    HW117341   2.271   4.249   1.300 -0.6150  1.0995 -0.0522
 5247SOL    HW217342   2.237   4.115   1.388  1.7275  1.1698  1.0463
 5248SOL     OW17343   6.720   4.881   4.362  0.6861  0.4662 -0.4165
 5248SOL    HW117344   6.683   4.842   4.446  0.0475  1.2269 -0.3327
 5248SOL    HW217345   6.820   4.883   4.368  0.6785 -0.1686  0.0131
 5249SOL     OW17346   3.057   5.885   3.902  0.1834 -0.0969  0.0211
 5249SOL    HW117347   2.974   5.910   3.953  0.3965 -0.1802  0.4085
 5249SOL    HW217348   3.136   5.933   3.941  0.4726 -0.7622  0.2764
 5250SOL     OW17349   0.830   0.869   3.206 -0.6859  0.0276 -0.8612
 5250SOL    HW117350   0.832   0.772   3.231  0.1468 -0.0314 -1.1424
 5250SOL    HW217351   0.899   0.918   3.258 -1.7396  0.6540 -0.0174
 5251SOL     OW17352   6.311   4.026   1.733 -0.7028  0.0576  0.0349
 5251SOL    HW117353   6.367   4.079   1.796 -0.7666 -0.3006  0.3999
 5251SOL    HW217354   6.333   4.051   1.639 -0.9107  0.9124  0.2059
 5252SOL     OW17355   2.114   5.582   2.669  0.9828 -0.5430 -0.4924
 5252SOL    HW117356   2.137   5.513   2.600  1.1795  0.0720 -1.0614
 5252SOL    HW217357   2.026   5.561   2.711  2.0424 -2.3580  0.9412
 5253SOL     OW17358   6.005   5.762   1.727  0.0511 -0.1328  0.2414
 5253SOL    HW117359   5.973   5.687   1.785 -1.4478  0.6538  0.4687
 5253SOL    HW217360   6.093   5.737   1.687 -0.3739 -1.9953  0.3619
 5254SOL     OW17361   1.676   1.231   4.193 -0.0709  0.1382  0.4581
 5254SOL    HW117362   1.676   1.296   4.270  1.6694 -1.3103  1.7971
 5254SOL    HW217363   1.616   1.154   4.215  1.3892 -0.8967  1.0205
 5255SOL     OW17364   5.639   3.364   4.186  0.1581 -0.6007 -0.1837
 5255SOL    HW117365   5.688   3.444   4.149 -1.8111 -0.0690 -1.7992
 5255SOL    HW217366   5.618   3.380   4.283  0.1348  0.6739 -0.3816
 5256SOL     OW17367   3.296   2.634   2.017  0.1193  0.2396 -0.0467
 5256SOL    HW117368   3.253   2.622   2.107  0.9930  0.4847  0.4183
 5256SOL    HW217369   3.228   2.666   1.952  0.0760  3.0514  1.2541
 5257SOL     OW17370   0.811   0.617   4.891 -0.3629 -0.0614 -0.1205
 5257SOL    HW117371   0.859   0.624   4.804 -0.4630 -0.7806 -0.2412
 5257SOL    HW217372   0.740   0.688   4.895 -0.4969 -0.1523 -0.7132
 5258SOL     OW17373   1.536   3.529   5.335 -0.1456 -0.0704  0.3237
 5258SOL    HW117374   1.559   3.486   5.422 -1.3267 -0.8452  0.2758
 5258SOL    HW217375   1.452   3.582   5.345 -0.7187 -0.7821 -0.5080
 5259SOL     OW17376   6.057   5.575   0.024  0.1774 -0.3024 -0.0318
 5259SOL    HW117377   5.992   5.643   0.056 -1.5707 -0.7258 -2.4883
 5259SOL    HW217378   6.144   5.619   0.003  0.5497  0.3850  2.5395
 5260SOL     OW17379   4.925   6.587   6.663 -0.2361 -0.1300  0.4218
 5260SOL    HW117380   4.923   6.586   6.563 -0.6303 -2.5321  0.4114
 5260SOL    HW217381   4.997   6.650   6.693  0.3845  0.0871 -1.3690
 5261SOL     OW17382   2.735   3.497   6.034  0.0991  0.2702  0.4785
 5261SOL    HW117383   2.664   3.427   6.032 -1.3904  1.7385 -0.6381
 5261SOL    HW217384   2.781   3.501   5.945 -0.6013  1.4169  0.1409
 5262SOL     OW17385   1.770   1.085   2.499  0.5659 -0.1964 -0.5320
 5262SOL    HW117386   1.687   1.032   2.514  0.9041 -0.4708  0.4673
 5262SOL    HW217387   1.814   1.104   2.587  2.0213 -0.8058 -1.0904
 5263SOL     OW17388   3.476   3.251   6.309  0.4496 -0.7105 -0.4340
 5263SOL    HW117389   3.567   3.223   6.276 -0.4280 -2.0317 -1.8562
 5263SOL    HW217390   3.408   3.232   6.239 -0.8652  0.9186  0.3413
 5264SOL     OW17391   0.664   2.785   1.471  0.0493 -0.0278 -0.0189
 5264SOL    HW117392   0.730   2.791   1.397  0.4819 -1.1537  0.2592
 5264SOL    HW217393   0.647   2.689   1.493 -0.6436  0.2780  0.8403
 5265SOL     OW17394   5.867   6.665   6.400 -0.3816  0.0798 -0.9878
 5265SOL    HW117395   5.844   6.568   6.404 -1.0984  0.2390  3.7084
 5265SOL    HW217396   5.963   6.678   6.422  0.0464  0.4777 -2.8636
 5266SOL     OW17397   6.908   4.647   0.120  0.3334  0.1026  0.4634
 5266SOL    HW117398   6.911   4.559   0.169 -0.6182  0.2404  0.7854
 5266SOL    HW217399   6.966   4.713   0.167  0.6444 -0.2089  0.5202
 5267SOL     OW17400   4.987   1.134   1.512 -0.3118 -0.1209 -0.5938
 5267SOL    HW117401   4.978   1.214   1.571  0.8527  0.0843 -0.6629
 5267SOL    HW217402   5.006   1.164   1.419 -1.1625 -0.4642 -0.8839
 5268SOL     OW17403   2.937   2.936   6.152  0.4035 -0.2608  0.1456
 5268SOL    HW117404   2.849   2.901   6.181  1.0002  0.2312  2.7712
 5268SOL    HW217405   2.951   3.028   6.190  0.5733  1.2963 -3.2206
 5269SOL     OW17406   6.741   0.636   5.848 -0.1459  0.1233 -0.1142
 5269SOL    HW117407   6.791   0.564   5.894  0.3423  0.3463 -0.2914
 5269SOL    HW217408   6.649   0.604   5.825 -0.1442 -0.2253  0.3664
 5270SOL     OW17409   4.973   3.513   5.000 -0.1753 -0.1570  0.2345
 5270SOL    HW117410   5.025   3.432   4.974 -1.0514 -0.8695  0.6556
 5270SOL    HW217411   5.032   3.594   4.994  0.8926 -0.8984  0.4305
 5271SOL     OW17412   1.695   2.574   2.071  0.4866 -0.0278  0.0849
 5271SOL    HW117413   1.769   2.623   2.116  0.0353  1.4717 -0.7449
 5271SOL    HW217414   1.655   2.631   1.999 -0.6305 -1.2964 -0.3597
 5272SOL     OW17415   0.954   3.727   0.353 -0.1827 -0.2499 -0.1189
 5272SOL    HW117416   0.928   3.788   0.278 -0.2166 -0.7468 -0.5101
 5272SOL    HW217417   0.922   3.634   0.334  0.0940 -0.4470  0.3583
 5273SOL     OW17418   1.527   2.429   2.495  0.8443  0.3054  0.8544
 5273SOL    HW117419   1.594   2.466   2.431  1.2927 -1.1631  0.4401
 5273SOL    HW217420   1.469   2.503   2.530 -0.6339  0.9509 -2.6218
 5274SOL     OW17421   0.812   3.491   0.347 -0.1793 -0.1636 -0.0169
 5274SOL    HW117422   0.731   3.515   0.401  0.4114  0.7714  0.4781
 5274SOL    HW217423   0.859   3.414   0.389 -1.0424 -0.9940 -0.5480
 5275SOL     OW17424   6.227   5.235   0.313 -0.2048 -0.2539 -0.3215
 5275SOL    HW117425   6.194   5.327   0.334 -0.1766 -0.2543 -0.2715
 5275SOL    HW217426   6.152   5.169   0.322 -0.1781 -0.2622 -0.1576
 5276SOL     OW17427   4.006   4.435   0.935 -0.1874 -0.8771  0.2849
 5276SOL    HW117428   3.984   4.352   0.884 -1.6263 -0.8712  0.8501
 5276SOL    HW217429   3.992   4.420   1.033 -0.4191  0.0154  0.4032
 5277SOL     OW17430   6.048   3.596   2.845  0.1369  0.6115  0.6689
 5277SOL    HW117431   6.136   3.633   2.875 -0.1575  1.0481  1.0009
 5277SOL    HW217432   5.985   3.671   2.826 -0.9180  0.2943  2.6613
 5278SOL     OW17433   0.212   2.713   2.492  0.3277 -0.0517 -0.0670
 5278SOL    HW117434   0.306   2.701   2.459  0.3553 -2.0916  0.5664
 5278SOL    HW217435   0.153   2.736   2.415  1.3265  1.2355 -0.4832
 5279SOL     OW17436   1.947   2.426   4.466  0.1975 -0.4471  0.1447
 5279SOL    HW117437   1.874   2.415   4.533 -1.7707  1.5858 -1.5206
 5279SOL    HW217438   2.006   2.502   4.492 -0.2735  0.0255 -0.1470
 5280SOL     OW17439   0.296   3.876   1.800  0.1808 -0.6830  0.2024
 5280SOL    HW117440   0.276   3.783   1.771  0.1235 -0.6120  0.0167
 5280SOL    HW217441   0.306   3.935   1.720 -2.4946  0.0567  0.3378
 5281SOL     OW17442   4.858   1.946   0.681  0.1111  0.1056 -0.3377
 5281SOL    HW117443   4.820   2.038   0.664  0.5164  0.4215  0.4206
 5281SOL    HW217444   4.846   1.923   0.778  1.1608 -0.1120 -0.2543
 5282SOL     OW17445   0.750   5.194   3.686 -0.3452  0.5378 -0.2682
 5282SOL    HW117446   0.826   5.144   3.645 -1.5816  1.4148 -4.0641
 5282SOL    HW217447   0.786   5.270   3.740  1.5611  1.3784 -2.5417
 5283SOL     OW17448   5.510   5.493   6.197 -0.1955  0.1863  0.2007
 5283SOL    HW117449   5.563   5.541   6.127 -1.2108  0.6118 -0.2927
 5283SOL    HW217450   5.513   5.544   6.282  3.2258 -1.6233  1.3267
 5284SOL     OW17451   1.084   1.282   1.005 -0.0095 -0.4940 -0.4506
 5284SOL    HW117452   1.076   1.201   0.946  2.7047 -0.9934 -0.2394
 5284SOL    HW217453   1.120   1.255   1.094  1.7407  1.0191 -0.6511
 5285SOL     OW17454   2.628   1.318   4.529  0.3741  0.5082  0.2249
 5285SOL    HW117455   2.681   1.310   4.614  0.0590 -0.2754  0.3569
 5285SOL    HW217456   2.576   1.404   4.531 -0.1170  0.2124  1.1232
 5286SOL     OW17457   3.084   5.119   0.366  0.0701 -0.3568 -0.1655
 5286SOL    HW117458   2.996   5.116   0.412  0.8024  0.7188  1.4013
 5286SOL    HW217459   3.156   5.090   0.429  1.3087  2.7777  0.0623
 5287SOL     OW17460   6.604   4.213   6.106  0.0931 -0.4676  0.1065
 5287SOL    HW117461   6.575   4.123   6.138 -1.0397 -0.3931 -0.6498
 5287SOL    HW217462   6.536   4.281   6.132  0.4202 -0.0040 -0.2358
 5288SOL     OW17463   1.839   6.758   5.520  0.5205  0.0181  0.4877
 5288SOL    HW117464   1.842   6.667   5.479  0.4703 -0.4053  1.3947
 5288SOL    HW217465   1.923   6.808   5.498 -0.6364  0.8852 -2.4574
 5289SOL     OW17466   6.736   6.848   0.641  0.3426 -0.2647 -0.0372
 5289SOL    HW117467   6.670   6.910   0.597  1.1642  1.3181  0.8622
 5289SOL    HW217468   6.698   6.816   0.728  0.6110  0.3767  0.3205
 5290SOL     OW17469   0.873   2.755   2.782 -0.4277 -0.2566  0.2054
 5290SOL    HW117470   0.897   2.852   2.771 -0.3342 -0.3313 -0.3031
 5290SOL    HW217471   0.774   2.745   2.787 -0.4475 -0.1511  0.0432
 5291SOL     OW17472   0.017   4.100   6.536 -0.1984 -0.3151 -0.1510
 5291SOL    HW117473  -0.026   4.021   6.580  0.5172  0.4140  2.0120
 5291SOL    HW217474   0.084   4.068   6.469 -1.0019 -1.5035 -0.4208
 5292SOL     OW17475   0.476   3.582   6.335 -0.2411 -0.2018  0.0697
 5292SOL    HW117476   0.467   3.679   6.358  3.2282  0.1687  0.3795
 5292SOL    HW217477   0.567   3.550   6.361 -1.5474 -3.8126  0.7589
 5293SOL     OW17478   1.308   3.946   0.082  1.0926 -0.3316  0.0449
 5293SOL    HW117479   1.314   3.852   0.048  0.0766  0.1897 -1.6740
 5293SOL    HW217480   1.227   3.990   0.044  0.1409  0.4979  2.7859
 5294SOL     OW17481   4.419   0.828   5.101 -0.2574  0.4008  0.5766
 5294SOL    HW117482   4.471   0.817   5.185 -1.2873 -1.7969  1.0095
 5294SOL    HW217483   4.453   0.764   5.032  0.7167  2.3231 -0.8054
 5295SOL     OW17484   4.681   4.133   1.339 -0.5198 -0.5996  0.0518
 5295SOL    HW117485   4.682   4.039   1.374 -0.3170 -1.4806 -2.1530
 5295SOL    HW217486   4.753   4.186   1.384 -0.0861 -1.7284  0.7351
 5296SOL     OW17487   3.235   6.800   2.238  0.3745 -0.4155  0.2817
 5296SOL    HW117488   3.207   6.890   2.271 -1.0364 -0.5805 -0.3920
 5296SOL    HW217489   3.290   6.754   2.308 -0.0238  0.4287  1.1686
 5297SOL     OW17490   2.340   1.397   5.407 -0.1708  0.1259 -0.6737
 5297SOL    HW117491   2.415   1.407   5.472 -0.1907  2.4397 -0.9319
 5297SOL    HW217492   2.338   1.303   5.372  1.6776 -0.3577  0.4133
 5298SOL     OW17493   5.174   1.678   2.073  0.0380  0.5422  0.0999
 5298SOL    HW117494   5.155   1.776   2.075  0.0930  0.5409  0.5952
 5298SOL    HW217495   5.089   1.627   2.073 -0.0466  0.6045 -1.6707
 5299SOL     OW17496   4.808   5.621   5.378 -0.0159 -0.8843 -0.1102
 5299SOL    HW117497   4.890   5.669   5.347 -0.8523  0.8600  0.2495
 5299SOL    HW217498   4.810   5.612   5.477 -1.0000  0.7080  0.0931
 5300SOL     OW17499   3.217   0.508   6.304 -0.2061  0.4549 -0.6925
 5300SOL    HW117500   3.276   0.454   6.244 -0.4447  0.2971 -0.7875
 5300SOL    HW217501   3.153   0.447   6.351  0.5345  0.4786  0.3682
 5301SOL     OW17502   2.267   1.555   6.677 -0.2028  0.3048  1.0849
 5301SOL    HW117503   2.235   1.504   6.597 -1.3560  1.0724  1.0312
 5301SOL    HW217504   2.317   1.636   6.646 -1.1797  0.9356  1.1061
 5302SOL     OW17505   4.782   3.054   1.002  0.1289  0.3615 -0.1881
 5302SOL    HW117506   4.811   3.084   0.912 -0.1925 -0.0476 -0.4325
 5302SOL    HW217507   4.813   2.960   1.017  1.5959  0.9511  0.7783
 5303SOL     OW17508   1.692   5.473   4.735  0.0062  0.4377 -0.5181
 5303SOL    HW117509   1.725   5.504   4.646 -1.2444  2.1517 -0.4414
 5303SOL    HW217510   1.743   5.518   4.808 -2.8708  3.9271 -0.3835
 5304SOL     OW17511   0.208   3.374   0.279  0.0760 -0.6965 -0.1776
 5304SOL    HW117512   0.118   3.401   0.244 -0.1390 -1.4704 -0.2280
 5304SOL    HW217513   0.246   3.301   0.221  0.0024 -1.5407  0.8230
 5305SOL     OW17514   6.379   1.134   4.235 -0.1450 -0.4534  0.4563
 5305SOL    HW117515   6.460   1.189   4.253 -0.3915  0.3871 -0.8422
 5305SOL    HW217516   6.304   1.194   4.207 -0.8320 -1.3303  0.3875
 5306SOL     OW17517   2.683   3.549   0.814 -0.1548 -0.8421 -1.1422
 5306SOL    HW117518   2.602   3.564   0.871 -2.5185 -2.6995 -3.7223
 5306SOL    HW217519   2.697   3.629   0.755  0.4573 -0.1620 -0.0997
 5307SOL     OW17520   1.240   1.200   5.099 -0.2721 -0.3868 -0.0478
 5307SOL    HW117521   1.221   1.179   5.003 -0.7302 -0.8897  0.1447
 5307SOL    HW217522   1.309   1.136   5.134 -0.8071 -0.8284  0.2162
 5308SOL     OW17523   1.807   1.464   1.828  0.1350 -0.0062  0.3617
 5308SOL    HW117524   1.757   1.504   1.751 -0.7509  0.3647  1.1223
 5308SOL    HW217525   1.756   1.386   1.864  0.9331 -0.6701  0.0933
 5309SOL     OW17526   1.740   4.313   1.151 -0.2223  0.4895  0.1059
 5309SOL    HW117527   1.685   4.234   1.177 -0.8687  0.7802 -0.3503
 5309SOL    HW217528   1.828   4.311   1.200  0.4493 -1.3657 -1.0808
 5310SOL     OW17529   6.871   6.454   5.633 -0.3488 -0.0503  0.0913
 5310SOL    HW117530   6.779   6.483   5.607 -1.7491 -2.6532  1.6982
 5310SOL    HW217531   6.914   6.407   5.556 -1.1187 -0.4620 -0.0961
 5311SOL     OW17532   0.863   2.490   3.904  0.1731 -0.0035  0.2431
 5311SOL    HW117533   0.902   2.555   3.839 -0.3262 -1.1330 -1.2531
 5311SOL    HW217534   0.933   2.425   3.933 -0.0436 -0.7428 -0.8043
 5312SOL     OW17535   4.592   5.419   0.867  0.4153  0.0101  0.0477
 5312SOL    HW117536   4.666   5.357   0.841  1.5399  1.5891 -0.7303
 5312SOL    HW217537   4.505   5.383   0.834  0.6413 -2.4210  1.9032
 5313SOL     OW17538   5.539   3.164   2.245  0.6041 -0.1012  0.5017
 5313SOL    HW117539   5.575   3.257   2.235 -0.2277  0.1237 -0.4783
 5313SOL    HW217540   5.593   3.102   2.188  2.3267 -0.5828  2.5047
 5314SOL     OW17541   0.641   4.549   4.848 -0.3537  0.1325 -0.2566
 5314SOL    HW117542   0.608   4.617   4.913  0.4368 -0.1029  0.4153
 5314SOL    HW217543   0.731   4.577   4.813 -0.9724  0.4922 -1.6311
 5315SOL     OW17544   4.145   1.393   1.198 -0.4354 -0.1413 -0.3117
 5315SOL    HW117545   4.111   1.452   1.272 -1.7185 -1.2264  0.0091
 5315SOL    HW217546   4.212   1.329   1.235 -1.2952 -0.8832  0.0203
 5316SOL     OW17547   1.702   5.068   1.250 -0.3470  0.3848 -0.3873
 5316SOL    HW117548   1.644   5.124   1.310 -1.5044 -1.7283  0.5740
 5316SOL    HW217549   1.792   5.056   1.292 -0.3923  0.7734 -0.1744
 5317SOL     OW17550   2.245   0.091   4.356 -0.1033  0.0594 -0.6390
 5317SOL    HW117551   2.283   0.034   4.283 -0.1422 -0.3263 -0.3616
 5317SOL    HW217552   2.319   0.141   4.401 -0.1730  1.0145 -1.5334
 5318SOL     OW17553   6.538   2.721   3.876  0.1773  0.1747  0.3799
 5318SOL    HW117554   6.522   2.677   3.787  3.9424 -0.5560 -0.1000
 5318SOL    HW217555   6.547   2.819   3.862 -1.7603  0.4172  0.4541
 5319SOL     OW17556   5.532   6.861   1.794  0.1365 -0.1533  0.7090
 5319SOL    HW117557   5.628   6.886   1.808 -0.0749  0.3339  1.3731
 5319SOL    HW217558   5.491   6.836   1.882 -0.9519  1.9162  0.8562
 5320SOL     OW17559   0.150   3.699   0.578 -0.4894  0.0090 -0.3803
 5320SOL    HW117560   0.180   3.794   0.589  0.1645 -0.0125 -1.7554
 5320SOL    HW217561   0.105   3.688   0.490 -0.2261 -1.0382 -0.3981
 5321SOL     OW17562   1.102   1.789   4.617  0.6180 -0.1841  0.5600
 5321SOL    HW117563   1.137   1.844   4.541  0.7352 -0.5748  0.3256
 5321SOL    HW217564   1.115   1.692   4.596 -0.3363 -0.3291  0.5992
 5322SOL     OW17565   6.141   1.645   0.285  0.0774 -0.4283  0.3588
 5322SOL    HW117566   6.120   1.571   0.221  0.9040  0.5420 -1.0934
 5322SOL    HW217567   6.072   1.716   0.277  0.2131 -0.2776  0.5239
 5323SOL     OW17568   2.163   6.887   1.920 -0.5387 -0.2909 -0.2845
 5323SOL    HW117569   2.153   6.866   1.823  0.8523  0.6148 -0.6519
 5323SOL    HW217570   2.172   6.801   1.972  0.5650 -0.7616 -1.1956
 5324SOL     OW17571   2.660   6.635   7.012 -0.1324  0.5101  0.6444
 5324SOL    HW117572   2.564   6.614   6.990  0.4779 -1.9324 -0.0657
 5324SOL    HW217573   2.693   6.706   6.950 -0.8252 -0.3810 -0.8187
 5325SOL     OW17574   0.787   6.464   5.111  0.0974 -0.4156 -0.1624
 5325SOL    HW117575   0.730   6.490   5.189  1.2791  0.0497  0.5792
 5325SOL    HW217576   0.872   6.423   5.145  0.2429 -1.0312 -1.2360
 5326SOL     OW17577   5.238   5.912   4.490  0.2531  0.0644 -0.3960
 5326SOL    HW117578   5.283   5.979   4.549  0.4717  0.0094 -0.4975
 5326SOL    HW217579   5.139   5.920   4.499  0.2640 -1.3008  1.5111
 5327SOL     OW17580   5.911   0.448   6.937 -0.3533  0.2603  0.1548
 5327SOL    HW117581   5.842   0.514   6.905 -0.7093  0.1237  0.6249
 5327SOL    HW217582   5.982   0.496   6.988  0.5016  0.5541 -1.2575
 5328SOL     OW17583   0.478   1.546   3.994  0.0973  0.0988 -0.0988
 5328SOL    HW117584   0.546   1.583   3.931  0.9623 -1.3588 -0.0547
 5328SOL    HW217585   0.510   1.555   4.088  0.4044 -0.8707 -0.0958
 5329SOL     OW17586   2.568   2.003   2.756  0.3362 -0.3117  0.3262
 5329SOL    HW117587   2.501   2.048   2.698 -0.1743 -0.3499  0.8821
 5329SOL    HW217588   2.609   1.927   2.706  0.2041 -0.0889 -0.1282
 5330SOL     OW17589   2.525   2.689   5.087 -0.5593  0.3685  0.1362
 5330SOL    HW117590   2.519   2.782   5.124  1.9459  0.3338  0.8387
 5330SOL    HW217591   2.586   2.634   5.144  0.6118 -0.7532 -2.0512
 5331SOL     OW17592   2.482   0.221   1.428 -0.6179 -0.0515  0.2703
 5331SOL    HW117593   2.386   0.226   1.455 -0.1866  1.9534  1.7423
 5331SOL    HW217594   2.502   0.131   1.391 -2.4599 -1.4168  2.3413
 5332SOL     OW17595   5.823   1.038   0.605 -0.4272  0.4715  0.1288
 5332SOL    HW117596   5.735   1.083   0.586 -0.1516  0.7145 -0.6205
 5332SOL    HW217597   5.898   1.099   0.579 -0.0418 -0.2489 -0.4803
 5333SOL     OW17598   0.104   6.165   6.017  0.4167  0.5126 -0.3909
 5333SOL    HW117599   0.117   6.086   6.078  0.7140 -0.7677 -2.0621
 5333SOL    HW217600   0.188   6.218   6.014 -0.0875  1.5129  1.5133
 5334SOL     OW17601   4.821   1.069   2.912 -0.3414  0.2831  0.2121
 5334SOL    HW117602   4.796   1.111   2.999  0.1158  0.4124  0.2849
 5334SOL    HW217603   4.852   1.140   2.848 -1.3069  0.2717 -0.2880
 5335SOL     OW17604   6.787   4.367   3.764 -0.0029 -0.8482  0.1150
 5335SOL    HW117605   6.758   4.315   3.684 -0.2688  0.5394 -0.7355
 5335SOL    HW217606   6.739   4.455   3.766 -1.0400 -1.3867  2.5704
 5336SOL     OW17607   2.388   6.101   5.640 -0.7003 -0.0702  0.5480
 5336SOL    HW117608   2.312   6.157   5.675 -0.5110  1.2993 -1.1019
 5336SOL    HW217609   2.471   6.120   5.692 -1.1526 -0.5772  1.4892
 5337SOL     OW17610   5.000   4.055   6.114  0.8143 -0.0748 -0.9247
 5337SOL    HW117611   4.951   4.081   6.198  0.6795  0.7637 -1.2486
 5337SOL    HW217612   4.978   3.961   6.090  0.6048 -0.2222 -0.1931
 5338SOL     OW17613   1.842   2.253   5.573  0.4084 -0.3238 -0.0935
 5338SOL    HW117614   1.846   2.164   5.618  0.6432 -1.3421 -2.0152
 5338SOL    HW217615   1.910   2.257   5.500  1.3997  2.0000  0.8509
 5339SOL     OW17616   2.572   2.391   1.230  0.0481  0.2804 -0.1738
 5339SOL    HW117617   2.567   2.379   1.131 -0.0280  1.7585 -0.3684
 5339SOL    HW217618   2.559   2.302   1.275 -1.0733 -0.2378 -1.4431
 5340SOL     OW17619   2.951   3.081   3.194  0.1978 -0.3422  0.0378
 5340SOL    HW117620   3.048   3.102   3.201  0.2435  0.0389 -1.2853
 5340SOL    HW217621   2.908   3.146   3.130 -0.8822 -0.6225  0.4545
 5341SOL     OW17622   3.552   2.874   6.865 -0.1785 -0.6090 -0.2096
 5341SOL    HW117623   3.473   2.918   6.908  0.7696  0.9324  0.0073
 5341SOL    HW217624   3.532   2.857   6.769 -0.2474  1.1671 -0.5414
 5342SOL     OW17625   2.252   6.036   3.763  0.2187  0.2428 -0.3756
 5342SOL    HW117626   2.280   5.996   3.851  3.0895  1.0087 -0.8363
 5342SOL    HW217627   2.174   5.986   3.727 -0.4725 -0.6716  2.1653
 5343SOL     OW17628   4.625   3.093   0.707  0.0852 -0.3050  0.4990
 5343SOL    HW117629   4.723   3.112   0.693  0.0548  0.2547  0.9927
 5343SOL    HW217630   4.577   3.100   0.619  0.3342  0.4056  0.4118
 5344SOL     OW17631   2.524   3.409   5.258 -0.1492 -0.2009  0.4657
 5344SOL    HW117632   2.585   3.486   5.238  0.7825 -1.2255 -0.8270
 5344SOL    HW217633   2.430   3.442   5.265  0.5579  1.5419  3.2389
 5345SOL     OW17634   1.863   2.025   1.448  0.1578  0.1342  0.0062
 5345SOL    HW117635   1.856   2.121   1.474 -0.5427  0.2695 -0.6534
 5345SOL    HW217636   1.820   2.012   1.358  0.8750 -0.6598 -0.2308
 5346SOL     OW17637   0.991   5.590   3.782  0.1202 -0.4342 -0.3582
 5346SOL    HW117638   0.995   5.638   3.694  2.7159 -2.5692 -1.5650
 5346SOL    HW217639   1.027   5.649   3.854 -2.7250  1.6275 -0.4536
 5347SOL     OW17640   5.000   1.334   3.042 -0.1196  0.2098  0.3030
 5347SOL    HW117641   4.933   1.297   3.106  1.1471  0.1236  1.6082
 5347SOL    HW217642   5.061   1.261   3.012  1.1526  0.8135  1.3527
 5348SOL     OW17643   6.160   0.173   4.553 -0.2498 -0.1206 -0.6968
 5348SOL    HW117644   6.106   0.169   4.469 -2.1626 -0.2912  0.4756
 5348SOL    HW217645   6.205   0.262   4.560 -3.2478  1.4966 -0.1179
 5349SOL     OW17646   5.407   1.493   4.355  0.5366 -0.7616  0.3320
 5349SOL    HW117647   5.470   1.557   4.312 -1.5353  0.8284 -0.5045
 5349SOL    HW217648   5.395   1.517   4.452 -0.7801  0.6679 -0.1404
 5350SOL     OW17649   3.598   4.200   6.782  0.0460 -0.3117 -0.7374
 5350SOL    HW117650   3.646   4.287   6.786 -1.9188  0.7798  1.2974
 5350SOL    HW217651   3.500   4.216   6.771 -0.4341 -2.2424  0.2853
 5351SOL     OW17652   1.668   1.045   1.818 -0.1068 -0.0526 -0.0065
 5351SOL    HW117653   1.656   0.948   1.838  0.0400  0.0219  0.4577
 5351SOL    HW217654   1.698   1.056   1.723 -3.3969 -0.2489 -1.1858
 5352SOL     OW17655   2.339   6.294   5.271  0.3542 -0.1747 -1.0403
 5352SOL    HW117656   2.336   6.318   5.174  1.6302  1.0788 -0.7893
 5352SOL    HW217657   2.359   6.375   5.326 -0.8058 -0.7631  0.3372
 5353SOL     OW17658   4.195   0.509   6.070  0.8222  0.1078 -0.1530
 5353SOL    HW117659   4.191   0.478   5.975 -1.3827  0.0735 -0.0968
 5353SOL    HW217660   4.156   0.439   6.130  2.2075  0.1224  0.8161
 5354SOL     OW17661   3.914   4.000   4.900 -0.4002 -0.4454 -0.0061
 5354SOL    HW117662   3.847   3.930   4.875 -1.3813  0.7294 -0.7908
 5354SOL    HW217663   3.867   4.076   4.946  0.6157 -0.2168  0.6867
 5355SOL     OW17664   2.500   4.547   0.480 -0.0850 -0.1121  0.0145
 5355SOL    HW117665   2.595   4.536   0.450 -0.0904  3.1242 -1.5944
 5355SOL    HW217666   2.492   4.632   0.532 -1.9576 -0.8893  1.0831
 5356SOL     OW17667   1.573   4.667   1.695 -0.4600  0.7317 -0.1669
 5356SOL    HW117668   1.586   4.724   1.776  0.7591  0.3108 -0.0425
 5356SOL    HW217669   1.654   4.674   1.637 -0.7230 -0.0817 -0.6428
 5357SOL     OW17670   1.378   1.872   2.981 -0.1306  0.3575 -0.0239
 5357SOL    HW117671   1.413   1.887   2.888  0.5822  0.6702  0.2890
 5357SOL    HW217672   1.413   1.785   3.015  0.1967  0.5814  0.2177
 5358SOL     OW17673   2.564   4.515   5.619 -0.1029 -0.5424  1.0413
 5358SOL    HW117674   2.485   4.575   5.631 -1.4952 -1.4056 -2.5585
 5358SOL    HW217675   2.553   4.434   5.675 -0.8034  0.1882  1.9953
 5359SOL     OW17676   4.203   0.070   4.219 -0.4315  0.3471 -0.6115
 5359SOL    HW117677   4.216   0.169   4.225 -0.5302  0.4723 -2.0213
 5359SOL    HW217678   4.113   0.051   4.178 -0.9416 -0.3631  0.7681
 5360SOL     OW17679   0.004   3.196   1.338 -0.0900 -0.2017 -0.2095
 5360SOL    HW117680  -0.029   3.152   1.422 -3.0882  2.1624  0.0456
 5360SOL    HW217681  -0.054   3.169   1.261 -0.2462  1.0826 -0.5707
 5361SOL     OW17682   0.136   0.264   3.798  0.7465  0.2707  0.1719
 5361SOL    HW117683   0.134   0.266   3.698 -0.3233  0.8666  0.1918
 5361SOL    HW217684   0.065   0.324   3.834 -0.1995 -1.4163  1.2819
 5362SOL     OW17685   0.198   3.750   2.847  0.0326 -0.1517 -0.5670
 5362SOL    HW117686   0.274   3.813   2.836  0.2545 -0.5132 -1.1618
 5362SOL    HW217687   0.231   3.656   2.847 -0.3915 -0.3067 -0.6621
 5363SOL     OW17688   2.270   2.074   0.199 -0.1415 -0.1608 -0.3095
 5363SOL    HW117689   2.235   2.107   0.112 -2.6599 -2.3084 -0.2292
 5363SOL    HW217690   2.220   2.117   0.274  0.5813  0.1290  0.0205
 5364SOL     OW17691   0.831   0.410   3.158 -0.2179  0.0388 -0.2554
 5364SOL    HW117692   0.846   0.378   3.064 -0.9889  0.9676 -0.7147
 5364SOL    HW217693   0.882   0.495   3.173 -0.1680 -0.0598  0.1397
 5365SOL     OW17694   1.244   3.159   0.989  0.7362  0.8549 -0.6563
 5365SOL    HW117695   1.211   3.085   0.931 -0.5932  0.6698  0.3036
 5365SOL    HW217696   1.228   3.247   0.943  0.2538  0.6777 -0.8342
 5366SOL     OW17697   3.029   6.894   0.203  0.3055  0.0607 -0.3463
 5366SOL    HW117698   3.000   6.800   0.185 -1.0418  0.2558  0.6173
 5366SOL    HW217699   3.102   6.893   0.272  0.6890 -0.2918 -0.7466
 5367SOL     OW17700   2.677   5.126   6.713 -0.4488 -0.1330 -0.1309
 5367SOL    HW117701   2.672   5.028   6.732 -2.6976  0.1277  0.8468
 5367SOL    HW217702   2.587   5.161   6.690  0.6304  1.3764 -2.5494
 5368SOL     OW17703   0.306   1.585   4.230 -0.0790 -0.3290 -0.6651
 5368SOL    HW117704   0.348   1.670   4.198  0.2207 -0.4892 -0.7004
 5368SOL    HW217705   0.320   1.514   4.162 -0.2353 -0.4334 -0.5860
 5369SOL     OW17706   0.318   2.208   3.907 -0.1510  0.7459 -0.0708
 5369SOL    HW117707   0.221   2.218   3.931 -0.6507 -0.8956 -1.2004
 5369SOL    HW217708   0.326   2.183   3.810  1.3444 -0.0213  0.2153
 5370SOL     OW17709   3.501   2.992   3.210  0.1628  0.8384 -0.4201
 5370SOL    HW117710   3.553   3.077   3.202  0.7869  0.5489  0.3617
 5370SOL    HW217711   3.404   3.012   3.201  0.3864  1.4002 -1.8652
 5371SOL     OW17712   6.263   5.885   6.931  0.8178 -0.0383 -0.5385
 5371SOL    HW117713   6.340   5.911   6.872  0.7330  0.6399 -0.3542
 5371SOL    HW217714   6.177   5.893   6.880  0.8071 -0.1259 -0.5343
 5372SOL     OW17715   4.941   2.959   5.564  0.8094  0.1545  0.3643
 5372SOL    HW117716   4.925   2.866   5.532 -2.2716  0.6617  0.1136
 5372SOL    HW217717   4.993   3.010   5.495  0.7004 -0.8065 -0.4527
 5373SOL     OW17718   6.889   6.439   4.978  0.2197  0.3218  0.0472
 5373SOL    HW117719   6.925   6.358   4.931 -0.7776 -0.6151  0.8387
 5373SOL    HW217720   6.958   6.511   4.977  0.9033 -0.3056 -1.2246
 5374SOL     OW17721   6.983   3.480   0.179 -0.5373 -0.5277  0.1840
 5374SOL    HW117722   7.009   3.530   0.262 -0.1636 -0.4783  0.0403
 5374SOL    HW217723   6.990   3.540   0.100  0.6983 -1.0100 -0.1011
 5375SOL     OW17724   5.581   0.302   2.731  0.1402 -0.3230 -0.1417
 5375SOL    HW117725   5.501   0.350   2.696 -1.0366 -3.0300 -1.4835
 5375SOL    HW217726   5.661   0.324   2.676 -0.6267 -0.7005 -1.4545
 5376SOL     OW17727   6.208   0.595   1.096 -0.1597  0.0545  0.4800
 5376SOL    HW117728   6.132   0.627   1.040  0.0183  0.2273  0.3336
 5376SOL    HW217729   6.278   0.666   1.101  1.2220 -1.0144 -1.6148
 5377SOL     OW17730   3.527   6.115   5.778 -0.5280  0.3591 -0.1331
 5377SOL    HW117731   3.573   6.060   5.708 -1.8135 -2.2310  0.9146
 5377SOL    HW217732   3.585   6.120   5.859 -0.1615  1.0930 -0.4323
 5378SOL     OW17733   1.339   2.462   4.692 -0.6473 -0.4655 -0.3123
 5378SOL    HW117734   1.306   2.440   4.600  1.7521  0.2974 -1.4417
 5378SOL    HW217735   1.354   2.561   4.698 -3.8102  0.0276  2.0569
 5379SOL     OW17736   5.662   0.590   3.594  0.0939  0.4851 -0.2251
 5379SOL    HW117737   5.754   0.578   3.557 -0.1099  1.2082 -0.9998
 5379SOL    HW217738   5.668   0.632   3.684  0.5800 -0.9342  0.4344
 5380SOL     OW17739   3.782   0.788   4.419 -0.6456  0.5087 -0.2588
 5380SOL    HW117740   3.752   0.862   4.479 -0.7867  0.2901 -0.0560
 5380SOL    HW217741   3.782   0.819   4.324 -0.3273  0.8860 -0.1368
 5381SOL     OW17742   0.333   4.421   2.243  0.5171 -0.2649  0.7131
 5381SOL    HW117743   0.370   4.502   2.290 -0.0597  0.9053 -0.7892
 5381SOL    HW217744   0.409   4.363   2.212  1.0648  1.0821 -0.5551
 5382SOL     OW17745   7.017   0.518   3.226 -0.3514 -0.3097  0.3950
 5382SOL    HW117746   7.021   0.617   3.241 -0.6214 -0.3966  1.0980
 5382SOL    HW217747   7.104   0.477   3.251 -0.0688 -0.1965 -0.3745
 5383SOL     OW17748   6.062   4.320   2.800 -0.0467 -0.6655 -0.6152
 5383SOL    HW117749   6.124   4.396   2.822  0.1224 -1.0538  0.3163
 5383SOL    HW217750   6.006   4.344   2.721 -0.6001  0.7817  0.1753
 5384SOL     OW17751   2.599   5.604   6.794  0.2479 -0.2102  0.1591
 5384SOL    HW117752   2.623   5.527   6.853  1.2289  1.1777  1.6427
 5384SOL    HW217753   2.500   5.618   6.797  0.3415  0.2713  2.0897
 5385SOL     OW17754   0.760   3.852   0.742 -0.3768 -0.3283  0.3380
 5385SOL    HW117755   0.841   3.814   0.696  0.3416  0.8489  0.5952
 5385SOL    HW217756   0.699   3.891   0.673 -0.2493 -0.3368  0.2173
 5386SOL     OW17757   0.926   3.903   2.709 -0.2672  0.7060 -0.0976
 5386SOL    HW117758   0.964   3.876   2.797 -0.0486  0.3118 -0.3130
 5386SOL    HW217759   0.885   3.824   2.664  3.7490 -0.2937 -2.4786
 5387SOL     OW17760   0.180   3.628   6.629  0.3974  0.4696  0.0478
 5387SOL    HW117761   0.080   3.636   6.629  0.2926 -0.6768 -0.5503
 5387SOL    HW217762   0.210   3.591   6.541  1.2917  0.0528  0.5220
 5388SOL     OW17763   4.625   4.669   1.996 -0.1307 -0.2980  0.2847
 5388SOL    HW117764   4.531   4.678   1.963  0.3947  1.0591 -0.9637
 5388SOL    HW217765   4.638   4.725   2.077 -0.2217  0.0595  0.0539
 5389SOL     OW17766   1.481   1.552   6.391  0.0024  0.2138 -0.0522
 5389SOL    HW117767   1.462   1.645   6.422 -0.0450  0.3284 -0.4249
 5389SOL    HW217768   1.478   1.490   6.469 -2.0812  0.1972 -0.0879
 5390SOL     OW17769   0.728   2.258   5.024  0.5187 -0.1092 -0.1024
 5390SOL    HW117770   0.792   2.284   5.096  0.1205 -1.0880  0.6247
 5390SOL    HW217771   0.738   2.160   5.005 -2.0030 -0.7218  1.3331
 5391SOL     OW17772   1.747   3.663   1.310  0.9779  0.0241  0.0848
 5391SOL    HW117773   1.678   3.632   1.375 -0.0946  0.8278 -0.6304
 5391SOL    HW217774   1.773   3.757   1.331  1.6816 -0.1970  0.2042
 5392SOL     OW17775   5.794   1.246   4.189  0.2817 -0.9468  0.3363
 5392SOL    HW117776   5.803   1.176   4.118  0.9979  1.2043 -1.8092
 5392SOL    HW217777   5.880   1.255   4.238  0.7138 -0.4359 -0.5064
 5393SOL     OW17778   4.510   3.400   1.796  0.3421  0.0438 -0.4843
 5393SOL    HW117779   4.433   3.343   1.825  0.1617 -1.5685 -3.7527
 5393SOL    HW217780   4.555   3.439   1.877 -2.9618 -0.1168  1.5881
 5394SOL     OW17781   5.721   6.570   0.713  0.9471  0.3268 -0.1453
 5394SOL    HW117782   5.679   6.660   0.703  0.9581  0.3370 -0.1027
 5394SOL    HW217783   5.762   6.541   0.627  0.0911 -0.0654 -0.4337
 5395SOL     OW17784   4.235   6.423   4.091  0.0399  0.3690 -0.1809
 5395SOL    HW117785   4.309   6.359   4.112  0.1030  1.0732  2.1180
 5395SOL    HW217786   4.273   6.513   4.069 -0.0841 -0.0507 -2.3090
 5396SOL     OW17787   0.596   3.551   5.274 -0.3426 -0.4278  0.2888
 5396SOL    HW117788   0.665   3.479   5.267  0.9947  0.6878  1.4965
 5396SOL    HW217789   0.568   3.578   5.182  2.8465  0.9042 -0.4430
 5397SOL     OW17790   4.405   4.798   5.563 -0.2672 -0.0098 -0.4765
 5397SOL    HW117791   4.388   4.891   5.595  0.7345  0.2816 -0.7495
 5397SOL    HW217792   4.347   4.779   5.483  0.0238  0.6335 -0.8495
 5398SOL     OW17793   5.632   0.251   0.021 -0.2896 -0.4427 -0.1400
 5398SOL    HW117794   5.576   0.334   0.018 -0.2776 -0.2970  2.0986
 5398SOL    HW217795   5.725   0.274   0.050  0.0817 -1.0929 -0.7661
 5399SOL     OW17796   3.923   6.869   4.304 -0.1729 -0.4258 -0.2786
 5399SOL    HW117797   3.945   6.781   4.346 -0.5855 -0.1228  0.6013
 5399SOL    HW217798   3.878   6.853   4.216 -1.6401 -1.1568  0.5496
 5400SOL     OW17799   1.283   1.174   3.525  0.3039  0.2841  0.2765
 5400SOL    HW117800   1.340   1.254   3.539 -1.4294  1.9694 -1.5921
 5400SOL    HW217801   1.326   1.114   3.457  1.0492  0.2253  0.7967
 5401SOL     OW17802   6.600   5.858   4.047 -0.1710 -0.1532  0.0988
 5401SOL    HW117803   6.697   5.839   4.036 -0.3072 -0.9787  0.2713
 5401SOL    HW217804   6.564   5.900   3.963  0.5320  1.0775  0.3806
 5402SOL     OW17805   5.828   3.913   6.538  0.6243  0.1719 -0.2273
 5402SOL    HW117806   5.921   3.927   6.504  0.2250  0.4299 -1.2366
 5402SOL    HW217807   5.823   3.944   6.633  1.4244  0.6887 -0.3435
 5403SOL     OW17808   6.914   4.074   0.403 -0.6238  0.3313 -0.3783
 5403SOL    HW117809   6.873   3.990   0.438 -0.6984 -0.2155 -1.7294
 5403SOL    HW217810   6.842   4.144   0.392 -0.7778  0.1598 -0.4684
 5404SOL     OW17811   1.971   6.984   0.981 -0.2688 -0.0977  0.3953
 5404SOL    HW117812   1.923   6.974   1.069  0.2050  2.4997  1.0503
 5404SOL    HW217813   1.932   7.061   0.931  1.5990  0.5445 -0.1616
 5405SOL     OW17814   6.220   4.773   1.596  0.0062 -0.1307  0.2385
 5405SOL    HW117815   6.278   4.692   1.606  0.7986  0.2359 -1.1914
 5405SOL    HW217816   6.239   4.818   1.509 -2.9423 -0.3960 -0.6563
 5406SOL     OW17817   6.071   3.436   5.308  0.5228 -0.4045  0.3870
 5406SOL    HW117818   6.058   3.533   5.330  2.3169 -0.0150 -0.0809
 5406SOL    HW217819   6.152   3.426   5.250 -0.3794 -2.0623 -0.6553
 5407SOL     OW17820   6.898   5.841   3.852 -0.0025 -0.3170 -0.0241
 5407SOL    HW117821   6.904   5.788   3.937 -0.3030  0.7918  0.7162
 5407SOL    HW217822   6.829   5.800   3.792 -0.4976 -0.5526  0.6898
 5408SOL     OW17823   6.899   0.653   1.504  0.0997  0.3685  0.0438
 5408SOL    HW117824   6.984   0.693   1.539  0.6003  0.3043 -1.0274
 5408SOL    HW217825   6.916   0.616   1.412 -0.7209 -0.9704  0.3987
 5409SOL     OW17826   1.237   5.908   5.728 -0.0504  0.0068  0.0623
 5409SOL    HW117827   1.304   5.951   5.788 -0.8541  0.8915  0.3499
 5409SOL    HW217828   1.188   5.978   5.676 -0.4107 -0.6551 -0.5103
 5410SOL     OW17829   0.132   6.909   0.967  0.1579 -0.4901 -0.2149
 5410SOL    HW117830   0.066   6.866   0.905 -0.4123 -0.5572  0.4327
 5410SOL    HW217831   0.224   6.874   0.947  0.1429  0.2353 -1.6901
 5411SOL     OW17832   3.172   6.838   5.961  0.1334 -0.3882 -0.3535
 5411SOL    HW117833   3.153   6.750   6.006  0.0387  0.0493  0.4751
 5411SOL    HW217834   3.136   6.835   5.868 -0.5242 -0.9740 -0.0949
 5412SOL     OW17835   2.169   1.723   4.166  0.4274  0.0794  0.5163
 5412SOL    HW117836   2.128   1.776   4.091  3.2924  1.9933  0.1421
 5412SOL    HW217837   2.121   1.744   4.251 -0.0848  1.3590 -0.0551
 5413SOL     OW17838   5.305   4.964   6.409  0.0455 -0.3244 -0.3349
 5413SOL    HW117839   5.351   4.979   6.497  0.4452 -0.8140 -0.4544
 5413SOL    HW217840   5.355   4.895   6.357 -1.2752 -1.4536 -0.1553
 5414SOL     OW17841   1.587   5.298   0.558  0.0349 -0.2365  0.7520
 5414SOL    HW117842   1.506   5.355   0.544  0.3716  0.6875  2.2664
 5414SOL    HW217843   1.665   5.337   0.509 -0.5577 -1.5346 -1.3148
 5415SOL     OW17844   4.584   1.940   3.581  0.1140 -0.4218 -0.0520
 5415SOL    HW117845   4.606   1.846   3.555  0.8697  0.0737 -1.3202
 5415SOL    HW217846   4.485   1.950   3.591  0.0462 -1.3994  0.3140
 5416SOL     OW17847   1.000   6.017   0.124  0.2029  0.1468  0.1750
 5416SOL    HW117848   0.987   5.926   0.162  1.7806 -0.4481 -0.6151
 5416SOL    HW217849   1.037   6.010   0.032  2.1685  1.5434  0.7735
 5417SOL     OW17850   3.598   0.632   4.851 -0.4644 -0.2886  0.1546
 5417SOL    HW117851   3.609   0.535   4.871 -0.5732 -0.0551  1.4575
 5417SOL    HW217852   3.513   0.665   4.891 -1.8739 -0.2349 -2.6604
 5418SOL     OW17853   3.281   4.464   0.313  0.3100  0.2478  0.3127
 5418SOL    HW117854   3.364   4.518   0.326  1.3466 -1.1890 -0.0995
 5418SOL    HW217855   3.262   4.454   0.216 -1.0076  1.4842  0.4081
 5419SOL     OW17856   5.581   3.887   3.599  0.5520 -0.0852  0.6820
 5419SOL    HW117857   5.631   3.803   3.576  1.2897  0.2713  0.9313
 5419SOL    HW217858   5.484   3.874   3.581  0.7747 -0.6783 -0.1822
 5420SOL     OW17859   0.782   7.005   6.273 -0.5604  0.1955  0.4530
 5420SOL    HW117860   0.721   6.925   6.279  1.6814 -1.6671 -0.1784
 5420SOL    HW217861   0.742   7.081   6.324 -2.8815 -1.2440  0.9483
 5421SOL     OW17862   6.751   2.951   5.815 -0.4326  0.1924  0.7354
 5421SOL    HW117863   6.779   3.039   5.855 -0.7144 -0.4917  2.5155
 5421SOL    HW217864   6.824   2.884   5.830 -0.1227  0.1474 -0.8181
 5422SOL     OW17865   6.105   2.511   0.887 -0.1393  0.3529 -0.0215
 5422SOL    HW117866   6.075   2.569   0.962 -1.5428  1.2212 -1.1815
 5422SOL    HW217867   6.082   2.416   0.907  0.3042  0.4530  1.0081
 5423SOL     OW17868   4.995   1.231   0.589  0.0077  0.2562 -0.2026
 5423SOL    HW117869   4.936   1.280   0.652 -0.6530 -2.0012  1.0419
 5423SOL    HW217870   5.078   1.201   0.637  1.0491  1.3082 -1.2951
 5424SOL     OW17871   6.311   3.768   2.357 -0.4062 -0.1784 -0.1681
 5424SOL    HW117872   6.241   3.838   2.372  1.5672  1.5511  1.7441
 5424SOL    HW217873   6.393   3.792   2.408  2.1589 -1.3294 -3.4265
 5425SOL     OW17874   5.293   1.599   1.712  0.0840  0.3744 -0.0691
 5425SOL    HW117875   5.334   1.672   1.768  0.0040  0.7802 -0.5357
 5425SOL    HW217876   5.366   1.548   1.666  0.3024 -1.1833  1.8429
 5426SOL     OW17877   6.506   0.396   0.464 -0.2582 -0.3083 -0.0223
 5426SOL    HW117878   6.537   0.342   0.387  0.4752 -0.9087  0.6825
 5426SOL    HW217879   6.425   0.449   0.437  1.2311  1.1649 -1.8444
 5427SOL     OW17880   3.724   5.154   0.992 -0.0933 -0.0890  0.1948
 5427SOL    HW117881   3.672   5.193   1.068  1.4466  0.0635  1.2052
 5427SOL    HW217882   3.760   5.065   1.019  2.0914  0.8082  0.3955
 5428SOL     OW17883   6.972   3.899   5.952  0.3559 -0.2569 -0.5145
 5428SOL    HW117884   6.909   3.840   6.002 -0.4744  1.2158  0.2365
 5428SOL    HW217885   6.926   3.937   5.872  0.4855  0.3470 -0.3059
 5429SOL     OW17886   2.641   4.122   3.405 -0.4359  0.4267  0.4902
 5429SOL    HW117887   2.714   4.102   3.340 -2.2100 -0.4206 -1.3565
 5429SOL    HW217888   2.676   4.114   3.498  1.5265 -1.1418 -0.3009
 5430SOL     OW17889   0.234   0.387   3.062  0.2602  0.0750  0.0377
 5430SOL    HW117890   0.180   0.335   2.996 -0.2322  0.6316 -0.0073
 5430SOL    HW217891   0.313   0.333   3.092  2.2950  0.9007 -3.2986
 5431SOL     OW17892   3.558   2.338   6.133 -0.2037 -0.3984  0.5251
 5431SOL    HW117893   3.603   2.328   6.222  1.2617  1.9730  0.1092
 5431SOL    HW217894   3.624   2.323   6.060 -0.9287 -0.3145 -0.1611
 5432SOL     OW17895   4.824   3.866   5.742 -0.6585 -0.6626 -0.7214
 5432SOL    HW117896   4.767   3.918   5.806 -1.3087 -1.1399 -0.8947
 5432SOL    HW217897   4.896   3.924   5.706 -0.2774 -0.3825  0.4493
 5433SOL     OW17898   2.664   3.222   3.612  0.3522 -0.6291  0.6638
 5433SOL    HW117899   2.617   3.174   3.687 -1.3397 -0.3448 -0.1550
 5433SOL    HW217900   2.608   3.216   3.529  0.7106  1.6067  0.2024
 5434SOL     OW17901   2.607   2.154   2.049 -0.5851  0.6442 -0.3788
 5434SOL    HW117902   2.704   2.136   2.067  0.0530  2.8396 -1.3890
 5434SOL    HW217903   2.596   2.194   1.958 -2.6291 -0.7908 -0.8470
 5435SOL     OW17904   6.455   5.577   1.738 -0.1535  0.7880 -0.2769
 5435SOL    HW117905   6.387   5.514   1.775 -0.0150  0.3456 -0.7550
 5435SOL    HW217906   6.508   5.531   1.667 -0.3952  1.6046 -1.0063
 5436SOL     OW17907   3.965   2.876   3.525  0.1724  0.0467  0.0427
 5436SOL    HW117908   4.037   2.859   3.457 -0.9737  2.6253 -1.9648
 5436SOL    HW217909   4.008   2.906   3.611  1.6118  3.0209 -1.5551
 5437SOL     OW17910   1.637   2.607   0.446  0.0150 -0.0397 -0.7780
 5437SOL    HW117911   1.729   2.609   0.486 -0.1091  1.4471 -0.4892
 5437SOL    HW217912   1.596   2.517   0.459  0.2542  0.1520  1.8463
 5438SOL     OW17913   6.357   6.800   4.796 -0.1048 -0.3029  0.1327
 5438SOL    HW117914   6.317   6.826   4.708 -1.4889 -0.1669  0.7727
 5438SOL    HW217915   6.345   6.875   4.861  2.3693  0.2668  0.0327
 5439SOL     OW17916   1.537   2.985   1.409 -0.3093  0.0987 -0.6132
 5439SOL    HW117917   1.543   2.918   1.335 -3.5104 -2.0851  0.8708
 5439SOL    HW217918   1.461   3.048   1.391 -1.8367 -1.1358  1.1922
 5440SOL     OW17919   1.173   6.745   3.022  0.7004 -0.2150 -0.5243
 5440SOL    HW117920   1.242   6.752   3.094  0.6814  1.1984 -0.6073
 5440SOL    HW217921   1.138   6.652   3.018  0.7082 -0.3204  1.2886
 5441SOL     OW17922   4.016   5.929   4.479 -0.3617  0.2899 -0.8186
 5441SOL    HW117923   4.010   5.918   4.380 -2.2615 -1.6970 -0.5569
 5441SOL    HW217924   3.926   5.954   4.515 -0.2049 -1.0048  0.5699
 5442SOL     OW17925   5.728   1.612   1.655  0.1433  0.3815  0.1417
 5442SOL    HW117926   5.795   1.602   1.581  0.2190 -0.5169  0.3151
 5442SOL    HW217927   5.713   1.709   1.673  0.9840  0.6030 -0.2743
 5443SOL     OW17928   3.962   1.799   1.471  0.3968  0.5906  0.5204
 5443SOL    HW117929   4.008   1.867   1.414 -0.6368 -0.5693 -1.8484
 5443SOL    HW217930   3.868   1.827   1.488  0.1624  0.0705  0.0995
 5444SOL     OW17931   6.728   3.879   2.248  0.2568  0.1089  0.1970
 5444SOL    HW117932   6.675   3.833   2.176  1.9329 -2.2190  0.3447
 5444SOL    HW217933   6.779   3.955   2.208  1.8866 -1.6926 -1.3999
 5445SOL     OW17934   5.051   6.034   5.441 -0.8672  0.0264 -0.5607
 5445SOL    HW117935   5.015   6.003   5.353  0.5740 -1.6868 -0.6163
 5445SOL    HW217936   5.149   6.054   5.432 -1.0152  1.2809  0.3296
 5446SOL     OW17937   3.061   6.766   1.708 -0.2667 -0.1228  0.8009
 5446SOL    HW117938   3.012   6.851   1.685  0.7627  0.9079  2.2957
 5446SOL    HW217939   3.080   6.716   1.624 -0.5288  1.3362 -0.1719
 5447SOL     OW17940   2.982   6.809   0.562  0.1571 -0.6088 -0.4156
 5447SOL    HW117941   2.882   6.806   0.560  0.1685 -0.7357 -1.9074
 5447SOL    HW217942   3.013   6.902   0.543  0.3251 -0.5959 -0.0785
 5448SOL     OW17943   5.573   6.529   3.277 -0.0773  0.8435  0.0630
 5448SOL    HW117944   5.506   6.485   3.219  0.3196  0.9893 -0.5145
 5448SOL    HW217945   5.647   6.567   3.221  1.3405 -0.7214  0.7659
 5449SOL     OW17946   2.570   6.218   1.047  0.1899  0.2843  0.1150
 5449SOL    HW117947   2.617   6.147   1.098  0.5144  0.8122  0.5638
 5449SOL    HW217948   2.472   6.208   1.057  0.2241 -0.3030 -0.1111
 5450SOL     OW17949   6.576   3.127   6.940  0.3364  0.1671 -0.3611
 5450SOL    HW117950   6.660   3.073   6.952 -0.0878 -2.2618 -5.4445
 5450SOL    HW217951   6.600   3.219   6.910  1.1817 -0.0408 -0.3481
 5451SOL     OW17952   2.604   5.511   3.881 -0.8212  0.3780  0.5206
 5451SOL    HW117953   2.662   5.478   3.955  0.6319 -2.1425 -1.5678
 5451SOL    HW217954   2.508   5.506   3.909 -0.3906 -1.6790  1.8302
 5452SOL     OW17955   2.176   4.104   2.153  0.0852  0.1540 -0.4552
 5452SOL    HW117956   2.199   4.059   2.239 -2.6046 -1.6948 -0.5715
 5452SOL    HW217957   2.092   4.157   2.165  0.9602  1.8132 -1.3964
 5453SOL     OW17958   1.641   1.863   0.233  0.1679  0.0910 -0.3516
 5453SOL    HW117959   1.707   1.938   0.244  1.7282 -0.8929 -2.2984
 5453SOL    HW217960   1.686   1.776   0.252 -1.7900 -0.4350  2.5040
 5454SOL     OW17961   4.378   5.365   3.729  0.6028  0.0547 -0.2403
 5454SOL    HW117962   4.380   5.303   3.807 -0.2866 -0.8067 -0.8708
 5454SOL    HW217963   4.361   5.313   3.645  0.0861  1.1143 -0.8183
 5455SOL     OW17964   3.697   1.789   4.094  0.2441  0.4033 -0.2432
 5455SOL    HW117965   3.729   1.755   4.182  3.0447 -0.4467 -1.4718
 5455SOL    HW217966   3.645   1.873   4.108  0.4372  0.1839  2.2175
 5456SOL     OW17967   0.389   1.723   6.450  0.4756  0.2637  0.2270
 5456SOL    HW117968   0.488   1.712   6.450  0.5468  0.7567 -0.9986
 5456SOL    HW217969   0.366   1.815   6.483  0.3064 -0.4346  2.2153
 5457SOL     OW17970   1.835   0.647   2.390  0.4509  0.0393 -0.2523
 5457SOL    HW117971   1.896   0.726   2.387 -0.6894  0.9996  0.8780
 5457SOL    HW217972   1.749   0.672   2.435 -1.0245 -1.1260 -2.2435
 5458SOL     OW17973   2.503   6.062   4.993  0.1807  0.1272  0.5405
 5458SOL    HW117974   2.433   6.064   5.065 -1.3524  1.1533 -0.9094
 5458SOL    HW217975   2.593   6.050   5.035 -0.8026 -1.0284  2.4879
 5459SOL     OW17976   2.607   3.071   6.816 -0.5229  0.1425 -0.0993
 5459SOL    HW117977   2.694   3.119   6.827  0.2833 -0.9594 -1.2667
 5459SOL    HW217978   2.535   3.137   6.792  0.1481  0.9770  0.1347
 5460SOL     OW17979   2.456   2.653   1.593  0.1344  0.3224 -0.4286
 5460SOL    HW117980   2.427   2.613   1.506 -0.4666 -1.6405  0.6241
 5460SOL    HW217981   2.540   2.608   1.624 -0.8046 -0.5329  1.0013
 5461SOL     OW17982   3.018   0.553   6.651 -0.3511 -0.4479 -1.0347
 5461SOL    HW117983   3.098   0.527   6.705 -1.1840 -0.5726  0.1800
 5461SOL    HW217984   2.935   0.523   6.698 -1.1606  0.5044 -1.8129
 5462SOL     OW17985   1.104   6.995   1.532  0.1647  0.4562 -0.0036
 5462SOL    HW117986   1.138   6.917   1.583 -1.6458  0.6844  1.6718
 5462SOL    HW217987   1.141   7.079   1.571  0.5073  0.5273 -0.4833
 5463SOL     OW17988   6.757   6.505   1.629 -0.2570  0.3692 -0.0046
 5463SOL    HW117989   6.809   6.420   1.638 -0.4157  0.3896  1.3482
 5463SOL    HW217990   6.661   6.488   1.655 -0.7160  0.5633 -1.4775
 5464SOL     OW17991   4.047   5.390   2.140  0.0521  0.9375 -0.3029
 5464SOL    HW117992   4.030   5.345   2.053  0.5339  0.4967 -0.1685
 5464SOL    HW217993   4.144   5.409   2.150 -0.0631  1.4104 -0.0679
 5465SOL     OW17994   6.470   3.083   2.564 -0.3121  0.4917  0.2616
 5465SOL    HW117995   6.553   3.029   2.550  0.7045  1.9729  0.3393
 5465SOL    HW217996   6.405   3.031   2.618  0.3454 -0.9052 -0.2427
 5466SOL     OW17997   2.774   6.621   1.850 -0.2200 -0.0678 -0.0136
 5466SOL    HW117998   2.757   6.556   1.925  0.4629 -1.2250 -0.8306
 5466SOL    HW217999   2.872   6.641   1.844 -0.2370 -0.1656 -0.7351
 5467SOL     OW18000   4.609   1.225   6.255  0.8558 -0.0681  0.0110
 5467SOL    HW118001   4.618   1.142   6.310  0.0952  0.6375  1.2470
 5467SOL    HW218002   4.639   1.304   6.309 -1.9535  0.9272  0.2512
 5468SOL     OW18003   3.565   6.730   1.942 -0.2553  0.0679 -0.3148
 5468SOL    HW118004   3.583   6.762   1.850  1.9635 -0.5052 -0.1512
 5468SOL    HW218005   3.557   6.807   2.004 -0.2356  0.4133 -0.7404
 5469SOL     OW18006   1.907   1.253   1.601 -0.5803 -0.0238 -0.0648
 5469SOL    HW118007   1.929   1.171   1.548 -0.7512  2.5505 -4.5981
 5469SOL    HW218008   1.983   1.318   1.595 -1.1770  0.9412  1.9006
 5470SOL     OW18009   1.430   0.047   3.227  0.2179 -0.1344  0.6586
 5470SOL    HW118010   1.527   0.031   3.208 -0.4227 -1.7393 -1.6645
 5470SOL    HW218011   1.416   0.051   3.326  2.8909  2.0791  1.0906
 5471SOL     OW18012   3.034   0.714   4.674 -0.0257  0.3551 -0.1770
 5471SOL    HW118013   2.992   0.715   4.583  0.0354 -1.0032 -0.2439
 5471SOL    HW218014   3.132   0.698   4.664 -0.2610 -1.4986  0.1681
 5472SOL     OW18015   1.667   5.173   3.297 -0.3343  0.2745  0.2851
 5472SOL    HW118016   1.660   5.234   3.218  2.2257  0.9384  0.4752
 5472SOL    HW218017   1.636   5.221   3.379 -0.8978  0.3472  0.0393
 5473SOL     OW18018   1.861   0.372   2.863 -0.1567 -0.7015  0.1155
 5473SOL    HW118019   1.791   0.439   2.837  1.7344  2.0229  1.4540
 5473SOL    HW218020   1.933   0.370   2.794  0.1031 -0.8791  0.3882
 5474SOL     OW18021   1.880   4.111   6.629 -0.2585 -0.2308 -0.2142
 5474SOL    HW118022   1.830   4.162   6.559  0.1996 -0.4222 -0.6860
 5474SOL    HW218023   1.854   4.145   6.720  0.5858  1.3805 -0.5319
 5475SOL     OW18024   5.747   6.697   2.843  0.1048 -0.5390 -0.4699
 5475SOL    HW118025   5.696   6.782   2.858 -0.6423 -1.3564  2.1790
 5475SOL    HW218026   5.714   6.652   2.760 -0.2672  1.1870 -1.2926
 5476SOL     OW18027   3.665   1.884   4.581 -0.5449  0.4011  0.5365
 5476SOL    HW118028   3.682   1.857   4.486  0.7904  1.1557  0.5369
 5476SOL    HW218029   3.633   1.804   4.633 -0.8035 -0.1397 -0.4193
 5477SOL     OW18030   4.211   3.307   3.478  0.1674 -0.1565  0.2988
 5477SOL    HW118031   4.146   3.233   3.465 -0.1431  0.4069 -1.6113
 5477SOL    HW218032   4.293   3.290   3.424  0.4156  0.5247  0.4398
 5478SOL     OW18033   5.922   2.512   4.820  0.7648  0.2178 -0.3264
 5478SOL    HW118034   5.845   2.447   4.816  1.2944 -0.4997  0.7603
 5478SOL    HW218035   6.000   2.473   4.772  0.9531  0.2360 -0.0351
 5479SOL     OW18036   6.839   1.087   2.133 -0.3743 -0.2412 -0.4028
 5479SOL    HW118037   6.861   1.166   2.190  1.1803 -0.2379 -0.9595
 5479SOL    HW218038   6.835   1.005   2.190  0.7399 -0.1724 -0.2046
 5480SOL     OW18039   3.154   3.602   0.777  0.2007 -0.0578 -0.2463
 5480SOL    HW118040   3.064   3.643   0.792  0.1709 -0.8270  2.1218
 5480SOL    HW218041   3.224   3.673   0.774 -0.0740  0.3478  1.8308
 5481SOL     OW18042   6.839   2.641   4.972  0.2080  0.0553 -0.7469
 5481SOL    HW118043   6.746   2.675   4.957  0.3585  0.6608 -0.3126
 5481SOL    HW218044   6.870   2.592   4.890 -0.6400 -0.5035 -0.7494
 5482SOL     OW18045   0.889   4.609   3.019 -0.1973 -0.1842 -0.0360
 5482SOL    HW118046   0.979   4.586   2.982 -1.1527 -0.2153 -2.5182
 5482SOL    HW218047   0.879   4.708   3.024  0.0817 -0.1816  0.5880
 5483SOL     OW18048   5.270   3.942   5.558 -0.4799  0.6681 -0.2468
 5483SOL    HW118049   5.351   3.892   5.529 -0.7574  1.5340 -2.7178
 5483SOL    HW218050   5.291   4.040   5.562 -0.9214  0.7331  0.9744
 5484SOL     OW18051   2.135   6.482   0.798 -0.3408 -0.4853  0.1648
 5484SOL    HW118052   2.228   6.456   0.773 -0.1786  0.1787  0.0582
 5484SOL    HW218053   2.137   6.569   0.847 -0.8710 -0.6554  0.5029
 5485SOL     OW18054   2.655   2.656   6.384 -0.3595 -0.0236  0.0410
 5485SOL    HW118055   2.683   2.748   6.358  0.2802 -0.6317 -1.5682
 5485SOL    HW218056   2.555   2.651   6.389 -0.6769 -0.0862 -3.6384
 5486SOL     OW18057   6.549   2.212   2.908 -0.1931  0.1081 -0.4650
 5486SOL    HW118058   6.647   2.227   2.900 -0.4424  1.3231 -1.5468
 5486SOL    HW218059   6.524   2.128   2.859  0.2860 -0.1776 -0.2240
 5487SOL     OW18060   6.445   6.440   1.280 -0.4424 -0.4427 -0.0563
 5487SOL    HW118061   6.388   6.459   1.200 -0.5276 -0.2138  0.0546
 5487SOL    HW218062   6.471   6.527   1.323 -1.2239 -0.5802  0.7347
 5488SOL     OW18063   5.876   6.033   1.160 -0.8549 -0.7414  1.0324
 5488SOL    HW118064   5.911   6.101   1.224 -1.1249 -1.0510  1.5131
 5488SOL    HW218065   5.860   5.947   1.208 -1.0142 -0.9943  0.5369
 5489SOL     OW18066   4.684   6.392   2.676  0.3405  0.3796 -0.3603
 5489SOL    HW118067   4.720   6.480   2.644 -2.5891  1.4084 -1.1833
 5489SOL    HW218068   4.658   6.336   2.597 -1.4023  0.4436  0.1192
 5490SOL     OW18069   5.850   1.111   5.932 -0.1566  0.5794  0.6258
 5490SOL    HW118070   5.878   1.189   5.876 -0.4632  0.5311  0.4057
 5490SOL    HW218071   5.751   1.112   5.944 -0.0673  0.7283  1.3778
 5491SOL     OW18072   1.489   3.539   2.997  0.0772  0.2465 -0.5218
 5491SOL    HW118073   1.403   3.564   2.952  0.4355  1.4251 -0.5930
 5491SOL    HW218074   1.540   3.475   2.939 -0.6076 -0.2074 -0.6245
 5492SOL     OW18075   1.441   3.968   5.665 -0.1445  0.4191 -0.4015
 5492SOL    HW118076   1.346   3.955   5.692  0.2146  2.3672  2.2822
 5492SOL    HW218077   1.492   3.883   5.681 -0.9501  0.1085  0.6899
 5493SOL     OW18078   6.894   3.992   5.688 -0.1805 -0.7939 -0.7313
 5493SOL    HW118079   6.884   4.088   5.713 -0.4640 -0.4141 -2.1663
 5493SOL    HW218080   6.813   3.963   5.636  0.1643 -1.6329 -0.8070
 5494SOL     OW18081   0.324   0.361   6.483  0.2649  0.3999 -0.0807
 5494SOL    HW118082   0.260   0.286   6.469  0.3769 -0.1443  1.9561
 5494SOL    HW218083   0.289   0.421   6.555 -1.1460  3.9182 -3.3385
 5495SOL     OW18084   5.497   1.920   2.168  0.4076 -0.2554 -0.1444
 5495SOL    HW118085   5.510   2.009   2.210  1.2137 -0.6027  0.3654
 5495SOL    HW218086   5.585   1.875   2.156  0.0664 -0.7239 -0.9813
 5496SOL     OW18087   0.018   1.593   5.237 -0.4035  0.7187  0.9460
 5496SOL    HW118088  -0.034   1.649   5.172  0.1346 -0.7155 -0.7862
 5496SOL    HW218089  -0.040   1.520   5.272 -0.9249  1.9218  2.7508
 5497SOL     OW18090   1.061   2.752   5.336 -0.5411 -0.5220  0.9435
 5497SOL    HW118091   1.086   2.760   5.433  0.0458  0.0576  0.7561
 5497SOL    HW218092   1.120   2.685   5.292 -0.1299 -0.0487  0.7686
 5498SOL     OW18093   1.454   4.637   6.777 -0.5786 -0.1457  0.1134
 5498SOL    HW118094   1.419   4.649   6.684  1.7579 -0.1684 -0.8299
 5498SOL    HW218095   1.401   4.695   6.840 -1.1651  1.1264 -1.4800
 5499SOL     OW18096   2.474   1.734   6.617  0.5688  0.4830 -0.2041
 5499SOL    HW118097   2.543   1.663   6.615 -1.0515 -1.1689 -0.5652
 5499SOL    HW218098   2.478   1.787   6.532  0.6863 -0.3370 -0.7214
 5500SOL     OW18099   1.837   3.510   3.182 -0.3578 -0.4790  0.0413
 5500SOL    HW118100   1.778   3.532   3.259 -0.7458 -0.2723 -0.3136
 5500SOL    HW218101   1.906   3.443   3.210 -1.6520 -1.8364  0.0836
 5501SOL     OW18102   4.690   2.417   6.826  0.5970  0.0751  0.0470
 5501SOL    HW118103   4.598   2.437   6.793  0.7499  1.8348  0.6239
 5501SOL    HW218104   4.756   2.477   6.780  1.4331 -0.9365 -0.1119
 5502SOL     OW18105   6.594   0.971   3.737  0.3828 -0.0759 -0.2476
 5502SOL    HW118106   6.527   1.025   3.685  0.7363  0.5124 -0.1092
 5502SOL    HW218107   6.567   0.968   3.833  1.4265  1.6496  0.1536
 5503SOL     OW18108   5.911   3.279   5.086 -0.3909  0.0186  0.1584
 5503SOL    HW118109   6.004   3.242   5.083 -0.0616  0.7372 -3.8470
 5503SOL    HW218110   5.853   3.219   5.140  1.3517 -3.2732 -1.3694
 5504SOL     OW18111   3.319   4.946   1.370  0.2252 -0.7314 -0.0171
 5504SOL    HW118112   3.232   4.903   1.348  0.6262 -2.6632  1.7547
 5504SOL    HW218113   3.376   4.950   1.288 -1.4283  0.4422 -1.1659
 5505SOL     OW18114   6.333   4.424   4.648  0.0972  0.2501  0.2676
 5505SOL    HW118115   6.376   4.402   4.560  1.3864 -1.6080  1.2979
 5505SOL    HW218116   6.265   4.353   4.670 -0.3544  0.8100  0.6863
 5506SOL     OW18117   0.238   6.937   5.991  0.3491 -0.3474  0.3811
 5506SOL    HW118118   0.281   6.975   5.909  0.3070 -1.4089 -0.1601
 5506SOL    HW218119   0.250   6.999   6.068 -1.9958  2.0476 -1.0393
 5507SOL     OW18120   2.077   2.739   6.340 -0.0352  0.3214  0.5944
 5507SOL    HW118121   2.005   2.669   6.344 -0.5499  0.8556  0.6847
 5507SOL    HW218122   2.126   2.740   6.427  0.1169 -0.0779  0.5148
 5508SOL     OW18123   6.404   4.060   0.005  0.4649  0.2207 -0.1094
 5508SOL    HW118124   6.399   4.071  -0.094  3.2178 -0.5519 -0.4168
 5508SOL    HW218125   6.376   3.967   0.030  0.4667  0.1799 -0.2575
 5509SOL     OW18126   1.788   5.367   5.060 -0.3931  0.0442 -0.0725
 5509SOL    HW118127   1.843   5.412   4.990 -1.4628  2.1580  0.3547
 5509SOL    HW218128   1.849   5.320   5.125  0.7063 -0.2295 -1.2632
 5510SOL     OW18129   2.778   0.586   4.226 -0.0531 -0.6222 -0.0266
 5510SOL    HW118130   2.874   0.591   4.253 -0.1929  1.2862  0.2610
 5510SOL    HW218131   2.748   0.676   4.193 -1.9831 -0.9428  0.7415
 5511SOL     OW18132   5.795   2.622   3.972  0.6067  0.2206 -0.8478
 5511SOL    HW118133   5.821   2.560   3.898  0.5085 -0.3527 -0.3978
 5511SOL    HW218134   5.709   2.593   4.012  1.4015 -0.3427  0.4928
 5512SOL     OW18135   2.228   5.651   6.582 -0.0780  0.6721 -0.0364
 5512SOL    HW118136   2.265   5.567   6.542 -1.8218  0.0697 -0.4557
 5512SOL    HW218137   2.139   5.671   6.542 -0.4149  1.8612  1.2212
 5513SOL     OW18138   4.031   5.462   3.111  0.0591  0.5465 -0.1147
 5513SOL    HW118139   4.107   5.510   3.157  0.1440  2.1229 -1.7895
 5513SOL    HW218140   4.053   5.365   3.103  1.1828  0.7009  0.8482
 5514SOL     OW18141   0.961   0.225   0.403 -0.2543 -0.4319 -0.5395
 5514SOL    HW118142   1.033   0.156   0.410 -1.0715 -1.6461 -3.0386
 5514SOL    HW218143   0.991   0.299   0.343 -0.5566 -0.1860 -0.3913
 5515SOL     OW18144   4.344   1.467   3.451 -0.1189  0.0362  0.5972
 5515SOL    HW118145   4.340   1.367   3.454  1.3114 -0.0241  2.0470
 5515SOL    HW218146   4.324   1.504   3.542  0.2462  1.0278  0.2954
 5516SOL     OW18147   5.978   5.944   4.599  0.1760 -0.2545  0.0508
 5516SOL    HW118148   5.902   5.884   4.626 -1.1705  1.9541  1.5485
 5516SOL    HW218149   6.014   5.990   4.680  0.9479  1.1425 -1.0429
 5517SOL     OW18150   1.359   6.477   4.833  0.5114  0.2575  0.1575
 5517SOL    HW118151   1.435   6.540   4.852  0.5784  0.2770 -0.1629
 5517SOL    HW218152   1.348   6.414   4.909 -0.6438  1.7243  1.2576
 5518SOL     OW18153   6.544   6.960   4.491  0.5509  0.2194  0.6713
 5518SOL    HW118154   6.585   7.005   4.570  3.0755 -0.8528  0.0970
 5518SOL    HW218155   6.599   6.981   4.410 -0.5355 -0.7037 -0.3340
 5519SOL     OW18156   0.550   1.857   4.345 -0.7835  0.1022 -0.4104
 5519SOL    HW118157   0.626   1.912   4.311 -0.3599  0.2846  0.7903
 5519SOL    HW218158   0.470   1.916   4.358 -0.9539  0.0282 -1.0779
 5520SOL     OW18159   1.407   5.539   3.157  0.5243  0.2822 -0.4917
 5520SOL    HW118160   1.338   5.474   3.189  1.2570  0.1089  0.8243
 5520SOL    HW218161   1.400   5.550   3.058 -1.5555  0.4772 -0.3626
 5521SOL     OW18162   2.851   1.830   0.326 -0.3276  0.0329 -0.3252
 5521SOL    HW118163   2.773   1.862   0.272 -2.6952  0.0299  2.8355
 5521SOL    HW218164   2.820   1.764   0.395  2.7555 -1.0670  0.1887
 5522SOL     OW18165   4.465   3.770   1.574 -0.0611  0.0589  0.4281
 5522SOL    HW118166   4.429   3.778   1.481 -0.7578 -1.7833  0.4954
 5522SOL    HW218167   4.563   3.793   1.574  0.0307 -0.2532 -0.8169
 5523SOL     OW18168   1.289   3.079   1.757  0.5239 -0.0586  0.2582
 5523SOL    HW118169   1.233   3.020   1.700  0.1294  1.4290 -0.9583
 5523SOL    HW218170   1.380   3.089   1.717  1.3463 -1.5635  1.6344
 5524SOL     OW18171   2.579   0.668   3.145  0.0526  0.2026  0.3450
 5524SOL    HW118172   2.572   0.764   3.172 -1.8350  0.3100 -0.3549
 5524SOL    HW218173   2.489   0.635   3.116  0.5119 -2.0013  1.2316
 5525SOL     OW18174   4.462   4.928   1.002  0.2359  0.3349 -0.3748
 5525SOL    HW118175   4.393   4.959   1.067 -1.0100  0.5358 -1.7409
 5525SOL    HW218176   4.494   4.837   1.028 -1.7805 -0.4811 -0.6101
 5526SOL     OW18177   2.636   2.299   6.325 -0.6036  0.4377 -0.2460
 5526SOL    HW118178   2.564   2.339   6.269 -1.9662 -2.1224 -0.4977
 5526SOL    HW218179   2.595   2.246   6.399  1.1317  1.4701  1.5566
 5527SOL     OW18180   0.491   6.857   3.214  0.2404 -0.7702  0.0002
 5527SOL    HW118181   0.584   6.853   3.178 -0.0380  0.1668 -0.8692
 5527SOL    HW218182   0.458   6.764   3.232  0.3021 -1.3191 -2.4488
 5528SOL     OW18183   6.112   4.868   5.896 -0.4005  0.1631  0.5891
 5528SOL    HW118184   6.143   4.791   5.840  0.9446  0.4813  0.8546
 5528SOL    HW218185   6.178   4.885   5.969 -0.9156  1.2625  0.8238
 5529SOL     OW18186   5.301   1.070   1.266 -0.7587  0.5392  0.1196
 5529SOL    HW118187   5.255   1.158   1.278 -1.8302  0.1125 -0.6941
 5529SOL    HW218188   5.360   1.074   1.185 -0.0896  0.7887  0.6142
 5530SOL     OW18189   1.639   5.652   3.213  0.6220 -0.1177  0.0274
 5530SOL    HW118190   1.545   5.633   3.186  0.3829  0.0143  0.7592
 5530SOL    HW218191   1.697   5.653   3.131 -0.1589  0.7528 -0.5362
 5531SOL     OW18192   6.612   5.875   3.472  0.2835  0.6649  0.5250
 5531SOL    HW118193   6.566   5.840   3.390  1.9607 -1.0838  0.2579
 5531SOL    HW218194   6.689   5.934   3.445  1.6902 -1.0029  0.7343
 5532SOL     OW18195   4.369   2.618   1.320 -0.2252 -0.0391 -0.8478
 5532SOL    HW118196   4.336   2.678   1.393 -1.6964 -1.6698 -0.0986
 5532SOL    HW218197   4.339   2.524   1.338  2.6244 -1.1794 -1.5953
 5533SOL     OW18198   3.363   2.631   0.035 -0.4925  0.0874 -0.2321
 5533SOL    HW118199   3.298   2.678   0.095  0.4485  0.3160  0.6353
 5533SOL    HW218200   3.417   2.566   0.089 -1.5794 -1.8388 -1.3547
 5534SOL     OW18201   5.480   6.003   5.282  0.1642  0.3541 -0.0037
 5534SOL    HW118202   5.491   6.022   5.185 -0.1491  0.4505 -0.0212
 5534SOL    HW218203   5.410   5.932   5.294  0.0049  0.5402  0.1668
 5535SOL     OW18204   5.132   1.203   6.663  0.2035  0.0214  1.1021
 5535SOL    HW118205   5.127   1.225   6.566  1.8175 -2.0055  0.4873
 5535SOL    HW218206   5.040   1.193   6.700 -0.4352 -0.0653 -0.4439
 5536SOL     OW18207   6.612   3.793   0.217  0.2847  0.2380  0.3001
 5536SOL    HW118208   6.657   3.706   0.237 -1.4482 -0.7203  0.2445
 5536SOL    HW218209   6.675   3.852   0.167  1.6469 -0.8023  0.7249
 5537SOL     OW18210   2.428   0.522   2.754  0.5069  0.1993  0.4009
 5537SOL    HW118211   2.503   0.499   2.692 -0.1993 -1.8714  0.2408
 5537SOL    HW218212   2.427   0.457   2.830 -0.8893  0.4214  0.5940
 5538SOL     OW18213   4.178   5.628   2.878  0.5051  0.3553  0.6443
 5538SOL    HW118214   4.162   5.626   2.977 -0.8692  1.6865  0.4952
 5538SOL    HW218215   4.180   5.535   2.842  0.8839 -0.1367  1.8978
 5539SOL     OW18216   0.269   3.907   3.449 -0.8708 -0.5969 -0.0116
 5539SOL    HW118217   0.338   3.974   3.421 -1.7111  0.9520  1.4680
 5539SOL    HW218218   0.224   3.870   3.367  0.2241 -0.0612 -0.8932
 5540SOL     OW18219   0.946   0.751   2.340 -0.0696  0.6641 -0.1139
 5540SOL    HW118220   0.861   0.782   2.382  0.1013  1.3268 -0.2371
 5540SOL    HW218221   0.932   0.742   2.241  0.0990  1.1215 -0.1811
 5541SOL     OW18222   0.882   5.227   0.648  0.0291  0.0012  0.3658
 5541SOL    HW118223   0.803   5.182   0.688 -1.2625 -0.1634 -2.2027
 5541SOL    HW218224   0.940   5.160   0.602  0.6959  0.3615  0.6601
 5542SOL     OW18225   0.304   0.648   4.384  0.2099 -0.2932  0.9148
 5542SOL    HW118226   0.257   0.561   4.403 -0.1724 -0.0402  1.1506
 5542SOL    HW218227   0.403   0.632   4.380  0.2843 -0.4629  2.6677
 5543SOL     OW18228   2.272   0.746   3.245  0.1320  0.1432  0.1471
 5543SOL    HW118229   2.290   0.668   3.304  1.2216 -0.2482 -0.6780
 5543SOL    HW218230   2.208   0.808   3.290 -0.6922 -1.1814  0.8379
 5544SOL     OW18231   5.694   4.412   3.198 -0.2099 -0.0262 -0.3870
 5544SOL    HW118232   5.694   4.442   3.103  1.1634  0.0419 -0.3904
 5544SOL    HW218233   5.704   4.312   3.202 -1.3869 -0.1579 -0.3149
 5545SOL     OW18234   4.984   2.468   2.094 -0.1232  0.1309  0.4340
 5545SOL    HW118235   4.959   2.372   2.086 -0.3388  0.3275 -2.1679
 5545SOL    HW218236   4.907   2.520   2.131 -0.4193 -0.5376  0.7664
 5546SOL     OW18237   1.468   2.468   1.580 -0.1403 -0.8461  0.5782
 5546SOL    HW118238   1.453   2.566   1.592 -0.4416 -0.5998 -1.4024
 5546SOL    HW218239   1.481   2.424   1.669  0.3845  1.0406  1.4739
 5547SOL     OW18240   6.064   4.411   2.065  0.5332 -0.8670  0.1460
 5547SOL    HW118241   6.093   4.495   2.110  1.5640 -0.1795 -1.6907
 5547SOL    HW218242   6.114   4.400   1.979 -1.2325 -2.1795 -0.7831
 5548SOL     OW18243   3.515   5.349   4.485  0.2648  0.4710  0.4796
 5548SOL    HW118244   3.592   5.286   4.483 -0.3008 -0.2101 -0.7344
 5548SOL    HW218245   3.478   5.353   4.578  1.2509  0.1967  0.8982
 5549SOL     OW18246   2.298   1.870   0.584 -0.1600  0.2119  0.5665
 5549SOL    HW118247   2.262   1.951   0.630 -0.9488 -1.0930  2.3467
 5549SOL    HW218248   2.244   1.852   0.501  0.2219  1.6343 -0.0347
 5550SOL     OW18249   3.068   4.112   5.517  0.3724  0.7310 -0.0107
 5550SOL    HW118250   3.066   4.020   5.555 -1.2706 -0.3792 -2.5590
 5550SOL    HW218251   2.980   4.157   5.533  1.0500  1.7766  0.9279
 5551SOL     OW18252   3.949   1.374   1.785  0.3029  0.1245  0.1371
 5551SOL    HW118253   3.969   1.317   1.705  0.8490 -1.0950  1.1042
 5551SOL    HW218254   3.974   1.469   1.766  0.3551 -0.1389 -1.1566
 5552SOL     OW18255   5.926   1.868   0.192  0.3845  0.1535 -0.0130
 5552SOL    HW118256   5.839   1.828   0.163  0.1589 -1.1465  2.2034
 5552SOL    HW218257   5.966   1.920   0.116 -0.5771 -2.1558 -2.2656
 5553SOL     OW18258   3.210   1.203   4.787 -0.0279 -0.0861  1.2370
 5553SOL    HW118259   3.176   1.276   4.728  0.8992  0.7237  1.6931
 5553SOL    HW218260   3.253   1.132   4.731 -0.5477 -0.0861  0.8294
 5554SOL     OW18261   0.902   3.800   1.135 -0.7647 -0.1895  0.0840
 5554SOL    HW118262   0.829   3.775   1.198 -0.8259  1.4149  0.7149
 5554SOL    HW218263   0.990   3.797   1.183 -0.5482 -0.9814 -0.3495
 5555SOL     OW18264   3.191   2.311   0.214  0.1129 -0.5012  0.0223
 5555SOL    HW118265   3.244   2.227   0.210  0.2387 -0.4253  0.0744
 5555SOL    HW218266   3.174   2.345   0.122 -0.5187 -0.9426 -0.0322
 5556SOL     OW18267   0.247   1.994   0.391 -0.0884  0.3602  0.5901
 5556SOL    HW118268   0.217   2.085   0.420  0.8393  0.5688  0.9121
 5556SOL    HW218269   0.303   2.002   0.309 -2.7567 -0.2279 -1.4382
 5557SOL     OW18270   6.485   2.085   1.399  0.2336  0.2858  0.5863
 5557SOL    HW118271   6.528   2.147   1.464  0.6188 -1.4817  2.0974
 5557SOL    HW218272   6.390   2.068   1.426  0.4162 -0.5160  0.7660
 5558SOL     OW18273   2.027   1.112   5.428 -0.6299 -0.2545 -0.3677
 5558SOL    HW118274   2.077   1.074   5.506 -0.6833  0.8078  0.2051
 5558SOL    HW218275   2.031   1.212   5.431 -0.1528 -0.1956 -2.0581
 5559SOL     OW18276   6.046   5.506   1.824  0.0569 -0.6214  0.0665
 5559SOL    HW118277   6.045   5.496   1.725  0.2200 -0.5964  0.0618
 5559SOL    HW218278   6.137   5.482   1.859  0.4220  0.7278  0.0745
 5560SOL     OW18279   3.689   1.372   2.497 -0.3362 -0.0438  0.5968
 5560SOL    HW118280   3.723   1.446   2.438 -0.1330  0.1416  0.9430
 5560SOL    HW218281   3.765   1.315   2.527 -0.7153 -1.7348 -1.4391
 5561SOL     OW18282   5.601   1.884   1.742  0.7937  0.0371 -0.0166
 5561SOL    HW118283   5.537   1.824   1.789  1.0809 -0.2116  0.0628
 5561SOL    HW218284   5.555   1.969   1.716  0.2790 -0.3681 -0.4655
 5562SOL     OW18285   1.103   2.373   0.451 -0.5022 -0.3900 -0.1512
 5562SOL    HW118286   1.007   2.396   0.468 -0.0420  0.7748  1.0553
 5562SOL    HW218287   1.160   2.415   0.522  0.8949 -1.1362 -0.8034
 5563SOL     OW18288   2.514   5.948   2.787  0.1464  0.2101  0.0960
 5563SOL    HW118289   2.502   6.047   2.784 -0.0616  0.3465  3.1042
 5563SOL    HW218290   2.425   5.904   2.791  0.2686 -0.0594 -0.0964
 5564SOL     OW18291   6.763   6.828   3.750  0.0156  0.4507 -0.5878
 5564SOL    HW118292   6.818   6.745   3.755 -0.6062  0.1122  2.5339
 5564SOL    HW218293   6.704   6.824   3.669  1.1452 -1.3765 -1.3683
 5565SOL     OW18294   2.814   0.530   1.533  0.1003 -0.1475  0.2620
 5565SOL    HW118295   2.763   0.504   1.451 -2.1705  1.8503  0.9570
 5565SOL    HW218296   2.887   0.593   1.508 -0.0546 -0.1905 -0.3185
 5566SOL     OW18297   5.997   1.946   4.738 -0.0479  0.3800  0.3296
 5566SOL    HW118298   6.082   1.907   4.704 -0.8452  0.5881 -2.0843
 5566SOL    HW218299   6.017   2.004   4.817  2.2814  1.5470 -0.9971
 5567SOL     OW18300   4.876   4.236   0.345 -0.5185  0.1603  0.3605
 5567SOL    HW118301   4.886   4.335   0.353  0.8002  0.0664  0.0821
 5567SOL    HW218302   4.821   4.215   0.265 -1.0667  0.6678  0.5935
 5568SOL     OW18303   1.285   2.120   3.116  0.2532  0.2867  0.0844
 5568SOL    HW118304   1.304   2.049   3.048 -0.5810 -1.7877  1.8894
 5568SOL    HW218305   1.193   2.156   3.103  0.0431 -0.2060  0.2031
 5569SOL     OW18306   4.289   4.769   5.843  0.3215 -0.0872  0.3961
 5569SOL    HW118307   4.341   4.778   5.758  1.0008  0.1147  0.8256
 5569SOL    HW218308   4.244   4.680   5.845  0.2681 -0.0736 -0.1979
 5570SOL     OW18309   1.677   4.230   0.764  0.3530 -0.1355  0.0329
 5570SOL    HW118310   1.728   4.257   0.682 -0.0848  0.0511 -0.1797
 5570SOL    HW218311   1.706   4.287   0.841  2.2031 -1.5922  0.5055
 5571SOL     OW18312   6.124   3.516   5.793 -0.4492  0.0633 -0.6253
 5571SOL    HW118313   6.194   3.525   5.722  0.1140  1.7571  0.0933
 5571SOL    HW218314   6.043   3.567   5.766 -0.3190  0.5178 -0.1783
 5572SOL     OW18315   0.799   0.499   6.620  0.1391 -0.2061  0.4299
 5572SOL    HW118316   0.871   0.504   6.689 -0.8438  0.7853  1.4309
 5572SOL    HW218317   0.717   0.546   6.654 -1.4775 -2.4794 -0.0520
 5573SOL     OW18318   0.369   4.504   6.540  0.1064  0.0595 -0.3624
 5573SOL    HW118319   0.324   4.587   6.574 -0.6029 -0.3800 -0.2158
 5573SOL    HW218320   0.351   4.428   6.602 -0.0879 -0.4431 -1.0160
 5574SOL     OW18321   2.149   0.206   6.623 -0.5371  0.2764  0.2972
 5574SOL    HW118322   2.187   0.290   6.660  3.2258 -0.5403 -1.2436
 5574SOL    HW218323   2.139   0.138   6.696  1.3550  0.4674  0.7703
 5575SOL     OW18324   6.038   3.643   0.321 -0.0172  0.3565  0.4624
 5575SOL    HW118325   6.088   3.569   0.367 -1.9679 -0.9178  0.6209
 5575SOL    HW218326   6.031   3.722   0.382  1.8487  0.6313  0.3946
 5576SOL     OW18327   4.082   1.045   0.955  0.9030  0.1369  0.2256
 5576SOL    HW118328   4.161   0.996   0.920  0.9640 -1.3338  2.3136
 5576SOL    HW218329   4.056   1.010   1.045 -1.8740  0.8513 -0.1755
 5577SOL     OW18330   1.517   6.571   5.160 -0.0748 -0.0636 -0.0483
 5577SOL    HW118331   1.539   6.662   5.197  0.8028 -0.7388  1.1718
 5577SOL    HW218332   1.420   6.567   5.137 -0.3274  0.8969  0.7742
 5578SOL     OW18333   4.839   5.372   1.642  0.2679  0.1124 -0.3269
 5578SOL    HW118334   4.761   5.435   1.642  0.5898  0.5147 -0.8664
 5578SOL    HW218335   4.908   5.404   1.578  0.3371 -0.9194 -0.7897
 5579SOL     OW18336   4.147   0.164   0.387 -0.5517  0.6388 -0.5244
 5579SOL    HW118337   4.109   0.234   0.448 -2.7818 -0.4073 -0.6091
 5579SOL    HW218338   4.156   0.078   0.437  2.3739  0.9589 -0.3568
 5580SOL     OW18339   2.834   2.119   0.463  0.1022  0.1146 -0.6063
 5580SOL    HW118340   2.869   2.147   0.553  0.9071  3.0852 -1.7192
 5580SOL    HW218341   2.865   2.026   0.443  0.7818 -0.2382  1.7110
 5581SOL     OW18342   0.908   2.512   3.031  0.2081 -0.0983 -0.3435
 5581SOL    HW118343   0.970   2.572   2.981 -0.3459 -0.5809 -1.6367
 5581SOL    HW218344   0.817   2.514   2.989  0.2842 -2.1633 -0.6934
 5582SOL     OW18345   1.398   3.482   4.584  0.4244  0.8847  0.3110
 5582SOL    HW118346   1.354   3.552   4.639  0.0978 -0.3680  1.7400
 5582SOL    HW218347   1.494   3.472   4.613 -0.3246 -1.3479  2.4289
 5583SOL     OW18348   1.281   1.152   2.244  0.3861  0.1058  0.3124
 5583SOL    HW118349   1.299   1.206   2.161  0.4300 -1.3929 -0.6955
 5583SOL    HW218350   1.189   1.112   2.239  0.3585  0.0623  1.0328
 5584SOL     OW18351   2.772   5.167   6.471 -0.5482 -0.1575 -0.0269
 5584SOL    HW118352   2.743   5.149   6.565 -0.0993  0.3541  0.2113
 5584SOL    HW218353   2.727   5.251   6.437 -0.2099  0.0174 -0.0442
 5585SOL     OW18354   5.488   0.133   0.373 -0.6225  0.1067  0.2384
 5585SOL    HW118355   5.529   0.224   0.365 -0.7022  0.1753  0.6049
 5585SOL    HW218356   5.477   0.093   0.282  0.7530 -0.1316  0.1438
 5586SOL     OW18357   6.170   4.907   3.349  0.3064  0.7193  0.4299
 5586SOL    HW118358   6.210   4.815   3.350 -0.1850  0.4955 -0.0701
 5586SOL    HW218359   6.173   4.945   3.442 -0.2801 -0.1590  0.8275
 5587SOL     OW18360   1.330   4.809   1.909 -0.5516  0.0836 -0.2862
 5587SOL    HW118361   1.422   4.829   1.944 -0.7743 -0.4634  0.6591
 5587SOL    HW218362   1.267   4.800   1.986 -1.0823 -1.0698 -0.8367
 5588SOL     OW18363   0.881   1.031   5.465  0.0307  0.2989 -0.0296
 5588SOL    HW118364   0.787   1.057   5.443  0.1917  1.5098  0.6461
 5588SOL    HW218365   0.943   1.071   5.397  0.4365  3.2523  1.8838
 5589SOL     OW18366   6.014   1.319   3.913  0.2719  0.0582  0.3224
 5589SOL    HW118367   6.092   1.264   3.884  0.1737  0.2421 -0.2986
 5589SOL    HW218368   5.930   1.265   3.904  0.1289  0.4251 -0.6599
 5590SOL     OW18369   5.657   4.110   5.725  0.2604 -0.2671 -0.9754
 5590SOL    HW118370   5.669   4.014   5.752 -0.9585 -0.2454 -0.2816
 5590SOL    HW218371   5.739   4.141   5.676  0.9441 -1.4600 -0.6406
 5591SOL     OW18372   3.873   1.569   1.197  0.1646 -0.4878  0.3810
 5591SOL    HW118373   3.827   1.482   1.212  1.6340 -1.3619  0.0591
 5591SOL    HW218374   3.937   1.586   1.273  2.7625 -1.6761 -1.3789
 5592SOL     OW18375   2.412   0.043   6.595 -0.2182 -0.0474 -0.0877
 5592SOL    HW118376   2.482   0.113   6.609 -0.1100  0.0751 -1.1506
 5592SOL    HW218377   2.338   0.055   6.661 -1.1244  2.2572 -1.3954
 5593SOL     OW18378   5.184   6.055   2.718  0.3228 -0.4956 -0.4982
 5593SOL    HW118379   5.108   6.095   2.769  1.1837 -1.7234  1.9243
 5593SOL    HW218380   5.260   6.120   2.715 -0.3914  0.3074 -1.9481
 5594SOL     OW18381   1.295   1.338   6.268  0.1254 -0.2488  0.0453
 5594SOL    HW118382   1.234   1.379   6.336  0.0862  0.1932 -0.2529
 5594SOL    HW218383   1.384   1.386   6.270 -0.1453  0.3118 -0.7738
 5595SOL     OW18384   3.783   5.318   2.948  0.4149 -0.0003 -0.0012
 5595SOL    HW118385   3.804   5.415   2.939 -2.7582  0.6990 -1.3782
 5595SOL    HW218386   3.835   5.266   2.880  2.4305  0.6183  0.9987
 5596SOL     OW18387   2.029   2.155   1.015  0.8670  0.2559 -0.1861
 5596SOL    HW118388   2.114   2.169   1.066  1.1108 -0.8036 -0.2814
 5596SOL    HW218389   2.041   2.082   0.947  0.1516  0.7293 -0.8411
 5597SOL     OW18390   6.846   6.892   3.433 -0.1030 -0.3554  0.4274
 5597SOL    HW118391   6.833   6.975   3.378 -1.1661 -0.6728  0.1700
 5597SOL    HW218392   6.944   6.878   3.449  0.2025  0.0288 -0.9453
 5598SOL     OW18393   2.738   1.463   6.838 -0.2371  0.3491  0.5909
 5598SOL    HW118394   2.642   1.437   6.832 -0.3606  0.8963 -0.0011
 5598SOL    HW218395   2.762   1.482   6.933 -1.9095  4.4562  0.3911
 5599SOL     OW18396   3.954   0.119   2.334  0.3191  0.8766  0.0239
 5599SOL    HW118397   3.957   0.161   2.244  1.2889 -0.6396 -0.6990
 5599SOL    HW218398   3.881   0.050   2.336  0.6554  0.5180  0.1966
 5600SOL     OW18399   5.827   5.765   4.784 -0.5817 -0.3272  0.6701
 5600SOL    HW118400   5.886   5.729   4.856 -0.9387 -0.6421  0.8095
 5600SOL    HW218401   5.828   5.704   4.705  0.7141  0.6061 -0.0597
 5601SOL     OW18402   0.014   3.119   0.700 -0.4136 -0.6694  0.4332
 5601SOL    HW118403   0.091   3.169   0.740 -0.8143 -0.0297  0.4112
 5601SOL    HW218404  -0.048   3.183   0.655  0.3858 -1.4098 -1.8717
 5602SOL     OW18405   2.169   1.152   0.969 -0.1663 -0.1959 -0.9578
 5602SOL    HW118406   2.148   1.057   0.951 -1.2828 -0.4018  1.1406
 5602SOL    HW218407   2.096   1.210   0.933 -0.7545 -0.3454 -0.0247
 5603SOL     OW18408   0.412   5.929   2.751  0.2776  0.5575  0.4436
 5603SOL    HW118409   0.316   5.923   2.723  0.7956  0.0194 -1.3394
 5603SOL    HW218410   0.469   5.954   2.672  1.4989  1.9813  1.7019
 5604SOL     OW18411   6.170   1.258   5.684 -0.4430  0.0241 -0.0760
 5604SOL    HW118412   6.255   1.210   5.705 -0.8351 -0.0661  1.3771
 5604SOL    HW218413   6.178   1.304   5.595  0.9314 -0.3985 -0.1792
 5605SOL     OW18414   6.334   5.724   2.420 -0.3405  0.4804  0.0911
 5605SOL    HW118415   6.242   5.763   2.423 -0.2913  0.5473  1.3408
 5605SOL    HW218416   6.347   5.675   2.333 -1.8961 -0.3561  0.2849
 5606SOL     OW18417   5.893   3.537   6.743 -0.0741  0.6714 -0.2689
 5606SOL    HW118418   5.982   3.493   6.733 -0.0218 -0.2898  3.0759
 5606SOL    HW218419   5.906   3.635   6.757  0.1655  1.0578 -2.8143
 5607SOL     OW18420   4.274   5.413   4.197 -0.4235  0.2791 -0.5609
 5607SOL    HW118421   4.199   5.407   4.131 -1.7740  1.1814  0.8131
 5607SOL    HW218422   4.350   5.463   4.157 -0.3465 -1.0362 -2.1478
 5608SOL     OW18423   2.498   6.214   2.767 -0.8266  0.3850  0.6948
 5608SOL    HW118424   2.549   6.267   2.700  0.0075  0.0436  1.0501
 5608SOL    HW218425   2.492   6.265   2.853  0.5592 -0.3517  1.2533
 5609SOL     OW18426   1.642   6.935   3.911 -0.4036  0.0256 -0.2437
 5609SOL    HW118427   1.659   7.027   3.877  0.3175 -0.2801 -0.7554
 5609SOL    HW218428   1.719   6.906   3.968 -1.1043  0.1218  0.7697
 5610SOL     OW18429   3.991   5.195   4.799  0.5810  0.3240 -0.0033
 5610SOL    HW118430   4.064   5.194   4.729  0.4972 -0.4261 -0.0927
 5610SOL    HW218431   3.970   5.101   4.826  0.1418  0.5760  0.5508
 5611SOL     OW18432   4.200   6.992   2.367  0.4057 -0.4807 -0.4268
 5611SOL    HW118433   4.118   7.048   2.352  0.3491 -0.4070  0.1301
 5611SOL    HW218434   4.173   6.896   2.373  0.5074 -0.5889 -1.4211
 5612SOL     OW18435   0.738   2.333   6.820  0.1032  0.2396  1.2211
 5612SOL    HW118436   0.669   2.344   6.748 -0.6977  0.1077  1.9434
 5612SOL    HW218437   0.817   2.284   6.784 -0.9738 -1.2764  0.8204
 5613SOL     OW18438   1.790   0.041   5.781 -0.2052 -0.1769  0.6116
 5613SOL    HW118439   1.745   0.039   5.871 -1.1008  0.2382  0.1846
 5613SOL    HW218440   1.731  -0.003   5.713  0.8522 -1.3014  0.3709
 5614SOL     OW18441   2.912   1.363   6.620  0.0958  0.0660  0.5769
 5614SOL    HW118442   3.005   1.327   6.626  0.0802  0.2368  2.4399
 5614SOL    HW218443   2.889   1.410   6.706 -0.9772  1.8490 -0.6256
 5615SOL     OW18444   5.499   1.582   2.946  0.2859  0.1836  0.0767
 5615SOL    HW118445   5.435   1.588   2.870  1.4786  1.5044 -0.8660
 5615SOL    HW218446   5.518   1.485   2.966  0.7225 -0.2030 -1.9847
 5616SOL     OW18447   4.141   2.358   2.600  0.1166  0.2779  0.2196
 5616SOL    HW118448   4.066   2.298   2.572  1.3850 -1.4565  0.4076
 5616SOL    HW218449   4.128   2.385   2.695 -0.3705  0.1749  0.1866
 5617SOL     OW18450   5.218   6.191   0.539 -0.1449 -0.1059 -0.1141
 5617SOL    HW118451   5.123   6.163   0.547  0.2537 -1.0264  2.4307
 5617SOL    HW218452   5.232   6.275   0.590  0.2374  0.5409 -1.2646
 5618SOL     OW18453   5.698   1.109   1.844 -0.3473  0.5046 -0.3656
 5618SOL    HW118454   5.794   1.110   1.814 -0.2601 -0.0655 -0.1166
 5618SOL    HW218455   5.650   1.034   1.798 -0.4266  0.1741  0.2422
 5619SOL     OW18456   6.594   6.698   6.675  0.1575  0.3708  0.8430
 5619SOL    HW118457   6.678   6.651   6.704 -0.6446 -1.3025  0.6064
 5619SOL    HW218458   6.572   6.770   6.740  0.9386 -0.1998  1.7794
 5620SOL     OW18459   0.228   1.301   1.155  0.3811 -0.4475  0.4936
 5620SOL    HW118460   0.209   1.322   1.251 -0.6665  1.0112 -0.0002
 5620SOL    HW218461   0.224   1.385   1.101  3.2927 -0.8051 -0.4999
 5621SOL     OW18462   3.377   5.671   3.696  0.0512 -0.4626  0.5082
 5621SOL    HW118463   3.476   5.667   3.709  0.2433 -0.1028 -0.7267
 5621SOL    HW218464   3.346   5.766   3.698 -0.0030 -0.4279 -0.7824
 5622SOL     OW18465   2.551   1.179   2.771  1.0073 -0.1893  0.4039
 5622SOL    HW118466   2.593   1.205   2.684 -1.4128  2.2858 -0.1841
 5622SOL    HW218467   2.480   1.111   2.754  0.9232 -0.1313  0.5274
 5623SOL     OW18468   6.172   4.403   2.446 -0.0828 -0.3603  0.1247
 5623SOL    HW118469   6.159   4.469   2.519 -2.4246 -1.2241  0.5586
 5623SOL    HW218470   6.262   4.360   2.455  0.7833  1.5119  0.8147
 5624SOL     OW18471   0.236   5.941   0.034 -0.5369  0.0732  0.0201
 5624SOL    HW118472   0.203   5.847   0.046 -0.3888  0.2363  2.0852
 5624SOL    HW218473   0.323   5.952   0.081 -0.1142  1.0358 -0.9545
 5625SOL     OW18474   0.575   0.521   3.159 -0.2051  0.0807 -0.0335
 5625SOL    HW118475   0.524   0.434   3.152 -1.8625  1.0143 -0.0916
 5625SOL    HW218476   0.673   0.502   3.160 -0.4919 -1.7279 -1.1457
 5626SOL     OW18477   1.617   6.084   5.106  0.6723 -0.5877 -0.3783
 5626SOL    HW118478   1.570   6.025   5.172 -0.5374 -0.2149 -0.8847
 5626SOL    HW218479   1.630   6.174   5.146 -1.8169  0.2566 -1.2481
 5627SOL     OW18480   3.978   3.136   1.851 -0.1836  0.0388  0.4361
 5627SOL    HW118481   3.885   3.142   1.814  1.0030  3.4093 -2.6590
 5627SOL    HW218482   4.044   3.127   1.776  2.1143 -1.6314  2.4810
 5628SOL     OW18483   4.994   1.529   5.844  0.3153 -0.0026  0.3604
 5628SOL    HW118484   4.993   1.516   5.943 -1.6439  2.0755  0.6996
 5628SOL    HW218485   4.900   1.533   5.810  0.9416 -0.0178 -1.5039
 5629SOL     OW18486   3.509   5.512   1.926 -0.3602 -0.1958  0.2164
 5629SOL    HW118487   3.432   5.525   1.864  1.0546 -1.1913 -1.8926
 5629SOL    HW218488   3.581   5.578   1.905  0.1994 -0.6406  0.6799
 5630SOL     OW18489   0.970   4.218   6.503  0.0165 -0.2389 -0.3656
 5630SOL    HW118490   1.067   4.197   6.515 -0.4789 -3.2997 -0.8817
 5630SOL    HW218491   0.957   4.317   6.497  2.8581  0.3607  1.5453
 5631SOL     OW18492   6.368   6.799   3.333  0.5795  0.2602 -0.1403
 5631SOL    HW118493   6.386   6.766   3.240  0.1863  0.7371 -0.3879
 5631SOL    HW218494   6.314   6.731   3.382  4.5524 -2.1806  1.2900
 5632SOL     OW18495   0.267   3.921   0.544 -0.6518 -0.0086 -0.6120
 5632SOL    HW118496   0.337   3.883   0.605  0.2235  0.7180 -1.1475
 5632SOL    HW218497   0.290   3.899   0.450 -0.7880  0.7989 -0.8401
 5633SOL     OW18498   4.573   0.187   2.792  0.2919  0.1882  0.5334
 5633SOL    HW118499   4.536   0.271   2.754  0.2300  0.3664  0.9748
 5633SOL    HW218500   4.666   0.202   2.823  0.5582 -0.1212 -0.1060
 5634SOL     OW18501   0.909   4.764   2.238 -0.8724  0.7930  0.7984
 5634SOL    HW118502   0.952   4.802   2.320  0.4880  1.3617 -0.1439
 5634SOL    HW218503   0.869   4.675   2.260  3.5287 -1.3848  1.1509
 5635SOL     OW18504   4.036   2.639   5.509  0.1269 -0.2755  0.6182
 5635SOL    HW118505   3.998   2.691   5.586  0.2517  0.6911  0.0468
 5635SOL    HW218506   4.054   2.701   5.433  1.0819 -1.0356  0.2095
 5636SOL     OW18507   4.909   4.712   6.214  0.2443 -0.1786 -0.1897
 5636SOL    HW118508   4.938   4.646   6.144 -1.7195  2.4674 -3.8495
 5636SOL    HW218509   4.838   4.672   6.271 -1.8575 -1.0187 -3.1488
 5637SOL     OW18510   1.011   3.223   4.766  0.7271 -0.2147 -0.8839
 5637SOL    HW118511   0.982   3.129   4.747  0.6324  0.1829 -2.9685
 5637SOL    HW218512   1.068   3.225   4.847  0.1416 -1.9655 -0.3941
 5638SOL     OW18513   6.686   5.988   4.842 -0.1910 -0.3068  0.1351
 5638SOL    HW118514   6.726   6.005   4.752 -1.1873  1.3808 -0.0364
 5638SOL    HW218515   6.754   6.006   4.913 -0.2687  1.4378 -0.1899
 5639SOL     OW18516   6.034   4.804   2.427  0.1251 -0.2882  0.4238
 5639SOL    HW118517   6.059   4.849   2.513  0.6756  1.1601 -0.4558
 5639SOL    HW218518   5.965   4.859   2.380  1.1776 -0.0747 -0.9171
 5640SOL     OW18519   0.110   0.528   4.941 -0.3497  0.6727 -0.0410
 5640SOL    HW118520   0.201   0.497   4.913 -0.8674 -1.1593  0.1371
 5640SOL    HW218521   0.070   0.584   4.868 -0.2276 -0.9801 -1.4591
 5641SOL     OW18522   3.521   3.230   4.030 -0.5439  0.3024 -0.2222
 5641SOL    HW118523   3.586   3.157   4.010  0.8771  1.4385  0.0626
 5641SOL    HW218524   3.515   3.292   3.951  0.4378  1.4358  0.5734
 5642SOL     OW18525   4.183   1.683   2.574 -0.2689  0.2919 -0.0486
 5642SOL    HW118526   4.085   1.677   2.594 -0.2853 -2.9074 -0.5103
 5642SOL    HW218527   4.235   1.665   2.658 -0.1527 -0.3597 -0.2499
 5643SOL     OW18528   0.215   2.113   1.426  0.2346  0.2164  0.2301
 5643SOL    HW118529   0.135   2.160   1.388 -0.2959 -0.7330  0.1274
 5643SOL    HW218530   0.289   2.113   1.358  0.3266  1.0830  0.3195
 5644SOL     OW18531   3.573   1.834   6.419 -0.8803  0.3437  0.5129
 5644SOL    HW118532   3.561   1.930   6.444 -1.4527 -0.3889  3.5314
 5644SOL    HW218533   3.644   1.794   6.478 -0.2649 -0.9883 -1.0648
 5645SOL     OW18534   2.431   1.058   2.295 -0.2157 -0.2851  0.0097
 5645SOL    HW118535   2.522   1.086   2.267  0.2833 -0.1447  1.6620
 5645SOL    HW218536   2.437   1.003   2.378 -1.7147  1.0847  1.1045
 5646SOL     OW18537   6.927   0.213   0.550 -0.1530 -0.1785 -0.1941
 5646SOL    HW118538   6.960   0.120   0.567  2.2806  0.2094 -2.2693
 5646SOL    HW218539   6.984   0.278   0.599 -0.6804  0.3343 -0.2529
 5647SOL     OW18540   5.946   3.822   0.805 -0.0860  0.1539  0.7160
 5647SOL    HW118541   5.957   3.777   0.893 -1.6496 -1.1724  0.2723
 5647SOL    HW218542   5.871   3.888   0.810 -0.3678 -0.1331  0.3062
 5648SOL     OW18543   6.316   2.146   0.628 -0.1301  1.0468  0.0924
 5648SOL    HW118544   6.290   2.078   0.696 -1.9376  1.4424 -0.1336
 5648SOL    HW218545   6.335   2.101   0.540  0.4236  0.6918  0.3943
 5649SOL     OW18546   4.350   0.086   3.077  0.6939  0.1853 -0.2621
 5649SOL    HW118547   4.336  -0.011   3.062  0.2949  0.2252 -0.1646
 5649SOL    HW218548   4.300   0.139   3.008 -1.0648  0.3641  1.0705
 5650SOL     OW18549   1.380   0.292   2.439 -0.7190  0.3986 -0.8574
 5650SOL    HW118550   1.469   0.318   2.478 -1.1774 -0.8393  1.1675
 5650SOL    HW218551   1.362   0.347   2.358  0.4414  3.0412  0.5435
 5651SOL     OW18552   6.974   2.101   4.584 -0.5373 -0.4623  0.6425
 5651SOL    HW118553   7.046   2.166   4.611 -1.6562  2.9337 -3.4366
 5651SOL    HW218554   7.009   2.039   4.514 -0.7780 -0.8720  0.8849
 5652SOL     OW18555   6.858   0.513   2.394  0.1648  0.4206  0.0231
 5652SOL    HW118556   6.876   0.508   2.296 -0.9715  1.0136 -0.2284
 5652SOL    HW218557   6.840   0.421   2.429  1.5562  0.0704 -0.1045
 5653SOL     OW18558   1.660   6.601   0.320 -0.3550 -0.4951  0.0089
 5653SOL    HW118559   1.758   6.583   0.323 -0.2499 -0.2909 -1.4782
 5653SOL    HW218560   1.636   6.666   0.392  0.8991  0.6984 -0.6058
 5654SOL     OW18561   2.661   5.104   2.089 -0.3176  0.1732  0.1335
 5654SOL    HW118562   2.663   5.154   2.003 -1.1412 -0.3393 -0.1911
 5654SOL    HW218563   2.572   5.116   2.132  0.4995  1.5096  1.5752
 5655SOL     OW18564   5.478   2.065   2.933 -0.1776  0.1848 -0.0689
 5655SOL    HW118565   5.398   2.103   2.887 -0.5287 -1.7549 -1.1913
 5655SOL    HW218566   5.552   2.051   2.866  0.4779  0.3151  0.6115
 5656SOL     OW18567   0.761   6.168   5.459  0.6951 -0.5123  0.1128
 5656SOL    HW118568   0.680   6.197   5.408  2.8844 -0.6255 -3.8229
 5656SOL    HW218569   0.815   6.249   5.485  0.9499 -0.5483 -0.2901
 5657SOL     OW18570   4.204   0.557   0.316 -0.4143  0.2885 -0.1979
 5657SOL    HW118571   4.111   0.592   0.307 -0.3022  0.6225 -0.0565
 5657SOL    HW218572   4.269   0.632   0.310 -0.1117 -0.0192 -0.9408
 5658SOL     OW18573   2.326   3.384   6.976  0.1065 -0.2320  0.1874
 5658SOL    HW118574   2.274   3.463   6.946  0.8792 -0.0085 -0.6119
 5658SOL    HW218575   2.358   3.333   6.897  0.8532 -0.5199  0.6586
 5659SOL     OW18576   0.488   4.707   5.265  0.6769  0.4573 -0.2388
 5659SOL    HW118577   0.439   4.793   5.282 -2.1513 -0.5080 -2.6433
 5659SOL    HW218578   0.460   4.639   5.333  1.1062  0.7662  0.2525
 5660SOL     OW18579   0.411   4.352   2.921  0.1716  0.4743  0.3511
 5660SOL    HW118580   0.405   4.272   2.861  0.9052 -0.4589  1.4920
 5660SOL    HW218581   0.496   4.402   2.902  0.2402  0.3709  0.3860
 5661SOL     OW18582   5.786   5.493   6.415 -0.6030  0.2691  0.2493
 5661SOL    HW118583   5.729   5.575   6.427  0.9723  1.4259  0.0694
 5661SOL    HW218584   5.859   5.493   6.482  0.4837 -0.0620 -0.9009
 5662SOL     OW18585   1.625   6.944   5.464  0.1388 -0.0476  0.2957
 5662SOL    HW118586   1.578   6.991   5.539  0.2687  0.7173 -0.0955
 5662SOL    HW218587   1.701   6.891   5.500  2.4938  3.1328  0.4289
 5663SOL     OW18588   1.218   5.944   3.052  0.2921 -0.2293  0.1392
 5663SOL    HW118589   1.221   5.939   2.952 -0.4733 -0.1044  0.1082
 5663SOL    HW218590   1.312   5.946   3.088  0.6232 -2.0594 -0.4871
 5664SOL     OW18591   0.547   5.554   3.087 -0.0302 -0.0493  0.0224
 5664SOL    HW118592   0.512   5.562   2.993  0.2191  2.6982  0.0883
 5664SOL    HW218593   0.471   5.550   3.151 -0.1952 -0.5275 -0.1988
 5665SOL     OW18594   0.532   5.974   2.480  0.3713 -0.4445  0.0845
 5665SOL    HW118595   0.461   5.912   2.444  0.9864  0.8326 -3.8573
 5665SOL    HW218596   0.609   5.920   2.514  0.3664 -1.9605 -2.0730
 5666SOL     OW18597   3.224   5.433   5.287 -0.1122  0.5282 -0.0011
 5666SOL    HW118598   3.309   5.485   5.275 -1.9436  3.6399 -0.5726
 5666SOL    HW218599   3.164   5.449   5.208 -1.6048 -0.8720  0.8005
 5667SOL     OW18600   5.364   3.509   4.997  0.5749  0.1521  0.2652
 5667SOL    HW118601   5.293   3.442   5.021 -0.5044  1.3848  0.6771
 5667SOL    HW218602   5.445   3.462   4.964 -0.3469 -1.3268  0.0281
 5668SOL     OW18603   2.225   3.722   4.045  0.2179  0.3185 -0.4596
 5668SOL    HW118604   2.187   3.651   4.105 -1.0789  0.5722 -0.9590
 5668SOL    HW218605   2.323   3.704   4.032  0.3762 -0.1651  1.1121
 5669SOL     OW18606   6.571   5.516   3.214  0.4982 -0.4240  0.1141
 5669SOL    HW118607   6.478   5.502   3.179 -0.6158  0.4315  2.5247
 5669SOL    HW218608   6.622   5.574   3.150 -1.1899  0.4939 -0.4784
 5670SOL     OW18609   2.204   0.453   6.746  0.3415 -1.1689 -0.5669
 5670SOL    HW118610   2.255   0.539   6.746 -0.6963 -0.5360 -0.8661
 5670SOL    HW218611   2.121   0.463   6.800 -0.3462 -1.6372 -1.5081
 5671SOL     OW18612   1.887   2.311   2.338 -0.0720 -0.3192 -1.0345
 5671SOL    HW118613   1.957   2.330   2.270  1.2378 -0.5556  0.1824
 5671SOL    HW218614   1.920   2.239   2.400 -1.1897 -0.0885 -0.1319
 5672SOL     OW18615   4.466   6.662   5.208 -0.0900  0.4387  0.2910
 5672SOL    HW118616   4.499   6.745   5.253  2.3990 -0.7919  0.9336
 5672SOL    HW218617   4.469   6.674   5.109 -0.0023  1.1912  0.3812
 5673SOL     OW18618   0.312   3.478   0.503  0.0111  0.3940  0.2744
 5673SOL    HW118619   0.281   3.432   0.420  0.4823 -2.1160  1.3974
 5673SOL    HW218620   0.247   3.551   0.527 -1.0252  0.0512 -1.3512
 5674SOL     OW18621   6.608   6.276   6.551 -0.0959  0.1709  0.5049
 5674SOL    HW118622   6.545   6.344   6.512 -2.0953 -1.8232  0.0520
 5674SOL    HW218623   6.584   6.260   6.647  0.3961  0.1444  0.6213
 5675SOL     OW18624   0.274   3.231   3.034  0.5674 -0.0747  0.0547
 5675SOL    HW118625   0.320   3.227   3.123 -0.7254  0.5182  0.7882
 5675SOL    HW218626   0.179   3.200   3.044  0.4267 -0.0824 -1.1450
 5676SOL     OW18627   3.663   4.554   0.711  0.1231  0.2732 -0.1734
 5676SOL    HW118628   3.617   4.638   0.683 -1.1822  0.6348  2.6974
 5676SOL    HW218629   3.751   4.576   0.751 -0.0181  0.2254  0.1628
 5677SOL     OW18630   1.308   0.862   2.965  0.3278  0.3217  0.2022
 5677SOL    HW118631   1.269   0.929   2.902  0.8014 -0.0771 -0.5299
 5677SOL    HW218632   1.339   0.782   2.914  0.3409 -0.1956  0.9928
 5678SOL     OW18633   2.274   6.289   2.629  0.3275  0.6593  0.0877
 5678SOL    HW118634   2.226   6.357   2.684  0.1333 -0.2685  1.1026
 5678SOL    HW218635   2.363   6.269   2.670  0.1834 -0.0380  0.0741
 5679SOL     OW18636   4.713   1.695   2.119  0.3820 -0.1647 -0.1429
 5679SOL    HW118637   4.645   1.673   2.189 -1.8400  1.2778 -1.6962
 5679SOL    HW218638   4.684   1.776   2.068  3.5398  0.7887 -0.6596
 5680SOL     OW18639   3.678   3.448   1.060 -0.2071 -0.1526 -0.9837
 5680SOL    HW118640   3.578   3.450   1.047 -0.3649  0.1904  0.2034
 5680SOL    HW218641   3.699   3.407   1.148  0.7494 -0.8175 -1.5090
 5681SOL     OW18642   2.572   5.103   2.546  0.1696 -0.3058  0.1670
 5681SOL    HW118643   2.543   5.188   2.502 -0.5664 -0.2927  0.6587
 5681SOL    HW218644   2.493   5.060   2.590  0.4526 -1.4536 -0.4169
 5682SOL     OW18645   4.098   0.607   4.085 -0.0603 -0.0649 -0.0625
 5682SOL    HW118646   3.999   0.613   4.079 -0.4117 -1.1878  2.8990
 5682SOL    HW218647   4.138   0.607   3.993 -2.6982  1.1738 -1.3080
 5683SOL     OW18648   1.547   4.564   3.641  0.1447  0.1107 -0.1729
 5683SOL    HW118649   1.509   4.507   3.714  0.0214  1.6984  1.0805
 5683SOL    HW218650   1.588   4.506   3.571  1.5521 -1.4908  1.8552
 5684SOL     OW18651   1.439   1.318   3.232 -0.2260  0.3958  0.3841
 5684SOL    HW118652   1.342   1.302   3.215  0.3999 -2.3466 -1.1889
 5684SOL    HW218653   1.486   1.231   3.248  2.1226  1.5348  0.2570
 5685SOL     OW18654   4.530   0.758   2.803 -0.1118 -0.3544 -0.5661
 5685SOL    HW118655   4.455   0.726   2.861  0.9071 -1.1110  0.3844
 5685SOL    HW218656   4.503   0.753   2.707 -1.8910  1.0567 -0.1981
 5686SOL     OW18657   1.325   6.292   6.979  0.3133  0.0715 -0.3114
 5686SOL    HW118658   1.422   6.292   6.956  0.6109  0.2638  0.8733
 5686SOL    HW218659   1.309   6.232   7.057 -0.4356  0.4397 -0.1684
 5687SOL     OW18660   5.382   2.780   1.088 -0.2915  0.3569 -0.0739
 5687SOL    HW118661   5.288   2.804   1.112 -0.2876 -1.7205  2.4280
 5687SOL    HW218662   5.397   2.683   1.107  2.8179  0.9889  1.2106
 5688SOL     OW18663   5.161   4.109   3.944  0.0720 -0.3449  0.2445
 5688SOL    HW118664   5.195   4.067   4.028  1.3546  0.1429 -0.0020
 5688SOL    HW218665   5.232   4.168   3.905 -1.2085  1.0710 -0.0813
 5689SOL     OW18666   0.591   5.576   6.441  0.1487 -0.0100  0.5069
 5689SOL    HW118667   0.502   5.608   6.410  0.2859  0.1567  0.2833
 5689SOL    HW218668   0.579   5.506   6.511 -0.1644  1.0130  1.5078
 5690SOL     OW18669   1.218   4.335   6.109 -0.3794 -0.9520  0.1275
 5690SOL    HW118670   1.315   4.337   6.088  0.0230 -0.2881  1.9084
 5690SOL    HW218671   1.182   4.242   6.095  0.9286 -1.6441  1.1720
 5691SOL     OW18672   2.094   2.480   1.274 -0.1355  0.3577 -0.0480
 5691SOL    HW118673   2.007   2.430   1.270 -1.2281  2.0587  0.9149
 5691SOL    HW218674   2.075   2.578   1.275  1.9182  0.8229 -1.6041
 5692SOL     OW18675   6.219   4.663   6.786 -0.8686  0.0616 -0.3037
 5692SOL    HW118676   6.168   4.747   6.807 -1.2431 -0.0226 -0.8612
 5692SOL    HW218677   6.199   4.635   6.692 -0.3439 -0.3707 -0.2877
 5693SOL     OW18678   2.849   4.891   3.345  0.0559  0.3217  0.1149
 5693SOL    HW118679   2.825   4.855   3.255  1.2883  0.2967 -0.2178
 5693SOL    HW218680   2.803   4.837   3.416  1.1691 -1.3700 -0.4052
 5694SOL     OW18681   6.373   1.029   3.550  0.2508  0.5720 -0.4062
 5694SOL    HW118682   6.329   1.097   3.493 -1.4513 -0.3662 -0.2771
 5694SOL    HW218683   6.310   0.953   3.566  1.7657 -0.6061  0.2051
 5695SOL     OW18684   1.706   6.307   6.756 -0.2282 -0.4022 -0.1066
 5695SOL    HW118685   1.682   6.330   6.851  1.6384 -1.1643  0.6104
 5695SOL    HW218686   1.623   6.290   6.704 -1.2895 -0.7356  1.5962
 5696SOL     OW18687   3.487   6.834   4.062  0.1767 -0.2735  0.2320
 5696SOL    HW118688   3.521   6.919   4.103  0.7918 -1.1683  1.6202
 5696SOL    HW218689   3.414   6.796   4.118 -1.1873  0.1077 -1.2038
 5697SOL     OW18690   0.224   3.631   4.500 -0.5527 -0.0573 -0.0256
 5697SOL    HW118691   0.156   3.690   4.456  0.2316  0.9914  0.1313
 5697SOL    HW218692   0.228   3.652   4.597  1.7865  1.7747 -0.4220
 5698SOL     OW18693   0.731   0.422   4.552  0.4013 -0.2684  0.4541
 5698SOL    HW118694   0.752   0.341   4.497  1.4107 -1.1249  2.0126
 5698SOL    HW218695   0.811   0.481   4.556 -0.0848  0.4330 -0.0399
 5699SOL     OW18696   3.974   0.142   4.080  0.0384  0.1559 -0.3976
 5699SOL    HW118697   4.006   0.229   4.042  0.0051  0.2028 -0.3182
 5699SOL    HW218698   3.944   0.082   4.006 -0.1155  0.2823 -0.4381
 5700SOL     OW18699   5.487   1.166   2.306 -0.5159  0.7381  0.0842
 5700SOL    HW118700   5.573   1.128   2.339 -0.5360  1.0667  0.5211
 5700SOL    HW218701   5.503   1.221   2.224 -0.0999  1.8969  0.9182
 5701SOL     OW18702   1.217   6.752   6.512  0.0168  0.3601 -0.2934
 5701SOL    HW118703   1.247   6.662   6.545  0.6560  0.3053 -0.9705
 5701SOL    HW218704   1.293   6.817   6.519 -0.2145  0.6540 -0.4997
 5702SOL     OW18705   6.470   6.514   0.972  0.5161 -0.0730 -0.1568
 5702SOL    HW118706   6.387   6.495   0.920 -0.8924  0.1676  1.8755
 5702SOL    HW218707   6.537   6.442   0.957 -1.5829 -2.4447  1.1422
 5703SOL     OW18708   6.824   3.527   5.987 -0.6866  0.0287  0.1989
 5703SOL    HW118709   6.789   3.619   6.002  0.0467  0.3536 -0.0541
 5703SOL    HW218710   6.841   3.483   6.075 -1.3101  0.0259  0.3200
 5704SOL     OW18711   1.188   3.113   6.769 -0.4055  0.3846  0.2568
 5704SOL    HW118712   1.260   3.164   6.817 -1.0348  1.6051 -0.0758
 5704SOL    HW218713   1.192   3.133   6.672 -1.5236  0.8725  0.3031
 5705SOL     OW18714   3.997   6.949   6.410 -0.0882 -0.1969  0.3453
 5705SOL    HW118715   4.036   6.997   6.331  0.2986  1.0620  1.2661
 5705SOL    HW218716   4.069   6.898   6.457  0.0646  0.5284  0.9130
 5706SOL     OW18717   1.962   2.401   0.456  0.0482  0.1008  0.2880
 5706SOL    HW118718   1.980   2.496   0.482 -0.2811  0.3881 -0.5096
 5706SOL    HW218719   1.893   2.362   0.516 -1.3992  1.0543 -0.7070
 5707SOL     OW18720   1.174   1.180   0.206  0.0654  0.3090  0.1126
 5707SOL    HW118721   1.114   1.245   0.159  0.7555  0.3356 -0.7604
 5707SOL    HW218722   1.122   1.132   0.277 -0.0041  3.1370  2.1227
 5708SOL     OW18723   3.618   6.939   2.550 -0.4478  0.6747 -0.1677
 5708SOL    HW118724   3.568   7.026   2.552  0.0540  0.9837 -0.9008
 5708SOL    HW218725   3.556   6.866   2.520 -0.9509  0.7088  0.7345
 5709SOL     OW18726   5.632   3.114   2.963  0.0147  0.3150 -0.0149
 5709SOL    HW118727   5.534   3.097   2.972  0.2082  0.2160  2.6705
 5709SOL    HW218728   5.651   3.209   2.988  0.7394 -0.0114  0.6809
 5710SOL     OW18729   2.551   0.786   2.187  0.5078  0.4113  0.1229
 5710SOL    HW118730   2.541   0.830   2.276 -2.3427  0.3368 -0.0693
 5710SOL    HW218731   2.598   0.699   2.197 -1.8213 -0.7431  2.0269
 5711SOL     OW18732   3.096   3.385   2.958 -0.3143  0.3799  0.0284
 5711SOL    HW118733   3.061   3.472   2.922  0.3911  0.5981 -0.1435
 5711SOL    HW218734   3.029   3.313   2.942 -0.7556  0.8229 -0.1456
 5712SOL     OW18735   2.637   0.712   1.040  0.1243 -0.1497 -0.2844
 5712SOL    HW118736   2.637   0.693   0.941 -0.3945 -0.6887 -0.1916
 5712SOL    HW218737   2.552   0.677   1.080 -0.7937  2.1533 -0.0328
 5713SOL     OW18738   4.269   2.431   0.257 -0.0979 -0.9738  0.2850
 5713SOL    HW118739   4.320   2.373   0.194  1.4016 -0.7087  1.2150
 5713SOL    HW218740   4.234   2.511   0.209  1.6121 -0.4243 -0.0968
 5714SOL     OW18741   3.374   6.336   2.469  0.1330  0.1285  0.9101
 5714SOL    HW118742   3.416   6.246   2.458  1.3144  0.9220 -1.9471
 5714SOL    HW218743   3.288   6.339   2.417  0.7538  1.0111 -0.1000
 5715SOL     OW18744   3.698   6.518   2.598 -0.0285  0.6989 -0.3849
 5715SOL    HW118745   3.624   6.584   2.613 -1.2251 -0.4361 -1.0981
 5715SOL    HW218746   3.738   6.533   2.508 -1.1389 -0.2889 -1.0753
 5716SOL     OW18747   2.346   4.212   4.996 -0.1989  0.8033  0.1880
 5716SOL    HW118748   2.446   4.211   4.991 -0.2460 -0.4885 -0.9936
 5716SOL    HW218749   2.318   4.256   5.081  1.3055  3.3114 -0.5130
 5717SOL     OW18750   1.464   0.487   5.006  0.0640 -0.2389 -0.1108
 5717SOL    HW118751   1.505   0.466   4.918 -2.2195 -0.1988 -1.2607
 5717SOL    HW218752   1.385   0.547   4.992 -0.3181 -0.1867  1.9827
 5718SOL     OW18753   6.840   1.249   4.338 -0.8491 -0.2794  0.2076
 5718SOL    HW118754   6.845   1.228   4.240  0.7475 -1.8905  0.5819
 5718SOL    HW218755   6.925   1.292   4.367 -1.9644  1.8279  0.6142
 5719SOL     OW18756   2.332   1.044   2.643  0.0053  0.0921  0.7529
 5719SOL    HW118757   2.295   1.070   2.732 -1.6133  0.2487  0.0651
 5719SOL    HW218758   2.340   0.945   2.637 -0.6569  0.0358  0.7833
 5720SOL     OW18759   2.809   1.893   6.896 -0.2789 -0.0942  0.0583
 5720SOL    HW118760   2.780   1.806   6.855 -0.0899  0.2267 -0.7732
 5720SOL    HW218761   2.836   1.956   6.823  0.0575  0.4905  0.6875
 5721SOL     OW18762   6.904   1.413   3.576 -0.2499  0.2417  0.4008
 5721SOL    HW118763   6.967   1.412   3.498 -0.3003 -2.5169  0.2850
 5721SOL    HW218764   6.955   1.410   3.661 -0.2013 -0.4787  0.3501
 5722SOL     OW18765   0.020   6.283   5.439  0.0725  1.0050 -0.0478
 5722SOL    HW118766   0.054   6.294   5.532  0.5364 -2.8541  0.4047
 5722SOL    HW218767  -0.030   6.197   5.432  2.4625 -0.3162 -3.9791
 5723SOL     OW18768   3.679   5.635   3.992  0.5153  0.3791  0.5769
 5723SOL    HW118769   3.597   5.680   4.027  0.0312 -0.0879  0.0638
 5723SOL    HW218770   3.680   5.540   4.024  0.5287  0.2073  0.0660
 5724SOL     OW18771   6.499   2.226   2.001 -0.2165 -0.0121  0.1166
 5724SOL    HW118772   6.581   2.266   1.962 -0.2026 -0.0634  0.0929
 5724SOL    HW218773   6.419   2.281   1.976 -0.3687 -0.7013 -0.9856
 5725SOL     OW18774   5.164   6.531   1.868 -0.3725 -0.1167  0.1132
 5725SOL    HW118775   5.121   6.441   1.853 -1.8193  0.6925 -0.8747
 5725SOL    HW218776   5.259   6.528   1.838  0.0983 -1.7466  1.6012
 5726SOL     OW18777   0.488   2.128   4.145  0.4748 -0.0228  0.7241
 5726SOL    HW118778   0.579   2.168   4.143  0.9159 -1.0032  0.5923
 5726SOL    HW218779   0.441   2.145   4.059  0.5483  0.4398  0.7743
 5727SOL     OW18780   2.371   5.499   5.457 -0.3640 -0.4267  0.4896
 5727SOL    HW118781   2.460   5.462   5.484  0.7128  0.6784 -1.3256
 5727SOL    HW218782   2.344   5.571   5.521 -0.0746 -0.9486  1.2042
 5728SOL     OW18783   2.142   6.301   3.733 -0.2780 -0.4803 -0.3818
 5728SOL    HW118784   2.190   6.215   3.750  0.2377 -0.1372 -0.0662
 5728SOL    HW218785   2.151   6.361   3.812 -0.5783 -0.1068 -0.6225
 5729SOL     OW18786   4.509   0.284   4.805 -0.2229 -0.2170  0.4631
 5729SOL    HW118787   4.486   0.230   4.724  0.3109 -1.1978  0.9387
 5729SOL    HW218788   4.606   0.272   4.827  0.1733  1.7896 -0.0096
 5730SOL     OW18789   2.764   5.140   5.603  0.4121  0.2378 -0.3258
 5730SOL    HW118790   2.838   5.096   5.654  0.8944 -0.6145 -1.7099
 5730SOL    HW218791   2.738   5.083   5.525 -1.7672  0.4936  0.1482
 5731SOL     OW18792   6.785   5.093   0.836  0.2410  0.1559 -0.1469
 5731SOL    HW118793   6.782   5.155   0.758  0.6474 -1.1863 -1.2864
 5731SOL    HW218794   6.854   5.022   0.819 -0.9878 -1.2705  0.5705
 5732SOL     OW18795   1.419   6.632   6.885 -0.3071 -0.3089 -0.1627
 5732SOL    HW118796   1.426   6.714   6.827 -2.0053 -0.1785 -0.2107
 5732SOL    HW218797   1.333   6.633   6.935 -0.2772 -1.9810 -0.0178
 5733SOL     OW18798   6.173   2.755   2.128 -0.1431  0.2503 -0.4954
 5733SOL    HW118799   6.176   2.814   2.209  1.8979  1.1368 -1.1582
 5733SOL    HW218800   6.099   2.786   2.068 -1.2721 -0.0193  0.7011
 5734SOL     OW18801   4.383   5.152   2.368  0.3993  0.0325  0.5293
 5734SOL    HW118802   4.396   5.248   2.393 -0.6772  0.6364 -1.0536
 5734SOL    HW218803   4.471   5.113   2.341  0.6963  0.8878  0.2100
 5735SOL     OW18804   6.550   3.790   1.964  0.8394  0.0573  0.2416
 5735SOL    HW118805   6.627   3.732   1.988  1.7983  0.1431 -2.2672
 5735SOL    HW218806   6.528   3.777   1.867 -0.9789  1.5739  0.3900
 5736SOL     OW18807   2.533   0.496   5.264 -0.2019 -0.2135  0.4995
 5736SOL    HW118808   2.538   0.418   5.202  0.6704 -0.3834  0.7736
 5736SOL    HW218809   2.447   0.545   5.249 -0.0632 -0.3261 -0.7573
 5737SOL     OW18810   1.596   3.871   1.670  0.4758  0.0910  0.1917
 5737SOL    HW118811   1.681   3.847   1.718 -0.5038 -1.6310  1.1801
 5737SOL    HW218812   1.527   3.897   1.738 -0.0980  0.4590 -0.5257
 5738SOL     OW18813   5.309   4.829   2.883 -0.3381 -0.0088 -0.4309
 5738SOL    HW118814   5.231   4.874   2.840 -1.9049 -0.9870  1.2473
 5738SOL    HW218815   5.312   4.854   2.980  1.8525  0.5192 -0.5829
 5739SOL     OW18816   3.383   6.442   4.040  0.1155  0.8359  0.8262
 5739SOL    HW118817   3.364   6.451   3.942  0.7811 -0.8123  0.5092
 5739SOL    HW218818   3.298   6.419   4.088  0.2496 -1.2403  0.1808
 5740SOL     OW18819   2.584   0.557   6.541 -0.1653 -0.3156 -0.0813
 5740SOL    HW118820   2.511   0.588   6.481 -1.5296 -1.8907  0.6710
 5740SOL    HW218821   2.646   0.497   6.490  1.7531  2.3935 -1.1988
 5741SOL     OW18822   1.251   5.175   4.120  0.4756 -0.2366 -0.3887
 5741SOL    HW118823   1.348   5.192   4.102  1.4107 -2.2998  2.1064
 5741SOL    HW218824   1.225   5.223   4.205 -0.4225 -0.5081 -0.5056
 5742SOL     OW18825   1.624   6.044   6.998 -0.2274 -0.1805  0.3310
 5742SOL    HW118826   1.607   6.143   7.002  1.2599  0.0923  0.2477
 5742SOL    HW218827   1.714   6.027   6.957  0.0113 -1.5350  1.3621
 5743SOL     OW18828   6.066   4.911   5.490  0.1829  0.5313 -0.2941
 5743SOL    HW118829   6.059   4.925   5.391  0.4992  2.9387 -0.0403
 5743SOL    HW218830   6.163   4.907   5.516  0.0971 -0.3484 -0.1096
 5744SOL     OW18831   0.458   4.306   0.446 -0.1199 -0.0673  0.4097
 5744SOL    HW118832   0.408   4.257   0.517 -0.1218  0.1696  0.5736
 5744SOL    HW218833   0.395   4.333   0.374 -0.3739  0.8645  0.9617
 5745SOL     OW18834   0.929   5.318   2.043 -0.4949  0.3192 -0.3822
 5745SOL    HW118835   0.960   5.410   2.063 -1.5515  0.5054  0.4879
 5745SOL    HW218836   0.951   5.295   1.948 -1.3122  1.9421 -0.9955
 5746SOL     OW18837   2.747   0.583   2.739 -0.0045 -0.3246  0.2254
 5746SOL    HW118838   2.690   0.664   2.755  0.8364  0.7848 -2.0781
 5746SOL    HW218839   2.760   0.535   2.826 -1.8872  1.0682  1.3695
 5747SOL     OW18840   4.693   2.323   1.579  0.0574  0.2578  0.0877
 5747SOL    HW118841   4.671   2.342   1.483  0.7215  0.8256  0.0359
 5747SOL    HW218842   4.735   2.404   1.620  0.8934 -0.3732  0.5132
 5748SOL     OW18843   5.432   5.200   2.504 -0.5647  0.4918  0.2025
 5748SOL    HW118844   5.354   5.260   2.523 -1.3496 -0.2525 -0.5987
 5748SOL    HW218845   5.404   5.104   2.511  0.3245  0.2070  0.0867
 5749SOL     OW18846   0.681   5.726   3.266 -0.3448 -0.1669 -0.5522
 5749SOL    HW118847   0.775   5.695   3.282  0.0711  1.2237 -0.1680
 5749SOL    HW218848   0.642   5.675   3.189 -0.0334 -2.2361  0.5761
 5750SOL     OW18849   3.976   4.073   3.792 -0.5977  0.1218  0.3791
 5750SOL    HW118850   3.987   3.974   3.786 -1.1388  0.1375 -1.2180
 5750SOL    HW218851   4.064   4.118   3.773 -0.6053 -0.0342 -0.0363
 5751SOL     OW18852   1.636   5.516   3.937  0.4324 -0.4230 -0.2843
 5751SOL    HW118853   1.674   5.607   3.922 -0.8269  0.3655  1.1126
 5751SOL    HW218854   1.571   5.494   3.864  1.2438 -0.5156 -0.9995
 5752SOL     OW18855   5.637   4.702   2.978  0.6858  0.1294  0.7569
 5752SOL    HW118856   5.562   4.740   2.923  0.2112 -2.3734 -0.4452
 5752SOL    HW218857   5.613   4.707   3.075 -0.9528 -0.4129  0.4102
 5753SOL     OW18858   1.086   5.144   3.909 -0.3634  0.2213  0.7851
 5753SOL    HW118859   1.164   5.133   3.970  2.2346  1.8564 -1.9967
 5753SOL    HW218860   1.071   5.059   3.859 -0.3609 -0.0782  1.2789
 5754SOL     OW18861   5.764   3.027   0.941 -0.1674  0.2914 -0.0330
 5754SOL    HW118862   5.804   3.025   0.850 -0.8529 -1.3343 -0.3348
 5754SOL    HW218863   5.682   2.969   0.943 -0.5741  0.8654  1.4279
 5755SOL     OW18864   0.263   1.482   0.581  0.2251 -0.0994 -0.1308
 5755SOL    HW118865   0.179   1.490   0.526 -0.3033 -0.1466  0.6530
 5755SOL    HW218866   0.280   1.386   0.602  0.2153 -0.0515  0.0993
 5756SOL     OW18867   5.798   1.294   6.492  0.1791  0.0408  0.6851
 5756SOL    HW118868   5.789   1.388   6.460  1.0759 -0.9681 -3.0037
 5756SOL    HW218869   5.894   1.268   6.496 -0.0701 -0.8719  1.1815
 5757SOL     OW18870   6.304   5.536   0.440 -0.1795  0.2486 -0.1751
 5757SOL    HW118871   6.236   5.475   0.480 -1.2111  1.9832  0.8466
 5757SOL    HW218872   6.307   5.622   0.492  0.5875  1.4194 -2.0303
 5758SOL     OW18873   3.563   0.919   3.263 -0.5742  0.1310  0.1963
 5758SOL    HW118874   3.538   1.010   3.297  0.9635  0.5084  0.4000
 5758SOL    HW218875   3.551   0.916   3.164  3.3863  2.0828 -0.5312
 5759SOL     OW18876   3.339   3.392   4.156 -0.0868  0.3730  0.1586
 5759SOL    HW118877   3.377   3.484   4.147 -0.5112  0.3612 -2.8184
 5759SOL    HW218878   3.412   3.324   4.143 -0.4611  0.3552 -2.2717
 5760SOL     OW18879   6.385   3.604   2.943  0.0324 -0.0433 -0.1335
 5760SOL    HW118880   6.458   3.631   2.880 -0.7705  1.1673 -0.5885
 5760SOL    HW218881   6.357   3.683   2.998 -0.9480 -0.4665  0.0044
 5761SOL     OW18882   2.251   4.026   3.061  0.2707 -0.1251 -0.0169
 5761SOL    HW118883   2.304   3.941   3.067  0.5282 -0.1242 -1.7463
 5761SOL    HW218884   2.302   4.100   3.105  3.0028  0.4055 -3.5452
 5762SOL     OW18885   2.191   2.067   3.447 -0.1461 -0.1512  0.4479
 5762SOL    HW118886   2.200   2.000   3.521 -1.5531  0.4183  1.1534
 5762SOL    HW218887   2.279   2.114   3.434  0.2997 -0.7371  1.2748
 5763SOL     OW18888   6.451   0.866   1.798  0.1320  0.1716  0.5534
 5763SOL    HW118889   6.518   0.907   1.859 -0.0801  1.3664  0.0198
 5763SOL    HW218890   6.476   0.771   1.779  1.6924  0.5912  0.3498
 5764SOL     OW18891   2.001   0.430   2.442  0.8963  0.1322  0.5402
 5764SOL    HW118892   2.058   0.451   2.522 -0.1346 -1.9317  1.9188
 5764SOL    HW218893   1.933   0.502   2.430  1.2820  0.6427  1.3385
 5765SOL     OW18894   0.740   5.665   5.116  0.8144 -0.2264 -0.8269
 5765SOL    HW118895   0.730   5.728   5.192  1.2876 -1.0912 -0.0256
 5765SOL    HW218896   0.801   5.706   5.047  2.7316 -0.5547  0.5782
 5766SOL     OW18897   2.858   5.742   1.338  0.3808  0.1027 -0.1097
 5766SOL    HW118898   2.759   5.728   1.338  0.3913 -0.0523  0.9749
 5766SOL    HW218899   2.880   5.820   1.280 -0.4221  0.3990 -0.0388
 5767SOL     OW18900   4.196   1.283   2.720 -1.0786 -0.6189 -0.3770
 5767SOL    HW118901   4.176   1.199   2.669 -1.8622 -0.4455 -0.3679
 5767SOL    HW218902   4.291   1.281   2.752 -0.1966 -0.2754 -2.7280
 5768SOL     OW18903   3.084   5.804   1.499  0.2329  0.4171  0.2654
 5768SOL    HW118904   2.996   5.771   1.465  0.1108  3.0190 -2.3295
 5768SOL    HW218905   3.150   5.806   1.424  1.7258  1.0713  1.5314
 5769SOL     OW18906   5.529   0.272   0.704 -0.2368  0.1872 -0.4087
 5769SOL    HW118907   5.572   0.295   0.617 -1.4349  1.3581 -0.7143
 5769SOL    HW218908   5.515   0.355   0.757  0.9240 -0.5595  1.1480
 5770SOL     OW18909   0.003   2.390   0.272 -0.2054  0.0396 -0.3280
 5770SOL    HW118910  -0.072   2.324   0.267 -3.2885  3.1889  1.0611
 5770SOL    HW218911  -0.010   2.461   0.203  2.4121 -0.0740 -1.0460
 5771SOL     OW18912   1.645   5.794   4.542  0.0373  0.0803  0.3120
 5771SOL    HW118913   1.659   5.737   4.461  1.1485  1.5423 -0.5754
 5771SOL    HW218914   1.587   5.872   4.519 -1.4379 -0.6001  1.5068
 5772SOL     OW18915   5.753   6.636   4.018 -0.2175 -0.0880  0.3445
 5772SOL    HW118916   5.800   6.551   3.995  2.0024  1.0158  0.5337
 5772SOL    HW218917   5.765   6.655   4.116  1.6328  1.7236 -0.1712
 5773SOL     OW18918   3.007   1.697   1.888  0.0964 -0.3596  0.5669
 5773SOL    HW118919   2.968   1.706   1.980  0.6160  1.1418  0.6645
 5773SOL    HW218920   3.096   1.741   1.885  0.0217 -0.2638 -0.7053
 5774SOL     OW18921   4.618   2.825   4.719 -0.2923 -0.1758 -0.3817
 5774SOL    HW118922   4.625   2.729   4.744 -4.7791 -0.7787 -0.7753
 5774SOL    HW218923   4.635   2.881   4.801  0.8051 -1.2990  0.2021
 5775SOL     OW18924   5.496   0.776   0.208  0.5229  0.9264  0.0158
 5775SOL    HW118925   5.476   0.808   0.116 -1.7657 -1.6145 -0.5019
 5775SOL    HW218926   5.595   0.781   0.225  1.1527  0.3917 -2.9973
 5776SOL     OW18927   5.623   5.721   6.433 -0.0454 -0.3763 -0.6084
 5776SOL    HW118928   5.558   5.695   6.505  0.7061  0.7584  0.5297
 5776SOL    HW218929   5.582   5.790   6.374  0.1489  0.4908  0.2336
 5777SOL     OW18930   0.752   5.438   3.413 -0.1267  0.2966 -0.2004
 5777SOL    HW118931   0.803   5.352   3.408 -3.0923 -1.5092 -2.6077
 5777SOL    HW218932   0.801   5.508   3.360  1.2641 -0.4766  0.0004
 5778SOL     OW18933   1.791   4.694   2.821  0.2155  0.7253  0.6545
 5778SOL    HW118934   1.823   4.713   2.728 -0.4086 -1.2537 -0.0121
 5778SOL    HW218935   1.867   4.658   2.875 -0.3783 -2.5454 -0.4965
 5779SOL     OW18936   4.059   3.673   5.043 -0.5732  0.2758 -0.2234
 5779SOL    HW118937   4.118   3.592   5.032 -0.5252  0.5317 -2.4048
 5779SOL    HW218938   3.963   3.644   5.044 -0.5177 -0.0193  2.0001
 5780SOL     OW18939   6.772   0.208   2.213  0.3229 -0.3091 -0.5260
 5780SOL    HW118940   6.869   0.204   2.188  0.4991 -0.5795  0.1972
 5780SOL    HW218941   6.755   0.147   2.290 -0.0758  1.0632  0.5049
 5781SOL     OW18942   4.265   4.832   4.589 -0.4534 -0.1964 -0.4490
 5781SOL    HW118943   4.283   4.886   4.672  1.9558 -1.7574  0.1367
 5781SOL    HW218944   4.344   4.835   4.529  0.2502 -3.7621  0.0665
 5782SOL     OW18945   1.509   3.627   5.031  0.1735  0.4722 -0.2584
 5782SOL    HW118946   1.494   3.713   5.080 -0.7818  1.0759 -1.5577
 5782SOL    HW218947   1.474   3.635   4.938 -1.4119 -1.8530  0.0566
 5783SOL     OW18948   0.338   4.940   5.778  0.2427 -0.0637  0.0855
 5783SOL    HW118949   0.320   5.028   5.734 -2.5599 -0.4165  0.3248
 5783SOL    HW218950   0.304   4.943   5.872 -2.9556 -2.2499 -0.8201
 5784SOL     OW18951   3.860   4.965   1.365  0.1209 -0.1672 -0.2077
 5784SOL    HW118952   3.910   4.915   1.436 -0.1382 -1.3598 -0.8331
 5784SOL    HW218953   3.779   4.912   1.339  0.1837  0.2786 -1.3510
 5785SOL     OW18954   2.272   6.931   4.137  0.5007 -0.3368 -0.0541
 5785SOL    HW118955   2.217   6.849   4.124 -0.6897  0.3889  0.2387
 5785SOL    HW218956   2.247   7.000   4.069  0.9184  0.0782  0.1996
 5786SOL     OW18957   3.136   2.066   6.561  0.3936 -0.4551  0.3134
 5786SOL    HW118958   3.162   2.150   6.609 -0.6870 -0.5059  1.0093
 5786SOL    HW218959   3.196   2.054   6.481  0.8447  0.7386  0.4507
 5787SOL     OW18960   1.008   1.191   3.515  0.1069 -0.2729  0.1114
 5787SOL    HW118961   1.105   1.212   3.529 -0.0988 -0.3581  1.8629
 5787SOL    HW218962   0.968   1.259   3.452  1.2934 -0.2768 -0.6741
 5788SOL     OW18963   5.042   0.454   4.399  0.3586 -0.1468 -1.0017
 5788SOL    HW118964   5.074   0.433   4.307  2.9909 -0.3978 -0.0968
 5788SOL    HW218965   5.117   0.444   4.464 -1.2930  0.5269  1.1315
 5789SOL     OW18966   6.945   1.988   3.980  0.4689 -0.6808 -0.1001
 5789SOL    HW118967   7.006   1.943   3.915  0.3200  0.7960 -1.3196
 5789SOL    HW218968   6.855   1.943   3.978  0.5708 -0.8643 -0.6726
 5790SOL     OW18969   3.954   1.793   5.968  0.2185  0.4885  0.0288
 5790SOL    HW118970   3.884   1.771   6.036 -0.3364  0.8113 -0.4325
 5790SOL    HW218971   3.912   1.798   5.878  0.6994  1.4563 -0.1469
 5791SOL     OW18972   4.811   2.352   6.260 -0.6042  0.2665  0.1086
 5791SOL    HW118973   4.851   2.424   6.317  1.1539 -1.4499  1.1562
 5791SOL    HW218974   4.872   2.273   6.258 -2.2014 -1.0162 -1.4739
 5792SOL     OW18975   2.411   0.112   6.862  0.2647  0.0179 -0.0781
 5792SOL    HW118976   2.364   0.025   6.875  1.2898 -0.7733 -1.3832
 5792SOL    HW218977   2.380   0.178   6.931 -0.5025 -1.3803  0.9581
 5793SOL     OW18978   5.254   3.716   4.783  0.3280 -0.1370 -0.0326
 5793SOL    HW118979   5.210   3.707   4.872  3.9776 -1.6809  1.8217
 5793SOL    HW218980   5.237   3.808   4.746 -1.9675  0.2595  1.7839
 5794SOL     OW18981   6.414   6.724   3.060 -0.2714  0.2633 -0.3065
 5794SOL    HW118982   6.363   6.727   2.974  1.4443  1.3194 -1.3588
 5794SOL    HW218983   6.476   6.646   3.059 -0.1650  0.3460 -0.0834
 5795SOL     OW18984   6.179   2.389   2.647 -0.4085 -0.3639  0.0813
 5795SOL    HW118985   6.091   2.436   2.653  0.2608  0.9146  0.0886
 5795SOL    HW218986   6.212   2.369   2.739  0.4648  1.4069  0.1913
 5796SOL     OW18987   5.415   1.762   2.416  0.0015 -0.1063 -0.4199
 5796SOL    HW118988   5.395   1.724   2.326 -0.6696 -0.4819 -0.1224
 5796SOL    HW218989   5.508   1.798   2.417 -0.8068  2.2831 -2.0498
 5797SOL     OW18990   0.800   0.505   6.158  0.1721  0.5654 -0.1055
 5797SOL    HW118991   0.816   0.435   6.227 -0.6092 -0.6009 -1.0747
 5797SOL    HW218992   0.770   0.590   6.202 -0.6784 -0.2727  0.9523
 5798SOL     OW18993   3.897   6.323   6.336  0.2139 -0.2988  0.4437
 5798SOL    HW118994   3.829   6.282   6.396 -2.6434  0.5735 -1.9547
 5798SOL    HW218995   3.922   6.259   6.264  1.2505 -0.2931  0.7891
 5799SOL     OW18996   4.841   0.048   5.124 -0.2642  0.1115  0.0221
 5799SOL    HW118997   4.759   0.101   5.146 -1.8293 -1.5565 -1.4922
 5799SOL    HW218998   4.847  -0.031   5.185  0.1088  0.1045 -0.0218
 5800SOL     OW18999   0.381   6.733   1.451  0.0630 -0.5962  0.2784
 5800SOL    HW119000   0.299   6.694   1.493 -0.4398 -0.9749 -1.0086
 5800SOL    HW219001   0.376   6.833   1.454 -0.3341 -0.6199  0.4078
 5801SOL     OW19002   6.158   4.803   0.443 -0.1344  0.0797 -0.4307
 5801SOL    HW119003   6.066   4.828   0.413 -0.6807  0.8411  1.6374
 5801SOL    HW219004   6.161   4.705   0.464 -0.2803 -0.0740 -1.1135
 5802SOL     OW19005   0.336   0.304   5.091  0.5721  0.3600  0.5158
 5802SOL    HW119006   0.317   0.206   5.102 -1.6940  0.9525  2.9482
 5802SOL    HW219007   0.372   0.340   5.177 -0.7943  2.0692  0.4154
 5803SOL     OW19008   0.747   5.515   0.358  0.5212 -0.1867  0.1586
 5803SOL    HW119009   0.705   5.440   0.409 -0.2658 -0.2705 -0.5937
 5803SOL    HW219010   0.765   5.592   0.419 -2.9411  0.8065  0.1457
 5804SOL     OW19011   2.317   1.084   3.168  0.3316  0.0965 -0.3893
 5804SOL    HW119012   2.343   1.166   3.219 -0.7028  1.9713 -2.7176
 5804SOL    HW219013   2.238   1.041   3.211  0.4062  0.7371  0.4124
 5805SOL     OW19014   0.259   6.103   1.086  0.1527  0.0004  0.0670
 5805SOL    HW119015   0.274   6.025   1.147  1.0231 -1.0657 -1.4129
 5805SOL    HW219016   0.163   6.128   1.086 -1.2529 -4.2365 -2.8955
 5806SOL     OW19017   4.903   5.284   4.994  0.3034 -0.0975 -0.0618
 5806SOL    HW119018   4.890   5.364   5.053 -0.4885 -0.4524  0.2706
 5806SOL    HW219019   4.944   5.312   4.908 -2.8410  1.2620 -1.2906
 5807SOL     OW19020   1.303   3.010   4.523  0.1120 -0.6838  0.0408
 5807SOL    HW119021   1.333   3.009   4.618  0.7547  1.0392 -0.1138
 5807SOL    HW219022   1.355   2.941   4.471  0.6746 -0.7392  0.6653
 5808SOL     OW19023   2.370   5.761   5.994 -0.5407  0.8264  0.8025
 5808SOL    HW119024   2.395   5.857   6.008  1.0464  0.8009 -1.3695
 5808SOL    HW219025   2.301   5.755   5.922 -0.9543  0.3504  1.2313
 5809SOL     OW19026   3.102   1.401   1.994 -0.0090  0.1093  0.1520
 5809SOL    HW119027   3.034   1.403   2.068  1.0536  0.0028  1.1587
 5809SOL    HW219028   3.178   1.462   2.016  0.3132  0.0992 -0.8743
 5810SOL     OW19029   1.173   4.314   5.547 -0.0666 -0.5304  0.4381
 5810SOL    HW119030   1.266   4.348   5.563 -0.7670  1.7034  0.0756
 5810SOL    HW219031   1.126   4.306   5.634 -0.0797  0.0305  0.4866
 5811SOL     OW19032   4.895   5.174   1.815  0.2138 -0.0078  0.2118
 5811SOL    HW119033   4.992   5.149   1.822  0.0171 -0.8341  0.1889
 5811SOL    HW219034   4.885   5.255   1.758  0.7905 -0.7096 -0.9310
 5812SOL     OW19035   0.923   3.415   6.566  0.4085 -0.2982  0.3685
 5812SOL    HW119036   0.979   3.379   6.492 -1.4848 -1.7782 -0.4042
 5812SOL    HW219037   0.927   3.353   6.645  1.9280  0.9600  1.3413
 5813SOL     OW19038   5.048   0.127   0.747 -0.0284 -0.2004  0.7455
 5813SOL    HW119039   4.997   0.047   0.714  1.4326 -0.3497 -1.2755
 5813SOL    HW219040   5.114   0.097   0.816  1.5266 -1.0592 -1.0360
 5814SOL     OW19041   1.483   3.893   6.357  0.1745  0.2705  0.1243
 5814SOL    HW119042   1.502   3.803   6.398  2.9909  0.5275 -0.4251
 5814SOL    HW219043   1.486   3.963   6.428 -0.8935  0.0982  0.3644
 5815SOL     OW19044   0.539   5.238   1.247  0.4436  0.0389 -0.1653
 5815SOL    HW119045   0.445   5.204   1.251  0.2488  0.3357 -1.7816
 5815SOL    HW219046   0.557   5.294   1.328 -1.1903  1.0313 -0.4446
 5816SOL     OW19047   4.024   1.169   0.307 -0.2330 -0.2333  0.2500
 5816SOL    HW119048   4.040   1.257   0.263 -0.3176 -0.2696  0.1436
 5816SOL    HW219049   4.051   1.173   0.403  0.1905 -0.2224  0.1369
 5817SOL     OW19050   4.774   3.079   2.122 -0.4688 -0.4953  0.0947
 5817SOL    HW119051   4.788   3.097   2.025 -0.0139  0.6799  0.3628
 5817SOL    HW219052   4.691   3.127   2.152 -0.8556 -1.2163  0.1996
 5818SOL     OW19053   3.014   6.573   2.221 -0.4995  0.0695  0.7061
 5818SOL    HW119054   3.049   6.490   2.263 -1.4069  1.0195  3.6700
 5818SOL    HW219055   3.089   6.636   2.203  0.0139 -0.7185  0.0468
 5819SOL     OW19056   3.928   1.594   0.414  0.1640  0.6442 -0.4317
 5819SOL    HW119057   3.851   1.658   0.406 -0.5842 -0.3586 -1.6291
 5819SOL    HW219058   3.982   1.596   0.329  1.4441  1.2677  0.3608
 5820SOL     OW19059   1.551   6.838   5.227  0.4200 -0.3953  0.4653
 5820SOL    HW119060   1.574   6.876   5.317  2.3194  2.5880 -1.0952
 5820SOL    HW219061   1.459   6.868   5.201  0.4648  0.0305  0.7878
 5821SOL     OW19062   0.545   0.611   5.753 -0.1816 -0.6395 -0.4997
 5821SOL    HW119063   0.593   0.644   5.671 -0.1552  0.2205 -0.1456
 5821SOL    HW219064   0.553   0.679   5.826 -0.1707 -1.4207  0.2400
 5822SOL     OW19065   0.016   6.552   4.329  1.0920  0.0350 -0.6780
 5822SOL    HW119066   0.020   6.465   4.280 -1.2291 -0.4119 -0.1810
 5822SOL    HW219067   0.080   6.549   4.406  1.5036 -0.9968 -1.0362
 5823SOL     OW19068   6.331   5.305   3.808  0.1146  0.5843  0.0085
 5823SOL    HW119069   6.409   5.263   3.855 -0.2779  0.3101  0.4244
 5823SOL    HW219070   6.321   5.400   3.837  0.5365  0.7426 -0.3521
 5824SOL     OW19071   0.579   4.175   3.679 -0.1857 -0.8204 -0.2475
 5824SOL    HW119072   0.547   4.269   3.688  1.8369  0.0564 -1.4068
 5824SOL    HW219073   0.609   4.142   3.769  1.2285  0.5317 -0.1639
 5825SOL     OW19074   2.223   1.507   2.561 -0.4080 -0.1184 -0.0077
 5825SOL    HW119075   2.216   1.427   2.501 -0.9021  0.2876 -0.4965
 5825SOL    HW219076   2.311   1.504   2.609 -0.6178 -1.2011  0.3360
 5826SOL     OW19077   1.316   3.144   3.055  0.5387  0.7560  0.2686
 5826SOL    HW119078   1.399   3.091   3.071  1.2025  1.5921 -0.3254
 5826SOL    HW219079   1.268   3.157   3.141 -0.4662 -2.0866  0.2493
 5827SOL     OW19080   5.325   2.699   5.240  0.3904 -0.1748 -0.5351
 5827SOL    HW119081   5.318   2.599   5.246 -1.9938 -0.0830 -0.8224
 5827SOL    HW219082   5.259   2.734   5.173 -0.7055  1.7445  1.3830
 5828SOL     OW19083   3.335   2.970   6.980  0.2077 -0.2008 -0.0259
 5828SOL    HW119084   3.256   2.992   6.923  0.1141 -1.1939 -0.2962
 5828SOL    HW219085   3.306   2.965   7.076  0.3053  1.1583  0.0946
 5829SOL     OW19086   4.336   6.499   2.078  0.3404  0.4340  0.2143
 5829SOL    HW119087   4.342   6.496   1.978  0.8435 -0.1985  0.2549
 5829SOL    HW219088   4.388   6.577   2.113 -1.1854  1.6255 -0.1007
 5830SOL     OW19089   0.931   3.834   3.404  0.0848  0.4423 -0.3030
 5830SOL    HW119090   1.020   3.876   3.382  0.6101 -1.4759 -2.1504
 5830SOL    HW219091   0.944   3.766   3.476 -0.2888  1.5076  0.8073
 5831SOL     OW19092   5.021   1.309   4.055  0.5916 -0.8174 -0.1493
 5831SOL    HW119093   4.984   1.236   4.112 -3.2229 -0.1297 -1.4562
 5831SOL    HW219094   5.044   1.388   4.112  0.1292 -1.3390  0.7818
 5832SOL     OW19095   1.626   5.712   5.375 -0.3431 -0.0159  0.0189
 5832SOL    HW119096   1.711   5.698   5.426  1.2216 -0.7167 -2.5874
 5832SOL    HW219097   1.599   5.626   5.331 -0.9679  0.7806 -1.2310
 5833SOL     OW19098   0.777   1.309   6.433  0.6436  0.4389  0.7425
 5833SOL    HW119099   0.812   1.375   6.367 -0.6126 -0.9802 -1.4339
 5833SOL    HW219100   0.821   1.325   6.522  2.6150  2.2166 -0.4589
 5834SOL     OW19101   4.347   6.718   0.612 -0.0505 -0.5564 -0.0236
 5834SOL    HW119102   4.283   6.671   0.551  0.3213 -0.7805 -0.2487
 5834SOL    HW219103   4.304   6.734   0.700 -0.6884  0.0116 -0.4305
 5835SOL     OW19104   4.922   6.745   0.973 -0.4680 -0.6375 -0.2002
 5835SOL    HW119105   4.974   6.682   1.030  0.0367 -2.3325 -2.3706
 5835SOL    HW219106   4.915   6.834   1.018  3.1233 -0.7207  0.8121
 5836SOL     OW19107   1.051   6.156   4.028  0.2422 -0.5002  0.1619
 5836SOL    HW119108   0.995   6.146   4.111 -0.9758  2.6746 -0.1347
 5836SOL    HW219109   1.004   6.113   3.951 -0.3658 -0.4481  0.4933
 5837SOL     OW19110   6.285   3.606   2.147  0.4367 -0.5570  0.0184
 5837SOL    HW119111   6.317   3.674   2.214 -0.9624 -0.3142  0.4802
 5837SOL    HW219112   6.245   3.653   2.069  1.5766 -0.8517 -0.7744
 5838SOL     OW19113   2.293   0.732   0.603  0.0582 -0.0368 -0.6142
 5838SOL    HW119114   2.244   0.654   0.566  2.0098 -1.6438  0.0062
 5838SOL    HW219115   2.322   0.792   0.528 -1.3838  0.0798 -1.1050
 5839SOL     OW19116   5.229   5.735   6.389  0.4283 -0.1317 -0.2244
 5839SOL    HW119117   5.228   5.647   6.438  0.3883  0.6147  1.1638
 5839SOL    HW219118   5.144   5.746   6.338 -0.5625  0.0598  1.3975
 5840SOL     OW19119   3.477   1.557   5.222  0.5433 -0.4145 -0.5214
 5840SOL    HW119120   3.576   1.551   5.234  0.6649  0.7274 -0.8441
 5840SOL    HW219121   3.451   1.651   5.198 -0.5966 -0.7369 -0.6470
 5841SOL     OW19122   6.015   5.243   6.562  0.4448  0.5750  0.3397
 5841SOL    HW119123   6.115   5.248   6.566  0.4704  0.8835 -0.6116
 5841SOL    HW219124   5.985   5.242   6.467 -0.5423  1.9197  0.6148
 5842SOL     OW19125   3.483   3.825   5.899 -0.3838  0.0043  0.1262
 5842SOL    HW119126   3.552   3.866   5.840 -1.4237  1.7021  0.0123
 5842SOL    HW219127   3.511   3.834   5.995 -0.2767  0.3556  0.0610
 5843SOL     OW19128   3.872   6.140   5.460  0.2036 -0.8150 -0.0554
 5843SOL    HW119129   3.900   6.234   5.479 -0.2766 -0.5201 -0.7333
 5843SOL    HW219130   3.925   6.105   5.382  0.2560 -1.0405  0.0821
 5844SOL     OW19131   1.348   1.684   4.063  0.3640 -0.9054  0.4470
 5844SOL    HW119132   1.272   1.656   4.121  0.8887 -0.2144  1.5056
 5844SOL    HW219133   1.341   1.638   3.975 -0.9807 -1.2487  0.7077
 5845SOL     OW19134   6.368   0.448   3.866 -0.3564 -0.0693  0.2234
 5845SOL    HW119135   6.339   0.461   3.771  2.4072  1.0966 -0.5537
 5845SOL    HW219136   6.354   0.533   3.917 -3.0223 -1.0563  1.2998
 5846SOL     OW19137   1.510   2.486   2.913 -0.3042 -0.0834  0.2916
 5846SOL    HW119138   1.545   2.578   2.895 -0.1596 -0.1720  0.1187
 5846SOL    HW219139   1.437   2.492   2.981 -1.1900  0.3171 -0.6582
 5847SOL     OW19140   4.596   0.902   4.124  0.0472  0.0071  0.3441
 5847SOL    HW119141   4.553   0.814   4.146  0.0009 -0.2362 -0.6917
 5847SOL    HW219142   4.674   0.886   4.064 -1.1757  0.8356 -1.5270
 5848SOL     OW19143   3.064   1.727   5.374  0.6208  0.5552 -0.3120
 5848SOL    HW119144   3.131   1.800   5.389  0.5892  0.2402  1.6918
 5848SOL    HW219145   3.052   1.675   5.459 -0.4065 -0.9034 -1.2995
 5849SOL     OW19146   2.091   0.354   0.210 -0.4661  0.1058 -0.1404
 5849SOL    HW119147   2.107   0.444   0.170 -2.8880  0.0507 -1.4034
 5849SOL    HW219148   1.994   0.332   0.204 -0.2926 -1.6425  2.2444
 5850SOL     OW19149   4.922   0.852   5.705 -0.2457  0.0960  0.2457
 5850SOL    HW119150   4.980   0.909   5.763  0.0537 -1.8232  1.9598
 5850SOL    HW219151   4.854   0.909   5.659  1.4067  2.0650  0.1559
 5851SOL     OW19152   4.388   0.033   5.095 -0.8492  0.3920 -0.0812
 5851SOL    HW119153   4.464   0.003   5.038 -0.6009 -1.3314  1.0551
 5851SOL    HW219154   4.354   0.121   5.063 -0.9561 -0.6460 -3.0707
 5852SOL     OW19155   3.338   5.215   5.170 -0.0556 -0.6702  0.0388
 5852SOL    HW119156   3.331   5.127   5.216  0.5337  0.3723  2.2043
 5852SOL    HW219157   3.281   5.283   5.217  0.3487  0.3855 -0.9269
 5853SOL     OW19158   0.063   6.348   6.948  0.2578  0.1065 -0.3793
 5853SOL    HW119159   0.070   6.435   6.899 -0.3119  0.4789  0.1857
 5853SOL    HW219160  -0.032   6.334   6.977  0.3531 -0.6918 -0.4398
 5854SOL     OW19161   5.474   5.911   2.967  0.8374 -0.1203 -0.2348
 5854SOL    HW119162   5.453   6.009   2.965 -1.6078 -0.5400  0.6283
 5854SOL    HW219163   5.426   5.865   2.891  0.2235 -0.8887  0.5902
 5855SOL     OW19164   5.864   5.454   2.995 -0.6947  0.0753 -0.2028
 5855SOL    HW119165   5.778   5.429   2.950  0.3794 -1.8593 -1.3511
 5855SOL    HW219166   5.857   5.435   3.093 -0.9903 -1.9897 -0.5683
 5856SOL     OW19167   0.313   6.667   5.385  0.2353 -0.3874 -0.1849
 5856SOL    HW119168   0.317   6.583   5.438  0.6827  0.2382  0.8160
 5856SOL    HW219169   0.230   6.718   5.409 -0.5462 -0.9842 -1.5143
 5857SOL     OW19170   4.470   0.255   5.553  0.1736  0.7550  0.0955
 5857SOL    HW119171   4.525   0.290   5.477 -0.9591 -0.3068 -1.2885
 5857SOL    HW219172   4.386   0.308   5.561  0.7841  1.5653  1.3667
 5858SOL     OW19173   0.142   2.678   1.352 -0.2565 -0.0414 -0.1365
 5858SOL    HW119174   0.218   2.676   1.417  0.8636  0.2073 -1.3944
 5858SOL    HW219175   0.142   2.765   1.303 -1.3323 -0.0610 -0.1941
 5859SOL     OW19176   0.455   0.902   5.197  0.2613 -0.3487  0.1545
 5859SOL    HW119177   0.472   0.806   5.174 -0.7544 -0.5898  0.3495
 5859SOL    HW219178   0.425   0.952   5.115  2.6993  0.3073 -0.4144
 5860SOL     OW19179   0.869   5.207   4.085 -0.6477 -0.2070 -0.0403
 5860SOL    HW119180   0.898   5.180   4.177  0.8735 -1.5450 -0.8667
 5860SOL    HW219181   0.948   5.207   4.024 -1.7588 -0.1104 -1.5171
 5861SOL     OW19182   2.651   3.151   5.813  0.2004 -0.2820  0.0126
 5861SOL    HW119183   2.594   3.107   5.745 -0.4667 -0.5060  0.7067
 5861SOL    HW219184   2.600   3.224   5.858  1.0818  0.7950 -0.6779
 5862SOL     OW19185   0.539   4.573   2.434 -0.1981  0.1432  0.4461
 5862SOL    HW119186   0.479   4.639   2.389 -0.7253  0.7758  2.0391
 5862SOL    HW219187   0.492   4.532   2.512  0.4056 -1.5498 -0.0256
 5863SOL     OW19188   5.811   0.742   1.945 -0.2898 -0.5903  0.4902
 5863SOL    HW119189   5.906   0.748   1.975  0.6683 -0.0968 -2.3224
 5863SOL    HW219190   5.764   0.828   1.963  0.2370 -0.3114  0.5290
 5864SOL     OW19191   1.119   2.562   4.270  0.7107 -0.0074  0.0006
 5864SOL    HW119192   1.123   2.629   4.195  0.2398  1.9249  1.6064
 5864SOL    HW219193   1.080   2.606   4.351  2.6302 -1.5630  1.8691
 5865SOL     OW19194   0.374   6.973   3.646 -0.2542  0.2789  0.2762
 5865SOL    HW119195   0.400   6.878   3.661  1.7648  1.0615  2.3783
 5865SOL    HW219196   0.307   7.001   3.715  1.6268  1.1880  1.8538
 5866SOL     OW19197   0.498   0.871   6.147 -0.2671 -0.0101 -0.3236
 5866SOL    HW119198   0.427   0.805   6.167 -1.3697  1.1921 -0.1145
 5866SOL    HW219199   0.572   0.862   6.213 -0.0030 -1.5449 -0.7909
 5867SOL     OW19200   5.079   0.618   2.988  0.2837 -0.4137 -0.3147
 5867SOL    HW119201   5.097   0.536   2.932 -1.1954 -0.8639 -0.1751
 5867SOL    HW219202   5.011   0.675   2.942 -1.3236 -1.0249  1.1870
 5868SOL     OW19203   5.047   1.723   1.334  0.1189 -0.1380  0.5355
 5868SOL    HW119204   5.031   1.685   1.243  1.0357 -0.9312  0.6839
 5868SOL    HW219205   5.067   1.648   1.398  0.7912  0.5040  1.0961
 5869SOL     OW19206   5.777   5.166   4.312  0.0190  0.3290  0.4092
 5869SOL    HW119207   5.875   5.173   4.333 -0.0237  0.5183  0.5464
 5869SOL    HW219208   5.761   5.085   4.256  0.3897  0.7897 -0.3840
 5870SOL     OW19209   5.906   0.114   4.119  0.5689 -0.1670  0.8854
 5870SOL    HW119210   5.892   0.093   4.022  1.4753 -1.5382  1.0174
 5870SOL    HW219211   5.981   0.058   4.154  0.7670  0.8737  2.2000
 5871SOL     OW19212   3.828   5.765   5.002  0.9783 -0.2591 -0.3883
 5871SOL    HW119213   3.770   5.767   4.921  0.8467  0.0343 -0.2859
 5871SOL    HW219214   3.890   5.844   5.002  0.3959  0.2066  0.2214
 5872SOL     OW19215   2.919   4.979   2.458  0.4296  0.4298 -0.3471
 5872SOL    HW119216   2.832   4.946   2.421 -0.7414  2.6367  0.2766
 5872SOL    HW219217   2.915   5.078   2.472  2.4818  0.3742  1.2264
 5873SOL     OW19218   6.612   4.645   6.159 -0.6208  0.3448  0.6081
 5873SOL    HW119219   6.577   4.719   6.103  0.2492  1.2219  1.1879
 5873SOL    HW219220   6.574   4.558   6.127 -0.0660  0.7935 -1.3991
 5874SOL     OW19221   4.343   1.289   3.965 -0.4917  0.5104 -0.3035
 5874SOL    HW119222   4.254   1.325   3.937 -1.1733 -2.0026 -1.6830
 5874SOL    HW219223   4.351   1.292   4.064 -2.1339  0.7574 -0.1552
 5875SOL     OW19224   6.753   0.643   4.898 -0.3909 -0.0205  0.2105
 5875SOL    HW119225   6.693   0.580   4.948  0.1839 -0.1926  0.6952
 5875SOL    HW219226   6.804   0.700   4.963  0.8995 -0.7404 -0.1272
 5876SOL     OW19227   2.581   2.905   3.567  0.2118  0.2742  0.2591
 5876SOL    HW119228   2.655   2.853   3.610 -0.4750 -0.0288  1.0954
 5876SOL    HW219229   2.609   2.931   3.475  1.2798 -0.0129  0.4843
 5877SOL     OW19230   4.107   1.351   2.055  0.2896 -0.8155  0.2935
 5877SOL    HW119231   4.045   1.351   1.977 -2.4662  0.2483  2.2907
 5877SOL    HW219232   4.201   1.343   2.023 -0.6367  0.1280 -3.1328
 5878SOL     OW19233   3.368   2.457   0.376 -0.1756 -0.2360 -0.0969
 5878SOL    HW119234   3.357   2.450   0.475  0.2164 -3.3873 -0.1666
 5878SOL    HW219235   3.319   2.382   0.332  0.8704  0.2469 -2.1953
 5879SOL     OW19236   3.182   6.187   2.882 -0.1278 -0.2558  0.1581
 5879SOL    HW119237   3.260   6.138   2.920  1.3721 -0.3001 -2.6991
 5879SOL    HW219238   3.136   6.131   2.813 -0.6509  0.9573 -0.5300
 5880SOL     OW19239   4.695   6.000   4.147  0.5187  0.2179  0.0512
 5880SOL    HW119240   4.648   6.055   4.216  1.8692 -0.6486  1.7407
 5880SOL    HW219241   4.792   6.025   4.145  0.6667 -0.3715 -0.9536
 5881SOL     OW19242   4.710   3.923   3.081  0.0544 -0.0972  0.6099
 5881SOL    HW119243   4.768   3.857   3.034 -0.1795 -0.1229  0.3539
 5881SOL    HW219244   4.763   4.004   3.105 -0.1513  0.5478 -1.0194
 5882SOL     OW19245   2.187   2.540   4.536  0.1129 -0.1873  0.0295
 5882SOL    HW119246   2.173   2.467   4.603  2.6172  0.2224  1.0902
 5882SOL    HW219247   2.163   2.628   4.577  0.6276 -0.0412  0.0143
 5883SOL     OW19248   6.627   1.374   0.194  0.3827  0.6569  0.2132
 5883SOL    HW119249   6.577   1.287   0.197 -1.3872  1.6284  0.4856
 5883SOL    HW219250   6.655   1.399   0.287  0.3036  0.6905  0.2286
 5884SOL     OW19251   5.526   3.309   0.857 -0.5623 -0.2652 -0.1268
 5884SOL    HW119252   5.624   3.319   0.873 -0.2215 -0.4382 -1.9240
 5884SOL    HW219253   5.493   3.385   0.802 -1.2630 -0.6540 -0.2536
 5885SOL     OW19254   0.427   2.128   5.187 -0.6028 -0.3271  0.3037
 5885SOL    HW119255   0.474   2.103   5.102  1.2907  1.2022  0.8232
 5885SOL    HW219256   0.455   2.067   5.261 -0.1963 -0.0231  0.4008
 5886SOL     OW19257   1.453   6.845   6.732  0.3262  0.6768  0.4309
 5886SOL    HW119258   1.438   6.899   6.650 -1.4070  1.4187  1.1939
 5886SOL    HW219259   1.549   6.816   6.736  0.4610  0.6769 -1.7859
 5887SOL     OW19260   3.882   0.310   4.883 -0.0092 -0.0310 -0.2502
 5887SOL    HW119261   3.968   0.269   4.854  0.8276  0.9451  0.7915
 5887SOL    HW219262   3.898   0.374   4.958 -1.6892 -0.1280  0.2471
 5888SOL     OW19263   1.623   4.831   2.964 -0.4280  0.1810 -0.2738
 5888SOL    HW119264   1.683   4.910   2.957 -0.9463  0.8392  1.8779
 5888SOL    HW219265   1.667   4.751   2.923  1.7035  0.7421  0.8203
 5889SOL     OW19266   5.367   1.459   0.971  0.0023 -0.0503 -0.0293
 5889SOL    HW119267   5.402   1.548   0.944 -0.5705  0.0891 -0.3410
 5889SOL    HW219268   5.374   1.395   0.895  1.1362 -0.4985  0.4383
 5890SOL     OW19269   6.513   4.911   0.264  0.7090 -0.7449  0.0995
 5890SOL    HW119270   6.509   5.009   0.247  1.5260 -0.4984  1.2585
 5890SOL    HW219271   6.587   4.870   0.210  1.5044 -0.4196  0.9197
 5891SOL     OW19272   1.556   5.264   1.396  0.0825  0.2712  0.3597
 5891SOL    HW119273   1.458   5.260   1.377  0.0475 -0.6431  0.6869
 5891SOL    HW219274   1.583   5.359   1.412 -0.9404  0.4336  1.2367
 5892SOL     OW19275   6.143   4.151   2.217  0.1336 -0.1116 -0.0946
 5892SOL    HW119276   6.238   4.174   2.194  0.1469 -0.2683 -0.2010
 5892SOL    HW219277   6.087   4.233   2.212  0.0474 -0.2136 -1.1241
 5893SOL     OW19278   6.815   1.722   2.214 -0.3515 -0.4950  0.3325
 5893SOL    HW119279   6.799   1.808   2.165 -0.7217 -0.5823  0.3010
 5893SOL    HW219280   6.913   1.714   2.235 -0.2036 -0.4185 -0.3202
 5894SOL     OW19281   6.504   3.924   5.181 -0.1485 -0.1402  0.1607
 5894SOL    HW119282   6.590   3.947   5.135  0.4539 -0.5514  1.0557
 5894SOL    HW219283   6.447   4.006   5.189 -0.7982 -0.2793 -2.3596
 5895SOL     OW19284   4.301   5.041   1.177 -0.2839 -1.1685  0.5951
 5895SOL    HW119285   4.373   5.074   1.239  0.5969  1.8695 -1.8183
 5895SOL    HW219286   4.213   5.079   1.206  0.5082  2.5907 -1.3036
 5896SOL     OW19287   4.632   3.537   1.074 -0.2721  0.5493 -0.5636
 5896SOL    HW119288   4.675   3.511   1.160  0.9122 -0.2698 -1.3687
 5896SOL    HW219289   4.533   3.528   1.082 -0.0766 -1.7400  0.0457
 5897SOL     OW19290   5.649   3.419   6.673  0.4011  0.0252  0.1249
 5897SOL    HW119291   5.709   3.339   6.671  0.5166  0.0875  0.6651
 5897SOL    HW219292   5.698   3.496   6.714  0.5416  0.5935 -1.0860
 5898SOL     OW19293   6.270   1.902   4.704 -0.1895  0.1225  0.3407
 5898SOL    HW119294   6.282   1.993   4.665  1.3879  0.2027  0.9622
 5898SOL    HW219295   6.331   1.838   4.658 -1.5981 -0.7535 -0.4006
 5899SOL     OW19296   1.541   2.396   1.344  0.6508 -0.2785 -0.0621
 5899SOL    HW119297   1.513   2.409   1.439 -0.2532 -1.6212 -0.1143
 5899SOL    HW219298   1.546   2.485   1.298 -0.2303  0.2803  0.8795
 5900SOL     OW19299   0.279   3.510   5.048 -0.3001  0.4048 -0.1240
 5900SOL    HW119300   0.342   3.588   5.043  0.9256 -0.6268 -1.3238
 5900SOL    HW219301   0.316   3.441   5.111 -0.8417  0.2993  0.0872
 5901SOL     OW19302   6.026   1.263   3.162 -0.4011 -0.2890 -0.1793
 5901SOL    HW119303   5.999   1.178   3.118  0.0648 -0.5006 -0.0674
 5901SOL    HW219304   6.050   1.246   3.257 -0.4515 -0.0093 -0.1151
 5902SOL     OW19305   5.182   4.005   0.002  0.0737 -0.0767 -0.0548
 5902SOL    HW119306   5.173   3.917   0.048 -0.7589  0.2693  0.4701
 5902SOL    HW219307   5.279   4.029  -0.006  0.2534 -0.2080  1.4251
 5903SOL     OW19308   6.569   1.902   4.904  0.0986 -0.4942 -0.4996
 5903SOL    HW119309   6.633   1.970   4.868  0.2073  0.6589  1.7196
 5903SOL    HW219310   6.528   1.936   4.989 -1.2032 -2.4851 -0.2590
 5904SOL     OW19311   7.000   1.767   1.964 -0.1098 -0.3642 -0.3554
 5904SOL    HW119312   7.026   1.715   2.045 -2.5991 -0.8216  0.2262
 5904SOL    HW219313   6.993   1.864   1.987 -1.9956 -0.6338  0.3550
 5905SOL     OW19314   2.734   5.631   5.562  0.2235  0.1007 -0.1779
 5905SOL    HW119315   2.709   5.544   5.519 -0.7950 -0.0027  0.5784
 5905SOL    HW219316   2.719   5.705   5.496 -0.6162 -0.1241 -0.2497
 5906SOL     OW19317   3.339   0.759   4.595 -0.1505 -0.2252  0.2208
 5906SOL    HW119318   3.300   0.735   4.507  0.0395  1.7143 -0.4379
 5906SOL    HW219319   3.399   0.685   4.627  0.3885 -0.6266 -1.6366
 5907SOL     OW19320   6.436   3.187   3.746 -0.2680  0.0518  0.0640
 5907SOL    HW119321   6.525   3.215   3.782 -0.0169 -0.0307 -0.4745
 5907SOL    HW219322   6.366   3.203   3.814  0.2642 -0.5493  0.7631
 5908SOL     OW19323   4.678   5.889   4.460  0.2516  0.4304 -0.0488
 5908SOL    HW119324   4.668   5.903   4.558 -0.1165  0.9563 -0.1579
 5908SOL    HW219325   4.606   5.829   4.427  0.6510 -0.1287  0.0760
 5909SOL     OW19326   4.598   2.281   6.576  0.1828 -0.0255  0.1059
 5909SOL    HW119327   4.674   2.216   6.587  0.7376  0.3120 -1.5486
 5909SOL    HW219328   4.634   2.372   6.558 -0.6155  0.3522  0.3617
 5910SOL     OW19329   5.093   0.550   3.266  0.7529  1.1833 -0.5450
 5910SOL    HW119330   5.062   0.559   3.171  1.5746 -1.3401 -1.1358
 5910SOL    HW219331   5.013   0.545   3.326  0.0874 -0.3259 -1.4884
 5911SOL     OW19332   5.914   2.091   3.247  0.2260 -0.3071  0.4569
 5911SOL    HW119333   5.910   2.183   3.209 -0.2251 -0.4294  0.1893
 5911SOL    HW219334   5.835   2.039   3.214  1.4462 -1.3746 -0.9613
 5912SOL     OW19335   2.532   4.895   0.882  0.0120  0.4036  0.6730
 5912SOL    HW119336   2.462   4.962   0.857 -0.1734  0.2862  0.8728
 5912SOL    HW219337   2.497   4.836   0.955  1.1814  1.8594  2.4833
 5913SOL     OW19338   1.782   2.616   5.929 -0.7128  0.1508  0.1493
 5913SOL    HW119339   1.748   2.602   5.835 -1.9382  0.4188  0.5341
 5913SOL    HW219340   1.708   2.652   5.986  0.5354  1.7971  0.7916
 5914SOL     OW19341   2.343   5.604   5.205  0.1992  0.6195 -0.1172
 5914SOL    HW119342   2.438   5.587   5.178  1.0705  2.2923  1.6503
 5914SOL    HW219343   2.333   5.585   5.303 -1.8591 -1.4992 -0.6457
 5915SOL     OW19344   2.575   0.832   2.847 -0.4577  0.0777 -0.3939
 5915SOL    HW119345   2.593   0.884   2.931  2.0936 -0.9693 -0.1932
 5915SOL    HW219346   2.493   0.777   2.859 -0.6548  0.6468  1.0820
 5916SOL     OW19347   5.216   0.357   4.602  0.3357 -0.2432  0.5422
 5916SOL    HW119348   5.275   0.437   4.612 -1.1523  0.8579  0.8064
 5916SOL    HW219349   5.173   0.335   4.690  1.4224 -1.9312  0.7039
 5917SOL     OW19350   0.873   4.927   5.944  0.0907 -0.3280 -0.2665
 5917SOL    HW119351   0.874   4.866   5.865  1.8096 -0.1374 -0.4353
 5917SOL    HW219352   0.888   5.021   5.914  0.2924 -0.1919  0.2427
 5918SOL     OW19353   1.216   0.790   0.201 -0.0032  0.4962  0.0308
 5918SOL    HW119354   1.138   0.731   0.223 -0.7608  1.4407 -0.0779
 5918SOL    HW219355   1.206   0.827   0.109  1.0058 -0.0240 -0.3097
 5919SOL     OW19356   1.259   0.148   5.874 -0.5715 -0.5556 -0.0882
 5919SOL    HW119357   1.235   0.074   5.811 -2.6327 -1.9158  2.1069
 5919SOL    HW219358   1.177   0.199   5.899 -0.1913 -1.1023  2.6456
 5920SOL     OW19359   4.407   0.189   4.562  0.1674 -0.2273 -0.1187
 5920SOL    HW119360   4.403   0.091   4.546  0.2263 -0.3208  0.4215
 5920SOL    HW219361   4.318   0.230   4.543  0.2321 -0.3282 -0.6707
 5921SOL     OW19362   4.087   2.796   0.567 -0.1364 -0.7377  0.0673
 5921SOL    HW119363   3.996   2.800   0.608 -0.6013 -0.4938 -0.9594
 5921SOL    HW219364   4.080   2.767   0.472  0.7598  0.2462 -0.3207
 5922SOL     OW19365   3.059   1.927   5.999 -0.1077  0.5235  0.2594
 5922SOL    HW119366   3.092   1.996   5.935 -0.4221 -0.2210 -0.7343
 5922SOL    HW219367   3.135   1.892   6.053  0.2571  0.7689 -0.0936
 5923SOL     OW19368   6.813   0.862   2.282  0.0860  0.1488 -0.4577
 5923SOL    HW119369   6.840   0.871   2.377 -0.0351 -0.2043 -0.3881
 5923SOL    HW219370   6.723   0.820   2.276 -0.0540  0.4779 -0.7192
 5924SOL     OW19371   0.319   4.458   4.776  0.0581 -0.3812 -0.3903
 5924SOL    HW119372   0.264   4.377   4.756 -0.7859  0.3454 -1.1036
 5924SOL    HW219373   0.274   4.513   4.847 -2.0612  1.9572 -3.2658
 5925SOL     OW19374   0.935   0.467   2.467 -1.0822 -0.2228 -0.3552
 5925SOL    HW119375   0.915   0.493   2.562 -0.2739 -0.7624 -0.0261
 5925SOL    HW219376   0.953   0.550   2.413  2.0406 -0.0226  0.8041
 5926SOL     OW19377   6.362   1.968   3.439 -0.3740  0.7224  0.0670
 5926SOL    HW119378   6.452   1.982   3.397 -0.4443  1.0435  0.0204
 5926SOL    HW219379   6.355   2.026   3.521 -0.8374  1.3016 -0.3722
 5927SOL     OW19380   5.709   2.919   2.735 -0.6718 -0.5996 -0.0685
 5927SOL    HW119381   5.682   2.973   2.814 -1.6078 -1.0750 -0.0457
 5927SOL    HW219382   5.629   2.902   2.677  0.0479 -0.0302 -1.2680
 5928SOL     OW19383   5.856   0.443   5.698 -0.3491 -0.0175  0.2014
 5928SOL    HW119384   5.818   0.528   5.734 -0.4236  0.1533 -0.2642
 5928SOL    HW219385   5.799   0.410   5.622  0.3188  0.1459 -0.3901
 5929SOL     OW19386   1.239   5.918   1.191  0.5414 -0.0585  0.3154
 5929SOL    HW119387   1.192   5.882   1.111  0.1612 -1.1107  1.0009
 5929SOL    HW219388   1.206   6.010   1.211 -1.4132 -0.8411  0.9003
 5930SOL     OW19389   1.721   4.580   5.773  0.5885 -0.3229 -0.1498
 5930SOL    HW119390   1.632   4.585   5.817  0.8263  0.3164  0.2749
 5930SOL    HW219391   1.721   4.506   5.707 -0.0597 -0.7314  0.2917
 5931SOL     OW19392   1.329   5.738   3.369 -0.5856  0.0230 -0.2718
 5931SOL    HW119393   1.355   5.677   3.294  1.7001 -0.5317  0.8826
 5931SOL    HW219394   1.360   5.831   3.349 -1.4605  0.2237 -0.7300
 5932SOL     OW19395   3.350   1.792   1.587  0.2821 -0.3712 -0.6173
 5932SOL    HW119396   3.386   1.698   1.588  0.8469 -0.1798  1.2281
 5932SOL    HW219397   3.424   1.856   1.609 -0.5586  0.2921  0.3917
 5933SOL     OW19398   5.438   4.073   0.086  0.0783  0.3418 -0.1147
 5933SOL    HW119399   5.408   4.129   0.009 -1.2295  1.1001  0.8917
 5933SOL    HW219400   5.528   4.103   0.117  0.9214 -0.4120 -1.7299
 5934SOL     OW19401   2.838   0.029   0.043 -0.0008  0.4306  0.4610
 5934SOL    HW119402   2.819  -0.033  -0.032  0.0333  0.5487  0.3548
 5934SOL    HW219403   2.916  -0.005   0.096  0.1380  0.4827  0.2909
 5935SOL     OW19404   0.677   2.900   5.799 -0.3465  0.7271  0.0727
 5935SOL    HW119405   0.706   2.853   5.882  0.6210  1.9315  0.4463
 5935SOL    HW219406   0.732   2.982   5.787  0.1888  0.0934 -2.2778
 5936SOL     OW19407   3.343   3.584   3.595 -0.3449  0.0230  0.2346
 5936SOL    HW119408   3.399   3.629   3.664  1.6209 -0.2402 -1.1171
 5936SOL    HW219409   3.328   3.646   3.518  0.1024 -0.7017 -0.4530
 5937SOL     OW19410   2.343   3.155   0.863 -0.5742 -0.1497  0.5638
 5937SOL    HW119411   2.244   3.167   0.853 -0.4820 -0.3363 -0.8692
 5937SOL    HW219412   2.387   3.171   0.774  0.7283  0.3666  1.2842
 5938SOL     OW19413   6.204   1.770   3.934 -0.0393 -0.3348  0.7558
 5938SOL    HW119414   6.294   1.805   3.907 -0.5423  1.6225  1.4519
 5938SOL    HW219415   6.215   1.690   3.993  1.1472 -2.0463 -1.6254
 5939SOL     OW19416   3.199   5.633   3.462  0.1135 -0.4777  0.2155
 5939SOL    HW119417   3.113   5.585   3.476 -0.1259 -0.2395 -0.3836
 5939SOL    HW219418   3.269   5.596   3.523 -0.1837 -1.2641  0.0845
 5940SOL     OW19419   3.452   4.639   5.380 -0.1386 -0.5809  0.0441
 5940SOL    HW119420   3.450   4.575   5.303 -1.2460 -0.8840  0.3025
 5940SOL    HW219421   3.359   4.652   5.415 -0.1528  2.0830 -0.7360
 5941SOL     OW19422   4.241   5.169   0.163  0.0745  0.2986 -0.0175
 5941SOL    HW119423   4.204   5.076   0.170 -0.7230  0.6729  0.8214
 5941SOL    HW219424   4.202   5.214   0.082  0.8949 -0.2662 -0.7566
 5942SOL     OW19425   6.321   0.415   4.598  0.1716  0.2564  0.5752
 5942SOL    HW119426   6.356   0.370   4.517 -1.8785  1.6753 -1.2097
 5942SOL    HW219427   6.360   0.507   4.606 -1.1309  0.8977 -0.0240
 5943SOL     OW19428   0.438   6.690   5.733 -0.6076 -0.4484  0.0057
 5943SOL    HW119429   0.354   6.644   5.761 -0.1679 -0.3368  1.6075
 5943SOL    HW219430   0.516   6.630   5.751 -0.0403  0.7861  1.9625
 5944SOL     OW19431   5.922   3.829   1.243 -0.1259 -0.4660 -0.3647
 5944SOL    HW119432   5.833   3.869   1.224 -0.3435 -0.5262  0.5190
 5944SOL    HW219433   5.936   3.823   1.341  0.9100 -0.3367 -0.4949
 5945SOL     OW19434   3.369   6.143   0.982  0.1687  0.1009 -0.2111
 5945SOL    HW119435   3.456   6.176   1.020  0.2351 -0.9723  0.5975
 5945SOL    HW219436   3.373   6.147   0.882  0.5753  1.4791 -0.1616
 5946SOL     OW19437   0.676   3.512   4.590  0.2677  0.3774  0.3401
 5946SOL    HW119438   0.620   3.519   4.508  0.0377 -1.2217  0.3302
 5946SOL    HW219439   0.751   3.449   4.573 -0.1789 -0.5096  1.5605
 5947SOL     OW19440   6.934   1.659   0.681 -0.5378 -0.1829 -0.2326
 5947SOL    HW119441   6.961   1.564   0.697 -1.7054 -0.3318  0.9907
 5947SOL    HW219442   6.993   1.699   0.611  1.4024 -1.1516  0.7610
 5948SOL     OW19443   5.840   4.646   0.481 -0.4741 -0.5833 -0.3039
 5948SOL    HW119444   5.742   4.657   0.497 -0.2976  0.2261  0.2852
 5948SOL    HW219445   5.884   4.735   0.481  0.2944 -0.9528 -0.3915
 5949SOL     OW19446   4.575   6.409   1.107  0.6249  0.5773 -0.1195
 5949SOL    HW119447   4.585   6.351   1.027 -0.2789  0.2014  0.0255
 5949SOL    HW219448   4.559   6.503   1.079  2.2453  0.8071 -0.3554
 5950SOL     OW19449   4.278   2.333   1.374  0.0167 -0.8456 -0.6894
 5950SOL    HW119450   4.266   2.283   1.460  1.0665  0.2220  0.1172
 5950SOL    HW219451   4.208   2.305   1.309 -0.3417 -2.2294  0.2535
 5951SOL     OW19452   5.400   4.849   3.618  0.3887 -0.0751  0.1375
 5951SOL    HW119453   5.345   4.930   3.641  1.9815  1.1953 -0.3348
 5951SOL    HW219454   5.386   4.778   3.686 -0.9076  0.6617  0.6737
 5952SOL     OW19455   1.419   4.447   1.620  0.2904  0.6664 -0.7505
 5952SOL    HW119456   1.459   4.527   1.664 -0.1097  0.1806  0.5483
 5952SOL    HW219457   1.465   4.430   1.533  2.5111  0.4587  0.3955
 5953SOL     OW19458   6.318   0.544   0.792  0.0049 -0.1478  0.0784
 5953SOL    HW119459   6.396   0.499   0.836  1.3255  0.5682 -1.4160
 5953SOL    HW219460   6.349   0.628   0.746 -1.9163  0.9333  0.6119
 5954SOL     OW19461   1.867   3.367   1.306 -0.2226  0.4432 -0.1088
 5954SOL    HW119462   1.849   3.374   1.404 -0.9848  0.4152 -0.2422
 5954SOL    HW219463   1.840   3.451   1.261  1.8188  1.1824 -0.0692
 5955SOL     OW19464   0.573   1.187   4.611 -0.2569 -0.4990  0.3097
 5955SOL    HW119465   0.571   1.281   4.576  0.4119 -0.9068 -0.8893
 5955SOL    HW219466   0.480   1.154   4.624 -0.7164 -1.1519 -3.5264
 5956SOL     OW19467   5.563   5.051   6.934 -0.2077 -0.0196  0.1186
 5956SOL    HW119468   5.481   5.030   6.986 -1.6439  0.3595 -1.8590
 5956SOL    HW219469   5.612   4.966   6.913 -0.0386 -0.2414  1.3649
 5957SOL     OW19470   3.052   6.048   2.709  0.1938  0.2285  0.2708
 5957SOL    HW119471   2.962   6.070   2.671  0.4548  1.3474  0.2630
 5957SOL    HW219472   3.109   6.006   2.638 -0.7443 -1.7651  0.6339
 5958SOL     OW19473   1.019   6.362   5.603 -0.5029  0.0173 -0.1400
 5958SOL    HW119474   1.012   6.420   5.684  2.1574 -2.4241  2.0848
 5958SOL    HW219475   1.080   6.286   5.622 -0.1383 -1.0181 -4.3727
 5959SOL     OW19476   6.984   1.847   6.063  0.0919  0.6981  0.6390
 5959SOL    HW119477   7.079   1.871   6.080  0.0471  1.7452 -0.4023
 5959SOL    HW219478   6.936   1.834   6.150  1.4994 -1.2999  1.1838
 5960SOL     OW19479   6.952   2.393   3.552  0.4197  0.0127 -0.3442
 5960SOL    HW119480   7.018   2.318   3.542  1.9584  1.3796 -0.9565
 5960SOL    HW219481   6.997   2.479   3.529 -0.8939  1.3161  1.7425
 5961SOL     OW19482   3.338   0.120   5.628 -0.5959  0.1741 -0.0172
 5961SOL    HW119483   3.343   0.185   5.704  0.9277 -1.8347  1.7517
 5961SOL    HW219484   3.258   0.061   5.640 -0.1755 -0.3540  0.2365
 5962SOL     OW19485   3.327   6.998   1.161  0.0864  0.5266  0.0597
 5962SOL    HW119486   3.322   6.907   1.201 -2.7249  0.8138  0.6007
 5962SOL    HW219487   3.412   7.043   1.189  0.6337 -1.2091  1.3254
 5963SOL     OW19488   4.116   6.104   3.210 -0.5316  0.1577  0.0454
 5963SOL    HW119489   4.083   6.184   3.161 -1.6499  0.1648  0.7913
 5963SOL    HW219490   4.145   6.130   3.302  0.4882 -0.0554 -0.1969
 5964SOL     OW19491   5.420   1.748   5.144 -0.3929 -0.3972 -0.2812
 5964SOL    HW119492   5.350   1.678   5.158  0.9302 -1.7909 -0.3080
 5964SOL    HW219493   5.484   1.746   5.220  0.1424  0.2058 -0.7109
 5965SOL     OW19494   5.044   1.237   2.010  0.3905 -0.4831  0.1924
 5965SOL    HW119495   5.124   1.274   1.963  0.6768  0.0125  1.0533
 5965SOL    HW219496   5.049   1.137   2.011  1.1032 -0.4442  0.4321
 5966SOL     OW19497   1.686   5.435   3.418 -0.1364  0.2512 -0.4679
 5966SOL    HW119498   1.689   5.534   3.429 -1.4451  0.2677 -0.0804
 5966SOL    HW219499   1.609   5.398   3.469  0.4239 -0.9955 -0.4826
 5967SOL     OW19500   6.843   0.218   0.291 -0.3804  0.5324 -0.1901
 5967SOL    HW119501   6.754   0.180   0.265 -1.4706  2.3523  0.7256
 5967SOL    HW219502   6.852   0.217   0.390  1.3497 -1.1255 -0.3132
 5968SOL     OW19503   5.604   1.238   1.296  0.1837  0.1270 -0.0766
 5968SOL    HW119504   5.527   1.302   1.299 -0.4577 -0.5729 -0.9035
 5968SOL    HW219505   5.640   1.223   1.388  0.0102  1.2647  0.1866
 5969SOL     OW19506   2.115   6.378   2.113  0.2692 -0.5839 -0.3775
 5969SOL    HW119507   2.149   6.293   2.074 -0.1271 -0.5562 -0.7911
 5969SOL    HW219508   2.016   6.382   2.103  0.3586  0.2700 -1.0462
 5970SOL     OW19509   4.829   3.559   3.816 -0.2559 -0.3591 -0.0519
 5970SOL    HW119510   4.860   3.639   3.869 -0.0346  0.4862 -1.4028
 5970SOL    HW219511   4.901   3.490   3.815  0.0930  0.0004 -0.0132
 5971SOL     OW19512   4.191   3.488   1.043 -0.1935 -0.0872  0.2372
 5971SOL    HW119513   4.135   3.407   1.023  0.7727 -0.4449 -1.2456
 5971SOL    HW219514   4.172   3.559   0.974 -0.4302  0.6410  1.0416
 5972SOL     OW19515   0.026   2.836   0.724 -0.1553  0.0267 -0.1444
 5972SOL    HW119516  -0.052   2.798   0.772  0.2876 -0.1541  0.4394
 5972SOL    HW219517   0.018   2.936   0.721  0.6593  0.1950  1.8478
 5973SOL     OW19518   1.521   6.355   1.987 -0.2358 -0.3132 -0.0937
 5973SOL    HW119519   1.571   6.364   2.073 -0.9772 -1.5360  0.5036
 5973SOL    HW219520   1.472   6.268   1.986 -0.3007 -0.2939 -1.7401
 5974SOL     OW19521   2.173   4.501   6.427  0.0886  0.4520  0.0641
 5974SOL    HW119522   2.167   4.600   6.430  1.2497  0.5126  1.4976
 5974SOL    HW219523   2.134   4.463   6.511 -1.2397 -0.3904 -0.8901
 5975SOL     OW19524   6.910   1.711   5.055  0.1521 -0.1658 -0.4220
 5975SOL    HW119525   6.968   1.749   4.983  1.2755 -1.5466 -0.3046
 5975SOL    HW219526   6.858   1.633   5.018 -0.0601 -0.2217 -0.0069
 5976SOL     OW19527   1.482   4.626   2.275  0.1679  0.0338  0.1553
 5976SOL    HW119528   1.499   4.543   2.327 -0.0519  0.3328  0.7158
 5976SOL    HW219529   1.396   4.616   2.224  1.7933 -1.3949 -2.5224
 5977SOL     OW19530   6.341   2.227   1.662  0.0117  0.4473  0.1776
 5977SOL    HW119531   6.274   2.164   1.623  0.5821 -0.2637  0.3249
 5977SOL    HW219532   6.317   2.246   1.757 -0.8000  1.3690 -0.1920
 5978SOL     OW19533   4.857   6.370   1.117 -0.2050  0.4459 -0.2628
 5978SOL    HW119534   4.759   6.385   1.114 -0.2949 -0.2295 -1.1170
 5978SOL    HW219535   4.876   6.277   1.145  0.0438 -0.4927 -3.1571
 5979SOL     OW19536   1.896   6.267   1.156  0.8032  0.0273 -0.4714
 5979SOL    HW119537   1.830   6.194   1.141  0.8810 -0.3878  0.9862
 5979SOL    HW219538   1.854   6.355   1.137  0.2339 -0.3114 -0.7938
 5980SOL     OW19539   4.161   6.833   4.684  0.3807 -0.1777 -0.4509
 5980SOL    HW119540   4.256   6.809   4.666  0.6902 -1.0627  1.9439
 5980SOL    HW219541   4.150   6.857   4.781 -1.0723  3.9164 -1.4125
 5981SOL     OW19542   0.464   4.017   4.631  0.0001 -0.3800 -0.0226
 5981SOL    HW119543   0.425   4.016   4.539 -1.1315  0.9171  0.4211
 5981SOL    HW219544   0.463   4.110   4.668  3.4803 -0.2555  0.0725
 5982SOL     OW19545   3.817   0.854   3.118 -0.4005  0.1392  0.3025
 5982SOL    HW119546   3.779   0.788   3.183  0.0930 -0.2208  0.2280
 5982SOL    HW219547   3.743   0.888   3.059 -0.9114  0.7155  1.2446
 5983SOL     OW19548   4.319   5.885   0.589  0.2646  0.2403  0.2327
 5983SOL    HW119549   4.396   5.822   0.586  0.8615  0.9751 -0.3090
 5983SOL    HW219550   4.353   5.979   0.596 -0.5919  0.5527  0.3404
 5984SOL     OW19551   6.911   5.410   3.893 -0.3523 -0.1408  0.4168
 5984SOL    HW119552   6.828   5.460   3.919 -0.8001 -0.5087 -0.2491
 5984SOL    HW219553   6.946   5.360   3.972 -0.3254  0.6162  0.8990
 5985SOL     OW19554   3.170   0.663   3.822  0.5256 -0.5996 -0.3929
 5985SOL    HW119555   3.120   0.589   3.867 -1.3373  0.3273 -0.8511
 5985SOL    HW219556   3.167   0.745   3.879 -0.4590  0.1137 -1.4222
 5986SOL     OW19557   6.644   5.698   0.540 -0.1343 -0.1375  0.4876
 5986SOL    HW119558   6.564   5.708   0.599  0.4536  0.0394  1.2828
 5986SOL    HW219559   6.716   5.648   0.590 -0.4573 -2.1246 -0.8989
 5987SOL     OW19560   4.450   6.443   0.506 -0.1238 -0.2050 -0.2745
 5987SOL    HW119561   4.479   6.377   0.438 -1.1280 -0.1017 -0.8214
 5987SOL    HW219562   4.502   6.528   0.494  1.0405 -0.8167  0.3178
 5988SOL     OW19563   3.592   6.847   5.835 -0.4153  0.3706 -0.6255
 5988SOL    HW119564   3.677   6.895   5.857 -0.6786  0.5092  0.1112
 5988SOL    HW219565   3.612   6.770   5.774  0.3436 -0.0084  0.0858
 5989SOL     OW19566   6.353   0.212   1.585 -0.3989  0.1470  0.2977
 5989SOL    HW119567   6.320   0.145   1.518  0.4395  1.0574 -1.0936
 5989SOL    HW219568   6.403   0.165   1.657  0.1416 -0.7518 -0.6240
 5990SOL     OW19569   5.815   4.668   4.895 -0.4338  0.0444  0.6807
 5990SOL    HW119570   5.913   4.680   4.906 -0.2203  0.5240 -1.3677
 5990SOL    HW219571   5.783   4.598   4.959  1.2283 -0.1552  1.3520
 5991SOL     OW19572   0.579   5.150   6.798 -0.3474  0.3359  0.0539
 5991SOL    HW119573   0.518   5.230   6.796 -1.4541 -0.4790  0.4417
 5991SOL    HW219574   0.560   5.096   6.880 -0.1098 -0.7261 -0.5782
 5992SOL     OW19575   0.581   1.577   2.772 -0.4150  0.1990 -0.3910
 5992SOL    HW119576   0.641   1.655   2.790  0.2702 -0.1779 -0.9489
 5992SOL    HW219577   0.537   1.589   2.683 -0.7515  0.2204 -0.2219
 5993SOL     OW19578   1.872   4.240   3.229  0.5436 -0.3197  0.2854
 5993SOL    HW119579   1.965   4.211   3.251  1.0860  0.2277 -1.1238
 5993SOL    HW219580   1.870   4.339   3.214 -0.0451 -0.4496 -0.6367
 5994SOL     OW19581   1.295   1.710   0.746  0.2084 -0.0481 -0.1467
 5994SOL    HW119582   1.394   1.712   0.755  0.4098  0.5527 -2.0546
 5994SOL    HW219583   1.260   1.623   0.781  1.3419 -0.0923  0.9362
 5995SOL     OW19584   6.981   6.856   1.455 -0.0130 -0.1811  0.4673
 5995SOL    HW119585   7.057   6.892   1.509 -0.2966  1.0236  0.0904
 5995SOL    HW219586   6.985   6.893   1.362 -0.3484 -1.1024  0.0729
 5996SOL     OW19587   5.829   1.704   5.771  0.1650 -0.2093 -0.4479
 5996SOL    HW119588   5.796   1.791   5.733  0.2148  0.8919  1.8726
 5996SOL    HW219589   5.928   1.701   5.765  0.0776 -1.1504 -2.5179
 5997SOL     OW19590   0.435   1.877   6.703  0.3590 -0.3139  0.1319
 5997SOL    HW119591   0.407   1.951   6.764 -1.0147 -0.3695 -0.3944
 5997SOL    HW219592   0.404   1.790   6.740  1.5825 -0.5969  0.5230
 5998SOL     OW19593   5.875   3.327   1.933  0.0677 -0.2045 -0.2183
 5998SOL    HW119594   5.903   3.380   1.852  2.4805  0.2809  0.8610
 5998SOL    HW219595   5.798   3.373   1.976 -1.1680 -0.3767 -2.1062
 5999SOL     OW19596   1.763   6.891   3.031 -0.5966  0.2210  0.5346
 5999SOL    HW119597   1.758   6.989   3.014 -0.0671 -0.1542 -2.2670
 5999SOL    HW219598   1.688   6.845   2.983  0.7605 -0.9576 -0.5375
 6000SOL     OW19599   5.240   0.836   6.422 -0.1071  0.3642  0.2251
 6000SOL    HW119600   5.242   0.742   6.390 -0.4879  0.6658 -0.7469
 6000SOL    HW219601   5.177   0.889   6.365 -1.2205  0.8303  1.8171
 6001SOL     OW19602   1.147   4.681   1.004  0.4044 -0.2729 -0.1410
 6001SOL    HW119603   1.051   4.707   1.015  0.5372 -0.6253  2.4497
 6001SOL    HW219604   1.199   4.759   0.971 -0.3337  0.7788  1.0848
 6002SOL     OW19605   1.223   5.285   4.378  0.1033 -0.0966  0.4603
 6002SOL    HW119606   1.296   5.225   4.411  1.3778  1.8430  1.3689
 6002SOL    HW219607   1.171   5.320   4.456  0.0940  0.8200  0.0551
 6003SOL     OW19608   6.836   6.193   6.088 -0.1983  0.0159  0.9161
 6003SOL    HW119609   6.930   6.184   6.053 -0.6052 -2.1407  0.2529
 6003SOL    HW219610   6.796   6.277   6.053  0.9464  0.1657 -0.1305
 6004SOL     OW19611   0.294   1.378   3.439 -0.0655  0.0269  0.5637
 6004SOL    HW119612   0.260   1.471   3.430 -0.1715 -0.0028  0.6518
 6004SOL    HW219613   0.317   1.342   3.348  1.1252  0.5618  0.6417
 6005SOL     OW19614   5.846   6.871   5.266  0.2740 -0.3340  0.3083
 6005SOL    HW119615   5.932   6.824   5.286  1.4805  0.8727 -1.6260
 6005SOL    HW219616   5.772   6.804   5.257  1.1773 -1.4781  1.1221
 6006SOL     OW19617   1.378   3.051   0.352 -0.1703 -0.0208 -0.5279
 6006SOL    HW119618   1.416   3.048   0.259  1.4105  0.6809  0.0729
 6006SOL    HW219619   1.394   2.964   0.398 -1.7385 -0.6943 -1.1692
 6007SOL     OW19620   4.336   2.919   4.782 -0.0946  0.5200 -0.3605
 6007SOL    HW119621   4.361   3.008   4.819 -1.5293  1.5929 -1.8057
 6007SOL    HW219622   4.413   2.882   4.729  1.4372 -0.3677  2.3009
 6008SOL     OW19623   1.617   0.309   5.186  0.4597  0.0045  0.3895
 6008SOL    HW119624   1.558   0.384   5.156  0.0109 -1.1339 -1.7489
 6008SOL    HW219625   1.626   0.312   5.286 -0.2003  2.3827  0.4525
 6009SOL     OW19626   3.951   6.415   4.425 -0.0198 -0.2594  0.2117
 6009SOL    HW119627   4.006   6.496   4.448 -0.3075 -0.6181  2.3338
 6009SOL    HW219628   3.971   6.387   4.331  0.8145  1.6814 -0.2402
 6010SOL     OW19629   3.880   4.849   6.210  0.1151 -0.0852 -0.9884
 6010SOL    HW119630   3.893   4.937   6.255 -2.1145  0.4887 -1.3730
 6010SOL    HW219631   3.963   4.824   6.161  0.0697  2.9227 -2.8066
 6011SOL     OW19632   0.703   1.214   0.289 -0.4172 -0.4981 -0.6978
 6011SOL    HW119633   0.791   1.236   0.246 -0.5408  0.3182 -0.5547
 6011SOL    HW219634   0.636   1.190   0.219 -0.1750 -0.7825 -0.8326
 6012SOL     OW19635   0.213   1.778   4.948 -0.3496 -0.2199  0.1235
 6012SOL    HW119636   0.275   1.799   4.872 -0.3253 -0.5929  0.0390
 6012SOL    HW219637   0.202   1.859   5.006 -0.1589 -0.0135 -0.1293
 6013SOL     OW19638   0.494   5.005   6.319 -0.4075  0.4732  0.8432
 6013SOL    HW119639   0.412   4.950   6.337  0.0215 -0.3708  0.3150
 6013SOL    HW219640   0.571   4.968   6.372  0.2837 -0.5056 -0.7737
 6014SOL     OW19641   3.722   5.768   3.746 -0.1379  0.5609 -0.6547
 6014SOL    HW119642   3.727   5.709   3.665  1.8402 -0.4293  0.1303
 6014SOL    HW219643   3.684   5.715   3.822 -0.9758  1.1671 -0.6399
 6015SOL     OW19644   4.109   1.750   3.867  0.4565 -0.1819 -0.2414
 6015SOL    HW119645   4.069   1.780   3.781  1.4705 -0.4018 -0.8112
 6015SOL    HW219646   4.063   1.666   3.898 -0.1976  0.1405 -0.3412
 6016SOL     OW19647   3.530   2.926   6.009 -0.1504  0.3363 -0.1039
 6016SOL    HW119648   3.532   3.023   5.985 -0.7854  0.3216 -0.2406
 6016SOL    HW219649   3.459   2.879   5.956 -0.2102 -0.0955  0.3387
 6017SOL     OW19650   3.771   6.033   4.598  0.1852 -0.2980  0.3858
 6017SOL    HW119651   3.679   6.026   4.561 -0.1336  1.6518  0.7041
 6017SOL    HW219652   3.768   6.080   4.686  1.5397  0.3339  0.1227
 6018SOL     OW19653   6.270   6.211   5.523  0.2069  0.1490 -0.0879
 6018SOL    HW119654   6.226   6.263   5.450  1.4944 -0.8070 -1.6067
 6018SOL    HW219655   6.216   6.129   5.542 -0.1631  0.4304  0.0918
 6019SOL     OW19656   3.665   0.429   5.820 -0.6163 -0.5608  0.3914
 6019SOL    HW119657   3.722   0.379   5.885 -0.1523 -0.6787 -0.1043
 6019SOL    HW219658   3.709   0.430   5.730 -1.5846 -0.9831 -0.0937
 6020SOL     OW19659   5.225   2.240   3.545  0.1583 -0.5259 -0.6385
 6020SOL    HW119660   5.131   2.208   3.530  0.8432 -1.7833 -2.6480
 6020SOL    HW219661   5.283   2.206   3.471  1.9312  1.4142 -0.2004
 6021SOL     OW19662   2.879   1.106   0.448  0.1681  0.6433  0.4988
 6021SOL    HW119663   2.921   1.182   0.496  2.2119 -0.2086  0.1658
 6021SOL    HW219664   2.920   1.097   0.357 -0.4528 -0.4757  0.3057
 6022SOL     OW19665   1.951   6.455   5.707 -0.1292  0.4696  0.1857
 6022SOL    HW119666   1.923   6.363   5.734  2.4836 -0.1744  0.9958
 6022SOL    HW219667   1.924   6.472   5.612  0.2987 -1.5720 -0.3488
 6023SOL     OW19668   1.059   3.321   6.337  0.1072 -0.8204  0.1630
 6023SOL    HW119669   1.051   3.245   6.272 -1.6351  0.1142 -0.7817
 6023SOL    HW219670   1.123   3.389   6.302  1.3681 -1.6300  0.8246
 6024SOL     OW19671   6.006   4.766   4.199  0.3913 -0.1374  0.2972
 6024SOL    HW119672   5.987   4.732   4.107  1.8590 -0.3083  0.0350
 6024SOL    HW219673   6.088   4.822   4.198 -0.6972  1.5567  1.1653
 6025SOL     OW19674   0.584   6.786   5.281  0.2782  0.5144  0.4007
 6025SOL    HW119675   0.596   6.793   5.380 -0.7904 -0.4700  0.6314
 6025SOL    HW219676   0.567   6.876   5.242  1.4341  1.0051  0.9995
 6026SOL     OW19677   6.565   1.319   2.040 -0.0769  0.0311  0.3568
 6026SOL    HW119678   6.489   1.383   2.048  0.4397  0.7329 -0.3013
 6026SOL    HW219679   6.641   1.362   1.991  1.3567 -0.1104  2.3259
 6027SOL     OW19680   0.537   5.923   4.546 -0.3843 -0.4866 -0.1084
 6027SOL    HW119681   0.603   5.871   4.601 -0.3521 -0.0381  0.2878
 6027SOL    HW219682   0.580   6.007   4.514 -0.7137 -0.2682  0.0200
 6028SOL     OW19683   6.543   0.402   0.863 -0.1023  0.5646 -0.2061
 6028SOL    HW119684   6.488   0.352   0.931  0.8541  1.8605  1.5918
 6028SOL    HW219685   6.585   0.337   0.800 -0.0073 -0.8106  1.2162
 6029SOL     OW19686   6.145   3.136   5.099 -0.1055 -0.1754 -0.0172
 6029SOL    HW119687   6.142   3.047   5.052  1.7353  0.0520 -0.6776
 6029SOL    HW219688   6.179   3.124   5.192 -1.0795 -0.3021  0.3268
 6030SOL     OW19689   2.898   5.713   4.670  0.2365 -0.0448 -0.0848
 6030SOL    HW119690   2.816   5.667   4.637 -1.1190  1.8405  0.4854
 6030SOL    HW219691   2.958   5.734   4.593 -0.3849 -0.3657 -0.6711
 6031SOL     OW19692   5.438   1.092   5.369  0.4250 -0.2847  0.4155
 6031SOL    HW119693   5.409   1.076   5.275  1.0906 -0.5424  0.2474
 6031SOL    HW219694   5.427   1.188   5.392  1.6217  0.0726 -0.4143
 6032SOL     OW19695   6.432   5.243   4.429  0.4912  0.3001 -0.1067
 6032SOL    HW119696   6.474   5.196   4.352  1.7801  0.7392  0.3024
 6032SOL    HW219697   6.378   5.179   4.483 -0.5167  0.0059 -1.4060
 6033SOL     OW19698   6.935   5.780   0.692  0.0948 -0.0499  0.0299
 6033SOL    HW119699   6.928   5.827   0.779 -2.2078 -0.7394  0.2808
 6033SOL    HW219700   6.880   5.697   0.694  0.2832 -0.2851 -1.9674
 6034SOL     OW19701   6.548   5.674   6.020 -0.2213  0.5395  0.3435
 6034SOL    HW119702   6.626   5.737   6.014 -0.3179  0.6319  0.0495
 6034SOL    HW219703   6.468   5.725   6.052 -0.3709  0.6315 -0.1670
 6035SOL     OW19704   5.158   4.377   4.597  0.1237 -0.0473  0.0753
 6035SOL    HW119705   5.253   4.401   4.579  0.0135  0.5857  0.3070
 6035SOL    HW219706   5.154   4.297   4.657  0.5056 -0.2982 -0.2326
 6036SOL     OW19707   3.133   0.330   0.464 -0.1322  0.1968  0.4964
 6036SOL    HW119708   3.222   0.284   0.470  0.0663  0.6944  1.5698
 6036SOL    HW219709   3.061   0.262   0.473  0.1260 -0.2313 -0.5332
 6037SOL     OW19710   4.161   6.872   0.182  0.2362  0.1401  0.9244
 6037SOL    HW119711   4.087   6.934   0.211 -0.9513 -0.1433 -1.2892
 6037SOL    HW219712   4.170   6.798   0.248 -2.8768 -0.9221  0.3465
 6038SOL     OW19713   5.819   3.256   5.908  0.4736  0.4422  0.5157
 6038SOL    HW119714   5.918   3.270   5.904  0.3667  1.4544  1.1646
 6038SOL    HW219715   5.772   3.340   5.880 -0.2551 -0.9244 -2.8304
 6039SOL     OW19716   6.388   1.492   0.864  0.5035 -0.7479  0.0137
 6039SOL    HW119717   6.455   1.566   0.861 -0.3649  0.0119 -2.0793
 6039SOL    HW219718   6.433   1.409   0.899  2.4305 -0.1536 -0.8923
 6040SOL     OW19719   6.615   0.676   0.157  0.0579  0.5592  0.5056
 6040SOL    HW119720   6.604   0.690   0.256  0.2083 -2.2709  1.0072
 6040SOL    HW219721   6.710   0.653   0.137 -0.2476 -0.2350 -0.0823
 6041SOL     OW19722   1.432   3.712   4.798  0.0808 -1.0817  0.0161
 6041SOL    HW119723   1.485   3.785   4.755  1.0910 -1.6812  0.2396
 6041SOL    HW219724   1.344   3.750   4.829  0.5538  0.0231  0.0577
 6042SOL     OW19725   3.384   1.768   0.750  0.0437  0.5462 -0.0933
 6042SOL    HW119726   3.390   1.679   0.796 -0.1028  1.3176  1.5046
 6042SOL    HW219727   3.426   1.762   0.660 -0.0575 -1.1625 -0.0516
 6043SOL     OW19728   6.668   3.836   4.938 -0.6974  0.2529 -0.4306
 6043SOL    HW119729   6.637   3.928   4.913  1.0214  0.0690 -3.7624
 6043SOL    HW219730   6.596   3.770   4.917  0.2718  0.2436 -4.4604
 6044SOL     OW19731   0.493   5.381   5.571  0.4578 -0.0340 -0.2139
 6044SOL    HW119732   0.516   5.311   5.639  0.6917  0.9202  0.7145
 6044SOL    HW219733   0.414   5.433   5.602  1.6754  1.6179  0.2638
 6045SOL     OW19734   2.928   5.872   0.120  0.2324 -0.4948 -0.2755
 6045SOL    HW119735   2.900   5.781   0.090 -2.6216  0.0004  0.6187
 6045SOL    HW219736   2.982   5.865   0.204 -0.7218 -1.3430  0.2874
 6046SOL     OW19737   6.639   3.772   5.770 -0.2702  0.4990 -0.3504
 6046SOL    HW119738   6.562   3.772   5.834 -0.7667 -1.2826 -0.8983
 6046SOL    HW219739   6.620   3.834   5.694 -0.3486  1.4562  0.4354
 6047SOL     OW19740   1.032   1.077   2.143 -0.1375  1.3444  0.3834
 6047SOL    HW119741   1.020   1.125   2.056  0.0823  1.5950  0.4900
 6047SOL    HW219742   0.976   0.993   2.143  1.0392  0.5340 -0.6036
 6048SOL     OW19743   2.913   4.448   6.333  0.1788 -0.1030 -0.3583
 6048SOL    HW119744   2.839   4.513   6.351 -0.2511 -0.6425 -0.1358
 6048SOL    HW219745   2.957   4.470   6.246 -0.7637 -0.2500 -0.8862
 6049SOL     OW19746   0.074   6.811   3.575  0.1763  0.0501  0.2766
 6049SOL    HW119747   0.128   6.729   3.592 -0.8785 -0.4817  1.2503
 6049SOL    HW219748   0.077   6.871   3.656 -0.8682 -0.1139  0.4548
 6050SOL     OW19749   2.559   0.815   5.141  0.5449 -0.3260  0.5025
 6050SOL    HW119750   2.586   0.849   5.231 -1.9599 -1.0402  1.6368
 6050SOL    HW219751   2.464   0.785   5.145 -0.3164  1.4509 -2.9212
 6051SOL     OW19752   1.890   3.410   2.114  0.6300 -0.0414 -0.0095
 6051SOL    HW119753   1.929   3.318   2.121  1.1865  0.2751  1.3457
 6051SOL    HW219754   1.818   3.422   2.182  0.8547  0.6486  0.1197
 6052SOL     OW19755   2.022   5.506   2.242 -0.0098 -0.4626  0.0588
 6052SOL    HW119756   2.026   5.582   2.307  1.8406 -0.3759 -0.1116
 6052SOL    HW219757   2.014   5.541   2.149  0.9626 -0.4577 -0.0291
 6053SOL     OW19758   0.445   2.587   1.989  0.3084  0.0137  0.0669
 6053SOL    HW119759   0.358   2.636   1.978  1.5240  2.3502  0.1185
 6053SOL    HW219760   0.507   2.614   1.916  1.0485 -1.5457  0.0950
 6054SOL     OW19761   2.755   5.809   4.390  0.3048 -0.1033 -0.2301
 6054SOL    HW119762   2.704   5.747   4.449  0.8874  1.4345  2.0282
 6054SOL    HW219763   2.731   5.792   4.295 -1.8382 -1.6812  0.5199
 6055SOL     OW19764   6.709   5.960   5.234  0.4347  0.0537 -0.4467
 6055SOL    HW119765   6.747   5.909   5.156  0.3247  0.3144 -0.6736
 6055SOL    HW219766   6.663   6.042   5.200  0.6376  0.3210 -0.0798
 6056SOL     OW19767   4.897   5.095   6.514  0.8196 -0.7261  0.3918
 6056SOL    HW119768   4.954   5.040   6.453 -0.0755 -1.9046  0.5787
 6056SOL    HW219769   4.924   5.191   6.507  0.4941 -0.7580 -2.1379
 6057SOL     OW19770   5.534   2.887   6.317  0.5861  0.1285  0.0009
 6057SOL    HW119771   5.477   2.832   6.378  0.3321  0.4346  0.0438
 6057SOL    HW219772   5.507   2.983   6.324 -1.2585 -0.1207 -2.5532
 6058SOL     OW19773   5.340   6.426   0.626 -0.0281 -0.0053  0.6255
 6058SOL    HW119774   5.386   6.436   0.537  0.2267  1.0707  0.8578
 6058SOL    HW219775   5.252   6.474   0.623 -0.1008 -0.1190  0.9025
 6059SOL     OW19776   3.056   1.455   5.980 -0.0056 -0.3157  0.4647
 6059SOL    HW119777   3.128   1.457   5.910  0.8264 -2.9413  1.1156
 6059SOL    HW219778   3.000   1.538   5.973  2.0754  1.0554 -1.1044
 6060SOL     OW19779   0.935   2.061   1.811  0.0415 -0.2429  0.0335
 6060SOL    HW119780   0.971   1.988   1.753 -0.7937  0.0153 -0.8346
 6060SOL    HW219781   0.836   2.066   1.800  0.1048  1.1263 -0.0396
 6061SOL     OW19782   5.868   4.358   5.825 -0.1706  0.3301 -0.8583
 6061SOL    HW119783   5.771   4.336   5.835 -0.6674  2.8763  0.8100
 6061SOL    HW219784   5.922   4.293   5.878 -0.8026 -1.7271 -2.5928
 6062SOL     OW19785   4.058   6.424   2.512  0.6117 -0.5481  0.1679
 6062SOL    HW119786   3.969   6.382   2.527  0.3812  0.2824  1.1805
 6062SOL    HW219787   4.102   6.443   2.599 -0.0626  2.9181 -0.1051
 6063SOL     OW19788   6.714   0.570   0.966  0.0922  0.6837  0.3492
 6063SOL    HW119789   6.707   0.515   1.050  1.1207  1.4728  0.9893
 6063SOL    HW219790   6.649   0.537   0.899  0.5519 -1.2254  0.7645
 6064SOL     OW19791   3.964   0.955   3.775  0.0865 -0.1423 -0.1864
 6064SOL    HW119792   4.059   0.924   3.774  0.2206  0.2248  0.6376
 6064SOL    HW219793   3.914   0.910   3.700  1.0716  0.2081 -1.0796
 6065SOL     OW19794   3.342   0.696   5.685 -0.0819  0.1275  0.2739
 6065SOL    HW119795   3.258   0.750   5.682 -0.6085 -0.7044 -0.3793
 6065SOL    HW219796   3.321   0.601   5.662  0.7499 -0.4647  1.8351
 6066SOL     OW19797   2.022   6.273   0.632  0.1438 -0.0853  0.2896
 6066SOL    HW119798   1.951   6.328   0.589  0.8716 -0.0484 -0.9064
 6066SOL    HW219799   2.079   6.331   0.691 -0.4502 -0.0052  0.7882
 6067SOL     OW19800   3.288   0.558   2.659 -0.2177  0.1223  0.5031
 6067SOL    HW119801   3.379   0.582   2.693  0.0395  0.3269 -0.3212
 6067SOL    HW219802   3.247   0.638   2.615 -0.4782 -0.1884  0.1788
 6068SOL     OW19803   0.712   0.447   5.904 -0.1724  0.6357 -0.3917
 6068SOL    HW119804   0.734   0.501   5.985 -0.3873  1.9441 -1.1722
 6068SOL    HW219805   0.648   0.499   5.846 -0.4331 -0.4904 -1.1381
 6069SOL     OW19806   2.754   1.674   1.197  0.3648 -0.1648  0.1679
 6069SOL    HW119807   2.763   1.611   1.119  0.1698 -0.7860  0.6345
 6069SOL    HW219808   2.656   1.689   1.215  0.3800 -1.1000  1.1283
 6070SOL     OW19809   1.230   0.576   2.623 -0.4121  0.7084  0.1691
 6070SOL    HW119810   1.250   0.479   2.609  2.4333  1.2679 -0.2806
 6070SOL    HW219811   1.153   0.586   2.685 -0.4723 -1.8251  0.5947
 6071SOL     OW19812   0.735   0.844   3.621  0.0828  0.1387 -0.4142
 6071SOL    HW119813   0.688   0.766   3.662  1.0549 -0.4966 -0.4583
 6071SOL    HW219814   0.695   0.864   3.532 -0.7078  0.2156 -0.0455
 6072SOL     OW19815   2.184   1.462   4.140 -0.0174 -0.7204  0.2298
 6072SOL    HW119816   2.185   1.562   4.142 -1.0361 -0.5905 -2.2746
 6072SOL    HW219817   2.266   1.427   4.185  2.1621  1.3521 -1.8679
 6073SOL     OW19818   5.041   3.709   6.376  0.1745  0.1572 -0.3445
 6073SOL    HW119819   5.107   3.774   6.340  1.1450 -0.7484 -0.2346
 6073SOL    HW219820   5.049   3.707   6.476  1.5355 -1.5440 -0.4567
 6074SOL     OW19821   2.664   3.193   5.140  0.6126  0.6484 -0.3607
 6074SOL    HW119822   2.591   3.256   5.163 -0.2593 -0.1962 -0.7203
 6074SOL    HW219823   2.747   3.244   5.119  0.3315  1.5928  0.7195
 6075SOL     OW19824   1.989   5.253   5.951  0.1196  0.4385  0.1141
 6075SOL    HW119825   1.914   5.305   5.991  1.9219  3.2522  0.1030
 6075SOL    HW219826   2.067   5.253   6.013  1.6109  1.4806 -1.6460
 6076SOL     OW19827   0.728   2.366   6.201 -0.0183 -0.2219 -0.1751
 6076SOL    HW119828   0.670   2.333   6.127  0.4106 -1.2416 -0.0672
 6076SOL    HW219829   0.817   2.393   6.164 -0.0142 -0.1541 -0.1167
 6077SOL     OW19830   4.178   0.442   5.803 -0.6257 -0.1370 -0.0870
 6077SOL    HW119831   4.243   0.502   5.757 -0.9200  0.5178  0.3302
 6077SOL    HW219832   4.165   0.359   5.749  0.2828 -0.1234 -0.3480
 6078SOL     OW19833   5.868   1.009   0.917 -0.3934  0.3880 -0.3087
 6078SOL    HW119834   5.856   0.961   0.829  0.0997 -0.6150  0.1586
 6078SOL    HW219835   5.920   1.093   0.902  2.9061 -1.4966 -0.5496
 6079SOL     OW19836   1.143   1.797   6.877  0.6228 -0.0414  0.2087
 6079SOL    HW119837   1.101   1.878   6.918  1.9245  1.1640 -0.7261
 6079SOL    HW219838   1.212   1.760   6.939  0.6914  0.1410  0.2419
 6080SOL     OW19839   3.265   2.078   1.119 -0.2803  0.1377 -0.0406
 6080SOL    HW119840   3.361   2.050   1.116 -0.6677 -1.2379  0.0433
 6080SOL    HW219841   3.220   2.050   1.034 -0.9605 -0.5613  0.5456
 6081SOL     OW19842   3.485   1.467   3.304  0.3493  0.0663  0.4998
 6081SOL    HW119843   3.549   1.420   3.244  1.7987  3.1749 -0.5487
 6081SOL    HW219844   3.533   1.499   3.385 -0.4965  0.2303  0.9476
 6082SOL     OW19845   0.798   4.519   5.321  0.1554  0.2470  0.5156
 6082SOL    HW119846   0.856   4.577   5.263 -0.7470 -0.6675 -1.4001
 6082SOL    HW219847   0.726   4.478   5.265 -1.0518 -0.3463  2.4155
 6083SOL     OW19848   3.695   0.212   3.853  0.3051  0.3498 -0.4013
 6083SOL    HW119849   3.732   0.127   3.817  1.8988  0.7288  0.2486
 6083SOL    HW219850   3.683   0.203   3.952 -2.7162 -0.2176 -0.7146
 6084SOL     OW19851   6.254   0.092   0.670 -0.3683  0.5261 -0.0942
 6084SOL    HW119852   6.236   0.150   0.749 -1.9235  0.6870 -0.5396
 6084SOL    HW219853   6.252   0.147   0.587  0.7271  0.2661 -0.3110
 6085SOL     OW19854   5.688   3.741   4.573 -0.6217  0.1937  0.8927
 6085SOL    HW119855   5.650   3.766   4.662 -2.1930 -0.2224  0.3717
 6085SOL    HW219856   5.716   3.645   4.574 -1.3356 -0.0218  0.7285
 6086SOL     OW19857   0.227   5.602   2.008  0.0398 -0.0102 -0.0121
 6086SOL    HW119858   0.243   5.527   1.944 -2.1487  0.4413 -1.1870
 6086SOL    HW219859   0.148   5.655   1.978  1.4919  2.8032  0.7478
 6087SOL     OW19860   0.600   1.651   6.963  0.8724  0.4595 -0.1673
 6087SOL    HW119861   0.671   1.619   7.025  0.5497  0.9934  0.4857
 6087SOL    HW219862   0.607   1.601   6.876  1.6641  0.0912  0.0971
 6088SOL     OW19863   2.318   2.979   1.853 -0.4916 -0.0869 -0.5888
 6088SOL    HW119864   2.395   2.916   1.852 -0.9472 -0.6677 -0.1502
 6088SOL    HW219865   2.290   3.000   1.760 -1.6899 -2.2472 -0.7824
 6089SOL     OW19866   1.621   3.811   3.573 -0.3699 -0.3304 -0.4138
 6089SOL    HW119867   1.662   3.725   3.542 -0.0327 -1.3865  2.6919
 6089SOL    HW219868   1.522   3.800   3.581 -0.2033 -0.8766  1.1538
 6090SOL     OW19869   6.833   4.202   1.564  0.6636  0.6176  0.1172
 6090SOL    HW119870   6.849   4.229   1.469 -0.3570  1.5875  0.1993
 6090SOL    HW219871   6.838   4.103   1.572  2.6220  0.6120 -0.5811
 6091SOL     OW19872   3.133   1.808   0.342 -0.5685  0.5285  0.1174
 6091SOL    HW119873   3.159   1.904   0.341  0.2076  0.3153 -0.1464
 6091SOL    HW219874   3.037   1.800   0.313  0.7511  0.8031 -5.2233
 6092SOL     OW19875   0.745   4.446   1.703  0.3372  0.5461 -0.3543
 6092SOL    HW119876   0.740   4.426   1.605 -0.7831 -0.9760 -0.0187
 6092SOL    HW219877   0.655   4.437   1.744  0.8545  0.8045  0.8880
 6093SOL     OW19878   3.249   3.306   1.247 -0.4190 -0.9478 -0.0360
 6093SOL    HW119879   3.261   3.207   1.242 -2.7939 -1.2574 -0.6789
 6093SOL    HW219880   3.235   3.343   1.155  0.7696  0.0710  0.1622
 6094SOL     OW19881   0.296   2.736   0.954 -0.2993 -0.3569 -0.1573
 6094SOL    HW119882   0.292   2.708   0.859  0.6497  0.9931 -0.6262
 6094SOL    HW219883   0.375   2.694   0.999  0.1913  0.2537 -0.4256
 6095SOL     OW19884   7.007   2.799   5.542 -0.0970 -0.0748 -1.0695
 6095SOL    HW119885   6.951   2.866   5.494 -1.4686  1.1275  1.9141
 6095SOL    HW219886   7.098   2.838   5.560 -0.2683  0.2736 -0.9428
 6096SOL     OW19887   6.389   6.526   6.544 -0.9314  0.6494 -0.2929
 6096SOL    HW119888   6.447   6.592   6.592  0.3392 -0.0611 -0.8092
 6096SOL    HW219889   6.358   6.566   6.457 -1.7776  1.2737  0.2821
 6097SOL     OW19890   2.230   2.067   3.121  0.1199  0.1019  0.2618
 6097SOL    HW119891   2.314   2.120   3.118  0.0404  0.2039 -0.2154
 6097SOL    HW219892   2.218   2.029   3.213  1.6390 -1.4353 -0.1059
 6098SOL     OW19893   0.855   6.152   3.597 -0.7054 -0.5227 -0.2643
 6098SOL    HW119894   0.803   6.086   3.651 -2.7072  0.6881 -0.6404
 6098SOL    HW219895   0.794   6.222   3.560  0.9919  0.1961 -1.9050
 6099SOL     OW19896   0.496   3.561   0.964 -0.0679  0.2337  0.3371
 6099SOL    HW119897   0.590   3.596   0.962  0.0724 -0.0363  1.5131
 6099SOL    HW219898   0.485   3.498   1.042 -1.0602 -0.2062 -0.1378
 6100SOL     OW19899   5.287   4.430   4.328 -0.0849 -0.1841 -0.2492
 6100SOL    HW119900   5.380   4.394   4.330  0.3437  0.8427 -0.9587
 6100SOL    HW219901   5.282   4.513   4.382 -1.6054 -2.3788  3.3128
 6101SOL     OW19902   1.101   0.107   2.841  0.5088 -0.3099  0.4871
 6101SOL    HW119903   1.126   0.128   2.746  0.4212  0.8293  0.7050
 6101SOL    HW219904   1.074   0.010   2.848 -2.4441  0.2418 -1.3066
 6102SOL     OW19905   2.011   5.931   3.688 -0.1414 -0.6546 -0.4589
 6102SOL    HW119906   1.988   6.024   3.658  0.3089 -0.2306  0.4396
 6102SOL    HW219907   2.056   5.882   3.614  0.8048  0.3015 -0.5512
 6103SOL     OW19908   5.427   5.446   2.690 -0.0231  0.2000 -0.6692
 6103SOL    HW119909   5.406   5.499   2.773  0.3604  1.0737 -1.1179
 6103SOL    HW219910   5.342   5.411   2.651 -0.3628  1.0835 -0.7497
 6104SOL     OW19911   0.759   5.598   0.083  0.1525 -0.2985 -0.7092
 6104SOL    HW119912   0.742   5.555   0.171 -1.6821  2.8795  0.6774
 6104SOL    HW219913   0.676   5.596   0.027 -0.3980  2.1926 -0.1279
 6105SOL     OW19914   1.068   0.436   0.293  0.2915 -0.1219  0.5348
 6105SOL    HW119915   1.120   0.433   0.208 -1.2666 -0.7058 -0.4316
 6105SOL    HW219916   1.000   0.510   0.288 -1.9290 -2.0806 -0.0705
 6106SOL     OW19917   3.211   5.708   4.199 -0.3525  0.3136  0.0510
 6106SOL    HW119918   3.193   5.807   4.205 -0.3946  0.2926  0.3189
 6106SOL    HW219919   3.167   5.671   4.118  0.9608  0.7832 -0.9020
 6107SOL     OW19920   2.669   5.339   4.080 -0.2928  0.1398  0.6374
 6107SOL    HW119921   2.737   5.272   4.111 -1.0492 -0.7125  0.5021
 6107SOL    HW219922   2.596   5.347   4.148 -0.1530  0.9169  0.7028
 6108SOL     OW19923   0.252   4.674   6.984 -0.6202  0.3066 -0.0255
 6108SOL    HW119924   0.308   4.652   7.064  1.2224  0.6244 -1.1743
 6108SOL    HW219925   0.161   4.634   6.995 -0.0884 -0.5145  1.7547
 6109SOL     OW19926   4.126   0.290   1.846 -0.3684  0.1680 -0.1369
 6109SOL    HW119927   4.190   0.297   1.770 -1.8039  0.5488 -1.3390
 6109SOL    HW219928   4.114   0.194   1.871 -0.6278 -0.0336 -1.0327
 6110SOL     OW19929   0.008   4.905   1.585  0.1870 -0.4748 -0.0243
 6110SOL    HW119930   0.068   4.872   1.512  2.3159 -0.7911  1.7912
 6110SOL    HW219931   0.014   4.844   1.664 -0.9216  0.6556  0.9779
 6111SOL     OW19932   2.413   3.787   3.050  0.5892  0.3627  0.1367
 6111SOL    HW119933   2.410   3.718   2.978  3.6272  2.1976 -1.9772
 6111SOL    HW219934   2.486   3.763   3.115  0.6327  0.8060  0.2518
 6112SOL     OW19935   6.876   5.407   3.378 -0.2115  0.0952  0.3471
 6112SOL    HW119936   6.890   5.473   3.453 -1.1767 -0.4315  1.0175
 6112SOL    HW219937   6.824   5.329   3.412 -0.1596 -0.4330 -0.7478
 6113SOL     OW19938   4.530   5.822   6.611 -0.0781 -0.4695 -0.0706
 6113SOL    HW119939   4.489   5.895   6.556  2.4183 -0.1521 -1.6461
 6113SOL    HW219940   4.520   5.844   6.708  0.2494  1.7893 -0.4950
 6114SOL     OW19941   0.777   4.716   6.904  0.4442 -0.7338  0.5299
 6114SOL    HW119942   0.764   4.631   6.956 -0.5939 -2.0891 -1.8030
 6114SOL    HW219943   0.706   4.725   6.835  2.2341  0.5164 -1.2860
 6115SOL     OW19944   1.548   4.114   1.542 -0.2383  0.2591 -0.1660
 6115SOL    HW119945   1.453   4.143   1.554 -0.3413 -0.2123  0.1993
 6115SOL    HW219946   1.559   4.022   1.578  0.4043  0.3859 -0.0267
 6116SOL     OW19947   1.548   5.888   5.836 -0.3467  0.8387  0.3195
 6116SOL    HW119948   1.515   5.979   5.862  0.0216  1.3341 -0.9052
 6116SOL    HW219949   1.642   5.877   5.868 -0.0186  1.3069 -0.4748
 6117SOL     OW19950   3.821   5.133   6.247 -0.4098 -0.5039 -0.2440
 6117SOL    HW119951   3.885   5.163   6.176  0.0160 -1.5818 -0.3468
 6117SOL    HW219952   3.751   5.203   6.262  0.3247  0.3470 -0.7082
 6118SOL     OW19953   1.459   2.772   6.357  0.6821 -0.1106 -0.0622
 6118SOL    HW119954   1.403   2.846   6.394  0.6605  0.0697 -0.4491
 6118SOL    HW219955   1.400   2.696   6.330  0.5129  0.4379 -1.3227
 6119SOL     OW19956   0.249   3.121   6.741  0.2409  0.1147  0.9253
 6119SOL    HW119957   0.205   3.031   6.754  0.7520 -0.2267  0.3347
 6119SOL    HW219958   0.348   3.111   6.748  0.3447  0.4936  0.0645
 6120SOL     OW19959   2.581   1.843   0.683 -0.9112  0.4684 -0.3596
 6120SOL    HW119960   2.562   1.885   0.771  0.0775  1.3954 -0.5736
 6120SOL    HW219961   2.509   1.868   0.618  0.1031  2.6066 -0.7231
 6121SOL     OW19962   1.277   0.379   5.382  0.8197  0.0453 -0.9445
 6121SOL    HW119963   1.374   0.353   5.390  0.8867  0.3304 -0.8254
 6121SOL    HW219964   1.270   0.478   5.372  0.5905 -0.0495 -1.8420
 6122SOL     OW19965   1.876   5.026   2.102 -0.6876  0.0680 -0.4625
 6122SOL    HW119966   1.886   5.006   2.005 -1.0862 -0.2991 -0.4306
 6122SOL    HW219967   1.854   5.122   2.115  0.3995  0.3563 -0.6728
 6123SOL     OW19968   0.788   4.697   1.373  0.3346  0.2123  0.7707
 6123SOL    HW119969   0.747   4.739   1.293 -0.0616 -0.0556  0.8295
 6123SOL    HW219970   0.856   4.629   1.344  0.2688  0.1923  0.6653
 6124SOL     OW19971   0.452   0.002   4.517  0.4943 -0.4913 -0.3781
 6124SOL    HW119972   0.489  -0.072   4.573  1.1624  0.0238 -0.1324
 6124SOL    HW219973   0.368  -0.030   4.472  0.2691 -1.0998  0.4422
 6125SOL     OW19974   4.556   2.420   0.557 -0.3304  0.3194  0.0006
 6125SOL    HW119975   4.580   2.398   0.463 -0.8138 -1.4358  0.2457
 6125SOL    HW219976   4.639   2.436   0.610  0.0252 -0.1311 -0.4075
 6126SOL     OW19977   4.214   5.056   1.882  0.5157 -0.3842 -0.6107
 6126SOL    HW119978   4.226   5.134   1.820  1.9489 -0.9994 -1.1535
 6126SOL    HW219979   4.279   5.063   1.957 -1.6108  0.6825  1.2596
 6127SOL     OW19980   0.896   6.720   0.854  0.3841  0.1818 -0.6820
 6127SOL    HW119981   0.810   6.770   0.851  1.1492  1.5815 -0.6751
 6127SOL    HW219982   0.889   6.643   0.917 -0.4172  1.1895  0.5122
 6128SOL     OW19983   6.406   5.464   2.802  0.2079  0.4947 -0.3161
 6128SOL    HW119984   6.314   5.447   2.836 -0.0613  0.9335 -0.8198
 6128SOL    HW219985   6.472   5.415   2.860 -0.2275  1.3395  0.9478
 6129SOL     OW19986   1.878   1.138   2.739  0.3787 -0.4083  0.2162
 6129SOL    HW119987   1.927   1.065   2.787 -0.6088 -0.4031  1.2874
 6129SOL    HW219988   1.862   1.214   2.801  1.8080  0.9633 -1.0196
 6130SOL     OW19989   4.404   5.212   2.951 -0.1407 -0.4408  0.2158
 6130SOL    HW119990   4.315   5.172   2.931 -0.7689 -0.2727  2.4128
 6130SOL    HW219991   4.396   5.311   2.959 -0.0871 -0.5226  1.6911
 6131SOL     OW19992   2.889   5.676   6.623 -0.1901 -0.1032 -0.1094
 6131SOL    HW119993   2.830   5.754   6.644 -1.8286 -1.3119 -0.0442
 6131SOL    HW219994   2.922   5.635   6.709 -0.0454 -0.0141 -0.1218
 6132SOL     OW19995   6.089   6.319   3.425  0.5395  0.2215 -0.3067
 6132SOL    HW119996   6.002   6.370   3.427 -0.9876 -2.2255  1.3218
 6132SOL    HW219997   6.141   6.346   3.345 -0.0444  4.3599  0.4634
 6133SOL     OW19998   5.493   0.599   1.446  0.2684 -0.0654  0.0107
 6133SOL    HW119999   5.517   0.649   1.529 -0.4084 -0.9305  0.7453
 6133SOL    HW220000   5.394   0.589   1.441  0.2934  0.0934 -0.9830
 6134SOL     OW20001   0.225   2.716   1.618  0.2286 -0.5303 -0.2013
 6134SOL    HW120002   0.171   2.664   1.684 -0.9722  1.7403  0.7410
 6134SOL    HW220003   0.284   2.780   1.667  0.8221 -0.2030 -1.3097
 6135SOL     OW20004   6.259   6.365   5.090  0.6021 -0.0916  0.3662
 6135SOL    HW120005   6.240   6.270   5.115 -1.0004  0.3795  1.0819
 6135SOL    HW220006   6.222   6.383   4.999  0.9780 -0.1661  0.1965
 6136SOL     OW20007   6.644   3.068   3.225 -0.3838  0.4887  0.2055
 6136SOL    HW120008   6.643   3.147   3.286  0.7733  0.0987  0.7474
 6136SOL    HW220009   6.735   3.027   3.224 -0.0454  1.0649 -2.5325
 6137SOL     OW20010   3.842   2.183   6.708 -0.0515 -0.3325 -0.0397
 6137SOL    HW120011   3.894   2.189   6.793 -0.8741 -0.1373  0.4693
 6137SOL    HW220012   3.745   2.175   6.729 -0.4437  1.3644 -0.9453
 6138SOL     OW20013   3.120   1.973   3.743  0.6217 -0.3020 -0.0995
 6138SOL    HW120014   3.184   1.898   3.757  1.6124  0.4958 -0.2930
 6138SOL    HW220015   3.145   2.023   3.660 -0.3678 -0.0800 -0.2862
 6139SOL     OW20016   3.498   1.068   4.445  0.0877  0.2862  0.4778
 6139SOL    HW120017   3.577   1.042   4.501 -1.0372 -1.3505  1.3922
 6139SOL    HW220018   3.526   1.134   4.376  2.3000 -0.3951  0.6540
 6140SOL     OW20019   3.416   0.323   1.245 -0.1224 -0.5730 -0.1254
 6140SOL    HW120020   3.319   0.346   1.258 -0.2538 -1.0789 -0.2048
 6140SOL    HW220021   3.452   0.376   1.168  0.1274  0.8996  0.9623
 6141SOL     OW20022   1.355   6.006   6.538  0.2447 -0.0270  0.0212
 6141SOL    HW120023   1.258   6.006   6.516  0.1743  0.7655  0.3058
 6141SOL    HW220024   1.368   5.977   6.633  0.3084 -0.3336 -0.0780
 6142SOL     OW20025   4.513   4.182   0.568  0.0114  0.2356  0.5658
 6142SOL    HW120026   4.525   4.234   0.484  0.4759 -1.9191 -0.7758
 6142SOL    HW220027   4.416   4.176   0.591 -0.0637  1.4309  0.6142
 6143SOL     OW20028   2.584   0.769   4.113  0.2262 -0.1083  0.4351
 6143SOL    HW120029   2.492   0.734   4.128 -0.0590  1.4896  2.9479
 6143SOL    HW220030   2.580   0.851   4.056  0.4985 -1.7047 -2.0468
 6144SOL     OW20031   4.303   3.005   1.111  0.3256  0.2891 -0.3393
 6144SOL    HW120032   4.340   3.042   1.026 -1.1880  2.2247 -0.2408
 6144SOL    HW220033   4.246   2.925   1.091  0.3427  0.4595 -1.0869
 6145SOL     OW20034   4.640   6.632   2.883  0.0845  0.0594 -0.7766
 6145SOL    HW120035   4.668   6.728   2.883  0.5935 -0.0663  0.5939
 6145SOL    HW220036   4.712   6.576   2.923 -0.7126 -0.7425 -0.4194
 6146SOL     OW20037   6.194   0.639   6.788 -0.0567 -0.4054 -0.4644
 6146SOL    HW120038   6.103   0.668   6.758  0.3694  0.1668 -1.2321
 6146SOL    HW220039   6.221   0.557   6.739  0.0858 -0.2304 -0.6823
 6147SOL     OW20040   2.073   1.416   3.805  0.4820  0.6126 -0.1036
 6147SOL    HW120041   2.088   1.321   3.776  1.5882  0.1232  1.8661
 6147SOL    HW220042   2.153   1.448   3.856  0.2916  2.7771 -1.0805
 6148SOL     OW20043   0.801   5.664   5.401 -0.3257  0.1899 -0.1204
 6148SOL    HW120044   0.788   5.565   5.403  3.7224 -0.5464  3.4006
 6148SOL    HW220045   0.732   5.707   5.459 -0.8242 -0.7676  0.0324
 6149SOL     OW20046   3.578   0.992   7.014  0.6435  0.6685  0.4251
 6149SOL    HW120047   3.658   1.047   7.036  0.6058  0.7872  0.2675
 6149SOL    HW220048   3.582   0.965   6.917 -0.2300  1.8848  0.0273
 6150SOL     OW20049   5.189   5.177   0.560 -0.1847  1.0935  0.4311
 6150SOL    HW120050   5.193   5.187   0.461  0.7832  1.8533  0.5395
 6150SOL    HW220051   5.134   5.096   0.582 -0.0874  0.6861 -0.7245
 6151SOL     OW20052   1.454   1.545   2.039 -0.4601 -0.0074 -0.0863
 6151SOL    HW120053   1.374   1.551   2.099 -0.2332  0.7536  0.1553
 6151SOL    HW220054   1.537   1.537   2.094 -0.1886  1.4018 -0.2593
 6152SOL     OW20055   5.279   3.500   2.247  0.5716 -0.0355  0.2503
 6152SOL    HW120056   5.226   3.514   2.164 -0.0224 -0.3903  0.5641
 6152SOL    HW220057   5.287   3.586   2.297  0.1360 -0.0167  0.2904
 6153SOL     OW20058   4.873   3.810   3.913 -0.2226 -0.1833  0.1333
 6153SOL    HW120059   4.866   3.909   3.901  1.2861  0.0253  0.6673
 6153SOL    HW220060   4.864   3.788   4.011  0.6848 -0.4200  0.1744
 6154SOL     OW20061   3.074   6.237   5.597 -0.3051  0.5482  0.2790
 6154SOL    HW120062   3.050   6.221   5.693  1.8833  1.2670  1.0021
 6154SOL    HW220063   3.095   6.334   5.583 -3.1175  1.0125 -1.6029
 6155SOL     OW20064   6.659   5.879   6.340  0.6116 -0.4499  0.2561
 6155SOL    HW120065   6.592   5.851   6.408 -0.3592  0.4056 -0.3075
 6155SOL    HW220066   6.679   5.977   6.350 -1.1577  0.2515 -1.8977
 6156SOL     OW20067   3.143   5.451   2.948  0.0338 -0.7854 -0.0980
 6156SOL    HW120068   3.111   5.359   2.970  3.1930 -2.1383 -0.5154
 6156SOL    HW220069   3.145   5.506   3.031  0.7638 -2.0346  0.7521
 6157SOL     OW20070   0.652   2.511   2.928  0.1152 -0.5978 -0.0597
 6157SOL    HW120071   0.573   2.540   2.982  0.8790 -0.8664  1.2331
 6157SOL    HW220072   0.661   2.571   2.848 -0.7682  0.1037  0.3512
 6158SOL     OW20073   0.606   5.035   4.396 -0.6251  0.7120  0.2659
 6158SOL    HW120074   0.621   5.086   4.481  1.4463  1.0787 -0.2732
 6158SOL    HW220075   0.570   4.944   4.417  0.0897  0.7103  1.5441
 6159SOL     OW20076   0.555   6.258   0.215  0.5340 -0.1460  0.4260
 6159SOL    HW120077   0.493   6.330   0.245 -1.0511 -1.5956  0.7826
 6159SOL    HW220078   0.557   6.255   0.115 -0.5950 -0.5733  0.4050
 6160SOL     OW20079   4.797   6.522   4.802  0.4329 -0.3733  0.0800
 6160SOL    HW120080   4.796   6.519   4.702 -0.4100  1.3716 -0.0053
 6160SOL    HW220081   4.722   6.466   4.837  1.0323 -1.3977 -0.2178
 6161SOL     OW20082   1.230   6.649   4.203 -0.2052 -0.0152 -0.1999
 6161SOL    HW120083   1.232   6.648   4.303  0.4958 -0.1205 -0.2082
 6161SOL    HW220084   1.135   6.650   4.171 -0.5084 -2.3336  0.4356
 6162SOL     OW20085   6.118   5.967   3.122  0.5064  0.1786  0.1783
 6162SOL    HW120086   6.155   5.994   3.033  1.4862 -0.2519  0.4435
 6162SOL    HW220087   6.065   5.882   3.111 -0.4084  0.7818 -0.1953
 6163SOL     OW20088   5.327   6.500   5.097 -0.4360  0.3124 -0.2026
 6163SOL    HW120089   5.293   6.478   5.188 -1.1455 -1.7376 -0.8941
 6163SOL    HW220090   5.252   6.533   5.040 -0.6032 -0.9543 -0.7607
 6164SOL     OW20091   5.340   5.906   6.128 -0.1326 -0.2802  0.7750
 6164SOL    HW120092   5.312   5.871   6.217 -0.1775 -0.1422  0.8168
 6164SOL    HW220093   5.266   5.891   6.062 -0.3261  0.1228  0.8963
 6165SOL     OW20094   5.854   2.373   3.305  0.1931  0.1249 -0.1676
 6165SOL    HW120095   5.802   2.312   3.366  0.3640 -0.1239 -0.2657
 6165SOL    HW220096   5.821   2.466   3.314 -0.4425 -0.0734 -0.4183
 6166SOL     OW20097   6.648   5.823   4.542 -0.2563 -0.4269 -0.7192
 6166SOL    HW120098   6.727   5.881   4.561  0.7468 -1.1840 -2.3519
 6166SOL    HW220099   6.583   5.872   4.484 -0.7798  0.0207  0.2182
 6167SOL     OW20100   1.778   4.467   1.840  0.7547  0.1024 -0.1563
 6167SOL    HW120101   1.718   4.404   1.791  0.5320 -0.0248  0.2817
 6167SOL    HW220102   1.724   4.532   1.893  0.9517  1.1984 -1.2372
 6168SOL     OW20103   1.384   0.621   4.064 -0.1796 -0.9709 -0.1027
 6168SOL    HW120104   1.389   0.532   4.110 -0.5235 -0.5344  0.8087
 6168SOL    HW220105   1.386   0.608   3.965  0.5646 -1.9450  0.0195
 6169SOL     OW20106   2.241   4.658   2.518 -0.8675  0.4877  0.3727
 6169SOL    HW120107   2.149   4.676   2.552 -0.9203  0.2208  0.3709
 6169SOL    HW220108   2.307   4.669   2.593 -1.1273 -1.5211  0.9451
 6170SOL     OW20109   4.642   3.941   3.733 -0.5616 -0.0881 -0.4098
 6170SOL    HW120110   4.727   3.973   3.774  0.3204  0.9361 -2.8144
 6170SOL    HW220111   4.566   3.998   3.765 -0.4132 -0.9990  1.7449
 6171SOL     OW20112   2.099   6.800   4.586  0.0051 -0.0031  0.0769
 6171SOL    HW120113   2.084   6.718   4.640  0.2912  0.2692  0.5783
 6171SOL    HW220114   2.188   6.794   4.540 -0.8189 -0.8404 -1.4839
 6172SOL     OW20115   5.721   0.685   4.705  0.4447  0.0618  0.3769
 6172SOL    HW120116   5.761   0.705   4.616 -0.3884 -0.4191 -0.1178
 6172SOL    HW220117   5.794   0.682   4.774  0.8096  3.4111  0.3117
 6173SOL     OW20118   6.811   4.795   0.961 -0.0018 -0.6049  0.0783
 6173SOL    HW120119   6.825   4.814   0.864  0.3174  0.3023  0.2997
 6173SOL    HW220120   6.722   4.749   0.973 -1.0096  1.1161 -0.4313
 6174SOL     OW20121   6.466   6.331   2.094  0.0953 -0.4890  0.4063
 6174SOL    HW120122   6.514   6.322   2.181  0.3943 -0.2063  0.2750
 6174SOL    HW220123   6.502   6.410   2.044 -1.7569  0.8749  1.1031
 6175SOL     OW20124   4.044   3.189   6.136 -0.0643  0.3568  0.4809
 6175SOL    HW120125   4.020   3.134   6.057  0.5926  0.3508  0.2802
 6175SOL    HW220126   4.052   3.285   6.109  0.9554  0.2468  0.3608
 6176SOL     OW20127   0.556   0.569   4.374  0.1063 -0.3942 -0.3116
 6176SOL    HW120128   0.538   0.491   4.315  1.6923  0.3046 -1.8097
 6176SOL    HW220129   0.609   0.539   4.454 -1.3070 -1.1970  0.3641
 6177SOL     OW20130   2.291   6.142   1.512 -0.4526 -0.6276 -0.2160
 6177SOL    HW120131   2.331   6.119   1.601  1.3110  0.4551 -0.6662
 6177SOL    HW220132   2.298   6.240   1.497 -0.0569 -0.8757 -1.8542
 6178SOL     OW20133   4.965   2.171   6.599  0.2162 -0.6754  1.0247
 6178SOL    HW120134   4.914   2.096   6.555  1.7811 -1.8387  1.1177
 6178SOL    HW220135   5.023   2.216   6.531  0.1421 -0.2864  1.2150
 6179SOL     OW20136   2.406   6.308   4.041  0.8297  0.3847 -0.0563
 6179SOL    HW120137   2.376   6.354   4.125  1.7833  1.5997 -0.3465
 6179SOL    HW220138   2.430   6.377   3.973 -0.6123 -0.5800 -1.6094
 6180SOL     OW20139   6.006   3.350   0.032  0.0196 -0.1812  0.2417
 6180SOL    HW120140   6.048   3.286   0.097  0.9855  0.2128  0.0161
 6180SOL    HW220141   5.965   3.298  -0.043 -0.1116 -0.5845  0.5893
 6181SOL     OW20142   3.652   0.684   6.183  0.3693  0.1252 -0.2336
 6181SOL    HW120143   3.685   0.725   6.097  0.2216 -1.4078 -1.0613
 6181SOL    HW220144   3.681   0.741   6.260  0.2703  1.6904 -1.3011
 6182SOL     OW20145   6.577   6.504   2.948 -0.2615  0.3503  0.2697
 6182SOL    HW120146   6.673   6.517   2.971 -0.7308  1.6316  1.7347
 6182SOL    HW220147   6.537   6.436   3.009  0.0590 -1.4063 -1.4116
 6183SOL     OW20148   2.523   6.357   5.642  0.0260 -0.0405 -0.3443
 6183SOL    HW120149   2.620   6.380   5.654 -0.5193  1.3829  1.7220
 6183SOL    HW220150   2.481   6.420   5.578  0.6155 -1.2175 -1.9579
 6184SOL     OW20151   4.118   5.275   2.371  0.1073  0.4220  0.4040
 6184SOL    HW120152   4.199   5.218   2.382 -0.0429  0.5190  2.4231
 6184SOL    HW220153   4.093   5.280   2.275  1.3530 -1.1914 -0.0391
 6185SOL     OW20154   2.116   0.934   3.336 -0.5857  0.0801  0.0936
 6185SOL    HW120155   2.166   0.939   3.422 -0.7267 -1.1767  0.2679
 6185SOL    HW220156   2.018   0.930   3.354 -0.7779  2.1409 -0.2359
 6186SOL     OW20157   4.052   6.320   2.999 -0.3150 -0.7307  0.0565
 6186SOL    HW120158   3.978   6.260   2.967 -0.2708 -0.2890 -0.9184
 6186SOL    HW220159   4.107   6.349   2.920  1.8476 -2.2572  0.8816
 6187SOL     OW20160   1.414   1.617   2.379  0.0754 -0.2398  0.6783
 6187SOL    HW120161   1.447   1.562   2.456 -1.0025 -0.1105  1.2495
 6187SOL    HW220162   1.465   1.702   2.375  0.8627 -0.7048  0.5907
 6188SOL     OW20163   6.381   6.703   1.702 -0.2697  0.1170  0.3524
 6188SOL    HW120164   6.288   6.689   1.670  0.0083 -2.2603  0.4110
 6188SOL    HW220165   6.421   6.784   1.657 -2.5169  1.5672  0.8156
 6189SOL     OW20166   3.673   6.242   1.556 -0.8217 -0.3657  0.5330
 6189SOL    HW120167   3.708   6.328   1.593 -1.9828  0.7577 -0.8540
 6189SOL    HW220168   3.723   6.166   1.596  1.9975  1.0376 -0.0241
 6190SOL     OW20169   3.840   2.551   6.842  0.1660 -0.3389 -0.1668
 6190SOL    HW120170   3.847   2.510   6.933  0.8178  0.9315  0.3797
 6190SOL    HW220171   3.923   2.604   6.823 -1.0384  1.5349 -0.4206
 6191SOL     OW20172   1.043   0.325   5.226  0.7710 -0.2739  0.4740
 6191SOL    HW120173   1.116   0.369   5.279 -0.8806  1.8615  1.0688
 6191SOL    HW220174   1.016   0.384   5.150  0.5934 -1.6849 -0.6058
 6192SOL     OW20175   3.266   1.189   5.391 -0.0143 -0.2075  0.3840
 6192SOL    HW120176   3.174   1.199   5.353 -0.3684  0.3025  1.3438
 6192SOL    HW220177   3.309   1.279   5.398  0.7812 -0.4954 -0.5676
 6193SOL     OW20178   5.885   6.829   1.048 -0.1471 -0.2527  0.2680
 6193SOL    HW120179   5.847   6.746   1.089 -0.0520 -0.6287 -0.3813
 6193SOL    HW220180   5.944   6.876   1.114 -3.1853  1.3889  1.9995
 6194SOL     OW20181   0.552   1.264   5.950 -0.2832 -0.4525 -0.0223
 6194SOL    HW120182   0.612   1.192   5.918  0.5254  0.4224 -0.5250
 6194SOL    HW220183   0.469   1.265   5.894  0.1528 -0.3463 -0.6844
 6195SOL     OW20184   1.632   0.198   3.446  0.4245  0.4653 -0.2037
 6195SOL    HW120185   1.686   0.140   3.385  0.0997  1.0340 -1.0519
 6195SOL    HW220186   1.542   0.158   3.459  0.0990  0.8985 -1.0204
 6196SOL     OW20187   0.804   1.556   2.126 -0.1166  0.5516  0.7573
 6196SOL    HW120188   0.781   1.462   2.151  0.5019 -0.0476 -0.7731
 6196SOL    HW220189   0.895   1.558   2.084 -0.6374  1.6155 -0.4059
 6197SOL     OW20190   3.953   2.258   4.813 -0.0353  0.3812  0.0283
 6197SOL    HW120191   3.916   2.350   4.826 -1.0263  0.0930 -0.6631
 6197SOL    HW220192   3.896   2.207   4.749 -0.6733 -1.4032  1.9080
 6198SOL     OW20193   6.954   6.874   2.515  0.0865  0.4985  0.7055
 6198SOL    HW120194   6.868   6.917   2.540  0.3399  0.5529  1.5375
 6198SOL    HW220195   6.936   6.785   2.473 -0.3536 -0.0549  2.0201
 6199SOL     OW20196   4.094   1.509   4.111  0.0166 -0.4137 -0.2304
 6199SOL    HW120197   4.175   1.567   4.106  0.7806 -1.3564  0.6986
 6199SOL    HW220198   4.070   1.493   4.207 -0.9520 -0.5819 -0.4881
 6200SOL     OW20199   3.972   0.737   2.933  0.0787 -0.0609  0.0639
 6200SOL    HW120200   3.921   0.791   3.000  0.9404 -0.4690  1.0899
 6200SOL    HW220201   4.069   0.763   2.936 -0.2596  2.1218 -3.2404
 6201SOL     OW20202   4.898   2.052   5.945  0.0062 -0.4557  0.2518
 6201SOL    HW120203   4.981   1.997   5.935 -0.9154 -1.6225 -1.6677
 6201SOL    HW220204   4.826   2.013   5.888 -1.0179  2.1597 -0.3737
 6202SOL     OW20205   5.313   0.280   5.013 -0.0741 -0.4665 -0.5371
 6202SOL    HW120206   5.286   0.199   5.066 -0.1604 -0.9404 -1.2872
 6202SOL    HW220207   5.324   0.358   5.074 -1.6622 -0.6243 -0.0142
 6203SOL     OW20208   0.522   0.656   4.919  0.8990 -0.0664 -0.2201
 6203SOL    HW120209   0.524   0.716   4.839  0.0866  0.7410  0.3440
 6203SOL    HW220210   0.491   0.565   4.891 -0.5660  0.5246 -0.6639
 6204SOL     OW20211   1.861   2.889   3.615 -0.3158  0.1927  0.1912
 6204SOL    HW120212   1.884   2.921   3.707 -0.3215  0.6092  0.0530
 6204SOL    HW220213   1.943   2.852   3.571 -0.2962  0.0636  0.3370
 6205SOL     OW20214   0.548   3.788   1.626 -0.2361  0.3184  0.5428
 6205SOL    HW120215   0.498   3.776   1.540  1.7202 -0.3133 -0.5646
 6205SOL    HW220216   0.573   3.884   1.636 -0.7863  0.4605  0.6033
 6206SOL     OW20217   5.363   6.089   4.663 -0.6061 -0.0734 -0.0907
 6206SOL    HW120218   5.462   6.085   4.645 -0.6484 -0.1193 -0.3107
 6206SOL    HW220219   5.344   6.163   4.727  0.0085 -2.1368  2.7119
 6207SOL     OW20220   5.959   5.319   6.002 -0.0586 -0.3920 -0.3700
 6207SOL    HW120221   6.026   5.283   5.937  0.1500 -0.5555 -0.0670
 6207SOL    HW220222   5.890   5.249   6.020 -0.1919 -0.2988 -0.5181
 6208SOL     OW20223   0.401   4.798   1.752  0.2312 -0.1932  0.0580
 6208SOL    HW120224   0.466   4.797   1.828  0.6094 -0.9144 -0.2575
 6208SOL    HW220225   0.451   4.808   1.666 -0.0651 -0.8222 -0.1931
 6209SOL     OW20226   3.183   0.445   5.654 -0.5942  0.0873  0.2677
 6209SOL    HW120227   3.121   0.398   5.716 -0.4672 -1.3445 -0.6531
 6209SOL    HW220228   3.131   0.485   5.578 -0.6890  1.3660  0.9853
 6210SOL     OW20229   1.071   3.603   4.290 -0.1058 -0.0055  0.1136
 6210SOL    HW120230   1.157   3.617   4.240  0.1193  0.4095  0.6059
 6210SOL    HW220231   0.998   3.579   4.226  0.0956  0.8808 -0.4588
 6211SOL     OW20232   2.906   1.302   2.195 -0.1643 -0.3544  0.3195
 6211SOL    HW120233   2.928   1.229   2.129 -1.0087 -0.1620 -0.1963
 6211SOL    HW220234   2.946   1.280   2.283  1.0672 -0.5804 -0.2753
 6212SOL     OW20235   2.823   0.333   4.134  0.2939 -0.0079  0.3159
 6212SOL    HW120236   2.763   0.265   4.093 -0.0122  0.4324  0.0237
 6212SOL    HW220237   2.769   0.411   4.166  0.4361 -0.6728  2.2846
 6213SOL     OW20238   1.570   0.322   0.814 -0.0302 -1.0642  0.5075
 6213SOL    HW120239   1.472   0.338   0.803  0.0087 -0.5496  0.9272
 6213SOL    HW220240   1.584   0.257   0.889 -0.0696 -1.4928  0.1510
 6214SOL     OW20241   3.021   5.029   6.910  0.1168  0.0279 -0.2597
 6214SOL    HW120242   3.065   5.086   6.980  1.0914 -0.8057 -0.1609
 6214SOL    HW220243   2.960   5.085   6.855  1.8984  1.4475 -0.9072
 6215SOL     OW20244   0.178   5.525   4.843  0.5284 -0.6170  0.1832
 6215SOL    HW120245   0.207   5.572   4.760  0.5464  0.7475  0.9227
 6215SOL    HW220246   0.101   5.574   4.884 -0.3699 -2.0470  0.2587
 6216SOL     OW20247   4.752   0.325   3.080 -0.0850  0.1061 -0.3359
 6216SOL    HW120248   4.790   0.369   2.999  1.2776  0.0874  0.2710
 6216SOL    HW220249   4.823   0.273   3.127 -0.4701  1.1968  1.5980
 6217SOL     OW20250   6.491   1.275   2.886 -0.0222 -0.2990 -0.1227
 6217SOL    HW120251   6.526   1.358   2.929  0.6815 -0.9482  0.6147
 6217SOL    HW220252   6.406   1.248   2.932  0.1531 -0.3940  0.1537
 6218SOL     OW20253   6.810   5.140   5.947 -0.0342 -0.6031  0.3555
 6218SOL    HW120254   6.743   5.112   6.016 -1.7328 -0.3196 -1.1083
 6218SOL    HW220255   6.898   5.098   5.968 -0.7455 -1.3584  2.0971
 6219SOL     OW20256   3.185   1.795   2.171  0.1346  0.2360  0.1228
 6219SOL    HW120257   3.265   1.853   2.188  0.2241  0.6358 -1.4751
 6219SOL    HW220258   3.144   1.820   2.083 -0.4253 -1.4737 -0.1352
 6220SOL     OW20259   4.979   1.348   1.683 -0.1787 -0.3960  0.3747
 6220SOL    HW120260   5.041   1.359   1.761 -1.6067 -0.2261  1.5450
 6220SOL    HW220261   4.897   1.298   1.713 -1.1332  0.4046 -0.7941
 6221SOL     OW20262   5.576   0.625   6.074  0.5361  0.1034  0.2555
 6221SOL    HW120263   5.537   0.535   6.093  0.5841  0.2322  1.0073
 6221SOL    HW220264   5.669   0.629   6.110 -0.1098  1.0592  1.9318
 6222SOL     OW20265   3.166   0.834   0.630  0.8082 -0.4237 -0.1632
 6222SOL    HW120266   3.111   0.917   0.629  1.6127  0.1153 -0.9371
 6222SOL    HW220267   3.161   0.789   0.541  3.6237  1.0227 -1.1632
 6223SOL     OW20268   0.374   4.998   4.670  0.1820  0.1705  0.6226
 6223SOL    HW120269   0.393   4.952   4.583  1.1154 -1.1071  1.4593
 6223SOL    HW220270   0.450   5.059   4.692  0.5876 -0.5036  1.1480
 6224SOL     OW20271   1.082   3.164   2.843  0.2289 -0.2314 -0.0216
 6224SOL    HW120272   1.121   3.118   2.922  1.2857 -0.3767 -0.6042
 6224SOL    HW220273   1.002   3.113   2.810  0.3883 -0.7190  0.3436
 6225SOL     OW20274   5.446   6.186   2.723  0.4394  0.5935  0.0055
 6225SOL    HW120275   5.443   6.213   2.627  0.9397  2.5496  0.5019
 6225SOL    HW220276   5.521   6.123   2.738  0.8036  0.8367 -0.7642
 6226SOL     OW20277   5.429   3.613   2.840  0.3428  0.1068 -0.1846
 6226SOL    HW120278   5.381   3.565   2.914 -5.1567  3.9179 -0.6619
 6226SOL    HW220279   5.411   3.566   2.753 -0.2885  0.0061 -0.0106
 6227SOL     OW20280   5.822   4.143   4.629 -0.1980  0.0133  0.3457
 6227SOL    HW120281   5.873   4.059   4.647  0.7159  0.4746 -0.0768
 6227SOL    HW220282   5.847   4.180   4.540 -1.4327  0.1421  0.0272
 6228SOL     OW20283   0.702   1.833   2.420  0.0659  0.0950 -0.2313
 6228SOL    HW120284   0.727   1.929   2.432  0.8828 -0.1985  0.4634
 6228SOL    HW220285   0.692   1.814   2.322 -0.3073  0.9344 -0.3666
 6229SOL     OW20286   2.948   0.186   0.626  0.3945  0.3639 -0.2502
 6229SOL    HW120287   2.876   0.160   0.561  0.2012 -2.8941  1.0390
 6229SOL    HW220288   3.028   0.128   0.611  1.9005  2.3414 -0.1362
 6230SOL     OW20289   5.312   3.937   5.892  0.1222 -0.0222 -0.0354
 6230SOL    HW120290   5.296   3.859   5.953 -1.2699 -0.2827 -0.6830
 6230SOL    HW220291   5.225   3.985   5.875  0.7214  0.8639 -0.7130
 6231SOL     OW20292   3.140   3.065   0.701  0.2722 -0.0954  0.0370
 6231SOL    HW120293   3.238   3.074   0.679  0.1299  0.5326 -0.3554
 6231SOL    HW220294   3.110   2.972   0.678  0.5203  0.0401 -0.8912
 6232SOL     OW20295   5.484   0.808   4.728 -0.0492  0.9666 -0.1481
 6232SOL    HW120296   5.480   0.883   4.795 -0.3629  1.5420 -0.8062
 6232SOL    HW220297   5.576   0.768   4.730 -0.2413  0.5278  1.1004
 6233SOL     OW20298   5.295   0.269   4.323  0.4491  0.1708 -0.2647
 6233SOL    HW120299   5.282   0.170   4.315  0.3760  0.0508  1.1043
 6233SOL    HW220300   5.299   0.295   4.419  0.2461  1.5393 -0.5950
 6234SOL     OW20301   2.637   2.087   6.711  0.4637 -0.4230 -0.4911
 6234SOL    HW120302   2.720   2.084   6.656  0.4877  0.8773 -0.5443
 6234SOL    HW220303   2.558   2.103   6.653  0.1719 -1.5488 -0.4271
 6235SOL     OW20304   6.997   6.798   0.752 -0.0150  0.4582 -0.5186
 6235SOL    HW120305   6.990   6.698   0.748 -0.1578  0.4379  0.1864
 6235SOL    HW220306   6.906   6.838   0.738 -0.1690  0.4477  0.4127
 6236SOL     OW20307   3.371   5.234   6.759 -0.2486  0.1418  0.5588
 6236SOL    HW120308   3.372   5.232   6.659 -2.1796  0.6891  0.4803
 6236SOL    HW220309   3.344   5.144   6.794 -0.5183  0.2142  0.5400
 6237SOL     OW20310   6.983   0.441   6.706  0.0496 -0.0983 -0.9795
 6237SOL    HW120311   6.999   0.345   6.729 -1.7670 -0.5812 -1.5251
 6237SOL    HW220312   7.070   0.488   6.694  0.9783 -1.8520 -1.3994
 6238SOL     OW20313   4.178   3.485   3.864  0.2070  0.0895  0.3229
 6238SOL    HW120314   4.233   3.567   3.847  0.9147 -0.5660 -0.6705
 6238SOL    HW220315   4.208   3.412   3.803 -2.7791  0.1405 -1.3989
 6239SOL     OW20316   3.705   0.230   3.499 -0.4353  0.2793  0.1497
 6239SOL    HW120317   3.803   0.252   3.500  0.3628 -2.8871  0.6604
 6239SOL    HW220318   3.690   0.146   3.447 -2.6098 -0.4147  1.7666
 6240SOL     OW20319   5.852   0.487   3.381  0.1472  0.2372  0.6603
 6240SOL    HW120320   5.827   0.395   3.410 -0.9241  0.1071 -0.5506
 6240SOL    HW220321   5.949   0.503   3.398  1.8825 -3.1368 -3.9350
 6241SOL     OW20322   0.508   2.375   0.836 -0.2912  0.6032 -0.6973
 6241SOL    HW120323   0.456   2.386   0.751 -1.2818  0.5256 -0.1149
 6241SOL    HW220324   0.465   2.306   0.893 -1.1597  2.4500  0.9978
 6242SOL     OW20325   6.321   0.047   1.393 -0.3953  0.4412  0.3002
 6242SOL    HW120326   6.334  -0.044   1.354  0.2069  0.5015  0.3589
 6242SOL    HW220327   6.249   0.095   1.342  0.0549  0.3461 -0.4388
 6243SOL     OW20328   5.785   5.567   0.612 -0.1239  0.2426 -1.0188
 6243SOL    HW120329   5.772   5.470   0.591  0.5914  0.4100 -2.2939
 6243SOL    HW220330   5.844   5.609   0.543 -1.5692  1.9213 -1.3010
 6244SOL     OW20331   4.406   1.132   2.340  0.0189 -0.0365  0.1022
 6244SOL    HW120332   4.397   1.223   2.380  1.2254 -0.6867  2.0015
 6244SOL    HW220333   4.319   1.082   2.352 -0.0109  0.1905  0.8994
 6245SOL     OW20334   1.213   3.163   4.202 -0.2614 -0.1648 -0.5603
 6245SOL    HW120335   1.244   3.214   4.283 -0.7525  2.3572 -1.8600
 6245SOL    HW220336   1.136   3.105   4.227 -0.2566  0.3716  0.8230
 6246SOL     OW20337   6.562   2.499   5.472 -0.1053  0.3100  0.1942
 6246SOL    HW120338   6.579   2.497   5.571  1.7142 -1.4135 -0.0767
 6246SOL    HW220339   6.622   2.567   5.430  1.8124 -1.4105 -0.0453
 6247SOL     OW20340   1.835   1.645   5.611  0.0934 -0.1150  0.2603
 6247SOL    HW120341   1.822   1.603   5.702  3.1984  1.3720  1.5072
 6247SOL    HW220342   1.892   1.585   5.555 -0.2370 -0.1445 -0.0500
 6248SOL     OW20343   6.346   5.015   6.674  0.4080 -0.4913 -0.1110
 6248SOL    HW120344   6.318   5.028   6.769  0.2978 -1.1462 -0.0542
 6248SOL    HW220345   6.320   5.096   6.621 -1.0987 -0.8378  0.0547
 6249SOL     OW20346   4.192   1.671   4.939 -0.8295  0.0024 -0.0426
 6249SOL    HW120347   4.190   1.571   4.932 -1.6906  0.0613 -0.8104
 6249SOL    HW220348   4.112   1.709   4.894  0.8095  1.1800 -2.2074
 6250SOL     OW20349   5.893   0.060   5.636  0.0378 -0.1832  0.1972
 6250SOL    HW120350   5.942   0.121   5.697 -0.7499 -0.7203  1.4171
 6250SOL    HW220351   5.925  -0.034   5.649  1.2042 -0.0912 -1.6200
 6251SOL     OW20352   1.924   4.475   2.544  0.1861  0.3980 -0.7868
 6251SOL    HW120353   1.952   4.562   2.584  1.2600 -0.6510  0.8310
 6251SOL    HW220354   1.826   4.462   2.557  0.6261 -0.3249  2.4615
 6252SOL     OW20355   6.591   2.387   5.735  0.0374  0.1417 -0.8257
 6252SOL    HW120356   6.540   2.439   5.803 -1.0649 -0.0413 -1.4958
 6252SOL    HW220357   6.677   2.355   5.776  0.2941  1.6423 -0.1209
 6253SOL     OW20358   3.429   2.687   5.896  0.0476  0.5507  0.0561
 6253SOL    HW120359   3.489   2.613   5.865 -1.4519 -0.1626 -1.3117
 6253SOL    HW220360   3.362   2.651   5.961 -2.1826  0.0250 -2.3266
 6254SOL     OW20361   0.696   2.278   0.290 -0.5645 -0.5485 -0.0070
 6254SOL    HW120362   0.743   2.278   0.202 -0.7430  1.0529 -0.1420
 6254SOL    HW220363   0.750   2.332   0.356 -1.7688  0.6082  0.0681
 6255SOL     OW20364   2.637   2.842   1.084 -0.6407  0.2016  0.3226
 6255SOL    HW120365   2.640   2.752   1.126 -2.2878 -1.1828 -2.2870
 6255SOL    HW220366   2.721   2.857   1.031 -1.0240 -0.4945 -0.4998
 6256SOL     OW20367   0.515   6.865   4.795 -0.3925 -0.0943 -0.1934
 6256SOL    HW120368   0.429   6.901   4.831  0.4665  0.4939  1.3625
 6256SOL    HW220369   0.582   6.859   4.869  1.5833  1.5025 -1.7504
 6257SOL     OW20370   0.241   0.437   3.968  0.0306 -0.8022 -0.8872
 6257SOL    HW120371   0.249   0.381   3.886  1.9218 -0.9271 -0.6676
 6257SOL    HW220372   0.223   0.378   4.047 -1.2830 -0.7302 -1.1073
 6258SOL     OW20373   4.203   5.667   3.956  0.3046 -0.6141  0.0539
 6258SOL    HW120374   4.294   5.645   3.990  0.2779  0.4707  0.8808
 6258SOL    HW220375   4.212   5.722   3.873  0.3840 -1.3180 -0.4139
 6259SOL     OW20376   1.267   2.301   0.867  0.0355  0.1643  0.1459
 6259SOL    HW120377   1.196   2.263   0.808 -1.5684  1.7369  0.9604
 6259SOL    HW220378   1.331   2.229   0.894 -0.5652 -1.0559 -1.5576
 6260SOL     OW20379   4.836   4.620   0.504 -0.0735 -0.2582  0.7279
 6260SOL    HW120380   4.743   4.588   0.521 -0.1773 -2.0341 -2.5363
 6260SOL    HW220381   4.876   4.569   0.428  3.0355  1.5400  0.9907
 6261SOL     OW20382   4.467   3.844   0.559  0.0370 -0.1932  0.4889
 6261SOL    HW120383   4.401   3.900   0.508  1.0909  1.0554  0.4327
 6261SOL    HW220384   4.513   3.781   0.497  0.1771  0.2003  0.1915
 6262SOL     OW20385   5.889   6.879   6.092  0.2121  0.2611 -0.3225
 6262SOL    HW120386   5.796   6.885   6.130  0.5601  4.4422  0.3591
 6262SOL    HW220387   5.892   6.807   6.023 -3.7305  0.3536 -0.8378
 6263SOL     OW20388   6.822   3.309   2.957 -0.4671  0.6637  0.1113
 6263SOL    HW120389   6.746   3.244   2.965 -0.9752  1.2765  0.2829
 6263SOL    HW220390   6.814   3.358   2.870 -0.1077  0.5361  0.0045
 6264SOL     OW20391   5.939   1.527   5.520  0.4641  0.0784 -0.0538
 6264SOL    HW120392   5.860   1.529   5.582  0.5956  0.4769  0.1037
 6264SOL    HW220393   5.987   1.440   5.530 -0.6157 -0.6499 -0.9813
 6265SOL     OW20394   0.343   2.643   5.000  0.4959  0.1433  0.1634
 6265SOL    HW120395   0.301   2.728   4.969  1.5466  0.4621 -0.4110
 6265SOL    HW220396   0.442   2.648   4.989  0.5515 -1.2910 -0.2353
 6266SOL     OW20397   0.156   2.312   1.864 -0.2382 -0.9671  0.3409
 6266SOL    HW120398   0.232   2.290   1.925  0.0757 -1.6714 -0.2955
 6266SOL    HW220399   0.142   2.237   1.800  0.6048  0.4615 -1.6273
 6267SOL     OW20400   2.557   0.480   4.423 -0.5887 -0.7417  0.3104
 6267SOL    HW120401   2.617   0.510   4.497  0.0566  2.4961 -1.3298
 6267SOL    HW220402   2.600   0.498   4.335 -3.3767  0.5457 -0.9226
 6268SOL     OW20403   1.418   1.698   0.286 -0.0944  0.1991 -0.0205
 6268SOL    HW120404   1.501   1.731   0.242  0.9730 -1.9694  0.1998
 6268SOL    HW220405   1.350   1.676   0.216 -0.0035  0.7737 -0.2932
 6269SOL     OW20406   6.443   2.362   0.124 -0.1880 -0.3008 -0.0008
 6269SOL    HW120407   6.384   2.281   0.135 -1.1196  0.4763  1.0266
 6269SOL    HW220408   6.508   2.346   0.050 -0.0850 -2.1430  0.4360
 6270SOL     OW20409   6.539   0.370   3.139 -0.0484 -0.7197 -0.1484
 6270SOL    HW120410   6.480   0.335   3.212 -1.5212 -2.4338 -2.0371
 6270SOL    HW220411   6.504   0.340   3.050  2.1880  0.5040 -1.5517
 6271SOL     OW20412   1.902   1.439   4.027  0.4014 -0.1723  0.2257
 6271SOL    HW120413   1.971   1.457   3.957  1.2269  0.0729  1.0775
 6271SOL    HW220414   1.872   1.344   4.021  1.5532 -0.5666  0.4663
 6272SOL     OW20415   4.190   3.221   0.919  0.6279  0.7731 -0.5710
 6272SOL    HW120416   4.290   3.214   0.925  0.6749  1.1538 -0.8682
 6272SOL    HW220417   4.149   3.196   1.007  0.9447 -0.1286 -0.6688
 6273SOL     OW20418   2.650   0.879   1.950 -0.0184  0.6960 -0.4199
 6273SOL    HW120419   2.640   0.820   1.870  0.6491  1.9945 -1.5142
 6273SOL    HW220420   2.603   0.838   2.028 -1.9286  0.0842 -1.8202
 6274SOL     OW20421   3.579   0.895   2.989  0.6054 -0.1539 -0.0930
 6274SOL    HW120422   3.480   0.888   2.999  0.6744 -0.7186  0.2021
 6274SOL    HW220423   3.602   0.908   2.892  0.1022  2.6071  0.0604
 6275SOL     OW20424   2.095   6.716   3.776  0.5682  0.4146 -0.5210
 6275SOL    HW120425   2.033   6.667   3.715 -0.1422 -0.5603  0.9170
 6275SOL    HW220426   2.128   6.653   3.847 -0.8430  2.0603  1.7545
 6276SOL     OW20427   6.614   0.273   4.631 -0.0460  0.0858  0.0128
 6276SOL    HW120428   6.564   0.340   4.686  0.9462  1.2382 -0.4280
 6276SOL    HW220429   6.560   0.247   4.551 -0.6087  0.0414  0.4058
 6277SOL     OW20430   6.419   4.347   6.906  0.0139 -0.3309  0.1283
 6277SOL    HW120431   6.498   4.408   6.917 -0.0908 -0.1214 -0.2445
 6277SOL    HW220432   6.429   4.268   6.967 -0.0924  0.3024  0.9814
 6278SOL     OW20433   4.354   0.200   6.973  0.0870 -0.2366 -0.7386
 6278SOL    HW120434   4.436   0.232   6.926 -1.4120  0.9820 -2.7067
 6278SOL    HW220435   4.333   0.262   7.048  0.0347  0.4479 -1.3104
 6279SOL     OW20436   4.204   3.300   3.026 -0.2782  0.0748  0.4272
 6279SOL    HW120437   4.151   3.384   3.011  0.2318  0.7550  2.2203
 6279SOL    HW220438   4.166   3.251   3.105  0.4648 -0.5297  0.4160
 6280SOL     OW20439   1.092   4.415   4.789 -0.0349  0.0853 -0.0300
 6280SOL    HW120440   1.100   4.319   4.764  1.1147 -0.2226  1.3866
 6280SOL    HW220441   1.176   4.445   4.834 -1.2430  1.0939  1.6853
 6281SOL     OW20442   0.286   1.841   1.402 -0.6622  0.3461 -0.0360
 6281SOL    HW120443   0.313   1.901   1.477  0.9635  0.1676 -0.4321
 6281SOL    HW220444   0.365   1.825   1.342 -0.5587 -3.4035  0.8546
 6282SOL     OW20445   2.959   1.356   5.705 -0.0908 -0.0196  0.3389
 6282SOL    HW120446   3.014   1.273   5.710 -0.2796 -0.1777 -0.1754
 6282SOL    HW220447   2.870   1.339   5.747 -0.0601 -0.0164  0.4064
 6283SOL     OW20448   4.148   2.598   0.742 -0.4709  0.1492  0.4069
 6283SOL    HW120449   4.175   2.547   0.660  1.9512  3.2686 -0.9214
 6283SOL    HW220450   4.120   2.690   0.716  0.4684  1.2778  3.1123
 6284SOL     OW20451   1.878   6.491   4.834 -0.2282 -0.7279 -0.0928
 6284SOL    HW120452   1.809   6.551   4.875 -1.7662 -3.0781  0.9694
 6284SOL    HW220453   1.852   6.396   4.848  1.8264 -1.6990 -2.1953
 6285SOL     OW20454   1.303   3.098   5.036 -0.6362 -0.2566  0.4931
 6285SOL    HW120455   1.365   3.152   5.092 -0.0199 -1.1098  0.6510
 6285SOL    HW220456   1.299   3.004   5.072 -2.6174 -0.0441  0.9777
 6286SOL     OW20457   6.695   0.012   4.713 -0.2952  0.2456  0.1953
 6286SOL    HW120458   6.710   0.111   4.718 -1.3531  0.3733  1.8069
 6286SOL    HW220459   6.679  -0.023   4.805  2.2915 -1.8386 -0.0201
 6287SOL     OW20460   0.948   4.477   4.346  0.2798  0.5569 -0.3046
 6287SOL    HW120461   1.007   4.398   4.367 -0.0037  0.6865  1.0934
 6287SOL    HW220462   0.915   4.470   4.252  0.0765 -1.1104 -0.1342
 6288SOL     OW20463   3.625   5.302   6.871  0.3447  0.2037  0.0969
 6288SOL    HW120464   3.678   5.381   6.842 -0.3359  0.0307 -1.7884
 6288SOL    HW220465   3.551   5.286   6.805  0.2848 -1.8184  0.5929
 6289SOL     OW20466   2.526   2.369   5.642 -0.2532 -0.1192  0.2675
 6289SOL    HW120467   2.554   2.287   5.692  1.6221 -0.2227 -0.8613
 6289SOL    HW220468   2.605   2.408   5.596 -1.3132  1.7858 -0.0320
 6290SOL     OW20469   2.969   3.892   3.900  0.0114  1.0649 -0.2544
 6290SOL    HW120470   2.927   3.810   3.864  0.8041  0.4688  0.1440
 6290SOL    HW220471   3.050   3.868   3.954  0.0677  2.0764  0.1503
 6291SOL     OW20472   5.762   4.090   0.926  0.4431 -0.0913  0.3636
 6291SOL    HW120473   5.694   4.156   0.894 -0.5987 -0.8663  0.9158
 6291SOL    HW220474   5.750   4.073   1.024  1.1551 -0.5579  0.3801
 6292SOL     OW20475   4.471   1.320   0.079 -0.2021  0.1601  0.4878
 6292SOL    HW120476   4.517   1.381   0.015 -1.4426  0.6374  0.0203
 6292SOL    HW220477   4.443   1.237   0.031  1.9385 -1.0921  1.2306
 6293SOL     OW20478   5.591   4.704   0.521 -0.1849  0.2597  0.2960
 6293SOL    HW120479   5.562   4.795   0.549  0.9291  0.5217  0.6199
 6293SOL    HW220480   5.513   4.655   0.483 -0.8488  1.2554  0.3456
 6294SOL     OW20481   6.208   5.962   0.185 -0.2844  0.2034  0.4722
 6294SOL    HW120482   6.171   5.953   0.092  0.1259 -2.0517  0.4721
 6294SOL    HW220483   6.296   6.010   0.182  0.7023 -1.5757 -0.6142
 6295SOL     OW20484   5.124   0.970   5.865 -0.3601 -0.0798 -0.1289
 6295SOL    HW120485   5.155   0.947   5.958  2.5387  0.3089 -0.8979
 6295SOL    HW220486   5.126   1.069   5.854  1.2846 -0.1954 -1.1630
 6296SOL     OW20487   4.595   1.531   2.799  0.0089 -0.8138  0.4916
 6296SOL    HW120488   4.546   1.448   2.770 -0.4057 -0.3203 -0.2462
 6296SOL    HW220489   4.603   1.594   2.721 -1.5514  0.7688  1.5497
 6297SOL     OW20490   1.018   0.184   2.142  0.8965 -0.4185 -0.1771
 6297SOL    HW120491   0.926   0.207   2.108  1.4447 -1.0668 -2.2488
 6297SOL    HW220492   1.018   0.187   2.242 -1.0393  0.8471 -0.1483
 6298SOL     OW20493   1.444   0.654   0.865 -0.1942  0.0984 -0.4464
 6298SOL    HW120494   1.374   0.584   0.872  0.5897 -0.7794 -1.1223
 6298SOL    HW220495   1.530   0.613   0.835  0.0654  1.4805 -1.7040
 6299SOL     OW20496   4.046   5.517   5.674  0.3643 -0.2870  0.3962
 6299SOL    HW120497   4.102   5.575   5.733  0.1573  0.1645  0.1520
 6299SOL    HW220498   3.949   5.533   5.694  0.2981 -2.2343  1.9637
 6300SOL     OW20499   6.737   5.284   1.672 -0.3133  0.0558  0.3171
 6300SOL    HW120500   6.827   5.256   1.640 -0.2696  1.3356 -0.7802
 6300SOL    HW220501   6.741   5.303   1.770  1.7944  4.1424 -0.3556
 6301SOL     OW20502   5.448   6.822   4.144 -0.1301 -0.1037 -0.1281
 6301SOL    HW120503   5.355   6.785   4.150 -0.2119 -0.0915 -1.0845
 6301SOL    HW220504   5.514   6.747   4.147 -0.3443 -0.6293 -3.6569
 6302SOL     OW20505   4.039   2.937   3.772 -0.2465  0.5178  0.2856
 6302SOL    HW120506   4.119   2.984   3.810  0.1758 -0.5476  0.7487
 6302SOL    HW220507   3.971   2.923   3.844 -0.1711  0.0111  0.2620
 6303SOL     OW20508   5.896   5.658   0.848  0.6393 -0.1712 -0.2487
 6303SOL    HW120509   5.971   5.711   0.808 -0.3511  1.7013  0.2266
 6303SOL    HW220510   5.859   5.595   0.779  0.0783  1.7565 -1.8118
 6304SOL     OW20511   1.610   0.041   6.343  0.8282  0.5167 -0.0740
 6304SOL    HW120512   1.630   0.137   6.366  0.5392  0.2327  1.4734
 6304SOL    HW220513   1.642   0.022   6.250  0.7454  2.1512 -0.4710
 6305SOL     OW20514   5.247   6.968   6.838 -0.4372 -0.3268 -0.0820
 6305SOL    HW120515   5.263   6.938   6.932  1.6165 -1.3122 -0.6799
 6305SOL    HW220516   5.271   7.065   6.830 -1.2412 -0.0647  0.5231
 6306SOL     OW20517   3.364   1.001   2.793 -0.0130 -0.5353  0.1084
 6306SOL    HW120518   3.276   1.032   2.829  1.1051  1.1359  1.5807
 6306SOL    HW220519   3.438   1.054   2.835  1.8406 -3.0773  0.2801
 6307SOL     OW20520   2.479   1.543   4.825 -0.2589  0.5074  0.7659
 6307SOL    HW120521   2.476   1.578   4.732  2.5520 -0.0394  0.3651
 6307SOL    HW220522   2.457   1.616   4.890  0.1900  1.5525 -0.2347
 6308SOL     OW20523   1.497   4.083   0.198 -0.1640 -0.4104  0.1843
 6308SOL    HW120524   1.437   4.017   0.153 -1.0849 -0.0959  0.9315
 6308SOL    HW220525   1.448   4.128   0.271  1.1062 -0.4168  1.0706
 6309SOL     OW20526   6.929   6.059   5.805 -0.3945 -0.0672 -0.1376
 6309SOL    HW120527   6.962   6.055   5.900 -1.8827 -1.4104  0.3674
 6309SOL    HW220528   6.996   6.016   5.745  0.3671  0.4027  0.3650
 6310SOL     OW20529   6.820   5.970   3.323 -0.0577  1.0688  0.5196
 6310SOL    HW120530   6.919   5.961   3.318 -0.1069 -3.0967  2.5226
 6310SOL    HW220531   6.778   5.932   3.241 -0.0284  1.2752  0.4083
 6311SOL     OW20532   5.425   4.075   4.891 -0.2445 -0.1829 -0.1067
 6311SOL    HW120533   5.353   4.133   4.929  0.0975  0.0933  0.1227
 6311SOL    HW220534   5.471   4.124   4.817  0.0267 -0.1724  0.0687
 6312SOL     OW20535   2.076   5.615   3.130 -0.1593  0.4594 -0.4447
 6312SOL    HW120536   2.088   5.599   3.228  0.1719 -0.8725 -0.6729
 6312SOL    HW220537   2.161   5.650   3.092  0.3492 -0.8278 -0.5605
 6313SOL     OW20538   4.491   2.565   2.358  0.2048 -0.1998  0.4937
 6313SOL    HW120539   4.410   2.514   2.330  0.6876 -0.1807 -1.0441
 6313SOL    HW220540   4.473   2.663   2.351  0.2245 -0.1920  0.5517
 6314SOL     OW20541   0.885   1.100   1.250  0.2458  0.1337 -1.3057
 6314SOL    HW120542   0.985   1.097   1.249  0.3775 -1.4305  2.2259
 6314SOL    HW220543   0.854   1.154   1.329 -1.5892 -2.2970 -0.2515
 6315SOL     OW20544   1.322   0.127   1.712 -1.0705 -0.3915 -0.1158
 6315SOL    HW120545   1.410   0.080   1.721  0.1029  1.3821 -1.5198
 6315SOL    HW220546   1.272   0.122   1.798  2.3414  2.2385  2.2781
 6316SOL     OW20547   6.448   6.178   4.174  0.3565  0.2280 -0.1538
 6316SOL    HW120548   6.445   6.225   4.086  1.4557  0.0195 -0.3279
 6316SOL    HW220549   6.469   6.244   4.247 -1.6934  0.6043  0.1501
 6317SOL     OW20550   2.619   1.032   0.483  0.3628  0.3554 -0.0439
 6317SOL    HW120551   2.563   1.090   0.423  1.1529  1.5892  0.3722
 6317SOL    HW220552   2.710   1.072   0.492 -0.7014  2.2668  4.7564
 6318SOL     OW20553   6.072   3.409   0.444 -0.2319  0.8215  0.3791
 6318SOL    HW120554   5.977   3.379   0.454 -0.1445  1.0982  2.5144
 6318SOL    HW220555   6.112   3.367   0.363 -2.5363  1.7138 -1.3261
 6319SOL     OW20556   1.315   2.178   2.777  0.2784  0.0458  0.0921
 6319SOL    HW120557   1.395   2.222   2.817 -0.4709  1.6086 -0.0593
 6319SOL    HW220558   1.345   2.111   2.709  1.4582  0.7154 -0.0819
 6320SOL     OW20559   6.147   4.228   4.654 -0.6839 -0.0815 -0.4150
 6320SOL    HW120560   6.061   4.249   4.699 -1.0860  1.8298 -1.9078
 6320SOL    HW220561   6.133   4.155   4.588 -0.7263 -0.9924  0.5846
 6321SOL     OW20562   4.581   5.985   2.256 -0.1587 -0.0735  0.2133
 6321SOL    HW120563   4.579   6.083   2.235 -0.2025  0.0625  0.8437
 6321SOL    HW220564   4.489   5.948   2.250 -0.3281  0.1756  1.1220
 6322SOL     OW20565   2.436   6.608   1.860  0.8676  0.2017  0.0138
 6322SOL    HW120566   2.505   6.680   1.857  0.7480  0.3116 -0.0845
 6322SOL    HW220567   2.478   6.521   1.832  0.8622  0.3497 -0.4598
 6323SOL     OW20568   0.809   6.410   6.134  0.5132 -0.5523  0.0092
 6323SOL    HW120569   0.784   6.368   6.221  0.9290  2.1742  1.5539
 6323SOL    HW220570   0.789   6.346   6.060 -1.3083 -2.4125  1.9410
 6324SOL     OW20571   0.727   1.417   1.227 -0.4506 -0.2918  0.6471
 6324SOL    HW120572   0.652   1.392   1.166  0.6517 -1.9833 -0.0761
 6324SOL    HW220573   0.809   1.435   1.173 -0.0366  0.4644  1.5014
 6325SOL     OW20574   6.753   2.410   1.970 -0.2071  0.3820 -0.0075
 6325SOL    HW120575   6.842   2.395   2.014 -0.2060 -0.3756 -0.2596
 6325SOL    HW220576   6.767   2.457   1.882 -0.2777  2.7182  1.1708
 6326SOL     OW20577   4.776   6.077   4.697 -0.4201 -0.1894  0.4767
 6326SOL    HW120578   4.864   6.122   4.710 -0.8063  1.3963 -1.7798
 6326SOL    HW220579   4.739   6.049   4.785  1.9469 -0.1538  1.5327
 6327SOL     OW20580   0.079   4.201   1.994 -0.1955 -0.1974 -0.3528
 6327SOL    HW120581   0.051   4.191   1.898 -2.6879  0.8674  0.1820
 6327SOL    HW220582   0.105   4.296   2.011 -1.4199  0.0342  0.3673
 6328SOL     OW20583   7.014   0.980   5.355 -0.2130  0.3101  0.3261
 6328SOL    HW120584   7.108   1.011   5.339 -0.6343  1.4578 -0.0654
 6328SOL    HW220585   6.993   0.987   5.452 -0.1095  0.7339  0.3231
 6329SOL     OW20586   4.431   5.194   3.481  0.6996  0.2581 -0.1396
 6329SOL    HW120587   4.463   5.208   3.388  0.6296 -0.4701 -0.2770
 6329SOL    HW220588   4.331   5.200   3.484  0.7396  0.9312  0.0076
 6330SOL     OW20589   1.006   4.527   1.311 -0.3133 -0.0067  0.1240
 6330SOL    HW120590   0.996   4.503   1.214 -2.5827  2.0174 -0.2358
 6330SOL    HW220591   1.033   4.446   1.363 -0.2047 -1.4163 -2.0202
 6331SOL     OW20592   1.406   5.570   4.593  0.0319  0.3269 -0.0605
 6331SOL    HW120593   1.489   5.516   4.609  0.9655  1.3538 -1.3189
 6331SOL    HW220594   1.328   5.508   4.582  1.0396 -0.7877 -1.2505
 6332SOL     OW20595   4.222   1.249   4.475 -0.2720  0.5005  0.2779
 6332SOL    HW120596   4.234   1.274   4.572  0.6033  1.0089  0.0474
 6332SOL    HW220597   4.201   1.152   4.468  1.2462  0.1075  0.8890
 6333SOL     OW20598   4.623   3.474   6.186 -0.0912  0.1987  0.2533
 6333SOL    HW120599   4.713   3.478   6.228  0.6161 -1.3695 -0.9939
 6333SOL    HW220600   4.625   3.518   6.096 -0.6283  0.3412  0.3041
 6334SOL     OW20601   1.100   6.551   2.648  0.6042 -0.1960 -0.3131
 6334SOL    HW120602   1.177   6.549   2.584  0.7281 -2.3154 -0.1874
 6334SOL    HW220603   1.014   6.545   2.597  0.7111 -2.1329 -0.3366
 6335SOL     OW20604   6.315   4.307   2.988 -0.0492 -0.2755  0.0876
 6335SOL    HW120605   6.401   4.326   2.941  0.4434  0.4449  1.2314
 6335SOL    HW220606   6.282   4.391   3.031 -1.5518 -0.4404 -0.6669
 6336SOL     OW20607   6.233   1.600   2.852  0.0710 -0.2097 -0.2655
 6336SOL    HW120608   6.149   1.640   2.887  0.8358  2.6943 -1.4350
 6336SOL    HW220609   6.218   1.565   2.760  0.0687 -0.0037 -0.3427
 6337SOL     OW20610   2.865   4.126   0.026 -0.3140  0.5398 -0.5822
 6337SOL    HW120611   2.858   4.032   0.059  0.5503  0.2927 -1.0733
 6337SOL    HW220612   2.784   4.177   0.054 -1.6328 -0.8018 -1.7762
 6338SOL     OW20613   5.398   1.381   2.462  0.0674 -0.2903 -0.0019
 6338SOL    HW120614   5.361   1.452   2.403  1.0235  0.7680  0.6397
 6338SOL    HW220615   5.433   1.306   2.405  1.3063  0.8757 -0.8289
 6339SOL     OW20616   5.399   5.213   3.711 -0.4723  0.0677 -0.4047
 6339SOL    HW120617   5.436   5.187   3.622 -0.8171  0.9604 -0.8179
 6339SOL    HW220618   5.329   5.147   3.738  1.4846 -1.7716  0.4892
 6340SOL     OW20619   5.249   5.066   4.371 -0.3404 -0.3251 -0.0981
 6340SOL    HW120620   5.323   5.133   4.374 -0.0118 -0.7030  0.5759
 6340SOL    HW220621   5.218   5.045   4.464  0.6257 -2.2242 -0.1450
 6341SOL     OW20622   3.547   4.906   1.521  0.3315  0.2426  0.1848
 6341SOL    HW120623   3.458   4.906   1.476  1.6136 -0.4242 -2.5550
 6341SOL    HW220624   3.613   4.857   1.464  2.5781  1.1516  1.8682
 6342SOL     OW20625   0.182   3.582   2.294 -0.0056 -0.6817 -0.2123
 6342SOL    HW120626   0.237   3.574   2.376 -2.2947  2.7761  1.9269
 6342SOL    HW220627   0.227   3.643   2.229  0.7643 -1.6382 -0.6079
 6343SOL     OW20628   4.908   6.987   5.756  0.1937  0.4013 -1.0721
 6343SOL    HW120629   5.001   6.970   5.724 -0.3077 -1.3392 -1.7254
 6343SOL    HW220630   4.843   6.938   5.698 -1.0525  0.5358  0.1483
 6344SOL     OW20631   5.279   6.913   1.253  0.1100  0.3499  0.6843
 6344SOL    HW120632   5.248   6.993   1.201 -2.1846 -0.1004  1.2821
 6344SOL    HW220633   5.241   6.916   1.345 -0.4470 -1.6794  0.5668
 6345SOL     OW20634   5.195   0.358   1.718 -0.5689 -0.0332  0.3063
 6345SOL    HW120635   5.169   0.305   1.799  0.0730 -2.3410 -0.8950
 6345SOL    HW220636   5.129   0.340   1.645  0.1085  0.2182 -0.3752
 6346SOL     OW20637   0.120   4.447   4.279 -0.4347  0.4391 -1.0542
 6346SOL    HW120638   0.077   4.358   4.296  0.5844  0.2171  0.4933
 6346SOL    HW220639   0.078   4.516   4.337  1.8164  0.0396  1.2103
 6347SOL     OW20640   3.532   5.678   0.791  0.2196 -0.3803 -0.1706
 6347SOL    HW120641   3.572   5.626   0.866  1.0117 -1.2919 -1.1961
 6347SOL    HW220642   3.489   5.761   0.827  2.7654  0.5068  1.0464
 6348SOL     OW20643   2.031   6.724   0.533 -0.3423  0.1431  0.0239
 6348SOL    HW120644   2.104   6.683   0.588 -0.8031  0.3707  0.8166
 6348SOL    HW220645   2.043   6.823   0.531  0.0740  0.0836 -0.8820
 6349SOL     OW20646   1.918   5.029   5.318  0.0612 -0.1116  0.2698
 6349SOL    HW120647   1.940   5.087   5.239  1.3774 -0.3180  0.4684
 6349SOL    HW220648   1.876   5.085   5.389  0.5791  0.4591  0.1437
 6350SOL     OW20649   6.209   1.439   1.934  0.2653 -0.1366 -0.3717
 6350SOL    HW120650   6.229   1.426   2.031  2.2763  0.0324 -0.7235
 6350SOL    HW220651   6.237   1.531   1.906 -1.0346  0.1060 -0.9681
 6351SOL     OW20652   4.299   2.048   5.349  0.1720 -0.1956 -0.7415
 6351SOL    HW120653   4.285   1.998   5.264  0.5019 -1.0287 -0.3191
 6351SOL    HW220654   4.258   1.997   5.425 -0.2641  0.6201 -0.4187
 6352SOL     OW20655   1.286   0.400   0.820 -0.3197 -0.7193 -0.3658
 6352SOL    HW120656   1.275   0.396   0.721 -1.3891 -2.3021 -0.2142
 6352SOL    HW220657   1.197   0.407   0.864  0.1454 -0.0191  0.4965
 6353SOL     OW20658   2.400   5.880   6.420 -0.2853  0.4167  0.6036
 6353SOL    HW120659   2.388   5.851   6.515 -0.1521  1.7816  1.0606
 6353SOL    HW220660   2.477   5.943   6.414  0.2046 -0.2456 -0.5639
 6354SOL     OW20661   4.027   0.983   5.104 -0.2657  0.2573  0.6084
 6354SOL    HW120662   3.982   0.943   5.023  3.1386 -1.4717 -0.6355
 6354SOL    HW220663   4.027   0.916   5.178 -0.1124  0.3856  0.7251
 6355SOL     OW20664   5.516   0.467   4.767  0.3089  0.0976  0.9112
 6355SOL    HW120665   5.576   0.531   4.719  1.6314 -0.2240  2.0678
 6355SOL    HW220666   5.431   0.514   4.792 -0.6403  0.1593 -2.0407
 6356SOL     OW20667   5.601   6.071   5.521 -0.7438  0.5030 -0.2752
 6356SOL    HW120668   5.659   5.997   5.556  0.9206  1.8368 -0.0621
 6356SOL    HW220669   5.567   6.047   5.430  2.0585  0.5616 -1.4497
 6357SOL     OW20670   5.795   1.903   1.159  0.3586  0.2302  0.1958
 6357SOL    HW120671   5.801   1.953   1.246  0.3065 -0.9732  0.9195
 6357SOL    HW220672   5.725   1.832   1.167 -0.8934  1.2124 -1.4405
 6358SOL     OW20673   3.520   1.238   2.886  0.2322  0.3173  0.0611
 6358SOL    HW120674   3.610   1.201   2.907  1.0892  1.4747 -1.3720
 6358SOL    HW220675   3.513   1.332   2.920 -1.1318 -0.3507  1.7752
 6359SOL     OW20676   0.372   0.919   1.325 -0.2948  0.3234  0.7797
 6359SOL    HW120677   0.300   0.940   1.259  0.7466  2.0014  0.1213
 6359SOL    HW220678   0.456   0.968   1.301  1.3742 -2.1659  1.0479
 6360SOL     OW20679   5.277   6.359   0.115 -0.2429 -0.0641 -0.1410
 6360SOL    HW120680   5.205   6.420   0.084 -0.2538 -0.8449 -1.7765
 6360SOL    HW220681   5.347   6.351   0.044 -0.2726 -1.9741 -0.0073
 6361SOL     OW20682   6.753   3.276   4.092 -0.1897 -0.6731  0.0121
 6361SOL    HW120683   6.846   3.261   4.125  0.2073  0.5668 -0.4841
 6361SOL    HW220684   6.699   3.321   4.163  0.0143 -0.0901 -0.1910
 6362SOL     OW20685   0.469   2.697   6.638 -0.3127  0.2097  0.3498
 6362SOL    HW120686   0.560   2.731   6.615 -0.7072  1.0917  0.0830
 6362SOL    HW220687   0.474   2.598   6.656  0.6144  0.1691 -0.0928
 6363SOL     OW20688   4.676   4.280   6.861  0.0302  0.1274 -0.4400
 6363SOL    HW120689   4.714   4.356   6.809  4.4699 -0.6416  1.2939
 6363SOL    HW220690   4.584   4.304   6.892  0.5892  4.0620 -1.3533
 6364SOL     OW20691   2.170   6.477   2.358  0.4827 -0.8956  0.4076
 6364SOL    HW120692   2.177   6.430   2.270 -1.2656  1.3230 -1.0364
 6364SOL    HW220693   2.084   6.451   2.402  1.1045 -1.5878  1.2497
 6365SOL     OW20694   0.104   4.994   4.825 -0.2358 -0.3579  0.4350
 6365SOL    HW120695   0.112   4.918   4.890 -3.4953 -0.4122  0.9347
 6365SOL    HW220696   0.173   4.983   4.753  1.5722 -1.9021  2.2599
 6366SOL     OW20697   1.571   4.910   5.526  0.3487  0.0265  0.0805
 6366SOL    HW120698   1.615   4.995   5.496 -1.0402  0.6695 -0.2203
 6366SOL    HW220699   1.519   4.929   5.610  1.4160 -0.9537  1.0014
 6367SOL     OW20700   6.319   3.982   0.615 -0.5353 -0.7118  0.1482
 6367SOL    HW120701   6.263   3.974   0.698 -0.6444 -0.6701  0.0780
 6367SOL    HW220702   6.343   4.078   0.601 -0.2040 -0.7653  0.3383
 6368SOL     OW20703   1.319   6.045   3.845 -0.5374  0.2793 -0.1627
 6368SOL    HW120704   1.389   6.101   3.801 -0.1713 -0.2973 -0.3392
 6368SOL    HW220705   1.305   6.076   3.939  0.4533 -0.0236  0.0964
 6369SOL     OW20706   3.417   1.538   6.157  0.3244  0.0517 -0.4347
 6369SOL    HW120707   3.406   1.552   6.255 -1.0617 -0.9438 -0.4221
 6369SOL    HW220708   3.462   1.450   6.141 -0.2971 -0.2238 -0.6971
 6370SOL     OW20709   2.647   6.476   0.978  0.4649 -0.0709  0.0117
 6370SOL    HW120710   2.561   6.524   0.997  0.1849  0.5677 -2.4800
 6370SOL    HW220711   2.639   6.380   1.006 -1.8938 -0.5773 -2.0492
 6371SOL     OW20712   0.622   6.940   0.520 -0.2767  0.1371  0.6103
 6371SOL    HW120713   0.682   6.958   0.441  1.6468  0.4616  2.0784
 6371SOL    HW220714   0.642   7.007   0.592  0.6491 -2.3417  2.7896
 6372SOL     OW20715   2.418   5.207   0.424  0.1530 -0.0152  0.4014
 6372SOL    HW120716   2.416   5.280   0.356  0.3516  0.7561  1.2063
 6372SOL    HW220717   2.326   5.194   0.461  0.3924  0.9514  1.4032
 6373SOL     OW20718   6.991   6.982   1.184  0.1531 -0.0474 -0.1003
 6373SOL    HW120719   7.046   6.950   1.107 -1.7648 -0.1456 -1.4879
 6373SOL    HW220720   7.048   7.039   1.244  1.3256  1.3988 -2.4496
 6374SOL     OW20721   4.191   1.006   4.773  0.1291  0.4227  0.3714
 6374SOL    HW120722   4.222   0.912   4.762  2.0830  0.8286  1.8291
 6374SOL    HW220723   4.235   1.047   4.853 -1.7463  2.1622  0.6081
 6375SOL     OW20724   1.864   0.376   6.637  0.1809 -0.0090 -0.1790
 6375SOL    HW120725   1.878   0.310   6.563  1.9827 -0.3458  0.3962
 6375SOL    HW220726   1.949   0.383   6.691 -1.6515 -1.5793  3.2882
 6376SOL     OW20727   3.450   0.304   3.970 -0.4347 -0.6441  0.2354
 6376SOL    HW120728   3.421   0.225   4.025  1.9885 -1.1603  0.9102
 6376SOL    HW220729   3.517   0.273   3.902  0.4940  0.8195  0.4555
 6377SOL     OW20730   5.517   6.234   5.715  0.3668  0.1051 -0.5196
 6377SOL    HW120731   5.558   6.162   5.660  2.6337  2.7800 -2.6596
 6377SOL    HW220732   5.583   6.266   5.783  0.1593  1.4212 -0.9096
 6378SOL     OW20733   4.638   4.388   6.121 -0.0087  0.4015  0.3273
 6378SOL    HW120734   4.603   4.454   6.055 -2.1135  0.8454  1.8051
 6378SOL    HW220735   4.701   4.326   6.075  0.4921  2.1843 -1.5285
 6379SOL     OW20736   5.981   3.093   1.957  0.0636  0.3288 -0.2000
 6379SOL    HW120737   5.945   3.186   1.959 -0.3936  0.2491  3.8544
 6379SOL    HW220738   6.067   3.089   2.007  0.9324 -1.2243 -1.6896
 6380SOL     OW20739   3.025   1.209   1.795  0.5069 -0.3828 -0.3371
 6380SOL    HW120740   2.972   1.274   1.742  0.7351 -0.7517 -1.0318
 6380SOL    HW220741   3.082   1.257   1.861  0.4252  0.1000 -0.6184
 6381SOL     OW20742   3.591   4.944   6.166  0.3273 -0.1222 -0.0517
 6381SOL    HW120743   3.673   4.891   6.187 -0.1216 -0.9748 -0.4073
 6381SOL    HW220744   3.568   4.932   6.069 -0.3775 -0.1184  0.1141
 6382SOL     OW20745   3.143   2.128   1.763 -0.1736 -0.3812  0.3653
 6382SOL    HW120746   3.180   2.174   1.683 -1.6401  1.4209  0.6612
 6382SOL    HW220747   3.093   2.046   1.735 -0.1675 -0.0908 -0.5156
 6383SOL     OW20748   1.906   6.862   1.630  0.0010  0.4900 -0.1741
 6383SOL    HW120749   1.880   6.854   1.726  1.1172  0.3680  0.1300
 6383SOL    HW220750   1.849   6.932   1.586 -2.3336 -1.2684 -0.1173
 6384SOL     OW20751   0.017   2.909   6.715  0.3622  0.1215 -0.1224
 6384SOL    HW120752   0.075   2.828   6.717 -2.9569 -2.4663  0.2050
 6384SOL    HW220753  -0.007   2.935   6.809  1.5293  1.6798 -0.2140
 6385SOL     OW20754   6.510   5.291   2.546  0.0894  0.4369 -0.3054
 6385SOL    HW120755   6.442   5.331   2.608  0.9191  1.1369  0.1834
 6385SOL    HW220756   6.596   5.340   2.556  0.2663  0.4943 -1.9707
 6386SOL     OW20757   4.767   4.689   5.289 -0.1107  0.3453  0.0642
 6386SOL    HW120758   4.837   4.707   5.219  0.6874 -0.0174  0.7526
 6386SOL    HW220759   4.695   4.757   5.282  0.2451  0.6596 -0.7376
 6387SOL     OW20760   0.566   2.953   4.214  0.0538 -0.0121  0.0107
 6387SOL    HW120761   0.587   2.939   4.311 -0.3190 -0.6296  0.0106
 6387SOL    HW220762   0.584   3.048   4.189  1.9974 -0.2744  0.2130
 6388SOL     OW20763   2.118   0.904   5.645  0.7149 -0.0175 -0.7331
 6388SOL    HW120764   2.160   0.845   5.575  1.9209  1.6270 -1.4668
 6388SOL    HW220765   2.019   0.888   5.648  0.8493 -1.1603 -1.7894
 6389SOL     OW20766   2.118   5.475   6.808  0.6828  0.0399  0.2061
 6389SOL    HW120767   2.182   5.448   6.736  1.6488 -0.9556  1.3828
 6389SOL    HW220768   2.068   5.394   6.840 -0.2793  0.6024  0.1457
 6390SOL     OW20769   1.590   3.869   3.250 -0.0371 -0.3234 -0.2440
 6390SOL    HW120770   1.625   3.839   3.161  0.3864  1.4018 -0.6983
 6390SOL    HW220771   1.613   3.802   3.320  1.8183 -0.5356 -1.0123
 6391SOL     OW20772   3.449   1.394   6.601 -0.1166  0.1389  0.2055
 6391SOL    HW120773   3.421   1.442   6.518  1.0298 -1.1885 -1.0113
 6391SOL    HW220774   3.537   1.430   6.633  0.4728 -0.7240 -0.3915
 6392SOL     OW20775   1.142   6.862   2.771  0.2029 -0.2250 -0.3969
 6392SOL    HW120776   1.063   6.801   2.761 -1.7131  1.6640  1.9325
 6392SOL    HW220777   1.188   6.842   2.858  1.5769 -0.4783 -1.1612
 6393SOL     OW20778   2.559   5.381   1.639 -0.2036  0.4329 -0.4223
 6393SOL    HW120779   2.595   5.290   1.661  1.2695  1.0360 -0.1891
 6393SOL    HW220780   2.633   5.448   1.648 -1.3992  1.7372 -0.0401
 6394SOL     OW20781   0.071   0.572   3.567  0.4610 -0.0436 -0.2371
 6394SOL    HW120782  -0.022   0.535   3.565  0.9883 -1.6785  1.8653
 6394SOL    HW220783   0.071   0.660   3.615 -0.1183  0.4857 -1.1713
 6395SOL     OW20784   0.118   4.534   1.422 -0.4856  0.2900 -0.2131
 6395SOL    HW120785   0.025   4.529   1.384 -0.2539  0.0028 -0.7585
 6395SOL    HW220786   0.145   4.630   1.431 -1.2168  0.3997  0.9135
 6396SOL     OW20787   5.543   1.681   0.859 -0.0128  0.3399  0.0426
 6396SOL    HW120788   5.552   1.778   0.836  0.5384 -0.0544 -1.5815
 6396SOL    HW220789   5.634   1.640   0.867 -0.2195 -0.4104 -1.1380
 6397SOL     OW20790   1.747   2.729   3.275  0.2651  0.0411  0.0679
 6397SOL    HW120791   1.813   2.657   3.295  0.2231 -0.9217 -2.7955
 6397SOL    HW220792   1.772   2.775   3.190 -0.9072  2.0235  0.7035
 6398SOL     OW20793   6.228   5.915   3.760 -0.3783 -0.2655  0.1411
 6398SOL    HW120794   6.173   5.862   3.825  0.7494  1.2464  2.4709
 6398SOL    HW220795   6.193   6.008   3.754 -1.0550 -0.6001 -2.2848
 6399SOL     OW20796   0.724   6.286   6.353  0.1228 -0.4751 -0.0698
 6399SOL    HW120797   0.688   6.356   6.414 -0.4433 -0.1036 -0.8207
 6399SOL    HW220798   0.656   6.213   6.342  0.2533 -0.5802 -0.1918
 6400SOL     OW20799   6.468   6.140   4.831  0.2427  0.2808  0.1805
 6400SOL    HW120800   6.518   6.222   4.859  0.0579 -0.3788  2.6840
 6400SOL    HW220801   6.532   6.064   4.820  0.3533  0.5876 -1.6929
 6401SOL     OW20802   5.842   4.904   5.994  0.1444 -0.2401  0.7344
 6401SOL    HW120803   5.925   4.888   5.940 -0.2472 -1.1421  0.3707
 6401SOL    HW220804   5.768   4.849   5.956  0.0979 -1.7028  2.8201
 6402SOL     OW20805   2.088   5.034   2.403  0.4150  0.0704  0.1150
 6402SOL    HW120806   2.119   5.104   2.339  0.9621 -0.8568 -0.6666
 6402SOL    HW220807   2.069   4.949   2.353  0.9377 -0.6988  1.1894
 6403SOL     OW20808   5.013   2.948   3.220 -0.1750 -0.4747 -0.7010
 6403SOL    HW120809   5.057   2.914   3.303  0.9281  1.2763 -0.5297
 6403SOL    HW220810   4.915   2.930   3.225 -0.0989 -0.5729  0.9031
 6404SOL     OW20811   1.548   4.239   5.770 -0.3884  0.6691 -0.6999
 6404SOL    HW120812   1.512   4.151   5.739  0.5245  1.3199 -4.0019
 6404SOL    HW220813   1.647   4.242   5.752 -0.4764  2.4981 -1.0625
 6405SOL     OW20814   5.027   6.156   4.737  0.1651  0.0444 -0.1416
 6405SOL    HW120815   5.029   6.244   4.690 -0.8699 -1.2441 -2.7933
 6405SOL    HW220816   5.118   6.115   4.736  0.2358  0.2110 -0.6455
 6406SOL     OW20817   6.560   1.838   5.333 -0.0774  0.0636 -0.5577
 6406SOL    HW120818   6.529   1.743   5.342 -1.7607  0.6503  0.2201
 6406SOL    HW220819   6.650   1.840   5.289  2.0122 -2.1797  3.1040
 6407SOL     OW20820   4.620   3.588   5.947  0.2492  0.1220  0.3035
 6407SOL    HW120821   4.534   3.638   5.937  0.4365  0.3490 -0.1946
 6407SOL    HW220822   4.639   3.537   5.864  1.3844  1.3274 -0.2048
 6408SOL     OW20823   1.145   5.507   6.444 -0.4609 -0.5105  0.5160
 6408SOL    HW120824   1.131   5.580   6.510 -0.5780 -0.1420  0.0839
 6408SOL    HW220825   1.126   5.419   6.488 -2.4394 -0.1635  0.4451
 6409SOL     OW20826   3.361   0.254   1.685 -0.2863  0.2347 -0.4734
 6409SOL    HW120827   3.303   0.180   1.653 -0.2142  0.4925 -1.2074
 6409SOL    HW220828   3.446   0.256   1.631  0.9842 -0.9069  1.3556
 6410SOL     OW20829   0.427   5.609   3.744 -0.2084  0.1474 -0.2777
 6410SOL    HW120830   0.452   5.673   3.672  0.8922 -1.0437 -0.9983
 6410SOL    HW220831   0.329   5.587   3.737 -0.5580  1.5645 -0.1272
 6411SOL     OW20832   1.711   4.075   2.832 -0.1624 -0.5215  0.5827
 6411SOL    HW120833   1.804   4.058   2.863  0.3433 -0.7863 -1.0317
 6411SOL    HW220834   1.658   3.990   2.838 -0.4919 -0.2469  2.0271
 6412SOL     OW20835   1.094   0.014   6.274  0.2568 -1.0275  0.5096
 6412SOL    HW120836   1.133  -0.050   6.208  0.4753  0.7588 -1.1800
 6412SOL    HW220837   1.000  -0.013   6.294  0.1773 -1.5982 -0.5481
 6413SOL     OW20838   6.148   2.745   0.223 -0.3332 -0.6450 -0.4179
 6413SOL    HW120839   6.096   2.705   0.147  0.9408 -1.3753 -0.9409
 6413SOL    HW220840   6.116   2.706   0.309  0.1343 -2.0238 -0.8315
 6414SOL     OW20841   1.915   4.454   5.106  0.4123 -0.1813  0.4987
 6414SOL    HW120842   1.854   4.435   5.028  2.3135  0.0072 -1.1340
 6414SOL    HW220843   1.914   4.551   5.126 -0.8801 -0.3743  1.4313
 6415SOL     OW20844   0.778   3.669   2.727  0.0982 -0.1717  0.3202
 6415SOL    HW120845   0.809   3.574   2.721  0.0064 -0.2314  0.7983
 6415SOL    HW220846   0.727   3.682   2.811 -1.2203 -0.0906 -0.4662
 6416SOL     OW20847   5.175   0.162   2.506  0.1251  0.2163 -0.2385
 6416SOL    HW120848   5.148   0.071   2.539  0.6569  0.0329 -0.2914
 6416SOL    HW220849   5.131   0.232   2.562 -0.8061 -0.0598 -0.6094
 6417SOL     OW20850   0.211   4.158   3.633  0.0244  0.3855 -0.0242
 6417SOL    HW120851   0.287   4.136   3.571  1.5380  0.2766  1.7904
 6417SOL    HW220852   0.243   4.155   3.727 -1.9655  1.6089  0.7445
 6418SOL     OW20853   3.844   1.861   0.408  0.2739  0.1979  0.1146
 6418SOL    HW120854   3.754   1.903   0.416  0.3668  0.4163  0.0483
 6418SOL    HW220855   3.914   1.930   0.426  0.4391  0.1690 -0.3961
 6419SOL     OW20856   6.897   4.992   4.625  0.2934  0.4652  0.1927
 6419SOL    HW120857   6.841   4.909   4.628 -0.2483  0.8175 -0.0961
 6419SOL    HW220858   6.968   4.986   4.695 -0.6724  0.4223  1.1967
 6420SOL     OW20859   6.586   0.098   5.673  0.1242 -0.2680 -0.0032
 6420SOL    HW120860   6.500   0.101   5.622  0.7058 -0.5745 -1.0283
 6420SOL    HW220861   6.566   0.086   5.771 -0.9767 -0.8182 -0.2731
 6421SOL     OW20862   2.263   6.670   2.833  0.0371 -0.0611 -0.0811
 6421SOL    HW120863   2.210   6.684   2.749 -1.3362  0.6478  0.8725
 6421SOL    HW220864   2.360   6.691   2.815 -0.4496  1.4543 -1.1342
 6422SOL     OW20865   2.833   0.176   3.671 -0.6946  0.6669  0.7734
 6422SOL    HW120866   2.929   0.204   3.676 -0.5291  0.1258  0.6845
 6422SOL    HW220867   2.775   0.253   3.698 -0.4256  2.1497 -2.3954
 6423SOL     OW20868   5.543   0.074   3.283  0.1386  0.4568  0.0881
 6423SOL    HW120869   5.515   0.157   3.331  1.1613 -0.5066  2.5360
 6423SOL    HW220870   5.629   0.090   3.234  0.4803  0.7819  0.7873
 6424SOL     OW20871   1.934   0.427   0.725  0.1077  0.6939  0.3557
 6424SOL    HW120872   2.007   0.491   0.703  0.3355  0.3299  0.0415
 6424SOL    HW220873   1.845   0.470   0.708  0.2622  0.8716 -0.0068
 6425SOL     OW20874   4.314   6.721   2.649 -0.4649  0.2672  0.0592
 6425SOL    HW120875   4.356   6.807   2.680  1.1152 -0.6635  0.6044
 6425SOL    HW220876   4.346   6.701   2.556 -1.4325  0.6259 -0.3673
 6426SOL     OW20877   1.377   0.694   2.302 -0.3866  0.4074 -0.5191
 6426SOL    HW120878   1.363   0.728   2.210 -1.9549 -1.0689 -0.8674
 6426SOL    HW220879   1.335   0.756   2.368 -0.1799  0.9123 -0.8569
 6427SOL     OW20880   4.157   5.266   6.347  0.1032 -0.0107  0.4485
 6427SOL    HW120881   4.225   5.286   6.277  1.0073  0.6669  1.4718
 6427SOL    HW220882   4.169   5.172   6.380  2.0944  0.7561  2.1771
 6428SOL     OW20883   6.169   1.973   5.552  0.0374 -0.1402 -0.3435
 6428SOL    HW120884   6.267   1.990   5.544 -0.1260  1.8692  1.2793
 6428SOL    HW220885   6.119   2.041   5.498 -0.4919  0.1197  0.4640
 6429SOL     OW20886   4.270   5.920   5.940  0.5467  0.0633 -0.7790
 6429SOL    HW120887   4.321   6.005   5.948  0.2612  0.1948 -0.3082
 6429SOL    HW220888   4.179   5.939   5.903  0.1405  0.0998  0.2099
 6430SOL     OW20889   1.415   2.347   6.614  0.2765  0.1311 -0.1354
 6430SOL    HW120890   1.357   2.352   6.532  0.2603 -0.9791 -0.2088
 6430SOL    HW220891   1.396   2.425   6.673 -2.5212 -1.0351  0.6517
 6431SOL     OW20892   3.975   0.031   3.089 -0.7744  0.0558 -0.5096
 6431SOL    HW120893   3.879   0.013   3.067 -0.6557 -1.4010  0.0611
 6431SOL    HW220894   3.989   0.021   3.188  0.0873 -0.4042 -0.6696
 6432SOL     OW20895   0.098   3.931   4.626 -0.1945 -0.3396  0.4545
 6432SOL    HW120896   0.168   3.961   4.561 -0.9332  1.7411  0.5494
 6432SOL    HW220897   0.132   3.851   4.676  2.2966  0.8058  0.7780
 6433SOL     OW20898   3.654   5.414   5.634 -0.4054  0.0955 -0.2501
 6433SOL    HW120899   3.731   5.475   5.650 -0.7300  0.0362  1.7739
 6433SOL    HW220900   3.683   5.341   5.571  1.3906 -0.2432  0.8688
 6434SOL     OW20901   2.749   4.842   0.284 -0.1533  0.2642  0.0057
 6434SOL    HW120902   2.659   4.874   0.253 -0.1376  0.2339 -0.0730
 6434SOL    HW220903   2.814   4.848   0.208  0.2832  1.6961  0.4392
 6435SOL     OW20904   4.595   1.685   3.562  0.7836  0.3327  0.0487
 6435SOL    HW120905   4.528   1.652   3.628  0.2839 -0.5986 -0.9022
 6435SOL    HW220906   4.670   1.619   3.555  0.1998 -0.2357 -1.2348
 6436SOL     OW20907   3.177   1.581   3.466 -0.5895  0.5724  0.0407
 6436SOL    HW120908   3.163   1.482   3.465 -2.0359  0.7589 -0.0098
 6436SOL    HW220909   3.227   1.606   3.549  0.6860 -0.2877 -0.4344
 6437SOL     OW20910   2.637   2.506   0.876  0.4056 -0.0494 -0.0646
 6437SOL    HW120911   2.617   2.408   0.879 -0.6560  0.1524 -0.2136
 6437SOL    HW220912   2.552   2.558   0.885  0.9917  0.8666  0.3108
 6438SOL     OW20913   0.372   2.315   2.037  0.2677 -0.3988  0.1083
 6438SOL    HW120914   0.449   2.279   1.984  1.2141  1.1344  0.3902
 6438SOL    HW220915   0.374   2.415   2.036 -1.0006 -0.3367  1.1728
 6439SOL     OW20916   1.883   0.880   4.444 -0.2753  0.2403  0.7548
 6439SOL    HW120917   1.820   0.812   4.483  0.6625 -0.8328  0.4743
 6439SOL    HW220918   1.974   0.865   4.481 -0.0623  1.4200  0.7321
 6440SOL     OW20919   5.290   3.490   0.689  0.4608  0.1115 -0.0438
 6440SOL    HW120920   5.256   3.396   0.690  2.0453 -0.5218 -1.3171
 6440SOL    HW220921   5.213   3.553   0.691 -0.6908 -1.2287 -0.3756
 6441SOL     OW20922   0.004   4.965   5.949 -0.7612 -0.0736  0.1123
 6441SOL    HW120923  -0.040   4.880   5.920  0.5639 -0.5222 -0.6258
 6441SOL    HW220924   0.097   4.946   5.980  0.4292  1.3725 -2.2984
 6442SOL     OW20925   4.647   5.598   1.649 -0.2318 -0.1798 -0.0753
 6442SOL    HW120926   4.640   5.678   1.589  0.2309 -0.2602 -0.2370
 6442SOL    HW220927   4.557   5.554   1.656 -0.8832  1.2839  1.3189
 6443SOL     OW20928   6.871   5.367   6.069 -0.1003 -0.0766  0.0180
 6443SOL    HW120929   6.783   5.415   6.074 -0.7133 -1.2819  2.5409
 6443SOL    HW220930   6.859   5.280   6.022  0.5020  1.1159 -2.4683
 6444SOL     OW20931   3.226   2.392   1.620  0.7713 -0.3423  0.0764
 6444SOL    HW120932   3.231   2.412   1.523  1.4328  2.9821  0.6664
 6444SOL    HW220933   3.316   2.404   1.662  0.1775 -0.1061  1.3361
 6445SOL     OW20934   3.377   1.565   0.008 -0.2838  0.3095  0.3002
 6445SOL    HW120935   3.368   1.586   0.105 -1.7695 -1.0500  0.5057
 6445SOL    HW220936   3.399   1.468  -0.003 -1.0961  0.2168 -0.7157
 6446SOL     OW20937   5.027   6.780   2.622  0.5499 -0.1416 -0.1375
 6446SOL    HW120938   5.083   6.777   2.705  0.2554 -2.3308  0.0434
 6446SOL    HW220939   5.087   6.777   2.542  0.7866 -2.4138  0.0520
 6447SOL     OW20940   6.782   3.239   1.929  0.0521 -0.6089  0.3045
 6447SOL    HW120941   6.807   3.157   1.878 -1.1046 -0.5892 -0.3264
 6447SOL    HW220942   6.731   3.212   2.011  0.4677 -0.5568  0.5834
 6448SOL     OW20943   5.245   0.171   6.511 -0.6217 -0.2905  0.7599
 6448SOL    HW120944   5.184   0.249   6.502 -0.9481 -0.6346 -0.0928
 6448SOL    HW220945   5.340   0.202   6.499 -0.8010 -0.1396 -0.4209
 6449SOL     OW20946   3.477   6.740   2.453 -0.6670  0.0415  0.0644
 6449SOL    HW120947   3.420   6.724   2.533  0.0861 -1.2136  0.3778
 6449SOL    HW220948   3.483   6.657   2.398  0.2997  0.3409 -0.3161
 6450SOL     OW20949   4.782   6.903   2.148  0.1310 -0.4725 -0.1111
 6450SOL    HW120950   4.790   6.993   2.106  1.7792 -0.9165 -0.7924
 6450SOL    HW220951   4.817   6.833   2.086 -0.6705 -1.5521  0.6036
 6451SOL     OW20952   6.195   5.430   2.431  0.2282  0.3932 -0.8033
 6451SOL    HW120953   6.109   5.473   2.457  0.9134  0.6205  1.2729
 6451SOL    HW220954   6.179   5.365   2.357 -1.4521  1.4708 -1.4529
 6452SOL     OW20955   5.552   2.692   4.257  0.4221  0.1722  0.0099
 6452SOL    HW120956   5.542   2.627   4.182 -0.2252  0.5963 -0.2768
 6452SOL    HW220957   5.547   2.785   4.221  0.2648  0.3789  0.5612
 6453SOL     OW20958   3.600   5.271   0.777 -0.2729  0.8140  0.3248
 6453SOL    HW120959   3.621   5.211   0.855 -0.5190  0.4367  0.1082
 6453SOL    HW220960   3.669   5.342   0.769  2.3827 -1.7478 -1.8008
 6454SOL     OW20961   0.708   1.907   0.049  0.2064  0.5041 -0.2985
 6454SOL    HW120962   0.690   1.810   0.037 -1.9914  0.9786 -1.2407
 6454SOL    HW220963   0.628   1.960   0.022  0.3809  2.4969  2.5707
 6455SOL     OW20964   5.579   4.632   6.097  0.5405  0.1668  0.0160
 6455SOL    HW120965   5.566   4.673   6.187 -0.4338 -0.0484 -0.0108
 6455SOL    HW220966   5.609   4.703   6.032 -0.9535  0.8421  0.0107
 6456SOL     OW20967   2.500   6.974   1.400 -0.3429  0.2864 -0.1329
 6456SOL    HW120968   2.488   6.901   1.332  1.1008  0.2115 -0.3492
 6456SOL    HW220969   2.446   6.953   1.481  0.2278 -1.1738 -0.0892
 6457SOL     OW20970   5.250   0.036   3.977  0.4650 -0.2044  0.0501
 6457SOL    HW120971   5.231  -0.055   3.942  0.0977 -0.0245 -0.2246
 6457SOL    HW220972   5.246   0.102   3.902 -0.5940  0.2222  0.4618
 6458SOL     OW20973   1.757   5.781   0.547 -0.0119  0.3432 -0.2781
 6458SOL    HW120974   1.734   5.878   0.558  1.4500  0.8337 -1.2537
 6458SOL    HW220975   1.746   5.755   0.451  0.2345 -0.2912 -0.1410
 6459SOL     OW20976   0.259   5.923   3.519 -0.2353  0.2566 -0.7481
 6459SOL    HW120977   0.198   5.862   3.569  0.5486  0.9164  1.1083
 6459SOL    HW220978   0.249   5.908   3.421  0.0069 -2.9323 -0.3838
 6460SOL     OW20979   1.052   6.781   4.557 -0.1481 -0.1405 -0.9100
 6460SOL    HW120980   1.128   6.718   4.573  0.4332  1.0565  1.5259
 6460SOL    HW220981   0.993   6.783   4.638  0.3077  2.9511 -0.5225
 6461SOL     OW20982   6.590   3.887   1.485 -0.2247 -0.0443 -0.0127
 6461SOL    HW120983   6.655   3.878   1.409  1.9383  1.3993  1.5573
 6461SOL    HW220984   6.604   3.811   1.549  1.2875  1.2214  1.2382
 6462SOL     OW20985   1.706   4.378   0.157 -0.4819 -0.0531  0.2484
 6462SOL    HW120986   1.618   4.388   0.204 -0.8644  1.0025 -0.6423
 6462SOL    HW220987   1.702   4.300   0.096 -0.9754  0.2631 -0.1318
 6463SOL     OW20988   1.689   3.365   0.401 -0.0049 -0.2484  0.3826
 6463SOL    HW120989   1.657   3.436   0.464  0.6923  0.1924  0.2494
 6463SOL    HW220990   1.767   3.399   0.348 -1.0761 -0.2946 -1.3330
 6464SOL     OW20991   3.752   1.775   6.625 -0.2656  0.1107 -0.3686
 6464SOL    HW120992   3.772   1.680   6.604  0.1521 -0.4114  2.1040
 6464SOL    HW220993   3.818   1.834   6.579  0.6252 -0.9193 -0.4428
 6465SOL     OW20994   1.621   6.339   7.007 -0.5091  0.4063  0.1454
 6465SOL    HW120995   1.567   6.377   7.082 -0.6081  1.4715 -0.4439
 6465SOL    HW220996   1.718   6.347   7.028 -0.4934  1.9461 -0.3867
 6466SOL     OW20997   5.516   0.515   7.002 -0.0164  0.0301 -0.4067
 6466SOL    HW120998   5.490   0.586   7.067 -1.5119  2.9256 -3.8422
 6466SOL    HW220999   5.437   0.491   6.945  1.3863 -1.7872 -1.7065
 6467SOL     OW21000   3.358   0.982   5.233  0.6985  0.0827 -0.0611
 6467SOL    HW121001   3.293   0.906   5.231 -1.3445  1.7651 -1.5251
 6467SOL    HW221002   3.320   1.056   5.287  0.8994  1.5084 -1.8049
 6468SOL     OW21003   2.871   0.425   0.244  0.2303 -0.5901 -0.7646
 6468SOL    HW121004   2.848   0.512   0.289 -0.3273 -1.2860  0.3243
 6468SOL    HW221005   2.791   0.390   0.196 -0.7948 -2.4300  2.0608
 6469SOL     OW21006   4.710   1.544   0.964  0.0609  0.1433  0.1531
 6469SOL    HW121007   4.667   1.456   0.984  2.5353 -0.9244  1.1269
 6469SOL    HW221008   4.691   1.570   0.869 -1.1012 -1.1825 -0.0111
 6470SOL     OW21009   4.881   3.964   0.133  0.3192 -0.1601  0.0457
 6470SOL    HW121010   4.794   4.011   0.143  0.2273 -0.6921  2.2556
 6470SOL    HW221011   4.943   4.019   0.076 -0.6522  1.3321  0.3854
 6471SOL     OW21012   3.987   5.951   5.905 -0.0203  0.5705  0.7525
 6471SOL    HW121013   3.922   5.875   5.897  0.8950 -0.0413 -1.2336
 6471SOL    HW221014   4.010   5.985   5.814  1.7158  1.4085  1.4691
 6472SOL     OW21015   6.295   2.134   4.549  0.1775  0.0758  1.0152
 6472SOL    HW121016   6.308   2.136   4.450  2.3721  0.5716  1.2606
 6472SOL    HW221017   6.216   2.190   4.573 -0.2538  0.1279 -0.4361
 6473SOL     OW21018   2.000   6.348   2.821 -0.4854 -0.1868 -0.4794
 6473SOL    HW121019   2.094   6.347   2.856 -0.3297 -0.8993 -0.9195
 6473SOL    HW221020   1.976   6.442   2.794 -0.5034  0.3376  1.2244
 6474SOL     OW21021   3.912   3.154   4.012  0.5180  0.1081 -0.3905
 6474SOL    HW121022   3.832   3.147   3.953  0.7893  2.0211 -1.0398
 6474SOL    HW221023   3.934   3.250   4.028  3.0585 -0.3399 -0.7471
 6475SOL     OW21024   4.396   3.870   4.034 -0.6656  0.4837  0.3581
 6475SOL    HW121025   4.486   3.839   4.004  0.1673  2.2658  0.8797
 6475SOL    HW221026   4.381   3.963   4.001 -2.6861 -0.0626 -0.4165
 6476SOL     OW21027   5.987   1.838   3.369 -0.0290 -0.6887 -0.2635
 6476SOL    HW121028   5.986   1.829   3.468  1.0150  0.8420 -0.0934
 6476SOL    HW221029   5.967   1.932   3.343 -0.2079 -1.0511 -1.5053
 6477SOL     OW21030   3.924   2.385   6.179 -0.2018  0.1943  0.7187
 6477SOL    HW121031   4.002   2.323   6.170 -0.1189  0.4081 -0.1198
 6477SOL    HW221032   3.957   2.480   6.185 -0.4394  0.5477 -2.3134
 6478SOL     OW21033   4.242   1.908   5.123 -0.4528 -0.7596  0.8204
 6478SOL    HW121034   4.233   1.835   5.055  1.1884  0.5665 -0.9289
 6478SOL    HW221035   4.198   1.991   5.089 -0.2448 -0.2598  1.7205
 6479SOL     OW21036   6.174   0.526   1.862  0.0003 -0.3798 -0.1459
 6479SOL    HW121037   6.270   0.496   1.860 -0.0911 -0.7678  0.7471
 6479SOL    HW221038   6.164   0.596   1.933 -0.4962 -0.7854  0.1910
 6480SOL     OW21039   0.160   1.146   3.097 -0.0256  0.0320 -0.0286
 6480SOL    HW121040   0.185   1.055   3.064  0.9421 -0.1998  1.2646
 6480SOL    HW221041   0.063   1.162   3.079  0.2427 -0.4072 -2.1317
 6481SOL     OW21042   6.110   4.035   4.129 -0.1078  0.2039 -0.0339
 6481SOL    HW121043   6.130   4.070   4.220  0.3604 -0.7622  0.2514
 6481SOL    HW221044   6.022   3.988   4.130 -0.1604  0.3003 -0.1094
 6482SOL     OW21045   2.677   6.693   5.170 -0.1294 -0.1132 -0.1095
 6482SOL    HW121046   2.647   6.638   5.092 -0.0414 -1.1731  0.5776
 6482SOL    HW221047   2.776   6.699   5.172 -0.1448  0.2318 -0.2848
 6483SOL     OW21048   5.379   3.767   4.419  0.5515 -0.2097 -0.6826
 6483SOL    HW121049   5.464   3.806   4.385  0.3611  0.0198 -0.8996
 6483SOL    HW221050   5.359   3.681   4.371 -0.1092  0.4953 -1.7171
 6484SOL     OW21051   6.901   5.927   6.457 -0.1324 -0.1099  0.4268
 6484SOL    HW121052   6.825   5.867   6.433  0.0021 -0.4346  0.7814
 6484SOL    HW221053   6.975   5.872   6.495 -0.5989  0.4269  2.2208
 6485SOL     OW21054   1.209   3.902   2.302 -0.1365  0.0186  0.1792
 6485SOL    HW121055   1.253   3.906   2.392  2.8779 -0.9880 -1.0884
 6485SOL    HW221056   1.220   3.990   2.256 -1.7008  0.5417  0.7618
 6486SOL     OW21057   0.842   3.387   4.931 -0.5793 -0.2775  0.4315
 6486SOL    HW121058   0.899   3.337   4.866 -3.4511 -2.1117 -0.8720
 6486SOL    HW221059   0.890   3.470   4.960  2.2804 -1.1808 -1.2517
 6487SOL     OW21060   3.935   4.884   5.737  0.0757 -0.1490 -0.5690
 6487SOL    HW121061   4.018   4.933   5.762 -0.2668  0.6651 -0.9872
 6487SOL    HW221062   3.951   4.832   5.653  0.3492 -0.5054 -0.2974
 6488SOL     OW21063   3.965   6.787   6.022  0.3597  0.1627 -0.5395
 6488SOL    HW121064   4.061   6.814   6.033  1.0384 -2.4703  0.7886
 6488SOL    HW221065   3.950   6.698   6.064 -2.9607  0.9434  0.2400
 6489SOL     OW21066   0.702   4.934   2.115  0.2883 -0.5875 -0.2853
 6489SOL    HW121067   0.759   4.891   2.185  0.2034 -1.6969 -0.8765
 6489SOL    HW221068   0.620   4.973   2.157  0.4671 -0.8327  0.2881
 6490SOL     OW21069   6.416   0.449   1.474  0.3083  0.8728 -0.5918
 6490SOL    HW121070   6.342   0.475   1.412  1.6745  0.0632 -2.6726
 6490SOL    HW221071   6.387   0.371   1.530  0.0071 -0.4292 -2.4520
 6491SOL     OW21072   5.066   6.098   6.728 -0.1042  0.4894  0.4944
 6491SOL    HW121073   5.083   6.186   6.771  0.2084  1.1981 -1.0024
 6491SOL    HW221074   5.147   6.040   6.738 -0.0397  0.6379  0.8480
 6492SOL     OW21075   6.486   0.338   4.394 -0.1602 -0.1819  0.1898
 6492SOL    HW121076   6.585   0.337   4.379  0.0764  0.7681  1.4672
 6492SOL    HW221077   6.439   0.310   4.310  1.1630  0.1646 -0.7007
 6493SOL     OW21078   1.606   6.060   0.571 -0.2223  0.3842  0.3116
 6493SOL    HW121079   1.677   6.108   0.624  1.1834 -2.1157  0.8533
 6493SOL    HW221080   1.527   6.044   0.629 -0.2064  0.9141  0.4916
 6494SOL     OW21081   1.141   3.775   5.662  0.1694  0.0446  0.6393
 6494SOL    HW121082   1.082   3.855   5.673  0.4058  0.3448 -0.1726
 6494SOL    HW221083   1.114   3.725   5.580 -0.2828 -0.9899  1.3996
 6495SOL     OW21084   1.961   0.009   5.125  0.0725  0.1490 -0.4477
 6495SOL    HW121085   2.057   0.013   5.097  0.3089  0.9664  0.4511
 6495SOL    HW221086   1.955   0.011   5.224 -0.8307 -1.2222 -0.4527
 6496SOL     OW21087   3.616   3.663   5.280 -0.0195  0.0318 -0.4751
 6496SOL    HW121088   3.546   3.692   5.345  0.0350  0.1850 -0.4847
 6496SOL    HW221089   3.686   3.610   5.328 -0.2686 -0.3357 -0.5090
 6497SOL     OW21090   3.436   1.320   6.915 -0.0114 -0.0838 -0.2049
 6497SOL    HW121091   3.485   1.320   6.827 -0.6493 -0.3883 -0.5714
 6497SOL    HW221092   3.435   1.227   6.952  0.9002  0.1755  0.5029
 6498SOL     OW21093   4.438   4.817   4.056  0.1022 -0.4915 -0.1866
 6498SOL    HW121094   4.461   4.808   3.959 -1.9801  1.4327 -0.9658
 6498SOL    HW221095   4.348   4.779   4.073 -0.1404  0.4068  0.6674
 6499SOL     OW21096   5.932   5.642   6.206  0.0117  0.3532  1.0003
 6499SOL    HW121097   5.849   5.601   6.244 -0.5324 -0.8947 -1.3754
 6499SOL    HW221098   6.010   5.621   6.266 -0.9651 -0.4887  2.0246
 6500SOL     OW21099   4.239   1.852   6.665 -0.3995  0.0478  0.0692
 6500SOL    HW121100   4.281   1.939   6.638 -2.3733  0.8360 -0.5713
 6500SOL    HW221101   4.197   1.808   6.586 -0.8464 -0.6852  0.6988
 6501SOL     OW21102   1.526   2.812   4.895 -0.6240  0.2411 -0.0920
 6501SOL    HW121103   1.477   2.803   4.981  0.6561 -3.1428  0.4714
 6501SOL    HW221104   1.623   2.791   4.909  0.0215  1.5947 -2.0412
 6502SOL     OW21105   1.186   0.141   5.060  0.1858  0.0970  0.0470
 6502SOL    HW121106   1.184   0.157   4.961 -2.3325 -0.9521 -0.1489
 6502SOL    HW221107   1.105   0.182   5.102  1.0059  0.1502  1.6414
 6503SOL     OW21108   1.917   1.877   2.133  0.4161  0.4646  0.4109
 6503SOL    HW121109   1.856   1.951   2.162  0.6145  0.6098  0.4643
 6503SOL    HW221110   1.879   1.790   2.162  0.2988  0.5643  0.5600
 6504SOL     OW21111   5.237   1.372   2.687  0.4417 -0.1575  0.4717
 6504SOL    HW121112   5.166   1.309   2.657  1.5174 -1.4614  0.5459
 6504SOL    HW221113   5.303   1.386   2.612  0.4189  0.5961  0.5825
 6505SOL     OW21114   2.582   5.976   3.368 -0.0733 -0.5063 -0.0691
 6505SOL    HW121115   2.639   6.045   3.412 -0.6027 -0.0709 -0.0620
 6505SOL    HW221116   2.608   5.967   3.272  0.7007 -1.0526  0.1794
 6506SOL     OW21117   4.694   0.521   2.273 -0.0178  0.3803  0.4631
 6506SOL    HW121118   4.725   0.557   2.185  0.6738  0.3160  0.6776
 6506SOL    HW221119   4.604   0.560   2.295 -0.0934  0.5714 -0.1597
 6507SOL     OW21120   6.353   6.396   6.069  0.0050  0.4487 -0.2714
 6507SOL    HW121121   6.402   6.319   6.029 -1.7390 -1.2425  0.6705
 6507SOL    HW221122   6.339   6.467   6.000  1.3218 -0.2133 -1.2655
 6508SOL     OW21123   1.366   4.296   3.086  0.3592 -0.1676  0.0965
 6508SOL    HW121124   1.272   4.324   3.065  0.7918  1.9892  0.7489
 6508SOL    HW221125   1.371   4.196   3.090 -1.2567 -0.4738 -2.7705
 6509SOL     OW21126   2.170   2.420   1.577 -0.4457  0.2231  0.3266
 6509SOL    HW121127   2.092   2.468   1.619  0.0192  0.4713  0.9222
 6509SOL    HW221128   2.182   2.453   1.483  0.1606  1.6446  0.8799
 6510SOL     OW21129   2.232   4.028   1.567 -0.1269  0.0619  0.5023
 6510SOL    HW121130   2.290   4.039   1.648  1.4607 -1.2486 -0.3926
 6510SOL    HW221131   2.223   3.930   1.546 -0.2435  0.3957 -1.0791
 6511SOL     OW21132   1.726   3.653   0.308  0.2030  0.2765 -0.3042
 6511SOL    HW121133   1.767   3.699   0.387  1.7686 -0.9740 -0.3295
 6511SOL    HW221134   1.695   3.721   0.242  2.3262  1.3522 -0.2956
 6512SOL     OW21135   0.738   6.170   4.079 -0.4552  0.7622 -0.0860
 6512SOL    HW121136   0.813   6.201   4.137  0.8185 -0.5665 -0.9696
 6512SOL    HW221137   0.709   6.079   4.107 -0.3341  0.4225 -1.0288
 6513SOL     OW21138   6.729   2.264   0.986  0.1934 -0.2398 -0.8174
 6513SOL    HW121139   6.778   2.340   1.028 -0.1632 -1.1609  1.3840
 6513SOL    HW221140   6.706   2.196   1.056 -1.1260 -1.5049 -2.3984
 6514SOL     OW21141   0.202   2.962   1.291  0.7897  0.2522  0.5815
 6514SOL    HW121142   0.153   2.921   1.214  0.2880  0.9332  0.5292
 6514SOL    HW221143   0.169   3.055   1.306  1.2754  0.3230  1.2702
 6515SOL     OW21144   2.710   6.227   5.368  0.6807  0.2842 -0.3831
 6515SOL    HW121145   2.610   6.226   5.377  0.6157  0.9675 -0.9526
 6515SOL    HW221146   2.751   6.244   5.458  0.2192  1.7227 -0.4209
 6516SOL     OW21147   4.584   3.451   5.707  0.0296  0.0260  0.2637
 6516SOL    HW121148   4.598   3.482   5.613  0.1438  0.8239  0.5301
 6516SOL    HW221149   4.575   3.352   5.709 -1.4789  0.1075 -0.7696
 6517SOL     OW21150   6.869   0.992   0.154 -0.0081  0.2089 -0.0075
 6517SOL    HW121151   6.874   0.982   0.254  1.4092  0.3003 -0.0555
 6517SOL    HW221152   6.781   1.032   0.130 -0.3424  0.2637  1.2137
 6518SOL     OW21153   6.760   2.325   6.472 -0.3635 -0.5747 -0.2132
 6518SOL    HW121154   6.818   2.407   6.470 -1.2324  0.0446 -0.3945
 6518SOL    HW221155   6.794   2.259   6.405 -0.0862 -0.0600 -0.5857
 6519SOL     OW21156   5.027   6.386   6.820  0.7789  0.7691 -0.3234
 6519SOL    HW121157   4.998   6.419   6.910 -0.1983  0.0307 -0.3494
 6519SOL    HW221158   4.976   6.434   6.749  1.3073  1.1088 -0.4834
 6520SOL     OW21159   1.179   1.640   6.056 -0.7730  0.0256 -0.0189
 6520SOL    HW121160   1.244   1.584   6.005 -1.9686 -1.4914  0.0372
 6520SOL    HW221161   1.095   1.651   6.002 -0.6999  1.4978  0.1227
 6521SOL     OW21162   5.589   5.167   1.265 -0.0556  0.3964 -0.6468
 6521SOL    HW121163   5.494   5.195   1.282  0.0409 -0.2357  1.2491
 6521SOL    HW221164   5.594   5.067   1.263  0.4052  0.4347 -1.9658
 6522SOL     OW21165   2.879   0.691   1.974 -0.4294 -0.1825  0.2558
 6522SOL    HW121166   2.877   0.605   1.923  0.6968  0.2957 -0.6284
 6522SOL    HW221167   2.807   0.751   1.940 -0.4603 -0.3222  0.0731
 6523SOL     OW21168   4.234   2.469   2.316  0.0423  0.3195 -0.0841
 6523SOL    HW121169   4.195   2.438   2.230 -3.1110  2.2288  0.4821
 6523SOL    HW221170   4.165   2.462   2.388  1.3963  2.0959  1.4984
 6524SOL     OW21171   6.046   5.870   0.671 -0.3799  0.0354 -0.1775
 6524SOL    HW121172   6.067   5.967   0.661  0.5397 -0.1873 -0.4694
 6524SOL    HW221173   6.067   5.822   0.586 -0.0791 -0.5482  0.2166
 6525SOL     OW21174   6.019   3.914   5.894 -0.3276  0.0350  0.5403
 6525SOL    HW121175   6.064   3.891   5.807  0.2404 -0.0298  0.8420
 6525SOL    HW221176   6.039   3.843   5.961 -2.8385 -1.2568  0.0504
 6526SOL     OW21177   1.356   4.041   3.521  0.2224 -0.7138  0.4849
 6526SOL    HW121178   1.363   4.022   3.619  0.1562  2.5541  1.2111
 6526SOL    HW221179   1.446   4.067   3.485 -0.0976 -0.1104  0.1067
 6527SOL     OW21180   1.053   5.302   5.408 -0.3997 -0.7768  0.1023
 6527SOL    HW121181   0.982   5.247   5.364 -0.1047 -1.3553  0.3297
 6527SOL    HW221182   1.062   5.389   5.361  0.0847 -1.4784 -1.1576
 6528SOL     OW21183   2.827   0.940   3.245 -0.0651  0.0771 -0.0706
 6528SOL    HW121184   2.737   0.950   3.288 -0.0990  1.5503 -0.4311
 6528SOL    HW221185   2.818   0.889   3.160 -0.4382 -0.3951  0.2462
 6529SOL     OW21186   5.340   2.146   4.878 -0.2112 -0.0260 -0.1744
 6529SOL    HW121187   5.407   2.075   4.858 -0.5725  0.0619 -1.8370
 6529SOL    HW221188   5.302   2.181   4.792 -1.8599  0.4282  0.7047
 6530SOL     OW21189   2.743   0.386   6.139  0.3094  0.3838  0.3253
 6530SOL    HW121190   2.715   0.367   6.045  0.2410  1.0213  0.2100
 6530SOL    HW221191   2.709   0.313   6.199 -1.1152  0.8251  0.0984
 6531SOL     OW21192   6.115   4.619   4.884  0.1913  1.0302 -0.0013
 6531SOL    HW121193   6.204   4.663   4.875  0.5088  0.7675  1.5554
 6531SOL    HW221194   6.128   4.523   4.911 -0.5668  1.1152  0.7006
 6532SOL     OW21195   2.701   5.826   5.374 -0.5933 -0.0518 -0.5793
 6532SOL    HW121196   2.605   5.845   5.394 -1.0774 -1.7334 -1.1658
 6532SOL    HW221197   2.729   5.880   5.294 -0.6029  1.4874  0.3957
 6533SOL     OW21198   4.710   2.813   6.747  0.0093  0.1141  0.3305
 6533SOL    HW121199   4.754   2.902   6.749 -0.4342  0.3494 -0.1159
 6533SOL    HW221200   4.636   2.814   6.679 -1.1615 -0.0377  1.5651
 6534SOL     OW21201   6.567   2.659   0.955 -0.9060  0.3656 -0.1514
 6534SOL    HW121202   6.530   2.749   0.934 -1.0622  0.6881  1.3966
 6534SOL    HW221203   6.524   2.591   0.895  0.1174  1.4287 -2.1997
 6535SOL     OW21204   5.066   4.709   1.214  0.2058  0.3813 -0.1507
 6535SOL    HW121205   5.163   4.729   1.198  0.7329 -1.9933 -0.3088
 6535SOL    HW221206   5.055   4.668   1.304 -0.8276  1.4931  0.2513
 6536SOL     OW21207   1.230   2.305   5.897 -0.3316 -0.1430 -0.1261
 6536SOL    HW121208   1.252   2.295   5.800 -0.4390 -1.5729 -0.0232
 6536SOL    HW221209   1.134   2.328   5.908  0.0295  1.5974 -0.4023
 6537SOL     OW21210   6.418   4.277   3.751  0.0278 -0.7662  0.3103
 6537SOL    HW121211   6.483   4.234   3.689 -0.9657  0.2069 -1.4991
 6537SOL    HW221212   6.420   4.231   3.839  1.9437 -1.8098 -0.2303
 6538SOL     OW21213   6.167   6.371   5.338  0.2103  0.5319  0.6833
 6538SOL    HW121214   6.069   6.375   5.325  0.2559  0.8556  0.4478
 6538SOL    HW221215   6.214   6.377   5.250  0.4219 -0.3979  0.7216
 6539SOL     OW21216   2.058   0.817   2.000 -0.0013  0.1080 -0.0928
 6539SOL    HW121217   2.106   0.899   1.970  1.1038 -0.0667  1.1024
 6539SOL    HW221218   2.097   0.786   2.086  0.1031 -2.0923 -0.8742
 6540SOL     OW21219   5.177   0.033   5.666 -0.3172 -0.5007  0.7692
 6540SOL    HW121220   5.251  -0.005   5.722  1.7337  1.3412 -0.5286
 6540SOL    HW221221   5.171  -0.018   5.580  2.0332  1.4948 -0.7127
 6541SOL     OW21222   1.017   6.012   3.422  0.3264 -0.4824  0.1693
 6541SOL    HW121223   1.000   5.916   3.441  2.5681 -0.8293  0.6899
 6541SOL    HW221224   0.979   6.069   3.495 -0.3892 -1.0123  0.2131
 6542SOL     OW21225   1.580   0.657   2.499  0.1414  0.0170 -0.5611
 6542SOL    HW121226   1.591   0.558   2.499  1.4385  0.0756 -2.8967
 6542SOL    HW221227   1.518   0.683   2.426  0.6779  0.9685 -0.6988
 6543SOL     OW21228   3.972   5.198   0.861 -0.4334  0.0202  0.1283
 6543SOL    HW121229   3.992   5.296   0.867 -0.1398  0.1044 -1.5832
 6543SOL    HW221230   3.876   5.182   0.881 -0.0371  0.3638  2.5613
 6544SOL     OW21231   1.755   2.318   1.973 -0.0416  0.4059 -0.9937
 6544SOL    HW121232   1.726   2.407   2.008 -1.5649  0.3455 -2.0130
 6544SOL    HW221233   1.835   2.330   1.913  0.0583  1.0142 -0.7468
 6545SOL     OW21234   3.226   4.373   6.225 -0.8253  0.1847 -0.8018
 6545SOL    HW121235   3.165   4.294   6.214 -1.8902  0.7824  0.5517
 6545SOL    HW221236   3.176   4.457   6.203 -0.0437  0.5788 -1.0980
 6546SOL     OW21237   3.895   0.694   2.034  0.5836  0.6195  0.0953
 6546SOL    HW121238   3.835   0.668   1.958  1.9039  0.1336 -0.8316
 6546SOL    HW221239   3.844   0.691   2.120 -0.4301 -0.8460 -0.5201
 6547SOL     OW21240   5.171   6.352   3.953 -0.1386  0.0064 -0.2369
 6547SOL    HW121241   5.080   6.390   3.965 -0.4900 -0.5362 -1.0886
 6547SOL    HW221242   5.165   6.255   3.930  0.7691 -0.7607  2.4721
 6548SOL     OW21243   4.194   6.084   2.204 -0.2120  0.7115  0.6243
 6548SOL    HW121244   4.249   6.160   2.237  0.2056  1.0469 -0.8064
 6548SOL    HW221245   4.107   6.119   2.168  0.3703  0.6323 -0.8990
 6549SOL     OW21246   4.479   1.687   6.672 -0.6080 -0.1962 -0.1692
 6549SOL    HW121247   4.390   1.734   6.667 -0.1607  0.6253 -0.7092
 6549SOL    HW221248   4.475   1.603   6.618 -0.6373  0.5749 -1.4090
 6550SOL     OW21249   0.217   1.219   2.117 -0.3870 -0.1595  0.7389
 6550SOL    HW121250   0.142   1.284   2.106 -1.0661 -0.6776  2.0904
 6550SOL    HW221251   0.215   1.182   2.210  1.3468 -0.4417  0.6840
 6551SOL     OW21252   2.009   2.799   0.782 -0.3814  0.0384 -0.9303
 6551SOL    HW121253   1.952   2.803   0.864  0.0025 -0.9120 -0.6021
 6551SOL    HW221254   2.104   2.818   0.807 -0.4874  1.2532 -1.4150
 6552SOL     OW21255   4.646   1.617   0.159  0.1253  0.2843 -0.0683
 6552SOL    HW121256   4.729   1.635   0.213 -0.0242  0.1317  0.2168
 6552SOL    HW221257   4.567   1.621   0.219 -0.0163 -0.2048 -0.2185
 6553SOL     OW21258   5.501   4.331   6.308  0.1696  0.1484 -0.7914
 6553SOL    HW121259   5.486   4.416   6.357  0.0782 -0.2613 -0.1021
 6553SOL    HW221260   5.587   4.289   6.338 -0.1125 -0.3328 -0.6372
 6554SOL     OW21261   2.871   0.154   0.912 -0.2869 -0.0846  0.3907
 6554SOL    HW121262   2.850   0.218   0.986  2.3781  0.4894  0.7648
 6554SOL    HW221263   2.923   0.202   0.841  0.9083 -1.6032  0.1932
 6555SOL     OW21264   1.501   6.347   4.646 -0.2835 -0.3026  0.0136
 6555SOL    HW121265   1.534   6.256   4.671  0.6107  0.3048  1.1563
 6555SOL    HW221266   1.448   6.386   4.721  1.6412  1.1779  0.7009
 6556SOL     OW21267   3.999   3.014   1.489  0.4084 -0.1299  0.7730
 6556SOL    HW121268   4.004   2.985   1.393  0.5672 -1.7242  1.2273
 6556SOL    HW221269   4.091   3.037   1.522  0.4918 -0.5094  0.8065
 6557SOL     OW21270   2.914   1.690   5.888  0.3637 -0.0023  0.1371
 6557SOL    HW121271   2.957   1.772   5.926 -0.5707  1.0541 -0.9782
 6557SOL    HW221272   2.905   1.700   5.789 -0.9311 -0.8932  0.1377
 6558SOL     OW21273   0.668   1.550   1.703  0.2299 -0.5899 -0.2492
 6558SOL    HW121274   0.640   1.532   1.797  1.5171 -3.4910 -0.3012
 6558SOL    HW221275   0.617   1.491   1.640  0.8719 -0.2276 -1.1459
 6559SOL     OW21276   4.897   2.294   4.255  0.5387 -0.1740 -0.6208
 6559SOL    HW121277   4.808   2.250   4.242 -0.1296  0.8311  0.3854
 6559SOL    HW221278   4.912   2.362   4.182 -0.3907  1.0006  0.2473
 6560SOL     OW21279   0.143   5.883   2.707 -0.1550 -0.0642 -0.8511
 6560SOL    HW121280   0.143   5.786   2.731  1.0952 -0.1292 -1.0279
 6560SOL    HW221281   0.065   5.928   2.750 -0.1348 -0.9347  0.1475
 6561SOL     OW21282   1.948   2.791   5.530  0.3322  0.5590 -0.2745
 6561SOL    HW121283   1.969   2.858   5.601  1.2222 -0.1034  0.0998
 6561SOL    HW221284   2.011   2.714   5.537 -0.3447 -0.0802 -1.0279
 6562SOL     OW21285   3.018   0.707   6.247 -0.4773 -0.3912 -0.2352
 6562SOL    HW121286   2.986   0.684   6.155 -1.4536 -3.0012  0.6643
 6562SOL    HW221287   3.102   0.656   6.267 -0.3075  0.0984  0.3331
 6563SOL     OW21288   2.540   4.448   0.862  0.1889  0.2208  0.3019
 6563SOL    HW121289   2.606   4.430   0.935  0.4537  0.6120  0.1628
 6563SOL    HW221290   2.544   4.374   0.795 -0.9656 -0.8033  1.3160
 6564SOL     OW21291   3.589   0.795   0.179 -0.4170 -0.2453  0.1961
 6564SOL    HW121292   3.644   0.835   0.253  0.6968 -0.3951 -0.5278
 6564SOL    HW221293   3.589   0.857   0.101  1.3704 -1.6033 -0.9581
 6565SOL     OW21294   6.486   2.179   4.106  0.0811 -0.4067 -0.0154
 6565SOL    HW121295   6.542   2.096   4.106 -0.7425 -0.9770  0.5291
 6565SOL    HW221296   6.512   2.236   4.029  1.1487 -0.8331  0.0007
 6566SOL     OW21297   1.052   3.574   2.187  0.3506 -0.4293 -0.5487
 6566SOL    HW121298   1.131   3.636   2.190  0.8177 -1.0512  1.2209
 6566SOL    HW221299   0.997   3.588   2.269 -0.6839 -0.9227 -1.1462
 6567SOL     OW21300   2.326   3.910   2.015  0.4890  0.6274  0.1480
 6567SOL    HW121301   2.279   3.994   2.044 -0.8033  0.0922 -0.3156
 6567SOL    HW221302   2.268   3.831   2.035  0.4276  0.0782 -2.0291
 6568SOL     OW21303   1.464   1.122   6.652  0.1908 -0.9976  0.0453
 6568SOL    HW121304   1.430   1.115   6.746  0.0223 -2.9798 -0.1077
 6568SOL    HW221305   1.417   1.054   6.595 -0.7339  1.0843 -1.8284
 6569SOL     OW21306   1.474   5.030   2.444 -0.5069 -0.4803  0.3295
 6569SOL    HW121307   1.570   5.008   2.461 -0.2910  0.1488 -0.0351
 6569SOL    HW221308   1.453   5.013   2.347 -0.4659  0.3990  0.1526
 6570SOL     OW21309   2.287   6.867   6.888  0.0150  0.2050  0.1364
 6570SOL    HW121310   2.291   6.797   6.817 -0.0085  0.7103 -0.3691
 6570SOL    HW221311   2.304   6.825   6.978 -2.9064 -1.0177  0.2422
 6571SOL     OW21312   4.876   1.322   2.780 -0.2396 -0.5271  0.6431
 6571SOL    HW121313   4.829   1.402   2.819  1.0905 -0.3053  1.8773
 6571SOL    HW221314   4.971   1.322   2.809 -0.0957 -2.3279  0.2764
 6572SOL     OW21315   3.628   5.541   1.125  0.4355  0.0375  0.3048
 6572SOL    HW121316   3.659   5.464   1.181 -1.5444 -1.4851 -0.5767
 6572SOL    HW221317   3.533   5.563   1.146  0.4402  1.1256 -0.6648
 6573SOL     OW21318   1.921   6.076   1.887  0.4722 -0.3972  0.1805
 6573SOL    HW121319   1.987   6.010   1.922  1.1808  0.0836 -0.2222
 6573SOL    HW221320   1.951   6.169   1.910 -0.3008 -0.1923  0.3917
 6574SOL     OW21321   5.196   1.784   2.588 -0.5099 -0.0889 -0.2498
 6574SOL    HW121322   5.263   1.785   2.514  0.5845  0.0636  0.7198
 6574SOL    HW221323   5.114   1.735   2.557  0.1542 -0.5606 -1.3496
 6575SOL     OW21324   6.776   5.781   5.832 -0.2994  0.6811 -0.0527
 6575SOL    HW121325   6.705   5.721   5.794 -1.2361  1.3892  0.5237
 6575SOL    HW221326   6.745   5.876   5.826  0.8571  1.0610 -0.3046
 6576SOL     OW21327   3.003   2.142   0.675  0.0985 -0.4679 -0.5110
 6576SOL    HW121328   2.988   2.105   0.767 -0.9835 -0.1756 -0.5556
 6576SOL    HW221329   3.049   2.230   0.682 -0.3786 -0.2341 -0.2145
 6577SOL     OW21330   2.224   4.883   3.216 -0.1308  0.3833  0.1907
 6577SOL    HW121331   2.234   4.922   3.307  1.2182 -0.0682  0.2621
 6577SOL    HW221332   2.295   4.814   3.201 -1.7692 -1.2617 -0.3567
 6578SOL     OW21333   2.058   1.377   4.477  0.2489  0.2214 -0.0030
 6578SOL    HW121334   1.996   1.305   4.509 -0.1882  1.2402  1.5684
 6578SOL    HW221335   2.141   1.376   4.532  0.0421  1.2006  0.3444
 6579SOL     OW21336   5.987   3.697   4.840 -0.3426  0.0797  0.2047
 6579SOL    HW121337   6.064   3.635   4.853  0.9220  1.3630 -0.8092
 6579SOL    HW221338   5.926   3.661   4.770  0.5782  0.1377 -0.6450
 6580SOL     OW21339   3.823   6.388   5.247 -0.0733 -0.7858  0.3188
 6580SOL    HW121340   3.871   6.372   5.333 -0.1692 -0.0988  0.5060
 6580SOL    HW221341   3.731   6.348   5.252 -0.2251 -0.3989  0.6888
 6581SOL     OW21342   2.291   1.523   1.691  0.1802  0.5226 -0.0774
 6581SOL    HW121343   2.264   1.562   1.779 -0.1744  0.2814 -0.0791
 6581SOL    HW221344   2.348   1.589   1.642 -1.7513  1.7531 -0.7833
 6582SOL     OW21345   2.646   0.384   3.802  0.5211  0.3229 -0.0060
 6582SOL    HW121346   2.561   0.342   3.833 -0.1498  0.5037 -1.5139
 6582SOL    HW221347   2.654   0.475   3.842 -0.3432  0.5739 -0.3810
 6583SOL     OW21348   2.471   6.701   6.237  0.3375 -0.0325  0.1635
 6583SOL    HW121349   2.512   6.630   6.179  1.2506  0.3533  0.3175
 6583SOL    HW221350   2.441   6.660   6.323 -0.2202 -0.4428 -0.2177
 6584SOL     OW21351   4.687   2.165   0.653 -0.1210  0.2598 -0.0703
 6584SOL    HW121352   4.689   2.260   0.684 -0.8378  0.5064 -0.7502
 6584SOL    HW221353   4.731   2.158   0.564  0.5763 -0.1829  0.2969
 6585SOL     OW21354   4.360   6.009   6.769 -0.3643 -0.7133  0.1951
 6585SOL    HW121355   4.288   6.065   6.727 -0.3402 -0.4943  0.4396
 6585SOL    HW221356   4.318   5.935   6.821 -0.4188 -0.5178  0.4323
 6586SOL     OW21357   3.108   6.532   3.855 -0.3843 -0.0953 -0.3644
 6586SOL    HW121358   3.062   6.445   3.838  0.8094 -0.9468  0.6004
 6586SOL    HW221359   3.061   6.579   3.930 -0.9304  0.0403 -0.7773
 6587SOL     OW21360   3.862   2.881   6.768  0.1460  0.9422  0.4863
 6587SOL    HW121361   3.921   2.932   6.705 -1.2000  1.4432 -0.4329
 6587SOL    HW221362   3.800   2.945   6.815 -0.4033  0.3385  0.5999
 6588SOL     OW21363   0.649   1.942   4.645  0.2245  0.1659  0.1041
 6588SOL    HW121364   0.627   1.961   4.550 -1.2713  3.0289  0.8786
 6588SOL    HW221365   0.729   1.995   4.673  0.5241 -0.4789  0.4965
 6589SOL     OW21366   0.372   6.693   0.322 -0.1795  0.0636  0.0497
 6589SOL    HW121367   0.375   6.744   0.408  1.6236 -0.2986  0.2540
 6589SOL    HW221368   0.436   6.734   0.257 -0.8145 -0.2498 -0.7928
 6590SOL     OW21369   1.884   1.631   2.498  0.0685  0.0863 -0.3457
 6590SOL    HW121370   1.904   1.543   2.540  0.7903  1.2881  2.0389
 6590SOL    HW221371   1.802   1.671   2.541  0.0500  0.7991 -1.0181
 6591SOL     OW21372   2.377   0.751   4.793 -0.1410 -0.1247  0.2653
 6591SOL    HW121373   2.368   0.847   4.820 -1.1077  0.1003 -0.7479
 6591SOL    HW221374   2.447   0.707   4.848  0.2165  1.1274  0.8519
 6592SOL     OW21375   2.421   2.170   6.453  0.2650 -0.0395  0.7989
 6592SOL    HW121376   2.420   2.222   6.368 -1.6989  1.5284  1.7147
 6592SOL    HW221377   2.328   2.139   6.475  0.3714  1.1756  3.2753
 6593SOL     OW21378   0.683   0.956   6.750 -0.1220  0.2180 -0.0251
 6593SOL    HW121379   0.643   1.029   6.694  0.1088  0.7416  0.4707
 6593SOL    HW221380   0.643   0.868   6.725 -2.6037  0.8482  1.3357
 6594SOL     OW21381   1.163   0.842   6.958  0.2553 -0.1202 -0.7188
 6594SOL    HW121382   1.173   0.937   6.927  1.2474  0.2902  0.7617
 6594SOL    HW221383   1.089   0.798   6.907 -1.2281  1.9025 -0.4185
 6595SOL     OW21384   5.283   0.453   0.616  0.0075 -0.4094 -0.2188
 6595SOL    HW121385   5.205   0.432   0.675 -1.0251  0.2863 -1.3022
 6595SOL    HW221386   5.317   0.369   0.575 -1.2416 -0.5425 -1.0296
 6596SOL     OW21387   6.372   6.018   6.484  0.4590  0.0940 -0.2507
 6596SOL    HW121388   6.273   6.024   6.490  0.4247 -1.3731  2.0662
 6596SOL    HW221389   6.401   6.030   6.389 -1.9197  0.3989 -0.9971
 6597SOL     OW21390   3.580   6.264   3.709  0.2065 -0.1812 -0.3036
 6597SOL    HW121391   3.612   6.350   3.749 -1.9308 -0.2148  1.6841
 6597SOL    HW221392   3.638   6.189   3.741  1.7918  0.4036 -1.6696
 6598SOL     OW21393   0.663   5.669   1.897 -0.1235 -0.4596 -0.3455
 6598SOL    HW121394   0.579   5.687   1.948 -1.0446  1.2499 -2.3087
 6598SOL    HW221395   0.720   5.751   1.895 -0.1217 -0.4593 -2.0182
 6599SOL     OW21396   4.959   4.698   5.856  0.0600 -0.0625 -0.0549
 6599SOL    HW121397   4.958   4.614   5.910 -2.1563 -0.1912 -0.2065
 6599SOL    HW221398   4.909   4.769   5.905 -1.6707 -0.0692 -1.7066
 6600SOL     OW21399   0.414   4.519   5.061 -0.5457 -0.0646  0.0415
 6600SOL    HW121400   0.431   4.526   4.962 -0.0925 -0.5906  0.0798
 6600SOL    HW221401   0.460   4.595   5.108  0.4633 -0.6171 -0.0144
 6601SOL     OW21402   2.212   0.233   1.543  0.2485  0.0196  0.1263
 6601SOL    HW121403   2.151   0.189   1.608  1.5086 -0.1300  1.2411
 6601SOL    HW221404   2.208   0.333   1.555  1.0074 -0.0414  0.9345
 6602SOL     OW21405   0.573   0.702   6.684 -0.1603 -0.0790  0.1276
 6602SOL    HW121406   0.478   0.708   6.653 -0.6771  0.8430  1.7659
 6602SOL    HW221407   0.575   0.703   6.784  1.5825 -0.3016  0.1195
 6603SOL     OW21408   3.078   3.732   3.255 -0.1528  0.1673 -0.1032
 6603SOL    HW121409   3.083   3.683   3.343  1.4582 -3.0065 -1.7980
 6603SOL    HW221410   3.039   3.671   3.186  0.3594  1.9194 -2.0152
 6604SOL     OW21411   1.709   3.371   6.586  0.2944  0.5242 -0.2796
 6604SOL    HW121412   1.764   3.331   6.513 -0.2886 -0.1596 -0.3558
 6604SOL    HW221413   1.750   3.457   6.615  1.4080  0.0280 -0.3284
 6605SOL     OW21414   4.687   6.323   3.951  0.0652  0.1123  0.3735
 6605SOL    HW121415   4.634   6.384   3.892  0.6765  0.7035  0.4171
 6605SOL    HW221416   4.698   6.235   3.907 -0.9332 -0.0135  0.3579
 6606SOL     OW21417   1.671   4.728   1.272 -0.0774  0.7119  0.3129
 6606SOL    HW121418   1.714   4.672   1.343 -0.8799 -0.0746  0.2036
 6606SOL    HW221419   1.740   4.759   1.207  0.6519  1.3262  1.3364
 6607SOL     OW21420   2.493   6.840   3.068 -0.3784  0.2769  0.4626
 6607SOL    HW121421   2.493   6.777   2.991  1.2721  1.1045 -0.2735
 6607SOL    HW221422   2.509   6.789   3.153  0.5004 -0.3719 -0.0734
 6608SOL     OW21423   2.796   6.216   3.026 -0.0828  0.0797  0.2677
 6608SOL    HW121424   2.778   6.117   3.025 -0.3308  0.1159 -1.3533
 6608SOL    HW221425   2.876   6.234   3.083 -0.0060 -1.0599  0.5524
 6609SOL     OW21426   1.458   5.050   3.572 -0.0922  0.7246  0.1591
 6609SOL    HW121427   1.367   5.012   3.552  0.4207 -0.2162 -0.4243
 6609SOL    HW221428   1.525   4.976   3.573  0.7174  1.4570  0.3166
 6610SOL     OW21429   2.208   5.263   1.971  0.5384  0.2969 -0.0014
 6610SOL    HW121430   2.297   5.297   1.941  0.5502 -0.9306 -1.4538
 6610SOL    HW221431   2.136   5.321   1.933  0.6765  1.2819  1.1632
 6611SOL     OW21432   6.005   0.206   5.837  0.4555  0.3199  0.3996
 6611SOL    HW121433   5.983   0.196   5.934 -0.9775 -1.0731 -0.0208
 6611SOL    HW221434   5.951   0.280   5.798 -1.4942 -1.2107  0.0131
 6612SOL     OW21435   3.884   6.609   0.491  0.3156 -0.0632  0.2576
 6612SOL    HW121436   3.983   6.610   0.475  0.1821  1.3520 -0.6518
 6612SOL    HW221437   3.836   6.615   0.403 -0.6204 -2.1014  0.5854
 6613SOL     OW21438   5.583   3.453   0.294 -0.0139  0.6749 -0.4444
 6613SOL    HW121439   5.519   3.481   0.223 -0.0225  2.0180  0.0734
 6613SOL    HW221440   5.676   3.476   0.267  0.2050 -0.6116 -0.8697
 6614SOL     OW21441   6.674   3.813   1.241  0.1261  0.5114  0.1889
 6614SOL    HW121442   6.732   3.734   1.220  2.1401  1.7841  0.7249
 6614SOL    HW221443   6.615   3.832   1.163 -1.2363 -2.1706  0.4682
 6615SOL     OW21444   6.544   0.927   4.891  0.4927  0.1777 -1.4704
 6615SOL    HW121445   6.610   0.993   4.925  0.4630  0.8425 -2.6560
 6615SOL    HW221446   6.590   0.840   4.871  0.1761 -1.0078  2.1986
 6616SOL     OW21447   1.534   2.135   1.272  0.4042  0.6405 -0.1361
 6616SOL    HW121448   1.459   2.083   1.314  1.0807  0.2589  0.6149
 6616SOL    HW221449   1.532   2.229   1.307  1.2498  0.2034  1.1496
 6617SOL     OW21450   2.635   4.919   4.850 -0.3581 -0.4356  0.2065
 6617SOL    HW121451   2.717   4.915   4.906 -0.6911  0.6435  0.7917
 6617SOL    HW221452   2.646   4.860   4.770  1.2034  0.1324 -0.0275
 6618SOL     OW21453   4.501   1.700   1.797 -0.1505  0.1173  0.3383
 6618SOL    HW121454   4.443   1.766   1.844  0.4430 -1.2020  3.1276
 6618SOL    HW221455   4.592   1.740   1.783 -1.1903  1.7361 -2.9443
 6619SOL     OW21456   0.190   3.412   1.228  0.5111  0.7096 -0.5993
 6619SOL    HW121457   0.286   3.409   1.200  0.7602 -0.8379  0.3086
 6619SOL    HW221458   0.158   3.320   1.249  0.3160  1.5512  3.9288
 6620SOL     OW21459   4.540   5.332   6.859  1.0770  0.0097  0.7638
 6620SOL    HW121460   4.493   5.243   6.856  0.0180  0.5813 -1.4676
 6620SOL    HW221461   4.585   5.349   6.771  0.0102  2.3278  0.6021
 6621SOL     OW21462   1.434   6.369   3.203  0.2603  0.2800  0.0177
 6621SOL    HW121463   1.522   6.397   3.164  1.1796 -2.6135 -0.1787
 6621SOL    HW221464   1.370   6.348   3.130  0.5674 -0.9459  0.0796
 6622SOL     OW21465   4.251   2.999   0.193 -0.1895 -0.0375  0.1651
 6622SOL    HW121466   4.229   3.082   0.244  3.3196  0.5330  1.0527
 6622SOL    HW221467   4.182   2.929   0.211 -2.8746  2.3656 -0.0513
 6623SOL     OW21468   3.360   3.738   3.183 -0.3340  0.6168 -0.0760
 6623SOL    HW121469   3.426   3.669   3.211 -1.0060  0.0169  0.0503
 6623SOL    HW221470   3.306   3.768   3.262  0.2907  1.6763 -0.0237
 6624SOL     OW21471   6.210   0.857   2.445 -0.1190 -0.1237 -0.1393
 6624SOL    HW121472   6.284   0.848   2.512  0.2129 -1.1210 -0.6298
 6624SOL    HW221473   6.194   0.954   2.426 -0.6448  0.2299  1.8429
 6625SOL     OW21474   3.098   1.610   6.992 -0.0496  0.3028 -0.6719
 6625SOL    HW121475   3.191   1.590   7.023 -0.4249  0.9330  0.9798
 6625SOL    HW221476   3.087   1.709   6.981  0.0691  0.1216 -3.0066
 6626SOL     OW21477   5.788   1.041   4.005  0.5882  0.8588  0.4973
 6626SOL    HW121478   5.832   0.974   4.065  0.7752  1.7979  1.4567
 6626SOL    HW221479   5.695   1.059   4.039  0.5032  1.0121  0.1856
 6627SOL     OW21480   2.339   4.935   6.837  0.2224  0.1487  0.4040
 6627SOL    HW121481   2.245   4.912   6.860  0.1027  0.5683  0.3450
 6627SOL    HW221482   2.390   4.851   6.818  0.6253 -0.3271  3.2134
 6628SOL     OW21483   0.460   5.018   2.247 -0.5703 -0.0752  0.4028
 6628SOL    HW121484   0.380   5.001   2.305 -0.6501 -2.0873 -0.2318
 6628SOL    HW221485   0.431   5.068   2.165 -1.0037  0.0647  0.6373
 6629SOL     OW21486   0.544   2.177   1.882 -0.2081 -0.0373  0.2450
 6629SOL    HW121487   0.478   2.165   1.808  0.4063 -0.5467 -0.2386
 6629SOL    HW221488   0.620   2.233   1.849  1.1379 -2.0452 -0.2364
 6630SOL     OW21489   0.929   3.093   3.235 -0.3973 -0.2392  0.7657
 6630SOL    HW121490   0.902   3.174   3.182  0.7217  0.4320  1.1901
 6630SOL    HW221491   0.935   3.014   3.174 -1.0211  0.0992  0.2529
 6631SOL     OW21492   1.647   1.417   2.207  0.2758 -0.4125  0.4179
 6631SOL    HW121493   1.569   1.375   2.253  1.5174 -3.8235 -0.3013
 6631SOL    HW221494   1.678   1.358   2.132  1.6746  2.3269 -1.3516
 6632SOL     OW21495   2.845   3.370   2.123  0.2220 -0.1124  0.1633
 6632SOL    HW121496   2.813   3.288   2.075 -0.2538 -0.3273  0.8353
 6632SOL    HW221497   2.768   3.417   2.165  0.6468 -0.0975  0.9614
 6633SOL     OW21498   5.114   0.926   0.466 -0.3062  0.0553 -0.2418
 6633SOL    HW121499   5.098   0.827   0.462  0.1540  0.0127 -1.3027
 6633SOL    HW221500   5.136   0.960   0.375 -0.9582  1.2323  0.0162
 6634SOL     OW21501   0.010   2.588   3.824  0.2065 -0.4227 -0.2332
 6634SOL    HW121502  -0.049   2.665   3.850 -0.1525  0.2435 -2.7477
 6634SOL    HW221503  -0.043   2.503   3.827 -0.3678 -0.0870 -0.6154
 6635SOL     OW21504   3.279   4.462   1.321  0.0958 -0.3622  0.1583
 6635SOL    HW121505   3.335   4.539   1.349  1.0349 -1.5261  1.5919
 6635SOL    HW221506   3.325   4.411   1.248  0.7518 -1.0777  1.0499
 6636SOL     OW21507   6.425   0.606   4.315  0.4805  0.1226 -0.0155
 6636SOL    HW121508   6.456   0.514   4.291 -0.3074 -0.3802  0.8046
 6636SOL    HW221509   6.331   0.618   4.281  0.5589  0.6004 -0.0603
 6637SOL     OW21510   3.139   5.610   3.942 -0.2391  0.2579 -0.2893
 6637SOL    HW121511   3.214   5.581   3.883 -1.2385 -0.2724 -1.3315
 6637SOL    HW221512   3.081   5.675   3.894 -1.4044 -0.6342 -0.1410
 6638SOL     OW21513   0.894   4.301   2.395 -0.6097 -0.3071  0.1105
 6638SOL    HW121514   0.870   4.204   2.390 -1.9747  0.0040  0.3492
 6638SOL    HW221515   0.928   4.322   2.487 -0.1138 -0.5905 -0.0027
 6639SOL     OW21516   3.706   5.799   3.429 -0.1152  0.3265  0.0398
 6639SOL    HW121517   3.647   5.739   3.375  0.9426  1.0636 -2.0428
 6639SOL    HW221518   3.802   5.775   3.414  0.2216  0.4633  1.7584
 6640SOL     OW21519   4.496   0.650   1.456 -0.1971 -0.4398 -0.4128
 6640SOL    HW121520   4.576   0.604   1.419  0.2967 -0.1364  0.2472
 6640SOL    HW221521   4.476   0.732   1.402  2.7035  2.0603  1.9455
 6641SOL     OW21522   3.325   4.998   2.545  0.2663  0.6553 -0.7032
 6641SOL    HW121523   3.314   4.906   2.507 -0.4088  1.0966 -1.6193
 6641SOL    HW221524   3.276   5.064   2.487 -4.5642  0.9404  3.0063
 6642SOL     OW21525   0.549   3.597   6.063  0.7999  0.8098  0.1631
 6642SOL    HW121526   0.496   3.624   5.983 -0.8902  0.5924  1.1641
 6642SOL    HW221527   0.488   3.584   6.141  1.9228 -2.3263  0.6626
 6643SOL     OW21528   6.364   3.749   6.218 -0.6719  0.0109 -0.6366
 6643SOL    HW121529   6.318   3.668   6.183 -0.3455 -0.9781  1.1021
 6643SOL    HW221530   6.403   3.729   6.308 -1.8425  2.5151  0.5243
 6644SOL     OW21531   5.598   3.215   0.159 -0.0916 -0.7101 -0.2295
 6644SOL    HW121532   5.546   3.278   0.216 -1.6071 -0.6230 -1.6434
 6644SOL    HW221533   5.622   3.259   0.073  1.7724 -0.9901  0.1057
 6645SOL     OW21534   0.049   0.208   1.639 -0.8492 -0.2382  0.0972
 6645SOL    HW121535   0.136   0.258   1.633  0.4273 -2.4345 -1.8664
 6645SOL    HW221536   0.055   0.140   1.712 -1.6730  0.8324  1.1915
 6646SOL     OW21537   2.348   5.613   6.882 -0.0526  0.2315  0.2853
 6646SOL    HW121538   2.263   5.578   6.842 -1.7476  2.3323  1.7869
 6646SOL    HW221539   2.335   5.628   6.980  2.0460  0.7347  0.5395
 6647SOL     OW21540   4.969   4.851   0.465  0.6305 -0.1436 -0.4278
 6647SOL    HW121541   5.005   4.890   0.550 -0.6173  1.1483 -0.4528
 6647SOL    HW221542   4.900   4.782   0.487  2.2112 -1.8008 -0.3992
 6648SOL     OW21543   6.169   0.680   2.235  0.3657 -0.0406 -0.0313
 6648SOL    HW121544   6.143   0.584   2.250 -0.5486  0.2176  0.0764
 6648SOL    HW221545   6.204   0.718   2.321 -0.5412  0.1065  0.2821
 6649SOL     OW21546   0.980   5.020   2.015 -0.0798 -0.4798  0.0377
 6649SOL    HW121547   0.885   5.000   2.041 -0.5030  1.5340  0.2202
 6649SOL    HW221548   1.042   4.959   2.065 -1.2413 -1.4996  0.2837
 6650SOL     OW21549   2.103   3.636   5.706 -0.3882  0.4111  0.0666
 6650SOL    HW121550   2.109   3.706   5.777 -1.1235  1.6688 -1.0534
 6650SOL    HW221551   2.194   3.616   5.671 -0.2923  2.2741 -0.9149
 6651SOL     OW21552   2.241   1.958   6.278 -0.2428  0.1287 -0.9078
 6651SOL    HW121553   2.312   1.892   6.254  1.2053  1.3271 -0.1324
 6651SOL    HW221554   2.171   1.960   6.207 -0.5388 -2.4682 -0.7797
 6652SOL     OW21555   4.704   5.395   6.667 -0.5895  0.4503  0.7116
 6652SOL    HW121556   4.749   5.451   6.597  0.3541 -0.5592  0.4942
 6652SOL    HW221557   4.767   5.379   6.743 -0.5184 -1.0575  0.3598
 6653SOL     OW21558   2.005   1.920   1.810  0.5699 -0.5006 -0.4054
 6653SOL    HW121559   2.080   1.915   1.877 -0.7829  0.2144  1.2302
 6653SOL    HW221560   2.021   1.998   1.749  0.5140  0.4750  0.7905
 6654SOL     OW21561   0.800   2.457   1.197  0.0880  0.3339  0.3570
 6654SOL    HW121562   0.741   2.513   1.256  0.5789 -0.0796  1.2704
 6654SOL    HW221563   0.818   2.506   1.112 -2.6565 -0.0986 -0.5525
 6655SOL     OW21564   2.775   3.616   0.036  0.6102 -0.5023 -0.8863
 6655SOL    HW121565   2.869   3.646   0.018  0.8436 -1.0295 -0.5731
 6655SOL    HW221566   2.744   3.652   0.124  0.6922 -0.7233 -0.7666
 6656SOL     OW21567   3.473   5.633   0.196  0.6361  0.2181  0.5108
 6656SOL    HW121568   3.457   5.723   0.236 -1.4456  0.7218 -1.2260
 6656SOL    HW221569   3.478   5.642   0.096  0.6562 -1.5534  0.3181
 6657SOL     OW21570   2.508   1.479   3.144 -0.7294  0.1035 -0.1019
 6657SOL    HW121571   2.538   1.410   3.079 -1.6592 -0.2678 -0.1435
 6657SOL    HW221572   2.454   1.549   3.097  0.9245  1.3774 -0.2315
 6658SOL     OW21573   2.386   0.647   6.384 -0.5862  0.3902 -0.0735
 6658SOL    HW121574   2.395   0.592   6.301  0.0144  0.6190 -0.1649
 6658SOL    HW221575   2.392   0.744   6.361  3.0097  0.4715  0.5403
 6659SOL     OW21576   2.844   4.284   1.670 -0.3333  0.9733  0.1735
 6659SOL    HW121577   2.792   4.360   1.631  0.7659  1.2817 -0.7501
 6659SOL    HW221578   2.899   4.317   1.747 -0.8273  0.8401  0.5829
 6660SOL     OW21579   3.463   4.322   6.100 -0.2122 -0.3533 -0.1628
 6660SOL    HW121580   3.390   4.332   6.168  2.3115  0.3591  2.6725
 6660SOL    HW221581   3.522   4.245   6.126  0.6066 -0.3214 -1.8139
 6661SOL     OW21582   3.890   1.542   6.908  0.2191  0.6073  0.1590
 6661SOL    HW121583   3.958   1.606   6.871  0.7870  0.6330  1.2256
 6661SOL    HW221584   3.876   1.560   7.005 -1.7081  0.9268 -0.1371
 6662SOL     OW21585   4.423   0.436   3.722 -0.3309  0.3060 -0.8982
 6662SOL    HW121586   4.516   0.425   3.756 -0.5493 -0.0512 -0.4028
 6662SOL    HW221587   4.419   0.412   3.625  0.0608  0.1853 -0.8840
 6663SOL     OW21588   6.151   1.604   0.765  0.0460  0.1528  0.8296
 6663SOL    HW121589   6.082   1.611   0.836 -1.8141 -3.1811 -0.4527
 6663SOL    HW221590   6.226   1.546   0.796  1.8966  2.8507  1.7983
 6664SOL     OW21591   6.133   1.139   4.856 -0.1658 -0.6320 -0.1809
 6664SOL    HW121592   6.217   1.116   4.807  0.0398 -0.3461  0.0340
 6664SOL    HW221593   6.139   1.104   4.950 -0.1372 -0.3164 -0.0613
 6665SOL     OW21594   5.034   4.738   4.226 -0.5674  0.3335 -0.2625
 6665SOL    HW121595   5.120   4.768   4.267 -0.0753 -1.0041 -0.2872
 6665SOL    HW221596   5.040   4.641   4.203 -2.1826  0.1572 -0.0261
 6666SOL     OW21597   0.313   3.827   4.083  0.4283  0.6599  0.6646
 6666SOL    HW121598   0.392   3.770   4.060  0.7711  2.0095 -1.7982
 6666SOL    HW221599   0.230   3.787   4.044  0.1514  0.2474  1.6333
 6667SOL     OW21600   4.410   5.813   2.871  0.5975  0.5552 -0.0857
 6667SOL    HW121601   4.373   5.895   2.913  1.9887  1.2467 -0.1346
 6667SOL    HW221602   4.341   5.741   2.870 -0.1212  1.1870  1.4705
 6668SOL     OW21603   2.618   0.356   5.890 -0.2597 -0.1501  0.4464
 6668SOL    HW121604   2.623   0.448   5.851  0.1260  0.4156  1.7940
 6668SOL    HW221605   2.522   0.332   5.905 -0.3326  1.5508  3.4548
 6669SOL     OW21606   1.462   5.796   4.772 -0.3908  0.1015  0.3896
 6669SOL    HW121607   1.433   5.707   4.807 -0.8263 -0.0387 -0.2975
 6669SOL    HW221608   1.493   5.785   4.677  2.2935  0.1735  1.1682
 6670SOL     OW21609   6.276   6.246   1.598 -0.1966  0.2865 -0.1560
 6670SOL    HW121610   6.299   6.197   1.681 -1.0411  0.7562  0.3690
 6670SOL    HW221611   6.315   6.198   1.519 -0.8022 -1.0930  0.3542
 6671SOL     OW21612   3.509   1.177   2.213 -0.7762  0.0282 -0.4219
 6671SOL    HW121613   3.538   1.094   2.260  1.3020  0.0311 -1.5576
 6671SOL    HW221614   3.525   1.256   2.272  1.6172  0.0123 -0.9399
 6672SOL     OW21615   1.671   1.893   4.563  0.1893 -0.5502  0.2320
 6672SOL    HW121616   1.762   1.914   4.527  0.7326 -2.2497  0.5272
 6672SOL    HW221617   1.663   1.795   4.579 -0.2888 -0.0496  3.9840
 6673SOL     OW21618   0.335   0.632   3.114  0.3806 -0.2534 -0.2056
 6673SOL    HW121619   0.288   0.549   3.086 -0.1879 -0.5622  1.5417
 6673SOL    HW221620   0.431   0.611   3.134  0.7851 -0.0319 -1.8218
 6674SOL     OW21621   5.874   4.139   3.607 -0.0322 -0.5021 -0.6280
 6674SOL    HW121622   5.821   4.110   3.527  0.6789 -2.6861 -0.3802
 6674SOL    HW221623   5.840   4.092   3.688  1.7919 -1.4638 -0.3614
 6675SOL     OW21624   2.538   2.880   1.684 -0.2274  0.6608 -0.0754
 6675SOL    HW121625   2.496   2.799   1.644 -0.5434  2.1402 -3.0436
 6675SOL    HW221626   2.614   2.854   1.743 -2.1895 -1.8611  1.5264
 6676SOL     OW21627   1.927   0.323   4.119 -0.1097  0.7222 -0.5446
 6676SOL    HW121628   1.849   0.344   4.178 -0.0184  0.0915 -0.1857
 6676SOL    HW221629   1.938   0.395   4.051 -1.1837  0.6748 -0.7835
 6677SOL     OW21630   0.861   3.309   4.542 -0.0694  0.0478  0.4912
 6677SOL    HW121631   0.837   3.243   4.470  1.7204 -0.1133 -0.0058
 6677SOL    HW221632   0.919   3.264   4.610 -0.7869  0.5165  1.4384
 6678SOL     OW21633   5.561   0.944   1.683  0.1196 -0.0849 -0.1797
 6678SOL    HW121634   5.640   0.885   1.663  1.1270  1.3206 -0.5031
 6678SOL    HW221635   5.497   0.940   1.606  0.1240 -0.8173 -0.1555
 6679SOL     OW21636   2.019   5.012   6.762 -0.5782 -0.7561  0.1476
 6679SOL    HW121637   1.944   5.027   6.698 -1.1514 -2.4498  0.3548
 6679SOL    HW221638   2.105   5.004   6.711 -1.0836 -2.5203 -0.5201
 6680SOL     OW21639   3.446   1.444   4.915 -0.2910 -0.2513  0.2983
 6680SOL    HW121640   3.350   1.414   4.920 -0.2641 -0.5231 -0.6823
 6680SOL    HW221641   3.494   1.415   4.997 -1.2575  0.6440  1.2183
 6681SOL     OW21642   3.063   5.837   6.255  0.1743 -0.0552  0.0465
 6681SOL    HW121643   3.102   5.750   6.285 -1.2787 -0.9244 -0.4837
 6681SOL    HW221644   3.004   5.874   6.326  2.1159  1.4339  0.9884
 6682SOL     OW21645   3.807   5.329   4.589  0.0495 -0.0934 -0.1776
 6682SOL    HW121646   3.807   5.251   4.651 -0.8537 -1.6231 -1.9924
 6682SOL    HW221647   3.896   5.336   4.544 -0.5611 -1.6018 -1.7365
 6683SOL     OW21648   6.101   5.381   0.539 -0.4711 -0.3409 -0.1725
 6683SOL    HW121649   6.017   5.435   0.536  0.1582  0.9157  2.6128
 6683SOL    HW221650   6.099   5.321   0.619  1.3068 -0.2188 -0.0070
 6684SOL     OW21651   6.293   5.502   1.124 -0.2391  0.1355 -0.1783
 6684SOL    HW121652   6.308   5.408   1.155  0.7948  0.2107 -0.4271
 6684SOL    HW221653   6.211   5.504   1.067 -0.7259 -0.4626  0.4832
 6685SOL     OW21654   3.813   0.036   1.235  0.3703  0.2462 -0.1298
 6685SOL    HW121655   3.900   0.057   1.279  1.0220  0.0038 -1.2642
 6685SOL    HW221656   3.830  -0.009   1.147 -0.9127 -2.0473  0.7013
 6686SOL     OW21657   1.414   2.777   0.405 -0.3386  0.1563  0.3107
 6686SOL    HW121658   1.497   2.722   0.408 -0.3733  0.0189 -0.7965
 6686SOL    HW221659   1.355   2.744   0.331 -0.4208  1.6079 -0.3032
 6687SOL     OW21660   2.582   3.490   2.081  0.2580  0.1103  0.1255
 6687SOL    HW121661   2.630   3.451   2.002  0.2251  0.1306  0.0959
 6687SOL    HW221662   2.586   3.590   2.076 -1.3186  0.1549 -0.8159
 6688SOL     OW21663   1.079   0.403   1.179  0.2562  0.1272 -0.1810
 6688SOL    HW121664   1.007   0.355   1.129 -1.4706  0.6778  1.6226
 6688SOL    HW221665   1.148   0.338   1.210 -1.1676 -0.9710  0.7926
 6689SOL     OW21666   3.663   5.825   2.661  0.4178 -0.4178 -0.2359
 6689SOL    HW121667   3.646   5.809   2.758  1.3126 -0.4592 -0.0804
 6689SOL    HW221668   3.699   5.742   2.619  0.8352 -0.1492 -0.4144
 6690SOL     OW21669   5.209   2.509   2.262 -0.3678  0.3079  0.1002
 6690SOL    HW121670   5.139   2.518   2.191  0.5500  0.7825 -0.7680
 6690SOL    HW221671   5.214   2.414   2.293  0.0389 -0.1681 -1.3509
 6691SOL     OW21672   1.523   2.911   3.657 -0.2525  0.0869 -0.8364
 6691SOL    HW121673   1.550   2.916   3.561  1.9770 -3.0011 -0.5412
 6691SOL    HW221674   1.597   2.869   3.710 -1.7543  0.8755  2.1240
 6692SOL     OW21675   3.692   5.972   5.568  0.4331 -0.0185  0.6384
 6692SOL    HW121676   3.738   6.043   5.515 -0.0825 -0.8918 -1.0692
 6692SOL    HW221677   3.759   5.904   5.599  0.5992 -0.0887  0.1310
 6693SOL     OW21678   6.036   5.046   0.123 -0.4343  0.3017  0.1421
 6693SOL    HW121679   6.109   5.003   0.070  1.3241  0.2813  2.4499
 6693SOL    HW221680   5.958   5.065   0.063  1.3791  0.1937 -2.3812
 6694SOL     OW21681   5.152   0.813   6.682  0.3898  0.3967 -0.0617
 6694SOL    HW121682   5.121   0.899   6.722 -1.6556 -0.7398  0.9332
 6694SOL    HW221683   5.174   0.827   6.585  0.7248  2.1346  0.2301
 6695SOL     OW21684   5.851   4.811   2.722 -0.1555 -0.5495 -0.3046
 6695SOL    HW121685   5.758   4.840   2.740 -0.0277 -0.0331 -0.4648
 6695SOL    HW221686   5.898   4.879   2.666  0.6221 -0.3321  0.5839
 6696SOL     OW21687   5.602   0.217   5.146 -1.0874  0.1985  0.1283
 6696SOL    HW121688   5.632   0.249   5.056 -2.2747  2.9649  0.6162
 6696SOL    HW221689   5.679   0.221   5.210 -0.4981 -0.8070 -0.4836
 6697SOL     OW21690   6.181   2.952   6.193 -0.5277 -0.2212 -0.2736
 6697SOL    HW121691   6.182   2.885   6.267 -4.4090 -2.1382 -1.6818
 6697SOL    HW221692   6.266   2.946   6.142  0.5156 -1.8611  1.5197
 6698SOL     OW21693   6.054   1.197   0.873  0.3235 -0.3209 -0.1412
 6698SOL    HW121694   6.112   1.174   0.795  1.2491  1.2103  0.0412
 6698SOL    HW221695   6.111   1.208   0.954 -0.5295 -1.0736  0.5770
 6699SOL     OW21696   2.410   4.112   3.253 -0.2982  0.3568 -0.0003
 6699SOL    HW121697   2.474   4.143   3.324 -2.7392  2.6246  1.4177
 6699SOL    HW221698   2.380   4.019   3.274  0.9108  0.0733  0.5267
 6700SOL     OW21699   4.217   1.737   5.399 -0.1492 -0.2075 -0.2678
 6700SOL    HW121700   4.298   1.778   5.358  0.5586 -0.6753  0.6202
 6700SOL    HW221701   4.184   1.662   5.342  0.4483 -0.4432 -0.3136
 6701SOL     OW21702   2.797   6.429   5.699  0.1255  0.3502  0.2820
 6701SOL    HW121703   2.831   6.448   5.607 -0.9113 -1.3343 -0.4966
 6701SOL    HW221704   2.848   6.483   5.766  1.5527  0.8714 -1.1806
 6702SOL     OW21705   3.410   6.961   5.992  0.0245 -0.3427  0.3662
 6702SOL    HW121706   3.478   6.925   5.929  0.7554 -0.8456  1.4247
 6702SOL    HW221707   3.326   6.907   5.985  0.8296 -1.7676  1.3498
 6703SOL     OW21708   5.625   6.469   6.413 -0.0360 -1.0677 -0.0273
 6703SOL    HW121709   5.705   6.410   6.429  0.1919 -0.1071  3.0745
 6703SOL    HW221710   5.551   6.443   6.475 -0.5498  0.7953  0.2089
 6704SOL     OW21711   5.624   3.907   1.608 -0.4911  0.2991  0.0176
 6704SOL    HW121712   5.693   3.919   1.537  1.1468 -1.9889  1.0839
 6704SOL    HW221713   5.656   3.950   1.693 -1.4432  1.1307 -0.0218
 6705SOL     OW21714   0.399   6.378   3.420  0.0490  0.1502  0.1035
 6705SOL    HW121715   0.406   6.477   3.408  1.5745  0.2438  1.5386
 6705SOL    HW221716   0.464   6.332   3.360 -0.5264  0.0070 -0.4235
 6706SOL     OW21717   1.963   5.943   4.361 -0.3728 -0.1568  0.1562
 6706SOL    HW121718   1.990   5.861   4.311  0.8715  0.1652  0.2586
 6706SOL    HW221719   1.866   5.961   4.347 -0.5215 -1.2920 -0.3666
 6707SOL     OW21720   2.301   1.695   5.352 -0.2584 -0.1824  0.5761
 6707SOL    HW121721   2.312   1.770   5.416 -1.3474 -1.1793  1.9984
 6707SOL    HW221722   2.328   1.609   5.396 -2.3784 -1.0891  0.2328
 6708SOL     OW21723   6.633   4.565   2.324 -0.9365  0.0030  0.3581
 6708SOL    HW121724   6.600   4.573   2.418 -1.2109  1.1680  0.1753
 6708SOL    HW221725   6.730   4.540   2.324 -1.5173 -2.6111  0.9104
 6709SOL     OW21726   1.394   3.034   4.783 -0.0008  0.6317  0.4855
 6709SOL    HW121727   1.376   3.073   4.873 -1.2622  0.1723  0.4569
 6709SOL    HW221728   1.427   2.940   4.792  0.6281  0.8461  0.4798
 6710SOL     OW21729   4.611   5.920   5.937 -0.5473 -0.6744 -0.0934
 6710SOL    HW121730   4.529   5.940   5.884  0.6073  1.3853 -1.2207
 6710SOL    HW221731   4.653   6.006   5.967 -0.6486 -1.7238  3.4548
 6711SOL     OW21732   4.067   5.140   1.324  0.0993  0.4181  0.0525
 6711SOL    HW121733   4.112   5.139   1.413  0.9546 -0.7948 -0.3602
 6711SOL    HW221734   4.007   5.061   1.316 -1.6596  1.6599  0.3332
 6712SOL     OW21735   5.041   4.865   6.440  0.0472 -0.1845 -1.0462
 6712SOL    HW121736   5.022   4.786   6.382  1.4303 -2.4440  1.3476
 6712SOL    HW221737   5.130   4.903   6.415 -0.7781  0.9219 -2.4399
 6713SOL     OW21738   3.753   4.203   6.430 -0.0948 -0.4121 -0.2587
 6713SOL    HW121739   3.842   4.247   6.442  0.1558 -0.4432 -1.7225
 6713SOL    HW221740   3.764   4.104   6.430 -0.0640 -0.4146 -0.7207
 6714SOL     OW21741   1.292   5.857   2.572 -0.2438 -0.0766  0.6160
 6714SOL    HW121742   1.305   5.795   2.495  0.0056 -0.8660  1.2815
 6714SOL    HW221743   1.319   5.950   2.546 -2.0539  0.0994 -0.8900
 6715SOL     OW21744   3.553   4.009   1.227  0.2015  0.1457  0.9224
 6715SOL    HW121745   3.527   3.923   1.271  1.8530 -0.7147  0.3147
 6715SOL    HW221746   3.547   4.083   1.294 -1.1898 -0.4263  1.4743
 6716SOL     OW21747   0.181   3.254   4.914  0.2461  0.0019 -0.6166
 6716SOL    HW121748   0.130   3.281   4.833  1.3841 -0.5504 -1.5451
 6716SOL    HW221749   0.246   3.326   4.938 -0.7133  0.5681  0.3790
 6717SOL     OW21750   4.002   3.671   0.176 -0.1465 -0.7722 -0.0336
 6717SOL    HW121751   3.992   3.721   0.089  1.6131 -2.4946 -1.3115
 6717SOL    HW221752   3.918   3.619   0.193 -1.3760  1.2695  0.5046
 6718SOL     OW21753   3.171   5.023   0.651 -0.0221  0.6863  0.2334
 6718SOL    HW121754   3.263   5.032   0.612 -0.2018  0.6974 -0.1826
 6718SOL    HW221755   3.150   4.926   0.665  0.8271  0.7273  2.1701
 6719SOL     OW21756   6.725   5.214   2.212 -0.4297  0.6205  0.0054
 6719SOL    HW121757   6.690   5.169   2.294 -1.7637  0.5404 -0.5725
 6719SOL    HW221758   6.809   5.168   2.182  1.5590  2.2211  2.7095
 6720SOL     OW21759   4.986   3.264   4.203  0.1362  0.2548 -0.0106
 6720SOL    HW121760   5.011   3.193   4.269 -0.9675  0.6046  0.8240
 6720SOL    HW221761   5.018   3.238   4.112 -1.5852 -2.0911 -0.0407
 6721SOL     OW21762   4.863   6.576   6.388 -0.0509 -0.2189  0.0051
 6721SOL    HW121763   4.820   6.486   6.400 -0.0722 -0.1005  0.8642
 6721SOL    HW221764   4.892   6.586   6.293 -3.3572  0.3562 -1.0484
 6722SOL     OW21765   5.807   1.333   2.258 -0.0898 -0.0043 -0.1522
 6722SOL    HW121766   5.718   1.345   2.213 -1.6353 -2.5813  1.8964
 6722SOL    HW221767   5.855   1.256   2.217  0.2471  0.0795  0.0778
 6723SOL     OW21768   5.347   0.028   1.751 -0.7046  0.1178  0.3149
 6723SOL    HW121769   5.413  -0.047   1.741 -2.7101 -1.7266  0.2263
 6723SOL    HW221770   5.273  -0.000   1.811 -1.1834  2.3519  0.8851
 6724SOL     OW21771   4.579   5.998   3.084 -0.6407 -0.3668 -0.0584
 6724SOL    HW121772   4.637   6.013   3.004  0.3023  1.3660  0.8987
 6724SOL    HW221773   4.492   6.045   3.071  0.7199  2.7755  1.1698
 6725SOL     OW21774   6.608   6.139   1.438 -0.8868 -0.1134 -0.0933
 6725SOL    HW121775   6.678   6.161   1.370 -2.0298  3.2726 -0.3607
 6725SOL    HW221776   6.519   6.133   1.393 -1.4835  0.9905  0.8977
 6726SOL     OW21777   5.717   4.126   2.880 -0.3305  0.2765  0.1029
 6726SOL    HW121778   5.727   4.107   2.977  0.4998  0.6458  0.0966
 6726SOL    HW221779   5.685   4.221   2.868 -2.1309 -0.3000  0.0596
 6727SOL     OW21780   6.417   2.819   2.345 -0.9310  0.2813 -0.0225
 6727SOL    HW121781   6.404   2.913   2.312 -3.0645 -0.6489 -2.1618
 6727SOL    HW221782   6.357   2.803   2.423  0.3693  0.9836  1.1885
 6728SOL     OW21783   0.021   5.367   2.093  0.2484 -0.2434  0.0375
 6728SOL    HW121784   0.079   5.343   2.171 -1.6495  1.6682  2.1875
 6728SOL    HW221785   0.010   5.287   2.034  1.1902 -1.9979  2.0922
 6729SOL     OW21786   6.762   2.998   2.784  0.3078  0.0590 -0.1094
 6729SOL    HW121787   6.693   3.052   2.832  1.4025  1.3567  0.0787
 6729SOL    HW221788   6.729   2.975   2.692 -1.3265 -1.4329  0.7925
 6730SOL     OW21789   2.100   2.864   3.469 -0.4568 -0.1030  0.2030
 6730SOL    HW121790   2.102   2.806   3.387 -1.2136 -0.0074  0.1091
 6730SOL    HW221791   2.194   2.882   3.499 -0.1575  0.0231 -0.7532
 6731SOL     OW21792   5.786   0.127   5.345  0.0540 -0.0119  0.0547
 6731SOL    HW121793   5.824   0.053   5.290  1.0482 -0.0067  0.7127
 6731SOL    HW221794   5.828   0.127   5.436 -0.1223  1.1902  0.1580
 6732SOL     OW21795   0.968   0.112   5.680  0.3823  0.0355  0.1758
 6732SOL    HW121796   0.998   0.151   5.593 -2.2247  1.2290 -0.2765
 6732SOL    HW221797   0.946   0.186   5.744  0.1801 -0.7964  1.1083
 6733SOL     OW21798   2.453   5.662   6.241 -0.2249  0.5318 -0.4958
 6733SOL    HW121799   2.464   5.733   6.311 -1.3972  0.0084  0.2403
 6733SOL    HW221800   2.435   5.705   6.152 -1.1617  1.1606 -0.0139
 6734SOL     OW21801   0.358   3.201   3.305 -0.0527  0.4402 -0.8068
 6734SOL    HW121802   0.456   3.195   3.321  0.4385  4.0017 -1.5156
 6734SOL    HW221803   0.311   3.125   3.351  3.1001 -2.5632 -2.1005
 6735SOL     OW21804   4.511   3.538   6.640  0.6595 -0.1529  0.1010
 6735SOL    HW121805   4.498   3.603   6.714 -1.5652  0.0548 -0.4259
 6735SOL    HW221806   4.567   3.461   6.673  0.1632  0.1810  1.8422
 6736SOL     OW21807   4.896   2.401   0.204  0.2798  0.0435  0.7103
 6736SOL    HW121808   4.868   2.337   0.133 -1.8602  1.4466  0.1956
 6736SOL    HW221809   4.864   2.370   0.293  1.3572 -0.7771  0.8338
 6737SOL     OW21810   6.498   2.256   5.354  0.0889 -0.3705 -0.5204
 6737SOL    HW121811   6.543   2.225   5.270  0.9911 -0.8666  0.1372
 6737SOL    HW221812   6.537   2.344   5.382  0.5235 -0.7095 -0.0534
 6738SOL     OW21813   2.211   3.476   0.785  0.1943  0.4587 -0.0895
 6738SOL    HW121814   2.195   3.379   0.770 -0.6250 -0.0090  3.0727
 6738SOL    HW221815   2.310   3.494   0.782  0.4722 -0.7882  0.6812
 6739SOL     OW21816   6.589   0.370   5.585 -0.1113 -0.4306  0.1726
 6739SOL    HW121817   6.547   0.384   5.496  1.1891 -2.3362 -0.7955
 6739SOL    HW221818   6.562   0.282   5.622  1.6168 -0.9448  0.2983
 6740SOL     OW21819   4.575   5.924   2.657 -0.3537  0.5220  0.1113
 6740SOL    HW121820   4.563   5.979   2.740 -0.9601  0.2188  0.2284
 6740SOL    HW221821   4.510   5.848   2.658 -0.1330  0.3234 -0.4833
 6741SOL     OW21822   4.116   3.756   6.332  0.0458 -0.4079  0.1803
 6741SOL    HW121823   4.033   3.779   6.382 -0.1599  0.7854 -0.6656
 6741SOL    HW221824   4.187   3.824   6.351  0.1622 -0.2828 -0.6399
 6742SOL     OW21825   0.207   2.968   4.923 -0.3001  0.2623 -0.0845
 6742SOL    HW121826   0.123   2.914   4.920 -0.1895  0.1056 -0.4727
 6742SOL    HW221827   0.187   3.062   4.897 -0.6271  0.5980  1.3174
 6743SOL     OW21828   0.001   0.621   0.342  0.2346 -0.3555 -0.4258
 6743SOL    HW121829  -0.061   0.698   0.354  0.0418 -0.2880 -1.6666
 6743SOL    HW221830   0.069   0.620   0.415 -0.1421  0.6231 -0.0544
 6744SOL     OW21831   2.634   5.604   0.534 -0.4735 -0.4414 -0.2137
 6744SOL    HW121832   2.626   5.505   0.552 -0.5504 -0.7263 -1.6906
 6744SOL    HW221833   2.632   5.620   0.436 -0.5176  1.0593  0.0116
 6745SOL     OW21834   1.402   1.119   1.770 -0.1511  0.4757  0.7691
 6745SOL    HW121835   1.375   1.186   1.701 -0.5933  0.7478  1.2026
 6745SOL    HW221836   1.501   1.119   1.780  0.0064 -0.1843 -0.4896
 6746SOL     OW21837   4.851   6.256   1.478 -0.1062 -0.3802  0.4058
 6746SOL    HW121838   4.924   6.230   1.415 -0.4032 -0.6196  0.1559
 6746SOL    HW221839   4.763   6.254   1.430 -0.1839  0.7776  0.4623
 6747SOL     OW21840   4.523   4.935   0.559  1.0505 -0.5767  0.2338
 6747SOL    HW121841   4.485   4.879   0.633  1.7380  0.8366  1.6988
 6747SOL    HW221842   4.524   4.882   0.475 -3.7041 -0.9486  0.1474
 6748SOL     OW21843   1.255   0.213   6.851  0.6717  0.2037  0.6003
 6748SOL    HW121844   1.342   0.182   6.813 -0.2503 -1.7022 -0.0619
 6748SOL    HW221845   1.214   0.279   6.788  1.2930  0.5734  0.5721
 6749SOL     OW21846   0.338   3.040   6.331 -0.2621 -0.2228 -0.0426
 6749SOL    HW121847   0.305   3.114   6.390  0.0677 -0.5320  0.5392
 6749SOL    HW221848   0.385   3.079   6.252  1.7117  0.2244  1.2721
 6750SOL     OW21849   4.932   3.372   2.987 -0.1681 -0.4949 -0.1349
 6750SOL    HW121850   4.859   3.303   2.990  1.0550 -1.9206 -1.2773
 6750SOL    HW221851   5.000   3.344   2.919  0.7135  1.5423 -0.1410
 6751SOL     OW21852   4.083   4.646   4.749  0.1522  0.4198  0.0595
 6751SOL    HW121853   4.133   4.585   4.811  3.1782  3.0026  0.4033
 6751SOL    HW221854   4.147   4.684   4.682 -1.5642  3.1965 -0.1365
 6752SOL     OW21855   3.393   6.366   0.760  0.2684  0.9590  0.3688
 6752SOL    HW121856   3.447   6.357   0.844 -1.2086 -1.4670  1.1670
 6752SOL    HW221857   3.296   6.356   0.782 -0.0935 -0.8229 -1.7384
 6753SOL     OW21858   2.725   1.670   0.528 -1.0284 -0.2611  0.0932
 6753SOL    HW121859   2.666   1.721   0.591  0.1477  1.5975 -0.2457
 6753SOL    HW221860   2.801   1.631   0.580 -0.7453  0.1962  0.0255
 6754SOL     OW21861   4.596   3.666   3.748  0.5419 -0.1190 -0.4920
 6754SOL    HW121862   4.592   3.765   3.739 -0.4898 -0.1986 -1.1704
 6754SOL    HW221863   4.691   3.637   3.758  0.7204  1.0902  2.0128
 6755SOL     OW21864   1.529   0.285   5.723  0.0297  0.8031  0.3374
 6755SOL    HW121865   1.617   0.322   5.753  0.1955  0.0939  0.7330
 6755SOL    HW221866   1.455   0.334   5.768  0.2705 -0.1676  1.8356
 6756SOL     OW21867   2.477   0.180   0.268  0.4711 -0.1724 -0.0791
 6756SOL    HW121868   2.513   0.265   0.306  0.7005  0.2895 -1.2901
 6756SOL    HW221869   2.388   0.160   0.310 -0.6270  1.8445 -1.3248
 6757SOL     OW21870   2.659   1.266   3.023  0.1209  0.5112 -0.5949
 6757SOL    HW121871   2.759   1.265   3.023  0.1252  0.5935  0.5423
 6757SOL    HW221872   2.627   1.246   2.930  1.1857  1.3450 -1.1764
 6758SOL     OW21873   5.115   5.049   5.303  0.5863 -0.0262  0.5424
 6758SOL    HW121874   5.156   5.139   5.318 -0.6973  0.5827  0.5525
 6758SOL    HW221875   5.181   4.989   5.259  1.1064  1.2788 -0.5087
 6759SOL     OW21876   0.682   6.927   4.257  0.0358  0.1758 -0.3329
 6759SOL    HW121877   0.658   6.840   4.301  0.5119  0.6481  0.8865
 6759SOL    HW221878   0.743   6.908   4.180  2.2186 -0.4556  1.4271
 6760SOL     OW21879   2.712   2.896   6.264 -0.7651 -0.0642  0.3565
 6760SOL    HW121880   2.645   2.909   6.191 -0.3874  0.7549  0.1505
 6760SOL    HW221881   2.714   2.976   6.323  1.5411  0.8893 -0.8965
 6761SOL     OW21882   2.609   1.589   3.892 -0.3111  0.1830 -0.3868
 6761SOL    HW121883   2.614   1.598   3.793 -3.9817 -0.5860 -0.7871
 6761SOL    HW221884   2.645   1.500   3.920 -0.3131 -0.0736 -1.1863
 6762SOL     OW21885   4.603   6.851   0.749 -0.3555  0.1172  0.1360
 6762SOL    HW121886   4.628   6.757   0.770 -1.5447 -0.3730 -0.5510
 6762SOL    HW221887   4.623   6.870   0.653  0.1018  0.6540  0.3299
 6763SOL     OW21888   2.387   5.766   3.686  0.1086 -0.2133 -0.0420
 6763SOL    HW121889   2.487   5.767   3.693 -0.0135  0.0907  2.1014
 6763SOL    HW221890   2.360   5.795   3.594  1.9787 -0.4521 -0.7071
 6764SOL     OW21891   5.808   4.121   6.750 -0.2377  0.2935  0.2366
 6764SOL    HW121892   5.802   4.205   6.804  0.5700  0.5227 -0.0030
 6764SOL    HW221893   5.897   4.118   6.704  0.7116 -1.7862  2.0433
 6765SOL     OW21894   3.229   6.740   3.269  0.2659 -0.1122  0.0341
 6765SOL    HW121895   3.258   6.833   3.248 -1.0326  0.1974 -0.4737
 6765SOL    HW221896   3.181   6.738   3.356 -0.3789 -0.1550 -0.3143
 6766SOL     OW21897   3.139   4.257   1.451  0.1925 -0.0277 -0.1548
 6766SOL    HW121898   3.173   4.251   1.545  0.3333 -0.8544 -0.2516
 6766SOL    HW221899   3.186   4.331   1.403  1.5274 -0.8408 -0.1440
 6767SOL     OW21900   2.625   2.328   2.288  0.4623 -0.2511  0.1381
 6767SOL    HW121901   2.595   2.269   2.212  0.3467  1.1188 -0.9154
 6767SOL    HW221902   2.691   2.394   2.254  1.5360 -0.5441  1.5705
 6768SOL     OW21903   2.047   4.254   0.689 -0.8059 -0.1674 -1.5451
 6768SOL    HW121904   2.076   4.184   0.624  1.9802  0.5758 -1.2108
 6768SOL    HW221905   2.029   4.212   0.778 -1.5221 -0.7438 -1.9502
 6769SOL     OW21906   0.789   5.022   1.548 -0.2626  0.0668  0.3052
 6769SOL    HW121907   0.809   5.036   1.450  0.3624 -0.4185  0.3598
 6769SOL    HW221908   0.800   4.926   1.571 -1.8848 -0.0796  0.5385
 6770SOL     OW21909   3.213   0.431   6.820  0.2515  0.2761  0.1273
 6770SOL    HW121910   3.284   0.478   6.872 -0.8222  2.1000  0.0470
 6770SOL    HW221911   3.139   0.404   6.881 -0.0961  0.6038 -0.1428
 6771SOL     OW21912   4.136   2.340   5.227  0.1026  0.7309  0.5550
 6771SOL    HW121913   4.205   2.338   5.299 -0.0660 -0.4167  0.7030
 6771SOL    HW221914   4.155   2.416   5.165  1.8918  0.0450  0.2092
 6772SOL     OW21915   5.123   6.230   2.311  0.0514  0.4922  0.1216
 6772SOL    HW121916   5.080   6.148   2.273 -2.4645  0.5617  2.4543
 6772SOL    HW221917   5.128   6.301   2.240 -1.5911 -0.3409 -0.9090
 6773SOL     OW21918   7.008   0.836   3.661 -0.0341 -0.1565 -0.2057
 6773SOL    HW121919   6.979   0.924   3.626  0.9322 -0.6888 -2.5216
 6773SOL    HW221920   7.053   0.849   3.750  1.0081  1.8375 -0.9541
 6774SOL     OW21921   4.255   4.602   6.350 -0.1191  0.3798 -0.0993
 6774SOL    HW121922   4.175   4.651   6.316 -0.1863 -0.6017 -1.4162
 6774SOL    HW221923   4.306   4.661   6.413 -1.9755  0.9454  0.9364
 6775SOL     OW21924   0.125   2.645   0.399  0.3394 -0.1812 -0.2237
 6775SOL    HW121925   0.076   2.576   0.346 -1.8374  0.3159  1.0524
 6775SOL    HW221926   0.119   2.734   0.354  1.3876 -0.3935 -0.8169
 6776SOL     OW21927   3.242   1.574   2.691  0.2563 -0.2598  0.0472
 6776SOL    HW121928   3.222   1.647   2.758 -1.7391 -1.5648  0.9801
 6776SOL    HW221929   3.330   1.532   2.713 -0.7992 -1.3538  2.6228
 6777SOL     OW21930   3.682   5.795   1.504  0.4339  0.2468  0.1419
 6777SOL    HW121931   3.618   5.808   1.428  2.6834  0.7112 -1.7920
 6777SOL    HW221932   3.719   5.884   1.531  0.7418 -0.0824  0.8211
 6778SOL     OW21933   5.783   0.379   1.576 -0.0679  0.2281  0.0209
 6778SOL    HW121934   5.869   0.430   1.571 -0.1194  0.5182  1.6577
 6778SOL    HW221935   5.706   0.443   1.572 -0.2966 -0.1047 -2.5867
 6779SOL     OW21936   5.156   1.947   2.154  0.2448 -0.5736  0.1538
 6779SOL    HW121937   5.108   2.016   2.099  0.0094 -0.1469  0.8711
 6779SOL    HW221938   5.217   1.994   2.218 -0.3085 -0.9971  1.0147
 6780SOL     OW21939   6.034   5.159   4.393 -0.1894  0.5348 -0.2308
 6780SOL    HW121940   6.112   5.096   4.392 -0.7447 -0.1660 -1.2828
 6780SOL    HW221941   6.058   5.241   4.444  0.7035 -0.3338  0.8039
 6781SOL     OW21942   0.744   3.645   0.936 -0.1236  0.0315 -1.0566
 6781SOL    HW121943   0.819   3.667   0.998 -0.7262 -0.0207 -0.2996
 6781SOL    HW221944   0.739   3.715   0.864 -0.1885  0.7830 -0.3397
 6782SOL     OW21945   6.752   3.446   2.724  0.6519  0.3046 -0.3441
 6782SOL    HW121946   6.831   3.494   2.687  0.8108  0.8144  0.6131
 6782SOL    HW221947   6.711   3.388   2.653  0.4670  1.8268 -1.5329
 6783SOL     OW21948   0.389   0.421   5.840  0.4204 -0.4714 -0.7349
 6783SOL    HW121949   0.449   0.495   5.808  0.8483 -1.4239 -2.2427
 6783SOL    HW221950   0.410   0.337   5.790 -2.0082 -0.9004 -1.1601
 6784SOL     OW21951   1.420   4.365   0.765  0.1920 -0.1713 -0.3122
 6784SOL    HW121952   1.490   4.298   0.742  0.5139 -0.3615  1.1037
 6784SOL    HW221953   1.424   4.385   0.863  0.1989  2.0428 -0.7252
 6785SOL     OW21954   2.156   3.577   0.309 -0.8247  0.3024 -0.0710
 6785SOL    HW121955   2.177   3.503   0.372 -0.3110  0.7383  0.2767
 6785SOL    HW221956   2.083   3.548   0.247  0.3682 -1.0262 -0.9198
 6786SOL     OW21957   6.526   2.992   0.210  0.3438 -0.4810  0.0098
 6786SOL    HW121958   6.432   3.019   0.228 -0.7219 -2.9380 -1.5264
 6786SOL    HW221959   6.573   2.976   0.297 -1.2341 -1.0961  0.7778
 6787SOL     OW21960   6.264   0.238   3.097 -0.4254 -0.1980  0.7288
 6787SOL    HW121961   6.303   0.182   3.171 -0.0721  0.5928  1.1581
 6787SOL    HW221962   6.226   0.178   3.027  1.3787 -1.0264  0.3766
 6788SOL     OW21963   1.863   3.687   4.939  0.6075  0.2467  0.5736
 6788SOL    HW121964   1.954   3.718   4.915  0.3823  1.7044  1.4991
 6788SOL    HW221965   1.808   3.764   4.971 -1.5727 -0.2278 -1.7174
 6789SOL     OW21966   5.787   0.373   4.982  0.1470  0.5455 -0.5765
 6789SOL    HW121967   5.819   0.393   4.890  1.7184  0.8085  0.0038
 6789SOL    HW221968   5.837   0.296   5.020 -0.1767  0.7127  0.2239
 6790SOL     OW21969   2.185   4.122   3.596 -0.2276  0.5525  0.7607
 6790SOL    HW121970   2.218   4.034   3.629 -1.6725  0.1571  1.2431
 6790SOL    HW221971   2.261   4.187   3.591  0.7072 -0.4895  1.1755
 6791SOL     OW21972   5.970   5.316   5.597 -0.2502 -0.0634  0.3388
 6791SOL    HW121973   6.028   5.299   5.517  0.7208  2.5971  0.3510
 6791SOL    HW221974   5.886   5.362   5.568 -0.9602 -1.1243  0.6531
 6792SOL     OW21975   2.273   2.102   6.763  0.2288  0.0553 -0.2762
 6792SOL    HW121976   2.223   2.079   6.679 -0.4442  0.3214  0.0462
 6792SOL    HW221977   2.352   2.041   6.772 -0.6192 -1.0748 -0.2631
 6793SOL     OW21978   5.858   0.646   6.191  0.3872 -0.2586  0.3877
 6793SOL    HW121979   5.840   0.564   6.136  1.5851 -0.0869 -0.3162
 6793SOL    HW221980   5.956   0.668   6.186 -0.0413  1.7338 -0.1903
 6794SOL     OW21981   6.868   4.555   4.171 -0.0751  0.1913 -0.9047
 6794SOL    HW121982   6.912   4.570   4.260 -2.4358  0.0424  0.3787
 6794SOL    HW221983   6.935   4.566   4.098  2.2910 -1.0371  0.9287
 6795SOL     OW21984   3.843   3.463   5.152 -0.7749  0.1968  0.3441
 6795SOL    HW121985   3.796   3.439   5.067  0.0613 -0.6676  0.1056
 6795SOL    HW221986   3.926   3.409   5.161 -2.5152 -2.3245  3.3687
 6796SOL     OW21987   6.529   1.631   0.067  0.4569 -0.4974 -0.3403
 6796SOL    HW121988   6.604   1.689   0.098  0.4352 -1.0103  0.7412
 6796SOL    HW221989   6.534   1.542   0.114 -0.3359 -0.8449 -0.8847
 6797SOL     OW21990   3.843   4.770   6.639 -0.6203 -0.1841  0.0903
 6797SOL    HW121991   3.794   4.839   6.586  0.1788  1.0761  0.9365
 6797SOL    HW221992   3.792   4.752   6.724  0.2023  0.9284  0.8445
 6798SOL     OW21993   5.542   3.505   0.560 -0.3365  0.7923  0.2224
 6798SOL    HW121994   5.449   3.518   0.595  0.0692  1.8345  0.9406
 6798SOL    HW221995   5.537   3.476   0.464 -1.3943  2.9376 -0.4400
 6799SOL     OW21996   6.986   0.485   4.224 -0.0573 -0.4840 -0.6011
 6799SOL    HW121997   7.012   0.504   4.319 -2.1736  0.7987 -0.2037
 6799SOL    HW221998   7.042   0.410   4.188  0.3512 -1.4629  1.8667
 6800SOL     OW21999   2.182   1.321   3.045 -0.8364 -0.8003  0.0010
 6800SOL    HW122000   2.175   1.372   2.959 -0.6827  1.5667  1.3143
 6800SOL    HW222001   2.277   1.293   3.059 -0.6149 -0.0757 -0.0075
 6801SOL     OW22002   2.585   0.989   3.381  0.5028  0.7451 -0.0111
 6801SOL    HW122003   2.567   1.017   3.286  1.3216 -0.0861 -0.4305
 6801SOL    HW222004   2.593   1.070   3.439 -0.0768  1.2619 -0.6332
 6802SOL     OW22005   1.089   4.312   3.263 -0.0844 -0.2329 -0.0500
 6802SOL    HW122006   1.061   4.407   3.274  0.2278 -0.1895  0.4189
 6802SOL    HW222007   1.062   4.260   3.344 -0.4212 -0.5847 -0.3880
 6803SOL     OW22008   5.257   4.696   0.970  0.1386  0.8805  0.5111
 6803SOL    HW122009   5.158   4.679   0.976  0.1496 -0.0943 -1.3517
 6803SOL    HW222010   5.294   4.647   0.891  2.3254  0.3279  1.8199
 6804SOL     OW22011   1.782   1.540   5.884  0.8439  0.4394 -0.0234
 6804SOL    HW122012   1.797   1.442   5.867 -0.1823  0.2067  0.3801
 6804SOL    HW222013   1.736   1.553   5.971 -0.2604  1.1897 -0.6869
 6805SOL     OW22014   5.603   4.010   0.349 -0.1691  0.7613  0.1830
 6805SOL    HW122015   5.575   4.053   0.434 -2.3630  1.2010 -0.7034
 6805SOL    HW222016   5.581   3.912   0.351 -0.0652  0.7371  0.1747
 6806SOL     OW22017   0.116   6.166   0.549 -0.1276  0.6159  0.3393
 6806SOL    HW122018   0.137   6.069   0.564 -1.6177  0.6747  3.4808
 6806SOL    HW222019   0.199   6.220   0.563  1.1667 -0.1976 -3.1742
 6807SOL     OW22020   1.987   4.678   5.386  0.4399  0.3741  0.2409
 6807SOL    HW122021   1.953   4.742   5.316 -1.9292 -1.2041 -0.1688
 6807SOL    HW222022   1.988   4.724   5.475 -0.5533  1.1948 -0.1502
 6808SOL     OW22023   6.348   5.226   0.564 -0.1655  0.4947  0.1590
 6808SOL    HW122024   6.310   5.224   0.472  1.1032  0.0049 -0.3892
 6808SOL    HW222025   6.311   5.303   0.614 -1.0122  0.6637 -0.7046
 6809SOL     OW22026   2.240   1.314   6.903  0.4307 -0.3666 -0.2592
 6809SOL    HW122027   2.236   1.402   6.856 -2.3917  0.8492  1.9820
 6809SOL    HW222028   2.324   1.308   6.956  0.1779  1.5358  0.4383
 6810SOL     OW22029   5.709   1.033   2.383  0.4826 -0.3442 -0.1857
 6810SOL    HW122030   5.776   1.069   2.448 -1.6296  1.4756  1.1353
 6810SOL    HW222031   5.678   0.943   2.414  0.9854 -0.4018  0.1689
 6811SOL     OW22032   1.671   0.554   0.729  0.6713  0.3195 -0.3808
 6811SOL    HW122033   1.636   0.555   0.635 -2.6594  0.3990  0.7178
 6811SOL    HW222034   1.652   0.464   0.770  2.2340  0.2280  0.2268
 6812SOL     OW22035   5.124   2.578   0.228  0.3028  0.0702 -0.2603
 6812SOL    HW122036   5.130   2.673   0.197 -1.1207  0.3450  0.2097
 6812SOL    HW222037   5.028   2.555   0.246  0.8596 -0.5000  2.5173
 6813SOL     OW22038   0.901   5.139   2.321  0.2344  0.1578 -0.3220
 6813SOL    HW122039   0.948   5.067   2.372 -0.8576 -0.1908  0.2297
 6813SOL    HW222040   0.939   5.145   2.229  1.3664 -0.0782  0.1067
 6814SOL     OW22041   0.531   1.527   1.957 -0.3832 -0.0803 -0.2773
 6814SOL    HW122042   0.471   1.608   1.957  0.8057  0.8291 -0.7032
 6814SOL    HW222043   0.594   1.532   2.035 -1.4581 -1.5282  0.7433
 6815SOL     OW22044   4.700   4.257   5.330 -0.1000  0.1579  0.1285
 6815SOL    HW122045   4.695   4.339   5.388 -0.0677 -0.4796  1.0623
 6815SOL    HW222046   4.765   4.193   5.370 -0.8279 -0.7218 -0.0699
 6816SOL     OW22047   1.047   2.992   4.532  0.0554 -0.2683 -0.0174
 6816SOL    HW122048   1.146   2.998   4.522  0.0912  0.5665  0.7028
 6816SOL    HW222049   1.025   2.939   4.614 -0.0360  1.0590  0.8543
 6817SOL     OW22050   2.047   1.390   5.434  0.0647  0.0465  0.0295
 6817SOL    HW122051   2.143   1.416   5.445 -0.4711  2.0791  0.3071
 6817SOL    HW222052   2.004   1.452   5.369 -0.9073 -1.2833 -0.6178
 6818SOL     OW22053   2.398   0.973   0.031  0.6343 -0.4970  0.1230
 6818SOL    HW122054   2.397   0.905  -0.042  0.1636 -0.4241  0.0563
 6818SOL    HW222055   2.453   1.052   0.003  0.2398 -0.3567 -0.2617
 6819SOL     OW22056   2.588   4.600   6.869 -0.0934 -0.5429  0.2534
 6819SOL    HW122057   2.545   4.586   6.779 -0.5851  1.6080  0.0905
 6819SOL    HW222058   2.534   4.554   6.939 -0.2288 -1.4671 -0.4439
 6820SOL     OW22059   6.785   3.843   3.562 -0.3279  0.0025 -0.4741
 6820SOL    HW122060   6.783   3.804   3.470 -0.6343  0.1810 -0.5430
 6820SOL    HW222061   6.864   3.904   3.571 -0.1964 -0.1536 -0.5603
 6821SOL     OW22062   2.179   1.030   2.238 -0.7367  0.2277 -0.5911
 6821SOL    HW122063   2.173   1.048   2.140 -0.4393  2.0848 -0.2965
 6821SOL    HW222064   2.269   1.055   2.271 -0.6080 -1.0207  0.0627
 6822SOL     OW22065   1.012   4.949   2.478 -0.4094  0.1480 -0.4897
 6822SOL    HW122066   0.967   4.960   2.566 -1.7404  1.9125 -1.3270
 6822SOL    HW222067   1.111   4.945   2.491 -0.5156  1.4986  1.0019
 6823SOL     OW22068   0.890   1.976   5.260  0.5131 -0.0154  0.0214
 6823SOL    HW122069   0.846   1.895   5.297 -0.3411 -0.8252 -2.5415
 6823SOL    HW222070   0.989   1.962   5.258  0.3911 -0.9072 -0.1854
 6824SOL     OW22071   5.954   2.452   3.828 -0.8476 -0.0582 -0.4864
 6824SOL    HW122072   5.971   2.355   3.845  0.2253  0.1868 -0.0473
 6824SOL    HW222073   5.984   2.475   3.735  0.6244  0.2165  0.0328
 6825SOL     OW22074   0.455   6.714   1.178  0.0312  0.0151  0.0454
 6825SOL    HW122075   0.431   6.801   1.134 -2.3889 -0.3973  0.4156
 6825SOL    HW222076   0.462   6.727   1.276  1.1409  0.0537 -0.0226
 6826SOL     OW22077   2.240   3.702   1.386  0.2221  0.1432  0.2314
 6826SOL    HW122078   2.329   3.732   1.351 -0.2120  1.0842 -0.0996
 6826SOL    HW222079   2.252   3.625   1.448  1.3312  0.7058  0.7271
 6827SOL     OW22080   5.764   6.866   0.740  0.6189  0.8060 -0.1191
 6827SOL    HW122081   5.725   6.850   0.830  0.6182  0.9458 -0.0957
 6827SOL    HW222082   5.775   6.964   0.724  1.3062  0.7564  0.0234
 6828SOL     OW22083   5.821   1.523   0.154  0.4610  0.4338  0.1954
 6828SOL    HW122084   5.765   1.605   0.143  0.6839  0.5105 -0.3693
 6828SOL    HW222085   5.791   1.474   0.236 -0.4646  0.4432 -0.1220
 6829SOL     OW22086   1.141   3.599   0.128 -0.0064  0.1180 -0.3825
 6829SOL    HW122087   1.198   3.549   0.193 -1.0745 -1.6376 -0.7557
 6829SOL    HW222088   1.124   3.691   0.163  0.5178 -0.3559  1.1894
 6830SOL     OW22089   2.106   1.743   4.946  0.5883  0.1597  0.5887
 6830SOL    HW122090   2.123   1.743   4.848 -0.0695  0.2857  0.4701
 6830SOL    HW222091   2.065   1.655   4.973  1.7445 -0.2963  0.9354
 6831SOL     OW22092   4.433   6.028   4.976  0.1559  0.1201  0.4168
 6831SOL    HW122093   4.533   6.029   4.979  0.1409 -0.3077  1.1203
 6831SOL    HW222094   4.397   5.998   5.064 -0.6264  1.4779  0.5856
 6832SOL     OW22095   5.291   5.490   0.221 -0.4148 -0.2153  0.3341
 6832SOL    HW122096   5.300   5.572   0.278  1.1261 -0.2640  0.2003
 6832SOL    HW222097   5.303   5.514   0.125  2.1357 -0.8429  0.4305
 6833SOL     OW22098   4.701   2.041   3.953 -0.1636  0.1563  0.3916
 6833SOL    HW122099   4.691   2.096   3.870 -0.0112 -1.3582 -0.6862
 6833SOL    HW222100   4.782   1.982   3.944 -1.3285 -1.5519  0.6854
 6834SOL     OW22101   0.928   3.892   3.017 -0.4956 -0.1407  0.1548
 6834SOL    HW122102   0.955   3.988   3.022 -0.0584 -0.2610  0.1851
 6834SOL    HW222103   1.004   3.835   3.050 -0.3088 -0.5600 -0.9394
 6835SOL     OW22104   1.697   5.168   5.502  0.1565  0.3672 -0.0912
 6835SOL    HW122105   1.748   5.205   5.580 -2.0417  0.4614  1.3737
 6835SOL    HW222106   1.626   5.233   5.475 -2.0642 -1.5795  0.7951
 6836SOL     OW22107   2.327   2.296   2.153  0.4198 -0.0343  0.7216
 6836SOL    HW122108   2.382   2.339   2.225  0.3493 -0.1805  0.8622
 6836SOL    HW222109   2.367   2.209   2.127  1.1889  0.6150 -0.3444
 6837SOL     OW22110   2.183   4.801   6.458 -0.0207  0.0817  0.1167
 6837SOL    HW122111   2.264   4.805   6.399  1.0617  3.1289  1.5757
 6837SOL    HW222112   2.103   4.831   6.407  0.5387  0.8736 -0.3155
 6838SOL     OW22113   5.544   4.638   4.326  0.7835 -0.3211 -0.0195
 6838SOL    HW122114   5.574   4.704   4.258 -0.3113  0.9460  0.6887
 6838SOL    HW222115   5.623   4.587   4.361  1.9351  1.9093  0.7827
 6839SOL     OW22116   1.886   0.060   5.437 -0.5609  0.2956 -0.4632
 6839SOL    HW122117   1.913   0.156   5.436  0.6669  0.0392  2.0452
 6839SOL    HW222118   1.789   0.053   5.461 -0.5286  0.8836 -0.1498
 6840SOL     OW22119   2.784   5.546   1.608  0.3143  0.0339  0.3377
 6840SOL    HW122120   2.733   5.632   1.598 -0.0309 -0.1716  0.3018
 6840SOL    HW222121   2.837   5.548   1.693 -3.1012 -1.4173  2.7613
 6841SOL     OW22122   1.713   1.999   2.940  0.4291  0.5469  0.3515
 6841SOL    HW122123   1.657   2.083   2.942 -0.4954 -0.0469  0.1960
 6841SOL    HW222124   1.716   1.959   3.032  2.5884  1.8081  0.9157
 6842SOL     OW22125   6.807   5.474   6.846  0.3443 -0.2843  0.3111
 6842SOL    HW122126   6.834   5.568   6.824 -0.5916  0.0471  0.5189
 6842SOL    HW222127   6.781   5.469   6.942  0.3841 -0.7535  0.2962
 6843SOL     OW22128   3.590   0.305   4.862 -0.0141  0.1088 -0.0671
 6843SOL    HW122129   3.681   0.290   4.824  0.1254 -3.8046  1.3431
 6843SOL    HW222130   3.522   0.264   4.801 -1.0314  3.4344 -1.3667
 6844SOL     OW22131   5.769   5.727   2.248  1.0686 -0.5967 -0.3647
 6844SOL    HW122132   5.691   5.694   2.195 -0.2712  0.2206  1.0186
 6844SOL    HW222133   5.832   5.652   2.266 -0.7436 -1.9113  0.7642
 6845SOL     OW22134   1.330   0.480   5.822 -0.1646 -0.6529  0.2278
 6845SOL    HW122135   1.376   0.467   5.910 -0.2829 -0.1109  0.3683
 6845SOL    HW222136   1.234   0.455   5.830 -0.0793 -1.0374  0.1296
 6846SOL     OW22137   1.254   6.951   6.900  0.0732  0.0173  0.1178
 6846SOL    HW122138   1.245   7.049   6.883 -1.4662 -0.1283 -0.0220
 6846SOL    HW222139   1.326   6.914   6.841  1.8065  1.3094  1.3109
 6847SOL     OW22140   2.005   0.815   1.716  0.3009 -0.4014 -0.1750
 6847SOL    HW122141   1.921   0.860   1.686  1.1349  1.5219  0.2242
 6847SOL    HW222142   2.003   0.807   1.816 -0.4429 -2.6095 -0.3067
 6848SOL     OW22143   0.602   6.011   4.848  0.2868 -0.3254 -0.4972
 6848SOL    HW122144   0.547   5.968   4.919 -0.7530  1.0368 -0.4579
 6848SOL    HW222145   0.690   5.963   4.841  0.0870 -0.9824  1.1275
 6849SOL     OW22146   1.702   0.056   4.685 -0.1166  0.1050  0.1855
 6849SOL    HW122147   1.651  -0.006   4.626 -2.2939  0.0237  2.0045
 6849SOL    HW222148   1.784   0.009   4.720 -0.2441 -0.7486 -0.6092
 6850SOL     OW22149   5.009   5.308   2.381  0.0581 -0.0340 -0.1641
 6850SOL    HW122150   4.980   5.362   2.302  0.6093 -0.6921 -0.8289
 6850SOL    HW222151   4.935   5.305   2.448  0.4481  2.6135  0.4945
 6851SOL     OW22152   4.360   1.176   0.500 -0.4780 -0.4523 -0.0256
 6851SOL    HW122153   4.388   1.217   0.587 -1.4123 -0.9138  0.5070
 6851SOL    HW222154   4.267   1.140   0.508 -2.1192  2.7726 -2.3164
 6852SOL     OW22155   1.518   1.713   1.458  0.2287  0.1087  0.0432
 6852SOL    HW122156   1.466   1.798   1.454 -0.2207 -0.2144 -2.1478
 6852SOL    HW222157   1.465   1.644   1.507 -0.0374  0.6506  0.5326
 6853SOL     OW22158   6.635   3.289   5.566  0.4552 -0.0693  0.3857
 6853SOL    HW122159   6.655   3.360   5.633 -2.2256 -0.8206  2.1408
 6853SOL    HW222160   6.678   3.203   5.593 -1.1090 -0.5236  1.5788
 6854SOL     OW22161   0.229   3.692   4.770 -0.0850 -0.2717 -0.0426
 6854SOL    HW122162   0.312   3.739   4.802 -0.9342  0.8226  0.6603
 6854SOL    HW222163   0.189   3.640   4.846 -0.6336  0.1095 -0.0636
 6855SOL     OW22164   6.868   3.186   5.915 -0.0258 -0.0465  0.4154
 6855SOL    HW122165   6.899   3.253   5.848 -1.0898  0.2527  0.1946
 6855SOL    HW222166   6.928   3.189   5.995 -0.3885  1.6144  0.6722
 6856SOL     OW22167   6.109   0.853   0.190 -0.1366  0.1726 -0.1670
 6856SOL    HW122168   6.027   0.809   0.154 -0.7835  1.3414 -0.1874
 6856SOL    HW222169   6.189   0.799   0.166 -0.9539 -1.4464  0.5631
 6857SOL     OW22170   3.214   0.762   2.441 -0.2983 -0.4858  0.5612
 6857SOL    HW122171   3.124   0.723   2.460 -0.6846 -0.2632 -0.7082
 6857SOL    HW222172   3.204   0.855   2.405  0.4577 -0.3236  0.7412
 6858SOL     OW22173   4.820   0.620   3.977  0.1427 -0.0956  0.4517
 6858SOL    HW122174   4.829   0.714   4.010 -1.4886  0.2706 -0.0735
 6858SOL    HW222175   4.792   0.560   4.052 -0.2407  0.1113  0.4752
 6859SOL     OW22176   3.539   6.719   3.795 -0.0384 -0.0996 -0.3265
 6859SOL    HW122177   3.532   6.766   3.883 -1.2629  1.7624 -1.3435
 6859SOL    HW222178   3.600   6.771   3.734  1.2359 -1.6570 -0.4410
 6860SOL     OW22179   4.848   0.105   0.091  0.2695  0.4019 -0.4196
 6860SOL    HW122180   4.757   0.063   0.095 -0.2786  1.4272 -1.4828
 6860SOL    HW222181   4.901   0.059   0.019  0.8952 -0.7047  0.7047
 6861SOL     OW22182   2.243   3.034   1.571  0.0746  0.3368  0.4246
 6861SOL    HW122183   2.164   3.093   1.560 -0.4751 -0.5279 -0.4020
 6861SOL    HW222184   2.323   3.076   1.527 -0.0313  0.9644  0.8117
 6862SOL     OW22185   0.601   3.954   0.538  0.7198 -0.2372  0.2144
 6862SOL    HW122186   0.673   3.978   0.474 -0.2736  0.3317 -0.7153
 6862SOL    HW222187   0.520   3.924   0.488  0.2267 -0.6730  1.2333
 6863SOL     OW22188   6.356   2.734   5.139 -0.0609 -0.0748 -0.0156
 6863SOL    HW122189   6.325   2.757   5.231  1.8304 -0.4053  0.7392
 6863SOL    HW222190   6.380   2.637   5.135  1.2652  0.2528 -0.4209
 6864SOL     OW22191   6.113   2.365   6.319  0.3420 -0.3437 -0.3087
 6864SOL    HW122192   6.103   2.280   6.371  1.5676 -0.1342  0.3042
 6864SOL    HW222193   6.210   2.382   6.301  0.1446  1.0925 -0.1300
 6865SOL     OW22194   3.710   3.902   5.781  0.0898  0.6838 -0.0143
 6865SOL    HW122195   3.782   3.910   5.850  0.1759  1.2900 -0.1625
 6865SOL    HW222196   3.748   3.863   5.697  0.3355  1.3488 -0.2152
 6866SOL     OW22197   2.310   3.179   0.123  0.0023 -0.0428 -0.0834
 6866SOL    HW122198   2.279   3.228   0.204 -0.6266 -0.4739 -0.0567
 6866SOL    HW222199   2.325   3.244   0.048 -2.8495  0.0302 -0.6959
 6867SOL     OW22200   6.676   1.751   1.371  0.2345 -0.2064  0.5413
 6867SOL    HW122201   6.664   1.741   1.273  0.5039 -0.9273  0.5675
 6867SOL    HW222202   6.602   1.703   1.419 -0.1286  0.4996  0.6902
 6868SOL     OW22203   1.777   6.245   5.490 -0.6734  0.2393  0.0805
 6868SOL    HW122204   1.692   6.198   5.512  0.2988 -1.1080  1.0541
 6868SOL    HW222205   1.849   6.179   5.474  0.7536  1.3625  1.5288
 6869SOL     OW22206   0.779   6.030   6.539  0.0585  0.1283 -0.1733
 6869SOL    HW122207   0.765   6.064   6.446  1.8794  1.2231 -0.1209
 6869SOL    HW222208   0.789   5.931   6.538  1.3433  0.2320 -1.3830
 6870SOL     OW22209   2.173   2.901   2.219 -0.0830  0.6790 -0.4360
 6870SOL    HW122210   2.218   2.829   2.166  0.1690  0.4590  0.0707
 6870SOL    HW222211   2.081   2.917   2.181 -0.8154 -1.1062  0.4555
 6871SOL     OW22212   2.509   3.781   1.339  0.1135  0.0282 -0.6677
 6871SOL    HW122213   2.552   3.714   1.399 -1.9633 -0.2490  0.6072
 6871SOL    HW222214   2.534   3.762   1.244 -0.7074 -2.8166 -0.4039
 6872SOL     OW22215   6.627   3.042   2.112 -0.4296  0.2189  0.6206
 6872SOL    HW122216   6.680   2.957   2.112 -0.8597 -0.0542  1.0345
 6872SOL    HW222217   6.540   3.027   2.160 -0.2970  1.0264  1.1206
 6873SOL     OW22218   4.251   3.395   0.362  0.8076 -0.1430  0.3181
 6873SOL    HW122219   4.216   3.465   0.424 -0.3706  1.1417 -1.6644
 6873SOL    HW222220   4.351   3.394   0.365  0.8339  1.3389  0.7276
 6874SOL     OW22221   3.404   1.511   3.743 -0.2643 -0.0744  0.4350
 6874SOL    HW122222   3.469   1.564   3.690 -0.8833  0.0299 -0.2295
 6874SOL    HW222223   3.388   1.422   3.699  1.5658 -1.2974  2.0821
 6875SOL     OW22224   2.444   5.503   1.373 -0.3636 -0.1719 -0.2125
 6875SOL    HW122225   2.483   5.464   1.456 -1.8134 -0.4901  0.3584
 6875SOL    HW222226   2.385   5.435   1.329 -0.9526  0.5481 -0.5591
 6876SOL     OW22227   3.272   1.973   0.124 -0.1233  0.3865  0.7805
 6876SOL    HW122228   3.369   1.994   0.119  0.3028 -1.3116  1.2204
 6876SOL    HW222229   3.223   2.021   0.051  0.8930  1.9156  1.0636
 6877SOL     OW22230   0.123   1.407   4.736 -0.2258  0.1409 -0.3956
 6877SOL    HW122231   0.138   1.451   4.825  0.1367  0.6128 -0.6860
 6877SOL    HW222232   0.158   1.466   4.663  1.5301 -1.2213 -0.7176
 6878SOL     OW22233   4.976   2.474   5.274 -0.4606 -0.3969  0.5235
 6878SOL    HW122234   4.966   2.375   5.284 -1.8265 -0.3519 -0.1616
 6878SOL    HW222235   4.961   2.499   5.178 -1.6854  0.6282  0.9553
 6879SOL     OW22236   0.224   1.646   5.459 -0.4917 -0.4522  0.2672
 6879SOL    HW122237   0.148   1.615   5.401 -1.1132 -0.1222  0.8880
 6879SOL    HW222238   0.221   1.598   5.546  0.1625 -0.6088  0.2057
 6880SOL     OW22239   3.508   0.443   6.196  0.1988  0.1381  0.2211
 6880SOL    HW122240   3.570   0.514   6.162  0.2714  0.4765  1.0458
 6880SOL    HW222241   3.531   0.355   6.153  1.0671  0.3157  0.3064
 6881SOL     OW22242   1.536   6.321   4.053 -0.5423 -0.2067 -0.2911
 6881SOL    HW122243   1.513   6.411   4.016 -2.0590 -0.4284  0.0433
 6881SOL    HW222244   1.457   6.260   4.045 -0.6110 -0.5809  2.2944
 6882SOL     OW22245   5.004   4.805   2.596 -0.2491  0.0266  0.1233
 6882SOL    HW122246   5.004   4.845   2.688 -0.9601 -2.5264  1.3129
 6882SOL    HW222247   4.917   4.758   2.581  0.6436 -1.3200 -1.0512
 6883SOL     OW22248   0.826   1.463   2.651 -0.9685 -0.1146 -0.8376
 6883SOL    HW122249   0.742   1.418   2.620 -1.7873  0.0346  0.9987
 6883SOL    HW222250   0.832   1.457   2.751  1.0080  0.2613 -0.8909
 6884SOL     OW22251   4.994   5.437   6.572 -0.7789 -0.1783  0.1064
 6884SOL    HW122252   4.963   5.530   6.556 -1.9463 -0.6156 -0.2972
 6884SOL    HW222253   5.083   5.423   6.528 -0.7515  0.6386 -0.1059
 6885SOL     OW22254   6.055   0.754   0.915  0.5210 -0.2227  0.5804
 6885SOL    HW122255   6.131   0.784   0.857  1.4320 -0.3817  1.6667
 6885SOL    HW222256   5.993   0.831   0.931  0.6651  0.0147  0.0161
 6886SOL     OW22257   6.201   0.491   3.660 -1.0309  1.0661  0.5766
 6886SOL    HW122258   6.203   0.391   3.655  2.4683  0.9792  1.0605
 6886SOL    HW222259   6.185   0.528   3.568 -3.1381  0.1327  0.5121
 6887SOL     OW22260   3.453   5.797   5.737 -0.1637 -0.5748  0.2674
 6887SOL    HW122261   3.458   5.711   5.686 -0.1826 -1.1849  1.2780
 6887SOL    HW222262   3.367   5.844   5.714  0.3959 -0.2013 -1.2205
 6888SOL     OW22263   3.159   0.543   2.150 -0.3591  0.1470 -0.1593
 6888SOL    HW122264   3.081   0.486   2.174 -0.7119  0.9658  0.7192
 6888SOL    HW222265   3.133   0.640   2.159  1.1107  0.4331  1.3300
 6889SOL     OW22266   5.904   2.082   6.661 -0.2095 -0.1279 -0.1133
 6889SOL    HW122267   5.813   2.124   6.671 -0.3032 -0.3165 -0.1659
 6889SOL    HW222268   5.965   2.120   6.730 -0.0215  0.8129 -0.7777
 6890SOL     OW22269   6.959   0.671   5.703  0.3984  0.0069  0.3182
 6890SOL    HW122270   6.870   0.664   5.749  0.9873  0.6767  1.6219
 6890SOL    HW222271   6.946   0.680   5.605 -0.9257 -1.2128  0.3451
 6891SOL     OW22272   6.421   0.385   1.880  0.1423 -0.0829 -0.5433
 6891SOL    HW122273   6.516   0.370   1.910 -0.5888  2.7541  4.3093
 6891SOL    HW222274   6.362   0.316   1.921 -0.4613  1.7115  1.8016
 6892SOL     OW22275   6.373   4.575   0.824  0.3774 -0.0995 -0.2367
 6892SOL    HW122276   6.420   4.621   0.749  0.2369  0.7424  0.1812
 6892SOL    HW222277   6.330   4.492   0.790  0.8773 -0.0802 -0.9444
 6893SOL     OW22278   5.362   0.505   2.977 -0.3340  0.1154 -0.4874
 6893SOL    HW122279   5.401   0.422   3.017  0.2006  0.8108  0.4888
 6893SOL    HW222280   5.339   0.569   3.051 -0.8754  0.7775 -1.2216
 6894SOL     OW22281   0.138   3.447   5.918 -0.0244 -0.4241 -0.4458
 6894SOL    HW122282   0.046   3.459   5.883  0.5270  0.3292 -1.7202
 6894SOL    HW222283   0.202   3.437   5.842  1.1495  0.7299  0.3341
 6895SOL     OW22284   4.467   5.630   3.791 -0.1630 -0.4115 -0.2576
 6895SOL    HW122285   4.467   5.706   3.725 -0.0186 -1.1598 -1.1451
 6895SOL    HW222286   4.468   5.544   3.741  0.2300 -0.9979  0.7481
 6896SOL     OW22287   5.832   4.447   4.147  0.0274 -0.7491  0.5423
 6896SOL    HW122288   5.890   4.465   4.226  0.6768 -1.6933  0.2930
 6896SOL    HW222289   5.855   4.358   4.108 -0.8081 -0.6318 -0.2531
 6897SOL     OW22290   2.552   5.661   1.910  0.1373  0.5914  0.0434
 6897SOL    HW122291   2.608   5.693   1.986  1.5517 -0.4989 -0.4849
 6897SOL    HW222292   2.581   5.706   1.825  0.1755  0.0968 -0.2157
 6898SOL     OW22293   3.046   6.927   1.957 -0.5047  0.0635 -0.0973
 6898SOL    HW122294   3.129   6.881   1.987 -1.4795 -1.8417 -0.1449
 6898SOL    HW222295   3.013   6.987   2.030  0.8260  0.7400 -0.0391
 6899SOL     OW22296   0.728   0.095   0.299 -0.2337 -0.3103  0.0632
 6899SOL    HW122297   0.771   0.035   0.232  0.6862 -1.2687  1.4475
 6899SOL    HW222298   0.798   0.137   0.357 -1.0544 -0.9990  1.6383
 6900SOL     OW22299   1.342   4.313   1.850 -0.3416 -0.0831  0.2595
 6900SOL    HW122300   1.385   4.361   1.774 -1.2956  0.4799  0.0612
 6900SOL    HW222301   1.407   4.306   1.926  0.7698 -1.0212 -0.7303
 6901SOL     OW22302   3.256   6.746   3.769  0.0033 -0.1295 -0.2615
 6901SOL    HW122303   3.348   6.705   3.767  0.4646  0.7945 -2.7828
 6901SOL    HW222304   3.195   6.689   3.823  1.7318 -1.5515  0.2874
 6902SOL     OW22305   2.814   0.785   5.890 -0.7178  0.2754  0.7128
 6902SOL    HW122306   2.906   0.746   5.897 -0.3036  0.9843 -0.5632
 6902SOL    HW222307   2.749   0.725   5.937  0.3600 -0.3167  1.4966
 6903SOL     OW22308   3.403   4.208   5.692  0.0537 -0.0623 -0.6241
 6903SOL    HW122309   3.357   4.140   5.749  0.7993  0.2038  0.3222
 6903SOL    HW222310   3.335   4.265   5.646 -0.5598 -0.6572 -0.4673
 6904SOL     OW22311   3.047   3.572   4.126  0.2262 -0.5295 -0.5005
 6904SOL    HW122312   3.083   3.522   4.205 -0.7042  1.1725  1.0723
 6904SOL    HW222313   2.976   3.518   4.081 -1.9849 -0.0645  2.1837
 6905SOL     OW22314   3.441   0.672   2.023  0.0844 -1.0030 -0.0956
 6905SOL    HW122315   3.468   0.698   2.115  1.7946  0.5979 -0.9874
 6905SOL    HW222316   3.356   0.620   2.027  0.4702 -1.5837  2.4162
 6906SOL     OW22317   6.527   5.062   4.224 -0.0296 -0.4494  0.1889
 6906SOL    HW122318   6.558   5.024   4.311  2.4821 -1.0952 -0.8884
 6906SOL    HW222319   6.557   5.003   4.149 -1.3482  0.5514 -1.1924
 6907SOL     OW22320   4.697   3.452   3.380 -0.4298  0.2989 -0.2264
 6907SOL    HW122321   4.721   3.388   3.453 -0.5759  1.1230  0.5572
 6907SOL    HW222322   4.780   3.485   3.336 -0.3323 -0.0835 -0.3286
 6908SOL     OW22323   0.261   6.813   1.746 -0.1475 -0.1616  0.3674
 6908SOL    HW122324   0.210   6.727   1.748 -2.2768  1.0211  0.3892
 6908SOL    HW222325   0.236   6.865   1.665 -0.7687  1.4651  1.5416
 6909SOL     OW22326   0.170   1.207   3.847 -0.6016 -0.6732  0.0718
 6909SOL    HW122327   0.247   1.218   3.784 -0.4664 -0.2445  0.3084
 6909SOL    HW222328   0.202   1.219   3.941 -0.4547 -3.0042  0.3801
 6910SOL     OW22329   6.445   4.674   1.272  0.1114  0.2809 -0.1085
 6910SOL    HW122330   6.475   4.659   1.178  0.4229  1.0804 -0.1507
 6910SOL    HW222331   6.520   4.654   1.335  0.7545  2.1175 -0.2039
 6911SOL     OW22332   2.423   5.534   2.461  0.0215  0.1318 -0.4267
 6911SOL    HW122333   2.359   5.458   2.455 -1.8470  1.1181  3.6885
 6911SOL    HW222334   2.384   5.614   2.416 -0.4810  0.0602 -0.1198
 6912SOL     OW22335   5.099   4.744   0.034 -0.5369  0.0435 -0.5338
 6912SOL    HW122336   5.161   4.700  -0.031 -1.0125 -0.0186 -0.9583
 6912SOL    HW222337   5.075   4.835  -0.000 -0.6197  0.0968 -0.3347
 6913SOL     OW22338   3.068   2.979   5.494 -0.4049  0.2364  0.3089
 6913SOL    HW122339   3.075   3.066   5.445 -1.0251  0.6306  0.9152
 6913SOL    HW222340   3.129   2.912   5.451 -0.2506  0.8395 -0.4308
 6914SOL     OW22341   1.482   6.937   2.210  0.2931  0.1942  0.1680
 6914SOL    HW122342   1.489   6.902   2.117  0.5475  0.9352 -0.1027
 6914SOL    HW222343   1.386   6.960   2.230  0.3021  0.4609 -0.0814
 6915SOL     OW22344   0.151   3.167   1.766  0.0113 -0.2717  0.0680
 6915SOL    HW122345   0.152   3.073   1.799  1.9405  0.1886  1.5208
 6915SOL    HW222346   0.240   3.189   1.726 -1.5512 -0.1559 -3.7868
 6916SOL     OW22347   5.981   4.587   6.050  0.0461  0.7990  0.2596
 6916SOL    HW122348   5.961   4.671   6.100 -2.8624 -0.0662  0.6885
 6916SOL    HW222349   5.953   4.597   5.955 -2.5236 -0.3870  0.8336
 6917SOL     OW22350   3.325   4.044   6.324  0.0098 -0.4309  0.0329
 6917SOL    HW122351   3.394   3.976   6.297  0.6331  0.2264 -0.0775
 6917SOL    HW222352   3.370   4.119   6.373 -0.8749 -0.8007  1.4516
 6918SOL     OW22353   5.891   1.072   2.598  0.4449 -0.2472  0.1002
 6918SOL    HW122354   5.942   0.986   2.599  1.2059  0.1851  1.1471
 6918SOL    HW222355   5.836   1.080   2.681 -0.8569 -0.4098 -0.7167
 6919SOL     OW22356   3.419   4.097   3.517 -0.2034 -0.3670  0.3142
 6919SOL    HW122357   3.511   4.133   3.505 -0.3989  0.6461  1.5405
 6919SOL    HW222358   3.358   4.137   3.448  0.1744 -0.6596 -0.1897
 6920SOL     OW22359   7.017   0.223   4.689  0.4066 -0.0243 -0.4703
 6920SOL    HW122360   7.096   0.202   4.747  2.0610  2.0689 -1.7840
 6920SOL    HW222361   6.937   0.242   4.747  1.5743  0.4176  1.0664
 6921SOL     OW22362   1.692   6.357   3.389 -0.3283 -0.6008 -0.2911
 6921SOL    HW122363   1.768   6.306   3.429  0.4905  0.9663  0.2377
 6921SOL    HW222364   1.659   6.424   3.454 -2.1827 -1.2173 -0.5267
 6922SOL     OW22365   6.877   2.578   4.507  0.2203  0.1562  0.5621
 6922SOL    HW122366   6.968   2.561   4.468 -0.0171 -0.1420  0.1441
 6922SOL    HW222367   6.807   2.542   4.446 -0.1073 -2.9129  2.5202
 6923SOL     OW22368   5.896   4.849   3.280  0.1040 -0.0289 -0.6284
 6923SOL    HW122369   5.972   4.814   3.333  2.5874  1.9510 -2.6249
 6923SOL    HW222370   5.825   4.778   3.272  1.1644 -1.5622  2.1994
 6924SOL     OW22371   6.501   0.860   5.154  0.5797 -0.1841  0.0837
 6924SOL    HW122372   6.476   0.890   5.062 -0.9434 -2.3762 -0.3010
 6924SOL    HW222373   6.580   0.912   5.186  0.3697  1.5096 -1.9303
 6925SOL     OW22374   1.856   6.480   6.320 -0.4207  0.1674 -0.0418
 6925SOL    HW122375   1.850   6.552   6.251  2.0307  2.1053  1.5794
 6925SOL    HW222376   1.879   6.393   6.276  0.1516  1.1369 -1.7514
 6926SOL     OW22377   5.685   5.632   3.459 -0.3554 -0.0430 -0.2601
 6926SOL    HW122378   5.702   5.546   3.507 -0.3902  0.0317 -0.1133
 6926SOL    HW222379   5.738   5.705   3.502  0.9081 -0.2823 -1.3457
 6927SOL     OW22380   1.257   1.893   4.836 -0.3295  0.1873 -0.4479
 6927SOL    HW122381   1.200   1.868   4.758 -2.5540  0.6245  0.9181
 6927SOL    HW222382   1.292   1.811   4.880  0.6014 -0.0692 -1.6267
 6928SOL     OW22383   3.427   1.256   3.620 -0.2644  0.4887 -0.2985
 6928SOL    HW122384   3.436   1.189   3.694 -1.3988 -0.6473 -1.1458
 6928SOL    HW222385   3.401   1.209   3.536  0.2047  1.8590 -1.2293
 6929SOL     OW22386   3.048   3.161   6.270  0.3089  0.0916  0.4097
 6929SOL    HW122387   3.012   3.253   6.251  0.8669  0.2383  0.0539
 6929SOL    HW222388   3.043   3.144   6.369 -0.1660  0.3459  0.4328
 6930SOL     OW22389   0.684   6.605   0.515  0.5196 -0.3186 -0.9667
 6930SOL    HW122390   0.778   6.580   0.538  0.2036 -1.1074 -0.4771
 6930SOL    HW222391   0.683   6.657   0.430  1.4111 -0.1746 -0.8990
 6931SOL     OW22392   6.316   3.553   4.383  0.2591 -0.1027 -0.0281
 6931SOL    HW122393   6.378   3.504   4.323 -0.3302 -0.6354 -0.2161
 6931SOL    HW222394   6.321   3.515   4.475 -0.6922 -0.9913 -0.3253
 6932SOL     OW22395   1.447   6.051   0.801 -0.3481  0.0914 -0.5783
 6932SOL    HW122396   1.355   6.060   0.838 -0.4852 -0.0351 -0.8871
 6932SOL    HW222397   1.503   5.996   0.863 -0.3972  0.4068 -0.2477
 6933SOL     OW22398   5.221   6.507   2.677 -0.5380  0.1489  0.4476
 6933SOL    HW122399   5.167   6.465   2.604  0.2917  0.1912 -0.2164
 6933SOL    HW222400   5.190   6.601   2.691 -0.6118  0.1895  0.0410
 6934SOL     OW22401   6.912   6.464   5.285  0.1250  0.4399 -0.2852
 6934SOL    HW122402   6.885   6.442   5.191 -0.0852 -1.4959  0.1731
 6934SOL    HW222403   6.964   6.388   5.323 -0.9852  0.5547  1.6117
 6935SOL     OW22404   3.694   1.818   1.451 -0.5136 -0.4160  0.1694
 6935SOL    HW122405   3.717   1.725   1.481 -2.1896 -0.5206  1.2658
 6935SOL    HW222406   3.648   1.814   1.362  0.6346 -0.4959 -0.4331
 6936SOL     OW22407   4.514   4.115   5.199  0.2283  0.3805  0.2635
 6936SOL    HW122408   4.568   4.175   5.259 -1.1084  1.8119  0.0840
 6936SOL    HW222409   4.417   4.139   5.206 -0.0403  0.1165 -1.9462
 6937SOL     OW22410   4.616   2.462   2.104 -0.3121  0.0370 -0.5194
 6937SOL    HW122411   4.631   2.526   2.179 -0.0488 -0.7106  0.0763
 6937SOL    HW222412   4.661   2.375   2.124 -0.4514 -0.2614 -1.4301
 6938SOL     OW22413   2.702   4.487   1.572 -1.1637  0.3089 -0.4895
 6938SOL    HW122414   2.637   4.472   1.497 -2.6766 -0.5703  0.9192
 6938SOL    HW222415   2.729   4.583   1.574 -0.7274  0.2614 -2.4145
 6939SOL     OW22416   2.058   1.522   2.862 -0.0167 -0.0233 -0.9359
 6939SOL    HW122417   2.028   1.539   2.768  1.1650  0.2064 -1.2811
 6939SOL    HW222418   2.153   1.550   2.873  0.0130 -0.5021  0.2060
 6940SOL     OW22419   1.632   5.447   2.281  0.3175  0.4418  0.0826
 6940SOL    HW122420   1.538   5.474   2.260  0.5500 -0.3393 -2.1938
 6940SOL    HW222421   1.682   5.525   2.318 -1.3822  0.6810  2.0277
 6941SOL     OW22422   6.242   1.453   6.700 -0.5124  0.5591  0.0517
 6941SOL    HW122423   6.172   1.514   6.737 -0.0089  2.1615 -1.4850
 6941SOL    HW222424   6.329   1.472   6.745  0.0501  2.3512 -1.6272
 6942SOL     OW22425   1.298   4.099   0.461 -0.5383 -0.5456  0.0023
 6942SOL    HW122426   1.282   4.177   0.521 -0.8534  1.0039 -1.9902
 6942SOL    HW222427   1.211   4.060   0.432 -0.4448 -0.2602 -0.6916
 6943SOL     OW22428   3.167   0.663   5.082  0.1130  0.2502 -0.0756
 6943SOL    HW122429   3.187   0.675   5.179  1.4147 -3.2654  0.2421
 6943SOL    HW222430   3.087   0.604   5.072  0.3824  0.0444 -1.1138
 6944SOL     OW22431   2.009   1.683   5.933 -0.0410  0.6357 -0.2749
 6944SOL    HW122432   2.062   1.599   5.947 -0.7415 -0.0326 -1.4460
 6944SOL    HW222433   1.913   1.660   5.918 -0.0950  1.5551 -1.5583
 6945SOL     OW22434   0.485   0.565   1.641  0.3113 -0.0052  0.0982
 6945SOL    HW122435   0.487   0.662   1.615  0.4765  0.2138  0.8956
 6945SOL    HW222436   0.560   0.517   1.596 -0.4703 -0.0232 -1.2461
 6946SOL     OW22437   0.010   4.956   6.405  0.0267  0.0255 -0.1481
 6946SOL    HW122438  -0.007   5.046   6.366 -1.9863  0.0266  0.6148
 6946SOL    HW222439  -0.025   4.886   6.343  0.2656 -0.1547 -0.0787
 6947SOL     OW22440   0.453   0.569   2.798  0.1826  0.2422 -0.3813
 6947SOL    HW122441   0.414   0.479   2.780  0.1687  0.4847 -1.6698
 6947SOL    HW222442   0.436   0.595   2.893 -0.7552 -0.6558 -0.2922
 6948SOL     OW22443   6.057   4.229   1.715  0.0801 -0.1586  0.7020
 6948SOL    HW122444   6.146   4.194   1.745  0.6701  0.8972  0.2551
 6948SOL    HW222445   6.057   4.329   1.723 -0.4316 -0.0111 -0.9568
 6949SOL     OW22446   6.522   2.358   1.490  0.3875 -0.1928  0.9415
 6949SOL    HW122447   6.494   2.371   1.395 -0.8311 -2.8497  0.8582
 6949SOL    HW222448   6.446   2.383   1.550  1.3715  2.1229  1.3550
 6950SOL     OW22449   5.361   5.903   1.261 -1.1529 -0.4437 -0.1695
 6950SOL    HW122450   5.340   5.866   1.170 -3.5076  0.5257 -0.0965
 6950SOL    HW222451   5.353   5.831   1.329 -0.2730 -0.9778 -0.6178
 6951SOL     OW22452   5.185   1.768   6.154 -0.3738 -0.5712 -0.4075
 6951SOL    HW122453   5.272   1.719   6.147  0.1576  0.1090  1.0325
 6951SOL    HW222454   5.187   1.829   6.234 -1.5606  0.7065 -1.3063
 6952SOL     OW22455   0.769   4.493   0.620  0.3482  0.1755  0.0559
 6952SOL    HW122456   0.771   4.500   0.719 -1.4928 -0.3740  0.1705
 6952SOL    HW222457   0.708   4.562   0.582 -0.2758 -0.6681 -0.5342
 6953SOL     OW22458   3.304   5.825   3.290 -0.1589  1.4661 -0.0545
 6953SOL    HW122459   3.255   5.911   3.305 -3.5346 -0.2944  0.0964
 6953SOL    HW222460   3.283   5.761   3.364  1.3424  0.1170 -0.7360
 6954SOL     OW22461   0.195   0.537   5.681 -0.1556 -0.5053  0.5888
 6954SOL    HW122462   0.257   0.522   5.758  0.4754 -1.7612 -0.1337
 6954SOL    HW222463   0.103   0.555   5.715  0.1239 -1.0015  1.6461
 6955SOL     OW22464   5.918   0.903   5.340 -0.0242 -0.4202  0.0940
 6955SOL    HW122465   5.907   0.984   5.283  0.4906 -0.1311  0.3991
 6955SOL    HW222466   5.962   0.929   5.426  0.4728 -1.0776  0.0454
 6956SOL     OW22467   3.104   0.477   2.878  0.6531  0.5330  0.0734
 6956SOL    HW122468   3.036   0.420   2.832 -2.1457  1.0784  3.1533
 6956SOL    HW222469   3.142   0.543   2.813 -0.8058 -0.6126 -2.0598
 6957SOL     OW22470   5.486   0.022   0.127  0.2436 -0.3574 -0.3334
 6957SOL    HW122471   5.509  -0.052   0.064 -0.9797 -1.5239  0.5406
 6957SOL    HW222472   5.523   0.108   0.092  0.1216 -1.0658 -2.3072
 6958SOL     OW22473   3.768   3.675   3.860  0.2030 -0.5934 -0.2407
 6958SOL    HW122474   3.766   3.764   3.906  0.2292 -0.3531 -0.6978
 6958SOL    HW222475   3.816   3.609   3.918 -1.7080 -0.8785  1.0962
 6959SOL     OW22476   5.036   3.501   6.078 -0.8245  0.3943  0.6609
 6959SOL    HW122477   4.986   3.514   6.163  0.0280 -0.7780  1.3679
 6959SOL    HW222478   5.031   3.405   6.050 -0.4225  0.6089 -0.1849
 6960SOL     OW22479   5.682   6.784   2.158 -0.1322 -0.0756 -0.2777
 6960SOL    HW122480   5.772   6.809   2.124  0.1228 -0.3705  0.1833
 6960SOL    HW222481   5.658   6.840   2.237 -1.7333  2.3177 -2.2786
 6961SOL     OW22482   6.019   6.368   5.851  0.5458  0.0603  0.0361
 6961SOL    HW122483   5.985   6.301   5.917  0.5299  1.2712  1.3125
 6961SOL    HW222484   6.106   6.336   5.812  1.4942  0.0982  2.0088
 6962SOL     OW22485   3.494   0.376   2.122  0.6812  0.1845 -0.2893
 6962SOL    HW122486   3.515   0.474   2.127  0.6136  0.2400 -0.9659
 6962SOL    HW222487   3.427   0.353   2.192  1.7089  0.3442  0.7800
 6963SOL     OW22488   2.080   0.670   5.032 -0.0321  0.4757 -0.3293
 6963SOL    HW122489   2.046   0.708   4.946 -0.3856 -1.2515 -0.9955
 6963SOL    HW222490   2.034   0.714   5.109 -1.0926  0.7376 -1.0921
 6964SOL     OW22491   3.486   0.037   3.664 -0.3454 -0.5186 -0.1886
 6964SOL    HW122492   3.533  -0.033   3.610 -0.2860 -0.9299  0.3912
 6964SOL    HW222493   3.496   0.126   3.619  0.4542 -0.7068 -0.3909
 6965SOL     OW22494   2.349   2.858   0.500  0.5763 -0.3157 -0.4145
 6965SOL    HW122495   2.360   2.954   0.524 -1.0855 -0.3010  0.4612
 6965SOL    HW222496   2.386   2.800   0.573  1.7158 -0.3664 -1.0109
 6966SOL     OW22497   5.710   6.579   1.841  0.8670 -0.4184  0.1271
 6966SOL    HW122498   5.706   6.482   1.818  1.0997 -0.6464  1.0230
 6966SOL    HW222499   5.769   6.592   1.920 -0.5580  0.2331  1.1228
 6967SOL     OW22500   1.757   4.228   6.416 -0.5930 -0.2445 -0.2252
 6967SOL    HW122501   1.781   4.137   6.381  1.7143  0.2308 -0.0225
 6967SOL    HW222502   1.743   4.291   6.340 -0.1570 -0.2917 -0.3463
 6968SOL     OW22503   6.452   0.626   3.386  0.0354  0.2185 -0.1449
 6968SOL    HW122504   6.383   0.573   3.337  0.3544  0.7308 -1.2022
 6968SOL    HW222505   6.537   0.626   3.333 -0.0520  2.0336 -0.3523
 6969SOL     OW22506   2.538   6.333   3.024 -0.6055 -0.7305  0.0921
 6969SOL    HW122507   2.630   6.296   3.015 -0.0607  0.7763 -1.1094
 6969SOL    HW222508   2.535   6.398   3.100 -0.4871 -0.2783 -0.2860
 6970SOL     OW22509   5.698   4.665   3.299 -0.0462 -0.3073  0.8935
 6970SOL    HW122510   5.684   4.678   3.398 -0.1846 -2.1808  1.1553
 6970SOL    HW222511   5.653   4.581   3.270 -0.5976  0.5655 -0.9390
 6971SOL     OW22512   6.928   2.830   1.306 -0.2946  0.0574  0.1216
 6971SOL    HW122513   6.928   2.847   1.405 -1.7218 -1.2670  0.3835
 6971SOL    HW222514   6.970   2.741   1.288 -1.3749 -0.3766 -0.3086
 6972SOL     OW22515   2.381   6.885   4.955 -0.2928  0.0522  0.0039
 6972SOL    HW122516   2.451   6.815   4.950 -0.7798 -0.4045 -0.6424
 6972SOL    HW222517   2.411   6.965   4.902  0.5248  0.5836  1.2430
 6973SOL     OW22518   6.621   6.572   4.263 -0.0364  0.4206  0.3818
 6973SOL    HW122519   6.627   6.630   4.181  1.1481  0.0688  0.1935
 6973SOL    HW222520   6.526   6.566   4.293 -0.6781 -0.3504 -1.6371
 6974SOL     OW22521   6.138   0.993   6.974  0.7286  0.1333 -0.2442
 6974SOL    HW122522   6.045   1.022   6.950  0.1815 -1.9808 -0.9830
 6974SOL    HW222523   6.138   0.953   7.065  1.0792  0.7991  0.0499
 6975SOL     OW22524   5.302   1.412   6.068 -0.6084 -0.1585 -0.1099
 6975SOL    HW122525   5.213   1.456   6.082  0.0503  0.9781  0.6609
 6975SOL    HW222526   5.295   1.346   5.993 -1.9890  0.2049 -0.3330
 6976SOL     OW22527   2.035   2.744   1.294 -0.0276  0.4661  0.0042
 6976SOL    HW122528   1.960   2.806   1.317 -0.3709 -0.4296  1.4083
 6976SOL    HW222529   2.122   2.785   1.324  0.0325  1.3234 -1.2624
 6977SOL     OW22530   1.654   6.084   1.126 -0.1704 -0.1224 -0.0879
 6977SOL    HW122531   1.566   6.127   1.105 -0.5749 -1.1017 -0.4801
 6977SOL    HW222532   1.663   6.000   1.072  0.2233 -0.9792  1.2664
 6978SOL     OW22533   0.204   2.471   5.240  0.1226  0.5121 -0.1519
 6978SOL    HW122534   0.118   2.519   5.253  0.2188  0.6782 -0.1368
 6978SOL    HW222535   0.268   2.529   5.189  1.0457  1.2931  1.7989
 6979SOL     OW22536   6.107   6.458   1.636 -0.5782  0.6428 -0.4338
 6979SOL    HW122537   6.159   6.378   1.607 -0.1334  1.3209 -1.5787
 6979SOL    HW222538   6.104   6.461   1.736  0.5450 -0.0695 -0.3565
 6980SOL     OW22539   4.199   6.615   5.251 -0.3989  0.5360 -0.3339
 6980SOL    HW122540   4.162   6.690   5.307  1.0552  0.5570  0.6382
 6980SOL    HW222541   4.291   6.639   5.220 -0.6193 -0.1130 -1.5190
 6981SOL     OW22542   0.312   1.678   3.241 -0.1022  0.3574  0.4892
 6981SOL    HW122543   0.409   1.661   3.260 -0.1390 -0.0442  0.3321
 6981SOL    HW222544   0.257   1.637   3.314 -0.1382  0.8832  0.7566
 6982SOL     OW22545   4.722   6.297   3.326  0.7510  0.1769 -0.3479
 6982SOL    HW122546   4.691   6.388   3.354  1.4245  0.6099 -0.9602
 6982SOL    HW222547   4.646   6.233   3.329  0.5407  0.4713  1.2864
 6983SOL     OW22548   0.134   4.750   3.418 -0.0090  0.5652  0.3610
 6983SOL    HW122549   0.069   4.674   3.406  0.4237  0.0108  1.4305
 6983SOL    HW222550   0.137   4.777   3.514  1.0777  0.8189  0.2684
 6984SOL     OW22551   3.593   5.244   1.209  0.3707  0.0048 -0.7661
 6984SOL    HW122552   3.512   5.238   1.151  1.3373 -1.5140 -2.0219
 6984SOL    HW222553   3.574   5.202   1.297  0.6670 -3.3167 -2.1499
 6985SOL     OW22554   4.107   3.776   6.639 -0.2847  0.0598 -0.2270
 6985SOL    HW122555   4.179   3.712   6.667  0.3169  1.6915  2.2814
 6985SOL    HW222556   4.023   3.724   6.620  0.4372 -1.5797  0.7593
 6986SOL     OW22557   5.196   4.294   6.579  0.1761 -0.2262  0.5406
 6986SOL    HW122558   5.231   4.204   6.604 -0.6076 -0.8634 -0.5565
 6986SOL    HW222559   5.189   4.301   6.479  1.5785  1.5915  0.5250
 6987SOL     OW22560   2.403   0.566   0.053  0.2441 -0.5126  0.3368
 6987SOL    HW122561   2.452   0.614  -0.020 -2.7644  1.8701 -0.3126
 6987SOL    HW222562   2.371   0.477   0.018 -0.9490  0.4819 -1.3014
 6988SOL     OW22563   2.213   3.590   6.863  0.0882 -0.6612  0.1523
 6988SOL    HW122564   2.213   3.673   6.919  1.9644 -0.0768 -0.6335
 6988SOL    HW222565   2.119   3.555   6.856 -0.3302 -0.3094  2.9078
 6989SOL     OW22566   4.158   3.776   0.908 -0.0217  0.0551 -0.8164
 6989SOL    HW122567   4.127   3.782   0.813  0.3260  0.0009 -0.9367
 6989SOL    HW222568   4.258   3.765   0.910 -0.2726 -3.4975 -0.5948
 6990SOL     OW22569   5.798   1.797   2.166 -0.4071 -0.3651  0.2797
 6990SOL    HW122570   5.860   1.720   2.179  0.8211  0.7434  1.3605
 6990SOL    HW222571   5.847   1.873   2.122 -1.0435  0.4701  0.9671
 6991SOL     OW22572   0.219   5.266   4.785  0.9131  0.3316  0.6258
 6991SOL    HW122573   0.143   5.202   4.782  0.2998  1.0595 -1.1217
 6991SOL    HW222574   0.186   5.355   4.819  0.7620  0.8555 -0.8099
 6992SOL     OW22575   3.174   6.649   4.660  0.0522 -0.4218 -0.1038
 6992SOL    HW122576   3.239   6.641   4.736  0.7544 -0.1273 -0.6619
 6992SOL    HW222577   3.081   6.656   4.696  0.3904 -0.1585  0.7367
 6993SOL     OW22578   4.379   1.343   6.027 -0.0636  0.1134  0.3664
 6993SOL    HW122579   4.369   1.268   6.092  2.7311  0.1038  0.9249
 6993SOL    HW222580   4.411   1.425   6.074 -1.1700  1.1164 -0.5418
 6994SOL     OW22581   3.107   6.532   1.528  0.4934  0.8113  0.4784
 6994SOL    HW122582   3.111   6.441   1.487  1.5227  0.1494  1.9464
 6994SOL    HW222583   3.043   6.589   1.477 -0.9267 -1.0302  0.0975
 6995SOL     OW22584   3.115   5.622   4.491  0.3850 -0.5911 -0.1165
 6995SOL    HW122585   3.132   5.677   4.409  0.0696 -1.0711 -0.5113
 6995SOL    HW222586   3.073   5.535   4.464 -1.0531 -0.1715  0.6663
 6996SOL     OW22587   0.425   4.449   4.291 -0.1209  0.4500  0.7940
 6996SOL    HW122588   0.494   4.514   4.321  0.0968  0.2284  0.7793
 6996SOL    HW222589   0.336   4.474   4.329  0.1979  0.0246  1.8510
 6997SOL     OW22590   2.225   0.756   2.206  0.3408  0.1694  0.2142
 6997SOL    HW122591   2.194   0.849   2.223 -1.6189 -0.9130  3.4155
 6997SOL    HW222592   2.322   0.757   2.178 -0.0602  3.1537 -1.4934
 6998SOL     OW22593   5.356   2.171   5.643  0.4633 -0.0919 -0.1210
 6998SOL    HW122594   5.345   2.141   5.738  0.0795  1.1069  0.2305
 6998SOL    HW222595   5.267   2.200   5.607  0.7470  0.2140 -0.5836
 6999SOL     OW22596   0.845   3.697   4.749  0.6231  0.5447  0.2086
 6999SOL    HW122597   0.778   3.627   4.724  0.8002 -0.4620  2.2825
 6999SOL    HW222598   0.933   3.675   4.707  0.7873 -0.7878  1.1742
 7000SOL     OW22599   5.901   4.889   4.422 -0.2047  0.0919 -0.0300
 7000SOL    HW122600   5.933   4.981   4.402 -2.0719  0.5785 -1.0080
 7000SOL    HW222601   5.934   4.826   4.351  1.5319 -0.1543  0.9337
 7001SOL     OW22602   3.939   3.184   5.554 -0.1773 -0.0734 -0.3085
 7001SOL    HW122603   3.899   3.118   5.490 -0.8532 -0.4145  0.4551
 7001SOL    HW222604   4.038   3.189   5.538 -0.4380  0.4807 -1.9439
 7002SOL     OW22605   1.165   1.048   1.511  0.6572 -0.3252 -0.0250
 7002SOL    HW122606   1.256   1.013   1.494  0.1195 -1.2299 -1.1626
 7002SOL    HW222607   1.109   0.978   1.555  0.0801 -0.3153 -0.7168
 7003SOL     OW22608   4.828   3.923   5.119 -0.3715  0.5201  1.1054
 7003SOL    HW122609   4.824   3.950   5.216  0.7818  1.9895  0.7863
 7003SOL    HW222610   4.736   3.909   5.085 -0.9108  1.6138  2.0129
 7004SOL     OW22611   0.903   5.649   1.639  0.5323  0.1967 -0.1318
 7004SOL    HW122612   0.847   5.569   1.660  1.1075  0.2051  1.5462
 7004SOL    HW222613   0.894   5.671   1.541 -0.0556 -1.5587 -0.5036
 7005SOL     OW22614   4.724   0.833   2.223 -0.0234 -0.4852 -0.0615
 7005SOL    HW122615   4.646   0.875   2.178 -0.7067 -1.7982 -0.1296
 7005SOL    HW222616   4.795   0.812   2.156  1.1493  2.1757  0.1947
 7006SOL     OW22617   3.287   5.446   3.795  0.2795  0.1407 -0.4148
 7006SOL    HW122618   3.359   5.384   3.825  1.5568  2.0460  0.7078
 7006SOL    HW222619   3.329   5.529   3.757 -1.2424  1.9018  1.5275
 7007SOL     OW22620   5.347   1.622   5.527  0.5521  0.3592 -0.6843
 7007SOL    HW122621   5.342   1.683   5.448  0.7547  0.9151 -0.2727
 7007SOL    HW222622   5.292   1.659   5.602  1.6318  0.6694 -0.0180
 7008SOL     OW22623   0.022   1.463   4.153 -0.3215 -0.6570 -0.0650
 7008SOL    HW122624   0.039   1.443   4.250  2.2232 -0.6896 -0.4471
 7008SOL    HW222625  -0.026   1.386   4.111  0.6094 -1.6581  0.6674
 7009SOL     OW22626   4.936   4.212   1.052 -0.0987 -0.1507 -0.0860
 7009SOL    HW122627   5.015   4.249   1.100 -1.8920  2.2644  1.2054
 7009SOL    HW222628   4.956   4.207   0.954  1.3852  1.2074  0.1061
 7010SOL     OW22629   1.595   2.687   5.149  0.1388 -0.0301 -0.3135
 7010SOL    HW122630   1.548   2.601   5.128 -0.1783  0.3001 -0.9872
 7010SOL    HW222631   1.688   2.683   5.113 -0.3435  0.4611 -1.6539
 7011SOL     OW22632   0.736   5.470   5.802 -0.1746  0.0178 -0.3130
 7011SOL    HW122633   0.773   5.415   5.726  0.8154 -0.4759  0.5097
 7011SOL    HW222634   0.665   5.417   5.849  0.4302 -0.3773  0.1698
 7012SOL     OW22635   3.413   4.342   1.124  0.6071 -0.0821  0.0507
 7012SOL    HW122636   3.383   4.248   1.104 -2.0106  1.0546 -1.9145
 7012SOL    HW222637   3.502   4.358   1.082  0.4313 -1.2481 -0.8158
 7013SOL     OW22638   4.104   6.089   2.481  0.3836  0.0227  0.2367
 7013SOL    HW122639   4.131   6.089   2.385  1.5663  1.0078  0.5402
 7013SOL    HW222640   4.185   6.103   2.538 -0.3274 -0.3629  1.3717
 7014SOL     OW22641   0.566   6.567   6.492 -0.4444  0.1789  0.1856
 7014SOL    HW122642   0.622   6.649   6.485 -0.1576 -0.1074 -1.1856
 7014SOL    HW222643   0.600   6.509   6.565  0.7275  0.2636 -0.2773
 7015SOL     OW22644   4.449   6.177   3.472 -0.0585  0.0368 -0.2292
 7015SOL    HW122645   4.402   6.246   3.416  0.6733  0.6678 -0.0752
 7015SOL    HW222646   4.461   6.094   3.418  0.0710  0.4212 -0.8038
 7016SOL     OW22647   3.751   1.379   3.956  0.1961 -0.3645 -0.3850
 7016SOL    HW122648   3.782   1.293   3.916  0.3975 -0.4317 -0.0897
 7016SOL    HW222649   3.763   1.375   4.055 -0.4476 -0.2630 -0.2995
 7017SOL     OW22650   5.504   2.053   1.543  0.4376 -0.4228  0.3322
 7017SOL    HW122651   5.503   1.955   1.528  0.0195 -0.4683  0.6501
 7017SOL    HW222652   5.485   2.101   1.457 -2.2453 -0.6795  0.7113
 7018SOL     OW22653   0.303   0.877   4.951 -0.0295 -0.1226 -0.3973
 7018SOL    HW122654   0.380   0.814   4.960 -0.7061 -0.8384  0.7252
 7018SOL    HW222655   0.232   0.851   5.017 -2.6318 -1.5385 -3.4859
 7019SOL     OW22656   5.422   6.789   2.481  0.1857 -0.3835 -0.3351
 7019SOL    HW122657   5.328   6.782   2.447  0.0573 -0.0875 -0.0421
 7019SOL    HW222658   5.475   6.848   2.420  0.2702 -0.8110 -0.6826
 7020SOL     OW22659   6.803   2.418   3.109  0.1819  0.1181 -0.2320
 7020SOL    HW122660   6.709   2.453   3.104 -0.2758 -1.2445 -2.2198
 7020SOL    HW222661   6.867   2.496   3.113 -0.9708  1.0901 -0.1411
 7021SOL     OW22662   6.738   3.427   3.480  0.6409 -0.0670 -0.0617
 7021SOL    HW122663   6.690   3.480   3.410 -2.4080  0.7766  2.4418
 7021SOL    HW222664   6.745   3.480   3.564 -1.3011 -2.9881  2.1487
 7022SOL     OW22665   3.615   6.528   4.968  0.4180 -0.3427  0.0310
 7022SOL    HW122666   3.573   6.583   4.896 -1.9042 -1.5932  0.3567
 7022SOL    HW222667   3.688   6.472   4.928  0.7798  0.7197 -0.8513
 7023SOL     OW22668   4.996   6.418   2.560 -0.4221 -0.1078  0.7391
 7023SOL    HW122669   4.960   6.329   2.533  1.0942 -0.5206 -0.0572
 7023SOL    HW222670   4.959   6.488   2.499  0.5090 -0.6053 -0.4414
 7024SOL     OW22671   3.243   2.042   4.895 -0.0740  0.9970 -0.1895
 7024SOL    HW122672   3.189   2.030   4.812 -0.3205 -0.1829  0.1154
 7024SOL    HW222673   3.182   2.065   4.971 -0.1073  0.1487  0.0534
 7025SOL     OW22674   2.051   5.083   4.383 -0.2195 -0.4891  0.6267
 7025SOL    HW122675   2.062   5.077   4.284  0.1538 -2.7225  0.7393
 7025SOL    HW222676   1.954   5.096   4.405 -0.0736  2.2766 -0.0137
 7026SOL     OW22677   2.906   3.528   1.910 -0.2699 -0.2565 -0.1341
 7026SOL    HW122678   2.827   3.538   1.850 -0.6023  1.8101  0.5634
 7026SOL    HW222679   2.893   3.449   1.970 -1.3977 -0.4249 -0.5851
 7027SOL     OW22680   5.808   4.356   2.024 -0.1604 -0.1093  0.0506
 7027SOL    HW122681   5.894   4.401   2.001 -0.2640  0.0866  0.0420
 7027SOL    HW222682   5.747   4.421   2.069  0.3332 -0.6816  1.6324
 7028SOL     OW22683   2.787   6.020   2.676 -0.1511 -0.2928 -0.0334
 7028SOL    HW122684   2.790   5.928   2.635  1.1795 -0.4731  0.4239
 7028SOL    HW222685   2.707   6.026   2.735 -0.0206 -1.3268  0.2805
 7029SOL     OW22686   1.615   6.148   4.272  0.6464  0.6028  0.1458
 7029SOL    HW122687   1.595   6.220   4.206 -0.2988  2.1664  2.0309
 7029SOL    HW222688   1.581   6.061   4.237  0.1905  1.3776 -1.4294
 7030SOL     OW22689   4.678   6.608   2.030 -0.0995  0.2053 -0.2970
 7030SOL    HW122690   4.680   6.572   1.937  0.9041 -0.6141  0.0287
 7030SOL    HW222691   4.730   6.548   2.091  0.2173  1.3303  0.5849
 7031SOL     OW22692   4.519   1.453   1.459  0.8739 -0.1224 -0.3102
 7031SOL    HW122693   4.422   1.470   1.479  1.3880  2.2519  0.4500
 7031SOL    HW222694   4.550   1.374   1.511 -0.2242  0.1940  0.8861
 7032SOL     OW22695   2.420   5.720   3.975 -0.2426 -0.0986  0.6271
 7032SOL    HW122696   2.379   5.631   3.994  1.1788 -0.9085  0.0267
 7032SOL    HW222697   2.441   5.728   3.878 -1.7682  1.5430  0.3747
 7033SOL     OW22698   4.433   6.554   0.009  0.4027  0.1529 -0.0975
 7033SOL    HW122699   4.348   6.520  -0.031 -0.8224  0.0541  2.3867
 7033SOL    HW222700   4.451   6.646  -0.025 -0.7135  0.1850 -0.6574
 7034SOL     OW22701   6.410   4.359   1.425  0.2035 -0.1336 -0.2251
 7034SOL    HW122702   6.353   4.362   1.343 -0.0239  1.8568 -0.0312
 7034SOL    HW222703   6.407   4.267   1.464 -1.8877 -0.3823 -0.8812
 7035SOL     OW22704   3.984   4.352   6.542 -0.4443 -0.1903 -0.0825
 7035SOL    HW122705   3.922   4.425   6.512 -1.5263 -0.7038  0.8372
 7035SOL    HW222706   4.066   4.353   6.485 -1.2832  0.5202 -1.3368
 7036SOL     OW22707   1.695   3.934   6.077 -0.0119 -0.1684  0.3376
 7036SOL    HW122708   1.605   3.975   6.092  1.0432  1.7519  1.8854
 7036SOL    HW222709   1.748   3.992   6.015  0.0832 -1.4541 -0.8244
 7037SOL     OW22710   2.385   0.669   4.542 -0.5291 -0.0731  0.2605
 7037SOL    HW122711   2.420   0.698   4.631 -0.0099  0.7342 -0.1870
 7037SOL    HW222712   2.452   0.611   4.497  0.0781  1.0988 -0.4031
 7038SOL     OW22713   1.440   1.747   3.468 -0.0518  0.2321  0.0051
 7038SOL    HW122714   1.394   1.665   3.434  0.8077  0.1631 -1.0233
 7038SOL    HW222715   1.372   1.814   3.496 -0.7697 -0.7790  0.7519
 7039SOL     OW22716   2.649   5.386   2.410  0.2144  0.4243 -0.6117
 7039SOL    HW122717   2.649   5.379   2.310  0.1894  1.6289 -0.7147
 7039SOL    HW222718   2.574   5.446   2.439  1.3091  1.5544 -0.0185
 7040SOL     OW22719   6.590   5.585   5.187 -0.0780  0.1655 -0.1045
 7040SOL    HW122720   6.595   5.487   5.172  1.2001  0.2331 -0.2767
 7040SOL    HW222721   6.565   5.604   5.282 -0.7886 -0.3148 -0.1914
 7041SOL     OW22722   6.561   0.725   6.529  0.0839 -0.2994  0.0686
 7041SOL    HW122723   6.515   0.647   6.485  0.3766 -1.1312  1.1959
 7041SOL    HW222724   6.606   0.694   6.612  1.1093  0.8827 -0.0230
 7042SOL     OW22725   4.003   3.152   3.502 -0.4603 -0.3364 -0.1230
 7042SOL    HW122726   4.041   3.141   3.594  0.8565 -0.9953 -0.7087
 7042SOL    HW222727   3.964   3.066   3.472 -0.9332 -0.1073 -0.1712
 7043SOL     OW22728   4.082   3.853   0.663 -0.3794  0.5354 -0.1482
 7043SOL    HW122729   4.113   3.944   0.637  1.0205 -0.3461 -1.7317
 7043SOL    HW222730   3.985   3.843   0.643 -0.1716  1.1507 -1.5337
 7044SOL     OW22731   0.925   0.222   3.717 -0.0413 -0.1604  0.6367
 7044SOL    HW122732   0.833   0.262   3.716 -0.3105 -0.7110  1.8369
 7044SOL    HW222733   0.982   0.272   3.783  0.2750 -0.3813  0.5343
 7045SOL     OW22734   4.356   4.174   5.971 -0.3617  0.3558 -0.0661
 7045SOL    HW122735   4.390   4.239   6.039 -2.7079  2.4820 -0.7783
 7045SOL    HW222736   4.387   4.203   5.880 -0.5540 -0.1499 -0.2949
 7046SOL     OW22737   3.992   5.082   5.505 -0.4784  0.0069  0.1596
 7046SOL    HW122738   3.972   5.169   5.458 -0.2695 -0.5137 -0.9318
 7046SOL    HW222739   4.085   5.054   5.484 -0.7440 -0.7806  0.0024
 7047SOL     OW22740   6.445   6.125   0.194  0.0518  0.1625  0.2340
 7047SOL    HW122741   6.522   6.103   0.134  0.2929 -1.6575  1.1434
 7047SOL    HW222742   6.450   6.220   0.223 -0.4776  1.3730 -3.1892
 7048SOL     OW22743   1.254   5.337   0.077 -0.2985 -0.1713  0.4337
 7048SOL    HW122744   1.258   5.363  -0.020 -2.1953 -5.2345 -1.3659
 7048SOL    HW222745   1.346   5.313   0.108 -0.0191 -1.8910 -1.4388
 7049SOL     OW22746   5.008   6.593   6.157 -0.1093  0.1909 -0.0430
 7049SOL    HW122747   5.005   6.501   6.117 -2.0645  0.4174 -0.5427
 7049SOL    HW222748   5.081   6.597   6.225  2.5841 -0.5550 -2.6683
 7050SOL     OW22749   3.716   4.441   6.716 -0.5902  0.3567 -0.4487
 7050SOL    HW122750   3.742   4.483   6.629  1.2608 -1.1910 -0.6940
 7050SOL    HW222751   3.782   4.465   6.786 -1.2554  0.3946  0.1694
 7051SOL     OW22752   0.654   2.881   0.951  0.4593 -0.2325  0.5394
 7051SOL    HW122753   0.588   2.950   0.923  1.8181  1.2173  0.7605
 7051SOL    HW222754   0.615   2.790   0.936 -0.6328  0.5121 -1.6449
 7052SOL     OW22755   1.135   5.659   1.322 -0.6227  0.2626 -0.3368
 7052SOL    HW122756   1.185   5.744   1.310 -0.0192  0.1243  0.9951
 7052SOL    HW222757   1.037   5.678   1.326 -0.3949  1.4083  3.1833
 7053SOL     OW22758   1.718   4.317   3.828  0.6692  0.2270  0.6045
 7053SOL    HW122759   1.743   4.310   3.731 -1.3138 -1.6814  0.1432
 7053SOL    HW222760   1.765   4.245   3.880  0.8418  0.5168  0.8522
 7054SOL     OW22761   6.816   4.412   6.293  0.4122 -0.6343  0.5286
 7054SOL    HW122762   6.728   4.457   6.307  0.5290 -0.3053  0.2296
 7054SOL    HW222763   6.858   4.393   6.382  1.0764  1.2960  0.6732
 7055SOL     OW22764   5.062   0.892   4.465 -0.4166 -0.3284 -0.3056
 7055SOL    HW122765   5.025   0.815   4.414 -0.5820 -0.5819  0.1960
 7055SOL    HW222766   4.997   0.922   4.535 -0.4282  0.3767 -0.6034
 7056SOL     OW22767   3.760   0.250   5.252 -0.4737  0.5179 -0.0090
 7056SOL    HW122768   3.716   0.334   5.220  2.7543  1.9484 -1.1085
 7056SOL    HW222769   3.773   0.188   5.175  0.0663  0.4501  0.1345
 7057SOL     OW22770   3.860   6.403   3.637 -0.2649  0.5568 -0.1547
 7057SOL    HW122771   3.954   6.426   3.610 -0.2378  0.1394 -0.4246
 7057SOL    HW222772   3.847   6.424   3.734  0.4950 -0.5502  0.2164
 7058SOL     OW22773   4.819   0.243   3.582  0.3706 -0.4568 -0.3747
 7058SOL    HW122774   4.869   0.225   3.497  0.4850 -0.2919 -0.3411
 7058SOL    HW222775   4.883   0.272   3.653  0.0884  0.8034 -0.6252
 7059SOL     OW22776   5.322   1.635   6.699 -0.0052  0.7161  0.0337
 7059SOL    HW122777   5.233   1.628   6.654  0.2948 -0.6246 -0.4000
 7059SOL    HW222778   5.313   1.606   6.795 -0.1261  1.0552  0.1265
 7060SOL     OW22779   4.102   4.817   0.754  0.0034 -0.3565 -0.2621
 7060SOL    HW122780   4.097   4.864   0.842  1.4145  0.0199 -0.3589
 7060SOL    HW222781   4.194   4.780   0.741 -0.5064 -1.3917 -1.0918
 7061SOL     OW22782   4.196   3.172   6.367 -0.1133 -0.7476  0.5174
 7061SOL    HW122783   4.274   3.236   6.365  1.4422 -2.5362  0.9155
 7061SOL    HW222784   4.154   3.169   6.277 -1.3456  2.0659  0.8938
 7062SOL     OW22785   3.300   1.508   4.522 -0.2850 -0.3152 -0.1718
 7062SOL    HW122786   3.374   1.442   4.503 -1.4039 -1.5541 -0.3556
 7062SOL    HW222787   3.235   1.507   4.446 -0.2032  1.2092 -0.2830
 7063SOL     OW22788   6.924   1.242   2.748  0.3362  0.1223 -0.0066
 7063SOL    HW122789   6.911   1.324   2.804  2.4971  1.1062 -0.8172
 7063SOL    HW222790   6.985   1.179   2.796  0.7508  0.1662 -0.4662
 7064SOL     OW22791   1.322   3.117   3.723 -0.0010  0.5077 -0.2919
 7064SOL    HW122792   1.350   3.200   3.676 -1.4995 -0.0705 -2.3842
 7064SOL    HW222793   1.370   3.039   3.684 -1.2676  0.0178 -0.9559
 7065SOL     OW22794   4.246   6.235   3.661  0.1738  0.4315  0.2281
 7065SOL    HW122795   4.171   6.178   3.627 -0.2108  0.8828  0.3233
 7065SOL    HW222796   4.326   6.224   3.601  0.3414 -0.7471  0.6324
 7066SOL     OW22797   0.541   4.353   3.330 -0.3246  0.2788  0.1485
 7066SOL    HW122798   0.624   4.356   3.274 -1.0404 -0.5280 -0.9859
 7066SOL    HW222799   0.548   4.420   3.403  0.7407  1.1956 -0.7604
 7067SOL     OW22800   3.569   6.606   3.287  0.5850  0.0526 -0.1778
 7067SOL    HW122801   3.470   6.615   3.274  0.4698 -1.3971 -0.4503
 7067SOL    HW222802   3.616   6.624   3.200  0.5996  1.1177  0.0415
 7068SOL     OW22803   1.752   3.720   6.864 -0.0068 -0.2410 -0.4268
 7068SOL    HW122804   1.815   3.753   6.793  1.8679  1.8838  2.0428
 7068SOL    HW222805   1.787   3.634   6.902  0.0129 -0.3917 -0.7827
 7069SOL     OW22806   3.185   3.820   4.069 -0.8053 -0.1944  0.5246
 7069SOL    HW122807   3.162   3.723   4.066  0.2033 -0.4838  1.6672
 7069SOL    HW222808   3.199   3.848   4.164  0.6896  0.6280  0.0884
 7070SOL     OW22809   5.766   6.117   0.864  0.3545 -0.3300 -0.5106
 7070SOL    HW122810   5.765   6.099   0.766  1.5501  1.0153 -0.8063
 7070SOL    HW222811   5.677   6.152   0.894 -0.4982 -2.1548 -0.7952
 7071SOL     OW22812   2.232   4.371   2.037  0.0885  0.1893  0.3588
 7071SOL    HW122813   2.178   4.318   2.103  0.0743  0.1466  0.3125
 7071SOL    HW222814   2.282   4.443   2.086  0.2681  0.0062  0.4510
 7072SOL     OW22815   1.004   0.861   3.528  0.1003  0.4967  0.1530
 7072SOL    HW122816   0.908   0.874   3.556 -1.0602  1.2936 -3.6515
 7072SOL    HW222817   1.024   0.764   3.521 -0.1011  0.3061  1.7307
 7073SOL     OW22818   6.071   1.687   4.540 -0.0775  0.6140 -0.0048
 7073SOL    HW122819   6.080   1.763   4.475 -0.8203  0.4879 -0.2661
 7073SOL    HW222820   6.162   1.657   4.568  0.3636 -0.6765 -2.5533
 7074SOL     OW22821   3.736   0.425   2.581  0.2034 -0.1828 -0.6247
 7074SOL    HW122822   3.769   0.341   2.623 -2.7990 -0.3176  1.7749
 7074SOL    HW222823   3.735   0.498   2.650  1.7705  1.6117 -2.3889
 7075SOL     OW22824   3.345   6.893   2.938 -0.2563 -0.7524  0.3596
 7075SOL    HW122825   3.284   6.820   2.970 -0.0426 -0.2074  2.1163
 7075SOL    HW222826   3.395   6.931   3.016 -0.0770  1.0221 -0.5817
 7076SOL     OW22827   1.729   0.171   3.013 -0.4983  0.1605 -0.2009
 7076SOL    HW122828   1.776   0.231   2.947 -1.0715  0.9033  0.0463
 7076SOL    HW222829   1.724   0.217   3.102 -0.1042 -0.6630  0.2516
 7077SOL     OW22830   2.194   2.762   1.576 -0.5219 -0.2508  0.2854
 7077SOL    HW122831   2.193   2.862   1.575 -0.3875 -0.2499  0.1878
 7077SOL    HW222832   2.286   2.729   1.557 -0.4695 -0.3896  0.7459
 7078SOL     OW22833   5.772   5.435   4.353  0.1599  0.2159 -0.0067
 7078SOL    HW122834   5.738   5.475   4.267  0.1048  1.2989  0.4975
 7078SOL    HW222835   5.773   5.335   4.346 -0.4118  0.2725 -1.0493
 7079SOL     OW22836   6.589   1.703   0.401  0.1259  0.2377 -0.0451
 7079SOL    HW122837   6.670   1.699   0.343  0.0194  0.0560 -0.1779
 7079SOL    HW222838   6.510   1.731   0.347 -0.7355 -3.1770 -0.7991
 7080SOL     OW22839   2.138   3.498   4.158 -0.3762  0.0349  0.0648
 7080SOL    HW122840   2.082   3.461   4.083  1.3354 -2.0158 -0.3111
 7080SOL    HW222841   2.095   3.475   4.245  0.7609 -3.5145 -0.1208
 7081SOL     OW22842   3.457   1.570   5.847 -0.3627 -0.3748  0.2991
 7081SOL    HW122843   3.432   1.580   5.943  2.0654  2.3141  0.7657
 7081SOL    HW222844   3.555   1.551   5.839 -0.5813 -0.8964 -1.6408
 7082SOL     OW22845   2.576   1.101   1.280  0.5005  0.1691 -0.2607
 7082SOL    HW122846   2.601   1.045   1.359  0.8134  1.5665  0.6644
 7082SOL    HW222847   2.516   1.049   1.220 -0.0464 -0.8032  1.0844
 7083SOL     OW22848   0.089   0.035   0.705  0.3555 -0.0546 -0.1335
 7083SOL    HW122849   0.050  -0.054   0.681  0.9038 -0.0517 -1.0733
 7083SOL    HW222850   0.160   0.059   0.639  0.3932  0.9640  0.2669
 7084SOL     OW22851   5.391   5.288   4.289 -0.6169  0.8143  0.1658
 7084SOL    HW122852   5.365   5.309   4.195 -0.6101  0.9782  0.2003
 7084SOL    HW222853   5.477   5.334   4.311 -1.2108  1.7409  0.6229
 7085SOL     OW22854   0.236   5.239   4.060 -0.9101 -0.0672  0.0189
 7085SOL    HW122855   0.206   5.168   3.997 -0.0544 -0.0240 -0.4444
 7085SOL    HW222856   0.288   5.308   4.011  0.7211 -0.5940  0.9215
 7086SOL     OW22857   2.983   4.548   6.689  0.0453  0.0888  0.3788
 7086SOL    HW122858   3.016   4.481   6.621 -1.3327 -0.8019  0.5513
 7086SOL    HW222859   3.020   4.638   6.667  0.1306 -0.2961 -1.2003
 7087SOL     OW22860   4.399   0.062   5.796 -0.2892 -0.3700  0.3684
 7087SOL    HW122861   4.457   0.087   5.718  2.5131  0.6569  2.5856
 7087SOL    HW222862   4.304   0.058   5.767  0.5389  0.6776 -2.9224
 7088SOL     OW22863   4.947   6.102   0.568  0.0154 -0.3323  0.8626
 7088SOL    HW122864   4.932   6.033   0.639 -0.4882  0.2193  1.3083
 7088SOL    HW222865   4.894   6.184   0.590 -2.3796 -1.0618 -1.4980
 7089SOL     OW22866   5.050   4.057   2.212  1.0310 -0.4010 -0.0693
 7089SOL    HW122867   5.023   4.055   2.308  0.8943 -2.3912 -0.1036
 7089SOL    HW222868   5.150   4.064   2.205  0.9943  0.3804  0.2037
 7090SOL     OW22869   3.871   3.669   6.522 -0.5413 -0.2591 -0.2063
 7090SOL    HW122870   3.849   3.616   6.604 -1.7887 -0.5213 -0.6860
 7090SOL    HW222871   3.862   3.611   6.441 -0.8175  0.3872 -0.6492
 7091SOL     OW22872   2.011   5.215   6.998 -0.2884 -0.3271 -0.0890
 7091SOL    HW122873   1.982   5.143   6.935  0.7978  2.0090 -3.5251
 7091SOL    HW222874   2.107   5.201   7.023 -0.2479 -0.3676 -0.2700
 7092SOL     OW22875   6.817   5.230   5.424 -0.1421 -0.0322 -0.2204
 7092SOL    HW122876   6.720   5.209   5.426 -0.3319  0.8464  0.3911
 7092SOL    HW222877   6.841   5.271   5.336 -0.7666  1.6797  0.3740
 7093SOL     OW22878   3.317   4.569   4.425 -0.0667  0.1378 -0.3271
 7093SOL    HW122879   3.328   4.646   4.488 -1.0790 -1.0629  1.3901
 7093SOL    HW222880   3.230   4.579   4.376 -0.1078  0.1764 -0.2465
 7094SOL     OW22881   3.785   1.775   3.633 -0.1093  0.0609  0.0916
 7094SOL    HW122882   3.743   1.734   3.714  0.1439 -2.2021 -0.8189
 7094SOL    HW222883   3.854   1.842   3.660 -0.4657 -0.1969  1.7178
 7095SOL     OW22884   4.958   2.914   3.700  0.2038 -0.4586 -0.0360
 7095SOL    HW122885   4.884   2.885   3.761  1.4528 -1.5256  1.0482
 7095SOL    HW222886   5.045   2.908   3.749  1.0772  0.2775 -1.4334
 7096SOL     OW22887   3.264   6.755   5.485 -0.1071 -0.1939  0.3771
 7096SOL    HW122888   3.354   6.798   5.474  0.1699 -1.2600 -2.3442
 7096SOL    HW222889   3.195   6.812   5.441  0.0916 -1.8139 -2.2089
 7097SOL     OW22890   0.475   1.273   1.937 -0.0964  0.4930 -0.4033
 7097SOL    HW122891   0.501   1.370   1.935  0.5298  0.3332 -0.2556
 7097SOL    HW222892   0.537   1.224   1.998 -0.0000 -0.1255 -0.9964
 7098SOL     OW22893   2.283   1.424   5.103 -0.0460  0.0050  0.4226
 7098SOL    HW122894   2.290   1.411   5.202  1.3803  0.0057  0.3463
 7098SOL    HW222895   2.310   1.518   5.079  0.6594 -0.3029 -0.0458
 7099SOL     OW22896   1.655   6.730   6.366  0.1001  0.1919 -0.6372
 7099SOL    HW122897   1.691   6.715   6.458 -0.3557 -1.1321 -0.6584
 7099SOL    HW222898   1.558   6.706   6.364  0.4121 -1.0357 -1.7633
 7100SOL     OW22899   0.320   0.794   6.653 -0.0635  0.2487 -0.2436
 7100SOL    HW122900   0.222   0.812   6.657  0.0828  0.8599  1.6023
 7100SOL    HW222901   0.368   0.878   6.625  0.2874  1.8971  4.3809
 7101SOL     OW22902   3.972   2.379   5.479  0.0420 -0.2907 -0.7815
 7101SOL    HW122903   3.995   2.473   5.505  0.6302 -0.8767  0.9396
 7101SOL    HW222904   4.035   2.349   5.407  1.9887 -0.4263  0.9062
 7102SOL     OW22905   3.073   1.601   5.607  0.2227 -0.6586  0.2095
 7102SOL    HW122906   3.029   1.526   5.656  1.9551 -1.0173  1.3118
 7102SOL    HW222907   3.166   1.613   5.642 -0.2229  2.4774  0.5526
 7103SOL     OW22908   6.861   1.640   3.850  0.4622  0.1330 -0.1725
 7103SOL    HW122909   6.782   1.579   3.852  0.1615  0.4115 -2.0096
 7103SOL    HW222910   6.944   1.587   3.833  0.1967  0.1809 -1.8098
 7104SOL     OW22911   6.356   4.544   1.613  0.0855 -0.1071 -0.5587
 7104SOL    HW122912   6.360   4.483   1.534 -0.0118  1.7648 -2.1047
 7104SOL    HW222913   6.446   4.548   1.656 -0.4692 -3.1953  1.1818
 7105SOL     OW22914   2.679   5.076   1.434 -0.3609  0.0216  0.2561
 7105SOL    HW122915   2.684   5.175   1.425  1.0911 -0.1953 -2.6655
 7105SOL    HW222916   2.591   5.044   1.400 -0.2741  0.2339 -0.1777
 7106SOL     OW22917   1.354   1.987   2.583  0.3340 -0.2783  0.0838
 7106SOL    HW122918   1.299   1.958   2.504  0.9237 -0.8847 -0.1150
 7106SOL    HW222919   1.367   1.910   2.645 -0.1092  0.1881  0.7839
 7107SOL     OW22920   1.854   1.983   0.622 -0.3775  0.5199 -0.4453
 7107SOL    HW122921   1.908   2.062   0.652  2.0543 -1.7028  1.5272
 7107SOL    HW222922   1.907   1.932   0.553 -1.2344 -0.2200 -0.5697
 7108SOL     OW22923   3.965   5.876   3.195  0.5481 -0.2022 -0.6886
 7108SOL    HW122924   3.910   5.876   3.112  0.9616  0.3486 -0.9634
 7108SOL    HW222925   4.004   5.967   3.210  1.0820 -0.4894 -0.3005
 7109SOL     OW22926   6.299   3.441   4.646  0.0679 -0.4779 -0.3642
 7109SOL    HW122927   6.247   3.377   4.703  0.2604  0.4845  0.9360
 7109SOL    HW222928   6.253   3.530   4.646 -0.3395 -0.6385 -2.3681
 7110SOL     OW22929   0.324   1.696   2.829 -0.0424  0.0733 -0.6079
 7110SOL    HW122930   0.384   1.616   2.821  0.3375  0.1208  1.2915
 7110SOL    HW222931   0.305   1.732   2.738  1.3317 -1.0345 -1.3815
 7111SOL     OW22932   3.303   0.869   3.078  0.5304  0.2673 -0.2319
 7111SOL    HW122933   3.278   0.966   3.078  1.5487  0.5683  1.7797
 7111SOL    HW222934   3.303   0.833   3.171  1.5535 -1.3009 -0.7797
 7112SOL     OW22935   6.048   3.394   0.872 -0.3777  0.2968  0.6510
 7112SOL    HW122936   6.013   3.487   0.879 -0.4216  0.4778 -1.3529
 7112SOL    HW222937   6.100   3.371   0.954 -0.5262  2.0130  1.2582
 7113SOL     OW22938   4.023   1.033   6.925 -0.3023  0.1425 -0.4626
 7113SOL    HW122939   4.034   1.128   6.896  1.9262  0.1649  0.2388
 7113SOL    HW222940   3.998   1.030   7.022  2.4683  0.0853  0.3314
 7114SOL     OW22941   0.861   0.727   5.707  0.2515 -0.8792 -0.3239
 7114SOL    HW122942   0.866   0.794   5.781 -0.6011  0.5191 -1.4738
 7114SOL    HW222943   0.942   0.669   5.708  2.5389  2.0701 -1.0456
 7115SOL     OW22944   1.869   6.672   5.871  0.2313 -0.3690 -0.1045
 7115SOL    HW122945   1.928   6.746   5.839  1.1258 -0.8036  0.5114
 7115SOL    HW222946   1.891   6.587   5.823 -0.4073 -0.3675 -0.4075
 7116SOL     OW22947   3.281   2.115   1.480 -0.0217  0.7305  0.3866
 7116SOL    HW122948   3.335   2.196   1.456 -0.5000  0.5554 -1.4263
 7116SOL    HW222949   3.199   2.112   1.423 -3.1945  2.1231  4.3412
 7117SOL     OW22950   5.751   1.952   6.066  0.3191  0.4151 -0.1446
 7117SOL    HW122951   5.673   1.952   6.003  1.0395 -0.7854 -1.0782
 7117SOL    HW222952   5.831   1.989   6.020  1.0474 -1.1959 -0.2132
 7118SOL     OW22953   4.635   0.892   5.798  0.0692 -0.8625 -0.4869
 7118SOL    HW122954   4.647   0.799   5.762 -0.6204 -0.7159 -1.1180
 7118SOL    HW222955   4.583   0.947   5.732 -1.0881 -0.5317  0.6653
 7119SOL     OW22956   0.245   6.900   4.031  0.3541 -0.6788 -0.7382
 7119SOL    HW122957   0.312   6.850   3.975  2.0353  0.3775  0.2387
 7119SOL    HW222958   0.239   6.858   4.121  1.1131  0.2838 -0.2112
 7120SOL     OW22959   5.147   5.655   3.766 -0.0824 -0.2101  1.0787
 7120SOL    HW122960   5.178   5.672   3.860 -2.6384 -2.9779  2.6274
 7120SOL    HW222961   5.206   5.586   3.724  1.6991  1.7758  0.1411
 7121SOL     OW22962   1.494   2.589   0.818 -0.3169 -0.0920  0.1384
 7121SOL    HW122963   1.495   2.687   0.836  0.2472 -0.1326  0.3571
 7121SOL    HW222964   1.416   2.566   0.761  1.1210  0.9250 -2.3845
 7122SOL     OW22965   6.809   6.684   4.428 -0.2233 -0.8551 -0.1714
 7122SOL    HW122966   6.890   6.671   4.370 -0.7084  0.6861 -1.2553
 7122SOL    HW222967   6.730   6.641   4.385 -0.3923 -0.5446 -0.1736
 7123SOL     OW22968   3.904   7.009   6.667 -1.0629 -0.7730 -0.3372
 7123SOL    HW122969   3.945   7.078   6.727 -1.5018 -1.1584  0.4161
 7123SOL    HW222970   3.957   7.003   6.583 -0.5693 -0.0636 -0.0889
 7124SOL     OW22971   5.829   6.725   1.577  0.3746 -0.0340  0.3446
 7124SOL    HW122972   5.787   6.747   1.665  1.0468 -0.6254  0.8189
 7124SOL    HW222973   5.822   6.627   1.560  0.0745  0.1030 -0.3581
 7125SOL     OW22974   0.563   5.234   5.864  0.1422 -0.2407 -0.2169
 7125SOL    HW122975   0.591   5.193   5.950 -0.3633 -0.5797 -0.2127
 7125SOL    HW222976   0.466   5.217   5.848  0.6496 -1.9305 -1.8181
 7126SOL     OW22977   4.390   4.088   3.850  0.1329  0.0513 -0.2021
 7126SOL    HW122978   4.387   4.184   3.824  1.3609 -0.2361 -1.4858
 7126SOL    HW222979   4.321   4.037   3.798  0.1373  0.0741 -0.2300
 7127SOL     OW22980   3.252   1.496   2.302  0.2325  0.0904 -0.6106
 7127SOL    HW122981   3.284   1.554   2.228 -0.5847 -0.0962 -1.1337
 7127SOL    HW222982   3.173   1.539   2.347  1.4390  0.7700  0.9574
 7128SOL     OW22983   3.085   5.185   3.032 -0.4975  0.0005  0.0103
 7128SOL    HW122984   2.998   5.177   3.082  0.9499 -0.8730  2.6058
 7128SOL    HW222985   3.087   5.116   2.960 -2.1958  0.4832 -0.5581
 7129SOL     OW22986   0.138   5.436   5.340  0.0010  0.5661  0.2205
 7129SOL    HW122987   0.117   5.344   5.309  1.2598  0.4425 -0.3350
 7129SOL    HW222988   0.065   5.499   5.311  0.0519  0.0653 -1.0600
 7130SOL     OW22989   3.698   5.043   5.509  0.2079  0.5866  0.6496
 7130SOL    HW122990   3.790   5.005   5.518 -0.3195 -1.5034 -1.6647
 7130SOL    HW222991   3.634   4.989   5.563 -0.2329 -0.7563 -1.0927
 7131SOL     OW22992   2.210   4.898   0.188  0.2764  0.0463 -0.2453
 7131SOL    HW122993   2.188   4.909   0.091 -0.7662  1.9181  0.1569
 7131SOL    HW222994   2.134   4.931   0.243 -0.3924 -3.5294  1.2916
 7132SOL     OW22995   1.639   1.257   6.355  0.4653 -0.7824  0.3152
 7132SOL    HW122996   1.671   1.162   6.357 -0.2048 -1.0432 -0.6833
 7132SOL    HW222997   1.586   1.277   6.438 -0.1966 -1.5742  0.0905
 7133SOL     OW22998   5.136   5.977   3.071 -0.2516  0.3143 -0.6959
 7133SOL    HW122999   5.167   5.968   3.166 -1.6529  0.2850 -0.2168
 7133SOL    HW223000   5.087   5.894   3.044 -1.4568  1.0346 -0.8050
 7134SOL     OW23001   1.518   6.760   0.098 -0.0964 -0.5684  0.0932
 7134SOL    HW123002   1.530   6.689   0.167 -1.4781 -1.4785 -0.5516
 7134SOL    HW223003   1.526   6.719   0.007 -0.2080  0.2412 -0.2913
 7135SOL     OW23004   4.875   2.554   5.914 -0.2588 -0.4722 -0.1551
 7135SOL    HW123005   4.820   2.471   5.922  1.6477 -1.7793 -0.0266
 7135SOL    HW223006   4.921   2.555   5.825  1.1212 -0.4765  0.5339
 7136SOL     OW23007   0.041   4.928   5.584  0.0652 -0.0763 -0.5501
 7136SOL    HW123008   0.102   4.903   5.659  1.4725  0.9195 -1.3228
 7136SOL    HW223009   0.069   5.016   5.545  0.1378 -1.1054 -3.0287
 7137SOL     OW23010   5.383   3.824   1.696  0.4401  0.0524 -0.0676
 7137SOL    HW123011   5.372   3.728   1.671  1.6834 -0.3664  0.9183
 7137SOL    HW223012   5.471   3.858   1.662  0.5852  0.4651  0.6849
 7138SOL     OW23013   0.807   2.098   2.508 -0.6983 -0.6382 -0.0143
 7138SOL    HW123014   0.729   2.093   2.571  0.4219 -2.1302  1.3648
 7138SOL    HW223015   0.857   2.183   2.523  0.1403 -1.4174  1.9343
 7139SOL     OW23016   5.911   1.452   4.516 -0.4899 -0.0778  0.0660
 7139SOL    HW123017   5.985   1.518   4.527  2.0003 -2.9440  2.0416
 7139SOL    HW223018   5.823   1.499   4.529  1.1149  2.7250  1.9047
 7140SOL     OW23019   6.940   1.230   4.030  0.5042  0.3674 -0.0837
 7140SOL    HW123020   6.877   1.233   3.952  1.1647 -0.9477 -0.6995
 7140SOL    HW223021   7.031   1.201   3.998  0.8740  0.1458  1.1276
 7141SOL     OW23022   6.520   4.506   3.983  0.4935  0.3633 -0.4005
 7141SOL    HW123023   6.565   4.567   4.048 -0.0769  1.4112 -0.9541
 7141SOL    HW223024   6.560   4.518   3.893 -0.0610  0.3980 -0.6445
 7142SOL     OW23025   6.958   6.414   5.864 -0.1967  0.7912  0.2848
 7142SOL    HW123026   6.888   6.429   5.934 -0.4467 -0.1810  0.2554
 7142SOL    HW223027   6.918   6.423   5.773 -0.0323  1.3430  0.2671
 7143SOL     OW23028   6.421   0.452   2.844 -0.0731  0.1227 -0.0031
 7143SOL    HW123029   6.466   0.525   2.896  0.8106 -0.8819  0.6917
 7143SOL    HW223030   6.335   0.486   2.807  0.5740  1.6796 -0.1724
 7144SOL     OW23031   4.634   2.149   4.199  0.1564 -0.1045 -0.2284
 7144SOL    HW123032   4.661   2.104   4.114 -0.5874  3.3680 -2.4879
 7144SOL    HW223033   4.534   2.146   4.207  0.1358  0.6465 -0.1524
 7145SOL     OW23034   3.632   0.696   1.415  0.2720 -0.7129 -0.2923
 7145SOL    HW123035   3.655   0.611   1.462  1.7698 -0.3089 -0.2216
 7145SOL    HW223036   3.542   0.728   1.445 -0.0460 -1.9379  0.1336
 7146SOL     OW23037   0.891   2.284   3.657 -0.0150  0.0462 -0.3877
 7146SOL    HW123038   0.922   2.378   3.644  0.8609  0.0836  1.7042
 7146SOL    HW223039   0.811   2.283   3.717 -0.3179 -0.5258 -0.7879
 7147SOL     OW23040   2.143   0.387   0.970 -0.0573  0.2181 -0.5461
 7147SOL    HW123041   2.149   0.292   1.001 -0.7691  0.6136  0.8674
 7147SOL    HW223042   2.056   0.427   1.001  0.5194  1.5258 -0.5641
 7148SOL     OW23043   5.535   5.181   3.959  0.0943  0.1304 -0.3132
 7148SOL    HW123044   5.567   5.257   4.016  0.4980 -0.6808  0.5622
 7148SOL    HW223045   5.479   5.217   3.885 -0.4299  1.2197  0.5787
 7149SOL     OW23046   1.946   0.153   6.453 -0.0158  0.1378 -0.4370
 7149SOL    HW123047   1.923   0.056   6.454  1.4241 -0.2483  1.6330
 7149SOL    HW223048   2.023   0.170   6.515  0.0284  2.5519 -1.0453
 7150SOL     OW23049   5.186   5.392   1.930  0.4159 -0.1455  0.7196
 7150SOL    HW123050   5.203   5.423   2.024  0.6151  0.6123  0.4477
 7150SOL    HW223051   5.120   5.453   1.887 -0.5574 -1.1684  0.7231
 7151SOL     OW23052   0.032   5.778   1.902 -0.2832 -0.0189  0.0050
 7151SOL    HW123053  -0.014   5.843   1.842  1.5795  0.2918 -1.1810
 7151SOL    HW223054  -0.035   5.718   1.945 -1.7849  0.6742 -1.2909
 7152SOL     OW23055   0.623   3.681   3.260 -0.4446 -0.2044  0.1100
 7152SOL    HW123056   0.528   3.649   3.259 -0.3168 -0.6408  0.8679
 7152SOL    HW223057   0.626   3.777   3.286 -0.6473 -0.3300  0.6051
 7153SOL     OW23058   2.090   5.747   0.150  0.1296 -0.0321  0.7885
 7153SOL    HW123059   2.123   5.802   0.073 -0.5326 -0.0029  0.5167
 7153SOL    HW223060   2.102   5.798   0.235  1.9142 -0.5059  0.8656
 7154SOL     OW23061   2.890   0.773   3.782  0.2236  0.0920 -0.2030
 7154SOL    HW123062   2.803   0.727   3.802 -0.6456  2.0323  0.7975
 7154SOL    HW223063   2.947   0.715   3.725 -1.5871 -1.3885 -0.5741
 7155SOL     OW23064   1.270   3.333   2.433  0.1518  0.3527 -0.0390
 7155SOL    HW123065   1.330   3.274   2.487  1.1586  1.7694  0.4439
 7155SOL    HW223066   1.181   3.340   2.478  0.7003  0.8313  1.0202
 7156SOL     OW23067   2.199   5.247   6.146  0.0078  0.3035  0.0449
 7156SOL    HW123068   2.224   5.337   6.182 -0.5520 -0.2788  2.0334
 7156SOL    HW223069   2.130   5.205   6.205  0.2483 -1.4437 -0.8297
 7157SOL     OW23070   1.198   0.242   2.640  0.1695  0.0027  0.3277
 7157SOL    HW123071   1.230   0.272   2.729  0.2089  0.4163  0.1783
 7157SOL    HW223072   1.277   0.224   2.580  0.1443 -0.3139  0.3885
 7158SOL     OW23073   5.596   5.444   5.602 -0.2584  0.1374  0.2932
 7158SOL    HW123074   5.501   5.440   5.569 -0.1007  0.5678 -0.2326
 7158SOL    HW223075   5.656   5.405   5.532 -0.4815 -5.5942  2.7318
 7159SOL     OW23076   0.850   5.409   0.923 -0.5173 -0.1264  0.3980
 7159SOL    HW123077   0.888   5.369   0.839 -0.0142  1.2318 -0.0488
 7159SOL    HW223078   0.835   5.336   0.990  0.9651 -0.9797 -0.1444
 7160SOL     OW23079   1.301   4.910   0.966 -0.2035  0.1233  0.1232
 7160SOL    HW123080   1.397   4.926   0.990 -0.1410 -0.3254  0.1792
 7160SOL    HW223081   1.259   4.997   0.938 -0.0651  0.5178  1.0958
 7161SOL     OW23082   6.714   4.331   6.790  0.3969 -0.2589 -1.1848
 7161SOL    HW123083   6.773   4.360   6.714  0.9799  0.0058 -0.6370
 7161SOL    HW223084   6.686   4.412   6.842 -1.3932 -0.2521 -2.1061
 7162SOL     OW23085   1.116   5.345   3.708 -0.3016  0.0592 -0.3983
 7162SOL    HW123086   1.061   5.425   3.729 -0.4486 -0.3645  0.9179
 7162SOL    HW223087   1.125   5.288   3.790  1.4633 -0.2586 -0.7680
 7163SOL     OW23088   1.735   1.513   6.790 -0.8545  0.0050 -0.0358
 7163SOL    HW123089   1.749   1.592   6.729  0.4880  1.7600  2.3640
 7163SOL    HW223090   1.805   1.444   6.771  2.0499  2.1744  1.8068
 7164SOL     OW23091   2.494   1.250   0.032 -0.4393 -0.0414  0.4503
 7164SOL    HW123092   2.579   1.304   0.033  0.2274 -1.0660  0.4994
 7164SOL    HW223093   2.465   1.233   0.126  1.1498 -2.4740  0.5837
 7165SOL     OW23094   4.176   2.772   1.890 -0.1609 -0.2548 -0.0393
 7165SOL    HW123095   4.085   2.810   1.903  0.7327  2.0022 -0.0362
 7165SOL    HW223096   4.193   2.758   1.793 -0.0106  0.6714 -0.1535
 7166SOL     OW23097   4.635   5.549   2.288 -0.0721  0.2301  0.0660
 7166SOL    HW123098   4.623   5.456   2.253  2.8686  0.0124 -0.5900
 7166SOL    HW223099   4.661   5.545   2.385 -1.6033  0.5275  0.5327
 7167SOL     OW23100   3.865   4.844   5.249 -0.2431 -0.4922  0.2481
 7167SOL    HW123101   3.808   4.916   5.210  0.0641 -0.0511  0.5992
 7167SOL    HW223102   3.901   4.786   5.176 -0.6604 -0.4154 -0.0196
 7168SOL     OW23103   4.979   3.733   6.622 -0.1338 -0.1756 -0.3864
 7168SOL    HW123104   4.949   3.659   6.683  0.5344  0.3865  0.6581
 7168SOL    HW223105   4.911   3.806   6.622  0.7309  0.6996  1.2800
 7169SOL     OW23106   1.681   3.215   3.358 -0.3637  0.0369 -0.2828
 7169SOL    HW123107   1.773   3.176   3.368  0.0862  1.2854  0.8029
 7169SOL    HW223108   1.617   3.166   3.417 -0.3730 -0.7383 -0.9271
 7170SOL     OW23109   4.409   2.185   1.985 -0.2920 -0.0849  0.5395
 7170SOL    HW123110   4.450   2.163   1.897 -1.8475 -1.2635  0.0410
 7170SOL    HW223111   4.470   2.244   2.038  0.5659  0.8472 -1.4128
 7171SOL     OW23112   0.723   4.235   0.617 -0.3214 -0.3145 -0.1319
 7171SOL    HW123113   0.627   4.221   0.638  0.0997  0.2221  2.4454
 7171SOL    HW223114   0.740   4.332   0.600 -0.0965 -0.2718  0.3180
 7172SOL     OW23115   0.086   6.612   1.197 -0.2027 -0.3197  0.2055
 7172SOL    HW123116   0.129   6.556   1.126  0.3722 -2.0345  1.8202
 7172SOL    HW223117   0.122   6.585   1.287 -1.7859  0.9262  1.2669
 7173SOL     OW23118   3.003   3.560   1.197 -0.3017  0.1393 -0.0948
 7173SOL    HW123119   2.950   3.616   1.133  0.6286 -0.4909 -1.4681
 7173SOL    HW223120   2.943   3.492   1.240 -1.1524  1.2498  0.5393
 7174SOL     OW23121   0.707   1.003   1.929  0.0893  0.3931  0.3684
 7174SOL    HW123122   0.697   0.952   1.843 -1.2054  1.9847 -0.4876
 7174SOL    HW223123   0.629   0.983   1.988 -0.8664  1.9309 -0.3158
 7175SOL     OW23124   6.130   1.876   4.341  0.3085 -0.0809  0.1158
 7175SOL    HW123125   6.033   1.883   4.317  0.2206 -2.8400 -0.5698
 7175SOL    HW223126   6.177   1.960   4.312 -1.5159  0.5593 -1.1859
 7176SOL     OW23127   5.131   6.602   0.079  0.1837 -0.0711 -0.4081
 7176SOL    HW123128   5.155   6.698   0.089  1.3031 -0.5206  1.7916
 7176SOL    HW223129   5.038   6.594   0.044 -0.9747  1.8531  2.0071
 7177SOL     OW23130   6.443   4.940   1.751  0.8666  0.0041  0.4337
 7177SOL    HW123131   6.371   4.885   1.795  0.6403 -2.4206 -2.6164
 7177SOL    HW223132   6.406   5.028   1.724 -1.0654 -1.1749 -1.0364
 7178SOL     OW23133   1.203   4.034   4.296 -0.3716  0.1430 -0.0167
 7178SOL    HW123134   1.131   3.966   4.285  0.8863 -1.1775 -0.4315
 7178SOL    HW223135   1.163   4.126   4.294 -2.0074 -0.5420 -0.3329
 7179SOL     OW23136   5.732   5.959   3.302 -0.0285 -0.6083  0.2822
 7179SOL    HW123137   5.777   5.870   3.297  0.0044 -0.6038  0.4931
 7179SOL    HW223138   5.781   6.017   3.368 -0.8172 -0.8779  1.1174
 7180SOL     OW23139   4.431   5.394   6.035  0.6182  0.0145 -0.3354
 7180SOL    HW123140   4.394   5.440   6.116  3.6682  3.4455 -0.6521
 7180SOL    HW223141   4.505   5.332   6.061  0.5365 -0.1096 -0.3941
 7181SOL     OW23142   4.461   6.904   5.353 -0.2886 -0.0871 -0.5402
 7181SOL    HW123143   4.370   6.871   5.378 -0.5120 -1.0973 -2.4732
 7181SOL    HW223144   4.453   6.973   5.281  0.4872 -0.5792 -1.1155
 7182SOL     OW23145   1.751   1.738   6.624 -0.4429  0.0547 -0.3483
 7182SOL    HW123146   1.795   1.790   6.551 -0.5685  1.4791  0.5691
 7182SOL    HW223147   1.658   1.772   6.637 -0.0552  0.5886  1.2165
 7183SOL     OW23148   3.623   0.151   1.983  0.1267 -0.4766 -0.0259
 7183SOL    HW123149   3.543   0.090   1.984 -1.0716  0.9112 -2.3369
 7183SOL    HW223150   3.600   0.236   2.030 -0.0065  0.1480 -1.1738
 7184SOL     OW23151   6.041   5.056   4.689 -0.3939  0.2672  0.0173
 7184SOL    HW123152   6.017   5.154   4.689  0.6046  0.5189 -0.3585
 7184SOL    HW223153   5.963   5.003   4.655 -0.7840  0.9723 -0.2164
 7185SOL     OW23154   0.495   0.673   2.555 -0.0086  0.4934  0.0113
 7185SOL    HW123155   0.466   0.596   2.497 -1.5857  1.6752 -0.8544
 7185SOL    HW223156   0.474   0.651   2.651  0.7636 -0.6655 -0.0610
 7186SOL     OW23157   1.847   6.582   3.744  0.0908 -0.1169 -0.1446
 7186SOL    HW123158   1.851   6.494   3.793  0.6447  0.0226  0.0642
 7186SOL    HW223159   1.754   6.618   3.750 -0.8084 -1.8235 -2.2613
 7187SOL     OW23160   6.108   6.256   4.689 -0.3509  0.3681  0.3455
 7187SOL    HW123161   6.133   6.345   4.728 -0.5970  0.2740  0.7174
 7187SOL    HW223162   6.103   6.187   4.761  1.0459 -0.2331 -0.1027
 7188SOL     OW23163   1.699   5.653   4.332  0.4646 -0.3246 -0.0771
 7188SOL    HW123164   1.709   5.570   4.388  2.0425  0.4925  0.9182
 7188SOL    HW223165   1.766   5.652   4.258  2.1433  1.0989  1.3423
 7189SOL     OW23166   2.410   3.450   1.102 -0.2850  0.5184  0.0443
 7189SOL    HW123167   2.325   3.493   1.075 -0.3481 -0.1105 -0.8170
 7189SOL    HW223168   2.392   3.356   1.132 -0.2198  1.2046  2.3642
 7190SOL     OW23169   4.876   1.626   3.354  0.2438 -0.0572 -0.5357
 7190SOL    HW123170   4.795   1.568   3.360 -0.5393  1.1078  0.9559
 7190SOL    HW223171   4.865   1.691   3.278 -0.7173  0.7607  0.2730
 7191SOL     OW23172   3.132   2.313   0.966  0.2671 -0.0207 -0.1837
 7191SOL    HW123173   3.090   2.224   0.981 -0.6175  0.6358  1.4290
 7191SOL    HW223174   3.100   2.350   0.878 -0.6774 -0.5767 -0.0905
 7192SOL     OW23175   1.129   1.516   1.774  0.1484  0.3608  0.0101
 7192SOL    HW123176   1.225   1.500   1.797  0.4791  2.2840  0.0994
 7192SOL    HW223177   1.098   1.445   1.711  1.1248 -1.2385  1.2682
 7193SOL     OW23178   1.650   0.267   1.155 -0.2946 -0.5363  0.0558
 7193SOL    HW123179   1.749   0.267   1.170 -0.6366 -0.6465  2.7760
 7193SOL    HW223180   1.624   0.349   1.104  1.1034 -0.1108 -0.0200
 7194SOL     OW23181   6.271   0.540   4.931 -0.1482  0.0313 -0.1625
 7194SOL    HW123182   6.239   0.449   4.903 -0.6671  0.2941 -0.4351
 7194SOL    HW223183   6.273   0.600   4.851  3.1982 -0.5728 -0.6734
 7195SOL     OW23184   5.447   6.414   2.222  0.0456  0.6378  0.3188
 7195SOL    HW123185   5.454   6.378   2.129  0.8532  1.6389 -0.0168
 7195SOL    HW223186   5.440   6.337   2.286  2.4274 -0.1852 -0.3161
 7196SOL     OW23187   2.818   5.292   0.146 -0.3379 -0.2782  0.1826
 7196SOL    HW123188   2.910   5.258   0.129 -0.2750 -0.3832  0.7202
 7196SOL    HW223189   2.776   5.241   0.221 -0.3871  0.5479  0.7379
 7197SOL     OW23190   3.045   3.165   4.080 -0.1366 -0.2887  0.2291
 7197SOL    HW123191   3.107   3.234   4.118 -1.3547  1.6864 -1.1933
 7197SOL    HW223192   3.096   3.100   4.024  0.7609  0.8919 -0.3511
 7198SOL     OW23193   6.664   5.783   3.708  0.3312 -0.4011  0.5992
 7198SOL    HW123194   6.594   5.822   3.768  1.6526 -0.6082  2.3528
 7198SOL    HW223195   6.657   5.826   3.618 -3.1074 -1.6220  0.1375
 7199SOL     OW23196   4.199   3.064   3.947 -0.2580 -0.0937 -0.0504
 7199SOL    HW123197   4.259   3.129   3.994 -0.5764  0.5749 -0.5574
 7199SOL    HW223198   4.104   3.092   3.958 -0.5420 -1.4046  1.1386
 7200SOL     OW23199   6.396   1.967   5.124  0.3556 -0.0058 -0.0594
 7200SOL    HW123200   6.441   1.915   5.196 -0.4288 -1.1376 -0.3586
 7200SOL    HW223201   6.304   1.931   5.110  0.3412  0.4849 -1.3352
 7201SOL     OW23202   3.338   5.465   6.926  0.3715  0.1674 -0.5605
 7201SOL    HW123203   3.340   5.434   7.021 -2.0165  0.3151 -0.3883
 7201SOL    HW223204   3.344   5.387   6.864  0.4340 -0.0719 -0.2519
 7202SOL     OW23205   1.122   4.481   1.736  0.1102  0.0143  0.4271
 7202SOL    HW123206   1.180   4.410   1.776 -0.5258 -1.2854 -0.8870
 7202SOL    HW223207   1.064   4.521   1.808  2.1289  0.9249  1.6447
 7203SOL     OW23208   6.051   0.818   5.693  0.4777 -0.0133 -0.0475
 7203SOL    HW123209   6.055   0.910   5.654 -0.1721 -0.4569 -1.2228
 7203SOL    HW223210   6.028   0.824   5.790  0.7781  1.0740 -0.0296
 7204SOL     OW23211   2.252   1.497   0.948  0.1730  0.7747 -0.2828
 7204SOL    HW123212   2.314   1.444   0.889  1.9072  1.2209  1.0606
 7204SOL    HW223213   2.232   1.584   0.903  1.2165  0.9765 -0.3999
 7205SOL     OW23214   0.419   4.333   1.137  0.1003 -0.1398  0.0438
 7205SOL    HW123215   0.416   4.271   1.059 -1.2301 -0.4801  0.3506
 7205SOL    HW223216   0.514   4.345   1.167  0.6326  0.0260 -1.6366
 7206SOL     OW23217   1.063   0.998   3.288 -0.2162 -0.1132 -0.2445
 7206SOL    HW123218   1.026   1.017   3.379  0.9942 -0.0995  0.2611
 7206SOL    HW223219   1.109   0.910   3.288  1.3939  0.6938 -0.3254
 7207SOL     OW23220   6.024   0.042   1.239  0.2259  0.1436  0.3742
 7207SOL    HW123221   5.968   0.107   1.290 -0.9195  0.0277 -0.7002
 7207SOL    HW223222   6.033  -0.043   1.290  1.4850  0.9931  1.6603
 7208SOL     OW23223   6.038   3.450   4.361 -0.5011 -0.7245  0.7626
 7208SOL    HW123224   6.137   3.467   4.363 -0.6487  0.2135  0.4733
 7208SOL    HW223225   6.022   3.353   4.342  0.3631 -0.8879  0.8087
 7209SOL     OW23226   5.406   5.628   1.339  0.3132 -0.2324 -0.2845
 7209SOL    HW123227   5.447   5.568   1.408 -1.0030 -1.9096 -0.8965
 7209SOL    HW223228   5.450   5.613   1.251  0.4001  0.1810 -0.3147
 7210SOL     OW23229   6.445   5.803   4.765 -0.1506  0.0280 -0.1476
 7210SOL    HW123230   6.480   5.725   4.817 -0.7410  1.2158  2.1797
 7210SOL    HW223231   6.508   5.824   4.691  0.3858 -2.1871 -0.4150
 7211SOL     OW23232   4.670   4.194   0.139  0.3063 -0.0559 -0.4738
 7211SOL    HW123233   4.596   4.128   0.148 -1.3452  1.4671 -2.1431
 7211SOL    HW223234   4.675   4.227   0.045  1.4656  1.7638  0.1640
 7212SOL     OW23235   0.421   4.265   6.789 -0.6572 -0.0536  0.0078
 7212SOL    HW123236   0.495   4.293   6.727 -2.3342 -0.3260 -2.2508
 7212SOL    HW223237   0.395   4.170   6.770 -1.3421 -0.0917  1.0382
 7213SOL     OW23238   1.427   1.423   2.773  0.2851 -0.2560 -0.6616
 7213SOL    HW123239   1.413   1.423   2.872  1.2555  0.8395 -0.5167
 7213SOL    HW223240   1.521   1.449   2.752  0.8302 -2.8258 -1.7983
 7214SOL     OW23241   4.976   2.196   2.063 -0.2309 -0.5041  0.3899
 7214SOL    HW123242   4.877   2.187   2.073 -0.1887 -0.2222  1.1492
 7214SOL    HW223243   5.002   2.176   1.969 -1.1587  0.6598 -0.1355
 7215SOL     OW23244   6.384   1.821   0.245 -0.4756  0.2876  0.0058
 7215SOL    HW123245   6.309   1.771   0.288 -0.8780  1.2331  0.4371
 7215SOL    HW223246   6.380   1.809   0.146 -1.1489  0.2481  0.0312
 7216SOL     OW23247   5.376   4.581   0.747 -0.3111 -0.2241  0.0044
 7216SOL    HW123248   5.325   4.600   0.663 -0.3840  1.1389  0.3342
 7216SOL    HW223249   5.370   4.483   0.768 -3.4463 -0.0393  0.4578
 7217SOL     OW23250   0.893   1.430   0.538 -0.1693 -0.2953  0.3739
 7217SOL    HW123251   0.910   1.454   0.634 -0.2493  2.8617 -0.3177
 7217SOL    HW223252   0.963   1.472   0.480 -1.9612  0.6129 -1.2252
 7218SOL     OW23253   6.974   0.543   0.878 -0.1591  0.0985  0.0010
 7218SOL    HW123254   6.884   0.527   0.919 -0.0160 -1.8407 -0.3708
 7218SOL    HW223255   7.045   0.524   0.945  0.0124 -0.1565 -0.2518
 7219SOL     OW23256   1.610   3.833   4.430  0.1224 -0.4098  0.1231
 7219SOL    HW123257   1.649   3.844   4.339  1.5797  0.3690  0.7999
 7219SOL    HW223258   1.511   3.821   4.423  0.1394  0.1907 -1.5140
 7220SOL     OW23259   2.162   1.705   6.431 -0.4110 -0.2776  0.1006
 7220SOL    HW123260   2.175   1.804   6.426 -1.6644 -0.1454 -1.2031
 7220SOL    HW223261   2.206   1.662   6.353 -0.5995 -0.6664  0.2071
 7221SOL     OW23262   3.931   0.656   0.260  0.2101  0.1250 -0.0015
 7221SOL    HW123263   3.945   0.702   0.172  0.7765 -0.0043  0.0153
 7221SOL    HW223264   3.901   0.723   0.328 -0.0206  0.2665 -0.2435
 7222SOL     OW23265   4.562   3.367   4.957 -0.3800 -0.1352 -0.7202
 7222SOL    HW123266   4.515   3.441   4.911 -0.0704 -0.1051 -0.9960
 7222SOL    HW223267   4.613   3.403   5.035 -0.3907 -0.0888 -0.7347
 7223SOL     OW23268   4.260   4.396   1.726 -0.4208 -0.3126 -0.4839
 7223SOL    HW123269   4.243   4.321   1.662 -0.3489 -1.4474  0.7992
 7223SOL    HW223270   4.354   4.392   1.759 -0.9884 -0.9010  1.1409
 7224SOL     OW23271   0.386   1.964   5.784  0.3747 -0.3640  0.2665
 7224SOL    HW123272   0.311   2.000   5.729  0.6251 -3.2244 -2.2065
 7224SOL    HW223273   0.355   1.951   5.879 -2.6671 -2.2442 -0.8185
 7225SOL     OW23274   2.648   2.141   1.342  1.0488 -0.2155 -0.0841
 7225SOL    HW123275   2.725   2.086   1.308  2.0563 -0.9107  3.0577
 7225SOL    HW223276   2.569   2.082   1.359  1.6011 -0.4574  1.7536
 7226SOL     OW23277   1.079   6.475   3.687 -0.3259  0.6245  0.0040
 7226SOL    HW123278   1.118   6.387   3.661 -0.4141  0.8765 -1.0168
 7226SOL    HW223279   1.152   6.542   3.696 -0.3085  0.5674  0.3137
 7227SOL     OW23280   3.299   2.115   4.427 -0.0906  0.5541  0.6317
 7227SOL    HW123281   3.218   2.099   4.371  0.9142 -1.7292 -0.3045
 7227SOL    HW223282   3.361   2.176   4.380 -0.0363  0.0530  0.0392
 7228SOL     OW23283   4.137   5.642   5.958  0.2137  0.3082 -0.2490
 7228SOL    HW123284   4.130   5.566   6.023  0.3687 -1.6527 -2.3709
 7228SOL    HW223285   4.191   5.716   5.998 -2.6557  0.8215  3.1612
 7229SOL     OW23286   2.265   0.488   4.785  0.2564  0.1564  0.4191
 7229SOL    HW123287   2.275   0.587   4.771 -1.0693  0.0784 -1.4471
 7229SOL    HW223288   2.199   0.452   4.720  0.6392 -1.9714  1.1380
 7230SOL     OW23289   5.929   1.155   3.511  0.0204 -0.4062  0.2828
 7230SOL    HW123290   5.891   1.244   3.484  0.3697 -0.0394  0.9609
 7230SOL    HW223291   5.885   1.124   3.595 -0.8760 -1.4113 -0.5343
 7231SOL     OW23292   6.611   6.204   6.836 -0.1048 -0.4834  0.8520
 7231SOL    HW123293   6.531   6.238   6.885  0.4990  1.3091  0.6483
 7231SOL    HW223294   6.686   6.189   6.900 -0.3430 -1.4302  0.9304
 7232SOL     OW23295   5.050   5.194   3.967 -0.1907 -0.0583  0.1244
 7232SOL    HW123296   5.041   5.112   4.025  0.0119 -1.0075 -1.1433
 7232SOL    HW223297   4.991   5.266   4.003 -0.7565 -0.9180  0.9828
 7233SOL     OW23298   2.400   2.154   4.100  0.4971 -0.6565 -0.3895
 7233SOL    HW123299   2.301   2.162   4.105  0.5322  0.6945 -1.3748
 7233SOL    HW223300   2.443   2.226   4.154  0.9088 -0.1596 -1.3402
 7234SOL     OW23301   7.017   6.401   2.642  0.3786  0.4600 -0.3393
 7234SOL    HW123302   6.946   6.471   2.633  1.9276  1.9115 -1.8964
 7234SOL    HW223303   7.081   6.428   2.714 -0.2102 -0.5035  0.5810
 7235SOL     OW23304   5.343   0.252   6.822 -0.1936 -0.0958  0.0070
 7235SOL    HW123305   5.429   0.259   6.770 -0.5268 -0.4678 -0.6141
 7235SOL    HW223306   5.299   0.342   6.827  0.5123  0.2174  0.8353
 7236SOL     OW23307   5.547   6.012   6.326 -0.0502  0.1667 -0.3159
 7236SOL    HW123308   5.474   5.996   6.393  0.5730  1.4036  0.7161
 7236SOL    HW223309   5.515   6.075   6.256  0.0529  0.8207  0.2148
 7237SOL     OW23310   3.834   4.785   0.334 -0.8237  0.2347  0.1651
 7237SOL    HW123311   3.753   4.825   0.291 -2.5443 -2.0041  1.1253
 7237SOL    HW223312   3.856   4.835   0.418 -3.3644 -1.0575  1.7328
 7238SOL     OW23313   4.395   6.611   1.013 -0.0974 -0.0183  0.6654
 7238SOL    HW123314   4.299   6.638   1.026 -0.7629 -1.5100 -0.7068
 7238SOL    HW223315   4.404   6.566   0.924  1.9857  0.4582  0.6017
 7239SOL     OW23316   1.543   1.408   5.421 -0.4082  0.3560  0.3145
 7239SOL    HW123317   1.486   1.465   5.481 -2.0665  1.2629 -1.9789
 7239SOL    HW223318   1.629   1.456   5.402  0.4829 -0.2659  2.4383
 7240SOL     OW23319   4.729   3.179   3.002 -0.0474 -0.8247  0.1722
 7240SOL    HW123320   4.637   3.218   3.007  0.6227  0.9029 -0.2990
 7240SOL    HW223321   4.743   3.116   3.079 -1.8335 -1.6505 -0.1307
 7241SOL     OW23322   0.657   2.459   6.445  0.3003 -0.4828 -0.0928
 7241SOL    HW123323   0.598   2.407   6.507  0.4340 -1.0661 -0.4452
 7241SOL    HW223324   0.672   2.407   6.362 -0.2822  0.5019 -0.8386
 7242SOL     OW23325   6.904   6.901   5.076 -0.0522  0.0331 -0.1866
 7242SOL    HW123326   6.881   6.832   5.144  0.8644 -0.1352 -0.0428
 7242SOL    HW223327   6.933   6.985   5.121 -1.6634  0.7180 -0.3515
 7243SOL     OW23328   3.774   6.462   1.673  0.4217 -0.2594 -0.0794
 7243SOL    HW123329   3.775   6.467   1.773  1.8289  1.0938 -0.1123
 7243SOL    HW223330   3.726   6.542   1.636  0.5398 -0.3689 -0.4760
 7244SOL     OW23331   3.454   2.542   1.813  0.2108 -0.6377 -0.3744
 7244SOL    HW123332   3.398   2.552   1.895  0.2074 -0.9175 -0.3432
 7244SOL    HW223333   3.467   2.632   1.770  2.6607  0.0474  1.5317
 7245SOL     OW23334   1.578   2.215   1.769 -0.3650  0.2949  0.0585
 7245SOL    HW123335   1.503   2.171   1.818 -1.0765  0.8949 -0.4589
 7245SOL    HW223336   1.641   2.257   1.835 -1.0115  0.6184  0.4836
 7246SOL     OW23337   5.820   5.657   1.442  0.1445  0.2164 -0.3864
 7246SOL    HW123338   5.894   5.693   1.386  0.4339 -0.1322 -0.2304
 7246SOL    HW223339   5.805   5.560   1.420  0.0505  0.1602 -0.0839
 7247SOL     OW23340   1.214   4.963   3.539 -0.7612 -0.4764 -0.0641
 7247SOL    HW123341   1.127   5.010   3.527 -2.0914 -2.7313  0.0103
 7247SOL    HW223342   1.202   4.889   3.606  0.9401 -1.5057 -0.8383
 7248SOL     OW23343   4.374   6.190   1.134  0.3499  0.1749  0.6409
 7248SOL    HW123344   4.464   6.201   1.176  0.5057 -0.6925  0.5591
 7248SOL    HW223345   4.331   6.279   1.124  0.8454  0.5209  1.4581
 7249SOL     OW23346   2.207   6.764   1.146 -0.2831 -0.4116 -0.1777
 7249SOL    HW123347   2.300   6.729   1.155 -0.8153 -1.7772  0.3366
 7249SOL    HW223348   2.186   6.826   1.222  0.2740  0.0951 -0.4299
 7250SOL     OW23349   5.222   6.817   4.909  0.6559  0.3692 -0.6383
 7250SOL    HW123350   5.203   6.727   4.869  0.0178  0.3989 -0.4114
 7250SOL    HW223351   5.222   6.886   4.837  1.9853  0.0787 -0.9394
 7251SOL     OW23352   6.279   2.952   2.727  0.1603 -0.1774 -0.1538
 7251SOL    HW123353   6.235   2.891   2.662 -0.3789  0.4055 -0.3475
 7251SOL    HW223354   6.247   2.931   2.820  1.3065 -1.3413  0.0062
 7252SOL     OW23355   6.241   0.516   3.191 -0.6131 -0.3346  0.7407
 7252SOL    HW123356   6.242   0.431   3.138  1.9783 -0.4823  0.9354
 7252SOL    HW223357   6.223   0.593   3.130 -0.5772 -0.7895  0.1476
 7253SOL     OW23358   6.010   5.458   0.262  0.0042 -0.4554 -0.4152
 7253SOL    HW123359   6.048   5.519   0.192  2.4766 -2.0685 -0.6124
 7253SOL    HW223360   5.934   5.407   0.224 -1.3670  1.6101 -0.5894
 7254SOL     OW23361   5.231   1.037   6.141 -0.6237 -0.2451 -0.0031
 7254SOL    HW123362   5.246   1.128   6.180  0.7720 -0.5246  0.1723
 7254SOL    HW223363   5.314   0.982   6.152 -1.4881 -1.5971  0.0344
 7255SOL     OW23364   5.046   3.058   2.154  0.3935  0.1383  0.4492
 7255SOL    HW123365   5.070   3.114   2.234  0.0636  0.2921  0.4430
 7255SOL    HW223366   4.946   3.053   2.146  0.3686 -1.5256  1.2103
 7256SOL     OW23367   5.781   3.066   5.258 -0.3942 -0.1810  0.3744
 7256SOL    HW123368   5.812   2.993   5.319  1.0551  0.9395  1.0378
 7256SOL    HW223369   5.731   3.134   5.311 -0.2583  0.1553  0.0686
 7257SOL     OW23370   6.733   3.572   0.294  0.4440  0.2063 -0.4273
 7257SOL    HW123371   6.689   3.512   0.360  0.1003  0.7965 -0.1137
 7257SOL    HW223372   6.810   3.524   0.251 -1.1646 -1.2411 -1.7978
 7258SOL     OW23373   1.532   2.338   0.521 -0.0742 -0.4268  0.2261
 7258SOL    HW123374   1.513   2.286   0.438 -0.8813 -0.0425  0.1581
 7258SOL    HW223375   1.566   2.276   0.593  2.1813 -0.5292 -0.8443
 7259SOL     OW23376   6.043   3.717   6.094 -0.3182  0.1335  0.0356
 7259SOL    HW123377   6.120   3.659   6.067 -0.4002 -0.0451  0.1770
 7259SOL    HW223378   5.971   3.659   6.134 -0.3735  0.3415  0.2369
 7260SOL     OW23379   6.408   1.116   5.442 -0.3860 -0.2011 -0.3069
 7260SOL    HW123380   6.502   1.144   5.422 -0.0005 -0.8764  0.4819
 7260SOL    HW223381   6.396   1.108   5.541 -1.5302  0.6851 -0.3493
 7261SOL     OW23382   0.431   6.473   6.745  0.0828 -0.5051 -0.0627
 7261SOL    HW123383   0.432   6.541   6.672  1.2329  0.3083  0.6900
 7261SOL    HW223384   0.370   6.397   6.719  1.1790 -0.7077 -2.2701
 7262SOL     OW23385   4.868   5.765   1.881  0.2744 -0.7890  0.1556
 7262SOL    HW123386   4.836   5.797   1.792 -0.2361 -0.3612  0.4838
 7262SOL    HW223387   4.791   5.764   1.946  1.0551  1.0947  1.2081
 7263SOL     OW23388   2.836   6.051   0.800 -0.3483 -0.2704 -0.2259
 7263SOL    HW123389   2.802   5.970   0.753 -0.5528 -0.7874  0.7829
 7263SOL    HW223390   2.933   6.038   0.823 -0.5562 -0.5356  0.5451
 7264SOL     OW23391   2.607   5.219   5.223  0.2901  0.3782 -0.2372
 7264SOL    HW123392   2.559   5.171   5.297 -1.5707  0.1846 -1.5052
 7264SOL    HW223393   2.703   5.190   5.221  0.4463  0.5191  2.1734
 7265SOL     OW23394   1.887   1.298   5.830 -0.0565  0.4354  0.5308
 7265SOL    HW123395   1.979   1.329   5.808  0.2629 -0.9777 -0.2547
 7265SOL    HW223396   1.889   1.241   5.912  0.0749 -1.0228 -0.4545
 7266SOL     OW23397   5.304   2.386   3.910  0.6353  0.0539 -0.3336
 7266SOL    HW123398   5.385   2.364   3.965  0.4097 -1.4705 -0.5603
 7266SOL    HW223399   5.333   2.420   3.821  1.0103  3.2298  0.8780
 7267SOL     OW23400   0.687   4.748   4.474 -0.4235  0.2051  0.5916
 7267SOL    HW123401   0.668   4.761   4.377  2.8016 -1.0423 -0.3267
 7267SOL    HW223402   0.619   4.685   4.513 -0.7039 -0.7727 -1.3506
 7268SOL     OW23403   4.643   6.145   2.527 -0.1806 -0.5679  0.3094
 7268SOL    HW123404   4.742   6.142   2.520 -0.1069 -0.3968  1.1491
 7268SOL    HW223405   4.609   6.061   2.569 -0.1728  0.2617  2.0873
 7269SOL     OW23406   3.333   5.521   1.157  0.0067  0.1737 -0.7992
 7269SOL    HW123407   3.304   5.490   1.066 -1.7949  2.4648 -1.1057
 7269SOL    HW223408   3.255   5.561   1.205  0.4349 -2.7175  2.6382
 7270SOL     OW23409   5.384   6.427   4.095 -0.0005 -0.3883 -0.0976
 7270SOL    HW123410   5.301   6.372   4.082  0.6076 -1.3639 -0.0080
 7270SOL    HW223411   5.447   6.411   4.018 -1.2644  3.0234 -2.0568
 7271SOL     OW23412   5.185   5.294   1.073  0.0718 -0.1761  0.2628
 7271SOL    HW123413   5.263   5.345   1.035 -0.2534 -0.3363 -0.6327
 7271SOL    HW223414   5.205   5.271   1.168  0.2129  1.6583  0.7174
 7272SOL     OW23415   6.513   4.975   2.795 -0.5454 -0.0978 -0.5261
 7272SOL    HW123416   6.572   4.899   2.767 -1.5954 -1.1216 -0.0481
 7272SOL    HW223417   6.564   5.036   2.856 -0.9134 -2.9727  3.0104
 7273SOL     OW23418   6.267   0.549   2.498  0.0746  0.4982 -0.5481
 7273SOL    HW123419   6.213   0.527   2.417  0.6256  1.4379 -1.1922
 7273SOL    HW223420   6.364   0.549   2.474  0.2515  0.7118  0.1386
 7274SOL     OW23421   2.841   3.895   0.182 -0.2715  0.0768 -0.1283
 7274SOL    HW123422   2.746   3.866   0.172 -0.3381  0.3373 -0.2387
 7274SOL    HW223423   2.901   3.823   0.148 -0.4323 -0.0206 -0.2074
 7275SOL     OW23424   4.488   5.652   4.411  0.0699 -0.2679 -0.0228
 7275SOL    HW123425   4.514   5.688   4.322 -0.1992  3.4949  1.2240
 7275SOL    HW223426   4.389   5.636   4.414  0.0148  0.0163 -0.3055
 7276SOL     OW23427   3.038   5.991   0.361  0.5023 -0.4594  0.5029
 7276SOL    HW123428   3.108   5.944   0.416  2.3826  2.1603  0.5192
 7276SOL    HW223429   2.969   6.031   0.421  0.8388 -0.2351  0.7423
 7277SOL     OW23430   3.594   1.075   1.749 -0.0136 -0.4627 -0.1799
 7277SOL    HW123431   3.525   1.020   1.797  1.9474 -3.2514 -0.3043
 7277SOL    HW223432   3.654   1.119   1.816  1.4542 -2.6829  0.0948
 7278SOL     OW23433   2.515   6.329   1.797  0.3326 -0.1352  0.2469
 7278SOL    HW123434   2.591   6.356   1.739 -0.6501 -0.8409 -1.4323
 7278SOL    HW223435   2.534   6.240   1.837  0.5451 -0.1490  0.1166
 7279SOL     OW23436   2.154   6.044   3.330  0.2924  0.5126 -0.4363
 7279SOL    HW123437   2.133   6.141   3.339  0.4825  0.6618 -1.4211
 7279SOL    HW223438   2.109   6.007   3.249  2.9890  0.6475 -2.1176
 7280SOL     OW23439   4.858   3.690   2.957  0.6873  0.0702  0.3893
 7280SOL    HW123440   4.781   3.655   2.904 -0.3918  1.7116  0.8073
 7280SOL    HW223441   4.899   3.615   3.009  1.4771 -1.5160 -2.2768
 7281SOL     OW23442   5.389   1.656   3.640 -0.4586  0.0398  0.3096
 7281SOL    HW123443   5.315   1.722   3.630 -0.6123 -0.0448  0.8196
 7281SOL    HW223444   5.469   1.687   3.590 -1.1136 -0.3111 -1.0141
 7282SOL     OW23445   2.230   2.832   6.562 -0.5306 -0.3610  0.0319
 7282SOL    HW123446   2.213   2.841   6.660  0.3879 -0.7188  0.2280
 7282SOL    HW223447   2.308   2.771   6.546  0.9784  1.6710 -0.8144
 7283SOL     OW23448   0.542   1.727   5.957  0.3606 -0.0102 -0.6377
 7283SOL    HW123449   0.503   1.706   6.047  1.7618 -1.5794 -0.3530
 7283SOL    HW223450   0.474   1.709   5.886 -0.1758 -0.4797 -0.0130
 7284SOL     OW23451   5.739   4.475   2.951 -0.5916  0.7531  0.0183
 7284SOL    HW123452   5.704   4.569   2.950 -1.2256  0.5276  0.4181
 7284SOL    HW223453   5.700   4.425   2.874  1.0880  1.2725 -1.2402
 7285SOL     OW23454   6.187   4.591   1.276  0.4598  0.2135  0.7158
 7285SOL    HW123455   6.283   4.617   1.280 -0.0299  2.4597 -0.6436
 7285SOL    HW223456   6.157   4.586   1.181 -0.3678 -2.2413  1.0412
 7286SOL     OW23457   5.772   5.576   4.593  0.0405  0.5552  0.3141
 7286SOL    HW123458   5.764   5.515   4.514  2.6919 -1.5472  1.4910
 7286SOL    HW223459   5.687   5.573   4.646 -1.5934  1.5971 -2.0621
 7287SOL     OW23460   0.976   6.386   3.348 -0.7351 -0.1025  0.5642
 7287SOL    HW123461   1.061   6.418   3.390 -1.0781  0.7595  0.6249
 7287SOL    HW223462   0.993   6.299   3.302 -0.3110 -1.0140  2.3462
 7288SOL     OW23463   4.779   2.917   6.004 -0.1371  0.0676 -0.2653
 7288SOL    HW123464   4.873   2.886   5.992 -0.4917 -1.7820  1.1117
 7288SOL    HW223465   4.767   2.949   6.098 -1.1452 -0.9309 -0.0240
 7289SOL     OW23466   2.781   6.955   6.107  0.4942  0.4879  0.1760
 7289SOL    HW123467   2.703   6.971   6.168  0.1541  1.6588 -0.5479
 7289SOL    HW223468   2.794   6.857   6.095  0.8020  0.1879  2.4122
 7290SOL     OW23469   5.111   3.708   1.543  0.1028  0.2269 -0.2744
 7290SOL    HW123470   5.031   3.672   1.495 -0.8680 -0.1136  1.5268
 7290SOL    HW223471   5.083   3.785   1.601  0.9260 -0.3006  0.8653
 7291SOL     OW23472   3.979   0.626   5.256 -0.4192 -0.0080 -0.5838
 7291SOL    HW123473   3.888   0.633   5.295 -0.4176 -0.6798 -0.4404
 7291SOL    HW223474   4.036   0.701   5.290 -0.7109 -0.0038 -0.0878
 7292SOL     OW23475   3.943   1.342   5.583  0.3803 -0.1569 -0.1388
 7292SOL    HW123476   3.871   1.308   5.522  0.6267  0.5622 -0.8372
 7292SOL    HW223477   3.937   1.293   5.670 -0.9543 -0.1243 -0.1774
 7293SOL     OW23478   5.232   2.923   3.848  0.0136 -0.3624 -0.0847
 7293SOL    HW123479   5.231   2.873   3.934 -1.7351 -0.1296  0.0612
 7293SOL    HW223480   5.286   2.873   3.781 -0.0620 -1.4430  0.6383
 7294SOL     OW23481   6.538   4.538   6.531  0.1925  0.0175 -0.7461
 7294SOL    HW123482   6.471   4.591   6.480 -2.7980  0.0671  2.8437
 7294SOL    HW223483   6.601   4.600   6.578 -0.6366  0.2676  0.0668
 7295SOL     OW23484   1.045   4.657   5.052 -0.2369 -0.0392  0.2797
 7295SOL    HW123485   1.129   4.702   5.024 -1.1769  1.4306 -0.3376
 7295SOL    HW223486   0.973   4.726   5.065 -1.3340 -1.2362  0.8447
 7296SOL     OW23487   3.653   6.655   4.191  0.0314 -0.1927 -0.0949
 7296SOL    HW123488   3.587   6.720   4.153  0.6161 -0.1017 -0.9977
 7296SOL    HW223489   3.635   6.564   4.156 -0.3876 -0.4079  0.6619
 7297SOL     OW23490   5.410   2.177   3.361  0.1023 -0.0176  0.0832
 7297SOL    HW123491   5.493   2.177   3.306  0.3138  0.3649  0.3933
 7297SOL    HW223492   5.373   2.084   3.367 -0.0580 -0.0247 -0.8953
 7298SOL     OW23493   2.987   0.591   0.012 -0.2396 -0.9729 -0.4032
 7298SOL    HW123494   2.902   0.628  -0.025 -0.6963 -2.3138 -0.7445
 7298SOL    HW223495   2.993   0.494  -0.009  0.4572 -1.3380  1.2992
 7299SOL     OW23496   6.671   5.001   5.216  0.2532  0.1306 -0.1456
 7299SOL    HW123497   6.573   5.017   5.229  0.4559  0.6219  0.8555
 7299SOL    HW223498   6.711   5.079   5.167  0.1168 -0.1475 -0.7048
 7300SOL     OW23499   2.445   1.056   1.874  0.1578 -0.4657 -0.3094
 7300SOL    HW123500   2.522   0.998   1.898  0.7601 -0.0483 -1.1667
 7300SOL    HW223501   2.422   1.042   1.777 -1.3040 -1.1044  0.0956
 7301SOL     OW23502   0.357   0.899   2.603  0.0866 -0.2316 -0.0164
 7301SOL    HW123503   0.269   0.904   2.556 -0.9534  0.4546  1.8924
 7301SOL    HW223504   0.396   0.808   2.591 -0.9218 -0.5751 -0.8144
 7302SOL     OW23505   3.243   1.252   2.434 -0.3923  0.1809 -0.5276
 7302SOL    HW123506   3.320   1.255   2.499 -0.8406  1.4406 -0.0107
 7302SOL    HW223507   3.248   1.333   2.375 -0.1705 -0.7955 -1.8791
 7303SOL     OW23508   2.158   6.537   6.820  0.4298  0.2512 -0.3148
 7303SOL    HW123509   2.137   6.533   6.722 -1.4038 -0.6078  0.0658
 7303SOL    HW223510   2.074   6.556   6.871  1.1876 -0.2272  1.1649
 7304SOL     OW23511   5.807   3.159   4.117 -0.0218 -0.2936 -0.4280
 7304SOL    HW123512   5.897   3.168   4.161 -0.5128  2.0369  0.2398
 7304SOL    HW223513   5.751   3.238   4.140 -3.3768 -2.9836  1.5721
 7305SOL     OW23514   3.860   4.594   6.942  0.1898  0.1921 -0.6060
 7305SOL    HW123515   3.874   4.594   7.041 -0.0802  0.7002 -0.5653
 7305SOL    HW223516   3.811   4.677   6.915  0.7264  0.3127 -1.2328
 7306SOL     OW23517   6.995   5.289   4.119  0.5803  0.0734 -0.1645
 7306SOL    HW123518   6.965   5.218   4.183  1.4951 -0.0724  0.1212
 7306SOL    HW223519   7.095   5.301   4.127  0.7753 -0.2360 -1.8524
 7307SOL     OW23520   3.152   1.206   4.177  0.0769 -0.2647  0.5727
 7307SOL    HW123521   3.207   1.123   4.183  0.1742 -0.2720 -0.2859
 7307SOL    HW223522   3.152   1.239   4.083  1.7677  1.8560  1.2336
 7308SOL     OW23523   4.207   4.594   1.243 -0.2395 -0.1384 -0.2531
 7308SOL    HW123524   4.286   4.647   1.272 -0.5003 -0.5097  1.1718
 7308SOL    HW223525   4.231   4.498   1.236 -0.7572 -0.3668  0.9715
 7309SOL     OW23526   3.474   0.372   5.464  0.3126  0.5488 -0.3779
 7309SOL    HW123527   3.423   0.320   5.532 -0.1508  0.4594 -0.7950
 7309SOL    HW223528   3.421   0.381   5.380  0.4030  1.6511 -0.3398
 7310SOL     OW23529   2.332   4.219   0.457  0.3774 -0.0622  0.2220
 7310SOL    HW123530   2.325   4.292   0.389  1.8202 -1.8323 -1.9758
 7310SOL    HW223531   2.245   4.168   0.460 -0.9316  2.0977  2.3591
 7311SOL     OW23532   2.797   6.827   2.099  0.0049 -0.5338  0.1885
 7311SOL    HW123533   2.816   6.921   2.126  1.2149 -0.6161 -0.3141
 7311SOL    HW223534   2.833   6.810   2.008  1.4246 -1.9736  0.9547
 7312SOL     OW23535   5.155   3.523   4.217 -0.2121 -0.1613  0.1234
 7312SOL    HW123536   5.112   3.433   4.208  0.7158 -0.6221  0.2094
 7312SOL    HW223537   5.230   3.518   4.283  0.8998  0.2683 -1.0651
 7313SOL     OW23538   3.144   6.270   1.082  0.0741 -0.2835  0.2678
 7313SOL    HW123539   3.150   6.370   1.081  0.6743 -0.3176  0.0595
 7313SOL    HW223540   3.236   6.231   1.074 -0.1792 -0.8545  0.0936
 7314SOL     OW23541   5.749   3.651   0.568 -0.3644  0.1451 -0.3400
 7314SOL    HW123542   5.712   3.714   0.636  1.1249  0.1681  0.4945
 7314SOL    HW223543   5.684   3.578   0.551 -1.1162  0.6097  0.4682
 7315SOL     OW23544   1.271   4.295   1.132 -0.4444 -0.2928 -0.1765
 7315SOL    HW123545   1.216   4.374   1.160 -0.1596 -0.8339  2.0774
 7315SOL    HW223546   1.354   4.326   1.087 -0.5709  0.6859  0.2482
 7316SOL     OW23547   3.049   1.098   5.001 -0.0063 -0.4611 -0.0480
 7316SOL    HW123548   3.114   1.145   4.941 -2.4774  1.3353 -1.4961
 7316SOL    HW223549   3.044   1.146   5.089  0.6753 -0.6585  0.1006
 7317SOL     OW23550   2.266   4.416   1.638 -0.1451  0.3304 -0.0606
 7317SOL    HW123551   2.309   4.501   1.670 -2.0477  1.0812  0.6390
 7317SOL    HW223552   2.315   4.338   1.676  0.9566  1.1150  0.2027
 7318SOL     OW23553   6.043   0.429   3.886  0.5938 -0.0579  0.1524
 7318SOL    HW123554   6.112   0.467   3.825  0.9710  0.6136  0.9693
 7318SOL    HW223555   6.084   0.358   3.943  1.1945  1.7040  2.0447
 7319SOL     OW23556   5.720   1.292   3.178 -0.3443  0.0116 -0.6510
 7319SOL    HW123557   5.749   1.244   3.096  1.9301  1.0623 -0.5426
 7319SOL    HW223558   5.784   1.273   3.253  0.8536  3.2661 -0.6764
 7320SOL     OW23559   5.454   3.298   2.553 -0.1382 -0.7682 -0.1547
 7320SOL    HW123560   5.393   3.282   2.475 -0.2005  0.9161 -0.4767
 7320SOL    HW223561   5.548   3.279   2.526 -0.0275  0.8181 -1.0041
 7321SOL     OW23562   1.947   1.902   0.869  0.3075 -0.2065 -0.0293
 7321SOL    HW123563   1.912   1.904   0.776 -0.9023  0.8278  0.4183
 7321SOL    HW223564   1.916   1.819   0.915 -0.7815  0.2346  0.0543
 7322SOL     OW23565   5.906   4.274   2.425 -0.1854  0.1030 -0.2707
 7322SOL    HW123566   6.005   4.266   2.426  0.2716  3.7943  0.2316
 7322SOL    HW223567   5.867   4.223   2.501  1.4160 -0.6744  0.0524
 7323SOL     OW23568   0.269   5.035   1.548  0.7774 -0.0771 -0.6182
 7323SOL    HW123569   0.186   5.032   1.603  0.2041  1.6680 -1.3012
 7323SOL    HW223570   0.348   5.055   1.607  0.4771 -0.1962 -0.1725
 7324SOL     OW23571   1.854   0.252   0.478  0.0421  0.2727  0.3524
 7324SOL    HW123572   1.905   0.301   0.549  1.7135  0.1942 -0.7314
 7324SOL    HW223573   1.759   0.241   0.507  0.8905 -0.8127  3.1199
 7325SOL     OW23574   4.018   3.779   1.305  0.0483 -0.3023 -0.4639
 7325SOL    HW123575   3.953   3.764   1.231 -0.2321 -1.4475  0.0006
 7325SOL    HW223576   4.089   3.842   1.274 -1.6837  1.6246 -0.7331
 7326SOL     OW23577   2.943   3.406   6.239  0.2949  0.0077 -0.0496
 7326SOL    HW123578   2.938   3.409   6.139 -0.8857  0.2671  0.0079
 7326SOL    HW223579   2.852   3.415   6.278  0.3606 -2.9514  1.0182
 7327SOL     OW23580   4.852   6.888   6.137 -0.0339 -0.3382  0.2243
 7327SOL    HW123581   4.804   6.963   6.092  2.0586  0.6587 -0.5056
 7327SOL    HW223582   4.896   6.830   6.068  1.5013  0.0029  0.8680
 7328SOL     OW23583   6.985   5.853   0.410  0.0288  0.1231 -0.2103
 7328SOL    HW123584   6.956   5.845   0.506  0.2174  0.8440 -0.0858
 7328SOL    HW223585   6.964   5.768   0.362  0.8096 -0.6107  0.7078
 7329SOL     OW23586   4.760   4.683   0.211 -0.5699 -0.1195  0.0445
 7329SOL    HW123587   4.744   4.620   0.134 -0.1757 -2.6466  1.9157
 7329SOL    HW223588   4.856   4.680   0.238 -0.8857 -0.0446  1.2458
 7330SOL     OW23589   0.559   4.362   5.620  0.0533 -0.2585 -0.4502
 7330SOL    HW123590   0.497   4.311   5.679 -0.8017 -0.8288 -1.7891
 7330SOL    HW223591   0.623   4.299   5.576  0.9752  0.2122  0.1980
 7331SOL     OW23592   4.428   6.593   3.035  0.3018 -0.0813 -0.7712
 7331SOL    HW123593   4.386   6.512   2.995  0.2529  1.3294 -3.8752
 7331SOL    HW223594   4.513   6.614   2.987  2.0008  0.0221  2.0360
 7332SOL     OW23595   5.621   5.824   4.080 -0.4795  0.0059 -0.1821
 7332SOL    HW123596   5.560   5.869   4.146 -0.8544  2.4829 -2.0409
 7332SOL    HW223597   5.570   5.804   3.997  0.7861  0.3206 -1.0529
 7333SOL     OW23598   5.613   0.382   5.552 -0.5385 -0.2511  1.0166
 7333SOL    HW123599   5.526   0.428   5.534 -0.2875  0.1116  0.7198
 7333SOL    HW223600   5.654   0.353   5.466 -1.2484 -2.0809  1.2587
 7334SOL     OW23601   4.309   3.106   1.500  0.2412 -0.1888  0.1953
 7334SOL    HW123602   4.295   3.008   1.487  1.5532 -0.1886 -1.5158
 7334SOL    HW223603   4.406   3.125   1.514 -0.1480  0.7582  1.9197
 7335SOL     OW23604   4.611   0.986   4.805 -0.1845  0.6373  0.4571
 7335SOL    HW123605   4.612   0.914   4.736  1.6493  0.1963  0.9029
 7335SOL    HW223606   4.578   1.071   4.765  0.1524  0.2046 -0.7648
 7336SOL     OW23607   6.806   2.242   2.822 -0.0036  0.0038  0.3995
 7336SOL    HW123608   6.856   2.325   2.797 -1.0270  0.6970  0.6264
 7336SOL    HW223609   6.871   2.167   2.835  0.8666  0.5616 -0.5849
 7337SOL     OW23610   2.159   6.954   2.472 -0.1762  0.3176  0.1398
 7337SOL    HW123611   2.246   6.948   2.422  0.8808  0.6504  1.8619
 7337SOL    HW223612   2.127   7.049   2.473 -0.1764  0.3177  0.1284
 7338SOL     OW23613   6.623   4.115   6.408  0.2420  0.1279  0.5803
 7338SOL    HW123614   6.671   4.195   6.374 -1.7905  2.0053  1.8354
 7338SOL    HW223615   6.554   4.087   6.341 -0.9349  1.2335  1.2774
 7339SOL     OW23616   0.108   1.048   0.144 -0.3823  0.3255 -0.4017
 7339SOL    HW123617   0.174   0.974   0.130 -0.6439 -0.2484  1.2442
 7339SOL    HW223618   0.019   1.020   0.110 -0.0904  0.6184 -1.4619
 7340SOL     OW23619   1.834   0.731   5.933  0.5671 -0.2247  0.2522
 7340SOL    HW123620   1.909   0.763   5.875  0.7078 -0.7492  0.1388
 7340SOL    HW223621   1.748   0.739   5.883  0.5218  0.5129  0.4343
 7341SOL     OW23622   1.856   1.416   6.378  0.4442 -0.0717  0.2173
 7341SOL    HW123623   1.925   1.359   6.333  0.8653 -0.7472  1.6771
 7341SOL    HW223624   1.766   1.372   6.368  0.0296  1.1669 -2.3137
 7342SOL     OW23625   3.270   3.361   3.877 -0.3369  0.0810 -0.3111
 7342SOL    HW123626   3.356   3.389   3.833  0.4320 -0.3281  0.8662
 7342SOL    HW223627   3.277   3.377   3.976 -1.1982 -0.9784 -0.0632
 7343SOL     OW23628   2.278   4.548   1.112  0.9797  0.1820  0.5858
 7343SOL    HW123629   2.238   4.544   1.204 -0.9508  2.1789 -0.0837
 7343SOL    HW223630   2.214   4.508   1.046 -0.1686  3.4920 -0.5187
 7344SOL     OW23631   1.386   6.076   5.430 -0.2012 -0.9196  0.1844
 7344SOL    HW123632   1.378   6.155   5.369  2.3269  0.4891  1.4839
 7344SOL    HW223633   1.407   5.994   5.377 -1.0574 -0.3689 -1.0473
 7345SOL     OW23634   5.148   3.744   0.146 -0.0775 -0.1529 -0.7359
 7345SOL    HW123635   5.174   3.706   0.057  4.0839 -0.5165  0.4472
 7345SOL    HW223636   5.065   3.699   0.178 -0.4711 -1.5836 -3.4251
 7346SOL     OW23637   6.434   4.644   0.373 -0.3056  0.5728 -0.0938
 7346SOL    HW123638   6.441   4.738   0.340  0.6338  0.3597 -0.5389
 7346SOL    HW223639   6.417   4.583   0.296  2.3458  0.0176 -0.3432
 7347SOL     OW23640   6.178   4.015   2.442  0.5927  0.0914 -0.0032
 7347SOL    HW123641   6.212   4.091   2.496  0.8337 -0.0635  0.0665
 7347SOL    HW223642   6.145   4.048   2.354 -1.1456  0.5517  0.7727
 7348SOL     OW23643   4.696   6.482   5.133 -0.3812  0.4714 -0.0955
 7348SOL    HW123644   4.623   6.483   5.064 -1.7154 -0.9168  1.2040
 7348SOL    HW223645   4.732   6.389   5.141 -0.6674  0.4629  1.4473
 7349SOL     OW23646   1.282   0.625   6.343  0.6674 -0.9533  0.9204
 7349SOL    HW123647   1.327   0.707   6.308 -1.8402  0.5706  1.0533
 7349SOL    HW223648   1.288   0.552   6.274 -1.3226  0.9435 -1.4718
 7350SOL     OW23649   5.289   5.599   2.909 -0.0637  0.4459 -0.3734
 7350SOL    HW123650   5.234   5.608   2.992  0.9786 -1.8929  0.6609
 7350SOL    HW223651   5.247   5.651   2.835 -2.6576  0.1586  0.8112
 7351SOL     OW23652   2.034   0.570   2.993 -0.2102 -0.1322 -0.5882
 7351SOL    HW123653   1.985   0.651   3.024  1.6397  0.8051  0.0293
 7351SOL    HW223654   1.969   0.505   2.953 -1.8944  1.1060  0.0183
 7352SOL     OW23655   1.126   3.331   1.807  0.0165  0.2607  0.2728
 7352SOL    HW123656   1.154   3.238   1.784  0.8792  0.2212  1.4082
 7352SOL    HW223657   1.124   3.387   1.725  3.3774  0.2469  0.0548
 7353SOL     OW23658   6.280   3.451   5.155 -0.3888 -0.6378 -0.6172
 7353SOL    HW123659   6.308   3.365   5.114  0.7229  0.3057 -1.9265
 7353SOL    HW223660   6.360   3.507   5.176 -1.0940  0.2283 -0.1307
 7354SOL     OW23661   2.359   0.250   5.864 -0.5150  0.6632  0.3098
 7354SOL    HW123662   2.397   0.160   5.885 -0.2573 -0.0935 -2.9394
 7354SOL    HW223663   2.273   0.262   5.915 -0.1522 -1.0443  1.4292
 7355SOL     OW23664   5.096   0.529   5.583 -0.2253  1.1371  0.7081
 7355SOL    HW123665   5.193   0.555   5.587  0.7317 -1.6061 -1.3757
 7355SOL    HW223666   5.088   0.431   5.605 -1.7257 -0.0112 -3.9051
 7356SOL     OW23667   3.534   0.025   0.219 -0.2005  0.0773  0.6308
 7356SOL    HW123668   3.577  -0.058   0.184 -2.5568 -1.4526  1.1588
 7356SOL    HW223669   3.522   0.090   0.144  1.0488 -0.3210  0.0605
 7357SOL     OW23670   3.533   2.995   1.041 -0.3666  0.1912  0.2387
 7357SOL    HW123671   3.615   3.035   1.081 -1.6341  1.8698  1.2989
 7357SOL    HW223672   3.465   2.979   1.113 -1.7956  0.9693 -0.8950
 7358SOL     OW23673   0.013   1.202   0.363 -0.3355  0.1715 -0.2072
 7358SOL    HW123674   0.015   1.141   0.284 -0.8280  0.7709 -0.6909
 7358SOL    HW223675  -0.024   1.152   0.442  1.6699 -0.9202  0.1144
 7359SOL     OW23676   5.625   6.350   1.052  0.1394 -0.6103 -0.3839
 7359SOL    HW123677   5.595   6.265   1.095  0.6524 -0.7663 -0.3243
 7359SOL    HW223678   5.607   6.346   0.953 -0.8795 -0.3210 -0.2241
 7360SOL     OW23679   0.012   0.181   6.769 -0.3323 -0.1465 -0.0211
 7360SOL    HW123680   0.109   0.172   6.790 -0.1725 -0.9726 -1.0693
 7360SOL    HW223681  -0.011   0.125   6.690 -1.4417  0.8968 -0.4743
 7361SOL     OW23682   4.694   1.381   6.447 -0.1457 -0.0218  0.3602
 7361SOL    HW123683   4.768   1.389   6.513  0.2641 -1.8341  0.1573
 7361SOL    HW223684   4.607   1.405   6.491  0.3893  0.9739  0.9129
 7362SOL     OW23685   1.630   6.086   4.724 -1.0353 -0.1014  0.1000
 7362SOL    HW123686   1.599   6.026   4.650 -0.8503 -1.6516  1.2539
 7362SOL    HW223687   1.720   6.123   4.701 -0.3478 -1.6981  0.1647
 7363SOL     OW23688   4.388   1.258   1.932  0.1120 -0.6028  0.2503
 7363SOL    HW123689   4.444   1.340   1.942 -0.4488 -0.3266  1.2368
 7363SOL    HW223690   4.347   1.257   1.840 -0.1817  0.4308  0.3503
 7364SOL     OW23691   0.859   1.957   4.314  0.6828  0.0922  0.1757
 7364SOL    HW123692   0.952   1.946   4.349  0.3457  0.2886  1.1637
 7364SOL    HW223693   0.855   2.037   4.253  0.7906  1.1282  1.4928
 7365SOL     OW23694   3.091   4.713   1.029 -0.2216 -0.2440  0.3424
 7365SOL    HW123695   3.136   4.641   0.976  0.8255  0.4268  0.2807
 7365SOL    HW223696   3.005   4.738   0.985  0.1149 -0.4454 -0.4503
 7366SOL     OW23697   1.465   1.110   4.817  0.2284  0.0667  0.7373
 7366SOL    HW123698   1.533   1.181   4.801  1.0022 -1.3070 -3.1046
 7366SOL    HW223699   1.375   1.142   4.787  0.8511 -0.9151 -2.5415
 7367SOL     OW23700   0.506   2.080   2.644 -0.1864 -0.7067  0.0487
 7367SOL    HW123701   0.445   2.151   2.609  0.1554  0.3792  1.5692
 7367SOL    HW223702   0.465   1.990   2.627 -1.7144 -0.0545  0.0812
 7368SOL     OW23703   5.645   3.890   0.704  0.1680 -0.2006 -0.0368
 7368SOL    HW123704   5.689   3.974   0.675 -0.9590  0.4260 -0.0053
 7368SOL    HW223705   5.550   3.889   0.671  0.5008 -1.9978 -1.0451
 7369SOL     OW23706   1.785   0.186   4.448  0.3987 -0.3978 -0.2206
 7369SOL    HW123707   1.862   0.123   4.442 -0.8257 -1.8930 -0.9693
 7369SOL    HW223708   1.750   0.186   4.541  0.9909 -0.0759  0.0090
 7370SOL     OW23709   1.388   1.426   4.241 -0.0309 -0.5037  0.0503
 7370SOL    HW123710   1.484   1.452   4.242 -0.4288  1.0506  0.4027
 7370SOL    HW223711   1.364   1.388   4.152  0.2816  1.6827 -1.0279
 7371SOL     OW23712   5.358   3.496   4.410  0.1997 -0.7098  0.1977
 7371SOL    HW123713   5.354   3.537   4.501  1.6987 -0.1413  0.0416
 7371SOL    HW223714   5.440   3.438   4.403  1.5851  1.2952 -1.5582
 7372SOL     OW23715   2.650   0.203   3.350  0.4197  0.1222  0.1958
 7372SOL    HW123716   2.627   0.202   3.253  0.7703  0.4945  0.1055
 7372SOL    HW223717   2.607   0.282   3.394  1.2163  0.6279  0.0960
 7373SOL     OW23718   2.563   3.073   0.067 -0.8264 -0.2650  0.5128
 7373SOL    HW123719   2.561   3.072  -0.033 -0.9923  1.2214  0.4727
 7373SOL    HW223720   2.483   3.123   0.101  0.3147  1.1163  1.2893
 7374SOL     OW23721   0.459   0.805   0.766  0.2427 -0.3705 -0.1696
 7374SOL    HW123722   0.511   0.891   0.772  1.5113 -1.1022 -0.3761
 7374SOL    HW223723   0.413   0.800   0.678 -0.5282  0.4712  0.1728
 7375SOL     OW23724   2.227   3.844   0.389 -0.2343 -0.5847 -0.4737
 7375SOL    HW123725   2.326   3.839   0.395  0.0028  1.9138 -1.3476
 7375SOL    HW223726   2.192   3.764   0.340  1.5571 -0.5042 -1.9817
 7376SOL     OW23727   1.291   2.007   6.414  0.5642  0.1936 -0.4257
 7376SOL    HW123728   1.254   2.051   6.496 -0.9687  1.1535 -1.5654
 7376SOL    HW223729   1.338   2.075   6.358  0.5810 -0.2039 -0.8947
 7377SOL     OW23730   2.242   5.344   2.491  0.5281  0.1283  0.0791
 7377SOL    HW123731   2.249   5.272   2.560 -2.4161 -0.4748 -0.0974
 7377SOL    HW223732   2.199   5.307   2.409  0.5009  1.7018 -0.6605
 7378SOL     OW23733   6.801   1.371   6.264 -0.7712 -0.1655 -0.1562
 7378SOL    HW123734   6.787   1.275   6.290  1.1974 -0.9050 -1.5693
 7378SOL    HW223735   6.837   1.375   6.171 -0.5703  1.9586 -0.0285
 7379SOL     OW23736   1.445   1.952   6.763  0.6016  0.3224  0.3871
 7379SOL    HW123737   1.357   1.991   6.734  1.4896  1.0284 -1.4897
 7379SOL    HW223738   1.469   1.989   6.853 -0.9072  0.2863  0.8363
 7380SOL     OW23739   0.633   4.284   4.786  0.1942 -0.2648 -0.8812
 7380SOL    HW123740   0.697   4.250   4.854  0.7317 -0.4686 -1.4831
 7380SOL    HW223741   0.626   4.383   4.794  0.5975 -0.2384 -0.8254
 7381SOL     OW23742   6.515   0.982   1.530  0.5271  0.8755 -0.2675
 7381SOL    HW123743   6.599   1.034   1.547  1.9837 -1.2944 -0.3663
 7381SOL    HW223744   6.487   0.936   1.614 -0.3422  1.2362 -0.3465
 7382SOL     OW23745   6.116   2.355   3.083 -0.0367 -0.3057  1.0046
 7382SOL    HW123746   6.017   2.344   3.075  0.2354 -1.3124 -2.4271
 7382SOL    HW223747   6.137   2.447   3.116 -2.1189  0.3292  0.6886
 7383SOL     OW23748   3.331   5.513   6.455 -0.0490 -0.3115  0.3480
 7383SOL    HW123749   3.354   5.476   6.365  0.4343  1.6764 -0.3862
 7383SOL    HW223750   3.237   5.547   6.454  0.6166  1.6508 -0.1265
 7384SOL     OW23751   6.354   1.910   6.734  0.9308 -0.1397 -0.5499
 7384SOL    HW123752   6.359   1.977   6.660 -0.8263  2.2081  1.2737
 7384SOL    HW223753   6.293   1.835   6.708  2.1120 -0.5402 -2.2625
 7385SOL     OW23754   2.316   2.995   3.580 -0.4489 -0.2973  0.3173
 7385SOL    HW123755   2.266   3.012   3.665 -0.7057 -1.1868  0.3532
 7385SOL    HW223756   2.405   2.955   3.602  0.3604  1.3856  0.2611
 7386SOL     OW23757   0.347   6.291   0.602  0.0052  0.2278 -0.4810
 7386SOL    HW123758   0.321   6.237   0.682  0.1056  0.6590 -0.1504
 7386SOL    HW223759   0.365   6.385   0.630  0.3911  0.3020 -0.9563
 7387SOL     OW23760   6.307   6.803   2.797 -0.0684 -0.2129  0.6182
 7387SOL    HW123761   6.220   6.758   2.778 -0.2443  0.6168 -0.6520
 7387SOL    HW223762   6.381   6.754   2.750  0.0493 -0.5051  1.1109
 7388SOL     OW23763   2.540   1.055   5.492  1.4433 -1.0182 -0.1416
 7388SOL    HW123764   2.479   1.077   5.416  1.9366 -0.5721 -0.4151
 7388SOL    HW223765   2.597   0.976   5.467  0.9686 -1.4533  0.1252
 7389SOL     OW23766   4.464   6.966   2.311  0.0507 -0.4591  0.2934
 7389SOL    HW123767   4.521   6.991   2.389 -0.4369  0.3376  0.4069
 7389SOL    HW223768   4.370   6.995   2.327 -0.1239 -0.5894 -0.4460
 7390SOL     OW23769   0.546   1.865   1.264 -0.0005 -0.4710 -0.0459
 7390SOL    HW123770   0.634   1.826   1.288 -0.0080 -0.2334  0.3790
 7390SOL    HW223771   0.508   1.817   1.185  0.1031 -1.1464  0.3133
 7391SOL     OW23772   0.302   2.275   6.797 -0.1154  0.0319 -0.2425
 7391SOL    HW123773   0.344   2.317   6.878 -2.8490  0.0186  1.2882
 7391SOL    HW223774   0.283   2.179   6.815 -0.9831  0.0900 -0.7716
 7392SOL     OW23775   4.451   0.404   2.698 -0.3311 -0.1996 -0.0158
 7392SOL    HW123776   4.507   0.465   2.642 -0.2328  0.7086  1.0569
 7392SOL    HW223777   4.379   0.364   2.640 -0.4234  0.9521 -0.7284
 7393SOL     OW23778   4.358   6.465   0.775 -0.1296 -0.4070 -0.7253
 7393SOL    HW123779   4.260   6.471   0.760 -0.1723 -0.5727 -0.5135
 7393SOL    HW223780   4.406   6.471   0.687 -0.3612 -0.9673 -0.8941
 7394SOL     OW23781   4.873   5.383   4.049 -0.4501  0.1120  0.3917
 7394SOL    HW123782   4.806   5.391   3.975  0.9352  1.2316 -0.7915
 7394SOL    HW223783   4.909   5.473   4.071  0.6853 -0.4691  0.9833
 7395SOL     OW23784   0.407   1.480   4.944  0.6124  0.3026 -0.2248
 7395SOL    HW123785   0.313   1.494   4.973  1.1673  1.2276  1.2219
 7395SOL    HW223786   0.455   1.568   4.943  1.7615 -0.2986  0.1780
 7396SOL     OW23787   0.237   6.527   5.869 -0.0968  0.2372 -0.1368
 7396SOL    HW123788   0.306   6.499   5.936  1.1406  2.2063 -0.5155
 7396SOL    HW223789   0.171   6.453   5.857  0.1024 -0.5146  2.6145
 7397SOL     OW23790   5.086   3.234   5.942 -1.0351  0.2263 -0.0684
 7397SOL    HW123791   5.181   3.212   5.921 -0.4050  1.7986  0.9678
 7397SOL    HW223792   5.053   3.173   6.014 -0.2597  0.6979  0.7123
 7398SOL     OW23793   0.444   0.461   2.385 -0.2835  0.1471  0.3032
 7398SOL    HW123794   0.517   0.417   2.438  1.1220  2.4070  0.3973
 7398SOL    HW223795   0.481   0.492   2.298 -1.6654 -0.3668 -0.4865
 7399SOL     OW23796   0.045   0.213   5.789 -0.0810 -0.3503 -0.2466
 7399SOL    HW123797   0.076   0.134   5.736 -1.2439 -0.2312 -1.1501
 7399SOL    HW223798  -0.034   0.254   5.744 -1.8832 -0.9416  2.1831
 7400SOL     OW23799   2.396   4.730   6.295 -0.1419  0.2897  0.2136
 7400SOL    HW123800   2.417   4.635   6.271  1.4583  0.6810 -0.0584
 7400SOL    HW223801   2.467   4.789   6.257  0.5042  1.3227  2.8461
 7401SOL     OW23802   4.255   4.393   5.597 -0.0684 -0.0536 -0.4912
 7401SOL    HW123803   4.325   4.338   5.641 -1.6804 -0.9379  1.1055
 7401SOL    HW223804   4.224   4.346   5.514  0.5156 -0.1431 -0.6652
 7402SOL     OW23805   4.052   2.280   0.695 -0.0245  0.4076  0.3281
 7402SOL    HW123806   3.980   2.337   0.657 -0.3373  1.0487  1.8108
 7402SOL    HW223807   4.013   2.217   0.762  0.9505  2.0023  2.5158
 7403SOL     OW23808   1.636   4.480   0.494  0.2453  0.3821 -0.4713
 7403SOL    HW123809   1.678   4.389   0.500 -0.4178 -0.1832 -2.9888
 7403SOL    HW223810   1.702   4.544   0.455  1.1338  1.3715  2.4510
 7404SOL     OW23811   4.560   3.787   5.667 -0.3916  0.2499 -0.5828
 7404SOL    HW123812   4.554   3.823   5.573 -1.2590  1.4398 -0.0976
 7404SOL    HW223813   4.656   3.789   5.697 -0.1816  0.3949 -1.2459
 7405SOL     OW23814   0.161   3.567   1.450  0.2905 -0.4787 -0.7714
 7405SOL    HW123815   0.127   3.661   1.443 -0.0862 -0.4777  0.7337
 7405SOL    HW223816   0.158   3.524   1.360 -2.0499  0.0989 -1.0409
 7406SOL     OW23817   6.350   5.583   5.831 -0.5296  0.6453  0.5280
 7406SOL    HW123818   6.252   5.594   5.820 -0.2121  2.5491 -0.8423
 7406SOL    HW223819   6.369   5.502   5.888 -2.9034  1.1438  2.1578
 7407SOL     OW23820   3.498   2.820   5.329  0.1038  0.0147  0.2489
 7407SOL    HW123821   3.427   2.821   5.399 -0.2013  1.4127 -0.0600
 7407SOL    HW223822   3.500   2.908   5.281 -2.1960 -1.8856 -3.9759
 7408SOL     OW23823   3.696   4.494   0.348  0.0511  0.2418 -0.0728
 7408SOL    HW123824   3.625   4.559   0.323  0.7701  0.9089 -0.4254
 7408SOL    HW223825   3.678   4.458   0.439 -1.7567 -1.0343 -0.8774
 7409SOL     OW23826   6.643   5.156   0.549  0.3107 -0.1041 -0.5372
 7409SOL    HW123827   6.584   5.174   0.628  2.4116  1.3825  0.7858
 7409SOL    HW223828   6.586   5.140   0.468 -1.9550  4.0092 -0.0026
 7410SOL     OW23829   5.193   2.232   1.550 -0.1886 -0.2460  0.0291
 7410SOL    HW123830   5.234   2.180   1.625 -1.1880 -1.6980 -0.3926
 7410SOL    HW223831   5.118   2.289   1.587  2.0175  2.3899  0.7915
 7411SOL     OW23832   3.905   0.809   5.490  0.0405  0.5727  0.2592
 7411SOL    HW123833   3.808   0.825   5.508  0.2041  2.0624 -0.0829
 7411SOL    HW223834   3.936   0.730   5.542 -1.5443 -0.4315 -0.2472
 7412SOL     OW23835   0.436   4.519   0.701 -0.2450  0.1960 -0.3738
 7412SOL    HW123836   0.427   4.553   0.608 -0.5381 -1.1406 -0.8643
 7412SOL    HW223837   0.401   4.425   0.705 -1.3748  0.6446  1.3536
 7413SOL     OW23838   6.164   0.441   1.326 -0.4362 -0.2476 -0.0020
 7413SOL    HW123839   6.138   0.522   1.378 -0.8393 -1.7157  2.2155
 7413SOL    HW223840   6.160   0.462   1.228 -0.8290  2.2776  0.4715
 7414SOL     OW23841   3.058   6.284   3.113  0.4963  0.2189 -0.7741
 7414SOL    HW123842   3.068   6.376   3.149  1.1547  0.0831 -0.5932
 7414SOL    HW223843   3.091   6.281   3.019  0.7265  0.1104 -0.6908
 7415SOL     OW23844   5.723   3.023   3.826 -0.2399  0.1949 -0.1153
 7415SOL    HW123845   5.813   2.981   3.837 -0.6284 -0.9623 -1.0741
 7415SOL    HW223846   5.700   3.076   3.907  1.7455  1.3911 -0.2788
 7416SOL     OW23847   3.938   5.279   5.321  0.3446  0.2430  0.2216
 7416SOL    HW123848   3.940   5.255   5.224  0.0723 -0.0146  0.2763
 7416SOL    HW223849   3.843   5.291   5.350  0.1202 -2.8941  1.2063
 7417SOL     OW23850   3.228   5.438   2.017 -0.7918  0.1054  0.7071
 7417SOL    HW123851   3.323   5.444   2.048  0.2251 -0.3899 -2.0477
 7417SOL    HW223852   3.207   5.517   1.961 -0.5073 -1.7764 -2.2642
 7418SOL     OW23853   4.327   1.208   1.286 -0.4131  0.0940  0.1689
 7418SOL    HW123854   4.422   1.177   1.279 -1.0432 -1.8398 -0.4570
 7418SOL    HW223855   4.275   1.142   1.340 -2.2707 -1.1072 -2.8653
 7419SOL     OW23856   0.565   4.536   3.541  0.0660 -0.2042  0.1622
 7419SOL    HW123857   0.536   4.496   3.628 -1.1038  1.4550  0.5727
 7419SOL    HW223858   0.506   4.613   3.518  1.8412  0.8931 -0.9225
 7420SOL     OW23859   1.171   0.158   1.282 -0.2066  0.4609  0.0891
 7420SOL    HW123860   1.117   0.074   1.286  2.1978 -1.1430  2.0473
 7420SOL    HW223861   1.156   0.210   1.366  0.4718  0.5149  0.1820
 7421SOL     OW23862   1.507   2.288   4.237 -0.3651 -0.0889  0.7147
 7421SOL    HW123863   1.533   2.233   4.316  1.8400 -1.1056 -0.6064
 7421SOL    HW223864   1.560   2.373   4.237 -0.1576 -0.2158  0.2083
 7422SOL     OW23865   5.920   4.433   3.870  0.5477  0.1826  0.4374
 7422SOL    HW123866   5.908   4.448   3.968  0.0205  1.0667  0.2493
 7422SOL    HW223867   6.018   4.430   3.848  0.6703 -0.4597  1.0453
 7423SOL     OW23868   1.926   2.707   2.170  0.2175  0.7575 -0.0758
 7423SOL    HW123869   1.980   2.623   2.182 -1.7029 -0.7572 -1.3875
 7423SOL    HW223870   1.947   2.747   2.081 -2.3434 -1.1802 -1.7071
 7424SOL     OW23871   0.950   3.667   3.595 -0.6308 -0.0953 -0.0895
 7424SOL    HW123872   0.886   3.663   3.671  0.5431  0.0849  0.9413
 7424SOL    HW223873   1.005   3.583   3.593  1.0478  0.9234  0.8436
 7425SOL     OW23874   3.996   5.434   1.579 -0.7167 -0.1233 -0.1593
 7425SOL    HW123875   3.926   5.387   1.632 -3.3412  0.3501 -2.9554
 7425SOL    HW223876   3.961   5.521   1.547  1.4651  0.4916 -1.0646
 7426SOL     OW23877   0.075   1.279   5.681 -0.3299 -0.0555  0.0682
 7426SOL    HW123878  -0.023   1.275   5.664 -0.2307  0.6889 -0.7087
 7426SOL    HW223879   0.123   1.223   5.613 -0.1070  0.9650 -0.6378
 7427SOL     OW23880   6.845   5.729   2.368 -0.0178 -0.1206 -0.2590
 7427SOL    HW123881   6.815   5.637   2.343 -1.9360  0.5363 -0.5451
 7427SOL    HW223882   6.941   5.741   2.342  0.1421 -1.8813 -0.5975
 7428SOL     OW23883   2.858   0.102   2.135  0.8072  0.0302 -0.0352
 7428SOL    HW123884   2.791   0.161   2.179  2.1207  0.6895  1.1129
 7428SOL    HW223885   2.907   0.153   2.065  2.0860  0.4041  1.0970
 7429SOL     OW23886   3.192   0.453   1.761 -0.5019  0.6815 -0.1421
 7429SOL    HW123887   3.250   0.374   1.742 -2.5276 -0.8394 -0.3466
 7429SOL    HW223888   3.246   0.536   1.753  2.1244 -0.6940  1.5874
 7430SOL     OW23889   4.836   3.223   4.911 -0.6088 -0.2855  0.2949
 7430SOL    HW123890   4.921   3.255   4.869  0.3294  0.4865  2.5691
 7430SOL    HW223891   4.767   3.295   4.908 -1.6608 -1.3002 -2.5685
 7431SOL     OW23892   1.203   5.665   6.900 -0.6839 -0.0551 -0.1710
 7431SOL    HW123893   1.149   5.659   6.984 -1.0258 -0.4874 -0.4189
 7431SOL    HW223894   1.260   5.583   6.892 -1.0229 -0.2527 -0.6105
 7432SOL     OW23895   5.895   2.010   0.917  0.0647 -0.1232 -0.3806
 7432SOL    HW123896   5.862   1.980   1.006  0.6791  0.3551  0.0149
 7432SOL    HW223897   5.859   1.949   0.846  0.4598 -1.1829  0.2940
 7433SOL     OW23898   0.672   2.918   2.087  0.1696 -0.0830 -0.6085
 7433SOL    HW123899   0.765   2.954   2.095 -0.3176  1.5688 -1.8050
 7433SOL    HW223900   0.658   2.847   2.155  1.4949  1.3526  1.2709
 7434SOL     OW23901   5.523   4.756   4.733 -0.2966 -0.0354  0.1340
 7434SOL    HW123902   5.567   4.720   4.815 -1.1664 -1.5492 -0.0284
 7434SOL    HW223903   5.431   4.789   4.755  0.0518  1.0311  0.0490
 7435SOL     OW23904   2.139   1.909   3.958  0.0204 -0.1949  0.1448
 7435SOL    HW123905   2.154   2.007   3.975  3.1152 -0.1483 -2.0227
 7435SOL    HW223906   2.160   1.889   3.863 -0.8332 -2.9547  0.4782
 7436SOL     OW23907   5.430   3.580   1.991 -0.1994 -0.1340  0.1848
 7436SOL    HW123908   5.336   3.553   2.012  0.6618 -1.1983  3.1156
 7436SOL    HW223909   5.445   3.675   2.017 -0.3045 -0.1520  0.3111
 7437SOL     OW23910   2.423   3.446   4.149  0.1675  0.0883 -0.4108
 7437SOL    HW123911   2.458   3.538   4.165 -0.6645  0.6383 -1.6421
 7437SOL    HW223912   2.324   3.450   4.136 -0.3570 -1.3381  2.3413
 7438SOL     OW23913   5.042   5.299   0.758 -0.4177  0.6871  0.2326
 7438SOL    HW123914   5.077   5.245   0.682  0.3476  0.2746  0.8519
 7438SOL    HW223915   5.086   5.268   0.843 -2.2498  0.1998  1.0515
 7439SOL     OW23916   3.195   3.528   6.858  0.0624  0.1200 -0.2935
 7439SOL    HW123917   3.264   3.549   6.790  1.2878  1.0019  1.1638
 7439SOL    HW223918   3.238   3.511   6.947 -1.5084 -0.4777  0.4117
 7440SOL     OW23919   2.008   6.633   3.461  0.1496 -0.1379 -0.7754
 7440SOL    HW123920   2.005   6.580   3.376  1.8446 -0.1727 -0.8521
 7440SOL    HW223921   1.982   6.575   3.538  2.3180 -1.2841 -0.8067
 7441SOL     OW23922   5.130   6.979   0.494  0.1953  0.2625  0.2607
 7441SOL    HW123923   5.143   7.077   0.487 -1.1096  0.4420  0.1597
 7441SOL    HW223924   5.219   6.934   0.500  0.7989  1.4478  0.4156
 7442SOL     OW23925   5.285   2.648   5.902  0.4215 -0.0349  0.1690
 7442SOL    HW123926   5.337   2.699   5.971  1.0435 -1.4776  0.8032
 7442SOL    HW223927   5.199   2.696   5.883  1.0174  1.2825  0.6744
 7443SOL     OW23928   6.179   6.507   4.823 -0.4523  0.3244 -0.4234
 7443SOL    HW123929   6.141   6.568   4.753 -0.3286  0.1227 -0.6673
 7443SOL    HW223930   6.278   6.506   4.816 -0.4227  0.5432 -0.0432
 7444SOL     OW23931   2.933   1.279   3.004 -0.2321 -0.0319  0.5290
 7444SOL    HW123932   3.014   1.335   2.993  0.0223 -0.1206  1.7481
 7444SOL    HW223933   2.947   1.189   2.961 -0.5657  0.7237 -1.2462
 7445SOL     OW23934   0.505   1.638   2.530 -0.4287  0.7457 -0.9230
 7445SOL    HW123935   0.474   1.576   2.458 -0.4415 -0.9472  0.4605
 7445SOL    HW223936   0.595   1.674   2.507  0.1226 -0.7574 -1.2316
 7446SOL     OW23937   4.741   4.902   5.938  0.4282 -0.4229 -0.3669
 7446SOL    HW123938   4.755   4.950   5.851 -1.5134 -0.4709 -0.7459
 7446SOL    HW223939   4.800   4.942   6.008  0.4775  1.0318 -1.1934
 7447SOL     OW23940   1.316   4.767   0.184 -0.0703  0.4296  0.4676
 7447SOL    HW123941   1.278   4.679   0.214  0.9673 -0.1473  0.1698
 7447SOL    HW223942   1.314   4.832   0.260 -0.1563 -0.0948  0.9211
 7448SOL     OW23943   6.393   6.657   6.298 -1.0686  0.0091  0.4904
 7448SOL    HW123944   6.308   6.637   6.249 -0.2282 -1.0445 -0.5915
 7448SOL    HW223945   6.410   6.756   6.296 -0.6551 -0.0262 -2.1424
 7449SOL     OW23946   0.442   4.328   5.237  0.0924 -0.0563  0.3422
 7449SOL    HW123947   0.531   4.283   5.237 -0.4026 -1.0740 -0.1810
 7449SOL    HW223948   0.436   4.391   5.159  0.5638  0.4843  0.7301
 7450SOL     OW23949   3.165   6.359   4.829  0.0873  0.4406 -0.3312
 7450SOL    HW123950   3.135   6.432   4.767 -1.4641  0.4900  0.4366
 7450SOL    HW223951   3.094   6.342   4.897  2.2133  1.2792  2.2724
 7451SOL     OW23952   1.428   2.469   2.127 -0.0370 -0.5704 -0.2741
 7451SOL    HW123953   1.414   2.383   2.077 -0.1537 -1.5231  1.3265
 7451SOL    HW223954   1.524   2.496   2.119  0.1383 -1.1755 -0.2903
 7452SOL     OW23955   1.427   4.810   6.348 -0.5068  0.4127 -0.3054
 7452SOL    HW123956   1.415   4.844   6.441  0.1633  0.9145 -0.3928
 7452SOL    HW223957   1.379   4.871   6.284  0.6155  1.1724 -0.4532
 7453SOL     OW23958   6.599   4.931   3.969  0.1809 -0.1444  0.3723
 7453SOL    HW123959   6.611   4.845   4.020  1.3388  0.0597  0.4766
 7453SOL    HW223960   6.683   4.951   3.918 -0.4201  0.4488 -0.3924
 7454SOL     OW23961   3.754   6.813   0.740 -0.4927  0.2366 -0.4976
 7454SOL    HW123962   3.701   6.861   0.810  0.1177  1.6005 -0.9424
 7454SOL    HW223963   3.723   6.718   0.735 -0.8594  0.2178  1.2963
 7455SOL     OW23964   6.279   6.153   2.130  0.2796  0.7280 -0.0210
 7455SOL    HW123965   6.211   6.176   2.200  0.0985  0.0871  0.0151
 7455SOL    HW223966   6.363   6.204   2.149  0.8906 -0.8266  1.7756
 7456SOL     OW23967   1.400   0.914   1.515  0.0720  0.2612  0.5070
 7456SOL    HW123968   1.425   0.822   1.546  1.8850  0.8949  1.0383
 7456SOL    HW223969   1.483   0.967   1.497 -0.9145  2.1594  1.2693
 7457SOL     OW23970   6.670   1.461   2.661  0.0318  0.0787 -0.0161
 7457SOL    HW123971   6.607   1.412   2.721 -1.2901  1.0364 -0.5543
 7457SOL    HW223972   6.663   1.424   2.568  1.6360 -1.0095  0.2570
 7458SOL     OW23973   4.613   5.009   4.418 -0.0258 -0.1411  0.6949
 7458SOL    HW123974   4.543   5.066   4.374 -1.8413 -2.3746  0.4807
 7458SOL    HW223975   4.672   4.969   4.349 -0.3486 -0.4752  0.6051
 7459SOL     OW23976   5.439   4.071   5.337  0.2324 -0.1875 -0.8107
 7459SOL    HW123977   5.450   4.001   5.266 -1.8173 -1.8547  0.4069
 7459SOL    HW223978   5.375   4.140   5.306  0.5794 -0.0235 -1.1786
 7460SOL     OW23979   4.602   4.940   4.704  0.4796 -0.4882  0.1604
 7460SOL    HW123980   4.613   4.962   4.608 -0.3530 -0.7502 -0.0031
 7460SOL    HW223981   4.665   4.995   4.759 -0.6603  1.3958 -0.3283
 7461SOL     OW23982   1.278   4.744   4.908  0.1558 -0.0715 -0.4642
 7461SOL    HW123983   1.326   4.664   4.873 -0.8298 -0.7443 -0.3120
 7461SOL    HW223984   1.203   4.768   4.846 -2.6109 -2.2097  1.8109
 7462SOL     OW23985   3.865   5.751   0.664  0.1723 -0.3118 -0.2324
 7462SOL    HW123986   3.855   5.675   0.600 -0.3227 -0.7632  0.3659
 7462SOL    HW223987   3.833   5.723   0.755 -1.3321  1.0227 -0.3011
 7463SOL     OW23988   2.432   0.880   3.574  0.4056  0.0027  0.1283
 7463SOL    HW123989   2.378   0.963   3.591  0.6032 -0.1533  1.7137
 7463SOL    HW223990   2.503   0.899   3.507  1.6110  1.6768  1.7629
 7464SOL     OW23991   1.932   5.269   6.610  0.7883  0.2556 -0.4412
 7464SOL    HW123992   1.852   5.299   6.559  0.5228  1.4510  0.6214
 7464SOL    HW223993   1.924   5.299   6.705  2.5145  0.4350 -0.3175
 7465SOL     OW23994   3.488   0.068   6.951  0.0202  0.3623 -0.2344
 7465SOL    HW123995   3.401   0.043   6.910  0.5455  0.4202 -1.4121
 7465SOL    HW223996   3.517   0.157   6.917  0.7221  0.1773 -0.1340
 7466SOL     OW23997   1.003   0.862   2.623  0.1119  0.2404 -0.1907
 7466SOL    HW123998   0.925   0.904   2.668  1.5161  1.9838  0.7365
 7466SOL    HW223999   0.973   0.820   2.537 -1.9458  0.1798  0.4917
 7467SOL     OW24000   3.504   6.230   6.134  0.4911  0.0188  0.0397
 7467SOL    HW124001   3.565   6.289   6.080  3.1887 -0.8504  1.9274
 7467SOL    HW224002   3.549   6.143   6.152 -2.6196 -1.9818 -1.0192
 7468SOL     OW24003   2.936   0.301   4.883  0.6702  0.0758  0.0085
 7468SOL    HW124004   2.879   0.382   4.885  0.1373 -0.2930 -0.1377
 7468SOL    HW224005   2.895   0.232   4.824  0.9532 -0.4212  0.3789
 7469SOL     OW24006   3.794   0.176   2.694 -0.0827 -0.2499 -0.1743
 7469SOL    HW124007   3.697   0.160   2.677  0.0109  0.7038 -1.7633
 7469SOL    HW224008   3.845   0.092   2.674 -0.3037  0.0166 -1.9379
 7470SOL     OW24009   0.363   4.175   2.732 -0.5634  0.2650 -0.2873
 7470SOL    HW124010   0.359   4.082   2.767  1.0616  0.3985  0.3099
 7470SOL    HW224011   0.271   4.216   2.735 -0.6989 -0.0214  3.0152
 7471SOL     OW24012   2.610   5.442   6.567  0.0353  0.8777  0.3482
 7471SOL    HW124013   2.631   5.524   6.621  0.6599 -0.0607  1.5845
 7471SOL    HW224014   2.660   5.445   6.481  0.5818  1.4651  0.6780
 7472SOL     OW24015   1.617   1.960   5.542  0.2305 -0.4681  0.4458
 7472SOL    HW124016   1.712   1.973   5.570 -0.5275  3.4405  1.7425
 7472SOL    HW224017   1.571   1.901   5.609  0.9421  0.4782  1.8205
 7473SOL     OW24018   1.799   5.044   2.862 -0.2680 -0.2389  0.8663
 7473SOL    HW124019   1.867   5.004   2.801  1.3794 -0.1208  2.5512
 7473SOL    HW224020   1.841   5.116   2.917 -2.2411  1.1789  0.6386
 7474SOL     OW24021   3.586   0.958   0.770 -0.3493 -0.0622 -0.1451
 7474SOL    HW124022   3.655   0.963   0.843 -0.1514 -2.5383 -0.0790
 7474SOL    HW224023   3.496   0.942   0.810 -0.2492 -1.3663 -0.4059
 7475SOL     OW24024   5.846   3.614   2.019 -0.0869 -0.4992  0.5965
 7475SOL    HW124025   5.944   3.624   2.002 -0.4296  1.4091 -0.4931
 7475SOL    HW224026   5.830   3.609   2.118  1.0169  0.3709  0.8373
 7476SOL     OW24027   0.805   5.040   0.317 -0.1718 -0.4648 -0.2752
 7476SOL    HW124028   0.840   5.050   0.224  2.0610  2.5369  0.7210
 7476SOL    HW224029   0.878   5.007   0.377 -1.5119 -2.1392  0.5235
 7477SOL     OW24030   2.101   5.600   1.939  0.3800  0.4589  0.0765
 7477SOL    HW124031   2.172   5.636   1.877  1.2522 -0.9141  0.2452
 7477SOL    HW224032   2.022   5.571   1.885  1.3306 -1.1887 -0.4885
 7478SOL     OW24033   3.765   1.775   2.221  0.6136  0.3487  0.2477
 7478SOL    HW124034   3.806   1.703   2.277  2.6360  0.7557 -0.6178
 7478SOL    HW224035   3.765   1.746   2.125  0.5184  1.0798  0.0208
 7479SOL     OW24036   6.179   5.078   3.575 -0.2325  0.2901 -0.0284
 7479SOL    HW124037   6.262   5.133   3.560  1.5936 -2.2024  0.2236
 7479SOL    HW224038   6.166   5.064   3.673  0.7962 -1.6975 -0.1322
 7480SOL     OW24039   6.199   5.086   6.273 -0.2214 -0.3655  0.7145
 7480SOL    HW124040   6.107   5.055   6.296 -1.1501  1.7665  0.1711
 7480SOL    HW224041   6.262   5.009   6.275 -2.4260 -2.3712 -1.1254
 7481SOL     OW24042   1.093   4.402   5.125  0.2563  0.1494 -0.7205
 7481SOL    HW124043   1.173   4.441   5.169 -2.1065  1.4732  2.9108
 7481SOL    HW224044   1.057   4.466   5.056  0.3691  1.2037  0.1732
 7482SOL     OW24045   0.648   0.775   0.400 -0.3425 -0.0567  0.4876
 7482SOL    HW124046   0.700   0.839   0.458  0.0737  1.9452 -1.8918
 7482SOL    HW224047   0.637   0.688   0.448  2.5796  0.4294  2.3515
 7483SOL     OW24048   5.375   5.598   6.994  0.3051  0.0818 -0.5005
 7483SOL    HW124049   5.383   5.570   6.898  0.0880 -0.5317 -0.3448
 7483SOL    HW224050   5.463   5.633   7.026 -0.3561  3.3106 -1.8238
 7484SOL     OW24051   3.543   5.305   3.754  0.0341  0.2589  0.6306
 7484SOL    HW124052   3.583   5.275   3.841  2.9016 -0.0490 -0.6609
 7484SOL    HW224053   3.525   5.225   3.697 -0.4000  0.5332  0.3824
 7485SOL     OW24054   4.282   5.715   1.392 -0.3271  0.0258 -0.1655
 7485SOL    HW124055   4.223   5.736   1.314 -0.3758 -0.7861 -0.3494
 7485SOL    HW224056   4.242   5.757   1.475 -0.4993  0.5247 -0.4927
 7486SOL     OW24057   5.572   6.241   0.153 -0.0815  0.0466  0.1493
 7486SOL    HW124058   5.587   6.202   0.063  2.3388  0.5172  0.2727
 7486SOL    HW224059   5.522   6.176   0.210 -0.7013 -0.6832 -1.2006
 7487SOL     OW24060   5.057   2.125   4.912 -0.0247 -0.4470  0.1718
 7487SOL    HW124061   5.074   2.063   4.835 -0.3034  0.1355 -0.3704
 7487SOL    HW224062   4.976   2.181   4.893  1.2686  1.4015 -0.2230
 7488SOL     OW24063   4.679   2.855   3.535  0.4257  0.3053 -0.5164
 7488SOL    HW124064   4.772   2.892   3.540  0.1602  1.3500 -2.4504
 7488SOL    HW224065   4.672   2.791   3.458 -0.3442 -0.1168 -0.1121
 7489SOL     OW24066   6.459   6.400   0.252  0.0025 -0.3010 -0.4225
 7489SOL    HW124067   6.370   6.440   0.229  0.3922  0.0801 -1.3282
 7489SOL    HW224068   6.517   6.469   0.295 -0.1820 -0.5858  0.2889
 7490SOL     OW24069   3.672   1.579   0.608 -0.3664 -0.2126  0.4879
 7490SOL    HW124070   3.709   1.607   0.697  0.9508 -2.8948  0.8915
 7490SOL    HW224071   3.710   1.490   0.583 -1.2429  0.1414 -2.4739
 7491SOL     OW24072   3.588   1.730   1.209  0.3659 -0.6963 -0.4700
 7491SOL    HW124073   3.545   1.793   1.144 -0.1854 -0.4088  0.1643
 7491SOL    HW224074   3.654   1.673   1.161  1.0357  0.5139 -1.0120
 7492SOL     OW24075   6.985   4.676   6.859 -0.3812 -0.0442 -0.4582
 7492SOL    HW124076   6.977   4.773   6.838 -0.8766  0.1238  0.4650
 7492SOL    HW224077   6.949   4.658   6.950  0.8970 -0.8880 -0.0916
 7493SOL     OW24078   4.142   2.267   4.586  0.2585  0.5542  0.1176
 7493SOL    HW124079   4.066   2.268   4.652  0.6968 -0.3040  0.6522
 7493SOL    HW224080   4.153   2.359   4.547  0.1430  1.1443  1.4129
 7494SOL     OW24081   3.276   3.451   0.586 -0.3454  0.1090 -0.0608
 7494SOL    HW124082   3.371   3.424   0.604 -0.1315  0.8896  0.0140
 7494SOL    HW224083   3.232   3.479   0.672 -1.3035 -2.1934  0.2781
 7495SOL     OW24084   3.952   5.309   6.798  0.0922 -0.2011  0.2237
 7495SOL    HW124085   3.899   5.232   6.762 -0.5508  0.6511 -0.6740
 7495SOL    HW224086   3.900   5.393   6.787  1.4224  0.5876 -0.1965
 7496SOL     OW24087   3.909   6.518   3.156  0.0748 -0.0130  0.0679
 7496SOL    HW124088   3.953   6.466   3.083 -1.2210 -1.2738  0.1663
 7496SOL    HW224089   3.855   6.593   3.116  0.3937  0.0859 -0.1807
 7497SOL     OW24090   1.930   3.716   3.056 -0.1062  0.2963  0.4470
 7497SOL    HW124091   1.863   3.786   3.031  0.4100  1.5098  2.2284
 7497SOL    HW224092   1.885   3.643   3.106 -0.2030  0.9145  1.2895
 7498SOL     OW24093   1.102   3.094   5.705 -0.1987  0.3950 -0.6003
 7498SOL    HW124094   1.087   3.014   5.647 -0.7959 -0.4415  0.6460
 7498SOL    HW224095   1.015   3.137   5.726  0.1628  1.7151 -1.6742
 7499SOL     OW24096   1.971   2.888   1.050 -0.0186 -0.0761 -0.1525
 7499SOL    HW124097   2.051   2.921   1.100 -1.2083  1.9587  0.5750
 7499SOL    HW224098   1.923   2.820   1.105  0.4742 -0.2869  0.0155
 7500SOL     OW24099   2.485   2.607   0.219 -0.4130  0.0451 -0.2859
 7500SOL    HW124100   2.568   2.567   0.180  1.3499 -0.1631  3.2335
 7500SOL    HW224101   2.490   2.707   0.213  0.2692  0.0449  0.1265
 7501SOL     OW24102   6.390   0.335   4.127 -0.4543  0.2603  0.4022
 7501SOL    HW124103   6.303   0.285   4.120 -0.9625  0.8581  2.0020
 7501SOL    HW224104   6.404   0.389   4.044 -1.5238  0.0367  0.0571
 7502SOL     OW24105   1.957   0.432   6.929 -0.2013  0.0778  0.5386
 7502SOL    HW124106   1.983   0.346   6.972 -2.3527  0.0826  2.0332
 7502SOL    HW224107   1.887   0.478   6.985 -1.1231  1.4553 -1.5824
 7503SOL     OW24108   5.260   1.271   4.492  0.0774  0.4044 -0.6408
 7503SOL    HW124109   5.279   1.174   4.503 -0.1044  0.5144  0.9227
 7503SOL    HW224110   5.332   1.314   4.438  1.4213 -0.1918  0.6019
 7504SOL     OW24111   0.621   4.235   6.584 -0.1711 -0.2435 -0.6315
 7504SOL    HW124112   0.603   4.142   6.553 -0.5006 -0.5335  0.3869
 7504SOL    HW224113   0.701   4.271   6.537  1.1099 -1.7284  0.3122
 7505SOL     OW24114   3.538   6.884   5.496  0.2328 -0.0518  0.3147
 7505SOL    HW124115   3.604   6.870   5.570 -0.2785  1.5016  1.0937
 7505SOL    HW224116   3.466   6.945   5.526 -0.2353  0.2579 -1.3387
 7506SOL     OW24117   5.434   2.788   6.921  0.0829  0.8985 -0.5348
 7506SOL    HW124118   5.366   2.762   6.991 -0.1014  3.0339  0.1686
 7506SOL    HW224119   5.511   2.833   6.966  1.0843  0.2259 -1.5343
 7507SOL     OW24120   0.447   0.312   5.356  0.4738 -0.1192 -0.1310
 7507SOL    HW124121   0.490   0.251   5.422  1.5140  0.7199 -0.0056
 7507SOL    HW224122   0.363   0.349   5.394  1.3944  0.8773  1.0364
 7508SOL     OW24123   0.808   6.969   0.073  0.1649  0.0903 -0.1651
 7508SOL    HW124124   0.882   7.036   0.062  0.3973 -0.1741 -0.2460
 7508SOL    HW224125   0.743   6.977  -0.002 -0.5154  1.0974  0.5096
 7509SOL     OW24126   2.770   0.313   6.742  0.2042  0.0085  0.0787
 7509SOL    HW124127   2.779   0.336   6.645  0.3592 -0.7150 -0.0867
 7509SOL    HW224128   2.678   0.337   6.774  0.1192  0.1566 -0.2736
 7510SOL     OW24129   1.843   2.234   3.842 -0.8007  0.0885 -0.1513
 7510SOL    HW124130   1.753   2.209   3.879 -0.2906  0.4838  1.4278
 7510SOL    HW224131   1.895   2.151   3.821 -1.4539 -0.1416 -0.9309
 7511SOL     OW24132   3.572   6.638   4.448  0.1417  0.3168 -0.2115
 7511SOL    HW124133   3.609   6.661   4.357  0.9267 -0.4047 -0.0851
 7511SOL    HW224134   3.638   6.665   4.518  0.0232 -0.1499  0.0811
 7512SOL     OW24135   0.848   0.363   6.388 -1.1206 -0.3350 -0.1231
 7512SOL    HW124136   0.836   0.426   6.464  1.7256 -1.8896  1.7798
 7512SOL    HW224137   0.764   0.310   6.375 -1.8045  0.2562  1.6544
 7513SOL     OW24138   4.297   4.975   4.223  0.7858  0.1176  0.0049
 7513SOL    HW124139   4.369   4.914   4.189  0.8615 -0.1504  0.6227
 7513SOL    HW224140   4.340   5.050   4.274  0.6223 -0.1191  0.4929
 7514SOL     OW24141   1.729   2.763   2.792  0.2967 -0.1290  0.6113
 7514SOL    HW124142   1.763   2.812   2.872 -1.2990 -0.9797  1.8660
 7514SOL    HW224143   1.792   2.690   2.767  0.3229 -0.4986  1.7369
 7515SOL     OW24144   6.128   0.220   3.655 -0.1777 -0.0717 -0.8650
 7515SOL    HW124145   6.147   0.134   3.701 -0.9236  0.9164  1.4176
 7515SOL    HW224146   6.030   0.226   3.633 -0.5164  0.9524  0.7608
 7516SOL     OW24147   0.403   6.383   5.581  0.0919 -0.3759  0.7564
 7516SOL    HW124148   0.443   6.298   5.547 -1.6831  0.2683 -3.6763
 7516SOL    HW224149   0.318   6.363   5.629 -0.1657 -1.1416  0.0035
 7517SOL     OW24150   0.481   4.778   6.798 -0.1139  0.3526 -0.2213
 7517SOL    HW124151   0.512   4.844   6.866 -0.6340 -0.8432  1.2138
 7517SOL    HW224152   0.401   4.729   6.831 -0.5250 -0.1192 -1.7932
 7518SOL     OW24153   6.139   6.103   6.155 -0.2424 -0.1002 -0.4024
 7518SOL    HW124154   6.144   6.201   6.172  1.0410  0.1495 -2.0385
 7518SOL    HW224155   6.229   6.062   6.168 -0.3349 -0.7194 -1.5552
 7519SOL     OW24156   5.101   2.047   3.927 -0.0560  0.0172  0.3188
 7519SOL    HW124157   5.143   2.130   3.891 -1.7268  0.1632 -1.4293
 7519SOL    HW224158   5.080   2.060   4.024  2.7781  0.3231  0.9939
 7520SOL     OW24159   4.476   4.925   6.052 -0.3048 -0.0499  0.7133
 7520SOL    HW124160   4.484   4.855   6.123  0.5847 -0.4050  0.2765
 7520SOL    HW224161   4.560   4.927   5.997 -0.0585  1.7701  1.0863
 7521SOL     OW24162   6.584   2.521   4.053  0.3741  0.3786 -0.2999
 7521SOL    HW124163   6.564   2.605   4.001  0.6252  1.4423  1.2460
 7521SOL    HW224164   6.584   2.443   3.991 -0.7452  1.3927 -1.6479
 7522SOL     OW24165   1.883   2.982   6.957  0.2365 -0.0033 -0.1530
 7522SOL    HW124166   1.820   3.046   7.000  1.0635 -0.7349  2.2824
 7522SOL    HW224167   1.950   3.032   6.902  0.1725  1.1184  0.7729
 7523SOL     OW24168   6.170   2.640   6.185 -0.0909 -0.1023 -0.2615
 7523SOL    HW124169   6.136   2.555   6.224 -0.2542  1.0072  2.2005
 7523SOL    HW224170   6.097   2.685   6.133 -0.7873 -0.2573  0.5728
 7524SOL     OW24171   6.377   4.649   5.134  0.1946  0.2008  0.0053
 7524SOL    HW124172   6.460   4.689   5.173 -0.7294  2.3022 -0.0380
 7524SOL    HW224173   6.374   4.667   5.036 -0.0362 -0.3962 -0.1035
 7525SOL     OW24174   6.475   1.630   6.812  0.6128  0.2918  0.3910
 7525SOL    HW124175   6.489   1.633   6.911 -0.2941  1.0527  0.5127
 7525SOL    HW224176   6.429   1.714   6.782  0.9989  0.1271 -0.6976
 7526SOL     OW24177   3.350   6.256   4.612  0.3140  0.0083 -0.6407
 7526SOL    HW124178   3.294   6.294   4.685  0.5261 -1.8384  0.5327
 7526SOL    HW224179   3.437   6.224   4.649  0.1881 -1.5074 -1.5758
 7527SOL     OW24180   0.685   3.913   5.416  0.1164 -0.4123  0.0493
 7527SOL    HW124181   0.720   3.873   5.331  1.5210 -1.9783  1.2954
 7527SOL    HW224182   0.602   3.866   5.443  0.8934 -1.4681  0.6761
 7528SOL     OW24183   0.968   5.651   4.496  0.6949  0.0310 -0.2461
 7528SOL    HW124184   0.963   5.700   4.409 -0.5794  0.1893 -0.0990
 7528SOL    HW224185   0.893   5.680   4.555 -0.4105 -2.3662 -0.3131
 7529SOL     OW24186   2.666   5.450   6.243 -0.0409 -0.0218 -0.0425
 7529SOL    HW124187   2.637   5.370   6.191 -0.6637  0.9519 -1.2361
 7529SOL    HW224188   2.597   5.522   6.236  1.2943  1.2643 -0.4689
 7530SOL     OW24189   3.373   3.647   6.654  0.0403 -0.1857 -0.7201
 7530SOL    HW124190   3.306   3.706   6.608  0.2383 -0.1096 -0.9133
 7530SOL    HW224191   3.400   3.573   6.593  0.5397  0.0925 -0.8489
 7531SOL     OW24192   5.511   4.847   2.293  0.1307 -0.1425  0.6196
 7531SOL    HW124193   5.579   4.800   2.350  1.8243  1.6677  0.2006
 7531SOL    HW224194   5.557   4.913   2.234 -1.5508 -1.7541 -2.7767
 7532SOL     OW24195   3.167   1.315   3.465 -0.3180 -0.1556  0.2491
 7532SOL    HW124196   3.180   1.290   3.561 -1.2726  0.5274  0.5641
 7532SOL    HW224197   3.114   1.244   3.419  1.9597 -1.5661 -0.3459
 7533SOL     OW24198   5.892   6.362   6.363  0.3992  0.2757 -0.0395
 7533SOL    HW124199   5.979   6.366   6.313  0.5779 -2.3005 -0.0610
 7533SOL    HW224200   5.909   6.340   6.459 -0.2033  0.0666  0.0244
 7534SOL     OW24201   1.366   4.359   2.757 -0.0510  0.2094 -0.2065
 7534SOL    HW124202   1.362   4.261   2.775  2.7788 -0.1290 -0.9673
 7534SOL    HW224203   1.413   4.405   2.833  0.8472  0.5738 -0.9588
 7535SOL     OW24204   5.998   6.813   1.342  0.4577 -0.1849 -0.5042
 7535SOL    HW124205   5.944   6.758   1.405 -1.3297  0.9114 -1.0140
 7535SOL    HW224206   6.061   6.753   1.292 -3.6600 -2.5688 -3.4863
 7536SOL     OW24207   5.005   3.329   1.819  0.5993  0.4038 -0.6988
 7536SOL    HW124208   5.084   3.368   1.773  0.8329  1.3792  0.4791
 7536SOL    HW224209   5.029   3.240   1.857  0.8510  0.2891 -1.1178
 7537SOL     OW24210   6.241   4.006   5.495 -0.0752  0.1806  0.2072
 7537SOL    HW124211   6.292   3.920   5.485 -0.5125 -0.0326 -0.2384
 7537SOL    HW224212   6.159   3.990   5.549 -0.4788  0.1783 -0.3984
 7538SOL     OW24213   2.674   2.765   1.896  0.2511 -0.2525 -0.3486
 7538SOL    HW124214   2.724   2.802   1.975 -0.2213  0.3586 -0.3337
 7538SOL    HW224215   2.601   2.704   1.929 -0.0159  0.0880 -0.3052
 7539SOL     OW24216   2.765   3.775   6.823  0.2889  0.7460 -0.4516
 7539SOL    HW124217   2.710   3.855   6.800 -0.8428 -0.0020 -0.4682
 7539SOL    HW224218   2.733   3.737   6.910  0.6837  0.2070 -0.5386
 7540SOL     OW24219   2.463   2.121   3.470  0.0197 -0.6374  0.3616
 7540SOL    HW124220   2.464   2.023   3.447  2.2190 -0.5208 -0.2305
 7540SOL    HW224221   2.505   2.173   3.395 -0.4707  0.6977  0.9848
 7541SOL     OW24222   4.244   4.623   0.002  0.0264  0.5134 -0.4224
 7541SOL    HW124223   4.229   4.715  -0.036 -0.4048  1.4628  1.8548
 7541SOL    HW224224   4.202   4.555  -0.058 -4.2692  2.2321  0.2458
 7542SOL     OW24225   2.439   0.243   4.447  0.2996 -0.1319  0.4167
 7542SOL    HW124226   2.504   0.168   4.461  0.2347 -0.0783  1.0657
 7542SOL    HW224227   2.489   0.330   4.447  0.2205 -0.0764  1.1029
 7543SOL     OW24228   5.116   0.312   2.980 -0.3044  0.3336 -0.0311
 7543SOL    HW124229   5.206   0.288   2.946 -1.1096 -1.6516 -0.9386
 7543SOL    HW224230   5.123   0.343   3.075  1.1801 -1.3782  0.4673
 7544SOL     OW24231   1.482   0.979   2.664 -0.4967  0.0996  0.4357
 7544SOL    HW124232   1.449   1.072   2.650 -0.6119 -0.0759 -0.5198
 7544SOL    HW224233   1.432   0.916   2.604  0.4119 -0.4028  0.1726
 7545SOL     OW24234   2.646   1.199   0.963 -0.7350 -0.0146 -0.3237
 7545SOL    HW124235   2.702   1.255   0.903 -2.2230  0.3248 -1.4603
 7545SOL    HW224236   2.608   1.122   0.911 -1.3672 -0.1891  0.3786
 7546SOL     OW24237   6.752   1.771   6.816  0.1565  0.6508  0.3430
 7546SOL    HW124238   6.734   1.692   6.758 -1.2092 -0.1681  1.8079
 7546SOL    HW224239   6.673   1.788   6.875  0.2429  3.3425 -0.1437
 7547SOL     OW24240   0.908   1.324   6.666  0.2131  0.3475  0.0861
 7547SOL    HW124241   1.001   1.309   6.631  0.5126  1.6500  0.2518
 7547SOL    HW224242   0.908   1.405   6.725 -0.7914 -0.3633  1.1038
 7548SOL     OW24243   4.352   4.726   0.722 -0.0841  0.3113 -0.1047
 7548SOL    HW124244   4.446   4.721   0.756  0.3872  0.1523 -1.3666
 7548SOL    HW224245   4.344   4.670   0.640 -1.2463  0.4756 -0.1123
 7549SOL     OW24246   3.065   4.213   0.474  0.2995  0.0406  0.0589
 7549SOL    HW124247   2.983   4.256   0.434  0.5013 -0.4752 -0.9490
 7549SOL    HW224248   3.112   4.161   0.403  2.0057  1.0502  0.4063
 7550SOL     OW24249   4.019   4.303   0.360 -0.3249 -0.4552  0.0880
 7550SOL    HW124250   3.946   4.284   0.295  0.0997 -0.0816 -0.5092
 7550SOL    HW224251   3.992   4.379   0.420  0.2508  0.8776 -1.2845
 7551SOL     OW24252   6.291   5.170   1.675 -0.1911 -0.2544  0.1583
 7551SOL    HW124253   6.257   5.133   1.589 -0.2036 -2.5405  1.0884
 7551SOL    HW224254   6.312   5.267   1.663 -1.7225 -0.1117 -1.9473
 7552SOL     OW24255   4.305   0.328   0.221  0.1329  0.2078 -0.6913
 7552SOL    HW124256   4.240   0.267   0.267 -0.8907 -0.2463 -2.6416
 7552SOL    HW224257   4.284   0.423   0.246  0.8512 -0.0984  1.2583
 7553SOL     OW24258   2.003   4.284   2.216  0.2653 -0.2198  0.0287
 7553SOL    HW124259   2.041   4.361   2.268  0.6725 -1.2248  1.2829
 7553SOL    HW224260   1.912   4.262   2.251 -0.3615  0.4460 -1.1447
 7554SOL     OW24261   2.934   6.625   0.087  0.4599 -0.0221 -0.1960
 7554SOL    HW124262   2.948   6.538   0.134  0.9826 -0.2314 -0.7285
 7554SOL    HW224263   2.837   6.634   0.063  0.3901 -0.4279 -0.0811
 7555SOL     OW24264   6.950   3.084   6.531  0.1871  0.1870  0.4950
 7555SOL    HW124265   6.854   3.057   6.517  0.3311  0.4353 -1.1054
 7555SOL    HW224266   6.983   3.045   6.617 -1.9100  1.6448  2.0852
 7556SOL     OW24267   0.282   4.003   1.188 -0.2902 -0.3945  0.1662
 7556SOL    HW124268   0.289   3.904   1.204  0.5603 -0.1928  1.1776
 7556SOL    HW224269   0.190   4.026   1.157 -1.2618 -1.2096  2.2708
 7557SOL     OW24270   4.488   3.984   0.160  0.3997 -0.1124  0.4200
 7557SOL    HW124271   4.471   3.893   0.122 -1.8492  0.5909 -0.4202
 7557SOL    HW224272   4.438   3.992   0.247 -0.3992  0.6834 -0.0975
 7558SOL     OW24273   6.810   2.233   5.509  0.2545 -0.1193  0.0663
 7558SOL    HW124274   6.719   2.251   5.547  0.3425  0.6923 -0.0926
 7558SOL    HW224275   6.861   2.319   5.502  0.5880 -0.3906 -0.9931
 7559SOL     OW24276   2.392   0.653   3.794 -0.1087 -0.4520 -0.1299
 7559SOL    HW124277   2.300   0.694   3.798 -0.1764 -0.5914 -0.2764
 7559SOL    HW224278   2.405   0.608   3.706 -0.8219 -2.5981  0.8122
 7560SOL     OW24279   3.900   1.604   6.468 -0.6880  0.2005 -0.1055
 7560SOL    HW124280   3.830   1.592   6.397  1.7254  0.9377 -2.7852
 7560SOL    HW224281   3.967   1.672   6.438  0.8328  0.0785  2.6586
 7561SOL     OW24282   2.907   5.919   1.122 -0.0460 -0.0421 -0.3336
 7561SOL    HW124283   2.847   5.887   1.050 -0.5847  1.9609 -0.8344
 7561SOL    HW224284   2.929   6.016   1.108  2.1006 -0.3070  0.6604
 7562SOL     OW24285   0.552   3.137   2.302  0.4333  0.0935  0.2797
 7562SOL    HW124286   0.520   3.042   2.299  1.9371 -0.5386  2.0132
 7562SOL    HW224287   0.630   3.148   2.240 -0.9662  0.7644 -1.4311
 7563SOL     OW24288   2.187   6.071   0.543  0.1563 -0.4538 -0.3273
 7563SOL    HW124289   2.231   6.038   0.627 -1.2826 -2.8827 -0.4416
 7563SOL    HW224290   2.122   6.143   0.566  0.5461 -0.3584  0.5200
 7564SOL     OW24291   0.227   5.631   4.606 -0.2521 -0.8359 -0.8661
 7564SOL    HW124292   0.141   5.651   4.557 -0.2954 -2.8386 -1.6977
 7564SOL    HW224293   0.287   5.577   4.547 -0.6746 -4.2255  1.4894
 7565SOL     OW24294   5.252   2.272   5.150  0.6211  0.2751  0.2510
 7565SOL    HW124295   5.161   2.276   5.189  1.0269 -1.4197  1.5283
 7565SOL    HW224296   5.249   2.226   5.061  0.3401 -0.8572  0.8238
 7566SOL     OW24297   5.810   0.280   2.520 -0.1623 -0.2138  0.5969
 7566SOL    HW124298   5.758   0.336   2.455  2.0717  1.1385 -0.1411
 7566SOL    HW224299   5.848   0.201   2.473 -0.1772 -0.3154  0.7552
 7567SOL     OW24300   2.599   6.172   0.789 -0.3282  0.2405 -0.5240
 7567SOL    HW124301   2.582   6.212   0.879 -1.5148 -2.0261  0.3237
 7567SOL    HW224302   2.694   6.141   0.784 -0.7160 -1.2177  0.6508
 7568SOL     OW24303   0.891   5.937   2.146  0.0402 -0.6195 -0.0004
 7568SOL    HW124304   0.810   5.985   2.180  0.8927  1.4973 -0.7573
 7568SOL    HW224305   0.866   5.882   2.066 -0.3255  1.8431 -1.6888
 7569SOL     OW24306   3.844   1.052   2.522 -0.1997 -0.2490  0.2538
 7569SOL    HW124307   3.784   1.030   2.599  1.3766 -1.0806  1.2974
 7569SOL    HW224308   3.902   1.130   2.546 -1.0465  0.7619 -0.8698
 7570SOL     OW24309   1.462   0.468   1.362 -0.3689 -0.4895  0.2982
 7570SOL    HW124310   1.520   0.516   1.296  1.3172  0.1092  2.1289
 7570SOL    HW224311   1.442   0.376   1.328  1.0886 -0.4620 -0.7148
 7571SOL     OW24312   3.092   4.676   5.145  0.0994  0.4033  0.6048
 7571SOL    HW124313   3.008   4.649   5.193 -0.2130  1.4409  0.6556
 7571SOL    HW224314   3.169   4.628   5.186 -0.4583 -0.5958  0.5331
 7572SOL     OW24315   6.040   0.273   2.648 -0.1930 -0.6569 -0.4219
 7572SOL    HW124316   5.965   0.298   2.588 -0.2246  0.6768  0.1386
 7572SOL    HW224317   6.084   0.356   2.683  0.9960 -1.4060 -0.0605
 7573SOL     OW24318   5.363   1.399   3.567 -0.3471  0.7815 -0.5314
 7573SOL    HW124319   5.385   1.477   3.625  0.8834  1.2658 -1.5822
 7573SOL    HW224320   5.422   1.401   3.485 -0.8660 -0.7866 -0.9820
 7574SOL     OW24321   2.847   1.011   2.855  0.4416  0.3190  0.4416
 7574SOL    HW124322   2.858   0.926   2.906  1.8824  0.7739  0.9429
 7574SOL    HW224323   2.782   0.997   2.780  0.1374 -1.0199  0.9342
 7575SOL     OW24324   3.338   2.276   6.368  0.3039  0.0275  0.0236
 7575SOL    HW124325   3.360   2.355   6.425  0.2561  0.2528 -0.2667
 7575SOL    HW224326   3.275   2.304   6.296 -0.6507 -0.5348  0.6311
 7576SOL     OW24327   5.278   5.472   3.255 -0.0554 -0.3702  0.9579
 7576SOL    HW124328   5.307   5.565   3.281  1.6217 -0.2442 -1.1005
 7576SOL    HW224329   5.359   5.418   3.230 -1.2545 -1.4085 -0.8772
 7577SOL     OW24330   3.141   6.077   1.880 -0.0298  0.1794 -0.1761
 7577SOL    HW124331   3.184   6.020   1.810  0.0441  0.9668 -0.7983
 7577SOL    HW224332   3.098   6.020   1.949  2.7599 -0.6959  0.9729
 7578SOL     OW24333   0.889   4.420   6.805  0.0816  0.1923 -0.1855
 7578SOL    HW124334   0.982   4.445   6.831  0.3468 -0.5592 -0.3894
 7578SOL    HW224335   0.878   4.432   6.706  0.2596 -0.6445 -0.3073
 7579SOL     OW24336   6.501   4.078   3.987 -0.1300 -0.2950  0.6692
 7579SOL    HW124337   6.481   4.068   4.085  1.4731  0.1931  1.0749
 7579SOL    HW224338   6.578   4.019   3.963 -0.7134 -0.6462 -0.3829
 7580SOL     OW24339   0.872   5.120   4.363 -0.5245 -0.7235  0.2412
 7580SOL    HW124340   0.917   5.188   4.421 -0.0932 -0.0687 -0.8236
 7580SOL    HW224341   0.774   5.123   4.379 -0.4382 -0.3598  0.7386
 7581SOL     OW24342   1.372   2.730   4.684  0.0372 -0.1312 -0.0112
 7581SOL    HW124343   1.426   2.743   4.767 -1.0451  0.3365  0.6221
 7581SOL    HW224344   1.428   2.754   4.604  0.5606  0.9848  0.6713
 7582SOL     OW24345   0.418   4.130   0.957  0.4018 -0.1910 -0.0206
 7582SOL    HW124346   0.393   4.070   1.033 -1.3270 -1.3164 -1.3968
 7582SOL    HW224347   0.516   4.122   0.938  0.6515 -0.6927  1.3751
 7583SOL     OW24348   0.254   1.955   0.101 -0.0173 -0.0768  0.4682
 7583SOL    HW124349   0.188   2.030   0.110  0.1798  0.5408 -2.3606
 7583SOL    HW224350   0.206   1.872   0.074  0.3492  0.6532 -2.7707
 7584SOL     OW24351   4.101   4.145   0.577 -0.0578  0.7068 -0.4493
 7584SOL    HW124352   4.171   4.203   0.618 -0.5900  1.7249 -0.9376
 7584SOL    HW224353   4.059   4.193   0.500 -1.5305  0.2719  0.0433
 7585SOL     OW24354   1.932   4.967   5.956 -0.1683  0.0554 -0.0779
 7585SOL    HW124355   1.839   4.934   5.966 -0.3249  0.8294  1.2202
 7585SOL    HW224356   1.933   5.067   5.967  1.0613 -0.1340  2.1949
 7586SOL     OW24357   6.516   6.475   3.655 -0.4111 -0.3254  0.2465
 7586SOL    HW124358   6.502   6.388   3.609 -0.4191 -0.5000  0.5798
 7586SOL    HW224359   6.530   6.547   3.587 -0.2656 -0.6101 -0.0245
 7587SOL     OW24360   1.630   4.192   4.102 -0.1070 -0.3219  0.4179
 7587SOL    HW124361   1.722   4.174   4.067 -0.0861 -3.1876  1.6388
 7587SOL    HW224362   1.637   4.238   4.191  0.1062 -0.1352  0.3080
 7588SOL     OW24363   6.115   6.397   6.184  0.3895  0.1217 -0.0248
 7588SOL    HW124364   6.207   6.402   6.145  0.7869  1.1285  0.9827
 7588SOL    HW224365   6.082   6.489   6.205  0.6129 -0.3623  2.8732
 7589SOL     OW24366   4.513   6.642   3.307  0.6085  0.0634 -0.5702
 7589SOL    HW124367   4.465   6.633   3.219 -1.4313  1.1787  0.3411
 7589SOL    HW224368   4.606   6.675   3.291  0.2929  0.2352 -2.3239
 7590SOL     OW24369   0.157   6.330   3.090 -0.0793  0.0989  0.0115
 7590SOL    HW124370   0.163   6.412   3.148  2.0756  0.2773 -0.3815
 7590SOL    HW224371   0.142   6.250   3.148  2.4753  0.2114  0.9841
 7591SOL     OW24372   5.665   4.801   6.888 -0.1885  0.7584  0.6762
 7591SOL    HW124373   5.755   4.759   6.888 -0.9567 -1.1061 -1.3826
 7591SOL    HW224374   5.610   4.762   6.961 -1.1285 -2.6945 -1.6371
 7592SOL     OW24375   6.496   0.044   5.918  0.2236  0.8249  0.4401
 7592SOL    HW124376   6.543   0.102   5.985  0.7193 -0.2571  1.0597
 7592SOL    HW224377   6.465  -0.040   5.963  0.7445 -0.0120 -0.7344
 7593SOL     OW24378   4.685   5.138   0.563  0.3787 -0.3260  0.1350
 7593SOL    HW124379   4.709   5.158   0.467  1.3865 -1.3375  0.1600
 7593SOL    HW224380   4.629   5.056   0.567  0.1141 -0.1345  0.3991
 7594SOL     OW24381   1.052   4.167   3.503 -0.1259  0.3316  0.1890
 7594SOL    HW124382   0.968   4.141   3.552  0.4294  0.7164  1.3716
 7594SOL    HW224383   1.127   4.106   3.531  0.4229  1.1648  0.5633
 7595SOL     OW24384   3.299   3.803   1.366 -0.0376 -0.0681 -0.2703
 7595SOL    HW124385   3.217   3.748   1.380 -2.0492  2.8105  0.2743
 7595SOL    HW224386   3.369   3.777   1.432 -1.9252 -0.1915  1.7750
 7596SOL     OW24387   6.611   0.929   6.162  0.4801 -0.1460  0.1274
 7596SOL    HW124388   6.654   0.974   6.083 -0.0453 -0.7907 -0.5424
 7596SOL    HW224389   6.648   0.837   6.172 -0.4349 -0.5608 -0.2099
 7597SOL     OW24390   4.030   5.820   2.767  0.1151 -0.0422 -0.1192
 7597SOL    HW124391   4.091   5.749   2.804  0.8457  2.0408  3.1138
 7597SOL    HW224392   3.953   5.833   2.830 -1.0535  0.7205 -1.6542
 7598SOL     OW24393   1.048   3.338   0.468  0.3525 -0.0061 -0.4248
 7598SOL    HW124394   1.098   3.278   0.405 -0.2955  0.4371 -1.3854
 7598SOL    HW224395   1.113   3.394   0.520  0.8635  0.7113 -1.8004
 7599SOL     OW24396   6.457   1.386   3.726  0.0062 -0.0846  0.1610
 7599SOL    HW124397   6.509   1.345   3.652  1.1116  1.1874  0.1944
 7599SOL    HW224398   6.361   1.357   3.720 -0.3790  1.4031 -2.8823
 7600SOL     OW24399   2.706   0.652   6.119 -0.1121  0.3158  0.4431
 7600SOL    HW124400   2.720   0.724   6.186 -0.6508  0.6501  0.2068
 7600SOL    HW224401   2.715   0.563   6.163  0.0031  0.5301  0.8579
 7601SOL     OW24402   5.631   6.244   0.500  0.1014  0.5706  0.4830
 7601SOL    HW124403   5.688   6.325   0.490  0.7730 -0.0283 -0.6464
 7601SOL    HW224404   5.684   6.171   0.544 -0.0591  0.2864  0.2087
 7602SOL     OW24405   3.517   6.751   6.307 -0.1278 -0.1328 -0.4873
 7602SOL    HW124406   3.614   6.774   6.300  0.3261 -1.3350  1.1686
 7602SOL    HW224407   3.462   6.834   6.303  1.1818  0.9002  1.4856
 7603SOL     OW24408   0.300   5.498   1.528 -0.3269 -0.2570  0.0675
 7603SOL    HW124409   0.205   5.511   1.556 -0.0968  2.5666 -0.2016
 7603SOL    HW224410   0.314   5.537   1.437  1.5805  1.7201  1.1040
 7604SOL     OW24411   6.945   3.476   2.365 -0.2271 -0.1493 -0.3327
 7604SOL    HW124412   6.913   3.427   2.283 -0.2895 -0.6331 -0.0238
 7604SOL    HW224413   7.028   3.526   2.343  1.2792 -2.3896 -0.0415
 7605SOL     OW24414   5.462   2.612   2.229  0.2113 -0.4389 -0.0289
 7605SOL    HW124415   5.514   2.603   2.314 -1.4150 -1.7496  0.9088
 7605SOL    HW224416   5.365   2.593   2.248 -0.7047  2.0958 -1.6332
 7606SOL     OW24417   5.491   6.275   4.305  0.3059  0.2496 -0.4601
 7606SOL    HW124418   5.586   6.306   4.312  0.6630 -0.7103 -0.7806
 7606SOL    HW224419   5.441   6.333   4.241  0.9752  0.1144 -1.1234
 7607SOL     OW24420   0.043   5.509   6.665 -0.1400  0.2376 -0.2694
 7607SOL    HW124421   0.064   5.461   6.750 -0.6922 -0.9488 -0.7820
 7607SOL    HW224422   0.016   5.443   6.595  0.5250  1.1640 -1.4428
 7608SOL     OW24423   1.512   4.992   0.382 -0.3734 -0.0514 -0.3105
 7608SOL    HW124424   1.542   5.069   0.437 -0.5771  2.1778 -3.0854
 7608SOL    HW224425   1.591   4.939   0.351 -0.2355 -1.0568  1.5843
 7609SOL     OW24426   4.513   1.738   5.710 -0.6092 -0.3828  0.4197
 7609SOL    HW124427   4.471   1.679   5.642 -0.7622 -0.5055  0.6205
 7609SOL    HW224428   4.443   1.794   5.754 -0.3228  0.8821 -0.6649
 7610SOL     OW24429   0.388   2.891   1.750 -0.0411  0.3325 -0.3209
 7610SOL    HW124430   0.392   2.925   1.844 -2.1506  0.2476 -0.1518
 7610SOL    HW224431   0.424   2.960   1.688  1.0705  0.5204  0.4971
 7611SOL     OW24432   5.936   1.329   2.504  0.4875  0.3313 -0.1705
 7611SOL    HW124433   5.874   1.361   2.432 -0.5555  1.4187  1.1478
 7611SOL    HW224434   5.902   1.242   2.540  1.0995 -0.2938 -1.0781
 7612SOL     OW24435   1.516   2.187   5.949  0.1132  0.1995  0.6498
 7612SOL    HW124436   1.462   2.193   5.865 -1.5492 -1.2856  1.5542
 7612SOL    HW224437   1.600   2.136   5.931 -0.4358 -0.4889 -0.0182
 7613SOL     OW24438   5.865   4.488   6.823 -0.0420 -0.2737 -0.2692
 7613SOL    HW124439   5.930   4.455   6.755  0.8028 -0.5201  0.6420
 7613SOL    HW224440   5.839   4.414   6.884 -0.6095  0.0002 -0.1694
 7614SOL     OW24441   3.295   3.113   5.148 -0.1015 -0.3548  0.5562
 7614SOL    HW124442   3.390   3.088   5.168 -0.5832 -2.5367  0.3675
 7614SOL    HW224443   3.249   3.035   5.105 -1.1001  1.7322 -2.3962
 7615SOL     OW24444   5.472   0.116   4.584  0.5065  0.4519  0.2280
 7615SOL    HW124445   5.543   0.162   4.531  2.6070 -0.9489  1.6607
 7615SOL    HW224446   5.487   0.133   4.682  0.3103 -1.6865  0.7004
 7616SOL     OW24447   4.354   2.100   4.473  0.0512  0.2732 -0.3123
 7616SOL    HW124448   4.349   2.102   4.373  0.7929 -0.1598 -0.3663
 7616SOL    HW224449   4.293   2.170   4.511  1.2793  1.8529 -1.1310
 7617SOL     OW24450   6.555   5.519   0.798 -0.4710 -0.3970  0.4384
 7617SOL    HW124451   6.651   5.526   0.773 -0.1269 -1.5945  1.3166
 7617SOL    HW224452   6.526   5.604   0.842  0.4603 -0.3718  1.0306
 7618SOL     OW24453   5.845   4.187   4.030 -0.0009  0.1264 -0.0388
 7618SOL    HW124454   5.926   4.168   3.976  0.3433 -0.6173  0.7107
 7618SOL    HW224455   5.764   4.186   3.971  0.4173 -0.1629 -0.6154
 7619SOL     OW24456   0.703   5.865   5.892 -0.1346  0.0093  0.2991
 7619SOL    HW124457   0.769   5.809   5.842 -1.0750 -1.5948  0.7849
 7619SOL    HW224458   0.752   5.929   5.951  0.9725  0.7454 -1.3331
 7620SOL     OW24459   3.605   3.171   0.772 -0.0685 -0.0262 -0.4745
 7620SOL    HW124460   3.696   3.157   0.811 -0.0236  1.1639 -0.0866
 7620SOL    HW224461   3.557   3.084   0.765  0.1292 -0.3699  1.7826
 7621SOL     OW24462   0.214   2.722   1.950  0.0841  0.1414  0.0843
 7621SOL    HW124463   0.167   2.809   1.934  3.6002  2.2558  0.2766
 7621SOL    HW224464   0.167   2.649   1.900 -1.9867  2.4239 -1.5402
 7622SOL     OW24465   3.419   0.906   2.556  0.4506 -0.0662  0.0014
 7622SOL    HW124466   3.342   0.850   2.526 -0.2015 -0.2660  1.9069
 7622SOL    HW224467   3.395   0.952   2.642  2.3329  0.1710  0.4422
 7623SOL     OW24468   1.790   3.627   6.472 -0.5426 -0.4465 -0.4921
 7623SOL    HW124469   1.692   3.633   6.488 -0.8242  0.1743 -2.2295
 7623SOL    HW224470   1.836   3.704   6.516 -0.6311 -1.4838  1.5014
 7624SOL     OW24471   0.463   0.437   0.068 -0.1041  0.3631  0.0259
 7624SOL    HW124472   0.537   0.399   0.122 -0.3023  0.1231  0.1287
 7624SOL    HW224473   0.375   0.413   0.109 -0.2315  1.0886  0.2020
 7625SOL     OW24474   1.505   6.217   6.617 -0.3271  0.0574  0.1620
 7625SOL    HW124475   1.430   6.159   6.587 -0.9941  0.4181  1.0794
 7625SOL    HW224476   1.514   6.296   6.556 -2.2230  1.2443  1.3288
 7626SOL     OW24477   0.222   0.601   0.541 -0.2251 -0.2465  0.7647
 7626SOL    HW124478   0.195   0.653   0.621 -0.3906  2.0833 -0.7213
 7626SOL    HW224479   0.261   0.662   0.473 -1.8760 -1.7936 -1.7447
 7627SOL     OW24480   4.628   4.580   6.753  0.3389 -0.1229 -0.4250
 7627SOL    HW124481   4.547   4.529   6.726 -0.9437  0.3053  2.2895
 7627SOL    HW224482   4.620   4.675   6.723  0.1793 -0.2586 -0.8063
 7628SOL     OW24483   0.552   5.978   3.285  0.6678  0.5570  0.0504
 7628SOL    HW124484   0.617   5.902   3.283  0.8950  0.7648 -1.3464
 7628SOL    HW224485   0.489   5.970   3.209 -0.8178  0.5081  1.2415
 7629SOL     OW24486   1.388   6.782   0.823 -0.5606  0.3865  0.4218
 7629SOL    HW124487   1.349   6.800   0.913 -1.4866 -0.2234  0.1521
 7629SOL    HW224488   1.487   6.772   0.831 -0.5314  1.1774  1.2350
 7630SOL     OW24489   5.148   2.976   0.894  0.0736  0.3452  0.2739
 7630SOL    HW124490   5.109   2.960   0.985  2.1990 -0.3591  1.1496
 7630SOL    HW224491   5.246   2.995   0.904  0.1782  1.1071 -1.8310
 7631SOL     OW24492   5.871   6.808   3.841 -0.2373 -0.2411 -0.8552
 7631SOL    HW124493   5.961   6.780   3.874  0.1597  1.5938 -0.2384
 7631SOL    HW224494   5.800   6.752   3.884  0.4865 -0.1520  0.4968
 7632SOL     OW24495   0.822   4.954   0.034  0.1867  0.0918  0.0516
 7632SOL    HW124496   0.803   4.865  -0.006  0.7837 -0.3105  0.6483
 7632SOL    HW224497   0.873   5.010  -0.031 -0.8267  0.2734 -0.6045
 7633SOL     OW24498   1.191   6.267   1.732 -0.1217 -0.2789 -0.6955
 7633SOL    HW124499   1.140   6.234   1.812  0.3141  1.4021  0.3396
 7633SOL    HW224500   1.130   6.317   1.672  0.1433  1.2589  0.2658
 7634SOL     OW24501   4.448   0.681   6.912 -0.2394 -0.1912  0.1845
 7634SOL    HW124502   4.501   0.695   6.995 -0.2569  0.7695  0.0466
 7634SOL    HW224503   4.457   0.586   6.882 -0.1040 -0.5048  1.1863
 7635SOL     OW24504   6.194   2.533   4.697 -0.2323  0.9410 -0.1680
 7635SOL    HW124505   6.286   2.555   4.666  1.2111 -1.4356  2.1159
 7635SOL    HW224506   6.170   2.440   4.669 -1.9192  1.4478 -0.5685
 7636SOL     OW24507   1.982   1.182   3.139  0.6241  0.4808 -0.3950
 7636SOL    HW124508   2.062   1.234   3.107  0.3923  0.6993 -0.6212
 7636SOL    HW224509   1.962   1.206   3.233 -0.4391  1.9828 -0.9758
 7637SOL     OW24510   1.027   3.082   6.191 -0.4961 -0.0369 -0.3561
 7637SOL    HW124511   1.005   3.011   6.258  2.4433  0.4117  1.2507
 7637SOL    HW224512   1.089   3.045   6.122  0.8786  0.8328  0.3628
 7638SOL     OW24513   2.495   6.296   0.017  0.5005 -0.3542 -0.4290
 7638SOL    HW124514   2.561   6.321   0.088  0.7604 -0.2326 -0.7168
 7638SOL    HW224515   2.459   6.379  -0.025  0.9278 -0.4483 -0.9815
 7639SOL     OW24516   6.330   1.925   2.607  0.3892  0.0300  0.6449
 7639SOL    HW124517   6.237   1.929   2.572 -0.0489  0.6147  1.8359
 7639SOL    HW224518   6.395   1.936   2.532 -0.4878 -0.8750 -0.2616
 7640SOL     OW24519   1.685   4.665   3.966 -0.0096 -0.2106 -0.5139
 7640SOL    HW124520   1.775   4.626   3.947  0.4006  1.0314 -1.2458
 7640SOL    HW224521   1.618   4.591   3.976  1.0315 -1.1367 -0.2365
 7641SOL     OW24522   3.694   2.056   1.550  0.4892  0.0915  0.1758
 7641SOL    HW124523   3.694   1.965   1.509 -1.3247  0.0789  0.1415
 7641SOL    HW224524   3.616   2.066   1.610  0.5206  1.7148 -0.0052
 7642SOL     OW24525   5.383   4.259   3.870 -0.0257 -0.2029  0.2868
 7642SOL    HW124526   5.458   4.195   3.851 -0.8775 -0.9229 -0.7407
 7642SOL    HW224527   5.414   4.328   3.936  1.2648 -0.9964  0.5429
 7643SOL     OW24528   0.010   1.380   2.007 -0.2444  0.3300  0.0368
 7643SOL    HW124529   0.081   1.396   1.938 -1.3970  0.1451 -1.2179
 7643SOL    HW224530  -0.078   1.411   1.973 -1.0648 -0.9265  0.9112
 7644SOL     OW24531   0.848   6.492   2.557  0.1044 -0.1331 -0.1493
 7644SOL    HW124532   0.793   6.474   2.475  0.9455 -0.4340 -0.6685
 7644SOL    HW224533   0.833   6.419   2.623 -0.9333  0.3530  0.1671
 7645SOL     OW24534   0.264   4.956   5.121  0.2075 -0.2369  0.0943
 7645SOL    HW124535   0.324   4.931   5.198  2.0107  1.1469 -0.7846
 7645SOL    HW224536   0.284   4.897   5.043 -0.5046 -0.5993  0.1774
 7646SOL     OW24537   6.368   2.489   6.277  0.2190  0.1222  0.2276
 7646SOL    HW124538   6.391   2.433   6.197  0.5359  0.2951  0.1979
 7646SOL    HW224539   6.299   2.556   6.252  0.5495  0.3842  0.0207
 7647SOL     OW24540   0.147   1.017   4.210 -0.3094  0.4469 -0.3212
 7647SOL    HW124541   0.076   0.994   4.276 -0.2822  0.4396 -0.2942
 7647SOL    HW224542   0.235   0.982   4.242  0.0968  2.2682  0.6952
 7648SOL     OW24543   3.145   0.776   4.381  0.2037  0.0667  0.2102
 7648SOL    HW124544   3.142   0.692   4.327  0.0793  0.4140 -0.3360
 7648SOL    HW224545   3.052   0.812   4.393  0.2688  0.2036  0.3148
 7649SOL     OW24546   2.123   5.734   4.529  0.1098  0.6167  0.1354
 7649SOL    HW124547   2.216   5.760   4.557 -0.6818  0.3650  3.3788
 7649SOL    HW224548   2.072   5.815   4.502 -0.0368  1.5392  2.8456
 7650SOL     OW24549   2.125   0.282   6.003  0.2754 -0.0859  0.3692
 7650SOL    HW124550   2.061   0.234   6.063  0.6012  0.9362  1.5623
 7650SOL    HW224551   2.132   0.232   5.916 -0.1418 -1.6423  1.1868
 7651SOL     OW24552   4.560   6.278   2.089 -0.1266 -0.5410  0.6241
 7651SOL    HW124553   4.625   6.336   2.040  1.7016 -1.3771  1.9213
 7651SOL    HW224554   4.486   6.334   2.127  0.0924  0.5182 -0.4705
 7652SOL     OW24555   0.107   5.355   3.291  0.4976  0.5975 -0.0534
 7652SOL    HW124556   0.121   5.407   3.207 -0.2001  1.0091  0.0725
 7652SOL    HW224557   0.010   5.359   3.316  0.8589  1.2623  1.2886
 7653SOL     OW24558   3.618   0.869   6.760 -0.9043 -0.3619  0.0503
 7653SOL    HW124559   3.520   0.849   6.759 -1.3940  1.7541 -0.6267
 7653SOL    HW224560   3.669   0.790   6.726 -2.2121 -2.0402  1.8079
 7654SOL     OW24561   2.239   6.312   1.776 -0.2761 -0.1233  0.0074
 7654SOL    HW124562   2.225   6.266   1.864 -0.3812  1.2741  0.7668
 7654SOL    HW224563   2.336   6.329   1.762  0.0358 -2.6256 -1.4162
 7655SOL     OW24564   6.874   5.423   0.921  0.7322  0.3667  0.1754
 7655SOL    HW124565   6.955   5.389   0.969  0.0503 -2.0790 -0.2549
 7655SOL    HW224566   6.808   5.458   0.988  1.2660  0.3471  0.7152
 7656SOL     OW24567   5.423   0.063   0.889 -0.2580 -0.3572 -0.0332
 7656SOL    HW124568   5.454   0.142   0.836  2.0176 -1.1495 -0.0037
 7656SOL    HW224569   5.498   0.031   0.947 -1.2229 -2.3421  0.1846
 7657SOL     OW24570   0.285   6.377   4.711 -0.1832 -0.0854  0.4847
 7657SOL    HW124571   0.377   6.382   4.748 -0.4239 -0.1638  1.1068
 7657SOL    HW224572   0.277   6.438   4.631  0.5889 -0.5883  0.0103
 7658SOL     OW24573   2.555   6.103   4.156  0.4557  0.5033 -0.2533
 7658SOL    HW124574   2.522   6.083   4.248  1.9124 -0.7670  0.0278
 7658SOL    HW224575   2.505   6.182   4.119 -1.7922 -0.4180  0.6747
 7659SOL     OW24576   2.961   3.000   1.629  0.1554  0.2414 -0.0244
 7659SOL    HW124577   2.878   2.968   1.584 -0.7646  0.6468  1.3412
 7659SOL    HW224578   3.011   3.061   1.567 -1.6016  1.5998 -0.1506
 7660SOL     OW24579   1.317   1.630   0.043  0.0667  0.0901 -0.4081
 7660SOL    HW124580   1.289   1.540   0.077  0.3913 -0.5925 -1.8837
 7660SOL    HW224581   1.410   1.625   0.007  0.8966  1.5297  1.3614
 7661SOL     OW24582   1.795   2.583   6.604 -0.0859 -0.2334 -0.6066
 7661SOL    HW124583   1.843   2.572   6.517  0.3153  1.7424 -0.6838
 7661SOL    HW224584   1.722   2.651   6.595 -1.5075 -1.5948  0.0787
 7662SOL     OW24585   1.371   2.120   6.171 -0.4378 -0.2610 -0.0687
 7662SOL    HW124586   1.286   2.172   6.176 -1.7655 -2.3708  0.5128
 7662SOL    HW224587   1.403   2.118   6.076 -1.7828 -0.5795 -0.5257
 7663SOL     OW24588   0.219   5.495   5.600 -0.5492  0.2079 -0.0465
 7663SOL    HW124589   0.164   5.479   5.518 -2.6231 -0.3437  1.3710
 7663SOL    HW224590   0.161   5.533   5.672  0.4123 -2.3459  2.2194
 7664SOL     OW24591   3.669   3.936   6.702 -0.2539 -0.4833  0.0516
 7664SOL    HW124592   3.687   4.032   6.723 -1.4634 -0.1694 -0.2321
 7664SOL    HW224593   3.717   3.911   6.618  0.9966 -0.4739  0.7394
 7665SOL     OW24594   1.741   4.507   4.607 -0.0884 -1.0918  0.0837
 7665SOL    HW124595   1.703   4.586   4.654  1.4696 -1.6900  2.5303
 7665SOL    HW224596   1.839   4.522   4.591 -0.2219 -1.6609 -1.3970
 7666SOL     OW24597   3.081   0.614   0.788  0.0253 -0.2046 -0.2699
 7666SOL    HW124598   2.986   0.638   0.768  0.0957  1.1377  0.9210
 7666SOL    HW224599   3.141   0.692   0.769  0.5972 -0.2631  1.1575
 7667SOL     OW24600   1.401   6.954   6.481 -0.2761 -0.3050 -0.3675
 7667SOL    HW124601   1.485   6.984   6.436 -0.5098  0.0728 -0.5505
 7667SOL    HW224602   1.323   7.001   6.441 -0.7133 -1.5325 -1.0364
 7668SOL     OW24603   1.763   3.494   0.018 -0.1394 -0.2185  0.1671
 7668SOL    HW124604   1.839   3.464   0.076  0.0057 -1.4508 -0.6318
 7668SOL    HW224605   1.677   3.456   0.053 -0.4380  1.2330  1.1135
 7669SOL     OW24606   2.315   5.965   4.014  0.1279  0.0565 -0.9843
 7669SOL    HW124607   2.396   6.021   4.033 -0.1148 -0.2679  1.4152
 7669SOL    HW224608   2.342   5.869   4.010  0.0039  0.0338 -1.2632
 7670SOL     OW24609   3.657   2.675   6.061  0.2705  0.1336 -0.0952
 7670SOL    HW124610   3.574   2.624   6.084  0.0881 -0.5791 -2.1870
 7670SOL    HW224611   3.632   2.764   6.024  0.5709  1.3211  2.3307
 7671SOL     OW24612   6.254   2.668   5.460  0.0085  0.0423  0.1452
 7671SOL    HW124613   6.159   2.698   5.470  0.0364  0.3202 -0.3893
 7671SOL    HW224614   6.307   2.698   5.539 -0.0822  0.9693 -0.1251
 7672SOL     OW24615   0.763   4.458   3.222 -0.1179  0.1364 -0.0067
 7672SOL    HW124616   0.803   4.477   3.311 -0.5840 -2.0650  0.7349
 7672SOL    HW224617   0.814   4.506   3.151  0.1711  2.0559  1.4229
 7673SOL     OW24618   5.505   4.169   0.607  0.4600 -0.0951 -0.0390
 7673SOL    HW124619   5.420   4.215   0.636  1.1234 -0.0385  1.9835
 7673SOL    HW224620   5.565   4.236   0.563 -0.1168  0.1007 -0.5439
 7674SOL     OW24621   5.727   1.782   3.812 -0.1999  0.9143 -0.2651
 7674SOL    HW124622   5.657   1.838   3.856 -2.3180 -1.1867 -0.6885
 7674SOL    HW224623   5.778   1.732   3.881  1.7456  3.2763  0.1163
 7675SOL     OW24624   5.575   4.392   1.228 -0.3541 -0.4550  0.3525
 7675SOL    HW124625   5.644   4.322   1.209 -0.7980 -1.0516  0.8985
 7675SOL    HW224626   5.591   4.471   1.168  0.3772 -0.8629 -0.0121
 7676SOL     OW24627   6.717   6.983   2.600 -0.1213  0.2385  0.4000
 7676SOL    HW124628   6.660   6.939   2.531  0.7112  0.0410 -0.1831
 7676SOL    HW224629   6.677   6.968   2.690 -0.6408 -0.4535  0.0691
 7677SOL     OW24630   4.350   3.961   6.914 -0.2425  0.1880 -0.0281
 7677SOL    HW124631   4.363   4.001   7.005 -1.9262 -1.1131  0.8338
 7677SOL    HW224632   4.323   4.033   6.850  0.1283  0.9883  0.6972
 7678SOL     OW24633   1.630   0.388   6.809 -0.1745 -0.4867 -0.0119
 7678SOL    HW124634   1.723   0.385   6.771  0.0727 -0.1724  0.5552
 7678SOL    HW224635   1.576   0.455   6.758 -0.1447 -0.7897 -0.4516
 7679SOL     OW24636   4.460   0.053   4.063 -0.3703 -0.4135  0.5579
 7679SOL    HW124637   4.423   0.029   3.973  0.3621 -0.0388  0.1491
 7679SOL    HW224638   4.396   0.023   4.134 -0.9974 -0.6405 -0.0869
 7680SOL     OW24639   6.207   3.139   5.620  0.2159  0.6316  0.1926
 7680SOL    HW124640   6.198   3.060   5.681 -1.3430  0.9315  0.3923
 7680SOL    HW224641   6.120   3.189   5.617 -0.2238 -0.1076 -3.3011
 7681SOL     OW24642   1.120   4.149   5.000 -0.2787  0.4315  0.0735
 7681SOL    HW124643   1.093   4.245   4.995 -0.3539  0.5442  1.9239
 7681SOL    HW224644   1.183   4.136   5.077  0.0882 -0.9259 -0.4260
 7682SOL     OW24645   5.308   4.378   5.779  0.4229  0.2338 -0.1083
 7682SOL    HW124646   5.384   4.339   5.829 -0.2320 -0.3609  0.4456
 7682SOL    HW224647   5.280   4.316   5.705 -2.3538 -1.8134  2.4158
 7683SOL     OW24648   1.954   1.876   6.475  0.1754 -0.0236  0.3676
 7683SOL    HW124649   2.014   1.798   6.462  1.5294  1.2271 -1.3234
 7683SOL    HW224650   1.894   1.886   6.396  0.4671  0.9884  0.2535
 7684SOL     OW24651   3.367   2.330   0.678 -0.3632 -0.3069  0.1457
 7684SOL    HW124652   3.378   2.271   0.598 -1.6456 -2.0358  1.1469
 7684SOL    HW224653   3.415   2.290   0.756  0.9165  1.3770  0.2614
 7685SOL     OW24654   5.075   3.781   5.011 -0.0340 -0.3378  0.1939
 7685SOL    HW124655   5.015   3.840   5.064  0.7681 -0.6948  1.5749
 7685SOL    HW224656   5.164   3.776   5.056  1.2490  0.6020 -2.0578
 7686SOL     OW24657   3.333   2.812   1.452 -0.5711 -0.0323 -0.2267
 7686SOL    HW124658   3.306   2.897   1.497  0.4520 -0.4365  1.2312
 7686SOL    HW224659   3.252   2.765   1.416 -1.4433  0.3247  1.2047
 7687SOL     OW24660   5.954   6.772   3.256 -0.1307  0.1577 -0.9242
 7687SOL    HW124661   5.995   6.712   3.187  0.4218 -0.5545 -0.0157
 7687SOL    HW224662   5.906   6.716   3.324 -2.0362  0.9434 -1.5871
 7688SOL     OW24663   0.925   3.553   2.424 -0.2401  0.1463  0.2983
 7688SOL    HW124664   0.853   3.501   2.377 -0.8162 -0.3202  1.6561
 7688SOL    HW224665   0.950   3.507   2.509  0.6026  1.1066  0.5971
 7689SOL     OW24666   0.860   0.253   1.048 -0.0098  0.5826 -0.1525
 7689SOL    HW124667   0.844   0.155   1.058 -1.1323  0.7666  0.0098
 7689SOL    HW224668   0.772   0.302   1.053  0.7352  1.8435  2.7126
 7690SOL     OW24669   6.571   5.446   6.723  0.3872  0.1454  0.2997
 7690SOL    HW124670   6.530   5.534   6.744 -0.5796 -0.5164  1.3347
 7690SOL    HW224671   6.666   5.445   6.752  0.4489  0.8909  0.1307
 7691SOL     OW24672   0.146   4.778   0.931 -0.2573  0.2549 -0.4190
 7691SOL    HW124673   0.220   4.776   0.864 -0.0718  0.9219 -0.2452
 7691SOL    HW224674   0.173   4.727   1.013 -0.0788  0.3152 -0.4414
 7692SOL     OW24675   1.313   5.045   1.394 -0.3288 -0.0061 -0.0986
 7692SOL    HW124676   1.402   5.024   1.354 -0.2993  0.1956 -0.1376
 7692SOL    HW224677   1.241   5.004   1.338 -0.2494 -0.3851  0.0721
 7693SOL     OW24678   3.702   2.621   6.340 -0.6173 -0.6004  1.0469
 7693SOL    HW124679   3.706   2.683   6.261 -1.5989 -1.9040 -0.0699
 7693SOL    HW224680   3.774   2.646   6.405  0.2799  0.4613 -0.2889
 7694SOL     OW24681   6.550   1.024   2.045  0.1403  0.3502 -1.0646
 7694SOL    HW124682   6.523   1.119   2.032  0.3042  0.2442 -2.2836
 7694SOL    HW224683   6.646   1.020   2.072  0.1028  0.5355 -0.9033
 7695SOL     OW24684   1.090   5.508   6.169 -0.3223 -0.9037 -0.4800
 7695SOL    HW124685   1.106   5.507   6.267 -0.0206  0.5402 -0.4846
 7695SOL    HW224686   1.033   5.430   6.143 -2.4824  0.0135  1.1952
 7696SOL     OW24687   6.107   5.475   1.558  0.5181 -0.2425  0.6605
 7696SOL    HW124688   6.086   5.431   1.470 -1.9255  0.5683  0.7826
 7696SOL    HW224689   6.137   5.569   1.542  0.8543 -0.3454  0.6703
 7697SOL     OW24690   4.829   5.162   3.214  0.2968  0.0840 -0.8449
 7697SOL    HW124691   4.748   5.185   3.268  0.3567  0.2246 -0.8142
 7697SOL    HW224692   4.802   5.105   3.136 -0.1555  1.7901 -2.0196
 7698SOL     OW24693   2.905   0.323   3.181 -0.2294 -0.4038 -0.2118
 7698SOL    HW124694   2.840   0.253   3.210 -0.8905  1.1283  2.3527
 7698SOL    HW224695   2.958   0.354   3.260  2.1429 -0.0549 -1.8312
 7699SOL     OW24696   0.072   2.566   1.796  0.2024 -0.4689 -0.5826
 7699SOL    HW124697   0.083   2.478   1.842  0.6302 -0.8292 -1.3735
 7699SOL    HW224698  -0.016   2.568   1.749  0.4342 -0.7029 -1.0385
 7700SOL     OW24699   3.759   0.813   5.959  0.0553 -0.1501  0.0132
 7700SOL    HW124700   3.844   0.782   5.915  0.5998  1.3150 -0.0411
 7700SOL    HW224701   3.746   0.910   5.940  0.7878  0.8444  3.8119
 7701SOL     OW24702   6.171   6.786   5.771  0.5651 -0.4341 -0.8214
 7701SOL    HW124703   6.173   6.780   5.671  2.8334  1.0094 -0.9465
 7701SOL    HW224704   6.171   6.882   5.799  0.8917 -0.8102  0.5688
 7702SOL     OW24705   5.862   2.203   2.584 -0.2425  0.0366  0.3118
 7702SOL    HW124706   5.857   2.221   2.486  2.2542  1.7415  0.3985
 7702SOL    HW224707   5.826   2.282   2.634 -0.1690 -0.2003  0.7437
 7703SOL     OW24708   7.010   2.030   0.149 -0.0434  0.1593  0.6709
 7703SOL    HW124709   6.927   2.086   0.156  0.8709  1.4982  1.1810
 7703SOL    HW224710   7.007   1.958   0.219 -0.8205  0.1126  0.6015
 7704SOL     OW24711   2.051   0.913   6.775  0.4701  0.0045  0.6773
 7704SOL    HW124712   2.086   0.826   6.810 -0.4386 -0.4745  0.4219
 7704SOL    HW224713   1.954   0.921   6.797  0.3129  0.5050 -0.1747
 7705SOL     OW24714   3.315   3.842   1.752  0.5475 -0.4190  0.7892
 7705SOL    HW124715   3.370   3.794   1.683 -0.2422 -2.0935  1.2664
 7705SOL    HW224716   3.233   3.788   1.773 -2.2562  2.6582 -1.0949
 7706SOL     OW24717   5.731   3.213   5.634  0.1393 -0.0025 -0.9222
 7706SOL    HW124718   5.684   3.245   5.551  2.5368  0.1119 -2.3075
 7706SOL    HW224719   5.829   3.228   5.625  0.4490  0.4740  2.2010
 7707SOL     OW24720   4.292   1.834   4.071  0.2540 -0.5182  0.0465
 7707SOL    HW124721   4.243   1.832   3.984  0.1174  0.0854  0.1078
 7707SOL    HW224722   4.387   1.806   4.056  0.6970  1.2512 -0.6049
 7708SOL     OW24723   6.901   2.449   1.080 -0.5909  0.3231  0.2832
 7708SOL    HW124724   6.997   2.461   1.107  0.1125  0.3215 -2.0337
 7708SOL    HW224725   6.855   2.538   1.080  0.3432  0.8451 -1.7489
 7709SOL     OW24726   5.961   2.462   4.211  0.1112 -0.0097 -0.2071
 7709SOL    HW124727   5.956   2.522   4.131  0.4423 -0.6284 -0.7073
 7709SOL    HW224728   5.892   2.490   4.278  0.2382  0.8956 -0.4442
 7710SOL     OW24729   1.857   5.847   0.789 -0.0171  0.6870  0.0731
 7710SOL    HW124730   1.905   5.779   0.844  0.6794  2.1904  1.3866
 7710SOL    HW224731   1.804   5.800   0.718 -0.3496 -1.2810  1.5280
 7711SOL     OW24732   1.961   3.192   5.517  0.3841  0.1327 -0.8194
 7711SOL    HW124733   2.040   3.219   5.463  2.1822 -0.1815  1.4679
 7711SOL    HW224734   1.932   3.269   5.574  1.9410 -0.9266  1.5709
 7712SOL     OW24735   1.974   5.832   1.676 -0.4748  0.0442 -0.3181
 7712SOL    HW124736   2.072   5.820   1.658 -0.1937  0.3617  0.9288
 7712SOL    HW224737   1.961   5.903   1.746 -1.5743 -0.2747 -0.1829
 7713SOL     OW24738   1.561   2.115   5.081 -0.1368 -0.2138 -0.0747
 7713SOL    HW124739   1.507   2.142   5.001  0.6805  0.6575 -0.3516
 7713SOL    HW224740   1.507   2.055   5.139 -1.0195 -0.2255 -0.8868
 7714SOL     OW24741   5.109   5.376   5.893 -0.3160  0.5419 -0.2694
 7714SOL    HW124742   5.080   5.470   5.908 -1.1227  0.2637 -0.0572
 7714SOL    HW224743   5.178   5.351   5.962 -1.2657  0.4760  0.6879
 7715SOL     OW24744   4.778   2.195   5.587 -0.2708  0.3883 -0.2878
 7715SOL    HW124745   4.761   2.141   5.505 -0.7708  0.0302  0.0438
 7715SOL    HW224746   4.740   2.287   5.575  2.2306  1.3373 -1.5949
 7716SOL     OW24747   1.065   3.607   6.703  0.3754  0.7524  0.2898
 7716SOL    HW124748   0.998   3.542   6.666 -0.4422  1.1863  0.9612
 7716SOL    HW224749   1.112   3.566   6.781  0.0154  0.8824  0.5774
 7717SOL     OW24750   5.303   2.958   0.473 -0.6094  0.0592 -0.0504
 7717SOL    HW124751   5.353   2.961   0.387 -0.9714  1.1266 -0.2316
 7717SOL    HW224752   5.362   2.989   0.548 -0.7680  0.5973 -0.1485
 7718SOL     OW24753   3.173   0.012   0.592 -0.3023  0.3479  0.4565
 7718SOL    HW124754   3.244   0.037   0.659 -1.5924 -1.8281  2.8213
 7718SOL    HW224755   3.216  -0.030   0.513  1.1669  1.2162  0.7437
 7719SOL     OW24756   5.277   5.041   1.512 -0.3673  0.8281 -0.0973
 7719SOL    HW124757   5.276   4.945   1.539  1.4115  0.5471 -0.9017
 7719SOL    HW224758   5.184   5.070   1.488 -0.7530 -1.0090 -0.9524
 7720SOL     OW24759   3.604   0.463   0.451  0.6748  0.0333  0.8019
 7720SOL    HW124760   3.685   0.424   0.407  0.2152 -0.3850  0.3169
 7720SOL    HW224761   3.582   0.551   0.407  1.1321  0.3741  1.2431
 7721SOL     OW24762   4.290   3.391   5.348  0.2107 -0.0729  0.1311
 7721SOL    HW124763   4.287   3.482   5.390  0.8808  0.4362 -0.8647
 7721SOL    HW224764   4.262   3.322   5.415 -0.4985  0.8781  0.8460
 7722SOL     OW24765   6.775   1.638   3.524  0.1870  0.0559  0.0331
 7722SOL    HW124766   6.824   1.551   3.531  2.4236  1.3126  0.7774
 7722SOL    HW224767   6.832   1.712   3.559 -1.1271  2.0485 -1.7497
 7723SOL     OW24768   1.984   3.654   0.727  0.0065 -0.3648 -0.2917
 7723SOL    HW124769   2.003   3.701   0.813  1.1763 -0.7461 -0.3324
 7723SOL    HW224770   2.065   3.604   0.697 -0.5116 -0.5600 -1.4198
 7724SOL     OW24771   6.954   5.995   0.898  0.1421  0.0666 -0.4528
 7724SOL    HW124772   7.047   5.959   0.903  0.1109 -0.0676 -0.8024
 7724SOL    HW224773   6.942   6.066   0.968  0.9206  1.0183 -1.2461
 7725SOL     OW24774   1.324   3.690   2.601  0.3781 -0.2189  0.0066
 7725SOL    HW124775   1.287   3.666   2.691 -0.4952 -0.3229 -0.3736
 7725SOL    HW224776   1.324   3.790   2.592  0.5861 -0.2026  0.1664
 7726SOL     OW24777   5.890   1.927   6.294  0.5027  0.3051 -0.3563
 7726SOL    HW124778   5.983   1.891   6.280  1.3166  1.4664  1.6089
 7726SOL    HW224779   5.841   1.926   6.207  2.4212 -0.1365 -1.5060
 7727SOL     OW24780   5.514   0.852   5.895  0.6701 -0.0885  0.6020
 7727SOL    HW124781   5.524   0.772   5.953 -0.1325  0.6816  1.8404
 7727SOL    HW224782   5.436   0.838   5.833  1.8289 -1.1128 -0.6913
 7728SOL     OW24783   5.601   5.462   2.366 -0.0666  0.0915  0.7854
 7728SOL    HW124784   5.596   5.414   2.454  0.7655 -0.7173  0.4064
 7728SOL    HW224785   5.554   5.407   2.296  0.9204 -0.2019  0.3413
 7729SOL     OW24786   2.133   1.453   6.033 -0.0964 -0.8501  0.8146
 7729SOL    HW124787   2.181   1.442   5.946 -0.5583 -3.3784  0.8112
 7729SOL    HW224788   2.195   1.494   6.100  1.0474 -1.1423 -0.0307
 7730SOL     OW24789   1.000   5.082   0.927 -0.6134 -0.2375  0.1961
 7730SOL    HW124790   1.083   5.124   0.890  0.5230 -1.2216  1.5343
 7730SOL    HW224791   0.967   5.136   1.005 -2.7257  1.5588 -1.7799
 7731SOL     OW24792   0.628   1.383   4.826  0.3605  0.6080 -0.2904
 7731SOL    HW124793   0.537   1.400   4.865 -0.8001 -2.5723 -1.2824
 7731SOL    HW224794   0.621   1.313   4.756  3.9332 -1.7198  1.3811
 7732SOL     OW24795   1.295   5.328   1.363  0.3754 -0.1444  0.3258
 7732SOL    HW124796   1.273   5.389   1.287 -0.9279  0.7431  1.3776
 7732SOL    HW224797   1.257   5.237   1.345 -0.5273  0.2453  0.2034
 7733SOL     OW24798   6.373   0.009   0.320 -0.3554 -0.1802 -0.1896
 7733SOL    HW124799   6.393  -0.025   0.412 -0.0418  1.4836  0.3911
 7733SOL    HW224800   6.281   0.047   0.317 -0.5501 -0.6756 -0.7115
 7734SOL     OW24801   2.097   4.086   0.472  0.6939  0.7594 -0.3551
 7734SOL    HW124802   2.049   4.096   0.385 -2.3129 -0.4322  1.0432
 7734SOL    HW224803   2.137   3.994   0.478 -1.1441 -0.0385  0.3834
 7735SOL     OW24804   5.410   5.668   3.519 -0.6685 -0.0433  0.1890
 7735SOL    HW124805   5.499   5.642   3.481 -0.5597 -0.8255  0.9590
 7735SOL    HW224806   5.381   5.755   3.478 -0.0567 -0.3084 -0.8661
 7736SOL     OW24807   3.422   2.624   5.611 -0.1656 -0.2956  0.1762
 7736SOL    HW124808   3.488   2.549   5.609 -1.5810 -1.5607 -0.7834
 7736SOL    HW224809   3.383   2.631   5.703  0.0626 -0.6463  0.3023
 7737SOL     OW24810   5.254   5.470   6.476  0.0867 -0.4978 -0.0863
 7737SOL    HW124811   5.291   5.425   6.394 -1.7954 -2.0444 -0.1610
 7737SOL    HW224812   5.330   5.496   6.536  1.4046 -4.2811  0.1912
 7738SOL     OW24813   1.555   4.570   2.011 -0.2354 -0.9630  0.3427
 7738SOL    HW124814   1.470   4.600   1.968  0.0316 -1.3540 -0.4725
 7738SOL    HW224815   1.567   4.618   2.099 -1.0610 -0.5714  0.2493
 7739SOL     OW24816   2.177   1.230   0.263 -0.2277  1.1069 -0.3938
 7739SOL    HW124817   2.142   1.162   0.199 -0.2585  2.3951 -1.8082
 7739SOL    HW224818   2.176   1.320   0.220  1.7576  1.7043  0.6883
 7740SOL     OW24819   2.027   3.599   1.724 -1.0772 -0.5078  0.0311
 7740SOL    HW124820   2.062   3.519   1.771  0.7574  0.9409  1.2791
 7740SOL    HW224821   2.072   3.608   1.635  1.1012  0.7326  1.1657
 7741SOL     OW24822   3.024   0.154   2.518  0.2773  0.1976 -0.6162
 7741SOL    HW124823   2.941   0.098   2.512  0.3845 -0.1025  0.6103
 7741SOL    HW224824   3.010   0.239   2.466 -2.5900  2.3633  3.2087
 7742SOL     OW24825   4.705   0.883   6.990  0.1361 -0.2347  0.7362
 7742SOL    HW124826   4.673   0.810   7.051  2.0791  0.4559  2.7421
 7742SOL    HW224827   4.717   0.967   7.042  0.7798  0.7190 -0.8796
 7743SOL     OW24828   4.948   6.105   1.197 -0.5805 -0.2180  0.5131
 7743SOL    HW124829   4.994   6.055   1.123 -1.5766 -1.1081  0.4661
 7743SOL    HW224830   4.857   6.065   1.212 -0.8080  0.6404  1.5027
 7744SOL     OW24831   1.255   2.558   5.208  0.5624  0.2943  0.1779
 7744SOL    HW124832   1.276   2.524   5.117  0.2154  1.3310 -0.3033
 7744SOL    HW224833   1.291   2.494   5.277 -2.3644 -2.4928 -0.6452
 7745SOL     OW24834   2.079   1.604   6.871 -0.9242 -0.4650 -0.5569
 7745SOL    HW124835   2.159   1.612   6.812  0.6617 -0.2134  1.4998
 7745SOL    HW224836   2.056   1.694   6.908 -0.1479 -0.9961  1.3221
 7746SOL     OW24837   1.482   6.297   5.662  0.0533 -0.0019  0.1305
 7746SOL    HW124838   1.504   6.347   5.579 -0.1764 -2.3622 -1.4296
 7746SOL    HW224839   1.523   6.206   5.659 -0.0912 -0.2330  2.5635
 7747SOL     OW24840   6.086   0.371   5.389 -0.0200 -0.1566 -0.4386
 7747SOL    HW124841   6.094   0.447   5.453 -0.0590  0.4862 -1.1748
 7747SOL    HW224842   6.010   0.389   5.326 -1.3497 -1.7488  0.6116
 7748SOL     OW24843   2.297   1.365   4.624  0.8163  0.0029 -0.2888
 7748SOL    HW124844   2.273   1.399   4.715 -0.1735  0.8247 -0.8295
 7748SOL    HW224845   2.367   1.424   4.584  1.1992 -0.3161 -0.0958
 7749SOL     OW24846   5.320   5.200   2.953  0.0266  0.8016  0.0695
 7749SOL    HW124847   5.389   5.145   2.906  0.6846 -0.6445  2.5690
 7749SOL    HW224848   5.355   5.228   3.043 -1.6728  2.2960  0.3304
 7750SOL     OW24849   1.074   5.589   0.356  0.4005 -0.5979  0.3916
 7750SOL    HW124850   1.170   5.616   0.358 -0.2739  2.0708  2.4159
 7750SOL    HW224851   1.047   5.554   0.446 -0.9056  0.2677  0.3569
 7751SOL     OW24852   2.052   6.640   1.487  0.1803 -0.4452 -0.1163
 7751SOL    HW124853   1.986   6.704   1.526  1.2689  1.5397 -1.3664
 7751SOL    HW224854   2.144   6.668   1.513  0.6885 -1.5106 -0.7222
 7752SOL     OW24855   5.662   5.847   1.261  0.2436 -0.5827  0.2047
 7752SOL    HW124856   5.673   5.827   1.163 -1.6842  0.5758 -0.2941
 7752SOL    HW224857   5.677   5.763   1.314  1.7706 -1.1332 -1.0182
 7753SOL     OW24858   5.718   2.434   2.991 -0.4910  0.5760  0.0138
 7753SOL    HW124859   5.763   2.349   3.021  0.7862  0.8210 -1.1095
 7753SOL    HW224860   5.621   2.430   3.014 -0.5083 -1.2847 -0.1958
 7754SOL     OW24861   6.587   1.246   5.868  0.1279 -0.2041 -0.4652
 7754SOL    HW124862   6.634   1.184   5.931 -0.2008  1.6299  1.7200
 7754SOL    HW224863   6.632   1.336   5.871 -1.4346  0.6164 -0.9302
 7755SOL     OW24864   5.408   1.954   0.420 -0.2273  0.2069  0.6393
 7755SOL    HW124865   5.350   2.035   0.405  1.0355  0.6534 -2.5267
 7755SOL    HW224866   5.501   1.983   0.443  0.1930 -0.3368 -0.3454
 7756SOL     OW24867   4.039   5.898   6.973  0.0302  0.6007 -0.1691
 7756SOL    HW124868   4.113   5.876   6.910 -0.1932  2.3371 -1.0977
 7756SOL    HW224869   3.969   5.951   6.925 -0.6901  0.9913  1.2546
 7757SOL     OW24870   6.696   0.483   6.741  0.3234  0.1342 -0.2280
 7757SOL    HW124871   6.715   0.578   6.767  0.8920  0.2696 -1.1094
 7757SOL    HW224872   6.777   0.443   6.700  0.0304 -0.6921 -0.0174
 7758SOL     OW24873   2.868   5.436   1.088 -0.5042 -0.1579 -0.3782
 7758SOL    HW124874   2.945   5.459   1.147 -1.1568 -0.5650  0.6631
 7758SOL    HW224875   2.782   5.448   1.138 -1.0394 -1.3964 -0.9425
 7759SOL     OW24876   5.244   0.023   5.086  0.2113 -0.1448  0.3901
 7759SOL    HW124877   5.300   0.017   5.169  0.3989 -0.9475  0.2127
 7759SOL    HW224878   5.238  -0.067   5.043  0.6825  0.3877 -0.8450
 7760SOL     OW24879   6.880   5.468   4.900  0.2536  0.2663 -0.7676
 7760SOL    HW124880   6.874   5.555   4.949  2.5215  1.0268 -1.6763
 7760SOL    HW224881   6.841   5.478   4.809 -4.2381 -1.2303  0.7464
 7761SOL     OW24882   6.729   0.804   6.756  0.1659  0.2132 -0.0791
 7761SOL    HW124883   6.795   0.791   6.830  1.1348  0.5439 -0.8664
 7761SOL    HW224884   6.685   0.893   6.765 -1.8048 -0.8581  1.6831
 7762SOL     OW24885   3.360   5.879   0.038 -0.5241  0.3095 -0.4132
 7762SOL    HW124886   3.300   5.959   0.037  0.0493  0.7561  0.1217
 7762SOL    HW224887   3.309   5.799   0.006 -0.7425  1.1229 -2.1716
 7763SOL     OW24888   7.015   0.021   2.835 -0.0944  0.1904 -0.3214
 7763SOL    HW124889   7.024   0.114   2.871  0.6941 -0.1359  0.3231
 7763SOL    HW224890   7.093  -0.034   2.864 -0.9332 -0.8878 -0.0774
 7764SOL     OW24891   1.489   4.269   6.021  0.0375 -0.9591 -0.1116
 7764SOL    HW124892   1.528   4.268   5.930  1.1886 -1.9021  0.3721
 7764SOL    HW224893   1.479   4.175   6.055 -1.0270 -0.6559  0.4661
 7765SOL     OW24894   4.066   5.571   0.350  0.4950 -0.0826 -0.8567
 7765SOL    HW124895   4.125   5.513   0.293  1.9514 -0.2642  0.7659
 7765SOL    HW224896   4.071   5.665   0.317  2.4134  0.0637 -0.2606
 7766SOL     OW24897   0.854   4.740   1.630 -0.1799 -0.6861  0.4265
 7766SOL    HW124898   0.814   4.731   1.539 -1.0726  0.4626  0.6789
 7766SOL    HW224899   0.869   4.649   1.669  1.6142 -1.2511 -1.4262
 7767SOL     OW24900   4.257   0.737   4.726  0.2464  0.7295  0.0592
 7767SOL    HW124901   4.348   0.766   4.756  0.0386  0.4370  0.9918
 7767SOL    HW224902   4.262   0.641   4.697  1.0322  1.6817 -3.4382
 7768SOL     OW24903   2.276   1.188   5.622 -0.2007 -0.4590 -0.0375
 7768SOL    HW124904   2.336   1.192   5.702  2.6117  2.3268 -2.0598
 7768SOL    HW224905   2.301   1.109   5.566  1.9699  0.8274 -1.0031
 7769SOL     OW24906   0.969   6.616   4.149 -0.4353  0.2415  0.4501
 7769SOL    HW124907   0.956   6.547   4.078  1.0044 -1.5558  1.8557
 7769SOL    HW224908   0.915   6.697   4.126 -1.5780 -1.0206 -1.6477
 7770SOL     OW24909   1.705   7.016   6.065  0.1005  0.7189  0.4513
 7770SOL    HW124910   1.677   6.920   6.066  0.9059  0.4819  1.3701
 7770SOL    HW224911   1.623   7.074   6.066 -0.4022  0.0563 -0.6249
 7771SOL     OW24912   0.873   3.689   6.846 -0.0851  0.0105  0.0615
 7771SOL    HW124913   0.950   3.656   6.791  0.0218 -1.1202  0.8504
 7771SOL    HW224914   0.816   3.612   6.873 -2.3642  0.9710 -1.7089
 7772SOL     OW24915   4.221   5.833   3.740 -0.0756 -0.2676 -0.0179
 7772SOL    HW124916   4.157   5.887   3.686  0.6074 -0.5745 -1.1580
 7772SOL    HW224917   4.243   5.749   3.692  1.3375 -0.0716  0.2488
 7773SOL     OW24918   0.674   0.105   2.808 -0.4950  0.7708 -0.1127
 7773SOL    HW124919   0.709   0.022   2.851 -1.2217 -0.0458 -1.0297
 7773SOL    HW224920   0.712   0.113   2.716 -1.1987  0.8942 -0.4020
 7774SOL     OW24921   4.708   5.018   6.712  0.2049 -0.2476  0.1059
 7774SOL    HW124922   4.756   4.975   6.788  0.1346 -2.9862 -1.2807
 7774SOL    HW224923   4.775   5.054   6.647  0.3158 -0.5782  0.0359
 7775SOL     OW24924   4.457   1.264   2.796 -0.1159  0.5560 -0.0594
 7775SOL    HW124925   4.431   1.200   2.868 -1.1824  2.8449  1.6959
 7775SOL    HW224926   4.535   1.227   2.745 -0.2369 -1.7729  1.3157
 7776SOL     OW24927   0.133   0.735   0.778  0.4377 -0.1124 -0.2679
 7776SOL    HW124928   0.124   0.673   0.856  3.1874  1.7800  1.7513
 7776SOL    HW224929   0.072   0.813   0.790  0.7839  0.1263 -0.0344
 7777SOL     OW24930   2.555   3.949   2.189  0.3150  0.1458  0.0713
 7777SOL    HW124931   2.525   3.938   2.283  0.0295  4.3806  0.6221
 7777SOL    HW224932   2.484   3.914   2.127 -0.2188 -1.1668  1.3727
 7778SOL     OW24933   6.723   6.166   0.073 -0.4592  0.1848  0.6189
 7778SOL    HW124934   6.726   6.107   0.153 -0.1559 -1.2344 -0.4042
 7778SOL    HW224935   6.795   6.235   0.079  0.0989 -0.4373  1.1698
 7779SOL     OW24936   3.711   3.028   2.250 -0.4698  0.0194  0.4581
 7779SOL    HW124937   3.634   3.046   2.189 -0.2144  1.4446  0.5386
 7779SOL    HW224938   3.714   2.930   2.271 -2.3891 -0.0549  0.6104
 7780SOL     OW24939   6.713   4.124   4.576 -0.0125 -0.1099 -0.5115
 7780SOL    HW124940   6.664   4.055   4.630  0.3597  1.1384  1.5337
 7780SOL    HW224941   6.793   4.154   4.626  0.9318  0.4172 -2.2624
 7781SOL     OW24942   2.065   6.976   6.736  0.0184 -0.1535  0.4674
 7781SOL    HW124943   2.113   6.908   6.791  0.8424 -1.4835 -1.7730
 7781SOL    HW224944   2.067   6.949   6.640 -0.5360  2.5405 -0.3956
 7782SOL     OW24945   0.699   5.442   2.107  0.7200 -0.3010  0.2821
 7782SOL    HW124946   0.699   5.483   2.016 -0.5838 -0.3511  0.2398
 7782SOL    HW224947   0.785   5.393   2.121  1.5289  0.8672 -0.3720
 7783SOL     OW24948   6.821   5.366   0.491 -0.1538  0.5315  0.2050
 7783SOL    HW124949   6.739   5.309   0.481 -1.1678  2.0031 -0.0963
 7783SOL    HW224950   6.891   5.314   0.540 -1.6482 -0.3915  1.4649
 7784SOL     OW24951   6.905   5.999   2.136 -0.0653 -0.1614  0.2407
 7784SOL    HW124952   6.878   5.949   2.218  1.0005 -0.4730  0.4138
 7784SOL    HW224953   6.864   6.091   2.139 -1.4646 -0.7585  0.2502
 7785SOL     OW24954   0.620   4.857   0.702  0.3128 -0.1869 -0.0167
 7785SOL    HW124955   0.693   4.857   0.771  0.3398 -0.8413 -0.0374
 7785SOL    HW224956   0.657   4.823   0.616  0.1813  0.2581 -0.2491
 7786SOL     OW24957   2.347   3.580   6.443  0.7808  0.1792  0.4227
 7786SOL    HW124958   2.385   3.629   6.521 -0.0464  1.4300  0.0640
 7786SOL    HW224959   2.347   3.482   6.462 -1.8288  0.5556  3.1920
 7787SOL     OW24960   0.170   0.525   6.286  0.2179 -0.1591 -0.2901
 7787SOL    HW124961   0.199   0.470   6.207 -0.8080 -0.6684 -0.3227
 7787SOL    HW224962   0.222   0.498   6.367  0.8234 -0.0764 -0.6405
 7788SOL     OW24963   1.483   1.392   4.777 -0.3208  0.4680  0.1945
 7788SOL    HW124964   1.383   1.393   4.775 -0.3181  1.2965  0.0514
 7788SOL    HW224965   1.516   1.470   4.830  0.2466  0.1302  0.3374
 7789SOL     OW24966   5.333   1.525   2.234 -0.3238  0.1179 -0.0889
 7789SOL    HW124967   5.393   1.463   2.184 -1.0430 -1.0754  0.4650
 7789SOL    HW224968   5.279   1.579   2.170 -0.0229 -0.1697 -0.5853
 7790SOL     OW24969   0.932   6.512   0.252 -0.1779 -0.3249 -0.4302
 7790SOL    HW124970   0.924   6.416   0.227  0.6003 -0.7144  0.6779
 7790SOL    HW224971   0.919   6.569   0.172 -0.7215 -1.3493 -1.0953
 7791SOL     OW24972   4.072   3.174   0.690 -0.2048 -0.8463  0.5089
 7791SOL    HW124973   4.142   3.122   0.642  0.0404 -0.9676  0.9892
 7791SOL    HW224974   4.102   3.192   0.783  1.5377  3.5259 -0.6612
 7792SOL     OW24975   2.166   5.210   0.477  0.0196 -0.5947  0.3355
 7792SOL    HW124976   2.092   5.252   0.425  0.4016  0.9955  1.0252
 7792SOL    HW224977   2.130   5.132   0.529 -0.7830 -0.9332 -0.7036
 7793SOL     OW24978   3.654   1.551   1.493 -0.2323 -0.1324 -0.0894
 7793SOL    HW124979   3.587   1.528   1.422  0.1994 -0.1641 -0.4852
 7793SOL    HW224980   3.741   1.506   1.473  0.1353  0.5312  0.0147
 7794SOL     OW24981   3.155   2.863   3.771  0.0342 -0.2047 -0.1226
 7794SOL    HW124982   3.176   2.954   3.805 -0.5650 -0.7140  1.6949
 7794SOL    HW224983   3.240   2.818   3.742  0.3723  0.7873 -0.6962
 7795SOL     OW24984   3.538   3.910   6.187 -0.9036  0.1592  0.4241
 7795SOL    HW124985   3.620   3.857   6.209 -0.5293  1.0157  1.1341
 7795SOL    HW224986   3.560   4.007   6.188 -1.9985  0.4122  0.9206
 7796SOL     OW24987   1.843   4.088   3.973  0.2489  0.1641  0.1783
 7796SOL    HW124988   1.883   4.015   4.028  2.6962  1.7476  0.6719
 7796SOL    HW224989   1.904   4.110   3.897  0.1823  2.3879  0.6838
 7797SOL     OW24990   3.009   5.642   5.650 -0.0616 -0.4533 -0.6882
 7797SOL    HW124991   2.912   5.646   5.625 -0.0225 -1.3483 -0.9872
 7797SOL    HW224992   3.043   5.549   5.640  0.2571 -0.6435  1.6461
 7798SOL     OW24993   3.935   4.131   3.538 -0.2797  0.3362 -0.1466
 7798SOL    HW124994   3.845   4.167   3.513 -0.9913 -1.3450 -0.1452
 7798SOL    HW224995   3.941   4.125   3.638 -1.0429 -1.5566 -0.1769
 7799SOL     OW24996   2.812   6.184   1.797  0.2661  0.3512 -0.5734
 7799SOL    HW124997   2.859   6.235   1.725 -0.3176  1.5081 -0.1551
 7799SOL    HW224998   2.822   6.232   1.884  0.1406 -0.5292 -0.0508
 7800SOL     OW24999   1.773   2.366   0.180  0.0870 -0.3894 -0.1533
 7800SOL    HW125000   1.867   2.349   0.210  0.3889 -0.4880 -1.1318
 7800SOL    HW225001   1.739   2.451   0.221  1.2660  0.6525 -1.2788
 7801SOL     OW25002   5.711   1.082   4.719  0.3215  0.0908  0.1526
 7801SOL    HW125003   5.805   1.049   4.712  0.0389 -1.5958  2.9521
 7801SOL    HW225004   5.711   1.182   4.713  2.2803  0.1302  0.1647
 7802SOL     OW25005   6.802   4.340   1.076 -0.5904 -0.1186 -0.2175
 7802SOL    HW125006   6.846   4.374   0.993 -0.0042 -0.3349  0.0019
 7802SOL    HW225007   6.703   4.358   1.071 -0.2483  2.1465  0.1383
 7803SOL     OW25008   6.643   4.622   2.583  0.3368  0.2100 -0.2294
 7803SOL    HW125009   6.558   4.654   2.623 -0.0007  0.5248 -1.1791
 7803SOL    HW225010   6.718   4.683   2.610  0.0656  0.5782 -0.3158
 7804SOL     OW25011   1.982   0.885   2.388  0.6202  0.3818  0.1493
 7804SOL    HW125012   2.049   0.948   2.347  0.9616  0.2488  0.4923
 7804SOL    HW225013   1.929   0.933   2.457 -0.6389  0.8710 -1.1191
 7805SOL     OW25014   5.767   6.382   3.691  0.1298 -0.3093 -0.5121
 7805SOL    HW125015   5.854   6.384   3.740  1.0285  1.4355 -2.0251
 7805SOL    HW225016   5.778   6.331   3.606 -0.0025  0.7575 -1.1936
 7806SOL     OW25017   2.814   0.194   0.379 -0.4253  0.7558  0.8396
 7806SOL    HW125018   2.790   0.139   0.299  3.0867 -0.7259  0.6181
 7806SOL    HW225019   2.844   0.284   0.349 -2.1516  1.3675  0.8410
 7807SOL     OW25020   6.809   0.357   5.290 -0.7016 -0.1198  0.0191
 7807SOL    HW125021   6.760   0.443   5.308  0.1537  0.1170  1.4139
 7807SOL    HW225022   6.874   0.371   5.216 -0.0549  0.6569  0.7182
 7808SOL     OW25023   0.223   6.892   4.405 -0.0487  0.4550  0.2061
 7808SOL    HW125024   0.207   6.856   4.497 -1.2625 -0.4562 -0.3427
 7808SOL    HW225025   0.269   6.824   4.349 -0.9810  0.3047 -0.3941
 7809SOL     OW25026   1.757   5.529   5.787 -0.0931  0.1667  0.4323
 7809SOL    HW125027   1.804   5.613   5.816  2.3484 -0.3835 -1.5714
 7809SOL    HW225028   1.665   5.553   5.753  0.2371  1.8993  0.6645
 7810SOL     OW25029   6.443   1.714   2.951  0.1196 -0.3175 -0.4748
 7810SOL    HW125030   6.453   1.711   3.050 -0.5171 -1.7005 -0.4306
 7810SOL    HW225031   6.371   1.650   2.922  1.7521 -1.6119 -1.9810
 7811SOL     OW25032   6.139   0.139   0.347  0.0965  0.2460 -0.0074
 7811SOL    HW125033   6.111   0.175   0.258  0.7372 -1.9312 -1.1798
 7811SOL    HW225034   6.059   0.134   0.407 -1.3670 -2.1437 -1.9354
 7812SOL     OW25035   0.977   4.300   0.174 -0.4797  0.1836 -0.1543
 7812SOL    HW125036   1.015   4.305   0.081 -0.2812 -0.5950 -0.1182
 7812SOL    HW225037   0.899   4.238   0.174 -0.7679  0.5451  0.1078
 7813SOL     OW25038   3.703   5.016   0.590  0.1762 -0.0151  0.1631
 7813SOL    HW125039   3.793   5.023   0.545 -0.6456  1.6499 -1.3665
 7813SOL    HW225040   3.694   5.090   0.657  0.1938 -0.6039  0.8244
 7814SOL     OW25041   2.139   3.878   4.825 -0.0642 -0.3657  0.1495
 7814SOL    HW125042   2.238   3.891   4.823  0.0476 -1.0727  0.6705
 7814SOL    HW225043   2.112   3.818   4.751  0.0486 -1.0824  0.6784
 7815SOL     OW25044   0.476   2.435   5.355  0.0285  0.1969 -0.4175
 7815SOL    HW125045   0.383   2.408   5.333  0.4122  0.1436 -2.0704
 7815SOL    HW225046   0.514   2.490   5.280  0.9854  1.0749  0.6679
 7816SOL     OW25047   1.978   0.863   4.855 -0.4792 -0.4740 -0.1678
 7816SOL    HW125048   2.038   0.942   4.866  0.4734 -1.2706  0.4954
 7816SOL    HW225049   1.890   0.880   4.900 -0.2943  0.2163 -0.0696
 7817SOL     OW25050   3.480   5.530   5.214 -0.3898 -0.8795 -0.4901
 7817SOL    HW125051   3.561   5.589   5.212 -0.9063 -0.1822 -1.9516
 7817SOL    HW225052   3.488   5.459   5.145 -1.3691 -0.3198 -1.2028
 7818SOL     OW25053   5.642   3.420   6.339  0.0425  0.3188  0.3295
 7818SOL    HW125054   5.682   3.505   6.375 -2.1462  1.9418 -0.8805
 7818SOL    HW225055   5.566   3.392   6.397  0.7898 -0.9112  0.7566
 7819SOL     OW25056   3.333   0.616   4.201  0.4670 -0.2260 -0.0792
 7819SOL    HW125057   3.367   0.608   4.107  1.0760 -0.1009  0.1244
 7819SOL    HW225058   3.398   0.669   4.255 -0.2469  0.3546  0.2299
 7820SOL     OW25059   0.967   2.502   6.126  0.3661 -0.5600 -0.1372
 7820SOL    HW125060   0.967   2.552   6.039 -2.2895 -0.8601 -0.3979
 7820SOL    HW225061   0.936   2.562   6.199 -0.9533 -1.2299 -0.1071
 7821SOL     OW25062   6.638   2.157   2.224  0.9301 -0.4296  0.0052
 7821SOL    HW125063   6.724   2.195   2.258  0.0807  0.4569  1.2325
 7821SOL    HW225064   6.594   2.223   2.164  1.3683 -1.1285 -1.1282
 7822SOL     OW25065   1.398   4.005   3.081  0.3851 -0.2244 -0.3727
 7822SOL    HW125066   1.302   3.979   3.082  0.0975  0.7077 -1.5600
 7822SOL    HW225067   1.447   3.956   3.153 -1.0834 -0.2587  0.6254
 7823SOL     OW25068   0.471   1.663   0.468 -0.0510  0.2279  0.1966
 7823SOL    HW125069   0.401   1.594   0.489  0.6021 -0.2512  0.8746
 7823SOL    HW225070   0.466   1.688   0.372 -0.8864 -0.1008  0.1457
 7824SOL     OW25071   4.980   5.272   6.798 -0.3067 -0.4746 -0.2093
 7824SOL    HW125072   4.998   5.325   6.715  0.2002 -0.9622 -0.4242
 7824SOL    HW225073   4.908   5.316   6.852 -1.4825 -0.7576 -1.4854
 7825SOL     OW25074   1.891   0.088   2.224  0.1074 -0.5083  0.1555
 7825SOL    HW125075   1.946   0.105   2.305 -0.0346  0.1127  0.1247
 7825SOL    HW225076   1.826   0.163   2.211 -1.8900 -1.9998  1.1151
 7826SOL     OW25077   2.756   3.414   5.601  0.3622 -0.0480  0.8700
 7826SOL    HW125078   2.814   3.398   5.521 -0.6332 -0.9813  0.3262
 7826SOL    HW225079   2.722   3.327   5.636  0.4343  0.3859  2.0526
 7827SOL     OW25080   6.493   0.591   5.773  0.0382 -0.4823 -0.1159
 7827SOL    HW125081   6.425   0.665   5.770  1.3376  0.7016 -1.6976
 7827SOL    HW225082   6.460   0.514   5.718  0.3703  0.4911 -1.7535
 7828SOL     OW25083   6.059   5.768   5.710 -0.0903 -0.4861 -0.5224
 7828SOL    HW125084   6.052   5.834   5.785 -0.1586 -1.0308 -0.0446
 7828SOL    HW225085   6.053   5.675   5.746  0.1459 -0.7623 -1.1769
 7829SOL     OW25086   4.829   3.087   1.455  0.0873  0.3658  0.0329
 7829SOL    HW125087   4.795   3.124   1.369  1.9000 -0.7219 -1.2266
 7829SOL    HW225088   4.914   3.134   1.481  0.8067 -0.8449 -0.0371
 7830SOL     OW25089   4.503   2.871   5.127 -0.1193 -0.6274 -0.5759
 7830SOL    HW125090   4.546   2.904   5.210 -0.8255  0.7985 -0.7385
 7830SOL    HW225091   4.550   2.909   5.047 -0.3211 -0.8232 -0.7917
 7831SOL     OW25092   0.379   5.404   5.212 -0.1939 -0.1278 -0.4171
 7831SOL    HW125093   0.299   5.436   5.262  0.4175  1.1428 -0.2230
 7831SOL    HW225094   0.350   5.337   5.143 -1.2514 -0.6320  0.4823
 7832SOL     OW25095   6.614   0.636   4.034 -0.5991  0.0954 -0.2434
 7832SOL    HW125096   6.690   0.679   3.986  0.3724  1.6779  2.4552
 7832SOL    HW225097   6.532   0.692   4.024 -0.5570  0.1119 -0.5017
 7833SOL     OW25098   5.450   2.421   5.545 -0.4307  0.2774 -0.4198
 7833SOL    HW125099   5.433   2.328   5.580  0.3095 -0.1378 -1.1352
 7833SOL    HW225100   5.458   2.484   5.623 -1.8781 -0.0722  0.0468
 7834SOL     OW25101   5.391   3.383   3.012 -0.6266  0.6954 -0.1115
 7834SOL    HW125102   5.314   3.323   2.988  0.1802 -1.1190  1.5850
 7834SOL    HW225103   5.402   3.384   3.111  1.1118  1.4981 -0.2876
 7835SOL     OW25104   6.579   4.051   3.434  0.0476  0.4709 -0.3347
 7835SOL    HW125105   6.611   4.003   3.353 -1.0734 -0.3739 -0.3045
 7835SOL    HW225106   6.504   3.999   3.476  0.0121  1.3468  0.7286
 7836SOL     OW25107   2.764   4.412   5.812  0.5618  0.1512 -0.5206
 7836SOL    HW125108   2.758   4.512   5.809 -0.6565  0.0827 -3.3889
 7836SOL    HW225109   2.675   4.373   5.835  0.5800 -0.3047 -1.2041
 7837SOL     OW25110   1.142   6.044   2.131  0.4503  0.3077  0.6121
 7837SOL    HW125111   1.135   6.120   2.067 -0.3433 -1.1585 -1.1062
 7837SOL    HW225112   1.050   6.016   2.160  0.7617  0.3293  1.6623
 7838SOL     OW25113   5.774   6.762   5.614  0.5757  0.2703 -0.3546
 7838SOL    HW125114   5.751   6.673   5.654  1.9615  1.1784  2.8177
 7838SOL    HW225115   5.691   6.811   5.590 -0.3342 -0.7000  0.7259
 7839SOL     OW25116   0.436   3.042   2.653  0.3432  0.2792  0.1327
 7839SOL    HW125117   0.396   2.963   2.700  1.1999 -0.4600 -0.3554
 7839SOL    HW225118   0.363   3.105   2.626 -0.5206 -1.0750 -0.7985
 7840SOL     OW25119   2.696   6.991   0.775 -0.3841  0.5718  0.3459
 7840SOL    HW125120   2.660   7.062   0.714  1.3937  0.7019 -0.6052
 7840SOL    HW225121   2.778   7.025   0.821 -0.3192 -0.3984  0.9672
 7841SOL     OW25122   2.558   6.508   3.293  0.0367  0.6229  0.3666
 7841SOL    HW125123   2.514   6.597   3.304  1.6669  1.6192 -0.6701
 7841SOL    HW225124   2.658   6.520   3.298  0.3796 -0.7960 -1.8567
 7842SOL     OW25125   6.253   1.968   0.851 -0.0925 -0.9625 -0.2008
 7842SOL    HW125126   6.181   1.908   0.887 -0.4030 -1.1794 -1.1553
 7842SOL    HW225127   6.304   2.008   0.927 -1.7212 -0.1854  0.5555
 7843SOL     OW25128   6.827   7.003   6.879 -0.3467 -0.2845 -0.3532
 7843SOL    HW125129   6.866   6.915   6.852  0.3893 -0.2662  0.5967
 7843SOL    HW225130   6.877   7.076   6.833  0.3892 -0.2899  0.4001
 7844SOL     OW25131   5.377   3.413   3.355  0.0954 -0.0507 -0.2511
 7844SOL    HW125132   5.349   3.458   3.440  1.7484  0.5936 -0.0032
 7844SOL    HW225133   5.320   3.332   3.339 -2.9658  2.0289 -0.6851
 7845SOL     OW25134   4.981   3.964   1.430 -0.0996 -0.0721  0.0493
 7845SOL    HW125135   5.020   3.878   1.397 -0.5394 -0.6680  1.0495
 7845SOL    HW225136   4.919   3.946   1.506  3.3322  1.4170  3.5329
 7846SOL     OW25137   4.896   1.825   3.547  0.9681 -0.1150  0.7861
 7846SOL    HW125138   4.869   1.780   3.632 -0.2555  0.0390  0.4942
 7846SOL    HW225139   4.908   1.757   3.475  1.7223 -0.2146  0.9883
 7847SOL     OW25140   0.888   2.031   1.476 -0.2022  0.0090  0.3563
 7847SOL    HW125141   0.949   2.110   1.478 -0.7865  0.4618  0.3857
 7847SOL    HW225142   0.943   1.947   1.481  0.5892  0.3215 -1.9125
 7848SOL     OW25143   0.690   0.950   4.101  0.1772  0.2578 -0.0150
 7848SOL    HW125144   0.757   0.896   4.152  0.3471  0.7305  0.2784
 7848SOL    HW225145   0.727   0.975   4.012 -0.2666 -0.8921 -0.5390
 7849SOL     OW25146   4.942   5.474   3.211  0.4307 -0.6402 -0.0206
 7849SOL    HW125147   5.021   5.530   3.185 -0.0148 -0.2796 -0.6032
 7849SOL    HW225148   4.881   5.527   3.269 -0.9626  0.1823 -2.1109
 7850SOL     OW25149   0.814   4.145   4.960  0.0559  0.0256  0.0426
 7850SOL    HW125150   0.796   4.058   4.914  2.1841 -0.1764 -0.5330
 7850SOL    HW225151   0.909   4.147   4.991 -0.4470  1.4661  1.6241
 7851SOL     OW25152   5.621   3.277   5.371  0.5273 -0.1752 -0.1814
 7851SOL    HW125153   5.532   3.243   5.339  0.3240  0.4084 -0.2551
 7851SOL    HW225154   5.650   3.353   5.312  0.8759 -0.0869  0.1030
 7852SOL     OW25155   1.475   0.128   5.033  0.0041 -0.0963  0.6921
 7852SOL    HW125156   1.378   0.151   5.044  0.0023 -0.5560  1.7076
 7852SOL    HW225157   1.528   0.175   5.103  0.7051  1.1596 -0.6138
 7853SOL     OW25158   3.738   6.210   2.261 -0.0045  0.2465  0.5673
 7853SOL    HW125159   3.664   6.160   2.218 -0.0592  1.9520 -1.5066
 7853SOL    HW225160   3.818   6.211   2.200 -0.1802  2.9743  0.2492
 7854SOL     OW25161   1.944   5.549   4.858  0.2533  0.2834  0.9728
 7854SOL    HW125162   1.906   5.624   4.802  0.6740 -0.3300 -0.1648
 7854SOL    HW225163   2.009   5.587   4.923  0.3744  0.9297  0.4932
 7855SOL     OW25164   0.932   4.830   4.200 -0.3275 -0.3814  0.3946
 7855SOL    HW125165   0.964   4.772   4.126  1.1503  1.9850 -0.9772
 7855SOL    HW225166   1.011   4.858   4.257 -0.6951  1.4112  0.0947
 7856SOL     OW25167   4.047   6.021   5.634 -0.1441  0.1130  0.0430
 7856SOL    HW125168   3.977   6.067   5.579 -0.4834  1.8721  1.8015
 7856SOL    HW225169   4.109   5.971   5.574 -1.5101  0.4610 -1.7621
 7857SOL     OW25170   3.267   0.730   6.499  0.2518 -0.1456  0.3548
 7857SOL    HW125171   3.273   0.661   6.427  3.0673  0.0423  0.2766
 7857SOL    HW225172   3.222   0.812   6.463  2.9916  0.5485 -1.8335
 7858SOL     OW25173   6.431   1.343   4.026  0.3058 -0.3669 -0.0161
 7858SOL    HW125174   6.437   1.359   3.927 -2.1047 -0.8989 -0.3114
 7858SOL    HW225175   6.466   1.423   4.075 -1.4384  1.2992 -1.3415
 7859SOL     OW25176   1.915   0.584   4.001 -0.3155  0.4515 -0.0120
 7859SOL    HW125177   1.844   0.655   4.001 -0.5288  0.3001  1.7772
 7859SOL    HW225178   1.987   0.609   4.066 -0.8695 -1.3583  1.3737
 7860SOL     OW25179   1.504   0.171   6.720 -0.0916  0.4502 -0.0782
 7860SOL    HW125180   1.558   0.241   6.766 -0.3968  0.9004 -0.4088
 7860SOL    HW225181   1.566   0.109   6.671  0.0866  2.5253 -2.7234
 7861SOL     OW25182   0.451   2.628   4.650 -0.3042 -0.7211 -0.1587
 7861SOL    HW125183   0.410   2.711   4.612  0.2686 -1.5992 -2.8545
 7861SOL    HW225184   0.504   2.652   4.732 -0.0140  1.5871 -0.9423
 7862SOL     OW25185   4.984   3.653   5.317  0.0378  0.1501  0.6035
 7862SOL    HW125186   5.046   3.597   5.262  0.1921 -0.2931  1.2097
 7862SOL    HW225187   5.002   3.636   5.414 -1.8140 -0.8745  0.8190
 7863SOL     OW25188   0.140   5.570   1.274  0.2659  0.0223  0.3616
 7863SOL    HW125189   0.096   5.590   1.361 -0.4593  0.0707 -0.0121
 7863SOL    HW225190   0.098   5.490   1.232  1.4573 -0.7730  0.6426
 7864SOL     OW25191   0.634   1.872   5.579  0.1179  0.2226  0.6326
 7864SOL    HW125192   0.625   1.945   5.512 -0.8804  1.1615  1.7503
 7864SOL    HW225193   0.545   1.853   5.621  0.9773  0.9103  2.9612
 7865SOL     OW25194   3.790   4.708   4.967  0.1272  0.1663  0.3126
 7865SOL    HW125195   3.798   4.628   4.907 -0.8592  0.0844  0.2754
 7865SOL    HW225196   3.718   4.692   5.034 -0.1437  1.0654  0.2463
 7866SOL     OW25197   4.766   6.641   1.333 -0.2777  0.3062  0.3776
 7866SOL    HW125198   4.841   6.707   1.341 -0.4622  0.6674 -0.6694
 7866SOL    HW225199   4.796   6.562   1.279 -0.2984 -0.1143  0.9642
 7867SOL     OW25200   2.285   6.728   5.954 -0.1351 -0.1570  0.2067
 7867SOL    HW125201   2.271   6.641   6.003 -0.1759 -0.1944  0.1290
 7867SOL    HW225202   2.383   6.749   5.952 -0.0183 -0.7072 -0.6380
 7868SOL     OW25203   3.077   1.102   7.015  0.1721  0.0605  0.1522
 7868SOL    HW125204   3.175   1.106   7.037  0.2774  0.7441 -0.4100
 7868SOL    HW225205   3.065   1.092   6.916 -0.3117  2.5463 -0.1219
 7869SOL     OW25206   2.875   6.624   1.091  0.6024 -0.2411  0.8959
 7869SOL    HW125207   2.932   6.672   1.024  1.2629 -2.5679 -0.2928
 7869SOL    HW225208   2.796   6.584   1.045  1.0201 -1.8033  1.4670
 7870SOL     OW25209   6.716   1.145   4.966  0.1264  0.8647  0.5306
 7870SOL    HW125210   6.643   1.212   4.980 -0.9791  0.1872 -1.5573
 7870SOL    HW225211   6.781   1.181   4.900  0.0765  0.2890  0.1666
 7871SOL     OW25212   6.062   3.182   3.251 -0.2954  0.4086 -0.5310
 7871SOL    HW125213   6.043   3.226   3.163 -0.2771 -0.4174 -0.9558
 7871SOL    HW225214   6.151   3.211   3.284 -0.1593  0.4745 -0.9474
 7872SOL     OW25215   6.347   2.110   3.677  0.2751 -0.1459  0.0430
 7872SOL    HW125216   6.389   2.199   3.655  0.9032  0.2168  2.4200
 7872SOL    HW225217   6.248   2.121   3.686  0.2530  0.1174 -0.4606
 7873SOL     OW25218   1.274   6.574   1.646  0.2856 -0.5552 -0.1360
 7873SOL    HW125219   1.318   6.569   1.557 -0.4131 -1.2276 -0.4522
 7873SOL    HW225220   1.344   6.572   1.718  0.7725 -1.6252 -0.6246
 7874SOL     OW25221   6.552   4.709   1.008 -0.0470  0.5134 -0.0346
 7874SOL    HW125222   6.524   4.636   0.946  2.6155 -0.7268  0.0619
 7874SOL    HW225223   6.532   4.797   0.966 -3.1753 -0.1669 -0.2419
 7875SOL     OW25224   0.435   0.636   4.115 -0.3107  0.4880 -0.1033
 7875SOL    HW125225   0.385   0.696   4.179 -0.3756 -0.0458  0.3542
 7875SOL    HW225226   0.370   0.580   4.064 -0.1878 -1.6863  1.9324
 7876SOL     OW25227   6.678   4.388   0.640  0.2767 -0.1557  0.3213
 7876SOL    HW125228   6.626   4.474   0.646 -0.3398 -0.2131 -2.5941
 7876SOL    HW225229   6.760   4.395   0.697  0.0384  2.2275  0.4806
 7877SOL     OW25230   6.620   6.501   6.250  0.7553  0.3535 -0.0172
 7877SOL    HW125231   6.521   6.488   6.256  0.7539 -0.5939 -1.4311
 7877SOL    HW225232   6.641   6.598   6.247 -0.2297  0.5552 -0.7539
 7878SOL     OW25233   2.330   4.515   4.587  0.1301 -0.1783 -0.4686
 7878SOL    HW125234   2.355   4.567   4.669 -0.0287  0.2854 -0.7131
 7878SOL    HW225235   2.395   4.536   4.514 -0.0625 -0.1598 -0.6336
 7879SOL     OW25236   0.789   6.976   1.141  0.0595 -0.6406  0.1628
 7879SOL    HW125237   0.728   7.032   1.196  0.5248 -0.1796  0.2100
 7879SOL    HW225238   0.873   6.957   1.192  0.7107  0.2122 -0.5715
 7880SOL     OW25239   3.748   6.166   6.492  0.0277  0.5146  0.2987
 7880SOL    HW125240   3.651   6.172   6.515 -0.2651 -0.1363 -0.6966
 7880SOL    HW225241   3.777   6.071   6.493  0.5596  0.6715  0.2286
 7881SOL     OW25242   2.666   5.876   6.733 -0.5686 -0.1948  0.2966
 7881SOL    HW125243   2.647   5.787   6.776 -1.7512  0.3121  0.8706
 7881SOL    HW225244   2.581   5.913   6.694 -0.2418  1.0036  0.6832
 7882SOL     OW25245   5.195   5.337   6.943 -0.2595  0.3199 -0.1136
 7882SOL    HW125246   5.152   5.315   6.856  0.1283  1.1082 -0.5162
 7882SOL    HW225247   5.193   5.436   6.958  0.1173  0.2398  0.5380
 7883SOL     OW25248   4.537   5.834   3.630 -0.2997  0.0416  0.1916
 7883SOL    HW125249   4.627   5.791   3.621 -0.3803  0.0296 -0.7167
 7883SOL    HW225250   4.540   5.926   3.591 -0.0542  1.0103  2.4050
 7884SOL     OW25251   0.654   2.208   3.782 -0.6443  0.6423 -0.0003
 7884SOL    HW125252   0.645   2.169   3.691 -0.2863  0.4695  0.0413
 7884SOL    HW225253   0.578   2.273   3.798 -2.4943 -1.5625  0.7149
 7885SOL     OW25254   5.411   6.911   0.496  0.1892  0.1007 -0.2891
 7885SOL    HW125255   5.457   6.850   0.431 -0.3525 -0.5085 -0.1165
 7885SOL    HW225256   5.442   7.005   0.482 -0.2937  0.0577 -1.7720
 7886SOL     OW25257   4.324   1.972   3.603  0.1408  0.9432 -0.1888
 7886SOL    HW125258   4.316   2.025   3.519  0.0787  0.3025 -0.5929
 7886SOL    HW225259   4.318   2.033   3.682  0.6125  1.6026 -0.6534
 7887SOL     OW25260   4.165   6.201   6.598  0.3108 -0.5423 -0.4259
 7887SOL    HW125261   4.093   6.268   6.619  0.4640 -0.7434  0.8085
 7887SOL    HW225262   4.208   6.226   6.512  1.0270  1.5465  0.4508
 7888SOL     OW25263   0.915   2.088   6.754  0.2646 -0.4833  0.2640
 7888SOL    HW125264   0.950   2.057   6.842  0.5549 -0.6107  0.1062
 7888SOL    HW225265   0.910   2.011   6.691 -2.0289 -0.8661  0.8123
 7889SOL     OW25266   3.323   6.276   0.311  0.2272  0.1814  0.0199
 7889SOL    HW125267   3.415   6.300   0.344 -0.1342  1.1189  0.3809
 7889SOL    HW225268   3.330   6.202   0.244  1.1036 -0.8417  1.1875
 7890SOL     OW25269   3.034   1.308   0.564 -0.5288 -0.3532 -0.3577
 7890SOL    HW125270   3.096   1.248   0.615 -1.2028 -0.2961  0.5554
 7890SOL    HW225271   3.087   1.371   0.508  0.2489 -0.0681  0.6731
 7891SOL     OW25272   5.898   5.190   2.059 -0.4646  0.2648 -0.0965
 7891SOL    HW125273   5.958   5.170   1.981 -0.0054  1.5425 -0.0913
 7891SOL    HW225274   5.841   5.269   2.038 -0.9530  0.0945  0.5517
 7892SOL     OW25275   3.655   0.967   1.038 -0.1526 -0.3895  0.2548
 7892SOL    HW125276   3.750   0.990   1.059  0.1985 -1.2535 -0.3006
 7892SOL    HW225277   3.629   0.882   1.085 -1.2346  0.7439  1.8127
 7893SOL     OW25278   6.837   0.803   0.432 -0.2426  0.2206 -0.0019
 7893SOL    HW125279   6.763   0.747   0.467  0.0438 -0.4288 -0.4130
 7893SOL    HW225280   6.851   0.882   0.492 -0.1959 -0.5137  0.9728
 7894SOL     OW25281   1.010   0.504   5.016  0.0269  0.1299  0.4735
 7894SOL    HW125282   1.047   0.432   4.957 -0.8203 -0.1498  0.2771
 7894SOL    HW225283   0.924   0.537   4.978 -0.1670  0.4496  1.1773
 7895SOL     OW25284   0.379   0.806   0.386  0.8449 -0.3225 -0.3465
 7895SOL    HW125285   0.478   0.794   0.398  0.7277 -0.3491  0.7175
 7895SOL    HW225286   0.355   0.903   0.396  0.7604 -0.3192 -0.5770
 7896SOL     OW25287   2.578   6.805   5.907 -0.3225 -0.4700 -0.1455
 7896SOL    HW125288   2.630   6.815   5.822 -0.0280  0.6179  0.1396
 7896SOL    HW225289   2.615   6.728   5.959  0.7793  0.0461 -0.1227
 7897SOL     OW25290   4.143   6.969   0.567 -0.3665  0.0076  0.1714
 7897SOL    HW125291   4.224   6.985   0.623 -0.0857  1.1941 -0.5256
 7897SOL    HW225292   4.099   6.884   0.594 -0.1320  0.4409  2.0355
 7898SOL     OW25293   1.753   2.772   3.912 -0.2643  0.0105  0.2948
 7898SOL    HW125294   1.719   2.733   3.998  0.6767 -0.2212  0.5781
 7898SOL    HW225295   1.739   2.707   3.837  2.6418 -1.6582  1.0062
 7899SOL     OW25296   5.101   4.986   6.815  0.0512  0.3126 -0.4942
 7899SOL    HW125297   5.050   5.068   6.842  1.3654  1.1636 -0.5269
 7899SOL    HW225298   5.041   4.926   6.763 -0.6045  1.8549 -1.5989
 7900SOL     OW25299   6.283   3.320   3.361 -0.2643  0.3101 -0.5851
 7900SOL    HW125300   6.365   3.286   3.409 -0.1756  0.6483 -0.4932
 7900SOL    HW225301   6.209   3.332   3.427 -1.3356 -2.7480 -1.0556
 7901SOL     OW25302   5.178   1.132   5.495 -0.0664  0.8190 -0.1512
 7901SOL    HW125303   5.132   1.158   5.579  1.5025  1.5772  0.5214
 7901SOL    HW225304   5.274   1.161   5.500  0.1924  0.3652 -1.9653
 7902SOL     OW25305   4.722   3.440   6.847 -0.2397  0.0254  0.3304
 7902SOL    HW125306   4.811   3.476   6.819  0.1635 -0.3273  1.1387
 7902SOL    HW225307   4.665   3.515   6.881 -0.0836  0.1843  0.2429
 7903SOL     OW25308   0.463   2.409   6.644 -0.5435  0.6466  0.0906
 7903SOL    HW125309   0.423   2.407   6.552 -0.3698 -2.8394 -0.0496
 7903SOL    HW225310   0.402   2.363   6.708  1.4927 -1.6103  0.5889
 7904SOL     OW25311   6.586   3.865   4.596  0.1784  0.3863  0.0421
 7904SOL    HW125312   6.497   3.837   4.632 -0.3769 -1.0445 -2.2233
 7904SOL    HW225313   6.634   3.785   4.561  0.7346  1.5799 -2.1372
 7905SOL     OW25314   6.200   4.003   6.739  0.1403 -0.2132 -0.6392
 7905SOL    HW125315   6.181   4.077   6.803  0.1222 -1.2948  0.6322
 7905SOL    HW225316   6.201   4.040   6.646 -0.6402  1.2376 -0.1089
 7906SOL     OW25317   6.724   5.506   2.223  0.4838 -0.2646 -0.3660
 7906SOL    HW125318   6.626   5.508   2.203  0.5317 -0.0957 -0.5816
 7906SOL    HW225319   6.757   5.412   2.216  0.6908 -0.0900 -2.0203
 7907SOL     OW25320   4.514   0.075   1.389 -0.1670 -0.0915 -0.3102
 7907SOL    HW125321   4.580   0.000   1.380 -2.4850 -2.2915 -0.0121
 7907SOL    HW225322   4.466   0.087   1.302 -1.2565 -0.4124  0.2306
 7908SOL     OW25323   0.050   4.412   3.111  0.1304 -0.2879 -0.4882
 7908SOL    HW125324   0.031   4.484   3.044  0.3900  2.4430  2.1452
 7908SOL    HW225325   0.148   4.393   3.112  0.5749  1.7187  0.8836
 7909SOL     OW25326   2.515   5.242   3.787 -0.2720 -0.0391  0.1177
 7909SOL    HW125327   2.572   5.175   3.835 -1.1742 -1.0259 -0.1637
 7909SOL    HW225328   2.548   5.334   3.808  0.4934 -0.5274  1.1544
 7910SOL     OW25329   3.351   4.325   4.605 -0.0442 -0.6013 -0.1312
 7910SOL    HW125330   3.446   4.303   4.625  0.2420 -0.1669 -0.9479
 7910SOL    HW225331   3.347   4.392   4.530 -0.9865 -0.5277 -0.0331
 7911SOL     OW25332   2.898   0.101   4.486  0.2486  0.1931  0.4287
 7911SOL    HW125333   2.821   0.163   4.474 -0.5000 -0.7408  0.2590
 7911SOL    HW225334   2.947   0.091   4.400 -1.0066 -1.1934 -0.1675
 7912SOL     OW25335   2.953   2.966   6.962 -0.0193  0.0905  0.0672
 7912SOL    HW125336   3.029   2.914   6.923  1.5179  0.8731  1.8583
 7912SOL    HW225337   2.923   2.923   7.047  0.0943  1.1003  0.6441
 7913SOL     OW25338   4.967   1.786   5.499  0.3826 -0.2055 -0.2715
 7913SOL    HW125339   5.045   1.811   5.440  0.2103 -1.0651 -0.8889
 7913SOL    HW225340   4.894   1.853   5.487  0.8682  0.3874  0.0090
 7914SOL     OW25341   6.211   4.986   4.900 -0.4149 -0.0949  0.1383
 7914SOL    HW125342   6.259   5.068   4.932 -2.5709  1.0886  0.5252
 7914SOL    HW225343   6.149   5.010   4.825 -2.8665 -0.7976  1.8011
 7915SOL     OW25344   3.279   6.988   3.820  0.2272  0.1530 -0.4955
 7915SOL    HW125345   3.283   6.891   3.796  3.1311  0.1892 -0.5548
 7915SOL    HW225346   3.358   7.036   3.780 -0.2147  2.2133  0.9177
 7916SOL     OW25347   4.240   5.766   6.816  0.1084  0.5184 -0.4307
 7916SOL    HW125348   4.306   5.691   6.810  0.8761  0.9282  1.7755
 7916SOL    HW225349   4.198   5.781   6.727  0.6279 -1.8806 -1.1504
 7917SOL     OW25350   4.565   3.082   1.612 -0.3646  0.1356 -0.7673
 7917SOL    HW125351   4.643   3.063   1.552  0.8147  0.3072  0.6599
 7917SOL    HW225352   4.595   3.079   1.707 -2.4473 -1.4276 -0.0889
 7918SOL     OW25353   6.005   3.665   1.038  0.1790  0.3048  0.6515
 7918SOL    HW125354   5.972   3.712   1.120  0.2109 -1.2556  1.5929
 7918SOL    HW225355   6.105   3.656   1.043  0.0654 -0.8602  1.0481
 7919SOL     OW25356   2.369   6.382   0.684 -0.0552  0.0581 -0.0278
 7919SOL    HW125357   2.431   6.312   0.720  0.5408  1.6208  2.1668
 7919SOL    HW225358   2.407   6.417   0.598  0.9759 -0.4945  0.1792
 7920SOL     OW25359   2.516   0.175   0.700 -0.5026 -0.8109 -0.6124
 7920SOL    HW125360   2.525   0.199   0.796  0.4939 -2.2423 -0.3128
 7920SOL    HW225361   2.425   0.137   0.683 -0.6399 -0.6637 -0.2046
 7921SOL     OW25362   6.899   5.528   4.248  0.6879  0.5652  1.0589
 7921SOL    HW125363   6.815   5.486   4.282  0.3652  0.1352 -0.2245
 7921SOL    HW225364   6.955   5.459   4.202 -0.4190  1.6567 -2.1865
 7922SOL     OW25365   6.596   6.456   2.358 -0.0091 -0.4383 -0.1153
 7922SOL    HW125366   6.534   6.468   2.435 -0.8497  0.7236 -0.9391
 7922SOL    HW225367   6.633   6.363   2.359 -0.9650 -0.8287  0.9730
 7923SOL     OW25368   4.095   2.658   1.617  0.3412  0.0344  0.0247
 7923SOL    HW125369   4.033   2.733   1.639  0.4595  0.6651 -1.6853
 7923SOL    HW225370   4.057   2.572   1.651 -0.2440  0.7234  1.1860
 7924SOL     OW25371   1.527   3.132   1.675  0.2089  0.2143 -0.1830
 7924SOL    HW125372   1.591   3.128   1.751 -0.4089  0.6930  0.3666
 7924SOL    HW225373   1.565   3.083   1.596  1.9360  1.8024 -0.3827
 7925SOL     OW25374   4.183   0.983   4.481 -0.0332  0.1794  0.1764
 7925SOL    HW125375   4.195   0.925   4.400  1.2790  1.1120 -0.3431
 7925SOL    HW225376   4.175   0.926   4.563 -0.7763 -0.7645 -0.5231
 7926SOL     OW25377   0.901   5.689   5.804  0.1726 -0.2610 -0.0587
 7926SOL    HW125378   0.849   5.608   5.830  0.3033 -0.3911 -0.1966
 7926SOL    HW225379   0.990   5.660   5.767  0.7168 -0.0217  1.0105
 7927SOL     OW25380   1.245   5.830   5.092  0.3466 -0.0343 -0.0249
 7927SOL    HW125381   1.199   5.880   5.165  0.1967 -0.9457  0.5304
 7927SOL    HW225382   1.178   5.805   5.021  0.5745  1.2299 -0.7105
 7928SOL     OW25383   4.163   4.051   0.954 -0.1066 -0.3335 -0.0593
 7928SOL    HW125384   4.086   4.096   0.907  0.0646 -0.8137 -0.8084
 7928SOL    HW225385   4.163   3.954   0.933  1.7234 -0.0766 -1.5078
 7929SOL     OW25386   6.997   1.097   5.948  0.3984  0.0964  0.3585
 7929SOL    HW125387   7.051   1.120   6.029 -0.6542 -0.2160  1.1803
 7929SOL    HW225388   7.027   1.009   5.912 -0.1305 -0.5177  1.3565
 7930SOL     OW25389   2.951   1.186   2.453 -0.0909 -0.6006  0.1602
 7930SOL    HW125390   3.045   1.197   2.487  0.4809  0.8744 -1.7610
 7930SOL    HW225391   2.887   1.218   2.523  0.9569  0.6768  0.5698
 7931SOL     OW25392   1.991   1.569   2.007 -0.1131  0.3882 -0.3644
 7931SOL    HW125393   1.934   1.617   2.074 -2.5732 -0.2201 -1.9015
 7931SOL    HW225394   1.935   1.542   1.929  2.2870 -0.4838 -1.8898
 7932SOL     OW25395   5.875   2.904   0.391 -0.1052  0.2812  0.9035
 7932SOL    HW125396   5.817   2.983   0.375  0.6651  0.6274 -0.2979
 7932SOL    HW225397   5.968   2.934   0.412  0.5503 -0.2699 -0.9785
 7933SOL     OW25398   0.493   5.434   6.111  0.3536 -0.6544  0.1294
 7933SOL    HW125399   0.587   5.463   6.126 -0.0112 -0.2062  1.8053
 7933SOL    HW225400   0.490   5.337   6.087  1.2713 -0.4919 -0.6832
 7934SOL     OW25401   5.775   1.673   3.333  0.2000 -0.1671 -0.1832
 7934SOL    HW125402   5.849   1.740   3.340 -0.4591  0.5241  0.5125
 7934SOL    HW225403   5.717   1.696   3.254  1.1179 -1.1466 -1.1808
 7935SOL     OW25404   2.208   4.736   1.979  1.2749 -0.1594 -0.7203
 7935SOL    HW125405   2.142   4.678   1.931  0.6802  0.5597 -0.7993
 7935SOL    HW225406   2.301   4.705   1.959  0.9861 -0.7679 -1.1608
 7936SOL     OW25407   2.420   2.038   1.480 -0.1874 -0.1912  0.3298
 7936SOL    HW125408   2.357   1.968   1.447 -0.6057  0.0701  0.5670
 7936SOL    HW225409   2.482   1.997   1.547  0.5039 -0.6620 -0.5825
 7937SOL     OW25410   0.466   5.944   0.629  0.6447 -0.4495 -0.7649
 7937SOL    HW125411   0.372   5.929   0.598  1.0965 -2.5889 -1.2903
 7937SOL    HW225412   0.510   6.011   0.570 -0.8040  1.3298  0.0880
 7938SOL     OW25413   3.552   4.482   4.847 -0.5546 -0.1487  0.1013
 7938SOL    HW125414   3.641   4.522   4.827 -0.4387  0.5216  1.7657
 7938SOL    HW225415   3.541   4.397   4.795  1.9439 -1.3679  1.3803
 7939SOL     OW25416   4.009   6.536   5.065 -0.0594  0.1057  0.5460
 7939SOL    HW125417   4.091   6.566   5.113  0.5339 -0.6438  0.0313
 7939SOL    HW225418   3.948   6.489   5.129  0.2730 -0.0246  0.7691
 7940SOL     OW25419   3.456   4.318   5.326  0.2976 -0.0831  0.0515
 7940SOL    HW125420   3.372   4.343   5.375  1.1499  0.2759  1.3783
 7940SOL    HW225421   3.434   4.298   5.230 -1.0661  1.5680 -0.0298
 7941SOL     OW25422   4.385   2.242   0.071  0.3518  0.3366 -0.1296
 7941SOL    HW125423   4.476   2.280   0.054  0.5715  0.4773  1.2567
 7941SOL    HW225424   4.381   2.149   0.036  1.0069  0.3479 -0.2567
 7942SOL     OW25425   1.484   1.791   5.690 -0.1608 -0.1453  0.6965
 7942SOL    HW125426   1.411   1.853   5.662  1.0600  1.4474  0.9236
 7942SOL    HW225427   1.514   1.814   5.783  1.9539  0.5740 -0.1053
 7943SOL     OW25428   4.193   3.629   0.528 -0.5943  0.1583  0.3206
 7943SOL    HW125429   4.229   3.580   0.607 -1.7311 -0.9638  0.1643
 7943SOL    HW225430   4.177   3.725   0.553 -1.2984 -0.2673  1.5663
 7944SOL     OW25431   6.847   0.366   5.689 -0.7029  0.0995  0.3376
 7944SOL    HW125432   6.905   0.445   5.667  0.3327 -0.5745  0.5898
 7944SOL    HW225433   6.757   0.378   5.647 -0.0941  0.7462 -0.8274
 7945SOL     OW25434   1.663   4.458   2.657 -0.6181  0.4862  0.1818
 7945SOL    HW125435   1.645   4.376   2.711 -0.5196 -0.5960 -1.3727
 7945SOL    HW225436   1.678   4.535   2.718  2.2995 -1.2027  1.8421
 7946SOL     OW25437   6.696   1.516   6.710  0.2939 -0.1435 -0.1353
 7946SOL    HW125438   6.685   1.437   6.650  0.5827 -0.4232  0.1725
 7946SOL    HW225439   6.608   1.541   6.749  0.3682 -0.9789  0.5874
 7947SOL     OW25440   5.971   6.281   0.901 -0.0196  0.3695  0.5718
 7947SOL    HW125441   5.961   6.381   0.898 -2.3930  0.2143  1.4596
 7947SOL    HW225442   5.883   6.238   0.883  0.6777 -1.5633  1.5407
 7948SOL     OW25443   5.928   4.296   6.189 -0.4308 -0.3246  0.2281
 7948SOL    HW125444   5.917   4.393   6.170  2.1252 -0.0816 -0.3928
 7948SOL    HW225445   5.839   4.256   6.212 -1.6380  1.9991 -0.1036
 7949SOL     OW25446   2.549   2.158   3.185  0.0788 -0.2110 -0.4541
 7949SOL    HW125447   2.578   2.222   3.114  0.7668 -1.9623 -1.8572
 7949SOL    HW225448   2.600   2.072   3.174 -1.0490 -1.1285  1.1151
 7950SOL     OW25449   1.010   1.921   5.760  0.1545  0.1303 -0.6246
 7950SOL    HW125450   0.965   1.896   5.845  0.0156 -2.5218 -1.3872
 7950SOL    HW225451   0.992   1.851   5.691  2.2979  0.9340 -2.1071
 7951SOL     OW25452   4.435   3.793   6.273 -0.5604 -0.1565 -0.1694
 7951SOL    HW125453   4.356   3.786   6.212 -0.6432  1.5368 -0.3190
 7951SOL    HW225454   4.510   3.838   6.225  0.0223 -0.5017  0.4015
 7952SOL     OW25455   0.461   0.048   6.532  0.2856  0.4923 -0.5471
 7952SOL    HW125456   0.445   0.039   6.630  3.2539 -1.9793 -0.1603
 7952SOL    HW225457   0.400  -0.014   6.482  1.2940 -1.0511  0.0781
 7953SOL     OW25458   2.972   6.524   5.900 -0.0352 -0.1200 -0.1989
 7953SOL    HW125459   2.969   6.512   5.999 -0.4310  1.1241 -0.0480
 7953SOL    HW225460   3.038   6.460   5.861  0.5729 -0.2059  0.9305
 7954SOL     OW25461   1.588   3.931   4.709 -0.0087 -0.3631 -0.2071
 7954SOL    HW125462   1.615   3.900   4.618 -0.8546  0.6960 -0.8458
 7954SOL    HW225463   1.639   4.014   4.732  0.9019 -1.1568  0.7039
 7955SOL     OW25464   2.506   4.898   0.463  0.1337  0.2037 -0.5790
 7955SOL    HW125465   2.423   4.892   0.518 -0.3173  0.5593 -1.2041
 7955SOL    HW225466   2.483   4.933   0.372  0.8246 -0.6274 -1.0895
 7956SOL     OW25467   0.411   5.203   6.506 -0.1874 -0.0257 -0.3331
 7956SOL    HW125468   0.431   5.135   6.436 -0.6304 -1.5631  0.9895
 7956SOL    HW225469   0.361   5.161   6.581 -0.0050  1.6509  0.7903
 7957SOL     OW25470   5.212   1.558   5.178  0.6386 -0.6667 -0.0941
 7957SOL    HW125471   5.126   1.606   5.199  0.5950  0.2941 -2.1991
 7957SOL    HW225472   5.191   1.474   5.128  0.8831 -1.1578  0.6160
 7958SOL     OW25473   3.074   4.347   6.528  0.2839 -0.1295  0.0541
 7958SOL    HW125474   3.082   4.247   6.524  1.9116 -0.1765  2.2341
 7958SOL    HW225475   3.019   4.379   6.452 -2.6040 -2.9341  0.7252
 7959SOL     OW25476   6.476   0.324   6.790 -0.2611  0.1201  0.5242
 7959SOL    HW125477   6.565   0.366   6.771 -0.4126  0.0446 -0.3941
 7959SOL    HW225478   6.407   0.363   6.729 -1.1281  1.0674  2.0561
 7960SOL     OW25479   5.575   0.312   3.070 -0.6087 -0.2464  0.3173
 7960SOL    HW125480   5.573   0.300   2.971 -1.9294 -3.0048  0.5901
 7960SOL    HW225481   5.654   0.265   3.108 -0.6490 -0.0358  0.6649
 7961SOL     OW25482   3.452   5.695   4.119 -0.2369 -0.3251  0.2761
 7961SOL    HW125483   3.357   5.706   4.148  0.1801 -1.4961  2.2436
 7961SOL    HW225484   3.504   5.647   4.190  2.2272  1.6786 -0.0233
 7962SOL     OW25485   0.311   3.993   5.231  0.0542  0.6304 -0.4538
 7962SOL    HW125486   0.216   3.967   5.211  0.8068 -1.9938 -1.0543
 7962SOL    HW225487   0.322   4.003   5.330 -0.3693 -1.4623 -0.1462
 7963SOL     OW25488   5.164   6.604   4.140 -0.2572  0.1295 -0.3601
 7963SOL    HW125489   5.247   6.549   4.140  0.2130  0.8202 -1.1789
 7963SOL    HW225490   5.091   6.554   4.092 -0.0059 -0.0257 -0.5840
 7964SOL     OW25491   2.924   5.315   2.731  0.1436 -0.2698  0.1967
 7964SOL    HW125492   3.019   5.294   2.704  0.6248  0.6553  1.1319
 7964SOL    HW225493   2.924   5.382   2.805 -1.2661  0.0986 -0.1073
 7965SOL     OW25494   6.811   1.281   1.067 -0.4501  0.2218 -0.6113
 7965SOL    HW125495   6.832   1.238   0.979 -0.1022  0.1917 -0.5158
 7965SOL    HW225496   6.786   1.376   1.053 -1.3834 -0.0411 -0.8418
 7966SOL     OW25497   1.067   6.953   0.360 -0.4447  0.4960 -0.1308
 7966SOL    HW125498   1.008   6.918   0.433 -1.3700  3.4388  0.7124
 7966SOL    HW225499   1.077   6.885   0.288  0.0039 -2.3277  2.4131
 7967SOL     OW25500   4.115   1.266   6.804  0.5624 -0.5210 -0.3799
 7967SOL    HW125501   4.059   1.276   6.886  0.6908 -0.6262 -0.2797
 7967SOL    HW225502   4.078   1.323   6.731 -0.1494 -1.2072 -0.5607
 7968SOL     OW25503   2.958   1.228   3.896  0.1156  0.4244 -0.4379
 7968SOL    HW125504   2.884   1.280   3.938 -0.3710 -0.8764  0.3659
 7968SOL    HW225505   3.032   1.290   3.872  0.1162  1.3595  1.7187
 7969SOL     OW25506   2.413   6.981   2.368 -0.0107 -0.4514  0.3225
 7969SOL    HW125507   2.434   7.066   2.416  0.9172 -1.2648  1.4043
 7969SOL    HW225508   2.490   6.918   2.377 -0.0416 -0.8559 -1.7756
 7970SOL     OW25509   3.623   6.251   1.078 -0.5869  0.2817  0.5964
 7970SOL    HW125510   3.619   6.304   1.162  1.3141 -2.1330  2.3422
 7970SOL    HW225511   3.694   6.288   1.018 -0.5752  0.8175  0.9402
 7971SOL     OW25512   5.134   0.294   6.004  0.6628  0.0078  0.6097
 7971SOL    HW125513   5.047   0.344   6.015 -0.4669 -1.5687 -0.7182
 7971SOL    HW225514   5.210   0.356   6.024 -0.5980  2.5988 -1.9233
 7972SOL     OW25515   1.008   4.497   0.532 -0.4300 -0.0759 -0.1072
 7972SOL    HW125516   0.919   4.498   0.578 -1.4871  0.2157 -2.0435
 7972SOL    HW225517   1.067   4.428   0.575 -1.8933 -0.9024  0.6560
 7973SOL     OW25518   1.598   6.652   3.811 -0.8373  0.1244  0.1906
 7973SOL    HW125519   1.556   6.622   3.896  0.5462 -0.8790  0.5596
 7973SOL    HW225520   1.593   6.751   3.804  0.6341  0.4319  2.3743
 7974SOL     OW25521   1.876   1.536   3.252 -0.9333  0.8048  0.1488
 7974SOL    HW125522   1.891   1.522   3.154  1.1124  0.3782  0.4572
 7974SOL    HW225523   1.899   1.630   3.277  1.3640  0.1921  0.6039
 7975SOL     OW25524   6.062   0.925   4.394  0.3108 -0.4601 -0.1217
 7975SOL    HW125525   6.013   0.917   4.481 -1.5117 -0.9395 -1.1268
 7975SOL    HW225526   6.159   0.942   4.412 -0.2903  1.3620  1.9842
 7976SOL     OW25527   5.320   5.235   1.327 -0.0498  0.0774 -0.2327
 7976SOL    HW125528   5.365   5.300   1.389  1.2835 -0.8262 -0.2104
 7976SOL    HW225529   5.295   5.153   1.377  1.9751 -1.1030 -1.0122
 7977SOL     OW25530   6.125   3.395   2.125 -0.2876  0.3750 -0.4254
 7977SOL    HW125531   6.196   3.466   2.122  0.1486 -0.0546 -0.5107
 7977SOL    HW225532   6.045   3.425   2.073 -0.0895  0.7820 -0.4997
 7978SOL     OW25533   2.471   4.743   1.102 -0.1577  0.1540  0.5813
 7978SOL    HW125534   2.402   4.671   1.100  0.6723 -0.6473 -0.3840
 7978SOL    HW225535   2.557   4.706   1.135  0.0285  0.9556  1.0231
 7979SOL     OW25536   6.340   4.441   0.212 -0.0173  0.8657 -0.1007
 7979SOL    HW125537   6.313   4.471   0.121 -0.3770 -2.6465 -1.2977
 7979SOL    HW225538   6.267   4.462   0.277 -0.6459  1.5961 -1.0070
 7980SOL     OW25539   5.634   3.391   6.983  0.5745 -0.1645  0.5770
 7980SOL    HW125540   5.717   3.439   7.013  1.1641 -0.3481 -0.7079
 7980SOL    HW225541   5.575   3.454   6.932  0.2390 -0.2119  0.9023
 7981SOL     OW25542   1.061   0.630   5.915 -0.0501 -0.3193 -0.9688
 7981SOL    HW125543   1.102   0.587   5.834 -0.1656 -0.2587 -1.0594
 7981SOL    HW225544   1.066   0.566   5.992  2.4787  0.5624 -0.2811
 7982SOL     OW25545   3.010   0.360   2.308 -0.1514  0.1485 -0.7973
 7982SOL    HW125546   2.984   0.451   2.339 -1.1095 -0.7429  1.1767
 7982SOL    HW225547   2.931   0.315   2.267 -0.5699 -0.9238  1.1159
 7983SOL     OW25548   2.236   6.986   5.186  0.0393 -0.0340 -0.0065
 7983SOL    HW125549   2.285   7.057   5.236  1.4349  0.0134 -1.3587
 7983SOL    HW225550   2.281   6.970   5.099 -2.5250  0.1996 -1.4908
 7984SOL     OW25551   6.445   2.587   2.743 -0.5098  0.1812 -0.0370
 7984SOL    HW125552   6.433   2.490   2.761 -0.0544  0.1421  0.0725
 7984SOL    HW225553   6.434   2.638   2.829 -4.0995  0.5827 -0.5991
 7985SOL     OW25554   1.519   1.225   5.890 -0.5388 -0.1665  0.5111
 7985SOL    HW125555   1.599   1.243   5.947 -1.5918  1.0757  1.6870
 7985SOL    HW225556   1.545   1.229   5.793  0.9460 -0.5400  0.8770
 7986SOL     OW25557   5.134   2.400   5.850  0.0561 -0.4026  0.0011
 7986SOL    HW125558   5.136   2.367   5.944 -1.6263 -1.2528 -0.2289
 7986SOL    HW225559   5.184   2.486   5.844 -0.5647  0.1381  1.8774
 7987SOL     OW25560   0.777   3.024   2.760 -0.2026  0.3000 -0.2097
 7987SOL    HW125561   0.755   3.121   2.750 -1.0351  0.1334 -0.0803
 7987SOL    HW225562   0.701   2.969   2.724  0.2696 -0.3027 -0.2922
 7988SOL     OW25563   1.799   0.285   0.209 -0.2300 -0.0941  0.1733
 7988SOL    HW125564   1.802   0.258   0.305 -1.5598  0.4530  0.3930
 7988SOL    HW225565   1.709   0.261   0.171  0.3328 -0.4503 -0.9876
 7989SOL     OW25566   2.666   1.928   3.149 -0.1207  0.4557  0.5474
 7989SOL    HW125567   2.749   1.894   3.193 -0.2010  1.1273  1.2444
 7989SOL    HW225568   2.647   1.875   3.066  0.3617 -0.4459  1.0058
 7990SOL     OW25569   6.279   6.123   3.348  0.3754  0.4720 -0.1282
 7990SOL    HW125570   6.207   6.190   3.367 -0.0154 -0.0026  0.0919
 7990SOL    HW225571   6.244   6.052   3.287  0.3319 -0.3097  0.7700
 7991SOL     OW25572   0.518   4.706   0.957 -0.0441 -0.5484 -0.0719
 7991SOL    HW125573   0.488   4.800   0.943  1.1900 -0.0322  0.5723
 7991SOL    HW225574   0.479   4.647   0.886  0.8949  0.8311 -1.8224
 7992SOL     OW25575   4.005   1.292   0.027 -0.0985 -0.3544  0.0530
 7992SOL    HW125576   4.040   1.370   0.079 -1.3251  0.5297 -0.4169
 7992SOL    HW225577   3.905   1.291   0.030 -0.1189 -1.6374 -0.3489
 7993SOL     OW25578   0.078   2.377   2.386 -0.3810  0.2516  0.1635
 7993SOL    HW125579   0.080   2.473   2.413  0.8345 -0.3854  2.6971
 7993SOL    HW225580   0.170   2.348   2.357 -0.5010 -0.3624  0.3735
 7994SOL     OW25581   3.096   2.171   4.003  0.0965  0.2639 -0.3418
 7994SOL    HW125582   3.102   2.096   3.937 -1.9324 -0.9525  0.7568
 7994SOL    HW225583   3.186   2.211   4.016  1.1554 -1.6677 -1.3284
 7995SOL     OW25584   5.469   1.051   5.629  0.1304  0.1923  0.3193
 7995SOL    HW125585   5.476   1.054   5.529 -2.7192 -1.3274 -0.0291
 7995SOL    HW225586   5.487   0.957   5.660 -0.2575  0.3731  1.1101
 7996SOL     OW25587   3.976   6.302   4.673  0.4344  0.6029 -0.0589
 7996SOL    HW125588   4.024   6.214   4.681  0.0185  0.3603 -0.2023
 7996SOL    HW225589   3.974   6.329   4.576  3.2451  2.2864  0.2379
 7997SOL     OW25590   3.514   2.138   0.855  0.0455 -0.1118  0.8317
 7997SOL    HW125591   3.561   2.224   0.875  1.1165  0.0808 -2.0356
 7997SOL    HW225592   3.572   2.061   0.881  1.1443  0.1208 -0.7677
 7998SOL     OW25593   1.871   6.374   0.122 -0.0948  0.4118  0.6477
 7998SOL    HW125594   1.942   6.304   0.116 -1.5858 -1.1455  0.6153
 7998SOL    HW225595   1.811   6.354   0.199 -0.7093  1.5343  0.4838
 7999SOL     OW25596   7.012   3.827   3.003  0.1374 -0.0877  0.7770
 7999SOL    HW125597   6.985   3.910   2.955 -0.1062 -0.0900  0.9114
 7999SOL    HW225598   7.088   3.784   2.954 -0.8528 -0.7179 -0.2814
 8000SOL     OW25599   3.188   5.280   2.652 -0.1928 -0.0257  0.4957
 8000SOL    HW125600   3.188   5.188   2.693 -0.8943 -0.0529  0.4538
 8000SOL    HW225601   3.274   5.295   2.604 -1.2652 -2.0025 -2.4084
 8001SOL     OW25602   0.261   0.003   5.422 -0.0395 -0.4848  0.2823
 8001SOL    HW125603   0.202  -0.064   5.377  1.8010 -2.7306  0.9632
 8001SOL    HW225604   0.356  -0.012   5.392  0.4326  1.8727  0.4702
 8002SOL     OW25605   1.652   1.607   4.579  0.3326  0.3191  0.1199
 8002SOL    HW125606   1.722   1.568   4.638 -0.1142 -0.9427 -0.1399
 8002SOL    HW225607   1.659   1.567   4.488  0.5426  1.6927 -0.4958
 8003SOL     OW25608   5.125   4.148   4.739 -0.3986  0.4758 -0.3304
 8003SOL    HW125609   5.181   4.092   4.677  2.5891  1.1466  1.5335
 8003SOL    HW225610   5.048   4.094   4.772  0.8557 -1.6440 -0.6523
 8004SOL     OW25611   0.259   1.233   4.108 -0.5004  0.2573 -0.1979
 8004SOL    HW125612   0.208   1.150   4.127  0.3169 -0.5424 -1.3687
 8004SOL    HW225613   0.343   1.234   4.162 -0.4895  0.3223 -0.2153
 8005SOL     OW25614   0.788   2.543   6.993 -0.3930  0.3294  0.1675
 8005SOL    HW125615   0.737   2.547   7.080 -1.5431 -0.7445 -0.4252
 8005SOL    HW225616   0.740   2.482   6.930  0.1149  1.5426 -1.4330
 8006SOL     OW25617   0.723   0.649   4.073 -0.1938  0.1029 -0.3331
 8006SOL    HW125618   0.623   0.652   4.077 -0.1523  0.5194  0.4202
 8006SOL    HW225619   0.762   0.700   4.150  0.5938 -0.9561 -0.0031
 8007SOL     OW25620   0.561   4.684   1.527 -0.4857  0.3813  0.1775
 8007SOL    HW125621   0.521   4.594   1.542  1.2734 -0.4846 -0.0585
 8007SOL    HW225622   0.644   4.674   1.471  0.8957  1.8836  1.8419
 8008SOL     OW25623   2.871   5.965   5.548  0.2017  0.6752  0.4968
 8008SOL    HW125624   2.961   5.931   5.520  0.1568  0.7672  0.2400
 8008SOL    HW225625   2.801   5.927   5.488 -0.0013  0.1121  1.0792
 8009SOL     OW25626   2.969   2.077   0.949  0.8863 -0.0109 -0.4946
 8009SOL    HW125627   2.899   2.099   1.017 -0.2838  0.0110 -1.6699
 8009SOL    HW225628   3.013   1.990   0.973  1.9114  0.9438  1.3495
 8010SOL     OW25629   0.892   2.576   6.387  0.6199 -0.3055  0.1777
 8010SOL    HW125630   0.816   2.524   6.425  1.1815 -1.1863  0.1454
 8010SOL    HW225631   0.977   2.548   6.432  1.0724 -0.1722 -0.5668
 8011SOL     OW25632   3.136   7.015   5.407  0.1021  0.1709 -0.0338
 8011SOL    HW125633   3.127   7.042   5.503 -0.0691  1.2557 -0.3339
 8011SOL    HW225634   3.210   7.067   5.365  0.4082 -0.5520 -0.4087
 8012SOL     OW25635   1.870   4.387   5.437 -0.1399 -0.1594 -0.1102
 8012SOL    HW125636   1.854   4.340   5.350  1.1053 -0.7995 -0.0161
 8012SOL    HW225637   1.907   4.478   5.419 -1.9843  0.5902 -0.2804
 8013SOL     OW25638   6.779   1.504   4.874  0.4680  0.1585  0.2697
 8013SOL    HW125639   6.793   1.423   4.817  0.0832 -1.8632  2.8421
 8013SOL    HW225640   6.681   1.524   4.879  0.2453 -1.0833  1.8864
 8014SOL     OW25641   3.463   0.401   2.433 -0.0062  0.0684  0.2888
 8014SOL    HW125642   3.423   0.453   2.508 -1.6423 -2.1412  1.0849
 8014SOL    HW225643   3.559   0.425   2.423 -0.5058  2.6876  0.9817
 8015SOL     OW25644   6.115   3.622   0.645  0.2480  0.3533 -0.3766
 8015SOL    HW125645   6.096   3.540   0.591 -2.0029  1.3873 -1.2512
 8015SOL    HW225646   6.035   3.647   0.699  2.0825 -0.0619  2.8440
 8016SOL     OW25647   4.881   4.449   4.624 -0.4680 -0.5084  0.2663
 8016SOL    HW125648   4.871   4.548   4.639 -1.3639 -0.4621 -0.5343
 8016SOL    HW225649   4.971   4.431   4.586 -0.6268  0.1234 -0.4463
 8017SOL     OW25650   5.611   3.736   2.541 -0.0206  0.5502  0.7515
 8017SOL    HW125651   5.587   3.831   2.562  0.3559  0.7222  0.4213
 8017SOL    HW225652   5.598   3.720   2.444 -1.4392 -0.1477  1.0300
 8018SOL     OW25653   5.588   5.901   2.387  0.1541 -0.1094 -0.4331
 8018SOL    HW125654   5.663   5.841   2.362  1.2564  1.5584 -1.3538
 8018SOL    HW225655   5.572   5.967   2.313 -1.0229  0.7156  0.5065
 8019SOL     OW25656   0.781   1.872   3.943  0.4817 -0.4994 -0.6190
 8019SOL    HW125657   0.731   1.951   3.977  1.8155  1.0020 -1.9372
 8019SOL    HW225658   0.875   1.875   3.976  0.6721 -1.2667 -1.0617
 8020SOL     OW25659   3.007   1.604   6.346 -0.5878  0.0572 -0.2953
 8020SOL    HW125660   3.054   1.613   6.434  2.1303 -0.6719 -1.5495
 8020SOL    HW225661   2.913   1.634   6.355 -0.5966 -0.6119  3.0008
 8021SOL     OW25662   6.590   5.430   6.073  0.6095 -0.3503 -0.4588
 8021SOL    HW125663   6.557   5.522   6.047 -0.9967 -1.2539 -1.8418
 8021SOL    HW225664   6.512   5.372   6.095  1.4116 -2.0205 -1.7912
 8022SOL     OW25665   1.557   3.604   1.540 -0.3372 -0.1196  0.3142
 8022SOL    HW125666   1.576   3.681   1.602  2.5620 -0.5592  0.1085
 8022SOL    HW225667   1.499   3.538   1.587  0.5698  0.2581  2.0540
 8023SOL     OW25668   4.157   0.837   1.519  0.8047  0.2348  0.1534
 8023SOL    HW125669   4.072   0.798   1.553  0.4877 -2.1202 -2.9157
 8023SOL    HW225670   4.235   0.795   1.566  0.3335  0.0447  0.7694
 8024SOL     OW25671   6.553   0.668   3.062 -0.1954  0.5127 -0.2336
 8024SOL    HW125672   6.526   0.574   3.084 -2.8617  1.3797  0.5818
 8024SOL    HW225673   6.651   0.671   3.045  0.1447 -2.2206  0.7244
 8025SOL     OW25674   3.032   0.455   3.930 -0.1148  0.0865  0.9203
 8025SOL    HW125675   2.955   0.475   3.991 -2.0708 -2.9065 -0.3613
 8025SOL    HW225676   3.082   0.375   3.964  1.4855  1.0216  0.8568
 8026SOL     OW25677   5.375   3.494   1.068 -0.0387 -0.1279  0.1691
 8026SOL    HW125678   5.289   3.446   1.050  0.5683 -1.5144  0.8025
 8026SOL    HW225679   5.451   3.441   1.031  0.6424  0.4971  0.6368
 8027SOL     OW25680   6.719   5.404   2.704 -0.5660  0.2157  0.1566
 8027SOL    HW125681   6.788   5.374   2.770 -0.2429  0.3082 -0.1389
 8027SOL    HW225682   6.730   5.502   2.686  0.0160 -0.0153 -0.8229
 8028SOL     OW25683   4.114   0.392   3.329  0.3511  0.3683  0.3005
 8028SOL    HW125684   4.068   0.409   3.241  1.2582 -0.8197 -0.4379
 8028SOL    HW225685   4.181   0.464   3.345 -1.1800  1.7048  1.0280
 8029SOL     OW25686   2.300   2.290   5.502  0.1429 -0.1724 -0.1823
 8029SOL    HW125687   2.392   2.308   5.538  0.8033  1.6848 -2.5977
 8029SOL    HW225688   2.304   2.277   5.403 -2.3156  1.1465 -0.5386
 8030SOL     OW25689   0.733   6.568   2.250 -0.1760 -0.0155  0.1398
 8030SOL    HW125690   0.655   6.624   2.221  0.9448  2.1553  1.0635
 8030SOL    HW225691   0.818   6.613   2.223  0.8124 -2.0719 -0.3799
 8031SOL     OW25692   6.087   1.784   5.755 -0.2866 -0.7637 -0.5469
 8031SOL    HW125693   6.165   1.777   5.818 -0.4415  1.2524 -0.0684
 8031SOL    HW225694   6.113   1.839   5.676 -1.4421  0.7975  0.0890
 8032SOL     OW25695   1.832   0.636   3.470 -0.1803  0.4716  0.4511
 8032SOL    HW125696   1.867   0.606   3.559 -0.3018 -0.0255  0.3346
 8032SOL    HW225697   1.864   0.573   3.399 -3.0228 -1.3197  0.5969
 8033SOL     OW25698   5.664   5.658   3.166 -0.0730  0.0518  0.3203
 8033SOL    HW125699   5.577   5.706   3.173 -0.5341 -0.8126  0.5475
 8033SOL    HW225700   5.692   5.625   3.256  0.1423 -0.2906  0.1284
 8034SOL     OW25701   6.609   1.083   3.124 -0.3978 -0.4022  0.3522
 8034SOL    HW125702   6.636   1.163   3.070 -0.3154  1.1592  2.5904
 8034SOL    HW225703   6.513   1.091   3.149  0.1554  0.1906  2.4616
 8035SOL     OW25704   3.112   2.117   6.957 -0.0316  0.0715  0.1747
 8035SOL    HW125705   3.126   2.177   6.878 -0.3887 -0.2957 -0.1754
 8035SOL    HW225706   3.033   2.150   7.010 -0.2725 -0.1270 -0.0580
 8036SOL     OW25707   4.026   6.262   6.944  0.2246  0.8865  0.0179
 8036SOL    HW125708   4.010   6.187   6.880  0.2256  0.4312  0.5419
 8036SOL    HW225709   3.968   6.340   6.920 -0.2208  0.4985 -0.1699
 8037SOL     OW25710   6.646   2.937   1.262  1.0034 -0.0002  0.2058
 8037SOL    HW125711   6.579   3.006   1.289  0.7075  0.0169 -0.5433
 8037SOL    HW225712   6.736   2.963   1.296  0.8579  0.6392  0.1184
 8038SOL     OW25713   0.046   4.849   4.078 -0.1373  0.4999  0.2095
 8038SOL    HW125714   0.142   4.857   4.049  0.0138 -0.8479  0.3126
 8038SOL    HW225715   0.008   4.762   4.048 -0.7346  0.1466  1.8543
 8039SOL     OW25716   2.896   0.056   4.771  0.1925 -0.7286 -0.4801
 8039SOL    HW125717   2.814  -0.001   4.784 -0.7177  0.6225 -0.1399
 8039SOL    HW225718   2.918   0.060   4.674 -0.7809 -0.2710 -0.6962
 8040SOL     OW25719   1.331   4.795   0.651  0.3506 -0.1985  0.1757
 8040SOL    HW125720   1.345   4.822   0.746 -0.3390 -0.9646  0.5058
 8040SOL    HW225721   1.391   4.718   0.628  1.0985  0.4957 -0.2627
 8041SOL     OW25722   6.720   4.732   6.589 -0.0897 -0.1612 -0.3771
 8041SOL    HW125723   6.684   4.824   6.605 -0.6289 -0.7653  2.4518
 8041SOL    HW225724   6.776   4.704   6.667  0.1353 -2.1848 -1.2048
 8042SOL     OW25725   4.448   1.018   2.932  0.3312 -0.5716  0.3952
 8042SOL    HW125726   4.473   0.989   3.024 -1.3167 -0.5071  0.9067
 8042SOL    HW225727   4.492   0.958   2.865  0.1504 -1.7573  1.2907
 8043SOL     OW25728   1.193   0.159   0.634 -0.0641 -0.5483 -0.6605
 8043SOL    HW125729   1.161   0.150   0.728  0.4546 -0.6217 -0.4867
 8043SOL    HW225730   1.214   0.069   0.597 -0.6984 -0.5636 -1.0094
 8044SOL     OW25731   0.019   0.775   2.128  0.1481 -0.5173  0.0927
 8044SOL    HW125732   0.099   0.822   2.167 -0.2834  0.7380 -0.4683
 8044SOL    HW225733  -0.063   0.802   2.179 -0.4766  1.4185 -1.7802
 8045SOL     OW25734   6.272   3.166   4.479  0.2789  0.0128  0.2970
 8045SOL    HW125735   6.306   3.077   4.511  3.4800  0.9936 -0.0620
 8045SOL    HW225736   6.231   3.216   4.555  0.2569 -0.9660  0.9460
 8046SOL     OW25737   5.843   6.816   2.458  0.5044  0.2322 -0.3719
 8046SOL    HW125738   5.805   6.784   2.544 -1.0264  0.7331 -0.8253
 8046SOL    HW225739   5.795   6.899   2.429  3.2553  2.0619 -0.0423
 8047SOL     OW25740   3.041   4.599   4.840 -0.2614  0.0823  0.0514
 8047SOL    HW125741   3.075   4.647   4.921  0.3308 -1.5811  0.8366
 8047SOL    HW225742   3.028   4.664   4.765 -0.9502  1.6894  1.4946
 8048SOL     OW25743   4.584   6.415   4.190  0.0462  0.9427 -0.8797
 8048SOL    HW125744   4.561   6.512   4.193  1.2986  1.2455 -0.2029
 8048SOL    HW225745   4.631   6.394   4.104  0.6024  1.1563 -0.6369
 8049SOL     OW25746   5.798   0.114   0.748 -0.5454 -0.3243  0.0984
 8049SOL    HW125747   5.836   0.131   0.839 -0.4026  0.9386 -0.1846
 8049SOL    HW225748   5.712   0.164   0.738 -0.7340 -0.7295 -0.3454
 8050SOL     OW25749   0.965   4.195   4.185  0.3282 -0.0313 -0.3575
 8050SOL    HW125750   0.940   4.109   4.141 -2.3782  0.7539 -0.5287
 8050SOL    HW225751   0.935   4.194   4.280 -0.2844  0.9367 -0.5285
 8051SOL     OW25752   6.935   3.227   0.072 -0.1076  0.8457  0.2940
 8051SOL    HW125753   6.837   3.208   0.079  0.0334 -0.4411 -0.8726
 8051SOL    HW225754   6.952   3.324   0.094 -1.5103  0.8844  1.3571
 8052SOL     OW25755   0.197   1.027   1.143 -0.3451 -0.2436 -0.0842
 8052SOL    HW125756   0.108   0.983   1.159 -1.1464  0.2217 -2.8306
 8052SOL    HW225757   0.191   1.123   1.172 -0.0356 -0.7173  1.6545
 8053SOL     OW25758   2.912   2.133   4.684 -0.2159 -0.0291 -0.6636
 8053SOL    HW125759   2.883   2.178   4.600  0.4295  2.4365  0.3609
 8053SOL    HW225760   2.993   2.077   4.666  0.1373  0.7612 -1.5895
 8054SOL     OW25761   1.361   1.644   4.909  0.2972 -0.0403  0.0289
 8054SOL    HW125762   1.359   1.620   5.006 -0.1683  0.1912  0.0781
 8054SOL    HW225763   1.313   1.575   4.856  0.0566  0.1244  0.0296
 8055SOL     OW25764   1.091   5.930   3.735 -0.1044 -0.2613  0.2211
 8055SOL    HW125765   1.023   5.942   3.808 -0.6845  1.6698 -0.5430
 8055SOL    HW225766   1.182   5.952   3.770 -0.3734  0.6187  0.4023
 8056SOL     OW25767   6.555   2.306   3.875 -0.4323  0.4211 -0.2385
 8056SOL    HW125768   6.503   2.369   3.817 -1.6668 -0.1514  0.2020
 8056SOL    HW225769   6.648   2.296   3.840 -0.7100  1.2239 -1.2396
 8057SOL     OW25770   6.869   4.080   2.122  0.6432  0.1049 -0.2325
 8057SOL    HW125771   6.962   4.110   2.102  0.5804 -0.0307 -0.7578
 8057SOL    HW225772   6.807   4.158   2.114  0.6254  0.0628 -0.5480
 8058SOL     OW25773   5.292   0.628   4.621 -0.3278  0.0686 -0.1582
 8058SOL    HW125774   5.354   0.692   4.667  0.6531  0.1132 -1.4558
 8058SOL    HW225775   5.206   0.674   4.601 -0.5519  0.2166  1.0837
 8059SOL     OW25776   1.280   5.560   4.266  0.2180 -0.5776  0.3809
 8059SOL    HW125777   1.340   5.585   4.189 -0.5623 -0.8403 -0.3267
 8059SOL    HW225778   1.288   5.462   4.283  1.0970 -0.3699  1.2686
 8060SOL     OW25779   2.082   6.910   5.417 -0.0467 -0.0340 -0.0596
 8060SOL    HW125780   2.009   6.971   5.446  1.0535  0.7662  1.1028
 8060SOL    HW225781   2.128   6.949   5.337 -2.2025 -1.5875 -2.2259
 8061SOL     OW25782   5.552   1.970   3.567  0.4186  0.2530 -0.3075
 8061SOL    HW125783   5.482   1.986   3.497  1.1591 -1.0820 -1.3887
 8061SOL    HW225784   5.585   1.876   3.561 -1.9107 -1.1236  4.0641
 8062SOL     OW25785   1.798   1.252   2.964  0.1338 -0.1966  0.3507
 8062SOL    HW125786   1.850   1.224   3.045 -0.1776  1.1407  1.0478
 8062SOL    HW225787   1.711   1.203   2.962  0.4017 -0.6850  0.4904
 8063SOL     OW25788   4.449   5.567   4.058  0.2761 -0.5303 -0.3762
 8063SOL    HW125789   4.522   5.600   4.117  0.8755  0.0029 -1.3991
 8063SOL    HW225790   4.470   5.588   3.963 -0.6285 -1.4550 -0.8037
 8064SOL     OW25791   1.514   2.537   6.858 -0.1540 -0.2410 -0.1459
 8064SOL    HW125792   1.510   2.552   6.759 -0.1118 -0.7461 -0.2246
 8064SOL    HW225793   1.594   2.483   6.880  0.4587  0.8101  0.2898
 8065SOL     OW25794   0.321   5.413   1.806  0.1581  0.3055  0.3041
 8065SOL    HW125795   0.407   5.364   1.821  0.2832  0.6084  0.5809
 8065SOL    HW225796   0.302   5.417   1.708  1.7933  2.4764 -0.0140
 8066SOL     OW25797   0.504   2.472   2.392 -0.6335  0.0702 -0.7488
 8066SOL    HW125798   0.450   2.402   2.346  0.0103  0.3790 -2.0147
 8066SOL    HW225799   0.555   2.431   2.468 -1.1859 -0.5854 -0.7266
 8067SOL     OW25800   5.658   4.320   0.822  0.1009 -0.1439 -0.1289
 8067SOL    HW125801   5.733   4.379   0.792 -0.7161 -0.0349 -2.1057
 8067SOL    HW225802   5.637   4.254   0.750 -2.7162  0.8328 -0.3435
 8068SOL     OW25803   3.782   5.521   0.523 -0.1533  0.0760  0.0821
 8068SOL    HW125804   3.693   5.536   0.478 -0.5834 -0.8413  0.6029
 8068SOL    HW225805   3.835   5.454   0.471  0.6159  1.2529 -0.7066
 8069SOL     OW25806   0.644   3.951   3.327  0.0637 -0.6310  0.1578
 8069SOL    HW125807   0.602   4.032   3.368  0.7847 -0.2429  0.1446
 8069SOL    HW225808   0.744   3.961   3.328  0.1695  0.5680 -3.9030
 8070SOL     OW25809   2.346   2.780   5.446  0.2036  0.7464 -0.1601
 8070SOL    HW125810   2.347   2.878   5.423  2.8960  0.9785  0.5313
 8070SOL    HW225811   2.438   2.752   5.474 -0.6539 -1.8624  0.3163
 8071SOL     OW25812   2.695   1.534   5.143 -0.5242  0.4083 -0.0109
 8071SOL    HW125813   2.758   1.571   5.074  0.8343 -0.8727  0.4725
 8071SOL    HW225814   2.743   1.464   5.197 -2.1950 -0.1449  0.8194
 8072SOL     OW25815   2.925   1.094   6.281 -0.1927  0.0031  0.6969
 8072SOL    HW125816   2.992   1.164   6.259 -0.6910  0.0025 -0.9880
 8072SOL    HW225817   2.842   1.136   6.317  0.2925  0.0883  1.7379
 8073SOL     OW25818   4.295   0.625   1.637  0.1305  0.3114  0.3535
 8073SOL    HW125819   4.364   0.602   1.568 -0.0869 -1.2116  0.6094
 8073SOL    HW225820   4.338   0.669   1.715  1.0099 -1.6069  0.9915
 8074SOL     OW25821   1.778   5.089   4.465 -0.1269  0.6210  0.3604
 8074SOL    HW125822   1.746   5.127   4.552 -0.2700  0.5699  0.3302
 8074SOL    HW225823   1.701   5.080   4.402 -0.2462 -0.4784  0.6485
 8075SOL     OW25824   5.993   3.935   4.723 -0.0077 -0.2834 -0.1634
 8075SOL    HW125825   6.002   3.837   4.739  0.5676 -0.0479  1.1273
 8075SOL    HW225826   5.983   3.982   4.811 -0.6133  0.7884 -0.7774
 8076SOL     OW25827   4.172   0.715   6.896 -0.3514  0.2762 -0.3009
 8076SOL    HW125828   4.257   0.709   6.948 -0.4292 -0.3085 -0.2384
 8076SOL    HW225829   4.154   0.811   6.874 -0.7985  0.6728  1.5641
 8077SOL     OW25830   1.807   2.416   5.004  0.0672  0.1516  0.0514
 8077SOL    HW125831   1.746   2.422   5.082 -1.4601 -0.8886 -1.0019
 8077SOL    HW225832   1.823   2.320   4.981 -0.7148  0.4167 -1.7686
 8078SOL     OW25833   3.752   6.253   3.227 -0.2567 -0.2310  0.2717
 8078SOL    HW125834   3.792   6.344   3.227  0.9623 -0.7532 -0.2941
 8078SOL    HW225835   3.770   6.208   3.315 -1.3021  0.2520  0.7434
 8079SOL     OW25836   0.665   0.553   0.571 -0.1986 -0.6953  0.0410
 8079SOL    HW125837   0.737   0.484   0.580 -0.1758 -0.4667  2.0652
 8079SOL    HW225838   0.583   0.522   0.619 -0.3929  0.4128  0.4503
 8080SOL     OW25839   6.576   4.337   2.910  0.2348  0.0588  0.0598
 8080SOL    HW125840   6.619   4.313   2.822  0.7874  1.6191 -0.1264
 8080SOL    HW225841   6.623   4.290   2.984  1.2218  0.4497 -0.2998
 8081SOL     OW25842   5.443   5.007   6.632  0.0635 -0.0599  0.3372
 8081SOL    HW125843   5.394   5.070   6.692  1.2071  0.4211  0.8147
 8081SOL    HW225844   5.539   5.036   6.625  0.0913 -0.4583 -1.2618
 8082SOL     OW25845   6.994   3.616   0.805 -0.1962  0.9058  0.4096
 8082SOL    HW125846   7.053   3.663   0.739 -0.2367  2.5106  1.4478
 8082SOL    HW225847   7.051   3.561   0.866 -0.1626 -0.6311 -0.9403
 8083SOL     OW25848   5.669   1.511   4.127 -0.0047  0.2662 -0.1488
 8083SOL    HW125849   5.714   1.424   4.147  1.0953  0.8128 -0.1849
 8083SOL    HW225850   5.612   1.501   4.046 -1.6073 -0.9843  1.0522
 8084SOL     OW25851   2.252   1.666   1.961  0.4237 -0.2400 -0.1390
 8084SOL    HW125852   2.155   1.649   1.978  0.4400  0.9233  1.2956
 8084SOL    HW225853   2.278   1.755   1.998  2.1951 -0.8021  0.0831
 8085SOL     OW25854   4.231   6.656   0.355 -0.1841  0.2743  0.2244
 8085SOL    HW125855   4.226   6.559   0.381 -0.2169  0.4697  0.9801
 8085SOL    HW225856   4.323   6.676   0.321 -0.3462 -0.1486 -0.4882
 8086SOL     OW25857   2.175   0.213   1.278  0.0908  0.1985 -0.4267
 8086SOL    HW125858   2.107   0.281   1.250  0.5089  0.2069 -1.4466
 8086SOL    HW225859   2.187   0.218   1.377  0.7323  2.2158 -0.5566
 8087SOL     OW25860   3.457   2.842   6.603  0.1144  0.6440  0.0820
 8087SOL    HW125861   3.429   2.935   6.583  0.4090  0.7475  0.1414
 8087SOL    HW225862   3.377   2.783   6.609 -0.0396  0.8080 -0.3822
 8088SOL     OW25863   3.800   0.685   6.611  0.4838 -0.1852 -0.4400
 8088SOL    HW125864   3.725   0.660   6.550  0.5348 -1.3250 -0.0578
 8088SOL    HW225865   3.843   0.770   6.579 -0.7798  0.3274 -0.8248
 8089SOL     OW25866   1.839   6.001   6.386  0.1409  0.1852 -0.4996
 8089SOL    HW125867   1.797   5.984   6.475 -1.1508  0.3976 -1.0377
 8089SOL    HW225868   1.888   6.088   6.388 -0.3301  0.4475 -0.1490
 8090SOL     OW25869   5.301   0.588   4.951 -0.6897 -0.1005 -0.0924
 8090SOL    HW125870   5.252   0.522   4.895 -1.0653 -0.8420  1.0756
 8090SOL    HW225871   5.249   0.673   4.956 -0.3994  0.1720 -1.2609
 8091SOL     OW25872   3.126   6.379   4.159 -0.9222 -0.5071 -0.2130
 8091SOL    HW125873   3.051   6.422   4.208 -1.8182 -1.5912 -0.5650
 8091SOL    HW225874   3.187   6.335   4.224 -0.4385  0.5933  0.0936
 8092SOL     OW25875   1.769   0.581   1.525  0.4440 -0.7865 -0.5071
 8092SOL    HW125876   1.670   0.591   1.535  0.6499 -0.1919  1.2124
 8092SOL    HW225877   1.801   0.510   1.587  1.3965  0.7214  0.7828
 8093SOL     OW25878   0.607   0.215   6.353 -0.0681  0.1638 -0.3022
 8093SOL    HW125879   0.554   0.261   6.281 -1.1748  1.2881  1.1734
 8093SOL    HW225880   0.549   0.152   6.403  0.2205  0.6837  0.7142
 8094SOL     OW25881   1.197   0.299   1.502  0.0402  0.0320 -0.5003
 8094SOL    HW125882   1.247   0.252   1.574  0.1812  0.9626  0.0340
 8094SOL    HW225883   1.240   0.388   1.485  0.5775 -0.5465 -2.3864
 8095SOL     OW25884   5.987   1.243   4.376  0.2855 -0.3278 -0.2059
 8095SOL    HW125885   5.988   1.316   4.445 -0.5961 -0.7645  0.2796
 8095SOL    HW225886   6.007   1.156   4.419 -1.2326 -0.7526 -0.3093
 8096SOL     OW25887   0.585   4.679   6.572 -0.1152  0.0069 -0.0018
 8096SOL    HW125888   0.526   4.598   6.570 -0.9010  0.5670 -0.0982
 8096SOL    HW225889   0.560   4.735   6.651 -0.0038  0.4626 -0.2899
 8097SOL     OW25890   4.852   1.075   3.731 -0.5639  0.5407 -0.0650
 8097SOL    HW125891   4.915   1.061   3.654 -0.7958  0.0928 -0.1753
 8097SOL    HW225892   4.855   1.171   3.759  0.2405  0.5059 -0.0068
 8098SOL     OW25893   2.665   6.695   1.449 -0.0033 -0.2407 -0.9512
 8098SOL    HW125894   2.610   6.702   1.365 -0.0804  1.0043 -0.8257
 8098SOL    HW225895   2.707   6.784   1.468 -0.2418 -0.4084  0.5035
 8099SOL     OW25896   4.012   0.629   3.634  0.1398  0.0160 -0.1744
 8099SOL    HW125897   4.012   0.594   3.540 -0.4512  1.5652 -0.7898
 8099SOL    HW225898   3.973   0.721   3.635  1.1799  0.4802  1.4379
 8100SOL     OW25899   6.495   5.684   6.795 -0.5634  0.1207 -0.2203
 8100SOL    HW125900   6.485   5.777   6.758  0.1958 -0.2708 -1.4714
 8100SOL    HW225901   6.557   5.686   6.873  0.5549  0.4865 -1.0921
 8101SOL     OW25902   6.120   6.015   0.440 -0.0140 -0.1522 -0.5667
 8101SOL    HW125903   6.204   6.006   0.493  0.8411 -1.0198 -2.0024
 8101SOL    HW225904   6.136   5.984   0.346 -2.1624 -1.1996 -0.6528
 8102SOL     OW25905   5.001   4.295   0.760 -0.0424 -0.5936  0.1321
 8102SOL    HW125906   4.981   4.230   0.687 -2.0946 -0.0740  0.1678
 8102SOL    HW225907   5.012   4.386   0.722 -0.1021 -0.4864  0.3670
 8103SOL     OW25908   3.034   0.208   6.597  0.2086 -0.0172 -0.2798
 8103SOL    HW125909   3.107   0.179   6.659 -0.4998 -0.5286  0.3412
 8103SOL    HW225910   2.990   0.290   6.635  0.2965  0.1403 -0.5198
 8104SOL     OW25911   1.909   6.592   6.953 -0.3139 -0.2039 -0.0128
 8104SOL    HW125912   1.897   6.689   6.973  1.6243  0.2611 -0.8994
 8104SOL    HW225913   1.897   6.539   7.037 -0.8030  0.8337  0.5994
 8105SOL     OW25914   5.376   6.126   1.747  0.1592 -0.5888  0.1419
 8105SOL    HW125915   5.332   6.039   1.767  0.3671 -1.1675 -1.7199
 8105SOL    HW225916   5.358   6.152   1.652 -1.0557  2.1250  1.0081
 8106SOL     OW25917   3.296   4.762   0.003 -0.2059 -0.5219 -0.7367
 8106SOL    HW125918   3.199   4.773   0.026 -0.2121 -1.0925 -0.4728
 8106SOL    HW225919   3.310   4.784  -0.093 -0.6027 -0.4561 -0.7815
 8107SOL     OW25920   5.532   6.395   3.526  0.5941  1.0829  0.1405
 8107SOL    HW125921   5.541   6.456   3.447  0.7600  1.5231  0.4936
 8107SOL    HW225922   5.619   6.391   3.574  0.8471 -0.1609 -0.3925
 8108SOL     OW25923   2.104   0.741   3.759 -0.1830 -0.2851  0.4964
 8108SOL    HW125924   2.064   0.797   3.831 -0.4985 -0.3692  0.3851
 8108SOL    HW225925   2.037   0.675   3.726  0.2474 -0.8878  0.7858
 8109SOL     OW25926   3.938   5.317   0.377  0.5464 -0.1273  0.2023
 8109SOL    HW125927   3.986   5.401   0.351  1.1527  0.3439  2.6323
 8109SOL    HW225928   4.004   5.247   0.403  0.0162 -0.1324  1.6563
 8110SOL     OW25929   6.584   3.496   2.116 -0.6341 -0.0358 -0.5513
 8110SOL    HW125930   6.654   3.559   2.082 -1.5093  0.8934 -0.6933
 8110SOL    HW225931   6.501   3.504   2.061 -1.2922 -0.1760  0.3791
 8111SOL     OW25932   5.888   4.968   3.827 -0.3294  1.0261  0.2308
 8111SOL    HW125933   5.849   5.054   3.795  0.5267  0.7877 -1.5326
 8111SOL    HW225934   5.985   4.981   3.849  0.5231  0.0006 -2.5565
 8112SOL     OW25935   2.497   5.816   0.596  0.0174 -0.5608 -0.1328
 8112SOL    HW125936   2.541   5.902   0.572  1.4542 -0.9473  1.0072
 8112SOL    HW225937   2.560   5.740   0.580 -0.5937 -1.2336  0.5462
 8113SOL     OW25938   2.595   4.859   1.983  0.0410  0.1489  0.4482
 8113SOL    HW125939   2.597   4.942   2.038  1.3966  1.1062 -0.9732
 8113SOL    HW225940   2.500   4.841   1.954 -0.1654  1.7115  0.0540
 8114SOL     OW25941   2.956   2.883   3.615 -0.3251  0.9511 -0.6279
 8114SOL    HW125942   3.046   2.856   3.652  0.3157  0.4620 -2.4640
 8114SOL    HW225943   2.892   2.895   3.691  0.6541 -0.9991  0.5948
 8115SOL     OW25944   1.395   1.835   1.780 -0.0260  0.6050 -0.0152
 8115SOL    HW125945   1.390   1.736   1.771  2.1693  0.5210 -0.9411
 8115SOL    HW225946   1.491   1.864   1.777 -0.6770  2.9419 -2.3346
 8116SOL     OW25947   2.340   3.794   0.915 -0.3888 -0.3502  0.0924
 8116SOL    HW125948   2.275   3.837   0.979 -1.0351 -0.9550 -0.1371
 8116SOL    HW225949   2.382   3.864   0.858 -1.6149 -0.0253 -0.4505
 8117SOL     OW25950   1.955   5.001   0.236 -0.0648  0.0229 -0.6118
 8117SOL    HW125951   1.968   5.060   0.316  2.1614 -2.9702  1.4717
 8117SOL    HW225952   1.890   4.929   0.259  1.8720 -1.8705 -0.7651
 8118SOL     OW25953   3.929   5.672   1.509 -0.4073 -0.1362 -0.0004
 8118SOL    HW125954   3.976   5.717   1.433 -2.2159  0.3988 -0.8820
 8118SOL    HW225955   3.838   5.712   1.520 -0.3835 -0.5455  2.1590
 8119SOL     OW25956   0.058   6.958   6.599  0.1710 -0.2077  0.0232
 8119SOL    HW125957   0.078   6.939   6.695 -1.9097  0.5251  0.6639
 8119SOL    HW225958   0.022   6.875   6.556 -1.0352  0.0171  0.5406
 8120SOL     OW25959   5.330   2.930   1.891  0.0254  0.1799  0.7648
 8120SOL    HW125960   5.408   2.900   1.946  0.5157  0.4413  0.2260
 8120SOL    HW225961   5.341   2.896   1.797 -0.5079  0.2289  0.6796
 8121SOL     OW25962   3.449   3.671   0.827 -0.9290 -0.3299  0.4016
 8121SOL    HW125963   3.424   3.575   0.842  0.2509 -0.8673 -0.8843
 8121SOL    HW225964   3.548   3.681   0.832 -1.0230  0.7853  0.2349
 8122SOL     OW25965   0.734   1.203   3.757 -0.6848  0.1434 -0.1661
 8122SOL    HW125966   0.719   1.213   3.659  0.0844  0.6053 -0.2504
 8122SOL    HW225967   0.647   1.212   3.806 -0.9134  1.0589 -0.7263
 8123SOL     OW25968   1.053   5.728   4.265 -0.6786 -0.4522  0.1982
 8123SOL    HW125969   1.109   5.808   4.287  0.4798 -0.7119 -1.6212
 8123SOL    HW225970   1.109   5.645   4.273 -1.5265 -0.9854  0.8209
 8124SOL     OW25971   2.778   3.774   0.595 -0.6905  0.2359  0.0912
 8124SOL    HW125972   2.801   3.815   0.684  0.0153 -1.4039  0.6911
 8124SOL    HW225973   2.851   3.793   0.530 -0.8913  0.8642  0.0419
 8125SOL     OW25974   3.795   6.749   5.058  0.7946 -0.5390 -0.0568
 8125SOL    HW125975   3.717   6.702   5.018  0.9523 -0.4274 -0.5026
 8125SOL    HW225976   3.875   6.689   5.055  0.8412 -0.4777 -0.0430
 8126SOL     OW25977   0.634   1.463   6.766 -0.1327  0.0514 -0.6795
 8126SOL    HW125978   0.652   1.544   6.711  1.3196 -0.4718 -1.0277
 8126SOL    HW225979   0.606   1.388   6.707 -1.6410  0.3180 -0.3387
 8127SOL     OW25980   3.672   1.418   0.226  0.3727 -0.2290  0.1971
 8127SOL    HW125981   3.588   1.436   0.277  0.0360 -0.6144 -0.2166
 8127SOL    HW225982   3.751   1.437   0.285  0.0355  1.5137  0.1451
 8128SOL     OW25983   2.287   1.902   5.514  0.4645  0.6476 -0.9173
 8128SOL    HW125984   2.375   1.944   5.491  1.6411  0.0478  2.0598
 8128SOL    HW225985   2.244   1.953   5.588 -1.2153  0.2833 -1.5906
 8129SOL     OW25986   2.351   5.004   2.855  0.6727 -0.0788  0.2914
 8129SOL    HW125987   2.374   5.101   2.854  0.1167  0.0565 -0.7886
 8129SOL    HW225988   2.425   4.952   2.898  2.5743  0.4337 -2.1596
 8130SOL     OW25989   1.014   5.239   1.693  0.1597  0.1620 -0.5795
 8130SOL    HW125990   0.996   5.142   1.683 -3.1163  0.7357 -1.4619
 8130SOL    HW225991   1.113   5.255   1.697  0.8005 -3.3091  1.6584
 8131SOL     OW25992   5.917   0.698   2.896 -0.3970 -0.0124 -0.4701
 8131SOL    HW125993   5.866   0.642   2.962  0.4002  1.0291  1.1026
 8131SOL    HW225994   5.858   0.770   2.861 -0.0798  1.2176  1.3751
 8132SOL     OW25995   4.315   1.376   4.711  0.0134  0.3024 -0.2751
 8132SOL    HW125996   4.271   1.383   4.801 -2.7101 -0.2747 -1.4538
 8132SOL    HW225997   4.392   1.314   4.717 -0.0169  0.3764  1.6829
 8133SOL     OW25998   4.012   0.753   1.805 -0.7348 -0.0919 -0.1882
 8133SOL    HW125999   3.994   0.738   1.903  1.0159 -0.2505  0.1580
 8133SOL    HW226000   3.986   0.671   1.754 -0.6873 -0.4212  0.3031
 8134SOL     OW26001   0.732   4.043   1.382 -0.2433 -0.2229  0.0871
 8134SOL    HW126002   0.798   4.059   1.456  0.9190 -1.0363 -0.7332
 8134SOL    HW226003   0.775   4.064   1.294 -0.8871 -1.3361 -0.5130
 8135SOL     OW26004   1.399   3.390   1.575 -0.3280  0.0294  0.9023
 8135SOL    HW126005   1.303   3.410   1.594 -1.3393 -3.2940 -0.0132
 8135SOL    HW226006   1.436   3.332   1.647  1.1133  1.5111  1.3854
 8136SOL     OW26007   4.571   2.833   6.448  0.1446  0.2193 -0.9772
 8136SOL    HW126008   4.491   2.892   6.458  0.6591  1.0597 -1.6279
 8136SOL    HW226009   4.588   2.817   6.351 -1.0923 -2.5860 -0.8193
 8137SOL     OW26010   1.015   1.151   5.872  0.2842  0.2087  0.5784
 8137SOL    HW126011   0.917   1.144   5.893 -0.2407  3.2609 -0.2542
 8137SOL    HW226012   1.065   1.174   5.955 -0.1985  1.5596  0.5283
 8138SOL     OW26013   1.831   5.610   1.816 -0.0266  0.4442  0.5706
 8138SOL    HW126014   1.882   5.681   1.767 -1.8791  0.1153 -2.0004
 8138SOL    HW226015   1.736   5.608   1.784 -1.0461 -0.6751  3.3478
 8139SOL     OW26016   6.171   5.448   3.482  0.1819 -0.4804 -0.1325
 8139SOL    HW126017   6.223   5.479   3.402 -1.5238  1.8761 -0.4531
 8139SOL    HW226018   6.232   5.433   3.559  1.6025 -0.5216 -1.2298
 8140SOL     OW26019   3.528   3.921   0.703  0.3932  0.0906  0.0566
 8140SOL    HW126020   3.456   3.986   0.724  0.3775  0.2648 -0.5172
 8140SOL    HW226021   3.502   3.830   0.735  0.3876  0.3481  0.8047
 8141SOL     OW26022   4.819   2.145   1.135  0.1822 -0.1171  0.6429
 8141SOL    HW126023   4.859   2.235   1.152  1.4843 -0.5052 -0.2416
 8141SOL    HW226024   4.732   2.156   1.085  0.1775  0.6514  0.8119
 8142SOL     OW26025   0.179   1.562   6.500  0.1561  0.3944  0.2778
 8142SOL    HW126026   0.192   1.530   6.594  1.3480  0.1314  0.0455
 8142SOL    HW226027   0.248   1.631   6.478 -1.2398  1.8145  0.1626
 8143SOL     OW26028   2.798   2.390   1.415  0.4640 -0.2956 -0.0589
 8143SOL    HW126029   2.717   2.332   1.404  1.0420 -0.9063 -1.3327
 8143SOL    HW226030   2.807   2.417   1.510 -1.8974  0.7666 -0.0620
 8144SOL     OW26031   5.493   3.313   3.964  0.6951 -0.0854 -0.8046
 8144SOL    HW126032   5.562   3.346   4.029 -1.3253  0.4049  1.2183
 8144SOL    HW226033   5.438   3.390   3.931 -0.0105 -0.6657 -1.0135
 8145SOL     OW26034   4.068   5.481   0.891 -0.0391  0.3330  0.3038
 8145SOL    HW126035   4.043   5.575   0.867  2.2350  0.8821 -0.1863
 8145SOL    HW226036   4.165   5.478   0.917 -0.3132 -1.7204  1.3079
 8146SOL     OW26037   2.338   6.671   6.673 -0.7679  0.6761  0.7004
 8146SOL    HW126038   2.291   6.616   6.742 -1.8742 -3.5229 -2.9660
 8146SOL    HW226039   2.434   6.643   6.669 -0.8351  0.5094  0.2146
 8147SOL     OW26040   2.148   6.224   4.561 -0.5529 -0.0799 -0.5133
 8147SOL    HW126041   2.136   6.188   4.469  0.0367 -0.1276 -0.5804
 8147SOL    HW226042   2.241   6.262   4.569 -1.3350  1.9835 -0.6372
 8148SOL     OW26043   3.459   1.238   2.580 -0.4939 -0.2888 -0.2841
 8148SOL    HW126044   3.544   1.286   2.561  0.0675 -1.3134 -0.4093
 8148SOL    HW226045   3.454   1.214   2.677 -0.9190  0.2854 -0.1583
 8149SOL     OW26046   5.320   3.818   6.243 -0.4593 -0.0852 -0.2904
 8149SOL    HW126047   5.363   3.739   6.287 -1.8680 -0.9043 -0.3086
 8149SOL    HW226048   5.364   3.902   6.273 -0.5474 -0.7026  1.6895
 8150SOL     OW26049   1.767   0.403   5.751 -0.1385  0.4056 -0.2075
 8150SOL    HW126050   1.838   0.355   5.700 -1.6371 -2.4492  0.1691
 8150SOL    HW226051   1.734   0.480   5.697  0.3015 -0.7979 -2.3205
 8151SOL     OW26052   6.414   2.666   0.581  0.0944  0.2256  0.0409
 8151SOL    HW126053   6.474   2.746   0.577  2.1645 -1.2382  0.2972
 8151SOL    HW226054   6.407   2.626   0.489 -2.7116  1.8691 -0.5524
 8152SOL     OW26055   4.649   5.825   5.224  0.6883 -0.1751  0.0114
 8152SOL    HW126056   4.681   5.768   5.299 -2.2231 -0.2019  1.3694
 8152SOL    HW226057   4.620   5.914   5.260  0.4667  0.3059 -1.2921
 8153SOL     OW26058   1.286   0.326   4.396  0.5411 -0.4678 -0.2383
 8153SOL    HW126059   1.342   0.355   4.319 -0.2169  0.9397 -0.2960
 8153SOL    HW226060   1.281   0.227   4.398  1.7643 -0.5738 -1.1278
 8154SOL     OW26061   2.656   3.061   0.513 -0.2478 -0.2983 -0.1959
 8154SOL    HW126062   2.707   3.076   0.428  1.9174  0.6186  1.1913
 8154SOL    HW226063   2.719   3.054   0.589 -2.1977  0.8783  1.6481
 8155SOL     OW26064   0.484   6.126   3.940 -0.1172 -0.2498 -0.4088
 8155SOL    HW126065   0.565   6.164   3.984 -1.0901 -0.5200  1.7316
 8155SOL    HW226066   0.500   6.029   3.918  0.0972 -0.3376  0.1258
 8156SOL     OW26067   6.605   5.314   1.027 -0.4033 -0.1203  0.1551
 8156SOL    HW126068   6.611   5.413   1.014  0.8399 -0.4088 -1.8860
 8156SOL    HW226069   6.676   5.269   0.973 -0.1018 -2.0857  2.0629
 8157SOL     OW26070   1.617   4.718   0.087  0.6764  0.2139  0.2504
 8157SOL    HW126071   1.519   4.732   0.073  1.1522  1.4821 -2.5998
 8157SOL    HW226072   1.647   4.638   0.036  1.4419  1.1873 -0.9069
 8158SOL     OW26073   2.152   2.123   5.662 -0.5092  0.0070  0.6440
 8158SOL    HW126074   2.075   2.165   5.711 -0.4515 -1.4300  2.0510
 8158SOL    HW226075   2.194   2.191   5.602 -0.7440  1.8264  2.4142
 8159SOL     OW26076   6.825   3.145   3.497 -0.2725  0.6296 -0.1492
 8159SOL    HW126077   6.856   3.148   3.592 -0.7090 -0.3721  0.0381
 8159SOL    HW226078   6.787   3.234   3.472 -0.5830  0.7683  0.7571
 8160SOL     OW26079   4.697   5.165   1.496 -0.9619  0.0884  0.1834
 8160SOL    HW126080   4.685   5.156   1.397 -0.1751 -0.0576  0.0974
 8160SOL    HW226081   4.776   5.223   1.515 -1.7628  1.0296  0.7354
 8161SOL     OW26082   6.630   6.711   6.973 -0.2320  0.7190  0.3139
 8161SOL    HW126083   6.566   6.754   7.037 -1.2540  0.9313 -0.8176
 8161SOL    HW226084   6.670   6.629   7.015 -2.5568 -0.4180  0.4603
 8162SOL     OW26085   1.551   5.462   5.199  0.8252 -0.2033  0.5078
 8162SOL    HW126086   1.621   5.421   5.140  1.5640  4.2190 -2.1335
 8162SOL    HW226087   1.466   5.474   5.146 -0.0024 -0.1488  1.8138
 8163SOL     OW26088   1.178   6.522   7.007  0.5989  0.4958  0.3834
 8163SOL    HW126089   1.223   6.433   7.000 -3.4340 -1.6307 -1.8033
 8163SOL    HW226090   1.176   6.551   7.103  0.3868 -2.7696  1.4831
 8164SOL     OW26091   1.237   2.567   2.333  0.3362  0.3902 -0.3657
 8164SOL    HW126092   1.149   2.538   2.296 -0.0702  0.2451  0.6618
 8164SOL    HW226093   1.305   2.495   2.318 -0.3471 -0.5951  1.0183
 8165SOL     OW26094   3.217   4.345   5.528 -0.0122  0.3870 -0.4198
 8165SOL    HW126095   3.165   4.428   5.506 -0.8767 -0.4552 -1.6461
 8165SOL    HW226096   3.154   4.272   5.553  0.7658  0.1739  1.0175
 8166SOL     OW26097   3.842   6.384   4.900 -0.5093  0.4910  0.5524
 8166SOL    HW126098   3.887   6.368   4.812 -2.1367  1.2201 -0.4605
 8166SOL    HW226099   3.892   6.454   4.951  0.1319  0.4707 -0.0250
 8167SOL     OW26100   6.048   3.157   4.301 -0.1368  0.1863 -0.3541
 8167SOL    HW126101   6.106   3.185   4.224 -0.2201  1.0441 -0.1167
 8167SOL    HW226102   6.105   3.136   4.380 -0.0415 -0.8317 -0.6743
 8168SOL     OW26103   3.802   6.020   1.620  0.2632 -0.1549  0.5063
 8168SOL    HW126104   3.839   5.990   1.708  1.6445 -0.7690 -0.2396
 8168SOL    HW226105   3.878   6.042   1.558 -0.6181 -1.2001 -1.0169
 8169SOL     OW26106   2.768   0.828   6.322  0.7250 -0.4145  0.3231
 8169SOL    HW126107   2.864   0.830   6.293  0.6184 -1.1023 -0.0929
 8169SOL    HW226108   2.726   0.917   6.306  1.5133  0.1545  1.2894
 8170SOL     OW26109   6.327   3.555   3.983 -0.3625 -0.2407  0.8296
 8170SOL    HW126110   6.378   3.521   4.061  2.4978  0.7976 -0.4657
 8170SOL    HW226111   6.315   3.654   3.991  1.2574  0.1189 -0.6668
 8171SOL     OW26112   3.710   6.538   0.691  0.0542 -0.5468 -0.1962
 8171SOL    HW126113   3.769   6.577   0.620  0.4210  3.5252  2.0663
 8171SOL    HW226114   3.614   6.550   0.665  0.1786  1.2415  0.0354
 8172SOL     OW26115   0.060   4.979   6.676 -0.0880 -0.5128  0.0945
 8172SOL    HW126116   0.137   5.043   6.676 -1.7387  1.5876 -0.0102
 8172SOL    HW226117   0.032   4.961   6.582  1.0441 -2.3363  0.0610
 8173SOL     OW26118   0.678   3.483   1.367 -0.0100 -0.5199  0.6033
 8173SOL    HW126119   0.630   3.474   1.454 -0.3370 -0.5914  0.4200
 8173SOL    HW226120   0.742   3.560   1.372  1.5495 -1.8428  1.6013
 8174SOL     OW26121   5.830   2.163   5.745 -0.4263  0.2121  0.1076
 8174SOL    HW126122   5.745   2.110   5.751 -0.3838  0.1922  0.5774
 8174SOL    HW226123   5.871   2.151   5.655 -0.9838  0.3127 -0.1590
 8175SOL     OW26124   4.503   2.199   5.303  0.2899 -0.3529  0.8349
 8175SOL    HW126125   4.471   2.291   5.326 -1.1609 -0.9662  1.3710
 8175SOL    HW226126   4.431   2.132   5.324  1.4155 -1.6428  0.6934
 8176SOL     OW26127   0.061   1.359   6.347  0.2567  0.1876  0.3223
 8176SOL    HW126128   0.113   1.428   6.398  0.8023 -1.2384  1.7970
 8176SOL    HW226129  -0.034   1.387   6.339  0.2547  0.6537  1.8041
 8177SOL     OW26130   1.498   5.356   5.452 -0.4656 -0.1988 -0.2862
 8177SOL    HW126131   1.511   5.392   5.360 -0.5575 -1.9979 -1.0334
 8177SOL    HW226132   1.502   5.432   5.518  4.7543  0.6633 -1.1991
 8178SOL     OW26133   6.855   1.365   5.993 -0.3292 -0.3120 -0.1430
 8178SOL    HW126134   6.889   1.449   5.950  0.4666  0.7833  2.4321
 8178SOL    HW226135   6.929   1.298   5.998 -0.3184 -0.3010 -0.1572
 8179SOL     OW26136   0.130   3.134   5.423 -0.4180 -0.2775  0.6306
 8179SOL    HW126137   0.220   3.174   5.443 -0.6444  0.0322  1.0282
 8179SOL    HW226138   0.090   3.099   5.507 -0.3867 -1.0127  0.3459
 8180SOL     OW26139   1.478   5.995   3.329  0.1156  0.1217 -0.2037
 8180SOL    HW126140   1.444   6.082   3.366 -0.0745 -0.1644  0.3042
 8180SOL    HW226141   1.482   6.001   3.229 -1.0367  0.3118 -0.2564
 8181SOL     OW26142   4.105   6.569   3.333 -0.1710  0.0693  0.2883
 8181SOL    HW126143   4.038   6.545   3.263  1.1762  0.5151 -1.2254
 8181SOL    HW226144   4.137   6.663   3.318  3.7780 -1.3725 -1.7228
 8182SOL     OW26145   2.611   1.536   0.828 -0.7365 -0.2260 -0.0839
 8182SOL    HW126146   2.589   1.616   0.772  0.9812 -0.4084 -1.0938
 8182SOL    HW226147   2.556   1.458   0.799 -2.1242  0.4422  0.6330
 8183SOL     OW26148   5.477   1.492   0.235 -0.2447  0.5295 -0.0066
 8183SOL    HW126149   5.463   1.591   0.233 -1.3262  0.4007 -1.7134
 8183SOL    HW226150   5.390   1.447   0.212 -0.1035 -0.8779  2.0169
 8184SOL     OW26151   5.706   1.545   6.400 -0.2946  0.0522  0.5289
 8184SOL    HW126152   5.742   1.621   6.456 -1.2014  1.1106 -0.2680
 8184SOL    HW226153   5.715   1.568   6.303  1.6826 -1.9657  0.1487
 8185SOL     OW26154   5.007   5.157   1.412 -0.3597 -0.4905 -0.2706
 8185SOL    HW126155   4.964   5.105   1.338  0.4338 -0.5975 -0.6616
 8185SOL    HW226156   4.998   5.255   1.393 -0.3111 -0.5151 -0.4208
 8186SOL     OW26157   2.728   3.166   1.999  0.9834  0.0566 -0.5472
 8186SOL    HW126158   2.695   3.082   2.041 -0.2220  1.1864  0.9128
 8186SOL    HW226159   2.691   3.174   1.906  1.0407 -0.9677 -0.6678
 8187SOL     OW26160   5.728   2.007   5.263 -0.3289  0.3169  0.3316
 8187SOL    HW126161   5.732   1.908   5.276 -0.7254  0.4875  1.9543
 8187SOL    HW226162   5.632   2.035   5.251 -0.0806  0.3003 -2.3391
 8188SOL     OW26163   4.395   5.529   1.619  0.0347 -0.8702  0.1295
 8188SOL    HW126164   4.379   5.521   1.521  2.8274 -1.6527 -0.3703
 8188SOL    HW226165   4.348   5.609   1.655 -0.2503 -0.0102 -2.0511
 8189SOL     OW26166   1.677   0.585   5.556  0.1725  0.1073 -0.1282
 8189SOL    HW126167   1.584   0.611   5.584  0.3952  0.0769  0.6728
 8189SOL    HW226168   1.703   0.636   5.474 -0.8736 -0.5218 -0.8670
 8190SOL     OW26169   5.992   3.875   2.645  0.1667 -0.1065 -0.6351
 8190SOL    HW126170   6.040   3.895   2.560  0.9750 -0.0652 -0.1750
 8190SOL    HW226171   6.047   3.904   2.723 -1.0132  0.8314 -0.1112
 8191SOL     OW26172   6.140   2.054   1.243 -0.2163 -0.0681 -0.0918
 8191SOL    HW126173   6.223   2.051   1.187 -0.7049 -0.4469 -0.8178
 8191SOL    HW226174   6.163   2.032   1.337  0.2520 -2.0625 -0.6114
 8192SOL     OW26175   2.475   1.526   4.259 -0.3358  0.3643  0.2645
 8192SOL    HW126176   2.566   1.498   4.228  0.4539  2.4898  0.4702
 8192SOL    HW226177   2.465   1.625   4.244 -2.5223  0.2099  0.5055
 8193SOL     OW26178   2.733   2.528   2.129  0.6582 -0.1438 -0.3525
 8193SOL    HW126179   2.804   2.598   2.121  0.1954  0.7123  2.0235
 8193SOL    HW226180   2.682   2.521   2.044  0.9158  2.2113 -0.7449
 8194SOL     OW26181   0.516   4.796   5.624  0.2946  0.6099 -0.1482
 8194SOL    HW126182   0.559   4.746   5.699 -1.0410 -1.5522 -0.7180
 8194SOL    HW226183   0.452   4.863   5.660  2.4972  2.3831  0.6563
 8195SOL     OW26184   5.624   1.762   3.138 -0.3442  0.4742  0.7449
 8195SOL    HW126185   5.561   1.704   3.087  0.0883 -0.1909  0.9613
 8195SOL    HW226186   5.699   1.790   3.078  1.1790 -1.8319  1.4338
 8196SOL     OW26187   2.793   0.379   2.060  0.4644  0.6109 -0.9763
 8196SOL    HW126188   2.706   0.338   2.034  0.3866 -1.7629  2.4004
 8196SOL    HW226189   2.842   0.409   1.978 -2.1125 -0.8672 -3.2118
 8197SOL     OW26190   1.449   3.610   0.278 -0.3550 -0.7307 -0.3035
 8197SOL    HW126191   1.438   3.709   0.288  0.6355 -0.6296 -0.0799
 8197SOL    HW226192   1.546   3.587   0.289 -0.7416 -1.8663  0.7961
 8198SOL     OW26193   5.676   0.074   4.215  0.6554 -0.0618  0.2721
 8198SOL    HW126194   5.605   0.094   4.148 -0.3237 -2.5704  0.4632
 8198SOL    HW226195   5.765   0.101   4.178 -0.0667  0.3956 -1.2021
 8199SOL     OW26196   5.303   6.124   5.427 -0.2461  0.0970  0.3048
 8199SOL    HW126197   5.382   6.103   5.370 -0.7365 -0.4266 -0.1989
 8199SOL    HW226198   5.289   6.223   5.430  1.5546  0.3497  1.9669
 8200SOL     OW26199   0.371   4.474   1.536  0.9166  0.4533 -0.4051
 8200SOL    HW126200   0.281   4.485   1.494  1.2279  2.7380 -0.5893
 8200SOL    HW226201   0.434   4.433   1.470  0.6489  1.2329 -1.1599
 8201SOL     OW26202   0.978   6.709   2.183  0.0391 -0.0627  0.0353
 8201SOL    HW126203   1.048   6.780   2.175  0.2389 -0.1721  0.7233
 8201SOL    HW226204   1.017   6.620   2.159  0.0978 -0.0983  0.2537
 8202SOL     OW26205   3.723   0.023   3.310 -0.5949  1.0012  0.1427
 8202SOL    HW126206   3.821   0.023   3.289 -0.9099  2.8779 -1.5871
 8202SOL    HW226207   3.671   0.004   3.226 -1.7478  0.9140  0.8583
 8203SOL     OW26208   1.465   3.692   6.135 -0.1429  0.0795 -0.2477
 8203SOL    HW126209   1.542   3.629   6.148  0.6631  0.5540 -2.4557
 8203SOL    HW226210   1.491   3.784   6.164  0.3714  0.3643 -1.5458
 8204SOL     OW26211   5.553   1.739   1.205 -0.1550 -0.0681 -0.0694
 8204SOL    HW126212   5.533   1.768   1.299 -0.3902 -0.7876  0.1096
 8204SOL    HW226213   5.482   1.775   1.144 -1.2007 -1.3478  0.3461
 8205SOL     OW26214   6.479   5.848   1.832 -0.2747  0.0417  0.0843
 8205SOL    HW126215   6.494   5.750   1.841 -0.8372 -0.2061 -1.3178
 8205SOL    HW226216   6.494   5.893   1.920  1.6134 -1.0646  0.3885
 8206SOL     OW26217   4.539   6.980   6.007 -0.4719 -0.2137  0.1027
 8206SOL    HW126218   4.539   7.043   6.085  2.5980 -1.7095  1.5006
 8206SOL    HW226219   4.490   7.022   5.931  0.5506  3.4426  1.2250
 8207SOL     OW26220   3.330   0.830   1.149 -0.2796 -0.4110 -0.4185
 8207SOL    HW126221   3.419   0.785   1.154 -0.3853 -0.6641 -0.7455
 8207SOL    HW226222   3.329   0.910   1.209  0.4892  0.1441 -1.1360
 8208SOL     OW26223   3.870   5.220   5.051  0.2540 -0.2993  0.3348
 8208SOL    HW126224   3.792   5.158   5.051  1.1035 -1.4546  1.9311
 8208SOL    HW226225   3.889   5.252   4.958 -1.6125 -0.6015 -0.1776
 8209SOL     OW26226   6.708   2.651   0.332 -0.2324  0.3947  0.0833
 8209SOL    HW126227   6.613   2.677   0.319  0.0288  0.8436 -1.1194
 8209SOL    HW226228   6.718   2.553   0.313 -0.4676  0.3247  0.3167
 8210SOL     OW26229   1.473   1.248   4.424 -0.2178  0.2286  0.1983
 8210SOL    HW126230   1.429   1.313   4.363 -0.7050 -0.1745  0.1087
 8210SOL    HW226231   1.441   1.155   4.403 -1.1239  0.1667  1.6586
 8211SOL     OW26232   6.601   3.940   5.575 -0.2232  0.1545  0.0313
 8211SOL    HW126233   6.634   4.031   5.551 -0.3846 -0.0422 -1.0056
 8211SOL    HW226234   6.556   3.899   5.495 -0.7072 -0.5847  0.6666
 8212SOL     OW26235   3.228   3.437   1.780 -0.0708  0.2004 -0.5792
 8212SOL    HW126236   3.201   3.532   1.793  0.3990  0.1120  1.4225
 8212SOL    HW226237   3.236   3.392   1.869 -3.3721 -2.6471 -1.4729
 8213SOL     OW26238   5.154   0.539   3.542  0.1019 -0.2827  0.2894
 8213SOL    HW126239   5.078   0.559   3.605  0.1729  1.4425 -0.1201
 8213SOL    HW226240   5.168   0.617   3.482  3.3335  0.2037  1.4730
 8214SOL     OW26241   1.533   3.001   3.133  0.1691  0.3195 -0.6237
 8214SOL    HW126242   1.567   3.092   3.154  2.7769 -0.4397 -1.1601
 8214SOL    HW226243   1.544   2.942   3.213 -0.0219  0.1002 -0.7576
 8215SOL     OW26244   5.882   4.686   6.492 -0.5380  0.1667  0.7084
 8215SOL    HW126245   5.836   4.599   6.474 -1.3926  0.8113 -0.3322
 8215SOL    HW226246   5.980   4.669   6.508  0.1299 -0.7164 -3.3065
 8216SOL     OW26247   6.492   6.916   4.150  0.1813 -0.1399 -0.2815
 8216SOL    HW126248   6.531   6.858   4.079 -0.8151  0.1341 -1.0708
 8216SOL    HW226249   6.564   6.973   4.190  0.9222 -0.9769 -0.3953
 8217SOL     OW26250   5.619   4.211   1.612 -0.4099  0.2804 -0.2091
 8217SOL    HW126251   5.556   4.203   1.534 -0.5009 -0.7561 -0.0380
 8217SOL    HW226252   5.712   4.194   1.581 -0.2513  1.3124 -0.3601
 8218SOL     OW26253   1.179   1.284   6.624 -0.2895  0.3474 -0.1971
 8218SOL    HW126254   1.205   1.333   6.708  0.1493 -0.4736  0.1588
 8218SOL    HW226255   1.171   1.349   6.549 -2.8922  1.4607  0.9146
 8219SOL     OW26256   2.985   5.737   4.934 -0.0626  1.1218 -0.4128
 8219SOL    HW126257   2.993   5.717   4.836  1.4475 -2.5308  0.3234
 8219SOL    HW226258   2.896   5.780   4.951 -1.2002  0.1114 -3.1506
 8220SOL     OW26259   3.417   6.076   6.706  0.2591  0.1129  0.0738
 8220SOL    HW126260   3.442   6.143   6.636 -1.4437 -1.4880 -2.2296
 8220SOL    HW226261   3.326   6.039   6.686  0.6857 -2.1319  1.8203
 8221SOL     OW26262   6.681   5.275   1.306  0.1451  0.0590  0.0434
 8221SOL    HW126263   6.671   5.309   1.213  0.0919 -0.2371 -0.0598
 8221SOL    HW226264   6.670   5.176   1.307  1.0955 -0.0572  0.2189
 8222SOL     OW26265   0.977   2.299   2.640  0.1304  0.7502 -0.0730
 8222SOL    HW126266   1.036   2.336   2.712  0.3611 -2.9945  1.9008
 8222SOL    HW226267   1.034   2.253   2.571 -0.2965  0.2720 -0.1110
 8223SOL     OW26268   1.850   2.865   6.168  0.3172  0.1916 -0.4945
 8223SOL    HW126269   1.948   2.855   6.183  0.0179 -1.7782  0.3931
 8223SOL    HW226270   1.812   2.780   6.131 -1.2629  0.4224  0.4687
 8224SOL     OW26271   6.871   2.300   4.200  0.4345 -0.8670 -0.9410
 8224SOL    HW126272   6.825   2.377   4.245  1.8985  0.6260 -1.8899
 8224SOL    HW226273   6.833   2.214   4.234  0.5183  0.1922  2.1290
 8225SOL     OW26274   2.735   1.370   0.117  0.3740  0.0475 -0.4163
 8225SOL    HW126275   2.679   1.438   0.164  0.8317 -0.3007  0.6509
 8225SOL    HW226276   2.830   1.379   0.146  0.3248 -1.5322  0.3244
 8226SOL     OW26277   1.835   1.672   0.969  0.7320 -0.4898  0.1246
 8226SOL    HW126278   1.877   1.600   1.024 -0.7084 -0.9991  0.6017
 8226SOL    HW226279   1.772   1.726   1.025 -0.2071 -0.5561 -0.8200
 8227SOL     OW26280   5.624   6.081   1.476 -0.4934  0.6750 -0.1711
 8227SOL    HW126281   5.615   6.059   1.573 -0.1116 -1.8165 -0.6313
 8227SOL    HW226282   5.611   5.998   1.422 -0.5156  1.9704 -2.2624
 8228SOL     OW26283   5.410   4.489   6.542 -0.3764 -0.2015  0.1882
 8228SOL    HW126284   5.327   4.436   6.563 -0.9255  0.1846 -0.9252
 8228SOL    HW226285   5.414   4.570   6.600 -2.3941  1.3902 -1.7377
 8229SOL     OW26286   1.191   0.106   3.129  0.2279  0.0326 -0.0068
 8229SOL    HW126287   1.290   0.100   3.139  0.1042  0.6772  2.1952
 8229SOL    HW226288   1.166   0.095   3.033  2.3932 -0.4220 -0.5705
 8230SOL     OW26289   5.956   4.752   1.546  0.5287  0.1984 -0.6466
 8230SOL    HW126290   6.055   4.743   1.557  0.5916 -0.5252 -1.6810
 8230SOL    HW226291   5.933   4.849   1.536  0.9921  0.4731  0.6491
 8231SOL     OW26292   0.805   6.497   1.041 -0.3792  0.1634 -0.2593
 8231SOL    HW126293   0.751   6.498   0.957 -1.3335 -0.6017  0.3190
 8231SOL    HW226294   0.744   6.500   1.120  0.5216  1.4950  0.4211
 8232SOL     OW26295   1.961   4.831   3.154 -0.4377 -0.1312  0.3114
 8232SOL    HW126296   2.054   4.858   3.179 -0.1832 -0.9844  0.2966
 8232SOL    HW226297   1.899   4.847   3.232 -0.2552  0.2698  0.3777
 8233SOL     OW26298   6.757   0.712   0.720 -0.0416 -0.5390 -0.7246
 8233SOL    HW126299   6.774   0.800   0.766  0.1912 -0.7699 -0.3638
 8233SOL    HW226300   6.833   0.650   0.739  0.7307 -0.2078 -2.5062
 8234SOL     OW26301   4.086   0.342   6.254  0.0380  0.5449 -0.2478
 8234SOL    HW126302   4.104   0.320   6.350  0.0230 -1.1675 -0.6039
 8234SOL    HW226303   3.991   0.373   6.244  0.4161  1.9735  0.4625
 8235SOL     OW26304   4.386   5.741   5.758 -0.7247 -0.2358 -0.3929
 8235SOL    HW126305   4.423   5.648   5.765 -0.3465 -0.1413 -1.0283
 8235SOL    HW226306   4.360   5.773   5.849  0.8349 -0.2803  0.1044
 8236SOL     OW26307   3.500   0.397   4.218  1.0486 -0.2242 -0.5772
 8236SOL    HW126308   3.496   0.354   4.128  0.6122  0.6787 -1.0052
 8236SOL    HW226309   3.439   0.477   4.219  1.0750 -0.2039  0.5072
 8237SOL     OW26310   2.675   0.068   3.914  0.1182 -0.1724 -0.5361
 8237SOL    HW126311   2.676  -0.031   3.929  0.7030  0.0333  0.9831
 8237SOL    HW226312   2.724   0.089   3.830  1.6902 -1.0494  0.1101
 8238SOL     OW26313   5.956   3.872   1.517  0.1103 -0.2320  0.1212
 8238SOL    HW126314   5.929   3.778   1.539  0.4290 -0.0972  1.1567
 8238SOL    HW226315   6.011   3.909   1.592  1.5345  0.1602 -1.0681
 8239SOL     OW26316   2.587   5.712   1.235 -0.3547 -0.0150  0.2987
 8239SOL    HW126317   2.525   5.645   1.276 -0.2546  0.7530  1.7945
 8239SOL    HW226318   2.547   5.803   1.241  0.2900  0.2986 -0.0164
 8240SOL     OW26319   1.592   6.443   6.431 -0.2808  0.3203  0.3537
 8240SOL    HW126320   1.536   6.422   6.350  0.0989  0.5210  0.0367
 8240SOL    HW226321   1.688   6.444   6.405  0.1021 -2.4620  1.3771
 8241SOL     OW26322   5.767   0.768   4.135  0.9178 -0.3604  0.1355
 8241SOL    HW126323   5.671   0.793   4.149  1.7328  1.4723  3.4247
 8241SOL    HW226324   5.772   0.672   4.106 -1.8514 -0.9923  1.4072
 8242SOL     OW26325   1.436   5.134   4.526  0.0244  0.3901 -0.8529
 8242SOL    HW126326   1.470   5.136   4.432 -0.7784 -0.0032 -1.1674
 8242SOL    HW226327   1.497   5.187   4.585 -0.4479  2.2340 -1.9345
 8243SOL     OW26328   6.915   1.020   5.630  0.3338  0.1446 -0.6016
 8243SOL    HW126329   6.839   0.968   5.670  0.7492  1.4520  2.1122
 8243SOL    HW226330   6.884   1.112   5.609  0.9600  0.4723 -0.1310
 8244SOL     OW26331   4.961   0.268   1.606 -0.5715  0.4267 -0.7887
 8244SOL    HW126332   4.915   0.290   1.692 -0.1888  4.1372 -1.3319
 8244SOL    HW226333   4.907   0.202   1.555 -1.4544 -0.9035  1.6733
 8245SOL     OW26334   2.060   1.612   3.596  0.5725 -0.0854 -0.2143
 8245SOL    HW126335   2.054   1.532   3.656 -0.5793  0.9594  1.1158
 8245SOL    HW226336   2.142   1.664   3.617  0.0512  0.4096  0.6694
 8246SOL     OW26337   0.143   1.276   1.468  0.3320 -0.1166 -0.5732
 8246SOL    HW126338   0.200   1.354   1.493 -0.4025 -0.0176  0.9029
 8246SOL    HW226339   0.080   1.256   1.543 -2.4056  0.5272 -2.5559
 8247SOL     OW26340   1.633   0.906   2.870  0.6330 -0.3362 -0.5790
 8247SOL    HW126341   1.624   0.978   2.940 -0.1900 -0.5393 -0.4699
 8247SOL    HW226342   1.582   0.933   2.789 -3.7533 -2.7392  1.0248
 8248SOL     OW26343   1.795   4.239   0.525  0.1074 -0.6268 -0.0145
 8248SOL    HW126344   1.894   4.254   0.524  0.6470 -3.5446  0.4778
 8248SOL    HW226345   1.775   4.149   0.487 -2.1845 -0.9171  1.6834
 8249SOL     OW26346   6.503   3.287   4.382 -0.0726  0.2152  0.4035
 8249SOL    HW126347   6.578   3.264   4.444 -0.6032 -0.0274  0.9682
 8249SOL    HW226348   6.419   3.243   4.414 -0.6949  1.3593  0.3961
 8250SOL     OW26349   0.351   1.670   3.766  0.2117 -0.5940  0.6360
 8250SOL    HW126350   0.382   1.624   3.849  0.4414  0.2088  0.9949
 8250SOL    HW226351   0.321   1.763   3.788  2.5758  0.5221 -0.5356
 8251SOL     OW26352   4.251   3.661   5.474  0.6366 -0.3253 -0.5553
 8251SOL    HW126353   4.349   3.643   5.478  0.4957 -1.6229 -1.8793
 8251SOL    HW226354   4.231   3.714   5.392  0.1510 -0.7106 -0.6884
 8252SOL     OW26355   3.862   4.452   5.821 -0.1844 -0.9584 -0.3545
 8252SOL    HW126356   3.782   4.421   5.771  0.2255 -0.8083 -1.1211
 8252SOL    HW226357   3.911   4.520   5.766  1.2603 -2.1021 -0.5295
 8253SOL     OW26358   0.003   4.035   6.886 -0.5526 -0.1325  0.0810
 8253SOL    HW126359  -0.051   4.106   6.930  0.3367  1.6994 -1.6754
 8253SOL    HW226360  -0.052   3.988   6.817 -0.4939  0.3915 -0.3271
 8254SOL     OW26361   6.511   4.979   3.585  0.0981 -0.2054  0.2303
 8254SOL    HW126362   6.524   5.078   3.589  1.5643 -0.3402 -0.2824
 8254SOL    HW226363   6.447   4.950   3.656 -2.3194  1.3789 -1.1582
 8255SOL     OW26364   6.279   4.361   0.674  0.7531 -0.5297  0.1033
 8255SOL    HW126365   6.217   4.292   0.710  1.0503  0.1328  2.0196
 8255SOL    HW226366   6.352   4.317   0.621  0.4805 -1.6075  0.6014
 8256SOL     OW26367   0.457   2.802   3.256 -0.2589  0.0788 -0.1183
 8256SOL    HW126368   0.433   2.754   3.171  0.0551 -1.5480  0.6789
 8256SOL    HW226369   0.556   2.797   3.270 -0.4203 -0.6280  0.8794
 8257SOL     OW26370   6.097   6.184   3.969 -0.0856  0.1001  0.1748
 8257SOL    HW126371   6.024   6.131   3.925  0.3985 -0.5183  0.1103
 8257SOL    HW226372   6.145   6.127   4.035 -2.2107  1.5720  3.2594
 8258SOL     OW26373   5.456   2.039   3.815  0.3841 -0.2354 -0.2223
 8258SOL    HW126374   5.411   1.954   3.841 -0.9879  0.4791 -0.1148
 8258SOL    HW226375   5.511   2.025   3.733  1.2229 -1.5028  0.5382
 8259SOL     OW26376   3.277   4.546   6.550  0.5267  0.0591 -1.0844
 8259SOL    HW126377   3.372   4.555   6.520  0.6590  2.0045 -0.2411
 8259SOL    HW226378   3.247   4.452   6.538  1.3929  0.1242 -4.7400
 8260SOL     OW26379   3.818   4.560   6.456  0.4709  0.0558  0.4312
 8260SOL    HW126380   3.811   4.594   6.362  0.8662  1.3218  0.8370
 8260SOL    HW226381   3.841   4.636   6.517  0.2189 -0.7505  1.5562
 8261SOL     OW26382   6.520   5.791   0.875 -0.3909 -0.5316  0.5562
 8261SOL    HW126383   6.565   5.822   0.958  0.3408  0.6197 -0.2352
 8261SOL    HW226384   6.421   5.804   0.884 -0.6385 -2.9822  2.2626
 8262SOL     OW26385   5.957   5.070   3.095 -0.3344  0.1270  0.3240
 8262SOL    HW126386   5.919   4.999   3.155 -0.3036  0.5123  0.8086
 8262SOL    HW226387   6.039   5.108   3.137  1.5808 -1.8218 -1.4657
 8263SOL     OW26388   4.900   4.906   1.971  0.3773 -0.2086 -0.0223
 8263SOL    HW126389   4.870   4.998   1.944  0.1152 -0.3370 -0.1771
 8263SOL    HW226390   4.889   4.844   1.893 -0.3159 -0.5688  0.3501
 8264SOL     OW26391   5.178   0.830   4.998  0.2393 -0.4513 -0.2276
 8264SOL    HW126392   5.251   0.878   5.046  1.3150 -2.5842  0.3847
 8264SOL    HW226393   5.105   0.806   5.063  0.5560 -1.2075 -0.1435
 8265SOL     OW26394   1.388   6.361   1.289  0.2800  0.9979  0.2782
 8265SOL    HW126395   1.342   6.308   1.218 -1.2807 -0.1916  2.0721
 8265SOL    HW226396   1.387   6.310   1.375  1.3820  2.7131  1.3828
 8266SOL     OW26397   3.956   0.416   3.832  0.3406  0.3763  0.0234
 8266SOL    HW126398   3.875   0.411   3.890 -0.2903  0.1417 -0.8531
 8266SOL    HW226399   3.951   0.498   3.774  1.0412  0.6982  0.3998
 8267SOL     OW26400   6.276   2.098   4.265 -0.2246  0.0615 -0.0625
 8267SOL    HW126401   6.206   2.169   4.263 -1.6464 -1.2814  0.1667
 8267SOL    HW226402   6.356   2.128   4.213 -1.1632  1.4131 -0.7766
 8268SOL     OW26403   1.996   1.964   2.978 -0.3470 -0.0177 -0.3593
 8268SOL    HW126404   1.899   1.984   2.997 -0.1633 -0.0493  0.6600
 8268SOL    HW226405   2.053   2.028   3.029  0.1745  0.9792 -2.1100
 8269SOL     OW26406   1.100   5.265   6.573 -0.9200 -0.2149  0.1590
 8269SOL    HW126407   1.146   5.184   6.610 -0.9776  0.4393  1.7463
 8269SOL    HW226408   1.034   5.236   6.503 -1.4253 -1.6220  1.1671
 8270SOL     OW26409   6.735   4.847   3.546 -0.3049  0.0750  0.3126
 8270SOL    HW126410   6.660   4.906   3.576 -1.2659 -1.0882  0.3278
 8270SOL    HW226411   6.706   4.797   3.464  0.8763  0.4174 -0.3211
 8271SOL     OW26412   1.671   1.477   2.721  0.1491 -0.0468  0.3542
 8271SOL    HW126413   1.732   1.457   2.645 -1.8034  1.2320 -1.6766
 8271SOL    HW226414   1.725   1.491   2.804  2.3994 -0.9884 -0.8620
 8272SOL     OW26415   2.740   0.351   6.451  0.3904 -0.3517 -0.1532
 8272SOL    HW126416   2.818   0.367   6.390 -1.6171 -0.4006 -2.8967
 8272SOL    HW226417   2.675   0.290   6.407 -1.7838  0.5985  1.5631
 8273SOL     OW26418   6.743   0.649   3.375 -0.3735  0.4414  0.0512
 8273SOL    HW126419   6.835   0.688   3.369 -0.2719  0.3610  0.9488
 8273SOL    HW226420   6.748   0.558   3.416 -1.0664  1.3698  2.3344
 8274SOL     OW26421   3.357   6.327   2.105 -0.3087 -0.3871 -0.0687
 8274SOL    HW126422   3.325   6.318   2.011 -0.4240  0.5504 -0.1340
 8274SOL    HW226423   3.425   6.256   2.124 -2.0125 -2.1054 -0.0835
 8275SOL     OW26424   1.386   0.564   3.797  0.1269 -0.6167 -0.0292
 8275SOL    HW126425   1.457   0.590   3.732 -0.3379 -0.6751 -0.5685
 8275SOL    HW226426   1.296   0.592   3.762  0.0146  0.9316  1.4045
 8276SOL     OW26427   3.234   0.725   0.274 -0.0291  0.0561  0.3540
 8276SOL    HW126428   3.162   0.685   0.332  0.6564 -1.2396  0.3629
 8276SOL    HW226429   3.218   0.700   0.179 -0.3827  1.0053  0.1550
 8277SOL     OW26430   5.722   2.985   1.809 -0.1475 -0.4816  0.0818
 8277SOL    HW126431   5.789   3.037   1.863 -1.1882  0.1766  0.7745
 8277SOL    HW226432   5.631   3.024   1.822 -0.7780 -1.7481 -0.3521
 8278SOL     OW26433   4.281   4.611   2.638  0.3199  0.2437 -0.6168
 8278SOL    HW126434   4.222   4.543   2.595  1.8013 -0.4829 -1.5649
 8278SOL    HW226435   4.253   4.624   2.733 -0.2616 -1.3872 -0.5358
 8279SOL     OW26436   1.151   1.769   1.645 -0.3057  0.1912  0.0348
 8279SOL    HW126437   1.203   1.826   1.708 -0.6527  0.3835  0.1441
 8279SOL    HW226438   1.159   1.673   1.673  0.7063  0.1214 -0.4508
 8280SOL     OW26439   2.898   0.785   6.582 -0.4639 -0.2410  0.1856
 8280SOL    HW126440   2.953   0.702   6.582 -1.1890 -0.7265  0.0437
 8280SOL    HW226441   2.864   0.803   6.490 -0.1692  0.3116  0.1799
 8281SOL     OW26442   5.766   6.380   4.316 -0.0911  0.7144  0.0209
 8281SOL    HW126443   5.835   6.331   4.369 -1.4064 -0.2126  0.9661
 8281SOL    HW226444   5.802   6.469   4.288  1.1486  0.6530  1.3009
 8282SOL     OW26445   1.369   6.347   5.346  0.0153  0.2466 -1.3327
 8282SOL    HW126446   1.461   6.387   5.350  0.9041 -1.8006  0.6168
 8282SOL    HW226447   1.303   6.411   5.387  1.2965  0.1271  1.1334
 8283SOL     OW26448   1.358   2.244   2.362  0.3222  0.4977  0.2707
 8283SOL    HW126449   1.416   2.246   2.281 -0.2204  0.3366 -0.1244
 8283SOL    HW226450   1.387   2.316   2.425  0.1422  1.2420 -0.4848
 8284SOL     OW26451   6.269   6.041   2.527 -0.2115 -0.4117 -0.0009
 8284SOL    HW126452   6.315   5.954   2.547 -0.1622 -0.4940 -0.4723
 8284SOL    HW226453   6.174   6.036   2.558 -0.0709 -0.4549  0.4279
 8285SOL     OW26454   6.623   5.070   6.126  0.6173  0.2995 -0.3445
 8285SOL    HW126455   6.538   5.122   6.140  0.4311  0.2957 -1.3473
 8285SOL    HW226456   6.684   5.083   6.204  0.3122  1.5317 -0.2929
 8286SOL     OW26457   1.136   3.452   6.910  0.2307 -0.1642  0.8255
 8286SOL    HW126458   1.110   3.362   6.946 -0.5782 -0.4185 -0.3280
 8286SOL    HW226459   1.173   3.508   6.984 -0.5468 -0.9664  1.8568
 8287SOL     OW26460   0.403   0.727   5.483 -0.4890  0.3594  0.0688
 8287SOL    HW126461   0.498   0.707   5.460 -0.4236  1.5047 -0.7404
 8287SOL    HW226462   0.375   0.669   5.559 -0.2333 -2.4804 -1.8570
 8288SOL     OW26463   0.351   5.805   3.929 -0.0313  0.3647  0.3674
 8288SOL    HW126464   0.389   5.718   3.896 -1.7412 -0.2753 -0.0067
 8288SOL    HW226465   0.371   5.815   4.026 -0.4708 -0.8433  0.6016
 8289SOL     OW26466   0.217   2.774   2.203 -0.1398 -0.3571 -0.5648
 8289SOL    HW126467   0.158   2.852   2.227 -0.8681 -0.7810 -0.9275
 8289SOL    HW226468   0.221   2.764   2.104  0.9656 -0.0287 -0.5597
 8290SOL     OW26469   0.402   4.515   5.911  0.1246 -0.6483 -0.3628
 8290SOL    HW126470   0.454   4.442   5.955 -1.5437 -1.9230 -0.4058
 8290SOL    HW226471   0.335   4.552   5.975  1.1651  1.1387 -0.2286
 8291SOL     OW26472   0.535   5.591   0.950 -0.3549 -0.0297 -0.6113
 8291SOL    HW126473   0.539   5.513   0.887  0.6003 -0.2661 -0.2643
 8291SOL    HW226474   0.614   5.589   1.011  0.0043  1.5617 -1.0017
 8292SOL     OW26475   5.665   3.748   3.038  0.3188 -0.0814  0.4433
 8292SOL    HW126476   5.669   3.710   2.946 -0.6786 -0.3861  0.5194
 8292SOL    HW226477   5.736   3.818   3.048  1.6254 -1.2918  0.0266
 8293SOL     OW26478   0.214   1.167   2.376 -0.1625  0.3707 -0.3951
 8293SOL    HW126479   0.225   1.229   2.453  1.7270 -0.4540  0.0374
 8293SOL    HW226480   0.166   1.085   2.406 -0.0781  0.3650 -0.2759
 8294SOL     OW26481   4.352   2.988   2.222 -0.3174 -0.5070 -0.1724
 8294SOL    HW126482   4.434   2.941   2.257  1.0441  1.3513 -0.6867
 8294SOL    HW226483   4.271   2.950   2.266  1.0816 -0.1332  3.0319
 8295SOL     OW26484   5.143   1.235   3.303  0.6278  0.0618  0.1048
 8295SOL    HW126485   5.154   1.334   3.299 -0.8845  0.2264 -1.2583
 8295SOL    HW226486   5.110   1.209   3.393 -2.0175  1.2390 -0.4208
 8296SOL     OW26487   3.221   3.032   1.260  0.6786 -0.4017  0.0336
 8296SOL    HW126488   3.216   2.950   1.203  0.6847 -1.4922  1.5585
 8296SOL    HW226489   3.214   3.007   1.356  2.0364  1.2697  0.6181
 8297SOL     OW26490   6.780   6.919   2.912  0.0533 -0.3906 -0.0049
 8297SOL    HW126491   6.860   6.979   2.907 -0.5310  0.5981  1.7519
 8297SOL    HW226492   6.716   6.954   2.980 -1.9435 -1.1095 -1.4021
 8298SOL     OW26493   0.104   5.141   5.262  0.6370  0.2230 -0.6534
 8298SOL    HW126494   0.013   5.154   5.224  0.4131 -0.0698 -0.2263
 8298SOL    HW226495   0.144   5.056   5.224  0.9982  0.6850 -1.3367
 8299SOL     OW26496   4.424   4.707   1.405 -0.3000 -0.6198  0.0843
 8299SOL    HW126497   4.467   4.623   1.437  0.7258 -0.9493 -1.9543
 8299SOL    HW226498   4.495   4.768   1.367 -1.2024  0.4914  0.1177
 8300SOL     OW26499   0.920   6.668   1.928 -0.1521 -0.1587 -0.1513
 8300SOL    HW126500   0.987   6.700   1.861 -0.1874  1.1262  0.3878
 8300SOL    HW226501   0.948   6.699   2.019 -1.5410  0.5526  0.0660
 8301SOL     OW26502   1.738   1.678   1.660  0.2184 -0.4002  0.3059
 8301SOL    HW126503   1.678   1.701   1.583  0.1267  1.3976  0.8714
 8301SOL    HW226504   1.831   1.710   1.641  0.2447 -0.1449  0.8355
 8302SOL     OW26505   6.855   0.224   4.451  0.7659  0.2482  0.0315
 8302SOL    HW126506   6.756   0.215   4.465  0.6205  1.9482  0.2289
 8302SOL    HW226507   6.902   0.205   4.536  0.5051  0.8595  0.3196
 8303SOL     OW26508   3.188   1.135   5.637  0.1252  0.6619  0.2687
 8303SOL    HW126509   3.200   1.228   5.674  1.8299  0.7204 -0.3354
 8303SOL    HW226510   3.234   1.129   5.549 -1.7451 -0.2023 -0.6995
 8304SOL     OW26511   1.007   6.943   1.278  0.0921  0.3674 -0.2714
 8304SOL    HW126512   1.026   6.935   1.376 -3.0780 -0.6055  0.3705
 8304SOL    HW226513   1.029   6.856   1.233 -0.9929 -0.1336  0.1266
 8305SOL     OW26514   2.346   0.835   0.344 -0.8970 -0.0972  0.3292
 8305SOL    HW126515   2.279   0.843   0.269 -0.7127 -0.7881  0.0860
 8305SOL    HW226516   2.383   0.742   0.345  1.0562  0.6257 -0.4006
 8306SOL     OW26517   5.708   4.929   4.638  0.2598 -0.6591 -0.2447
 8306SOL    HW126518   5.749   4.912   4.548  0.9802  0.4207 -0.1329
 8306SOL    HW226519   5.656   4.848   4.666  0.8692 -1.3983 -1.1717
 8307SOL     OW26520   3.912   3.017   5.311 -0.1405  0.4556  0.2104
 8307SOL    HW126521   3.978   2.967   5.254  1.4750  3.8351 -1.1299
 8307SOL    HW226522   3.838   2.955   5.337  2.9058 -3.2682  0.8887
 8308SOL     OW26523   2.144   5.912   6.974 -0.5538  0.4197  0.1303
 8308SOL    HW126524   2.114   5.894   6.880 -2.6785  1.0516  0.6260
 8308SOL    HW226525   2.163   6.010   6.985 -2.0175  0.6528  0.7648
 8309SOL     OW26526   2.142   2.357   6.109  0.2456  0.3653  0.1812
 8309SOL    HW126527   2.147   2.346   6.010 -2.4037 -1.1797  0.1367
 8309SOL    HW226528   2.087   2.438   6.131 -0.3031 -0.0626  0.3850
 8310SOL     OW26529   5.962   6.837   0.308  0.4276  0.7728 -0.3433
 8310SOL    HW126530   5.883   6.898   0.302  1.1217  1.9071  1.4590
 8310SOL    HW226531   5.988   6.823   0.403  0.7566 -1.8176 -0.7202
 8311SOL     OW26532   2.164   0.594   5.947  0.1629  0.5416 -0.2859
 8311SOL    HW126533   2.223   0.625   5.873  1.3489  1.7823  1.1164
 8311SOL    HW226534   2.118   0.510   5.920  0.7454  0.8271 -2.3168
 8312SOL     OW26535   5.119   2.772   6.870 -0.3643 -0.2401  0.0918
 8312SOL    HW126536   5.152   2.683   6.840 -2.4147 -0.5457 -1.4932
 8312SOL    HW226537   5.091   2.826   6.790 -0.7438  1.1584  1.1294
 8313SOL     OW26538   4.729   2.189   2.013 -0.7407 -0.1178  0.1908
 8313SOL    HW126539   4.697   2.097   2.039  0.0682 -0.1588  1.1188
 8313SOL    HW226540   4.716   2.202   1.915  1.0790 -2.0586 -0.3911
 8314SOL     OW26541   6.063   3.686   0.030  0.1180  0.1999  0.5877
 8314SOL    HW126542   6.056   3.588   0.014 -1.5781  0.4172 -0.1961
 8314SOL    HW226543   6.031   3.707   0.123  1.2025 -0.0560  1.0296
 8315SOL     OW26544   1.415   5.540   2.878  0.4057  0.0976 -0.4278
 8315SOL    HW126545   1.343   5.478   2.909  1.3533 -1.1623 -0.6899
 8315SOL    HW226546   1.449   5.510   2.789  1.6564  0.3223 -0.0433
 8316SOL     OW26547   2.017   6.440   3.198 -0.3151 -0.4680  0.5311
 8316SOL    HW126548   2.009   6.512   3.128  0.1910 -0.3937  0.5481
 8316SOL    HW226549   1.942   6.375   3.186 -1.8841  1.0392  1.6572
 8317SOL     OW26550   1.151   0.322   3.837  0.2575 -0.9161  0.0476
 8317SOL    HW126551   1.131   0.341   3.933 -1.2546 -1.6665 -0.0973
 8317SOL    HW226552   1.249   0.302   3.827  0.4435 -0.7878  1.4128
 8318SOL     OW26553   6.909   0.987   1.050  0.7165 -0.0128 -0.6394
 8318SOL    HW126554   6.887   1.065   1.109  1.6895 -0.3213  0.1433
 8318SOL    HW226555   6.824   0.943   1.020  0.1558  1.2156 -0.9358
 8319SOL     OW26556   3.544   4.121   0.981  0.2086  0.6639 -0.1451
 8319SOL    HW126557   3.456   4.112   0.934 -0.6007  1.5743  1.1111
 8319SOL    HW226558   3.548   4.056   1.057  0.2798  1.1481  0.2715
 8320SOL     OW26559   6.565   0.178   5.005 -0.2320  0.7075 -0.7632
 8320SOL    HW126560   6.483   0.191   5.061 -0.0251  0.6217 -0.4403
 8320SOL    HW226561   6.573   0.082   4.979  0.9856  0.2438  1.1165
 8321SOL     OW26562   5.631   2.260   3.885 -0.0232 -0.3720  0.1038
 8321SOL    HW126563   5.548   2.206   3.870  0.7583 -1.7503  0.6129
 8321SOL    HW226564   5.646   2.320   3.806 -1.2278 -0.4514 -0.2125
 8322SOL     OW26565   5.159   4.864   1.806 -0.4344 -0.0763  0.4435
 8322SOL    HW126566   5.255   4.839   1.806 -0.5882 -0.6904 -0.4300
 8322SOL    HW226567   5.150   4.960   1.836  0.2958 -0.4779  2.0818
 8323SOL     OW26568   5.097   0.620   1.901 -0.2582 -0.3966 -0.2441
 8323SOL    HW126569   5.176   0.666   1.861  0.9456  0.9259  3.2715
 8323SOL    HW226570   5.110   0.521   1.900  2.1033 -0.1605  1.3701
 8324SOL     OW26571   4.533   0.312   3.459  0.3286 -0.3337  0.2431
 8324SOL    HW126572   4.534   0.236   3.393 -1.7459 -0.0927 -0.1538
 8324SOL    HW226573   4.579   0.284   3.543 -0.8132 -2.2306  0.2872
 8325SOL     OW26574   5.062   6.115   6.417 -0.3518 -0.5788  0.4347
 8325SOL    HW126575   5.092   6.095   6.510 -0.2053 -1.3717  0.2205
 8325SOL    HW226576   4.993   6.048   6.388  0.3837 -0.9923 -0.4062
 8326SOL     OW26577   1.259   2.634   0.212  0.4641  0.2961  0.2691
 8326SOL    HW126578   1.267   2.540   0.245  0.2194  0.1426 -0.1029
 8326SOL    HW226579   1.264   2.635   0.112 -0.4095  0.5781  0.2226
 8327SOL     OW26580   3.516   3.684   3.786  0.4330  0.7696 -0.0218
 8327SOL    HW126581   3.616   3.686   3.785  0.4736 -0.4430 -0.1768
 8327SOL    HW226582   3.481   3.759   3.843  1.4524  0.5361  0.9309
 8328SOL     OW26583   3.504   0.155   2.600 -0.5065 -0.3055 -0.4724
 8328SOL    HW126584   3.425   0.192   2.649  0.3299 -0.6219  1.2038
 8328SOL    HW226585   3.547   0.227   2.547 -1.0205  0.2394 -0.1576
 8329SOL     OW26586   6.958   6.319   2.376  0.2981  0.4063  0.5325
 8329SOL    HW126587   6.986   6.228   2.406  3.6199  1.7936  2.1589
 8329SOL    HW226588   6.950   6.380   2.455  0.0358  1.9670 -0.6324
 8330SOL     OW26589   3.263   4.711   0.628 -0.0234 -0.2524  0.1444
 8330SOL    HW126590   3.195   4.673   0.566 -0.2227 -0.7629  0.6618
 8330SOL    HW226591   3.267   4.656   0.711 -2.0029  2.1578  1.9736
 8331SOL     OW26592   1.820   6.253   3.942  0.2710  0.0377 -0.3589
 8331SOL    HW126593   1.736   6.302   3.967  1.2961  1.3212  0.7390
 8331SOL    HW226594   1.813   6.158   3.972 -0.4825  0.3307  0.4532
 8332SOL     OW26595   3.061   5.594   6.430  0.5111 -0.3906  0.1356
 8332SOL    HW126596   3.003   5.559   6.357  0.8460 -0.0061 -0.3238
 8332SOL    HW226597   3.004   5.625   6.506  0.0186  1.1832 -0.8312
 8333SOL     OW26598   5.490   2.544   6.794 -0.1916 -0.5244  0.1682
 8333SOL    HW126599   5.451   2.476   6.857 -1.1064  0.7637  1.0534
 8333SOL    HW226600   5.485   2.635   6.836  1.9550 -0.0127 -0.5451
 8334SOL     OW26601   4.716   3.619   4.987  0.2884 -0.0562 -0.1129
 8334SOL    HW126602   4.795   3.561   4.963  0.4934 -0.7547  2.0818
 8334SOL    HW226603   4.748   3.699   5.038 -0.2916  0.5352 -0.6557
 8335SOL     OW26604   0.468   6.730   3.799 -0.0041 -0.4120  0.7566
 8335SOL    HW126605   0.502   6.642   3.768 -0.1876  0.2323 -1.5140
 8335SOL    HW226606   0.544   6.796   3.803 -0.1552 -0.2275  0.6265
 8336SOL     OW26607   5.083   2.016   2.700  0.1446  0.0886 -0.0547
 8336SOL    HW126608   5.020   2.030   2.624 -0.5487  2.8569  0.8988
 8336SOL    HW226609   5.145   1.941   2.679 -1.6552 -0.9054 -2.2227
 8337SOL     OW26610   0.065   3.743   3.980 -0.3849  0.3415  0.5931
 8337SOL    HW126611   0.066   3.706   3.887 -0.2543  1.1461  0.2674
 8337SOL    HW226612  -0.022   3.788   3.998 -0.1710  0.7600  0.6179
 8338SOL     OW26613   0.245   0.118   6.191 -0.2031  0.0090 -0.0287
 8338SOL    HW126614   0.265   0.074   6.278 -1.3627 -1.7013 -0.5844
 8338SOL    HW226615   0.159   0.168   6.197  0.7366  1.6364  0.3770
 8339SOL     OW26616   5.019   1.292   4.392 -0.1543 -0.0636  0.2946
 8339SOL    HW126617   5.104   1.302   4.444  0.9700  0.1687 -1.4842
 8339SOL    HW226618   5.006   1.372   4.334 -0.4499 -1.0050 -1.0075
 8340SOL     OW26619   3.737   1.024   4.564 -0.2517  0.9347 -0.0836
 8340SOL    HW126620   3.743   1.019   4.663 -0.6849  0.2516 -0.0881
 8340SOL    HW226621   3.823   1.062   4.527  0.6110 -0.4530  0.4305
 8341SOL     OW26622   6.761   0.960   5.250  0.1096  0.1901  0.4878
 8341SOL    HW126623   6.840   0.958   5.311 -1.2377  0.8295  2.3803
 8341SOL    HW226624   6.774   1.028   5.179  0.9696  0.7898  1.2036
 8342SOL     OW26625   4.966   0.939   6.922  1.2273  0.0989  1.0600
 8342SOL    HW126626   4.880   0.903   6.960  1.6574  1.1910  3.2596
 8342SOL    HW226627   5.043   0.890   6.962  1.6764 -0.2074 -0.1509
 8343SOL     OW26628   4.794   2.558   1.670  0.4220 -0.0055  0.3589
 8343SOL    HW126629   4.733   2.591   1.599  0.8757  0.4036  0.1551
 8343SOL    HW226630   4.878   2.612   1.670 -0.1266  0.9444  2.1072
 8344SOL     OW26631   5.049   2.652   1.024 -0.7331  0.3462 -0.1257
 8344SOL    HW126632   4.955   2.679   1.005 -1.5036 -1.9289  0.2046
 8344SOL    HW226633   5.072   2.674   1.119 -0.3310  2.3619 -0.6362
 8345SOL     OW26634   4.653   5.598   4.618  0.4727 -0.1150  0.0429
 8345SOL    HW126635   4.583   5.604   4.547 -0.3540  1.3348  0.9338
 8345SOL    HW226636   4.658   5.684   4.668  1.0860 -1.0663  1.7159
 8346SOL     OW26637   0.412   0.995   6.886  0.1470 -0.3443  0.5232
 8346SOL    HW126638   0.369   0.971   6.799  0.7041 -0.2320  0.2119
 8346SOL    HW226639   0.511   1.006   6.873 -0.1263  3.2113  0.3624
 8347SOL     OW26640   5.357   4.585   0.469  0.2342 -0.1922  0.3282
 8347SOL    HW126641   5.352   4.526   0.388 -1.7603 -0.1498  0.3553
 8347SOL    HW226642   5.325   4.677   0.446  0.6300  0.1021  0.9301
 8348SOL     OW26643   5.747   3.160   1.198 -0.8065 -0.2410  0.1592
 8348SOL    HW126644   5.709   3.114   1.279 -1.2272 -0.5867 -0.2302
 8348SOL    HW226645   5.742   3.099   1.119 -1.1358  0.3773 -0.3060
 8349SOL     OW26646   6.052   4.203   5.967  0.1340 -0.2641  0.1502
 8349SOL    HW126647   6.019   4.234   6.056  0.4353  0.5111 -0.0041
 8349SOL    HW226648   6.014   4.112   5.948 -1.2591  0.2551  0.3258
 8350SOL     OW26649   0.261   4.058   1.474  0.0910  0.5061 -0.0883
 8350SOL    HW126650   0.255   4.074   1.376 -0.4450 -1.2414 -0.3654
 8350SOL    HW226651   0.181   4.008   1.505  0.8653 -0.1109  0.9949
 8351SOL     OW26652   3.880   5.703   4.659  0.1796  0.2463 -0.1409
 8351SOL    HW126653   3.903   5.637   4.587  0.1884 -0.8802  0.8731
 8351SOL    HW226654   3.947   5.777   4.659  0.6597 -0.1783 -0.7306
 8352SOL     OW26655   5.329   2.726   3.554  0.1489 -0.2002 -0.3317
 8352SOL    HW126656   5.355   2.631   3.571 -2.3085 -0.7266  1.1157
 8352SOL    HW226657   5.403   2.787   3.583  0.8999 -1.6197  0.8949
 8353SOL     OW26658   1.950   0.542   1.093  0.2647  0.2284 -0.9477
 8353SOL    HW126659   2.021   0.611   1.079  0.8939 -0.0752  0.5100
 8353SOL    HW226660   1.940   0.525   1.191 -1.3800 -0.2123 -1.1743
 8354SOL     OW26661   1.156   1.238   3.179  0.4145  0.3814  0.7811
 8354SOL    HW126662   1.096   1.310   3.215 -0.8296  0.1349 -0.7238
 8354SOL    HW226663   1.132   1.151   3.221  0.5935  0.4960  1.1279
 8355SOL     OW26664   2.325   6.598   0.262 -0.2262 -0.1046 -0.2905
 8355SOL    HW126665   2.388   6.575   0.337  0.9857 -2.2805 -1.8718
 8355SOL    HW226666   2.253   6.528   0.257 -1.6126  1.2192  0.1542
 8356SOL     OW26667   5.239   6.614   2.121  0.0072  0.7519  0.1100
 8356SOL    HW126668   5.314   6.560   2.161 -0.3764 -0.3100 -0.5399
 8356SOL    HW226669   5.220   6.579   2.029 -1.0315  1.2690  0.1206
 8357SOL     OW26670   1.893   1.163   4.010  0.2389  0.2680 -0.3806
 8357SOL    HW126671   1.983   1.183   4.050  0.5745 -0.2177 -0.8750
 8357SOL    HW226672   1.825   1.155   4.083  0.2950  2.0695 -0.0832
 8358SOL     OW26673   3.006   0.026   5.972  0.1580 -0.3477  0.3274
 8358SOL    HW126674   2.912  -0.003   5.992 -0.6180 -0.7597 -3.1969
 8358SOL    HW226675   3.066  -0.055   5.969  0.7247 -0.0767  2.6546
 8359SOL     OW26676   2.064   3.626   3.829 -0.2162 -0.2424 -0.4042
 8359SOL    HW126677   2.127   3.663   3.898  1.6352 -1.8742 -1.1363
 8359SOL    HW226678   2.025   3.702   3.777  1.2398  0.8399 -0.0003
 8360SOL     OW26679   4.893   0.812   2.004 -0.2826  0.7088 -0.2020
 8360SOL    HW126680   4.957   0.884   1.979  0.5188 -0.0633 -0.4529
 8360SOL    HW226681   4.929   0.724   1.973 -1.8065  0.3232 -0.9801
 8361SOL     OW26682   5.986   4.408   3.566  0.3369 -0.3986  0.3819
 8361SOL    HW126683   6.078   4.372   3.551  0.8032  1.3112 -1.3587
 8361SOL    HW226684   5.929   4.339   3.612  3.0012 -0.7924  3.4362
 8362SOL     OW26685   2.848   6.983   1.763 -0.0847 -0.2445  0.1921
 8362SOL    HW126686   2.836   7.080   1.785  0.2460 -0.0530 -0.4116
 8362SOL    HW226687   2.922   6.945   1.819  0.2148  0.0231 -0.0171
 8363SOL     OW26688   5.755   4.943   4.912  0.1939 -0.2640  0.0095
 8363SOL    HW126689   5.771   5.001   4.832  3.2861  1.2562  1.5447
 8363SOL    HW226690   5.799   4.854   4.897  0.0604 -0.2796 -0.3024
 8364SOL     OW26691   6.238   1.735   1.512 -0.3418 -0.0322 -0.5078
 8364SOL    HW126692   6.326   1.690   1.495  0.5567  1.7136 -0.7773
 8364SOL    HW226693   6.180   1.675   1.567  0.6453 -1.6180 -1.1162
 8365SOL     OW26694   4.598   2.676   6.199  0.3672 -0.1015  0.0118
 8365SOL    HW126695   4.666   2.613   6.163  1.2428  1.1949 -0.6987
 8365SOL    HW226696   4.578   2.746   6.130  0.8990  1.5398  1.4699
 8366SOL     OW26697   3.977   6.691   1.268  0.2250  0.4175  0.0200
 8366SOL    HW126698   3.929   6.768   1.312 -0.0425  1.0513 -1.3437
 8366SOL    HW226699   4.072   6.691   1.297  0.2286  1.2734  0.0405
 8367SOL     OW26700   3.376   6.723   2.724 -0.2574 -0.1977  0.4522
 8367SOL    HW126701   3.388   6.781   2.805 -2.9870  0.9728  0.1412
 8367SOL    HW226702   3.306   6.654   2.744 -1.6445  0.6811 -1.1268
 8368SOL     OW26703   0.497   5.747   4.309  0.0994 -0.0678 -0.4490
 8368SOL    HW126704   0.516   5.801   4.391 -0.8411 -1.3130  0.6128
 8368SOL    HW226705   0.400   5.727   4.304  0.5010 -2.1840 -0.4817
 8369SOL     OW26706   4.636   1.734   2.575 -0.0590 -0.3957 -0.2323
 8369SOL    HW126707   4.541   1.760   2.554  0.5756  2.5382  0.1419
 8369SOL    HW226708   4.692   1.747   2.494  0.1536 -1.5795 -0.2873
 8370SOL     OW26709   1.118   0.035   0.907 -0.3334  0.2593  0.6500
 8370SOL    HW126710   1.103  -0.056   0.944 -0.4236 -0.6882 -1.5787
 8370SOL    HW226711   1.180   0.086   0.968  0.0809 -1.4265  1.7073
 8371SOL     OW26712   5.133   1.612   0.529  0.6939  0.0740 -0.2830
 8371SOL    HW126713   5.081   1.604   0.614  1.0255 -0.0891 -0.0923
 8371SOL    HW226714   5.228   1.634   0.551  0.5272  1.2756 -0.6603
 8372SOL     OW26715   0.627   2.757   6.414 -0.2542 -0.3387 -0.1166
 8372SOL    HW126716   0.641   2.658   6.403  0.2840 -0.3112  0.3132
 8372SOL    HW226717   0.666   2.787   6.501 -0.6715  0.2062 -0.1121
 8373SOL     OW26718   6.369   2.467   1.274  0.9048  0.0223  0.4720
 8373SOL    HW126719   6.428   2.547   1.281  0.0281  0.7881 -0.6149
 8373SOL    HW226720   6.385   2.421   1.187  0.6952 -0.4247  0.6623
 8374SOL     OW26721   3.034   6.032   6.474 -0.1929 -0.3749 -0.2866
 8374SOL    HW126722   3.096   5.993   6.542 -0.2529 -1.0383 -0.6091
 8374SOL    HW226723   2.960   6.080   6.521  1.1949  1.5095  0.1237
 8375SOL     OW26724   6.776   0.277   4.860  0.2413  0.1793 -0.4169
 8375SOL    HW126725   6.697   0.240   4.908  1.1234 -1.5900 -0.2347
 8375SOL    HW226726   6.749   0.357   4.807 -1.0274  1.4959  2.0504
 8376SOL     OW26727   2.126   3.361   1.840  0.4268 -0.6805 -0.0171
 8376SOL    HW126728   2.088   3.286   1.895  2.3677 -0.4558  1.7822
 8376SOL    HW226729   2.219   3.381   1.871  0.9808  0.6569 -2.3116
 8377SOL     OW26730   6.444   5.928   5.583  0.4720 -0.0419 -0.8020
 8377SOL    HW126731   6.468   6.020   5.551 -0.1260  1.2050  2.0540
 8377SOL    HW226732   6.347   5.925   5.607  0.1657 -1.8603 -2.0609
 8378SOL     OW26733   1.291   3.662   3.551 -0.5872  0.1805  0.1825
 8378SOL    HW126734   1.280   3.650   3.650 -1.7672 -0.9449 -0.0617
 8378SOL    HW226735   1.283   3.573   3.506  1.0239  0.5100 -0.8587
 8379SOL     OW26736   4.200   5.371   2.724 -0.1643 -0.0282 -0.3067
 8379SOL    HW126737   4.202   5.272   2.722 -0.7479 -0.0425 -1.9500
 8379SOL    HW226738   4.292   5.407   2.712  0.0169 -0.3660  0.0759
 8380SOL     OW26739   3.596   1.997   0.556 -0.5818  0.3703  0.0888
 8380SOL    HW126740   3.510   2.046   0.547  0.8473  3.1670  0.5623
 8380SOL    HW226741   3.663   2.055   0.602  1.6586 -1.6121 -0.4693
 8381SOL     OW26742   2.643   0.923   1.484 -0.3296 -0.0755  0.3035
 8381SOL    HW126743   2.694   0.939   1.568  0.3761  1.1656 -0.3388
 8381SOL    HW226744   2.688   0.851   1.431 -0.3016 -0.2782  0.6031
 8382SOL     OW26745   1.341   5.349   1.630 -0.1520  0.2069  0.0788
 8382SOL    HW126746   1.337   5.262   1.680  0.1890  0.1756  0.0524
 8382SOL    HW226747   1.326   5.332   1.533 -4.3318  0.6134  0.4524
 8383SOL     OW26748   6.885   4.861   5.389 -0.2809 -0.0531  0.2345
 8383SOL    HW126749   6.944   4.873   5.469 -1.0375 -2.1870  1.1752
 8383SOL    HW226750   6.793   4.893   5.410  0.2249  2.4742 -0.9561
 8384SOL     OW26751   5.124   6.552   4.928 -0.2322 -0.1125  0.2325
 8384SOL    HW126752   5.059   6.591   4.994 -0.1316 -0.6180  0.6385
 8384SOL    HW226753   5.073   6.512   4.851 -0.5195 -1.8410  1.2590
 8385SOL     OW26754   3.193   0.036   2.342 -0.4760 -0.5990  0.0090
 8385SOL    HW126755   3.239   0.110   2.293 -1.3954 -1.2659 -1.9561
 8385SOL    HW226756   3.150   0.073   2.425  0.1903  0.7904 -0.2332
 8386SOL     OW26757   3.484   5.181   2.663 -0.0157  0.2965 -0.2698
 8386SOL    HW126758   3.431   5.124   2.600 -0.8451  0.0726  0.6103
 8386SOL    HW226759   3.575   5.197   2.624 -0.4980  0.1687 -1.5205
 8387SOL     OW26760   4.669   1.464   3.423 -0.4374 -0.1912 -0.0364
 8387SOL    HW126761   4.616   1.384   3.451 -2.0126  0.9365  0.3500
 8387SOL    HW226762   4.611   1.524   3.368 -0.4240  2.3082  2.4560
 8388SOL     OW26763   4.448   3.692   6.841 -0.2350 -0.3610 -0.2138
 8388SOL    HW126764   4.406   3.782   6.851  0.8911  0.0294  1.4083
 8388SOL    HW226765   4.471   3.655   6.931 -0.2298 -2.0665 -0.8723
 8389SOL     OW26766   4.517   0.590   5.402 -0.1312  0.0042  0.0384
 8389SOL    HW126767   4.549   0.508   5.355  0.3389  0.3324 -0.2140
 8389SOL    HW226768   4.419   0.580   5.422 -0.0619 -0.6471  0.0793
 8390SOL     OW26769   2.408   6.663   3.977 -0.4653  0.7167 -0.3772
 8390SOL    HW126770   2.387   6.750   3.934 -0.1982  1.3696  0.7722
 8390SOL    HW226771   2.460   6.606   3.913 -1.8499  0.8091 -1.6509
 8391SOL     OW26772   0.234   3.456   2.872 -0.4103 -0.6622 -0.4599
 8391SOL    HW126773   0.172   3.446   2.794 -1.8526 -0.9533  0.6688
 8391SOL    HW226774   0.251   3.366   2.913 -1.0281 -0.3344  0.5477
 8392SOL     OW26775   0.949   2.460   1.925 -0.6978 -0.5288  0.2554
 8392SOL    HW126776   1.013   2.408   1.981  1.4587  1.2777 -0.3824
 8392SOL    HW226777   0.911   2.535   1.978  1.3151  1.1581 -0.5482
 8393SOL     OW26778   5.564   6.367   3.857 -0.1493 -0.0155  0.7736
 8393SOL    HW126779   5.636   6.389   3.791 -2.3003  2.0356 -1.0957
 8393SOL    HW226780   5.548   6.268   3.858  0.9667 -0.2397 -0.6359
 8394SOL     OW26781   1.162   6.098   4.707  0.5369 -0.1388 -0.5726
 8394SOL    HW126782   1.095   6.127   4.776  0.2013  0.7607 -1.2533
 8394SOL    HW226783   1.249   6.077   4.752  0.4740  0.9255  0.0814
 8395SOL     OW26784   6.377   6.504   5.543 -0.1198  0.5515 -0.6116
 8395SOL    HW126785   6.393   6.503   5.444 -0.2663  1.8795 -0.6776
 8395SOL    HW226786   6.293   6.453   5.564  0.8528 -1.2610 -0.9439
 8396SOL     OW26787   6.631   2.036   6.548  0.8123  0.2765 -0.1191
 8396SOL    HW126788   6.620   2.081   6.460  1.0449 -1.6639 -1.1892
 8396SOL    HW226789   6.682   2.096   6.610  1.5059  1.2837 -1.6203
 8397SOL     OW26790   5.039   3.070   6.170  0.1273 -0.1202 -0.2925
 8397SOL    HW126791   5.095   3.019   6.235  0.6460  0.8449  0.0329
 8397SOL    HW226792   4.943   3.064   6.196 -0.2399 -3.2176 -1.7814
 8398SOL     OW26793   3.091   5.236   0.118  0.2439 -0.7159  0.2287
 8398SOL    HW126794   3.074   5.205   0.212  1.9338  0.1140  0.8589
 8398SOL    HW226795   3.183   5.276   0.113 -0.0372 -0.2317 -1.6610
 8399SOL     OW26796   4.622   5.244   5.276 -0.2036 -0.2120  0.1700
 8399SOL    HW126797   4.557   5.318   5.259 -0.6405 -0.8466 -1.0609
 8399SOL    HW226798   4.695   5.247   5.207  0.3024 -0.3463  0.6957
 8400SOL     OW26799   1.609   5.076   0.722  0.1088  0.2102 -0.2394
 8400SOL    HW126800   1.610   5.160   0.669  1.4106  0.3487 -0.0098
 8400SOL    HW226801   1.520   5.031   0.711 -0.8635  1.9298  0.1484
 8401SOL     OW26802   6.841   2.334   5.816  0.4977 -0.6415 -0.4548
 8401SOL    HW126803   6.827   2.431   5.834  0.2202 -0.7966  0.1781
 8401SOL    HW226804   6.916   2.323   5.751  0.0661  0.0286 -1.0895
 8402SOL     OW26805   2.222   6.717   5.216 -0.3749  0.1232  0.0701
 8402SOL    HW126806   2.227   6.816   5.209  0.1773  0.1032  0.2031
 8402SOL    HW226807   2.219   6.678   5.124 -1.8941  0.3150 -0.0027
 8403SOL     OW26808   6.416   2.981   3.531  0.0007 -0.1384 -0.0032
 8403SOL    HW126809   6.406   3.037   3.613 -0.2095  0.0857 -0.1811
 8403SOL    HW226810   6.481   3.025   3.469  0.5117 -0.5373  0.2392
 8404SOL     OW26811   5.118   0.981   2.024 -0.1661 -0.0272  0.1804
 8404SOL    HW126812   5.149   0.976   2.119 -2.3442  2.6500  1.1675
 8404SOL    HW226813   5.198   0.992   1.964  1.1644  0.6440  1.9638
 8405SOL     OW26814   2.153   3.188   3.401 -0.1130 -0.0017  0.7842
 8405SOL    HW126815   2.083   3.173   3.471  0.2453 -1.1924  0.9059
 8405SOL    HW226816   2.231   3.127   3.418  0.6336  0.7730  0.2168
 8406SOL     OW26817   5.379   2.433   0.518  0.2680  0.2631 -1.0287
 8406SOL    HW126818   5.335   2.512   0.561  0.9313  0.6944 -1.1323
 8406SOL    HW226819   5.463   2.463   0.473  1.5820 -0.8042  0.5798
 8407SOL     OW26820   5.691   4.754   4.117  0.1640  0.0152 -0.2908
 8407SOL    HW126821   5.773   4.707   4.085  0.0547 -1.1311  1.0044
 8407SOL    HW226822   5.706   4.853   4.114  0.4174 -0.0485 -3.0239
 8408SOL     OW26823   3.548   0.401   5.118 -0.0534  0.0416  0.2866
 8408SOL    HW126824   3.555   0.338   5.041 -0.0166  0.0935  0.2479
 8408SOL    HW226825   3.458   0.390   5.162  0.5041 -1.1016  1.1921
 8409SOL     OW26826   2.431   3.111   1.116  0.4809 -0.4185 -0.2509
 8409SOL    HW126827   2.404   3.119   1.020  0.2741 -0.4209 -0.1942
 8409SOL    HW226828   2.530   3.110   1.123  0.4935 -0.6307 -0.4818
 8410SOL     OW26829   3.145   5.374   4.074 -0.0994  0.0196  0.5400
 8410SOL    HW126830   3.244   5.378   4.088 -0.2024  1.9807  1.0699
 8410SOL    HW226831   3.115   5.455   4.024 -1.5740  0.0295  1.3760
 8411SOL     OW26832   3.314   4.938   5.272  0.5994 -0.3027  0.6831
 8411SOL    HW126833   3.321   4.839   5.258  1.2118 -0.1804  0.0305
 8411SOL    HW226834   3.238   4.958   5.333 -0.1434 -1.1168  0.0477
 8412SOL     OW26835   6.185   4.427   3.836 -0.3128 -0.3311 -0.3872
 8412SOL    HW126836   6.278   4.404   3.806 -0.1459 -0.1339 -0.0276
 8412SOL    HW226837   6.180   4.524   3.857 -0.4361 -0.4600  0.1889
 8413SOL     OW26838   0.182   4.623   5.201 -0.0994  0.3728 -0.2759
 8413SOL    HW126839   0.248   4.613   5.275 -0.6943  1.7059  0.4769
 8413SOL    HW226840   0.167   4.534   5.157  2.3154  0.0734 -0.6133
 8414SOL     OW26841   3.600   1.915   5.930 -0.1656 -0.3465 -0.4511
 8414SOL    HW126842   3.604   1.883   6.024  2.0437 -1.2457 -0.7742
 8414SOL    HW226843   3.610   1.837   5.868 -1.9257  0.1916 -1.4605
 8415SOL     OW26844   3.943   0.843   4.880  0.5187 -0.2964  0.0930
 8415SOL    HW126845   3.900   0.775   4.819  1.1708 -0.5226 -0.1181
 8415SOL    HW226846   4.040   0.821   4.892  0.6946  0.5023  0.1710
 8416SOL     OW26847   2.035   5.625   6.083  0.0602  0.1152 -0.6366
 8416SOL    HW126848   2.025   5.709   6.137  0.8865  0.4917 -1.0506
 8416SOL    HW226849   2.104   5.567   6.126  0.7351  0.4233 -1.2699
 8417SOL     OW26850   7.001   2.299   2.094  0.3006  0.1040 -0.2687
 8417SOL    HW126851   7.018   2.240   2.173 -1.9462 -1.5567 -0.8852
 8417SOL    HW226852   7.074   2.287   2.027  0.2318 -1.5911 -0.0967
 8418SOL     OW26853   3.076   0.211   4.071 -0.8823  0.3023  0.0675
 8418SOL    HW126854   2.998   0.258   4.113 -1.7319 -1.0312  0.0508
 8418SOL    HW226855   3.044   0.127   4.027  0.5308 -0.1130 -0.2055
 8419SOL     OW26856   1.409   6.136   2.246 -0.6302  0.4073  0.0804
 8419SOL    HW126857   1.330   6.094   2.201  1.8122 -1.5804 -2.7255
 8419SOL    HW226858   1.460   6.066   2.296 -0.7690  1.7331  2.2015
 8420SOL     OW26859   0.191   5.893   0.572  0.1978 -0.2622  0.0106
 8420SOL    HW126860   0.129   5.874   0.495 -0.5438  0.8436  0.3109
 8420SOL    HW226861   0.160   5.841   0.652 -0.4885  0.4428  0.2163
 8421SOL     OW26862   0.949   2.621   4.466 -0.2600  0.2215 -0.4184
 8421SOL    HW126863   0.906   2.531   4.457 -0.2636  0.1546  0.2820
 8421SOL    HW226864   0.880   2.689   4.493 -0.2294  0.4142 -0.8094
 8422SOL     OW26865   3.683   4.687   1.049  1.0155  0.6524  0.3065
 8422SOL    HW126866   3.672   4.772   0.997  2.4665  0.0357 -1.0901
 8422SOL    HW226867   3.778   4.658   1.045  0.3730 -1.5409 -0.0512
 8423SOL     OW26868   4.800   0.174   1.414  0.0264  0.7514 -0.0020
 8423SOL    HW126869   4.744   0.099   1.379 -0.3826 -0.1890  2.4434
 8423SOL    HW226870   4.786   0.256   1.358 -4.5035  0.8361  0.8807
 8424SOL     OW26871   5.760   1.307   1.528  0.2966  0.6392  0.3534
 8424SOL    HW126872   5.775   1.296   1.626  0.7721  0.9377  0.3180
 8424SOL    HW226873   5.785   1.400   1.501 -0.0372  0.6216 -0.0113
 8425SOL     OW26874   6.584   0.073   6.825  0.2227 -0.2072 -0.0082
 8425SOL    HW126875   6.661   0.053   6.885  0.6735 -0.0594 -0.5306
 8425SOL    HW226876   6.555   0.168   6.840 -0.4368 -0.5270  0.8213
 8426SOL     OW26877   2.593   5.953   2.412  0.3377 -0.3227 -0.2340
 8426SOL    HW126878   2.677   5.913   2.446  1.1699  1.5462  0.0097
 8426SOL    HW226879   2.550   6.008   2.484  0.1051  0.5458 -1.0102
 8427SOL     OW26880   2.758   1.737   6.389  0.2668  0.0501 -0.0675
 8427SOL    HW126881   2.671   1.786   6.392  0.4178  0.2926  0.4467
 8427SOL    HW226882   2.754   1.660   6.453  0.5531  0.2741  0.2233
 8428SOL     OW26883   5.274   0.296   5.286 -0.0559 -0.0771 -0.0128
 8428SOL    HW126884   5.177   0.275   5.290  0.0329 -0.3597  0.7801
 8428SOL    HW226885   5.328   0.212   5.291  0.2393  0.1193  0.1893
 8429SOL     OW26886   3.062   2.339   5.158 -0.0174  0.4226  0.2671
 8429SOL    HW126887   3.029   2.284   5.081  0.8075 -2.1336  1.6261
 8429SOL    HW226888   3.158   2.361   5.144 -0.0198  0.4576  0.3088
 8430SOL     OW26889   5.974   2.076   5.956 -0.4767  0.0338 -0.2754
 8430SOL    HW126890   5.931   2.116   5.875 -1.2193  1.5629  0.8196
 8430SOL    HW226891   6.053   2.022   5.929 -0.0203  1.4651 -1.9463
 8431SOL     OW26892   5.240   1.925   1.686  0.3367 -0.2307  0.3873
 8431SOL    HW126893   5.239   1.925   1.586  1.2537 -1.6411  0.3426
 8431SOL    HW226894   5.149   1.899   1.719  0.4151 -1.2144 -0.1278
 8432SOL     OW26895   5.239   2.003   3.096 -0.8100 -0.3706 -0.2966
 8432SOL    HW126896   5.316   2.038   3.043  0.7341 -3.3425 -0.2681
 8432SOL    HW226897   5.154   2.045   3.066  0.8803  4.8371  1.2141
 8433SOL     OW26898   1.632   6.438   2.509 -0.3380 -0.3817  0.2240
 8433SOL    HW126899   1.633   6.530   2.548 -1.3774 -1.2625  2.5104
 8433SOL    HW226900   1.577   6.378   2.567  2.8503 -3.2105  0.6016
 8434SOL     OW26901   0.500   5.798   6.803 -0.0378  0.1644  0.0640
 8434SOL    HW126902   0.481   5.892   6.833 -3.2969 -0.4105  0.1097
 8434SOL    HW226903   0.494   5.793   6.704 -2.9459 -0.4709  0.1905
 8435SOL     OW26904   4.778   3.781   3.377  0.4759  0.1141  0.1745
 8435SOL    HW126905   4.775   3.807   3.281  0.0615 -0.1559  0.1099
 8435SOL    HW226906   4.686   3.787   3.416  0.8752  1.5652  0.9227
 8436SOL     OW26907   5.091   6.432   2.968 -0.4634  0.5613  0.0327
 8436SOL    HW126908   5.151   6.427   2.888  0.4932 -0.7977  0.7831
 8436SOL    HW226909   5.111   6.355   3.029 -1.1279  1.5826  1.6044
 8437SOL     OW26910   1.021   2.711   3.799 -0.2529 -1.0037 -0.2134
 8437SOL    HW126911   1.066   2.721   3.888  0.6451 -2.9937 -0.3860
 8437SOL    HW226912   0.973   2.796   3.776  0.6015  0.0142  1.5417
 8438SOL     OW26913   0.412   1.647   1.127 -0.2538 -0.6715  0.0826
 8438SOL    HW126914   0.483   1.642   1.057  0.6338 -0.8187  0.9668
 8438SOL    HW226915   0.326   1.612   1.090 -0.7275  2.3703 -2.0039
 8439SOL     OW26916   6.680   4.179   3.094 -0.0546 -0.3950  0.0189
 8439SOL    HW126917   6.698   4.251   3.161 -2.2138 -0.1591  0.4178
 8439SOL    HW226918   6.693   4.090   3.137  2.5636 -0.3115 -0.4588
 8440SOL     OW26919   0.001   3.100   3.067 -0.2670 -0.1578  0.1687
 8440SOL    HW126920  -0.070   3.148   3.015 -1.4047 -2.7784 -0.8576
 8440SOL    HW226921  -0.038   3.068   3.153  0.4347  0.5721  0.7716
 8441SOL     OW26922   5.551   6.333   5.373  0.3075  0.1728  0.0200
 8441SOL    HW126923   5.571   6.251   5.427  1.5167  0.2896 -0.2163
 8441SOL    HW226924   5.521   6.407   5.434 -1.7092 -0.6731  0.1459
 8442SOL     OW26925   0.420   1.153   6.147  0.4999  0.4420  0.1570
 8442SOL    HW126926   0.492   1.208   6.104  1.3205 -0.7661 -0.0489
 8442SOL    HW226927   0.445   1.056   6.144 -0.9803  0.0262  0.3996
 8443SOL     OW26928   5.792   5.308   0.128  0.2718  0.0034 -0.4956
 8443SOL    HW126929   5.846   5.229   0.097 -0.8979 -1.2142  0.4465
 8443SOL    HW226930   5.724   5.278   0.194 -1.2522  1.5626 -1.2708
 8444SOL     OW26931   0.740   4.568   0.876  0.2686 -0.0558 -0.1134
 8444SOL    HW126932   0.650   4.595   0.910  0.0457  1.3300 -1.6670
 8444SOL    HW226933   0.802   4.646   0.879  0.1649  0.2545 -2.9872
 8445SOL     OW26934   3.693   3.371   6.918  0.3247  0.2253  0.2659
 8445SOL    HW126935   3.716   3.348   7.013  1.7782  0.9070  0.1042
 8445SOL    HW226936   3.595   3.360   6.904  0.2333 -0.8828  1.5617
 8446SOL     OW26937   0.977   4.979   3.282  0.1637 -0.1287  0.1920
 8446SOL    HW126938   0.934   5.066   3.305 -0.1676 -0.5288  1.1638
 8446SOL    HW226939   1.072   4.994   3.254  0.1993  0.5222  0.6464
 8447SOL     OW26940   2.538   4.474   4.953  1.1656 -0.4351 -0.7181
 8447SOL    HW126941   2.635   4.498   4.957  1.0891  0.4143 -2.7780
 8447SOL    HW226942   2.487   4.550   4.914 -0.9894  0.6597  3.6263
 8448SOL     OW26943   0.716   6.777   1.807  0.3982  0.1226 -0.2828
 8448SOL    HW126944   0.730   6.811   1.714  0.4447  0.2732 -0.2220
 8448SOL    HW226945   0.796   6.725   1.836 -0.6627 -2.2501 -1.3090
 8449SOL     OW26946   6.219   2.609   3.572 -0.0531 -0.0092 -0.3340
 8449SOL    HW126947   6.252   2.658   3.492 -0.0558  0.7064  0.0943
 8449SOL    HW226948   6.149   2.543   3.544 -1.7652  1.8468 -0.6734
 8450SOL     OW26949   5.879   5.788   3.057  0.4443 -1.0537 -0.0969
 8450SOL    HW126950   5.808   5.723   3.083  0.4693 -1.2402 -0.4900
 8450SOL    HW226951   5.838   5.873   3.027  0.3537 -1.4212 -1.0451
 8451SOL     OW26952   5.435   5.896   0.219  0.2425  0.1214  0.3622
 8451SOL    HW126953   5.402   5.802   0.218 -0.9581  0.4939  1.8977
 8451SOL    HW226954   5.421   5.936   0.309  2.4089  1.2215  0.3015
 8452SOL     OW26955   5.954   2.370   0.634  0.5368  0.5342 -0.2686
 8452SOL    HW126956   6.033   2.362   0.573 -0.1428  0.4450 -1.1631
 8452SOL    HW226957   5.985   2.370   0.729  1.6417  0.9181 -0.6126
 8453SOL     OW26958   0.098   2.615   3.541  0.3436  0.0986  0.2509
 8453SOL    HW126959   0.179   2.556   3.545 -0.4676 -1.0079  0.7228
 8453SOL    HW226960   0.069   2.638   3.633  0.3606  0.8540  0.0748
 8454SOL     OW26961   1.837   0.852   5.633  0.3042  0.3810 -0.5718
 8454SOL    HW126962   1.759   0.913   5.643  0.7786  0.7407  1.4244
 8454SOL    HW226963   1.813   0.776   5.572 -2.2825 -0.5612  1.4436
 8455SOL     OW26964   3.849   4.515   4.791 -0.0050  0.3348 -0.6471
 8455SOL    HW126965   3.880   4.421   4.803 -1.1017  0.0116 -0.1752
 8455SOL    HW226966   3.925   4.572   4.761  0.3549 -0.9659 -2.3487
 8456SOL     OW26967   1.179   2.446   2.755  0.2351  0.2607  0.6283
 8456SOL    HW126968   1.226   2.358   2.768  0.7078  0.5799  1.0929
 8456SOL    HW226969   1.235   2.505   2.696 -0.7676 -0.2828 -0.9432
 8457SOL     OW26970   5.658   1.752   0.133  0.3890 -0.2106  0.1505
 8457SOL    HW126971   5.658   1.837   0.082  1.3623 -0.7337 -0.7600
 8457SOL    HW226972   5.565   1.729   0.161  0.0072  0.6896 -0.3678
 8458SOL     OW26973   1.365   2.844   5.143  0.2668  0.0202  0.6691
 8458SOL    HW126974   1.454   2.802   5.162  0.6596  0.5191 -0.0146
 8458SOL    HW226975   1.292   2.790   5.185  0.6159 -2.2065 -1.3998
 8459SOL     OW26976   3.438   3.677   0.070 -0.0915  0.0829 -0.1367
 8459SOL    HW126977   3.498   3.641  -0.001  3.0268 -0.3075  2.5044
 8459SOL    HW226978   3.399   3.764   0.039 -1.2671 -1.4354 -3.3789
 8460SOL     OW26979   5.993   5.654   0.433  0.3186  0.5276  0.2989
 8460SOL    HW126980   5.952   5.714   0.364  1.2938  0.1860 -0.6117
 8460SOL    HW226981   6.042   5.580   0.387  1.0549  0.3263  1.3709
 8461SOL     OW26982   4.406   6.173   5.849 -0.3929 -0.9544 -0.4380
 8461SOL    HW126983   4.403   6.221   5.761  1.3024 -0.4576 -0.2630
 8461SOL    HW226984   4.405   6.239   5.923  0.2593 -1.2602 -0.1482
 8462SOL     OW26985   3.159   6.343   2.288 -0.2941  0.7078 -0.9120
 8462SOL    HW126986   3.073   6.293   2.283 -0.1033  0.1472  0.7021
 8462SOL    HW226987   3.215   6.324   2.207 -0.9268 -0.3595 -1.1084
 8463SOL     OW26988   6.258   0.565   0.370  0.5453  0.0952 -0.3709
 8463SOL    HW126989   6.204   0.573   0.454  0.0442 -0.3008 -0.6426
 8463SOL    HW226990   6.198   0.577   0.291  0.8894 -0.1708 -0.6778
 8464SOL     OW26991   3.193   2.784   5.691 -0.0433 -0.0585  0.0288
 8464SOL    HW126992   3.126   2.858   5.696  1.3288  1.1919  0.8819
 8464SOL    HW226993   3.199   2.751   5.597  0.1136  1.7128 -0.6294
 8465SOL     OW26994   0.954   0.798   6.760 -0.6590 -0.5839 -0.1741
 8465SOL    HW126995   0.874   0.770   6.812 -0.3617 -0.6985  0.2242
 8465SOL    HW226996   0.941   0.892   6.727 -0.8237 -0.4848  0.1648
 8466SOL     OW26997   2.428   5.078   6.069  0.3077 -0.0671 -0.3836
 8466SOL    HW126998   2.367   5.150   6.100  0.9515 -0.6641  2.5614
 8466SOL    HW226999   2.472   5.107   5.984  0.1802  2.8155  0.4036
 8467SOL     OW27000   0.571   3.703   4.014  0.1562 -0.1869  0.3347
 8467SOL    HW127001   0.588   3.727   4.110 -1.0565 -0.5014  0.6418
 8467SOL    HW227002   0.629   3.759   3.955  1.5491 -0.5892  1.2731
 8468SOL     OW27003   0.784   5.434   3.871 -0.1261  0.1506 -0.4851
 8468SOL    HW127004   0.860   5.498   3.854 -1.5239  1.7430 -1.1098
 8468SOL    HW227005   0.770   5.423   3.969  0.8515 -0.0836 -0.3694
 8469SOL     OW27006   5.109   4.391   0.513  0.0890 -0.2113 -0.0125
 8469SOL    HW127007   5.192   4.359   0.468  0.7910  0.3068  0.8683
 8469SOL    HW227008   5.133   4.435   0.600 -1.2518 -1.7095  1.1980
 8470SOL     OW27009   0.568   3.458   1.607 -0.1003  0.4885 -0.6651
 8470SOL    HW127010   0.649   3.509   1.634 -0.2184  0.5794 -0.4837
 8470SOL    HW227011   0.542   3.394   1.680  0.3490 -0.2017 -1.0955
 8471SOL     OW27012   5.740   0.020   2.633 -0.2437  0.3422 -0.3573
 8471SOL    HW127013   5.771   0.114   2.622  1.4295 -0.1836 -0.3212
 8471SOL    HW227014   5.693   0.011   2.721  1.4693  0.6755  0.6212
 8472SOL     OW27015   1.806   3.211   4.211 -0.1042 -0.3088 -0.5449
 8472SOL    HW127016   1.720   3.195   4.259 -1.2349  0.0211 -2.3685
 8472SOL    HW227017   1.855   3.124   4.200 -1.0679 -0.8113 -1.0214
 8473SOL     OW27018   2.156   1.373   1.326 -0.1108 -0.5633  0.2583
 8473SOL    HW127019   2.232   1.429   1.293  0.7584 -1.6730  0.3397
 8473SOL    HW227020   2.124   1.409   1.413  2.0474 -1.5698  1.5505
 8474SOL     OW27021   0.088   3.381   0.908  0.3619 -0.4081  0.2315
 8474SOL    HW127022   0.116   3.338   0.994  0.0013 -0.2886  0.4128
 8474SOL    HW227023   0.169   3.404   0.854  0.6706  0.9126  1.2143
 8475SOL     OW27024   4.660   5.032   3.046  0.1403  0.0133  0.3299
 8475SOL    HW127025   4.564   5.045   3.023 -0.1909  0.6737  1.9667
 8475SOL    HW227026   4.680   4.934   3.053 -0.8510 -0.1294  1.5998
 8476SOL     OW27027   1.570   0.983   0.464 -0.0785 -0.0992 -0.1559
 8476SOL    HW127028   1.502   1.049   0.432  2.4383  3.1484  0.6568
 8476SOL    HW227029   1.562   0.972   0.563 -0.5869 -1.2151 -0.3066
 8477SOL     OW27030   4.944   1.219   4.852  0.1078  0.3366 -0.2683
 8477SOL    HW127031   4.884   1.235   4.774 -1.0021 -0.7112  0.3400
 8477SOL    HW227032   5.001   1.138   4.834 -0.1289  0.1109 -0.0160
 8478SOL     OW27033   1.464   2.147   0.992  0.0631  0.1385  0.0839
 8478SOL    HW127034   1.398   2.091   1.042 -0.0436  0.8443  0.7540
 8478SOL    HW227035   1.534   2.181   1.056  0.8616 -0.2850 -0.5484
 8479SOL     OW27036   3.835   2.759   1.011 -0.0778  0.5557  0.6302
 8479SOL    HW127037   3.763   2.821   0.981  2.0062  2.7608 -0.1942
 8479SOL    HW227038   3.870   2.789   1.100  0.1398 -0.1917  0.8076
 8480SOL     OW27039   4.255   1.439   6.320 -0.1953 -0.2077 -0.3715
 8480SOL    HW127040   4.239   1.508   6.249 -0.2194  0.0410 -0.1256
 8480SOL    HW227041   4.204   1.356   6.298 -0.3487 -0.0668 -0.5510
 8481SOL     OW27042   6.171   5.155   3.242 -0.5557  0.0221 -0.1569
 8481SOL    HW127043   6.132   5.190   3.328 -0.2991  0.8900 -0.3849
 8481SOL    HW227044   6.182   5.056   3.249  0.1720  0.1658  1.1048
 8482SOL     OW27045   6.204   0.220   0.917  0.1390 -0.0525  0.1235
 8482SOL    HW127046   6.145   0.300   0.902 -0.4317 -0.6672 -1.0214
 8482SOL    HW227047   6.202   0.196   1.014  1.1447  1.9335  0.6905
 8483SOL     OW27048   4.206   0.359   2.529 -0.1530 -0.3038 -0.2686
 8483SOL    HW127049   4.166   0.284   2.581 -0.6923  0.7015  0.8215
 8483SOL    HW227050   4.226   0.329   2.436  0.8370 -2.1590  0.4840
 8484SOL     OW27051   3.985   2.431   1.712 -0.5157  0.3871 -0.0762
 8484SOL    HW127052   3.972   2.395   1.804 -0.9769  0.2834 -0.1768
 8484SOL    HW227053   3.975   2.356   1.646  0.8735  0.2364 -0.1624
 8485SOL     OW27054   3.636   2.515   5.825  0.2416 -0.8812  0.1752
 8485SOL    HW127055   3.693   2.442   5.861  1.3323 -0.0943  0.1061
 8485SOL    HW227056   3.645   2.596   5.882  1.6502  0.2483 -1.5497
 8486SOL     OW27057   0.757   3.618   1.687  0.1096  0.3264 -0.1107
 8486SOL    HW127058   0.844   3.666   1.694  0.5958 -0.3745 -1.1240
 8486SOL    HW227059   0.685   3.681   1.658  0.4578  0.7181 -0.1160
 8487SOL     OW27060   6.284   0.406   5.701  0.1552  0.6327 -0.0782
 8487SOL    HW127061   6.267   0.308   5.695 -0.2059  0.7753 -3.5236
 8487SOL    HW227062   6.203   0.456   5.668  0.7220  2.0543  0.6014
 8488SOL     OW27063   6.251   1.239   0.149 -0.0980  0.1899 -0.5206
 8488SOL    HW127064   6.177   1.298   0.117 -0.0523 -0.0205 -1.0205
 8488SOL    HW227065   6.292   1.191   0.071  0.3502  0.0589 -0.2090
 8489SOL     OW27066   4.287   1.883   5.796 -0.1666  0.4960 -0.0498
 8489SOL    HW127067   4.212   1.835   5.750 -0.3530  2.3398 -1.8357
 8489SOL    HW227068   4.259   1.911   5.887 -0.6446 -1.1859  0.3594
 8490SOL     OW27069   2.028   0.901   0.439  0.2952 -0.3911  0.1422
 8490SOL    HW127070   2.098   0.929   0.374  1.8946 -1.8419  1.1676
 8490SOL    HW227071   1.954   0.968   0.438  0.3982 -0.1689 -2.8748
 8491SOL     OW27072   5.837   0.513   4.045 -0.1212  0.2923 -0.9447
 8491SOL    HW127073   5.758   0.452   4.043  0.0109  0.1041 -0.5096
 8491SOL    HW227074   5.909   0.476   3.986  0.1954 -0.3053 -0.1946
 8492SOL     OW27075   1.637   3.441   5.562 -0.4428  0.1226 -0.4371
 8492SOL    HW127076   1.728   3.444   5.602 -0.6291  0.3774 -0.0248
 8492SOL    HW227077   1.594   3.353   5.582 -1.4333  1.0663  1.9806
 8493SOL     OW27078   2.330   5.900   3.469 -0.0602 -0.1373  0.3694
 8493SOL    HW127079   2.425   5.914   3.441 -0.0311  0.8741  0.9501
 8493SOL    HW227080   2.273   5.972   3.430 -0.2959  0.2849  1.4670
 8494SOL     OW27081   2.676   6.224   2.354 -0.0258 -0.0483  0.2898
 8494SOL    HW127082   2.638   6.271   2.275  0.9161 -0.6765 -0.5594
 8494SOL    HW227083   2.668   6.125   2.340  1.0869 -0.1804  0.4913
 8495SOL     OW27084   2.520   5.470   2.714  0.5464 -1.0250  0.3429
 8495SOL    HW127085   2.501   5.504   2.622  0.7203  0.4318  0.8177
 8495SOL    HW227086   2.576   5.537   2.763  2.9772 -3.0655  0.5585
 8496SOL     OW27087   1.934   0.065   4.169  0.3455  0.1360 -0.8141
 8496SOL    HW127088   1.917   0.162   4.149  2.2620  0.4499 -1.1126
 8496SOL    HW227089   1.892   0.042   4.258  2.7985  2.2335  1.0388
 8497SOL     OW27090   5.595   2.519   0.393 -0.0911  0.3269 -0.1994
 8497SOL    HW127091   5.650   2.573   0.329  0.4611  0.6824  0.5584
 8497SOL    HW227092   5.648   2.502   0.476 -1.4614  1.5708  0.9922
 8498SOL     OW27093   1.032   0.411   4.061 -0.2749 -0.5048 -0.0197
 8498SOL    HW127094   0.990   0.482   4.118 -0.3770 -0.9697  0.4825
 8498SOL    HW227095   0.961   0.354   4.020 -0.1852 -0.4211 -0.2979
 8499SOL     OW27096   1.221   2.103   6.657  0.2917  0.6804  0.0069
 8499SOL    HW127097   1.128   2.132   6.681  0.5923  2.3428 -0.6792
 8499SOL    HW227098   1.286   2.172   6.688  1.3184 -0.5485  0.6116
 8500SOL     OW27099   1.527   4.325   3.292  0.3968 -0.3013 -0.0200
 8500SOL    HW127100   1.494   4.329   3.198 -1.5839  0.7136  0.6697
 8500SOL    HW227101   1.452   4.342   3.355  2.3265  3.3317  1.6249
 8501SOL     OW27102   1.039   5.667   0.090 -0.3149  0.7540  0.4984
 8501SOL    HW127103   0.942   5.653   0.073 -0.3232  1.2478  0.1039
 8501SOL    HW227104   1.068   5.612   0.169 -0.7007 -0.0996  0.0497
 8502SOL     OW27105   5.295   6.117   1.496  0.7261  0.5161  0.3480
 8502SOL    HW127106   5.246   6.156   1.418  2.2966  0.1669 -0.8652
 8502SOL    HW227107   5.388   6.092   1.468  0.6106 -1.7376  1.7338
 8503SOL     OW27108   7.018   4.463   5.584  0.3934 -0.1727  0.1619
 8503SOL    HW127109   7.037   4.427   5.493 -0.7916 -1.3215  0.3257
 8503SOL    HW227110   7.104   4.477   5.634  0.9758 -1.2364 -0.5136
 8504SOL     OW27111   6.989   2.802   4.614 -0.3121  0.3080 -0.2019
 8504SOL    HW127112   6.955   2.708   4.605  1.8519 -0.4983 -0.4191
 8504SOL    HW227113   6.996   2.844   4.523  0.0304  0.1865 -0.2324
 8505SOL     OW27114   2.156   5.250   0.763 -0.2405  0.3255 -0.2113
 8505SOL    HW127115   2.218   5.301   0.704  0.1696  2.6358  2.0473
 8505SOL    HW227116   2.081   5.310   0.792 -0.5345 -0.7759  1.4401
 8506SOL     OW27117   4.883   0.231   5.515 -0.0970 -0.3798 -0.5509
 8506SOL    HW127118   4.826   0.149   5.520 -3.2125  1.6350 -0.3254
 8506SOL    HW227119   4.924   0.247   5.605 -2.2860  0.0886  0.4398
 8507SOL     OW27120   3.674   0.532   1.649  0.0488 -0.1273 -0.2394
 8507SOL    HW127121   3.657   0.439   1.617  0.1272  0.2129 -1.2928
 8507SOL    HW227122   3.740   0.530   1.724 -0.1729 -0.9429 -0.0604
 8508SOL     OW27123   5.967   5.507   2.570  0.3962 -0.1258  0.0545
 8508SOL    HW127124   5.970   5.417   2.613  0.6300  0.1204  0.5596
 8508SOL    HW227125   5.877   5.548   2.582  0.4121 -0.1257  0.1690
 8509SOL     OW27126   6.080   6.009   4.841  0.2565 -0.1292  0.0879
 8509SOL    HW127127   6.105   5.919   4.877 -0.4044 -0.0734  0.7074
 8509SOL    HW227128   5.986   6.030   4.866  0.4066  0.7407 -0.0498
 8510SOL     OW27129   4.719   0.609   1.992  0.3347  0.1106 -0.3700
 8510SOL    HW127130   4.626   0.635   1.968 -0.6053 -0.2000  2.4980
 8510SOL    HW227131   4.776   0.691   1.999 -0.6469  0.7027  1.1633
 8511SOL     OW27132   1.195   3.163   3.334  0.0641 -0.2178  0.4195
 8511SOL    HW127133   1.194   3.248   3.388 -0.1359  0.4195 -0.5637
 8511SOL    HW227134   1.102   3.126   3.328 -0.2174  0.6034 -0.8184
 8512SOL     OW27135   6.158   0.009   2.963  0.0032  0.0272  0.0555
 8512SOL    HW127136   6.215  -0.068   2.938 -0.7820 -1.0419  1.4152
 8512SOL    HW227137   6.124   0.054   2.880 -0.4735 -1.8043 -0.7974
 8513SOL     OW27138   2.726   5.499   3.618 -0.3834 -0.6768  0.4730
 8513SOL    HW127139   2.677   5.534   3.698 -2.6290 -0.5247 -0.8955
 8513SOL    HW227140   2.677   5.525   3.535  2.1641 -0.3418 -1.0414
 8514SOL     OW27141   1.268   4.967   6.200 -0.2689 -0.4456  0.3356
 8514SOL    HW127142   1.290   5.064   6.203 -0.3628 -0.3976 -0.4533
 8514SOL    HW227143   1.250   4.939   6.106 -0.0490 -1.2715  0.5290
 8515SOL     OW27144   5.796   0.429   1.109 -0.0547 -0.7683  0.1842
 8515SOL    HW127145   5.837   0.518   1.131  1.1157 -1.3074  0.2590
 8515SOL    HW227146   5.735   0.401   1.184  1.2583 -1.0165  1.1947
 8516SOL     OW27147   6.629   1.282   3.557  0.0494  0.0873 -0.4797
 8516SOL    HW127148   6.709   1.334   3.586  1.0684 -1.8238  0.3324
 8516SOL    HW227149   6.658   1.191   3.526 -1.7299 -0.3619 -0.9455
 8517SOL     OW27150   6.968   0.797   3.332 -0.3752  0.7236 -0.3921
 8517SOL    HW127151   6.957   0.803   3.431  0.7718  1.6822 -0.3051
 8517SOL    HW227152   7.055   0.838   3.305 -0.7166  0.5742 -1.8172
 8518SOL     OW27153   4.472   1.714   4.900 -0.2428 -0.6115 -0.0471
 8518SOL    HW127154   4.506   1.808   4.894 -0.3863 -0.3818  1.9314
 8518SOL    HW227155   4.375   1.716   4.924  0.2431 -1.1910  2.2435
 8519SOL     OW27156   1.813   4.944   6.559 -0.2375  0.0356 -0.1292
 8519SOL    HW127157   1.816   4.870   6.627  0.4269 -1.0831 -1.3296
 8519SOL    HW227158   1.760   4.914   6.479 -0.5641  1.1340 -0.3498
 8520SOL     OW27159   1.479   1.278   2.375  0.1707 -0.1833 -0.4028
 8520SOL    HW127160   1.406   1.233   2.323 -0.2232  0.8331 -0.7563
 8520SOL    HW227161   1.454   1.280   2.472  0.6533 -1.5891 -0.2219
 8521SOL     OW27162   3.527   6.377   5.155 -0.3590  0.5761 -0.3362
 8521SOL    HW127163   3.555   6.444   5.087 -0.1136 -0.4896 -1.3035
 8521SOL    HW227164   3.483   6.300   5.110 -0.9152  0.2142  0.7901
 8522SOL     OW27165   1.024   0.176   0.090  0.4121 -0.3354  0.2183
 8522SOL    HW127166   1.028   0.187  -0.009 -0.4255  2.3957  0.4158
 8522SOL    HW227167   1.113   0.199   0.130  0.1910  0.5474  0.2216
 8523SOL     OW27168   3.947   1.306   2.537 -0.0099  0.2660  0.2800
 8523SOL    HW127169   4.029   1.302   2.480 -0.2469  0.3780 -0.0687
 8523SOL    HW227170   3.959   1.377   2.607  0.7798 -0.7081  1.1655
 8524SOL     OW27171   0.595   2.767   3.666 -0.0972  0.2281 -0.0940
 8524SOL    HW127172   0.615   2.670   3.649  0.4663  0.1264  1.0768
 8524SOL    HW227173   0.560   2.808   3.582  0.5846 -0.7534 -0.8899
 8525SOL     OW27174   6.248   2.760   1.622 -0.8859  0.0837  0.1305
 8525SOL    HW127175   6.316   2.706   1.671  1.4201  3.1070  0.5299
 8525SOL    HW227176   6.275   2.769   1.526 -2.2756 -0.9398 -0.3994
 8526SOL     OW27177   2.568   2.721   5.564 -0.0074 -0.3092 -0.2234
 8526SOL    HW127178   2.629   2.662   5.512 -0.5202  0.1574 -1.4130
 8526SOL    HW227179   2.529   2.670   5.640  0.4834 -1.1356 -0.5066
 8527SOL     OW27180   2.291   0.219   2.691  0.1116  0.4442 -0.0016
 8527SOL    HW127181   2.342   0.260   2.766  4.5031 -1.6243 -1.4599
 8527SOL    HW227182   2.237   0.142   2.725  1.2613  0.1463  1.2323
 8528SOL     OW27183   6.611   2.801   1.625  0.2953 -0.4841  0.1451
 8528SOL    HW127184   6.559   2.845   1.551  0.7928  1.1743  0.7402
 8528SOL    HW227185   6.576   2.709   1.639  0.1855 -0.8563 -2.1481
 8529SOL     OW27186   6.422   6.496   2.588 -0.0537 -0.0661 -1.4037
 8529SOL    HW127187   6.334   6.484   2.633 -0.0285  0.6129 -1.1675
 8529SOL    HW227188   6.437   6.592   2.567  0.3642 -0.2516 -1.9968
 8530SOL     OW27189   4.827   3.971   1.097 -0.0378  0.1451  0.0133
 8530SOL    HW127190   4.859   4.066   1.093  0.5253 -0.0161  0.5179
 8530SOL    HW227191   4.807   3.947   1.192  0.2635 -0.3802 -0.0516
 8531SOL     OW27192   5.408   2.324   6.950  0.8296  0.2083  0.0020
 8531SOL    HW127193   5.394   2.338   7.048  3.2124  3.1243  0.0743
 8531SOL    HW227194   5.489   2.268   6.935 -0.3470 -1.4730 -0.3834
 8532SOL     OW27195   6.665   2.168   5.152 -0.3495  1.0061 -0.7522
 8532SOL    HW127196   6.738   2.182   5.085 -1.5732  2.8908 -1.8005
 8532SOL    HW227197   6.678   2.081   5.199  0.7121 -0.2863 -3.2493
 8533SOL     OW27198   4.999   5.288   4.752 -0.3539  0.4876 -0.2581
 8533SOL    HW127199   5.082   5.249   4.792 -0.0743  0.7552 -0.5730
 8533SOL    HW227200   4.953   5.220   4.695 -0.7985  0.0742  0.5679
 8534SOL     OW27201   4.234   6.132   0.445  0.0690 -0.5668 -0.5502
 8534SOL    HW127202   4.299   6.102   0.376  0.8560 -0.6867  0.2314
 8534SOL    HW227203   4.147   6.085   0.431  0.4077 -1.0512 -1.0715
 8535SOL     OW27204   0.483   3.900   5.715  0.5335 -0.0839  0.0175
 8535SOL    HW127205   0.443   3.864   5.631  0.7180  0.5417 -0.3430
 8535SOL    HW227206   0.451   3.993   5.730 -0.0942 -0.4452  1.0467
 8536SOL     OW27207   4.179   1.915   6.076  0.5590 -0.3791 -0.0642
 8536SOL    HW127208   4.158   2.013   6.073  1.4845 -0.1876 -0.8316
 8536SOL    HW227209   4.104   1.864   6.034 -0.7943 -0.1829  1.9787
 8537SOL     OW27210   1.440   6.246   2.581  0.2889 -0.3941  0.3985
 8537SOL    HW127211   1.492   6.174   2.626  2.6304 -0.5785 -2.3357
 8537SOL    HW227212   1.361   6.207   2.534  1.0606 -1.0877 -0.3457
 8538SOL     OW27213   2.094   6.519   6.549  0.1805 -0.0883 -0.7398
 8538SOL    HW127214   2.000   6.533   6.579  0.5696 -0.6043  0.8473
 8538SOL    HW227215   2.109   6.566   6.462 -1.2058  0.9830 -0.4360
 8539SOL     OW27216   1.804   1.856   3.961  0.0939  0.3765  0.2587
 8539SOL    HW127217   1.771   1.761   3.958 -0.6263  0.6124  0.3932
 8539SOL    HW227218   1.876   1.868   3.892  1.8744 -0.8575  1.8037
 8540SOL     OW27219   0.974   5.107   4.899  0.6462 -0.3209  0.3826
 8540SOL    HW127220   1.070   5.098   4.871  1.1531  2.9857  0.7104
 8540SOL    HW227221   0.960   5.060   4.986  1.6244 -1.9010 -0.2708
 8541SOL     OW27222   6.538   2.763   4.903 -0.0561  0.1415 -0.3506
 8541SOL    HW127223   6.532   2.798   4.809  0.2499 -1.4241 -0.9864
 8541SOL    HW227224   6.446   2.741   4.936 -0.0367 -0.7245 -0.8576
 8542SOL     OW27225   0.143   6.400   3.734 -0.5275  0.0972 -0.0752
 8542SOL    HW127226   0.101   6.383   3.823  1.4515  2.6934  1.4945
 8542SOL    HW227227   0.188   6.316   3.702 -0.5566 -0.6664  1.7618
 8543SOL     OW27228   4.422   6.975   4.414  0.2913  0.4849 -0.3041
 8543SOL    HW127229   4.513   6.944   4.389  0.2936  1.6660 -1.8581
 8543SOL    HW227230   4.355   6.939   4.349 -0.4869 -0.8475  1.1372
 8544SOL     OW27231   5.673   5.173   2.382  0.0705 -0.0740  0.4820
 8544SOL    HW127232   5.584   5.199   2.419  0.7071  1.3956  1.0609
 8544SOL    HW227233   5.671   5.076   2.356 -1.4167 -0.2937  1.2825
 8545SOL     OW27234   5.289   5.972   5.073 -0.0591  0.6361  0.2699
 8545SOL    HW127235   5.255   5.952   4.981  0.6882 -0.2194  0.1707
 8545SOL    HW227236   5.331   5.891   5.112  0.6286  1.2954  0.9425
 8546SOL     OW27237   4.735   2.416   1.085 -0.7951  0.2284  0.1730
 8546SOL    HW127238   4.784   2.421   1.172 -0.6595  1.8477  0.0271
 8546SOL    HW227239   4.655   2.476   1.088 -1.6162 -0.8008 -0.3318
 8547SOL     OW27240   6.808   2.189   0.264 -0.8756  0.8116 -0.5575
 8547SOL    HW127241   6.806   2.104   0.317  3.1327  1.2870  0.6992
 8547SOL    HW227242   6.745   2.255   0.303 -0.7265 -0.1135  1.3517
 8548SOL     OW27243   3.195   0.319   4.763  0.4741  0.3440 -0.1463
 8548SOL    HW127244   3.209   0.227   4.798  0.0051 -0.2050 -1.3458
 8548SOL    HW227245   3.098   0.343   4.772  0.2475 -0.0002 -1.4636
 8549SOL     OW27246   2.587   5.804   4.166 -0.6476 -0.4637 -0.0966
 8549SOL    HW127247   2.543   5.758   4.089 -0.9939  0.0217 -0.1934
 8549SOL    HW227248   2.549   5.896   4.176  0.4914  0.0495 -0.3115
 8550SOL     OW27249   2.030   4.196   0.962 -0.3082  0.5465 -0.0714
 8550SOL    HW127250   2.095   4.126   0.990  1.0969  1.9936  0.4411
 8550SOL    HW227251   1.961   4.208   1.033  0.0925  0.4395  0.3392
 8551SOL     OW27252   4.637   2.058   2.895 -0.3742  0.4947  0.5463
 8551SOL    HW127253   4.596   2.114   2.823  0.4888  1.5977  0.8734
 8551SOL    HW227254   4.674   1.974   2.855 -1.1274  0.4398 -0.0597
 8552SOL     OW27255   6.481   5.663   2.652 -0.4652  0.0291  0.4849
 8552SOL    HW127256   6.441   5.588   2.705 -1.9789  1.5258  1.5252
 8552SOL    HW227257   6.438   5.667   2.562  0.1451 -0.7825  0.1437
 8553SOL     OW27258   0.875   5.454   6.826 -0.5212  0.5130 -0.0413
 8553SOL    HW127259   0.965   5.461   6.783 -0.8854 -0.0007 -0.8909
 8553SOL    HW227260   0.843   5.546   6.850  1.0530  0.5901  2.0364
 8554SOL     OW27261   5.052   6.417   5.272 -0.4701 -0.1641  0.3866
 8554SOL    HW127262   5.097   6.352   5.212  0.5314  0.4393  0.4596
 8554SOL    HW227263   5.093   6.412   5.363 -1.3071 -0.3748  0.7651
 8555SOL     OW27264   2.392   4.672   1.661  0.3090 -0.5710  0.6119
 8555SOL    HW127265   2.471   4.713   1.615 -1.1819 -0.0926 -1.6629
 8555SOL    HW227266   2.309   4.720   1.634 -0.9888 -2.1761  1.5615
 8556SOL     OW27267   3.202   5.536   5.042  0.2663  0.4318 -0.5500
 8556SOL    HW127268   3.203   5.568   4.947  0.0108 -0.1431 -0.7494
 8556SOL    HW227269   3.239   5.607   5.101  2.1913  0.0895 -1.2922
 8557SOL     OW27270   4.294   4.280   0.731  0.3572 -1.1006  0.2634
 8557SOL    HW127271   4.320   4.197   0.781  2.6329 -1.0064 -0.6547
 8557SOL    HW227272   4.296   4.359   0.792  0.6035 -1.3604  0.5898
 8558SOL     OW27273   4.199   3.354   6.937  0.8018  0.0783  0.0218
 8558SOL    HW127274   4.188   3.255   6.948  0.7733  0.0105 -0.6052
 8558SOL    HW227275   4.206   3.396   7.027 -1.5513 -0.2263  0.4286
 8559SOL     OW27276   2.796   5.936   3.052 -0.1359  0.1165  0.4930
 8559SOL    HW127277   2.839   5.898   2.970 -0.0766 -0.3720  0.7421
 8559SOL    HW227278   2.866   5.970   3.114 -0.0071 -1.5136  1.3091
 8560SOL     OW27279   3.588   3.134   2.022 -0.1167 -0.2296  0.1808
 8560SOL    HW127280   3.518   3.196   1.985 -0.4897 -1.1400 -0.6645
 8560SOL    HW227281   3.561   3.039   2.006 -0.6116 -0.7528  3.3098
 8561SOL     OW27282   2.025   3.485   6.664 -0.3600 -0.1239 -0.5892
 8561SOL    HW127283   2.068   3.401   6.630  1.1885  0.0137  0.8916
 8561SOL    HW227284   2.026   3.554   6.591  0.5300 -0.6378 -1.0837
 8562SOL     OW27285   5.685   2.025   0.039  0.3695 -0.3036  0.1425
 8562SOL    HW127286   5.692   2.100   0.105 -0.7701  1.0581 -1.1998
 8562SOL    HW227287   5.654   2.061  -0.049  0.3061 -2.2929 -0.7029
 8563SOL     OW27288   5.976   2.363   6.019 -0.5120 -0.7557  0.1737
 8563SOL    HW127289   5.957   2.273   6.059 -2.4363  0.6952  2.8066
 8563SOL    HW227290   5.909   2.382   5.948 -0.0325 -1.4043 -0.4708
 8564SOL     OW27291   2.845   3.989   1.081  0.7488  0.4186  0.0195
 8564SOL    HW127292   2.940   4.018   1.089  0.5708  0.8196  0.7861
 8564SOL    HW227293   2.807   3.973   1.172  0.7178 -1.9113 -0.3541
 8565SOL     OW27294   4.616   4.701   5.704  0.9650 -0.0529  0.8958
 8565SOL    HW127295   4.549   4.747   5.647  1.3692 -0.4523  0.0685
 8565SOL    HW227296   4.662   4.767   5.763  0.4345  0.3413  0.8739
 8566SOL     OW27297   6.384   5.035   2.546  0.2277 -0.1932 -0.4081
 8566SOL    HW127298   6.388   5.135   2.550  0.9912 -0.2523  1.5086
 8566SOL    HW227299   6.459   4.997   2.601 -0.7611 -1.8003 -0.1092
 8567SOL     OW27300   2.929   5.029   1.300  0.0458 -0.2995 -0.2371
 8567SOL    HW127301   2.961   4.939   1.331 -0.2730 -0.1155  0.6366
 8567SOL    HW227302   2.842   5.050   1.344 -0.8794 -0.4072 -1.9192
 8568SOL     OW27303   3.588   4.989   5.250  0.6188 -0.4220 -0.6543
 8568SOL    HW127304   3.627   4.978   5.341 -0.7245  0.1908  0.0154
 8568SOL    HW227305   3.493   4.955   5.250  1.2889 -2.5611 -2.4160
 8569SOL     OW27306   5.890   0.774   0.593 -0.8234 -0.3700  0.1269
 8569SOL    HW127307   5.804   0.726   0.605 -1.0506  0.3050  1.4375
 8569SOL    HW227308   5.874   0.873   0.596 -0.5419 -0.0513 -3.6664
 8570SOL     OW27309   2.423   1.296   4.901 -0.1886 -0.0349  0.5108
 8570SOL    HW127310   2.463   1.381   4.867  0.4684 -0.2550  0.7122
 8570SOL    HW227311   2.380   1.312   4.990 -0.6756  0.2364  0.2268
 8571SOL     OW27312   6.921   5.604   0.304  0.6942 -0.1800  0.1041
 8571SOL    HW127313   6.916   5.515   0.350  2.0407 -0.6050 -0.5290
 8571SOL    HW227314   6.835   5.622   0.257  0.4881 -1.2518  0.0474
 8572SOL     OW27315   1.473   2.858   2.696 -0.0484 -0.2268 -0.1570
 8572SOL    HW127316   1.554   2.813   2.735  0.1897  0.6126  0.3546
 8572SOL    HW227317   1.502   2.924   2.627 -0.1187  1.3329  1.2367
 8573SOL     OW27318   3.968   4.161   0.829  0.1840 -0.0581 -0.2865
 8573SOL    HW127319   4.017   4.187   0.745 -1.2224 -0.2613 -1.1983
 8573SOL    HW227320   3.874   4.134   0.806 -0.0919 -0.5473  1.3137
 8574SOL     OW27321   5.470   1.307   3.019 -0.1316  0.0272 -0.0046
 8574SOL    HW127322   5.506   1.272   3.105  0.9431 -3.2272 -1.6085
 8574SOL    HW227323   5.378   1.270   3.004  0.7500 -1.7423 -1.4187
 8575SOL     OW27324   4.906   4.781   6.714  0.4270  0.0335  0.0788
 8575SOL    HW127325   4.927   4.826   6.627  0.4320 -1.6772 -0.8562
 8575SOL    HW227326   4.856   4.696   6.697  0.7491 -0.5345  1.7317
 8576SOL     OW27327   7.017   2.585   0.072  0.4172 -0.2106 -0.4086
 8576SOL    HW127328   6.991   2.679   0.049  0.6829 -0.2967 -1.0981
 8576SOL    HW227329   6.992   2.525  -0.004  2.0565 -0.3868 -0.8527
 8577SOL     OW27330   2.971   4.305   5.952 -0.6243 -0.3810 -0.4207
 8577SOL    HW127331   2.932   4.217   5.978 -0.8674 -0.6232 -1.5953
 8577SOL    HW227332   2.903   4.360   5.905 -0.9487  1.0583  1.5561
 8578SOL     OW27333   3.804   6.980   5.913  0.8675 -0.0775 -0.3220
 8578SOL    HW127334   3.853   6.894   5.927 -1.0234 -1.2450 -0.6228
 8578SOL    HW227335   3.818   7.039   5.993  0.4785 -1.5292  0.8577
 8579SOL     OW27336   2.305   3.037   5.358  0.0566 -0.4250 -0.5043
 8579SOL    HW127337   2.253   3.121   5.357  1.5762  0.5626 -0.5314
 8579SOL    HW227338   2.402   3.057   5.343  0.4753 -2.1654 -0.4314
 8580SOL     OW27339   5.347   1.824   7.004 -0.1716  0.2060 -0.3269
 8580SOL    HW127340   5.328   1.908   6.953 -0.0628  0.9618  0.8503
 8580SOL    HW227341   5.279   1.755   6.980 -1.6520  1.3678  0.3552
 8581SOL     OW27342   5.211   1.934   1.408 -0.5026 -0.0944  0.3076
 8581SOL    HW127343   5.145   1.870   1.368  0.2053  0.3582 -1.6884
 8581SOL    HW227344   5.177   2.027   1.400  0.1295  0.0967 -0.2516
 8582SOL     OW27345   5.720   6.571   5.069  0.4644  0.6771 -0.3811
 8582SOL    HW127346   5.651   6.499   5.082  0.1574  1.1156  0.4633
 8582SOL    HW227347   5.681   6.644   5.014 -0.1854  1.4927  1.1015
 8583SOL     OW27348   1.928   5.666   6.801  0.5250 -0.4194  0.4714
 8583SOL    HW127349   1.967   5.753   6.768 -1.9745 -0.3250 -2.7438
 8583SOL    HW227350   1.994   5.593   6.786  1.3608  0.4186 -0.0755
 8584SOL     OW27351   2.540   0.851   2.446 -0.5412  0.3904 -0.4846
 8584SOL    HW127352   2.522   0.814   2.537 -0.9273 -0.2435 -0.8184
 8584SOL    HW227353   2.639   0.862   2.434 -0.4128 -0.6939 -0.4456
 8585SOL     OW27354   3.408   0.573   3.934  0.4689  0.1272 -0.0400
 8585SOL    HW127355   3.398   0.473   3.933 -0.4017  0.2042 -0.1524
 8585SOL    HW227356   3.335   0.614   3.879  2.6980  0.6974 -2.7258
 8586SOL     OW27357   0.654   4.032   1.704  0.0743 -0.0101  0.0051
 8586SOL    HW127358   0.623   4.040   1.799 -0.2567  1.0190 -0.1796
 8586SOL    HW227359   0.615   4.107   1.650 -1.3441 -1.6616 -1.3787
 8587SOL     OW27360   5.457   0.990   0.689  0.1359 -0.2206 -0.0659
 8587SOL    HW127361   5.421   0.925   0.622  1.7671  0.6148 -1.8377
 8587SOL    HW227362   5.531   0.948   0.741  1.0465  0.1268 -1.0630
 8588SOL     OW27363   4.840   0.411   2.817  0.8733  0.6627  0.1620
 8588SOL    HW127364   4.768   0.480   2.809  0.9046  0.6602 -0.1536
 8588SOL    HW227365   4.903   0.420   2.740  0.9589  0.3774  0.1984
 8589SOL     OW27366   3.815   6.052   1.180  0.0307 -1.1714  0.8288
 8589SOL    HW127367   3.800   5.957   1.207  0.4629 -1.5897 -0.3416
 8589SOL    HW227368   3.732   6.089   1.140  0.0302 -1.2434  0.7624
 8590SOL     OW27369   2.630   6.354   2.581  0.9017  0.2469  0.2190
 8590SOL    HW127370   2.699   6.398   2.639  1.9120 -0.7111 -0.2283
 8590SOL    HW227371   2.674   6.313   2.502 -0.3906  1.0087 -0.9492
 8591SOL     OW27372   4.498   1.504   1.968  0.4451  0.1714  1.0236
 8591SOL    HW127373   4.487   1.523   2.066 -0.8212  0.4836  0.8355
 8591SOL    HW227374   4.486   1.589   1.917 -1.0932 -0.3661  0.4519
 8592SOL     OW27375   6.605   5.885   1.577  0.0988  0.4600  0.3969
 8592SOL    HW127376   6.550   5.882   1.661 -1.2061  2.3275 -0.3237
 8592SOL    HW227377   6.591   5.972   1.531  0.0287 -0.8660 -2.2780
 8593SOL     OW27378   5.323   1.642   4.901  0.6697  0.1095  0.1917
 8593SOL    HW127379   5.394   1.572   4.906  1.2190  0.6958  0.6275
 8593SOL    HW227380   5.317   1.690   4.988 -0.2937  0.0450  0.1761
 8594SOL     OW27381   1.800   2.590   1.498 -0.0717  0.2305  0.9176
 8594SOL    HW127382   1.781   2.492   1.495  2.1557 -0.2546  0.4481
 8594SOL    HW227383   1.855   2.616   1.419 -2.5393  2.3759 -0.2355
 8595SOL     OW27384   4.057   5.985   0.876  0.4738 -0.0811  0.3032
 8595SOL    HW127385   4.132   5.964   0.814  2.0019 -0.1930  2.1006
 8595SOL    HW227386   4.077   5.948   0.967 -0.2693  2.5503  1.6436
 8596SOL     OW27387   1.208   4.029   1.171  0.2723 -0.5361 -0.2285
 8596SOL    HW127388   1.222   4.127   1.153 -0.8917 -0.3827 -0.4184
 8596SOL    HW227389   1.164   4.018   1.260  0.5294 -0.9041 -0.1453
 8597SOL     OW27390   5.803   0.211   3.485  0.0426 -0.0718  0.3352
 8597SOL    HW127391   5.746   0.229   3.566 -0.0183 -0.4481  0.3748
 8597SOL    HW227392   5.841   0.119   3.490  1.9453  0.6926  1.0948
 8598SOL     OW27393   6.779   5.130   4.396 -0.0824  0.0454 -0.4375
 8598SOL    HW127394   6.748   5.045   4.353 -0.3738  0.0592 -0.2531
 8598SOL    HW227395   6.843   5.108   4.470  0.8889  0.0463 -1.2579
 8599SOL     OW27396   3.084   0.609   0.470 -0.2189 -0.3219 -0.1723
 8599SOL    HW127397   2.991   0.646   0.466 -0.2009 -0.4117 -2.7105
 8599SOL    HW227398   3.079   0.510   0.484 -0.4635 -0.2297  0.4370
 8600SOL     OW27399   2.216   3.524   3.443 -0.2477  0.0262  0.2540
 8600SOL    HW127400   2.155   3.598   3.415  1.5698  0.3899 -3.2563
 8600SOL    HW227401   2.162   3.440   3.457 -1.8752  1.0773  0.6059
 8601SOL     OW27402   0.239   4.796   3.178  0.2333 -0.2820  0.2251
 8601SOL    HW127403   0.202   4.786   3.271  1.5625 -1.4128  0.6654
 8601SOL    HW227404   0.339   4.786   3.181  0.4116  0.8074 -1.1838
 8602SOL     OW27405   0.927   0.697   3.897  0.4929 -0.2746 -0.1648
 8602SOL    HW127406   0.841   0.679   3.946  0.1949 -1.5021 -1.0796
 8602SOL    HW227407   0.937   0.795   3.882 -0.3623 -0.0468  0.6365
 8603SOL     OW27408   5.762   2.034   1.385 -0.4735  0.0771 -1.1093
 8603SOL    HW127409   5.713   2.026   1.472 -0.4927  0.2384 -1.1047
 8603SOL    HW227410   5.828   2.109   1.391  0.7261 -0.9839 -0.6600
 8604SOL     OW27411   3.347   4.100   0.749 -0.1409 -0.6033  0.1571
 8604SOL    HW127412   3.323   4.188   0.709 -0.2171 -1.0555 -0.8369
 8604SOL    HW227413   3.270   4.036   0.736  0.1716 -1.0048  0.2612
 8605SOL     OW27414   0.487   5.113   2.768  0.7037 -0.4135  0.2419
 8605SOL    HW127415   0.463   5.210   2.761  0.3883 -0.4928  0.2445
 8605SOL    HW227416   0.540   5.086   2.688 -0.4603 -0.6055 -0.4797
 8606SOL     OW27417   6.263   2.988   5.875 -0.0691  0.1183  0.1349
 8606SOL    HW127418   6.361   2.979   5.893  0.6113  1.8648 -2.2356
 8606SOL    HW227419   6.218   2.902   5.897  2.1861 -1.1683  0.0664
 8607SOL     OW27420   3.415   1.451   5.470  0.1164  0.0826  0.0440
 8607SOL    HW127421   3.435   1.480   5.377 -1.4330  1.3071  0.0431
 8607SOL    HW227422   3.368   1.525   5.518  0.6716 -0.6093  1.7366
 8608SOL     OW27423   6.925   1.452   2.905  0.1550  0.1870  0.4663
 8608SOL    HW127424   7.009   1.494   2.940  0.7437 -0.4849 -0.1111
 8608SOL    HW227425   6.852   1.520   2.903  0.9388  1.0443  0.0878
 8609SOL     OW27426   0.540   6.339   6.961 -0.5016 -0.1532  0.3249
 8609SOL    HW127427   0.631   6.363   6.928 -0.8633  1.4494  0.4471
 8609SOL    HW227428   0.470   6.381   6.903 -1.1664 -0.8721  0.5825
 8610SOL     OW27429   5.269   3.946   0.292 -0.4583 -0.1282 -0.0436
 8610SOL    HW127430   5.326   3.992   0.224 -0.1283 -0.2909  0.1237
 8610SOL    HW227431   5.216   3.874   0.247 -0.0398 -0.4138 -0.0789
 8611SOL     OW27432   3.814   4.117   5.559 -0.1624 -0.0680  0.5159
 8611SOL    HW127433   3.756   4.036   5.563 -0.8071  0.2876 -0.9574
 8611SOL    HW227434   3.908   4.092   5.581 -0.5019 -1.0388  0.9280
 8612SOL     OW27435   5.058   5.670   5.896  0.0435 -0.1277 -0.7943
 8612SOL    HW127436   4.959   5.678   5.882  0.0498 -0.6337 -1.1495
 8612SOL    HW227437   5.103   5.753   5.864 -0.2871  0.2095 -0.4050
 8613SOL     OW27438   4.241   1.112   5.444 -0.5654  0.1871 -0.5955
 8613SOL    HW127439   4.333   1.103   5.406 -0.8113  0.4731 -1.2669
 8613SOL    HW227440   4.223   1.208   5.465 -1.1164  0.2971 -1.5203
 8614SOL     OW27441   6.139   2.598   0.508 -0.2880  0.3526  0.2455
 8614SOL    HW127442   6.185   2.510   0.500 -1.7970 -0.3203 -1.8070
 8614SOL    HW227443   6.048   2.585   0.548 -0.2917  1.0750  0.4929
 8615SOL     OW27444   4.812   5.758   2.623  0.8448  0.3639  0.3865
 8615SOL    HW127445   4.859   5.791   2.541 -0.8945 -0.2782 -0.9447
 8615SOL    HW227446   4.727   5.809   2.635 -0.7684 -1.9196 -0.4230
 8616SOL     OW27447   6.599   3.131   2.953  0.3113 -0.2833 -0.6210
 8616SOL    HW127448   6.607   3.102   3.048  1.8221  0.7316 -0.4013
 8616SOL    HW227449   6.503   3.136   2.928 -0.0974 -1.1850  0.6463
 8617SOL     OW27450   1.686   0.955   1.450  0.5272 -0.5224 -0.0957
 8617SOL    HW127451   1.750   1.029   1.472  1.3758 -0.7270 -1.7105
 8617SOL    HW227452   1.736   0.870   1.439 -0.5060 -1.5160  2.2920
 8618SOL     OW27453   4.851   6.999   2.629  0.1640 -0.0703 -0.3529
 8618SOL    HW127454   4.884   7.044   2.712 -0.6075  0.4795 -0.3438
 8618SOL    HW227455   4.908   6.919   2.611  0.1995 -0.3410  0.8470
 8619SOL     OW27456   0.485   5.389   4.767  0.0261  0.0511 -0.2671
 8619SOL    HW127457   0.537   5.406   4.851 -0.7845  1.6999 -0.0603
 8619SOL    HW227458   0.388   5.386   4.789 -0.2244  0.9329 -1.1990
 8620SOL     OW27459   5.767   1.753   4.740 -0.0436 -0.1431 -0.1016
 8620SOL    HW127460   5.859   1.784   4.716 -0.4822  0.8345 -0.5427
 8620SOL    HW227461   5.760   1.743   4.839 -0.3436  2.7110  0.2267
 8621SOL     OW27462   1.294   6.895   5.136  0.2255 -0.6497 -0.2998
 8621SOL    HW127463   1.283   6.857   5.045 -2.1486 -0.5406 -0.1252
 8621SOL    HW227464   1.275   6.994   5.133  2.2594 -0.2078 -0.0263
 8622SOL     OW27465   2.347   6.965   1.620  0.4728  0.1358  0.2676
 8622SOL    HW127466   2.429   6.954   1.676 -0.6721 -2.8522  1.5967
 8622SOL    HW227467   2.270   6.992   1.679 -0.9222 -3.7809  0.5282
 8623SOL     OW27468   4.276   5.452   0.194 -0.1309 -0.1193  0.0309
 8623SOL    HW127469   4.274   5.356   0.166 -0.0413 -0.3970  0.9708
 8623SOL    HW227470   4.208   5.503   0.142 -1.8123 -1.1297  1.1621
 8624SOL     OW27471   0.572   2.845   6.171 -0.1947  0.2894  0.2223
 8624SOL    HW127472   0.494   2.784   6.159  1.0385 -1.6838  1.5547
 8624SOL    HW227473   0.604   2.839   6.266  2.1135  0.3682 -0.5047
 8625SOL     OW27474   1.705   5.374   3.109  0.6531  0.2446  0.0874
 8625SOL    HW127475   1.684   5.441   3.180 -0.4246  0.8958 -0.8290
 8625SOL    HW227476   1.800   5.387   3.079  0.7773  0.6601  0.6340
 8626SOL     OW27477   2.219   6.462   6.090 -0.4418 -0.0703 -0.3977
 8626SOL    HW127478   2.222   6.515   6.174  0.3652 -0.9594  0.1564
 8626SOL    HW227479   2.124   6.439   6.068 -0.5567 -1.8135  1.5772
 8627SOL     OW27480   1.573   4.283   1.999 -0.3865  0.5671  0.5531
 8627SOL    HW127481   1.625   4.220   1.941 -2.3344 -0.3581 -0.2646
 8627SOL    HW227482   1.608   4.376   1.986 -0.0336  0.2179 -1.2564
 8628SOL     OW27483   1.953   1.400   6.658  0.1103 -0.0126  0.2438
 8628SOL    HW127484   1.919   1.437   6.571  0.4257 -0.1878  0.0440
 8628SOL    HW227485   2.035   1.450   6.686  0.8536 -0.9053 -0.3027
 8629SOL     OW27486   5.191   1.736   4.124 -0.0392  0.0031 -0.6150
 8629SOL    HW127487   5.207   1.766   4.030 -1.7248 -0.0642 -0.9564
 8629SOL    HW227488   5.212   1.811   4.187  2.4165 -0.3769 -0.8926
 8630SOL     OW27489   0.956   6.155   6.301 -0.6640 -0.1450 -0.4755
 8630SOL    HW127490   0.886   6.208   6.348 -0.4937 -1.6106  1.5352
 8630SOL    HW227491   1.047   6.190   6.325 -0.5998 -0.4706 -0.2345
 8631SOL     OW27492   5.520   1.422   3.321  0.1169 -0.2922  0.6970
 8631SOL    HW127493   5.511   1.520   3.299 -1.8408 -0.7522 -0.8665
 8631SOL    HW227494   5.599   1.385   3.272 -0.8191 -0.0498 -1.1146
 8632SOL     OW27495   1.625   0.111   2.002  0.0226 -0.3971  0.4127
 8632SOL    HW127496   1.654   0.113   2.098  2.9766  2.9471 -0.3034
 8632SOL    HW227497   1.562   0.187   1.984 -0.1009 -0.6765 -0.3992
 8633SOL     OW27498   5.430   6.549   1.844  0.2479  0.3117 -0.1116
 8633SOL    HW127499   5.469   6.603   1.919  0.7141  0.0468 -0.1577
 8633SOL    HW227500   5.498   6.540   1.771  0.1836 -0.3518 -0.0943
 8634SOL     OW27501   0.296   3.253   2.313 -0.8778  0.4147 -0.6333
 8634SOL    HW127502   0.386   3.215   2.335 -0.1035  2.6950  0.4388
 8634SOL    HW227503   0.288   3.345   2.352 -3.2133  0.7783 -1.7876
 8635SOL     OW27504   1.410   6.131   1.825 -0.3122 -0.5673 -0.6933
 8635SOL    HW127505   1.335   6.191   1.801 -0.0157 -0.8566 -2.4914
 8635SOL    HW227506   1.412   6.053   1.763  1.5917 -0.4520 -0.8532
 8636SOL     OW27507   2.253   1.773   3.226 -0.2578  0.4548  0.6128
 8636SOL    HW127508   2.156   1.798   3.221  0.3940  3.0675 -2.9478
 8636SOL    HW227509   2.281   1.730   3.140  2.1157  1.2755  0.9046
 8637SOL     OW27510   5.488   3.064   3.545 -0.2975  0.2167  0.4124
 8637SOL    HW127511   5.527   3.093   3.458  0.3652  1.9565  1.2383
 8637SOL    HW227512   5.496   3.139   3.611  0.6248 -1.5740  2.4242
 8638SOL     OW27513   4.539   6.277   0.861 -0.9610  0.4244 -0.2959
 8638SOL    HW127514   4.472   6.342   0.824  0.3902  2.1717  0.2154
 8638SOL    HW227515   4.495   6.188   0.874 -2.9999  1.3324 -0.5974
 8639SOL     OW27516   3.798   2.968   3.220  0.4179 -0.3251 -0.9051
 8639SOL    HW127517   3.702   2.982   3.194  0.8554 -0.5240 -2.7000
 8639SOL    HW227518   3.802   2.896   3.290 -0.6263 -1.5016 -2.0046
 8640SOL     OW27519   4.626   0.236   2.239  0.2890  0.8554  0.2068
 8640SOL    HW127520   4.627   0.233   2.339  1.5154  0.7400  0.2055
 8640SOL    HW227521   4.605   0.329   2.208 -3.4906  0.2690  0.5033
 8641SOL     OW27522   4.703   3.085   6.626  0.0702  0.1252 -0.3019
 8641SOL    HW127523   4.678   3.079   6.529  0.5905 -0.6692 -0.3956
 8641SOL    HW227524   4.644   3.152   6.671  0.1691  0.9056 -1.2772
 8642SOL     OW27525   2.040   3.801   5.175  0.1734 -0.3713 -0.4716
 8642SOL    HW127526   1.985   3.845   5.104  0.5346  1.1250  0.1470
 8642SOL    HW227527   2.075   3.870   5.238  1.9003 -1.3886 -0.2431
 8643SOL     OW27528   5.759   1.079   3.735 -0.1581 -0.9325 -0.2796
 8643SOL    HW127529   5.691   1.149   3.756 -1.2931 -1.8034 -0.9226
 8643SOL    HW227530   5.785   1.032   3.818  0.6712  0.2678  0.1746
 8644SOL     OW27531   5.832   5.532   6.839  0.1958 -0.4574  0.5831
 8644SOL    HW127532   5.863   5.553   6.746 -2.4679 -0.2171 -0.3226
 8644SOL    HW227533   5.903   5.559   6.904  0.4216  3.6490 -1.0347
 8645SOL     OW27534   3.514   1.748   0.442  0.3133 -0.2869 -0.1596
 8645SOL    HW127535   3.586   1.706   0.497 -0.1578 -1.0467 -0.1102
 8645SOL    HW227536   3.526   1.848   0.443  1.8428 -0.4406 -0.8491
 8646SOL     OW27537   3.625   0.271   1.558  0.1925 -0.2159 -0.3317
 8646SOL    HW127538   3.656   0.253   1.465  3.0299 -2.5564  0.9087
 8646SOL    HW227539   3.677   0.214   1.623 -2.6418  0.2052  2.6057
 8647SOL     OW27540   0.018   3.632   3.428 -0.1737  0.0570 -0.4098
 8647SOL    HW127541  -0.012   3.614   3.522 -2.6137  0.8316 -0.9460
 8647SOL    HW227542   0.074   3.556   3.396  1.4509  0.1565  1.9003
 8648SOL     OW27543   3.642   5.329   6.303  0.3560 -0.2614  0.1079
 8648SOL    HW127544   3.582   5.373   6.371 -0.2260  1.6711 -1.5585
 8648SOL    HW227545   3.590   5.313   6.219  0.8686 -3.2684  0.2460
 8649SOL     OW27546   5.526   0.153   1.337  0.5427  0.2922 -0.3387
 8649SOL    HW127547   5.561   0.078   1.281 -0.9603  0.0548 -1.0257
 8649SOL    HW227548   5.460   0.116   1.403 -0.9862  1.1107 -1.3729
 8650SOL     OW27549   2.393   6.345   4.594 -0.5185 -0.2411 -0.3382
 8650SOL    HW127550   2.471   6.290   4.563 -0.4915  0.2382 -1.1601
 8650SOL    HW227551   2.390   6.345   4.694  0.4406 -0.4034 -0.2985
 8651SOL     OW27552   1.416   3.162   0.609 -0.6082  0.5545 -0.1582
 8651SOL    HW127553   1.494   3.150   0.670 -1.5052  0.6360  1.0594
 8651SOL    HW227554   1.430   3.110   0.525  0.9626  0.9811 -0.1830
 8652SOL     OW27555   1.599   4.106   1.264 -0.0735 -0.6320  0.1760
 8652SOL    HW127556   1.516   4.052   1.278  1.0716 -2.1751  1.3221
 8652SOL    HW227557   1.654   4.106   1.347  2.3979 -2.0314 -1.3091
 8653SOL     OW27558   5.377   0.222   2.891  0.6306 -0.6311  0.6358
 8653SOL    HW127559   5.343   0.137   2.852 -0.8976 -0.0353  0.5917
 8653SOL    HW227560   5.465   0.245   2.849  0.6806 -1.7698  0.0757
 8654SOL     OW27561   3.213   3.525   6.010 -0.4229  0.5327  0.3921
 8654SOL    HW127562   3.255   3.436   6.024 -1.4239 -0.2295 -1.2804
 8654SOL    HW227563   3.259   3.592   6.069  0.1474 -1.1013  1.9119
 8655SOL     OW27564   1.421   0.619   6.662 -0.2203 -0.1621  0.2830
 8655SOL    HW127565   1.468   0.704   6.636  1.1152 -0.8452  0.3822
 8655SOL    HW227566   1.376   0.580   6.581 -0.5360  0.4370  0.1606
 8656SOL     OW27567   4.124   0.964   0.574  0.1601 -0.0167  0.5290
 8656SOL    HW127568   4.132   0.921   0.484  0.4474  1.4170 -0.1728
 8656SOL    HW227569   4.195   0.929   0.635  0.6761 -0.2023 -0.1655
 8657SOL     OW27570   1.615   4.668   0.952 -0.0372 -0.7134 -0.4591
 8657SOL    HW127571   1.587   4.756   0.991 -2.1286 -1.6823  0.3509
 8657SOL    HW227572   1.584   4.662   0.857 -2.0808 -1.4786  0.2061
 8658SOL     OW27573   6.140   2.746   5.804 -0.3941 -0.4861  0.6853
 8658SOL    HW127574   6.076   2.735   5.880 -1.0238 -0.2677  0.1958
 8658SOL    HW227575   6.089   2.759   5.719  0.2916 -1.4130  0.1118
 8659SOL     OW27576   0.459   1.578   5.738 -0.0354  0.5059 -0.2837
 8659SOL    HW127577   0.367   1.538   5.733  0.4497 -0.8193  0.8107
 8659SOL    HW227578   0.511   1.551   5.656  0.0558 -0.5890  0.1109
 8660SOL     OW27579   1.061   0.960   4.345 -0.0216  0.1918  0.2298
 8660SOL    HW127580   1.092   0.881   4.397 -4.7032 -2.1641  0.0438
 8660SOL    HW227581   1.011   1.022   4.405 -1.4668 -0.1487 -0.5622
 8661SOL     OW27582   6.098   6.000   6.442 -0.3466 -0.2651  0.2940
 8661SOL    HW127583   6.124   6.045   6.356  0.7143  0.2231  0.8557
 8661SOL    HW227584   6.001   6.016   6.460  0.2106  2.8570  1.0719
 8662SOL     OW27585   6.480   4.845   6.026 -0.0055 -0.2376  0.0405
 8662SOL    HW127586   6.542   4.924   6.031 -0.0194 -0.2440  0.3363
 8662SOL    HW227587   6.479   4.809   5.933 -1.5504  1.3542 -0.6139
 8663SOL     OW27588   6.571   6.667   1.384 -0.1573  0.4783  0.0513
 8663SOL    HW127589   6.633   6.670   1.463 -0.0170  0.8733 -0.0742
 8663SOL    HW227590   6.496   6.732   1.397 -0.2662  0.3694 -0.0297
 8664SOL     OW27591   4.840   1.405   6.661  0.1648 -0.0599  0.3837
 8664SOL    HW127592   4.813   1.487   6.711  0.6633 -0.4417  1.2939
 8664SOL    HW227593   4.805   1.324   6.707  1.0266 -0.4382  0.3854
 8665SOL     OW27594   4.308   5.026   5.276 -0.0097  0.3329 -0.5367
 8665SOL    HW127595   4.225   4.983   5.241  0.3950  0.6728 -1.9655
 8665SOL    HW227596   4.306   5.027   5.376  0.0841 -3.3099 -0.3682
 8666SOL     OW27597   1.755   5.038   2.379 -0.5320  0.5809 -0.4519
 8666SOL    HW127598   1.782   5.102   2.452 -0.1185 -0.6199  0.4896
 8666SOL    HW227599   1.813   5.053   2.299  0.9379  0.0694  0.4747
 8667SOL     OW27600   0.601   4.352   0.006 -0.2278 -1.1012  0.6761
 8667SOL    HW127601   0.549   4.316  -0.071 -0.8947 -1.0897  1.1118
 8667SOL    HW227602   0.690   4.307   0.012 -0.7010 -2.0421  0.6868
 8668SOL     OW27603   3.880   0.979   1.731  0.2174  0.2192  0.2140
 8668SOL    HW127604   3.853   1.023   1.816  0.2028  1.1069 -0.2324
 8668SOL    HW227605   3.913   0.886   1.750 -1.4113 -0.2464  0.9796
 8669SOL     OW27606   3.279   6.473   3.115  0.1958 -0.2323 -0.5227
 8669SOL    HW127607   3.240   6.524   3.038  0.0311  0.0446 -0.2549
 8669SOL    HW227608   3.372   6.446   3.093  0.2477  0.0917 -0.7080
 8670SOL     OW27609   1.961   6.601   2.692 -0.0375  0.6937  0.7189
 8670SOL    HW127610   1.883   6.626   2.635 -0.1015 -2.0245 -0.5157
 8670SOL    HW227611   2.046   6.623   2.644 -0.0626 -2.9413 -1.3248
 8671SOL     OW27612   4.646   1.761   6.042  0.1602 -0.2550 -0.0714
 8671SOL    HW127613   4.548   1.759   6.063  0.2534 -1.3914  0.3348
 8671SOL    HW227614   4.664   1.698   5.967  0.5191  0.2727 -0.4249
 8672SOL     OW27615   4.193   2.356   6.631  0.5268  0.1987  0.2507
 8672SOL    HW127616   4.161   2.419   6.702  0.3289  0.8651 -0.4154
 8672SOL    HW227617   4.116   2.328   6.574  0.6041 -0.7166  0.5890
 8673SOL     OW27618   2.296   2.106   5.910 -0.4630  0.1320  0.0779
 8673SOL    HW127619   2.241   2.041   5.963 -0.3155  0.6387  0.8696
 8673SOL    HW227620   2.256   2.116   5.818 -1.5586  0.3044  0.5497
 8674SOL     OW27621   0.057   2.503   0.639 -0.3624  0.6221  0.4531
 8674SOL    HW127622  -0.026   2.532   0.687  0.9074  0.6712  2.7856
 8674SOL    HW227623   0.070   2.559   0.557 -0.7008  3.1836  2.0472
 8675SOL     OW27624   5.585   4.769   0.133  0.1216  0.3990  0.3816
 8675SOL    HW127625   5.673   4.811   0.112 -0.1404  1.0395  0.5321
 8675SOL    HW227626   5.518   4.841   0.154 -1.5004  0.2786 -3.4997
 8676SOL     OW27627   0.154   3.933   5.697  0.2232  0.0674 -0.9902
 8676SOL    HW127628   0.058   3.961   5.698 -0.0523 -0.7926  1.2983
 8676SOL    HW227629   0.168   3.856   5.760  2.8824  1.8929  0.8857
 8677SOL     OW27630   1.383   4.682   2.623 -0.3720  0.2983 -0.3935
 8677SOL    HW127631   1.377   4.592   2.667  0.2648  0.1762 -0.5348
 8677SOL    HW227632   1.474   4.692   2.581 -0.6649  0.7470 -0.9391
 8678SOL     OW27633   5.827   0.598   0.884 -0.5063 -0.0791  0.2622
 8678SOL    HW127634   5.806   0.537   0.961 -0.5645 -0.7069 -0.2412
 8678SOL    HW227635   5.924   0.624   0.888 -0.3620 -0.5949  0.2149
 8679SOL     OW27636   1.599   0.547   0.466  0.2190  0.0530 -0.3066
 8679SOL    HW127637   1.515   0.599   0.478 -0.7057 -1.4955  0.1464
 8679SOL    HW227638   1.578   0.457   0.427  1.6790 -0.3166 -0.3035
 8680SOL     OW27639   6.062   0.407   1.610 -0.2895 -0.1420 -0.3530
 8680SOL    HW127640   6.121   0.337   1.569  0.8214 -0.2293  1.2630
 8680SOL    HW227641   6.096   0.429   1.702 -1.7242  1.1701 -0.0906
 8681SOL     OW27642   2.602   1.790   2.591 -0.5942  0.2377 -0.3476
 8681SOL    HW127643   2.505   1.794   2.570 -0.6933  0.4735  0.1261
 8681SOL    HW227644   2.648   1.726   2.530 -1.1959 -0.5035 -0.0321
 8682SOL     OW27645   2.389   3.970   4.821 -0.4051  0.0094  0.1285
 8682SOL    HW127646   2.366   4.057   4.864 -1.1545  0.7259 -1.6071
 8682SOL    HW227647   2.452   3.919   4.880  1.1284  2.3115  0.6193
 8683SOL     OW27648   6.217   5.812   4.591 -0.0072  0.1653 -0.1010
 8683SOL    HW127649   6.278   5.847   4.662 -0.6581 -0.0859  0.6149
 8683SOL    HW227650   6.124   5.847   4.607 -0.0331  0.6199 -1.2217
 8684SOL     OW27651   2.939   5.503   6.162 -0.3202 -0.6436 -0.5119
 8684SOL    HW127652   2.926   5.569   6.088 -1.2399 -1.2681 -0.9168
 8684SOL    HW227653   2.854   5.453   6.178 -0.6231  0.5282  2.0105
 8685SOL     OW27654   2.518   1.313   0.405  0.0729 -0.0697  0.0324
 8685SOL    HW127655   2.422   1.333   0.386 -0.0884 -0.6149  0.2434
 8685SOL    HW227656   2.573   1.396   0.394 -0.4978  0.3624  0.4271
 8686SOL     OW27657   0.499   5.149   3.763 -0.2502  0.3323 -0.0718
 8686SOL    HW127658   0.484   5.211   3.840 -0.8841 -0.7191  0.6738
 8686SOL    HW227659   0.595   5.152   3.736 -0.0076  0.6811  0.7938
 8687SOL     OW27660   3.009   1.629   1.318 -0.2063 -0.6103 -0.0883
 8687SOL    HW127661   2.910   1.620   1.305 -0.1474 -0.4655 -0.6586
 8687SOL    HW227662   3.027   1.694   1.391 -0.5737 -2.4931  1.7688
 8688SOL     OW27663   6.964   0.106   0.080  0.4563  0.3132 -0.9284
 8688SOL    HW127664   6.933   0.163   0.156  0.8409 -0.7875  0.0900
 8688SOL    HW227665   6.885   0.079   0.024 -0.3990 -1.6110  1.0395
 8689SOL     OW27666   0.954   5.754   3.568  0.1532  0.3840 -0.0485
 8689SOL    HW127667   0.862   5.761   3.607  0.5017  1.4839  0.6418
 8689SOL    HW227668   1.012   5.825   3.608  0.7150  1.1482 -2.1095
 8690SOL     OW27669   1.095   1.761   5.462 -0.8303 -0.4345 -0.0026
 8690SOL    HW127670   1.100   1.662   5.476  0.1882 -0.3416  0.3881
 8690SOL    HW227671   1.087   1.781   5.365  3.6004 -0.8268 -0.6362
 8691SOL     OW27672   6.553   0.624   1.757 -0.0568 -0.2251 -0.1616
 8691SOL    HW127673   6.647   0.603   1.731  0.1151 -1.5844  1.4574
 8691SOL    HW227674   6.513   0.547   1.805 -0.9263  1.5148  2.0813
 8692SOL     OW27675   1.746   4.138   4.807 -0.0864 -0.0632 -0.0127
 8692SOL    HW127676   1.747   4.088   4.893 -3.2363 -1.5033 -0.6353
 8692SOL    HW227677   1.790   4.227   4.818 -0.4597 -0.1709  3.0888
 8693SOL     OW27678   4.758   0.696   6.784  0.3584  0.2838 -0.4709
 8693SOL    HW127679   4.686   0.629   6.798  0.4233  0.4193  0.5999
 8693SOL    HW227680   4.742   0.775   6.842  1.7037  0.0397  0.2816
 8694SOL     OW27681   4.154   4.038   0.081  0.4362 -0.0319  0.5081
 8694SOL    HW127682   4.095   3.979   0.136 -0.0247  0.8181  0.9476
 8694SOL    HW227683   4.206   3.983   0.016  1.2901 -1.1162  2.0586
 8695SOL     OW27684   5.489   0.830   5.308 -0.1721 -0.3705  0.6103
 8695SOL    HW127685   5.476   0.916   5.358 -2.0261  1.2758 -2.3989
 8695SOL    HW227686   5.414   0.768   5.330 -0.9264  0.3040 -0.0031
 8696SOL     OW27687   2.638   5.794   3.591 -0.4787  0.1723 -0.9618
 8696SOL    HW127688   2.694   5.865   3.633 -0.9597  0.4878 -0.8450
 8696SOL    HW227689   2.618   5.820   3.496  0.6783 -0.5788 -1.4397
 8697SOL     OW27690   0.814   5.691   0.571 -0.2711  0.2294 -0.0190
 8697SOL    HW127691   0.824   5.692   0.670  0.7660 -1.1972 -0.0758
 8697SOL    HW227692   0.831   5.783   0.534  1.4368  0.3488  0.9522
 8698SOL     OW27693   0.811   6.733   2.703 -0.5941 -0.4998 -0.4651
 8698SOL    HW127694   0.832   6.661   2.637 -1.3472 -0.4299 -0.7837
 8698SOL    HW227695   0.774   6.692   2.786  1.0169 -0.6481  0.2116
 8699SOL     OW27696   5.075   6.509   1.383  0.2275  0.7117  0.4534
 8699SOL    HW127697   5.164   6.549   1.406  0.9510 -0.4643 -0.1816
 8699SOL    HW227698   5.082   6.409   1.385 -0.5212  0.5666 -1.5982
 8700SOL     OW27699   3.033   6.148   5.359 -0.1499 -0.3764  0.0840
 8700SOL    HW127700   3.060   6.169   5.453  1.0757  0.1819 -0.3734
 8700SOL    HW227701   2.936   6.124   5.357 -0.7451  1.6960  1.1890
 8701SOL     OW27702   1.181   1.024   2.775 -0.0210 -0.1014 -0.3516
 8701SOL    HW127703   1.132   0.955   2.722  1.6901 -0.8401 -1.0436
 8701SOL    HW227704   1.227   1.087   2.714  1.7205 -0.7747  0.2101
 8702SOL     OW27705   0.000   6.600   0.152  0.3083 -0.1178  0.2878
 8702SOL    HW127706   0.053   6.650   0.084  0.5314  1.0711  1.3177
 8702SOL    HW227707   0.062   6.555   0.216  0.0867 -0.3376  0.3496
 8703SOL     OW27708   3.026   6.701   4.065 -1.0290  0.6183  0.0295
 8703SOL    HW127709   2.965   6.678   4.141 -1.5819  1.7778 -0.0369
 8703SOL    HW227710   3.099   6.761   4.099  0.1864 -0.8818  0.1394
 8704SOL     OW27711   2.366   2.633   0.875  0.0363  0.4679 -0.6818
 8704SOL    HW127712   2.291   2.589   0.924  1.6789 -0.9716  0.6883
 8704SOL    HW227713   2.356   2.733   0.880 -1.8938  0.3099 -0.7877
 8705SOL     OW27714   6.580   6.889   3.526 -0.2595 -0.3077 -0.3976
 8705SOL    HW127715   6.501   6.873   3.466 -1.5858  1.7514  0.7012
 8705SOL    HW227716   6.663   6.894   3.471 -0.9343 -1.9787 -1.6435
 8706SOL     OW27717   4.849   0.934   0.879 -0.3538 -0.3374 -0.0399
 8706SOL    HW127718   4.769   0.958   0.825 -0.6869  0.1133  0.6374
 8706SOL    HW227719   4.922   0.903   0.819 -0.3446  1.1574 -0.8426
 8707SOL     OW27720   0.590   4.194   2.582  0.5513  0.2653  0.1988
 8707SOL    HW127721   0.513   4.199   2.646  1.5509 -3.6411  1.9882
 8707SOL    HW227722   0.675   4.181   2.633  2.1842  2.1950 -1.8227
 8708SOL     OW27723   2.688   1.974   0.921  0.0316 -0.4602 -0.1655
 8708SOL    HW127724   2.689   1.958   1.020  0.8284  0.7125  0.0399
 8708SOL    HW227725   2.778   1.950   0.883 -0.2986 -0.9814 -0.6213
 8709SOL     OW27726   3.158   5.913   2.501  0.0482 -0.6355 -0.0639
 8709SOL    HW127727   3.198   5.979   2.438 -1.1753 -1.1862 -1.4678
 8709SOL    HW227728   3.229   5.880   2.564  1.0383  0.7506 -0.4026
 8710SOL     OW27729   6.421   1.574   5.401  0.1213 -0.2573 -0.8643
 8710SOL    HW127730   6.350   1.506   5.380  0.6792 -1.3854  0.6791
 8710SOL    HW227731   6.448   1.564   5.497  2.4004  0.1310 -1.4213
 8711SOL     OW27732   5.546   5.007   1.566  0.3044  0.2575  0.7230
 8711SOL    HW127733   5.462   5.061   1.563  0.6440  0.7840  0.5093
 8711SOL    HW227734   5.613   5.053   1.625  1.2658  1.0611 -0.9242
 8712SOL     OW27735   6.422   4.282   2.488  0.0157 -0.1385  0.1608
 8712SOL    HW127736   6.386   4.220   2.557  1.3660 -0.6274  0.4490
 8712SOL    HW227737   6.507   4.323   2.520 -0.4795  1.3335 -0.3237
 8713SOL     OW27738   6.624   6.564   5.695  0.0843 -0.1460 -0.6212
 8713SOL    HW127739   6.625   6.647   5.751  0.8850 -0.5676  0.0159
 8713SOL    HW227740   6.547   6.567   5.632  0.9295  1.7821 -1.6696
 8714SOL     OW27741   5.624   5.662   2.730  0.5669 -0.0434  0.0282
 8714SOL    HW127742   5.554   5.638   2.663  1.0262 -1.7120  0.0825
 8714SOL    HW227743   5.616   5.601   2.809  1.6578  0.1928  0.3356
 8715SOL     OW27744   1.847   1.244   0.908 -0.2848  0.1457 -0.3173
 8715SOL    HW127745   1.798   1.300   0.841  0.6139 -0.3008 -1.3669
 8715SOL    HW227746   1.895   1.170   0.861  0.8006  0.1382  0.7681
 8716SOL     OW27747   4.080   1.516   0.182  0.0177 -0.4241  0.3384
 8716SOL    HW127748   4.146   1.460   0.233 -2.2045 -2.0919  1.5495
 8716SOL    HW227749   4.128   1.566   0.110  3.0091  0.5030  2.7345
 8717SOL     OW27750   4.718   3.424   2.001  0.2902 -0.6064  0.6171
 8717SOL    HW127751   4.735   3.357   1.929 -2.7471  0.0198 -0.8201
 8717SOL    HW227752   4.673   3.379   2.078  1.6308 -0.8617  1.2865
 8718SOL     OW27753   0.441   5.781   2.302 -0.0443  0.4843  0.4252
 8718SOL    HW127754   0.384   5.699   2.305 -0.1343  0.5438  0.3154
 8718SOL    HW227755   0.453   5.811   2.207 -0.3792  0.8555  0.4957
 8719SOL     OW27756   1.660   4.874   4.143 -0.3126 -0.4258  0.0568
 8719SOL    HW127757   1.704   4.844   4.227  1.5839 -0.9998 -1.0733
 8719SOL    HW227758   1.673   4.805   4.072 -0.3231  0.8200 -1.1990
 8720SOL     OW27759   3.266   0.880   4.008 -0.2349  0.4724  0.2815
 8720SOL    HW127760   3.324   0.942   4.062 -0.6073 -0.3979  1.7407
 8720SOL    HW227761   3.182   0.861   4.059 -1.5515  1.2195 -1.5270
 8721SOL     OW27762   4.220   6.059   1.296 -0.0507  0.1117 -0.1076
 8721SOL    HW127763   4.181   5.982   1.246  0.9833  0.1276 -0.9553
 8721SOL    HW227764   4.281   6.112   1.237 -0.1526  1.1523  0.6721
 8722SOL     OW27765   1.895   3.438   5.647  0.1826  0.1282  0.2524
 8722SOL    HW127766   1.945   3.524   5.637  0.1652  0.4902  2.7076
 8722SOL    HW227767   1.895   3.410   5.743 -2.2109 -1.1531 -0.0372
 8723SOL     OW27768   4.223   3.962   6.451 -0.4149  0.5556  0.2412
 8723SOL    HW127769   4.315   3.926   6.466 -0.4806 -0.0722 -0.7504
 8723SOL    HW227770   4.164   3.937   6.528 -0.3590 -1.1818 -0.2435
 8724SOL     OW27771   0.374   2.490   6.101  0.0184  0.0957 -0.2964
 8724SOL    HW127772   0.300   2.550   6.132  0.5865  0.5157  0.2732
 8724SOL    HW227773   0.421   2.533   6.023  0.2746  0.2945 -0.0380
 8725SOL     OW27774   1.993   6.696   2.280  0.5657  0.2247  0.3541
 8725SOL    HW127775   2.060   6.623   2.291  0.9059  0.6134  0.8863
 8725SOL    HW227776   2.012   6.770   2.345  0.4545  0.9593 -0.4284
 8726SOL     OW27777   6.762   4.298   0.357 -0.2594 -0.1302  0.4390
 8726SOL    HW127778   6.758   4.348   0.444 -0.5287  1.6796 -0.5763
 8726SOL    HW227779   6.670   4.273   0.329 -0.3457  0.7461 -0.1098
 8727SOL     OW27780   1.482   2.855   0.883  0.4335 -0.0209  0.0765
 8727SOL    HW127781   1.548   2.903   0.827  0.2644  1.5643  1.1641
 8727SOL    HW227782   1.392   2.897   0.873 -0.0689 -1.0958 -0.1156
 8728SOL     OW27783   5.942   1.894   0.456  0.1782 -0.3870 -0.5647
 8728SOL    HW127784   5.935   1.906   0.357 -2.4084  0.5811 -0.3501
 8728SOL    HW227785   6.038   1.890   0.483  0.9485  0.1485 -3.0002
 8729SOL     OW27786   3.197   4.363   5.135 -0.4211 -0.2231  0.1831
 8729SOL    HW127787   3.114   4.308   5.141 -1.9698  1.8780 -0.6899
 8729SOL    HW227788   3.244   4.342   5.049  0.0359 -1.4739  0.7132
 8730SOL     OW27789   4.915   6.619   5.162 -0.2247 -0.2891 -0.3374
 8730SOL    HW127790   4.836   6.580   5.116 -0.0179 -0.4289 -0.5732
 8730SOL    HW227791   4.974   6.546   5.196 -0.2373 -0.1863 -0.0877
 8731SOL     OW27792   5.585   1.090   5.964 -0.4918  0.6184 -0.9872
 8731SOL    HW127793   5.580   1.004   5.914 -0.4270  1.4981 -2.5660
 8731SOL    HW227794   5.512   1.151   5.932 -0.6189  1.1118  0.2045
 8732SOL     OW27795   1.869   5.986   6.890 -0.5365 -0.0792 -0.4193
 8732SOL    HW127796   1.901   5.928   6.815 -0.4486 -1.1725  0.4431
 8732SOL    HW227797   1.945   6.003   6.953 -0.7178  0.4838 -0.3491
 8733SOL     OW27798   1.588   1.295   0.755 -0.4974 -0.3161  0.2279
 8733SOL    HW127799   1.543   1.364   0.698  0.7015 -0.3119 -0.7477
 8733SOL    HW227800   1.593   1.328   0.849  1.9643  1.9685 -0.5918
 8734SOL     OW27801   6.174   2.644   4.032 -0.5023  0.2298  0.3758
 8734SOL    HW127802   6.166   2.702   3.952 -1.8772  0.4100  0.6281
 8734SOL    HW227803   6.184   2.549   4.004  1.0790  0.4776 -0.0228
 8735SOL     OW27804   0.298   0.659   1.996 -0.3224 -0.2381  0.5428
 8735SOL    HW127805   0.353   0.731   1.953 -0.1448 -0.3761  0.5386
 8735SOL    HW227806   0.268   0.689   2.086  2.1402 -1.2426  1.7861
 8736SOL     OW27807   6.379   4.161   5.278 -0.6408  0.0052 -0.6196
 8736SOL    HW127808   6.412   4.254   5.289  0.1774 -0.2413 -0.9039
 8736SOL    HW227809   6.352   4.124   5.367 -0.1295  0.2098 -0.3761
 8737SOL     OW27810   5.865   6.201   6.934 -0.0248 -0.1919 -0.7312
 8737SOL    HW127811   5.859   6.229   7.030 -2.3449 -0.3765 -0.7455
 8737SOL    HW227812   5.960   6.204   6.903  0.8471 -0.5965  1.7004
 8738SOL     OW27813   3.337   5.504   1.719 -0.2815  0.6212 -0.0430
 8738SOL    HW127814   3.363   5.548   1.633 -0.8390  2.6193  0.7460
 8738SOL    HW227815   3.239   5.487   1.720 -0.2380  0.3597  0.1087
 8739SOL     OW27816   4.492   3.759   3.009 -0.4769  0.3797 -0.2268
 8739SOL    HW127817   4.527   3.665   3.007 -1.9474 -0.1837 -0.5688
 8739SOL    HW227818   4.568   3.822   3.025  0.4738 -0.8985  0.5614
 8740SOL     OW27819   5.144   6.747   4.598 -0.0239 -0.0139 -0.0427
 8740SOL    HW127820   5.224   6.687   4.593  1.3294  1.4316  2.2327
 8740SOL    HW227821   5.165   6.834   4.554 -0.3797  0.3192  0.4350
 8741SOL     OW27822   1.837   5.537   1.152  0.3188  0.0347 -0.7109
 8741SOL    HW127823   1.800   5.628   1.169  1.0868 -0.0136  1.6158
 8741SOL    HW227824   1.762   5.474   1.131 -0.4224  0.8417 -0.5545
 8742SOL     OW27825   5.779   6.940   1.829 -0.1411  0.2247 -0.1878
 8742SOL    HW127826   5.858   6.879   1.838 -0.7851 -0.6042  0.0345
 8742SOL    HW227827   5.807   7.025   1.784  1.1468  0.5102  1.0855
 8743SOL     OW27828   2.653   2.217   2.905  0.0549  0.2030  0.3971
 8743SOL    HW127829   2.677   2.284   2.835  1.6230  1.2327  1.8431
 8743SOL    HW227830   2.630   2.130   2.861 -0.1081  1.1185 -1.4241
 8744SOL     OW27831   1.966   4.378   1.555 -0.1442 -0.5235  0.1238
 8744SOL    HW127832   1.955   4.283   1.582 -2.0325 -0.2071  0.5691
 8744SOL    HW227833   2.060   4.408   1.576  0.7663 -2.5097 -0.8736
 8745SOL     OW27834   2.873   2.232   4.407  0.7443 -0.1499 -0.2982
 8745SOL    HW127835   2.819   2.316   4.409 -2.6221 -2.1240  1.3830
 8745SOL    HW227836   2.816   2.157   4.374  1.9198 -2.6936  2.9279
 8746SOL     OW27837   4.978   1.021   1.117  0.8198 -0.3223  0.9755
 8746SOL    HW127838   5.069   1.051   1.089  0.6325  0.1845  0.8950
 8746SOL    HW227839   4.932   0.979   1.039  0.8935 -0.3588  0.9509
 8747SOL     OW27840   5.985   6.137   5.344 -0.3348  0.0011  0.4355
 8747SOL    HW127841   5.935   6.224   5.345  1.3826  1.0304  0.7239
 8747SOL    HW227842   6.062   6.144   5.282  0.0222 -1.2182  0.7252
 8748SOL     OW27843   2.451   1.802   4.635  0.0442  0.1427  0.1512
 8748SOL    HW127844   2.436   1.891   4.593 -1.5660  1.0889  2.4712
 8748SOL    HW227845   2.441   1.810   4.734 -0.6777 -2.7123  0.4148
 8749SOL     OW27846   6.742   3.642   0.691 -0.6269  0.2695 -0.0811
 8749SOL    HW127847   6.814   3.628   0.759 -0.0502 -1.2985 -0.9686
 8749SOL    HW227848   6.673   3.570   0.701  0.3167 -1.0146 -2.1664
 8750SOL     OW27849   2.633   2.086   3.925  0.2975 -0.4360 -0.0475
 8750SOL    HW127850   2.555   2.124   3.976 -1.4892  0.7969 -3.3954
 8750SOL    HW227851   2.649   1.992   3.956 -2.8553 -0.9300  0.5175
 8751SOL     OW27852   0.705   0.417   1.534  0.5904 -0.6508 -0.0044
 8751SOL    HW127853   0.699   0.318   1.542  2.7381 -0.9324 -1.0953
 8751SOL    HW227854   0.756   0.441   1.451  2.6676  1.2598  1.6993
 8752SOL     OW27855   6.390   4.890   3.815  0.5831 -0.0062 -0.2912
 8752SOL    HW127856   6.457   4.905   3.888 -0.4653 -1.1608  0.9598
 8752SOL    HW227857   6.333   4.810   3.837 -0.9730  0.7128 -1.4917
 8753SOL     OW27858   5.439   1.771   1.452 -0.3643  0.3076 -0.0017
 8753SOL    HW127859   5.403   1.680   1.470  0.3190  0.2119  0.9992
 8753SOL    HW227860   5.366   1.830   1.417 -1.0958 -0.3076  0.4574
 8754SOL     OW27861   1.774   3.250   3.055 -0.1058  0.2237  0.8104
 8754SOL    HW127862   1.866   3.224   3.028 -0.5432 -2.0234  1.3143
 8754SOL    HW227863   1.775   3.286   3.148  0.8037  4.2734 -0.5389
 8755SOL     OW27864   1.808   4.233   5.693 -0.4679 -0.3141  0.7548
 8755SOL    HW127865   1.816   4.136   5.671 -0.4413 -0.3585  0.9500
 8755SOL    HW227866   1.836   4.288   5.615  0.1028 -0.4662  0.8452
 8756SOL     OW27867   2.479   4.938   4.608 -0.3142  0.8424 -0.0450
 8756SOL    HW127868   2.401   4.895   4.563  0.4280 -0.0933 -0.4729
 8756SOL    HW227869   2.457   4.954   4.704 -0.3726 -1.1477  0.3064
 8757SOL     OW27870   5.573   3.796   0.957  0.3445 -0.2379 -0.0417
 8757SOL    HW127871   5.618   3.827   0.874  1.0507 -0.0597  0.3957
 8757SOL    HW227872   5.476   3.782   0.940  0.1086  1.6345 -0.4149
 8758SOL     OW27873   2.663   5.720   3.135  0.1200 -0.0646  0.1490
 8758SOL    HW127874   2.708   5.809   3.129  2.3113 -1.1635 -0.9125
 8758SOL    HW227875   2.714   5.660   3.196 -1.0157 -0.7852  0.4244
 8759SOL     OW27876   2.425   5.874   5.411 -0.2660 -0.8419 -0.2216
 8759SOL    HW127877   2.455   5.948   5.470  2.0678 -1.3940 -0.6399
 8759SOL    HW227878   2.391   5.912   5.324  1.7629 -0.2530 -0.8019
 8760SOL     OW27879   3.345   2.376   1.382  0.2279  0.0457  0.4120
 8760SOL    HW127880   3.438   2.368   1.416  0.3607 -0.1500  0.0108
 8760SOL    HW227881   3.344   2.358   1.284  0.2725  3.0967 -0.2520
 8761SOL     OW27882   4.244   3.918   6.012 -0.8152  0.4302  0.2906
 8761SOL    HW127883   4.163   3.907   6.069 -3.0834  1.8441 -2.3701
 8761SOL    HW227884   4.265   4.015   6.003  0.7119  0.1200  0.3156
 8762SOL     OW27885   3.725   6.057   3.792  0.0769 -0.2199 -0.3628
 8762SOL    HW127886   3.724   5.963   3.756 -2.0480  0.4433 -2.2606
 8762SOL    HW227887   3.646   6.071   3.852  0.7661  0.1798  0.4675
 8763SOL     OW27888   5.884   3.021   4.718 -0.0551  0.0625  0.4859
 8763SOL    HW127889   5.790   2.993   4.739 -0.2807 -0.5548 -1.1926
 8763SOL    HW227890   5.948   2.949   4.744 -0.3674 -0.8658 -1.1621
 8764SOL     OW27891   4.445   4.794   2.544 -0.2069  0.2763  0.1208
 8764SOL    HW127892   4.384   4.717   2.564 -0.1751 -0.2235 -1.5654
 8764SOL    HW227893   4.424   4.831   2.453  2.6498 -0.6130 -1.0266
 8765SOL     OW27894   3.514   3.537   6.240 -0.3519  0.2808  0.3574
 8765SOL    HW127895   3.590   3.488   6.198 -1.8102 -0.1485 -1.9331
 8765SOL    HW227896   3.476   3.482   6.315 -0.6829 -1.1968 -0.8571
 8766SOL     OW27897   0.020   4.753   4.904  0.0749 -0.2964  0.0014
 8766SOL    HW127898   0.036   4.656   4.885  0.0352 -0.1050 -1.1023
 8766SOL    HW227899  -0.013   4.764   4.997 -2.1643 -1.5869 -0.5756
 8767SOL     OW27900   0.480   0.315   4.222  0.1845  0.1713  0.2784
 8767SOL    HW127901   0.402   0.270   4.179  0.6048 -0.0603 -0.2581
 8767SOL    HW227902   0.530   0.248   4.278  1.2316 -0.2574 -1.0991
 8768SOL     OW27903   2.161   5.369   6.482 -0.2823  0.3069  0.2315
 8768SOL    HW127904   2.244   5.345   6.533 -0.5979  1.7431  1.5096
 8768SOL    HW227905   2.082   5.324   6.524 -0.2329 -0.7434 -0.7451
 8769SOL     OW27906   5.289   3.505   2.643  0.6674 -0.1944 -0.5990
 8769SOL    HW127907   5.265   3.582   2.584 -2.1791 -1.8339 -1.7737
 8769SOL    HW227908   5.355   3.446   2.595  3.1434  1.5517  0.4488
 8770SOL     OW27909   0.513   6.533   4.148 -0.2885 -0.4877  0.4444
 8770SOL    HW127910   0.498   6.434   4.156  3.7524 -1.1520  1.8237
 8770SOL    HW227911   0.559   6.553   4.061 -0.0863  0.0102  0.6610
 8771SOL     OW27912   2.013   1.219   3.583 -0.1947  0.4182  0.0762
 8771SOL    HW127913   2.024   1.269   3.498 -0.2416 -0.4878 -0.4716
 8771SOL    HW227914   1.916   1.212   3.606 -0.1962  0.4696  0.0843
 8772SOL     OW27915   1.797   6.253   4.914  0.2512  0.1032 -0.7507
 8772SOL    HW127916   1.792   6.241   5.013 -0.0966  1.0228 -0.6456
 8772SOL    HW227917   1.712   6.220   4.872  0.7041 -0.9978 -0.8331
 8773SOL     OW27918   6.319   1.433   6.340 -0.5813  0.2247  0.2367
 8773SOL    HW127919   6.288   1.391   6.425 -1.8858 -1.3097 -0.9322
 8773SOL    HW227920   6.240   1.469   6.290  0.0424  0.2269 -0.7727
 8774SOL     OW27921   0.208   3.730   5.416 -0.2382  1.2447  0.1066
 8774SOL    HW127922   0.165   3.796   5.355 -1.4200  1.3024  0.9685
 8774SOL    HW227923   0.167   3.640   5.402 -1.3572  1.4840  1.5858
 8775SOL     OW27924   1.166   6.361   6.299 -0.4311 -0.2222  0.4546
 8775SOL    HW127925   1.192   6.376   6.394  0.7731  0.7490  0.0015
 8775SOL    HW227926   1.113   6.438   6.265  0.8533  0.4024 -0.2170
 8776SOL     OW27927   4.421   1.628   4.621 -0.3115 -0.4896  0.5115
 8776SOL    HW127928   4.351   1.564   4.589 -0.8892  0.7431 -0.8090
 8776SOL    HW227929   4.437   1.613   4.718 -2.6147 -0.6414  0.9348
 8777SOL     OW27930   6.058   2.222   6.886  0.0093 -0.4303 -0.1709
 8777SOL    HW127931   6.010   2.308   6.901  0.6214 -0.2878  1.0814
 8777SOL    HW227932   6.141   2.239   6.832 -0.9685 -0.5805 -1.7703
 8778SOL     OW27933   6.172   0.984   2.823 -0.0411  0.2750  0.7951
 8778SOL    HW127934   6.250   0.923   2.810 -0.2122  0.5688 -2.1534
 8778SOL    HW227935   6.090   0.942   2.784 -0.9374  0.9371  1.8764
 8779SOL     OW27936   4.214   3.226   1.253 -0.7456  0.2324  0.5147
 8779SOL    HW127937   4.239   3.164   1.179 -3.5537 -0.9359  0.4096
 8779SOL    HW227938   4.230   3.182   1.341 -1.5698 -0.1911  0.4653
 8780SOL     OW27939   1.226   3.618   6.025 -0.2828 -0.0675 -0.2847
 8780SOL    HW127940   1.312   3.629   6.076  0.5313 -0.0187 -1.6242
 8780SOL    HW227941   1.156   3.580   6.086  0.7013 -0.1704  0.8202
 8781SOL     OW27942   1.827   3.914   1.466  0.0230  0.0479  0.0175
 8781SOL    HW127943   1.771   3.869   1.536  0.1016 -0.3192 -0.1490
 8781SOL    HW227944   1.881   3.987   1.508  1.8686 -1.6821  0.8438
 8782SOL     OW27945   5.113   5.839   1.528 -0.3618 -0.1204  0.6657
 8782SOL    HW127946   5.111   5.778   1.448 -0.0356 -1.6511  1.7884
 8782SOL    HW227947   5.169   5.920   1.506 -0.8434 -0.1633 -0.8695
 8783SOL     OW27948   1.595   5.872   0.939  0.0582 -0.2718  0.0553
 8783SOL    HW127949   1.593   5.775   0.964  1.0517  0.1917  2.2774
 8783SOL    HW227950   1.688   5.898   0.913 -0.3912 -0.0914 -1.4324
 8784SOL     OW27951   3.538   4.507   6.391  0.5088  0.0051  0.1685
 8784SOL    HW127952   3.570   4.530   6.299  0.2881  0.2463  0.1505
 8784SOL    HW227953   3.616   4.485   6.449  0.8153  1.6061  0.4187
 8785SOL     OW27954   1.662   5.659   6.480 -0.6974 -0.0178 -0.1433
 8785SOL    HW127955   1.671   5.686   6.576 -0.5750 -0.3147 -0.0691
 8785SOL    HW227956   1.586   5.709   6.438 -0.2149  0.7564 -0.1274
 8786SOL     OW27957   2.490   5.361   4.328 -0.2112 -0.5841 -0.3019
 8786SOL    HW127958   2.426   5.437   4.322  0.8378  0.2535 -1.4706
 8786SOL    HW227959   2.516   5.346   4.423 -0.5260  0.4542 -0.0423
 8787SOL     OW27960   3.589   4.815   2.026 -0.3114 -0.1494 -0.1691
 8787SOL    HW127961   3.499   4.833   2.065 -0.2860  0.1337 -0.2385
 8787SOL    HW227962   3.580   4.802   1.928 -0.2606  0.0033 -0.1941
 8788SOL     OW27963   4.838   5.912   0.407  0.7850  0.3802 -0.2707
 8788SOL    HW127964   4.827   5.860   0.492  0.2747 -0.1135 -0.6260
 8788SOL    HW227965   4.862   6.006   0.428  5.0224 -0.6328  0.3872
 8789SOL     OW27966   5.806   4.572   0.219 -0.0893 -0.3565 -1.0583
 8789SOL    HW127967   5.833   4.635   0.146 -1.1988  0.2114 -1.0029
 8789SOL    HW227968   5.812   4.619   0.307  1.4193 -1.0942 -0.7370
 8790SOL     OW27969   0.533   2.957   5.563 -0.3268  0.0006  0.0694
 8790SOL    HW127970   0.556   2.906   5.646  0.0216 -3.2598 -1.8740
 8790SOL    HW227971   0.615   2.971   5.508 -0.8905  0.1252 -0.7664
 8791SOL     OW27972   3.198   3.270   0.057 -0.0155  0.0968 -0.0212
 8791SOL    HW127973   3.146   3.337   0.109  0.8625  0.3674  0.5256
 8791SOL    HW227974   3.152   3.181   0.061 -1.2774  0.6684 -0.8802
 8792SOL     OW27975   2.132   2.301   0.269  0.2662  0.1135  0.4026
 8792SOL    HW127976   2.133   2.388   0.220 -0.8512  0.3763  0.8145
 8792SOL    HW227977   2.078   2.311   0.353 -0.7270 -1.2288 -0.0460
 8793SOL     OW27978   5.568   1.251   3.827 -0.5211  0.1303  0.0943
 8793SOL    HW127979   5.558   1.238   3.926  1.2715 -1.0260  0.1600
 8793SOL    HW227980   5.567   1.349   3.806  0.0090  0.4252  1.3733
 8794SOL     OW27981   2.661   0.430   1.311  0.0249 -0.8229  0.1809
 8794SOL    HW127982   2.630   0.522   1.288 -0.2663 -1.0880 -0.5353
 8794SOL    HW227983   2.589   0.382   1.362  0.1589 -0.6672  0.5143
 8795SOL     OW27984   0.181   6.246   3.439 -0.6025 -0.1639  0.0229
 8795SOL    HW127985   0.274   6.283   3.429 -0.5463  0.0070  1.0820
 8795SOL    HW227986   0.183   6.166   3.499 -0.8058 -1.6079 -1.8094
 8796SOL     OW27987   4.896   3.640   1.817  0.1974  0.4524  0.5301
 8796SOL    HW127988   4.868   3.628   1.912  0.3860  1.3358  0.7031
 8796SOL    HW227989   4.893   3.551   1.770 -0.0353  0.0361  1.3145
 8797SOL     OW27990   6.084   0.053   5.433  0.2830 -0.3150 -0.2492
 8797SOL    HW127991   6.032  -0.003   5.498 -0.6880  0.0531 -0.6945
 8797SOL    HW227992   6.052   0.148   5.438  0.3001 -0.2567 -1.1593
 8798SOL     OW27993   1.171   0.436   0.562  0.3841 -0.4959 -0.1696
 8798SOL    HW127994   1.186   0.343   0.597 -0.6436 -0.5625  0.1045
 8798SOL    HW227995   1.143   0.432   0.466 -1.6864 -0.6217  0.3920
 8799SOL     OW27996   0.864   5.315   6.163 -0.0820  0.1611 -0.3960
 8799SOL    HW127997   0.886   5.264   6.245  1.3712  0.7295 -0.4027
 8799SOL    HW227998   0.802   5.390   6.186  1.3371  1.1184  0.4598
 8800SOL     OW27999   3.937   3.681   5.312  0.3632 -0.6166  0.4692
 8800SOL    HW128000   4.024   3.721   5.281  0.1757  0.1768  0.9299
 8800SOL    HW228001   3.921   3.595   5.264  0.4688  0.1639 -1.0422
 8801SOL     OW28002   3.416   2.254   4.781  0.5922 -0.5342 -0.4478
 8801SOL    HW128003   3.467   2.200   4.714  1.4159 -1.8573  1.1519
 8801SOL    HW228004   3.373   2.192   4.847  0.9389  0.7248  1.0312
 8802SOL     OW28005   2.353   0.767   2.632 -0.0292  0.3749  0.3701
 8802SOL    HW128006   2.353   0.693   2.700 -2.3256  1.0764  1.2295
 8802SOL    HW228007   2.335   0.728   2.541 -0.5009 -0.2012  0.7029
 8803SOL     OW28008   1.126   0.078   1.919  0.0334 -0.4254  0.0079
 8803SOL    HW128009   1.140  -0.021   1.925  2.4638 -0.1393 -0.2147
 8803SOL    HW228010   1.096   0.113   2.008 -1.2859 -1.3841 -0.0245
 8804SOL     OW28011   6.965   2.023   1.285 -0.5350 -0.2470 -0.5679
 8804SOL    HW128012   7.019   1.965   1.347 -1.0217 -0.0186  0.0849
 8804SOL    HW228013   7.010   2.112   1.277 -1.0521  0.1150  0.3687
 8805SOL     OW28014   3.790   5.004   2.551 -0.2502  0.0563 -0.2395
 8805SOL    HW128015   3.709   4.945   2.554 -0.1128 -0.1112  0.5157
 8805SOL    HW228016   3.865   4.956   2.506 -0.0872 -0.4231  0.5267
 8806SOL     OW28017   6.045   4.533   4.338  0.0361  0.2634  0.2464
 8806SOL    HW128018   6.089   4.563   4.423  0.1775  1.4318 -0.2191
 8806SOL    HW228019   6.046   4.608   4.272 -0.8843 -0.3387 -0.4745
 8807SOL     OW28020   6.367   2.520   0.821 -0.1887  0.1120  0.3077
 8807SOL    HW128021   6.370   2.583   0.742  0.9444  1.9202  1.7068
 8807SOL    HW228022   6.272   2.503   0.846 -0.5547 -0.1507 -1.1773
 8808SOL     OW28023   6.347   1.045   4.720  0.3457  0.2454 -0.1103
 8808SOL    HW128024   6.366   0.997   4.635 -0.1886 -0.7150  0.2981
 8808SOL    HW228025   6.387   0.995   4.797 -0.6715  0.1563  0.3801
 8809SOL     OW28026   6.444   3.485   0.477 -0.0741  0.5053  0.5141
 8809SOL    HW128027   6.380   3.558   0.501  0.0118  0.1059  2.0789
 8809SOL    HW228028   6.435   3.463   0.380 -2.7316  0.0831  0.7637
 8810SOL     OW28029   3.328   0.668   3.587  0.8030  0.1033 -0.0323
 8810SOL    HW128030   3.416   0.695   3.626  0.1881 -1.3579  2.6230
 8810SOL    HW228031   3.259   0.664   3.659 -1.5136  1.2233 -2.0383
 8811SOL     OW28032   4.508   0.887   3.159 -0.8016  0.4158 -0.6010
 8811SOL    HW128033   4.585   0.824   3.146 -0.6009  0.1504  1.4498
 8811SOL    HW228034   4.426   0.834   3.179 -0.7657  0.7726  0.5347
 8812SOL     OW28035   3.686   5.369   4.036 -0.4059 -0.3891 -0.2886
 8812SOL    HW128036   3.770   5.356   3.983 -0.4005  0.1343 -0.4118
 8812SOL    HW228037   3.695   5.322   4.124 -0.4724 -1.3814 -0.7970
 8813SOL     OW28038   1.485   0.475   3.054  0.3242 -0.0124  0.2341
 8813SOL    HW128039   1.565   0.415   3.065 -0.1685 -0.9374 -0.9552
 8813SOL    HW228040   1.494   0.553   3.115  0.8920 -1.3804  2.0037
 8814SOL     OW28041   6.991   4.626   6.142  0.4464  0.3542  0.2063
 8814SOL    HW128042   6.974   4.676   6.057 -0.8606  1.8528  1.2754
 8814SOL    HW228043   6.933   4.663   6.214  1.7289 -0.6748  1.8431
 8815SOL     OW28044   1.222   3.013   3.974  0.2455 -0.2535 -0.0201
 8815SOL    HW128045   1.280   3.044   3.899 -1.3680  0.7287 -0.9340
 8815SOL    HW228046   1.236   3.072   4.053  0.5924 -0.1014 -0.1913
 8816SOL     OW28047   2.403   0.386   2.251 -0.1188  0.3091  0.2898
 8816SOL    HW128048   2.310   0.397   2.217 -0.0183 -1.6065 -0.7146
 8816SOL    HW228049   2.401   0.361   2.347 -0.7391 -1.1445 -0.0801
 8817SOL     OW28050   6.985   3.364   5.698 -0.3223  0.4344 -0.9664
 8817SOL    HW128051   6.888   3.379   5.715 -0.0287  1.8575 -0.4642
 8817SOL    HW228052   7.006   3.386   5.603 -0.2698  1.2873 -0.7590
 8818SOL     OW28053   6.920   4.406   0.828 -0.0816 -0.1527  0.4742
 8818SOL    HW128054   7.007   4.356   0.830  0.0705  0.0869  0.0630
 8818SOL    HW228055   6.934   4.495   0.785  0.1156  1.1524  3.0684
 8819SOL     OW28056   5.738   4.008   3.414  0.0525 -0.0674 -0.3664
 8819SOL    HW128057   5.779   3.923   3.382  0.7813  0.3943 -0.6932
 8819SOL    HW228058   5.648   3.989   3.454  1.3016 -1.3658  2.0396
 8820SOL     OW28059   3.423   3.584   1.920  0.3884  0.0983  0.0666
 8820SOL    HW128060   3.418   3.640   2.003 -1.2480  0.7187 -0.4162
 8820SOL    HW228061   3.396   3.640   1.841 -1.6023 -1.4093 -0.3933
 8821SOL     OW28062   5.411   6.436   3.086 -0.1000 -0.3015  0.1314
 8821SOL    HW128063   5.419   6.458   2.988  0.8609 -0.0970  0.2468
 8821SOL    HW228064   5.390   6.339   3.096  0.4946 -0.4795 -0.2706
 8822SOL     OW28065   2.827   1.284   0.784  0.4826  0.2886  0.2961
 8822SOL    HW128066   2.846   1.323   0.694 -0.5774  0.6965  0.2320
 8822SOL    HW228067   2.902   1.306   0.846  0.9425  0.5138 -0.3328
 8823SOL     OW28068   0.714   1.308   3.244  0.4186  0.1172  0.0847
 8823SOL    HW128069   0.717   1.220   3.198  0.9746  0.5547 -0.7415
 8823SOL    HW228070   0.673   1.376   3.184 -0.3639  0.3538  0.8598
 8824SOL     OW28071   5.399   1.715   0.566  0.3982 -0.5523  0.1502
 8824SOL    HW128072   5.376   1.801   0.521  0.3020 -0.9309 -0.5361
 8824SOL    HW228073   5.467   1.731   0.637  0.1722  0.1312  0.2147
 8825SOL     OW28074   2.030   4.576   1.840  0.2861  0.6378 -0.5040
 8825SOL    HW128075   1.941   4.530   1.833  0.9085 -0.7914  0.4065
 8825SOL    HW228076   2.095   4.514   1.885  0.9575  2.7090  1.5709
 8826SOL     OW28077   6.076   1.996   3.974 -0.7112 -0.1029 -0.6137
 8826SOL    HW128078   6.086   2.031   4.068  2.1847  2.7410 -1.7702
 8826SOL    HW228079   6.126   1.910   3.965  0.6360  0.5770  0.0691
 8827SOL     OW28080   6.099   0.761   1.978  0.3297 -0.1801  0.1440
 8827SOL    HW128081   6.154   0.816   1.916 -0.2955  0.1761 -0.0999
 8827SOL    HW228082   6.147   0.750   2.065  1.4653 -1.1393 -0.5720
 8828SOL     OW28083   6.281   6.267   2.381  0.3163 -0.4933 -0.2986
 8828SOL    HW128084   6.372   6.302   2.405 -0.0833  0.0324  0.4730
 8828SOL    HW228085   6.254   6.196   2.447 -0.1339 -0.1356 -0.0912
 8829SOL     OW28086   2.728   1.350   4.008  0.3874 -0.2142 -0.5468
 8829SOL    HW128087   2.653   1.285   4.003  1.0613 -1.0384 -0.2162
 8829SOL    HW228088   2.754   1.363   4.104  0.0764  0.7621 -0.5852
 8830SOL     OW28089   0.990   6.373   1.537  0.3179 -0.2913  0.2430
 8830SOL    HW128090   0.898   6.334   1.543  0.4538 -0.6246  0.1569
 8830SOL    HW228091   0.983   6.469   1.510 -0.0421 -0.0985  1.0113
 8831SOL     OW28092   2.511   3.162   2.946 -0.1989 -0.0595  0.0020
 8831SOL    HW128093   2.547   3.131   3.034  1.1771  3.0958  0.7184
 8831SOL    HW228094   2.417   3.192   2.958 -0.1676 -0.0718  0.2988
 8832SOL     OW28095   2.413   3.956   1.765  0.3768 -0.5594 -0.1241
 8832SOL    HW128096   2.360   3.932   1.846  0.0637 -3.5828 -1.1045
 8832SOL    HW228097   2.488   3.891   1.754  0.2084 -0.4360 -2.4526
 8833SOL     OW28098   0.903   0.171   6.787 -0.2415 -0.0049  0.6066
 8833SOL    HW128099   0.917   0.073   6.802  0.1326 -0.5767 -2.7805
 8833SOL    HW228100   0.809   0.187   6.758  0.6576 -0.0116 -2.6140
 8834SOL     OW28101   5.896   5.765   0.092 -0.0977 -0.3509 -0.0742
 8834SOL    HW128102   5.892   5.862   0.115  2.6747 -0.5673  1.7678
 8834SOL    HW228103   5.804   5.731   0.073 -1.2318  2.3953  0.1085
 8835SOL     OW28104   2.215   0.421   0.678  0.5290 -0.2982 -0.1569
 8835SOL    HW128105   2.188   0.408   0.582 -1.2723  3.0155 -0.2176
 8835SOL    HW228106   2.146   0.382   0.738  1.5969 -2.2630 -0.1220
 8836SOL     OW28107   6.643   1.240   5.317  0.3050 -0.1182 -0.3239
 8836SOL    HW128108   6.598   1.261   5.230  0.8937  2.0164 -0.1864
 8836SOL    HW228109   6.740   1.260   5.310  0.2765  0.6324  0.9541
 8837SOL     OW28110   5.053   4.944   0.694 -0.1642 -0.3292  0.3304
 8837SOL    HW128111   5.093   5.011   0.756 -0.9219 -0.8746  1.4270
 8837SOL    HW228112   4.976   4.899   0.738 -0.1991 -1.3272 -0.6982
 8838SOL     OW28113   5.387   4.514   2.585 -0.8148  0.1921  0.3860
 8838SOL    HW128114   5.384   4.506   2.684  0.6703  1.7690  0.5993
 8838SOL    HW228115   5.326   4.587   2.555 -1.0654 -0.1091  0.1504
 8839SOL     OW28116   3.427   6.033   2.861 -0.0918  0.4055  0.6949
 8839SOL    HW128117   3.374   5.984   2.792  3.7091  1.4624 -3.4062
 8839SOL    HW228118   3.453   5.969   2.934 -1.2981 -1.7501 -0.6568
 8840SOL     OW28119   6.771   6.346   0.340  0.1147 -0.0243  0.0021
 8840SOL    HW128120   6.830   6.266   0.353  1.3287  1.1108  2.0562
 8840SOL    HW228121   6.707   6.352   0.417 -0.6850  0.4243 -0.6804
 8841SOL     OW28122   5.519   4.915   2.746  0.2856  0.2557  0.2710
 8841SOL    HW128123   5.457   4.874   2.814  1.1737  0.5044  1.2519
 8841SOL    HW228124   5.476   4.912   2.656 -0.5677 -0.8623  0.6939
 8842SOL     OW28125   5.734   4.845   5.357 -0.2030  0.4519 -0.3043
 8842SOL    HW128126   5.684   4.897   5.426  0.3284 -0.7502  1.0540
 8842SOL    HW228127   5.813   4.801   5.400 -0.6224 -1.4486 -1.3714
 8843SOL     OW28128   0.802   6.417   6.877 -0.0216 -0.4786 -0.1759
 8843SOL    HW128129   0.879   6.450   6.931 -0.0682 -0.7517  0.0626
 8843SOL    HW228130   0.825   6.327   6.839  0.8724  0.6310 -2.4361
 8844SOL     OW28131   4.834   3.551   6.313 -0.2440  0.0993  0.0234
 8844SOL    HW128132   4.761   3.602   6.357  0.1150 -0.1894  0.9822
 8844SOL    HW228133   4.921   3.598   6.328 -0.2901  0.8490 -1.7467
 8845SOL     OW28134   4.524   2.611   0.876 -0.0258  0.3749 -0.4233
 8845SOL    HW128135   4.572   2.541   0.823  0.2160 -0.0868  0.3869
 8845SOL    HW228136   4.468   2.667   0.815  1.2205  0.6696 -1.3525
 8846SOL     OW28137   5.492   6.826   3.337 -0.4260  0.0035 -0.9099
 8846SOL    HW128138   5.536   6.777   3.412 -1.6731  1.8881  1.1736
 8846SOL    HW228139   5.514   6.923   3.343 -1.2887  0.3272 -2.4542
 8847SOL     OW28140   6.885   3.630   6.320 -0.5346  0.0030  0.4355
 8847SOL    HW128141   6.844   3.554   6.269 -1.9514  1.6561 -1.0230
 8847SOL    HW228142   6.814   3.695   6.346  0.8361  1.7646 -0.0306
 8848SOL     OW28143   0.687   3.038   5.047 -0.5345  0.2197  0.3494
 8848SOL    HW128144   0.770   2.988   5.072 -1.2157 -1.0088  0.2166
 8848SOL    HW228145   0.610   3.006   5.103 -1.3804 -0.2236 -1.0028
 8849SOL     OW28146   2.895   4.858   0.063  0.0593  0.0492  0.0532
 8849SOL    HW128147   2.928   4.769   0.031 -0.6723 -0.2891  0.2228
 8849SOL    HW228148   2.909   4.926  -0.008  1.7734  0.0790  0.3676
 8850SOL     OW28149   1.298   4.794   6.919 -0.2723  0.3296 -0.7115
 8850SOL    HW128150   1.203   4.802   6.889  0.0655  0.0127 -1.9051
 8850SOL    HW228151   1.301   4.787   7.019 -1.5241 -0.0183 -0.6870
 8851SOL     OW28152   5.009   0.593   6.694 -0.1383 -0.0107 -0.1956
 8851SOL    HW128153   4.913   0.614   6.713 -0.2348 -0.3709 -0.2892
 8851SOL    HW228154   5.061   0.679   6.688 -0.6690  0.2532 -1.3083
 8852SOL     OW28155   0.054   0.843   5.875  0.2105  0.4012 -0.6891
 8852SOL    HW128156   0.038   0.804   5.966 -0.3788 -0.0152 -0.9617
 8852SOL    HW228157   0.046   0.771   5.806 -0.2641  0.8806 -1.1466
 8853SOL     OW28158   0.362   4.629   4.048 -0.1935  0.5426  0.2084
 8853SOL    HW128159   0.346   4.535   4.080 -1.6668  0.4499 -0.7223
 8853SOL    HW228160   0.360   4.631   3.948  1.2899  1.3423  0.1661
 8854SOL     OW28161   6.880   4.248   7.000 -0.3057 -0.1085 -0.0235
 8854SOL    HW128162   6.918   4.321   7.057  1.1206 -0.2836 -0.6939
 8854SOL    HW228163   6.809   4.286   6.941 -0.2802  0.5276  0.3460
 8855SOL     OW28164   3.276   0.289   2.287 -0.6172  0.3162  0.4429
 8855SOL    HW128165   3.184   0.321   2.309 -0.1163  1.5920  0.7854
 8855SOL    HW228166   3.342   0.332   2.348  0.3181  0.2157 -0.4548
 8856SOL     OW28167   2.465   1.316   0.731  0.5701  0.0544  1.1310
 8856SOL    HW128168   2.454   1.315   0.632 -0.1841  2.9829  1.1053
 8856SOL    HW228169   2.467   1.222   0.765 -0.7833 -1.0149 -1.4757
 8857SOL     OW28170   5.543   1.378   2.094 -0.8277  0.5970  0.1612
 8857SOL    HW128171   5.495   1.326   2.023  0.2305  0.6010 -0.5890
 8857SOL    HW228172   5.582   1.460   2.053  0.6086  0.1202  0.5254
 8858SOL     OW28173   6.182   3.290   4.087 -0.2189 -0.1065 -0.1547
 8858SOL    HW128174   6.219   3.207   4.047 -0.3527  0.7778 -2.2481
 8858SOL    HW228175   6.248   3.365   4.077 -0.5439  0.3149  0.7013
 8859SOL     OW28176   2.663   0.847   4.619 -0.5976 -0.0691  0.0968
 8859SOL    HW128177   2.661   0.861   4.718 -2.0789 -1.6987  0.3324
 8859SOL    HW228178   2.613   0.921   4.573 -1.3417 -0.2046  0.6859
 8860SOL     OW28179   6.792   2.134   3.151  0.4749 -0.0738 -0.2668
 8860SOL    HW128180   6.705   2.085   3.146  0.0323  0.6169  0.4012
 8860SOL    HW228181   6.775   2.232   3.144  1.2471  0.0496 -0.5176
 8861SOL     OW28182   2.600   0.469   5.560 -0.0211 -0.0926  0.1901
 8861SOL    HW128183   2.602   0.513   5.471  0.4522  0.7101  0.5806
 8861SOL    HW228184   2.692   0.469   5.600  0.5695 -3.6862 -0.8293
 8862SOL     OW28185   5.202   4.073   0.518  0.7563 -0.4830 -0.4407
 8862SOL    HW128186   5.235   4.036   0.431  1.2523  3.1432 -1.9856
 8862SOL    HW228187   5.102   4.076   0.517  0.7592 -0.4317 -0.9140
 8863SOL     OW28188   0.460   0.243   3.186 -0.2543 -0.3993  0.2530
 8863SOL    HW128189   0.458   0.178   3.111  0.6016  0.9631 -1.0049
 8863SOL    HW228190   0.437   0.196   3.272 -0.5287 -2.1323 -0.7239
 8864SOL     OW28191   2.820   2.784   1.461 -0.1785 -0.4995 -0.1182
 8864SOL    HW128192   2.764   2.755   1.383 -2.5169  2.9383  0.0860
 8864SOL    HW228193   2.807   2.719   1.536 -0.4475 -2.1098 -1.4846
 8865SOL     OW28194   5.615   3.413   2.211  0.4939  0.4241 -0.2840
 8865SOL    HW128195   5.660   3.492   2.253  0.0837  0.1534  0.6948
 8865SOL    HW228196   5.540   3.445   2.154 -1.0172  0.7164  1.7363
 8866SOL     OW28197   1.335   3.453   5.145 -0.2256  0.2023  0.0541
 8866SOL    HW128198   1.405   3.518   5.116  0.8339 -1.1253 -0.4373
 8866SOL    HW228199   1.377   3.381   5.201 -1.3056 -0.2617  0.2907
 8867SOL     OW28200   1.967   2.516   0.842 -0.0317  0.1737  0.8787
 8867SOL    HW128201   1.967   2.593   0.779 -0.8287  0.3289  1.0531
 8867SOL    HW228202   1.873   2.482   0.853  0.0120  0.4236  2.2938
 8868SOL     OW28203   5.513   4.219   2.149  0.8565 -0.0132  0.2417
 8868SOL    HW128204   5.468   4.208   2.060  0.0837 -0.2394  0.6503
 8868SOL    HW228205   5.607   4.186   2.142  0.2103 -1.9658  0.0207
 8869SOL     OW28206   4.645   0.344   5.362 -0.1358 -0.0328 -0.0338
 8869SOL    HW128207   4.627   0.304   5.272 -0.0300 -0.9141  0.3232
 8869SOL    HW228208   4.708   0.285   5.412  0.5234  0.9195  0.2754
 8870SOL     OW28209   3.654   6.877   0.038 -0.0928 -0.1150  0.2429
 8870SOL    HW128210   3.631   6.960  -0.012  1.4075  0.7641  0.9342
 8870SOL    HW228211   3.694   6.810  -0.024  1.6693  0.9295  0.2019
 8871SOL     OW28212   2.664   6.562   6.046 -0.3141 -0.2010  0.0191
 8871SOL    HW128213   2.756   6.547   6.082  1.2226  1.7332 -2.7382
 8871SOL    HW228214   2.629   6.476   6.009  0.4884 -0.9074  0.8289
 8872SOL     OW28215   5.856   2.562   1.392  0.7550  0.0820  0.0775
 8872SOL    HW128216   5.824   2.644   1.439 -0.7508  0.0390 -0.7995
 8872SOL    HW228217   5.941   2.583   1.342  0.2382  1.1929 -0.3653
 8873SOL     OW28218   4.196   4.242   5.042 -0.2511 -0.4463 -0.4408
 8873SOL    HW128219   4.221   4.150   5.011 -1.0553 -0.2875 -1.6135
 8873SOL    HW228220   4.134   4.235   5.120  0.4411 -0.8810  0.0781
 8874SOL     OW28221   2.983   1.787   4.299 -0.0190 -0.0249  0.1441
 8874SOL    HW128222   3.026   1.877   4.308 -0.4144  0.2188 -0.3593
 8874SOL    HW228223   2.893   1.789   4.343 -0.2599 -0.0081 -0.3387
 8875SOL     OW28224   3.142   6.471   3.373  0.0432  0.0790  0.1909
 8875SOL    HW128225   3.139   6.551   3.433 -3.0383  0.8409 -0.7722
 8875SOL    HW228226   3.205   6.488   3.297  1.2247  0.5647  1.2469
 8876SOL     OW28227   5.640   5.761   1.719  0.0052  0.1295 -0.1837
 8876SOL    HW128228   5.654   5.693   1.790  1.3568  2.6803  2.1790
 8876SOL    HW228229   5.707   5.748   1.646  2.0223  0.4518  1.5278
 8877SOL     OW28230   3.037   6.445   6.464  0.3856 -0.3676  0.1029
 8877SOL    HW128231   2.961   6.509   6.448  0.1799 -0.6827 -0.2174
 8877SOL    HW228232   3.030   6.370   6.398 -0.4968 -1.7375  1.6837
 8878SOL     OW28233   6.846   6.069   4.188 -0.5872  0.3505  0.2849
 8878SOL    HW128234   6.866   6.150   4.242 -0.2135  1.8936 -2.0240
 8878SOL    HW228235   6.752   6.074   4.154 -0.6079 -0.2723  0.2357
 8879SOL     OW28236   6.804   1.747   3.272  0.4353 -0.2686 -0.2812
 8879SOL    HW128237   6.888   1.800   3.281 -1.0410  2.0154  1.0020
 8879SOL    HW228238   6.785   1.700   3.358  0.6148 -1.1524 -0.7177
 8880SOL     OW28239   2.410   2.549   5.824  0.9363 -0.3322  0.0602
 8880SOL    HW128240   2.443   2.470   5.774 -1.1585  0.2166 -2.4171
 8880SOL    HW228241   2.311   2.542   5.837  1.1298  0.4571  2.6163
 8881SOL     OW28242   0.374   3.919   2.439 -0.4507  0.2494 -0.0762
 8881SOL    HW128243   0.389   3.828   2.476  0.5593 -0.1513 -1.3777
 8881SOL    HW228244   0.421   3.986   2.496 -1.4729  0.0081  1.0695
 8882SOL     OW28245   6.142   6.708   6.191  0.1601  0.2536  0.0894
 8882SOL    HW128246   6.042   6.703   6.202 -0.1149 -1.1553 -2.2733
 8882SOL    HW228247   6.167   6.801   6.164 -0.7422  0.2585 -0.8224
 8883SOL     OW28248   5.646   4.393   1.790 -0.6212  0.2250  0.5445
 8883SOL    HW128249   5.646   4.302   1.748 -1.5947  1.1552 -1.5802
 8883SOL    HW228250   5.702   4.390   1.873  0.1895 -2.0587  0.0071
 8884SOL     OW28251   4.186   3.483   6.257  0.5277  0.0646  0.2881
 8884SOL    HW128252   4.278   3.462   6.289  0.7274 -1.0784 -0.9166
 8884SOL    HW228253   4.151   3.564   6.303  2.3692  0.8736  0.3152
 8885SOL     OW28254   4.891   6.542   6.980  0.2031 -0.2260 -0.4150
 8885SOL    HW128255   4.816   6.482   6.951 -0.6849  0.5955  0.1273
 8885SOL    HW228256   4.853   6.623   7.024  1.3766  0.7360 -1.1083
 8886SOL     OW28257   5.148   0.402   4.150 -0.4070  0.7173  0.2022
 8886SOL    HW128258   5.198   0.347   4.217  0.1574  1.9347  0.8168
 8886SOL    HW228259   5.203   0.481   4.124 -1.1603  0.9506 -0.7250
 8887SOL     OW28260   5.990   1.591   1.038 -0.4777  0.2790 -0.1590
 8887SOL    HW128261   5.894   1.617   1.034 -0.6179  0.0498  1.1523
 8887SOL    HW228262   6.031   1.631   1.121  0.6826  0.7734 -0.9448
 8888SOL     OW28263   5.736   5.156   6.076 -0.1235 -0.0021  0.1673
 8888SOL    HW128264   5.662   5.184   6.014 -0.5184 -0.8369  0.2543
 8888SOL    HW228265   5.769   5.065   6.050  0.5407  0.1522  0.4399
 8889SOL     OW28266   5.956   6.310   2.635 -0.3298 -0.0267 -0.3203
 8889SOL    HW128267   5.888   6.351   2.574  0.9283  1.1614 -0.9840
 8889SOL    HW228268   5.976   6.217   2.604 -0.1396  0.3506 -1.3889
 8890SOL     OW28269   0.792   6.549   3.274 -0.3136 -0.7243  0.1954
 8890SOL    HW128270   0.877   6.498   3.286  1.2641  1.5254 -0.6547
 8890SOL    HW228271   0.780   6.611   3.351  0.0705  0.5704 -0.7412
 8891SOL     OW28272   3.121   6.999   4.915 -0.4096 -0.4125  0.1422
 8891SOL    HW128273   3.041   7.046   4.877  0.8405  0.0451 -2.1142
 8891SOL    HW228274   3.105   6.900   4.912 -0.5556 -0.3748 -1.2126
 8892SOL     OW28275   2.153   6.253   6.528  0.2684  0.1509  0.0114
 8892SOL    HW128276   2.145   6.352   6.535 -1.8317  0.1713 -1.4623
 8892SOL    HW228277   2.121   6.210   6.613  0.3810  0.7151  0.3412
 8893SOL     OW28278   3.984   1.815   4.816 -0.2180 -0.3371 -0.3791
 8893SOL    HW128279   4.005   1.851   4.725 -0.9062  0.3061 -0.2973
 8893SOL    HW228280   3.946   1.888   4.873  1.0554 -0.5023  0.7355
 8894SOL     OW28281   0.286   2.584   3.758  0.0004 -0.2157  0.3706
 8894SOL    HW128282   0.197   2.546   3.783 -0.5634  0.6398 -0.2797
 8894SOL    HW228283   0.292   2.679   3.789  0.0982  0.1996 -0.8801
 8895SOL     OW28284   3.419   6.749   0.154 -0.4191  0.0566 -0.2478
 8895SOL    HW128285   3.462   6.670   0.198 -1.8465 -0.6036  0.0271
 8895SOL    HW228286   3.489   6.808   0.115  0.7647 -0.5205  0.9373
 8896SOL     OW28287   5.611   3.204   0.555  0.6139 -0.3313 -0.6143
 8896SOL    HW128288   5.565   3.163   0.634  0.4440  1.1088  0.0648
 8896SOL    HW228289   5.547   3.265   0.507  0.3421 -2.0548 -2.6000
 8897SOL     OW28290   3.388   2.403   1.098  0.6257  0.3433 -0.0744
 8897SOL    HW128291   3.388   2.494   1.057  1.9966 -0.7284 -2.6471
 8897SOL    HW228292   3.309   2.352   1.066  0.3462  0.3106  0.6514
 8898SOL     OW28293   3.281   5.762   5.418 -0.0892 -0.2923 -0.1643
 8898SOL    HW128294   3.257   5.678   5.468 -0.5019 -1.0449 -1.5615
 8898SOL    HW228295   3.246   5.756   5.325  0.1902  1.3062 -0.3996
 8899SOL     OW28296   1.643   1.509   4.322 -0.2848  0.4434  0.1061
 8899SOL    HW128297   1.636   1.588   4.261  0.4223 -1.3601 -2.5086
 8899SOL    HW228298   1.738   1.476   4.323 -0.3375  0.2825  2.0598
 8900SOL     OW28299   0.936   6.680   0.026 -0.1789  0.0609  0.4422
 8900SOL    HW128300   1.028   6.688  -0.013  1.7611 -1.2839  4.1294
 8900SOL    HW228301   0.898   6.771   0.040  1.0596  0.7176 -0.2691
 8901SOL     OW28302   2.747   0.060   2.464  0.2638  0.1558 -0.1838
 8901SOL    HW128303   2.670   0.124   2.462 -0.5793 -0.6799  2.3133
 8901SOL    HW228304   2.714  -0.032   2.441  0.9551  0.1289 -1.1358
 8902SOL     OW28305   0.408   5.244   0.849 -0.1041  0.2069 -0.1413
 8902SOL    HW128306   0.488   5.301   0.830  0.5384 -1.0414 -1.4281
 8902SOL    HW228307   0.349   5.289   0.915  1.6055  1.2160  0.7607
 8903SOL     OW28308   1.499   0.564   1.619 -0.2846  0.4753  0.0108
 8903SOL    HW128309   1.471   0.545   1.525 -1.6027  0.4161  0.3981
 8903SOL    HW228310   1.418   0.575   1.677  0.4967  1.1306  1.0233
 8904SOL     OW28311   5.746   6.433   2.466 -0.0338 -0.3252  0.7902
 8904SOL    HW128312   5.743   6.339   2.433  0.3856 -0.2149  0.4357
 8904SOL    HW228313   5.754   6.496   2.389  0.0475 -0.0165  1.0473
 8905SOL     OW28314   5.814   3.252   3.467 -0.1670 -0.1944  0.0247
 8905SOL    HW128315   5.847   3.165   3.432  0.5867  0.1481 -0.1328
 8905SOL    HW228316   5.817   3.321   3.394  1.1700  0.4580  0.6604
 8906SOL     OW28317   0.013   3.840   5.235 -0.0523 -0.3526  0.1978
 8906SOL    HW128318  -0.050   3.765   5.250  1.2053 -2.0320 -2.2381
 8906SOL    HW228319  -0.032   3.910   5.178 -0.5679 -0.2253  0.7537
 8907SOL     OW28320   1.568   5.174   2.097  0.8236 -0.3261  0.2679
 8907SOL    HW128321   1.558   5.197   2.000 -1.6266  1.4805  0.8528
 8907SOL    HW228322   1.650   5.217   2.133  1.3377 -0.3639 -0.8174
 8908SOL     OW28323   1.445   6.586   4.021 -0.1776 -0.2369 -0.5751
 8908SOL    HW128324   1.371   6.647   4.048 -0.1280 -0.1759 -0.5761
 8908SOL    HW228325   1.525   6.604   4.079 -0.5884 -1.2177  0.3300
 8909SOL     OW28326   0.943   6.534   0.534 -1.2890  0.3768 -0.6398
 8909SOL    HW128327   1.033   6.497   0.559 -1.6988 -0.2674 -0.0711
 8909SOL    HW228328   0.923   6.512   0.439 -0.0802  2.0957 -1.3436
 8910SOL     OW28329   4.688   5.510   2.554  0.1019 -0.0272 -0.3551
 8910SOL    HW128330   4.747   5.430   2.554 -0.5694 -0.5595  1.1804
 8910SOL    HW228331   4.736   5.587   2.595  0.2630 -0.0246 -0.5476
 8911SOL     OW28332   7.012   3.402   5.416  0.8079 -0.0611 -0.2303
 8911SOL    HW128333   6.920   3.399   5.376  0.9968  1.9184 -0.9627
 8911SOL    HW228334   7.065   3.324   5.384 -0.9920 -2.0373  1.3098
 8912SOL     OW28335   1.251   0.141   0.292  0.6870 -0.0889 -0.0822
 8912SOL    HW128336   1.192   0.061   0.283 -1.2037  1.2811 -0.4523
 8912SOL    HW228337   1.275   0.155   0.388 -1.9276  0.8662  0.5053
 8913SOL     OW28338   4.800   1.412   5.055 -0.0497 -0.6832 -0.6898
 8913SOL    HW128339   4.746   1.376   5.131  0.4865 -0.7770 -0.3441
 8913SOL    HW228340   4.823   1.337   4.992  0.6502 -0.8685 -0.2280
 8914SOL     OW28341   1.055   1.697   2.755  0.3499 -0.1689  0.5259
 8914SOL    HW128342   1.053   1.687   2.855  3.8989  0.1623  0.7452
 8914SOL    HW228343   0.985   1.762   2.727 -0.7184 -0.2396  2.7937
 8915SOL     OW28344   6.382   4.783   4.435 -0.2868 -0.5373 -0.5150
 8915SOL    HW128345   6.325   4.728   4.496  0.3744  0.4271  1.0310
 8915SOL    HW228346   6.473   4.742   4.429  0.8646  1.3647  2.2865
 8916SOL     OW28347   6.610   2.373   6.677 -0.5415  0.0993  0.1538
 8916SOL    HW128348   6.544   2.446   6.661 -1.0636 -0.5839 -0.8593
 8916SOL    HW228349   6.660   2.354   6.593 -0.9154 -1.1882  0.2061
 8917SOL     OW28350   3.082   1.173   0.951  0.6163 -0.1166  0.2314
 8917SOL    HW128351   3.058   1.127   0.865 -1.3294  0.0375  0.6665
 8917SOL    HW228352   3.062   1.112   1.028 -0.7655  0.9374  0.7407
 8918SOL     OW28353   6.663   3.205   4.591  0.1830 -0.6932  0.0816
 8918SOL    HW128354   6.653   3.167   4.683  3.0543  0.2586  0.9053
 8918SOL    HW228355   6.757   3.190   4.560 -0.3220  0.3545 -2.0945
 8919SOL     OW28356   5.661   3.878   5.474 -0.3073 -0.0559  0.0186
 8919SOL    HW128357   5.675   3.862   5.572 -0.9689  0.4575  0.2069
 8919SOL    HW228358   5.568   3.850   5.449 -0.1046 -0.2866 -0.4890
 8920SOL     OW28359   0.034   1.003   0.805 -0.4859 -0.6718 -0.5765
 8920SOL    HW128360  -0.024   0.991   0.886 -0.8531  1.4386 -0.4750
 8920SOL    HW228361   0.128   1.017   0.833 -0.5875 -0.0971 -0.5179
 8921SOL     OW28362   4.011   1.398   2.858  0.0945  0.3457  0.0001
 8921SOL    HW128363   4.052   1.386   2.949 -0.0766 -0.7117 -0.0540
 8921SOL    HW228364   4.077   1.373   2.788  0.0887  0.7691 -0.1575
 8922SOL     OW28365   5.512   2.215   4.511 -0.1079 -0.6571 -0.3232
 8922SOL    HW128366   5.581   2.213   4.583  0.2087 -0.5552 -0.6219
 8922SOL    HW228367   5.421   2.203   4.552 -0.1004  1.1950  0.2958
 8923SOL     OW28368   4.450   4.019   3.420 -0.2576  0.0548 -0.2939
 8923SOL    HW128369   4.402   4.055   3.341 -0.3528  0.2398 -0.1527
 8923SOL    HW228370   4.534   4.072   3.435  0.4201 -0.7869 -1.0339
 8924SOL     OW28371   2.017   0.166   2.493 -0.2191 -0.1616 -0.0652
 8924SOL    HW128372   2.020   0.263   2.469 -1.4841 -0.9843 -4.5975
 8924SOL    HW228373   1.927   0.144   2.530  0.3425  0.4563  1.7557
 8925SOL     OW28374   5.031   6.203   5.645 -0.2320 -0.2903  0.4702
 8925SOL    HW128375   5.120   6.239   5.672 -0.0366 -0.6453  0.2932
 8925SOL    HW228376   5.042   6.131   5.577 -0.7022  0.3205 -0.2765
 8926SOL     OW28377   3.268   3.854   0.980  0.1588  0.8829  0.2921
 8926SOL    HW128378   3.351   3.821   0.936 -0.4900  1.4594 -1.4415
 8926SOL    HW228379   3.271   3.831   1.077  1.7114 -0.3008  0.0116
 8927SOL     OW28380   3.497   6.380   5.647 -0.2452  0.5312  0.6998
 8927SOL    HW128381   3.506   6.343   5.555  0.4162  1.1364  0.5105
 8927SOL    HW228382   3.522   6.309   5.714 -1.6215 -0.2016  0.4692
 8928SOL     OW28383   6.833   3.377   1.421 -0.1349  0.5048  0.3021
 8928SOL    HW128384   6.898   3.314   1.377 -1.0159 -0.2714  0.0804
 8928SOL    HW228385   6.828   3.358   1.519  0.2724  0.8365  0.3878
 8929SOL     OW28386   1.939   5.326   2.759  0.3815 -0.5620  0.3090
 8929SOL    HW128387   1.978   5.349   2.848 -0.2807 -0.4215  0.5727
 8929SOL    HW228388   1.839   5.339   2.762  0.4591  0.4833 -0.7592
 8930SOL     OW28389   6.361   4.655   6.331 -0.5646 -0.2966 -0.4033
 8930SOL    HW128390   6.439   4.628   6.274  0.7462  0.5014  0.9258
 8930SOL    HW228391   6.362   4.755   6.343 -0.3420 -0.4924  1.5742
 8931SOL     OW28392   3.249   6.542   0.280  0.4678  0.4876 -0.3792
 8931SOL    HW128393   3.293   6.612   0.224  0.3713  0.1074 -0.9381
 8931SOL    HW228394   3.261   6.452   0.237 -0.2720  0.2913 -0.1956
 8932SOL     OW28395   3.106   3.274   3.410 -0.1008 -0.6789 -0.2650
 8932SOL    HW128396   3.031   3.239   3.468 -0.0741 -0.2795  0.0128
 8932SOL    HW228397   3.070   3.338   3.344  0.1084  0.1619  0.4183
 8933SOL     OW28398   6.310   3.415   6.511 -0.2947  0.3049  0.1121
 8933SOL    HW128399   6.264   3.338   6.467 -0.9953  0.4574  0.5423
 8933SOL    HW228400   6.263   3.436   6.598 -0.4126  1.5073 -0.2168
 8934SOL     OW28401   0.086   0.930   2.510 -0.3343  0.5103 -0.0891
 8934SOL    HW128402   0.015   0.996   2.533 -0.8421 -0.3837  1.0474
 8934SOL    HW228403   0.052   0.837   2.528  1.5330  0.1172  1.7011
 8935SOL     OW28404   1.044   1.248   1.908  0.3059  0.4158 -0.1020
 8935SOL    HW128405   1.135   1.286   1.918 -0.1378  1.6362 -0.5440
 8935SOL    HW228406   1.018   1.247   1.811 -1.1239  2.4995  0.1935
 8936SOL     OW28407   4.858   5.704   6.542  0.4555 -0.0420 -0.3753
 8936SOL    HW128408   4.777   5.746   6.581 -0.5383 -1.4315 -0.8626
 8936SOL    HW228409   4.938   5.727   6.597 -0.2807  1.2152  0.1996
 8937SOL     OW28410   3.896   4.625   0.779 -0.0609 -0.2666  0.0326
 8937SOL    HW128411   3.968   4.679   0.735 -0.5006  0.8503  0.6451
 8937SOL    HW228412   3.939   4.557   0.840  0.4883 -0.2883 -0.3651
 8938SOL     OW28413   5.315   4.061   2.290  0.0904  0.4867  0.6899
 8938SOL    HW128414   5.400   4.090   2.246  0.2941 -0.1930  0.6256
 8938SOL    HW228415   5.335   4.024   2.380 -0.1543  0.4732  0.7395
 8939SOL     OW28416   4.988   5.826   6.286  0.1340 -0.3615 -0.2675
 8939SOL    HW128417   4.926   5.832   6.364  0.6031 -1.0462  0.1659
 8939SOL    HW228418   4.972   5.903   6.224 -0.2395  0.1886  0.5059
 8940SOL     OW28419   0.942   2.545   3.583 -0.1348  0.5519  0.0136
 8940SOL    HW128420   0.972   2.617   3.646  0.0985 -1.5754  2.4651
 8940SOL    HW228421   1.021   2.496   3.548 -0.3489  0.8143 -0.8634
 8941SOL     OW28422   0.676   6.967   2.018 -0.2764  0.3369 -0.4474
 8941SOL    HW128423   0.677   6.920   2.106 -1.1775  1.0388 -0.0506
 8941SOL    HW228424   0.707   6.904   1.946 -0.2906 -0.4765  0.2443
 8942SOL     OW28425   0.486   1.843   0.233 -0.1035  0.0308 -0.0549
 8942SOL    HW128426   0.432   1.870   0.153  1.4841 -0.0158 -1.1939
 8942SOL    HW228427   0.512   1.925   0.284  0.5320  0.2489 -0.7113
 8943SOL     OW28428   3.604   1.802   5.421 -0.1824 -0.2452  0.4000
 8943SOL    HW128429   3.650   1.735   5.479 -0.9649 -0.8836  0.2973
 8943SOL    HW228430   3.513   1.769   5.397 -0.6043  0.8754  0.3788
 8944SOL     OW28431   0.072   1.636   2.292  0.3105  0.0704  0.3039
 8944SOL    HW128432   0.010   1.608   2.365  0.6570 -0.7982  0.2712
 8944SOL    HW228433   0.161   1.661   2.332  0.7809 -1.2305  0.1267
 8945SOL     OW28434   0.940   1.623   5.920 -0.4246 -0.4054  0.4134
 8945SOL    HW128435   0.859   1.569   5.941 -0.6087 -0.6062 -0.7343
 8945SOL    HW228436   0.938   1.650   5.824  2.0771 -2.5605 -0.3791
 8946SOL     OW28437   3.933   0.591   6.859 -0.1030  0.0998  0.7051
 8946SOL    HW128438   4.017   0.643   6.876  0.6989 -0.4595 -1.3365
 8946SOL    HW228439   3.877   0.639   6.792 -1.0057  0.0115  1.3823
 8947SOL     OW28440   1.446   0.852   6.218  0.1002 -0.5398 -0.5184
 8947SOL    HW128441   1.424   0.885   6.126  0.2634  2.9016  0.5399
 8947SOL    HW228442   1.545   0.852   6.231  0.1749 -2.4954 -0.7571
 8948SOL     OW28443   5.379   0.808   3.729 -0.6435 -0.2358 -0.0269
 8948SOL    HW128444   5.362   0.906   3.737 -0.4916 -0.2515  0.5207
 8948SOL    HW228445   5.296   0.762   3.697 -0.8359  0.0207  0.1018
 8949SOL     OW28446   4.081   0.582   2.594  0.4416 -0.2264  0.2832
 8949SOL    HW128447   4.112   0.495   2.555 -0.3624 -0.2611 -0.3064
 8949SOL    HW228448   4.118   0.593   2.686 -0.7042 -1.9414  0.9916
 8950SOL     OW28449   1.182   2.478   1.065  0.0452 -0.0157 -0.2986
 8950SOL    HW128450   1.149   2.544   0.998 -1.2419  0.2789  0.5842
 8950SOL    HW228451   1.222   2.399   1.018 -0.8668  0.1532 -1.4058
 8951SOL     OW28452   4.420   6.372   2.764 -0.2750  0.0788 -0.3972
 8951SOL    HW128453   4.516   6.395   2.779  0.6267 -2.4383 -1.6727
 8951SOL    HW228454   4.413   6.308   2.687 -2.6797 -1.9937  1.3843
 8952SOL     OW28455   3.675   4.769   1.327  0.2122  0.9079  0.7412
 8952SOL    HW128456   3.683   4.775   1.228  0.2420  0.9965  0.7489
 8952SOL    HW228457   3.736   4.697   1.361 -0.8672 -0.1182  0.5531
 8953SOL     OW28458   2.922   4.410   0.131  0.7479  0.0972 -0.1297
 8953SOL    HW128459   2.930   4.319   0.089 -0.7804  0.0911 -0.4532
 8953SOL    HW228460   2.889   4.400   0.225 -0.9480  0.3476 -0.6521
 8954SOL     OW28461   2.373   4.244   1.038 -0.0337 -0.2722  0.2541
 8954SOL    HW128462   2.340   4.338   1.024 -0.3411 -0.7473 -2.9755
 8954SOL    HW228463   2.471   4.246   1.056 -0.2653  0.6998  1.6056
 8955SOL     OW28464   4.705   4.026   0.705 -0.5319  0.1243  0.6550
 8955SOL    HW128465   4.639   4.086   0.659 -0.9230 -0.1572  0.8377
 8955SOL    HW228466   4.658   3.975   0.777  0.0753  0.5617  1.3705
 8956SOL     OW28467   3.826   0.686   4.688  0.3786  0.7233  0.1799
 8956SOL    HW128468   3.747   0.645   4.734  0.1692  1.7542  0.7729
 8956SOL    HW228469   3.811   0.686   4.589 -0.6734  1.4812  0.3192
 8957SOL     OW28470   1.926   4.816   6.312 -0.6044  0.0344 -0.2635
 8957SOL    HW128471   1.955   4.910   6.293 -0.4281 -0.2845 -1.7419
 8957SOL    HW228472   1.907   4.770   6.225 -2.1691 -0.8393  0.5008
 8958SOL     OW28473   3.327   0.080   4.094 -0.2223  0.1024  0.0744
 8958SOL    HW128474   3.313   0.023   4.013  1.8154 -0.0627 -0.1977
 8958SOL    HW228475   3.266   0.159   4.090 -0.5006 -0.1651 -1.3645
 8959SOL     OW28476   1.774   2.140   3.551  0.7086 -0.0552  0.1286
 8959SOL    HW128477   1.840   2.147   3.626 -1.1557 -0.1755  1.8698
 8959SOL    HW228478   1.690   2.097   3.584  0.7475 -2.6913 -2.7308
 8960SOL     OW28479   3.012   6.085   5.081 -0.0357 -0.2057 -0.4086
 8960SOL    HW128480   3.059   6.105   5.167 -0.2709 -1.4832  0.0461
 8960SOL    HW228481   3.079   6.053   5.014 -0.1931 -1.9598  0.2185
 8961SOL     OW28482   5.056   1.515   4.192  0.0997  0.0270  0.1858
 8961SOL    HW128483   4.984   1.547   4.253 -0.0074  2.3345 -1.0080
 8961SOL    HW228484   5.116   1.592   4.169  0.0761 -0.6969 -2.6323
 8962SOL     OW28485   2.755   2.605   1.669 -0.0018 -0.3553 -0.0783
 8962SOL    HW128486   2.738   2.668   1.744 -1.1899 -0.8008  0.0595
 8962SOL    HW228487   2.841   2.556   1.685  1.5794  2.0429 -0.8015
 8963SOL     OW28488   4.649   0.369   1.000  0.1548 -0.2746 -0.2196
 8963SOL    HW128489   4.721   0.401   0.939  1.4887 -0.3248  1.2479
 8963SOL    HW228490   4.660   0.271   1.017 -1.3502 -0.6700 -1.3567
 8964SOL     OW28491   3.071   3.061   0.284  0.0243 -0.1235 -0.0686
 8964SOL    HW128492   3.069   2.969   0.324  1.2344 -0.3356 -0.4675
 8964SOL    HW228493   3.054   3.129   0.355  0.2757 -0.6009  0.4534
 8965SOL     OW28494   4.798   3.164   3.842 -0.3556 -0.6166 -0.1101
 8965SOL    HW128495   4.733   3.089   3.829 -1.2855  0.5428 -3.2729
 8965SOL    HW228496   4.748   3.250   3.853  0.6941 -0.1307  1.1014
 8966SOL     OW28497   2.627   3.508   3.886  0.2609 -0.3616  0.2718
 8966SOL    HW128498   2.716   3.466   3.868  1.7291  1.2875  3.0100
 8966SOL    HW228499   2.580   3.457   3.959  0.8094  1.0156  1.6402
 8967SOL     OW28500   0.946   0.710   2.058 -0.1122  0.7446 -1.0548
 8967SOL    HW128501   1.022   0.646   2.059 -1.3162 -0.7412  0.6958
 8967SOL    HW228502   0.884   0.689   1.983  0.0179  0.4969 -1.0899
 8968SOL     OW28503   3.254   1.354   1.036 -0.1370  0.1610  0.2996
 8968SOL    HW128504   3.229   1.370   1.131 -0.2668 -1.1201  0.4927
 8968SOL    HW228505   3.188   1.291   0.994  0.9953 -0.8097 -0.0787
 8969SOL     OW28506   5.283   6.760   1.625 -0.3158 -0.1443 -0.0977
 8969SOL    HW128507   5.341   6.759   1.707  0.1251  0.1269 -0.4002
 8969SOL    HW228508   5.318   6.694   1.559 -0.0203  0.4085 -0.5012
 8970SOL     OW28509   4.951   3.284   6.402  0.0218 -0.4964  0.8127
 8970SOL    HW128510   4.944   3.247   6.309 -0.4460  1.9975 -0.2313
 8970SOL    HW228511   4.907   3.373   6.406 -0.8454 -0.9518  3.7388
 8971SOL     OW28512   3.235   3.100   3.858  0.9744 -0.1474 -0.0639
 8971SOL    HW128513   3.235   3.200   3.856  0.4726 -0.1556 -1.0399
 8971SOL    HW228514   3.327   3.066   3.840  0.8071  0.1373 -1.5820
 8972SOL     OW28515   3.405   5.833   4.727  0.0314 -0.1088  0.3836
 8972SOL    HW128516   3.436   5.847   4.821  1.6865 -1.4283  0.0890
 8972SOL    HW228517   3.353   5.747   4.722 -0.4261  0.1777  0.1675
 8973SOL     OW28518   0.972   3.763   1.735 -0.1263 -0.1188  0.0039
 8973SOL    HW128519   1.056   3.755   1.681 -0.8261 -1.8701 -0.9147
 8973SOL    HW228520   0.977   3.844   1.794  1.4288  0.8347 -1.3542
 8974SOL     OW28521   1.634   6.026   3.977  0.8408 -0.2761  0.3029
 8974SOL    HW128522   1.580   6.099   3.935  1.8668 -0.7178 -1.9424
 8974SOL    HW228523   1.575   5.970   4.036 -1.9285 -2.2521 -3.8584
 8975SOL     OW28524   6.710   0.480   4.240  0.3095 -0.4489 -0.0422
 8975SOL    HW128525   6.809   0.486   4.248  0.3433 -0.8552 -0.1381
 8975SOL    HW228526   6.678   0.546   4.171  0.4206  0.2647  0.5772
 8976SOL     OW28527   5.622   1.581   1.942  0.5358  0.5567  0.3232
 8976SOL    HW128528   5.556   1.655   1.958 -0.9494 -1.0657  2.2496
 8976SOL    HW228529   5.656   1.587   1.848 -0.2556  3.0713  0.1188
 8977SOL     OW28530   6.070   1.432   0.056  0.5185 -1.1386  0.3282
 8977SOL    HW128531   6.076   1.460  -0.039  1.2509 -0.6741  0.5084
 8977SOL    HW228532   5.987   1.470   0.097 -0.0640 -1.7535 -0.2479
 8978SOL     OW28533   4.411   3.811   0.847  0.2513 -0.0946 -0.9442
 8978SOL    HW128534   4.462   3.862   0.917  0.1404 -0.8938 -0.2618
 8978SOL    HW228535   4.434   3.846   0.757 -0.1438  1.4462 -0.4693
 8979SOL     OW28536   5.374   5.892   3.929 -0.4071 -0.3249 -0.1371
 8979SOL    HW128537   5.425   5.972   3.960  0.5294 -0.8843 -0.2027
 8979SOL    HW228538   5.423   5.847   3.855 -1.2658 -0.5773 -0.5652
 8980SOL     OW28539   2.302   3.529   1.578  0.5613 -0.3376  0.2570
 8980SOL    HW128540   2.293   3.437   1.540  1.1634  0.0764 -0.9284
 8980SOL    HW228541   2.398   3.555   1.580  0.5992 -0.4059  2.3166
 8981SOL     OW28542   1.569   1.815   2.734  0.4442 -0.2417  0.1430
 8981SOL    HW128543   1.499   1.749   2.760 -0.0642  0.1480 -0.2030
 8981SOL    HW228544   1.582   1.882   2.807 -0.0234  0.0706 -0.0548
 8982SOL     OW28545   6.600   3.382   6.038  0.1559 -0.2023 -0.2150
 8982SOL    HW128546   6.675   3.373   5.973 -0.3899 -2.1387 -0.6383
 8982SOL    HW228547   6.517   3.339   6.000 -0.8394  0.8032  0.7442
 8983SOL     OW28548   0.791   6.186   1.028  0.3442  0.1991 -0.9120
 8983SOL    HW128549   0.840   6.252   0.971 -0.5038  2.4254  0.7579
 8983SOL    HW228550   0.785   6.220   1.122  1.0412 -2.9724  0.4181
 8984SOL     OW28551   2.934   6.772   6.725 -0.3202 -0.2122  0.2005
 8984SOL    HW128552   3.009   6.768   6.791 -0.4052  0.3286  0.3292
 8984SOL    HW228553   2.959   6.833   6.650 -1.6226  2.0549  1.5154
 8985SOL     OW28554   1.453   4.383   0.295 -0.4617 -0.0272  0.3455
 8985SOL    HW128555   1.363   4.421   0.320  0.0911  1.3839  0.3101
 8985SOL    HW228556   1.516   4.394   0.372  0.4377  1.6273 -0.5665
 8986SOL     OW28557   1.588   2.178   2.594 -0.0047  0.6418  0.0442
 8986SOL    HW128558   1.560   2.249   2.530 -1.2734  1.3094  1.2956
 8986SOL    HW228559   1.540   2.092   2.571  0.5492  0.5113 -0.6764
 8987SOL     OW28560   5.923   5.731   3.514 -0.1317  0.1262  0.2308
 8987SOL    HW128561   5.953   5.674   3.437 -1.5513  0.3062 -0.4873
 8987SOL    HW228562   5.973   5.818   3.511  0.0801 -0.0031 -0.2777
 8988SOL     OW28563   0.181   5.500   3.679 -0.1323  0.0837 -0.7282
 8988SOL    HW128564   0.083   5.515   3.693 -0.3258 -0.1522 -1.7766
 8988SOL    HW228565   0.195   5.414   3.630  0.4592  1.0228 -2.2791
 8989SOL     OW28566   6.362   6.828   1.283  0.2696 -0.2727  0.0318
 8989SOL    HW128567   6.423   6.820   1.205 -0.1249 -0.3955 -0.2681
 8989SOL    HW228568   6.279   6.775   1.266 -0.3687  0.7121 -0.0095
 8990SOL     OW28569   2.421   1.878   4.178  0.4815 -0.5761 -0.6708
 8990SOL    HW128570   2.333   1.831   4.177  0.6722 -1.0051  0.8224
 8990SOL    HW228571   2.406   1.977   4.170 -0.2105 -0.5842  0.3558
 8991SOL     OW28572   6.693   3.845   3.936 -0.2703  0.2206  0.0047
 8991SOL    HW128573   6.610   3.824   3.884 -0.7662  1.3299  0.3363
 8991SOL    HW228574   6.768   3.863   3.872 -0.1312 -1.2566 -0.2974
 8992SOL     OW28575   3.382   1.070   6.475  0.0629  0.3002 -0.2264
 8992SOL    HW128576   3.320   1.031   6.407 -1.7839  2.1819  0.2657
 8992SOL    HW228577   3.338   1.069   6.564  0.5852  1.9866  0.0770
 8993SOL     OW28578   0.692   5.751   4.716  0.0326 -0.4589  0.6639
 8993SOL    HW128579   0.598   5.725   4.738 -0.2783  0.5691  0.5993
 8993SOL    HW228580   0.751   5.670   4.722 -0.7859 -1.0449  1.0530
 8994SOL     OW28581   3.887   0.366   6.698 -0.5918  0.5015  0.0756
 8994SOL    HW128582   3.822   0.303   6.740  1.4060 -0.1126  2.4772
 8994SOL    HW228583   3.925   0.426   6.768  1.8383  0.4307 -1.0904
 8995SOL     OW28584   6.360   5.569   7.015 -0.4839  0.2260 -0.2024
 8995SOL    HW128585   6.358   5.628   7.096 -2.2745 -1.7606  1.3196
 8995SOL    HW228586   6.396   5.620   6.938  2.9222  1.7451  2.1451
 8996SOL     OW28587   4.343   5.405   1.199  0.0114 -0.7617 -0.3196
 8996SOL    HW128588   4.244   5.415   1.204  0.0573 -0.2807 -0.3773
 8996SOL    HW228589   4.372   5.330   1.259 -0.1261  0.6863  1.6246
 8997SOL     OW28590   3.327   0.703   1.469 -0.5593  0.5875  0.3542
 8997SOL    HW128591   3.338   0.693   1.568  0.4083  1.2630  0.3227
 8997SOL    HW228592   3.272   0.627   1.435 -0.0940 -0.1930  1.2657
 8998SOL     OW28593   5.784   0.201   3.182  0.0997  0.3218 -0.1967
 8998SOL    HW128594   5.844   0.126   3.154  1.9543  1.5432  0.2975
 8998SOL    HW228595   5.799   0.222   3.279 -2.9374 -0.8861  0.6574
 8999SOL     OW28596   5.958   0.050   6.953 -0.0699  0.3744 -0.1788
 8999SOL    HW128597   5.959   0.141   6.995  0.5992  0.4674 -0.3869
 8999SOL    HW228598   6.008  -0.014   7.011  1.5504  0.6733 -1.1743
 9000SOL     OW28599   2.355   1.376   6.217 -0.3809 -0.3777 -0.3719
 9000SOL    HW128600   2.427   1.441   6.240 -1.1789  0.1620  0.6519
 9000SOL    HW228601   2.383   1.323   6.137  0.4231  0.9846 -1.0264
 9001SOL     OW28602   5.098   5.139   0.112  0.3079 -0.4389 -0.2343
 9001SOL    HW128603   5.112   5.223   0.060 -0.7773  0.6702  1.2079
 9001SOL    HW228604   5.006   5.104   0.095  1.3241 -2.4568 -2.2826
 9002SOL     OW28605   0.835   4.186   4.513  0.2154  0.0598  0.5131
 9002SOL    HW128606   0.804   4.281   4.520 -3.3499 -0.7777 -1.4514
 9002SOL    HW228607   0.760   4.124   4.539  1.7603 -2.2569 -0.1965
 9003SOL     OW28608   1.334   5.465   5.812  0.4394  0.6938  0.6992
 9003SOL    HW128609   1.381   5.447   5.898  2.6494 -2.7640 -0.9888
 9003SOL    HW228610   1.287   5.382   5.782 -0.2290  1.7775 -1.4584
 9004SOL     OW28611   2.646   1.838   4.027  0.1559 -0.6179 -0.3048
 9004SOL    HW128612   2.569   1.842   4.091  0.1119 -0.4837 -0.3664
 9004SOL    HW228613   2.634   1.759   3.966 -0.0368 -0.4800 -0.4460
 9005SOL     OW28614   1.421   5.866   1.376  0.0497 -0.1402 -0.5978
 9005SOL    HW128615   1.425   5.941   1.442  0.8671 -1.7889  1.3399
 9005SOL    HW228616   1.362   5.892   1.299  0.2228  2.4006  0.0309
 9006SOL     OW28617   5.381   0.539   0.290  0.0792 -0.0554  0.4020
 9006SOL    HW128618   5.419   0.631   0.278  0.5794 -0.3100 -0.0048
 9006SOL    HW228619   5.290   0.535   0.249  0.5919 -0.1017 -0.7670
 9007SOL     OW28620   4.623   1.228   1.554 -1.0150 -0.3279 -0.8055
 9007SOL    HW128621   4.605   1.135   1.524  2.1859 -0.7367 -1.8137
 9007SOL    HW228622   4.652   1.227   1.650 -2.2114 -0.1776 -0.4299
 9008SOL     OW28623   2.656   2.035   2.417 -0.2164 -0.5098 -0.5346
 9008SOL    HW128624   2.630   1.974   2.492  1.6406 -0.5691  0.1048
 9008SOL    HW228625   2.637   2.129   2.443 -1.5117 -0.6500 -0.8584
 9009SOL     OW28626   0.826   6.408   1.897  0.2286  0.5628  0.2478
 9009SOL    HW128627   0.799   6.396   1.801  0.1016  0.9054  0.2410
 9009SOL    HW228628   0.877   6.493   1.907  0.6043  0.3220  0.4101
 9010SOL     OW28629   6.676   6.752   0.887  0.4373  0.2458 -0.9156
 9010SOL    HW128630   6.751   6.703   0.931  0.7598  1.7532  0.3120
 9010SOL    HW228631   6.598   6.757   0.950 -0.2542 -0.2389 -1.7182
 9011SOL     OW28632   0.154   2.390   0.855 -0.6353 -0.4523  0.4042
 9011SOL    HW128633   0.117   2.429   0.771  1.1399 -0.5163 -0.4482
 9011SOL    HW228634   0.099   2.420   0.933 -0.8355  1.6707 -0.4977
 9012SOL     OW28635   6.874   4.167   3.935 -0.1548 -0.1206  0.3901
 9012SOL    HW128636   6.819   4.200   4.011  0.7618  0.8468  0.6598
 9012SOL    HW228637   6.851   4.219   3.852 -0.0325 -0.0959  0.3723
 9013SOL     OW28638   1.948   4.170   5.064  0.2997  0.3596  0.4019
 9013SOL    HW128639   1.949   4.270   5.072  0.1938  0.3648  0.3640
 9013SOL    HW228640   1.999   4.143   4.982 -0.2737  0.4281  0.0120
 9014SOL     OW28641   0.724   4.710   2.605 -0.2102 -0.4400  0.1200
 9014SOL    HW128642   0.666   4.640   2.563 -0.9247  0.6277 -0.6990
 9014SOL    HW228643   0.820   4.684   2.594 -0.4340 -0.8834 -0.9145
 9015SOL     OW28644   4.668   2.560   4.795  0.2644  0.2551  1.0875
 9015SOL    HW128645   4.598   2.501   4.835 -0.3090 -0.1481 -0.4290
 9015SOL    HW228646   4.759   2.521   4.814 -0.1379 -2.0606 -1.1549
 9016SOL     OW28647   2.822   3.579   6.631 -0.5862 -0.7022 -0.0440
 9016SOL    HW128648   2.828   3.661   6.687 -0.9343  0.1713 -1.2342
 9016SOL    HW228649   2.911   3.561   6.588 -0.7738 -0.3249 -0.6064
 9017SOL     OW28650   6.838   1.919   5.225  0.3280 -1.2561  0.1027
 9017SOL    HW128651   6.858   1.838   5.169  1.5199 -0.1093 -1.2003
 9017SOL    HW228652   6.923   1.955   5.263 -0.1461 -0.4159  0.3743
 9018SOL     OW28653   1.222   6.535   0.889  0.5583  0.0702 -0.2875
 9018SOL    HW128654   1.302   6.489   0.927  1.0998  3.0100  2.6425
 9018SOL    HW228655   1.251   6.619   0.843 -0.7599  1.2226  0.8837
 9019SOL     OW28656   3.270   5.206   4.366 -0.3724  0.0590  0.4610
 9019SOL    HW128657   3.178   5.244   4.362  0.2859  1.8490  1.3294
 9019SOL    HW228658   3.337   5.280   4.365  0.9251 -0.8370  4.1470
 9020SOL     OW28659   1.174   4.307   0.648 -0.3759  0.5576  0.2081
 9020SOL    HW128660   1.264   4.341   0.677 -0.4177  1.0952 -0.2797
 9020SOL    HW228661   1.161   4.214   0.683  0.0308  0.7750  0.9676
 9021SOL     OW28662   5.693   1.419   5.370 -0.0702  0.2391 -0.5085
 9021SOL    HW128663   5.784   1.405   5.330 -0.1927 -0.4075 -0.5820
 9021SOL    HW228664   5.690   1.376   5.461 -0.0806  0.8931 -0.1929
 9022SOL     OW28665   5.009   5.600   0.593  0.3390 -0.5396 -0.2432
 9022SOL    HW128666   4.958   5.611   0.678 -0.4954 -1.2681 -0.6345
 9022SOL    HW228667   4.986   5.512   0.552  1.5712 -0.6751 -0.6700
 9023SOL     OW28668   5.550   2.495   4.546 -0.1386  0.3181 -0.1450
 9023SOL    HW128669   5.577   2.426   4.614  4.9111 -0.9453 -2.8683
 9023SOL    HW228670   5.455   2.480   4.519 -0.4991 -2.9384  2.3160
 9024SOL     OW28671   1.122   4.765   2.842  0.4303 -0.9192 -0.1332
 9024SOL    HW128672   1.159   4.856   2.864 -0.2163 -0.8584  0.7610
 9024SOL    HW228673   1.131   4.705   2.922 -0.4404 -1.2122 -0.2451
 9025SOL     OW28674   0.828   2.552   2.618 -1.0304 -0.1216  0.0778
 9025SOL    HW128675   0.896   2.488   2.582  0.7699  1.5996  0.2353
 9025SOL    HW228676   0.874   2.622   2.673 -3.0298  0.7647  0.7117
 9026SOL     OW28677   1.654   2.805   1.875 -0.2236 -0.0855  0.2535
 9026SOL    HW128678   1.662   2.804   1.775 -0.7150  3.8059  0.0245
 9026SOL    HW228679   1.575   2.860   1.902  0.0679 -0.7890  2.8383
 9027SOL     OW28680   3.265   3.041   6.148 -0.4832 -0.5173  0.3798
 9027SOL    HW128681   3.183   3.070   6.197  0.4023  0.6649  1.2208
 9027SOL    HW228682   3.302   2.959   6.192 -0.7527 -0.5815  0.4959
 9028SOL     OW28683   4.142   2.511   1.006  0.5425 -0.1638  0.8011
 9028SOL    HW128684   4.159   2.525   0.909 -0.7229  0.5661  0.6635
 9028SOL    HW228685   4.044   2.492   1.021  1.0193 -2.1487  1.7387
 9029SOL     OW28686   1.847   3.210   3.856  0.3901  0.1393 -0.2986
 9029SOL    HW128687   1.831   3.162   3.942 -0.8461  1.7767  0.4558
 9029SOL    HW228688   1.771   3.192   3.793  0.5558  0.1017 -0.4871
 9030SOL     OW28689   5.972   1.558   2.206 -0.0969  0.0312  0.1414
 9030SOL    HW128690   5.929   1.480   2.251  1.4314 -0.8382  0.1218
 9030SOL    HW228691   6.040   1.599   2.267  0.7174 -0.0581 -0.6935
 9031SOL     OW28692   6.096   5.977   6.736 -0.8265  0.1432  0.0507
 9031SOL    HW128693   6.122   5.955   6.642  1.1966  0.9655  0.3554
 9031SOL    HW228694   5.997   5.977   6.744 -1.0505 -2.0482 -1.5485
 9032SOL     OW28695   4.419   2.163   5.643 -0.4078 -0.0183  0.0730
 9032SOL    HW128696   4.396   2.072   5.608 -1.7841  0.0279  0.7965
 9032SOL    HW228697   4.448   2.156   5.738  0.4370  0.1970 -0.1607
 9033SOL     OW28698   6.268   5.353   4.254  0.1349 -0.3982  0.4291
 9033SOL    HW128699   6.329   5.428   4.229  2.0997 -1.5153  1.6285
 9033SOL    HW228700   6.308   5.301   4.330 -1.6234 -2.0806  0.2807
 9034SOL     OW28701   0.177   5.437   0.589  0.0657  0.3383  0.3085
 9034SOL    HW128702   0.183   5.478   0.680  0.2551  0.8845  0.0539
 9034SOL    HW228703   0.212   5.502   0.521 -0.8068  0.2370 -0.2448
 9035SOL     OW28704   4.721   1.797   5.258  0.1020  0.3551  0.6664
 9035SOL    HW128705   4.667   1.719   5.289  0.6886 -0.3190  0.0372
 9035SOL    HW228706   4.703   1.814   5.161  1.6171 -0.4123  0.2238
 9036SOL     OW28707   5.405   5.993   2.140  0.3889  0.1916 -0.9142
 9036SOL    HW128708   5.324   6.029   2.094 -1.0912  1.1770  2.2154
 9036SOL    HW228709   5.479   6.060   2.134 -0.6348  1.4719  0.3096
 9037SOL     OW28710   1.569   6.569   3.532 -0.1896 -0.3960 -0.3009
 9037SOL    HW128711   1.471   6.565   3.511 -0.0616 -3.0203 -0.7846
 9037SOL    HW228712   1.582   6.574   3.631 -0.8061  0.4532 -0.2596
 9038SOL     OW28713   6.725   4.795   4.634  0.3260  0.0856  0.3156
 9038SOL    HW128714   6.763   4.703   4.627  1.7144  0.7053 -0.7323
 9038SOL    HW228715   6.699   4.813   4.729  1.7162 -0.7611  0.8941
 9039SOL     OW28716   5.422   3.383   6.528 -0.9541  0.3952  0.0218
 9039SOL    HW128717   5.345   3.362   6.587 -0.4511  0.9439  0.8887
 9039SOL    HW228718   5.504   3.398   6.583  0.0780 -1.3622 -0.9229
 9040SOL     OW28719   4.060   0.157   6.872 -0.2567 -0.0508 -0.5617
 9040SOL    HW128720   4.126   0.205   6.815 -0.3068  0.9112  0.1509
 9040SOL    HW228721   4.101   0.072   6.907  0.6326  0.5459 -0.1046
 9041SOL     OW28722   5.738   2.966   6.724  0.2746 -0.0401  0.6103
 9041SOL    HW128723   5.740   3.042   6.659 -0.5929 -1.1518 -0.7727
 9041SOL    HW228724   5.692   2.888   6.682 -0.2756 -0.8183  2.5586
 9042SOL     OW28725   4.130   1.535   2.352  0.3671 -0.3100  0.0715
 9042SOL    HW128726   4.163   1.605   2.415 -0.1003 -1.2323  1.3964
 9042SOL    HW228727   4.186   1.452   2.361  1.4600  0.1306 -2.1031
 9043SOL     OW28728   4.402   5.303   5.606  0.6567  0.6747 -0.3153
 9043SOL    HW128729   4.324   5.344   5.557 -1.3235 -0.0543  2.0389
 9043SOL    HW228730   4.439   5.369   5.671 -0.1973 -0.0260  0.9185
 9044SOL     OW28731   3.556   0.116   1.191 -0.1706  0.6750 -0.1667
 9044SOL    HW128732   3.507   0.185   1.244 -1.9010 -0.4329 -0.2108
 9044SOL    HW228733   3.652   0.115   1.216 -0.1863  2.8246  0.0892
 9045SOL     OW28734   3.646   4.362   0.963 -0.4254  0.1174  0.1170
 9045SOL    HW128735   3.618   4.266   0.950 -1.6722  0.4342  0.2678
 9045SOL    HW228736   3.628   4.412   0.878 -0.1876  0.3083  0.1820
 9046SOL     OW28737   4.961   2.100   3.473 -0.0535  0.0531  0.4642
 9046SOL    HW128738   4.939   2.004   3.483  0.6388 -0.1661  0.0173
 9046SOL    HW228739   4.972   2.121   3.375 -1.4200  0.8737  0.4609
 9047SOL     OW28740   4.415   2.419   2.623 -0.0992  0.3464  0.0328
 9047SOL    HW128741   4.423   2.467   2.536 -1.3606 -0.6459 -0.6680
 9047SOL    HW228742   4.320   2.390   2.636  0.2542 -0.2829  1.3243
 9048SOL     OW28743   6.844   0.486   0.188  0.0593 -0.2637 -0.1069
 9048SOL    HW128744   6.924   0.533   0.224 -0.9997  0.2054  1.7782
 9048SOL    HW228745   6.825   0.405   0.242 -0.7436 -0.3672 -0.5193
 9049SOL     OW28746   0.060   6.421   4.043  0.0020 -0.2727 -0.3896
 9049SOL    HW128747  -0.031   6.389   4.015  0.1175 -0.1865 -0.8758
 9049SOL    HW228748   0.124   6.345   4.044 -0.0653 -0.3283 -0.0748
 9050SOL     OW28749   6.546   3.744   6.920 -0.8227 -0.3551 -0.0950
 9050SOL    HW128750   6.580   3.788   7.003  0.8279  0.5295 -1.1783
 9050SOL    HW228751   6.450   3.771   6.905 -0.5460  1.0775  0.4807
 9051SOL     OW28752   0.150   1.333   2.629  0.3132  0.4336  0.2683
 9051SOL    HW128753   0.068   1.301   2.677 -1.4520  3.0388 -0.8012
 9051SOL    HW228754   0.226   1.337   2.694 -1.0647  0.3859  1.9823
 9052SOL     OW28755   3.830   6.800   4.049  0.1986 -0.0961 -0.3295
 9052SOL    HW128756   3.928   6.788   4.037  0.4188  2.1473 -1.2287
 9052SOL    HW228757   3.789   6.713   4.079  2.5816 -0.8106  1.1120
 9053SOL     OW28758   6.748   2.341   1.631 -0.3587 -0.5463 -0.1406
 9053SOL    HW128759   6.724   2.272   1.699 -1.9540  0.8788  0.8219
 9053SOL    HW228760   6.677   2.347   1.562 -1.0161  1.0950  0.6159
 9054SOL     OW28761   2.648   4.232   1.134 -0.2189 -0.3294 -0.2709
 9054SOL    HW128762   2.687   4.142   1.114 -0.5160 -0.7729  1.0247
 9054SOL    HW228763   2.638   4.243   1.233  1.9795  2.0808 -0.2278
 9055SOL     OW28764   2.884   2.267   1.180 -0.1586  0.7728 -0.1254
 9055SOL    HW128765   2.816   2.268   1.107 -0.9164  1.3012  0.5686
 9055SOL    HW228766   2.850   2.319   1.258  1.2114  1.3846  0.0976
 9056SOL     OW28767   6.694   2.088   1.208 -0.2302  0.0935 -0.0563
 9056SOL    HW128768   6.776   2.084   1.265 -0.6521  1.8508  0.7612
 9056SOL    HW228769   6.615   2.058   1.261 -0.3320 -0.1961 -0.3699
 9057SOL     OW28770   4.186   6.376   5.813 -0.3225  0.4662  0.6605
 9057SOL    HW128771   4.224   6.453   5.762  0.6382 -0.1388  0.4453
 9057SOL    HW228772   4.185   6.295   5.755  0.1946 -0.0803  1.4074
 9058SOL     OW28773   0.519   3.118   6.849  0.1325  0.1041 -0.5598
 9058SOL    HW128774   0.565   3.203   6.873 -1.3848  0.4362  1.3584
 9058SOL    HW228775   0.565   3.041   6.894 -1.4396  0.5033  1.8874
 9059SOL     OW28776   5.551   3.882   6.454  0.2167  0.2858 -0.6540
 9059SOL    HW128777   5.500   3.947   6.399 -0.7936  1.2210  1.2948
 9059SOL    HW228778   5.649   3.897   6.440  0.0933 -1.0659 -3.8923
 9060SOL     OW28779   2.707   1.110   2.246 -0.1418  0.0980 -0.0889
 9060SOL    HW128780   2.744   1.094   2.155  1.3421  0.2557  0.4545
 9060SOL    HW228781   2.738   1.199   2.279 -0.0581 -0.2733  0.8650
 9061SOL     OW28782   2.344   6.118   1.180  0.3784  0.4159  0.0440
 9061SOL    HW128783   2.253   6.145   1.211 -0.7095 -0.3373 -2.2156
 9061SOL    HW228784   2.389   6.062   1.250 -1.5582 -0.5128  0.6207
 9062SOL     OW28785   1.967   5.349   0.341 -0.4101  0.3541 -0.3708
 9062SOL    HW128786   1.916   5.357   0.255  1.4897  3.3203 -1.3688
 9062SOL    HW228787   1.919   5.399   0.413 -1.5411 -1.3863  0.1566
 9063SOL     OW28788   1.445   1.133   1.007 -0.0598  0.4339 -0.1595
 9063SOL    HW128789   1.489   1.054   1.051  3.1418  2.0434 -0.2215
 9063SOL    HW228790   1.363   1.102   0.960  0.0949 -2.5369  1.2462
 9064SOL     OW28791   2.713   0.914   5.376  0.0206  0.5265  0.2510
 9064SOL    HW128792   2.738   0.847   5.446 -0.7687 -1.4980 -1.2821
 9064SOL    HW228793   2.791   0.932   5.317 -0.4443 -1.3043 -1.0223
 9065SOL     OW28794   4.753   6.388   1.823 -0.2009 -0.5680  0.3674
 9065SOL    HW128795   4.781   6.437   1.740  0.6864 -1.0865  0.3507
 9065SOL    HW228796   4.814   6.310   1.838  0.1327 -0.0351  1.9419
 9066SOL     OW28797   0.992   6.434   3.935 -0.0208 -0.3316  0.0078
 9066SOL    HW128798   1.049   6.359   3.968  0.5684  0.2166  0.2560
 9066SOL    HW228799   1.028   6.467   3.848  0.8410  0.8665  0.7843
 9067SOL     OW28800   2.997   1.156   3.289 -0.6018 -0.0750  0.2473
 9067SOL    HW128801   2.938   1.236   3.279 -1.0230 -0.2523  1.2266
 9067SOL    HW228802   2.952   1.076   3.250 -0.3286  0.0857 -0.4170
 9068SOL     OW28803   4.662   5.257   3.607 -0.6913 -0.2225 -0.7767
 9068SOL    HW128804   4.573   5.224   3.576 -0.8515 -0.7246  0.2045
 9068SOL    HW228805   4.734   5.205   3.561 -0.8866  0.1101 -1.4869
 9069SOL     OW28806   5.372   5.916   6.512  0.7266  0.2616 -0.6784
 9069SOL    HW128807   5.309   5.848   6.475 -1.0358  1.7644 -0.6011
 9069SOL    HW228808   5.373   5.908   6.612  0.4045  0.4233 -0.6588
 9070SOL     OW28809   6.812   5.774   5.401  0.4469 -0.0741 -0.1522
 9070SOL    HW128810   6.739   5.728   5.451  0.1086 -0.5240 -1.0321
 9070SOL    HW228811   6.775   5.855   5.354  1.1676  1.5451  1.9226
 9071SOL     OW28812   6.496   2.510   3.416 -0.0667 -0.7349 -0.1782
 9071SOL    HW128813   6.485   2.439   3.347 -0.6129 -0.7158 -0.1137
 9071SOL    HW228814   6.550   2.585   3.378 -2.0218  0.1908 -1.2817
 9072SOL     OW28815   6.623   0.838   5.459  0.3976 -0.1733  0.0314
 9072SOL    HW128816   6.686   0.876   5.392 -0.8285  2.7623  0.3902
 9072SOL    HW228817   6.532   0.827   5.418  0.4166 -1.6076  0.3154
 9073SOL     OW28818   1.717   2.522   2.342  0.6621  0.6547  0.0942
 9073SOL    HW128819   1.697   2.554   2.250  1.4807  0.8121 -0.0321
 9073SOL    HW228820   1.779   2.443   2.338 -1.5046 -1.1921  0.3735
 9074SOL     OW28821   5.876   4.069   0.328 -0.0179 -0.3334  0.7624
 9074SOL    HW128822   5.920   3.997   0.382 -0.9222 -1.1521  0.4369
 9074SOL    HW228823   5.778   4.070   0.348 -0.5042 -1.1233 -1.3556
 9075SOL     OW28824   0.282   5.157   3.205  0.4740 -0.1877  0.6295
 9075SOL    HW128825   0.241   5.239   3.245 -0.1180 -0.3962  0.4533
 9075SOL    HW228826   0.251   5.076   3.255  0.8691 -0.3289  0.6529
 9076SOL     OW28827   3.249   6.991   0.921  0.3845 -0.2130 -0.4079
 9076SOL    HW128828   3.262   7.087   0.894 -0.4500  0.6282  1.9096
 9076SOL    HW228829   3.267   6.981   1.019 -1.6086 -1.9630 -0.1444
 9077SOL     OW28830   3.522   2.207   5.198  0.3246 -0.1112  0.1550
 9077SOL    HW128831   3.512   2.153   5.281  0.8355 -0.6261 -0.1143
 9077SOL    HW228832   3.431   2.231   5.163  0.1068 -0.0400  0.7626
 9078SOL     OW28833   3.792   1.160   3.338 -0.6465  0.1859  0.3641
 9078SOL    HW128834   3.806   1.092   3.266 -0.0088  0.6046  0.0845
 9078SOL    HW228835   3.746   1.117   3.416  1.8715 -1.2162  1.1847
 9079SOL     OW28836   4.120   1.668   2.088 -0.5042  0.2959  0.1253
 9079SOL    HW128837   4.116   1.678   2.187  1.1888  0.4378  0.2061
 9079SOL    HW228838   4.107   1.572   2.064  1.0059 -0.0653  0.6501
 9080SOL     OW28839   0.138   1.776   6.957 -0.0013  1.1703  0.7891
 9080SOL    HW128840   0.221   1.721   6.966  0.6891  2.3506  1.8694
 9080SOL    HW228841   0.059   1.715   6.950  0.9412  0.0140 -0.6273
 9081SOL     OW28842   6.547   5.327   5.214 -0.1905  0.2569  0.4275
 9081SOL    HW128843   6.547   5.285   5.305 -0.0176 -1.7467 -0.4350
 9081SOL    HW228844   6.596   5.267   5.151 -1.2272  1.0976 -1.2258
 9082SOL     OW28845   2.757   3.094   0.280  0.6818 -0.4261  0.3551
 9082SOL    HW128846   2.673   3.097   0.226 -0.8823 -0.5715  2.6263
 9082SOL    HW228847   2.811   3.176   0.262  0.9104 -1.0593 -2.3245
 9083SOL     OW28848   5.277   3.063   5.025 -0.3124  0.0275 -0.6268
 9083SOL    HW128849   5.220   2.985   5.048 -2.0670  0.9101 -1.8011
 9083SOL    HW228850   5.359   3.031   4.977  0.1321 -1.2405  0.8955
 9084SOL     OW28851   4.752   4.434   6.551 -0.4178 -0.0816  0.5014
 9084SOL    HW128852   4.842   4.404   6.582 -0.3987 -0.9553 -0.3474
 9084SOL    HW228853   4.705   4.481   6.625  0.2796 -0.6447  1.3176
 9085SOL     OW28854   5.616   3.383   4.483 -0.2309  0.3637  0.1702
 9085SOL    HW128855   5.693   3.428   4.529  1.2860 -0.0366 -1.8725
 9085SOL    HW228856   5.619   3.285   4.502 -3.3846  0.7965  4.3980
 9086SOL     OW28857   1.511   0.514   0.156 -0.2143 -0.3319 -0.1095
 9086SOL    HW128858   1.589   0.506   0.094  2.3388 -3.6165  3.1437
 9086SOL    HW228859   1.502   0.609   0.186  0.9841  0.5471 -2.2799
 9087SOL     OW28860   0.907   2.283   4.508  0.0068  0.6023 -0.2796
 9087SOL    HW128861   0.822   2.235   4.488  1.6692 -1.6494 -2.4772
 9087SOL    HW228862   0.970   2.275   4.431  2.5462  1.5326  1.5299
 9088SOL     OW28863   0.364   4.246   0.706  0.1491 -0.6549 -0.2451
 9088SOL    HW128864   0.403   4.205   0.788  0.2256  0.0404  0.0773
 9088SOL    HW228865   0.265   4.236   0.707  0.2605 -1.9558 -0.8051
 9089SOL     OW28866   4.796   5.019   5.707 -0.2639 -0.4104 -0.3805
 9089SOL    HW128867   4.730   5.069   5.651  0.7088  0.3009 -0.8999
 9089SOL    HW228868   4.878   4.999   5.654  0.5288 -0.0420  0.6714
 9090SOL     OW28869   0.218   0.835   3.267  0.3326  0.0723 -0.4076
 9090SOL    HW128870   0.287   0.790   3.210  1.8985 -0.0979  1.5091
 9090SOL    HW228871   0.259   0.914   3.312 -1.6862  1.9900 -1.7605
 9091SOL     OW28872   5.752   2.673   5.775  0.2464  0.3044 -0.1432
 9091SOL    HW128873   5.813   2.671   5.696 -0.1115  0.4461 -0.4231
 9091SOL    HW228874   5.761   2.761   5.821 -0.4905  0.7191 -0.7741
 9092SOL     OW28875   5.105   1.899   5.087 -0.1003  0.2014  0.1245
 9092SOL    HW128876   5.042   1.830   5.052  0.7545 -0.0598 -0.9717
 9092SOL    HW228877   5.082   1.988   5.049  0.2286  0.0923 -0.3379
 9093SOL     OW28878   0.025   6.794   2.150  0.1913  0.3752 -0.2066
 9093SOL    HW128879   0.092   6.837   2.090  0.9119 -0.2282  0.1535
 9093SOL    HW228880  -0.063   6.841   2.141  0.6684  1.1999 -0.6546
 9094SOL     OW28881   4.767   0.969   1.529  0.7877  0.3134 -0.2210
 9094SOL    HW128882   4.781   0.879   1.489 -0.3492  0.3905 -0.8392
 9094SOL    HW228883   4.841   1.030   1.499  2.4441 -0.7838  1.4803
 9095SOL     OW28884   0.560   2.197   2.877  0.4976  0.1138 -0.0266
 9095SOL    HW128885   0.655   2.227   2.884  0.7941 -0.8068  0.0223
 9095SOL    HW228886   0.543   2.159   2.786  0.6269 -1.1678  0.4587
 9096SOL     OW28887   3.303   6.286   3.762 -0.1966  0.4980  0.4097
 9096SOL    HW128888   3.400   6.275   3.742 -0.1777  0.2192  0.6340
 9096SOL    HW228889   3.250   6.268   3.680 -0.0566  0.6751  0.2801
 9097SOL     OW28890   2.511   5.231   2.879 -0.1141  0.0918  0.1222
 9097SOL    HW128891   2.597   5.189   2.849  1.4719  1.1412  2.8339
 9097SOL    HW228892   2.500   5.320   2.835  0.5915  0.2721  0.2891
 9098SOL     OW28893   6.798   0.770   6.401  0.4076  0.2916  0.6100
 9098SOL    HW128894   6.843   0.705   6.462  0.7156  1.2626  1.4488
 9098SOL    HW228895   6.701   0.777   6.426  0.1708 -0.4663 -0.0414
 9099SOL     OW28896   1.234   6.130   2.468 -0.2275  0.0503  0.2424
 9099SOL    HW128897   1.146   6.176   2.463 -0.7377 -0.9868 -2.6992
 9099SOL    HW228898   1.289   6.153   2.387  1.0170 -1.5458  0.5614
 9100SOL     OW28899   4.618   1.588   4.124  0.5367 -0.1878 -0.5947
 9100SOL    HW128900   4.648   1.506   4.074 -1.5988 -0.7117 -1.1332
 9100SOL    HW228901   4.625   1.668   4.064  0.6102 -0.3418 -0.7940
 9101SOL     OW28902   6.832   2.992   5.461 -0.1274 -0.2009  0.4720
 9101SOL    HW128903   6.744   3.010   5.505 -0.4425  0.5128 -0.4039
 9101SOL    HW228904   6.825   3.015   5.363  0.0587 -3.1586 -0.3229
 9102SOL     OW28905   4.243   6.723   1.375  0.0261 -0.2772  0.0485
 9102SOL    HW128906   4.338   6.701   1.354 -0.2291  0.4347 -2.1544
 9102SOL    HW228907   4.239   6.807   1.428  0.6325 -0.3923  0.2796
 9103SOL     OW28908   3.309   0.109   5.081  0.0177 -0.7042  0.2317
 9103SOL    HW128909   3.220   0.067   5.067 -0.8646  0.6348  1.6007
 9103SOL    HW228910   3.352   0.069   5.162  0.2618 -0.6731  0.1189
 9104SOL     OW28911   5.389   0.574   5.561  0.0565  0.3685 -0.5768
 9104SOL    HW128912   5.378   0.569   5.462  0.6618 -0.6485 -0.6020
 9104SOL    HW228913   5.466   0.633   5.583  0.5133 -0.1488 -0.7590
 9105SOL     OW28914   0.273   6.927   6.373  0.4887  0.3796  0.1925
 9105SOL    HW128915   0.264   6.843   6.319  2.1838  0.8402 -0.8641
 9105SOL    HW228916   0.207   6.925   6.448  1.1949 -2.4116  0.8643
 9106SOL     OW28917   6.460   5.536   1.354 -0.3372 -0.6105 -0.3416
 9106SOL    HW128918   6.425   5.522   1.262 -0.6737  0.4790 -0.3980
 9106SOL    HW228919   6.392   5.506   1.421 -1.3050  1.1773 -0.4537
 9107SOL     OW28920   6.949   4.594   2.116  0.2127 -0.5849 -0.0992
 9107SOL    HW128921   6.883   4.655   2.071  0.7669  2.1506  2.4632
 9107SOL    HW228922   7.034   4.592   2.062 -0.2606 -0.1488 -0.8887
 9108SOL     OW28923   0.238   5.147   1.999  0.3704  0.6059 -0.1544
 9108SOL    HW128924   0.215   5.049   1.995  1.4158  0.2668  1.1951
 9108SOL    HW228925   0.190   5.195   1.926  0.4219 -1.0320 -1.3433
 9109SOL     OW28926   2.094   4.838   6.964 -0.1914 -0.0313 -0.1046
 9109SOL    HW128927   2.051   4.901   6.899  0.6720 -0.8361 -1.5116
 9109SOL    HW228928   2.034   4.760   6.981 -0.1918 -0.0944 -0.3914
 9110SOL     OW28929   2.999   4.084   3.445 -0.0621 -0.6529  0.1421
 9110SOL    HW128930   3.005   4.082   3.545  0.5030  0.4139  0.1355
 9110SOL    HW228931   3.091   4.088   3.406 -0.3014 -0.4295 -0.4073
 9111SOL     OW28932   3.657   1.093   0.542  0.1512 -0.0419  0.2976
 9111SOL    HW128933   3.577   1.096   0.482  0.4873  0.1528 -0.1474
 9111SOL    HW228934   3.628   1.077   0.636 -0.3987 -0.1265  0.1144
 9112SOL     OW28935   3.204   1.511   5.194 -0.3153  0.8632  0.3600
 9112SOL    HW128936   3.301   1.535   5.190 -0.6187  3.1308  3.0826
 9112SOL    HW228937   3.156   1.577   5.253 -3.3913 -0.6301 -0.2690
 9113SOL     OW28938   2.458   1.745   2.255  0.1288  0.4273 -0.0177
 9113SOL    HW128939   2.554   1.767   2.240  0.4365  0.1052  1.3179
 9113SOL    HW228940   2.442   1.649   2.232  0.4379  0.1269  0.9594
 9114SOL     OW28941   4.040   4.220   5.265  0.6270  0.1597 -0.2230
 9114SOL    HW128942   3.940   4.223   5.265  0.6597  2.2036  0.4900
 9114SOL    HW228943   4.071   4.144   5.322 -0.5049 -0.1766 -0.0340
 9115SOL     OW28944   0.098   3.090   5.742 -0.1405  0.1463  0.2787
 9115SOL    HW128945   0.056   3.178   5.723 -0.6589  0.2651  1.7810
 9115SOL    HW228946   0.133   3.089   5.836 -0.3330 -1.2966  0.3710
 9116SOL     OW28947   5.094   1.532   3.889 -0.1950  0.4840  0.0626
 9116SOL    HW128948   5.045   1.486   3.963 -1.7520  1.3473 -0.3916
 9116SOL    HW228949   5.065   1.494   3.801  1.6641 -0.5622 -0.1626
 9117SOL     OW28950   4.541   0.301   6.606  0.1616 -0.4426  0.1392
 9117SOL    HW128951   4.471   0.230   6.607  1.2073 -1.5531 -1.2825
 9117SOL    HW228952   4.632   0.259   6.597  0.7587  1.0456 -1.5645
 9118SOL     OW28953   5.542   3.365   4.862  0.0962  0.1202 -0.0734
 9118SOL    HW128954   5.641   3.369   4.845  0.2422  0.5101  0.8097
 9118SOL    HW228955   5.503   3.288   4.811  1.3416 -1.8272  1.7273
 9119SOL     OW28956   0.827   3.161   2.152 -0.7509  0.1873  0.1937
 9119SOL    HW128957   0.855   3.178   2.057 -0.6410 -1.4537 -0.0877
 9119SOL    HW228958   0.908   3.153   2.210 -0.6505 -2.1168 -0.1898
 9120SOL     OW28959   1.029   1.159   5.262 -0.1587 -0.1629 -0.1235
 9120SOL    HW128960   1.107   1.161   5.200  3.0358  1.1326  3.5438
 9120SOL    HW228961   0.987   1.250   5.265 -2.3151 -0.9488 -2.3875
 9121SOL     OW28962   2.759   4.096   2.105 -0.1844  0.0780 -0.3214
 9121SOL    HW128963   2.723   4.143   2.025 -0.0464  1.4445  0.3859
 9121SOL    HW228964   2.685   4.047   2.151 -0.5511  0.4464 -0.5078
 9122SOL     OW28965   5.259   6.388   5.962  0.0981 -0.0747 -0.0591
 9122SOL    HW128966   5.166   6.386   5.997 -0.0844  0.7943 -0.4753
 9122SOL    HW228967   5.323   6.399   6.039 -0.2424  0.9114  0.0979
 9123SOL     OW28968   0.709   4.347   1.170  0.8528  0.3602 -0.3186
 9123SOL    HW128969   0.733   4.420   1.106 -1.1135 -0.0943 -1.6698
 9123SOL    HW228970   0.780   4.278   1.170  0.5622 -0.0144 -2.6684
 9124SOL     OW28971   2.851   2.270   6.012  0.1446  0.1747 -0.3646
 9124SOL    HW128972   2.845   2.326   6.095 -0.2656  0.0102 -0.2812
 9124SOL    HW228973   2.803   2.184   6.026 -0.1798  0.2668 -0.8702
 9125SOL     OW28974   4.293   1.605   2.827  0.1218  0.6310 -0.5403
 9125SOL    HW128975   4.295   1.694   2.873  0.2783  0.3329  0.0340
 9125SOL    HW228976   4.383   1.562   2.834  0.2536  0.7423 -1.4485
 9126SOL     OW28977   2.403   0.682   1.440  0.6821 -0.1546 -0.9065
 9126SOL    HW128978   2.348   0.756   1.402  0.4039  2.8589  4.3395
 9126SOL    HW228979   2.499   0.709   1.440  0.7553 -0.4075 -0.2217
 9127SOL     OW28980   0.170   2.910   6.073  0.1944 -0.3123  0.1529
 9127SOL    HW128981   0.235   2.879   6.005 -0.3306 -1.5834  0.2048
 9127SOL    HW228982   0.183   3.008   6.090  0.2167  0.0832 -1.8895
 9128SOL     OW28983   0.593   3.242   3.823  0.3580  0.2485  0.1547
 9128SOL    HW128984   0.541   3.323   3.848 -0.4337 -0.2727  0.2409
 9128SOL    HW228985   0.605   3.239   3.723 -0.3530  0.0422  0.0685
 9129SOL     OW28986   0.097   3.030   2.313  0.1469 -0.1764 -0.3520
 9129SOL    HW128987   0.007   3.052   2.349 -0.2222  0.5743 -1.6971
 9129SOL    HW228988   0.159   3.107   2.327  0.4845 -0.5363  0.2017
 9130SOL     OW28989   6.856   4.791   2.659 -0.9705  0.4238 -0.1914
 9130SOL    HW128990   6.852   4.875   2.714 -1.2758 -1.2699  2.5634
 9130SOL    HW228991   6.905   4.720   2.710  0.2080 -0.8307 -2.8772
 9131SOL     OW28992   0.464   6.625   4.641 -0.5409  0.2083  0.1460
 9131SOL    HW128993   0.451   6.685   4.719  0.9531 -1.7695  2.0576
 9131SOL    HW228994   0.558   6.633   4.607  0.1621 -1.9323  1.3631
 9132SOL     OW28995   3.283   4.742   2.387 -0.2798 -0.5386  0.3283
 9132SOL    HW128996   3.284   4.773   2.292 -0.2681  0.0390  0.5136
 9132SOL    HW228997   3.338   4.659   2.395  1.3690  0.4890  0.1836
 9133SOL     OW28998   0.857   2.702   1.055  0.5781  0.1904  0.2227
 9133SOL    HW128999   0.805   2.780   1.019  0.3248  0.5675  1.3416
 9133SOL    HW229000   0.949   2.703   1.018  0.7639  1.3779  0.6523
 9134SOL     OW29001   5.260   6.315   5.713 -0.2549  0.0939  0.1623
 9134SOL    HW129002   5.353   6.279   5.713  0.0951  0.9685 -0.7707
 9134SOL    HW229003   5.231   6.333   5.807  1.0885  1.2281  0.3971
 9135SOL     OW29004   0.018   0.798   6.627 -0.0507 -0.2019 -0.3477
 9135SOL    HW129005   0.016   0.705   6.592 -1.5629 -1.1479  1.9886
 9135SOL    HW229006  -0.066   0.816   6.679  1.5523  1.3361  1.9099
 9136SOL     OW29007   5.985   5.392   4.935  0.0113  0.1544 -0.1908
 9136SOL    HW129008   5.946   5.330   4.867  0.6341 -0.3364 -0.1111
 9136SOL    HW229009   6.066   5.437   4.897 -0.3446  0.8084 -0.1922
 9137SOL     OW29010   6.279   4.155   2.698 -0.2735 -0.4741  0.1259
 9137SOL    HW129011   6.213   4.191   2.764 -0.3217 -1.5587  0.6938
 9137SOL    HW229012   6.335   4.085   2.742  0.4078 -0.4621 -0.7028
 9138SOL     OW29013   4.276   6.341   2.302  0.7052  0.1394  0.4418
 9138SOL    HW129014   4.278   6.387   2.214 -0.1713 -1.5126 -0.4850
 9138SOL    HW229015   4.225   6.397   2.368  1.3184  1.3545 -0.0966
 9139SOL     OW29016   2.313   3.919   3.705 -0.8804 -0.1260 -0.3609
 9139SOL    HW129017   2.328   3.835   3.653  0.9999  0.2187 -0.4420
 9139SOL    HW229018   2.394   3.940   3.760 -1.8130  0.9415  0.6814
 9140SOL     OW29019   0.373   6.241   2.509 -0.1179  0.3995 -0.1917
 9140SOL    HW129020   0.349   6.303   2.434  0.1402  1.2357  0.4015
 9140SOL    HW229021   0.423   6.163   2.473 -1.5587 -0.1338 -1.1214
 9141SOL     OW29022   1.467   3.305   1.050  0.4293 -0.4772  0.0895
 9141SOL    HW129023   1.409   3.230   1.018 -0.4652  0.4367 -0.4995
 9141SOL    HW229024   1.409   3.378   1.086  0.6917  2.5676 -4.7851
 9142SOL     OW29025   3.977   5.906   6.293 -0.2397 -0.0076 -0.4326
 9142SOL    HW129026   4.011   5.980   6.234  2.0843 -1.5324 -1.1744
 9142SOL    HW229027   3.917   5.846   6.240 -0.3156  0.1230 -0.4937
 9143SOL     OW29028   3.079   4.305   0.995 -0.1898  0.2706  0.2573
 9143SOL    HW129029   3.053   4.265   0.907 -0.4881  0.4921  0.2436
 9143SOL    HW229030   3.157   4.256   1.032  0.6159  0.8405 -0.6337
 9144SOL     OW29031   2.017   3.205   3.635  0.1203 -0.6582 -0.1797
 9144SOL    HW129032   1.957   3.168   3.706 -1.7838 -0.7497 -1.7630
 9144SOL    HW229033   2.098   3.245   3.678 -0.8113 -0.9795  2.0111
 9145SOL     OW29034   1.616   6.759   5.841 -0.5519  0.0531  0.0609
 9145SOL    HW129035   1.713   6.738   5.855 -0.4801  1.6348  2.5594
 9145SOL    HW229036   1.605   6.808   5.755  0.7736 -0.5901 -0.5040
 9146SOL     OW29037   1.222   3.589   2.843  0.0512  0.1341  0.4900
 9146SOL    HW129038   1.148   3.580   2.910 -1.7373  0.8757 -1.2915
 9146SOL    HW229039   1.231   3.503   2.792  0.4813  0.0280  0.7377
 9147SOL     OW29040   0.301   2.809   5.534  0.0753  0.2341 -0.5452
 9147SOL    HW129041   0.386   2.861   5.525 -0.6268  1.3055 -1.1282
 9147SOL    HW229042   0.323   2.714   5.558  1.4006  0.6325 -0.0930
 9148SOL     OW29043   0.158   0.509   1.034  0.1541  0.2002  0.2623
 9148SOL    HW129044   0.249   0.548   1.020  0.7119 -0.8175  0.9288
 9148SOL    HW229045   0.157   0.456   1.119 -1.1699  0.4860  0.4497
 9149SOL     OW29046   5.279   1.016   4.255 -0.0985 -0.0949  0.0619
 9149SOL    HW129047   5.281   1.039   4.352  0.5375  0.2495 -0.0238
 9149SOL    HW229048   5.207   0.949   4.237 -1.8566  1.6143  0.3855
 9150SOL     OW29049   2.335   6.379   6.333  0.3677 -0.3867 -0.2036
 9150SOL    HW129050   2.274   6.328   6.393  0.8201 -1.1423 -0.3808
 9150SOL    HW229051   2.310   6.363   6.238  0.5008 -0.2638 -0.2603
 9151SOL     OW29052   6.479   0.749   0.692 -0.4706 -0.2293  0.4302
 9151SOL    HW129053   6.471   0.735   0.593  0.6448  3.0038 -0.2119
 9151SOL    HW229054   6.564   0.709   0.724  1.4086  2.4403 -0.8561
 9152SOL     OW29055   4.906   5.657   4.103  0.5091 -0.0777  0.2274
 9152SOL    HW129056   4.967   5.684   4.177 -0.2835  2.1603  0.1296
 9152SOL    HW229057   4.887   5.736   4.044 -1.7347 -0.9123 -0.2792
 9153SOL     OW29058   0.444   3.838   6.701  0.1897 -0.4359 -0.4149
 9153SOL    HW129059   0.432   3.840   6.602  0.6915 -0.2121 -0.4732
 9153SOL    HW229060   0.420   3.747   6.735  0.2631 -0.5935 -0.7751
 9154SOL     OW29061   0.143   5.963   4.205  0.0824 -0.2448 -0.1777
 9154SOL    HW129062   0.059   5.931   4.162  0.7335 -1.0996 -0.8522
 9154SOL    HW229063   0.187   6.031   4.146  1.3506 -1.9463 -1.2952
 9155SOL     OW29064   6.193   2.486   2.193 -0.2535 -0.4108  0.2856
 9155SOL    HW129065   6.277   2.455   2.240  1.9995  3.3981 -0.8179
 9155SOL    HW229066   6.204   2.581   2.165 -4.4616 -0.2199 -1.3403
 9156SOL     OW29067   5.806   4.530   2.315 -0.7305  0.0562 -0.7091
 9156SOL    HW129068   5.886   4.470   2.328  0.9679  2.7689  4.2070
 9156SOL    HW229069   5.724   4.482   2.345  0.1193 -0.8534  0.2955
 9157SOL     OW29070   3.709   2.493   5.546  0.3690  0.8784  0.3747
 9157SOL    HW129071   3.805   2.469   5.533  0.1570 -2.1853  3.0495
 9157SOL    HW229072   3.690   2.500   5.644 -2.0312  1.9637 -0.1115
 9158SOL     OW29073   3.243   0.554   3.332 -0.6963 -0.3057 -0.3704
 9158SOL    HW129074   3.171   0.621   3.317 -0.8758 -0.1697  0.9826
 9158SOL    HW229075   3.313   0.594   3.392 -0.2732 -0.9654 -0.4201
 9159SOL     OW29076   3.308   6.621   6.657  0.4867 -0.3183  0.0238
 9159SOL    HW129077   3.371   6.568   6.600 -0.0501 -0.7160 -0.2101
 9159SOL    HW229078   3.312   6.717   6.629  2.9794  0.2067  1.7879
 9160SOL     OW29079   0.797   2.797   6.022  0.0174  0.3247 -0.8064
 9160SOL    HW129080   0.865   2.843   6.079  0.5477 -1.6389  0.2665
 9160SOL    HW229081   0.706   2.808   6.063  0.6096 -2.6409  1.7062
 9161SOL     OW29082   5.800   2.820   5.385 -0.3443  0.2484 -0.1264
 9161SOL    HW129083   5.830   2.748   5.322  1.8890  0.2508  0.8400
 9161SOL    HW229084   5.715   2.792   5.430 -0.7722 -0.7230 -1.4743
 9162SOL     OW29085   4.372   5.518   5.329 -0.3154 -0.0979  0.3436
 9162SOL    HW129086   4.300   5.503   5.397  0.7824 -1.4861  1.2792
 9162SOL    HW229087   4.380   5.437   5.271  0.0281  0.3232 -0.1998
 9163SOL     OW29088   3.165   5.153   5.634 -0.1905  0.4728  0.3374
 9163SOL    HW129089   3.254   5.149   5.679 -0.3146 -0.6276  0.5188
 9163SOL    HW229090   3.095   5.118   5.696 -0.8575  1.9474  0.4356
 9164SOL     OW29091   1.705   0.123   2.563 -1.1355  0.1966  0.0387
 9164SOL    HW129092   1.732   0.087   2.652 -2.5839  1.5475  1.0852
 9164SOL    HW229093   1.688   0.048   2.500  0.7253 -0.7678  0.6269
 9165SOL     OW29094   1.824   4.781   5.638  0.2993  1.3521 -0.8994
 9165SOL    HW129095   1.739   4.832   5.620 -0.5134  0.4388  0.2155
 9165SOL    HW229096   1.804   4.703   5.697  2.0699  1.6196  0.1233
 9166SOL     OW29097   3.496   1.183   0.326  0.2779 -0.0158  0.1504
 9166SOL    HW129098   3.559   1.196   0.249  2.9563  2.2270  2.4813
 9166SOL    HW229099   3.492   1.267   0.381 -0.1710 -1.9365  3.3437
 9167SOL     OW29100   3.246   4.398   4.852 -0.1272 -0.0076  0.4022
 9167SOL    HW129101   3.294   4.383   4.766 -0.4497 -2.1877  0.5481
 9167SOL    HW229102   3.191   4.481   4.845  1.0927  0.7367 -0.9068
 9168SOL     OW29103   5.929   4.174   5.170  0.3413  0.0681  0.2715
 9168SOL    HW129104   5.966   4.264   5.193  0.7804 -0.0193 -0.0829
 9168SOL    HW229105   5.853   4.153   5.232 -0.8508  1.3817 -0.6620
 9169SOL     OW29106   2.437   4.134   5.324  0.1525  0.2278  0.0089
 9169SOL    HW129107   2.496   4.160   5.248 -0.0126  0.4170 -0.0551
 9169SOL    HW229108   2.377   4.210   5.348  0.0312  0.0849  0.1663
 9170SOL     OW29109   5.817   6.940   4.388 -0.7186  0.1650 -0.1922
 9170SOL    HW129110   5.763   6.990   4.319  0.1932  0.0818 -1.0002
 9170SOL    HW229111   5.775   6.951   4.478 -1.9515  0.2689 -0.7614
 9171SOL     OW29112   5.134   5.631   4.717 -0.1742  0.0396  0.5786
 9171SOL    HW129113   5.201   5.556   4.719  0.3322  0.5100  2.0457
 9171SOL    HW229114   5.080   5.624   4.633  0.0064 -1.8381  0.5716
 9172SOL     OW29115   1.686   3.048   6.320  0.0656 -0.1144  0.3615
 9172SOL    HW129116   1.734   3.135   6.306 -0.5045  0.0598 -0.6594
 9172SOL    HW229117   1.727   2.977   6.263 -0.5585 -0.0839 -0.1377
 9173SOL     OW29118   1.168   0.900   5.782 -0.0464 -0.4459 -0.2865
 9173SOL    HW129119   1.132   0.871   5.694 -1.0685  0.6291 -0.2534
 9173SOL    HW229120   1.119   0.982   5.813  0.4729 -0.6392  1.1479
 9174SOL     OW29121   0.402   4.809   4.431 -0.2706 -0.1374  0.0429
 9174SOL    HW129122   0.412   4.732   4.495  3.0935  0.9727  1.1057
 9174SOL    HW229123   0.453   4.789   4.347  1.1168  1.0599  0.5578
 9175SOL     OW29124   6.505   6.312   4.445 -0.0943  0.3990 -0.2312
 9175SOL    HW129125   6.456   6.398   4.458  1.4907  1.2832  0.1457
 9175SOL    HW229126   6.481   6.249   4.518 -1.0294  0.6271 -0.3278
 9176SOL     OW29127   1.784   4.259   3.558  0.3392 -0.2466 -0.2181
 9176SOL    HW129128   1.768   4.348   3.515  2.5597 -0.0074 -0.6456
 9176SOL    HW229129   1.768   4.186   3.491  0.6515 -0.0453 -0.5139
 9177SOL     OW29130   3.073   3.974   3.110  0.1904  0.0683  0.4499
 9177SOL    HW129131   3.076   3.894   3.169 -0.6973  0.1305  0.5998
 9177SOL    HW229132   3.156   3.978   3.055 -0.0122 -1.3058 -0.0112
 9178SOL     OW29133   1.380   1.004   5.967  0.3016 -0.6609  0.2641
 9178SOL    HW129134   1.327   0.962   5.893 -0.2279  0.1839  0.1526
 9178SOL    HW229135   1.438   1.076   5.929 -0.3130  0.0876  0.7287
 9179SOL     OW29136   2.022   5.211   4.650  0.0871  0.1536 -0.2162
 9179SOL    HW129137   2.008   5.154   4.569  2.9466  1.6934 -1.9671
 9179SOL    HW229138   2.021   5.307   4.623  0.8995  0.7147  1.6101
 9180SOL     OW29139   6.890   1.836   3.671 -0.4522  0.1379 -0.1328
 9180SOL    HW129140   6.826   1.910   3.690 -0.8895  0.0334 -1.1671
 9180SOL    HW229141   6.893   1.774   3.749 -0.2012  1.1350  0.6840
 9181SOL     OW29142   5.865   4.150   2.201 -0.1110  0.1843  0.2281
 9181SOL    HW129143   5.861   4.214   2.125 -1.0027  0.9664  0.9074
 9181SOL    HW229144   5.871   4.200   2.287 -1.5704 -0.5850  0.8222
 9182SOL     OW29145   5.566   2.747   3.112 -0.4176 -0.5708  0.1853
 9182SOL    HW129146   5.534   2.787   3.026  0.9007  0.2814  0.0658
 9182SOL    HW229147   5.487   2.715   3.165 -1.4815  1.2573 -0.1783
 9183SOL     OW29148   5.783   5.085   3.377  0.1450 -0.5649 -0.6758
 9183SOL    HW129149   5.844   5.150   3.423  0.7008  0.3714 -2.6181
 9183SOL    HW229150   5.832   4.999   3.360  1.1412  0.3312 -2.6060
 9184SOL     OW29151   1.975   6.071   5.386  0.0838 -0.0968  0.4110
 9184SOL    HW129152   1.978   6.081   5.287  0.5183  0.1399  0.4428
 9184SOL    HW229153   2.050   6.011   5.415  0.1021  0.0249  0.6162
 9185SOL     OW29154   0.191   6.933   1.968 -0.0123  0.0060  0.1196
 9185SOL    HW129155   0.217   6.886   1.884  0.7148  3.1643 -1.5540
 9185SOL    HW229156   0.257   7.006   1.988 -0.7106 -0.0001  2.9317
 9186SOL     OW29157   3.291   4.750   6.732  0.1356 -0.0847 -0.3557
 9186SOL    HW129158   3.276   4.841   6.694  1.5816  0.5630  0.5034
 9186SOL    HW229159   3.293   4.683   6.659  2.2110  1.0318 -1.4088
 9187SOL     OW29160   6.255   0.653   0.077  0.2035 -0.0540 -0.2299
 9187SOL    HW129161   6.212   0.654  -0.014 -0.4687  0.0105  0.0810
 9187SOL    HW229162   6.302   0.566   0.091  0.6595  0.0974 -0.7998
 9188SOL     OW29163   0.578   5.454   5.006 -0.9243 -0.2029 -0.2556
 9188SOL    HW129164   0.499   5.449   5.066  0.5745 -1.9909  1.7144
 9188SOL    HW229165   0.648   5.513   5.046 -0.4615 -0.2430 -0.9668
 9189SOL     OW29166   6.986   2.639   5.207 -0.2471  0.0215  0.4500
 9189SOL    HW129167   7.044   2.718   5.225  3.1237 -2.3316  0.7804
 9189SOL    HW229168   6.939   2.651   5.120 -0.2358  2.5350  0.7340
 9190SOL     OW29169   1.398   2.688   4.209  0.2570 -0.2627 -0.1859
 9190SOL    HW129170   1.354   2.598   4.204 -0.3357  0.0135 -0.0184
 9190SOL    HW229171   1.365   2.746   4.135  0.6879 -0.1969 -0.3319
 9191SOL     OW29172   3.174   1.471   0.386  0.2833  0.1307 -0.2273
 9191SOL    HW129173   3.191   1.570   0.385  0.0752  0.1663 -0.1551
 9191SOL    HW229174   3.154   1.440   0.293  1.1253  0.0212 -0.3883
 9192SOL     OW29175   2.816   1.174   1.197  0.0612 -0.3427 -0.4132
 9192SOL    HW129176   2.751   1.175   1.121 -0.2240 -0.2266 -0.1699
 9192SOL    HW229177   2.766   1.176   1.284  0.3669 -1.2587 -0.2093
 9193SOL     OW29178   0.762   2.196   4.049 -0.3118  0.1144  0.2081
 9193SOL    HW129179   0.820   2.275   4.069 -0.4285  0.3565 -0.4025
 9193SOL    HW229180   0.720   2.206   3.959  0.2920 -1.0194 -0.2172
 9194SOL     OW29181   4.797   1.876   6.232  0.1113  0.0994  0.3264
 9194SOL    HW129182   4.825   1.800   6.290  0.1974 -0.1975 -0.0998
 9194SOL    HW229183   4.770   1.842   6.142  0.6375  0.6088 -0.0403
 9195SOL     OW29184   4.089   1.882   4.587  0.2553 -0.0962 -0.1634
 9195SOL    HW129185   4.164   1.947   4.575  0.2278 -0.1597 -0.7267
 9195SOL    HW229186   4.075   1.832   4.502 -0.5187  0.0135 -0.1092
 9196SOL     OW29187   4.811   0.343   4.913  0.0531 -0.3629  0.1183
 9196SOL    HW129188   4.782   0.411   4.846  1.4607  0.3351  0.1716
 9196SOL    HW229189   4.816   0.253   4.870 -0.0528 -0.1037 -0.4401
 9197SOL     OW29190   3.092   5.445   2.257  0.8600 -0.1393 -0.0383
 9197SOL    HW129191   3.154   5.430   2.180  1.9396 -0.0111  0.7893
 9197SOL    HW229192   3.140   5.493   2.330 -0.6350  1.4180  0.0196
 9198SOL     OW29193   0.890   0.681   0.285 -0.7029  0.5529 -0.4924
 9198SOL    HW129194   0.890   0.679   0.185  0.2947  1.0172 -0.5119
 9198SOL    HW229195   0.804   0.721   0.317 -1.2942 -0.1615 -1.1335
 9199SOL     OW29196   1.487   5.131   3.837  0.5292  0.2437  0.3247
 9199SOL    HW129197   1.480   5.117   3.738  0.2224 -0.4837  0.4425
 9199SOL    HW229198   1.450   5.051   3.884 -0.8402  1.2567  1.0365
 9200SOL     OW29199   6.994   1.734   6.564 -0.4206 -0.2103 -0.1430
 9200SOL    HW129200   6.974   1.716   6.660  1.6426 -0.6283  0.2659
 9200SOL    HW229201   7.067   1.673   6.533  0.7415  1.6171 -1.2232
 9201SOL     OW29202   1.866   1.094   6.115  0.6501  0.1557  0.6046
 9201SOL    HW129203   1.913   1.055   6.035  0.0722 -0.3930  0.5181
 9201SOL    HW229204   1.932   1.140   6.174  1.5202 -1.6609  1.1258
 9202SOL     OW29205   2.914   5.553   0.134 -0.5021 -0.0985  0.1887
 9202SOL    HW129206   2.943   5.587   0.223 -1.0878 -0.8578  0.6830
 9202SOL    HW229207   2.888   5.457   0.142  1.0148 -0.6504 -1.1465
 9203SOL     OW29208   0.901   3.081   2.423  0.0948 -0.3198 -0.4696
 9203SOL    HW129209   0.990   3.054   2.459 -0.5174 -0.3378  1.0903
 9203SOL    HW229210   0.831   3.016   2.452 -0.7701  0.8332  0.1419
 9204SOL     OW29211   3.945   1.122   4.799  0.6725  0.0806  0.7599
 9204SOL    HW129212   4.045   1.115   4.806  0.9433  0.8641 -1.4193
 9204SOL    HW229213   3.906   1.032   4.782  1.3900  0.1025 -1.3828
 9205SOL     OW29214   4.825   0.358   1.204 -0.4221  0.4574  0.0822
 9205SOL    HW129215   4.895   0.310   1.151 -0.2223 -0.0933  0.8383
 9205SOL    HW229216   4.742   0.367   1.148 -1.0912 -2.3378  0.4842
 9206SOL     OW29217   4.713   5.979   1.192 -0.0504  0.4967 -0.1949
 9206SOL    HW129218   4.734   5.967   1.095 -0.9672  0.4408 -0.4023
 9206SOL    HW229219   4.665   5.898   1.225  0.9705  0.1697  0.5241
 9207SOL     OW29220   4.329   4.628   1.983  1.0863  0.4733  0.3236
 9207SOL    HW129221   4.274   4.560   1.935  0.2261  2.8838 -2.4051
 9207SOL    HW229222   4.269   4.682   2.043  0.9015  1.4364 -0.6910
 9208SOL     OW29223   0.448   5.850   5.010 -0.2410 -0.1992 -0.4536
 9208SOL    HW129224   0.467   5.779   5.077 -0.1284  0.2171 -0.0415
 9208SOL    HW229225   0.438   5.808   4.919  0.7817 -0.6383 -0.3803
 9209SOL     OW29226   5.305   2.076   5.877 -0.1243  0.1863  0.0399
 9209SOL    HW129227   5.280   2.156   5.931 -0.5878 -0.4845  0.8233
 9209SOL    HW229228   5.252   1.997   5.906  2.4425 -1.1842  1.4332
 9210SOL     OW29229   5.267   1.551   6.966 -0.5924 -0.2589 -0.0324
 9210SOL    HW129230   5.171   1.527   6.981 -0.7283 -0.4450 -1.1122
 9210SOL    HW229231   5.325   1.491   7.021 -1.0274 -1.5016 -0.8829
 9211SOL     OW29232   6.683   2.749   2.361 -0.3655  0.1622 -0.0133
 9211SOL    HW129233   6.722   2.694   2.287 -1.0136 -0.8550  0.3913
 9211SOL    HW229234   6.589   2.775   2.337 -0.1246  0.9770 -0.1264
 9212SOL     OW29235   3.946   2.150   1.602 -0.0611  0.2683  0.2341
 9212SOL    HW129236   3.956   2.117   1.696 -1.6500  0.6116  0.5440
 9212SOL    HW229237   3.856   2.125   1.567 -0.2386  1.8444 -0.4971
 9213SOL     OW29238   3.591   5.749   2.910 -0.1389 -0.3181 -0.0032
 9213SOL    HW129239   3.563   5.816   2.980 -0.9322  0.9961 -1.5105
 9213SOL    HW229240   3.534   5.668   2.917 -2.4026  1.0742 -1.0363
 9214SOL     OW29241   5.907   3.202   6.816 -0.4122  0.4745 -0.3248
 9214SOL    HW129242   5.944   3.206   6.724 -0.3178 -1.0330 -0.3717
 9214SOL    HW229243   5.878   3.108   6.837 -0.7530  0.8592  1.0510
 9215SOL     OW29244   4.863   6.561   3.007 -0.4904  0.0862  0.0022
 9215SOL    HW129245   4.940   6.518   2.960 -0.0605 -1.5016  2.0019
 9215SOL    HW229246   4.885   6.656   3.027  1.6251 -0.6757  1.7475
 9216SOL     OW29247   0.872   1.184   4.768 -0.6345 -0.6815 -0.0047
 9216SOL    HW129248   0.866   1.227   4.858 -2.0665  0.0609 -0.4213
 9216SOL    HW229249   0.893   1.254   4.699  0.0364 -1.1763 -0.3136
 9217SOL     OW29250   2.436   5.079   2.234 -0.0133  0.1260  0.4227
 9217SOL    HW129251   2.399   4.988   2.253  0.2525  0.0758  0.7093
 9217SOL    HW229252   2.365   5.148   2.247 -0.5852 -0.1503 -1.0739
 9218SOL     OW29253   4.996   6.839   1.338  0.2722  0.0856 -0.4812
 9218SOL    HW129254   5.042   6.786   1.267  0.4906  0.8325 -0.8989
 9218SOL    HW229255   4.962   6.925   1.300 -1.6278 -0.5021 -0.2325
 9219SOL     OW29256   2.915   2.793   2.066 -0.6299  0.5437 -0.5800
 9219SOL    HW129257   2.924   2.871   2.128 -0.3784  1.0139 -1.1928
 9219SOL    HW229258   2.971   2.809   1.985 -0.1117 -0.5466 -0.4555
 9220SOL     OW29259   5.494   2.240   0.667  0.2518  0.0184 -0.6395
 9220SOL    HW129260   5.429   2.184   0.719  0.4339  0.6550  0.2971
 9220SOL    HW229261   5.443   2.304   0.609 -0.0895  2.2811  1.9480
 9221SOL     OW29262   1.986   2.266   5.348 -0.6638 -0.1618 -0.0081
 9221SOL    HW129263   1.913   2.245   5.283  0.6619  0.2830 -1.7379
 9221SOL    HW229264   2.047   2.334   5.307  0.1912  0.1890  1.7685
 9222SOL     OW29265   5.542   0.120   2.151  0.6866 -0.0489 -0.1455
 9222SOL    HW129266   5.473   0.188   2.176 -1.4220 -2.6570  1.8787
 9222SOL    HW229267   5.542   0.106   2.052  0.1489  1.8120 -0.4352
 9223SOL     OW29268   5.235   5.934   0.618  0.0683 -0.1448  0.2175
 9223SOL    HW129269   5.265   6.024   0.586  0.4053 -0.4964 -0.4753
 9223SOL    HW229270   5.139   5.938   0.646 -0.2870  0.1236 -1.0178
 9224SOL     OW29271   1.803   1.652   6.242 -0.2674 -0.1498  0.6964
 9224SOL    HW129272   1.835   1.571   6.292 -0.5594 -2.9310 -3.1781
 9224SOL    HW229273   1.714   1.632   6.201 -0.2808  2.1335 -0.5356
 9225SOL     OW29274   0.275   1.987   2.286  0.0169 -0.1641  0.0843
 9225SOL    HW129275   0.295   1.895   2.254 -1.0128  0.1807 -1.6685
 9225SOL    HW229276   0.178   2.007   2.272  0.3742  1.4504 -0.2850
 9226SOL     OW29277   1.035   5.773   6.057  0.3606 -0.4753 -0.3033
 9226SOL    HW129278   0.966   5.758   5.986 -1.5040 -0.9172  1.5351
 9226SOL    HW229279   1.045   5.689   6.111 -0.5055  0.7634  1.8608
 9227SOL     OW29280   0.921   3.142   5.304 -0.3912 -0.2944 -0.5615
 9227SOL    HW129281   0.953   3.205   5.234  1.5175  0.4828  0.9057
 9227SOL    HW229282   0.908   3.191   5.390 -0.9606 -1.5261  0.0852
 9228SOL     OW29283   6.114   0.582   3.414  0.1560  0.0324  0.3530
 9228SOL    HW129284   6.118   0.680   3.434 -0.6670  0.4214 -1.2437
 9228SOL    HW229285   6.154   0.564   3.324 -0.9346 -0.8961  0.0194
 9229SOL     OW29286   0.830   5.177   5.293 -0.4832 -0.6790  0.0831
 9229SOL    HW129287   0.809   5.131   5.379  1.7706 -1.4359  0.2826
 9229SOL    HW229288   0.852   5.110   5.223  0.1259 -0.0007 -0.3929
 9230SOL     OW29289   0.714   1.844   2.940  0.0792  0.0745  0.2982
 9230SOL    HW129290   0.768   1.876   2.862  1.0551 -1.6273  0.2255
 9230SOL    HW229291   0.638   1.907   2.955 -0.2410  0.3946 -2.1126
 9231SOL     OW29292   5.922   3.007   3.437 -0.3623 -0.3111  0.3577
 9231SOL    HW129293   5.989   3.057   3.382 -1.0570  3.0895  2.3094
 9231SOL    HW229294   5.858   2.959   3.377  0.5701  0.8796 -1.6763
 9232SOL     OW29295   5.660   5.608   0.094 -0.4759 -0.1973 -0.7213
 9232SOL    HW129296   5.658   5.621   0.193 -1.6306  2.7200 -1.0522
 9232SOL    HW229297   5.665   5.510   0.074 -3.5301 -1.1179  2.1882
 9233SOL     OW29298   1.093   5.720   6.629  0.1235 -0.1356 -0.0413
 9233SOL    HW129299   1.065   5.815   6.619  2.2486  0.6875  1.1740
 9233SOL    HW229300   1.091   5.695   6.726  0.3006 -1.1068 -0.2735
 9234SOL     OW29301   3.735   3.637   0.866  0.4641  0.3595  0.0892
 9234SOL    HW129302   3.720   3.563   0.931  0.3513 -1.0326 -1.4795
 9234SOL    HW229303   3.783   3.603   0.786 -0.8556  1.6424 -1.3198
 9235SOL     OW29304   2.128   6.321   3.455  0.4207 -0.2982 -0.1609
 9235SOL    HW129305   2.060   6.377   3.408  0.4101 -1.4033 -1.5080
 9235SOL    HW229306   2.123   6.338   3.554  1.4076  3.1526 -0.5666
 9236SOL     OW29307   6.780   5.703   1.810  0.1812  0.4014  0.6348
 9236SOL    HW129308   6.719   5.643   1.757 -0.5469  1.2669  0.4658
 9236SOL    HW229309   6.809   5.656   1.893  1.0847 -0.8637 -0.3682
 9237SOL     OW29310   4.752   1.791   0.485  0.0565 -0.4679 -0.6321
 9237SOL    HW129311   4.673   1.837   0.446 -0.4416 -1.1541 -0.4471
 9237SOL    HW229312   4.790   1.845   0.560 -0.0619 -0.0025 -0.9090
 9238SOL     OW29313   2.510   1.935   4.868 -0.2948 -0.1205 -0.1454
 9238SOL    HW129314   2.498   1.963   4.963  1.0767  0.6284 -0.1660
 9238SOL    HW229315   2.607   1.917   4.851 -0.4647  0.1916 -1.5133
 9239SOL     OW29316   2.740   3.100   6.440 -0.3325  0.2891  0.3403
 9239SOL    HW129317   2.669   3.069   6.504  0.1102 -1.9242 -0.1666
 9239SOL    HW229318   2.830   3.075   6.475  0.0255  0.5775 -0.3548
 9240SOL     OW29319   0.320   1.308   2.855 -0.5633 -0.0933 -0.3151
 9240SOL    HW129320   0.285   1.286   2.946 -0.2332  1.3902  0.1976
 9240SOL    HW229321   0.420   1.302   2.855 -0.5030  0.7737 -0.3135
 9241SOL     OW29322   4.748   0.405   1.806 -0.6790  0.2154  0.9087
 9241SOL    HW129323   4.755   0.471   1.881  0.9043  1.8834 -0.6248
 9241SOL    HW229324   4.671   0.430   1.747 -0.5440  0.2468  0.7444
 9242SOL     OW29325   2.709   5.353   6.886  0.2474  0.3292  0.0147
 9242SOL    HW129326   2.733   5.331   6.981  2.2833 -0.7915 -0.6876
 9242SOL    HW229327   2.665   5.273   6.844  1.9492 -0.2490 -0.7552
 9243SOL     OW29328   4.608   6.028   3.888 -0.0923 -0.7222 -0.2942
 9243SOL    HW129329   4.523   5.987   3.855  0.9791 -1.3694 -2.4337
 9243SOL    HW229330   4.614   6.015   3.988 -1.7006 -2.1715 -0.3268
 9244SOL     OW29331   3.293   5.194   1.085  0.4266  0.3533 -0.1629
 9244SOL    HW129332   3.270   5.240   1.000 -0.0814 -0.2344 -0.3445
 9244SOL    HW229333   3.234   5.115   1.098 -0.2478  1.0470  1.2657
 9245SOL     OW29334   5.866   1.081   1.420 -0.3704 -0.7457  0.1341
 9245SOL    HW129335   5.839   1.176   1.437  2.6844  0.2716  0.0656
 9245SOL    HW229336   5.827   1.022   1.490 -0.4840  0.9415  1.5639
 9246SOL     OW29337   2.886   1.682   4.704 -0.1950 -0.1572 -0.1504
 9246SOL    HW129338   2.979   1.657   4.679 -0.3497  0.1138 -1.0357
 9246SOL    HW229339   2.837   1.601   4.737  0.7006 -0.0713  1.5012
 9247SOL     OW29340   4.401   0.670   5.984 -0.2230 -0.0738 -0.4998
 9247SOL    HW129341   4.327   0.650   6.049  0.2332  0.6108  0.2647
 9247SOL    HW229342   4.488   0.640   6.023  0.0896  0.5869 -0.6684
 9248SOL     OW29343   0.397   4.180   5.763  0.2009 -0.5700 -0.0445
 9248SOL    HW129344   0.456   4.204   5.840 -1.5300  4.9907 -0.0089
 9248SOL    HW229345   0.302   4.178   5.794 -0.4411  0.6707 -1.7946
 9249SOL     OW29346   2.606   0.378   0.431  0.3833  0.1335 -0.7039
 9249SOL    HW129347   2.668   0.300   0.436  0.2722  0.0921  0.2337
 9249SOL    HW229348   2.581   0.407   0.524  0.0749  1.0065 -1.0487
 9250SOL     OW29349   1.889   1.917   6.815  0.2650 -0.0235  0.1061
 9250SOL    HW129350   1.844   1.860   6.747 -0.9784 -0.4674  1.2665
 9250SOL    HW229351   1.932   1.995   6.770 -0.6983 -0.2044 -1.1684
 9251SOL     OW29352   4.909   4.300   6.236 -0.1170  0.4763 -0.0745
 9251SOL    HW129353   4.995   4.318   6.284 -0.7725  1.2059  0.8508
 9251SOL    HW229354   4.850   4.243   6.293  0.4637 -1.6368 -1.4708
 9252SOL     OW29355   0.559   0.683   6.960 -0.2316 -0.8997 -0.0532
 9252SOL    HW129356   0.540   0.598   7.009 -0.3149 -0.3006  0.9917
 9252SOL    HW229357   0.554   0.759   7.024  2.7497 -0.3848 -0.3283
 9253SOL     OW29358   4.366   5.295   5.150  0.0460 -0.4688 -0.3826
 9253SOL    HW129359   4.351   5.199   5.176 -3.2950  0.2757  1.0847
 9253SOL    HW229360   4.318   5.313   5.064 -0.9502  0.2338  0.2932
 9254SOL     OW29361   4.474   1.095   3.305 -0.2711 -0.7428 -0.7006
 9254SOL    HW129362   4.511   1.024   3.244 -1.0155 -1.0458 -0.8185
 9254SOL    HW229363   4.381   1.068   3.333  0.4753 -1.1937  1.5044
 9255SOL     OW29364   4.676   6.128   6.115  0.1949 -0.1848  0.1568
 9255SOL    HW129365   4.702   6.103   6.208  1.2108 -0.7797 -0.2694
 9255SOL    HW229366   4.690   6.226   6.102  2.8648 -0.5324 -0.1980
 9256SOL     OW29367   1.865   0.195   0.854  0.6053  0.0463 -0.7070
 9256SOL    HW129368   1.891   0.285   0.819  1.1302 -0.5208 -1.8157
 9256SOL    HW229369   1.825   0.141   0.781  0.7060 -0.7872 -0.1608
 9257SOL     OW29370   3.077   6.404   5.285  0.3378 -0.1309 -0.1030
 9257SOL    HW129371   3.118   6.472   5.345 -3.1448  1.2722  0.9007
 9257SOL    HW229372   3.072   6.316   5.332  3.0107 -0.6823 -0.6702
 9258SOL     OW29373   2.841   6.134   6.629  0.1051 -0.4994 -0.5839
 9258SOL    HW129374   2.805   6.120   6.722  2.6809  1.2540  0.8160
 9258SOL    HW229375   2.850   6.232   6.612  1.3913 -0.8299 -1.9656
 9259SOL     OW29376   0.573   2.480   4.932 -0.3135 -0.1077  0.4711
 9259SOL    HW129377   0.560   2.381   4.932 -1.5770  0.0329  1.6068
 9259SOL    HW229378   0.570   2.515   5.025  0.3608  0.9907  0.1061
 9260SOL     OW29379   1.750   2.686   0.193  0.2736 -0.0126 -0.4676
 9260SOL    HW129380   1.675   2.710   0.131  0.5054  0.8477 -0.4304
 9260SOL    HW229381   1.717   2.687   0.287  0.3730  0.5644 -0.4354
 9261SOL     OW29382   4.729   1.310   4.009 -0.3309 -0.3694 -0.2381
 9261SOL    HW129383   4.696   1.290   3.917  0.7804 -0.5498 -0.6151
 9261SOL    HW229384   4.828   1.320   4.008 -0.4838  1.6207  0.5993
 9262SOL     OW29385   3.105   1.297   2.661 -0.4077  0.2899  0.1151
 9262SOL    HW129386   3.169   1.317   2.586  0.0728 -0.1165  0.4141
 9262SOL    HW229387   3.097   1.378   2.720 -2.7958  1.5731 -1.7941
 9263SOL     OW29388   4.346   6.998   0.749 -0.2009  0.2977 -0.2175
 9263SOL    HW129389   4.431   6.948   0.732 -0.3515 -0.1374  0.2742
 9263SOL    HW229390   4.365   7.096   0.752  0.7737  0.1158  2.3387
 9264SOL     OW29391   2.301   5.550   4.344  0.5995 -0.7308  0.1689
 9264SOL    HW129392   2.301   5.623   4.413  0.1343  1.0701 -1.6368
 9264SOL    HW229393   2.213   5.550   4.296  2.1130  0.5908 -2.8628
 9265SOL     OW29394   6.884   3.070   1.155  0.2949 -0.1527  0.8177
 9265SOL    HW129395   6.858   3.094   1.061 -1.2130 -1.5771  0.8336
 9265SOL    HW229396   6.925   2.979   1.155  0.3792 -0.1149  1.5360
 9266SOL     OW29397   1.568   6.567   1.297 -0.2928  0.2394  0.1271
 9266SOL    HW129398   1.588   6.553   1.394  0.0751 -1.3676 -0.1683
 9266SOL    HW229399   1.506   6.496   1.265  1.7070 -0.8689 -1.4622
 9267SOL     OW29400   5.009   2.783   2.308 -0.4470 -0.3522 -0.1324
 9267SOL    HW129401   5.075   2.765   2.235 -0.9996 -0.0336 -0.7229
 9267SOL    HW229402   4.959   2.867   2.288 -1.6901 -1.0705 -0.1935
 9268SOL     OW29403   2.312   5.263   5.571 -0.1434  0.0688  0.1183
 9268SOL    HW129404   2.261   5.198   5.515 -0.1310 -2.3215  2.6580
 9268SOL    HW229405   2.276   5.355   5.556 -1.3523 -0.7024 -2.3165
 9269SOL     OW29406   1.862   3.848   1.751  0.0587 -0.0377  0.5686
 9269SOL    HW129407   1.908   3.760   1.758 -1.2816 -0.6603  2.3287
 9269SOL    HW229408   1.907   3.914   1.811 -0.8125 -0.4325  1.6907
 9270SOL     OW29409   2.173   4.373   5.183 -0.2198  0.4989  0.3831
 9270SOL    HW129410   2.083   4.350   5.147  1.2952  0.3665 -3.8884
 9270SOL    HW229411   2.194   4.468   5.160  0.4864  0.7874  2.0609
 9271SOL     OW29412   3.618   4.123   0.037  0.1536 -0.0400 -0.1450
 9271SOL    HW129413   3.643   4.108  -0.059 -0.1116 -1.2218 -0.0425
 9271SOL    HW229414   3.697   4.158   0.087  0.2815  0.6373 -0.7977
 9272SOL     OW29415   0.563   6.053   6.915  0.2562  0.0302 -0.2250
 9272SOL    HW129416   0.574   6.150   6.895 -1.7355  0.7326  1.7140
 9272SOL    HW229417   0.498   6.041   6.989 -0.1856 -2.8649 -0.9452
 9273SOL     OW29418   6.342   4.957   0.661 -0.3202  0.1260 -0.6887
 9273SOL    HW129419   6.310   4.889   0.596 -0.0863 -0.0640 -0.6087
 9273SOL    HW229420   6.351   5.046   0.616  0.0854 -0.0596 -0.9838
 9274SOL     OW29421   2.875   5.177   6.012  0.6660 -0.0051  1.0576
 9274SOL    HW129422   2.817   5.258   6.007  1.1254  0.3020  0.6432
 9274SOL    HW229423   2.971   5.204   6.009  0.8301 -0.6187 -0.3446
 9275SOL     OW29424   3.575   3.405   0.587  0.3036 -0.1955 -0.2160
 9275SOL    HW129425   3.637   3.482   0.575  0.0909  0.1337  0.7010
 9275SOL    HW229426   3.615   3.340   0.651  0.5430 -0.9252 -1.0929
 9276SOL     OW29427   2.719   2.218   5.354  0.1416  0.1576 -0.1849
 9276SOL    HW129428   2.753   2.291   5.413 -0.0616 -2.5412  3.6334
 9276SOL    HW229429   2.793   2.155   5.333 -0.3046 -0.1561 -0.8456
 9277SOL     OW29430   5.210   3.452   1.659  0.7447 -0.3007 -0.0598
 9277SOL    HW129431   5.194   3.541   1.617 -0.6724 -0.4386  0.1356
 9277SOL    HW229432   5.308   3.439   1.674  0.9310  1.4877  0.4880
 9278SOL     OW29433   1.368   0.958   6.462  0.4566 -0.7299 -0.2162
 9278SOL    HW129434   1.289   0.901   6.488 -0.1815  0.6487  1.0161
 9278SOL    HW229435   1.397   0.934   6.370 -0.7905 -1.9472 -0.3307
 9279SOL     OW29436   4.916   2.794   6.353  0.0894 -0.0620 -0.2413
 9279SOL    HW129437   4.923   2.695   6.367  0.1261  0.0605  0.7026
 9279SOL    HW229438   5.007   2.834   6.360 -0.1070  0.2125  0.9036
 9280SOL     OW29439   3.689   2.569   4.887 -0.0445  0.0319  0.3056
 9280SOL    HW129440   3.777   2.593   4.846 -0.7468  1.3048 -0.5242
 9280SOL    HW229441   3.701   2.489   4.947  1.4543 -0.4519 -0.5812
 9281SOL     OW29442   0.646   2.643   4.034 -0.6951 -0.5622  0.3372
 9281SOL    HW129443   0.715   2.582   3.993 -0.8129 -0.8086  0.5047
 9281SOL    HW229444   0.675   2.738   4.021 -0.4640 -0.6544  0.1536
 9282SOL     OW29445   1.412   1.900   0.464  0.2473  0.7838  0.3663
 9282SOL    HW129446   1.460   1.880   0.550 -1.0781 -0.2700  0.8902
 9282SOL    HW229447   1.434   1.830   0.396  0.5742  1.1128  0.1253
 9283SOL     OW29448   2.271   4.937   1.131  0.0873 -0.6968  0.4772
 9283SOL    HW129449   2.197   4.915   1.195 -1.1760  1.1496 -0.2523
 9283SOL    HW229450   2.357   4.899   1.165 -0.3691  0.7035  3.6463
 9284SOL     OW29451   0.072   2.346   5.676 -0.4457  0.8110 -0.3550
 9284SOL    HW129452   0.059   2.431   5.624 -1.7472  0.4675 -0.6298
 9284SOL    HW229453   0.134   2.364   5.753 -0.3620  1.9030 -0.6493
 9285SOL     OW29454   1.006   1.058   0.853 -0.0467  0.4444  0.0063
 9285SOL    HW129455   0.918   1.074   0.897  0.2350  0.0685  0.7268
 9285SOL    HW229456   1.007   1.102   0.763 -1.1194  0.0967 -0.1916
 9286SOL     OW29457   4.283   1.258   1.674  0.0473 -0.2860 -0.1551
 9286SOL    HW129458   4.330   1.176   1.708 -0.8680 -0.5478  0.5227
 9286SOL    HW229459   4.225   1.234   1.597 -0.3817 -0.3208  0.1759
 9287SOL     OW29460   2.285   6.167   2.001 -0.3079 -0.2197  0.4672
 9287SOL    HW129461   2.263   6.111   2.081 -0.1771  0.2437  0.8331
 9287SOL    HW229462   2.357   6.122   1.948 -0.4568 -0.5729  0.5623
 9288SOL     OW29463   3.055   0.034   5.676 -0.0084  0.3172 -0.0049
 9288SOL    HW129464   3.067   0.076   5.766  0.8608 -0.4496  0.2506
 9288SOL    HW229465   3.012  -0.056   5.686  2.5622 -1.0085 -0.0416
 9289SOL     OW29466   6.280   0.689   5.439  0.2258  0.2169  0.7824
 9289SOL    HW129467   6.207   0.646   5.492  0.6188  1.5269  2.5013
 9289SOL    HW229468   6.246   0.774   5.400  0.5554  0.3451  0.7761
 9290SOL     OW29469   4.608   6.104   5.329 -0.0567 -0.0194 -0.4989
 9290SOL    HW129470   4.688   6.141   5.281 -0.6583  1.0010 -0.7319
 9290SOL    HW229471   4.628   6.098   5.427 -0.2991  1.9548 -0.2916
 9291SOL     OW29472   0.659   3.045   3.098  0.9360 -0.2515  0.1143
 9291SOL    HW129473   0.583   3.077   3.043  0.6732 -1.1906 -0.0804
 9291SOL    HW229474   0.657   2.945   3.104  0.5755 -0.1804  2.3323
 9292SOL     OW29475   5.329   6.523   0.889  0.2513 -0.6831 -0.3492
 9292SOL    HW129476   5.350   6.483   0.800  1.6729  2.1306 -1.4099
 9292SOL    HW229477   5.268   6.601   0.877  0.4180 -0.2987  1.1430
 9293SOL     OW29478   2.565   6.040   3.748  0.4513 -0.0543 -0.2907
 9293SOL    HW129479   2.471   6.006   3.756  0.3087  0.6017  1.2713
 9293SOL    HW229480   2.565   6.130   3.704  0.0437  0.9853  1.7019
 9294SOL     OW29481   6.434   2.018   5.501  0.1353  0.0485  0.3080
 9294SOL    HW129482   6.446   2.101   5.446  1.3458 -1.9261 -2.6239
 9294SOL    HW229483   6.490   1.945   5.464 -0.7471 -2.0990  2.9102
 9295SOL     OW29484   0.774   6.964   5.748  0.1888 -0.0875 -0.3758
 9295SOL    HW129485   0.776   6.964   5.848  1.1780  0.6924 -0.3717
 9295SOL    HW229486   0.842   7.030   5.714 -1.2293  0.8410 -1.5349
 9296SOL     OW29487   4.787   5.772   2.196 -0.5800 -0.4067  0.5193
 9296SOL    HW129488   4.718   5.843   2.178 -1.8286 -1.4371  1.1504
 9296SOL    HW229489   4.743   5.691   2.233  1.0354 -0.9853  1.2425
 9297SOL     OW29490   5.953   2.486   5.624  0.0681 -0.5595  0.0359
 9297SOL    HW129491   5.864   2.442   5.612 -1.0208  0.4123  3.4208
 9297SOL    HW229492   6.022   2.416   5.643 -0.1639 -1.2433 -1.5204
 9298SOL     OW29493   4.653   2.092   0.191 -0.0489  0.4150 -0.0390
 9298SOL    HW129494   4.589   2.059   0.260  1.2243  1.4823  1.7328
 9298SOL    HW229495   4.663   2.024   0.119 -0.9621 -0.9963  1.1198
 9299SOL     OW29496   1.003   1.264   1.642 -0.3881 -0.0553 -0.1862
 9299SOL    HW129497   1.069   1.196   1.608 -1.3330 -0.1472 -1.9548
 9299SOL    HW229498   0.926   1.269   1.579 -0.6981  2.1453  0.2970
 9300SOL     OW29499   2.161   2.125   1.612 -0.3236 -0.3157 -0.3230
 9300SOL    HW129500   2.158   2.223   1.594 -0.5838 -0.0791  0.9058
 9300SOL    HW229501   2.236   2.104   1.674  0.4032 -1.0588 -1.4274
 9301SOL     OW29502   3.391   6.418   1.257  0.4106  0.1751 -0.2412
 9301SOL    HW129503   3.392   6.464   1.169  2.3453  0.8187  0.0597
 9301SOL    HW229504   3.484   6.417   1.295 -0.1877 -1.0114  1.3104
 9302SOL     OW29505   6.696   2.794   2.035  0.4875 -0.4818 -0.2111
 9302SOL    HW129506   6.635   2.726   2.074  1.5051  0.0355  2.4699
 9302SOL    HW229507   6.742   2.756   1.954 -1.8191 -1.5350 -1.1051
 9303SOL     OW29508   3.879   0.763   0.941 -0.3597 -1.1263  0.1765
 9303SOL    HW129509   3.883   0.754   1.040  0.7157  1.2321  0.4112
 9303SOL    HW229510   3.825   0.843   0.916 -0.8364 -1.8258 -1.1850
 9304SOL     OW29511   1.303   3.193   0.054 -0.0744 -0.0469 -0.4155
 9304SOL    HW129512   1.292   3.242   0.140  2.6470 -0.0643  0.0014
 9304SOL    HW229513   1.345   3.104   0.071  0.4910 -0.0580 -1.7429
 9305SOL     OW29514   3.106   6.460   0.802  0.1405  0.3176  0.3997
 9305SOL    HW129515   3.055   6.546   0.792  0.5009  0.4382 -0.5127
 9305SOL    HW229516   3.111   6.414   0.714  0.1303 -0.5482  0.8433
 9306SOL     OW29517   5.820   4.533   2.671  0.2318 -0.0328 -0.6691
 9306SOL    HW129518   5.755   4.461   2.694  0.5770 -0.1804 -0.1231
 9306SOL    HW229519   5.789   4.620   2.710  1.3623 -0.4843  1.4112
 9307SOL     OW29520   2.133   3.314   1.234 -0.3526  0.2739  0.1390
 9307SOL    HW129521   2.135   3.386   1.164 -0.4804 -0.3208 -0.4941
 9307SOL    HW229522   2.046   3.319   1.284 -0.5519  0.2862 -0.2037
 9308SOL     OW29523   5.220   4.763   0.268 -0.0921  0.5240 -0.1019
 9308SOL    HW129524   5.145   4.746   0.332 -0.5920  1.1278 -0.5162
 9308SOL    HW229525   5.194   4.733   0.176  1.3803 -2.2428  0.2991
 9309SOL     OW29526   1.713   3.569   3.455  0.8834 -0.4334 -0.0374
 9309SOL    HW129527   1.624   3.526   3.470  0.2631  1.2514  1.3700
 9309SOL    HW229528   1.780   3.530   3.518  0.9101 -0.9666 -0.3861
 9310SOL     OW29529   1.610   5.401   6.638 -0.6592 -0.1302  0.3095
 9310SOL    HW129530   1.543   5.356   6.578  0.5041 -1.7714  0.1637
 9310SOL    HW229531   1.632   5.492   6.601 -1.6783 -0.1767 -0.4590
 9311SOL     OW29532   4.908   0.251   4.538  0.4777  0.6383  0.1862
 9311SOL    HW129533   4.973   0.298   4.479 -0.4428  1.7781  0.0602
 9311SOL    HW229534   4.829   0.222   4.484  0.1540  0.6766  0.6379
 9312SOL     OW29535   6.168   4.235   6.878  0.1498  0.0026 -0.4265
 9312SOL    HW129536   6.110   4.245   6.958 -1.3957  0.0592 -1.5086
 9312SOL    HW229537   6.262   4.263   6.900 -0.2786  0.1685  1.2839
 9313SOL     OW29538   0.162   4.276   1.257  0.3014  0.3466 -0.5123
 9313SOL    HW129539   0.158   4.360   1.311  0.9881 -1.3873  2.4911
 9313SOL    HW229540   0.241   4.279   1.197  1.5429  1.0364  1.0884
 9314SOL     OW29541   6.035   2.128   6.430  0.0542  0.1534  0.1265
 9314SOL    HW129542   5.991   2.103   6.516  0.4348 -0.9910  0.0129
 9314SOL    HW229543   5.990   2.080   6.354  0.4511  0.2365 -0.1691
 9315SOL     OW29544   2.362   4.237   1.832 -0.1596 -0.4106 -0.3247
 9315SOL    HW129545   2.306   4.264   1.910 -0.4795  0.9556 -0.9992
 9315SOL    HW229546   2.376   4.138   1.834 -2.2638 -0.7491  0.0861
 9316SOL     OW29547   6.487   6.186   5.943  0.2461 -0.1125 -0.7370
 9316SOL    HW129548   6.566   6.168   5.885 -0.1994 -0.5392 -1.2356
 9316SOL    HW229549   6.493   6.131   6.026  0.7835  0.3374 -0.4768
 9317SOL     OW29550   0.598   1.206   0.544 -0.1248  0.5895 -0.4067
 9317SOL    HW129551   0.576   1.303   0.545  1.8761  1.0885 -0.6725
 9317SOL    HW229552   0.654   1.185   0.464 -1.5907 -1.0665 -1.0563
 9318SOL     OW29553   6.125   2.164   5.335 -0.2071 -0.4148 -0.6528
 9318SOL    HW129554   6.168   2.236   5.390 -0.3664 -0.1424 -0.8810
 9318SOL    HW229555   6.153   2.174   5.239 -1.5506  0.3826 -0.9826
 9319SOL     OW29556   3.099   3.177   5.682 -0.0846 -0.6489 -0.0941
 9319SOL    HW129557   3.034   3.138   5.748  0.1582 -0.7558  0.0843
 9319SOL    HW229558   3.139   3.103   5.628  1.6391 -0.8429  1.3889
 9320SOL     OW29559   5.630   0.791   2.498  0.0548  0.2587  0.0481
 9320SOL    HW129560   5.627   0.765   2.594  0.3312  0.4971  0.1241
 9320SOL    HW229561   5.687   0.725   2.448 -2.4033 -1.5586 -0.5173
 9321SOL     OW29562   0.430   4.534   6.289 -0.2705 -0.6915 -0.4822
 9321SOL    HW129563   0.405   4.514   6.384  2.0983 -1.3321  0.0824
 9321SOL    HW229564   0.506   4.600   6.289 -1.1392  0.3688 -2.0136
 9322SOL     OW29565   5.487   5.299   3.171 -0.4008  0.2393 -0.1794
 9322SOL    HW129566   5.523   5.235   3.238  1.3907 -0.0467 -1.3503
 9322SOL    HW229567   5.562   5.333   3.114 -1.2801  3.2997  0.3076
 9323SOL     OW29568   3.572   6.692   0.493  0.1645  0.3539  0.8113
 9323SOL    HW129569   3.493   6.721   0.548  1.0362 -0.1109  2.3461
 9323SOL    HW229570   3.634   6.769   0.480 -0.0575  0.4721  0.4180
 9324SOL     OW29571   4.963   6.260   0.307  0.1703  0.8809  0.4098
 9324SOL    HW129572   4.949   6.225   0.214  0.1223  2.1916 -0.0901
 9324SOL    HW229573   5.050   6.224   0.344 -0.3879 -0.6060  0.3422
 9325SOL     OW29574   3.733   1.291   5.406 -0.3639 -0.0355 -0.3387
 9325SOL    HW129575   3.731   1.350   5.325 -1.6009 -0.7760 -0.8754
 9325SOL    HW229576   3.681   1.208   5.388  1.2921 -1.2828  0.4398
 9326SOL     OW29577   0.083   4.332   2.299 -0.3996  0.7474 -0.0657
 9326SOL    HW129578   0.100   4.233   2.300 -1.7454  0.5017  1.0326
 9326SOL    HW229579   0.169   4.380   2.284  0.6370 -0.5433  1.3717
 9327SOL     OW29580   0.089   4.709   2.345 -0.0166  0.8593 -0.3071
 9327SOL    HW129581   0.046   4.707   2.255  0.5631 -0.9788 -0.5892
 9327SOL    HW229582   0.025   4.672   2.413  0.5571 -0.5917 -0.5041
 9328SOL     OW29583   2.685   6.546   3.591  0.3416  0.6799  0.0373
 9328SOL    HW129584   2.671   6.644   3.580  1.2024  0.6278 -1.8203
 9328SOL    HW229585   2.727   6.508   3.509 -0.7367 -1.4213  0.3827
 9329SOL     OW29586   3.154   5.590   2.710 -0.5063  0.7081 -0.0969
 9329SOL    HW129587   3.056   5.605   2.693 -1.0800 -2.2837 -0.0385
 9329SOL    HW229588   3.165   5.531   2.790  1.3831  1.0690 -0.0421
 9330SOL     OW29589   3.447   0.233   3.264  0.0568  0.2769 -0.8241
 9330SOL    HW129590   3.380   0.266   3.196 -0.0369 -0.2682 -0.9978
 9330SOL    HW229591   3.509   0.308   3.287 -0.7625  0.8761 -0.4668
 9331SOL     OW29592   6.977   5.087   1.138 -0.5335 -0.2766 -0.2828
 9331SOL    HW129593   6.959   5.073   1.040  1.9509  0.2380 -0.8761
 9331SOL    HW229594   6.951   5.005   1.189  0.2231 -1.4449 -1.7013
 9332SOL     OW29595   1.559   0.001   1.748  0.2781 -1.0545 -0.2891
 9332SOL    HW129596   1.562   0.022   1.845 -1.5023  0.4828 -0.5013
 9332SOL    HW229597   1.628   0.056   1.700  1.2120 -1.8722  0.0761
 9333SOL     OW29598   3.401   1.953   4.209 -0.2896 -0.3448 -0.4012
 9333SOL    HW129599   3.369   1.870   4.163 -0.3881 -0.1690 -0.6528
 9333SOL    HW229600   3.344   1.971   4.289 -1.2102  0.2880 -1.1731
 9334SOL     OW29601   0.221   5.021   2.382 -0.3244  0.5651 -0.1370
 9334SOL    HW129602   0.252   4.940   2.432 -0.2222  1.1271  0.7482
 9334SOL    HW229603   0.123   5.035   2.398 -0.4323  0.3777 -0.6323
 9335SOL     OW29604   6.258   5.823   0.896  0.1766 -0.3038  0.0687
 9335SOL    HW129605   6.230   5.882   0.972 -0.6460  0.4591 -0.8022
 9335SOL    HW229606   6.197   5.837   0.818  0.8458 -1.2591 -0.6556
 9336SOL     OW29607   2.639   3.767   1.759  0.8387 -0.4652 -0.1557
 9336SOL    HW129608   2.573   3.725   1.822  1.4338 -0.1092  0.7233
 9336SOL    HW229609   2.721   3.793   1.810  0.8120  1.0282 -0.8146
 9337SOL     OW29610   6.322   5.080   5.232 -0.3452 -0.0312 -0.2935
 9337SOL    HW129611   6.314   5.145   5.156  0.5605 -2.1344 -2.3197
 9337SOL    HW229612   6.252   5.009   5.223  1.5795 -1.9621 -0.9748
 9338SOL     OW29613   3.269   6.089   5.801 -0.1306 -0.0601 -0.2186
 9338SOL    HW129614   3.367   6.103   5.790 -0.2369  0.3423 -0.6831
 9338SOL    HW229615   3.239   6.013   5.743  0.1090 -0.9686  0.8296
 9339SOL     OW29616   4.212   4.183   1.552 -0.6831  0.0812  0.0691
 9339SOL    HW129617   4.123   4.160   1.512 -0.3141 -1.8336  0.2718
 9339SOL    HW229618   4.250   4.103   1.598  1.7313  0.4654 -1.0919
 9340SOL     OW29619   1.587   6.790   2.849  0.0739  0.3289  0.2500
 9340SOL    HW129620   1.487   6.784   2.847  0.1163 -0.3546 -0.1132
 9340SOL    HW229621   1.626   6.715   2.795  0.7914  0.0715  1.0924
 9341SOL     OW29622   0.085   5.964   4.499 -0.1030 -0.2731 -0.5428
 9341SOL    HW129623   0.168   5.995   4.544 -0.4472 -0.5940  0.3422
 9341SOL    HW229624   0.097   5.968   4.400  0.9646 -0.3374 -0.4268
 9342SOL     OW29625   1.880   1.610   4.798  0.4140 -0.1416  0.0906
 9342SOL    HW129626   1.925   1.538   4.851  0.5089 -0.6191 -0.6238
 9342SOL    HW229627   1.948   1.674   4.763  0.3158  0.3860  0.8464
 9343SOL     OW29628   6.440   4.926   3.157 -0.4339 -0.0480 -0.3656
 9343SOL    HW129629   6.374   4.934   3.082 -0.4303 -0.7518 -0.4440
 9343SOL    HW229630   6.397   4.956   3.242 -0.2012  1.5007 -0.7605
 9344SOL     OW29631   3.709   3.985   3.210 -0.0065 -0.5037 -0.0837
 9344SOL    HW129632   3.750   3.901   3.245  1.7525 -0.5743 -2.0951
 9344SOL    HW229633   3.652   3.964   3.131 -0.9417  0.0415  0.4255
 9345SOL     OW29634   4.316   3.110   5.200 -0.4372  0.6013 -0.4325
 9345SOL    HW129635   4.331   3.182   5.268  1.8324 -0.1097 -0.0949
 9345SOL    HW229636   4.364   3.026   5.229 -1.2030 -0.3739 -1.8772
 9346SOL     OW29637   5.679   3.585   1.104  0.2267 -0.6962 -0.0173
 9346SOL    HW129638   5.702   3.504   1.050 -0.9469 -1.5404  0.6969
 9346SOL    HW229639   5.632   3.652   1.046  1.9577 -0.1103 -0.8209
 9347SOL     OW29640   0.414   1.070   3.401 -0.4786  0.0562 -0.3494
 9347SOL    HW129641   0.390   1.152   3.349 -0.7702 -0.4276 -0.9905
 9347SOL    HW229642   0.405   1.089   3.499 -0.1471  0.9076 -0.4768
 9348SOL     OW29643   5.848   5.928   2.104  0.1473  0.0210 -0.1483
 9348SOL    HW129644   5.810   5.860   2.167  0.6516  0.3879  0.5594
 9348SOL    HW229645   5.774   5.984   2.066  0.0125  1.2378  1.8102
 9349SOL     OW29646   1.763   4.716   6.703 -0.1236 -0.0578 -0.0567
 9349SOL    HW129647   1.684   4.662   6.732 -0.1717 -0.1315 -0.3221
 9349SOL    HW229648   1.842   4.693   6.761 -0.2854 -0.0139  0.1803
 9350SOL     OW29649   2.002   3.064   3.026 -0.2990 -0.0651  0.1677
 9350SOL    HW129650   2.097   3.044   3.001 -0.7725 -1.7654 -0.4483
 9350SOL    HW229651   2.000   3.115   3.112  1.1544 -0.5822  0.5372
 9351SOL     OW29652   5.408   3.736   5.440  0.1011 -0.2336  0.2001
 9351SOL    HW129653   5.376   3.724   5.346 -1.0252 -0.7505  0.6334
 9351SOL    HW229654   5.387   3.653   5.493  0.0967  0.3182  1.0788
 9352SOL     OW29655   3.327   1.561   2.032 -0.4773  0.0956 -0.4842
 9352SOL    HW129656   3.394   1.496   1.995 -0.4717  0.6416 -1.4807
 9352SOL    HW229657   3.310   1.632   1.964 -2.2582 -0.1542 -0.3369
 9353SOL     OW29658   3.534   5.907   3.118  0.1988 -0.1009  0.5689
 9353SOL    HW129659   3.605   5.956   3.168 -2.0310  0.2398  3.6892
 9353SOL    HW229660   3.454   5.896   3.176 -1.0860 -3.5697 -1.5560
 9354SOL     OW29661   1.535   1.062   3.269 -0.1338 -0.8532 -0.2060
 9354SOL    HW129662   1.629   1.069   3.303 -0.1916  0.0657 -0.2169
 9354SOL    HW229663   1.500   0.969   3.286  0.5931 -1.0497  0.2601
 9355SOL     OW29664   3.695   2.903   5.702 -0.2194  0.3500 -0.1227
 9355SOL    HW129665   3.727   2.991   5.737  0.8892 -0.3309  0.6595
 9355SOL    HW229666   3.595   2.898   5.708 -0.1904  1.0048  1.1645
 9356SOL     OW29667   1.525   2.643   1.263  0.8612 -0.2024 -0.2215
 9356SOL    HW129668   1.430   2.645   1.295  1.6665  0.0504  2.3929
 9356SOL    HW229669   1.539   2.716   1.197 -0.7778 -0.3203 -0.7478
 9357SOL     OW29670   1.141   3.468   1.573 -0.5657 -0.2791 -0.3102
 9357SOL    HW129671   1.201   3.535   1.530 -1.3109  0.1919 -0.6413
 9357SOL    HW229672   1.070   3.440   1.508 -1.7919  0.5499  0.6226
 9358SOL     OW29673   6.424   5.902   2.772  0.1973 -0.2112  0.6248
 9358SOL    HW129674   6.489   5.968   2.735 -1.0284  0.8632  0.2763
 9358SOL    HW229675   6.425   5.818   2.718 -1.0819  1.0641 -1.5511
 9359SOL     OW29676   5.525   0.761   2.966 -0.0938 -0.2588  0.5769
 9359SOL    HW129677   5.430   0.728   2.963 -0.4156  0.6752 -1.3861
 9359SOL    HW229678   5.561   0.751   3.058 -1.9972 -0.9461  1.2934
 9360SOL     OW29679   5.885   0.660   1.477 -0.1112 -0.2805 -0.0855
 9360SOL    HW129680   5.862   0.664   1.380 -0.3228  2.9517 -0.0264
 9360SOL    HW229681   5.984   0.651   1.487  0.1990  1.7922 -0.7404
 9361SOL     OW29682   5.133   2.119   5.398  0.1614  0.3463 -0.3830
 9361SOL    HW129683   5.106   2.146   5.490  0.2223 -2.5213  0.5862
 9361SOL    HW229684   5.056   2.132   5.335 -0.9500 -0.4904  0.7521
 9362SOL     OW29685   5.997   4.640   2.897  0.1609  0.1454 -0.0401
 9362SOL    HW129686   5.948   4.557   2.869  0.7729 -0.8254  1.6516
 9362SOL    HW229687   5.951   4.720   2.859  0.8940 -0.9968 -3.7956
 9363SOL     OW29688   6.119   0.667   6.110 -0.7392 -0.2576  0.1017
 9363SOL    HW129689   6.141   0.671   6.208  2.3189  2.0855 -0.5586
 9363SOL    HW229690   6.193   0.621   6.061 -0.9390  0.9633 -1.3978
 9364SOL     OW29691   0.921   0.770   2.962  0.2277  0.3952  0.0236
 9364SOL    HW129692   0.867   0.807   3.037 -0.4753 -0.3017 -0.1308
 9364SOL    HW229693   1.016   0.803   2.969 -0.4543  2.6399 -0.4015
 9365SOL     OW29694   1.985   4.991   4.878 -0.4863 -0.6765 -0.3007
 9365SOL    HW129695   2.047   4.995   4.956 -0.4856 -1.7791 -0.2408
 9365SOL    HW229696   1.979   5.082   4.836 -0.2621 -0.1449  0.7966
 9366SOL     OW29697   6.055   1.245   6.672 -0.0131 -0.1948 -0.0646
 9366SOL    HW129698   6.048   1.191   6.756 -1.6896  0.9959  0.6105
 9366SOL    HW229699   6.142   1.293   6.670  0.9090 -1.8011 -0.0071
 9367SOL     OW29700   0.165   2.310   0.486  0.0995 -0.0470  0.2399
 9367SOL    HW129701   0.105   2.340   0.412  0.4719  0.5174  0.1595
 9367SOL    HW229702   0.132   2.346   0.573  1.7433  2.5040 -0.1016
 9368SOL     OW29703   6.030   6.237   1.860  0.4178 -0.0640  0.2424
 9368SOL    HW129704   6.072   6.315   1.907 -0.7020  0.4742  0.3866
 9368SOL    HW229705   6.048   6.153   1.911  2.1196 -0.0144 -0.2075
 9369SOL     OW29706   6.795   2.085   4.788 -0.7959  0.6559  0.0280
 9369SOL    HW129707   6.867   2.065   4.855 -1.0500 -3.1992 -0.6098
 9369SOL    HW229708   6.837   2.114   4.702 -0.1146  0.3460  0.2446
 9370SOL     OW29709   5.058   0.100   2.792  0.2175 -0.2267  0.1427
 9370SOL    HW129710   5.046   0.184   2.846 -2.0634 -0.6469  0.3624
 9370SOL    HW229711   5.146   0.058   2.816  1.6024  2.2317 -0.2218
 9371SOL     OW29712   4.139   1.007   2.645  0.8759 -0.1182 -0.2586
 9371SOL    HW129713   4.057   0.953   2.627  0.3298  0.1590  1.2311
 9371SOL    HW229714   4.218   0.962   2.604  0.1431 -0.9940 -0.7561
 9372SOL     OW29715   6.105   4.026   3.495  0.2991  0.0098  0.5459
 9372SOL    HW129716   6.022   4.064   3.536  0.1380  0.6428 -0.3352
 9372SOL    HW229717   6.172   4.099   3.483  0.6382 -0.3254  0.4060
 9373SOL     OW29718   0.398   0.136   2.917  0.1101  0.2762  0.5045
 9373SOL    HW129719   0.492   0.103   2.914 -0.1867 -1.0711  3.1689
 9373SOL    HW229720   0.384   0.204   2.846  2.4544 -1.0804 -1.3909
 9374SOL     OW29721   2.126   1.905   1.457  0.6599  0.3303 -0.3573
 9374SOL    HW129722   2.139   1.986   1.514  0.6473  0.8180 -1.0492
 9374SOL    HW229723   2.029   1.895   1.433  0.8093  0.7096 -1.1476
 9375SOL     OW29724   6.492   4.483   2.096 -0.9195  0.4872 -0.1444
 9375SOL    HW129725   6.542   4.511   2.178 -1.8914  0.2619  0.5419
 9375SOL    HW229726   6.413   4.543   2.082 -2.5682 -1.3041  0.9020
 9376SOL     OW29727   6.447   2.308   0.994  0.0676  0.2176  0.4147
 9376SOL    HW129728   6.544   2.297   0.976 -0.0742 -0.2386 -0.0772
 9376SOL    HW229729   6.414   2.392   0.951 -0.2227 -0.7437 -1.3527
 9377SOL     OW29730   3.979   0.289   5.420  0.4125  0.2266 -0.2786
 9377SOL    HW129731   3.924   0.284   5.337 -2.5409 -2.3155  1.6027
 9377SOL    HW229732   4.019   0.199   5.438 -1.3842 -0.1233  2.4227
 9378SOL     OW29733   3.703   1.594   4.601 -0.5283  0.2113  0.5527
 9378SOL    HW129734   3.758   1.625   4.678  0.7381 -0.1422 -0.1730
 9378SOL    HW229735   3.652   1.512   4.628  0.0010  0.0157  0.9994
 9379SOL     OW29736   6.221   6.665   0.482 -0.0841  1.0173  1.0051
 9379SOL    HW129737   6.137   6.713   0.507 -0.2007  1.1351  0.4014
 9379SOL    HW229738   6.213   6.630   0.389  1.2140  2.6248  0.2386
 9380SOL     OW29739   5.415   1.768   1.942  0.0066  0.1830 -0.5590
 9380SOL    HW129740   5.427   1.850   1.998  0.7541 -0.2849  0.0031
 9380SOL    HW229741   5.326   1.727   1.961 -0.1728  0.5981 -0.4893
 9381SOL     OW29742   6.281   6.292   5.787 -0.1501  0.2135  0.0280
 9381SOL    HW129743   6.282   6.281   5.688  1.2297 -0.2491  0.0823
 9381SOL    HW229744   6.368   6.262   5.825 -1.0975 -0.7944  1.5048
 9382SOL     OW29745   5.807   1.349   0.874 -0.9154 -0.3528  0.5919
 9382SOL    HW129746   5.781   1.337   0.970 -1.4259  0.0263  0.5007
 9382SOL    HW229747   5.881   1.286   0.852 -1.2757 -0.9482  1.0485
 9383SOL     OW29748   3.863   3.780   3.282 -0.1268 -0.6363 -0.3339
 9383SOL    HW129749   3.803   3.700   3.272 -0.1503 -0.6666  0.0219
 9383SOL    HW229750   3.952   3.751   3.318 -0.0686 -0.5296 -0.3931
 9384SOL     OW29751   6.321   3.829   4.387 -0.0631 -0.4356  0.3506
 9384SOL    HW129752   6.321   3.733   4.360 -0.3370 -0.8186  1.6441
 9384SOL    HW229753   6.304   3.836   4.485 -0.0425  0.9404  0.2747
 9385SOL     OW29754   6.941   3.162   3.805 -0.2726  0.0417 -0.0707
 9385SOL    HW129755   7.009   3.230   3.833  1.5751 -0.2056 -3.3751
 9385SOL    HW229756   6.971   3.071   3.832  0.3989 -0.0006 -0.9297
 9386SOL     OW29757   5.449   0.037   5.272  0.5508 -0.1941  0.0153
 9386SOL    HW129758   5.495  -0.022   5.338  0.2410 -0.2483  0.1853
 9386SOL    HW229759   5.513   0.105   5.237  0.1677  1.3166  2.0839
 9387SOL     OW29760   1.323   2.350   0.264  0.3368  0.2287  0.3835
 9387SOL    HW129761   1.380   2.276   0.298  0.2082  0.8457  2.0289
 9387SOL    HW229762   1.241   2.359   0.321 -0.0181  1.1481 -0.2391
 9388SOL     OW29763   0.319   6.360   2.257 -0.6183  0.4886 -0.2351
 9388SOL    HW129764   0.231   6.406   2.264 -0.2369  1.0008  1.9960
 9388SOL    HW229765   0.392   6.428   2.250 -0.3062  0.1076 -0.7334
 9389SOL     OW29766   4.634   0.756   1.178 -0.0339  0.0451 -0.2354
 9389SOL    HW129767   4.543   0.796   1.168  0.5630  1.6098  0.2386
 9389SOL    HW229768   4.701   0.811   1.126  0.8808 -0.0589  0.7820
 9390SOL     OW29769   0.071   3.786   0.048 -0.0959  0.1924 -0.3085
 9390SOL    HW129770   0.149   3.762  -0.010  2.1257  1.3565  1.9497
 9390SOL    HW229771   0.074   3.884   0.068 -1.7446  0.1244  0.4063
 9391SOL     OW29772   0.311   1.723   1.936 -0.0865  0.0299  0.5737
 9391SOL    HW129773   0.283   1.644   1.882 -1.9851  1.6426 -0.9256
 9391SOL    HW229774   0.292   1.807   1.886  1.5443  1.5163  2.2553
 9392SOL     OW29775   5.142   2.933   1.171  0.1611  0.8959 -0.3394
 9392SOL    HW129776   5.088   3.014   1.193  1.2697  1.2840  1.1014
 9392SOL    HW229777   5.120   2.860   1.235 -0.7266  0.0732 -1.5409
 9393SOL     OW29778   5.340   5.919   3.437 -0.5453 -0.7167  0.1472
 9393SOL    HW129779   5.396   5.988   3.391  0.3346 -0.3863  1.6548
 9393SOL    HW229780   5.293   5.962   3.514 -2.5974 -1.0792 -0.8378
 9394SOL     OW29781   2.967   3.792   6.091 -0.1825 -0.0272 -0.1496
 9394SOL    HW129782   2.945   3.695   6.086  0.4887 -0.2634  1.0373
 9394SOL    HW229783   3.031   3.808   6.166 -0.7431  1.4254  0.0555
 9395SOL     OW29784   2.477   2.494   4.467  0.0782 -0.7153  0.6326
 9395SOL    HW129785   2.431   2.533   4.547  0.9927  1.0730  0.3208
 9395SOL    HW229786   2.442   2.537   4.384  1.3667 -0.2766  0.2987
 9396SOL     OW29787   2.847   5.067   5.263  0.4673  0.5340  0.4065
 9396SOL    HW129788   2.938   5.068   5.305  0.1535  1.2552  1.0990
 9396SOL    HW229789   2.854   5.091   5.166  1.2148 -1.2501 -0.0282
 9397SOL     OW29790   5.403   3.065   0.997 -0.3283 -0.4810  0.5335
 9397SOL    HW129791   5.425   3.158   1.030  2.2444 -0.6681 -0.3984
 9397SOL    HW229792   5.414   3.000   1.073  0.1837 -0.2756  0.6454
 9398SOL     OW29793   3.178   0.105   0.029 -0.4554 -0.2125  0.0844
 9398SOL    HW129794   3.148   0.198   0.054  1.1929  0.2013  0.6112
 9398SOL    HW229795   3.138   0.039   0.093  0.5547  0.4338  1.4263
 9399SOL     OW29796   0.776   1.100   3.061 -0.0225  0.1731  0.6262
 9399SOL    HW129797   0.869   1.124   3.032  0.0582 -0.5780  0.2571
 9399SOL    HW229798   0.778   1.016   3.114 -0.7197 -1.0730 -1.2119
 9400SOL     OW29799   1.302   2.468   3.072  0.6294 -0.5836  0.3691
 9400SOL    HW129800   1.245   2.547   3.049  1.2552 -0.3113 -0.2658
 9400SOL    HW229801   1.244   2.395   3.108 -0.0664 -0.1444  0.1578
 9401SOL     OW29802   4.182   0.302   3.773  0.1950  0.0359 -0.2337
 9401SOL    HW129803   4.262   0.362   3.777 -0.0659  0.4362 -0.8706
 9401SOL    HW229804   4.101   0.354   3.799 -0.2160  0.3216 -1.9261
 9402SOL     OW29805   3.056   0.727   1.189  0.3827  0.1511  0.5644
 9402SOL    HW129806   3.154   0.746   1.183  0.1306  0.9628 -2.4653
 9402SOL    HW229807   3.005   0.811   1.175 -0.8294 -0.1726  2.6038
 9403SOL     OW29808   2.967   0.289   2.744  0.3545 -1.0452  1.0921
 9403SOL    HW129809   3.005   0.252   2.660  3.5184  0.1342  1.8517
 9403SOL    HW229810   2.908   0.221   2.787 -0.7085 -1.9460 -1.6241
 9404SOL     OW29811   4.980   0.025   1.874  0.1516  0.1093 -0.0605
 9404SOL    HW129812   4.900   0.069   1.914  0.2399  0.7005 -0.5230
 9404SOL    HW229813   4.956  -0.067   1.844  0.0292 -0.2802  1.1566
 9405SOL     OW29814   5.735   2.401   2.704 -0.2242  0.1798 -0.1788
 9405SOL    HW129815   5.726   2.408   2.803  0.0876 -0.4297 -0.1005
 9405SOL    HW229816   5.811   2.459   2.673  0.3606 -0.4379  0.0754
 9406SOL     OW29817   0.820   5.704   0.847  0.2487  0.0543 -0.5099
 9406SOL    HW129818   0.819   5.609   0.876 -0.1361 -0.1212 -1.0814
 9406SOL    HW229819   0.787   5.762   0.921 -1.1036 -0.4258 -0.7131
 9407SOL     OW29820   5.740   2.045   2.813 -0.0182 -0.2178  0.4238
 9407SOL    HW129821   5.801   2.067   2.737 -1.1386  1.1025 -0.1433
 9407SOL    HW229822   5.722   1.947   2.814  1.7148 -0.5743  0.3352
 9408SOL     OW29823   6.748   3.348   5.308 -0.0260 -0.5301 -0.0879
 9408SOL    HW129824   6.679   3.332   5.379 -0.1754  0.9899  0.1369
 9408SOL    HW229825   6.769   3.262   5.262 -2.8720 -0.8684 -0.9038
 9409SOL     OW29826   4.683   0.162   0.736 -0.2132 -0.1724  0.4254
 9409SOL    HW129827   4.606   0.224   0.719 -1.4822 -1.6635  0.4861
 9409SOL    HW229828   4.722   0.133   0.649 -0.8604 -0.7516  0.3159
 9410SOL     OW29829   1.337   3.154   1.394  0.2438  0.0827 -0.2378
 9410SOL    HW129830   1.276   3.180   1.319  0.6099 -0.5654 -0.7683
 9410SOL    HW229831   1.359   3.235   1.449  1.1947  0.8706 -1.7245
 9411SOL     OW29832   1.767   1.822   4.225  0.2038 -0.5400 -0.3629
 9411SOL    HW129833   1.787   1.844   4.129  0.7038 -0.0469 -0.1517
 9411SOL    HW229834   1.667   1.820   4.238  0.1345 -0.2147 -0.8056
 9412SOL     OW29835   0.494   6.283   1.103  0.5518  0.0014 -0.1092
 9412SOL    HW129836   0.578   6.231   1.086 -0.2954 -1.7448  0.7199
 9412SOL    HW229837   0.417   6.219   1.108 -0.9742  1.6303 -1.6924
 9413SOL     OW29838   3.541   2.293   1.726 -0.0565 -0.3383 -0.2699
 9413SOL    HW129839   3.567   2.298   1.629 -0.3529 -1.3227 -0.4072
 9413SOL    HW229840   3.520   2.385   1.759  0.9993  0.1352 -0.8718
 9414SOL     OW29841   5.289   2.265   2.046 -0.6839 -0.5769 -0.1625
 9414SOL    HW129842   5.208   2.224   2.088  0.0917 -0.1357  1.8881
 9414SOL    HW229843   5.265   2.352   2.005 -1.0895  0.0925  1.4133
 9415SOL     OW29844   1.709   1.204   2.015  0.3334  0.2784 -0.5812
 9415SOL    HW129845   1.683   1.142   1.941 -1.3550 -1.0548  1.0432
 9415SOL    HW229846   1.752   1.152   2.089 -2.4090  0.6584  1.4457
 9416SOL     OW29847   6.165   0.770   4.210  0.3698 -0.7552  0.2786
 9416SOL    HW129848   6.127   0.831   4.278 -0.6382 -0.8587 -0.1701
 9416SOL    HW229849   6.113   0.684   4.209 -0.0469 -0.5108 -1.0437
 9417SOL     OW29850   1.774   3.351   1.857  0.1357 -0.0301  0.2637
 9417SOL    HW129851   1.841   3.346   1.932  0.1056 -1.4846  0.2228
 9417SOL    HW229852   1.701   3.284   1.873 -1.1939  1.3519  0.1726
 9418SOL     OW29853   2.219   2.135   4.843  0.0646 -0.0846 -0.1704
 9418SOL    HW129854   2.180   2.073   4.911  0.4567  0.8374  0.9341
 9418SOL    HW229855   2.231   2.087   4.756 -0.1593 -1.3788  0.4947
 9419SOL     OW29856   5.123   6.775   6.639 -0.3154  0.1692  0.2274
 9419SOL    HW129857   5.181   6.831   6.698 -2.4300  0.5167  2.1355
 9419SOL    HW229858   5.113   6.819   6.550 -0.5891  2.0269  1.1313
 9420SOL     OW29859   0.896   2.073   6.062  0.1512  0.4544  0.4170
 9420SOL    HW129860   0.832   2.026   6.000  0.4527  1.4745 -0.6957
 9420SOL    HW229861   0.853   2.083   6.152 -0.5973 -0.3753  0.1696
 9421SOL     OW29862   2.083   4.576   0.304 -0.1684  0.0846  0.3499
 9421SOL    HW129863   2.088   4.676   0.302 -0.2587  0.0770 -0.5015
 9421SOL    HW229864   2.054   4.546   0.396  1.0846  0.7740  0.9955
 9422SOL     OW29865   1.842   4.817   5.170 -0.1490 -0.2192 -0.0620
 9422SOL    HW129866   1.858   4.818   5.071 -0.1385  0.9464 -0.0590
 9422SOL    HW229867   1.863   4.907   5.208 -2.0801 -0.0473  0.6882
 9423SOL     OW29868   2.650   6.979   2.779  0.1764 -0.3684 -0.2399
 9423SOL    HW129869   2.666   7.059   2.721  0.4596  0.4042  0.8695
 9423SOL    HW229870   2.736   6.953   2.823 -0.0715 -0.8416 -0.0369
 9424SOL     OW29871   0.143   5.065   4.455  0.1010 -0.4179  0.0037
 9424SOL    HW129872   0.213   5.120   4.501  1.7802 -0.2736 -2.5525
 9424SOL    HW229873   0.137   4.975   4.500  1.3960 -0.1740  0.7114
 9425SOL     OW29874   4.521   6.785   6.914 -0.3098 -0.4488  0.2337
 9425SOL    HW129875   4.620   6.772   6.910 -0.3633 -0.5246 -3.0765
 9425SOL    HW229876   4.497   6.871   6.869 -1.7081  0.1954  2.0947
 9426SOL     OW29877   2.470   1.874   3.402  0.6332 -0.1803 -0.4082
 9426SOL    HW129878   2.384   1.839   3.365 -0.2332 -0.3058  1.5858
 9426SOL    HW229879   2.546   1.847   3.343 -0.4248 -2.1781 -0.9284
 9427SOL     OW29880   2.193   6.295   5.648 -0.2357 -0.2128  0.6694
 9427SOL    HW129881   2.204   6.307   5.549 -1.5622 -0.9977  0.4070
 9427SOL    HW229882   2.146   6.375   5.686  0.6431  0.2804  0.7584
 9428SOL     OW29883   1.817   6.129   0.799 -0.0926 -0.2147 -0.9821
 9428SOL    HW129884   1.901   6.183   0.796  0.8477 -1.5868 -0.5186
 9428SOL    HW229885   1.839   6.036   0.830 -1.8740 -0.4258 -0.2599
 9429SOL     OW29886   0.785   2.110   6.340  0.2381 -0.3898 -0.1630
 9429SOL    HW129887   0.741   2.194   6.310 -0.5150 -0.5935  0.3484
 9429SOL    HW229888   0.725   2.061   6.403  1.0436 -0.8656  0.2534
 9430SOL     OW29889   1.316   6.169   4.085  0.0471 -0.1123 -0.1564
 9430SOL    HW129890   1.336   6.160   4.183  0.3127  1.6884 -0.0061
 9430SOL    HW229891   1.220   6.193   4.072 -0.0912 -0.7731 -0.3703
 9431SOL     OW29892   1.647   1.165   5.177  0.3779  0.1167 -0.2358
 9431SOL    HW129893   1.682   1.117   5.257 -1.2699 -2.0699 -0.7332
 9431SOL    HW229894   1.553   1.135   5.159 -1.0007  3.9672 -0.3134
 9432SOL     OW29895   0.237   0.167   4.829 -0.2014 -0.3146 -0.0385
 9432SOL    HW129896   0.258   0.122   4.915  0.1807  0.1486  0.1166
 9432SOL    HW229897   0.306   0.237   4.810  0.4014 -1.2127 -1.3255
 9433SOL     OW29898   4.108   0.655   0.836  0.1624 -0.2973  0.1947
 9433SOL    HW129899   4.134   0.569   0.882 -0.0640 -1.2865 -1.4571
 9433SOL    HW229900   4.052   0.710   0.899  3.3461  0.4106  2.6635
 9434SOL     OW29901   0.713   3.925   4.571  0.2276  0.2220  0.1643
 9434SOL    HW129902   0.759   3.858   4.629 -0.0396 -1.1376 -1.1392
 9434SOL    HW229903   0.636   3.965   4.620  0.8877  0.1938  1.2475
 9435SOL     OW29904   4.837   5.889   1.628 -0.1418 -0.5304  0.6753
 9435SOL    HW129905   4.779   5.863   1.551 -0.3318 -0.7334  0.8869
 9435SOL    HW229906   4.933   5.878   1.603 -0.1164  1.1939 -0.1986
 9436SOL     OW29907   5.958   3.839   0.495  0.1731 -0.2874  0.0855
 9436SOL    HW129908   5.884   3.801   0.550  0.7108 -0.4743  0.6977
 9436SOL    HW229909   6.041   3.848   0.552  0.1703  1.4644 -0.1263
 9437SOL     OW29910   1.180   2.161   1.619 -0.8481 -0.4230  0.1486
 9437SOL    HW129911   1.104   2.226   1.625 -1.2951 -0.9835  0.7482
 9437SOL    HW229912   1.218   2.146   1.711  0.1791  0.0630 -0.1776
 9438SOL     OW29913   3.267   6.899   0.358  0.3381 -0.3645 -0.0636
 9438SOL    HW129914   3.342   6.914   0.295  1.1409 -2.4031  0.3366
 9438SOL    HW229915   3.285   6.818   0.414 -2.0309 -0.7659  0.2386
 9439SOL     OW29916   3.339   6.757   4.890  0.2623 -0.2009 -0.7920
 9439SOL    HW129917   3.242   6.767   4.912  0.2664  1.5495 -1.4310
 9439SOL    HW229918   3.393   6.792   4.966  0.4057 -0.8571 -0.5832
 9440SOL     OW29919   1.783   0.524   0.096  0.3584  0.2017  0.2192
 9440SOL    HW129920   1.776   0.605   0.155 -1.3409 -0.0356  0.3809
 9440SOL    HW229921   1.771   0.442   0.151  2.0231 -0.1838  0.0429
 9441SOL     OW29922   6.664   0.310   1.968 -0.0021 -0.4766 -0.6694
 9441SOL    HW129923   6.714   0.303   2.055  0.8996 -0.7871 -1.2037
 9441SOL    HW229924   6.727   0.294   1.892 -0.8668 -0.5908 -1.3729
 9442SOL     OW29925   3.606   5.191   1.494  0.1576 -0.0847  0.7097
 9442SOL    HW129926   3.615   5.105   1.545 -0.1961  1.2831  3.2621
 9442SOL    HW229927   3.532   5.245   1.535  0.5212  1.5408 -0.7080
 9443SOL     OW29928   6.161   4.630   2.228 -0.0495 -0.5243  0.4799
 9443SOL    HW129929   6.195   4.556   2.285 -2.7781 -1.0354  1.5900
 9443SOL    HW229930   6.113   4.698   2.285 -0.4421  0.3860 -0.8764
 9444SOL     OW29931   1.978   3.161   1.582  0.8442 -0.6342  0.0254
 9444SOL    HW129932   1.883   3.173   1.609  0.0476  1.9205 -3.3249
 9444SOL    HW229933   2.037   3.217   1.641 -0.3628  1.7819 -0.9701
 9445SOL     OW29934   2.759   1.460   1.418  0.1871 -0.1012 -0.3815
 9445SOL    HW129935   2.759   1.428   1.323  1.0534 -1.1724 -0.0414
 9445SOL    HW229936   2.681   1.520   1.433 -1.2381 -1.6834 -1.1867
 9446SOL     OW29937   1.562   3.176   1.972  0.2387 -0.0971  0.0010
 9446SOL    HW129938   1.492   3.106   1.958  0.0001  0.2401 -0.5261
 9446SOL    HW229939   1.556   3.210   2.066  0.9978 -1.4604  0.5748
 9447SOL     OW29940   4.746   1.925   5.030  0.2441  0.1589  0.0941
 9447SOL    HW129941   4.703   2.012   5.006  2.9131  1.3976 -0.5456
 9447SOL    HW229942   4.809   1.897   4.958  1.1238 -1.1586  1.2985
 9448SOL     OW29943   3.658   2.096   4.932 -0.3707 -0.2313 -0.3256
 9448SOL    HW129944   3.592   2.020   4.930 -1.0006  0.2827  0.2355
 9448SOL    HW229945   3.638   2.155   5.011  0.8929 -0.1682 -0.0403
 9449SOL     OW29946   5.288   5.411   4.728 -0.1345  0.5404 -0.4079
 9449SOL    HW129947   5.211   5.413   4.664 -1.1297 -0.4322  0.7065
 9449SOL    HW229948   5.288   5.324   4.778  0.6274  1.2414  0.8749
 9450SOL     OW29949   1.505   4.451   3.976  0.3822 -0.0396  0.0163
 9450SOL    HW129950   1.443   4.410   4.043  0.5164  0.0426  0.1906
 9450SOL    HW229951   1.560   4.380   3.933  0.3147 -0.0892  0.0103
 9451SOL     OW29952   3.617   1.071   5.274 -0.1810  0.0986 -0.2109
 9451SOL    HW129953   3.682   1.006   5.234  1.1448  1.2772 -0.0747
 9451SOL    HW229954   3.526   1.032   5.273  0.3355 -1.1775 -1.4579
 9452SOL     OW29955   6.709   2.999   6.480 -0.8094  0.1991  0.7796
 9452SOL    HW129956   6.648   2.926   6.510 -0.0662 -0.7274  0.1136
 9452SOL    HW229957   6.691   3.020   6.384 -0.3251  0.1610  0.6780
 9453SOL     OW29958   3.016   0.397   5.132 -0.2758  0.0366  0.8998
 9453SOL    HW129959   3.012   0.330   5.058 -2.0129 -0.2192  1.1838
 9453SOL    HW229960   2.931   0.449   5.134  0.7979  1.8560  1.0789
 9454SOL     OW29961   4.087   0.285   1.172 -0.5457 -0.2836 -0.6786
 9454SOL    HW129962   4.112   0.202   1.123 -0.2934 -0.8096  0.3073
 9454SOL    HW229963   4.168   0.323   1.217 -1.0534 -0.7613  0.7108
 9455SOL     OW29964   3.410   1.590   6.406 -0.2562 -0.0799  0.2401
 9455SOL    HW129965   3.465   1.672   6.418 -0.5958  0.0076  1.3144
 9455SOL    HW229966   3.316   1.609   6.435 -1.1698  0.0944 -2.5542
 9456SOL     OW29967   0.867   7.000   3.650 -0.3179  0.6009 -0.0902
 9456SOL    HW129968   0.863   7.012   3.550 -1.2970  0.8111 -0.0429
 9456SOL    HW229969   0.889   7.087   3.693  1.2892  0.2610 -0.1629
 9457SOL     OW29970   5.642   2.317   4.743 -0.9865  0.2587  0.1158
 9457SOL    HW129971   5.702   2.237   4.741  0.9504  1.6748 -1.4381
 9457SOL    HW229972   5.612   2.332   4.838 -2.7612 -3.1495  0.2850
 9458SOL     OW29973   6.562   0.159   3.672  0.0850 -0.2246  0.2295
 9458SOL    HW129974   6.580   0.151   3.771  0.6226 -2.0448  0.0385
 9458SOL    HW229975   6.623   0.096   3.623  1.5554  2.3691 -1.4965
 9459SOL     OW29976   4.059   4.435   6.838  0.4039  0.4225 -0.1391
 9459SOL    HW129977   4.001   4.499   6.887  2.3737  1.3566  1.1202
 9459SOL    HW229978   4.094   4.478   6.755 -1.5560 -0.5586 -1.5529
 9460SOL     OW29979   6.304   4.701   2.016  0.4734  0.6144 -0.4472
 9460SOL    HW129980   6.246   4.753   1.953 -0.4278  2.2410  1.5941
 9460SOL    HW229981   6.248   4.667   2.092  1.7742  0.1112  0.3200
 9461SOL     OW29982   2.216   4.660   5.241 -0.0217 -0.0645  0.3460
 9461SOL    HW129983   2.235   4.747   5.195  0.8053 -0.1491  0.5028
 9461SOL    HW229984   2.136   4.669   5.300  1.2682  1.2085  1.9827
 9462SOL     OW29985   6.799   0.292   1.732  0.2034  0.5980  0.2361
 9462SOL    HW129986   6.783   0.390   1.720  0.8901  0.9514  1.8722
 9462SOL    HW229987   6.893   0.270   1.707  0.3101  0.5371  0.6672
 9463SOL     OW29988   2.445   1.272   5.992  0.6264 -0.3392 -0.2445
 9463SOL    HW129989   2.544   1.279   6.005  0.5934  0.9966 -0.5715
 9463SOL    HW229990   2.415   1.342   5.928 -0.6898 -0.0463  0.6613
 9464SOL     OW29991   4.100   3.978   5.706 -0.0889 -0.1110  0.1484
 9464SOL    HW129992   4.039   4.038   5.758 -0.5372 -1.1888  0.9150
 9464SOL    HW229993   4.195   3.995   5.731 -0.2118  0.2763  0.3508
 9465SOL     OW29994   6.796   2.160   0.725 -0.7821  0.5738  0.4418
 9465SOL    HW129995   6.754   2.220   0.793 -0.7116 -0.3248  1.3019
 9465SOL    HW229996   6.725   2.127   0.662 -0.8926  1.2020  0.2300
 9466SOL     OW29997   0.027   5.133   2.548 -0.1357 -0.2490 -0.0938
 9466SOL    HW129998   0.049   5.218   2.595 -0.8458 -0.2116  0.1870
 9466SOL    HW229999   0.078   5.058   2.590 -0.0932 -0.0799  0.1625
 9467SOL     OW30000   3.583   2.905   0.802  0.4304  0.6585 -0.3389
 9467SOL    HW130001   3.562   2.938   0.893  0.6598  1.4222 -0.5570
 9467SOL    HW230002   3.542   2.814   0.789 -0.4066  0.9556  0.1822
 9468SOL     OW30003   1.746   3.478   5.114 -0.0057 -0.0242  0.9182
 9468SOL    HW130004   1.651   3.511   5.105  0.0385  0.1238  0.9952
 9468SOL    HW230005   1.805   3.534   5.056  0.3315  1.1271  2.3391
 9469SOL     OW30006   5.904   6.148   3.187  0.8738  0.1054 -0.1353
 9469SOL    HW130007   5.980   6.089   3.215  1.1571  0.6358  0.2381
 9469SOL    HW230008   5.829   6.092   3.153  1.7224 -0.4036 -1.2498
 9470SOL     OW30009   6.898   1.290   0.101 -0.3281 -0.0291 -0.6192
 9470SOL    HW130010   6.953   1.245   0.171 -0.5520  0.0565 -0.3857
 9470SOL    HW230011   6.808   1.311   0.139 -0.4138  0.1096 -0.9031
 9471SOL     OW30012   4.146   4.372   6.290  0.4031  0.1924  0.0201
 9471SOL    HW130013   4.087   4.376   6.210 -1.5267  0.2235  1.3876
 9471SOL    HW230014   4.188   4.461   6.305 -0.3564  0.5820 -0.1439
 9472SOL     OW30015   1.768   4.550   1.468 -0.9266  1.2883  0.0068
 9472SOL    HW130016   1.677   4.508   1.458 -0.5997  0.5460  0.0431
 9472SOL    HW230017   1.829   4.485   1.514 -0.2619  1.6132 -0.4052
 9473SOL     OW30018   2.153   0.848   4.559  0.5029  0.5559  0.1636
 9473SOL    HW130019   2.250   0.873   4.566  0.4384  0.8117  0.1489
 9473SOL    HW230020   2.145   0.749   4.543  0.7227  0.1834  2.0865
 9474SOL     OW30021   0.958   3.331   3.618  0.1567 -0.5109 -0.5944
 9474SOL    HW130022   0.976   3.261   3.686 -1.8819  0.2775  0.8707
 9474SOL    HW230023   0.860   3.335   3.600  0.5162  0.1735 -2.6656
 9475SOL     OW30024   0.822   5.985   0.522 -0.0887 -0.2815 -0.2160
 9475SOL    HW130025   0.735   6.026   0.493  0.2783  0.5944 -0.1131
 9475SOL    HW230026   0.871   5.953   0.441 -0.0327  0.1954 -0.3758
 9476SOL     OW30027   0.957   2.328   1.583 -0.0465 -0.3655  0.2672
 9476SOL    HW130028   0.879   2.312   1.643  0.7815  0.1998  1.5198
 9476SOL    HW230029   0.943   2.413   1.532 -0.6125 -0.6980 -0.1507
 9477SOL     OW30030   5.761   5.392   1.384 -0.2433 -0.0631 -0.5053
 9477SOL    HW130031   5.859   5.388   1.365  0.1220  0.2978  1.1732
 9477SOL    HW230032   5.714   5.320   1.334  0.9467 -0.5920 -0.8871
 9478SOL     OW30033   0.560   5.299   1.822  0.3764  0.3662 -0.3636
 9478SOL    HW130034   0.630   5.228   1.833 -0.1178 -0.7133 -3.2048
 9478SOL    HW230035   0.596   5.373   1.766 -0.0866  0.8452 -0.0305
 9479SOL     OW30036   1.637   0.322   6.401 -0.0370 -0.3794  0.1714
 9479SOL    HW130037   1.662   0.380   6.323 -0.8516 -1.1158 -0.6581
 9479SOL    HW230038   1.692   0.348   6.480  0.3894  0.7839 -0.4791
 9480SOL     OW30039   4.965   4.118   6.920 -0.8465  0.0108 -0.1959
 9480SOL    HW130040   5.050   4.070   6.942  0.4291  1.5287 -1.5146
 9480SOL    HW230041   4.912   4.063   6.855  0.0253 -0.1491 -0.7886
 9481SOL     OW30042   5.971   6.407   3.865 -0.1371  0.1046 -0.2908
 9481SOL    HW130043   6.031   6.487   3.852 -0.1434  0.2465  0.5046
 9481SOL    HW230044   6.023   6.334   3.910 -0.0031 -0.5164 -1.4227
 9482SOL     OW30045   6.320   2.854   4.441 -0.3204 -0.5292  0.2259
 9482SOL    HW130046   6.241   2.794   4.437  0.4762 -1.5899 -0.3150
 9482SOL    HW230047   6.384   2.829   4.367  0.1585  0.8014  0.1687
 9483SOL     OW30048   6.404   3.661   1.353  0.4566  0.6493 -0.2948
 9483SOL    HW130049   6.462   3.701   1.424  1.4959 -0.2400 -0.6279
 9483SOL    HW230050   6.417   3.711   1.268  1.0994  0.1736 -0.4861
 9484SOL     OW30051   5.782   4.724   2.134 -0.0647  0.2205  0.0279
 9484SOL    HW130052   5.796   4.662   2.212 -0.4505  2.1977  1.7761
 9484SOL    HW230053   5.687   4.716   2.102 -0.5547  0.8998  1.2267
 9485SOL     OW30054   0.788   5.999   6.116 -0.0914 -0.8275 -1.2813
 9485SOL    HW130055   0.703   5.950   6.136 -2.5325  2.7309 -1.9617
 9485SOL    HW230056   0.827   6.034   6.202  0.2560 -1.7327 -1.0546
 9486SOL     OW30057   6.678   6.137   6.331 -0.2483 -0.4045  0.3232
 9486SOL    HW130058   6.733   6.187   6.263 -1.4921  0.2455 -0.2285
 9486SOL    HW230059   6.676   6.189   6.416 -1.1534  0.2804 -0.1022
 9487SOL     OW30060   6.191   5.670   5.171 -0.3384  0.1672  0.1173
 9487SOL    HW130061   6.154   5.650   5.261 -0.3433  0.0490  0.0897
 9487SOL    HW230062   6.255   5.746   5.177 -1.5310  1.2118 -0.0451
 9488SOL     OW30063   5.143   0.775   4.151 -0.2208 -0.1343 -0.4496
 9488SOL    HW130064   5.229   0.726   4.134  0.7793  2.1538 -2.7465
 9488SOL    HW230065   5.125   0.837   4.075 -3.4765  0.1739  0.4272
 9489SOL     OW30066   6.583   1.872   6.177 -0.7429  0.1713 -0.4491
 9489SOL    HW130067   6.643   1.794   6.159  0.1332  1.0465 -1.5039
 9489SOL    HW230068   6.561   1.917   6.090 -1.2195  1.0981  0.1439
 9490SOL     OW30069   1.013   6.185   4.962  0.3727  0.2872 -0.6354
 9490SOL    HW130070   1.058   6.261   5.008  0.9514 -0.2255 -0.3545
 9490SOL    HW230071   0.969   6.126   5.029  0.4062  0.0620 -0.8094
 9491SOL     OW30072   0.607   5.158   4.670  0.1859  0.7178 -0.1675
 9491SOL    HW130073   0.592   5.251   4.702  1.5222  0.8430  0.1221
 9491SOL    HW230074   0.658   5.106   4.738  1.8394  0.5801 -1.4448
 9492SOL     OW30075   0.557   5.031   3.476  0.5182  0.0646 -0.4603
 9492SOL    HW130076   0.518   5.077   3.397 -2.1347 -0.6298  0.3439
 9492SOL    HW230077   0.608   5.096   3.532 -0.9890  1.4556 -0.6618
 9493SOL     OW30078   0.518   2.445   3.815  0.3408 -0.1667 -0.3595
 9493SOL    HW130079   0.548   2.512   3.883 -2.4670 -0.8618  1.7649
 9493SOL    HW230080   0.424   2.465   3.787  0.4521 -1.5510 -1.9284
 9494SOL     OW30081   1.294   1.586   3.802  0.1745  0.1719 -1.2359
 9494SOL    HW130082   1.324   1.630   3.718 -1.5753  1.2824 -1.3362
 9494SOL    HW230083   1.194   1.594   3.810  0.0986 -1.4929  0.0713
 9495SOL     OW30084   2.336   2.120   3.731  0.0936 -0.4848  0.1421
 9495SOL    HW130085   2.359   2.156   3.821 -2.7266  1.4893  0.2232
 9495SOL    HW230086   2.396   2.162   3.662  1.3382 -0.9357  0.9232
 9496SOL     OW30087   0.466   3.508   3.023  0.6787  0.9556  0.7750
 9496SOL    HW130088   0.523   3.585   2.994  1.6711  0.3892  1.1527
 9496SOL    HW230089   0.382   3.507   2.970  1.0926  1.7163  0.0740
 9497SOL     OW30090   0.978   0.620   3.256  0.0334  0.0953 -0.5932
 9497SOL    HW130091   0.963   0.605   3.354 -2.2406  0.7293 -0.7872
 9497SOL    HW230092   1.071   0.654   3.241  0.1476  0.7771  1.4392
 9498SOL     OW30093   5.480   6.694   0.341  0.0224 -0.0799 -0.0429
 9498SOL    HW130094   5.574   6.688   0.308 -0.7235  0.6258 -2.4759
 9498SOL    HW230095   5.445   6.603   0.362  1.7073 -0.2398  2.4907
 9499SOL     OW30096   6.668   3.177   4.908  0.1104 -0.1601 -0.1162
 9499SOL    HW130097   6.768   3.182   4.911  0.0623  0.9431  2.1821
 9499SOL    HW230098   6.636   3.098   4.961 -0.2412 -1.2693 -1.9213
 9500SOL     OW30099   1.037   4.405   6.305 -0.1303 -0.3668 -0.2061
 9500SOL    HW130100   0.944   4.388   6.272 -0.0441 -1.2166 -0.0121
 9500SOL    HW230101   1.103   4.383   6.234  0.0124 -1.4527  0.2466
 9501SOL     OW30102   6.659   0.089   1.289  0.4030  0.0145  0.0064
 9501SOL    HW130103   6.729   0.130   1.230  0.0078  1.2300  0.3510
 9501SOL    HW230104   6.661   0.134   1.378 -0.8810  0.1470 -0.0143
 9502SOL     OW30105   2.600   2.259   0.378  0.0879 -0.4376  0.4500
 9502SOL    HW130106   2.693   2.223   0.386  0.5950  0.6169 -0.4470
 9502SOL    HW230107   2.560   2.230   0.292  0.8966  1.8721 -0.8019
 9503SOL     OW30108   5.070   4.578   5.060  0.0592 -0.2491  0.4427
 9503SOL    HW130109   5.031   4.521   4.988  0.2892 -0.2847  0.3482
 9503SOL    HW230110   5.163   4.604   5.037  0.5325 -1.1754  1.2325
 9504SOL     OW30111   4.453   1.497   5.593  0.3108 -0.3389 -0.3354
 9504SOL    HW130112   4.365   1.452   5.588  0.1861  0.0058 -1.8550
 9504SOL    HW230113   4.524   1.431   5.619 -0.3542 -0.6454  0.7415
 9505SOL     OW30114   0.628   3.185   2.558  0.0167  0.1537 -0.7297
 9505SOL    HW130115   0.616   3.188   2.459  2.7470 -2.2495 -1.2706
 9505SOL    HW230116   0.562   3.120   2.597 -0.1946  0.1002 -1.1698
 9506SOL     OW30117   2.463   1.517   2.715 -0.4316 -0.1586  0.4987
 9506SOL    HW130118   2.516   1.601   2.703  1.3145 -1.4979 -2.1001
 9506SOL    HW230119   2.524   1.443   2.743 -1.6147 -1.0055  0.9390
 9507SOL     OW30120   4.136   5.810   5.447 -0.7392  0.4258  0.0730
 9507SOL    HW130121   4.134   5.753   5.364 -3.6091  1.0650 -0.4129
 9507SOL    HW230122   4.231   5.832   5.471  0.2839 -1.7966 -1.6060
 9508SOL     OW30123   3.226   0.937   1.408 -0.3546 -0.3349  0.3937
 9508SOL    HW130124   3.266   0.999   1.475 -2.7306  1.0402  0.6738
 9508SOL    HW230125   3.277   0.851   1.407  2.5847  1.2580  0.5686
 9509SOL     OW30126   4.612   4.114   4.757  0.2248  0.7805  0.4569
 9509SOL    HW130127   4.614   4.214   4.763 -1.3658  0.8593  0.1992
 9509SOL    HW230128   4.660   4.085   4.674 -0.3720  1.4211 -0.1248
 9510SOL     OW30129   3.264   2.964   1.923  0.3652  0.5371  0.3794
 9510SOL    HW130130   3.228   3.014   2.002 -1.8467 -0.9965  0.4266
 9510SOL    HW230131   3.362   2.952   1.933  0.8372  3.8374  0.8927
 9511SOL     OW30132   3.830   0.486   5.573 -0.1262 -0.2326  0.1347
 9511SOL    HW130133   3.775   0.493   5.490 -0.8631 -0.8568  0.5503
 9511SOL    HW230134   3.902   0.417   5.561  0.5257  0.5302 -0.3846
 9512SOL     OW30135   4.956   6.975   6.888 -0.8505  0.1609  0.6856
 9512SOL    HW130136   5.048   6.954   6.855 -0.3626  1.4376  1.1843
 9512SOL    HW230137   4.893   6.902   6.860  0.5491 -1.4120  1.4384
 9513SOL     OW30138   0.016   1.870   4.435  0.0628 -1.0783 -0.1370
 9513SOL    HW130139   0.007   1.846   4.338  1.1978 -0.1567 -0.4873
 9513SOL    HW230140  -0.066   1.840   4.484 -0.7251 -1.1663 -1.4545
 9514SOL     OW30141   3.060   3.285   6.770  0.3924 -0.6321 -0.7047
 9514SOL    HW130142   3.074   3.384   6.773 -0.4049 -0.5319 -0.0652
 9514SOL    HW230143   2.985   3.260   6.831  1.3594 -1.7833  0.0404
 9515SOL     OW30144   2.105   5.766   2.394  0.3301 -0.0206  0.2142
 9515SOL    HW130145   2.140   5.859   2.383 -0.6934  0.4188  0.5597
 9515SOL    HW230146   2.120   5.736   2.489 -0.0203  0.0860  0.3049
 9516SOL     OW30147   6.738   3.672   6.710 -0.1841 -0.2214  0.2039
 9516SOL    HW130148   6.705   3.605   6.644 -0.1085  1.1313 -1.2777
 9516SOL    HW230149   6.666   3.691   6.776 -0.7367 -0.6559 -0.2573
 9517SOL     OW30150   6.933   5.390   5.611 -0.7167 -0.5802  0.2688
 9517SOL    HW130151   6.908   5.340   5.528  0.4967 -1.8893  0.6574
 9517SOL    HW230152   6.980   5.474   5.586 -0.1675 -1.0685 -0.3742
 9518SOL     OW30153   5.887   6.969   3.054 -0.3745  0.5591 -0.0741
 9518SOL    HW130154   5.871   6.887   3.108 -0.1545  1.8687  2.1021
 9518SOL    HW230155   5.976   6.964   3.009  0.2695  0.1895  1.2080
 9519SOL     OW30156   2.017   1.430   4.963  0.3553  0.5311 -0.3637
 9519SOL    HW130157   2.106   1.421   5.009  0.3316  0.0530 -0.4002
 9519SOL    HW230158   1.944   1.417   5.029  0.2096  4.2607  0.3961
 9520SOL     OW30159   1.677   3.451   4.139  0.4501  0.0831 -0.0537
 9520SOL    HW130160   1.708   3.505   4.061 -0.7922 -0.9607 -1.3491
 9520SOL    HW230161   1.737   3.372   4.151  1.0739  0.6371  0.5394
 9521SOL     OW30162   6.926   3.443   6.555 -0.5655 -0.0753  0.1056
 9521SOL    HW130163   6.882   3.358   6.527 -1.6440 -0.0944  1.7305
 9521SOL    HW230164   6.928   3.506   6.477  0.9388 -1.8061 -1.3512
 9522SOL     OW30165   5.515   0.550   6.368  0.0481  0.5627  0.7452
 9522SOL    HW130166   5.445   0.575   6.302  1.2627  3.2307  0.3339
 9522SOL    HW230167   5.540   0.454   6.357 -1.7711  0.2165 -0.7197
 9523SOL     OW30168   4.032   1.243   0.589  0.4158  0.3345 -0.0776
 9523SOL    HW130169   4.033   1.145   0.609 -1.1229  0.0339 -1.2972
 9523SOL    HW230170   3.950   1.284   0.628  1.4873  1.3466  1.1948
 9524SOL     OW30171   4.902   4.029   1.920 -0.3098  0.2962  0.5137
 9524SOL    HW130172   4.947   3.991   2.000 -0.4102  2.3695  1.5971
 9524SOL    HW230173   4.831   4.093   1.948 -1.4734 -0.1369 -1.2238
 9525SOL     OW30174   0.487   0.273   4.626 -0.0612  0.1754 -0.3422
 9525SOL    HW130175   0.578   0.315   4.622  0.8261 -1.6039  0.3824
 9525SOL    HW230176   0.494   0.175   4.611 -1.6996 -0.2101  1.0745
 9526SOL     OW30177   4.078   5.367   1.198  0.2874 -0.5883  0.4862
 9526SOL    HW130178   4.020   5.382   1.118  1.4837 -2.1142 -0.7193
 9526SOL    HW230179   4.071   5.272   1.228  2.3394 -0.9005  0.1167
 9527SOL     OW30180   1.023   0.219   2.418 -0.1490 -0.0021  0.2540
 9527SOL    HW130181   1.090   0.208   2.492  0.0538 -1.6418 -0.1285
 9527SOL    HW230182   0.985   0.311   2.420 -1.1210 -0.3604  3.2568
 9528SOL     OW30183   0.724   3.825   5.160  0.2316  0.1189 -0.3822
 9528SOL    HW130184   0.672   3.901   5.122  0.2430  0.6400  0.6080
 9528SOL    HW230185   0.689   3.739   5.123 -0.9514  0.4953 -0.1863
 9529SOL     OW30186   0.152   3.375   3.380  0.1039  0.0047  0.1691
 9529SOL    HW130187   0.235   3.321   3.364  0.7421  0.4969  1.6366
 9529SOL    HW230188   0.073   3.314   3.384  0.6691 -0.7161  0.7140
 9530SOL     OW30189   6.721   6.238   3.325  0.3952 -0.2191  0.3552
 9530SOL    HW130190   6.756   6.156   3.280 -0.7888 -0.1340 -0.7758
 9530SOL    HW230191   6.797   6.288   3.367  1.2269 -1.4885  0.4174
 9531SOL     OW30192   0.256   5.192   0.457 -0.3547 -0.0727 -0.3957
 9531SOL    HW130193   0.330   5.154   0.512 -2.1465 -0.4867  1.8447
 9531SOL    HW230194   0.201   5.255   0.512 -2.1831 -0.4163 -1.7059
 9532SOL     OW30195   0.539   0.029   5.146  0.1210 -0.1204  0.7127
 9532SOL    HW130196   0.535   0.099   5.217 -1.3403  1.1497 -0.5518
 9532SOL    HW230197   0.446   0.006   5.116  0.6770 -0.9779 -0.4415
 9533SOL     OW30198   6.429   3.193   0.769 -0.4028 -0.3343 -0.2643
 9533SOL    HW130199   6.364   3.243   0.712  0.1642  1.1691  0.3627
 9533SOL    HW230200   6.470   3.119   0.716 -2.1001 -0.8843 -0.8717
 9534SOL     OW30201   3.706   0.317   0.675 -0.2487  0.2348 -1.1295
 9534SOL    HW130202   3.763   0.379   0.728  1.0281 -0.5773 -1.5070
 9534SOL    HW230203   3.640   0.369   0.621  1.2067  1.3168 -1.9234
 9535SOL     OW30204   4.729   2.819   0.225  0.3104  0.4738 -0.0199
 9535SOL    HW130205   4.682   2.832   0.138  0.9133  0.4000 -0.3594
 9535SOL    HW230206   4.808   2.759   0.212 -0.8704 -1.4215  1.0094
 9536SOL     OW30207   5.619   5.605   0.372  0.3393  0.1020 -0.1663
 9536SOL    HW130208   5.633   5.683   0.433  1.4387 -0.5898  0.5105
 9536SOL    HW230209   5.607   5.522   0.426 -0.4411 -0.2626 -0.8816
 9537SOL     OW30210   5.689   6.517   2.204  0.2302 -0.1662  0.3559
 9537SOL    HW130211   5.677   6.614   2.182 -0.4080 -0.5567 -1.1250
 9537SOL    HW230212   5.602   6.478   2.233  0.0893 -0.6834 -0.7201
 9538SOL     OW30213   2.411   5.614   3.186 -0.4009  0.5252  0.3290
 9538SOL    HW130214   2.417   5.555   3.266 -1.9855 -2.0196 -1.2765
 9538SOL    HW230215   2.499   5.613   3.138 -1.1886 -3.6992 -1.5570
 9539SOL     OW30216   0.545   6.379   4.479  0.1320 -0.0877 -0.5589
 9539SOL    HW130217   0.589   6.362   4.567  0.1235 -0.8595 -0.6994
 9539SOL    HW230218   0.505   6.471   4.479  2.2935  0.9248 -0.6540
 9540SOL     OW30219   4.319   1.842   1.349  0.3762  0.4001  0.2610
 9540SOL    HW130220   4.258   1.921   1.353  1.3021  1.0855  1.6219
 9540SOL    HW230221   4.413   1.871   1.369  1.0027 -0.7904 -0.7849
 9541SOL     OW30222   4.186   0.950   6.340  0.5486 -0.3879  0.0388
 9541SOL    HW130223   4.148   1.033   6.380 -1.1350 -1.4282  0.6743
 9541SOL    HW230224   4.241   0.974   6.259 -0.4924  1.2765 -0.2110
 9542SOL     OW30225   1.153   4.653   4.350 -0.0467  0.0426 -0.5966
 9542SOL    HW130226   1.201   4.610   4.427 -0.0979  3.2303  1.4306
 9542SOL    HW230227   1.057   4.628   4.352 -0.0126 -0.0519  0.3281
 9543SOL     OW30228   2.004   5.967   2.811  0.4831  0.4021 -0.7646
 9543SOL    HW130229   2.096   5.928   2.806  0.0215 -1.3967  2.2747
 9543SOL    HW230230   1.998   6.027   2.891 -0.8638  0.8917 -1.2182
 9544SOL     OW30231   4.415   6.767   4.631  0.1123  0.1418  0.0277
 9544SOL    HW130232   4.423   6.681   4.580  0.1192  1.2641 -1.9630
 9544SOL    HW230233   4.424   6.844   4.568 -1.3586  1.6221  1.5275
 9545SOL     OW30234   4.757   4.308   5.057  0.0718  0.3998 -0.1446
 9545SOL    HW130235   4.728   4.239   4.991 -2.2294  1.1900 -0.0502
 9545SOL    HW230236   4.729   4.281   5.149  0.1903  0.9311  0.0523
 9546SOL     OW30237   4.822   1.619   6.844 -0.3185 -0.0926 -1.2225
 9546SOL    HW130238   4.734   1.585   6.876  0.4147 -0.9428 -0.0060
 9546SOL    HW230239   4.890   1.607   6.916  0.5079  1.8346 -1.6121
 9547SOL     OW30240   3.550   1.224   6.314  0.3984  0.9504  0.1952
 9547SOL    HW130241   3.590   1.149   6.263 -1.5784 -0.6520  0.8633
 9547SOL    HW230242   3.497   1.188   6.391  2.1568  3.2031  2.6335
 9548SOL     OW30243   1.901   4.726   4.919 -0.0145  0.2512 -0.0780
 9548SOL    HW130244   1.929   4.800   4.858 -2.3300  0.1077 -1.4368
 9548SOL    HW230245   1.919   4.638   4.875  0.6846  0.0666  0.5711
 9549SOL     OW30246   1.875   1.908   6.211 -0.7388  0.2744  0.0015
 9549SOL    HW130247   1.786   1.951   6.194 -1.7873 -1.0386  1.8043
 9549SOL    HW230248   1.862   1.809   6.222  0.9462  0.0745  0.3479
 9550SOL     OW30249   0.012   6.085   0.083  0.0441 -0.3914 -0.3682
 9550SOL    HW130250   0.045   6.177   0.107 -2.2433  0.1569  0.9955
 9550SOL    HW230251   0.081   6.038   0.028  1.9402  1.5535  0.2115
 9551SOL     OW30252   3.556   6.203   5.364 -0.2729 -0.6378 -0.2434
 9551SOL    HW130253   3.538   6.264   5.286  0.1314 -1.9370 -1.4052
 9551SOL    HW230254   3.596   6.117   5.330 -2.0445 -2.1109  1.1442
 9552SOL     OW30255   4.677   5.037   6.315  0.1597  0.2039  0.0207
 9552SOL    HW130256   4.748   5.073   6.375 -0.3740  0.6371  0.4004
 9552SOL    HW230257   4.710   4.954   6.270  2.0310  1.9111 -2.0423
 9553SOL     OW30258   2.403   3.850   5.315  0.2667 -0.0220 -0.1479
 9553SOL    HW130259   2.479   3.786   5.297  0.1130 -0.8202  1.8276
 9553SOL    HW230260   2.439   3.943   5.320  1.1282 -0.3732  0.6410
 9554SOL     OW30261   6.531   6.918   3.852 -0.3247 -0.2746  0.4040
 9554SOL    HW130262   6.527   7.007   3.898 -0.9804  0.5379 -1.1293
 9554SOL    HW230263   6.627   6.890   3.841 -0.1047  0.3318  0.7436
 9555SOL     OW30264   0.215   5.550   2.266 -0.8694  0.3138 -0.0204
 9555SOL    HW130265   0.219   5.460   2.308  0.3651 -0.2595 -1.2568
 9555SOL    HW230266   0.204   5.540   2.167  1.8075  1.3617 -0.5222
 9556SOL     OW30267   3.417   2.674   0.966 -0.0017 -0.4431 -0.6690
 9556SOL    HW130268   3.326   2.715   0.966  0.0206 -0.3851 -1.5860
 9556SOL    HW230269   3.444   2.652   0.873 -0.1879 -2.9501 -0.1924
 9557SOL     OW30270   5.175   5.890   4.808  0.3544  0.0774  0.4828
 9557SOL    HW130271   5.212   5.949   4.736  0.2197  0.3635  0.6441
 9557SOL    HW230272   5.148   5.802   4.770 -0.0654  0.3652  0.1199
 9558SOL     OW30273   6.788   1.084   6.359 -0.1457  0.2146  0.2610
 9558SOL    HW130274   6.727   1.055   6.285  0.4686 -0.0346 -0.1543
 9558SOL    HW230275   6.830   1.003   6.401 -0.4815  0.3540  0.8830
 9559SOL     OW30276   2.134   6.671   4.157  0.2409  0.4913 -0.1006
 9559SOL    HW130277   2.223   6.642   4.193  0.3565 -0.4565 -1.0997
 9559SOL    HW230278   2.063   6.654   4.226  0.6560  0.0249  0.2185
 9560SOL     OW30279   3.055   1.160   1.356 -0.6991 -0.0193  0.3534
 9560SOL    HW130280   3.085   1.065   1.360 -0.0500  0.2328  2.2883
 9560SOL    HW230281   2.985   1.169   1.285  0.4354 -1.5639 -1.0623
 9561SOL     OW30282   5.012   6.774   1.608  0.0571 -0.1286  0.2407
 9561SOL    HW130283   5.109   6.758   1.627 -0.0847  1.2431  2.4130
 9561SOL    HW230284   4.999   6.785   1.509  1.7517 -2.2898 -0.3217
 9562SOL     OW30285   6.648   1.541   1.730 -0.3323 -0.0439  0.7721
 9562SOL    HW130286   6.626   1.463   1.672 -2.9226  0.1820  1.3477
 9562SOL    HW230287   6.738   1.576   1.705 -0.4690 -1.2241 -1.6868
 9563SOL     OW30288   3.489   3.439   1.425 -0.5212 -0.0151 -0.1057
 9563SOL    HW130289   3.563   3.414   1.363  0.0023  2.4628 -0.5870
 9563SOL    HW230290   3.403   3.443   1.374 -0.2826  0.9478 -0.4437
 9564SOL     OW30291   0.317   4.960   3.956  0.2154 -0.2797 -0.1988
 9564SOL    HW130292   0.348   4.887   4.016  0.6365 -0.6733 -0.8818
 9564SOL    HW230293   0.379   4.967   3.877 -0.6791 -0.2058 -0.9159
 9565SOL     OW30294   0.743   0.032   3.394  0.0635  0.1850 -0.1249
 9565SOL    HW130295   0.823   0.063   3.343 -0.9223  2.0219 -0.6575
 9565SOL    HW230296   0.676   0.106   3.399 -1.4473 -1.1650  0.6599
 9566SOL     OW30297   4.087   3.608   3.224 -0.0816  0.0601  0.1850
 9566SOL    HW130298   4.120   3.617   3.130  0.2938 -0.7999  0.2240
 9566SOL    HW230299   4.165   3.610   3.287 -0.2671 -0.0835  0.4216
 9567SOL     OW30300   6.020   5.998   4.338  0.2278  0.3360  0.4453
 9567SOL    HW130301   6.020   5.968   4.434  0.6575  0.0123  0.3487
 9567SOL    HW230302   5.928   5.989   4.301  0.3303 -0.8657  0.4357
 9568SOL     OW30303   4.827   6.213   5.829  0.0336  0.6095  0.0492
 9568SOL    HW130304   4.804   6.310   5.831  1.9495  1.2224 -2.6892
 9568SOL    HW230305   4.899   6.197   5.762  0.7469 -2.5442  1.3903
 9569SOL     OW30306   5.429   6.130   0.382  0.2316 -0.0289  0.0144
 9569SOL    HW130307   5.516   6.159   0.422 -0.4472  1.9924  0.1763
 9569SOL    HW230308   5.354   6.165   0.438 -0.6932 -1.1973 -0.4706
 9570SOL     OW30309   1.152   0.098   4.235 -0.9707  0.2069 -0.1166
 9570SOL    HW130310   1.175   0.061   4.145  0.3668 -0.5514  0.4998
 9570SOL    HW230311   1.063   0.062   4.263 -0.8402 -0.5481 -0.6184
 9571SOL     OW30312   4.614   1.155   4.206  0.5494 -0.1253  0.3792
 9571SOL    HW130313   4.659   1.217   4.143 -1.6128 -0.2490 -1.4082
 9571SOL    HW230314   4.602   1.066   4.163 -0.0769 -0.5326  1.3423
 9572SOL     OW30315   5.390   6.220   2.412 -0.0385  0.9193  0.4647
 9572SOL    HW130316   5.395   6.120   2.413 -0.4068  0.9075  1.6173
 9572SOL    HW230317   5.294   6.248   2.411 -0.0094  1.2789 -2.4063
 9573SOL     OW30318   5.092   3.069   1.873 -0.1396  0.0283 -0.5792
 9573SOL    HW130319   5.069   3.056   1.969  0.2528  0.2369 -0.4525
 9573SOL    HW230320   5.171   3.012   1.850  0.1126  0.3982 -0.6339
 9574SOL     OW30321   4.965   2.564   5.652  0.2033  0.2155 -0.1708
 9574SOL    HW130322   5.027   2.488   5.632 -0.8018 -0.2443 -1.6605
 9574SOL    HW230323   4.948   2.616   5.569  1.0552  2.2532  0.8686
 9575SOL     OW30324   1.628   0.811   6.537 -0.0138 -0.5333 -0.3031
 9575SOL    HW130325   1.697   0.772   6.476  0.4120 -1.8693  0.9713
 9575SOL    HW230326   1.573   0.877   6.487  0.9943 -0.8059 -1.8398
 9576SOL     OW30327   1.726   0.825   2.141 -0.2281 -0.2976 -0.5526
 9576SOL    HW130328   1.802   0.889   2.152  0.0568 -0.5792 -0.8770
 9576SOL    HW230329   1.712   0.775   2.227 -1.0443  0.8399 -0.0070
 9577SOL     OW30330   0.410   2.582   5.611 -0.3849  0.2430 -0.1291
 9577SOL    HW130331   0.390   2.500   5.664 -1.0855  1.3358  1.3513
 9577SOL    HW230332   0.454   2.555   5.525 -2.4352 -1.8523 -0.6548
 9578SOL     OW30333   2.762   0.717   6.925 -0.0777  0.1057  0.5517
 9578SOL    HW130334   2.685   0.695   6.865 -0.3150  0.2393  0.8042
 9578SOL    HW230335   2.748   0.807   6.965  0.8748  0.7141 -0.4421
 9579SOL     OW30336   2.763   5.955   5.147 -0.7899 -0.2669 -0.7516
 9579SOL    HW130337   2.853   5.995   5.134 -0.9815 -0.1052 -1.6507
 9579SOL    HW230338   2.740   5.898   5.067 -1.3218 -0.6171 -0.3571
 9580SOL     OW30339   4.000   3.759   6.928 -0.1723  0.3084  0.1286
 9580SOL    HW130340   3.903   3.780   6.912 -0.4526 -0.4691  0.7806
 9580SOL    HW230341   4.052   3.777   6.844 -0.6860  1.8313  0.1075
 9581SOL     OW30342   3.389   5.050   0.472  0.0913  0.3091 -0.6335
 9581SOL    HW130343   3.450   5.018   0.400 -1.2504  1.0345 -2.1724
 9581SOL    HW230344   3.432   5.126   0.520  1.0302 -0.2132 -0.6246
 9582SOL     OW30345   0.720   4.177   5.470 -0.1680  0.0940  0.1073
 9582SOL    HW130346   0.694   4.086   5.438  0.0761  0.2633 -0.5694
 9582SOL    HW230347   0.817   4.193   5.452 -0.1043  0.3222  0.6215
 9583SOL     OW30348   6.974   3.761   4.391  0.4350 -0.0770 -0.2917
 9583SOL    HW130349   6.920   3.808   4.321  0.1301 -1.0943 -0.7648
 9583SOL    HW230350   6.913   3.726   4.462  0.7990  1.4267  0.7913
 9584SOL     OW30351   3.543   1.817   6.796 -0.6898  0.7268  0.0744
 9584SOL    HW130352   3.616   1.808   6.729 -1.5210  1.2193 -0.9388
 9584SOL    HW230353   3.490   1.733   6.799 -0.3724  0.5407  0.4529
 9585SOL     OW30354   6.765   5.073   2.714  0.2355  0.4458 -0.0416
 9585SOL    HW130355   6.702   5.087   2.637 -0.3397 -0.2916  0.2801
 9585SOL    HW230356   6.812   5.158   2.735 -1.3346  1.2666  0.2929
 9586SOL     OW30357   1.378   3.934   1.831 -0.3335  0.0665 -0.4102
 9586SOL    HW130358   1.398   3.985   1.915  1.0492  2.1817 -1.9076
 9586SOL    HW230359   1.338   3.997   1.763  2.6170 -0.3890 -2.7884
 9587SOL     OW30360   4.521   3.539   5.431 -0.0830 -0.5082  0.0686
 9587SOL    HW130361   4.560   3.592   5.357 -2.8282 -0.9089 -1.8063
 9587SOL    HW230362   4.478   3.457   5.395 -0.3961 -1.4051  2.2851
 9588SOL     OW30363   4.549   2.540   4.502  0.1190  0.4859 -0.4682
 9588SOL    HW130364   4.548   2.440   4.491  0.3008  0.3194  0.8493
 9588SOL    HW230365   4.609   2.564   4.579 -0.6864  1.5308 -0.1490
 9589SOL     OW30366   6.547   5.672   5.683  0.1455 -0.1477 -0.5049
 9589SOL    HW130367   6.522   5.762   5.647  0.0342  1.2269  2.6886
 9589SOL    HW230368   6.471   5.636   5.737  0.8072 -1.4304 -0.3952
 9590SOL     OW30369   1.597   0.565   1.116 -0.6066 -0.7653  0.1983
 9590SOL    HW130370   1.542   0.630   1.064  0.5268  0.1145  0.0627
 9590SOL    HW230371   1.692   0.568   1.084 -0.4695 -2.2849  0.3894
 9591SOL     OW30372   2.965   3.447   1.587  0.3930  0.4310  0.4635
 9591SOL    HW130373   3.006   3.362   1.552  0.6003  0.7358 -0.0448
 9591SOL    HW230374   3.014   3.476   1.670  1.3053  0.8583 -0.2039
 9592SOL     OW30375   4.475   2.908   0.886 -0.0024  0.5515  0.1572
 9592SOL    HW130376   4.530   2.983   0.850 -0.2868  1.3331  1.3016
 9592SOL    HW230377   4.469   2.915   0.986 -2.2387  0.5774  0.0867
 9593SOL     OW30378   4.169   5.681   4.422 -0.1631  0.0744  0.4524
 9593SOL    HW130379   4.162   5.772   4.463 -1.8452 -0.2962  1.0846
 9593SOL    HW230380   4.116   5.679   4.337  1.8902  0.3430 -0.9021
 9594SOL     OW30381   0.448   6.448   3.017  0.0503 -0.1312  0.6052
 9594SOL    HW130382   0.412   6.427   2.925  0.4488  0.7994  0.2261
 9594SOL    HW230383   0.383   6.414   3.086 -0.3351 -0.7001 -0.0147
 9595SOL     OW30384   4.588   0.672   4.940  0.1142 -0.2532  0.0137
 9595SOL    HW130385   4.682   0.700   4.963 -0.4585  0.2433  1.9372
 9595SOL    HW230386   4.571   0.691   4.844  1.2078  1.9704  0.1813
 9596SOL     OW30387   3.246   3.511   5.388  0.4440  0.2052 -0.1830
 9596SOL    HW130388   3.176   3.501   5.459  0.8769 -2.1105  0.0110
 9596SOL    HW230389   3.331   3.469   5.421  1.8259  2.5679 -0.5876
 9597SOL     OW30390   0.097   5.766   2.377 -0.1524 -0.5238 -0.3845
 9597SOL    HW130391   0.124   5.845   2.322  2.1937 -0.3905  0.8469
 9597SOL    HW230392   0.142   5.684   2.343 -0.8549 -0.9359 -0.3337
 9598SOL     OW30393   3.179   2.425   6.989  0.3358 -0.3481 -0.3786
 9598SOL    HW130394   3.248   2.495   6.970  1.4804 -0.9440  1.3082
 9598SOL    HW230395   3.091   2.453   6.951  1.5607  0.2526 -2.9692
 9599SOL     OW30396   1.416   4.881   4.625  0.1231  0.0102 -0.4260
 9599SOL    HW130397   1.462   4.801   4.588 -0.8164 -0.4523 -0.6075
 9599SOL    HW230398   1.413   4.953   4.555 -0.4539 -0.3757 -0.8017
 9600SOL     OW30399   1.918   6.060   1.373 -0.0614 -0.0461 -0.3448
 9600SOL    HW130400   1.904   6.138   1.311 -1.8097 -0.0693 -0.0298
 9600SOL    HW230401   1.886   6.084   1.464 -1.2125 -1.3223 -0.3826
 9601SOL     OW30402   4.043   3.266   6.607  0.1951  0.2007 -0.2979
 9601SOL    HW130403   4.085   3.355   6.627 -1.7202  1.5635 -1.9005
 9601SOL    HW230404   4.081   3.230   6.522 -1.2880  1.1118 -1.3893
 9602SOL     OW30405   3.707   3.320   1.287 -0.6612  0.5530 -0.0740
 9602SOL    HW130406   3.706   3.225   1.256 -2.5064  0.5134  0.0166
 9602SOL    HW230407   3.788   3.335   1.344 -0.9334 -1.2994  0.8707
 9603SOL     OW30408   6.716   6.693   3.246  0.0420 -0.0413 -0.0134
 9603SOL    HW130409   6.759   6.674   3.158  0.8487  0.6721  0.2133
 9603SOL    HW230410   6.734   6.788   3.272 -0.5102 -0.1342  0.7438
 9604SOL     OW30411   1.886   1.806   3.657  0.1607  0.1402  0.9076
 9604SOL    HW130412   1.796   1.819   3.697 -0.6848  0.6953 -1.0489
 9604SOL    HW230413   1.898   1.710   3.631  0.0173  0.1196  0.9193
 9605SOL     OW30414   5.322   1.019   4.527  0.2028  0.2768  0.3644
 9605SOL    HW130415   5.264   0.938   4.527  0.2670  0.2207 -0.5514
 9605SOL    HW230416   5.415   0.993   4.554  0.2185  0.0429  0.0960
 9606SOL     OW30417   6.243   5.564   6.545  0.1445  0.5326 -0.3335
 9606SOL    HW130418   6.306   5.486   6.546 -0.9485 -0.4523 -2.1650
 9606SOL    HW230419   6.273   5.630   6.476  1.4189  2.1339  1.6352
 9607SOL     OW30420   6.562   0.113   1.742  0.3418  0.5859 -0.4582
 9607SOL    HW130421   6.530   0.115   1.837  0.3867  3.6053 -0.4065
 9607SOL    HW230422   6.643   0.170   1.733  1.7040 -1.4554 -1.9506
 9608SOL     OW30423   4.437   2.143   4.857  0.2008  0.1843  0.1040
 9608SOL    HW130424   4.338   2.148   4.869  0.2960  0.4555  0.8402
 9608SOL    HW230425   4.459   2.070   4.792 -0.5006  0.3974 -0.3863
 9609SOL     OW30426   3.938   1.197   1.249 -1.4029  0.1310 -0.4487
 9609SOL    HW130427   3.999   1.272   1.223 -0.2032 -0.6139  0.1472
 9609SOL    HW230428   3.962   1.115   1.197 -0.5615 -0.7092  1.1827
 9610SOL     OW30429   2.146   5.827   5.813 -0.7203 -0.2470 -0.1969
 9610SOL    HW130430   2.102   5.761   5.873 -0.8130 -1.0819 -1.1747
 9610SOL    HW230431   2.112   5.919   5.834 -0.1079 -0.3887  1.6211
 9611SOL     OW30432   1.492   3.643   6.565  0.2441 -0.1272  0.0240
 9611SOL    HW130433   1.462   3.667   6.658 -0.7040 -0.6969 -0.1210
 9611SOL    HW230434   1.457   3.553   6.541  0.4105  0.0496 -0.9286
 9612SOL     OW30435   0.425   1.002   6.516 -0.0234  0.2435 -0.1236
 9612SOL    HW130436   0.502   1.028   6.457 -0.1369  0.9898  0.0512
 9612SOL    HW230437   0.342   1.048   6.484 -0.1429  0.4287  0.4498
 9613SOL     OW30438   2.763   6.818   3.914  0.4335  0.0853 -0.3437
 9613SOL    HW130439   2.698   6.786   3.846  0.0843  1.0423 -0.4827
 9613SOL    HW230440   2.788   6.743   3.975 -2.4095  0.1138  1.0145
 9614SOL     OW30441   2.777   3.305   0.886  0.1912 -0.1840 -0.2028
 9614SOL    HW130442   2.844   3.295   0.959 -0.7102 -2.6120  0.3732
 9614SOL    HW230443   2.758   3.402   0.872  2.6384  0.4997  0.6523
 9615SOL     OW30444   6.060   5.095   2.827 -0.1963 -0.1619  0.1020
 9615SOL    HW130445   5.989   5.149   2.781  0.0495 -1.1115 -1.4936
 9615SOL    HW230446   6.034   5.079   2.922 -0.7046  1.9422  0.3617
 9616SOL     OW30447   6.716   5.575   1.101 -0.1047  0.4302  0.4990
 9616SOL    HW130448   6.716   5.585   1.201  3.6830 -0.1172  0.7030
 9616SOL    HW230449   6.688   5.662   1.059 -1.4509  0.7669  2.0150
 9617SOL     OW30450   0.676   6.901   2.546 -0.3556  0.1103  0.0779
 9617SOL    HW130451   0.746   6.838   2.578  0.3590  0.9881  0.2861
 9617SOL    HW230452   0.588   6.854   2.540  0.6403 -1.5880 -2.2352
 9618SOL     OW30453   6.568   2.662   1.236 -0.5120  0.1828 -0.3542
 9618SOL    HW130454   6.580   2.694   1.142  0.8958  1.5989  0.2532
 9618SOL    HW230455   6.626   2.717   1.297 -0.3122 -1.6301  1.1654
 9619SOL     OW30456   2.145   0.965   0.133 -0.1642 -0.0134 -0.5095
 9619SOL    HW130457   2.237   0.957   0.095  0.1706  2.7568 -0.4653
 9619SOL    HW230458   2.085   0.897   0.089  1.8515 -1.9405 -0.4774
 9620SOL     OW30459   0.429   3.313   5.193 -0.3753 -0.2746 -0.2893
 9620SOL    HW130460   0.400   3.269   5.278 -0.6100 -0.2556 -0.3578
 9620SOL    HW230461   0.524   3.343   5.201  0.0529 -1.5034 -0.5200
 9621SOL     OW30462   2.856   0.769   3.023  0.3139  0.3248  0.1374
 9621SOL    HW130463   2.798   0.690   3.040 -0.1589  0.8535  1.1427
 9621SOL    HW230464   2.951   0.740   3.015  0.1244 -0.3597  0.3153
 9622SOL     OW30465   6.562   6.839   1.961  0.1980  0.3319 -0.4334
 9622SOL    HW130466   6.547   6.773   1.888  0.2357  1.2887 -1.3431
 9622SOL    HW230467   6.660   6.862   1.966  0.7394 -1.9809  1.9850
 9623SOL     OW30468   2.007   1.720   1.632  0.0670 -0.0188 -0.0523
 9623SOL    HW130469   2.071   1.749   1.560 -0.9156  0.8311 -0.6098
 9623SOL    HW230470   2.003   1.791   1.702 -0.0968 -0.1775  0.0965
 9624SOL     OW30471   5.470   0.538   3.828  0.8510 -0.1546  0.1859
 9624SOL    HW130472   5.510   0.623   3.793 -3.8786  2.6093  0.7726
 9624SOL    HW230473   5.434   0.484   3.752  1.4545 -0.3488  0.0270
 9625SOL     OW30474   0.217   1.906   0.649 -0.4881 -0.0699  0.7522
 9625SOL    HW130475   0.144   1.961   0.688 -2.3727 -1.6162 -0.3940
 9625SOL    HW230476   0.217   1.915   0.549  3.0790  2.4336  0.7902
 9626SOL     OW30477   4.512   0.434   4.398 -0.6589 -0.2630 -0.0894
 9626SOL    HW130478   4.558   0.423   4.486  0.7465 -0.9098 -0.8784
 9626SOL    HW230479   4.483   0.529   4.386  1.1167  0.3372  0.1322
 9627SOL     OW30480   6.114   6.664   3.909 -0.5128  0.2116 -0.2696
 9627SOL    HW130481   6.209   6.674   3.879  0.2886  0.7678  2.2350
 9627SOL    HW230482   6.105   6.698   4.002 -2.6552 -2.0767  0.4664
 9628SOL     OW30483   2.359   1.634   2.940 -0.0427  1.0661  0.0907
 9628SOL    HW130484   2.387   1.581   2.860  0.1450 -0.9039  1.3855
 9628SOL    HW230485   2.304   1.712   2.911  1.6417  1.5223 -2.0657
 9629SOL     OW30486   5.259   0.995   2.258 -0.2904 -0.6765 -0.3987
 9629SOL    HW130487   5.312   1.072   2.292 -0.8408 -1.2811  2.0525
 9629SOL    HW230488   5.320   0.919   2.236  0.0061 -0.9750  1.3052
 9630SOL     OW30489   5.712   1.822   4.404 -0.7967 -0.1967  0.0168
 9630SOL    HW130490   5.695   1.729   4.438 -1.6696 -0.9243 -2.2388
 9630SOL    HW230491   5.653   1.887   4.454 -2.1105 -1.2204 -0.1464
 9631SOL     OW30492   2.302   1.515   0.422  0.1328 -0.0574  0.4710
 9631SOL    HW130493   2.334   1.584   0.488 -0.8268 -0.4257  1.3281
 9631SOL    HW230494   2.240   1.558   0.357  0.0772  0.0416  0.5883
 9632SOL     OW30495   3.787   1.274   2.212  0.6697  0.7900  0.4126
 9632SOL    HW130496   3.728   1.193   2.216  0.2679  1.1134  1.2905
 9632SOL    HW230497   3.730   1.356   2.215  1.1409  1.1065  0.8004
 9633SOL     OW30498   2.620   6.533   3.860  0.0648  0.1801 -0.1122
 9633SOL    HW130499   2.680   6.473   3.913 -0.0808  0.4709  0.3892
 9633SOL    HW230500   2.643   6.525   3.763 -1.0837 -2.0091 -0.2854
 9634SOL     OW30501   1.160   2.892   1.182 -0.0969 -0.4909 -0.3033
 9634SOL    HW130502   1.257   2.884   1.157 -0.1231  0.4011 -0.7637
 9634SOL    HW230503   1.121   2.971   1.134 -0.6571  0.1152  1.0987
 9635SOL     OW30504   0.416   6.647   3.387  0.1054 -0.8480 -0.6081
 9635SOL    HW130505   0.359   6.651   3.469  1.5415  2.4362  0.3804
 9635SOL    HW230506   0.509   6.676   3.409  0.9130 -1.2505 -3.1450
 9636SOL     OW30507   0.955   3.580   5.078  0.4396  0.8919  0.0440
 9636SOL    HW130508   1.003   3.530   5.150  2.4228 -0.2798 -1.9380
 9636SOL    HW230509   0.982   3.676   5.081  0.6885  0.8064  0.7072
 9637SOL     OW30510   6.979   0.203   5.456  0.2055  0.1392  0.1445
 9637SOL    HW130511   6.905   0.263   5.425  0.2550  0.2943  0.3176
 9637SOL    HW230512   6.943   0.141   5.526  0.2846  0.3513  0.3748
 9638SOL     OW30513   5.986   4.414   3.232  0.1492  0.2170  0.2513
 9638SOL    HW130514   5.987   4.414   3.332  1.5934  2.6176  0.3243
 9638SOL    HW230515   5.900   4.454   3.200 -0.0707 -0.0179  0.5387
 9639SOL     OW30516   1.865   6.522   6.713  0.0246 -0.0737  0.0474
 9639SOL    HW130517   1.809   6.439   6.716 -0.5164  0.2427 -0.8990
 9639SOL    HW230518   1.887   6.550   6.806 -1.9309  0.1340  0.5022
 9640SOL     OW30519   2.518   4.592   1.374 -0.2657 -0.9048  0.3893
 9640SOL    HW130520   2.536   4.663   1.442 -1.4130 -1.6172  1.4961
 9640SOL    HW230521   2.593   4.588   1.308 -0.3865  1.6333  0.0100
 9641SOL     OW30522   0.992   1.113   4.109  0.0386 -0.0699  0.5942
 9641SOL    HW130523   1.024   1.064   4.190  2.2466  0.8541  0.3359
 9641SOL    HW230524   1.033   1.073   4.027  0.0979  0.7727  0.1956
 9642SOL     OW30525   2.642   5.686   2.845  0.4621  0.4501 -0.3991
 9642SOL    HW130526   2.572   5.755   2.825  1.8350  2.1215  0.3370
 9642SOL    HW230527   2.664   5.687   2.942  2.6311  1.1490 -0.8309
 9643SOL     OW30528   6.073   6.570   3.079 -0.5105 -0.0596  0.3064
 9643SOL    HW130529   6.147   6.534   3.136  2.2998  2.8747 -1.1485
 9643SOL    HW230530   6.050   6.504   3.008  1.4492 -0.7263  0.2369
 9644SOL     OW30531   3.343   3.979   3.029 -0.0938  0.0963 -0.9027
 9644SOL    HW130532   3.369   3.892   3.072 -2.0477  0.2397  0.6771
 9644SOL    HW230533   3.421   4.014   2.977  1.1378 -1.9743 -0.5763
 9645SOL     OW30534   4.171   3.959   4.963  0.0428  0.6311 -0.4665
 9645SOL    HW130535   4.165   3.863   4.989  0.8919  0.4093 -1.0571
 9645SOL    HW230536   4.081   3.990   4.932 -0.0572 -0.2234 -1.0863
 9646SOL     OW30537   6.037   6.813   5.520  0.4079  0.1187  0.2865
 9646SOL    HW130538   6.069   6.780   5.431  0.5048  1.3979 -0.1760
 9646SOL    HW230539   5.942   6.785   5.534  0.5331 -0.4705 -0.0184
 9647SOL     OW30540   2.466   5.873   4.808  0.0437  0.5085  0.2229
 9647SOL    HW130541   2.494   5.952   4.862  0.3447  0.0058  0.8216
 9647SOL    HW230542   2.379   5.837   4.842  0.7457 -0.4432  1.0855
 9648SOL     OW30543   2.892   6.356   2.007 -0.4458  0.0843 -0.9950
 9648SOL    HW130544   2.955   6.421   1.964  0.4036 -0.1911 -0.2055
 9648SOL    HW230545   2.828   6.405   2.066  0.4768  0.1799 -0.0527
 9649SOL     OW30546   3.769   0.099   1.730  0.7405 -0.3975  0.0217
 9649SOL    HW130547   3.720   0.014   1.711  3.5601 -2.2981  0.6036
 9649SOL    HW230548   3.722   0.150   1.802 -0.0261 -2.4308  1.0321
 9650SOL     OW30549   4.554   2.766   5.939  0.4541  0.0041 -0.0240
 9650SOL    HW130550   4.477   2.824   5.913 -0.6748 -0.7927  1.4151
 9650SOL    HW230551   4.639   2.819   5.937 -0.1173  0.9337 -1.4839
 9651SOL     OW30552   5.479   4.470   4.027 -0.4345 -0.0891 -0.1500
 9651SOL    HW130553   5.554   4.527   3.994 -1.4276  0.6783 -1.1640
 9651SOL    HW230554   5.413   4.527   4.077 -0.3742 -0.7524  0.7224
 9652SOL     OW30555   2.066   4.525   0.581  0.2281 -0.5839  0.5574
 9652SOL    HW130556   2.053   4.438   0.628  0.0007  0.5204  2.6752
 9652SOL    HW230557   2.152   4.566   0.611  1.5036 -1.0854 -2.1760
 9653SOL     OW30558   3.984   3.151   3.208  0.0709 -0.3155 -0.0905
 9653SOL    HW130559   3.935   3.199   3.281  0.2936 -1.5535  0.9182
 9653SOL    HW230560   3.934   3.067   3.184  0.7854 -0.6949 -0.2912
 9654SOL     OW30561   4.546   0.158   1.795  0.0794 -0.1710 -0.3223
 9654SOL    HW130562   4.529   0.063   1.766 -2.3405  0.7052 -2.1869
 9654SOL    HW230563   4.471   0.216   1.763  3.2901  3.1070 -2.7600
 9655SOL     OW30564   2.952   6.239   5.848  0.3795  0.3460  0.1274
 9655SOL    HW130565   2.863   6.276   5.824  2.0925  3.8295 -1.4846
 9655SOL    HW230566   2.947   6.139   5.849 -3.7531  0.3832  1.3502
 9656SOL     OW30567   5.617   5.393   6.757 -0.7051  0.4253  0.4943
 9656SOL    HW130568   5.682   5.460   6.793  0.6704 -1.2302  1.2415
 9656SOL    HW230569   5.560   5.359   6.832  0.7519 -1.4971  0.8112
 9657SOL     OW30570   6.970   4.279   4.625  0.3740  0.5629 -0.4210
 9657SOL    HW130571   7.007   4.290   4.532 -1.0041 -0.7507 -1.1674
 9657SOL    HW230572   7.040   4.238   4.684  1.4378  1.8866 -0.7152
 9658SOL     OW30573   1.777   2.899   4.662 -1.0346 -0.3911 -0.7284
 9658SOL    HW130574   1.802   2.881   4.758 -0.4085  0.4061 -0.7283
 9658SOL    HW230575   1.732   2.988   4.656 -1.7939 -0.7930 -1.0698
 9659SOL     OW30576   6.427   2.457   3.672 -0.4851  0.3534 -0.2141
 9659SOL    HW130577   6.341   2.503   3.650 -0.6285 -1.1879 -3.4790
 9659SOL    HW230578   6.482   2.448   3.590  1.5675 -1.2206  1.2184
 9660SOL     OW30579   6.418   3.818   5.934  0.2317 -0.2511 -0.3651
 9660SOL    HW130580   6.426   3.742   5.998 -0.3363  1.8507  2.3671
 9660SOL    HW230581   6.327   3.859   5.940  0.6669  0.9572 -1.4106
 9661SOL     OW30582   6.678   3.233   3.855  0.3542 -0.4578  0.2741
 9661SOL    HW130583   6.766   3.217   3.809  0.0801 -0.2326 -0.3322
 9661SOL    HW230584   6.695   3.266   3.948  0.9313  1.4376 -0.4506
 9662SOL     OW30585   1.890   4.580   2.164 -0.3070 -0.5750  0.2684
 9662SOL    HW130586   1.916   4.505   2.102  2.0690 -0.0196  0.4976
 9662SOL    HW230587   1.950   4.579   2.244  0.4200  2.1094 -0.1589
 9663SOL     OW30588   4.153   6.681   1.829  0.2661  0.1104 -0.2272
 9663SOL    HW130589   4.127   6.676   1.925  0.0233  1.4348 -0.2045
 9663SOL    HW230590   4.241   6.635   1.815 -0.5424 -1.6543  0.2787
 9664SOL     OW30591   4.099   4.935   2.138  0.8855  0.0096 -0.0350
 9664SOL    HW130592   4.125   4.947   2.042  0.1515  0.6141 -0.1690
 9664SOL    HW230593   4.009   4.977   2.153 -0.6155 -3.0057  0.1082
 9665SOL     OW30594   5.100   0.380   6.524  0.9222 -0.2342  0.0674
 9665SOL    HW130595   5.014   0.406   6.482  1.3392 -0.5759 -1.0209
 9665SOL    HW230596   5.116   0.436   6.606  0.1743  0.5420 -0.3089
 9666SOL     OW30597   2.845   5.533   1.886  0.1236 -0.2761 -0.5640
 9666SOL    HW130598   2.789   5.585   1.950  1.5108 -0.9529  1.2941
 9666SOL    HW230599   2.831   5.435   1.902  1.4479 -0.4545 -0.3738
 9667SOL     OW30600   2.461   1.909   6.811 -0.5966 -0.2375 -0.3049
 9667SOL    HW130601   2.551   1.951   6.795 -0.5528  0.0553  0.6751
 9667SOL    HW230602   2.448   1.834   6.746  0.7442 -0.8670  0.1115
 9668SOL     OW30603   5.041   1.017   3.558  0.2172 -0.7016 -0.4320
 9668SOL    HW130604   5.087   0.930   3.544  2.7622  0.7911 -2.1718
 9668SOL    HW230605   5.088   1.069   3.630 -1.8081 -1.0035  1.2306
 9669SOL     OW30606   1.141   0.147   5.473 -0.6592 -0.2264 -0.1191
 9669SOL    HW130607   1.160   0.051   5.455 -0.5251 -0.0880 -0.7314
 9669SOL    HW230608   1.187   0.204   5.404 -0.7451  0.2733  0.2304
 9670SOL     OW30609   4.329   5.903   5.233 -0.2659 -0.1027  0.0506
 9670SOL    HW130610   4.263   5.832   5.209  0.0540 -0.7038  0.9065
 9670SOL    HW230611   4.381   5.875   5.313  0.5264  0.6886 -0.1652
 9671SOL     OW30612   6.912   5.774   4.118 -0.3947 -1.2139  0.3042
 9671SOL    HW130613   6.902   5.676   4.135 -1.1676 -1.3856 -1.0180
 9671SOL    HW230614   6.865   5.825   4.190 -0.8575 -1.8350  0.4525
 9672SOL     OW30615   2.682   3.658   5.203 -0.0995 -0.4820  0.2456
 9672SOL    HW130616   2.758   3.721   5.187  0.6304 -1.4710 -0.2775
 9672SOL    HW230617   2.648   3.625   5.115 -1.1567 -0.0421  0.4750
 9673SOL     OW30618   5.916   4.317   4.815  0.0463 -0.7038 -0.2185
 9673SOL    HW130619   5.863   4.346   4.894 -0.7034 -0.3409 -0.8350
 9673SOL    HW230620   5.854   4.287   4.742  0.6287  0.3422 -1.1958
 9674SOL     OW30621   2.046   4.885   1.333 -0.5452 -0.2798  0.2388
 9674SOL    HW130622   2.001   4.838   1.258 -1.1199  2.8540 -1.5041
 9674SOL    HW230623   1.987   4.956   1.370  0.9780  0.4351  1.4561
 9675SOL     OW30624   6.542   5.560   4.536  0.3143 -0.7942 -0.1329
 9675SOL    HW130625   6.585   5.650   4.528 -0.6774 -0.2993 -0.0570
 9675SOL    HW230626   6.446   5.566   4.509 -0.4218 -1.2773  2.1029
 9676SOL     OW30627   6.718   2.059   3.755 -0.4067  0.4638 -0.6427
 9676SOL    HW130628   6.647   2.064   3.825  1.0150  2.0838  0.7922
 9676SOL    HW230629   6.676   2.052   3.665 -2.3350  0.0930  0.2365
 9677SOL     OW30630   5.266   0.023   3.176 -0.4656 -1.0500 -0.2778
 9677SOL    HW130631   5.364   0.012   3.191 -0.5305  0.1763  1.2238
 9677SOL    HW230632   5.246   0.118   3.154 -1.3509 -1.2464 -0.3715
 9678SOL     OW30633   3.533   1.779   2.445  0.2746  0.0362 -0.0426
 9678SOL    HW130634   3.462   1.848   2.432  1.3603  1.1896 -0.0709
 9678SOL    HW230635   3.590   1.774   2.363  0.9514  0.0121  0.4161
 9679SOL     OW30636   2.188   2.988   1.196  0.2368  0.3121  0.2489
 9679SOL    HW130637   2.109   3.034   1.237  0.7274  1.5871 -0.1901
 9679SOL    HW230638   2.254   3.057   1.164  2.1110 -0.7058  1.7200
 9680SOL     OW30639   6.248   5.434   6.260  0.4761  0.1421  0.4997
 9680SOL    HW130640   6.169   5.374   6.273 -0.3661  0.8088 -1.2128
 9680SOL    HW230641   6.333   5.382   6.273 -0.2186 -1.4890 -1.1123
 9681SOL     OW30642   6.668   3.592   2.418 -0.6398 -0.3227 -0.2453
 9681SOL    HW130643   6.663   3.640   2.330  2.0600  4.6451  1.8967
 9681SOL    HW230644   6.760   3.557   2.431 -1.2703 -1.8414  0.2930
 9682SOL     OW30645   1.821   4.515   1.011  0.3533  0.2694  0.4083
 9682SOL    HW130646   1.798   4.448   1.081  0.5404  0.2022  0.4064
 9682SOL    HW230647   1.737   4.559   0.978 -0.2379 -2.2049 -1.8740
 9683SOL     OW30648   1.302   2.327   5.375  0.6291 -0.3545  0.7594
 9683SOL    HW130649   1.257   2.253   5.326  0.6067 -0.5676  1.1002
 9683SOL    HW230650   1.399   2.306   5.386  1.5197  1.3630 -2.4845
 9684SOL     OW30651   3.445   0.103   0.619 -0.1673 -0.0989  0.3585
 9684SOL    HW130652   3.536   0.067   0.600  0.3207  1.4521 -0.3863
 9684SOL    HW230653   3.405   0.141   0.536 -0.6596  1.0449  1.0910
 9685SOL     OW30654   2.749   6.546   2.146 -0.0680  0.4496  0.1764
 9685SOL    HW130655   2.822   6.614   2.137  0.7111 -0.0532  2.0802
 9685SOL    HW230656   2.666   6.591   2.180  0.7955  0.3637  2.6090
 9686SOL     OW30657   5.205   1.595   3.259 -0.1247 -0.2570 -0.5313
 9686SOL    HW130658   5.113   1.622   3.229  1.5801  3.2041 -3.3644
 9686SOL    HW230659   5.252   1.549   3.184  0.7148 -1.5666  0.7326
 9687SOL     OW30660   2.984   6.796   5.748 -0.9375  0.1500 -0.9188
 9687SOL    HW130661   2.984   6.711   5.801  0.4103  0.8661  0.2906
 9687SOL    HW230662   2.894   6.808   5.706 -1.4632 -1.3832 -0.3210
 9688SOL     OW30663   4.608   3.112   0.179  0.1246 -0.2923  0.2998
 9688SOL    HW130664   4.546   3.110   0.101  0.2304 -2.1862  0.2110
 9688SOL    HW230665   4.664   3.029   0.179  0.4794 -0.0935  2.1120
 9689SOL     OW30666   0.813   7.008   4.626 -0.0326  0.1274  0.2545
 9689SOL    HW130667   0.766   6.919   4.632  1.1102 -0.4995  0.2461
 9689SOL    HW230668   0.798   7.060   4.710  0.7531 -0.8482  1.0310
 9690SOL     OW30669   4.687   4.576   2.339 -0.1366 -0.3007  0.2303
 9690SOL    HW130670   4.621   4.514   2.380 -1.2016 -0.6811 -1.9087
 9690SOL    HW230671   4.763   4.523   2.300 -0.0618 -0.1072  0.1080
 9691SOL     OW30672   6.286   1.744   3.592  0.1067 -0.3503  0.4485
 9691SOL    HW130673   6.375   1.713   3.625 -0.3212 -0.3715  1.6340
 9691SOL    HW230674   6.299   1.818   3.526  1.0145 -0.6312  0.3059
 9692SOL     OW30675   5.465   2.136   6.199  0.0680 -0.2010  0.3826
 9692SOL    HW130676   5.498   2.160   6.291  0.3591  0.4878  0.1054
 9692SOL    HW230677   5.463   2.037   6.189 -0.2734 -0.2937  1.2476
 9693SOL     OW30678   2.630   0.854   4.890  0.7699 -0.2469  0.2687
 9693SOL    HW130679   2.594   0.868   4.982  1.1999  0.9891  0.2757
 9693SOL    HW230680   2.716   0.803   4.895  2.0462  1.8325  0.8192
 9694SOL     OW30681   5.098   1.426   4.672  0.3385 -0.1107 -0.4944
 9694SOL    HW130682   5.058   1.341   4.704  0.6939 -0.6839 -1.5294
 9694SOL    HW230683   5.185   1.407   4.627  0.2636  0.7580 -1.0256
 9695SOL     OW30684   6.469   2.313   6.111  0.1266 -0.1422  0.2983
 9695SOL    HW130685   6.407   2.347   6.040  0.3656 -1.3435 -0.5260
 9695SOL    HW230686   6.559   2.297   6.071  0.9536  1.4558  1.4566
 9696SOL     OW30687   5.956   1.359   1.827 -0.3096 -0.1781 -0.2685
 9696SOL    HW130688   6.044   1.383   1.868 -0.7765 -1.6409  1.7270
 9696SOL    HW230689   5.882   1.385   1.889 -1.1278 -1.2512 -0.7686
 9697SOL     OW30690   1.777   6.827   6.970  0.0665  0.2739 -0.1106
 9697SOL    HW130691   1.814   6.920   6.975 -0.1960  0.3827 -0.2221
 9697SOL    HW230692   1.700   6.818   7.033  0.0784  0.1388 -0.1149
 9698SOL     OW30693   3.220   1.009   2.340 -0.0083 -0.8102 -0.1432
 9698SOL    HW130694   3.228   1.035   2.243 -2.7716  1.5651  0.1182
 9698SOL    HW230695   3.227   1.091   2.397 -0.2817 -1.9091  1.5210
 9699SOL     OW30696   4.395   3.806   1.322  0.4900  0.4169 -0.0451
 9699SOL    HW130697   4.393   3.725   1.264  0.9000  0.3335  0.0540
 9699SOL    HW230698   4.322   3.868   1.295 -0.7295 -0.6068  0.7621
 9700SOL     OW30699   1.207   4.698   4.083 -0.4550 -0.5126  0.2731
 9700SOL    HW130700   1.235   4.609   4.046 -0.0475 -0.4024  0.3150
 9700SOL    HW230701   1.177   4.687   4.178 -2.7813 -1.0337 -0.4524
 9701SOL     OW30702   5.801   3.702   2.732 -0.0461  0.4261 -0.5179
 9701SOL    HW130703   5.725   3.709   2.668 -0.4800 -0.0854 -0.0702
 9701SOL    HW230704   5.879   3.754   2.698 -0.6127  0.9908 -0.9583
 9702SOL     OW30705   0.187   6.979   2.529 -0.2866 -0.1836  0.2148
 9702SOL    HW130706   0.223   7.000   2.620 -0.4375  1.1119 -0.0040
 9702SOL    HW230707   0.101   6.930   2.537 -1.0222  1.1489  0.8069
 9703SOL     OW30708   6.586   6.872   2.404  0.4141 -0.4535  0.8504
 9703SOL    HW130709   6.546   6.958   2.375  1.0623 -0.1022  0.9821
 9703SOL    HW230710   6.516   6.801   2.405  0.5604 -0.8572 -2.9634
 9704SOL     OW30711   5.217   6.509   6.381  0.1519 -0.8725 -0.7124
 9704SOL    HW130712   5.239   6.423   6.336  2.1535 -0.1625 -1.2001
 9704SOL    HW230713   5.153   6.492   6.456  2.3661 -3.2147  0.8305
 9705SOL     OW30714   0.092   4.390   6.172  0.7271 -0.4749  0.3149
 9705SOL    HW130715   0.061   4.475   6.129  1.4116 -0.6318 -0.5061
 9705SOL    HW230716   0.051   4.382   6.263 -1.8666 -0.7846 -0.7742
 9706SOL     OW30717   2.158   6.866   3.401  0.2565 -0.2744  0.1046
 9706SOL    HW130718   2.097   6.791   3.426  1.5586 -1.5287 -0.3439
 9706SOL    HW230719   2.110   6.928   3.339 -1.7173  0.7853  2.5227
 9707SOL     OW30720   6.524   5.388   6.467 -0.0177 -0.1105  0.8838
 9707SOL    HW130721   6.544   5.414   6.561  1.0008 -0.4040  0.7602
 9707SOL    HW230722   6.607   5.396   6.412 -0.4182 -0.6877  0.1774
 9708SOL     OW30723   0.934   0.446   6.882 -1.0786 -0.2105 -0.1085
 9708SOL    HW130724   0.912   0.352   6.856 -1.3472 -0.7847  2.0095
 9708SOL    HW230725   1.028   0.466   6.856 -1.3652 -0.6472 -1.5963
 9709SOL     OW30726   2.598   5.500   5.127 -0.0461 -0.2034  0.1667
 9709SOL    HW130727   2.580   5.411   5.170 -2.5052 -0.9503 -2.0973
 9709SOL    HW230728   2.695   5.521   5.133  0.4913 -2.6734  1.4439
 9710SOL     OW30729   6.581   4.605   4.395  0.4171 -0.2828 -0.0046
 9710SOL    HW130730   6.639   4.538   4.441  0.8498  0.4512  0.5422
 9710SOL    HW230731   6.505   4.559   4.350  2.3491 -1.5040 -2.2627
 9711SOL     OW30732   3.240   1.549   3.201 -0.2083  0.0504  0.5152
 9711SOL    HW130733   3.327   1.513   3.236 -0.6481 -3.1103 -1.3077
 9711SOL    HW230734   3.177   1.564   3.277  0.4059 -2.1223  1.5239
 9712SOL     OW30735   3.334   4.253   1.727 -0.2093  0.7370  0.1053
 9712SOL    HW130736   3.315   4.334   1.782  0.8661  0.8885  0.2622
 9712SOL    HW230737   3.305   4.171   1.777 -0.0693  0.9364  0.5134
 9713SOL     OW30738   6.916   5.310   0.132  0.0998 -0.1186  0.2396
 9713SOL    HW130739   6.869   5.225   0.155  0.9900 -0.4942  0.6928
 9713SOL    HW230740   6.862   5.387   0.165 -0.6658 -0.5015 -0.0867
 9714SOL     OW30741   7.010   4.827   3.038 -0.5587 -0.0493 -0.1439
 9714SOL    HW130742   7.038   4.750   2.981  0.1046  0.8081 -1.0245
 9714SOL    HW230743   7.081   4.848   3.104 -1.4429 -1.2137  1.2317
 9715SOL     OW30744   2.582   3.878   0.063  0.4159  0.6262  0.5217
 9715SOL    HW130745   2.594   3.958   0.004  3.1974  0.1141  0.2752
 9715SOL    HW230746   2.484   3.857   0.071 -0.2079  2.3522 -1.6523
 9716SOL     OW30747   5.456   4.414   5.299 -0.6078 -0.1222 -0.0704
 9716SOL    HW130748   5.382   4.429   5.364 -1.0628 -0.2244 -0.5505
 9716SOL    HW230749   5.489   4.502   5.265 -0.8213 -0.0878 -0.1931
 9717SOL     OW30750   4.255   6.228   5.579  0.5224  0.1942 -0.8287
 9717SOL    HW130751   4.222   6.163   5.511  0.8886 -0.8023 -0.0886
 9717SOL    HW230752   4.310   6.298   5.534 -0.4584  0.4148 -1.7328
 9718SOL     OW30753   2.926   2.209   4.941 -0.2115 -0.1253  0.1612
 9718SOL    HW130754   2.860   2.275   4.977 -0.6822  0.4178 -1.6175
 9718SOL    HW230755   2.899   2.181   4.849  1.8508 -0.1706 -0.4768
 9719SOL     OW30756   6.525   4.265   0.926 -0.0652  0.1392  0.0258
 9719SOL    HW130757   6.436   4.268   0.881  0.3955  1.3326 -0.8546
 9719SOL    HW230758   6.596   4.247   0.857  0.5204  0.6667  0.4863
 9720SOL     OW30759   5.596   6.747   4.917 -0.3392 -0.8031 -0.3249
 9720SOL    HW130760   5.620   6.843   4.900 -1.7029 -0.3734  0.0678
 9720SOL    HW230761   5.498   6.739   4.929 -0.1854 -2.1867  0.1739
 9721SOL     OW30762   1.622   1.408   0.030 -0.1470 -0.4392 -0.2556
 9721SOL    HW130763   1.658   1.334  -0.027  1.4098 -0.2616  0.4450
 9721SOL    HW230764   1.623   1.493  -0.022  2.0095 -0.1195  0.1947
 9722SOL     OW30765   5.858   1.783   6.786  0.6473  0.3636 -0.3413
 9722SOL    HW130766   5.759   1.778   6.794  0.4820  1.8283 -1.2022
 9722SOL    HW230767   5.895   1.848   6.852  1.1281 -0.6913  0.4568
 9723SOL     OW30768   6.315   0.988   5.967  0.1251 -0.7877  0.1535
 9723SOL    HW130769   6.263   1.068   5.998  0.4581 -0.5597  0.1310
 9723SOL    HW230770   6.394   0.974   6.028 -0.5711 -1.7982  0.8576
 9724SOL     OW30771   2.384   3.299   6.425  0.1534  0.7010 -0.7416
 9724SOL    HW130772   2.480   3.319   6.404  0.6811 -0.5468  0.3138
 9724SOL    HW230773   2.362   3.205   6.400 -0.5095  0.6649 -0.0878
 9725SOL     OW30774   5.408   2.805   2.631 -0.0873  0.0449  0.3540
 9725SOL    HW130775   5.352   2.772   2.555  0.8980 -0.8538 -0.0078
 9725SOL    HW230776   5.383   2.756   2.714  1.1970 -1.4985 -0.1308
 9726SOL     OW30777   1.917   2.477   6.376  0.1055  0.1281  0.1549
 9726SOL    HW130778   1.836   2.421   6.389  1.8244 -2.4127  0.5192
 9726SOL    HW230779   1.929   2.496   6.278 -1.7313  1.9686  0.1997
 9727SOL     OW30780   6.088   2.523   1.819  0.4010  0.0824  0.0093
 9727SOL    HW130781   6.001   2.554   1.857  0.5095 -0.0437  0.3691
 9727SOL    HW230782   6.125   2.593   1.759 -0.2790 -0.1425 -0.6855
 9728SOL     OW30783   1.436   0.294   3.915 -0.3203  0.1382  0.1250
 9728SOL    HW130784   1.421   0.381   3.869 -0.6901  0.1607  0.2892
 9728SOL    HW230785   1.517   0.250   3.876 -1.1852 -0.3089 -1.2445
 9729SOL     OW30786   1.609   0.263   4.829  0.3016  0.2462  0.8548
 9729SOL    HW130787   1.653   0.194   4.771 -2.0204  0.1271 -0.8881
 9729SOL    HW230788   1.569   0.217   4.909 -2.1115 -0.7130 -0.7993
 9730SOL     OW30789   2.770   5.962   6.077  0.6713  0.4169  0.3102
 9730SOL    HW130790   2.837   5.959   6.003 -1.5691 -0.2867 -1.8120
 9730SOL    HW230791   2.788   5.887   6.141  1.8261  0.1803 -0.2611
 9731SOL     OW30792   0.755   3.895   5.790 -0.5632  0.0747 -0.2165
 9731SOL    HW130793   0.780   3.860   5.880 -0.2273 -0.1946 -0.4104
 9731SOL    HW230794   0.656   3.892   5.779 -0.5132 -1.7256 -0.5773
 9732SOL     OW30795   1.069   4.175   4.638 -0.5203  0.1154  0.2189
 9732SOL    HW130796   0.979   4.174   4.594 -0.4360 -0.3427  0.0513
 9732SOL    HW230797   1.097   4.081   4.658 -0.5020  0.3085  1.1414
 9733SOL     OW30798   3.820   2.068   5.825  0.0294  0.1535  0.1317
 9733SOL    HW130799   3.735   2.029   5.861 -0.7625  0.0169 -1.7671
 9733SOL    HW230800   3.868   1.999   5.771  0.6621  0.6442  0.0498
 9734SOL     OW30801   0.657   0.770   2.830 -0.2386 -0.4802 -0.1790
 9734SOL    HW130802   0.719   0.721   2.892  0.4858  0.1828 -0.3713
 9734SOL    HW230803   0.601   0.703   2.780  1.5222 -1.2168 -1.2736
 9735SOL     OW30804   5.556   5.028   5.476 -0.0546 -0.0077 -0.2245
 9735SOL    HW130805   5.583   5.031   5.572 -0.3683  0.5748 -0.1539
 9735SOL    HW230806   5.499   4.947   5.460  1.8204 -1.3728 -0.4111
 9736SOL     OW30807   0.151   6.274   5.700  0.2554 -0.1367 -0.8803
 9736SOL    HW130808   0.166   6.176   5.709 -0.1250 -0.2036 -0.9694
 9736SOL    HW230809   0.079   6.303   5.762 -0.2171 -0.0608 -1.4517
 9737SOL     OW30810   5.075   1.536   6.117  0.6301 -0.0052 -0.0270
 9737SOL    HW130811   5.102   1.631   6.106  0.1675  0.0873 -0.3824
 9737SOL    HW230812   4.983   1.531   6.156  0.2704 -0.2949 -0.8949
 9738SOL     OW30813   5.721   2.391   6.706 -0.2032 -0.5911  0.3959
 9738SOL    HW130814   5.640   2.437   6.742 -0.7760 -0.1781 -1.3341
 9738SOL    HW230815   5.703   2.360   6.613  1.1209 -1.8729  0.5270
 9739SOL     OW30816   1.559   4.372   6.850  0.2944  0.1523 -0.3197
 9739SOL    HW130817   1.544   4.470   6.844 -0.0957  0.1956  1.0401
 9739SOL    HW230818   1.561   4.332   6.758  1.3064  1.5435 -0.9287
 9740SOL     OW30819   5.065   3.339   5.536  0.2669 -0.0937 -0.4482
 9740SOL    HW130820   5.128   3.280   5.588 -0.0772 -0.5839 -0.5851
 9740SOL    HW230821   5.072   3.433   5.571  0.5898 -0.2720 -0.0169
 9741SOL     OW30822   1.683   6.997   6.619  0.3080 -0.1317  0.4579
 9741SOL    HW130823   1.736   6.921   6.656  0.5506  0.0032  0.3850
 9741SOL    HW230824   1.666   6.981   6.522  1.5387  0.5640  0.1015
 9742SOL     OW30825   5.593   3.904   4.340  0.0722 -0.2593  0.7932
 9742SOL    HW130826   5.657   3.911   4.263  1.8860 -1.1788  2.1424
 9742SOL    HW230827   5.631   3.843   4.409 -0.6624  1.9035  3.2394
 9743SOL     OW30828   2.973   6.959   6.534 -0.2302 -0.0736  0.3293
 9743SOL    HW130829   3.051   6.921   6.484 -1.0505 -0.4353 -0.7071
 9743SOL    HW230830   2.985   7.058   6.544  0.5390 -0.1782  0.5287
 9744SOL     OW30831   4.106   5.321   4.370  0.3002  0.1667  0.2149
 9744SOL    HW130832   4.173   5.358   4.306 -0.9261 -0.8309 -1.7661
 9744SOL    HW230833   4.042   5.393   4.397 -0.4872  0.1612 -1.4977
 9745SOL     OW30834   3.826   4.081   1.193 -0.2182 -0.1149 -0.0995
 9745SOL    HW130835   3.886   4.054   1.117 -0.9815  0.2097 -0.8363
 9745SOL    HW230836   3.740   4.031   1.187  0.3080 -1.3016  1.5088
 9746SOL     OW30837   4.370   4.558   0.509  0.4363 -0.0220 -0.1698
 9746SOL    HW130838   4.374   4.458   0.505 -0.6870 -0.1554  1.2157
 9746SOL    HW230839   4.318   4.593   0.431 -0.3844 -0.6325  0.0863
 9747SOL     OW30840   5.261   3.304   0.004  0.0192  0.0443 -0.3320
 9747SOL    HW130841   5.312   3.219  -0.008  1.6603  1.0796 -1.1343
 9747SOL    HW230842   5.312   3.365   0.065 -1.8642 -0.0882  1.4629
 9748SOL     OW30843   5.649   2.802   4.591  0.3540  0.6953 -0.1900
 9748SOL    HW130844   5.743   2.772   4.598  0.5142  1.2976  0.3900
 9748SOL    HW230845   5.614   2.782   4.499  1.1469  0.7684 -0.5158
 9749SOL     OW30846   5.568   2.404   6.444  0.1432 -0.2412  0.2318
 9749SOL    HW130847   5.498   2.332   6.451 -1.5375  1.2656 -0.2035
 9749SOL    HW230848   5.578   2.432   6.349  1.0187 -0.0973  0.3565
 9750SOL     OW30849   2.676   2.595   5.919 -0.1348  0.0949  0.6565
 9750SOL    HW130850   2.680   2.584   5.820 -0.0801 -1.3300  0.7939
 9750SOL    HW230851   2.582   2.580   5.950 -0.2584  1.0503  0.7869
 9751SOL     OW30852   1.582   1.851   2.351 -0.7886 -0.0225 -0.7245
 9751SOL    HW130853   1.520   1.884   2.281  0.7636 -0.0076 -2.1444
 9751SOL    HW230854   1.658   1.915   2.362 -0.7182 -0.3005  0.5991
 9752SOL     OW30855   4.362   0.655   0.721 -0.8447 -0.6957 -0.7283
 9752SOL    HW130856   4.265   0.675   0.735 -0.5950 -0.0588  0.2020
 9752SOL    HW230857   4.403   0.628   0.808  0.4749  2.0205 -0.4041
 9753SOL     OW30858   6.360   1.178   1.427  0.4542 -0.0552  0.1139
 9753SOL    HW130859   6.261   1.164   1.436  0.7951 -1.6749  2.4236
 9753SOL    HW230860   6.408   1.093   1.451  2.4278  0.5978 -1.2529
 9754SOL     OW30861   2.761   2.632   1.233  0.3837  0.2755  0.3170
 9754SOL    HW130862   2.732   2.553   1.287 -0.9876 -0.0107 -0.7823
 9754SOL    HW230863   2.845   2.610   1.183  1.0280  0.1619  1.4189
 9755SOL     OW30864   6.665   4.089   6.689 -0.7306  0.2754  0.2233
 9755SOL    HW130865   6.661   4.175   6.738  1.1485  0.7202 -0.3033
 9755SOL    HW230866   6.648   4.105   6.591  0.7971  0.2883 -0.0694
 9756SOL     OW30867   2.930   6.253   4.465 -0.0728  0.0454  0.3549
 9756SOL    HW130868   2.919   6.255   4.366  0.0322 -0.5472  0.3243
 9756SOL    HW230869   2.909   6.161   4.498  0.0889  0.1887  0.8572
 9757SOL     OW30870   2.821   4.843   0.973 -0.0436 -0.1710 -0.0913
 9757SOL    HW130871   2.816   4.936   1.010 -0.4513 -0.3890  0.4066
 9757SOL    HW230872   2.744   4.828   0.911 -0.6639 -0.5754  0.7616
 9758SOL     OW30873   5.805   5.999   6.726 -0.3354 -0.8499  0.2706
 9758SOL    HW130874   5.816   6.052   6.810  1.1662  3.4695 -2.3481
 9758SOL    HW230875   5.720   6.026   6.681  1.6045  1.5546 -2.3122
 9759SOL     OW30876   4.631   2.347   0.301 -0.3981  0.2087 -0.2872
 9759SOL    HW130877   4.621   2.417   0.231 -1.6788 -0.6488 -0.9937
 9759SOL    HW230878   4.612   2.257   0.262 -1.2118 -0.2846  1.1443
 9760SOL     OW30879   2.189   2.552   6.717  0.1954 -0.4508 -0.4670
 9760SOL    HW130880   2.237   2.638   6.735  1.3309 -1.6607  2.9029
 9760SOL    HW230881   2.220   2.515   6.630  3.0221  0.3956  0.0990
 9761SOL     OW30882   1.146   2.387   6.877  0.3555  0.1053  0.6247
 9761SOL    HW130883   1.097   2.449   6.939 -0.4285 -1.1644  1.3458
 9761SOL    HW230884   1.228   2.353   6.922  0.7071  0.5126  0.2895
 9762SOL     OW30885   2.095   2.049   2.387  0.1314  0.5253  0.4457
 9762SOL    HW130886   2.158   2.045   2.310  2.3172  0.5611  2.1291
 9762SOL    HW230887   2.068   1.957   2.413 -0.3349  0.4952 -0.1399
 9763SOL     OW30888   3.975   3.421   4.033 -0.0487  0.6708  0.2147
 9763SOL    HW130889   3.963   3.495   4.100  1.5835  1.3624 -0.2253
 9763SOL    HW230890   4.054   3.440   3.976  0.1616 -1.2434 -0.1862
 9764SOL     OW30891   4.674   5.333   2.980  0.5570 -0.0132 -0.2451
 9764SOL    HW130892   4.665   5.235   2.965 -1.3270  0.1506 -0.5025
 9764SOL    HW230893   4.585   5.377   2.966  1.4819  1.8198 -0.7082
 9765SOL     OW30894   0.647   3.403   6.494  0.1601 -0.0318  0.4277
 9765SOL    HW130895   0.740   3.419   6.527  1.5395  0.3547 -3.1185
 9765SOL    HW230896   0.636   3.305   6.475 -0.2008 -0.0868  0.9086
 9766SOL     OW30897   6.910   3.969   1.332  0.5656  0.1954  0.1338
 9766SOL    HW130898   6.833   3.929   1.283 -0.3013  0.1226  1.4872
 9766SOL    HW230899   6.929   4.060   1.296 -0.0639  0.1571 -0.3099
 9767SOL     OW30900   1.617   6.672   3.234 -0.1109 -0.4941 -0.4147
 9767SOL    HW130901   1.615   6.576   3.260  1.7599 -0.3024  0.6646
 9767SOL    HW230902   1.677   6.722   3.297 -3.2115  1.9682  0.8790
 9768SOL     OW30903   1.443   3.235   5.264  0.0243  0.0247  0.0195
 9768SOL    HW130904   1.415   3.216   5.358 -0.9706  1.7685  0.1202
 9768SOL    HW230905   1.541   3.221   5.255  0.3477  0.9907  1.6440
 9769SOL     OW30906   2.766   1.319   6.348  0.0164  0.2132  0.1417
 9769SOL    HW130907   2.781   1.350   6.442 -0.5079 -2.7984  1.3057
 9769SOL    HW230908   2.690   1.254   6.345 -0.1323  0.3850 -2.4348
 9770SOL     OW30909   6.950   6.137   2.781 -0.1538  0.0528 -0.2399
 9770SOL    HW130910   7.022   6.110   2.846  0.6144  3.4027  0.5414
 9770SOL    HW230911   6.981   6.217   2.730 -3.5983  2.3328  0.8660
 9771SOL     OW30912   6.405   6.306   6.956  0.3931 -0.4973 -0.7421
 9771SOL    HW130913   6.433   6.276   7.047 -3.7556  0.4025  1.0776
 9771SOL    HW230914   6.419   6.405   6.948 -1.7558 -0.0764  0.1070
 9772SOL     OW30915   6.493   5.349   1.551  0.1966  0.1655 -0.0810
 9772SOL    HW130916   6.578   5.334   1.601 -0.8028 -1.4462  1.2290
 9772SOL    HW230917   6.504   5.320   1.456  1.9413  2.7168 -0.7641
 9773SOL     OW30918   2.500   4.243   0.663  0.1453  0.3919 -0.2083
 9773SOL    HW130919   2.585   4.230   0.612  0.3593  0.4421  0.1312
 9773SOL    HW230920   2.423   4.251   0.599  0.5744  1.8026 -0.5950
 9774SOL     OW30921   4.528   4.083   1.623 -0.4223  0.0071 -0.2330
 9774SOL    HW130922   4.607   4.022   1.633 -1.0071 -0.7751 -0.2399
 9774SOL    HW230923   4.444   4.029   1.633 -0.9592  0.6697 -1.0845
 9775SOL     OW30924   1.067   5.958   6.466  0.5041 -0.6648  0.6748
 9775SOL    HW130925   1.020   6.037   6.428 -0.5816 -0.4713  2.3114
 9775SOL    HW230926   1.068   5.884   6.399 -1.4789 -0.4038  0.2956
 9776SOL     OW30927   4.988   3.638   5.589 -0.2371 -0.2988 -0.1863
 9776SOL    HW130928   5.072   3.637   5.643 -0.1432 -1.6956 -0.3217
 9776SOL    HW230929   4.928   3.710   5.623  0.8303  0.4496  0.1832
 9777SOL     OW30930   5.297   0.991   1.816  0.1174 -0.4576  0.2137
 9777SOL    HW130931   5.228   0.967   1.749  0.1403  1.4362 -0.5515
 9777SOL    HW230932   5.385   0.952   1.789 -0.1747 -0.9490 -0.0412
 9778SOL     OW30933   5.745   1.359   0.423  0.4764  0.4056  0.2440
 9778SOL    HW130934   5.820   1.360   0.488 -0.7580 -1.0250  1.7787
 9778SOL    HW230935   5.660   1.385   0.469 -0.4446 -0.7070 -0.7645
 9779SOL     OW30936   5.525   1.111   1.050 -0.1580 -0.0993  0.4852
 9779SOL    HW130937   5.585   1.111   0.970  0.8524 -1.8834  1.1871
 9779SOL    HW230938   5.563   1.172   1.120  0.7409 -1.0214  0.8262
 9780SOL     OW30939   3.037   0.500   1.070  0.4628 -0.0010 -0.5300
 9780SOL    HW130940   3.038   0.581   1.128  1.6392 -0.8639  0.7303
 9780SOL    HW230941   3.065   0.525   0.977  1.6523  0.9017  0.0469
 9781SOL     OW30942   1.568   2.407   5.144  0.4455 -0.1130  1.0295
 9781SOL    HW130943   1.615   2.434   5.227 -0.2890 -1.1596  1.8172
 9781SOL    HW230944   1.541   2.311   5.150  1.8487 -0.7234 -1.1210
 9782SOL     OW30945   5.844   3.361   0.627  0.8869 -0.0801 -0.1461
 9782SOL    HW130946   5.750   3.329   0.612  0.4842 -0.8087  3.1301
 9782SOL    HW230947   5.843   3.445   0.680  2.0306 -0.9633  1.3658
 9783SOL     OW30948   1.452   0.774   5.097 -0.8336 -0.3906  0.8355
 9783SOL    HW130949   1.391   0.696   5.088 -1.1766  0.0508 -1.0331
 9783SOL    HW230950   1.502   0.788   5.012 -0.1577  0.9261  1.4111
 9784SOL     OW30951   1.524   1.983   3.343  0.0513 -0.0480 -0.7718
 9784SOL    HW130952   1.500   1.897   3.389  0.0164 -0.2840 -1.2312
 9784SOL    HW230953   1.447   2.047   3.351 -1.6856 -1.5103 -4.0293
 9785SOL     OW30954   0.040   6.654   4.970 -0.6968  0.4178  0.6559
 9785SOL    HW130955  -0.026   6.729   4.978  0.9968  1.8191  2.6640
 9785SOL    HW230956   0.117   6.671   5.032  0.3542 -2.4034  0.2687
 9786SOL     OW30957   4.169   5.236   3.459  0.5340  0.3718 -0.0329
 9786SOL    HW130958   4.148   5.246   3.362 -0.3127 -1.4551 -0.0699
 9786SOL    HW230959   4.088   5.201   3.507  1.4598 -0.3604  1.0299
 9787SOL     OW30960   5.125   1.792   0.339 -0.2717  0.2306  0.2067
 9787SOL    HW130961   5.150   1.741   0.421 -0.1234  0.1519  0.1150
 9787SOL    HW230962   5.204   1.795   0.277 -0.4718  0.0403 -0.0583
 9788SOL     OW30963   0.165   0.223   2.469 -0.0248 -0.0396 -0.4206
 9788SOL    HW130964   0.179   0.127   2.495  0.9233 -0.0610 -0.9906
 9788SOL    HW230965   0.228   0.247   2.396  2.0183  1.9395  1.8248
 9789SOL     OW30966   3.924   0.964   0.171 -0.7486  0.1052 -0.3968
 9789SOL    HW130967   3.853   0.915   0.223 -1.2138  0.1038 -1.0208
 9789SOL    HW230968   3.962   1.037   0.229 -0.5010 -0.5686  0.3126
 9790SOL     OW30969   5.467   2.331   3.091 -0.1018 -0.6106  0.6960
 9790SOL    HW130970   5.498   2.236   3.101  0.5143 -0.3095  1.8628
 9790SOL    HW230971   5.450   2.370   3.182  1.6534  1.0232  0.3893
 9791SOL     OW30972   6.475   1.613   5.662  0.5345  0.2973  0.6975
 9791SOL    HW130973   6.484   1.579   5.756  2.1677  1.3478  0.9715
 9791SOL    HW230974   6.434   1.705   5.664  0.0546  0.0899  0.3344
 9792SOL     OW30975   0.003   6.320   1.773  0.1084 -0.3166  0.4632
 9792SOL    HW130976  -0.075   6.261   1.752  0.9266 -1.0581 -0.6146
 9792SOL    HW230977   0.085   6.264   1.782  0.2173  0.1933  3.6876
 9793SOL     OW30978   6.751   3.406   1.696 -0.6257  0.0881 -0.1025
 9793SOL    HW130979   6.848   3.425   1.711 -0.3489  0.5758 -2.1470
 9793SOL    HW230980   6.717   3.345   1.767  0.2134  2.7525  2.8385
 9794SOL     OW30981   4.166   5.678   5.222 -0.3352 -0.4085  0.1493
 9794SOL    HW130982   4.074   5.644   5.202  0.3476 -2.0820 -0.2952
 9794SOL    HW230983   4.228   5.600   5.235  0.7468  0.6685  1.7688
 9795SOL     OW30984   5.469   5.868   4.320  0.4297 -0.4508 -0.1718
 9795SOL    HW130985   5.390   5.880   4.380  0.8977 -0.3392  0.4248
 9795SOL    HW230986   5.552   5.861   4.374  0.7513 -1.3865 -0.7495
 9796SOL     OW30987   4.923   6.824   0.118  0.5531  0.4968 -0.2457
 9796SOL    HW130988   4.945   6.921   0.109  0.0843  0.8362  1.7405
 9796SOL    HW230989   4.919   6.799   0.215 -2.0067 -0.8819 -0.6059
 9797SOL     OW30990   0.262   5.248   6.153  0.4469 -0.3658 -0.2333
 9797SOL    HW130991   0.342   5.296   6.117 -0.5043 -0.7346 -3.0795
 9797SOL    HW230992   0.248   5.163   6.101 -0.4423 -1.5435  1.8068
 9798SOL     OW30993   1.781   6.212   5.787 -0.2958 -0.0142  0.0489
 9798SOL    HW130994   1.743   6.170   5.705  0.9103 -0.9116 -0.0854
 9798SOL    HW230995   1.727   6.184   5.867  0.9166 -2.5748  0.0740
 9799SOL     OW30996   7.016   5.204   6.233  0.6177  0.1187 -0.2131
 9799SOL    HW130997   7.115   5.209   6.219  0.5742 -1.3367 -1.2221
 9799SOL    HW230998   6.972   5.285   6.193  1.2367 -0.1513 -1.4625
 9800SOL     OW30999   5.603   0.320   6.750 -0.5693  0.6912 -0.1853
 9800SOL    HW131000   5.601   0.311   6.849 -2.6718  0.0066 -0.2458
 9800SOL    HW231001   5.671   0.256   6.713 -0.5490  0.1556  0.7418
 9801SOL     OW31002   1.172   3.341   4.964 -0.4118 -0.0086  0.2003
 9801SOL    HW131003   1.201   3.246   4.970 -0.2218 -0.0077 -0.6097
 9801SOL    HW231004   1.222   3.395   5.032 -0.7196 -0.5271  0.8499
 9802SOL     OW31005   1.320   0.913   0.831 -0.1933  0.4214  0.0838
 9802SOL    HW131006   1.265   0.941   0.752 -2.8553 -1.9335  0.9179
 9802SOL    HW231007   1.357   0.822   0.815 -0.4197  0.0853  1.3752
 9803SOL     OW31008   6.496   4.311   3.401 -0.2978 -0.6238 -0.0676
 9803SOL    HW131009   6.508   4.333   3.304 -2.2957 -0.2540 -0.2796
 9803SOL    HW231010   6.522   4.215   3.416  1.4058 -0.2900 -0.6410
 9804SOL     OW31011   5.687   6.269   5.912 -0.0132 -0.0570 -0.3941
 9804SOL    HW131012   5.712   6.248   6.007 -1.8798 -0.3106  0.0957
 9804SOL    HW231013   5.735   6.351   5.882  0.2025  0.3468  0.9726
 9805SOL     OW31014   3.420   3.450   0.216 -0.1986 -0.1004 -0.0455
 9805SOL    HW131015   3.384   3.390   0.145 -2.6163  1.0466  0.1136
 9805SOL    HW231016   3.439   3.541   0.177 -1.1477  0.4119  0.6406
 9806SOL     OW31017   5.665   1.583   4.549 -0.3328  0.1775  0.0839
 9806SOL    HW131018   5.568   1.598   4.567 -0.6313 -0.8588 -0.5774
 9806SOL    HW231019   5.719   1.652   4.597 -1.3133 -0.0321  1.5560
 9807SOL     OW31020   2.329   5.472   4.846  0.1452  0.1664  0.1669
 9807SOL    HW131021   2.394   5.482   4.922 -0.4003 -1.8856  0.9709
 9807SOL    HW231022   2.240   5.509   4.873 -0.5067 -2.0054  1.2359
 9808SOL     OW31023   3.163   6.880   4.477 -0.2963 -0.6364  0.1600
 9808SOL    HW131024   3.226   6.953   4.505 -1.9199  0.6927  0.5376
 9808SOL    HW231025   3.167   6.805   4.543 -1.4983  0.9148  2.1086
 9809SOL     OW31026   6.192   3.135   2.150 -0.6221  0.0097  0.0538
 9809SOL    HW131027   6.129   3.098   2.218  0.8611  0.7778  1.9419
 9809SOL    HW231028   6.182   3.234   2.145 -0.0201  0.0690 -0.0803
 9810SOL     OW31029   4.454   5.859   6.170  0.0133 -0.2340  0.1277
 9810SOL    HW131030   4.370   5.813   6.139 -0.2887 -1.1693  2.1607
 9810SOL    HW231031   4.518   5.865   6.094 -0.7576 -2.1744 -0.7633
 9811SOL     OW31032   5.369   4.641   3.755 -0.1417  0.4095  0.0028
 9811SOL    HW131033   5.367   4.676   3.849 -1.5193  0.2358  0.0469
 9811SOL    HW231034   5.361   4.541   3.756  3.5716 -0.0556 -0.1320
 9812SOL     OW31035   0.477   3.123   2.935  0.0313 -0.3941  0.2142
 9812SOL    HW131036   0.395   3.134   2.992  0.0870 -1.7701  0.6060
 9812SOL    HW231037   0.455   3.148   2.840 -0.0736  1.8858  0.7718
 9813SOL     OW31038   2.971   5.028   5.762  0.0562  0.1303 -1.0289
 9813SOL    HW131039   3.009   4.936   5.772 -1.8587 -0.6691 -0.6108
 9813SOL    HW231040   2.948   5.064   5.852 -0.6344  0.3718 -1.2983
 9814SOL     OW31041   6.726   3.592   4.094  0.4769  0.3658  0.3231
 9814SOL    HW131042   6.781   3.675   4.090  0.5714  0.3208  0.7078
 9814SOL    HW231043   6.708   3.560   4.001  1.4610  0.1441  0.1988
 9815SOL     OW31044   2.344   4.669   4.825 -0.1917  0.1246 -0.1446
 9815SOL    HW131045   2.254   4.636   4.797 -0.4114  2.0457 -1.9335
 9815SOL    HW231046   2.339   4.765   4.852  1.1677  0.0084  0.6428
 9816SOL     OW31047   5.274   5.017   5.623  0.0529  0.0846 -0.1278
 9816SOL    HW131048   5.219   4.986   5.701 -0.7332  1.5176 -0.0752
 9816SOL    HW231049   5.273   4.947   5.551 -3.9278  0.9535 -1.1590
 9817SOL     OW31050   0.622   1.891   1.887  0.5113  0.6950  0.1438
 9817SOL    HW131051   0.599   1.985   1.909 -2.8067  0.6027 -2.2094
 9817SOL    HW231052   0.610   1.875   1.789  0.1397 -2.3681  0.5746
 9818SOL     OW31053   2.705   2.747   0.511 -0.0049 -0.2557  0.3645
 9818SOL    HW131054   2.663   2.704   0.591  0.9808  0.9025  1.5466
 9818SOL    HW231055   2.713   2.845   0.526  0.0379  0.0179 -1.2528
 9819SOL     OW31056   3.590   3.512   2.901 -0.1077 -0.0603 -0.6423
 9819SOL    HW131057   3.518   3.453   2.936  0.1271 -0.7210 -1.2540
 9819SOL    HW231058   3.664   3.456   2.863  1.4362  0.5547  1.3090
 9820SOL     OW31059   4.348   5.003   4.775  0.1217 -0.2649 -0.3303
 9820SOL    HW131060   4.442   4.991   4.744  0.4183  1.1184 -0.0188
 9820SOL    HW231061   4.308   5.083   4.730 -0.6972 -0.4789  0.0064
 9821SOL     OW31062   0.828   4.040   3.633  0.2117 -0.1752  0.2910
 9821SOL    HW131063   0.826   3.944   3.605  0.1428 -0.6695  1.8573
 9821SOL    HW231064   0.734   4.073   3.645  0.1962  0.4577 -1.3178
 9822SOL     OW31065   2.813   3.850   3.349  0.1581  0.5420  0.8466
 9822SOL    HW131066   2.831   3.885   3.257 -0.6972 -1.0425  0.0233
 9822SOL    HW231067   2.897   3.811   3.387  0.9574  2.7217  1.5103
 9823SOL     OW31068   3.001   1.013   6.751  0.1603  0.0685  0.0298
 9823SOL    HW131069   2.976   0.919   6.771 -2.6499  1.1265  2.1783
 9823SOL    HW231070   2.924   1.060   6.708  1.4661  1.4604 -0.9244
 9824SOL     OW31071   1.418   1.565   1.768 -0.1293 -0.7253  0.0330
 9824SOL    HW131072   1.426   1.559   1.867 -0.5570 -1.8697  0.0123
 9824SOL    HW231073   1.482   1.500   1.726 -0.2512 -0.5496 -0.4269
 9825SOL     OW31074   3.388   5.194   1.773 -0.3796 -0.7059  0.3953
 9825SOL    HW131075   3.432   5.195   1.863  1.1494 -1.0781 -0.3138
 9825SOL    HW231076   3.378   5.288   1.740  2.2769 -0.6717 -0.5095
 9826SOL     OW31077   6.613   6.201   5.170  0.2118  0.1802  0.3333
 9826SOL    HW131078   6.622   6.246   5.081  1.2516 -1.0211 -0.2027
 9826SOL    HW231079   6.554   6.256   5.230  1.5433  2.3241 -0.2130
 9827SOL     OW31080   6.793   1.740   0.209 -0.0678 -0.2149 -0.3071
 9827SOL    HW131081   6.807   1.839   0.196 -0.3198 -0.0672  0.5175
 9827SOL    HW231082   6.882   1.694   0.212  0.0867  0.1244  0.3543
 9828SOL     OW31083   3.356   1.347   1.665  0.0446  0.2497  0.7690
 9828SOL    HW131084   3.290   1.422   1.664 -0.1240  0.1804 -2.1839
 9828SOL    HW231085   3.313   1.264   1.630  1.6092  0.1836 -1.1595
 9829SOL     OW31086   6.542   0.598   2.453 -0.2334 -0.3464 -0.2375
 9829SOL    HW131087   6.573   0.609   2.359 -2.7306 -2.5966 -1.4270
 9829SOL    HW231088   6.596   0.527   2.498 -0.1676 -0.4686 -0.5132
 9830SOL     OW31089   2.896   1.046   4.190 -0.2659  0.6682 -0.1466
 9830SOL    HW131090   2.829   1.116   4.167 -1.1346  0.0260  0.3824
 9830SOL    HW231091   2.986   1.088   4.203 -0.4325  1.4666 -1.4286
 9831SOL     OW31092   3.585   0.875   6.426  0.0763 -0.4582 -0.0131
 9831SOL    HW131093   3.515   0.937   6.461 -0.1311 -1.0513  0.6538
 9831SOL    HW231094   3.558   0.780   6.444  1.4414 -0.6870  1.0857
 9832SOL     OW31095   5.158   6.918   5.380 -0.0578  0.1042 -0.3756
 9832SOL    HW131096   5.243   6.887   5.338 -0.5397 -0.3573 -1.0126
 9832SOL    HW231097   5.103   6.966   5.312  0.5609  2.1968  0.5070
 9833SOL     OW31098   1.689   2.856   1.594 -0.6493 -0.2034  0.2509
 9833SOL    HW131099   1.704   2.760   1.570 -1.3737 -0.0980 -0.6535
 9833SOL    HW231100   1.620   2.896   1.534 -1.3568  0.5202  1.4823
 9834SOL     OW31101   5.410   6.314   1.973  0.5082 -0.6330 -0.2772
 9834SOL    HW131102   5.412   6.229   1.920 -2.4958  0.0520 -1.6759
 9834SOL    HW231103   5.419   6.392   1.911 -0.7928  0.1329  0.4538
 9835SOL     OW31104   2.255   3.006   6.135  0.0003 -0.3019 -0.0941
 9835SOL    HW131105   2.202   3.085   6.104  1.0560  0.3977 -0.1519
 9835SOL    HW231106   2.208   2.922   6.107 -0.3653  0.2993 -1.3609
 9836SOL     OW31107   0.267   5.286   2.307  0.3718 -0.0384 -0.1248
 9836SOL    HW131108   0.253   5.190   2.329  1.1740 -0.1401 -0.0631
 9836SOL    HW231109   0.339   5.295   2.239  1.0587  0.5963  0.6724
 9837SOL     OW31110   2.741   3.769   2.038  0.3616 -0.4187 -0.4812
 9837SOL    HW131111   2.826   3.730   2.073 -0.0751 -0.9528  0.0040
 9837SOL    HW231112   2.713   3.846   2.096  0.7055 -0.0113 -0.8560
 9838SOL     OW31113   4.959   2.816   1.801  0.3394 -0.6352  0.4588
 9838SOL    HW131114   4.996   2.857   1.717  0.5214  0.4234  1.0280
 9838SOL    HW231115   5.034   2.798   1.865  0.3140 -2.3492  0.0365
 9839SOL     OW31116   2.586   1.378   1.171  0.4864  0.4666  0.0275
 9839SOL    HW131117   2.570   1.335   1.083  1.0454  0.2226  0.0404
 9839SOL    HW231118   2.605   1.307   1.240  0.0325  0.6529  0.3460
 9840SOL     OW31119   5.217   3.866   3.139 -0.3540  1.1059  0.8051
 9840SOL    HW131120   5.294   3.846   3.077 -1.8509 -1.0048 -0.4924
 9840SOL    HW231121   5.136   3.888   3.085 -1.5630 -0.2238  2.0186
 9841SOL     OW31122   4.947   0.581   0.860  0.0159 -0.8332 -0.2697
 9841SOL    HW131123   4.984   0.673   0.844 -1.2026 -0.3779 -0.5812
 9841SOL    HW231124   4.983   0.518   0.792 -0.6303 -0.1487 -1.2785
 9842SOL     OW31125   2.480   3.380   0.655 -0.1925 -0.2108  0.1866
 9842SOL    HW131126   2.467   3.479   0.656  0.0626 -0.1780  0.5718
 9842SOL    HW231127   2.560   3.357   0.710 -0.3339 -0.6441  0.2116
 9843SOL     OW31128   5.666   3.113   4.516  0.1870 -0.0731  0.0613
 9843SOL    HW131129   5.674   3.019   4.483  2.4424 -0.7926  2.3275
 9843SOL    HW231130   5.756   3.157   4.512 -0.6780  1.7891 -0.2433
 9844SOL     OW31131   5.740   4.448   4.453  0.1849 -0.1872  0.6633
 9844SOL    HW131132   5.813   4.383   4.432  1.1966  0.6655  1.4062
 9844SOL    HW231133   5.773   4.515   4.520 -0.9823  0.7969  0.3003
 9845SOL     OW31134   5.584   2.009   5.819 -0.0680  0.4516 -0.2238
 9845SOL    HW131135   5.503   2.065   5.835 -0.8572 -1.1294  1.8353
 9845SOL    HW231136   5.557   1.921   5.780 -0.1666 -1.8798  4.3366
 9846SOL     OW31137   6.627   6.827   5.764  0.3624 -0.1561  0.5396
 9846SOL    HW131138   6.574   6.910   5.743  1.2812  0.2725 -0.1638
 9846SOL    HW231139   6.647   6.825   5.862 -1.4651 -0.6558  0.9457
 9847SOL     OW31140   0.056   4.578   3.989 -0.3051  0.8043 -0.3169
 9847SOL    HW131141   0.024   4.545   3.900 -2.0632 -0.2660  0.6528
 9847SOL    HW231142   0.151   4.551   4.001 -0.7657 -1.2663 -0.8713
 9848SOL     OW31143   0.704   5.674   2.284 -0.1261  0.6390  0.0207
 9848SOL    HW131144   0.620   5.697   2.334  0.1420 -0.1309  0.8662
 9848SOL    HW231145   0.681   5.625   2.200 -0.5806  1.7920 -0.5355
 9849SOL     OW31146   5.103   3.185   1.490 -0.2195  0.7667 -0.4596
 9849SOL    HW131147   5.145   3.216   1.575 -0.7783  0.4930 -0.0734
 9849SOL    HW231148   5.160   3.212   1.412  0.0552  1.4417 -0.0328
 9850SOL     OW31149   5.523   6.511   4.708  0.8581  0.5228  0.4328
 9850SOL    HW131150   5.561   6.595   4.744  2.5543 -0.0888  0.1538
 9850SOL    HW231151   5.596   6.445   4.691 -0.2563 -0.4860 -0.7478
 9851SOL     OW31152   4.813   2.597   2.300  0.2227  0.0781  0.0238
 9851SOL    HW131153   4.887   2.664   2.305  1.7914 -1.6039  0.1458
 9851SOL    HW231154   4.835   2.518   2.356 -1.5818 -0.5904 -0.1310
 9852SOL     OW31155   1.789   6.529   1.143  0.1401  0.1271 -0.3967
 9852SOL    HW131156   1.707   6.544   1.199  1.0415  0.6493  0.8263
 9852SOL    HW231157   1.860   6.593   1.171  0.6661  0.3462 -2.1058
 9853SOL     OW31158   1.527   3.361   0.067  0.1213 -0.1480  0.6487
 9853SOL    HW131159   1.529   3.395   0.161  0.5756 -0.4907  0.7672
 9853SOL    HW231160   1.436   3.326   0.046 -0.5234  1.6160  0.3409
 9854SOL     OW31161   4.528   6.912   0.467 -0.3559 -0.2181  0.1590
 9854SOL    HW131162   4.500   6.973   0.393 -0.1260 -0.9859 -0.5747
 9854SOL    HW231163   4.450   6.895   0.527 -0.6763  0.0397 -0.1764
 9855SOL     OW31164   2.395   1.219   4.285  0.3810 -0.8737  0.0654
 9855SOL    HW131165   2.430   1.277   4.358  0.8654 -3.2195  1.8327
 9855SOL    HW231166   2.322   1.161   4.321 -0.7517 -0.7363 -1.8692
 9856SOL     OW31167   5.816   6.180   2.327 -0.8241  0.5990  0.2278
 9856SOL    HW131168   5.888   6.138   2.271 -2.2349 -0.6146 -0.7615
 9856SOL    HW231169   5.805   6.129   2.412  1.6913  2.7606  2.0057
 9857SOL     OW31170   4.778   4.724   4.372 -0.3607  0.3381  0.2359
 9857SOL    HW131171   4.784   4.705   4.470  0.5408 -2.1580 -0.2310
 9857SOL    HW231172   4.869   4.715   4.331 -0.5884  2.1030 -0.7496
 9858SOL     OW31173   1.908   6.371   2.425 -0.4392  0.0365  0.0257
 9858SOL    HW131174   1.823   6.417   2.451 -0.2978 -0.7511  2.0714
 9858SOL    HW231175   1.891   6.273   2.414  0.0364 -0.0101 -0.3279
 9859SOL     OW31176   1.143   1.392   6.911 -0.0851 -0.1287 -0.6938
 9859SOL    HW131177   1.128   1.490   6.906 -1.0508 -0.2043  0.2114
 9859SOL    HW231178   1.213   1.372   6.980  0.0875 -0.0779 -0.8545
 9860SOL     OW31179   6.647   0.822   4.278  0.3598  0.0593 -0.4626
 9860SOL    HW131180   6.682   0.870   4.198 -2.2681  1.0625 -1.1165
 9860SOL    HW231181   6.604   0.737   4.248  1.6524 -0.8793  0.2521
 9861SOL     OW31182   3.614   6.617   5.688 -0.2872 -0.5269  0.3285
 9861SOL    HW131183   3.574   6.658   5.606  0.6697 -1.0772 -0.4358
 9861SOL    HW231184   3.580   6.524   5.700 -1.3626 -0.0391  1.2640
 9862SOL     OW31185   1.326   2.677   3.367  0.7868  0.1749  0.7478
 9862SOL    HW131186   1.336   2.715   3.459 -0.1152  0.9495  0.5440
 9862SOL    HW231187   1.232   2.644   3.355  0.7076  0.6837 -0.1049
 9863SOL     OW31188   2.846   3.710   1.026  0.5831 -0.0433 -0.0533
 9863SOL    HW131189   2.855   3.807   1.049  0.2408  0.5338 -2.1441
 9863SOL    HW231190   2.749   3.686   1.020  0.6315 -0.9141  1.7851
 9864SOL     OW31191   1.855   5.735   3.040 -0.4347  0.7082  0.5301
 9864SOL    HW131192   1.941   5.684   3.049 -0.3954  0.4689 -0.9665
 9864SOL    HW231193   1.872   5.821   2.993 -1.3298 -0.4500 -2.1413
 9865SOL     OW31194   4.538   1.191   3.551  0.2910 -0.5065 -0.4322
 9865SOL    HW131195   4.529   1.118   3.619  0.0078 -0.2285 -0.1654
 9865SOL    HW231196   4.520   1.155   3.460 -1.8601 -0.3658 -0.1204
 9866SOL     OW31197   6.846   6.253   2.134 -0.5590 -0.1762  0.0035
 9866SOL    HW131198   6.851   6.325   2.065 -0.3474 -0.7498 -0.5923
 9866SOL    HW231199   6.890   6.283   2.218  2.6817 -0.8302 -1.3168
 9867SOL     OW31200   5.147   3.346   2.815  0.3583 -0.3308  0.2204
 9867SOL    HW131201   5.173   3.259   2.773 -0.8712 -0.0956 -1.1059
 9867SOL    HW231202   5.167   3.421   2.752 -1.5633  0.0306 -0.0122
 9868SOL     OW31203   2.937   1.555   0.668 -0.4016  0.7879  0.2366
 9868SOL    HW131204   3.001   1.625   0.700 -1.1727  1.8548 -0.4847
 9868SOL    HW231205   2.988   1.481   0.625  0.3609  1.5997 -0.3073
 9869SOL     OW31206   5.577   2.610   6.209  0.3873  0.3938  0.0184
 9869SOL    HW131207   5.636   2.572   6.138 -0.9317  1.6392 -1.8289
 9869SOL    HW231208   5.598   2.707   6.221 -1.2210  0.8526 -0.6484
 9870SOL     OW31209   0.899   3.668   0.626 -0.0349 -0.0111 -0.1901
 9870SOL    HW131210   0.882   3.691   0.530 -0.7503  0.2091 -0.0165
 9870SOL    HW231211   0.984   3.616   0.633  0.3052  0.4362 -0.8782
 9871SOL     OW31212   6.936   6.710   2.735 -0.1937 -0.7740  0.6642
 9871SOL    HW131213   7.003   6.709   2.810 -1.1708  0.0799  1.5797
 9871SOL    HW231214   6.936   6.801   2.692  0.0864 -1.1423 -0.1362
 9872SOL     OW31215   5.408   1.775   0.238 -0.1438  0.2158  0.2418
 9872SOL    HW131216   5.418   1.845   0.308 -0.6451 -0.9981  1.5807
 9872SOL    HW231217   5.407   1.817   0.148 -1.1777  1.9955  1.0476
 9873SOL     OW31218   2.126   4.356   4.582 -0.2812 -0.1774  0.1584
 9873SOL    HW131219   2.219   4.393   4.587 -0.4201  0.0336  1.5827
 9873SOL    HW231220   2.124   4.268   4.628 -0.3436 -1.2048 -1.7108
 9874SOL     OW31221   0.733   4.538   3.914 -0.0641  0.3502 -0.4387
 9874SOL    HW131222   0.791   4.495   3.983 -1.2591  1.1903  1.1453
 9874SOL    HW231223   0.784   4.547   3.828  1.7034 -0.0614  0.5316
 9875SOL     OW31224   5.130   2.820   0.122 -0.1168 -0.0094 -0.5169
 9875SOL    HW131225   5.112   2.805   0.025  1.9413  0.2659 -0.9820
 9875SOL    HW231226   5.102   2.912   0.147  1.2290  0.6517 -1.3719
 9876SOL     OW31227   1.125   1.595   5.164  1.2161  0.6711  0.1683
 9876SOL    HW131228   1.208   1.539   5.163  1.4349  0.9928  0.1320
 9876SOL    HW231229   1.058   1.554   5.226  0.5974 -0.7450 -1.3849
 9877SOL     OW31230   4.703   6.266   0.360  0.3034 -0.1893 -0.7068
 9877SOL    HW131231   4.799   6.290   0.347  0.6053  0.6097  2.2679
 9877SOL    HW231232   4.653   6.281   0.275  2.8062 -0.8259 -2.3890
 9878SOL     OW31233   1.973   5.108   6.281 -0.0880 -0.0777  0.0213
 9878SOL    HW131234   1.947   5.157   6.364 -1.1237 -0.2032 -0.2135
 9878SOL    HW231235   1.899   5.115   6.214 -0.1980 -1.8258 -0.0873
 9879SOL     OW31236   0.705   5.708   3.757 -0.5028 -0.3283  0.7825
 9879SOL    HW131237   0.620   5.662   3.730  0.7417 -0.7107 -3.0691
 9879SOL    HW231238   0.779   5.640   3.760  0.5386  0.7016 -0.6874
 9880SOL     OW31239   1.914   3.770   6.102 -0.4338 -0.6720 -0.4920
 9880SOL    HW131240   1.985   3.822   6.054 -1.5259 -0.7048 -2.2524
 9880SOL    HW231241   1.834   3.828   6.116  0.3415 -0.1941  2.7465
 9881SOL     OW31242   6.457   1.684   3.223  0.5207  0.7765  0.2125
 9881SOL    HW131243   6.360   1.683   3.248  0.2935  0.3077 -0.6507
 9881SOL    HW231244   6.492   1.590   3.222 -0.1396  0.4249 -3.5900
 9882SOL     OW31245   6.463   2.746   3.227  0.3824 -0.2364 -0.0224
 9882SOL    HW131246   6.548   2.756   3.279  1.0036  0.2385 -1.0965
 9882SOL    HW231247   6.386   2.776   3.284  0.7467 -1.8814  1.4314
 9883SOL     OW31248   4.046   1.182   4.162  0.2534  0.0491 -0.0734
 9883SOL    HW131249   4.125   1.121   4.152 -0.6251 -0.9703 -0.9873
 9883SOL    HW231250   4.061   1.265   4.107  0.9303  0.1285  0.2231
 9884SOL     OW31251   5.777   1.550   0.704 -0.4625  0.0206 -0.2121
 9884SOL    HW131252   5.802   1.473   0.764  0.9277 -1.0105 -2.0217
 9884SOL    HW231253   5.681   1.541   0.677 -1.1511  0.5554  1.8495
 9885SOL     OW31254   6.762   3.705   3.310  0.1406 -0.5343 -0.3331
 9885SOL    HW131255   6.852   3.669   3.333  0.9600  0.4309 -1.9248
 9885SOL    HW231256   6.732   3.667   3.222  0.3683  1.4408 -1.3222
 9886SOL     OW31257   1.167   4.533   2.996  0.8449  0.0018  0.2956
 9886SOL    HW131258   1.253   4.530   2.945  0.7304  0.4877  0.0680
 9886SOL    HW231259   1.186   4.551   3.093  0.9430  1.1941  0.0697
 9887SOL     OW31260   4.261   3.493   5.069  0.1037  0.2272  0.2635
 9887SOL    HW131261   4.338   3.555   5.050  0.0678  0.0996 -0.3121
 9887SOL    HW231262   4.274   3.451   5.159  1.3977 -0.7924 -0.3616
 9888SOL     OW31263   3.481   4.852   0.190  0.0415 -0.0092 -0.1524
 9888SOL    HW131264   3.499   4.946   0.159  1.3732 -0.2898 -0.2789
 9888SOL    HW231265   3.402   4.816   0.140 -0.9557  1.2773  0.4260
 9889SOL     OW31266   1.160   1.129   6.905  0.1260  0.4808  0.3772
 9889SOL    HW131267   1.094   1.088   6.843 -0.4514 -0.8163  1.7929
 9889SOL    HW231268   1.144   1.228   6.909  0.0263  0.5625 -1.3145
 9890SOL     OW31269   5.089   6.541   0.336 -0.4658  0.4229 -0.0383
 9890SOL    HW131270   5.127   6.579   0.252  2.5067 -1.9700  0.0397
 9890SOL    HW231271   5.043   6.454   0.316 -2.0416  1.1013  0.5108
 9891SOL     OW31272   5.534   6.412   6.158  0.1691 -0.3839 -0.0487
 9891SOL    HW131273   5.503   6.317   6.156 -0.5177 -0.1580 -0.7947
 9891SOL    HW231274   5.559   6.437   6.251 -1.2695 -0.7915  0.4762
 9892SOL     OW31275   6.500   2.559   1.719 -0.3017 -0.4907 -0.5265
 9892SOL    HW131276   6.491   2.460   1.728  1.3191 -0.6048  0.1209
 9892SOL    HW231277   6.486   2.602   1.808  2.6286 -0.4930  0.0287
 9893SOL     OW31278   1.636   5.520   1.442 -0.3948 -0.0474  0.1216
 9893SOL    HW131279   1.729   5.555   1.450 -0.3935  0.4394 -1.5840
 9893SOL    HW231280   1.584   5.541   1.525  0.3426  1.7479  0.1643
 9894SOL     OW31281   1.674   3.450   6.165 -0.0668 -0.2633  0.9764
 9894SOL    HW131282   1.662   3.437   6.067 -1.8393  1.3471  0.9126
 9894SOL    HW231283   1.772   3.452   6.187  0.4141  1.0076 -1.0270
 9895SOL     OW31284   3.278   6.321   1.849 -0.4180 -0.6173  0.5097
 9895SOL    HW131285   3.224   6.239   1.868 -0.6873 -0.5960 -0.1546
 9895SOL    HW231286   3.229   6.379   1.784  0.9803 -1.2390 -1.1872
 9896SOL     OW31287   5.957   0.982   4.711  0.1895  0.0057  0.0923
 9896SOL    HW131288   5.952   0.900   4.768  1.6707 -1.1532 -1.3490
 9896SOL    HW231289   6.018   1.049   4.754  1.6157 -1.0186 -0.2912
 9897SOL     OW31290   1.454   3.567   2.132  0.4587  0.3990 -0.0580
 9897SOL    HW131291   1.433   3.500   2.061  0.9770  0.1675  0.0071
 9897SOL    HW231292   1.374   3.579   2.191  0.7315 -1.0505  0.6492
 9898SOL     OW31293   0.180   5.835   0.932  0.0170 -0.1221 -0.9467
 9898SOL    HW131294   0.168   5.740   0.902 -0.8813  0.0184 -1.0492
 9898SOL    HW231295   0.276   5.861   0.919 -0.0082 -0.5720 -2.2290
 9899SOL     OW31296   6.478   5.990   3.818 -0.6316 -0.0359  0.2597
 9899SOL    HW131297   6.457   6.081   3.854  0.0210  0.1522  0.1800
 9899SOL    HW231298   6.395   5.948   3.781 -0.7917  0.8176 -0.3587
 9900SOL     OW31299   6.862   4.260   5.743  0.2826 -0.4574  0.3180
 9900SOL    HW131300   6.868   4.284   5.840  1.3994 -2.8422  0.9435
 9900SOL    HW231301   6.913   4.327   5.689  0.1746  0.5755  1.4431
 9901SOL     OW31302   5.256   0.304   1.278 -0.5347  0.6525  0.0117
 9901SOL    HW131303   5.291   0.221   1.321  0.0041  1.0730  0.4076
 9901SOL    HW231304   5.318   0.332   1.205 -2.1658 -0.8487 -2.0636
 9902SOL     OW31305   3.479   3.635   4.110  0.0253  0.1477  0.2113
 9902SOL    HW131306   3.540   3.576   4.058 -0.7193 -1.5809  1.1974
 9902SOL    HW231307   3.464   3.721   4.060  0.0402 -1.0488 -1.9664
 9903SOL     OW31308   1.640   2.080   3.955  0.0599 -0.1493  0.1837
 9903SOL    HW131309   1.554   2.097   4.003 -0.5801  1.0099 -1.2854
 9903SOL    HW231310   1.682   1.996   3.989  0.7668  1.6233  4.2402
 9904SOL     OW31311   5.598   0.824   5.055  0.5418  0.0456 -0.3362
 9904SOL    HW131312   5.567   0.861   5.142 -0.7657  0.3374 -0.9025
 9904SOL    HW231313   5.612   0.725   5.064  0.7253  0.1223  0.2812
 9905SOL     OW31314   2.271   6.396   2.908 -0.4356  0.0296  0.5998
 9905SOL    HW131315   2.273   6.494   2.889  2.7272  0.0141  0.1782
 9905SOL    HW231316   2.346   6.373   2.970 -1.6821 -2.0292  1.4326
 9906SOL     OW31317   2.099   2.721   0.404 -0.4101  0.2153 -0.1733
 9906SOL    HW131318   2.058   2.777   0.331 -1.2028  1.6403  1.2986
 9906SOL    HW231319   2.186   2.762   0.432 -0.8975  0.6266  0.7795
 9907SOL     OW31320   2.787   1.911   4.821 -0.1037 -0.2854  0.5196
 9907SOL    HW131321   2.833   1.831   4.783  0.0237 -0.0760  0.2295
 9907SOL    HW231322   2.809   1.991   4.766 -1.0363 -0.2354  0.2113
 9908SOL     OW31323   5.324   4.551   2.887  0.7001 -0.3920  0.0837
 9908SOL    HW131324   5.333   4.518   2.981 -1.1722  0.2566  0.5347
 9908SOL    HW231325   5.320   4.651   2.887 -0.5873 -0.4143 -0.5094
 9909SOL     OW31326   3.177   3.761   5.388 -0.1812 -0.1571  0.1889
 9909SOL    HW131327   3.080   3.766   5.414 -0.3919  0.4772 -0.6835
 9909SOL    HW231328   3.204   3.665   5.377 -1.6603 -0.3409 -2.9435
 9910SOL     OW31329   6.668   5.445   0.123  0.3472  0.4103 -0.7793
 9910SOL    HW131330   6.588   5.439   0.063 -0.1348  0.4793 -0.1589
 9910SOL    HW231331   6.640   5.481   0.212  1.2630  1.4219 -0.8916
 9911SOL     OW31332   5.217   4.417   0.139  0.2592  0.2158 -0.3931
 9911SOL    HW131333   5.290   4.434   0.073 -0.9088  0.2105 -1.7296
 9911SOL    HW231334   5.249   4.353   0.208  0.9099 -1.4417 -2.1365
 9912SOL     OW31335   6.623   6.338   4.933 -0.5065  0.0717 -0.0270
 9912SOL    HW131336   6.586   6.419   4.888 -1.6521 -0.8746 -0.8444
 9912SOL    HW231337   6.723   6.344   4.937 -0.5172  1.0520 -0.9762
 9913SOL     OW31338   4.622   3.243   5.377 -0.0490  0.1135 -0.3658
 9913SOL    HW131339   4.681   3.264   5.455  0.6123  0.6821 -0.9983
 9913SOL    HW231340   4.645   3.304   5.301 -2.0802  0.9791 -0.3406
 9914SOL     OW31341   6.916   5.338   2.885 -0.4019 -0.8012  0.3177
 9914SOL    HW131342   6.915   5.398   2.965  2.4983  0.7125 -0.6295
 9914SOL    HW231343   6.932   5.244   2.915  0.1145 -0.3359  1.5710
 9915SOL     OW31344   5.463   6.970   6.437  0.9584  0.0404 -0.1086
 9915SOL    HW131345   5.492   6.891   6.383 -1.7714 -0.9734 -0.2397
 9915SOL    HW231346   5.364   6.976   6.436  1.0462  3.7426 -0.4334
 9916SOL     OW31347   4.060   1.719   6.809 -0.5870  0.3913 -0.2871
 9916SOL    HW131348   4.107   1.765   6.734 -2.9228  1.2638 -1.3062
 9916SOL    HW231349   4.008   1.787   6.862  0.2123 -0.3590  1.5486
 9917SOL     OW31350   3.514   0.976   6.121  0.1719 -0.2192 -0.0627
 9917SOL    HW131351   3.447   0.918   6.075 -1.2266  1.4006 -0.2037
 9917SOL    HW231352   3.521   0.950   6.217  0.2824 -1.2063 -0.3352
 9918SOL     OW31353   4.182   1.370   5.468  0.5024  0.3668 -0.2973
 9918SOL    HW131354   4.106   1.367   5.534 -2.2450  0.0721 -3.2265
 9918SOL    HW231355   4.156   1.426   5.390  3.1304 -0.2342 -1.7143
 9919SOL     OW31356   6.291   5.829   1.274 -0.1839 -0.8683 -0.1540
 9919SOL    HW131357   6.368   5.777   1.236  0.6738 -1.2964  2.0050
 9919SOL    HW231358   6.250   5.885   1.202  3.9125  1.5669 -0.9329
 9920SOL     OW31359   1.482   6.482   2.802  0.4045  0.4362  0.8432
 9920SOL    HW131360   1.537   6.497   2.885 -0.6036 -0.3049  1.6713
 9920SOL    HW231361   1.399   6.432   2.826  0.4576 -0.4657 -0.7483
 9921SOL     OW31362   6.105   2.701   4.369 -0.2399 -0.2331  1.0028
 9921SOL    HW131363   6.092   2.631   4.299  1.6928  1.0074 -0.7029
 9921SOL    HW231364   6.053   2.783   4.346  1.0306  0.4733  0.5099
 9922SOL     OW31365   1.234   2.935   0.808 -0.0431  0.2742 -0.4077
 9922SOL    HW131366   1.153   2.992   0.793 -0.2192 -0.0568 -0.7417
 9922SOL    HW231367   1.233   2.859   0.742  0.2490 -0.0414 -0.0475
 9923SOL     OW31368   0.256   1.024   5.373 -0.4913  0.5102  0.2189
 9923SOL    HW131369   0.280   1.024   5.470 -1.5430 -0.3049  0.5001
 9923SOL    HW231370   0.313   0.957   5.324  1.5121  2.3678 -0.1669
 9924SOL     OW31371   3.713   0.794   5.173 -0.2100  0.1710 -0.3930
 9924SOL    HW131372   3.618   0.771   5.150 -0.0219  0.5214 -1.5717
 9924SOL    HW231373   3.771   0.714   5.158 -0.4111 -0.2852  1.0782
 9925SOL     OW31374   1.033   4.114   3.856 -0.5070  0.0511 -0.9910
 9925SOL    HW131375   0.989   4.156   3.936 -0.6633 -0.4285 -0.8226
 9925SOL    HW231376   0.969   4.112   3.780  0.3437  2.5968 -1.8656
 9926SOL     OW31377   3.636   3.346   5.899  0.4662 -0.0360  0.0996
 9926SOL    HW131378   3.673   3.433   5.867  1.5310  0.0278  1.4407
 9926SOL    HW231379   3.567   3.363   5.970  0.8614 -0.2789  0.5494
 9927SOL     OW31380   4.455   5.370   6.555  0.2149  0.1485  0.2499
 9927SOL    HW131381   4.555   5.376   6.565  0.3406  1.0032 -1.2033
 9927SOL    HW231382   4.416   5.462   6.563 -0.2437  0.0719 -0.9837
 9928SOL     OW31383   1.562   2.908   1.154  0.6837  0.0157 -0.3165
 9928SOL    HW131384   1.601   2.999   1.168 -0.2587  0.7161 -1.9037
 9928SOL    HW231385   1.531   2.900   1.059 -1.2221 -1.1942  0.3583
 9929SOL     OW31386   1.605   2.004   6.525  0.0264  0.2908  0.4904
 9929SOL    HW131387   1.542   1.934   6.558 -0.7018  0.9474  0.5482
 9929SOL    HW231388   1.587   2.090   6.574  1.6084  0.2586  1.1709
 9930SOL     OW31389   3.173   6.176   3.957  1.2643  0.6763 -0.2588
 9930SOL    HW131390   3.216   6.210   3.873  0.2906 -0.0679 -1.0847
 9930SOL    HW231391   3.167   6.251   4.023  0.5768  1.7271 -1.4606
 9931SOL     OW31392   4.679   0.024   5.509 -0.0742 -0.0554 -0.1505
 9931SOL    HW131393   4.580   0.031   5.512 -0.0495  1.1867 -1.1547
 9931SOL    HW231394   4.707  -0.071   5.524 -1.4682 -0.6121 -0.9257
 9932SOL     OW31395   3.301   3.689   2.917 -0.4107  0.2656 -0.7671
 9932SOL    HW131396   3.307   3.677   3.016 -3.2444 -0.0416 -0.5686
 9932SOL    HW231397   3.392   3.712   2.881  0.8308 -0.3097  1.7702
 9933SOL     OW31398   0.013   2.249   3.983 -0.2758  0.4393  0.4596
 9933SOL    HW131399  -0.006   2.152   3.998 -0.7559  0.7644  2.2128
 9933SOL    HW231400  -0.048   2.304   4.040  1.0442  1.7351  0.6785
 9934SOL     OW31401   2.841   5.310   1.466  0.6310 -0.0979  0.3540
 9934SOL    HW131402   2.834   5.398   1.512  0.1267  0.4642 -0.7338
 9934SOL    HW231403   2.886   5.323   1.377 -0.5591 -0.6921 -0.3607
 9935SOL     OW31404   1.272   0.829   2.503  0.3512  0.1101 -0.1369
 9935SOL    HW131405   1.236   0.742   2.538 -0.3529  0.0391 -0.9978
 9935SOL    HW231406   1.208   0.902   2.526 -0.2118  0.0339 -1.3973
 9936SOL     OW31407   3.751   2.155   4.664  0.2850 -0.4178 -0.3661
 9936SOL    HW131408   3.712   2.148   4.756  0.2356 -1.2044 -0.4407
 9936SOL    HW231409   3.753   2.065   4.622 -0.4994  0.0561 -1.4774
 9937SOL     OW31410   3.057   2.080   1.287  0.4189 -0.0090 -0.5222
 9937SOL    HW131411   3.145   2.081   1.238  1.2108  0.8889  0.8326
 9937SOL    HW231412   3.001   2.157   1.257  0.8908  0.5242 -0.0692
 9938SOL     OW31413   1.239   5.098   4.813 -0.2858 -0.7181 -0.7948
 9938SOL    HW131414   1.276   5.070   4.902 -0.1442  0.4591 -0.4615
 9938SOL    HW231415   1.315   5.119   4.751 -0.3834 -1.7835 -1.2834
 9939SOL     OW31416   4.172   3.280   1.666 -0.7603 -0.4754  0.1163
 9939SOL    HW131417   4.243   3.251   1.602  0.0091 -0.1265  0.7890
 9939SOL    HW231418   4.142   3.372   1.642  0.1351 -0.0008  0.7282
 9940SOL     OW31419   0.226   0.538   6.665  0.4916 -0.0141 -0.0247
 9940SOL    HW131420   0.236   0.515   6.761 -1.8018  0.7029  0.4661
 9940SOL    HW231421   0.252   0.634   6.650 -3.0665  1.2689  0.8726
 9941SOL     OW31422   2.719   3.079   1.168  0.3718  0.0220 -0.1703
 9941SOL    HW131423   2.809   3.091   1.127  0.3077 -0.2404 -0.3969
 9941SOL    HW231424   2.677   2.995   1.131 -0.0735  0.2861 -0.2680
 9942SOL     OW31425   0.467   1.235   5.069 -0.0622  0.7604  0.0502
 9942SOL    HW131426   0.394   1.196   5.125 -0.7769 -0.7992 -1.8667
 9942SOL    HW231427   0.449   1.332   5.054 -1.5292  0.4978 -0.0522
 9943SOL     OW31428   4.853   6.806   4.845  0.8626 -0.3585  0.2141
 9943SOL    HW131429   4.950   6.819   4.862  0.9723 -1.0521  0.1581
 9943SOL    HW231430   4.825   6.716   4.877  0.1174  0.0340  0.7148
 9944SOL     OW31431   4.098   0.505   2.064 -0.2644  0.5725  0.0728
 9944SOL    HW131432   4.018   0.564   2.066 -0.7494 -0.0748  1.3959
 9944SOL    HW231433   4.088   0.437   1.992 -1.0357  0.3496  0.3760
 9945SOL     OW31434   6.953   1.377   6.849  0.0216 -0.0652 -0.6134
 9945SOL    HW131435   6.946   1.329   6.937  3.0880  2.6084  1.3075
 9945SOL    HW231436   6.861   1.404   6.819 -1.0563  1.3855  3.3415
 9946SOL     OW31437   3.401   2.582   5.326 -0.1046 -0.3315  0.6350
 9946SOL    HW131438   3.384   2.591   5.424 -0.7302  2.3528  0.3471
 9946SOL    HW231439   3.458   2.658   5.295 -3.7547  1.6881 -1.8640
 9947SOL     OW31440   1.803   1.522   2.941  0.2295 -0.0396  0.0704
 9947SOL    HW131441   1.899   1.547   2.922 -0.1392  0.2953 -1.5632
 9947SOL    HW231442   1.798   1.425   2.961  0.8120 -0.2871 -0.8880
 9948SOL     OW31443   5.685   6.913   1.279  0.0205 -0.0459 -0.1867
 9948SOL    HW131444   5.780   6.920   1.310  0.3513 -0.6419 -1.0253
 9948SOL    HW231445   5.637   6.845   1.335 -0.0304  0.5341  0.4902
 9949SOL     OW31446   5.188   4.024   6.650 -0.2699  0.2558  0.1284
 9949SOL    HW131447   5.252   3.959   6.690  0.0064 -0.0404 -0.7805
 9949SOL    HW231448   5.105   3.976   6.622 -0.3131  0.4000  0.0076
 9950SOL     OW31449   4.654   5.293   2.195 -0.0677 -0.0319  0.1005
 9950SOL    HW131450   4.673   5.212   2.250  0.8424 -0.4535 -0.7876
 9950SOL    HW231451   4.630   5.266   2.102 -2.9956  0.5999  0.5641
 9951SOL     OW31452   3.781   1.641   4.351  0.1333  0.4218 -0.8964
 9951SOL    HW131453   3.734   1.608   4.434 -1.3202 -0.9509 -2.2012
 9951SOL    HW231454   3.879   1.633   4.364  0.0536  2.0131  1.3898
 9952SOL     OW31455   1.106   6.888   3.649  0.4439 -0.4169 -0.0474
 9952SOL    HW131456   1.123   6.871   3.552  1.4466 -0.4222  0.1171
 9952SOL    HW231457   1.008   6.900   3.664  0.0998 -1.9780 -0.8107
 9953SOL     OW31458   4.044   6.282   0.911 -0.6189  0.5473 -0.0296
 9953SOL    HW131459   4.086   6.298   1.001 -3.8608 -0.6305  1.8821
 9953SOL    HW231460   4.057   6.186   0.885  0.2721  0.8753 -0.8491
 9954SOL     OW31461   1.272   0.823   4.532  0.2596  0.2723 -0.3379
 9954SOL    HW131462   1.266   0.732   4.574  0.7527  0.4995  0.2444
 9954SOL    HW231463   1.296   0.813   4.436  0.7952 -0.2064 -0.1624
 9955SOL     OW31464   0.946   1.459   5.317 -0.4458  0.3230  0.3369
 9955SOL    HW131465   0.863   1.404   5.321 -0.6162  0.4586 -0.8556
 9955SOL    HW231466   0.996   1.451   5.403 -1.1716 -0.5783  0.6893
 9956SOL     OW31467   1.140   3.487   0.816 -0.8332 -0.0988  0.3643
 9956SOL    HW131468   1.219   3.475   0.756 -1.4995  4.2402 -1.8377
 9956SOL    HW231469   1.171   3.520   0.905 -0.0372 -3.4961  1.4994
 9957SOL     OW31470   3.934   4.898   4.812  1.0281 -0.2953  0.0143
 9957SOL    HW131471   3.887   4.818   4.849 -1.7451  1.0311 -0.3603
 9957SOL    HW231472   3.951   4.884   4.715 -1.0955  0.1605 -0.4871
 9958SOL     OW31473   5.252   3.691   5.727  0.2886  0.1442 -0.0686
 9958SOL    HW131474   5.263   3.787   5.703 -1.2582  0.4108  0.2474
 9958SOL    HW231475   5.269   3.678   5.825 -0.4260  0.2503  0.0684
 9959SOL     OW31476   5.448   2.346   4.286 -0.0092  0.2922  0.0773
 9959SOL    HW131477   5.492   2.327   4.373 -0.4842 -0.0373  0.2514
 9959SOL    HW231478   5.418   2.260   4.244 -1.8047  0.5902  0.6663
 9960SOL     OW31479   3.464   0.560   6.921  0.5066  0.0101 -0.3793
 9960SOL    HW131480   3.468   0.652   6.882 -2.9827  1.0457  1.3525
 9960SOL    HW231481   3.489   0.564   7.018  0.6193 -0.9553 -0.3612
 9961SOL     OW31482   4.694   5.981   0.187 -0.4325 -0.7292  0.7441
 9961SOL    HW131483   4.735   5.937   0.267 -1.0823  0.1844  1.6052
 9961SOL    HW231484   4.747   6.062   0.162 -0.2554 -0.9871  0.2659
 9962SOL     OW31485   2.920   6.203   2.225  0.1440 -0.3882  0.4258
 9962SOL    HW131486   2.854   6.236   2.292 -0.2621 -0.7261  0.1889
 9962SOL    HW231487   2.908   6.252   2.139 -0.4546 -1.1431  0.0743
 9963SOL     OW31488   2.249   5.591   0.995 -0.3149  0.4490 -0.1090
 9963SOL    HW131489   2.280   5.668   1.050  1.0524  0.6185 -1.0829
 9963SOL    HW231490   2.316   5.571   0.924 -1.7726 -0.1420 -1.3619
 9964SOL     OW31491   6.935   1.315   2.278  0.3111 -0.1870 -0.1734
 9964SOL    HW131492   6.864   1.379   2.308  0.1303 -0.5551  0.1932
 9964SOL    HW231493   6.996   1.362   2.214  0.6618  0.5965  0.7128
 9965SOL     OW31494   6.899   4.368   6.567 -0.1518  0.3300  0.3725
 9965SOL    HW131495   6.985   4.387   6.615 -0.7631 -0.5187  1.8653
 9965SOL    HW231496   6.888   4.269   6.558 -2.9584  0.0798  4.1625
 9966SOL     OW31497   6.100   3.703   1.942  0.1667  0.2582  0.2322
 9966SOL    HW131498   6.088   3.794   1.982 -0.0188  0.0317  0.7090
 9966SOL    HW231499   6.152   3.710   1.857  0.7570  0.7358  0.6237
 9967SOL     OW31500   2.340   2.087   1.879  0.0110  0.6263  0.7872
 9967SOL    HW131501   2.436   2.075   1.904  0.4331  1.4264 -0.4193
 9967SOL    HW231502   2.295   1.997   1.880  1.3646 -0.1368 -0.9837
 9968SOL     OW31503   1.087   2.802   5.611  0.2542  0.4769  0.4946
 9968SOL    HW131504   1.180   2.832   5.594 -0.2228  1.4481 -0.5752
 9968SOL    HW231505   1.080   2.763   5.703  1.8620 -0.3104  0.3127
 9969SOL     OW31506   6.146   4.018   0.819  0.0708 -0.2061 -0.6261
 9969SOL    HW131507   6.102   3.928   0.822  0.5178 -0.4197 -0.4271
 9969SOL    HW231508   6.079   4.087   0.792 -0.9978 -0.1381  1.9397
 9970SOL     OW31509   6.450   2.165   5.737 -0.2835 -0.6771 -0.0175
 9970SOL    HW131510   6.497   2.254   5.732 -1.0688 -0.2921 -0.6815
 9970SOL    HW231511   6.413   2.142   5.647 -3.9799  0.4575  1.0435
 9971SOL     OW31512   0.914   3.076   1.155 -0.2068 -0.2976 -0.2434
 9971SOL    HW131513   0.864   3.075   1.069 -1.3946 -2.7856  0.3804
 9971SOL    HW231514   0.852   3.098   1.230  0.1397 -1.0736  0.2832
 9972SOL     OW31515   4.158   6.841   5.423 -0.1714 -0.3727 -0.6763
 9972SOL    HW131516   4.182   6.790   5.506  0.3599 -0.9191 -1.1514
 9972SOL    HW231517   4.059   6.852   5.418 -0.2227 -0.4891 -0.0651
 9973SOL     OW31518   4.614   2.167   5.054  0.2487  0.1515  0.2875
 9973SOL    HW131519   4.542   2.153   4.986 -0.4159  1.0212  0.7921
 9973SOL    HW231520   4.573   2.171   5.145  0.9245  0.7483  0.5687
 9974SOL     OW31521   6.637   0.451   3.791  0.2643 -0.0508 -0.6769
 9974SOL    HW131522   6.541   0.441   3.818  0.4664  0.8775  0.4925
 9974SOL    HW231523   6.647   0.532   3.734  0.5562  0.7742  0.4934
 9975SOL     OW31524   3.385   1.934   5.640  0.1767  0.1568  0.5515
 9975SOL    HW131525   3.471   1.971   5.605  0.0499  1.6505  1.7329
 9975SOL    HW231526   3.335   2.005   5.689 -1.2404 -0.9693  0.8167
 9976SOL     OW31527   4.778   5.145   1.229 -0.7589 -0.1019 -0.8516
 9976SOL    HW131528   4.809   5.236   1.203  1.6815 -0.8599 -0.8115
 9976SOL    HW231529   4.731   5.102   1.152  0.0770  0.3486 -1.6177
 9977SOL     OW31530   4.705   3.418   1.313 -0.5127  0.4324  0.2448
 9977SOL    HW131531   4.715   3.320   1.296  1.9477  0.2973  1.9436
 9977SOL    HW231532   4.634   3.433   1.382 -0.8317 -0.1676  0.0518
 9978SOL     OW31533   1.338   2.851   5.565  0.2241  0.3681  0.5115
 9978SOL    HW131534   1.389   2.786   5.509 -1.5109 -1.7104  1.2147
 9978SOL    HW231535   1.373   2.944   5.548  0.6740 -0.2796 -2.9896
 9979SOL     OW31536   0.768   0.751   0.788 -0.3955 -0.1614  0.2542
 9979SOL    HW131537   0.840   0.727   0.724  0.3606  0.1845  0.9585
 9979SOL    HW231538   0.684   0.772   0.738  0.3592  0.7557 -0.6689
 9980SOL     OW31539   4.001   3.745   5.882  0.3767  0.3689 -0.1005
 9980SOL    HW131540   4.068   3.710   5.946  2.2603 -0.6896 -2.5089
 9980SOL    HW231541   4.046   3.803   5.814 -0.9700 -0.8543 -2.1700
 9981SOL     OW31542   0.611   6.497   5.748  0.3702 -0.0645  0.0340
 9981SOL    HW131543   0.543   6.454   5.688  0.4783 -0.5552  0.2533
 9981SOL    HW231544   0.694   6.518   5.696  0.9876 -1.7412  0.2837
 9982SOL     OW31545   5.660   4.345   0.491 -0.0126  0.0556  0.8406
 9982SOL    HW131546   5.623   4.431   0.456 -1.4882 -0.4169  1.1715
 9982SOL    HW231547   5.741   4.320   0.438 -1.1689  0.2425 -1.1038
 9983SOL     OW31548   1.821   1.631   2.205  0.5123 -0.6566 -0.8839
 9983SOL    HW131549   1.838   1.648   2.302 -0.4903  0.2563 -0.8521
 9983SOL    HW231550   1.773   1.543   2.195  0.9742 -0.9490 -0.6003
 9984SOL     OW31551   0.845   5.729   4.099  0.5762 -0.6841 -0.0964
 9984SOL    HW131552   0.796   5.643   4.112  1.2391 -0.7280  2.6125
 9984SOL    HW231553   0.923   5.733   4.161  1.0916  1.5086 -0.7845
 9985SOL     OW31554   1.634   0.890   7.006 -0.2840  0.3493  0.0430
 9985SOL    HW131555   1.679   0.887   7.095  1.1823 -0.9115 -0.6975
 9985SOL    HW231556   1.569   0.815   6.999  0.2801 -0.1194 -0.2713
 9986SOL     OW31557   6.931   6.285   0.686  0.0643 -0.1131  0.2424
 9986SOL    HW131558   6.997   6.241   0.624 -0.3474 -0.1083 -0.2075
 9986SOL    HW231559   6.881   6.214   0.736 -0.8808 -0.1938 -0.7763
 9987SOL     OW31560   1.124   2.345   3.439  0.1696  0.2372 -0.0165
 9987SOL    HW131561   1.139   2.361   3.536  2.0114 -1.2042  0.0068
 9987SOL    HW231562   1.213   2.332   3.394 -0.6956 -0.0626 -1.7060
 9988SOL     OW31563   2.305   5.745   0.409  0.2224 -0.6150  0.5373
 9988SOL    HW131564   2.340   5.740   0.503  0.0026 -1.6088  0.5813
 9988SOL    HW231565   2.274   5.654   0.381  0.3053 -0.3264 -0.5100
 9989SOL     OW31566   2.664   5.382   5.470  0.1527 -0.1881 -1.1518
 9989SOL    HW131567   2.649   5.328   5.387 -1.1437 -0.7326 -0.5977
 9989SOL    HW231568   2.709   5.325   5.539 -1.3631 -0.6545 -0.5108
 9990SOL     OW31569   1.338   5.675   0.358 -0.5009  0.5897  0.0776
 9990SOL    HW131570   1.299   5.763   0.387 -0.6763  0.4336  0.3235
 9990SOL    HW231571   1.404   5.690   0.285 -0.6703  0.9084 -0.0113
 9991SOL     OW31572   6.036   5.720   1.237 -0.0300  0.2875 -0.6077
 9991SOL    HW131573   6.068   5.634   1.198  0.7128 -0.0998  0.8099
 9991SOL    HW231574   6.113   5.772   1.272 -0.7591 -0.5136  2.5740
 9992SOL     OW31575   1.515   4.153   2.583 -0.2867 -0.2924  0.1636
 9992SOL    HW131576   1.476   4.245   2.575 -1.1211 -0.6044  0.5888
 9992SOL    HW231577   1.541   4.136   2.678 -0.0444 -0.4655  0.0683
 9993SOL     OW31578   0.338   5.554   3.309 -0.4805  0.2960  0.6345
 9993SOL    HW131579   0.255   5.500   3.296  0.1030 -0.9898  1.8947
 9993SOL    HW231580   0.388   5.519   3.388  1.8493  0.2786 -0.7573
 9994SOL     OW31581   6.074   5.783   2.469  0.0944 -0.4621 -0.0011
 9994SOL    HW131582   6.043   5.819   2.557 -1.7062  2.2052 -1.5695
 9994SOL    HW231583   6.058   5.685   2.466  0.3885 -0.6783  2.6575
 9995SOL     OW31584   0.973   5.953   4.561  0.2194 -0.0910 -0.5648
 9995SOL    HW131585   1.057   6.005   4.576  0.9164 -1.0400 -1.0725
 9995SOL    HW231586   0.894   6.015   4.566  0.8919  0.7140  0.4841
 9996SOL     OW31587   0.901   5.841   0.313 -0.2961  0.3075  0.1580
 9996SOL    HW131588   0.943   5.751   0.324  0.6018  0.4006 -2.0101
 9996SOL    HW231589   0.808   5.829   0.278 -0.4377  0.2151  0.5590
 9997SOL     OW31590   6.415   5.822   3.291  0.2089 -0.4734 -0.5985
 9997SOL    HW131591   6.378   5.758   3.224 -1.4492 -2.8480  2.3637
 9997SOL    HW231592   6.358   5.904   3.294  0.0125 -0.5581 -1.6858
 9998SOL     OW31593   4.482   6.004   6.383  0.1100 -0.2575  0.1458
 9998SOL    HW131594   4.471   5.941   6.306 -1.7971 -0.9016  0.8879
 9998SOL    HW231595   4.406   6.069   6.383  1.0050  0.8194  0.5343
 9999SOL     OW31596   4.171   5.510   0.587 -0.7637  0.0487 -0.0909
 9999SOL    HW131597   4.133   5.534   0.497  1.1122 -0.7965 -1.1791
 9999SOL    HW231598   4.149   5.582   0.653 -1.2486  1.2364 -1.4919
10000SOL     OW31599   5.078   0.037   5.964 -0.3015 -0.3597 -0.1523
10000SOL    HW131600   5.099   0.132   5.986 -1.2710  0.0968 -1.0788
10000SOL    HW231601   5.009   0.034   5.892  1.0287 -1.7752 -1.4437
10001SOL     OW31602   6.520   5.508   4.152  0.3087 -0.1692  0.0294
10001SOL    HW131603   6.568   5.465   4.228 -0.3076 -0.7256  0.1168
10001SOL    HW231604   6.460   5.580   4.187  0.9415  0.4035 -0.0607
10002SOL     OW31605   3.166   5.438   5.556  0.6078  0.2302 -0.2860
10002SOL    HW131606   3.202   5.444   5.463  0.5315  0.5573 -0.2950
10002SOL    HW231607   3.186   5.348   5.594  3.7577  1.1780  0.6398
10003SOL     OW31608   5.441   4.061   6.275 -0.5733  0.2906  0.1128
10003SOL    HW131609   5.512   4.085   6.209  2.2187 -2.0771  2.0333
10003SOL    HW231610   5.419   4.140   6.332  1.7095  0.7082  0.4811
10004SOL     OW31611   6.654   2.535   6.288  0.4570 -0.7259  0.3401
10004SOL    HW131612   6.554   2.541   6.287  0.4559 -0.6122  1.0028
10004SOL    HW231613   6.682   2.444   6.318  0.5519 -1.4678 -1.8001
10005SOL     OW31614   1.041   4.422   1.036 -0.1748  0.4079 -0.2036
10005SOL    HW131615   1.102   4.488   0.991  0.8763 -0.4057  0.0009
10005SOL    HW231616   0.977   4.385   0.969  0.1427  0.6003 -0.6181
10006SOL     OW31617   1.586   4.959   0.996  0.0320  0.4768 -0.1458
10006SOL    HW131618   1.603   5.026   0.924  0.8776  0.2764 -0.1417
10006SOL    HW231619   1.655   4.968   1.067 -0.5481  0.3864  0.4368
10007SOL     OW31620   2.573   3.683   3.250 -0.1598 -0.0208 -0.0210
10007SOL    HW131621   2.515   3.686   3.332 -0.6661  2.2790 -0.3686
10007SOL    HW231622   2.661   3.726   3.270  0.5304 -1.3179 -0.1600
10008SOL     OW31623   6.486   3.465   4.184  0.1875  0.0874 -0.2994
10008SOL    HW131624   6.489   3.387   4.247 -1.5237 -0.2548 -0.5665
10008SOL    HW231625   6.568   3.521   4.195  0.6325 -0.7889  1.1474
10009SOL     OW31626   4.229   5.974   1.842 -0.5401 -0.2932 -0.4722
10009SOL    HW131627   4.195   5.941   1.930  0.6655 -1.8159 -0.5307
10009SOL    HW231628   4.302   6.039   1.857  2.0377 -3.0303 -0.1932
10010SOL     OW31629   6.579   1.603   1.129 -0.0655 -0.7508  0.0718
10010SOL    HW131630   6.529   1.529   1.174 -0.5831 -0.6210 -0.2804
10010SOL    HW231631   6.642   1.565   1.061  0.3903 -0.9196  0.5779
10011SOL     OW31632   6.903   1.982   5.596  0.6606 -0.4250  0.2126
10011SOL    HW131633   6.861   2.060   5.550 -0.1189 -1.8409 -1.6272
10011SOL    HW231634   7.001   1.979   5.576  0.3784 -0.8847 -1.2756
10012SOL     OW31635   4.166   2.189   0.403 -0.4262 -0.1493 -0.1394
10012SOL    HW131636   4.187   2.277   0.360  0.7259 -0.0880  0.5009
10012SOL    HW231637   4.155   2.202   0.502  1.0102 -0.8937  0.1460
10013SOL     OW31638   3.616   3.269   6.682  0.6459  0.1467 -0.5599
10013SOL    HW131639   3.649   3.312   6.766 -0.6430  0.7287 -0.3153
10013SOL    HW231640   3.681   3.200   6.650  1.4710  0.4111  0.5344
10014SOL     OW31641   5.529   6.113   1.166 -0.3710  0.3878  0.1223
10014SOL    HW131642   5.458   6.051   1.200 -0.3992  0.4651  0.2058
10014SOL    HW231643   5.619   6.073   1.182 -0.4488 -1.3653 -3.1561
10015SOL     OW31644   1.122   3.759   3.147  0.1194 -0.6551  0.3159
10015SOL    HW131645   1.064   3.680   3.166  1.8929 -2.1022  0.0449
10015SOL    HW231646   1.172   3.784   3.231 -0.1913 -0.0225  0.3149
10016SOL     OW31647   0.385   6.362   1.486  0.0205 -0.4873  0.3001
10016SOL    HW131648   0.375   6.312   1.572 -1.0331  0.0881  0.5385
10016SOL    HW231649   0.306   6.423   1.474  0.4687 -0.0924 -0.7682
10017SOL     OW31650   0.234   2.444   4.827  0.0254  0.4751 -0.5293
10017SOL    HW131651   0.290   2.469   4.747 -0.2586  1.1379 -0.5339
10017SOL    HW231652   0.278   2.479   4.910  0.4370 -0.4133 -0.3709
10018SOL     OW31653   0.415   3.858   6.421  0.3018  0.2870  0.3700
10018SOL    HW131654   0.342   3.910   6.377 -0.9796 -0.8229  1.1016
10018SOL    HW231655   0.503   3.904   6.406 -0.2011  0.5576 -2.3495
10019SOL     OW31656   1.693   1.370   3.390  0.2036  0.4431  0.2030
10019SOL    HW131657   1.756   1.441   3.355  0.2983  0.1859 -0.1514
10019SOL    HW231658   1.610   1.369   3.334  0.4597 -0.1371 -0.1676
10020SOL     OW31659   5.471   2.413   0.908 -0.5139  0.0685  0.1959
10020SOL    HW131660   5.518   2.348   0.848 -0.5013  0.0208  0.2576
10020SOL    HW231661   5.373   2.408   0.892 -0.4288  0.9864 -0.7662
10021SOL     OW31662   0.620   4.756   1.925 -0.2651  0.1498 -0.2310
10021SOL    HW131663   0.654   4.821   1.993 -2.8862  0.0446  1.2797
10021SOL    HW231664   0.695   4.732   1.862  1.3259  2.9376  0.4391
10022SOL     OW31665   1.712   4.225   4.455 -0.2117 -0.1087  0.2201
10022SOL    HW131666   1.726   4.234   4.554  2.4914 -0.6126 -0.0505
10022SOL    HW231667   1.640   4.157   4.438  0.1358 -0.9349  1.8363
10023SOL     OW31668   0.632   1.950   6.501  0.3752  0.6851  0.2743
10023SOL    HW131669   0.561   1.999   6.451  1.0528 -0.4215 -1.9161
10023SOL    HW231670   0.591   1.894   6.572 -0.9257  0.4344 -0.6422
10024SOL     OW31671   6.905   0.112   5.999 -0.1331 -0.4013  0.3920
10024SOL    HW131672   6.943   0.136   5.909 -0.2875 -0.3281  0.3467
10024SOL    HW231673   6.875   0.017   5.999 -1.2229 -0.0631 -0.0001
10025SOL     OW31674   5.023   6.320   4.299  0.6501  0.3898  0.0167
10025SOL    HW131675   5.000   6.417   4.297  0.2634  0.2924 -0.7581
10025SOL    HW231676   4.960   6.273   4.362 -0.8712  0.2479 -1.5346
10026SOL     OW31677   3.504   2.778   1.689 -0.8438  0.6243  0.0199
10026SOL    HW131678   3.458   2.757   1.603 -0.1025  1.8122 -0.6960
10026SOL    HW231679   3.498   2.876   1.707 -0.9199  0.3951  1.2837
10027SOL     OW31680   0.710   4.101   3.924 -0.6972  0.8711  0.2724
10027SOL    HW131681   0.750   4.019   3.964 -0.7242  0.8627  0.2821
10027SOL    HW231682   0.694   4.169   3.996 -2.3635  0.2063  0.5802
10028SOL     OW31683   0.191   5.685   5.191 -0.1445  0.0197  0.4505
10028SOL    HW131684   0.182   5.641   5.102 -1.5933 -0.6294  0.8870
10028SOL    HW231685   0.288   5.690   5.216  0.2081 -0.7476 -0.6721
10029SOL     OW31686   4.570   1.673   3.035  0.0632  0.9575 -0.3088
10029SOL    HW131687   4.659   1.704   3.068 -0.3127  4.3164 -2.0060
10029SOL    HW231688   4.583   1.625   2.948  0.2633  1.0152 -0.3124
10030SOL     OW31689   5.932   3.023   6.134  0.6232 -0.1247 -0.0478
10030SOL    HW131690   6.028   3.002   6.147  0.8839 -1.3767 -3.0864
10030SOL    HW231691   5.912   3.113   6.171  2.8542  0.0043  0.9892
10031SOL     OW31692   2.199   4.129   5.560  0.1542 -0.4714  0.1479
10031SOL    HW131693   2.131   4.163   5.625  0.0227 -1.0276  0.3050
10031SOL    HW231694   2.221   4.201   5.495 -1.4361 -0.6363 -0.6135
10032SOL     OW31695   0.259   3.635   6.073 -0.8764  0.5975  0.2808
10032SOL    HW131696   0.212   3.567   6.017 -0.4626  0.3459  0.2345
10032SOL    HW231697   0.210   3.646   6.160 -0.7717  0.0014  0.4205
10033SOL     OW31698   2.405   1.469   2.164  0.3797  0.1207 -0.2718
10033SOL    HW131699   2.422   1.431   2.074  2.8504  1.2925 -0.4020
10033SOL    HW231700   2.310   1.453   2.191  0.5324 -3.5834 -1.4349
10034SOL     OW31701   0.228   6.548   4.482 -0.3809  0.2948 -0.5516
10034SOL    HW131702   0.303   6.577   4.422  1.3862 -0.7182  1.0139
10034SOL    HW231703   0.233   6.599   4.568  1.4866 -2.7789  1.3996
10035SOL     OW31704   2.883   3.362   5.340 -0.0202  0.2587  0.3335
10035SOL    HW131705   2.945   3.287   5.364 -0.4753 -0.0990  0.4128
10035SOL    HW231706   2.858   3.354   5.244  1.0297  1.1265 -0.0348
10036SOL     OW31707   6.633   6.674   4.645  0.0688  0.1474  0.7048
10036SOL    HW131708   6.600   6.766   4.664 -2.0941  0.0139 -1.8200
10036SOL    HW231709   6.710   6.678   4.581  0.2404  0.2085  0.9140
10037SOL     OW31710   3.573   5.077   0.022 -0.5093 -0.1841  0.4647
10037SOL    HW131711   3.576   5.126  -0.065 -0.1723 -0.8216  0.1047
10037SOL    HW231712   3.650   5.106   0.079 -1.0217  0.6087  0.7637
10038SOL     OW31713   2.969   1.558   4.003 -0.8628 -0.4616 -0.2539
10038SOL    HW131714   3.001   1.652   4.016 -1.2092 -0.3540 -0.1572
10038SOL    HW231715   2.873   1.560   3.975 -1.8511 -0.8412  2.7375
10039SOL     OW31716   5.672   0.737   3.810  0.1923  0.0179 -0.4079
10039SOL    HW131717   5.621   0.820   3.791 -0.6014 -0.0672  1.2456
10039SOL    HW231718   5.751   0.758   3.868 -1.1364 -0.6062  1.7232
10040SOL     OW31719   1.073   2.479   6.629  0.3797 -0.2891  0.2479
10040SOL    HW131720   0.994   2.534   6.657  0.6251 -0.0723  0.5216
10040SOL    HW231721   1.104   2.424   6.706  0.4670 -0.4084  0.1270
10041SOL     OW31722   6.295   3.821   0.026  0.0350  0.9616 -0.1704
10041SOL    HW131723   6.338   3.785   0.109  1.2907  1.2597 -0.6616
10041SOL    HW231724   6.206   3.778   0.012  0.0443  0.5308  1.0437
10042SOL     OW31725   2.077   5.777   3.482 -0.5247 -0.3895 -0.0785
10042SOL    HW131726   2.093   5.683   3.452  0.8840 -0.5895  1.1773
10042SOL    HW231727   2.160   5.831   3.467 -1.5780  0.9145 -1.5827
10043SOL     OW31728   2.746   4.815   2.814  0.4580 -0.2471 -0.6290
10043SOL    HW131729   2.762   4.775   2.724 -0.1399  0.4386 -1.0521
10043SOL    HW231730   2.745   4.914   2.807 -0.6024 -0.2035 -0.0549
10044SOL     OW31731   2.104   6.553   4.691  0.2816 -0.4380 -0.3228
10044SOL    HW131732   2.110   6.470   4.635 -1.1790  1.0326 -2.7928
10044SOL    HW231733   2.027   6.545   4.754 -0.7224 -0.4543 -1.5154
10045SOL     OW31734   4.415   3.021   6.180  0.7115  0.4022 -0.9978
10045SOL    HW131735   4.453   3.083   6.111 -0.6983  1.9465 -0.4494
10045SOL    HW231736   4.316   3.025   6.178  0.6220 -0.7054  0.1006
10046SOL     OW31737   0.486   1.855   4.032 -0.1795 -0.6441  0.1419
10046SOL    HW131738   0.514   1.931   4.091 -2.1312 -0.0198  0.3282
10046SOL    HW231739   0.554   1.782   4.038  0.4609  0.0341  1.9622
10047SOL     OW31740   0.893   6.685   5.386 -0.1343  0.1467 -0.3778
10047SOL    HW131741   0.800   6.721   5.386 -0.8920 -1.6693 -0.4838
10047SOL    HW231742   0.922   6.670   5.481 -0.8315 -1.3163 -0.3675
10048SOL     OW31743   0.686   5.292   2.361  0.3204 -0.0898 -0.2166
10048SOL    HW131744   0.647   5.310   2.271  0.4369 -0.6236 -0.3716
10048SOL    HW231745   0.770   5.240   2.352 -0.0847 -0.8415  0.2446
10049SOL     OW31746   4.789   3.338   0.174  0.5647  0.4168 -0.2292
10049SOL    HW131747   4.876   3.304   0.139  0.0310 -0.5797 -0.6494
10049SOL    HW231748   4.722   3.263   0.174 -0.6478  1.4588 -1.1143
10050SOL     OW31749   3.015   3.443   3.212  0.1997 -0.4900  0.2588
10050SOL    HW131750   3.061   3.425   3.125  0.7375  1.2368  0.1395
10050SOL    HW231751   2.919   3.466   3.194  0.4787  0.5591  0.0180
10051SOL     OW31752   4.041   0.503   1.654  0.2968 -0.3044  0.4345
10051SOL    HW131753   4.134   0.541   1.663  1.0897 -1.4002 -2.0858
10051SOL    HW231754   4.047   0.403   1.648 -0.6717 -0.2874 -2.4565
10052SOL     OW31755   0.449   1.470   2.309  0.1922  0.0610  0.0168
10052SOL    HW131756   0.510   1.399   2.345 -0.8596 -0.1396  1.4863
10052SOL    HW231757   0.355   1.436   2.308 -0.2417  1.2267  0.1288
10053SOL     OW31758   4.382   5.671   2.194 -0.3224 -0.0050  0.3646
10053SOL    HW131759   4.306   5.632   2.246 -0.1532 -2.1161 -0.8497
10053SOL    HW231760   4.467   5.627   2.222 -0.0375 -0.1147 -0.6301
10054SOL     OW31761   5.306   4.306   0.777 -0.2702  0.3791  0.2757
10054SOL    HW131762   5.214   4.268   0.774 -0.0472 -0.1040 -0.8465
10054SOL    HW231763   5.350   4.278   0.863 -1.1206  0.5254  0.7705
10055SOL     OW31764   4.083   1.810   3.594  0.0766  0.2404  0.0827
10055SOL    HW131765   4.167   1.864   3.593 -0.7978  1.6612  0.7065
10055SOL    HW231766   4.047   1.803   3.501  0.9924 -0.6095 -0.2357
10056SOL     OW31767   3.733   2.913   3.696  0.2435 -0.1644 -0.2019
10056SOL    HW131768   3.656   2.889   3.637 -0.0035 -1.9112  0.7845
10056SOL    HW231769   3.819   2.888   3.651  0.1572  0.1591 -0.5551
10057SOL     OW31770   6.821   2.583   1.739  0.1399 -0.8680 -0.0423
10057SOL    HW131771   6.801   2.503   1.682  2.8676 -0.7686 -1.3202
10057SOL    HW231772   6.781   2.665   1.698 -3.0933 -1.5059  1.5320
10058SOL     OW31773   1.558   6.896   4.557  0.1059 -0.7638  0.2799
10058SOL    HW131774   1.487   6.933   4.498  2.5011  1.4924 -1.4255
10058SOL    HW231775   1.633   6.859   4.502  1.4834 -0.5712  1.9143
10059SOL     OW31776   6.064   4.949   5.166  0.0468  0.1818 -0.7927
10059SOL    HW131777   6.072   4.908   5.075  1.1136  3.7337 -2.4541
10059SOL    HW231778   6.027   5.041   5.158 -2.2410 -0.2192  2.7168
10060SOL     OW31779   2.114   6.967   0.134 -0.1702 -0.2712 -0.0377
10060SOL    HW131780   2.194   6.915   0.104 -0.8199  0.4459 -3.5797
10060SOL    HW231781   2.048   6.905   0.178  1.2550 -1.3368  0.6767
10061SOL     OW31782   1.057   6.151   3.196 -0.2514 -0.0562 -0.1926
10061SOL    HW131783   1.055   6.096   3.280 -0.5552 -0.6353 -0.5763
10061SOL    HW231784   1.149   6.152   3.159 -0.0242  0.5363  0.3609
10062SOL     OW31785   1.170   6.176   6.793  0.3602  0.2281  0.2534
10062SOL    HW131786   1.161   6.077   6.803 -1.3960  0.3437  0.2013
10062SOL    HW231787   1.224   6.213   6.868  0.5157 -0.7046  0.6063
10063SOL     OW31788   4.663   3.938   6.170 -0.0254 -0.0472 -0.1206
10063SOL    HW131789   4.616   3.991   6.100  0.5335 -1.9162 -1.9981
10063SOL    HW231790   4.729   3.876   6.128  1.7736  0.1308  2.2110
10064SOL     OW31791   5.994   2.898   6.731 -0.3833  0.1342  0.0237
10064SOL    HW131792   5.899   2.929   6.731 -0.0539  1.2372  0.7517
10064SOL    HW231793   6.038   2.925   6.817  0.1044 -1.9662  0.4826
10065SOL     OW31794   5.761   2.550   0.914  0.7757  0.1744  0.1209
10065SOL    HW131795   5.696   2.511   0.978  0.8557  0.8101  0.6058
10065SOL    HW231796   5.849   2.564   0.959  0.9770  0.1817 -0.2637
10066SOL     OW31797   3.510   1.731   3.574 -0.0243  0.4072  0.0728
10066SOL    HW131798   3.444   1.806   3.581  0.8977  1.1845  0.7321
10066SOL    HW231799   3.602   1.768   3.575  0.4448 -0.6982 -0.3765
10067SOL     OW31800   1.495   2.150   0.339 -0.2586 -0.5127 -0.1829
10067SOL    HW131801   1.542   2.123   0.255  1.2424  2.8028 -0.5568
10067SOL    HW231802   1.460   2.068   0.385  0.7923 -2.6322 -2.8605
10068SOL     OW31803   1.095   1.578   3.035 -0.3625  0.1515 -0.0199
10068SOL    HW131804   1.075   1.675   3.045  0.0113  0.2393 -0.1040
10068SOL    HW231805   1.192   1.561   3.057 -0.0301  0.0350 -1.4581
10069SOL     OW31806   5.867   1.989   1.742 -0.2339  0.7037 -0.1932
10069SOL    HW131807   5.864   1.998   1.841  0.4649  0.0142 -0.0989
10069SOL    HW231808   5.798   1.923   1.712  0.0591  0.3416 -0.0826
10070SOL     OW31809   5.990   0.759   6.660 -0.0009 -0.1660 -0.2584
10070SOL    HW131810   5.909   0.745   6.716  1.1803 -1.7124  1.1808
10070SOL    HW231811   5.979   0.840   6.604 -2.1128  0.2189  0.6392
10071SOL     OW31812   1.749   6.723   2.145 -0.0207 -0.0033  0.1200
10071SOL    HW131813   1.685   6.750   2.218  1.1044  1.4202  0.6251
10071SOL    HW231814   1.840   6.709   2.184  0.3682 -0.2915 -0.8574
10072SOL     OW31815   4.060   6.088   3.523 -0.4805  0.0603 -0.5167
10072SOL    HW131816   4.072   5.992   3.499  0.0386 -1.0193  3.3791
10072SOL    HW231817   3.963   6.112   3.516 -0.8124 -1.1453 -0.2606
10073SOL     OW31818   4.096   1.582   6.130 -0.1862  0.0850  0.3558
10073SOL    HW131819   4.082   1.640   6.050  0.5745 -0.2086  0.0022
10073SOL    HW231820   4.010   1.539   6.156 -0.5071  0.4491 -0.0989
10074SOL     OW31821   5.536   5.722   3.788  0.2933 -0.1744  0.0339
10074SOL    HW131822   5.489   5.678   3.711 -0.2946 -1.0906  0.8988
10074SOL    HW231823   5.626   5.681   3.800 -1.0189 -2.7096  2.1208
10075SOL     OW31824   0.152   2.749   4.250  0.1992  0.0658 -0.3503
10075SOL    HW131825   0.245   2.759   4.215 -0.4325 -0.2625 -2.2320
10075SOL    HW231826   0.149   2.673   4.315  1.1356 -0.2512 -0.6678
10076SOL     OW31827   0.822   6.379   4.861 -0.2292  0.2333 -0.0375
10076SOL    HW131828   0.897   6.314   4.869 -1.6453 -1.9076 -2.5512
10076SOL    HW231829   0.793   6.408   4.953  2.0287 -0.7722  1.0531
10077SOL     OW31830   5.908   2.688   3.076 -0.4645 -0.2885 -0.7164
10077SOL    HW131831   5.834   2.625   3.050 -0.8432  0.1693 -0.7619
10077SOL    HW231832   5.871   2.780   3.087  0.1110 -0.0463 -0.7757
10078SOL     OW31833   1.869   4.132   5.985  0.6417 -0.1487 -0.2239
10078SOL    HW131834   1.954   4.131   6.038  0.4596  1.8076  0.1647
10078SOL    HW231835   1.885   4.178   5.898  0.0394  0.0062 -0.2545
10079SOL     OW31836   2.855   5.560   3.276  0.6411  0.2182  0.0653
10079SOL    HW131837   2.899   5.494   3.336 -0.7006  0.7226  1.6840
10079SOL    HW231838   2.921   5.595   3.210  1.8085 -1.4021  0.3238
10080SOL     OW31839   5.775   5.488   5.219 -0.2944  0.1745  0.1406
10080SOL    HW131840   5.743   5.578   5.248 -0.0532 -0.2639  1.8926
10080SOL    HW231841   5.854   5.498   5.159  0.1865  1.1222  0.9028
10081SOL     OW31842   3.895   6.104   5.172  0.4896  0.0274  0.1850
10081SOL    HW131843   3.914   6.202   5.162 -2.3658  0.5638 -0.9403
10081SOL    HW231844   3.940   6.053   5.100  0.8390  0.6990 -0.0781
10082SOL     OW31845   4.361   0.651   5.730  0.5128  0.1134  0.3744
10082SOL    HW131846   4.449   0.667   5.685  0.4111  0.0115  0.1385
10082SOL    HW231847   4.370   0.669   5.828  0.3897  1.6740  0.1158
10083SOL     OW31848   4.596   4.212   6.618  0.5021  0.2276 -0.3499
10083SOL    HW131849   4.653   4.273   6.562  0.4720  0.2811 -0.3225
10083SOL    HW231850   4.616   4.228   6.715  0.9169 -0.2142 -0.3570
10084SOL     OW31851   2.675   4.834   6.763 -0.6774  0.3202  0.7527
10084SOL    HW131852   2.649   4.746   6.803  0.6850 -0.6268 -0.3770
10084SOL    HW231853   2.765   4.827   6.721 -0.2253  2.4606  1.2137
10085SOL     OW31854   1.974   2.323   5.815  0.3355 -0.2684 -1.1884
10085SOL    HW131855   1.917   2.330   5.733 -0.0216 -3.0334 -1.2586
10085SOL    HW231856   1.918   2.290   5.892  0.8410  1.5411  0.0277
10086SOL     OW31857   6.146   4.609   6.517 -0.4698  0.2839  0.0522
10086SOL    HW131858   6.210   4.621   6.441 -2.1802 -0.0033 -1.5265
10086SOL    HW231859   6.140   4.512   6.540 -0.5132  0.2787  0.0207
10087SOL     OW31860   1.334   2.732   1.641 -0.1199 -0.1575  0.3839
10087SOL    HW131861   1.285   2.681   1.712  0.0451 -2.2635 -0.9301
10087SOL    HW231862   1.271   2.796   1.597 -1.7330 -2.5352 -1.0114
10088SOL     OW31863   4.937   5.725   3.355 -0.9899  0.2010  0.1114
10088SOL    HW131864   4.878   5.797   3.319 -0.6073  0.5805  0.2359
10088SOL    HW231865   5.011   5.766   3.408 -0.2765 -0.2377 -0.5383
10089SOL     OW31866   4.937   0.351   2.381 -0.4148 -0.0799  0.3273
10089SOL    HW131867   4.861   0.396   2.335 -0.4949  0.4326  0.9595
10089SOL    HW231868   4.943   0.256   2.349 -1.8662 -0.3982  0.8970
10090SOL     OW31869   1.365   5.220   6.175 -0.8239 -0.2433 -0.5382
10090SOL    HW131870   1.437   5.255   6.115  0.1663  1.1954  1.3828
10090SOL    HW231871   1.286   5.280   6.171 -0.4660  0.2757  0.1594
10091SOL     OW31872   2.121   5.617   5.051 -0.3652 -0.1764  0.2598
10091SOL    HW131873   2.199   5.612   5.113 -0.8062 -1.2635  0.7468
10091SOL    HW231874   2.037   5.633   5.103 -0.5550  0.4212 -0.2095
10092SOL     OW31875   3.530   6.101   2.105  0.2532  0.3928 -0.1895
10092SOL    HW131876   3.547   6.145   2.018  0.2258 -0.4386 -0.6297
10092SOL    HW231877   3.559   6.005   2.100  0.7039  0.4557  0.8642
10093SOL     OW31878   6.140   6.456   2.232  0.4591  0.1155 -0.0041
10093SOL    HW131879   6.199   6.388   2.276 -0.0552 -0.9153 -0.8484
10093SOL    HW231880   6.109   6.522   2.300  2.1161  0.3532  0.5648
10094SOL     OW31881   2.149   2.117   6.491  0.5257  0.2796 -0.3668
10094SOL    HW131882   2.144   2.042   6.426 -0.4888  1.0311 -1.1964
10094SOL    HW231883   2.066   2.120   6.546  0.6648  0.6371 -0.1688
10095SOL     OW31884   3.975   0.226   1.610  0.0792  0.7085 -0.0208
10095SOL    HW131885   3.930   0.175   1.684 -0.3109  1.3698  0.2071
10095SOL    HW231886   3.986   0.167   1.531 -0.4507  0.2907  0.2106
10096SOL     OW31887   5.345   4.931   5.148 -0.2321 -0.6330 -0.4439
10096SOL    HW131888   5.381   5.001   5.087 -0.4264  0.0700  0.2282
10096SOL    HW231889   5.345   4.843   5.101  2.1659 -0.6489 -0.5683
10097SOL     OW31890   1.111   4.564   5.992 -0.3792  0.3197 -0.1153
10097SOL    HW131891   1.198   4.611   5.978 -0.1698  0.1592  0.5852
10097SOL    HW231892   1.128   4.471   6.025 -0.8074  0.0785 -0.5762
10098SOL     OW31893   3.613   1.984   2.101  0.4300 -0.2055 -0.7114
10098SOL    HW131894   3.589   1.923   2.025  0.3431  0.5165 -1.2630
10098SOL    HW231895   3.681   1.938   2.159 -0.3147 -1.2029 -0.5993
10099SOL     OW31896   1.567   2.006   3.692  0.5900  0.1255 -0.3408
10099SOL    HW131897   1.590   2.029   3.786  1.0448 -2.5437  0.2719
10099SOL    HW231898   1.563   1.907   3.682  0.2634  0.3449 -3.0814
10100SOL     OW31899   6.706   6.421   5.998 -0.4576 -0.0771  0.2535
10100SOL    HW131900   6.637   6.433   5.926 -0.1182 -2.1325 -0.5052
10100SOL    HW231901   6.674   6.464   6.083 -2.6670 -0.8932 -0.0931
10101SOL     OW31902   2.610   5.343   0.607 -0.1050 -0.0965  0.2749
10101SOL    HW131903   2.655   5.286   0.675 -0.5545 -1.8949 -0.8674
10101SOL    HW231904   2.540   5.290   0.559 -1.5437  1.8263  0.0898
10102SOL     OW31905   4.629   6.418   6.166  0.0997 -0.2782  0.5427
10102SOL    HW131906   4.669   6.412   6.257  2.1720 -0.3036 -0.3257
10102SOL    HW231907   4.673   6.492   6.116 -1.4320  0.1206 -0.2590
10103SOL     OW31908   3.574   5.607   6.562  0.0131  0.0089 -0.2904
10103SOL    HW131909   3.479   5.579   6.546  0.1819  0.3847 -2.2237
10103SOL    HW231910   3.578   5.707   6.569  0.3918  0.0726 -1.3176
10104SOL     OW31911   0.884   2.135   3.380 -0.5958 -0.9428 -0.6308
10104SOL    HW131912   0.799   2.133   3.328 -1.3268  1.1283  0.4004
10104SOL    HW231913   0.877   2.201   3.454  1.3198 -1.9913  0.5665
10105SOL     OW31914   5.676   1.970   0.501  0.7927  0.4752 -0.2528
10105SOL    HW131915   5.737   1.891   0.503  1.3323  0.8294 -1.4467
10105SOL    HW231916   5.730   2.054   0.497  0.2217  0.8731  0.2368
10106SOL     OW31917   0.632   0.226   3.676 -0.8253 -0.1787 -0.1319
10106SOL    HW131918   0.621   0.197   3.771 -2.3351 -0.4848 -0.3924
10106SOL    HW231919   0.593   0.159   3.614 -0.3301  0.2715 -0.9669
10107SOL     OW31920   4.544   3.081   0.450  0.0433 -0.4062  0.2576
10107SOL    HW131921   4.585   2.990   0.458 -0.3355 -0.6678 -0.6468
10107SOL    HW231922   4.549   3.112   0.355 -1.1861 -0.1348  0.2570
10108SOL     OW31923   5.768   0.857   0.252  0.2898  0.4299  0.2543
10108SOL    HW131924   5.763   0.957   0.247  5.1347  0.8633 -1.5530
10108SOL    HW231925   5.806   0.830   0.340 -2.5935 -0.1179  1.4402
10109SOL     OW31926   2.575   1.889   5.191 -0.0954  0.5452 -0.0450
10109SOL    HW131927   2.672   1.868   5.179 -0.3357 -0.4339 -0.3307
10109SOL    HW231928   2.557   1.909   5.287  0.2072 -0.2966  0.1999
10110SOL     OW31929   5.867   5.942   5.172  0.3346 -0.3465  0.7072
10110SOL    HW131930   5.880   5.974   5.078 -1.6996 -0.6736  0.2586
10110SOL    HW231931   5.910   6.007   5.235  1.4456  0.0565 -0.4198
10111SOL     OW31932   3.934   6.418   5.506 -0.2083  0.3391  0.0495
10111SOL    HW131933   3.996   6.401   5.582  1.2481  0.3832 -1.0881
10111SOL    HW231934   3.913   6.515   5.500 -1.2310  0.2020  1.0412
10112SOL     OW31935   1.957   4.119   1.616 -0.8467 -0.2593 -0.3606
10112SOL    HW131936   1.944   4.076   1.706 -1.5926  2.9262  1.2238
10112SOL    HW231937   2.045   4.092   1.578 -1.3461 -3.1884  0.3778
10113SOL     OW31938   4.568   3.216   6.008  0.2784 -0.0490 -0.3455
10113SOL    HW131939   4.614   3.214   5.919  1.8028 -1.3617  0.4201
10113SOL    HW231940   4.627   3.259   6.076 -0.9080  1.0223  0.0579
10114SOL     OW31941   2.770   1.392   4.301 -0.5896 -0.6055 -0.1421
10114SOL    HW131942   2.868   1.375   4.313 -0.8262 -1.4580  0.7035
10114SOL    HW231943   2.721   1.366   4.384 -1.5286 -0.0565 -0.5043
10115SOL     OW31944   2.828   2.223   4.054 -0.1157 -0.2236 -0.0911
10115SOL    HW131945   2.757   2.189   3.991  0.1068 -0.2284 -0.3404
10115SOL    HW231946   2.918   2.208   4.013 -0.0324  1.4575 -0.5978
10116SOL     OW31947   4.653   0.099   1.003 -0.1548 -0.4410  0.2264
10116SOL    HW131948   4.669   0.117   0.906 -2.2669 -0.1135 -0.1128
10116SOL    HW231949   4.585   0.026   1.013 -1.4306  0.8315  1.3887
10117SOL     OW31950   4.491   2.998   3.263 -0.4203  0.2107  0.1729
10117SOL    HW131951   4.459   3.033   3.351 -1.2039  0.5207 -0.2272
10117SOL    HW231952   4.423   3.016   3.193 -0.3220 -1.0801 -0.2820
10118SOL     OW31953   1.345   0.857   1.852  0.3039 -0.0657 -0.4737
10118SOL    HW131954   1.344   0.941   1.798  2.0238  0.7934  0.7343
10118SOL    HW231955   1.386   0.875   1.941 -1.1360 -1.7621  0.6087
10119SOL     OW31956   6.237   6.885   6.569 -1.0633  0.5659 -0.1874
10119SOL    HW131957   6.165   6.945   6.603 -1.8056 -1.2322  1.5169
10119SOL    HW231958   6.318   6.894   6.626 -1.6592 -1.0387  0.9713
10120SOL     OW31959   3.994   5.074   4.358  0.0544 -0.6623  0.5139
10120SOL    HW131960   4.064   5.018   4.314 -0.3877 -1.1806  0.4644
10120SOL    HW231961   4.024   5.170   4.359 -0.8473 -0.2426 -2.8625
10121SOL     OW31962   2.328   4.433   0.293 -0.3539  0.0919  0.4277
10121SOL    HW131963   2.376   4.476   0.369 -0.4702 -0.1051  0.6105
10121SOL    HW231964   2.248   4.488   0.269 -0.2403  0.2271  0.3573
10122SOL     OW31965   3.629   1.184   6.718  0.0344  0.1879  0.3017
10122SOL    HW131966   3.561   1.213   6.651  0.4600  0.4035 -0.0370
10122SOL    HW231967   3.632   1.084   6.722 -1.8917  0.1356  1.9264
10123SOL     OW31968   6.843   6.874   5.999  0.5770 -0.3550  0.2782
10123SOL    HW131969   6.930   6.827   5.987  0.7780 -0.3646  1.6275
10123SOL    HW231970   6.787   6.825   6.065  0.2343  0.5547  0.6853
10124SOL     OW31971   5.898   4.514   1.698  0.4395 -0.1557 -0.2041
10124SOL    HW131972   5.903   4.593   1.638 -0.5918 -0.2380 -0.4180
10124SOL    HW231973   5.812   4.516   1.749  0.0946 -1.4637 -0.6952
10125SOL     OW31974   5.204   5.039   3.777 -0.0052 -0.5022  0.0960
10125SOL    HW131975   5.113   5.079   3.763 -0.1012 -1.1113 -1.2169
10125SOL    HW231976   5.228   5.042   3.874 -1.8099 -1.1694  0.5926
10126SOL     OW31977   3.452   5.908   4.964 -0.7169  0.5038  0.7570
10126SOL    HW131978   3.363   5.872   4.993 -1.1403  0.7447 -0.2056
10126SOL    HW231979   3.507   5.929   5.045 -1.3454 -0.1035  1.3585
10127SOL     OW31980   0.617   1.463   4.514 -0.7860  0.6284 -0.0727
10127SOL    HW131981   0.565   1.524   4.574 -1.0322 -0.9174  1.3329
10127SOL    HW231982   0.711   1.497   4.506 -0.2293 -0.0300  2.6590
10128SOL     OW31983   2.274   0.906   0.800 -0.6108  0.1642 -0.6312
10128SOL    HW131984   2.280   0.834   0.731 -0.2468  0.5595 -1.0117
10128SOL    HW231985   2.249   0.865   0.888 -0.8840 -0.3654 -0.9465
10129SOL     OW31986   3.719   6.918   0.485 -0.0715  0.3820  0.1771
10129SOL    HW131987   3.738   7.014   0.469 -0.5339  0.6132  0.9763
10129SOL    HW231988   3.756   6.891   0.574  1.4304 -0.5798 -0.6902
10130SOL     OW31989   0.563   0.117   2.285 -0.2287  0.3595  0.2319
10130SOL    HW131990   0.625   0.186   2.248  0.2352 -0.3513 -0.3250
10130SOL    HW231991   0.590   0.026   2.254 -2.5350  0.1637 -1.4448
10131SOL     OW31992   6.743   5.772   5.009  0.8288  0.3543  0.4266
10131SOL    HW131993   6.680   5.796   4.936  1.2345  1.3027  0.3741
10131SOL    HW231994   6.697   5.713   5.075  0.5439 -0.7631 -0.7260
10132SOL     OW31995   3.253   2.353   5.523 -0.0836 -0.5196 -0.2185
10132SOL    HW131996   3.261   2.351   5.622 -0.1560  1.2165 -0.1425
10132SOL    HW231997   3.344   2.343   5.482  0.2567  0.8573  0.1186
10133SOL     OW31998   5.640   7.008   1.033  1.0483 -0.9669 -0.1495
10133SOL    HW131999   5.726   7.059   1.027  1.1073 -1.0398  0.0753
10133SOL    HW232000   5.635   6.961   1.120  0.1330  0.1972  0.4662
10134SOL     OW32001   6.184   0.099   2.454 -0.1112 -0.1550 -0.4948
10134SOL    HW132002   6.145   0.163   2.520  1.5618  0.0053  0.3920
10134SOL    HW232003   6.227   0.149   2.379  1.9753 -0.1001  0.6390
10135SOL     OW32004   1.604   6.048   5.595 -0.2152 -0.0595  0.2060
10135SOL    HW132005   1.536   6.037   5.522 -0.0484 -0.0112  0.0415
10135SOL    HW232006   1.601   5.968   5.656 -0.0606 -0.3025 -0.1011
10136SOL     OW32007   3.954   0.330   3.555  0.2585 -0.3780  0.5252
10136SOL    HW132008   4.033   0.368   3.507 -0.2899  0.5511  0.3346
10136SOL    HW232009   3.967   0.340   3.654  0.8283 -1.1559  0.5357
10137SOL     OW32010   3.094   4.831   0.257 -0.3526  0.3666  0.1524
10137SOL    HW132011   3.111   4.922   0.295 -0.2200  0.9707 -1.2816
10137SOL    HW232012   3.034   4.838   0.178 -1.1277 -0.9211  0.5991
10138SOL     OW32013   4.629   5.237   6.088 -0.4804  0.3018  0.0594
10138SOL    HW132014   4.707   5.197   6.040  0.1421  0.8200  0.6148
10138SOL    HW232015   4.617   5.191   6.176 -0.1749  0.8726  0.4083
10139SOL     OW32016   5.658   4.235   5.350  0.6197 -0.0943 -0.3521
10139SOL    HW132017   5.616   4.145   5.334 -0.1939 -0.0324  1.1811
10139SOL    HW232018   5.587   4.302   5.371  1.3834  0.0423  2.1896
10140SOL     OW32019   4.673   3.992   6.858 -0.1937  0.4734  0.9238
10140SOL    HW132020   4.706   4.086   6.862  0.8667  0.1187  0.8189
10140SOL    HW232021   4.574   3.990   6.876 -0.5464  1.7810 -0.6178
10141SOL     OW32022   2.824   0.358   1.118 -0.0189 -0.3806  0.1433
10141SOL    HW132023   2.909   0.406   1.096  0.2351 -0.5260  0.7869
10141SOL    HW232024   2.775   0.408   1.190 -1.3601  0.6736 -1.4173
10142SOL     OW32025   5.841   6.080   5.771 -0.0402 -0.6755  0.0558
10142SOL    HW132026   5.767   6.100   5.835  0.5501  0.8791  0.2893
10142SOL    HW232027   5.924   6.056   5.822 -0.0305 -1.1813 -0.1837
10143SOL     OW32028   5.107   1.246   2.279 -0.2994 -0.1637 -0.2080
10143SOL    HW132029   5.114   1.146   2.278  0.5188 -0.1087 -0.9375
10143SOL    HW232030   5.082   1.278   2.188  2.0219  0.4529 -0.6694
10144SOL     OW32031   2.091   4.450   0.927  0.5963  0.6761  1.0077
10144SOL    HW132032   2.078   4.351   0.925  1.3109  0.5816  0.6132
10144SOL    HW232033   2.003   4.495   0.939  0.1346  0.0178  0.1943
10145SOL     OW32034   0.909   2.843   6.322  0.3540 -1.1873 -0.0820
10145SOL    HW132035   0.880   2.751   6.348 -0.7788 -0.7232  0.3614
10145SOL    HW232036   0.864   2.910   6.380  1.1037 -0.3359 -0.4529
10146SOL     OW32037   4.829   4.063   6.349  0.3371  0.2063 -0.1501
10146SOL    HW132038   4.858   4.020   6.435 -1.5196 -0.7496  0.0491
10146SOL    HW232039   4.769   4.001   6.299  0.5984  1.1348 -1.7067
10147SOL     OW32040   4.957   0.196   4.156 -0.2530  0.3000  0.1856
10147SOL    HW132041   5.030   0.265   4.155 -0.6180  0.6927 -0.7057
10147SOL    HW232042   4.994   0.108   4.186  1.0670  0.0132 -2.0527
10148SOL     OW32043   5.257   4.495   5.475 -0.0028 -0.1759 -0.3625
10148SOL    HW132044   5.261   4.561   5.550  1.9801 -0.6661  0.0122
10148SOL    HW232045   5.162   4.488   5.442 -0.4806  1.8586  0.4377
10149SOL     OW32046   1.138   0.879   4.780  0.1070 -0.3737 -0.1019
10149SOL    HW132047   1.182   0.890   4.691  1.2150 -1.2823  0.3098
10149SOL    HW232048   1.039   0.889   4.770 -0.0023 -2.4771 -1.7949
10150SOL     OW32049   0.020   0.247   2.100  0.2881 -0.2471  0.2559
10150SOL    HW132050   0.004   0.345   2.110  1.6269  0.0775 -0.4939
10150SOL    HW232051   0.104   0.222   2.147  1.3690 -0.5089 -1.7238
10151SOL     OW32052   2.651   0.554   2.244  0.0865 -0.4588  0.1686
10151SOL    HW132053   2.732   0.508   2.207  0.3971  0.3881 -0.2193
10151SOL    HW232054   2.570   0.498   2.227  0.7248 -1.9755  1.7238
10152SOL     OW32055   0.313   4.521   2.616  0.2611  0.4908  0.0364
10152SOL    HW132056   0.238   4.460   2.591 -0.5583  1.1820  0.7435
10152SOL    HW232057   0.365   4.481   2.692  0.0681  0.4079  0.1260
10153SOL     OW32058   0.750   6.566   4.648 -0.1316  0.1844  0.1814
10153SOL    HW132059   0.767   6.497   4.718  0.9748  1.0591  0.8154
10153SOL    HW232060   0.776   6.530   4.558 -0.1218 -0.4101  0.4167
10154SOL     OW32061   4.553   6.689   4.219  0.2034 -0.2234  0.6426
10154SOL    HW132062   4.600   6.754   4.278  1.5360 -1.1784  0.6914
10154SOL    HW232063   4.545   6.727   4.127 -0.4736  0.6354  1.0439
10155SOL     OW32064   1.227   5.058   2.846 -0.0531 -0.0541  0.0357
10155SOL    HW132065   1.192   5.150   2.831 -1.8819 -0.7218 -0.0350
10155SOL    HW232066   1.254   5.019   2.758  1.5425  0.6849  0.1618
10156SOL     OW32067   6.868   6.493   6.662  0.0269 -0.0326  0.3904
10156SOL    HW132068   6.789   6.440   6.693 -1.0195  1.0882 -0.2624
10156SOL    HW232069   6.928   6.435   6.607 -1.3149 -0.4524 -0.6828
10157SOL     OW32070   6.560   3.657   1.620 -0.2329  0.4251  0.1731
10157SOL    HW132071   6.473   3.678   1.664 -0.5460  0.2376 -0.3448
10157SOL    HW232072   6.583   3.561   1.636 -1.0200 -0.0102 -1.1850
10158SOL     OW32073   3.227   5.894   6.639  0.0961 -0.0171  0.4866
10158SOL    HW132074   3.286   5.872   6.562 -2.0527 -0.0665 -1.2469
10158SOL    HW232075   3.239   5.826   6.711  1.4757 -0.5173 -0.1796
10159SOL     OW32076   3.714   5.660   1.770  0.0616  0.1051  0.0333
10159SOL    HW132077   3.652   5.739   1.768 -0.2108 -0.1111 -0.1376
10159SOL    HW232078   3.700   5.605   1.688  0.1154 -0.2272  0.2469
10160SOL     OW32079   6.670   4.987   1.316 -0.4426 -1.0459 -0.3751
10160SOL    HW132080   6.745   4.927   1.289  1.0533  0.8453 -0.6836
10160SOL    HW232081   6.651   4.975   1.413  3.9036  1.9368  1.1549
10161SOL     OW32082   3.489   6.531   6.473  0.6134 -0.7839 -0.0157
10161SOL    HW132083   3.556   6.524   6.548  1.3093  0.2053 -0.5296
10161SOL    HW232084   3.511   6.609   6.416 -0.7455 -0.7086 -0.4618
10162SOL     OW32085   2.489   4.923   0.188 -0.4294  0.1636 -0.2224
10162SOL    HW132086   2.392   4.899   0.194 -0.3476 -0.3019 -0.6813
10162SOL    HW232087   2.526   4.891   0.101 -0.3167  2.0574 -0.9142
10163SOL     OW32088   2.484   5.320   1.937 -0.6255 -0.0700 -0.1265
10163SOL    HW132089   2.491   5.241   1.875 -1.0219 -0.6347  0.5304
10163SOL    HW232090   2.478   5.404   1.883 -1.0884 -0.5619 -0.8665
10164SOL     OW32091   0.028   4.308   3.537  0.8594 -0.1032 -0.4176
10164SOL    HW132092  -0.061   4.273   3.564  0.3399  2.1255  1.0166
10164SOL    HW232093   0.100   4.246   3.568 -0.0509 -0.3943  1.1979
10165SOL     OW32094   3.433   5.384   3.260  0.3450  0.0309  0.7972
10165SOL    HW132095   3.381   5.381   3.345  0.6381  0.2211  0.9837
10165SOL    HW232096   3.410   5.304   3.204 -1.8837  1.2310 -0.1570
10166SOL     OW32097   2.226   3.653   2.027 -0.5683  0.5007  0.2811
10166SOL    HW132098   2.274   3.568   2.053 -1.2973 -0.0701 -0.2008
10166SOL    HW232099   2.128   3.638   2.031 -0.7001  1.2132 -0.1966
10167SOL     OW32100   6.623   1.699   2.429 -0.1315 -0.0439 -0.2132
10167SOL    HW132101   6.682   1.705   2.348  1.6499  1.4133  1.0926
10167SOL    HW232102   6.671   1.738   2.508 -1.8147 -1.3807  1.5653
10168SOL     OW32103   4.996   2.354   1.715  0.1743  0.3297 -0.5285
10168SOL    HW132104   4.904   2.393   1.720  0.8676  1.9557  0.7969
10168SOL    HW232105   5.051   2.390   1.791  0.6396 -4.0777  1.5374
10169SOL     OW32106   2.385   5.881   6.737 -0.2186 -0.7625  0.4992
10169SOL    HW132107   2.370   5.962   6.793  0.9868  0.8682 -1.3801
10169SOL    HW232108   2.325   5.808   6.767 -3.3489  1.6406  0.6072
10170SOL     OW32109   6.373   3.703   0.259  0.1263  0.3672  0.7334
10170SOL    HW132110   6.471   3.723   0.266  0.4328 -1.4708  2.6326
10170SOL    HW232111   6.326   3.744   0.337 -1.1524  3.5151 -1.4916
10171SOL     OW32112   5.638   0.141   5.677 -0.0598  0.9978 -0.1411
10171SOL    HW132113   5.643   0.235   5.643  0.5558  1.0729  0.1267
10171SOL    HW232114   5.729   0.100   5.673 -0.2368  0.5703  0.1745
10172SOL     OW32115   3.848   6.212   2.518  0.2934 -0.0472  0.3568
10172SOL    HW132116   3.807   6.187   2.431  1.7607 -0.8936 -0.1244
10172SOL    HW232117   3.939   6.170   2.526  0.3423  0.3143  2.1341
10173SOL     OW32118   6.933   3.090   0.407 -0.1160  0.7006  0.3768
10173SOL    HW132119   7.009   3.084   0.472  1.6873  1.8696 -1.4793
10173SOL    HW232120   6.927   3.183   0.371 -1.3583  0.2056 -0.7805
10174SOL     OW32121   6.644   3.340   0.847  0.1741 -0.0690  0.1023
10174SOL    HW132122   6.602   3.431   0.842  0.2343  0.2909  3.5623
10174SOL    HW232123   6.576   3.270   0.826 -0.3049  0.7141 -1.0065
10175SOL     OW32124   0.268   0.531   6.927  0.2934  0.4036 -0.5568
10175SOL    HW132125   0.199   0.567   6.990 -1.5184  0.4508 -2.4531
10175SOL    HW232126   0.354   0.518   6.976 -0.0270  3.5888  1.1624
10176SOL     OW32127   2.275   1.077   3.648 -0.0717  0.1288  0.0912
10176SOL    HW132128   2.280   1.037   3.739  1.3326  0.5120  0.1966
10176SOL    HW232129   2.180   1.103   3.628 -0.6542 -1.3206  0.8345
10177SOL     OW32130   6.840   0.172   1.094  0.5318  0.1328  0.0849
10177SOL    HW132131   6.887   0.089   1.123  1.7285  0.9400  0.5249
10177SOL    HW232132   6.857   0.187   0.996  1.1101  0.3587  0.2164
10178SOL     OW32133   0.516   4.418   3.794 -0.5354  0.4362  0.0773
10178SOL    HW132134   0.451   4.370   3.853 -0.0050 -0.9053 -0.3943
10178SOL    HW232135   0.589   4.457   3.849  0.7883 -2.1180  0.2384
10179SOL     OW32136   5.847   3.509   4.619  0.4966 -0.2244  0.1410
10179SOL    HW132137   5.823   3.425   4.667 -0.3542  0.1210  0.3422
10179SOL    HW232138   5.897   3.487   4.535  1.1766 -0.8710  0.7104
10180SOL     OW32139   6.489   4.690   5.488 -0.3255 -0.0661  0.2573
10180SOL    HW132140   6.535   4.695   5.400 -1.7512 -3.2032 -0.8383
10180SOL    HW232141   6.413   4.755   5.491 -0.8300 -0.5376 -1.2668
10181SOL     OW32142   4.347   1.063   0.027  0.2701  0.0114 -0.5201
10181SOL    HW132143   4.333   1.049  -0.071 -0.6092  0.4263 -0.4663
10181SOL    HW232144   4.323   0.979   0.076 -0.1383  0.0804 -0.5958
10182SOL     OW32145   4.967   1.880   4.342  0.6007 -0.2425  0.2066
10182SOL    HW132146   4.964   1.786   4.377 -0.1847 -0.8341 -1.3431
10182SOL    HW232147   4.878   1.924   4.358  0.6584 -0.0852  0.0967
10183SOL     OW32148   3.153   1.535   1.691 -0.2327 -0.1973 -0.3871
10183SOL    HW132149   3.064   1.496   1.668 -1.0287  0.9253  0.6444
10183SOL    HW232150   3.153   1.561   1.788  0.2636  2.2833 -1.0001
10184SOL     OW32151   7.003   2.433   6.164  0.2417 -0.4586  0.3655
10184SOL    HW132152   7.053   2.513   6.132 -1.4431  0.7384  0.5562
10184SOL    HW232153   6.972   2.448   6.258 -1.0337 -0.8296  0.0291
10185SOL     OW32154   1.300   4.068   5.196  0.4761  0.4639 -0.3979
10185SOL    HW132155   1.261   4.042   5.284 -0.1150  0.6386 -0.6046
10185SOL    HW232156   1.371   4.003   5.170 -0.4005 -0.4689 -0.5133
10186SOL     OW32157   3.931   2.775   6.008  0.1630 -0.4345 -0.2836
10186SOL    HW132158   3.843   2.735   6.036  0.0051  1.0295  1.4968
10186SOL    HW232159   4.005   2.718   6.042 -0.0806 -0.6915 -0.1775
10187SOL     OW32160   1.187   1.172   6.089 -0.3201  0.2158 -0.1846
10187SOL    HW132161   1.225   1.235   6.156  0.7379  2.0528 -2.3711
10187SOL    HW232162   1.261   1.112   6.055 -0.7762 -0.4896  0.0477
10188SOL     OW32163   6.380   1.634   1.804  0.1138 -0.5667  0.1774
10188SOL    HW132164   6.479   1.624   1.794  0.4535 -1.2205  3.1234
10188SOL    HW232165   6.354   1.728   1.781  1.0527 -0.9011 -2.5282
10189SOL     OW32166   6.885   6.677   1.040 -0.2375 -0.5793 -0.1974
10189SOL    HW132167   6.828   6.734   1.100 -1.0941  0.3227 -1.7902
10189SOL    HW232168   6.971   6.656   1.086  0.2642  2.2918  0.3790
10190SOL     OW32169   4.179   5.297   1.707 -0.0620 -0.8755 -0.1688
10190SOL    HW132170   4.262   5.346   1.731 -0.6131 -1.2313  2.8827
10190SOL    HW232171   4.116   5.360   1.661  0.0834  0.7672  1.7192
10191SOL     OW32172   5.861   6.995   3.652 -0.4385 -0.5668  0.4339
10191SOL    HW132173   5.877   6.929   3.725  0.7849  0.0564  0.7519
10191SOL    HW232174   5.929   6.983   3.580 -0.9199 -0.4090 -0.0532
10192SOL     OW32175   4.273   4.665   0.278  0.0125  0.0752 -0.0065
10192SOL    HW132176   4.254   4.608   0.198 -2.5358 -1.9380  1.8825
10192SOL    HW232177   4.214   4.747   0.275  1.2850  0.9890 -1.0613
10193SOL     OW32178   4.442   3.469   1.506  0.2880  0.2793 -0.5730
10193SOL    HW132179   4.398   3.559   1.515  0.2096  0.2404 -0.5686
10193SOL    HW232180   4.483   3.444   1.594  0.4305  0.3737 -0.6132
10194SOL     OW32181   2.272   5.961   2.191  0.4339  0.0464 -0.0664
10194SOL    HW132182   2.266   5.988   2.287  1.2636  0.8251 -0.2206
10194SOL    HW232183   2.360   5.916   2.175  0.1688 -0.3607 -0.4046
10195SOL     OW32184   3.711   5.850   5.852 -0.0130 -0.0326  0.6034
10195SOL    HW132185   3.619   5.820   5.827 -0.1220  0.7927 -0.0568
10195SOL    HW232186   3.713   5.950   5.855  0.3716 -0.0581  2.5322
10196SOL     OW32187   6.799   6.603   3.498  0.0532 -0.1703  0.0777
10196SOL    HW132188   6.772   6.631   3.406  2.1313  1.6109 -0.0618
10196SOL    HW232189   6.859   6.672   3.538  1.4982 -2.2152  1.6731
10197SOL     OW32190   5.291   2.088   0.770  0.0939  0.3142 -0.1761
10197SOL    HW132191   5.249   2.110   0.858  0.3444 -0.2058  0.0821
10197SOL    HW232192   5.239   2.016   0.725 -1.2166  1.9689 -1.4096
10198SOL     OW32193   4.878   1.652   0.301 -0.2519 -0.4346  0.3941
10198SOL    HW132194   4.843   1.687   0.388  0.5249 -0.8297  0.8770
10198SOL    HW232195   4.974   1.679   0.291 -0.8902  1.5101 -1.3668
10199SOL     OW32196   3.516   2.270   6.946  0.0321 -0.1252 -0.3239
10199SOL    HW132197   3.540   2.365   6.927 -0.4484  0.2187  0.7220
10199SOL    HW232198   3.543   2.213   6.869 -0.3782  0.9687 -1.3034
10200SOL     OW32199   3.548   4.438   1.389 -0.0267  0.2375 -0.1382
10200SOL    HW132200   3.494   4.405   1.312  0.3833 -2.5489  0.6657
10200SOL    HW232201   3.638   4.468   1.356  0.8144 -2.5763 -0.6902
10201SOL     OW32202   5.864   2.381   4.533 -0.0526 -0.3155  0.3958
10201SOL    HW132203   5.787   2.320   4.515  0.0120  0.4140 -3.0051
10201SOL    HW232204   5.839   2.475   4.511  1.5347  0.0660  0.0621
10202SOL     OW32205   4.015   6.117   6.133  0.6097 -0.5839  0.2444
10202SOL    HW132206   4.010   6.058   6.053 -0.9857 -0.3938  0.1673
10202SOL    HW232207   4.079   6.192   6.116 -1.1870  0.6100 -1.6777
10203SOL     OW32208   2.514   2.210   0.142 -0.2423  0.1320  0.5984
10203SOL    HW132209   2.432   2.163   0.175 -0.6865  0.0587 -0.5526
10203SOL    HW232210   2.498   2.245   0.050  1.4143 -0.9319 -0.1497
10204SOL     OW32211   2.719   6.505   4.544  0.0946 -0.1131 -0.7742
10204SOL    HW132212   2.786   6.430   4.540  1.7471  1.1842  0.8422
10204SOL    HW232213   2.628   6.469   4.524  0.9240 -2.4134 -0.7616
10205SOL     OW32214   1.558   0.928   1.172  0.5443 -0.2383  0.0609
10205SOL    HW132215   1.601   0.924   1.262  0.4685 -2.8846  0.0563
10205SOL    HW232216   1.462   0.900   1.179  0.4338 -0.1035 -0.7768
10206SOL     OW32217   4.278   5.180   6.627  0.0194 -0.0581  0.0670
10206SOL    HW132218   4.323   5.126   6.698  0.2817  1.1935  0.8713
10206SOL    HW232219   4.337   5.256   6.600 -0.4836  0.0382 -0.8188
10207SOL     OW32220   5.011   2.047   0.302  0.0596  0.0562 -0.0120
10207SOL    HW132221   5.027   1.949   0.319  2.0657  0.1744 -0.9725
10207SOL    HW232222   5.000   2.062   0.204 -0.6992  0.7520  0.1724
10208SOL     OW32223   4.448   5.063   6.804 -0.0156 -0.0902 -1.1304
10208SOL    HW132224   4.535   5.054   6.755  0.1651  2.5229 -1.4069
10208SOL    HW232225   4.461   5.037   6.899  1.1354  0.4353 -1.1238
10209SOL     OW32226   6.829   1.468   5.457  0.0647 -0.3011  0.0192
10209SOL    HW132227   6.752   1.493   5.398  0.6012 -2.5554 -1.8108
10209SOL    HW232228   6.854   1.545   5.515 -0.1843  2.3396 -3.1100
10210SOL     OW32229   6.705   1.771   0.762 -0.8345  0.3746  0.1126
10210SOL    HW132230   6.782   1.723   0.720 -0.1831  2.5364 -1.3958
10210SOL    HW232231   6.740   1.836   0.830 -1.3578  0.9819 -0.1854
10211SOL     OW32232   0.783   1.946   0.300 -0.4746  0.5260 -0.1219
10211SOL    HW132233   0.769   1.926   0.203 -0.9057 -0.5654  0.1595
10211SOL    HW232234   0.696   1.969   0.342 -0.1715  1.8439 -0.1549
10212SOL     OW32235   1.330   5.418   2.206  0.0254  0.1843  0.6058
10212SOL    HW132236   1.297   5.479   2.134 -1.6121 -1.1840  0.1396
10212SOL    HW232237   1.375   5.339   2.165 -0.4725 -0.3596  1.0896
10213SOL     OW32238   3.063   4.138   6.255  0.4953 -0.1248  0.0244
10213SOL    HW132239   3.145   4.102   6.301 -2.3048 -3.7655  2.7890
10213SOL    HW232240   3.047   4.087   6.171  1.2370  0.9049 -0.7621
10214SOL     OW32241   2.029   1.756   4.410 -0.2144 -0.2120  0.5987
10214SOL    HW132242   1.979   1.841   4.425 -1.5884 -0.6221 -1.2623
10214SOL    HW232243   1.971   1.692   4.359  2.3136 -0.5559 -2.1678
10215SOL     OW32244   6.662   1.533   4.500  0.4389  0.2031  0.0801
10215SOL    HW132245   6.757   1.514   4.525  0.6152  1.3506  0.3489
10215SOL    HW232246   6.612   1.447   4.493  1.5120 -0.4272 -0.1391
10216SOL     OW32247   6.517   2.085   2.463 -0.0330  0.1660 -0.3121
10216SOL    HW132248   6.537   2.096   2.366  0.0475  2.7213 -0.0666
10216SOL    HW232249   6.579   2.143   2.517 -2.4966  1.7705  0.9882
10217SOL     OW32250   0.854   2.214   5.445  0.4301 -0.0707 -0.2201
10217SOL    HW132251   0.914   2.225   5.524  1.2730  0.2377 -0.8869
10217SOL    HW232252   0.870   2.123   5.404 -0.0711 -0.2670  0.0184
10218SOL     OW32253   5.884   4.622   5.783  0.2705 -0.0525 -0.4496
10218SOL    HW132254   5.914   4.622   5.688 -1.2640 -0.8052 -0.9688
10218SOL    HW232255   5.863   4.529   5.812 -1.1117  0.3605 -0.0058
10219SOL     OW32256   4.972   5.303   6.293  0.6544 -0.2545  0.4947
10219SOL    HW132257   5.042   5.242   6.256  0.3639 -0.5342  0.4094
10219SOL    HW232258   4.966   5.385   6.236  2.3489  0.7343  1.6395
10220SOL     OW32259   4.461   6.295   5.224  0.4318  0.0126 -0.0682
10220SOL    HW132260   4.523   6.222   5.253 -0.1227 -0.4617 -0.0787
10220SOL    HW232261   4.442   6.355   5.302 -0.0919 -0.5643  0.2483
10221SOL     OW32262   1.488   2.688   5.801  0.0240 -0.4284 -0.0143
10221SOL    HW132263   1.411   2.720   5.746  1.1751  2.1626 -0.2570
10221SOL    HW232264   1.559   2.652   5.740  0.5187  0.6854 -0.1192
10222SOL     OW32265   1.565   2.186   4.499  0.4412 -0.2057  0.1786
10222SOL    HW132266   1.654   2.231   4.487  1.1431 -1.6878 -0.4913
10222SOL    HW232267   1.575   2.109   4.563 -0.3851 -0.3318  0.1674
10223SOL     OW32268   6.100   6.960   0.862 -0.0483  0.6703 -0.5765
10223SOL    HW132269   6.167   7.035   0.863 -1.1544  1.6742 -0.3607
10223SOL    HW232270   6.016   6.990   0.907 -0.2336 -0.9815  0.2418
10224SOL     OW32271   0.507   4.815   3.246  0.2993  0.1749  0.3228
10224SOL    HW132272   0.557   4.751   3.305 -0.2053  0.3531  0.9574
10224SOL    HW232273   0.562   4.837   3.167  0.9507 -0.1567  0.6746
10225SOL     OW32274   4.815   4.030   5.436  0.1736 -0.0362  0.4957
10225SOL    HW132275   4.898   3.984   5.402 -1.9981 -3.7735 -0.3796
10225SOL    HW232276   4.825   4.048   5.534  2.6838  1.5000  0.0505
10226SOL     OW32277   0.035   3.456   2.626  0.2656  0.3109 -0.0992
10226SOL    HW132278  -0.000   3.542   2.661 -0.3656 -0.0727  0.2335
10226SOL    HW232279   0.011   3.446   2.530 -0.6923 -0.0087  0.1571
10227SOL     OW32280   1.007   5.312   2.784  0.2451  0.1266  0.1166
10227SOL    HW132281   1.070   5.379   2.746  1.3769 -1.5462 -1.1345
10227SOL    HW232282   0.941   5.285   2.714 -0.6151  0.4143  0.8110
10228SOL     OW32283   5.146   1.691   4.690 -0.4817  0.4132 -0.2690
10228SOL    HW132284   5.111   1.599   4.672 -1.2311  0.7527 -0.5655
10228SOL    HW232285   5.210   1.687   4.767 -0.4938 -0.3569 -0.2850
10229SOL     OW32286   6.837   2.753   3.970 -0.2019 -0.4276  0.3310
10229SOL    HW132287   6.772   2.677   3.972  0.7288 -1.2702 -0.4913
10229SOL    HW232288   6.787   2.839   3.966 -1.2872 -1.0669 -0.5489
10230SOL     OW32289   5.829   6.462   0.478 -0.4175 -0.0372 -0.1241
10230SOL    HW132290   5.837   6.484   0.380 -1.2102 -1.1794 -0.4597
10230SOL    HW232291   5.920   6.452   0.517 -0.0614  1.6705 -0.4376
10231SOL     OW32292   5.782   0.315   6.356  0.5901 -0.2300 -0.2644
10231SOL    HW132293   5.811   0.386   6.421 -0.3632  1.9561 -2.0701
10231SOL    HW232294   5.719   0.252   6.401  0.2931  0.9419  1.0447
10232SOL     OW32295   5.245   3.327   1.290 -0.4814 -0.6576  0.4230
10232SOL    HW132296   5.323   3.385   1.312 -0.7812 -0.3239  0.6189
10232SOL    HW232297   5.234   3.322   1.191  0.3654 -1.4838  0.3558
10233SOL     OW32298   6.108   5.283   5.381  0.5356 -0.4886 -0.2567
10233SOL    HW132299   6.181   5.346   5.353 -0.2041  0.5312  0.0719
10233SOL    HW232300   6.074   5.235   5.300 -0.7076  1.5067 -1.0101
10234SOL     OW32301   6.054   2.225   0.892  0.7510  0.0606 -0.4247
10234SOL    HW132302   5.977   2.163   0.878  0.7729 -0.2182  0.6275
10234SOL    HW232303   6.134   2.190   0.844  0.6213 -0.4508 -0.2706
10235SOL     OW32304   1.076   4.277   5.817  0.0191 -0.5509 -0.5304
10235SOL    HW132305   1.158   4.252   5.870 -1.3204  0.8729  2.4688
10235SOL    HW232306   1.074   4.376   5.804 -1.0131 -0.6107 -0.9051
10236SOL     OW32307   3.263   3.906   0.065  0.0649  0.1031 -0.5503
10236SOL    HW132308   3.309   3.919   0.152 -0.6512  0.3779 -0.2037
10236SOL    HW232309   3.272   3.989   0.009 -0.3899  0.3292 -0.2957
10237SOL     OW32310   1.152   1.869   2.394  0.2963 -0.2032 -0.5384
10237SOL    HW132311   1.092   1.802   2.437  2.0706 -0.0123  2.5541
10237SOL    HW232312   1.184   1.834   2.306 -1.1316 -2.0465 -0.3835
10238SOL     OW32313   5.631   3.649   3.286 -0.1929  1.0605 -0.0398
10238SOL    HW132314   5.542   3.606   3.299  0.3541  0.0744  0.5675
10238SOL    HW232315   5.631   3.702   3.201 -2.2523  3.4198  1.3108
10239SOL     OW32316   1.236   4.594   3.273 -0.3333  0.5550  0.1073
10239SOL    HW132317   1.211   4.626   3.364  0.8594  0.7448  0.3930
10239SOL    HW232318   1.325   4.633   3.248 -0.2897 -0.1098 -0.8078
10240SOL     OW32319   4.772   3.006   6.262 -0.0241  0.4068 -0.0127
10240SOL    HW132320   4.709   3.048   6.328 -1.0386 -1.2153  0.1062
10240SOL    HW232321   4.816   2.927   6.305 -1.6510 -1.4605 -1.6000
10241SOL     OW32322   4.657   5.723   4.192  0.0478  0.2649 -0.2965
10241SOL    HW132323   4.671   5.822   4.204  0.1617  0.0129  2.1831
10241SOL    HW232324   4.742   5.682   4.158  0.6798  0.7589  0.6332
10242SOL     OW32325   2.802   3.048   5.506  0.0253  0.1659 -0.3184
10242SOL    HW132326   2.746   3.037   5.588  0.0439  0.7051 -0.2265
10242SOL    HW232327   2.899   3.047   5.531  0.0671 -0.8218 -0.4852
10243SOL     OW32328   6.461   0.969   6.400 -0.1657 -0.2977 -0.3304
10243SOL    HW132329   6.491   0.895   6.460 -0.2574 -0.6465 -0.7069
10243SOL    HW232330   6.520   0.973   6.320  1.9892  2.2504  1.2592
10244SOL     OW32331   5.334   4.463   3.366  0.0477  0.2269 -0.5543
10244SOL    HW132332   5.407   4.423   3.422 -0.3432 -1.2217 -1.0574
10244SOL    HW232333   5.336   4.563   3.377  0.7796  0.0719  1.0425
10245SOL     OW32334   6.889   3.167   2.389  0.2614  0.1501  0.2931
10245SOL    HW132335   6.949   3.240   2.422 -0.1274  1.3326 -1.4822
10245SOL    HW232336   6.848   3.194   2.303 -0.1288 -2.0739 -0.2887
10246SOL     OW32337   0.906   3.897   4.354 -0.0213 -0.6825  0.0010
10246SOL    HW132338   0.880   3.939   4.441  2.9667 -1.1514  1.2436
10246SOL    HW232339   0.979   3.831   4.369 -0.5638 -2.0492 -2.6905
10247SOL     OW32340   3.633   6.418   4.082  0.2841  0.0247  0.0395
10247SOL    HW132341   3.534   6.410   4.069  0.7057 -2.1204 -2.6564
10247SOL    HW232342   3.668   6.333   4.122  0.7610  1.9082  4.1043
10248SOL     OW32343   4.828   5.209   0.285  0.0508 -0.0958 -0.1028
10248SOL    HW132344   4.919   5.250   0.285 -0.0175  0.0628 -0.7015
10248SOL    HW232345   4.834   5.113   0.259  0.1158 -0.2573  0.4888
10249SOL     OW32346   0.825   5.272   5.623  0.2369  0.2722  0.1709
10249SOL    HW132347   0.910   5.294   5.577  1.1266 -1.3074  0.9429
10249SOL    HW232348   0.797   5.179   5.599 -1.2718  0.7536 -0.0488
10250SOL     OW32349   2.455   0.817   6.027  0.3414 -0.4382 -0.1748
10250SOL    HW132350   2.454   0.753   6.104 -1.4517 -0.1429  0.0983
10250SOL    HW232351   2.504   0.777   5.950  1.6620 -0.9797  0.9246
10251SOL     OW32352   0.479   4.051   0.029 -0.5113  0.1441 -0.2032
10251SOL    HW132353   0.425   4.097  -0.042 -1.8660  0.5007  1.0013
10251SOL    HW232354   0.500   3.957  -0.001 -0.3957  0.5280 -1.3756
10252SOL     OW32355   0.028   0.023   4.280 -0.4141 -0.0221 -0.0168
10252SOL    HW132356   0.095  -0.037   4.325  0.0860 -0.1751 -0.9415
10252SOL    HW232357  -0.007   0.089   4.346  0.1087 -0.4085  0.6619
10253SOL     OW32358   5.587   4.867   1.332  0.1445 -0.1824  0.3030
10253SOL    HW132359   5.636   4.782   1.354  2.0307  0.1939 -2.1113
10253SOL    HW232360   5.572   4.919   1.416  0.9556 -1.8595  1.5463
10254SOL     OW32361   2.333   1.727   0.013 -0.6392 -0.2269 -0.0525
10254SOL    HW132362   2.403   1.797  -0.002  0.0429 -0.6514  0.9572
10254SOL    HW232363   2.243   1.763  -0.010 -0.0655  0.2407 -1.6562
10255SOL     OW32364   1.690   4.246   1.727  0.7031 -0.5158 -0.1710
10255SOL    HW132365   1.786   4.240   1.701  0.9330  0.7986  0.3218
10255SOL    HW232366   1.634   4.195   1.661  1.7475 -1.5726 -0.2740
10256SOL     OW32367   3.643   5.407   0.086 -0.7058 -0.4966 -0.0176
10256SOL    HW132368   3.630   5.350   0.005 -0.6774 -0.6677  0.0990
10256SOL    HW232369   3.594   5.493   0.073  2.2298  1.0777 -1.7966
10257SOL     OW32370   1.438   3.355   3.674 -0.2019  0.1387 -0.1729
10257SOL    HW132371   1.503   3.397   3.737 -1.8105  1.8955  0.4059
10257SOL    HW232372   1.456   3.388   3.581 -0.4117  0.8706  0.0329
10258SOL     OW32373   0.461   0.296   6.121 -0.0793  0.6630  0.0864
10258SOL    HW132374   0.370   0.257   6.134  0.1605 -0.6205 -1.7218
10258SOL    HW232375   0.489   0.284   6.026  2.5749 -0.3252  0.8907
10259SOL     OW32376   4.753   5.906   0.684 -0.2240  0.1226 -0.0167
10259SOL    HW132377   4.700   5.827   0.715 -1.1186 -0.1310 -2.0113
10259SOL    HW232378   4.694   5.967   0.632  1.0368  0.7812 -0.7157
10260SOL     OW32379   5.927   5.084   1.224  0.0010 -0.8841 -0.4103
10260SOL    HW132380   6.019   5.053   1.201 -0.0586 -0.7103 -0.8737
10260SOL    HW232381   5.863   5.057   1.152 -0.3225 -1.0524 -0.0673
10261SOL     OW32382   5.357   0.360   3.545  0.0051 -0.3305 -0.3778
10261SOL    HW132383   5.410   0.378   3.461 -1.8439 -0.6629 -1.6791
10261SOL    HW232384   5.287   0.431   3.556 -0.6527 -1.0428  0.1230
10262SOL     OW32385   5.056   6.043   0.928  0.1570  0.9188 -0.2621
10262SOL    HW132386   5.034   6.134   0.893 -2.0512  0.0409 -1.3605
10262SOL    HW232387   5.028   5.974   0.861 -0.5890 -0.6732  1.6133
10263SOL     OW32388   4.468   6.641   0.256 -0.3083 -0.3556  0.4829
10263SOL    HW132389   4.564   6.641   0.283  0.3733 -1.5687 -1.6322
10263SOL    HW232390   4.460   6.603   0.163 -2.5037  2.4008 -0.5868
10264SOL     OW32391   1.282   3.395   0.286  0.4308 -0.0189 -0.6226
10264SOL    HW132392   1.313   3.328   0.354 -1.6317  0.8612  1.3379
10264SOL    HW232393   1.335   3.479   0.295  0.4553 -0.0583 -0.3937
10265SOL     OW32394   6.650   6.520   1.987 -0.6638  0.1592 -0.5260
10265SOL    HW132395   6.749   6.517   2.000 -0.7652  1.3593  0.7454
10265SOL    HW232396   6.628   6.498   1.892  0.7196 -1.3246 -0.5382
10266SOL     OW32397   6.161   4.279   5.452 -0.5899 -0.5871  0.4453
10266SOL    HW132398   6.203   4.275   5.543  2.0289 -0.8646 -0.6586
10266SOL    HW232399   6.171   4.190   5.407  1.3491  0.4306 -1.3308
10267SOL     OW32400   0.782   5.529   2.544 -0.4928  0.1354 -0.1692
10267SOL    HW132401   0.795   5.528   2.445 -1.4701  1.0239 -0.3326
10267SOL    HW232402   0.704   5.472   2.568 -0.7264  0.5138 -0.0077
10268SOL     OW32403   6.685   0.381   1.446  0.1037 -0.4436 -0.6949
10268SOL    HW132404   6.698   0.404   1.349  1.0177  0.3144 -0.3986
10268SOL    HW232405   6.593   0.408   1.474  0.5747  1.3838 -0.7868
10269SOL     OW32406   3.876   0.047   5.658 -0.2661  0.3048  0.1260
10269SOL    HW132407   3.802   0.096   5.613 -0.8188 -1.8139 -1.4122
10269SOL    HW232408   3.845   0.012   5.746 -1.1407 -0.5815 -0.5153
10270SOL     OW32409   1.070   2.245   6.182 -0.3172  0.4818 -0.2131
10270SOL    HW132410   1.008   2.183   6.133 -0.2900  0.8905 -0.7633
10270SOL    HW232411   1.037   2.339   6.174 -1.4027  0.3957  2.1669
10271SOL     OW32412   1.825   2.133   5.166  0.5283 -0.1095  0.4787
10271SOL    HW132413   1.890   2.065   5.132  0.2153 -0.7429  1.1132
10271SOL    HW232414   1.734   2.112   5.133  0.5537  0.4413  0.0636
10272SOL     OW32415   0.883   4.066   1.597 -0.2265 -0.6479 -0.0440
10272SOL    HW132416   0.930   4.107   1.674 -0.4062  0.9178 -0.7406
10272SOL    HW232417   0.791   4.037   1.625  0.0776 -1.0376  0.5707
10273SOL     OW32418   0.723   5.909   2.930 -0.6533 -0.0145 -0.4130
10273SOL    HW132419   0.656   5.907   2.856 -0.8522 -0.4319 -0.2277
10273SOL    HW232420   0.745   5.815   2.957  0.3610  0.1046 -0.7839
10274SOL     OW32421   5.050   5.834   0.057  0.3585  0.2897 -0.1934
10274SOL    HW132422   5.088   5.916   0.099 -1.2884  1.2716 -0.5123
10274SOL    HW232423   5.003   5.779   0.126 -0.6083  0.8722 -0.3664
10275SOL     OW32424   3.867   2.843   0.255 -0.1913  0.2349 -0.0674
10275SOL    HW132425   3.890   2.918   0.193  0.5738  0.6557  0.6990
10275SOL    HW232426   3.773   2.813   0.239 -0.2587  0.8528 -0.8840
10276SOL     OW32427   4.153   0.040   5.716 -0.5706  0.5228 -0.1869
10276SOL    HW132428   4.060   0.075   5.703 -0.2587  0.7626 -1.9729
10276SOL    HW232429   4.160  -0.053   5.678 -0.0659  0.5323 -0.1276
10277SOL     OW32430   2.353   5.619   0.724  0.1112 -0.5635  0.1688
10277SOL    HW132431   2.376   5.713   0.697  0.4816 -0.4543  0.8338
10277SOL    HW232432   2.437   5.565   0.731 -0.1215 -1.0164 -0.4536
10278SOL     OW32433   4.621   6.754   5.851 -1.0214  0.1326  0.0201
10278SOL    HW132434   4.635   6.783   5.756  2.2975  2.6331  1.0775
10278SOL    HW232435   4.618   6.834   5.911  1.2016 -1.3983  2.4071
10279SOL     OW32436   4.209   3.034   3.115  0.0461 -0.1839 -0.2003
10279SOL    HW132437   4.117   3.061   3.140 -0.2419 -1.1914 -0.1345
10279SOL    HW232438   4.224   3.051   3.018 -1.2609 -2.7665 -0.9239
10280SOL     OW32439   1.210   1.413   4.832 -0.4232 -0.2606 -0.3361
10280SOL    HW132440   1.196   1.314   4.830 -0.2734 -0.2759 -0.6975
10280SOL    HW232441   1.124   1.459   4.854 -0.8169 -0.4047 -1.5024
10281SOL     OW32442   0.751   1.012   2.773 -0.3401  0.3486 -0.0763
10281SOL    HW132443   0.782   1.059   2.856  0.4901  0.1117 -0.2419
10281SOL    HW232444   0.713   0.923   2.799  1.1598 -0.3128 -0.0469
10282SOL     OW32445   1.195   2.362   3.713  0.0474 -0.2304  0.1064
10282SOL    HW132446   1.280   2.324   3.676 -0.1046 -1.0301  0.5543
10282SOL    HW232447   1.198   2.362   3.813 -0.7096 -0.8489  0.1438
10283SOL     OW32448   5.553   3.787   4.805  0.0725 -0.1338  0.0804
10283SOL    HW132449   5.479   3.720   4.813  1.5830 -1.6901  3.4229
10283SOL    HW232450   5.517   3.879   4.823 -1.2533 -0.6789  0.3185
10284SOL     OW32451   0.104   1.892   3.578 -0.3067 -0.3690 -0.1015
10284SOL    HW132452   0.020   1.865   3.624 -0.5659  1.1037  0.3448
10284SOL    HW232453   0.085   1.912   3.481 -0.8213  1.4266  0.3335
10285SOL     OW32454   3.340   5.814   2.697  0.1657  0.4961  0.2195
10285SOL    HW132455   3.291   5.727   2.698 -0.6023  0.9240  0.1005
10285SOL    HW232456   3.438   5.796   2.685 -0.2686 -0.2797 -4.1434
10286SOL     OW32457   0.648   6.040   2.230 -0.4591 -0.0911  0.4526
10286SOL    HW132458   0.602   6.058   2.318  1.6655  1.6999  1.2736
10286SOL    HW232459   0.651   6.124   2.177 -0.4552 -0.8356 -0.7491
10287SOL     OW32460   6.257   3.102   5.352 -0.1320 -0.2371 -0.1007
10287SOL    HW132461   6.224   3.052   5.433 -1.5590  0.8980  0.0733
10287SOL    HW232462   6.323   3.171   5.380 -0.5481  0.0867  0.0880
10288SOL     OW32463   2.066   0.604   4.463  0.3319 -0.5382 -1.0296
10288SOL    HW132464   1.993   0.607   4.531  0.8568  1.2078 -0.5004
10288SOL    HW232465   2.120   0.521   4.476 -0.1173 -0.6685  0.0948
10289SOL     OW32466   2.033   4.289   6.349  0.8744 -0.6044 -0.2082
10289SOL    HW132467   2.073   4.375   6.380  1.4315 -1.2670  0.9943
10289SOL    HW232468   1.956   4.265   6.407  1.8797 -1.8280  0.6815
10290SOL     OW32469   0.694   2.540   1.572 -0.0553 -0.4604  0.4226
10290SOL    HW132470   0.661   2.471   1.507 -1.6911 -0.2711  1.0234
10290SOL    HW232471   0.781   2.577   1.539 -1.2355  0.2559 -2.1275
10291SOL     OW32472   1.350   4.453   4.909 -0.3153  0.2841 -0.0310
10291SOL    HW132473   1.407   4.426   4.832 -0.4833  0.5525 -0.2549
10291SOL    HW232474   1.403   4.450   4.993  0.0728  0.6800 -0.2561
10292SOL     OW32475   4.360   1.843   2.920  0.0759 -0.0614  0.1452
10292SOL    HW132476   4.433   1.814   2.981  2.2084 -1.9640 -2.9984
10292SOL    HW232477   4.392   1.918   2.863 -1.4993  1.0090  0.5953
10293SOL     OW32478   6.619   4.501   3.577  0.4067 -0.4039  0.6074
10293SOL    HW132479   6.561   4.428   3.540 -2.3075  1.9667 -0.1796
10293SOL    HW232480   6.666   4.547   3.502  0.7245 -0.2303  0.9118
10294SOL     OW32481   1.524   5.991   3.056 -0.6230 -0.5616  0.1686
10294SOL    HW132482   1.571   6.067   3.012  2.3091 -1.3276  1.7046
10294SOL    HW232483   1.479   5.935   2.986  1.6148 -0.3079 -1.6060
10295SOL     OW32484   3.574   5.873   6.610 -1.0361  0.4435  0.0346
10295SOL    HW132485   3.664   5.896   6.573 -0.9854  0.2750  0.0502
10295SOL    HW232486   3.536   5.952   6.656 -1.0090  0.5925 -0.1994
10296SOL     OW32487   2.815   5.826   0.579  0.2726 -0.8461 -0.1848
10296SOL    HW132488   2.790   5.867   0.491 -1.8332  1.9194  1.5674
10296SOL    HW232489   2.767   5.739   0.589  0.1156 -0.9372 -1.5277
10297SOL     OW32490   4.649   6.104   2.835  0.3197  0.1786 -0.0494
10297SOL    HW132491   4.741   6.095   2.798  0.8557  1.1310  1.0087
10297SOL    HW232492   4.646   6.178   2.902 -0.7888 -1.0151  1.2924
10298SOL     OW32493   2.480   1.558   4.516  0.0799  0.3025 -0.5867
10298SOL    HW132494   2.474   1.654   4.542 -0.3328  0.4728 -1.2898
10298SOL    HW232495   2.472   1.549   4.417 -1.1710 -0.5553 -0.4362
10299SOL     OW32496   5.750   2.427   5.872 -0.4868  0.3035 -0.1351
10299SOL    HW132497   5.771   2.517   5.834  1.2256  0.0575  0.1508
10299SOL    HW232498   5.761   2.358   5.801  1.3558 -0.0001  0.3882
10300SOL     OW32499   2.729   4.103   3.667  0.3039 -0.5984  0.1390
10300SOL    HW132500   2.829   4.109   3.658  0.2247 -0.9803 -1.1883
10300SOL    HW232501   2.691   4.195   3.679  0.8013 -0.4353  0.4914
10301SOL     OW32502   6.974   1.741   1.100  0.4561  0.0214  0.6394
10301SOL    HW132503   6.919   1.748   1.017  0.7395 -0.8286  0.3677
10301SOL    HW232504   6.983   1.832   1.142  1.0221  0.6294 -0.7255
10302SOL     OW32505   5.484   3.178   6.813  0.1344  0.2654  0.1898
10302SOL    HW132506   5.577   3.215   6.815 -0.2255  1.1908  0.5741
10302SOL    HW232507   5.426   3.239   6.758 -0.0080 -0.9132 -1.0131
10303SOL     OW32508   1.486   6.406   0.203  0.6123 -0.4885 -0.6755
10303SOL    HW132509   1.557   6.467   0.239  0.1129 -0.0772 -0.3740
10303SOL    HW232510   1.396   6.447   0.218  0.0841 -2.3168  1.5760
10304SOL     OW32511   6.258   5.719   1.552  0.5416 -0.3442 -0.4620
10304SOL    HW132512   6.304   5.748   1.468  0.5552  1.1312  0.0137
10304SOL    HW232513   6.314   5.744   1.631 -0.5132  0.4110  0.0768
10305SOL     OW32514   2.492   6.588   0.462 -0.6834  0.5439  0.1658
10305SOL    HW132515   2.485   6.685   0.487  1.2201  0.4360  1.3422
10305SOL    HW232516   2.589   6.562   0.458 -1.1119 -0.9884 -1.5196
10306SOL     OW32517   0.850   3.955   6.548  0.7749 -0.1967 -0.4781
10306SOL    HW132518   0.800   3.945   6.633 -1.7220 -0.5366 -1.9019
10306SOL    HW232519   0.885   4.048   6.541  1.7924 -0.3993  1.2557
10307SOL     OW32520   5.437   1.078   4.814 -0.6086  0.0977  0.2639
10307SOL    HW132521   5.523   1.075   4.764 -0.3121 -1.2529  0.8178
10307SOL    HW232522   5.399   1.171   4.809 -0.6599  0.0386 -2.5372
10308SOL     OW32523   5.523   1.331   5.130 -0.1532  0.5533 -0.0686
10308SOL    HW132524   5.563   1.333   5.221 -1.7013 -1.8529  0.7325
10308SOL    HW232525   5.566   1.260   5.075 -0.8602  0.3745 -0.4084
10309SOL     OW32526   0.689   2.781   2.518 -0.0725  0.2031 -0.0097
10309SOL    HW132527   0.646   2.774   2.428 -0.7625 -0.8962  0.3855
10309SOL    HW232528   0.735   2.695   2.540 -0.4647  0.2251  0.9566
10310SOL     OW32529   1.793   3.968   5.641  0.3160  0.6134 -0.1393
10310SOL    HW132530   1.713   3.921   5.678  1.7157 -0.0079  2.3359
10310SOL    HW232531   1.852   3.902   5.596  0.5254  0.6470  0.0836
10311SOL     OW32532   3.170   5.943   4.907  0.3133 -0.3562 -0.1131
10311SOL    HW132533   3.215   5.955   4.818 -2.2834 -0.6796 -1.5938
10311SOL    HW232534   3.114   5.860   4.904 -0.0043 -0.2502  1.7827
10312SOL     OW32535   2.111   3.726   6.497 -0.2677  0.1774  0.0513
10312SOL    HW132536   2.153   3.811   6.464 -0.7679  0.4131  0.0106
10312SOL    HW232537   2.177   3.652   6.490  0.6159  0.8028  1.2743
10313SOL     OW32538   2.242   2.909   0.855 -1.2287  0.0946  0.4047
10313SOL    HW132539   2.301   2.968   0.799 -3.0837  0.6033 -1.1098
10313SOL    HW232540   2.196   2.963   0.925 -0.4288 -0.1956  1.1815
10314SOL     OW32541   5.533   5.662   2.091 -0.0714  0.3663  0.3494
10314SOL    HW132542   5.564   5.650   1.997 -0.8048 -0.3144  0.1926
10314SOL    HW232543   5.435   5.684   2.092 -0.2961 -0.6257  1.0018
10315SOL     OW32544   0.955   3.566   3.276  0.3793 -0.2521 -0.5460
10315SOL    HW132545   0.878   3.502   3.272 -0.3649  0.6322 -0.7312
10315SOL    HW232546   0.920   3.658   3.292  1.4796  0.0180  0.4285
10316SOL     OW32547   5.436   3.622   6.389 -0.1628  0.7444  0.1709
10316SOL    HW132548   5.510   3.670   6.435 -0.0999  0.1807  0.6734
10316SOL    HW232549   5.423   3.532   6.431 -0.1415  0.2339 -0.8738
10317SOL     OW32550   4.111   4.883   0.195 -0.4841  0.1226 -0.3502
10317SOL    HW132551   4.028   4.892   0.250 -1.1786 -0.9545 -1.1719
10317SOL    HW232552   4.088   4.899   0.098  0.2518 -0.2587 -0.5926
10318SOL     OW32553   4.941   5.748   4.985  0.8817 -0.1018 -0.4293
10318SOL    HW132554   4.895   5.660   4.994  2.6438 -1.0559 -0.3443
10318SOL    HW232555   4.952   5.770   4.888 -0.0151  0.2798 -0.4476
10319SOL     OW32556   4.464   6.152   1.843 -0.2953 -0.2048  0.1551
10319SOL    HW132557   4.494   6.193   1.929 -0.7643 -0.0146  0.2319
10319SOL    HW232558   4.457   6.223   1.773 -1.0884 -0.1528  0.2826
10320SOL     OW32559   2.280   6.738   5.539 -0.0838  0.6039  0.3699
10320SOL    HW132560   2.204   6.780   5.489 -0.4404 -0.6423 -0.2062
10320SOL    HW232561   2.359   6.798   5.538 -1.2120  2.1929  1.4653
10321SOL     OW32562   0.594   1.785   3.584 -0.1192  0.0567 -0.4421
10321SOL    HW132563   0.566   1.753   3.675  0.6243  0.7569  0.0496
10321SOL    HW232564   0.556   1.725   3.515 -1.0665 -0.2366  0.3110
10322SOL     OW32565   5.905   4.191   5.567 -0.1815 -0.4327 -0.3119
10322SOL    HW132566   5.842   4.202   5.490 -0.9341  0.3244  0.3966
10322SOL    HW232567   5.970   4.266   5.569 -1.1707  0.4378  0.6927
10323SOL     OW32568   4.914   4.251   1.467  0.7634  0.0480 -0.1406
10323SOL    HW132569   4.995   4.300   1.436  1.2856 -0.1293  0.9178
10323SOL    HW232570   4.933   4.153   1.472  1.6050  0.2475  3.2120
10324SOL     OW32571   1.145   6.462   2.267  0.0053  0.3700 -0.1630
10324SOL    HW132572   1.188   6.490   2.353  1.4183  0.0744 -0.7483
10324SOL    HW232573   1.111   6.368   2.276 -1.5380  0.9738  0.6486
10325SOL     OW32574   4.210   6.818   3.301 -0.7031  0.2649 -0.0708
10325SOL    HW132575   4.290   6.833   3.360 -0.8365 -0.0935  0.2027
10325SOL    HW232576   4.241   6.800   3.208 -0.4445 -0.2427  0.1086
10326SOL     OW32577   4.716   2.901   3.810  0.1812  0.5258  0.1060
10326SOL    HW132578   4.635   2.927   3.864  1.8370  0.6785  2.6812
10326SOL    HW232579   4.687   2.872   3.719 -2.6682  1.5202  0.5916
10327SOL     OW32580   0.673   5.948   5.231  0.0141 -0.1589  0.1218
10327SOL    HW132581   0.656   5.915   5.324 -0.0514  1.7688  0.8404
10327SOL    HW232582   0.586   5.973   5.189  0.1373 -0.1131 -0.1055
10328SOL     OW32583   6.082   0.948   1.501  0.1255 -0.5210  0.3264
10328SOL    HW132584   6.073   0.850   1.482  1.5255 -0.8514  1.2063
10328SOL    HW232585   6.012   0.998   1.451  0.2983 -1.8198 -1.3087
10329SOL     OW32586   3.088   0.326   3.409 -0.0371 -0.1485  0.4142
10329SOL    HW132587   3.169   0.383   3.394  0.3160 -0.9008 -0.7202
10329SOL    HW232588   3.097   0.278   3.496 -0.5581  1.8308  1.6131
10330SOL     OW32589   3.730   4.555   5.451 -0.1256  0.0862 -0.1673
10330SOL    HW132590   3.733   4.456   5.436 -1.6988 -0.3128  1.7880
10330SOL    HW232591   3.642   4.591   5.420 -0.4739  0.4589  1.1803
10331SOL     OW32592   3.144   3.911   0.748 -0.0475 -0.6352 -0.0175
10331SOL    HW132593   3.074   3.981   0.755  0.0513 -0.4402 -0.8037
10331SOL    HW232594   3.181   3.890   0.838  1.6150  2.0447  0.0266
10332SOL     OW32595   5.061   2.925   0.629 -0.1447  0.3272  0.2999
10332SOL    HW132596   5.092   2.925   0.724  0.4994  0.9423  0.0978
10332SOL    HW232597   5.138   2.949   0.570 -0.4770 -0.2988 -0.4019
10333SOL     OW32598   5.469   5.091   2.167  0.2584 -0.0367  0.4281
10333SOL    HW132599   5.498   5.187   2.174 -1.3739  0.4452  1.1007
10333SOL    HW232600   5.376   5.082   2.201 -0.2288 -1.5884 -1.1880
10334SOL     OW32601   5.307   4.723   4.039 -0.7865  0.1944 -0.3608
10334SOL    HW132602   5.325   4.819   4.058 -1.1907  0.4138 -1.0307
10334SOL    HW232603   5.220   4.696   4.082  0.7753 -0.7365  2.4756
10335SOL     OW32604   6.101   3.674   6.523  0.0368  0.8635 -0.2934
10335SOL    HW132605   6.094   3.759   6.470 -1.3241  0.2545 -1.1349
10335SOL    HW232606   6.186   3.627   6.500 -0.7575  0.3554 -2.3753
10336SOL     OW32607   2.270   4.417   6.000 -0.0870 -0.1387 -0.1061
10336SOL    HW132608   2.343   4.431   6.066 -1.5666 -0.7817  1.7603
10336SOL    HW232609   2.205   4.349   6.035 -2.2965  1.3584 -1.0578
10337SOL     OW32610   5.401   0.828   0.482 -0.1085 -0.3096  0.0224
10337SOL    HW132611   5.320   0.769   0.480  1.7092 -2.9746 -0.0328
10337SOL    HW232612   5.432   0.845   0.389  0.1487 -0.4091  0.0896
10338SOL     OW32613   2.923   5.193   3.298 -0.5062 -0.2929 -0.0696
10338SOL    HW132614   2.924   5.093   3.292 -1.4606 -0.3014 -0.1682
10338SOL    HW232615   2.833   5.227   3.273 -1.3663  0.3747  3.4273
10339SOL     OW32616   2.529   0.290   5.051 -0.0489  0.6635 -0.0612
10339SOL    HW132617   2.435   0.320   5.067  0.2450  0.4551  2.4418
10339SOL    HW232618   2.546   0.285   4.952 -2.3579  1.5684 -0.5708
10340SOL     OW32619   2.542   0.502   3.356 -0.0191  0.8460 -0.1929
10340SOL    HW132620   2.574   0.562   3.283  0.6465  1.5283  0.6368
10340SOL    HW232621   2.601   0.513   3.436 -1.8577  1.5312  1.1307
10341SOL     OW32622   5.660   5.226   2.735 -0.5124 -0.6814 -0.0617
10341SOL    HW132623   5.572   5.272   2.732 -0.4710 -0.4304  1.5341
10341SOL    HW232624   5.649   5.131   2.705 -2.0280 -1.5964  2.9037
10342SOL     OW32625   3.505   4.586   6.844 -0.3593 -0.3499 -0.0422
10342SOL    HW132626   3.430   4.610   6.782 -0.2623  0.1953  0.0421
10342SOL    HW232627   3.558   4.510   6.805 -0.1838  0.1114 -0.7282
10343SOL     OW32628   5.327   2.028   2.379  0.3314  0.0250  0.6539
10343SOL    HW132629   5.351   1.935   2.405 -1.2598 -1.6603 -3.1475
10343SOL    HW232630   5.411   2.080   2.361  1.2889 -1.6869 -0.1226
10344SOL     OW32631   6.917   0.638   5.425  0.2041 -0.2312  0.2656
10344SOL    HW132632   7.016   0.628   5.412  0.0091 -0.1031 -1.4878
10344SOL    HW232633   6.872   0.643   5.336 -1.2579  1.0131  1.0291
10345SOL     OW32634   5.967   1.112   1.727 -0.1373 -0.2964 -0.0221
10345SOL    HW132635   6.054   1.063   1.730 -0.4729 -0.8527  1.1116
10345SOL    HW232636   5.981   1.207   1.755  0.2041 -0.2172 -0.4506
10346SOL     OW32637   1.522   1.870   5.957 -0.3342  0.0718 -0.1651
10346SOL    HW132638   1.427   1.901   5.965 -1.3870 -2.8346 -0.2988
10346SOL    HW232639   1.542   1.805   6.030  0.8037 -1.1056 -1.4740
10347SOL     OW32640   3.804   5.421   1.332 -0.4138  0.0828 -0.3941
10347SOL    HW132641   3.898   5.392   1.349 -0.0876  1.0476 -0.4941
10347SOL    HW232642   3.757   5.351   1.279  0.5790  0.0706 -1.2919
10348SOL     OW32643   6.353   3.052   4.816 -0.4311 -0.3228  0.4383
10348SOL    HW132644   6.293   2.982   4.853 -0.9853 -1.0756 -1.7102
10348SOL    HW232645   6.441   3.011   4.791  0.1916  0.3098  1.5082
10349SOL     OW32646   3.675   1.751   6.184  0.0773  0.2854  0.8056
10349SOL    HW132647   3.691   1.657   6.215  3.3872  0.6044  0.4407
10349SOL    HW232648   3.634   1.804   6.258 -3.2914 -1.6916  0.5535
10350SOL     OW32649   4.782   0.122   4.755 -0.0052 -0.2079 -0.3824
10350SOL    HW132650   4.814   0.028   4.768 -0.7466 -0.2970  1.0890
10350SOL    HW232651   4.827   0.163   4.676  1.9952 -1.0627  0.2630
10351SOL     OW32652   5.561   6.330   0.772 -0.5142  0.2351  0.4620
10351SOL    HW132653   5.622   6.406   0.749 -0.4505  0.0122 -0.1251
10351SOL    HW232654   5.476   6.338   0.720 -0.2913 -0.3824 -0.0167
10352SOL     OW32655   1.631   0.450   1.845 -0.3413 -0.4647  0.3710
10352SOL    HW132656   1.595   0.483   1.758  2.6504  0.4422 -0.6353
10352SOL    HW232657   1.699   0.514   1.880  0.4165 -2.0776  2.0523
10353SOL     OW32658   4.254   1.118   5.046  0.0830 -0.2128 -0.1085
10353SOL    HW132659   4.334   1.106   5.105  0.8823 -0.5623 -1.2255
10353SOL    HW232660   4.182   1.055   5.074  0.8157 -1.0690 -0.0928
10354SOL     OW32661   5.675   6.260   2.939 -0.0340 -0.3661 -0.0055
10354SOL    HW132662   5.601   6.320   2.910  1.9654  1.8126 -0.9250
10354SOL    HW232663   5.754   6.315   2.968  2.8816 -2.3911 -3.2626
10355SOL     OW32664   0.539   4.049   5.087  0.4346 -0.3771  0.5406
10355SOL    HW132665   0.590   4.114   5.143  0.5483 -0.0707  0.0857
10355SOL    HW232666   0.452   4.027   5.131  0.5693 -0.2183  0.8858
10356SOL     OW32667   4.516   2.617   1.892  0.0317  0.1595  0.1600
10356SOL    HW132668   4.471   2.553   1.830  0.1245  1.0094 -0.8148
10356SOL    HW232669   4.550   2.568   1.972  0.0931 -1.0036 -0.5578
10357SOL     OW32670   3.047   3.567   6.460  0.5295 -0.3447 -0.1178
10357SOL    HW132671   3.089   3.656   6.441  0.5365 -0.4639 -0.6595
10357SOL    HW232672   3.041   3.514   6.376  3.5342 -2.2017  0.7171
10358SOL     OW32673   2.982   3.555   5.867 -0.0013  0.0502  0.7148
10358SOL    HW132674   3.070   3.553   5.915  0.5725 -1.0190 -0.3258
10358SOL    HW232675   2.934   3.640   5.889  1.4687  0.8485  0.9937
10359SOL     OW32676   0.145   1.168   6.141  0.1882 -0.8057 -0.2041
10359SOL    HW132677   0.096   1.223   6.208  0.2855  0.0643 -0.8398
10359SOL    HW232678   0.243   1.187   6.147  0.1949 -0.6973 -0.6105
10360SOL     OW32679   3.929   1.299   6.160 -0.2032 -0.4675  0.6638
10360SOL    HW132680   3.922   1.293   6.061  0.6949 -0.2127  0.5758
10360SOL    HW232681   3.995   1.232   6.193  1.0547  0.8041  0.8588
10361SOL     OW32682   1.838   0.746   2.750 -0.7411  0.7200 -0.7132
10361SOL    HW132683   1.766   0.813   2.768 -0.5651  0.5698  0.6551
10361SOL    HW232684   1.927   0.790   2.756 -0.6652  0.6292 -1.1181
10362SOL     OW32685   2.078   4.873   5.673 -0.5983 -0.1291  0.3337
10362SOL    HW132686   2.120   4.882   5.763 -0.1549 -1.8187  0.3312
10362SOL    HW232687   1.987   4.834   5.682 -1.3589  1.5444  0.1724
10363SOL     OW32688   3.244   1.131   3.121  0.7608 -0.1358 -0.0692
10363SOL    HW132689   3.202   1.180   3.045 -1.2450  0.1567  1.1432
10363SOL    HW232690   3.188   1.143   3.203  3.0891 -0.0008  1.6202
10364SOL     OW32691   0.008   5.730   4.961 -0.3182 -0.5801 -0.1362
10364SOL    HW132692   0.049   5.821   4.961 -0.8710 -0.2814  1.8466
10364SOL    HW232693  -0.092   5.739   4.964 -0.3564 -1.1977  1.2262
10365SOL     OW32694   3.792   0.014   5.059 -0.3507 -0.0516 -0.5601
10365SOL    HW132695   3.789  -0.082   5.031 -0.3240 -0.0380 -0.6109
10365SOL    HW232696   3.832   0.069   4.985  0.8223 -0.1745 -0.0278
10366SOL     OW32697   0.605   1.080   5.362  0.3316  0.3123  0.1543
10366SOL    HW132698   0.590   1.027   5.278 -0.1913 -1.3383  1.2516
10366SOL    HW232699   0.552   1.042   5.437  0.2149  2.2045  1.1146
10367SOL     OW32700   6.216   2.019   1.531  0.0675 -0.6136 -0.4042
10367SOL    HW132701   6.138   2.069   1.569  0.0392 -0.5576 -0.5369
10367SOL    HW232702   6.204   1.921   1.545 -0.4025 -0.6648 -1.1251
10368SOL     OW32703   5.334   1.105   6.788  0.1938  0.4834 -0.0785
10368SOL    HW132704   5.361   1.026   6.733 -2.4938 -1.3132  0.9391
10368SOL    HW232705   5.256   1.150   6.746 -2.2959 -1.2681  2.2797
10369SOL     OW32706   2.923   2.603   0.804  0.8225  0.3273  0.1880
10369SOL    HW132707   2.826   2.581   0.801  0.7534  0.5792  0.5036
10369SOL    HW232708   2.976   2.519   0.804  0.6891  0.1602 -2.0274
10370SOL     OW32709   2.162   6.397   0.306 -0.1588  0.3158  0.5508
10370SOL    HW132710   2.080   6.381   0.360  0.7956  1.0123  2.2779
10370SOL    HW232711   2.234   6.334   0.335 -0.0382 -0.2905 -0.9445
10371SOL     OW32712   0.262   2.028   6.105 -0.7276 -0.3763 -0.1435
10371SOL    HW132713   0.205   2.091   6.052  0.1447  0.0830 -0.5574
10371SOL    HW232714   0.346   2.075   6.131  0.8652 -1.9421 -2.1526
10372SOL     OW32715   3.580   2.488   6.714 -0.3568  0.2194  0.4841
10372SOL    HW132716   3.598   2.412   6.652 -1.5746  0.9536 -0.8116
10372SOL    HW232717   3.666   2.515   6.758  0.5840 -0.1710 -1.0463
10373SOL     OW32718   3.294   2.802   0.520 -0.3952 -0.0838  0.0357
10373SOL    HW132719   3.268   2.759   0.434 -1.3273 -0.6680  0.5895
10373SOL    HW232720   3.348   2.739   0.574 -1.1134 -0.3002  0.5209
10374SOL     OW32721   4.901   3.814   6.040  0.7233  0.1252  0.3835
10374SOL    HW132722   4.870   3.831   5.946 -1.2551  0.2598  1.0120
10374SOL    HW232723   4.904   3.715   6.057 -1.9135  0.0795  1.0288
10375SOL     OW32724   5.696   3.131   6.504 -0.2306 -0.0391 -0.3336
10375SOL    HW132725   5.616   3.160   6.452 -1.5944 -0.5495  1.4074
10375SOL    HW232726   5.749   3.066   6.450 -1.5530 -0.4952 -1.1100
10376SOL     OW32727   5.861   5.472   2.257  0.6069 -0.0947  0.0054
10376SOL    HW132728   5.769   5.464   2.295  0.6854 -0.2531  0.1621
10376SOL    HW232729   5.916   5.392   2.284  0.9067  0.1860  0.2387
10377SOL     OW32730   4.639   3.032   4.900  0.6301  0.9140  0.3039
10377SOL    HW132731   4.709   3.102   4.887  1.2849  0.5352  1.5703
10377SOL    HW232732   4.549   3.076   4.912  1.0073  1.5390  0.9319
10378SOL     OW32733   6.727   1.101   1.608  0.3504  0.2755  0.2140
10378SOL    HW132734   6.768   1.044   1.679  0.2849  0.7595  0.6485
10378SOL    HW232735   6.795   1.167   1.575  0.2669  0.3078  0.1062
10379SOL     OW32736   0.108   4.428   0.463 -0.2021 -0.2171  0.6891
10379SOL    HW132737   0.170   4.452   0.389  1.4997 -0.5550  1.9382
10379SOL    HW232738   0.135   4.340   0.502 -2.1318 -0.8844  0.6010
10380SOL     OW32739   5.438   4.123   4.465 -0.4014  0.1504  0.7525
10380SOL    HW132740   5.449   4.202   4.405 -0.8134  0.7185  1.4097
10380SOL    HW232741   5.486   4.044   4.425 -0.7126  0.4927 -0.3398
10381SOL     OW32742   0.008   3.992   3.499 -0.4410 -0.0028  0.0800
10381SOL    HW132743   0.077   4.057   3.533 -0.2900 -0.1578  0.0693
10381SOL    HW232744   0.042   3.950   3.415  0.5719 -1.9741  1.4009
10382SOL     OW32745   5.716   0.857   2.800 -0.3367  0.1681  0.0253
10382SOL    HW132746   5.648   0.833   2.869 -1.4530  1.1400 -0.6910
10382SOL    HW232747   5.709   0.955   2.779  0.0947 -0.0586 -1.3112
10383SOL     OW32748   2.827   6.050   6.894  0.3377  0.2254 -0.2429
10383SOL    HW132749   2.872   6.015   6.976 -2.3306  3.1156  2.7625
10383SOL    HW232750   2.748   5.993   6.872 -0.1330  0.5805  0.5027
10384SOL     OW32751   4.743   1.364   0.324 -1.0399 -0.0858 -0.2560
10384SOL    HW132752   4.677   1.424   0.278 -1.1059  0.8946  1.0925
10384SOL    HW232753   4.821   1.417   0.356 -2.7226  0.1186  4.1837
10385SOL     OW32754   0.334   5.089   0.220  0.2283 -0.5764  0.4200
10385SOL    HW132755   0.312   5.139   0.304  3.2745 -1.5942  1.9891
10385SOL    HW232756   0.250   5.053   0.179 -1.5212  1.3444  2.0796
10386SOL     OW32757   5.434   6.783   2.037  0.0283 -0.0368  0.4163
10386SOL    HW132758   5.515   6.779   2.095  0.0527 -0.1308  0.3755
10386SOL    HW232759   5.354   6.753   2.089  0.0337 -0.0262  0.4307
10387SOL     OW32760   1.109   1.862   2.968 -0.2830 -0.0942  0.0220
10387SOL    HW132761   1.067   1.949   2.943  0.2361  0.7407  1.8506
10387SOL    HW232762   1.209   1.873   2.971 -0.2067 -0.7688  0.2073
10388SOL     OW32763   3.642   6.294   0.197 -0.2716 -0.7027  0.2803
10388SOL    HW132764   3.735   6.267   0.223 -0.3764 -1.3487  0.0085
10388SOL    HW232765   3.602   6.223   0.140  0.8027  1.6190 -3.7354
10389SOL     OW32766   4.183   1.538   3.673 -0.0204  0.0097 -0.9045
10389SOL    HW132767   4.118   1.482   3.723  0.2026  0.7802  0.2821
10389SOL    HW232768   4.135   1.615   3.630  0.2417  1.4100  1.1762
10390SOL     OW32769   1.539   1.019   3.636  0.0179 -0.2098 -0.9928
10390SOL    HW132770   1.460   0.960   3.652 -1.2141  1.0619 -2.1671
10390SOL    HW232771   1.578   1.047   3.724 -0.9413 -0.7273 -0.3867
10391SOL     OW32772   3.341   4.284   6.694 -0.6537 -0.1897 -0.4097
10391SOL    HW132773   3.383   4.254   6.608 -0.8467 -2.1143  0.1363
10391SOL    HW232774   3.252   4.326   6.674 -0.4369 -0.0782 -1.1875
10392SOL     OW32775   3.386   3.040   0.619  0.6658  0.5900 -0.1372
10392SOL    HW132776   3.374   2.946   0.586  1.2888  0.4205  0.1113
10392SOL    HW232777   3.412   3.099   0.543 -1.8023  1.0084 -0.7434
10393SOL     OW32778   5.537   2.087   1.224  0.6151 -0.4714  0.1009
10393SOL    HW132779   5.623   2.071   1.273  1.7714  0.6309 -1.4481
10393SOL    HW232780   5.526   2.017   1.154  0.3294 -0.5377  0.2149
10394SOL     OW32781   3.435   2.616   0.702 -0.0735 -0.1337 -0.0048
10394SOL    HW132782   3.418   2.518   0.706  2.5789 -0.6279  0.8928
10394SOL    HW232783   3.525   2.634   0.662 -1.7496  2.1588 -3.1841
10395SOL     OW32784   5.172   2.245   2.345 -0.4740  0.0349 -0.1138
10395SOL    HW132785   5.118   2.271   2.425  0.1339 -0.9795  0.6596
10395SOL    HW232786   5.222   2.161   2.366  0.0066 -0.0190 -1.4340
10396SOL     OW32787   6.966   0.359   5.065  0.1767  0.3548  0.1605
10396SOL    HW132788   6.902   0.351   4.989  0.9117 -2.6520 -0.2411
10396SOL    HW232789   7.050   0.404   5.034  0.1572 -0.1273 -0.5967
10397SOL     OW32790   1.312   3.666   1.392 -0.2040  0.0496  0.0275
10397SOL    HW132791   1.339   3.745   1.337 -0.4020 -0.3392 -0.6409
10397SOL    HW232792   1.394   3.627   1.436  0.4277 -1.2227 -2.1212
10398SOL     OW32793   0.473   5.378   3.925 -0.1852 -0.2556  0.0414
10398SOL    HW132794   0.566   5.394   3.959 -1.3275  0.9065  2.9186
10398SOL    HW232795   0.459   5.432   3.841  1.9504 -1.1602 -0.9756
10399SOL     OW32796   6.270   6.926   5.231  0.3825 -0.1333 -0.0624
10399SOL    HW132797   6.358   6.968   5.206 -0.3570  1.0702 -0.7373
10399SOL    HW232798   6.218   6.988   5.289 -1.3540  0.6106 -2.2549
10400SOL     OW32799   5.616   4.335   2.755  0.1761  0.5025 -0.3588
10400SOL    HW132800   5.636   4.306   2.662 -0.5800  1.2986 -0.7894
10400SOL    HW232801   5.517   4.335   2.770  0.2732  0.7037  0.3375
10401SOL     OW32802   0.019   0.866   1.314 -0.6592 -0.4632  0.0362
10401SOL    HW132803   0.017   0.917   1.400 -0.7611 -0.6934  0.1695
10401SOL    HW232804  -0.040   0.911   1.247  0.8896  0.8165 -0.5283
10402SOL     OW32805   0.301   3.755   2.098  0.0207  0.2646  0.3567
10402SOL    HW132806   0.390   3.780   2.135 -0.7419  0.4629  2.2163
10402SOL    HW232807   0.257   3.836   2.059 -0.1556  0.6382  1.2946
10403SOL     OW32808   2.120   2.166   4.074  0.6323  0.6966 -0.0150
10403SOL    HW132809   2.086   2.251   4.034  0.4053  0.1831 -0.9446
10403SOL    HW232810   2.057   2.136   4.145  1.1743  1.7579  0.9408
10404SOL     OW32811   0.219   2.008   2.782 -0.1423 -0.3769 -0.5767
10404SOL    HW132812   0.228   1.924   2.728 -0.4828 -0.3271 -0.7123
10404SOL    HW232813   0.237   2.087   2.723 -1.0516 -0.2960 -0.7487
10405SOL     OW32814   4.399   1.032   6.127 -0.0265  0.0775 -0.1021
10405SOL    HW132815   4.479   1.081   6.163 -1.2206  2.2431 -0.2272
10405SOL    HW232816   4.428   0.969   6.055  1.6132  0.5181  0.1383
10406SOL     OW32817   5.285   0.639   1.719 -0.4058  0.6610 -0.2239
10406SOL    HW132818   5.284   0.681   1.628  0.6878 -1.1702 -1.1391
10406SOL    HW232819   5.253   0.544   1.712 -0.0184  0.4007  1.2456
10407SOL     OW32820   5.528   5.800   5.727  0.4326 -0.0921  0.3362
10407SOL    HW132821   5.611   5.754   5.694  0.1299 -1.6766  1.6734
10407SOL    HW232822   5.452   5.736   5.726 -0.4423  0.9099  0.5860
10408SOL     OW32823   5.757   6.565   3.071  0.1384 -0.1872 -0.0375
10408SOL    HW132824   5.730   6.592   2.978  1.2870 -0.9902 -0.6353
10408SOL    HW232825   5.855   6.576   3.082 -0.0033  0.0023  1.1339
10409SOL     OW32826   4.773   0.176   6.549  0.0534 -0.5792  0.1533
10409SOL    HW132827   4.849   0.197   6.610  1.4596  0.5833 -1.8575
10409SOL    HW232828   4.785   0.085   6.510  1.1304  0.0461 -1.0583
10410SOL     OW32829   6.259   6.774   2.004  0.1926  0.3412 -0.5443
10410SOL    HW132830   6.255   6.712   1.925  1.4659  0.9505 -1.1125
10410SOL    HW232831   6.323   6.739   2.072 -1.5319 -0.6270  0.6675
10411SOL     OW32832   5.643   4.393   5.988 -0.2304 -0.5562 -0.2393
10411SOL    HW132833   5.579   4.338   6.042 -1.2916 -0.3756 -1.2767
10411SOL    HW232834   5.638   4.488   6.017 -0.8331 -0.4516 -0.6662
10412SOL     OW32835   5.358   6.151   2.987 -0.3374 -0.3819  0.2246
10412SOL    HW132836   5.272   6.102   2.980 -1.2996  1.0313  1.4152
10412SOL    HW232837   5.375   6.201   2.902 -1.9239  1.1609  0.7423
10413SOL     OW32838   1.715   3.183   6.990  0.4744 -0.8855 -0.3884
10413SOL    HW132839   1.656   3.184   6.910  1.1042 -1.0698 -0.8691
10413SOL    HW232840   1.675   3.239   7.062 -1.0029 -2.1568 -0.1626
10414SOL     OW32841   1.195   6.167   5.622 -0.3397  0.5510 -0.3573
10414SOL    HW132842   1.257   6.202   5.693 -1.8583  1.4732  0.5593
10414SOL    HW232843   1.249   6.125   5.549  1.3218  0.5535  0.8107
10415SOL     OW32844   6.155   1.307   4.149  0.0382 -0.5150  0.6007
10415SOL    HW132845   6.098   1.318   4.068  1.4153  2.6076 -0.1059
10415SOL    HW232846   6.097   1.293   4.230 -1.5771  0.1329 -0.4054
10416SOL     OW32847   2.579   0.962   3.922  0.0677 -0.5314 -0.0216
10416SOL    HW132848   2.501   0.961   3.859  0.7565 -1.8673 -0.9023
10416SOL    HW232849   2.664   0.966   3.870  0.6283 -0.2188  0.8896
10417SOL     OW32850   1.083   4.538   5.694  0.0329  0.2921  0.0251
10417SOL    HW132851   1.108   4.515   5.600 -0.2760 -0.5854  0.1528
10417SOL    HW232852   0.997   4.589   5.695  0.2017  0.5845 -0.1846
10418SOL     OW32853   1.034   3.976   0.975 -0.4793  0.0678  0.2857
10418SOL    HW132854   0.974   3.912   1.023  0.5739 -0.3597  1.0814
10418SOL    HW232855   1.120   3.986   1.026  1.4728 -1.7975 -2.3719
10419SOL     OW32856   3.305   0.274   2.765  0.2449 -0.3959 -0.4893
10419SOL    HW132857   3.287   0.354   2.707 -0.2972 -1.2842 -1.5783
10419SOL    HW232858   3.236   0.268   2.836 -0.2359 -0.3988 -0.9533
10420SOL     OW32859   4.051   2.214   5.770  0.2158 -0.1286 -0.4540
10420SOL    HW132860   3.964   2.167   5.778  0.4936 -0.5388  0.3171
10420SOL    HW232861   4.064   2.246   5.676  0.1071 -1.7406 -1.0458
10421SOL     OW32862   2.586   4.812   1.525 -0.1066 -0.4966 -0.2634
10421SOL    HW132863   2.575   4.912   1.526  1.8378 -0.2463  0.2081
10421SOL    HW232864   2.682   4.790   1.511  0.0817 -2.2404  2.7998
10422SOL     OW32865   2.882   4.772   5.594  0.8035 -0.2455 -0.0699
10422SOL    HW132866   2.823   4.720   5.532 -1.4320 -0.2010  1.9030
10422SOL    HW232867   2.864   4.745   5.688  2.8798  0.9047  0.7189
10423SOL     OW32868   6.827   4.349   2.216 -0.2227 -0.1214 -0.6200
10423SOL    HW132869   6.867   4.426   2.167  1.2533 -0.6772 -0.3469
10423SOL    HW232870   6.897   4.307   2.275 -0.6085 -2.4763 -1.7342
10424SOL     OW32871   1.418   5.298   6.437  0.3001  0.0192 -0.1042
10424SOL    HW132872   1.362   5.379   6.421 -0.0691 -0.1573  0.2582
10424SOL    HW232873   1.421   5.242   6.353 -1.6976 -0.9503  0.4188
10425SOL     OW32874   4.943   5.856   2.421 -0.4365 -0.4972  0.0619
10425SOL    HW132875   5.019   5.793   2.404  0.4059  0.3287  0.6351
10425SOL    HW232876   4.906   5.888   2.334  1.6691  1.1637 -0.3068
10426SOL     OW32877   0.246   4.009   4.360 -0.4874 -0.6274  0.3228
10426SOL    HW132878   0.330   4.060   4.341 -0.5663 -0.1391  1.2138
10426SOL    HW232879   0.233   3.939   4.291  0.7955 -0.8784  0.3194
10427SOL     OW32880   5.139   5.940   1.898  0.2539  0.1333 -0.1217
10427SOL    HW132881   5.220   5.898   1.856  1.0716  2.2849 -0.8733
10427SOL    HW232882   5.062   5.935   1.835  0.0891 -0.9737  0.1559
10428SOL     OW32883   0.438   6.516   6.249 -0.3232  0.0540  0.3078
10428SOL    HW132884   0.496   6.534   6.328  0.3215  0.6869 -0.3062
10428SOL    HW232885   0.476   6.560   6.168 -0.5937 -1.1602 -0.5111
10429SOL     OW32886   3.821   3.706   6.098  0.0803  1.1060  0.1641
10429SOL    HW132887   3.855   3.672   6.010 -1.3093  2.3073 -0.8723
10429SOL    HW232888   3.844   3.640   6.169 -0.2259 -0.7213 -1.3479
10430SOL     OW32889   3.423   5.488   2.919 -0.5015  0.0607  0.2268
10430SOL    HW132890   3.469   5.400   2.930 -0.3269  0.1224 -0.0034
10430SOL    HW232891   3.324   5.473   2.919 -0.5145 -0.5401 -2.6532
10431SOL     OW32892   4.320   3.442   6.022 -0.5955  0.0808 -0.1104
10431SOL    HW132893   4.413   3.415   6.048 -0.5897 -0.4368 -0.6303
10431SOL    HW232894   4.266   3.458   6.104  0.1592  1.1365  0.1949
10432SOL     OW32895   1.033   2.663   4.948  0.2382 -0.2397 -0.5206
10432SOL    HW132896   1.089   2.702   4.875  3.0188 -0.4772  1.3230
10432SOL    HW232897   1.071   2.574   4.975  0.1245  0.4219  2.0666
10433SOL     OW32898   2.474   4.589   1.910 -0.1818 -0.0452  0.0326
10433SOL    HW132899   2.563   4.544   1.914  0.1779  0.4698 -1.6649
10433SOL    HW232900   2.449   4.607   1.815 -2.3554 -0.6626  0.4320
10434SOL     OW32901   5.431   1.667   6.155 -0.1481  1.0878  0.5978
10434SOL    HW132902   5.528   1.667   6.178  0.0936 -0.0857 -0.3084
10434SOL    HW232903   5.402   1.574   6.133 -1.9117  1.1018  2.5280
10435SOL     OW32904   1.579   6.200   5.978  0.5127  0.5549 -0.2793
10435SOL    HW132905   1.586   6.174   6.075 -0.1931  1.2398 -0.0397
10435SOL    HW232906   1.598   6.297   5.968 -2.3522  1.1644 -0.4033
10436SOL     OW32907   5.688   5.138   6.624  0.3468  0.4194 -0.4786
10436SOL    HW132908   5.687   5.210   6.694  0.5828 -1.0406  1.0962
10436SOL    HW232909   5.677   5.180   6.534 -0.1495  2.3659  0.4125
10437SOL     OW32910   1.114   0.586   1.597 -0.2823 -0.0172  0.3074
10437SOL    HW132911   1.108   0.678   1.558  0.1343 -0.1442 -0.0564
10437SOL    HW232912   1.187   0.583   1.665 -0.4490 -0.0212  0.4885
10438SOL     OW32913   6.854   0.798   5.071 -1.0525 -0.2694  0.3270
10438SOL    HW132914   6.953   0.789   5.084 -1.2735 -3.4143  0.7407
10438SOL    HW232915   6.817   0.858   5.142  0.3700 -0.4101  1.2387
10439SOL     OW32916   5.900   0.140   1.012  0.2285 -0.4209 -0.1032
10439SOL    HW132917   5.952   0.103   1.089 -0.3861  1.0119  1.0618
10439SOL    HW232918   5.893   0.240   1.021 -1.9250 -0.4598 -0.6655
10440SOL     OW32919   4.807   1.326   6.974 -0.3030  0.1103 -0.2773
10440SOL    HW132920   4.709   1.345   6.967 -0.9790 -2.5643  0.5770
10440SOL    HW232921   4.835   1.268   6.898 -0.2420 -1.9568  1.2235
10441SOL     OW32922   4.892   2.051   3.003 -0.3000 -0.4360  0.3652
10441SOL    HW132923   4.798   2.074   2.976 -0.6035  0.3212  1.9610
10441SOL    HW232924   4.948   2.041   2.921 -1.4958  0.2699 -0.5860
10442SOL     OW32925   7.017   6.175   1.123 -0.1476 -0.1809  0.2985
10442SOL    HW132926   6.991   6.256   1.070  0.8972 -0.0648 -0.0556
10442SOL    HW232927   6.992   6.188   1.219 -1.0062  0.0861  0.0453
10443SOL     OW32928   2.695   6.852   3.547  0.0026  0.0945 -0.3865
10443SOL    HW132929   2.785   6.894   3.555  0.2246 -0.2434 -1.0893
10443SOL    HW232930   2.640   6.901   3.479  0.2746 -0.7449 -1.2412
10444SOL     OW32931   6.640   4.546   6.951  0.0533 -0.0590  0.5840
10444SOL    HW132932   6.655   4.559   7.049  0.0916  0.1566  0.5499
10444SOL    HW232933   6.600   4.629   6.912 -0.6561 -0.4040  0.5554
10445SOL     OW32934   6.978   4.882   4.319 -0.2192 -0.6044  0.0348
10445SOL    HW132935   7.022   4.965   4.351  0.7073 -1.0417 -0.0556
10445SOL    HW232936   7.011   4.860   4.227 -0.7017 -0.8983 -0.0746
10446SOL     OW32937   5.405   6.711   6.299 -0.2178 -0.2032  0.1447
10446SOL    HW132938   5.352   6.641   6.347 -1.4095  0.2673 -0.4467
10446SOL    HW232939   5.347   6.756   6.230  1.0614  0.0659 -0.8007
10447SOL     OW32940   4.313   0.080   6.551  0.1591  0.4036  0.3951
10447SOL    HW132941   4.330   0.030   6.466  1.0061  0.7317  0.3641
10447SOL    HW232942   4.236   0.143   6.537  0.7556  0.9852 -0.3594
10448SOL     OW32943   0.826   1.475   6.229 -0.0703 -0.0064  0.7626
10448SOL    HW132944   0.827   1.416   6.149 -0.4857 -0.5757  1.1629
10448SOL    HW232945   0.886   1.553   6.215 -0.4203  0.0924 -0.2451
10449SOL     OW32946   4.703   3.408   0.665 -0.2250 -0.2326  0.2132
10449SOL    HW132947   4.790   3.386   0.619  0.3633  0.4324  0.9810
10449SOL    HW232948   4.719   3.477   0.735 -1.8445  2.0254 -1.4879
10450SOL     OW32949   4.991   3.870   1.729 -0.0559  0.0744 -0.4357
10450SOL    HW132950   4.967   3.942   1.795  0.9135 -0.9893  1.1374
10450SOL    HW232951   4.957   3.782   1.762  1.5365 -0.6664 -0.6948
10451SOL     OW32952   6.681   0.270   5.927 -0.2402 -0.5122 -0.6586
10451SOL    HW132953   6.751   0.234   5.989  0.6800  1.4032 -0.5233
10451SOL    HW232954   6.725   0.307   5.845 -1.2206 -0.5802 -1.2221
10452SOL     OW32955   0.957   5.357   0.216  0.1242 -0.0580 -0.2360
10452SOL    HW132956   1.054   5.365   0.191  0.4617  0.0172  1.0424
10452SOL    HW232957   0.920   5.448   0.233 -0.3563 -0.0334 -1.3142
10453SOL     OW32958   5.019   4.890   4.852  0.4126 -0.2955 -0.0073
10453SOL    HW132959   5.107   4.846   4.868  0.0435 -1.0975 -0.1104
10453SOL    HW232960   4.961   4.879   4.932 -0.0282 -0.8564 -0.3949
10454SOL     OW32961   0.058   0.391   0.675 -0.4077 -0.4122 -0.2835
10454SOL    HW132962   0.099   0.442   0.600 -0.9930 -1.4722 -1.3561
10454SOL    HW232963   0.036   0.453   0.750 -1.8548  1.0585 -1.8505
10455SOL     OW32964   1.013   1.669   6.262 -0.2622  0.7163 -0.3407
10455SOL    HW132965   1.012   1.766   6.287 -0.1442  1.1481 -1.8838
10455SOL    HW232966   1.079   1.655   6.188 -0.5992 -0.4686 -0.4377
10456SOL     OW32967   6.104   2.665   6.914 -0.4707 -0.4206  0.1648
10456SOL    HW132968   6.093   2.759   6.947 -0.3406 -0.4273  0.2292
10456SOL    HW232969   6.041   2.648   6.838  0.0614 -0.0333 -0.3691
10457SOL     OW32970   5.488   4.833   6.282  0.1759 -0.2334  0.1139
10457SOL    HW132971   5.476   4.863   6.187 -0.4106 -1.6550 -0.2887
10457SOL    HW232972   5.575   4.868   6.318  0.1840  0.7129 -0.7758
10458SOL     OW32973   2.463   2.661   0.635  0.4349 -0.2970  0.0330
10458SOL    HW132974   2.458   2.585   0.569 -0.9437  0.4097 -0.7308
10458SOL    HW232975   2.432   2.629   0.724  0.1617 -0.7126 -0.2044
10459SOL     OW32976   1.844   6.967   0.398 -0.3337 -0.0408  0.0727
10459SOL    HW132977   1.899   7.049   0.409 -0.7480  0.1453  0.7870
10459SOL    HW232978   1.792   6.973   0.313  0.6112 -0.1478 -0.5268
10460SOL     OW32979   0.595   4.125   0.266 -0.4108  0.4109  0.1606
10460SOL    HW132980   0.544   4.177   0.335 -1.1784  0.7962 -0.6851
10460SOL    HW232981   0.538   4.111   0.185  0.7042  0.5436 -0.6723
10461SOL     OW32982   0.879   0.911   4.707 -0.7654 -0.3367 -0.3863
10461SOL    HW132983   0.862   1.008   4.719 -0.5561 -0.3758  0.2907
10461SOL    HW232984   0.792   0.861   4.705 -0.9229 -0.0250 -1.8493
10462SOL     OW32985   5.173   5.131   6.213  0.6248 -0.5758 -0.1864
10462SOL    HW132986   5.223   5.207   6.171  0.2880 -1.9935 -3.4591
10462SOL    HW232987   5.232   5.085   6.279  1.5874  1.1880  0.2516
10463SOL     OW32988   6.374   5.286   0.061  0.4578 -0.1628  0.1074
10463SOL    HW132989   6.297   5.276   0.125 -1.0873  0.2167 -1.6141
10463SOL    HW232990   6.366   5.373   0.013  1.0883 -0.8258 -1.2356
10464SOL     OW32991   4.183   2.349   6.953 -0.0419 -0.1243  0.6277
10464SOL    HW132992   4.240   2.300   7.019  0.6064 -1.5202 -0.9320
10464SOL    HW232993   4.113   2.288   6.917 -0.6284  0.7319  0.2880
10465SOL     OW32994   5.204   5.627   2.485 -0.1532  0.3075 -0.1309
10465SOL    HW132995   5.304   5.630   2.489 -0.1648  1.0292 -0.3214
10465SOL    HW232996   5.171   5.544   2.532  0.5804 -0.5487 -1.0889
10466SOL     OW32997   6.944   6.087   4.934  0.2822  0.0098  0.8277
10466SOL    HW132998   6.985   6.147   4.865 -0.2895 -0.1478  0.3486
10466SOL    HW232999   7.017   6.047   4.990  0.9771 -1.7749 -1.2220
10467SOL     OW33000   6.527   0.203   6.236  0.4055  0.2096  0.0552
10467SOL    HW133001   6.429   0.198   6.218  0.5636 -0.5170 -0.6309
10467SOL    HW233002   6.552   0.298   6.255 -0.2196  0.6089 -1.0115
10468SOL     OW33003   1.073   1.397   2.604 -0.0157  0.1682 -0.4452
10468SOL    HW133004   0.973   1.404   2.603 -0.1387 -1.2559 -0.7016
10468SOL    HW233005   1.112   1.481   2.640 -1.3966  0.1174  1.3328
10469SOL     OW33006   3.334   3.742   6.199 -0.2385 -0.2883 -0.6098
10469SOL    HW133007   3.401   3.669   6.212 -0.0306 -0.2453 -1.3781
10469SOL    HW233008   3.376   3.817   6.147 -0.8375 -0.2081 -0.9923
10470SOL     OW33009   5.186   0.741   5.280  0.0226  0.5346  0.1020
10470SOL    HW133010   5.245   0.661   5.281 -0.4536  0.1673 -0.4074
10470SOL    HW233011   5.183   0.781   5.371 -1.1198 -1.0698  0.8183
10471SOL     OW33012   4.231   4.727   5.347 -0.2522 -0.9962  0.1184
10471SOL    HW133013   4.248   4.736   5.249 -0.2483 -1.0961  0.1102
10471SOL    HW233014   4.155   4.663   5.362  0.3979 -1.7596  0.2233
10472SOL     OW33015   1.117   2.796   6.150  0.4995 -0.6986 -1.3247
10472SOL    HW133016   1.054   2.812   6.226  0.6871  0.1106 -1.3261
10472SOL    HW233017   1.199   2.749   6.184  1.2871  1.0515 -0.6858
10473SOL     OW33018   1.185   3.042   5.978 -0.1872  0.0844  0.0513
10473SOL    HW133019   1.270   2.989   5.975 -0.3864 -0.2314 -0.0217
10473SOL    HW233020   1.155   3.063   5.885 -0.7863 -0.7634  0.0495
10474SOL     OW33021   0.946   0.610   4.661  0.0417 -0.0212  0.2896
10474SOL    HW133022   0.961   0.708   4.654  2.4295 -0.1168  2.4426
10474SOL    HW233023   1.029   0.561   4.632 -0.7830 -1.3773  0.1085
10475SOL     OW33024   4.671   2.550   6.488 -0.2830  0.2150  0.3526
10475SOL    HW133025   4.770   2.538   6.495 -0.4890 -0.5539  3.1031
10475SOL    HW233026   4.651   2.642   6.456  1.3397  0.6224  0.4235
10476SOL     OW33027   3.231   1.735   6.147  0.0462  0.5049  0.0370
10476SOL    HW133028   3.265   1.656   6.097  0.4675  1.0640 -0.5894
10476SOL    HW233029   3.158   1.707   6.209 -0.8947 -0.1339 -1.3153
10477SOL     OW33030   6.332   2.138   6.523  0.3081  0.0120 -0.4206
10477SOL    HW133031   6.399   2.119   6.451  0.9367 -0.3327  0.2302
10477SOL    HW233032   6.240   2.127   6.487  0.6205 -1.0980 -0.9323
10478SOL     OW33033   3.847   3.998   6.060  0.2245  0.1796  0.1315
10478SOL    HW133034   3.816   3.903   6.064  1.5631 -0.2611  0.6728
10478SOL    HW233035   3.940   4.004   6.096 -0.1139  1.8274  0.8104
10479SOL     OW33036   1.803   1.111   0.393 -0.1547  0.3975  0.0700
10479SOL    HW133037   1.827   1.181   0.459 -1.0074  1.4920 -0.7324
10479SOL    HW233038   1.723   1.060   0.426 -1.2652  1.6661 -0.5639
10480SOL     OW33039   4.997   3.161   6.657 -0.4936 -0.1213  0.4243
10480SOL    HW133040   4.968   3.204   6.571 -0.9685 -2.5567 -0.7403
10480SOL    HW233041   4.924   3.171   6.725 -0.6554  0.7332  0.1432
10481SOL     OW33042   5.763   1.421   5.817  0.5760 -0.3088  0.4511
10481SOL    HW133043   5.676   1.460   5.786 -0.7805  0.4806  4.6550
10481SOL    HW233044   5.825   1.494   5.844  2.2877 -0.9146 -1.5603
10482SOL     OW33045   2.155   6.638   6.275  0.5423 -0.0943  0.5473
10482SOL    HW133046   2.101   6.707   6.227 -0.6003 -2.4006 -1.6769
10482SOL    HW233047   2.226   6.683   6.328 -1.9996  2.9539  1.7023
10483SOL     OW33048   5.430   3.009   0.222 -0.5542 -0.9638  0.0275
10483SOL    HW133049   5.498   3.082   0.222 -1.0416 -0.4997 -0.2225
10483SOL    HW233050   5.472   2.925   0.189 -0.2765 -0.4990 -0.8519
10484SOL     OW33051   5.150   1.229   3.703 -0.0303  0.1638 -0.2571
10484SOL    HW133052   5.205   1.284   3.640  0.1206  0.6321  0.2767
10484SOL    HW233053   5.069   1.280   3.732  0.1297  0.1268  0.2731
10485SOL     OW33054   1.670   3.823   0.085 -0.1956 -0.3293 -0.2407
10485SOL    HW133055   1.678   3.778  -0.004 -1.5509 -1.7185  0.2843
10485SOL    HW233056   1.614   3.906   0.076 -0.9114 -0.8365 -0.5864
10486SOL     OW33057   5.555   4.221   4.703 -0.1726 -0.2665  0.1631
10486SOL    HW133058   5.655   4.221   4.693 -0.1336  2.9282 -0.6370
10486SOL    HW233059   5.514   4.181   4.622  0.4816  0.1849 -0.4120
10487SOL     OW33060   2.374   6.263   3.394  0.3638  0.3200 -0.0822
10487SOL    HW133061   2.279   6.289   3.411  0.2024  0.1952 -0.7619
10487SOL    HW233062   2.425   6.341   3.358  0.2543  0.1061 -0.7078
10488SOL     OW33063   3.989   3.539   5.675 -0.5143  0.2591 -0.0614
10488SOL    HW133064   4.085   3.514   5.689 -0.6683 -0.2427  0.0996
10488SOL    HW233065   3.982   3.597   5.594 -0.2659 -1.0095 -1.0296
10489SOL     OW33066   4.504   1.019   5.613  0.1816  0.6051  0.2769
10489SOL    HW133067   4.410   1.016   5.578 -0.1520 -0.9120  1.2029
10489SOL    HW233068   4.568   0.996   5.539 -0.3559 -0.4560  0.1136
10490SOL     OW33069   1.922   1.154   1.186 -0.6403 -0.3789  0.1011
10490SOL    HW133070   1.997   1.219   1.200  0.6111 -1.9330  0.7939
10490SOL    HW233071   1.856   1.194   1.121  1.6080  0.3687 -1.8849
10491SOL     OW33072   6.153   3.021   0.531  0.2258  0.8658 -0.2050
10491SOL    HW133073   6.176   3.108   0.573 -0.7065  0.5523  0.9917
10491SOL    HW233074   6.166   2.947   0.597 -0.8143  0.3155 -0.5868
10492SOL     OW33075   6.322   3.809   4.703 -0.5748 -0.2597  0.3699
10492SOL    HW133076   6.332   3.754   4.786 -1.9421 -1.1862 -0.0400
10492SOL    HW233077   6.293   3.902   4.728  0.0910 -0.2071  0.9779
10493SOL     OW33078   5.620   5.799   0.661  0.0009  0.4098  0.1057
10493SOL    HW133079   5.694   5.743   0.699 -0.6273 -0.9728 -0.6293
10493SOL    HW233080   5.559   5.828   0.734 -0.9134 -1.7981  0.3164
10494SOL     OW33081   6.772   4.103   4.308 -0.1900  0.9350 -0.0207
10494SOL    HW133082   6.764   4.115   4.407  1.0119 -0.5295  0.2930
10494SOL    HW233083   6.726   4.178   4.262 -1.7946  1.0280  1.6271
10495SOL     OW33084   3.891   7.017   0.937 -0.6478  0.0941 -0.0237
10495SOL    HW133085   3.797   7.052   0.933 -0.4935  0.4675 -0.3996
10495SOL    HW233086   3.947   7.065   0.871 -0.5585 -1.2892 -1.0039
10496SOL     OW33087   2.389   6.654   4.673  0.7110  0.4949  0.2737
10496SOL    HW133088   2.406   6.711   4.593  2.7804  0.4075  0.6047
10496SOL    HW233089   2.315   6.590   4.653 -0.3184  1.9401 -0.7781
10497SOL     OW33090   1.820   5.770   4.744 -0.2867 -0.2502  0.1508
10497SOL    HW133091   1.761   5.789   4.823  0.0390 -1.2671  0.6599
10497SOL    HW233092   1.766   5.776   4.660 -0.7627  0.3116  0.4895
10498SOL     OW33093   1.304   2.420   4.426  0.4710  0.1004 -0.3823
10498SOL    HW133094   1.238   2.455   4.361 -0.0393  0.3096  0.2375
10498SOL    HW233095   1.376   2.370   4.377  0.4702  0.8323 -1.1533
10499SOL     OW33096   3.947   1.418   6.666  0.0303  0.1067 -1.2835
10499SOL    HW133097   3.924   1.473   6.746  2.1856  0.0318 -0.5469
10499SOL    HW233098   3.929   1.470   6.583 -0.3034  0.9718 -0.6799
10500SOL     OW33099   5.613   6.638   2.612  0.1604  0.0805 -0.3609
10500SOL    HW133100   5.650   6.568   2.550  1.7844  0.6862 -0.1251
10500SOL    HW233101   5.548   6.695   2.562 -0.6037 -1.1146 -0.7592
10501SOL     OW33102   6.653   0.372   2.612 -0.2983 -0.4234 -0.0685
10501SOL    HW133103   6.612   0.401   2.698  2.1141 -0.4562  1.1860
10501SOL    HW233104   6.734   0.316   2.631  0.4667 -0.1891 -2.3514
10502SOL     OW33105   4.363   6.458   5.476  0.4559 -0.3707 -0.0996
10502SOL    HW133106   4.298   6.487   5.405  0.3925 -1.6335 -0.5758
10502SOL    HW233107   4.456   6.478   5.446  0.5106 -2.0354 -1.1164
10503SOL     OW33108   0.879   0.306   2.900  0.1557  0.1069  0.5904
10503SOL    HW133109   0.797   0.251   2.883 -0.6092  0.8210  1.8186
10503SOL    HW233110   0.960   0.249   2.887 -0.6238 -1.5937  2.6217
10504SOL     OW33111   6.173   4.107   1.273 -0.4815  0.0303 -1.0147
10504SOL    HW133112   6.171   4.008   1.282  0.0598  0.1755  1.8692
10504SOL    HW233113   6.106   4.136   1.204 -2.2846 -2.2246 -0.3449
10505SOL     OW33114   4.758   2.133   3.692 -0.0975  0.6760  0.5622
10505SOL    HW133115   4.834   2.161   3.632  0.6916 -2.1879  0.0540
10505SOL    HW233116   4.700   2.069   3.642  1.3136 -2.8706  3.1064
10506SOL     OW33117   0.706   1.541   0.250  0.8277  0.2699 -0.2280
10506SOL    HW133118   0.755   1.592   0.320  1.7506  1.2866 -1.5677
10506SOL    HW233119   0.731   1.444   0.254  2.7517  0.7191 -0.6937
10507SOL     OW33120   6.674   5.405   4.361  0.8857  0.2129 -0.4313
10507SOL    HW133121   6.611   5.435   4.432  0.1405 -1.5676 -0.2951
10507SOL    HW233122   6.715   5.318   4.387  2.0959  0.4809 -1.3239
10508SOL     OW33123   1.144   2.683   2.919  0.4575  0.4254  0.1971
10508SOL    HW133124   1.198   2.765   2.897 -0.1057  0.2924 -1.9220
10508SOL    HW233125   1.162   2.613   2.850  0.1880 -0.9061  1.4395
10509SOL     OW33126   6.096   0.573   0.618 -0.1318  0.0051  1.0111
10509SOL    HW133127   6.052   0.663   0.619 -0.7098 -0.2679  0.9772
10509SOL    HW233128   6.158   0.565   0.696 -0.0158  0.4584  0.9700
10510SOL     OW33129   3.945   1.094   4.409  0.5787 -0.0946  0.1568
10510SOL    HW133130   4.034   1.060   4.440  1.1560  0.0932 -1.2186
10510SOL    HW233131   3.958   1.149   4.326 -0.7077  0.8261  0.5392
10511SOL     OW33132   0.175   3.201   6.474 -0.1583 -0.2909  0.4299
10511SOL    HW133133   0.208   3.183   6.567  1.2452  0.1999  0.0486
10511SOL    HW233134   0.081   3.167   6.465 -0.1820 -0.6866  1.9068
10512SOL     OW33135   3.781   4.375   1.228 -0.4695  0.0106  0.1330
10512SOL    HW133136   3.753   4.381   1.132  1.5812 -0.4222 -0.5436
10512SOL    HW233137   3.796   4.279   1.252  2.1359  0.2864 -0.1285
10513SOL     OW33138   6.169   1.550   4.924 -0.7255  0.0898  0.3618
10513SOL    HW133139   6.227   1.518   4.850  1.4119 -0.3856  2.1380
10513SOL    HW233140   6.096   1.483   4.940  0.1171 -0.9196  0.1166
10514SOL     OW33141   3.892   2.382   1.990  0.3477  0.5779 -0.0389
10514SOL    HW133142   3.981   2.344   2.013 -0.7687 -0.5575  3.0102
10514SOL    HW233143   3.821   2.315   2.010 -1.4667  2.9333  2.1539
10515SOL     OW33144   6.825   6.432   0.061 -0.1150  0.3394 -1.0003
10515SOL    HW133145   6.780   6.405   0.146  2.8781 -0.8118  0.3539
10515SOL    HW233146   6.892   6.503   0.081  2.2646 -1.5343 -1.8812
10516SOL     OW33147   6.074   4.164   3.880  0.4485  0.6140  0.0729
10516SOL    HW133148   6.126   4.159   3.965 -0.9583  2.4351  1.1228
10516SOL    HW233149   6.109   4.239   3.824  0.8344 -0.0517 -0.5935
10517SOL     OW33150   0.933   6.168   4.292  0.4772 -0.4478  0.1331
10517SOL    HW133151   0.984   6.215   4.363  0.5134  0.8486 -0.7121
10517SOL    HW233152   0.846   6.135   4.329 -0.0546  1.2673  0.5115
10518SOL     OW33153   6.475   4.748   6.825 -0.2825  0.1020  0.6234
10518SOL    HW133154   6.482   4.794   6.737  0.7716 -0.7887  0.2269
10518SOL    HW233155   6.379   4.723   6.842 -0.3363 -0.6391 -0.7377
10519SOL     OW33156   5.922   6.585   3.468  0.1393 -0.0381  0.2777
10519SOL    HW133157   5.895   6.518   3.398 -0.8694 -0.3324  0.9212
10519SOL    HW233158   5.841   6.614   3.519  0.8717  0.0376  1.4392
10520SOL     OW33159   0.309   6.162   3.717 -0.3854 -0.6166 -0.1283
10520SOL    HW133160   0.376   6.129   3.784 -0.3335 -0.9890 -0.3534
10520SOL    HW233161   0.239   6.091   3.703 -1.1743  0.0091  0.5519
10521SOL     OW33162   6.203   0.040   5.813 -0.2992  0.9241  0.2149
10521SOL    HW133163   6.133   0.111   5.819 -0.5937  0.6126  0.5207
10521SOL    HW233164   6.272   0.054   5.885  0.4452  1.7480 -0.6389
10522SOL     OW33165   2.397   3.627   1.820  0.3569 -0.6537  0.5348
10522SOL    HW133166   2.327   3.638   1.890  2.7908 -2.3057  3.4465
10522SOL    HW233167   2.353   3.606   1.732 -2.8046  1.1601  1.5215
10523SOL     OW33168   5.549   3.254   3.717 -0.2517 -0.1415  0.1445
10523SOL    HW133169   5.522   3.265   3.812 -0.4414 -0.4942  0.1349
10523SOL    HW233170   5.632   3.305   3.699  0.4657 -1.0446  0.8104
10524SOL     OW33171   1.621   3.112   5.905  0.7760 -0.2425 -0.3219
10524SOL    HW133172   1.551   3.049   5.940 -0.1124 -0.2887 -2.0543
10524SOL    HW233173   1.602   3.205   5.938  0.6920 -0.4807  0.3063
10525SOL     OW33174   3.144   0.883   5.608  0.1835  0.3520  0.6718
10525SOL    HW133175   3.152   0.980   5.628 -2.6375  0.4933  1.4552
10525SOL    HW233176   3.102   0.836   5.686  2.7055 -1.7981  0.8795
10526SOL     OW33177   2.936   0.465   1.809 -0.1778  0.4201  0.2552
10526SOL    HW133178   3.034   0.460   1.790 -0.3648  1.0289 -0.9266
10526SOL    HW233179   2.886   0.491   1.726 -1.4840 -1.1571  0.4837
10527SOL     OW33180   2.583   5.574   5.902 -0.2613 -0.0769  0.6476
10527SOL    HW133181   2.514   5.622   5.957 -0.7866  0.1922 -0.2148
10527SOL    HW233182   2.549   5.564   5.809  0.2736 -1.2509  0.5648
10528SOL     OW33183   5.222   1.358   1.849  0.5355 -0.1648 -0.1416
10528SOL    HW133184   5.300   1.295   1.856  0.5684 -0.0869  0.2525
10528SOL    HW233185   5.245   1.434   1.789 -0.1355 -1.4522 -2.1344
10529SOL     OW33186   0.103   0.699   0.090  0.0736 -0.2759 -0.0436
10529SOL    HW133187   0.185   0.751   0.067  1.0236 -2.0395 -0.9007
10529SOL    HW233188   0.102   0.677   0.187  0.5214 -0.0705  0.0063
10530SOL     OW33189   0.345   2.407   6.396 -0.5618  0.1820 -0.8401
10530SOL    HW133190   0.368   2.467   6.319 -1.8453  1.1837 -0.4677
10530SOL    HW233191   0.269   2.348   6.370 -1.5469  1.0992 -0.0771
10531SOL     OW33192   6.555   1.322   4.360 -0.6677  0.4515  0.4099
10531SOL    HW133193   6.531   1.384   4.286 -2.3292 -0.5119  0.0931
10531SOL    HW233194   6.655   1.313   4.364 -0.4753  1.6742 -0.7196
10532SOL     OW33195   4.790   0.189   3.904 -0.2178  0.0019 -0.4861
10532SOL    HW133196   4.756   0.107   3.859  0.5260 -0.0124 -1.0393
10532SOL    HW233197   4.833   0.164   3.991  0.7972 -0.3203 -1.0626
10533SOL     OW33198   3.827   0.653   2.714 -0.2429  0.0451  0.2223
10533SOL    HW133199   3.881   0.683   2.793  0.1693  1.0682 -0.4228
10533SOL    HW233200   3.887   0.635   2.637 -0.6466 -0.9326  0.1301
10534SOL     OW33201   1.364   4.898   3.012  0.8579 -0.4277  0.5661
10534SOL    HW133202   1.327   4.977   2.964  0.0912 -0.2835  1.3757
10534SOL    HW233203   1.456   4.878   2.978  0.4081 -0.2109 -0.8046
10535SOL     OW33204   3.834   3.913   4.005 -0.0791  0.0257 -0.6820
10535SOL    HW133205   3.800   3.991   3.952  0.3709  0.3911 -0.4379
10535SOL    HW233206   3.931   3.927   4.027 -0.4071  0.1656  0.7573
10536SOL     OW33207   3.203   0.060   6.173  0.4716 -0.1989 -0.5540
10536SOL    HW133208   3.290   0.097   6.142 -0.2084  2.6909  0.6483
10536SOL    HW233209   3.141   0.049   6.095  0.6080  1.6321 -0.9643
10537SOL     OW33210   3.421   5.877   1.372 -0.0580 -0.0504  0.1307
10537SOL    HW133211   3.351   5.838   1.312  0.5304 -2.5931  0.9690
10537SOL    HW233212   3.383   5.955   1.421 -2.2584 -1.1944  0.3768
10538SOL     OW33213   2.908   1.779   2.209  0.1154 -0.0002 -0.0042
10538SOL    HW133214   2.882   1.684   2.226  0.1438  0.1915  1.2389
10538SOL    HW233215   3.007   1.790   2.225 -0.1117  0.4916  1.1828
10539SOL     OW33216   2.856   6.533   3.291  0.1583 -0.1643  0.3737
10539SOL    HW133217   2.941   6.493   3.325 -0.0320 -0.4185  0.5455
10539SOL    HW233218   2.877   6.621   3.247  0.3315  0.5229  1.7523
10540SOL     OW33219   0.513   5.687   0.561  0.3976 -0.0884  0.8367
10540SOL    HW133220   0.612   5.672   0.561  0.4213  0.0593  0.4506
10540SOL    HW233221   0.493   5.780   0.590  0.3957  0.0218  0.4853
10541SOL     OW33222   0.890   0.983   0.093  0.4855  0.0750 -0.4130
10541SOL    HW133223   0.895   0.884   0.085 -1.8451 -0.0448 -1.0666
10541SOL    HW233224   0.896   1.024   0.002 -1.3588  0.3077 -0.4671
10542SOL     OW33225   4.331   4.008   0.394  0.2707  0.1258  0.6252
10542SOL    HW133226   4.244   3.971   0.361  0.2360 -1.0820  1.9414
10542SOL    HW233227   4.318   4.103   0.423 -0.4769  0.1274  0.3046
10543SOL     OW33228   4.687   1.974   5.758 -0.4072 -0.2217  0.1685
10543SOL    HW133229   4.702   2.034   5.680  1.8055 -0.7332  0.1259
10543SOL    HW233230   4.678   1.880   5.727 -1.1461 -0.2354  0.4173
10544SOL     OW33231   0.637   2.114   3.266  0.0310  0.2083  0.1331
10544SOL    HW133232   0.631   2.213   3.277  2.9090  0.7646 -1.8997
10544SOL    HW233233   0.586   2.086   3.184 -3.1516 -0.5565  2.2028
10545SOL     OW33234   0.030   2.081   0.735 -0.1838 -0.0282 -0.3591
10545SOL    HW133235   0.058   2.108   0.827  0.1739 -1.4724 -0.0097
10545SOL    HW233236  -0.060   2.120   0.715 -0.2589  0.3211  0.5944
10546SOL     OW33237   4.833   0.679   5.068 -0.0660 -0.2012 -0.3059
10546SOL    HW133238   4.831   0.628   5.154  1.1221 -0.1010 -0.1959
10546SOL    HW233239   4.897   0.634   5.005  0.2233  0.5824 -0.5795
10547SOL     OW33240   3.154   6.717   3.011  0.2970 -0.0570  0.3234
10547SOL    HW133241   3.175   6.689   3.105 -0.7948  0.2786  0.6835
10547SOL    HW233242   3.059   6.749   3.006  0.7988  1.3938 -0.5689
10548SOL     OW33243   1.179   3.016   2.511  0.1427 -0.2944  0.5253
10548SOL    HW133244   1.240   3.019   2.590  0.2303 -0.4362  0.4632
10548SOL    HW233245   1.226   2.973   2.434 -0.8940 -2.9384  1.2513
10549SOL     OW33246   1.954   0.887   5.207  0.5013 -0.0031  0.4197
10549SOL    HW133247   1.902   0.920   5.128  0.0814  1.2685  1.1978
10549SOL    HW233248   1.963   0.961   5.274 -0.1908 -1.3922  2.1209
10550SOL     OW33249   0.927   1.678   2.457 -0.6409 -0.3855 -0.2578
10550SOL    HW133250   0.908   1.609   2.527 -1.7364  2.2489  2.2238
10550SOL    HW233251   0.843   1.726   2.434  0.3812  1.3359 -0.5346
10551SOL     OW33252   2.325   2.002   1.108 -0.6241  0.0405  0.2642
10551SOL    HW133253   2.333   2.077   1.041  1.1108  0.2355  0.6252
10551SOL    HW233254   2.260   2.028   1.179 -1.6824  0.2814 -0.7693
10552SOL     OW33255   0.376   6.646   2.219  0.6525 -0.2831 -0.1061
10552SOL    HW133256   0.407   6.739   2.238  0.0520 -0.4938  2.1559
10552SOL    HW233257   0.327   6.644   2.132  0.2254  1.6125  0.0526
10553SOL     OW33258   1.404   2.920   0.084  0.2144 -0.3816  0.5766
10553SOL    HW133259   1.489   2.913   0.032  0.5918 -0.5888  1.2053
10553SOL    HW233260   1.347   2.839   0.067 -0.6811  0.5789 -1.2401
10554SOL     OW33261   1.530   4.336   5.094  0.5144  0.1772  0.1585
10554SOL    HW133262   1.588   4.262   5.127 -1.0128 -0.5122  1.3700
10554SOL    HW233263   1.460   4.357   5.161 -0.0805  1.6428 -0.8629
10555SOL     OW33264   3.536   4.817   5.912  0.0182 -0.4020 -0.0733
10555SOL    HW133265   3.455   4.805   5.854 -0.2644 -1.3886  0.4961
10555SOL    HW233266   3.615   4.777   5.865 -0.1344 -0.8424  0.0332
10556SOL     OW33267   4.208   1.035   3.357 -0.4371  0.0409 -0.6612
10556SOL    HW133268   4.180   1.090   3.436  1.3929  0.3529 -0.1826
10556SOL    HW233269   4.132   1.029   3.292 -1.6817  0.5369  0.6911
10557SOL     OW33270   4.543   4.820   6.657 -0.0873  0.3074 -0.6614
10557SOL    HW133271   4.600   4.893   6.696  1.7607 -1.8142  0.9185
10557SOL    HW233272   4.448   4.850   6.653 -0.1629  1.4567  3.8613
10558SOL     OW33273   1.305   5.788   2.112  0.4487 -0.5755 -0.1786
10558SOL    HW133274   1.230   5.854   2.108 -0.4041 -1.5588 -2.5637
10558SOL    HW233275   1.300   5.737   2.198 -1.5693 -0.4982 -0.1921
10559SOL     OW33276   6.536   2.332   0.659  0.4759  0.3010  0.0091
10559SOL    HW133277   6.506   2.239   0.681  1.8735 -0.1978 -0.1156
10559SOL    HW233278   6.469   2.397   0.695  0.8702 -0.6155  2.6701
10560SOL     OW33279   4.491   4.454   2.523 -0.3746 -0.4337 -0.1661
10560SOL    HW133280   4.415   4.519   2.533 -0.2229  0.1610 -2.3861
10560SOL    HW233281   4.516   4.419   2.613 -2.8499 -0.1751  0.7088
10561SOL     OW33282   5.967   3.836   3.344  0.0565 -0.5998  0.2428
10561SOL    HW133283   6.029   3.901   3.388 -0.0963 -1.2776  1.5055
10561SOL    HW233284   5.974   3.747   3.389 -1.7491 -0.7223  0.3660
10562SOL     OW33285   1.533   1.376   1.625 -0.1004  0.9600 -0.5758
10562SOL    HW133286   1.617   1.405   1.579  0.9749 -0.9056  0.1317
10562SOL    HW233287   1.457   1.376   1.560  0.6610  1.6454 -1.4805
10563SOL     OW33288   3.492   6.835   5.098  0.2799 -0.4238 -0.1345
10563SOL    HW133289   3.454   6.768   5.161 -1.7958 -1.1570 -2.0416
10563SOL    HW233290   3.591   6.842   5.113  0.7016 -4.2158 -0.0811
10564SOL     OW33291   0.469   2.120   1.225  0.5719  0.0772 -0.0763
10564SOL    HW133292   0.435   2.104   1.132 -1.3057 -1.1379  0.7687
10564SOL    HW233293   0.529   2.046   1.252 -1.5962 -1.4575  0.8449
10565SOL     OW33294   0.788   1.250   2.026 -0.2647 -0.0114 -0.1497
10565SOL    HW133295   0.773   1.153   2.011  0.5511  0.0142 -1.1976
10565SOL    HW233296   0.873   1.279   1.983  0.5325  0.7771  1.8144
10566SOL     OW33297   2.584   3.601   1.527 -0.7248  0.8610 -0.2305
10566SOL    HW133298   2.606   3.665   1.601  0.0498 -0.6658  0.9254
10566SOL    HW233299   2.667   3.580   1.475 -0.9505  0.7648 -0.5503
10567SOL     OW33300   5.894   2.923   4.323 -0.2480 -0.0759 -0.3697
10567SOL    HW133301   5.944   3.008   4.336 -0.3716 -0.0768  0.1161
10567SOL    HW233302   5.868   2.914   4.227  1.0072 -0.2531 -0.7195
10568SOL     OW33303   6.233   5.489   3.199 -0.1556 -0.4166  0.6613
10568SOL    HW133304   6.177   5.408   3.185 -0.6998 -0.0407  0.6175
10568SOL    HW233305   6.270   5.520   3.112  1.0349 -1.3020  0.8360
10569SOL     OW33306   3.819   1.569   3.455  0.2688 -0.0428 -0.3806
10569SOL    HW133307   3.804   1.649   3.513  0.9994  0.0684 -0.3451
10569SOL    HW233308   3.888   1.590   3.386  0.0846 -0.4766 -0.7026
10570SOL     OW33309   4.801   6.623   2.586  0.3546 -1.2586  0.2779
10570SOL    HW133310   4.771   6.633   2.491  0.1946  1.8518  0.5507
10570SOL    HW233311   4.882   6.679   2.602 -1.0240  0.2841  2.4907
10571SOL     OW33312   4.028   1.631   1.774  0.2583  0.4109 -0.3418
10571SOL    HW133313   4.008   1.706   1.711 -0.4209  1.2810  0.8564
10571SOL    HW233314   4.126   1.609   1.769  0.2968  0.7473 -1.3713
10572SOL     OW33315   1.058   6.645   5.178 -0.1402  0.0183  0.4324
10572SOL    HW133316   0.974   6.686   5.214  0.6651  0.3440  2.0519
10572SOL    HW233317   1.089   6.697   5.099 -1.1389  0.2636  0.1908
10573SOL     OW33318   0.300   1.138   4.684  0.3051  0.2275  0.2664
10573SOL    HW133319   0.305   1.088   4.770  1.9256  0.2815  0.2378
10573SOL    HW233320   0.247   1.222   4.697 -0.6643 -0.4632  0.8401
10574SOL     OW33321   0.910   2.966   0.409  0.1273 -0.1698  0.0499
10574SOL    HW133322   0.920   2.906   0.488 -0.2354 -1.3669 -0.7918
10574SOL    HW233323   0.828   3.023   0.421 -1.5141 -2.2544 -0.6424
10575SOL     OW33324   5.153   0.660   0.474  0.0040  0.2702  0.4147
10575SOL    HW133325   5.065   0.626   0.441  2.0542 -1.2408 -4.3928
10575SOL    HW233326   5.209   0.583   0.507  1.2652  0.3244 -1.4616
10576SOL     OW33327   4.325   5.754   2.601 -0.3519  0.2569 -0.2316
10576SOL    HW133328   4.235   5.755   2.645 -0.0253  0.9775  0.4415
10576SOL    HW233329   4.335   5.833   2.541  0.4440  1.1182  0.9937
10577SOL     OW33330   0.224   0.073   0.492  0.3485 -0.5020 -0.2756
10577SOL    HW133331   0.307   0.117   0.457 -0.4063  1.4051  0.2100
10577SOL    HW233332   0.180   0.021   0.419  0.5324  0.7066 -1.2669
10578SOL     OW33333   3.428   5.214   4.924 -0.3851 -0.5402  0.0807
10578SOL    HW133334   3.412   5.126   4.880 -2.6456  0.1492 -0.6478
10578SOL    HW233335   3.379   5.219   5.010 -0.4831  0.0877 -0.0011
10579SOL     OW33336   0.674   2.894   6.899  0.4813 -0.0264  0.2707
10579SOL    HW133337   0.740   2.947   6.953  0.6402  0.0096  0.0420
10579SOL    HW233338   0.676   2.799   6.928  0.7519 -0.0576  0.1562
10580SOL     OW33339   6.539   0.196   2.815  0.2938  0.6533  0.2481
10580SOL    HW133340   6.494   0.126   2.759  0.4064  1.6556 -1.1567
10580SOL    HW233341   6.474   0.269   2.834  0.6619  0.9857  0.2377
10581SOL     OW33342   4.160   3.984   5.417 -0.1088  0.0758  0.5177
10581SOL    HW133343   4.193   3.897   5.381  2.2145  1.0224  0.1702
10581SOL    HW233344   4.117   3.969   5.506  2.1367 -1.2123  1.4698
10582SOL     OW33345   3.980   0.642   0.572  0.2768 -0.2953  0.1901
10582SOL    HW133346   3.881   0.651   0.584  0.2095 -0.9711  0.1802
10582SOL    HW233347   4.024   0.637   0.662  0.2503 -0.4789  0.1942
10583SOL     OW33348   3.589   0.531   0.139  0.2909  0.0655  0.0330
10583SOL    HW133349   3.674   0.507   0.092 -0.2596  0.5098 -1.2098
10583SOL    HW233350   3.591   0.628   0.165  1.0835 -0.4415  2.0172
10584SOL     OW33351   4.188   1.370   4.945  0.3940  0.2173  0.5263
10584SOL    HW133352   4.194   1.292   5.008  0.1608 -1.0874 -0.9947
10584SOL    HW233353   4.100   1.368   4.899  0.7218  0.9020 -0.1458
10585SOL     OW33354   4.397   3.165   4.938 -0.1934 -0.6388 -0.5366
10585SOL    HW133355   4.335   3.142   5.013  0.7322 -2.5798 -0.2882
10585SOL    HW233356   4.435   3.256   4.952 -1.1975 -0.3617  0.5272
10586SOL     OW33357   3.213   6.488   5.555  0.4452  0.0544 -0.4519
10586SOL    HW133358   3.240   6.583   5.544  1.4321 -0.3285 -1.5397
10586SOL    HW233359   3.282   6.440   5.609 -0.7367  0.2433  1.3035
10587SOL     OW33360   4.866   6.190   4.460  0.4954 -0.0956  0.1665
10587SOL    HW133361   4.876   6.176   4.558 -0.6464 -0.3955  0.2556
10587SOL    HW233362   4.888   6.105   4.411 -2.1157 -1.0162  0.4160
10588SOL     OW33363   2.141   1.380   2.145 -0.2861  0.0757 -0.5777
10588SOL    HW133364   2.116   1.316   2.073 -2.2723  1.9255 -1.6605
10588SOL    HW233365   2.068   1.447   2.158  0.1544  0.0976  2.9244
10589SOL     OW33366   2.553   6.328   2.121 -0.1039  0.0027 -0.1774
10589SOL    HW133367   2.461   6.360   2.098 -1.0917 -1.9321  0.7958
10589SOL    HW233368   2.612   6.406   2.139 -1.8158  1.2949  0.1129
10590SOL     OW33369   0.645   0.233   6.698  0.2801 -1.1137  0.0249
10590SOL    HW133370   0.573   0.207   6.634 -0.7599 -0.6590  0.9787
10590SOL    HW233371   0.696   0.311   6.661 -0.5197 -0.6473 -0.1092
10591SOL     OW33372   3.100   3.251   1.481  0.1347  0.7381 -0.5951
10591SOL    HW133373   3.010   3.226   1.446  0.0806  0.3670 -0.1842
10591SOL    HW233374   3.153   3.294   1.407 -1.1271  2.9410 -0.3111
10592SOL     OW33375   6.916   5.651   6.256 -0.1720  0.4316  0.4830
10592SOL    HW133376   6.990   5.673   6.320  0.5484  0.0334 -0.1952
10592SOL    HW233377   6.869   5.736   6.229  0.0502  0.6915  0.9034
10593SOL     OW33378   2.905   6.656   4.722 -0.2003 -0.3729 -0.0457
10593SOL    HW133379   2.880   6.662   4.819 -0.1171 -0.2281 -0.0328
10593SOL    HW233380   2.823   6.634   4.668 -0.4336  0.4458 -0.0394
10594SOL     OW33381   6.382   1.613   2.543 -0.3944  0.0374  0.1889
10594SOL    HW133382   6.387   1.689   2.608 -1.6825 -0.7714  1.2866
10594SOL    HW233383   6.468   1.605   2.493  0.8899  0.2478  2.2845
10595SOL     OW33384   1.984   1.771   3.367 -0.4475 -0.2270  0.4174
10595SOL    HW133385   2.012   1.725   3.451  0.4645  0.9930  0.8132
10595SOL    HW233386   1.972   1.868   3.384  2.8495  0.6822 -1.4371
10596SOL     OW33387   0.634   5.868   5.492  0.2565 -0.5506 -0.0327
10596SOL    HW133388   0.544   5.871   5.535  0.4235 -2.6627  0.5966
10596SOL    HW233389   0.685   5.951   5.515 -1.8267  1.1457 -1.2113
10597SOL     OW33390   3.482   1.433   0.408  0.1119 -0.5533 -0.4399
10597SOL    HW133391   3.385   1.450   0.428  0.2631  0.6777 -0.6225
10597SOL    HW233392   3.538   1.494   0.464  0.6979 -0.1101 -1.4814
10598SOL     OW33393   0.845   0.970   3.824 -0.6003  0.2119  0.3977
10598SOL    HW133394   0.841   1.069   3.807 -0.9130  0.5272  2.1178
10598SOL    HW233395   0.802   0.922   3.748 -1.7077  1.4814  0.1824
10599SOL     OW33396   6.423   3.078   2.274  0.1599 -0.2404 -0.1032
10599SOL    HW133397   6.329   3.081   2.242 -0.0082  0.4819  0.4436
10599SOL    HW233398   6.427   3.106   2.370  1.0216  0.5418 -0.3514
10600SOL     OW33399   1.861   6.981   2.750 -0.2327 -0.1361  0.6045
10600SOL    HW133400   1.836   6.897   2.700  0.4624 -0.2895  0.5028
10600SOL    HW233401   1.960   6.985   2.759 -0.1192  1.5901 -0.9835
10601SOL     OW33402   0.363   3.541   3.302 -0.3724  0.3286 -0.5694
10601SOL    HW133403   0.280   3.503   3.342 -2.3623  2.8491 -2.0623
10601SOL    HW233404   0.367   3.518   3.205 -0.2006  1.5986 -0.8739
10602SOL     OW33405   0.943   0.512   1.380  0.2353 -0.1223 -0.3428
10602SOL    HW133406   0.994   0.458   1.314  0.6798 -0.6957  0.4556
10602SOL    HW233407   0.994   0.519   1.465 -1.2504 -1.1933  0.6865
10603SOL     OW33408   1.012   2.217   5.023 -0.0488  0.6637  0.2200
10603SOL    HW133409   0.969   2.278   5.090 -0.8072  1.7388 -1.1714
10603SOL    HW233410   1.015   2.263   4.934 -2.0756 -1.8476 -1.3003
10604SOL     OW33411   4.210   2.701   6.534 -0.0908 -0.6014  0.0972
10604SOL    HW133412   4.255   2.790   6.523 -3.0384  0.7165 -2.4120
10604SOL    HW233413   4.240   2.639   6.462 -0.5568 -0.5238 -0.1601
10605SOL     OW33414   0.613   0.807   5.904  0.3047  0.4343  0.2080
10605SOL    HW133415   0.553   0.840   5.976 -0.0836 -1.3072  0.7391
10605SOL    HW233416   0.707   0.800   5.939  0.2858  0.4602  0.2639
10606SOL     OW33417   4.219   3.008   6.791 -0.1279 -0.1276 -0.1036
10606SOL    HW133418   4.136   3.041   6.834  0.1371 -0.6870  0.8557
10606SOL    HW233419   4.247   2.922   6.833  1.5470  0.6027  0.3455
10607SOL     OW33420   1.553   6.524   1.569  0.0867  0.1571  0.2799
10607SOL    HW133421   1.640   6.539   1.616  0.1345 -0.0203  0.2484
10607SOL    HW233422   1.533   6.426   1.566  0.0590  0.1716 -0.0233
10608SOL     OW33423   0.071   0.643   4.663  0.1718 -0.3383  0.4730
10608SOL    HW133424   0.003   0.717   4.663  0.1399 -0.3663  0.9148
10608SOL    HW233425   0.047   0.577   4.592 -0.5915 -0.6443  0.9955
10609SOL     OW33426   6.916   6.462   1.993 -0.5572  0.2583 -0.0561
10609SOL    HW133427   6.975   6.401   1.942 -0.3065 -1.2280  1.9034
10609SOL    HW233428   6.971   6.531   2.040 -0.4602 -0.3399  0.7345
10610SOL     OW33429   5.812   6.710   4.274  0.1636  0.8075 -0.6303
10610SOL    HW133430   5.840   6.805   4.288  0.2587  0.8960 -1.4050
10610SOL    HW233431   5.750   6.683   4.347 -1.3254  2.0417 -1.3862
10611SOL     OW33432   0.169   6.732   4.677  0.4715 -0.0629 -0.2776
10611SOL    HW133433   0.073   6.757   4.666  0.3828  0.2398  1.0668
10611SOL    HW233434   0.177   6.664   4.750  1.3210  0.2518 -0.0697
10612SOL     OW33435   6.884   0.063   3.717  0.8142 -0.2380  0.0689
10612SOL    HW133436   6.871   0.099   3.625  1.6245  0.8279  0.3602
10612SOL    HW233437   6.849  -0.031   3.721 -0.6361  0.2258 -0.9022
10613SOL     OW33438   1.149   5.936   5.303  0.2024 -0.4171 -0.1447
10613SOL    HW133439   1.087   6.012   5.280 -0.5026 -0.7088  0.7246
10613SOL    HW233440   1.101   5.872   5.363  1.2319 -0.8612  0.2158
10614SOL     OW33441   6.681   0.860   0.996  0.8884  0.5326 -0.8560
10614SOL    HW133442   6.702   0.762   0.998 -1.4581 -0.0973 -2.4322
10614SOL    HW233443   6.583   0.873   1.013  0.9924  2.5347 -1.5240
10615SOL     OW33444   0.554   4.920   0.316  0.1819  0.0694 -0.4382
10615SOL    HW133445   0.470   4.974   0.323  0.2899  0.1088  0.7842
10615SOL    HW233446   0.632   4.982   0.309  0.2299  0.0687  0.0376
10616SOL     OW33447   1.221   4.734   1.669  0.0302 -0.3107 -0.0594
10616SOL    HW133448   1.175   4.655   1.708 -1.3956  0.1144 -0.8138
10616SOL    HW233449   1.287   4.771   1.735 -0.2705 -1.3040  0.8104
10617SOL     OW33450   3.312   3.124   3.516 -0.3136 -0.0853 -0.0411
10617SOL    HW133451   3.278   3.131   3.610 -0.4773 -0.5420 -0.0660
10617SOL    HW233452   3.237   3.138   3.452 -0.5379 -1.4410 -0.0957
10618SOL     OW33453   3.202   2.289   6.691 -0.3657  0.1885  0.6486
10618SOL    HW133454   3.268   2.321   6.759  1.6561 -0.6477 -0.7954
10618SOL    HW233455   3.152   2.366   6.653  0.3300  0.9615  1.2636
10619SOL     OW33456   0.269   1.927   4.469 -0.1892  0.0370  0.2490
10619SOL    HW133457   0.283   1.934   4.568 -0.6463  2.0662  0.2290
10619SOL    HW233458   0.191   1.867   4.450 -0.9489  0.6791  1.2175
10620SOL     OW33459   1.088   5.813   0.980  0.2057 -0.1457  0.1385
10620SOL    HW133460   1.067   5.890   0.920  2.1935  1.7645  1.7151
10620SOL    HW233461   1.013   5.747   0.978 -1.7093  1.9427 -1.0540
10621SOL     OW33462   2.048   6.077   5.847  0.0714 -0.2907  0.3273
10621SOL    HW133463   2.111   6.152   5.866 -1.3854  0.8545  0.8498
10621SOL    HW233464   1.972   6.111   5.792  0.5796 -1.9627 -1.5216
10622SOL     OW33465   1.748   5.593   2.826 -0.3202  0.1194 -0.4009
10622SOL    HW133466   1.648   5.601   2.835 -0.2888 -0.0976  0.1713
10622SOL    HW233467   1.792   5.624   2.910  0.0118 -1.2625 -0.0291
10623SOL     OW33468   1.713   1.584   3.921  0.5502 -0.0959 -0.1876
10623SOL    HW133469   1.635   1.522   3.909  1.1497 -0.8744 -0.2149
10623SOL    HW233470   1.789   1.533   3.962  0.9275  0.7342  0.1524
10624SOL     OW33471   2.046   3.717   3.335 -0.3985  0.4634 -0.0993
10624SOL    HW133472   1.984   3.773   3.390 -1.2889 -0.4033 -0.1939
10624SOL    HW233473   2.008   3.706   3.243 -0.7251 -1.0663  0.1996
10625SOL     OW33474   6.362   3.883   3.533 -0.0884  0.6728  0.5326
10625SOL    HW133475   6.373   3.785   3.517  1.1432  1.1926 -2.4858
10625SOL    HW233476   6.283   3.917   3.482  0.9418  1.5868 -0.5472
10626SOL     OW33477   0.976   0.530   3.496  0.1157  0.8242  0.0942
10626SOL    HW133478   0.999   0.547   3.591 -0.9893  1.8268  0.2028
10626SOL    HW233479   0.888   0.483   3.490 -0.0055  1.1054 -0.4423
10627SOL     OW33480   1.199   5.214   1.901 -0.2594  0.1999 -0.0985
10627SOL    HW133481   1.127   5.175   1.958 -2.3515 -0.0916 -2.7612
10627SOL    HW233482   1.231   5.145   1.836  1.1912  0.8751 -0.1484
10628SOL     OW33483   4.986   3.656   3.547 -0.0836 -0.3452 -0.2074
10628SOL    HW133484   4.945   3.663   3.456 -1.2252 -0.1479  0.3024
10628SOL    HW233485   4.917   3.678   3.616  1.1368  0.9043  0.6578
10629SOL     OW33486   4.004   1.083   5.659  0.5561 -0.1297  0.2642
10629SOL    HW133487   4.070   1.097   5.586  0.4960 -0.0656  0.2218
10629SOL    HW233488   3.990   0.985   5.673  0.6107 -0.1425  0.2289
10630SOL     OW33489   4.188   6.046   2.776  0.0280 -0.2996 -0.1695
10630SOL    HW133490   4.128   5.966   2.779 -0.6632  0.2045 -0.2205
10630SOL    HW233491   4.165   6.101   2.695 -1.0221  1.0914  1.0282
10631SOL     OW33492   0.643   5.798   0.276 -0.0092 -0.2911  0.7442
10631SOL    HW133493   0.566   5.778   0.337 -0.5635 -0.6308 -0.0488
10631SOL    HW233494   0.662   5.718   0.219  1.5420 -0.5370  1.5575
10632SOL     OW33495   4.715   3.637   0.846  0.1841 -0.6861  0.1277
10632SOL    HW133496   4.644   3.669   0.783  1.2211  0.5410 -0.4604
10632SOL    HW233497   4.673   3.608   0.932 -0.9266  1.3558  0.3325
10633SOL     OW33498   1.824   0.876   4.184 -0.1380 -0.3095  0.1139
10633SOL    HW133499   1.848   0.860   4.280 -0.4959  2.4030  0.7443
10633SOL    HW233500   1.906   0.899   4.132 -0.0048 -1.3706 -0.1759
10634SOL     OW33501   6.709   2.890   4.453 -0.5962 -0.5335 -0.0653
10634SOL    HW133502   6.684   2.814   4.394  1.1833 -2.0679  1.0218
10634SOL    HW233503   6.809   2.898   4.456 -0.7248  2.6656 -1.0873
10635SOL     OW33504   5.779   0.021   0.336  0.2316 -0.1577  0.4227
10635SOL    HW133505   5.697   0.075   0.315 -0.2920 -1.0673  0.0914
10635SOL    HW233506   5.839   0.075   0.395  1.1088  1.9606 -2.2138
10636SOL     OW33507   2.651   0.130   5.651  0.3074  0.1544 -0.1756
10636SOL    HW133508   2.561   0.101   5.618  0.4765 -0.6543  0.0364
10636SOL    HW233509   2.645   0.157   5.747  0.4156 -0.6107  0.0573
10637SOL     OW33510   3.305   4.731   4.910 -0.7438 -0.3849  0.2370
10637SOL    HW133511   3.361   4.649   4.894  2.3825  1.7067 -0.3158
10637SOL    HW233512   3.300   4.749   5.008  1.5892  0.6187  0.2299
10638SOL     OW33513   1.855   6.173   1.635 -0.3654  0.2207 -0.1208
10638SOL    HW133514   1.883   6.269   1.638 -0.8368  0.3477  1.2235
10638SOL    HW233515   1.872   6.131   1.724 -1.9625 -0.4046 -0.0770
10639SOL     OW33516   3.159   4.969   1.137 -0.7144  0.1425 -0.6022
10639SOL    HW133517   3.072   4.997   1.176 -1.0056 -1.3206 -0.1292
10639SOL    HW233518   3.156   4.871   1.115  0.9306 -0.0389 -0.1776
10640SOL     OW33519   3.307   1.994   6.324 -0.3713  0.5201 -0.9177
10640SOL    HW133520   3.374   2.068   6.336 -0.9199  0.6621  2.0275
10640SOL    HW233521   3.352   1.915   6.281  1.6110  0.7825  0.5445
10641SOL     OW33522   4.594   5.817   0.010 -0.5050  0.1930  0.0035
10641SOL    HW133523   4.503   5.799   0.048 -0.5097  1.2048  0.5268
10641SOL    HW233524   4.635   5.895   0.059  1.8356 -1.9769  1.7898
10642SOL     OW33525   4.199   0.445   2.865 -0.2492  0.6972 -0.8205
10642SOL    HW133526   4.125   0.378   2.872 -0.0921  0.6886  1.6780
10642SOL    HW233527   4.278   0.403   2.821  0.1769 -1.1572  1.5150
10643SOL     OW33528   5.448   1.481   1.324 -0.2658  0.7377 -0.1517
10643SOL    HW133529   5.492   1.556   1.275  0.0441  1.0333  0.5570
10643SOL    HW233530   5.375   1.442   1.268  2.5426 -1.5275 -2.5836
10644SOL     OW33531   5.613   2.789   0.969 -0.2103 -0.1116 -0.6789
10644SOL    HW133532   5.644   2.701   0.933  1.9678 -0.3332  1.4803
10644SOL    HW233533   5.526   2.777   1.017  1.4662 -1.8592  2.1832
10645SOL     OW33534   2.848   4.099   3.209  0.1567  0.2002 -0.2002
10645SOL    HW133535   2.890   4.124   3.296  2.3654  0.7514 -1.3570
10645SOL    HW233536   2.919   4.076   3.143 -1.5055 -1.1835 -1.6061
10646SOL     OW33537   5.184   0.749   1.172 -0.2105 -0.5189  0.1279
10646SOL    HW133538   5.196   0.688   1.251  1.3331  1.3460  1.4577
10646SOL    HW233539   5.097   0.797   1.181 -0.3967 -0.8780  0.2835
10647SOL     OW33540   5.011   3.898   2.971 -0.3390 -0.2510  0.3762
10647SOL    HW133541   4.951   3.825   2.937 -0.4844  0.6973 -1.5609
10647SOL    HW233542   4.955   3.977   2.996 -0.0084  0.1636 -0.1740
10648SOL     OW33543   0.956   5.989   5.744  0.3679  0.4733 -0.8466
10648SOL    HW133544   0.957   5.977   5.645  1.6995 -0.6764 -0.7360
10648SOL    HW233545   0.971   5.900   5.788 -2.3812  0.5658  0.4765
10649SOL     OW33546   0.189   3.974   6.343  0.0524 -0.3900 -0.5111
10649SOL    HW133547   0.153   3.885   6.317 -0.0472 -0.0943 -1.4112
10649SOL    HW233548   0.188   4.035   6.264  1.2893  0.0370 -0.2135
   7.01825   7.01825   7.01825
