title       = NPT Equilibration 
;define      = -DPOSRES          ; position restrain the protein
; Run parameters
define= -DCNT
integrator  = md                ; leap-frog integrator
nsteps      = 5000000             ; 2 * 50000 = 100 ps
dt          = 0.002             ; 2 fs
; Output control
nstxout     = 10000              ; save coordinates every 2 ps
nstvout     = 10000              ; save velocities every 2 ps
nstenergy   = 10000              ; save energies every 2 ps
nstlog      = 10000              ; update log file every 2 ps
; Bond parameters
continuation         = no        ; Initial simulation 
constraint_algorithm = lincs     ; holonomic constraints 
constraints          = all-bonds ; all bonds (even heavy atom-H bonds) constrained
lincs_iter           = 1         ; accuracy of LINCS
lincs_order          = 4         ; also related to accuracy
; Neighborsearching
cutoff-scheme=Verlet
ns_type     = grid              ; search neighboring grid cels
nstlist     = 10                 ; 10 fs
rlist       = 1.4               ; short-range neighborlist cutoff (in nm)
rcoulomb    = 1.4               ; short-range electrostatic cutoff (in nm)
rvdw        = 1.4               ; short-range van der Waals cutoff (in nm)
; Electrostatics
coulombtype     = PME           ; Particle Mesh Ewald for long-range electrostatics
pme_order       = 4             ; cubic interpolation
fourierspacing  = 0.16          ; grid spacing for FFT
; Temperature coupling is on
tcoupl      = Berendsen             ; Weak coupling for initial equilibration 
tc-grps     = RNA SOL V3OU; two coupling groups - more accurate
tau_t       = 0.1       0.1   0.1      ; time constant, in ps
ref_t       = 310       310      310   ; reference temperature, one for each group, in K
; Pressure coupling is on
energygrps=RNA SOL V3OU
pcoupl              = Berendsen     ; Pressure coupling on in NPT, also weak coupling
pcoupltype          = isotropic     ; uniform scaling of x-y-z box vectors
tau_p               = 2.0           ; time constant, in ps
ref_p               = 1.0           ; reference pressure (in bar)
compressibility     = 4.5e-5        ; isothermal compressibility, bar^-1
refcoord_scaling    = com
; Periodic boundary conditions
pbc     = xyz                   ; 3-D PBC
; Dispersion correction
DispCorr    = EnerPres          ; account for cut-off vdW scheme
; Velocity generation
gen_vel     = yes               ; Velocity generation is on
gen_temp    = 310               ; temperature for velocity generation
gen_seed    = -1                ; random seed
; COM motion removal
; These options remove COM motion of the system
nstcomm         = 10
comm-mode       = Linear
comm-grps       = System 

