CNT in water
33548
    1C        C    1   2.302   4.533   3.307 -0.0707  0.2443 -0.1769
    1C        C    2   2.182   4.530   3.231 -0.1982 -0.0570  0.0384
    1C        C    3   2.062   4.542   3.304 -0.3663  0.1160 -0.2693
    1C        C    4   2.789   4.517   3.321  0.0664  0.6459  0.3318
    1C        C    5   2.667   4.504   3.249  0.3274 -0.0358  0.0042
    1C        C    6   2.543   4.520   3.316  0.1407 -0.3173 -0.2751
    1C        C    7   2.428   4.474   3.103  0.2581  0.0121 -0.0272
    1C        C    8   2.425   4.513   3.239 -0.0302  0.0174 -0.0389
    1C        C    9   2.309   4.453   3.031  0.3207  0.0926 -0.1443
    1C        C   10   2.186   4.491   3.093  0.3127 -0.4524  0.1650
    1C        C   11   2.075   4.415   2.884  0.0409 -0.2806  0.3075
    1C        C   12   2.081   4.496   2.998  0.2563 -0.2123  0.2462
    1C        C   13   3.274   4.513   3.325  0.2218  0.3047 -0.4398
    1C        C   14   3.152   4.500   3.255 -0.3627  0.3497  0.5576
    1C        C   15   3.029   4.513   3.325 -0.7399 -0.0480 -0.0208
    1C        C   16   2.909   4.454   3.115  0.7520 -0.4576 -0.2918
    1C        C   17   2.910   4.499   3.250 -0.4728  0.1694 -0.4850
    1C        C   18   2.787   4.431   3.047 -0.0129 -0.3252  0.9907
    1C        C   19   2.667   4.464   3.114 -0.5002 -0.0706  0.0097
    1C        C   20   2.547   4.360   2.921  0.1940 -0.7951 -0.2726
    1C        C   21   2.549   4.437   3.040 -0.1220 -0.5589 -0.4238
    1C        C   22   2.426   4.322   2.859 -0.2516 -0.0987  0.1562
    1C        C   23   2.307   4.377   2.911 -0.3036  0.0013 -0.0757
    1C        C   24   2.191   4.238   2.744 -0.4085 -0.2298 -0.3009
    1C        C   25   2.189   4.344   2.840 -0.2122 -0.5012  0.0048
    1C        C   26   2.075   4.185   2.683 -0.6323  0.1748 -0.2274
    1C        C   27   3.768   4.513   3.330  0.3633  0.0694 -0.2187
    1C        C   28   3.646   4.501   3.260  0.0186  0.3226  0.3376
    1C        C   29   3.523   4.518   3.328 -0.0590 -0.0936  0.3052
    1C        C   30   3.401   4.455   3.127 -0.6841  0.0960 -0.3603
    1C        C   31   3.400   4.500   3.261  0.2578 -0.0716 -0.2916
    1C        C   32   3.282   4.423   3.056 -0.4821 -0.0452 -0.6321
    1C        C   33   3.161   4.453   3.122  0.2745  0.4962  0.5457
    1C        C   34   3.035   4.354   2.938 -1.2333 -0.4680 -0.0932
    1C        C   35   3.036   4.426   3.059  0.8225 -0.0070 -0.3568
    1C        C   36   2.918   4.310   2.871 -0.7291 -0.9271 -0.6914
    1C        C   37   2.796   4.357   2.926  0.3062  0.2496  0.6586
    1C        C   38   2.670   4.222   2.766 -0.9655  0.2156 -0.0991
    1C        C   39   2.672   4.318   2.870  0.6217 -0.1843  0.2641
    1C        C   40   2.552   4.163   2.716 -0.5532  0.0183 -0.8617
    1C        C   41   2.430   4.217   2.764 -0.2014  0.2511 -0.2220
    1C        C   42   2.309   4.056   2.621 -0.3406  0.0022 -0.0779
    1C        C   43   2.310   4.171   2.704 -0.2192 -0.1387  0.1145
    1C        C   44   2.190   3.993   2.576 -0.2495 -0.0453 -0.2503
    1C        C   45   2.076   4.071   2.603 -0.1600 -0.0164  0.0446
    1C        C   46   4.257   4.525   3.336 -0.5075  0.0967 -0.0289
    1C        C   47   4.138   4.510   3.261 -0.5224  0.2574 -0.0319
    1C        C   48   4.017   4.521   3.333 -0.1227  0.2807  0.6388
    1C        C   49   3.891   4.465   3.129 -0.6459  0.1438 -0.2161
    1C        C   50   3.894   4.507   3.264  0.3660  0.0636 -0.2060
    1C        C   51   3.772   4.429   3.062 -0.4823 -0.2321 -0.3057
    1C        C   52   3.648   4.457   3.125 -0.0449  0.1446  0.3966
    1C        C   53   3.529   4.350   2.944  0.2957  0.2296  0.6270
    1C        C   54   3.524   4.425   3.064 -0.1638  0.3472  0.5374
    1C        C   55   3.406   4.310   2.886  0.7786 -0.2087 -0.1174
    1C        C   56   3.279   4.348   2.935  0.5692 -0.6817 -0.2815
    1C        C   57   3.167   4.212   2.776  0.8570  0.7795  0.7320
    1C        C   58   3.155   4.309   2.878 -0.3683  0.4997  0.8772
    1C        C   59   3.040   4.165   2.731  1.3284 -0.1185  0.2942
    1C        C   60   2.912   4.211   2.770  0.6975 -0.8866 -0.8294
    1C        C   61   2.800   4.045   2.640  0.3257  0.6659  0.6112
    1C        C   62   2.789   4.161   2.720 -0.4982  0.8099  0.3053
    1C        C   63   2.675   3.986   2.607  0.6996  0.2022  0.0051
    1C        C   64   2.550   4.045   2.638  0.3535 -0.3649 -0.3098
    1C        C   65   2.433   3.854   2.543  0.0170  0.3886 -0.1476
    1C        C   66   2.429   3.985   2.596 -0.1417  0.2174  0.2614
    1C        C   67   2.312   3.789   2.511  0.0747  0.2022  0.0278
    1C        C   68   2.190   3.861   2.519 -0.0081  0.1407 -0.6791
    1C        C   69   2.080   3.655   2.444  0.0375 -0.2601 -0.0323
    1C        C   70   2.073   3.790   2.479 -0.0034 -0.2857  0.0545
    1C        C   71   4.747   4.534   3.340  0.0922 -0.1778  0.0395
    1C        C   72   4.626   4.515   3.270  0.1808 -0.0146 -0.1643
    1C        C   73   4.503   4.528   3.338  0.2438  0.6527 -0.1699
    1C        C   74   4.386   4.468   3.134 -0.3148 -0.0949  0.6984
    1C        C   75   4.381   4.510   3.269 -0.1425  0.2146  0.6121
    1C        C   76   4.265   4.437   3.068  0.3067 -0.4407 -0.3104
    1C        C   77   4.139   4.466   3.126  0.5507 -0.3033  0.1522
    1C        C   78   4.024   4.360   2.947 -0.5001  0.4885  0.8328
    1C        C   79   4.014   4.437   3.066  0.0055  0.5252  0.8573
    1C        C   80   3.902   4.315   2.892  0.4891 -0.2405 -0.8380
    1C        C   81   3.775   4.352   2.943  0.7180 -0.1132 -0.3620
    1C        C   82   3.655   4.212   2.784 -0.5075  0.3187  0.3573
    1C        C   83   3.652   4.308   2.888  0.2219  0.2738  0.4257
    1C        C   84   3.532   4.161   2.735 -0.3826  0.0293  0.3512
    1C        C   85   3.409   4.214   2.782 -0.6791 -0.0333 -0.3522
    1C        C   86   3.282   4.043   2.648  0.2186 -0.5198 -0.8493
    1C        C   87   3.290   4.158   2.731 -0.2428 -0.3454 -1.0416
    1C        C   88   3.159   3.986   2.609 -0.8204  0.9157  0.2214
    1C        C   89   3.039   4.052   2.646 -1.4035 -0.1180  0.2471
    1C        C   90   2.917   3.851   2.554  0.2831 -1.0940 -0.1575
    1C        C   91   2.923   3.982   2.608 -0.7200 -1.0144 -0.2342
    1C        C   92   2.794   3.786   2.527 -0.5845  0.5115 -0.1839
    1C        C   93   2.674   3.857   2.550 -0.7343  0.1952  0.0126
    1C        C   94   2.554   3.647   2.493  0.3442 -0.5411  1.0153
    1C        C   95   2.555   3.786   2.522 -0.3743 -0.1967 -0.5355
    1C        C   96   2.432   3.575   2.483  0.0343  0.0766  0.2694
    1C        C   97   2.311   3.649   2.485  0.1060  0.1997  0.0510
    1C        C   98   2.192   3.431   2.464  0.0521  0.0376 -0.2759
    1C        C   99   2.193   3.574   2.469  0.2142  0.0243  0.0814
    1C        C  100   2.073   3.356   2.473  0.1324 -0.0800 -0.2091
    1C        C  101   4.977   4.591   3.335 -0.0218  0.1850  0.1064
    1C        C  102   4.869   4.484   3.130 -0.3114  0.3617 -0.0126
    1C        C  103   4.869   4.531   3.265  0.2840 -0.6856  0.3657
    1C        C  104   4.748   4.444   3.067 -0.3489 -0.0816  0.3352
    1C        C  105   4.627   4.470   3.135 -0.6241  0.0892 -0.2104
    1C        C  106   4.507   4.358   2.950  0.1270 -0.2606  0.0529
    1C        C  107   4.507   4.437   3.068 -0.6904 -0.3076  0.0984
    1C        C  108   4.383   4.317   2.895 -0.4116  0.7135  0.4995
    1C        C  109   4.260   4.362   2.948 -1.2057 -0.5839 -0.1800
    1C        C  110   4.143   4.214   2.784  1.2381 -0.4104 -0.1030
    1C        C  111   4.143   4.314   2.885 -1.3236 -0.1487 -0.2990
    1C        C  112   4.017   4.165   2.743  0.4239  0.6968  0.9741
    1C        C  113   3.894   4.217   2.790 -0.7029 -0.5487 -0.4676
    1C        C  114   3.781   4.040   2.658  1.1334 -0.4727  0.1393
    1C        C  115   3.777   4.156   2.739 -0.9734 -0.3592 -0.0868
    1C        C  116   3.657   3.983   2.621  0.7148  0.4721  0.0818
    1C        C  117   3.533   4.045   2.654  0.5890  0.2596  0.0275
    1C        C  118   3.413   3.856   2.565 -0.4221 -0.1504  0.3762
    1C        C  119   3.409   3.986   2.621  0.6773 -0.0243  0.1752
    1C        C  120   3.292   3.786   2.540 -0.2814 -0.2824  0.0759
    1C        C  121   3.169   3.853   2.560  0.4412  1.0622  0.0720
    1C        C  122   3.044   3.652   2.508 -0.6866 -0.0219  0.4470
    1C        C  123   3.044   3.790   2.539  0.8929 -0.0727  0.7038
    1C        C  124   2.924   3.576   2.497 -0.4407 -0.3329 -0.1068
    1C        C  125   2.802   3.648   2.497  0.0844  0.5724 -0.2959
    1C        C  126   2.677   3.439   2.497 -0.2438 -0.2476 -0.4455
    1C        C  127   2.678   3.581   2.488  0.4840 -0.2210  0.0917
    1C        C  128   2.557   3.365   2.503 -0.2063 -0.3336 -0.7343
    1C        C  129   2.434   3.434   2.488 -0.1394  0.0862  0.5857
    1C        C  130   2.312   3.222   2.522  0.0634 -0.1048  0.1593
    1C        C  131   2.314   3.360   2.486 -0.1139  0.0441  0.7089
    1C        C  132   2.190   3.151   2.540 -0.1288  0.0729 -0.4388
    1C        C  133   2.071   3.222   2.509 -0.2822 -0.0683 -0.1780
    1C        C  134   4.989   4.388   2.935  0.1527 -0.2315  0.3264
    1C        C  135   4.985   4.462   3.053 -0.0265 -0.8956  0.7465
    1C        C  136   4.872   4.334   2.879 -0.1223  0.6135  0.0652
    1C        C  137   4.751   4.371   2.945 -0.2019  0.3234  0.0921
    1C        C  138   4.631   4.217   2.796 -0.3715  0.0804 -0.3236
    1C        C  139   4.630   4.319   2.893  0.0682  0.1272 -0.3601
    1C        C  140   4.512   4.155   2.752 -0.4331 -0.2135  0.2475
    1C        C  141   4.392   4.212   2.799  0.1019  0.4988  0.7704
    1C        C  142   4.264   4.044   2.671 -0.5307 -0.6426 -0.3952
    1C        C  143   4.269   4.162   2.749  1.0442 -0.7136 -0.3739
    1C        C  144   4.146   3.974   2.633 -0.9754  0.0846 -0.3750
    1C        C  145   4.029   4.046   2.667 -0.2004  1.1168  0.1922
    1C        C  146   3.898   3.853   2.573 -0.2653 -0.8242  0.0114
    1C        C  147   3.908   3.983   2.628  0.8981 -0.7614 -0.3193
    1C        C  148   3.778   3.781   2.547 -0.8461  0.0461  0.2159
    1C        C  149   3.657   3.853   2.565 -0.6159  0.5026 -0.0319
    1C        C  150   3.533   3.647   2.520  0.2816  0.1412 -0.6416
    1C        C  151   3.534   3.786   2.544 -0.3759  0.0242  0.0812
    1C        C  152   3.411   3.576   2.513  0.3523 -0.0260 -0.1956
    1C        C  153   3.288   3.646   2.516  0.1911 -0.3166  0.1674
    1C        C  154   3.168   3.436   2.507  0.1976  0.5433 -0.0022
    1C        C  155   3.164   3.578   2.505 -0.3341  0.5401  0.6643
    1C        C  156   3.045   3.366   2.513  0.5397 -0.0770 -0.2529
    1C        C  157   2.922   3.435   2.505  0.3857 -0.3643 -0.3294
    1C        C  158   2.799   3.231   2.549 -0.1501  0.3669  0.1578
    1C        C  159   2.798   3.368   2.514  0.0335  0.3233 -0.0151
    1C        C  160   2.677   3.161   2.566  0.1409 -0.0894  0.3846
    1C        C  161   2.556   3.227   2.535  0.1772 -0.1356  0.1405
    1C        C  162   2.433   3.034   2.622  0.1127  0.0384  0.1684
    1C        C  163   2.434   3.159   2.555  0.1331 -0.1559 -0.1962
    1C        C  164   2.312   2.970   2.656  0.0822  0.0403  0.0625
    1C        C  165   2.193   3.019   2.595  0.2651  0.1971 -0.1686
    1C        C  166   2.080   2.830   2.701  0.5660  0.7094 -0.1473
    1C        C  167   2.089   2.923   2.597  0.4755 -0.0441 -0.8335
    1C        C  168   4.983   4.192   2.701 -0.0376  0.0725  0.4530
    1C        C  169   4.871   4.234   2.776 -0.0487  0.4224  0.2443
    1C        C  170   4.757   4.043   2.670  0.1260  0.4462  0.0954
    1C        C  171   4.752   4.165   2.744 -0.0271  0.4408  0.1066
    1C        C  172   4.635   3.979   2.637  0.6243 -0.3208 -0.2874
    1C        C  173   4.512   4.037   2.673  0.8240  0.0696 -0.2027
    1C        C  174   4.393   3.853   2.579  0.1030  0.8103  0.1651
    1C        C  175   4.386   3.981   2.639  0.3881  0.9843 -0.1605
    1C        C  176   4.272   3.783   2.555  0.9846 -0.6135 -0.2222
    1C        C  177   4.147   3.845   2.576  1.2627 -0.0767 -0.0800
    1C        C  178   4.028   3.646   2.525 -0.2939  0.9684 -0.4717
    1C        C  179   4.020   3.785   2.554  0.7522  0.9282  0.0498
    1C        C  180   3.906   3.574   2.515  0.5131 -0.4417 -0.3223
    1C        C  181   3.782   3.642   2.525  0.8331  0.1147 -0.0402
    1C        C  182   3.658   3.435   2.525 -0.4645  0.6374 -0.0021
    1C        C  183   3.656   3.577   2.518  0.5724  0.6398 -0.2658
    1C        C  184   3.535   3.365   2.534  0.0592 -0.2765  0.1560
    1C        C  185   3.412   3.435   2.520  0.2041 -0.0031  0.2686
    1C        C  186   3.286   3.226   2.557  0.1004  0.2579 -0.1109
    1C        C  187   3.289   3.364   2.525  0.0411  0.2636 -0.0820
    1C        C  188   3.162   3.160   2.575  0.1378  0.4013  0.6952
    1C        C  189   3.041   3.230   2.550  0.0369  0.1205  0.4156
    1C        C  190   2.920   3.035   2.639  0.0494  0.2619 -0.0390
    1C        C  191   2.920   3.162   2.577 -0.1546  0.3961  0.2391
    1C        C  192   2.797   2.974   2.671  0.3372 -0.1694  0.2552
    1C        C  193   2.676   3.035   2.630  0.3704 -0.3374 -0.0900
    1C        C  194   2.552   2.862   2.752 -0.2867 -0.0631 -0.2060
    1C        C  195   2.553   2.974   2.665  0.1971 -0.0403 -0.1761
    1C        C  196   2.431   2.809   2.801 -0.0268 -0.2537  0.2400
    1C        C  197   2.311   2.863   2.750  0.1737  0.2256  0.2751
    1C        C  198   2.187   2.714   2.900 -0.1523 -0.5200 -0.3469
    1C        C  199   2.190   2.797   2.783  0.2318 -0.0041  0.0216
    1C        C  200   2.069   2.697   2.976  0.1425  0.5807  0.3735
    1C        C  201   4.983   4.081   2.615 -0.3106  0.1916  0.2943
    1C        C  202   4.874   3.857   2.558  0.0887  0.1290 -0.3190
    1C        C  203   4.876   3.988   2.615 -0.0527 -0.1094  0.2524
    1C        C  204   4.752   3.785   2.539  0.1648 -0.1715  0.2776
    1C        C  205   4.633   3.851   2.577 -0.1056 -0.2873 -0.3486
    1C        C  206   4.513   3.643   2.525  0.3561  0.1235 -0.3680
    1C        C  207   4.512   3.781   2.555 -0.3760  0.0198  0.1186
    1C        C  208   4.390   3.574   2.519  0.2526  0.3151 -0.5253
    1C        C  209   4.267   3.644   2.526 -0.2208 -0.4696 -0.7734
    1C        C  210   4.149   3.429   2.517  0.3856  0.3038  0.1927
    1C        C  211   4.147   3.570   2.517 -0.7205  0.3013 -0.5651
    1C        C  212   4.024   3.363   2.523  0.4219  0.2404  0.3312
    1C        C  213   3.901   3.433   2.513  0.0290 -0.4388  0.3905
    1C        C  214   3.779   3.224   2.559  0.1683  0.5288  0.3262
    1C        C  215   3.779   3.362   2.527 -0.5525  0.4967  0.1700
    1C        C  216   3.655   3.160   2.583  0.2577  0.3230  0.2402
    1C        C  217   3.531   3.227   2.564 -0.0557 -0.2551  0.2383
    1C        C  218   3.407   3.031   2.645 -0.0144 -0.2171 -0.1280
    1C        C  219   3.408   3.160   2.585 -0.1522 -0.1405  0.0370
    1C        C  220   3.282   2.973   2.680 -0.1713  0.1512 -0.0745
    1C        C  221   3.161   3.034   2.639 -0.2851  0.3006  0.4874
    1C        C  222   3.039   2.856   2.760  0.6724 -0.0497  0.2134
    1C        C  223   3.041   2.970   2.677 -0.1903 -0.0609  0.1717
    1C        C  224   2.914   2.807   2.805  0.3037  0.4213 -0.2876
    1C        C  225   2.793   2.860   2.755 -0.1608 -0.2773  0.0827
    1C        C  226   2.672   2.715   2.912  0.4037  0.0133  0.0580
    1C        C  227   2.671   2.805   2.803 -0.3306  0.2537  0.2566
    1C        C  228   2.548   2.677   2.969  0.2229  0.3292 -0.1263
    1C        C  229   2.427   2.716   2.907 -0.1564 -0.2254  0.2593
    1C        C  230   2.304   2.604   3.091  0.3293 -0.3520 -0.0715
    1C        C  231   2.306   2.673   2.967 -0.2546 -0.7163 -0.2835
    1C        C  232   2.182   2.577   3.158  0.1829  0.2795 -0.0771
    1C        C  233   2.065   2.623   3.094  0.0065 -0.2513 -0.1454
    1C        C  234   4.992   3.651   2.492  0.3448 -0.1500  0.0224
    1C        C  235   4.992   3.784   2.533 -0.0132 -0.0226 -0.3768
    1C        C  236   4.875   3.573   2.486  0.2590  0.0099 -0.4794
    1C        C  237   4.754   3.647   2.503  0.2493 -0.1371  0.1372
    1C        C  238   4.635   3.430   2.507 -0.0612 -0.1734  0.1444
    1C        C  239   4.635   3.572   2.511  0.2978 -0.1809  0.5516
    1C        C  240   4.514   3.359   2.524 -0.3591  0.2737 -0.0565
    1C        C  241   4.393   3.433   2.518 -0.3271  0.2961 -0.5149
    1C        C  242   4.269   3.222   2.557 -0.0598 -0.2947  0.2667
    1C        C  243   4.272   3.359   2.523  0.0543 -0.2953  0.2606
    1C        C  244   4.145   3.157   2.581 -0.3042 -0.1955 -0.6642
    1C        C  245   4.024   3.227   2.561 -0.2212  0.0696 -0.2581
    1C        C  246   3.901   3.030   2.644  0.1392 -0.2778 -0.3485
    1C        C  247   3.902   3.158   2.584 -0.0891 -0.0197  0.1837
    1C        C  248   3.776   2.971   2.678  0.0317 -0.1517 -0.5259
    1C        C  249   3.653   3.032   2.642  0.0818  0.0509 -0.3472
    1C        C  250   3.530   2.859   2.765 -0.1588  0.0446 -0.2014
    1C        C  251   3.530   2.972   2.680  0.1305  0.0526 -0.1894
    1C        C  252   3.407   2.806   2.811 -0.1426  0.1309 -0.0706
    1C        C  253   3.284   2.858   2.763 -0.1009 -0.0916 -0.4121
    1C        C  254   3.156   2.712   2.915 -0.1980 -0.6041  0.3359
    1C        C  255   3.161   2.804   2.808  0.3888 -0.4805  0.4702
    1C        C  256   3.035   2.672   2.976 -0.5693 -0.0706 -0.0552
    1C        C  257   2.916   2.716   2.914 -0.2788  0.5100 -0.2035
    1C        C  258   2.787   2.603   3.094  0.0092  0.0735  0.5208
    1C        C  259   2.793   2.673   2.971  0.2036  0.2333  0.6259
    1C        C  260   2.666   2.577   3.163 -0.4258 -0.3145 -0.3726
    1C        C  261   2.547   2.610   3.094 -0.3716 -0.1960 -0.4093
    1C        C  262   2.423   2.534   3.293 -0.0712 -0.1322  0.3862
    1C        C  263   2.425   2.577   3.159  0.0957 -0.8092  0.1673
    1C        C  264   2.303   2.508   3.364 -0.0609 -0.4285  0.3000
    1C        C  265   2.183   2.518   3.289  0.1507  0.6332  0.0830
    1C        C  266   2.073   2.438   3.495  0.2067 -0.2376  0.0234
    1C        C  267   2.072   2.460   3.356  0.2772  0.4419  0.1266
    1C        C  268   4.983   3.343   2.465  0.2554 -0.2292 -0.0529
    1C        C  269   4.874   3.430   2.488  0.3611  0.0080 -0.4300
    1C        C  270   4.756   3.220   2.553 -0.2084  0.3475  0.2754
    1C        C  271   4.756   3.357   2.514  0.3035  0.4597  0.6501
    1C        C  272   4.635   3.151   2.578 -0.1511 -0.0175 -0.3958
    1C        C  273   4.514   3.221   2.556 -0.0369  0.1954 -0.3701
    1C        C  274   4.389   3.030   2.646  0.1507  0.1162  0.2309
    1C        C  275   4.391   3.154   2.579  0.1449 -0.0412 -0.0672
    1C        C  276   4.266   2.970   2.684 -0.1209  0.1515 -0.5621
    1C        C  277   4.144   3.031   2.646 -0.2949  0.0639 -0.1572
    1C        C  278   4.019   2.855   2.767  0.4985  0.0906  0.6919
    1C        C  279   4.022   2.968   2.682 -0.0209 -0.2988  0.1480
    1C        C  280   3.895   2.804   2.812 -0.1663  0.9989 -0.0620
    1C        C  281   3.774   2.859   2.764 -0.5495  0.4469  0.2575
    1C        C  282   3.650   2.713   2.920  0.3397 -0.0325  0.1857
    1C        C  283   3.652   2.804   2.812 -0.3561 -0.1753  0.0512
    1C        C  284   3.526   2.675   2.977  0.1292  0.1894 -0.1286
    1C        C  285   3.403   2.713   2.917  0.0553  0.3591  0.1332
    1C        C  286   3.281   2.609   3.100 -0.0971 -0.0281  0.0594
    1C        C  287   3.280   2.674   2.974  0.1252  0.2206  0.1885
    1C        C  288   3.159   2.581   3.166  0.3571 -0.4087  0.7452
    1C        C  289   3.035   2.609   3.103  0.8291 -0.1350 -0.0760
    1C        C  290   2.914   2.530   3.294 -0.5313 -0.4505 -0.6308
    1C        C  291   2.909   2.578   3.161  0.5680  0.3433 -0.3915
    1C        C  292   2.793   2.515   3.365 -0.0048 -0.9118  0.1692
    1C        C  293   2.670   2.535   3.298  0.4037 -0.7048 -0.5143
    1C        C  294   2.544   2.496   3.503 -0.3543 -0.0807 -0.3502
    1C        C  295   2.546   2.518   3.363  0.3756  0.3337 -0.2847
    1C        C  296   2.424   2.485   3.577 -0.0126  0.2328  0.2660
    1C        C  297   2.303   2.491   3.505 -0.0856  0.2676  0.3918
    1C        C  298   2.182   2.479   3.721  0.2218 -0.5076  0.3253
    1C        C  299   2.182   2.474   3.578 -0.1285  0.1675  0.2973
    1C        C  300   2.064   2.493   3.797  0.2435  0.1115  0.2471
    1C        C  301   4.988   3.209   2.507 -0.4090 -0.1612  0.2705
    1C        C  302   4.877   3.021   2.637 -0.1044  0.0605  0.5555
    1C        C  303   4.877   3.148   2.570 -0.4852 -0.1541  0.1458
    1C        C  304   4.754   2.959   2.672 -0.1627  0.1462  0.5116
    1C        C  305   4.634   3.022   2.635  0.0166 -0.0218 -0.3935
    1C        C  306   4.511   2.853   2.762 -0.4595 -0.1547 -0.1797
    1C        C  307   4.511   2.964   2.675  0.1346 -0.0457 -0.0525
    1C        C  308   4.391   2.801   2.815 -0.2356  0.1533  0.6525
    1C        C  309   4.269   2.855   2.766  0.2243  0.3303 -0.3161
    1C        C  310   4.141   2.713   2.918 -1.0768 -0.0054  0.3093
    1C        C  311   4.144   2.806   2.812  0.5859 -0.0371  0.3149
    1C        C  312   4.021   2.669   2.981 -0.8342 -0.3286  0.5485
    1C        C  313   3.901   2.712   2.919 -0.0276  0.4962 -0.4994
    1C        C  314   3.770   2.610   3.100 -0.9500 -0.3107 -0.1141
    1C        C  315   3.776   2.676   2.975  0.3783 -0.0954  0.0455
    1C        C  316   3.650   2.583   3.169 -0.5998 -0.4033  0.4615
    1C        C  317   3.528   2.613   3.104 -0.1410  0.0559 -0.1922
    1C        C  318   3.403   2.538   3.300  0.1347 -0.3288 -0.1446
    1C        C  319   3.404   2.583   3.166 -0.0455  0.0081 -0.0327
    1C        C  320   3.279   2.522   3.368  0.2767  0.1676  0.2355
    1C        C  321   3.156   2.538   3.301 -0.0693 -0.3710  0.7455
    1C        C  322   3.036   2.498   3.509  0.3640 -0.4132 -0.3989
    1C        C  323   3.033   2.516   3.369 -0.6866 -0.5499 -0.4039
    1C        C  324   2.910   2.494   3.574  0.3385 -0.0825 -0.4266
    1C        C  325   2.786   2.498   3.506 -0.0468 -0.1565  0.2619
    1C        C  326   2.666   2.497   3.719  0.1331  0.2785 -0.2824
    1C        C  327   2.664   2.492   3.578 -0.3876  0.1898 -0.2760
    1C        C  328   2.544   2.506   3.789  0.3645  0.0310  0.1544
    1C        C  329   2.422   2.494   3.718  0.2904 -0.0461  0.2908
    1C        C  330   2.303   2.532   3.931 -0.1679  0.3112  0.1009
    1C        C  331   2.303   2.497   3.793  0.2366 -0.1334  0.2120
    1C        C  332   2.181   2.549   4.003 -0.2490  0.3945 -0.0537
    1C        C  333   2.063   2.504   3.937 -0.1318 -0.4317  0.2882
    1C        C  334   4.989   2.837   2.757 -0.3776 -0.0873 -0.5411
    1C        C  335   4.994   2.955   2.682  0.2299  0.0409 -0.3109
    1C        C  336   4.869   2.783   2.808 -0.1440  0.1810  0.3087
    1C        C  337   4.751   2.848   2.761 -0.2715 -0.2985 -0.0392
    1C        C  338   4.632   2.705   2.922  0.2087  0.3239  0.1130
    1C        C  339   4.630   2.796   2.813 -0.4322 -0.3754 -0.4818
    1C        C  340   4.508   2.666   2.978  0.3119 -0.0131  0.1072
    1C        C  341   4.385   2.711   2.925  0.1175 -0.3051  0.3007
    1C        C  342   4.266   2.605   3.104  0.5167  0.5398 -0.4966
    1C        C  343   4.261   2.671   2.979 -0.4940  0.4312 -0.5215
    1C        C  344   4.141   2.579   3.166  0.8570 -0.3177 -0.1515
    1C        C  345   4.015   2.605   3.107  0.4846 -0.3684  0.6079
    1C        C  346   3.898   2.540   3.305  0.1361 -0.1645 -1.0031
    1C        C  347   3.890   2.581   3.169 -0.3864  0.1634 -0.8770
    1C        C  348   3.773   2.523   3.369  0.7370  0.0238  0.2542
    1C        C  349   3.648   2.540   3.304  0.5476  0.1177  0.6496
    1C        C  350   3.526   2.500   3.511  0.1844  0.0766 -0.0918
    1C        C  351   3.524   2.520   3.371  0.1592  0.0142 -0.0996
    1C        C  352   3.402   2.496   3.579  0.1055  0.1618 -0.2353
    1C        C  353   3.280   2.502   3.508 -0.1703  0.2020  0.2406
    1C        C  354   3.153   2.505   3.722 -0.0615  0.0907  0.3790
    1C        C  355   3.158   2.498   3.580 -0.0834  0.0634  0.3798
    1C        C  356   3.029   2.513   3.790 -0.6637 -0.0709 -0.6721
    1C        C  357   2.909   2.500   3.716 -0.8420  0.1886 -0.4345
    1C        C  358   2.787   2.555   3.923  0.2144  0.8413  0.3116
    1C        C  359   2.789   2.509   3.789 -0.2932  0.3507  0.4633
    1C        C  360   2.665   2.578   3.991 -0.1137  0.1649 -0.0226
    1C        C  361   2.545   2.542   3.926 -0.1155 -0.3858  0.2738
    1C        C  362   2.422   2.646   4.112 -0.1865  0.4413 -0.1070
    1C        C  363   2.424   2.566   3.995 -0.1163  0.1389  0.0984
    1C        C  364   2.300   2.686   4.172 -0.2534  0.1116 -0.0178
    1C        C  365   2.178   2.634   4.119 -0.3648  0.4274 -0.0791
    1C        C  366   2.061   2.792   4.263 -0.4258  0.3531 -0.0695
    1C        C  367   2.062   2.675   4.187 -0.2610  0.1174  0.2928
    1C        C  368   4.981   2.610   2.957  0.1069 -0.0380  0.1536
    1C        C  369   4.868   2.679   2.906  0.1389 -0.0432  0.0756
    1C        C  370   4.748   2.587   3.105  0.0831 -0.1874 -0.0164
    1C        C  371   4.750   2.650   2.977  0.1393  0.2619  0.2018
    1C        C  372   4.625   2.563   3.170 -0.1649  0.0465 -0.3926
    1C        C  373   4.506   2.597   3.102 -0.4689  0.2066  0.2186
    1C        C  374   4.381   2.527   3.306  0.3002 -0.2514  0.5263
    1C        C  375   4.386   2.571   3.172 -0.2127  0.1928  0.6537
    1C        C  376   4.258   2.515   3.374 -0.4164  0.7774 -0.5657
    1C        C  377   4.139   2.537   3.301 -0.8822  0.7952  0.1903
    1C        C  378   4.014   2.508   3.517  0.5571 -0.4689  0.4241
    1C        C  379   4.020   2.527   3.377 -0.6683  0.1866  0.4508
    1C        C  380   3.889   2.506   3.583  0.0255 -0.3928 -0.5645
    1C        C  381   3.768   2.506   3.509 -0.4228 -0.5289  0.1586
    1C        C  382   3.646   2.511   3.724  0.1865 -0.5146  0.5990
    1C        C  383   3.648   2.501   3.583 -0.1986 -0.0786  0.5617
    1C        C  384   3.522   2.519   3.792 -0.0608 -0.3182  0.1268
    1C        C  385   3.401   2.504   3.720  0.1049  0.0187 -0.2277
    1C        C  386   3.276   2.561   3.923 -0.5100 -0.1436  0.0459
    1C        C  387   3.277   2.517   3.788  0.1901  0.4114 -0.1376
    1C        C  388   3.154   2.591   3.989 -0.3800  0.0982  0.1804
    1C        C  389   3.033   2.558   3.924  0.1220 -0.1213 -0.6684
    1C        C  390   2.907   2.663   4.105 -0.1016 -0.2296  0.2940
    1C        C  391   2.909   2.586   3.987  0.5377  0.1760  0.0309
    1C        C  392   2.786   2.707   4.164 -0.0391  0.0741  0.2051
    1C        C  393   2.666   2.655   4.110  0.0745 -0.2250  0.2321
    1C        C  394   2.539   2.802   4.260 -0.3901  0.4479 -0.5337
    1C        C  395   2.543   2.698   4.165 -0.0136  0.2832 -0.3450
    1C        C  396   2.418   2.857   4.307 -0.3118 -0.0849  0.3170
    1C        C  397   2.299   2.791   4.269 -0.2903 -0.0168  0.1213
    1C        C  398   2.175   2.968   4.396  0.3552 -0.5002  0.8062
    1C        C  399   2.179   2.852   4.313 -0.3037 -0.0445  0.1250
    1C        C  400   2.061   3.025   4.458  0.2756 -0.1524  0.3446
    1C        C  401   4.982   2.537   3.077  0.6331  0.3337  0.3789
    1C        C  402   4.866   2.502   3.301  0.1216 -0.8172 -0.3752
    1C        C  403   4.869   2.540   3.163  0.1815 -0.1442 -0.1862
    1C        C  404   4.745   2.492   3.375  0.0705 -0.1201 -0.3640
    1C        C  405   4.626   2.510   3.302  0.1643 -0.4576 -0.5960
    1C        C  406   4.504   2.489   3.514 -0.1662 -0.0065  0.1242
    1C        C  407   4.504   2.505   3.373  0.5617 -0.0424  0.1204
    1C        C  408   4.384   2.493   3.588 -0.2128 -0.0735  0.0467
    1C        C  409   4.263   2.500   3.515  0.2273 -0.0388 -0.6728
    1C        C  410   4.136   2.511   3.724 -0.3998 -0.2666  0.1747
    1C        C  411   4.139   2.500   3.583  0.6979 -0.1918  0.1915
    1C        C  412   4.015   2.528   3.796 -0.4302 -0.2977  0.1263
    1C        C  413   3.894   2.515   3.724 -0.0408 -0.0016 -0.5867
    1C        C  414   3.767   2.569   3.926  0.0035 -0.1033  0.1579
    1C        C  415   3.770   2.524   3.792  0.3725 -0.2131  0.2036
    1C        C  416   3.644   2.597   3.989 -0.2018  0.1594 -0.3500
    1C        C  417   3.521   2.565   3.926 -0.3571  0.0438  0.0031
    1C        C  418   3.398   2.670   4.107  0.5387 -0.3702  0.0113
    1C        C  419   3.397   2.592   3.989 -0.4387 -0.4388  0.0570
    1C        C  420   3.274   2.716   4.157  0.4944 -0.0427 -0.3894
    1C        C  421   3.150   2.670   4.106  0.1746  0.2565  0.0987
    1C        C  422   3.028   2.814   4.260  0.2567  0.0824 -0.2003
    1C        C  423   3.027   2.714   4.160 -0.0097 -0.0946 -0.0231
    1C        C  424   2.905   2.863   4.309  0.2641 -0.1187  0.0251
    1C        C  425   2.783   2.807   4.264  0.0904  0.2004  0.0870
    1C        C  426   2.659   2.980   4.383 -0.0730 -0.0228 -0.3197
    1C        C  427   2.659   2.860   4.309 -0.2000  0.2126 -0.7109
    1C        C  428   2.537   3.046   4.412  0.0762 -0.0734  0.4503
    1C        C  429   2.417   2.980   4.377  0.1111 -0.0099  0.2004
    1C        C  430   2.294   3.173   4.469 -0.1576  0.1994 -0.1717
    1C        C  431   2.295   3.041   4.416  0.1162  0.1267  0.0092
    1C        C  432   2.174   3.234   4.516 -0.1495  0.3064 -0.2818
    1C        C  433   2.059   3.151   4.516  0.0441  0.0337 -0.0602
    1C        C  434   4.984   2.489   3.521 -0.2986  0.8139 -0.5008
    1C        C  435   4.981   2.503   3.382  0.2823 -0.0358 -0.6060
    1C        C  436   4.864   2.477   3.594 -0.0215  0.0646 -0.1657
    1C        C  437   4.745   2.480   3.517  0.1146 -0.6680 -0.4111
    1C        C  438   4.625   2.495   3.730  0.0402 -0.2638 -0.4443
    1C        C  439   4.623   2.480   3.589  0.1212 -0.6109 -0.4047
    1C        C  440   4.504   2.512   3.800  0.2895  0.4684 -0.1852
    1C        C  441   4.381   2.503   3.730  0.1979 -0.1520  0.0575
    1C        C  442   4.258   2.563   3.931 -0.0634  0.0606 -0.4548
    1C        C  443   4.257   2.519   3.796 -0.0477  0.1022 -0.4638
    1C        C  444   4.137   2.592   3.998  0.2611 -0.0003  0.1520
    1C        C  445   4.014   2.568   3.932  0.3206 -0.0235  0.0546
    1C        C  446   3.889   2.674   4.112 -0.1496 -0.0798 -0.1394
    1C        C  447   3.889   2.597   3.992  0.1944  0.2445 -0.3424
    1C        C  448   3.766   2.718   4.166 -0.0542 -0.1571  0.1309
    1C        C  449   3.645   2.673   4.109  0.0763 -0.1440 -0.1565
    1C        C  450   3.516   2.817   4.261  0.0283  0.1197  0.1139
    1C        C  451   3.521   2.716   4.162  0.2976  0.0097  0.2376
    1C        C  452   3.394   2.873   4.306 -0.2206 -0.0594 -0.3260
    1C        C  453   3.274   2.818   4.255 -0.2107  0.2060 -0.6428
    1C        C  454   3.148   2.989   4.381  0.0682  0.0865  0.4106
    1C        C  455   3.151   2.872   4.301  0.0698  0.5480 -0.2814
    1C        C  456   3.024   3.049   4.415 -0.0704 -0.1463  0.3313
    1C        C  457   2.902   2.984   4.383 -0.0224  0.0077 -0.1866
    1C        C  458   2.780   3.177   4.471  0.0566 -0.1514  0.0337
    1C        C  459   2.780   3.047   4.416 -0.0738  0.0223 -0.3939
    1C        C  460   2.657   3.246   4.490  0.1174  0.0785 -0.3699
    1C        C  461   2.536   3.176   4.468  0.0270  0.0857  0.0907
    1C        C  462   2.415   3.381   4.523 -0.2004 -0.0079 -0.0547
    1C        C  463   2.414   3.244   4.488 -0.0511 -0.0564  0.1217
    1C        C  464   2.293   3.451   4.538 -0.0317  0.2093  0.3439
    1C        C  465   2.174   3.375   4.538 -0.0604  0.2513  0.0769
    1C        C  466   2.053   3.589   4.567 -0.3680  0.1131 -0.3162
    1C        C  467   2.056   3.449   4.559 -0.1865  0.1049 -0.1170
    1C        C  468   4.979   2.478   3.819 -0.5573  0.0660  0.0786
    1C        C  469   4.863   2.483   3.738 -0.3582  0.3940 -0.1817
    1C        C  470   4.741   2.550   3.941 -0.0930 -0.0853 -0.0433
    1C        C  471   4.742   2.496   3.809 -0.2966 -0.3072  0.0496
    1C        C  472   4.621   2.591   4.002 -0.0714 -0.0770 -0.0184
    1C        C  473   4.501   2.562   3.932 -0.0885  0.1199 -0.0628
    1C        C  474   4.378   2.671   4.115  0.1468 -0.2736 -0.0219
    1C        C  475   4.380   2.593   3.997 -0.1893  0.0068 -0.2094
    1C        C  476   4.256   2.716   4.170  0.2071 -0.2281  0.0634
    1C        C  477   4.133   2.672   4.115  0.0885  0.1021  0.0716
    1C        C  478   4.011   2.819   4.266  0.0006 -0.0948 -0.2097
    1C        C  479   4.011   2.716   4.170 -0.1086 -0.0472 -0.2560
    1C        C  480   3.888   2.876   4.305  0.3703  0.6458 -0.1158
    1C        C  481   3.764   2.821   4.263  0.6181  0.0434 -0.0662
    1C        C  482   3.640   2.990   4.384 -0.1613 -0.2765 -0.3776
    1C        C  483   3.639   2.872   4.306  0.3852 -0.3595 -0.2682
    1C        C  484   3.519   3.053   4.420  0.1910  0.2658 -0.1131
    1C        C  485   3.396   2.990   4.385  0.4024  0.0858 -0.5520
    1C        C  486   3.271   3.182   4.467 -0.1431 -0.0392 -0.5247
    1C        C  487   3.271   3.049   4.416  0.3687 -0.1763 -0.1716
    1C        C  488   3.147   3.247   4.490 -0.0833  0.0390 -0.4104
    1C        C  489   3.024   3.180   4.468 -0.1333 -0.0482  0.0945
    1C        C  490   2.899   3.385   4.520  0.1897  0.0575 -0.0877
    1C        C  491   2.901   3.246   4.493 -0.0690 -0.0544  0.4419
    1C        C  492   2.777   3.456   4.531  0.0124 -0.2986  0.2711
    1C        C  493   2.656   3.384   4.519 -0.1581  0.0992 -0.4717
    1C        C  494   2.535   3.597   4.534  0.1105 -0.0212 -0.4054
    1C        C  495   2.535   3.456   4.534 -0.1874 -0.0221 -0.0928
    1C        C  496   2.412   3.668   4.526  0.0371 -0.0741  0.2332
    1C        C  497   2.293   3.594   4.536 -0.1315  0.2080  0.3269
    1C        C  498   2.170   3.797   4.480  0.2469 -0.0308 -0.2162
    1C        C  499   2.169   3.663   4.531 -0.2496 -0.0402 -0.2497
    1C        C  500   2.050   3.856   4.434  0.2201 -0.4031 -0.6253
    1C        C  501   4.976   2.517   3.953 -0.2919  0.2624  0.0253
    1C        C  502   4.865   2.670   4.121  0.1389  0.1947  0.1238
    1C        C  503   4.862   2.581   4.009 -0.3027  0.0222  0.2728
    1C        C  504   4.742   2.719   4.175 -0.0081 -0.0993  0.0453
    1C        C  505   4.622   2.674   4.117  0.0237 -0.1654  0.0387
    1C        C  506   4.498   2.816   4.274  0.0002 -0.2589  0.1945
    1C        C  507   4.499   2.717   4.173  0.0495 -0.0449 -0.0087
    1C        C  508   4.376   2.873   4.317 -0.0711 -0.3773  0.1366
    1C        C  509   4.255   2.819   4.268 -0.1003 -0.1950  0.0192
    1C        C  510   4.131   2.994   4.390  0.1786 -0.2851  0.2277
    1C        C  511   4.133   2.875   4.313 -0.0708 -0.1980  0.0894
    1C        C  512   4.007   3.054   4.421  0.2149 -0.1028  0.0251
    1C        C  513   3.884   2.993   4.385 -0.0993  0.4787  0.1105
    1C        C  514   3.762   3.186   4.472 -0.0101 -0.1365  0.3361
    1C        C  515   3.761   3.054   4.420 -0.3957  0.0742 -0.2111
    1C        C  516   3.638   3.251   4.495  0.0334 -0.1886  0.7313
    1C        C  517   3.516   3.184   4.474 -0.0539  0.0980  0.2942
    1C        C  518   3.392   3.387   4.526 -0.4395  0.0001 -0.3682
    1C        C  519   3.392   3.249   4.493 -0.2115 -0.0523 -0.1640
    1C        C  520   3.269   3.456   4.536 -0.2919  0.2352 -0.1074
    1C        C  521   3.147   3.385   4.523 -0.1320 -0.0989  0.1995
    1C        C  522   3.021   3.595   4.525 -0.2749  0.2573  0.0802
    1C        C  523   3.023   3.453   4.527  0.0645  0.2615  0.2324
    1C        C  524   2.900   3.669   4.521 -0.4066  0.0226 -0.4352
    1C        C  525   2.778   3.597   4.529 -0.1998 -0.2999 -0.1226
    1C        C  526   2.654   3.807   4.494  0.2522  0.2184  0.2593
    1C        C  527   2.656   3.668   4.520  0.0469  0.0971 -0.3655
    1C        C  528   2.533   3.876   4.470  0.1031 -0.1450 -0.0361
    1C        C  529   2.412   3.804   4.488  0.1074 -0.2371 -0.3645
    1C        C  530   2.289   4.001   4.404  0.1217  0.2686  0.4668
    1C        C  531   2.290   3.871   4.463  0.1980  0.1451  0.1939
    1C        C  532   2.167   4.062   4.364  0.0784 -0.3501 -0.3862
    1C        C  533   2.050   3.987   4.387  0.0265 -0.1062  0.1801
    1C        C  534   4.979   2.823   4.275 -0.0062 -0.0024 -0.0741
    1C        C  535   4.983   2.723   4.179  0.3162  0.0002 -0.0644
    1C        C  536   4.860   2.871   4.333 -0.0808  0.1752 -0.3734
    1C        C  537   4.740   2.816   4.278 -0.1435 -0.0055 -0.0516
    1C        C  538   4.616   2.985   4.407 -0.0234 -0.1470  0.3145
    1C        C  539   4.618   2.869   4.327 -0.0762  0.0019  0.1009
    1C        C  540   4.495   3.052   4.437 -0.0224  0.0240 -0.0651
    1C        C  541   4.375   2.990   4.396  0.1127 -0.0462 -0.3508
    1C        C  542   4.251   3.184   4.486 -0.1315 -0.0092 -0.2248
    1C        C  543   4.253   3.054   4.429  0.1751 -0.0414 -0.1407
    1C        C  544   4.128   3.252   4.503 -0.1407 -0.1229  0.1731
    1C        C  545   4.007   3.183   4.478 -0.1338 -0.0012 -0.2063
    1C        C  546   3.884   3.391   4.526  0.1541  0.1401 -0.3310
    1C        C  547   3.884   3.252   4.498 -0.0589  0.0428  0.1199
    1C        C  548   3.759   3.459   4.533  0.0267 -0.1140 -0.0488
    1C        C  549   3.636   3.390   4.525 -0.0251 -0.0383  0.0560
    1C        C  550   3.515   3.601   4.537  0.1031 -0.3800  0.3792
    1C        C  551   3.513   3.460   4.537 -0.2338 -0.3825 -0.0196
    1C        C  552   3.390   3.667   4.528  0.4251  0.2034  0.0450
    1C        C  553   3.267   3.598   4.533  0.3896  0.2525 -0.0397
    1C        C  554   3.145   3.804   4.487 -0.0982 -0.1945  0.5904
    1C        C  555   3.143   3.666   4.520  0.0549 -0.2841  0.2503
    1C        C  556   3.023   3.872   4.466  0.3489  0.4959  0.2108
    1C        C  557   2.900   3.807   4.489  0.4988  0.1320  0.0018
    1C        C  558   2.777   3.998   4.402 -0.1959  0.1288  0.5886
    1C        C  559   2.777   3.873   4.468  0.3804  0.0841  0.5120
    1C        C  560   2.655   4.061   4.367  0.0161  0.1917 -0.0489
    1C        C  561   2.533   4.002   4.407  0.1848 -0.1257  0.0017
    1C        C  562   2.412   4.172   4.279  0.1155 -0.0840  0.1240
    1C        C  563   2.411   4.062   4.368  0.1756  0.0935  0.3504
    1C        C  564   2.292   4.231   4.232  0.2450 -0.0925 -0.2214
    1C        C  565   2.172   4.184   4.288  0.3067 -0.2526 -0.2206
    1C        C  566   2.061   4.365   4.163  0.2696  0.1260  0.2626
    1C        C  567   2.060   4.266   4.262  0.1835 -0.4443 -0.3012
    1C        C  568   4.968   3.020   4.505 -0.3047 -0.1365  0.2126
    1C        C  569   4.857   2.975   4.431  0.0094  0.3930 -0.6031
    1C        C  570   4.734   3.173   4.515 -0.1261  0.0956  0.0414
    1C        C  571   4.735   3.043   4.457 -0.0217  0.1208 -0.0063
    1C        C  572   4.615   3.248   4.529 -0.2436 -0.1983  0.6290
    1C        C  573   4.495   3.181   4.493 -0.1598  0.0665 -0.1675
    1C        C  574   4.373   3.390   4.539 -0.1460  0.1641 -0.5635
    1C        C  575   4.373   3.251   4.512 -0.1608  0.1571 -0.5184
    1C        C  576   4.251   3.462   4.544 -0.1919  0.0187  0.4107
    1C        C  577   4.129   3.391   4.530 -0.0816 -0.1111  0.1145
    1C        C  578   4.004   3.602   4.538  0.0743  0.2102  0.1536
    1C        C  579   4.007   3.461   4.535  0.0948  0.2160 -0.0660
    1C        C  580   3.881   3.672   4.530 -0.3525 -0.5869 -0.4504
    1C        C  581   3.759   3.600   4.536 -0.6475 -0.0999 -0.4659
    1C        C  582   3.635   3.810   4.497  0.1112  0.4185 -0.1981
    1C        C  583   3.637   3.672   4.529 -0.3723  0.3964 -0.2396
    1C        C  584   3.511   3.874   4.472 -0.1789 -0.0903 -0.0780
    1C        C  585   3.389   3.805   4.495 -0.3243  0.2241  0.1131
    1C        C  586   3.268   3.999   4.404  0.2769  0.2046  0.3079
    1C        C  587   3.268   3.872   4.466 -0.3837  0.3201  0.5596
    1C        C  588   3.145   4.058   4.367  0.2456  0.0757  0.1930
    1C        C  589   3.021   3.998   4.400  0.0406  0.3723 -0.0222
    1C        C  590   2.902   4.172   4.278  0.2329 -0.0194  0.2471
    1C        C  591   2.899   4.058   4.361 -0.2387 -0.0261  0.2282
    1C        C  592   2.778   4.226   4.235  0.2789 -0.0780  0.0339
    1C        C  593   2.654   4.173   4.280  0.1295  0.1794 -0.0688
    1C        C  594   2.537   4.320   4.124  0.0575 -0.0546 -0.0432
    1C        C  595   2.533   4.224   4.228  0.0245  0.2853  0.2756
    1C        C  596   2.417   4.366   4.066  0.0943 -0.2341 -0.2640
    1C        C  597   2.295   4.326   4.126  0.0513 -0.1845 -0.3133
    1C        C  598   2.177   4.444   3.949 -0.0004  0.5857  0.1238
    1C        C  599   2.174   4.384   4.079 -0.1063 -0.5960 -0.4186
    1C        C  600   2.061   4.463   3.872  0.4277  0.1384 -0.6386
    1C        C  601   4.965   3.147   4.565 -0.0511 -0.0953  0.1386
    1C        C  602   4.858   3.379   4.562  0.0161  0.0161 -0.4045
    1C        C  603   4.854   3.236   4.556  0.0847  0.0175 -0.4584
    1C        C  604   4.739   3.457   4.559  0.0296  0.0348 -0.4235
    1C        C  605   4.616   3.387   4.552  0.0756 -0.0843 -0.0659
    1C        C  606   4.494   3.602   4.549  0.2161 -0.1725 -0.2110
    1C        C  607   4.495   3.460   4.551  0.0244 -0.1737 -0.3064
    1C        C  608   4.373   3.674   4.539  0.4047  0.2119  0.2129
    1C        C  609   4.250   3.603   4.544  0.5116  0.0262  0.2360
    1C        C  610   4.129   3.811   4.507 -0.0433 -0.2757 -0.1070
    1C        C  611   4.127   3.672   4.535  0.3586 -0.2952 -0.1686
    1C        C  612   4.007   3.878   4.481  0.0832 -0.1493 -0.3801
    1C        C  613   3.884   3.811   4.500  0.3169 -0.5968 -0.4501
    1C        C  614   3.762   4.002   4.415 -0.1335 -0.0082  0.3598
    1C        C  615   3.760   3.875   4.476  0.4478 -0.0740  0.2498
    1C        C  616   3.638   4.058   4.375 -0.0395 -0.0759 -0.0303
    1C        C  617   3.513   4.000   4.408 -0.0425 -0.0725 -0.0388
    1C        C  618   3.391   4.169   4.278  0.1896  0.1958 -0.2063
    1C        C  619   3.391   4.059   4.367  0.1386  0.1422 -0.2726
    1C        C  620   3.268   4.220   4.230 -0.2502 -0.4467  0.2233
    1C        C  621   3.145   4.169   4.279 -0.4914  0.0036  0.0937
    1C        C  622   3.025   4.319   4.125  0.3645  0.6298 -0.0735
    1C        C  623   3.024   4.224   4.230 -0.1536  0.5335 -0.1592
    1C        C  624   2.901   4.362   4.070 -0.0568  0.3545  0.6533
    1C        C  625   2.779   4.319   4.128 -0.2183 -0.1659 -0.0534
    1C        C  626   2.660   4.431   3.943  0.3025  0.1081 -0.1846
    1C        C  627   2.659   4.361   4.066 -0.0588  0.0889 -0.1943
    1C        C  628   2.539   4.462   3.877  0.1247 -0.4471 -0.1246
    1C        C  629   2.416   4.440   3.945  0.0783  0.2736  0.0408
    1C        C  630   2.295   4.506   3.739  0.0327  0.2006  0.0317
    1C        C  631   2.297   4.477   3.880  0.0563  0.2000  0.0339
    1C        C  632   2.176   4.525   3.664  0.1336 -0.3548 -0.2727
    1C        C  633   2.059   4.515   3.743 -0.1568  0.1110 -0.6420
    1C        C  634   4.973   3.595   4.560  0.0146  0.2309 -0.0548
    1C        C  635   4.976   3.456   4.555 -0.0923  0.2258  0.0258
    1C        C  636   4.856   3.672   4.545  0.0844  0.2370 -0.5707
    1C        C  637   4.734   3.599   4.555  0.2463  0.0624  0.1669
    1C        C  638   4.614   3.812   4.513  0.2028 -0.1319 -0.4013
    1C        C  639   4.615   3.675   4.549  0.1668 -0.0952 -0.2645
    1C        C  640   4.493   3.879   4.484  0.0999 -0.1961 -0.1209
    1C        C  641   4.370   3.811   4.505 -0.0646  0.1966  0.1805
    1C        C  642   4.250   4.008   4.420  0.3385 -0.0185 -0.0199
    1C        C  643   4.249   3.882   4.485 -0.1681 -0.0649 -0.1137
    1C        C  644   4.126   4.064   4.380 -0.0512 -0.7240  0.1760
    1C        C  645   4.004   4.006   4.419 -0.4721  0.0261 -0.0021
    1C        C  646   3.882   4.175   4.288  0.5426  0.1953 -0.0221
    1C        C  647   3.883   4.067   4.379 -0.3709  0.2973  0.1095
    1C        C  648   3.758   4.221   4.236  0.1513 -0.5322  0.2624
    1C        C  649   3.637   4.167   4.284 -0.1685 -0.0701 -0.0215
    1C        C  650   3.514   4.313   4.126 -0.1141  0.4831 -0.1227
    1C        C  651   3.515   4.219   4.233  0.1069  0.4125 -0.1904
    1C        C  652   3.394   4.359   4.068 -0.3215  0.4104  0.2501
    1C        C  653   3.272   4.315   4.125 -0.0094 -0.2169  0.4379
    1C        C  654   3.148   4.430   3.947 -0.0700  0.1722 -0.2418
    1C        C  655   3.149   4.357   4.068  0.4306  0.1203 -0.2764
    1C        C  656   3.027   4.460   3.881 -0.2330 -0.0520 -0.0452
    1C        C  657   2.905   4.432   3.948  0.0407  0.2009  0.5661
    1C        C  658   2.782   4.500   3.745 -0.2762  0.2876 -0.0014
    1C        C  659   2.784   4.462   3.881  0.3616  0.1856 -0.0318
    1C        C  660   2.661   4.515   3.673 -0.2226  0.0516 -0.1493
    1C        C  661   2.538   4.502   3.742 -0.1664 -0.5601 -0.1577
    1C        C  662   2.418   4.532   3.528 -0.2034  0.4240 -0.1185
    1C        C  663   2.417   4.518   3.669 -0.0724  0.4548 -0.1129
    1C        C  664   2.301   4.542   3.450 -0.2478 -0.2703 -0.1457
    1C        C  665   2.178   4.544   3.522 -0.3283 -0.3659 -0.2823
    1C        C  666   2.061   4.552   3.442 -0.2780  0.3520 -0.2859
    1C        C  667   4.978   3.882   4.485  0.3319  0.4923  0.0827
    1C        C  668   4.858   3.812   4.512  0.3607  0.3036 -0.2695
    1C        C  669   4.736   4.007   4.424 -0.2017 -0.1477 -0.4224
    1C        C  670   4.735   3.879   4.487  0.1782  0.1066  0.0934
    1C        C  671   4.615   4.070   4.384 -0.1942  0.0312 -0.1509
    1C        C  672   4.495   4.005   4.420 -0.0652 -0.2307 -0.1940
    1C        C  673   4.373   4.178   4.295 -0.2885  0.0660 -0.5070
    1C        C  674   4.373   4.068   4.384  0.1675 -0.0140 -0.6075
    1C        C  675   4.253   4.229   4.241 -0.3277  0.2084 -0.2790
    1C        C  676   4.132   4.174   4.290  0.2955 -0.5264  0.4393
    1C        C  677   4.007   4.314   4.134 -0.6774 -0.0522 -0.0054
    1C        C  678   4.008   4.221   4.242  0.6426 -0.1263 -0.0692
    1C        C  679   3.887   4.356   4.072 -0.3719  0.4661 -0.2402
    1C        C  680   3.765   4.313   4.128  0.2233 -0.0548  0.6714
    1C        C  681   3.640   4.425   3.952 -0.6196  0.0250  0.5456
    1C        C  682   3.640   4.354   4.075  0.3076  0.0969  0.5957
    1C        C  683   3.521   4.453   3.882 -0.1306  0.0062 -0.3067
    1C        C  684   3.396   4.428   3.944  0.0369 -0.0224  0.0133
    1C        C  685   3.272   4.500   3.749  0.0363 -0.1616 -0.1012
    1C        C  686   3.272   4.460   3.884  0.0705 -0.0808 -0.0805
    1C        C  687   3.150   4.515   3.677 -0.0306 -0.0601  0.0365
    1C        C  688   3.027   4.501   3.745 -0.0954 -0.3692 -0.1415
    1C        C  689   2.905   4.527   3.534  0.0683  0.3567  0.0983
    1C        C  690   2.905   4.514   3.675 -0.1882 -0.2341  0.0441
    1C        C  691   2.783   4.526   3.462 -0.0917 -0.0078  0.3725
    1C        C  692   2.660   4.528   3.532 -0.4065 -0.0982 -0.1637
    1C        C  693   2.540   4.529   3.457 -0.3187 -0.0084 -0.3038
    1C        C  694   4.977   4.003   4.418  0.2638  0.3110 -0.2457
    1C        C  695   4.859   4.188   4.302 -0.0057 -0.0706  0.1658
    1C        C  696   4.857   4.070   4.383 -0.0495  0.0536  0.3424
    1C        C  697   4.737   4.233   4.247  0.1756 -0.2664 -0.3877
    1C        C  698   4.616   4.179   4.295  0.1475  0.2513  0.1206
    1C        C  699   4.496   4.325   4.140  0.0239  0.0212  0.2514
    1C        C  700   4.494   4.234   4.248  0.0123  0.1227  0.3320
    1C        C  701   4.374   4.365   4.079  0.2973  0.3008 -0.1115
    1C        C  702   4.251   4.319   4.131  0.2555  0.3213 -0.1965
    1C        C  703   4.133   4.434   3.955  0.0797 -0.6425  0.3097
    1C        C  704   4.127   4.360   4.076 -0.2944 -0.7636  0.2158
    1C        C  705   4.009   4.461   3.892  0.3010 -0.6728 -0.1373
    1C        C  706   3.884   4.430   3.951 -0.0579 -0.0290 -0.5556
    1C        C  707   3.765   4.504   3.752  0.0004  0.2912  0.5540
    1C        C  708   3.761   4.460   3.887 -0.6145 -0.4302  0.3080
    1C        C  709   3.642   4.515   3.682  0.2678  0.0530  0.0477
    1C        C  710   3.518   4.500   3.749  0.0942  0.1556 -0.2590
    1C        C  711   3.396   4.529   3.539 -0.4229  0.1755 -0.1478
    1C        C  712   3.395   4.516   3.680 -0.0003 -0.2531 -0.1837
    1C        C  713   3.275   4.527   3.466 -0.2669 -0.0631 -0.3999
    1C        C  714   3.152   4.524   3.536 -0.0224 -0.4424  0.0122
    1C        C  715   3.029   4.522   3.466 -0.0086  0.2900 -0.0359
    1C        C  716   4.970   4.376   4.183  0.2950 -0.0226 -0.0845
    1C        C  717   4.972   4.267   4.272 -0.0835 -0.0810 -0.1483
    1C        C  718   4.857   4.390   4.098  0.0699 -0.4033  0.1511
    1C        C  719   4.735   4.334   4.146 -0.2218  0.0565 -0.0530
    1C        C  720   4.617   4.452   3.965 -0.1970  0.2331  0.0150
    1C        C  721   4.615   4.377   4.085 -0.1853  0.2467  0.0187
    1C        C  722   4.496   4.476   3.896 -0.2637  0.1853  0.1244
    1C        C  723   4.375   4.440   3.959 -0.4293  0.1053 -0.2414
    1C        C  724   4.253   4.509   3.756  0.0697 -0.4649 -0.5129
    1C        C  725   4.254   4.469   3.892 -0.4060 -0.3602 -0.4786
    1C        C  726   4.131   4.514   3.684 -0.3205 -0.5071  0.1454
    1C        C  727   4.010   4.499   3.756 -0.4566 -0.4089 -0.0694
    1C        C  728   3.887   4.529   3.543 -0.2951  0.1034 -0.1072
    1C        C  729   3.889   4.517   3.684 -0.3484  0.2105 -0.0982
    1C        C  730   3.765   4.525   3.471 -0.2164  0.1697 -0.2419
    1C        C  731   3.642   4.526   3.541 -0.0582 -0.1036  0.0381
    1C        C  732   3.520   4.529   3.469 -0.1865  0.3000  0.2733
    1C        C  733   4.977   4.495   3.906 -0.2326 -0.0728  0.7224
    1C        C  734   4.858   4.462   3.974 -0.4219  0.5113  0.6719
    1C        C  735   4.742   4.537   3.769  0.2816 -0.0103  0.0472
    1C        C  736   4.738   4.493   3.904 -0.1622  0.3013  0.1376
    1C        C  737   4.623   4.536   3.693  0.4372 -0.3186 -0.1904
    1C        C  738   4.500   4.517   3.760  0.5357 -0.2718  0.0044
    1C        C  739   4.380   4.539   3.549  0.3175 -0.4947  0.1619
    1C        C  740   4.377   4.528   3.691  0.4286 -0.4410  0.1669
    1C        C  741   4.258   4.536   3.477  0.3902 -0.8617  0.0524
    1C        C  742   4.134   4.530   3.544  0.4282 -0.2871  0.1845
    1C        C  743   4.010   4.530   3.474  0.1508 -0.1062  0.6774
    1C        C  744   4.978   4.554   3.780 -0.0908 -0.0969  0.7129
    1C        C  745   4.864   4.573   3.555  0.4270 -0.7527  0.0920
    1C        C  746   4.863   4.560   3.698  0.2866  0.5122  0.2177
    1C        C  747   4.746   4.552   3.481  0.3485 -0.1534  0.0399
    1C        C  748   4.624   4.544   3.552  0.2212 -0.2013 -0.1845
    1C        C  749   4.503   4.537   3.479  0.1626  0.3527 -0.1514
    1C        C  750   4.974   4.610   3.474  0.2959 -0.1893  0.1667
    1C        O  751   5.077   2.469   4.037 -0.2930  0.5878  0.2122
    1C        H  752   5.171   2.448   4.005  0.3178 -1.8240  3.0933
    1C        O  753   5.048   3.173   4.674  0.5565 -0.4193 -0.2422
    1C        H  754   5.124   3.107   4.683  0.3194 -0.8912 -1.5867
    1C        O  755   5.061   2.421   3.066 -0.1056 -0.1351 -0.1041
    1C        H  756   5.141   2.414   3.004  0.2679 -1.3317  0.4828
    1C        O  757   5.042   4.491   4.216 -0.4121  0.4131 -0.0330
    1C        H  758   5.112   4.475   4.287 -0.3118 -0.1545 -0.2583
    1C        O  759   5.079   4.659   3.267 -0.3196  0.3145 -0.2101
    1C        H  760   5.144   4.711   3.324  0.4109 -0.1771 -0.5747
    1C        O  761   5.063   3.126   2.421 -0.3852  0.2558 -0.1183
    1C        H  762   5.129   3.176   2.364 -0.3539 -0.7037 -0.9418
    1C        O  763   5.065   4.098   2.502  0.1436 -0.6469  0.4862
    1C        H  764   5.120   4.183   2.501  0.8569 -1.1048  0.7102
    1C        O  765   1.965   2.425   3.998 -0.6700 -0.0133 -0.0266
    1C        H  766   1.903   2.374   3.937 -0.7931  1.5814 -1.2899
    1C        O  767   1.980   2.373   3.296  0.1735  0.4484  0.2784
    1C        H  768   1.904   2.342   3.355  0.2390 -0.0542  0.1020
    1C        O  769   1.970   3.645   4.665  0.2325  0.3321  0.0756
    1C        H  770   1.908   3.583   4.715 -0.1857  0.9888  0.3888
    1C        O  771   2.020   2.888   2.480  0.0325 -0.2914 -0.5036
    1C        H  772   1.950   2.816   2.492  1.1396 -1.4960 -0.9087
    1C        O  773   1.943   3.824   2.518  0.1945  0.4046  0.1266
    1C        H  774   1.872   3.776   2.465  0.0538 -0.9677  1.4794
    1C        O  775   1.983   4.597   3.000 -0.0054 -0.4595 -0.0666
    1C        H  776   1.916   4.600   2.925 -0.1915 -2.4369 -0.0428
    1C        O  777   1.950   4.449   4.169  0.0899 -0.0417 -0.5626
    1C        H  778   1.882   4.421   4.239  0.8688  1.3318  0.8247
    1C        H  779   5.075   2.722   4.123  0.1041  0.4067 -0.4270
    1C        H  780   5.065   2.888   4.276  0.7368 -0.8794  2.9546
    1C        H  781   5.049   2.954   4.533 -0.5072 -0.0316  1.0835
    1C        H  782   5.066   3.414   4.597 -0.0797 -0.2693 -0.4792
    1C        H  783   5.056   3.639   4.612 -0.0298  2.0666 -1.4101
    1C        H  784   5.053   2.402   3.798 -0.3122  0.0022  1.1451
    1C        H  785   5.078   2.512   3.567 -0.8222  0.3002  0.8574
    1C        H  786   5.079   2.505   3.337 -0.1498  0.5175 -1.5508
    1C        H  787   5.063   2.590   2.891 -0.7111 -2.5794 -0.2064
    1C        H  788   5.074   2.772   2.741 -1.5476 -1.5019 -1.1821
    1C        H  789   5.093   2.992   2.659 -0.4187  0.6847 -2.2703
    1C        H  790   5.080   3.387   2.446  0.4782 -0.5159  0.3851
    1C        H  791   5.071   3.633   2.421 -0.2647 -0.6528 -0.5316
    1C        H  792   5.087   3.814   2.575  0.1322 -0.1825 -0.5914
    1C        H  793   5.079   4.237   2.717  0.1116  0.0354 -0.2755
    1C        H  794   5.077   4.405   2.874  0.3717 -0.6640  0.5098
    1C        H  795   5.081   4.498   3.087 -1.0007  1.6207  1.0110
    1C        H  796   5.062   4.650   3.520  0.0513  0.2693  0.2458
    1C        H  797   5.054   4.628   3.762  0.0636 -0.2767  0.6227
    1C        H  798   5.072   4.506   3.956 -0.0394 -0.0297  0.3500
    1C        H  799   5.072   4.230   4.288  0.1629 -0.6751 -2.7182
    1C        H  800   5.064   4.064   4.437  1.2970 -0.3867 -2.4293
    1C        H  801   5.075   3.839   4.501  0.1649  0.3737  0.8142
    1C        H  802   1.955   3.410   4.551 -0.7428  1.7256 -1.9510
    1C        H  803   1.965   3.184   4.557 -0.6765  0.2590 -1.8167
    1C        H  804   1.962   2.997   4.426  0.2362 -1.3589  1.4280
    1C        H  805   1.961   2.829   4.278 -0.7767 -0.7674  0.4131
    1C        H  806   1.965   2.639   4.158 -0.7522  0.2503  1.6944
    1C        H  807   1.985   2.554   3.756  1.0423  2.0744  1.4568
    1C        H  808   2.034   2.340   3.516 -0.7679  0.1835  0.2543
    1C        H  809   1.969   2.631   3.145 -0.8017 -1.1304 -1.4592
    1C        H  810   1.979   2.755   2.961 -0.6161 -0.6806 -0.0699
    1C        H  811   1.999   2.758   2.692 -0.6175  2.0050 -0.2932
    1C        H  812   1.974   3.176   2.504 -0.6577  0.8259 -1.9365
    1C        H  813   1.986   3.392   2.419  0.4090  0.2970 -0.4086
    1C        H  814   2.017   3.624   2.362  1.6336 -0.0757 -1.3711
    1C        H  815   1.982   4.040   2.559 -0.2124 -0.7330  0.6455
    1C        H  816   1.981   4.409   2.831  0.0117  0.4889  0.2588
    1C        H  817   1.976   4.222   2.705 -0.1321  1.1489  0.4607
    1C        H  818   1.968   4.519   3.256  0.1381 -0.0119 -1.2247
    1C        H  819   1.961   4.549   3.483 -0.5125  1.5806 -0.7161
    1C        H  820   1.974   4.579   3.727  0.5255  1.6013  1.3454
    1C        H  821   1.962   4.454   3.914  0.4796  3.9456  0.7014
    1C        H  822   1.979   4.279   4.333 -1.5079 -0.5392 -2.1093
    1C        H  823   1.964   4.003   4.324 -0.3123  0.0930  0.6838
    1C        H  824   1.962   3.798   4.409 -0.1751  0.0100 -0.2270
    2V3OU   H29  825   4.279   2.030   3.648  0.8866  0.2478  1.7620
    2V3OU   C27  826   4.296   2.140   3.635 -0.0818  0.2380  0.0415
    2V3OU   H27  827   4.223   2.197   3.699  0.0438 -1.2561  1.6001
    2V3OU   H28  828   4.405   2.166   3.647 -0.7916  2.9865  1.4925
    2V3OU   O11  829   4.273   2.171   3.498  0.0312  0.1708  0.0073
    2V3OU   C15  830   4.150   2.171   3.435 -0.0350  0.3384  0.1357
    2V3OU   C13  831   4.157   2.179   3.294  0.5209  0.1394  0.1486
    2V3OU   C14  832   4.039   2.198   3.222  0.5594  0.9780  0.2878
    2V3OU   C16  833   3.916   2.194   3.287  0.4246 -0.3489 -0.0266
    2V3OU    H6  834   3.822   2.188   3.230 -0.3025  0.3239  1.0720
    2V3OU   C12  835   4.037   2.235   3.079 -0.2063  0.3872  0.1364
    2V3OU    O2  836   3.932   2.263   3.017 -0.3073  0.3723  0.2960
    2V3OU   C10  837   4.166   2.262   3.014 -0.0852 -0.8526 -0.1611
    2V3OU    C8  838   4.166   2.304   2.882  0.5124  0.2741  0.1831
    2V3OU   O10  839   4.058   2.360   2.819  0.5689  0.0865 -0.0868
    2V3OU   H26  840   3.988   2.327   2.879 -0.8915  1.6465 -0.8709
    2V3OU    C6  841   4.291   2.314   2.815  0.2908 -0.5193 -0.3636
    2V3OU    C5  842   4.408   2.277   2.881  0.5791  0.3794 -0.3499
    2V3OU    C4  843   4.300   2.396   2.690 -0.1148 -0.5594 -0.4222
    2V3OU    H4  844   4.232   2.349   2.613  2.2749 -2.3197 -1.6136
    2V3OU    H5  845   4.267   2.501   2.715  1.5384  0.3934 -1.9752
    2V3OU    C2  846   4.430   2.410   2.610 -0.1866 -0.0809 -0.4569
    2V3OU    O6  847   4.459   2.284   2.548  0.3300 -0.2463  0.1181
    2V3OU   H21  848   4.525   2.253   2.612  1.4673  2.0457  0.1699
    2V3OU    C3  849   4.544   2.417   2.712  0.1291 -0.3989 -0.7840
    2V3OU    H2  850   4.642   2.405   2.660  0.8689  0.8944  0.2548
    2V3OU    H3  851   4.534   2.517   2.760 -2.6062 -1.5358  1.3571
    2V3OU   C25  852   4.435   2.524   2.508 -0.2203 -0.0946 -0.4750
    2V3OU    O7  853   4.371   2.627   2.527 -0.0430 -0.1170  0.2930
    2V3OU   C26  854   4.523   2.505   2.385 -0.0942  0.7675 -0.5252
    2V3OU   H22  855   4.508   2.586   2.309  1.5218  2.5731  0.9928
    2V3OU   H23  856   4.495   2.409   2.334  2.1468 -0.5430  0.5513
    2V3OU    O8  857   4.661   2.487   2.406 -0.4095 -0.3201  0.7500
    2V3OU   H24  858   4.709   2.571   2.405 -0.8078 -0.0799 -0.5850
    2V3OU    C1  859   4.541   2.312   2.822  0.7211  0.3130 -0.0754
    2V3OU    H1  860   4.618   2.336   2.901  0.4585  0.8161  0.0298
    2V3OU    O3  861   4.584   2.198   2.745  0.0670  0.1723 -0.2381
    2V3OU   C19  862   4.689   2.122   2.805 -0.0591  0.0648 -0.1533
    2V3OU    H9  863   4.707   2.114   2.917 -0.0692 -1.1328 -0.2224
    2V3OU    O4  864   4.807   2.188   2.768 -0.3408  0.4831 -0.3147
    2V3OU   C20  865   4.852   2.179   2.632 -0.2125  0.0389 -0.2438
    2V3OU   H10  866   4.778   2.247   2.580 -1.5332 -0.3901  0.9913
    2V3OU   C24  867   4.680   1.980   2.750  0.0500  0.1155 -0.3001
    2V3OU   H16  868   4.574   1.945   2.758  0.9293 -3.0033 -0.9029
    2V3OU   H17  869   4.750   1.914   2.808  2.0072  0.9019 -1.6305
    2V3OU   C23  870   4.719   1.988   2.602  0.0989 -0.3288 -0.3131
    2V3OU   H15  871   4.641   2.058   2.557  0.2647 -0.3459 -0.6319
    2V3OU    N1  872   4.703   1.851   2.558  0.1616 -0.4396  0.0055
    2V3OU   H19  873   4.606   1.840   2.533  0.4751 -0.3729 -1.3324
    2V3OU   H20  874   4.747   1.843   2.468 -0.8200 -0.5151 -0.4841
    2V3OU   C21  875   4.860   2.043   2.563  0.1960 -0.1845  0.2407
    2V3OU   H11  876   4.848   2.066   2.454 -0.6992 -0.2709  0.3096
    2V3OU    O5  877   4.979   1.967   2.580  0.1483 -0.3671 -0.2295
    2V3OU   H18  878   5.014   1.966   2.671  0.3411 -0.9844 -0.3112
    2V3OU   C22  879   4.984   2.254   2.638 -0.2712  0.0899  0.5015
    2V3OU   H12  880   4.981   2.335   2.716  0.4138  0.9790 -0.3633
    2V3OU   H13  881   5.002   2.304   2.540  1.8051 -2.1448 -0.3367
    2V3OU   H14  882   5.069   2.184   2.656  0.7935  1.2579  0.1513
    2V3OU   C11  883   4.287   2.185   3.226  0.3103 -0.9289 -0.3658
    2V3OU    O1  884   4.396   2.152   3.278  0.0777 -0.4530  0.4413
    2V3OU    C9  885   4.283   2.218   3.081  0.1285 -0.4355 -0.2521
    2V3OU    C7  886   4.404   2.224   3.014 -0.0621 -0.1817 -0.5834
    2V3OU    O9  887   4.526   2.195   3.072 -0.5263 -0.0078  0.5039
    2V3OU   H25  888   4.489   2.165   3.156  0.1034 -0.7777  0.5193
    2V3OU   C17  889   4.024   2.177   3.498 -0.1104  0.4120 -0.0208
    2V3OU    H7  890   4.025   2.156   3.605  0.9594 -1.5498 -0.3634
    2V3OU   C18  891   3.906   2.187   3.425 -0.1522 -0.2932 -0.0601
    2V3OU    H8  892   3.814   2.211   3.480  1.2170  1.7059  1.5950
    3V3OU   H29  893   4.489   4.588   4.646  1.2320 -1.6890 -0.1944
    3V3OU   C27  894   4.483   4.585   4.534 -0.2027 -0.4064 -0.1746
    3V3OU   H27  895   4.524   4.680   4.490  0.0690  0.5908  2.0657
    3V3OU   H28  896   4.531   4.496   4.486  3.5091  2.4921 -2.4361
    3V3OU   O11  897   4.343   4.596   4.508 -0.1405 -0.1955 -0.4286
    3V3OU   C15  898   4.259   4.490   4.537  0.4458 -0.8029 -0.9008
    3V3OU   C13  899   4.124   4.503   4.498  0.2578  0.3038  0.0636
    3V3OU   C14  900   4.016   4.435   4.557  0.0239  0.3138 -0.3555
    3V3OU   C16  901   4.047   4.348   4.661  0.1963 -0.2499 -0.8690
    3V3OU    H6  902   3.969   4.290   4.712  0.8120 -0.9616 -0.7247
    3V3OU   C12  903   3.874   4.450   4.516 -0.0211  0.4700 -0.1434
    3V3OU    O2  904   3.790   4.363   4.546  0.5333  0.0865  0.3380
    3V3OU   C10  905   3.844   4.560   4.424 -0.3480  0.5499  0.0607
    3V3OU    C8  906   3.710   4.585   4.396 -0.5409  0.3442  0.7932
    3V3OU   O10  907   3.608   4.532   4.470 -0.6738 -0.1595  0.2566
    3V3OU   H26  908   3.651   4.461   4.521  1.4984 -0.1461 -1.4097
    3V3OU    C6  909   3.681   4.678   4.292 -0.0671 -0.0338  0.3190
    3V3OU    C5  910   3.784   4.752   4.235 -0.1404 -0.5025 -0.4375
    3V3OU    C4  911   3.543   4.700   4.241  0.1367  0.1434 -0.1656
    3V3OU    H4  912   3.522   4.608   4.177 -0.8955  0.9206 -0.9828
    3V3OU    H5  913   3.471   4.707   4.327 -0.8949  1.8470 -1.1035
    3V3OU    C2  914   3.520   4.817   4.146 -0.0347  0.1149 -0.1611
    3V3OU    O6  915   3.549   4.771   4.013 -0.2289  0.0406 -0.1783
    3V3OU   H21  916   3.644   4.789   4.007 -0.2878  0.0904 -1.0050
    3V3OU    C3  917   3.614   4.933   4.180  0.0393  0.0737 -0.2217
    3V3OU    H2  918   3.598   5.022   4.114  0.8483  1.9901  2.0388
    3V3OU    H3  919   3.598   4.965   4.286  1.9330 -0.7589  0.3464
    3V3OU   C25  920   3.373   4.858   4.156  0.0216  0.3730 -0.3528
    3V3OU    O7  921   3.335   4.973   4.181 -0.4485  0.1385  0.0462
    3V3OU   C26  922   3.266   4.756   4.121  0.4220 -0.0608 -0.3225
    3V3OU   H22  923   3.285   4.711   4.020  0.1805  1.1092 -0.9047
    3V3OU   H23  924   3.165   4.803   4.128  0.4414  0.7463 -3.9016
    3V3OU    O8  925   3.262   4.646   4.209 -0.4797  0.0308 -0.2393
    3V3OU   H24  926   3.173   4.608   4.216  0.1475 -1.9701 -1.9955
    3V3OU    C1  927   3.756   4.881   4.163  0.0870  0.0067  0.3618
    3V3OU    H1  928   3.834   4.953   4.201  2.0405 -1.0600 -1.3898
    3V3OU    O3  929   3.786   4.873   4.023  0.1787  0.4275  0.3560
    3V3OU   C19  930   3.828   4.994   3.961 -0.3326  0.4377  0.0230
    3V3OU    H9  931   3.787   5.088   4.009  0.5237  1.9163 -1.9873
    3V3OU    O4  932   3.778   4.988   3.829  0.0558  0.0556 -0.1081
    3V3OU   C20  933   3.824   4.883   3.744 -0.1426 -0.1674  0.0611
    3V3OU   H10  934   3.804   4.788   3.802  1.1183 -0.0484  0.7384
    3V3OU   C24  935   3.981   4.993   3.962 -0.3355 -0.2666  0.1551
    3V3OU   H16  936   4.015   4.986   4.069 -1.8285  1.8250  0.8318
    3V3OU   H17  937   4.020   5.093   3.931 -2.0513  1.1080  2.1067
    3V3OU   C23  938   4.026   4.879   3.871 -0.2202 -0.0887 -0.0130
    3V3OU   H15  939   3.980   4.782   3.911 -0.0410 -1.0476 -2.0120
    3V3OU    N1  940   4.170   4.870   3.885 -0.1814 -0.2233 -0.4993
    3V3OU   H19  941   4.211   4.961   3.897 -1.0677  0.4950 -2.3861
    3V3OU   H20  942   4.188   4.819   3.969  0.6799  0.0108 -0.5250
    3V3OU   C21  943   3.976   4.884   3.724 -0.1476 -0.9499 -0.0770
    3V3OU   H11  944   4.003   4.782   3.685 -1.5927 -1.4964  0.2866
    3V3OU    O5  945   4.031   4.986   3.641 -0.0776 -0.5388  0.4689
    3V3OU   H18  946   4.127   4.988   3.650 -0.0751  0.1656  0.3057
    3V3OU   C22  947   3.731   4.888   3.624 -0.1553 -1.3920  0.0063
    3V3OU   H12  948   3.772   4.829   3.538 -0.7192 -1.3252 -0.3118
    3V3OU   H13  949   3.722   4.993   3.587  0.4411 -2.0039 -2.0100
    3V3OU   H14  950   3.627   4.858   3.654 -1.6164  2.4513 -0.6704
    3V3OU   C11  951   4.092   4.583   4.379 -0.2190 -0.5440 -0.3895
    3V3OU    O1  952   4.174   4.613   4.290  0.1818  0.1078  0.1899
    3V3OU    C9  953   3.952   4.630   4.365 -0.0810 -0.0599 -0.1795
    3V3OU    C7  954   3.920   4.728   4.272 -0.1122 -0.2625 -0.3833
    3V3OU    O9  955   4.018   4.816   4.229  0.1455 -0.1130  0.5013
    3V3OU   H25  956   4.099   4.770   4.256  0.4130 -0.6048 -1.0579
    3V3OU   C17  957   4.286   4.390   4.633  0.1210 -0.4877 -0.4759
    3V3OU    H7  958   4.389   4.358   4.649 -0.1695 -2.1026 -1.6078
    3V3OU   C18  959   4.180   4.327   4.696  0.0058  0.5550  0.4167
    3V3OU    H8  960   4.196   4.233   4.752 -0.1137 -0.5841 -1.3693
    4V3OU   H29  961   3.238   3.033   4.875 -0.1195 -1.7585 -0.9269
    4V3OU   C27  962   3.314   3.058   4.797  0.3371  0.0122  0.0343
    4V3OU   H27  963   3.336   2.972   4.729 -1.1505 -1.7230  1.6429
    4V3OU   H28  964   3.267   3.144   4.744 -1.7283 -0.4360  1.0341
    4V3OU   O11  965   3.429   3.123   4.853  0.1069  0.0425  0.4765
    4V3OU   C15  966   3.416   3.244   4.917  0.1685  0.3296 -0.0514
    4V3OU   C13  967   3.542   3.296   4.953  0.1277  0.3183  0.1010
    4V3OU   C14  968   3.573   3.432   4.959 -0.0976  0.3707  0.0465
    4V3OU   C16  969   3.471   3.525   4.942  0.0748  0.3937 -0.8953
    4V3OU    H6  970   3.495   3.631   4.926  1.6211  0.1000 -0.6814
    4V3OU   C12  971   3.708   3.480   4.920  0.0088 -0.4292 -0.5874
    4V3OU    O2  972   3.746   3.594   4.886 -0.0038 -0.2313  0.0560
    4V3OU   C10  973   3.814   3.384   4.950 -0.0643 -0.3027  0.0665
    4V3OU    C8  974   3.948   3.420   4.940 -0.0138 -0.3988  0.4189
    4V3OU   O10  975   3.995   3.544   4.912  0.1710 -0.5525  0.0529
    4V3OU   H26  976   3.913   3.587   4.883  0.7004  1.2353  1.0364
    4V3OU    C6  977   4.052   3.333   4.986  0.1774 -0.1486  0.4540
    4V3OU    C5  978   4.019   3.208   5.037 -0.3208 -0.0689  0.3254
    4V3OU    C4  979   4.195   3.374   4.987  0.1004  0.1232  0.2457
    4V3OU    H4  980   4.212   3.458   4.914 -2.5050 -0.5291 -1.2446
    4V3OU    H5  981   4.214   3.418   5.090 -1.3168 -1.5745  1.2826
    4V3OU    C2  982   4.291   3.260   4.955 -0.2147  0.0795 -0.5686
    4V3OU    O6  983   4.247   3.207   4.830  0.4326  0.3276 -0.9058
    4V3OU   H21  984   4.202   3.128   4.861  0.4014  0.2394 -1.1690
    4V3OU    C3  985   4.264   3.153   5.061 -0.2241  0.6978  0.0587
    4V3OU    H2  986   4.332   3.066   5.041 -0.8189  0.0891  0.6457
    4V3OU    H3  987   4.287   3.197   5.162  0.5170 -0.7204  0.5316
    4V3OU   C25  988   4.437   3.304   4.937  0.0193 -0.3714  0.1789
    4V3OU    O7  989   4.479   3.419   4.948 -0.3267 -0.2468  0.2073
    4V3OU   C26  990   4.538   3.203   4.886  0.7062  0.4763 -0.1638
    4V3OU   H22  991   4.594   3.250   4.801  2.8771 -2.8761 -0.8058
    4V3OU   H23  992   4.487   3.122   4.826  0.8946  1.3398 -1.5386
    4V3OU    O8  993   4.629   3.130   4.966  0.4645  0.2811 -0.0668
    4V3OU   H24  994   4.719   3.155   4.941  1.3822 -0.8582  1.8527
    4V3OU    C1  995   4.122   3.101   5.054  0.0354  0.0959 -0.7688
    4V3OU    H1  996   4.103   3.041   5.148  0.1869  2.1880  0.6399
    4V3OU    O3  997   4.116   3.015   4.939 -0.2596 -0.7046 -0.1689
    4V3OU   C19  998   4.141   2.875   4.951  0.0917 -0.6068  0.2315
    4V3OU    H9  999   4.150   2.838   5.058 -0.2624  0.1297  0.5250
    4V3OU    O4 1000   4.269   2.858   4.895  0.0589  0.2393 -0.1181
    4V3OU   C20 1001   4.286   2.844   4.753 -0.0288 -0.4526 -0.0657
    4V3OU   H10 1002   4.258   2.943   4.707  1.3545 -0.9974 -2.1910
    4V3OU   C24 1003   4.033   2.801   4.873  0.0334  0.1681 -0.4283
    4V3OU   H16 1004   3.937   2.837   4.916  0.9284  0.9341  0.9924
    4V3OU   H17 1005   4.042   2.695   4.907  0.8173  0.5962  0.7328
    4V3OU   C23 1006   4.051   2.802   4.721 -0.2589  0.5621 -0.4620
    4V3OU   H15 1007   4.051   2.911   4.687  1.1309  0.1344 -1.9305
    4V3OU    N1 1008   3.934   2.740   4.660 -0.1947  0.1974 -0.2147
    4V3OU   H19 1009   3.927   2.648   4.698 -0.7839 -0.3277 -1.5447
    4V3OU   H20 1010   3.865   2.794   4.708  1.7239  1.2805  1.5418
    4V3OU   C21 1011   4.192   2.745   4.685 -0.4149  0.0815 -0.3159
    4V3OU   H11 1012   4.207   2.758   4.574  0.0911 -2.2170 -0.5694
    4V3OU    O5 1013   4.213   2.609   4.720 -0.3468  0.2656  0.3755
    4V3OU   H18 1014   4.215   2.562   4.635  0.8998 -1.5481  1.3495
    4V3OU   C22 1015   4.434   2.819   4.729  0.1108  0.4417 -0.1879
    4V3OU   H12 1016   4.472   2.728   4.782  4.0392  1.3323 -1.1374
    4V3OU   H13 1017   4.495   2.905   4.767  0.1494  0.8261 -1.0942
    4V3OU   H14 1018   4.451   2.794   4.621 -1.3116 -2.2816  0.1257
    4V3OU   C11 1019   3.650   3.201   4.987 -0.2431 -0.0684  0.2033
    4V3OU    O1 1020   3.632   3.079   5.008 -0.0173 -0.1782 -0.2417
    4V3OU    C9 1021   3.783   3.260   5.013 -0.3818  0.0568  0.6130
    4V3OU    C7 1022   3.881   3.170   5.052 -0.3330 -0.0761  0.1704
    4V3OU    O9 1023   3.861   3.066   5.140 -0.4175  0.2183  0.5007
    4V3OU   H25 1024   3.770   3.043   5.115 -0.2130 -1.3515  1.0704
    4V3OU   C17 1025   3.312   3.340   4.909 -0.0399  0.0964 -0.1481
    4V3OU    H7 1026   3.211   3.319   4.877 -0.1576 -0.1441  0.3708
    4V3OU   C18 1027   3.343   3.475   4.918  0.0881  0.0790 -0.3356
    4V3OU    H8 1028   3.270   3.554   4.891  0.0615 -0.4941 -2.0968
    5V3OU   H29 1029   6.357   1.246   5.647 -0.4863 -1.7863 -0.8161
    5V3OU   C27 1030   6.285   1.303   5.583  0.0829 -0.5118 -0.3471
    5V3OU   H27 1031   6.318   1.409   5.564  1.4820 -0.3169  2.6531
    5V3OU   H28 1032   6.238   1.241   5.502 -1.1050 -3.5827  2.4719
    5V3OU   O11 1033   6.178   1.313   5.677 -0.0237 -0.5949 -0.4584
    5V3OU   C15 1034   6.196   1.357   5.806 -0.3688  0.4036 -0.7439
    5V3OU   C13 1035   6.092   1.315   5.891  0.5936 -0.0055  0.2744
    5V3OU   C14 1036   6.059   1.392   6.004  0.5542  0.1704  0.1480
    5V3OU   C16 1037   6.133   1.504   6.040  1.1388 -0.3514  0.6062
    5V3OU    H6 1038   6.103   1.556   6.132 -2.1027  0.1509 -0.6172
    5V3OU   C12 1039   5.948   1.347   6.090 -0.2424  0.1635 -0.8610
    5V3OU    O2 1040   5.906   1.415   6.186  0.8130 -0.1273 -0.1735
    5V3OU   C10 1041   5.873   1.227   6.050 -0.0488 -0.3825  0.3494
    5V3OU    C8 1042   5.752   1.197   6.111 -0.3820  0.0337 -0.0888
    5V3OU   O10 1043   5.715   1.255   6.229 -0.6657 -0.2118 -0.0527
    5V3OU   H26 1044   5.781   1.326   6.235 -2.3321  1.4814 -0.5992
    5V3OU    C6 1045   5.692   1.069   6.088 -0.5874  0.1411 -0.1605
    5V3OU    C5 1046   5.757   0.981   6.003  0.1031  0.3126  0.1807
    5V3OU    C4 1047   5.563   1.032   6.153 -0.4894  0.2983  0.1295
    5V3OU    H4 1048   5.563   1.042   6.265  2.5697 -0.7705  0.3216
    5V3OU    H5 1049   5.494   1.111   6.110 -1.1796  0.3061  1.2257
    5V3OU    C2 1050   5.504   0.892   6.136  0.0389  0.0817  0.0726
    5V3OU    O6 1051   5.561   0.807   6.236 -0.2278 -0.2648 -0.0660
    5V3OU   H21 1052   5.647   0.790   6.195  0.2178  0.4657  0.5415
    5V3OU    C3 1053   5.556   0.830   6.006 -0.5271 -0.1613 -0.0433
    5V3OU    H2 1054   5.535   0.720   6.000  0.5358 -0.3059 -1.8115
    5V3OU    H3 1055   5.507   0.876   5.916  0.3525  1.7078  0.3840
    5V3OU   C25 1056   5.352   0.899   6.148  0.0422  0.0237  0.1597
    5V3OU    O7 1057   5.275   0.940   6.061  0.2421 -0.2826 -0.1638
    5V3OU   C26 1058   5.297   0.855   6.283 -0.0196 -0.0345  0.1159
    5V3OU   H22 1059   5.199   0.909   6.290  0.1090  0.0852  1.2312
    5V3OU   H23 1060   5.365   0.889   6.366 -0.7126 -0.0604  0.7055
    5V3OU    O8 1061   5.277   0.717   6.300 -0.8563  0.0700 -0.0031
    5V3OU   H24 1062   5.209   0.684   6.238 -0.1267 -2.3337  0.3477
    5V3OU    C1 1063   5.707   0.840   5.991 -0.5324  0.5203  0.3187
    5V3OU    H1 1064   5.739   0.789   5.895 -1.3976  2.0984 -0.8572
    5V3OU    O3 1065   5.769   0.773   6.102  0.0309 -0.2781 -0.4573
    5V3OU   C19 1066   5.903   0.725   6.093  0.1403 -0.1585  0.4725
    5V3OU    H9 1067   5.973   0.797   6.042  2.7007 -1.1533  2.3150
    5V3OU    O4 1068   5.896   0.612   6.010  0.3524  0.1990 -0.0342
    5V3OU   C20 1069   5.849   0.496   6.079  0.0750  0.5620  0.3907
    5V3OU   H10 1070   5.737   0.498   6.096 -0.4773 -0.8233 -2.4806
    5V3OU   C24 1071   5.965   0.700   6.231  0.7323 -0.2571  0.1941
    5V3OU   H16 1072   5.951   0.795   6.289  1.9029 -0.5391  0.9584
    5V3OU   H17 1073   6.071   0.673   6.209  0.0844 -1.0994 -2.1958
    5V3OU   C23 1074   5.895   0.584   6.303 -0.4211  0.4901  0.3007
    5V3OU   H15 1075   5.783   0.605   6.306 -0.7450 -1.0541 -0.4501
    5V3OU    N1 1076   5.933   0.585   6.443  0.0812  0.3797  0.1675
    5V3OU   H19 1077   5.851   0.539   6.479 -1.3912  1.2731 -1.8175
    5V3OU   H20 1078   5.923   0.680   6.471 -0.1207  0.5858 -0.5907
    5V3OU   C21 1079   5.913   0.459   6.213  0.6450  0.7345  0.1668
    5V3OU   H11 1080   5.852   0.373   6.253 -0.2953  1.0727 -0.5025
    5V3OU    O5 1081   6.048   0.414   6.207  0.5112  0.3517  0.0044
    5V3OU   H18 1082   6.051   0.324   6.169 -1.1758  0.3262 -0.1707
    5V3OU   C22 1083   5.866   0.384   5.977 -0.8886  0.3477  0.4529
    5V3OU   H12 1084   5.820   0.411   5.879 -2.5306 -0.4242  0.9734
    5V3OU   H13 1085   5.820   0.290   6.017 -1.9038  0.8131  0.4154
    5V3OU   H14 1086   5.976   0.365   5.966 -0.4751  1.2515  2.5543
    5V3OU   C11 1087   6.044   1.177   5.871  0.1157  0.1760  0.1165
    5V3OU    O1 1088   6.096   1.089   5.799 -0.2712 -0.1922  0.2811
    5V3OU    C9 1089   5.932   1.136   5.959 -0.4859  0.2593 -0.6004
    5V3OU    C7 1090   5.876   1.012   5.930 -0.0525 -0.0304 -0.2262
    5V3OU    O9 1091   5.928   0.917   5.844  0.5245  0.2816 -0.2259
    5V3OU   H25 1092   6.011   0.956   5.813  1.3824 -1.7690 -0.6419
    5V3OU   C17 1093   6.275   1.466   5.850  0.7482 -0.6743  0.0086
    5V3OU    H7 1094   6.371   1.484   5.801  1.7256  1.7964  2.5305
    5V3OU   C18 1095   6.245   1.539   5.964  0.3562 -0.0967 -0.4553
    5V3OU    H8 1096   6.328   1.599   6.003 -0.2293  0.0052  0.7023
    6V3OU   H29 1097   3.084   3.621   4.872  0.3789 -0.7993  0.6534
    6V3OU   C27 1098   2.980   3.619   4.913 -0.0285 -0.2682 -0.3043
    6V3OU   H27 1099   2.982   3.626   5.025  0.9915 -1.3647 -0.2277
    6V3OU   H28 1100   2.925   3.693   4.850  3.0656  1.3665 -1.3134
    6V3OU   O11 1101   2.923   3.492   4.883 -0.2052 -0.3175  0.2217
    6V3OU   C15 1102   2.795   3.465   4.928 -0.4344 -0.0852 -0.2695
    6V3OU   C13 1103   2.742   3.339   4.893 -0.5686 -0.0393 -0.2364
    6V3OU   C14 1104   2.604   3.318   4.894 -0.5239 -0.3290  0.5564
    6V3OU   C16 1105   2.516   3.415   4.939 -0.0566  0.4101 -0.0986
    6V3OU    H6 1106   2.407   3.396   4.935  0.3784 -2.4031 -1.2071
    6V3OU   C12 1107   2.550   3.192   4.837  0.1070 -0.7211  0.8059
    6V3OU    O2 1108   2.427   3.185   4.817  0.3256 -0.1687 -0.8600
    6V3OU   C10 1109   2.638   3.080   4.803  0.8824  0.2077 -0.3376
    6V3OU    C8 1110   2.588   2.953   4.776 -0.0254  0.4747  0.0547
    6V3OU   O10 1111   2.463   2.940   4.724 -0.0153 -0.0473  0.1463
    6V3OU   H26 1112   2.419   3.022   4.753 -0.2597  0.7293 -2.2080
    6V3OU    C6 1113   2.673   2.840   4.756 -0.2216  0.3029  0.1644
    6V3OU    C5 1114   2.810   2.859   4.769 -0.1111  0.0001 -0.4881
    6V3OU    C4 1115   2.616   2.713   4.703  0.2027  0.0996  0.1870
    6V3OU    H4 1116   2.527   2.681   4.764  0.4555 -0.4854  0.2605
    6V3OU    H5 1117   2.577   2.731   4.598  0.9226 -0.8297 -0.2676
    6V3OU    C2 1118   2.712   2.594   4.700 -0.2274 -0.2555  0.4439
    6V3OU    O6 1119   2.740   2.558   4.836 -0.0048  0.1173  0.4993
    6V3OU   H21 1120   2.816   2.611   4.863 -0.1078  1.1171 -1.0338
    6V3OU    C3 1121   2.844   2.644   4.640 -0.0083 -0.3805  0.8153
    6V3OU    H2 1122   2.917   2.564   4.615 -0.1990  0.2244 -1.9729
    6V3OU    H3 1123   2.824   2.676   4.535  0.5285 -3.7132 -0.4202
    6V3OU   C25 1124   2.653   2.481   4.615 -0.2856  0.1828 -0.1035
    6V3OU    O7 1125   2.669   2.479   4.493 -0.0025 -0.0342 -0.0669
    6V3OU   C26 1126   2.567   2.378   4.685 -0.1776 -0.2753 -0.6363
    6V3OU   H22 1127   2.621   2.340   4.775  0.9248  1.0112 -0.7301
    6V3OU   H23 1128   2.543   2.293   4.615  0.7326 -0.6202 -0.5390
    6V3OU    O8 1129   2.441   2.425   4.727  0.0215 -0.2070 -0.1033
    6V3OU   H24 1130   2.389   2.354   4.768  0.7240  0.0165  1.2330
    6V3OU    C1 1131   2.909   2.757   4.719  0.2554  0.2423 -0.2702
    6V3OU    H1 1132   2.988   2.807   4.657  0.5746  0.5796  0.3966
    6V3OU    O3 1133   2.969   2.687   4.828  0.2427  0.2038 -0.2874
    6V3OU   C19 1134   3.103   2.699   4.877  0.2058 -0.3206 -0.0463
    6V3OU    H9 1135   3.121   2.805   4.913  1.2847 -0.8723  1.1039
    6V3OU    O4 1136   3.186   2.702   4.763  0.1176  0.5391 -0.0948
    6V3OU   C20 1137   3.212   2.582   4.690  0.2889  0.3705  0.2454
    6V3OU   H10 1138   3.119   2.558   4.630  0.1966  3.2255 -0.9022
    6V3OU   C24 1139   3.122   2.579   4.970  0.5523 -0.0417  0.2439
    6V3OU   H16 1140   3.031   2.569   5.035 -1.1143  0.2687 -1.9069
    6V3OU   H17 1141   3.213   2.612   5.026 -0.0541  0.7148  0.8173
    6V3OU   C23 1142   3.141   2.456   4.883 -0.0881 -0.1298  0.2208
    6V3OU   H15 1143   3.046   2.444   4.821  0.4079 -1.1390 -0.3795
    6V3OU    N1 1144   3.156   2.345   4.975 -0.0148  0.1083  0.4973
    6V3OU   H19 1145   3.140   2.383   5.066  0.2724  2.1811 -0.2736
    6V3OU   H20 1146   3.072   2.292   4.963 -2.7857  3.3842  3.4085
    6V3OU   C21 1147   3.260   2.469   4.782 -0.2244  0.0102  0.0772
    6V3OU   H11 1148   3.267   2.373   4.724 -0.1561 -0.0010  0.1039
    6V3OU    O5 1149   3.388   2.489   4.841 -0.3201  0.6568  0.0830
    6V3OU   H18 1150   3.441   2.412   4.813  0.0877 -0.0632  2.5971
    6V3OU   C22 1151   3.320   2.623   4.591 -0.3174 -0.1079 -0.6261
    6V3OU   H12 1152   3.336   2.541   4.516  1.5246 -0.9097  0.5467
    6V3OU   H13 1153   3.416   2.641   4.646 -1.7044  3.6029  0.9168
    6V3OU   H14 1154   3.290   2.714   4.534  0.2303  0.3196 -0.2404
    6V3OU   C11 1155   2.833   3.225   4.873 -0.2788 -0.0198  0.9069
    6V3OU    O1 1156   2.952   3.230   4.910  0.3079  0.1986 -0.9417
    6V3OU    C9 1157   2.779   3.100   4.816  0.9161  0.0214 -0.3847
    6V3OU    C7 1158   2.862   2.989   4.800  0.4802 -0.4402  0.4318
    6V3OU    O9 1159   2.992   2.994   4.843  0.5467  0.3108  0.1582
    6V3OU   H25 1160   2.985   3.079   4.890 -0.9245 -0.4249  1.3074
    6V3OU   C17 1161   2.704   3.566   4.964  0.0024  0.0749  0.4142
    6V3OU    H7 1162   2.742   3.664   4.990  0.5381 -0.1282  0.4196
    6V3OU   C18 1163   2.567   3.540   4.971  0.0149  0.1237  0.9339
    6V3OU    H8 1164   2.502   3.627   4.987  1.0682  1.0658  0.2187
    7V3OU   H29 1165   5.312   1.374   5.191  0.7652 -0.1480 -1.0485
    7V3OU   C27 1166   5.381   1.308   5.249  0.0812  0.1587  0.1645
    7V3OU   H27 1167   5.334   1.212   5.281 -0.5933 -0.7099 -3.0546
    7V3OU   H28 1168   5.474   1.293   5.187  0.3884  1.7094  0.2039
    7V3OU   O11 1169   5.424   1.382   5.364  0.4208 -0.0552  0.1777
    7V3OU   C15 1170   5.461   1.514   5.371 -0.0035  0.0910 -0.2568
    7V3OU   C13 1171   5.453   1.571   5.500 -0.0023 -0.1278 -0.1601
    7V3OU   C14 1172   5.520   1.692   5.522 -0.0887 -0.0328 -0.4310
    7V3OU   C16 1173   5.604   1.746   5.425 -0.8256  0.1145 -0.9963
    7V3OU    H6 1174   5.691   1.805   5.456 -0.7459 -0.6639  0.3030
    7V3OU   C12 1175   5.506   1.768   5.648 -0.0185 -0.6120 -0.0756
    7V3OU    O2 1176   5.572   1.871   5.672  0.3019 -0.7953 -0.1661
    7V3OU   C10 1177   5.434   1.704   5.759  0.2591 -0.3320  0.2701
    7V3OU    C8 1178   5.434   1.767   5.883  0.0656 -0.0439  0.1242
    7V3OU   O10 1179   5.524   1.864   5.914  0.0887  0.0511 -0.2402
    7V3OU   H26 1180   5.562   1.889   5.827 -0.9043  0.8141 -0.4721
    7V3OU    C6 1181   5.351   1.717   5.988 -0.6703 -0.2141 -0.5270
    7V3OU    C5 1182   5.275   1.604   5.960 -0.2916 -0.5547 -0.1895
    7V3OU    C4 1183   5.339   1.800   6.112  0.4940 -0.4469 -0.2417
    7V3OU    H4 1184   5.443   1.794   6.155  0.8206  1.1514 -0.7345
    7V3OU    H5 1185   5.323   1.910   6.091  0.4683 -0.3400  0.3371
    7V3OU    C2 1186   5.239   1.750   6.217  0.1702 -0.2194 -0.4374
    7V3OU    O6 1187   5.300   1.644   6.291 -0.0886 -0.1851 -0.1741
    7V3OU   H21 1188   5.269   1.559   6.257  0.9233 -0.8686  0.5650
    7V3OU    C3 1189   5.124   1.682   6.144 -0.1804 -0.5230  0.3840
    7V3OU    H2 1190   5.050   1.635   6.214 -1.3619 -0.9337 -1.0850
    7V3OU    H3 1191   5.078   1.763   6.081 -0.2103  0.7515  1.9954
    7V3OU   C25 1192   5.182   1.859   6.308  0.0927 -0.4731 -0.1800
    7V3OU    O7 1193   5.181   1.977   6.274 -0.1332 -0.5236 -0.3547
    7V3OU   C26 1194   5.123   1.813   6.441 -0.2889  0.1844 -0.1144
    7V3OU   H22 1195   5.082   1.903   6.493  1.8611  1.2174 -0.0906
    7V3OU   H23 1196   5.206   1.773   6.505  0.3708  1.8634  0.1316
    7V3OU    O8 1197   5.024   1.713   6.449 -0.0557 -0.0524 -0.1459
    7V3OU   H24 1198   5.035   1.672   6.537 -2.7194 -1.1414 -0.2166
    7V3OU    C1 1199   5.164   1.567   6.053 -0.2229 -0.2504  0.0159
    7V3OU    H1 1200   5.076   1.541   5.986 -0.0223  0.0440 -0.3637
    7V3OU    O3 1201   5.203   1.462   6.142 -0.1677  0.1356  0.4514
    7V3OU   C19 1202   5.173   1.323   6.152  0.2022  0.0298  0.1203
    7V3OU    H9 1203   5.156   1.279   6.049 -2.7141 -2.3907  1.4646
    7V3OU    O4 1204   5.041   1.319   6.202  0.2714  0.2290  0.3209
    7V3OU   C20 1205   5.025   1.350   6.340  0.0701  0.1423  0.3183
    7V3OU   H10 1206   5.070   1.453   6.355 -1.9644  1.3087 -1.2131
    7V3OU   C24 1207   5.268   1.237   6.235 -0.5743 -0.3775  0.6012
    7V3OU   H16 1208   5.374   1.255   6.203 -0.6593 -1.1268 -0.1338
    7V3OU   H17 1209   5.245   1.132   6.205  0.5899  0.1698 -2.6451
    7V3OU   C23 1210   5.249   1.265   6.384  0.2787  0.0812  0.6329
    7V3OU   H15 1211   5.281   1.373   6.404 -2.4243  0.9894  0.5610
    7V3OU    N1 1212   5.335   1.170   6.452  0.2319 -0.4176 -0.0036
    7V3OU   H19 1213   5.319   1.159   6.550  2.5333  0.3569  0.5356
    7V3OU   H20 1214   5.425   1.214   6.442  0.1802 -0.4764 -0.7859
    7V3OU   C21 1215   5.101   1.253   6.432  0.1522  0.1524  0.2618
    7V3OU   H11 1216   5.099   1.301   6.534  2.5007  0.4739  0.2095
    7V3OU    O5 1217   5.050   1.121   6.444  0.3325  0.0724  0.1556
    7V3OU   H18 1218   5.094   1.069   6.513  1.2354 -1.3117 -1.3892
    7V3OU   C22 1219   4.874   1.359   6.354  0.0047 -0.3830 -0.0069
    7V3OU   H12 1220   4.824   1.281   6.292 -0.1499 -1.5177  1.4838
    7V3OU   H13 1221   4.837   1.453   6.306  0.3859  0.2732  0.9504
    7V3OU   H14 1222   4.845   1.357   6.462 -0.2012  2.5847  0.0746
    7V3OU   C11 1223   5.368   1.510   5.604  0.5012 -0.1526  0.2415
    7V3OU    O1 1224   5.313   1.398   5.599 -0.1106  0.1687 -0.4905
    7V3OU    C9 1225   5.353   1.592   5.726 -0.6280  0.4711 -0.3081
    7V3OU    C7 1226   5.278   1.542   5.831  0.2673 -0.5886 -0.1655
    7V3OU    O9 1227   5.210   1.421   5.831  0.1438 -0.5193 -0.1652
    7V3OU   H25 1228   5.232   1.383   5.745  0.5248 -0.1523 -0.2354
    7V3OU   C17 1229   5.528   1.578   5.265  0.3933 -0.4798 -0.3506
    7V3OU    H7 1230   5.495   1.556   5.163 -0.4795  0.6366 -0.3196
    7V3OU   C18 1231   5.597   1.695   5.295  0.0827 -0.1357 -0.9487
    7V3OU    H8 1232   5.618   1.766   5.214  1.2707 -1.5614 -1.9524
    8V3OU   H29 1233   3.794   2.827   2.374  0.2306  1.5759  1.0686
    8V3OU   C27 1234   3.795   2.892   2.283 -0.3570 -0.6880 -0.6403
    8V3OU   H27 1235   3.874   2.971   2.273  0.1174 -1.1416 -0.5245
    8V3OU   H28 1236   3.779   2.853   2.179 -0.7280 -2.2505 -0.0297
    8V3OU   O11 1237   3.680   2.977   2.293  0.1045 -0.1663  0.2619
    8V3OU   C15 1238   3.549   2.937   2.297  0.0877 -0.1337 -0.0212
    8V3OU   C13 1239   3.443   3.016   2.247  0.2352 -0.1279 -0.3192
    8V3OU   C14 1240   3.310   2.976   2.261  0.2449 -0.0225  0.0478
    8V3OU   C16 1241   3.278   2.856   2.323 -0.0315  0.6474  1.2438
    8V3OU    H6 1242   3.172   2.825   2.331  0.1875  0.0243  1.8574
    8V3OU   C12 1243   3.202   3.054   2.197  0.1752 -0.0634  0.1178
    8V3OU    O2 1244   3.085   3.010   2.198  0.0577  0.2491 -0.0367
    8V3OU   C10 1245   3.224   3.196   2.168  0.0600 -0.1395 -0.3402
    8V3OU    C8 1246   3.118   3.284   2.145 -0.1068 -0.2447  0.0194
    8V3OU   O10 1247   2.991   3.236   2.144 -0.3636  0.4312 -0.3171
    8V3OU   H26 1248   3.010   3.143   2.165 -1.3818  0.2761 -0.0203
    8V3OU    C6 1249   3.128   3.425   2.125  0.3388 -0.3605 -0.6330
    8V3OU    C5 1250   3.260   3.470   2.134  0.2075 -0.1042  0.0909
    8V3OU    C4 1251   3.009   3.512   2.104  0.1789 -0.5354 -0.4583
    8V3OU    H4 1252   2.943   3.457   2.031  0.3553 -1.0169 -0.2563
    8V3OU    H5 1253   2.945   3.520   2.197 -1.6579  2.7165 -1.8127
    8V3OU    C2 1254   3.042   3.654   2.055  0.3571 -0.2757  0.3863
    8V3OU    O6 1255   3.047   3.653   1.912 -0.0205 -0.2575  0.3714
    8V3OU   H21 1256   3.123   3.594   1.895  1.0180  1.0490  0.2948
    8V3OU    C3 1257   3.182   3.701   2.097  0.2291  0.5840 -0.1242
    8V3OU    H2 1258   3.213   3.797   2.049  0.6669  1.1488  1.2507
    8V3OU    H3 1259   3.187   3.731   2.205 -1.1360 -1.3100  0.5295
    8V3OU   C25 1260   2.931   3.744   2.108  0.3563 -0.1986  0.2544
    8V3OU    O7 1261   2.833   3.700   2.167 -0.0410 -0.0129 -0.2605
    8V3OU   C26 1262   2.954   3.894   2.092 -0.1666 -0.1038  0.3743
    8V3OU   H22 1263   2.851   3.932   2.067 -0.6842  0.6915  3.3458
    8V3OU   H23 1264   3.031   3.911   2.013 -0.3450 -0.0760  0.2048
    8V3OU    O8 1265   3.005   3.974   2.196  0.4201  0.2261 -0.1643
    8V3OU   H24 1266   3.085   3.941   2.239 -0.2821 -0.6969  0.4570
    8V3OU    C1 1267   3.297   3.603   2.075  0.0591  0.1973  0.6777
    8V3OU    H1 1268   3.392   3.640   2.124  0.3692 -3.1786  2.9350
    8V3OU    O3 1269   3.322   3.573   1.938 -0.2405  0.2033  0.6197
    8V3OU   C19 1270   3.423   3.622   1.849 -0.4500 -0.3011  0.1004
    8V3OU    H9 1271   3.421   3.734   1.843  0.0417 -0.3085 -0.3131
    8V3OU    O4 1272   3.388   3.571   1.722 -0.2027 -0.0198 -0.0821
    8V3OU   C20 1273   3.438   3.443   1.682 -0.2820 -0.0214 -0.1741
    8V3OU   H10 1274   3.367   3.380   1.744 -1.8842  0.9741 -0.9266
    8V3OU   C24 1275   3.565   3.587   1.896 -0.2518  0.4092  0.0394
    8V3OU   H16 1276   3.567   3.601   2.007 -0.5329 -1.5124  0.3222
    8V3OU   H17 1277   3.638   3.660   1.853  0.7245  0.8015  2.2307
    8V3OU   C23 1278   3.594   3.440   1.866  0.0320  0.5586 -0.4407
    8V3OU   H15 1279   3.522   3.376   1.927  2.4523  0.4052  2.5327
    8V3OU    N1 1280   3.728   3.430   1.922 -0.2941  0.2404  0.2959
    8V3OU   H19 1281   3.790   3.417   1.845  2.1029 -0.4891  2.2041
    8V3OU   H20 1282   3.738   3.341   1.968 -2.0545  0.3815  1.0512
    8V3OU   C21 1283   3.579   3.396   1.717 -0.1297  0.3005 -0.3491
    8V3OU   H11 1284   3.566   3.285   1.702 -1.2264  0.0060  2.2510
    8V3OU    O5 1285   3.680   3.447   1.632  0.5424 -0.5066 -0.0439
    8V3OU   H18 1286   3.758   3.391   1.649  0.2150 -0.7105  0.8489
    8V3OU   C22 1287   3.409   3.414   1.535  0.3683 -0.5111 -0.2099
    8V3OU   H12 1288   3.425   3.508   1.475 -1.0838 -0.3458 -0.3688
    8V3OU   H13 1289   3.301   3.387   1.523  0.1588  0.5115 -0.7541
    8V3OU   H14 1290   3.461   3.321   1.502 -1.0202 -1.5428  0.3800
    8V3OU   C11 1291   3.466   3.158   2.218 -0.0479  0.0522  0.3365
    8V3OU    O1 1292   3.581   3.206   2.227  0.0207 -0.0682  0.0771
    8V3OU    C9 1293   3.355   3.249   2.180 -0.0414 -0.0061  0.1861
    8V3OU    C7 1294   3.372   3.385   2.159  0.2861 -0.1270 -0.3431
    8V3OU    O9 1295   3.481   3.451   2.211  0.3633 -0.7358  0.2647
    8V3OU   H25 1296   3.549   3.382   2.217  0.0000 -1.3615 -1.9038
    8V3OU   C17 1297   3.511   2.810   2.347 -0.6702  0.1441  0.1210
    8V3OU    H7 1298   3.592   2.745   2.381 -0.3699  0.1630 -0.5393
    8V3OU   C18 1299   3.379   2.767   2.357 -0.5082 -0.3446  0.1593
    8V3OU    H8 1300   3.361   2.659   2.363 -0.9858 -0.2538  0.3921
    9V3OU   H29 1301   3.681   0.550   5.244  0.7334  0.4013  0.5078
    9V3OU   C27 1302   3.728   0.461   5.195 -0.0320 -0.0006  0.5032
    9V3OU   H27 1303   3.722   0.472   5.084  3.2827  0.5374  0.2772
    9V3OU   H28 1304   3.829   0.437   5.236 -0.4104 -1.2172  0.7612
    9V3OU   O11 1305   3.641   0.357   5.243 -0.0427 -0.1513  0.1589
    9V3OU   C15 1306   3.519   0.318   5.193  0.1475 -0.6270  0.0616
    9V3OU   C13 1307   3.458   0.213   5.266 -0.7178 -0.2115 -0.0521
    9V3OU   C14 1308   3.379   0.115   5.205 -0.8134 -0.0066 -0.2653
    9V3OU   C16 1309   3.367   0.122   5.067  0.1836  0.1936 -0.3517
    9V3OU    H6 1310   3.335   0.035   5.008 -0.4897 -1.4075  2.1946
    9V3OU   C12 1311   3.301   0.012   5.276 -0.6083  0.3263  0.4565
    9V3OU    O2 1312   3.212  -0.058   5.222 -0.2960  0.2715  0.0085
    9V3OU   C10 1313   3.326   0.002   5.421  0.2943  0.1971  0.2988
    9V3OU    C8 1314   3.261  -0.094   5.498 -0.3536  0.5352  0.1824
    9V3OU   O10 1315   3.211  -0.207   5.441  0.9128 -0.4166  0.9190
    9V3OU   H26 1316   3.207  -0.187   5.346  0.7765 -0.6764  0.8692
    9V3OU    C6 1317   3.271  -0.094   5.640 -0.3273  0.1093  0.1805
    9V3OU    C5 1318   3.353  -0.001   5.702  0.5024 -0.4853 -0.0106
    9V3OU    C4 1319   3.204  -0.203   5.717  0.1975 -0.0488  0.4206
    9V3OU    H4 1320   3.100  -0.218   5.676  0.7480  0.6037 -1.3285
    9V3OU    H5 1321   3.262  -0.296   5.688 -0.2972  0.6613 -3.4715
    9V3OU    C2 1322   3.200  -0.187   5.869  0.1411  0.0766  0.4062
    9V3OU    O6 1323   3.086  -0.105   5.896  0.0570  0.1158 -0.0439
    9V3OU   H21 1324   3.129  -0.018   5.898  2.1727 -0.8852  1.1096
    9V3OU    C3 1325   3.317  -0.103   5.919  0.0529  0.5359 -0.1466
    9V3OU    H2 1326   3.307  -0.081   6.028 -0.2585  0.7923 -0.2274
    9V3OU    H3 1327   3.408  -0.167   5.903 -1.2567 -1.2423 -0.8348
    9V3OU   C25 1328   3.192  -0.322   5.941  0.0682 -0.2253 -0.1586
    9V3OU    O7 1329   3.252  -0.425   5.909  0.4267 -0.0338 -0.1123
    9V3OU   C26 1330   3.110  -0.311   6.068  0.0023  0.0356 -0.2224
    9V3OU   H22 1331   3.129  -0.402   6.131 -0.9762 -0.5432 -0.7371
    9V3OU   H23 1332   3.001  -0.307   6.043 -0.1326 -1.6338 -0.0406
    9V3OU    O8 1333   3.143  -0.200   6.148 -0.1413 -0.1880  0.1514
    9V3OU   H24 1334   3.072  -0.184   6.212 -0.3028 -0.9985  0.1807
    9V3OU    C1 1335   3.334   0.030   5.848  0.0741  0.4704 -0.2641
    9V3OU    H1 1336   3.424   0.084   5.891 -0.6122  0.4157  1.2790
    9V3OU    O3 1337   3.217   0.109   5.868 -0.1556  0.0824 -0.0804
    9V3OU   C19 1338   3.240   0.246   5.900 -0.1065  0.0428  0.0545
    9V3OU    H9 1339   3.331   0.299   5.859  0.5813 -0.8252  0.4377
    9V3OU    O4 1340   3.254   0.245   6.040 -0.5299  0.4738  0.1036
    9V3OU   C20 1341   3.147   0.212   6.129 -0.4047 -0.0102  0.0768
    9V3OU   H10 1342   3.129   0.100   6.127  1.8710 -0.4218 -0.3019
    9V3OU   C24 1343   3.113   0.322   5.859  0.2828  0.8261  0.2866
    9V3OU   H16 1344   3.093   0.302   5.751  0.4309 -0.7387  0.5189
    9V3OU   H17 1345   3.124   0.432   5.879  0.0866  1.2170 -1.6051
    9V3OU   C23 1346   2.990   0.275   5.938  0.3013 -0.8999 -0.6802
    9V3OU   H15 1347   2.980   0.165   5.910  3.1837 -1.3231 -0.4302
    9V3OU    N1 1348   2.880   0.359   5.895  0.5093 -0.5338 -0.5010
    9V3OU   H19 1349   2.792   0.314   5.915  0.9895 -1.4716 -0.4274
    9V3OU   H20 1350   2.886   0.450   5.936  0.6872 -1.6889  2.2785
    9V3OU   C21 1351   3.018   0.285   6.091 -0.1804  0.0159 -0.6474
    9V3OU   H11 1352   2.938   0.221   6.140  0.7911 -0.1738  0.7349
    9V3OU    O5 1353   3.001   0.417   6.138 -0.0813 -0.0312 -0.4805
    9V3OU   H18 1354   3.074   0.476   6.113 -1.9027  2.3318 -0.5661
    9V3OU   C22 1355   3.182   0.258   6.269  0.0576  0.3649 -0.1590
    9V3OU   H12 1356   3.282   0.219   6.300 -0.1765  0.2476  0.4795
    9V3OU   H13 1357   3.109   0.215   6.343 -1.4376  1.7530 -0.7861
    9V3OU   H14 1358   3.175   0.370   6.276 -1.7404  0.2438  0.7081
    9V3OU   C11 1359   3.467   0.213   5.413 -0.3843  0.2853 -0.0677
    9V3OU    O1 1360   3.506   0.315   5.475  0.4119 -0.1950  0.2357
    9V3OU    C9 1361   3.408   0.098   5.485  0.5025  0.0388  0.2705
    9V3OU    C7 1362   3.427   0.092   5.623 -0.1134  0.3454  0.3731
    9V3OU    O9 1363   3.491   0.192   5.693 -0.3884  0.4715  0.4459
    9V3OU   H25 1364   3.525   0.246   5.620 -0.7811  1.1690  0.7747
    9V3OU   C17 1365   3.479   0.338   5.059  0.0143  0.6125  0.2805
    9V3OU    H7 1366   3.454   0.442   5.038  0.9947  0.5086 -1.5735
    9V3OU   C18 1367   3.413   0.233   4.997 -0.0003  0.6450  0.2397
    9V3OU    H8 1368   3.371   0.251   4.897  2.1823  0.5508 -0.7310
   10V3OU   H29 1369   3.754   6.582   5.941 -0.5177 -0.6237  2.8200
   10V3OU   C27 1370   3.652   6.546   5.910 -0.0788  0.2463  0.0326
   10V3OU   H27 1371   3.659   6.435   5.903 -1.1667  0.0230  1.7853
   10V3OU   H28 1372   3.574   6.584   5.981 -1.0449 -0.1269 -0.7998
   10V3OU   O11 1373   3.634   6.613   5.785  0.2886 -0.1594 -0.2400
   10V3OU   C15 1374   3.537   6.583   5.690 -0.0862  0.1432  0.0445
   10V3OU   C13 1375   3.541   6.651   5.567 -0.2735 -0.3037 -0.2062
   10V3OU   C14 1376   3.490   6.604   5.445 -0.0774 -0.2999 -0.2894
   10V3OU   C16 1377   3.432   6.478   5.455 -0.4051 -0.1320 -0.0560
   10V3OU    H6 1378   3.420   6.416   5.365 -2.2254  1.3953 -0.9222
   10V3OU   C12 1379   3.496   6.674   5.314 -0.0358 -0.4408 -0.3614
   10V3OU    O2 1380   3.437   6.641   5.209 -0.2196 -0.2780 -0.3085
   10V3OU   C10 1381   3.586   6.790   5.308 -0.4040 -0.1356  0.0347
   10V3OU    C8 1382   3.616   6.843   5.183 -0.4139 -0.1679  0.0198
   10V3OU   O10 1383   3.536   6.820   5.076 -0.3146 -0.3026 -0.0254
   10V3OU   H26 1384   3.496   6.739   5.112 -1.5210  0.1407 -0.2894
   10V3OU    C6 1385   3.705   6.955   5.177  0.4714 -0.8567  0.0872
   10V3OU    C5 1386   3.764   7.004   5.293 -0.0051 -0.4087  0.1415
   10V3OU    C4 1387   3.744   7.014   5.046  0.0496 -0.0724  0.3125
   10V3OU    H4 1388   3.743   6.930   4.971 -1.0045 -0.2953  0.5626
   10V3OU    H5 1389   3.661   7.087   5.021 -0.7244 -0.8572  0.5229
   10V3OU    C2 1390   3.881   7.078   5.026 -0.1482  0.2269 -0.0978
   10V3OU    O6 1391   3.974   6.971   5.046 -0.6119 -0.2656 -0.5580
   10V3OU   H21 1392   4.005   6.983   5.137 -2.5332  2.1604 -0.1194
   10V3OU    C3 1393   3.914   7.162   5.149  0.4491  0.0903 -0.1609
   10V3OU    H2 1394   4.024   7.186   5.146  1.2137 -3.0262 -0.4428
   10V3OU    H3 1395   3.846   7.249   5.134  0.6210  0.5321  1.4446
   10V3OU   C25 1396   3.896   7.139   4.886  0.0733  0.5491  0.0663
   10V3OU    O7 1397   3.804   7.174   4.811 -0.5014  0.1613  0.5782
   10V3OU   C26 1398   4.036   7.143   4.827 -0.1800  0.4097 -0.5516
   10V3OU   H22 1399   4.021   7.181   4.723  0.9166  2.6411  0.0343
   10V3OU   H23 1400   4.076   7.039   4.817 -1.2590  0.1589 -2.6338
   10V3OU    O8 1401   4.136   7.213   4.897 -0.1802  0.2745 -0.4154
   10V3OU   H24 1402   4.110   7.302   4.927  0.3092 -0.1938  1.5880
   10V3OU    C1 1403   3.888   7.087   5.279 -0.3536  0.0360 -0.3521
   10V3OU    H1 1404   3.882   7.162   5.364 -0.0316 -1.7943  1.3559
   10V3OU    O3 1405   4.006   7.008   5.294 -0.4503  0.0285  0.3994
   10V3OU   C19 1406   4.107   7.036   5.392  0.0452 -0.0414 -0.0876
   10V3OU    H9 1407   4.078   7.069   5.496 -1.1344 -0.6686 -0.1921
   10V3OU    O4 1408   4.189   7.136   5.336  0.0746 -0.1398 -0.2220
   10V3OU   C20 1409   4.269   7.103   5.222  0.1094 -0.0943 -0.2108
   10V3OU   H10 1410   4.199   7.068   5.141  1.9276 -1.9383 -1.0624
   10V3OU   C24 1411   4.178   6.902   5.401 -0.3722 -0.2506  0.1412
   10V3OU   H16 1412   4.101   6.821   5.408 -0.1525 -0.3764  1.3651
   10V3OU   H17 1413   4.234   6.899   5.498  1.6246 -2.2898 -0.9500
   10V3OU   C23 1414   4.260   6.864   5.277 -0.6406 -0.1106 -0.0788
   10V3OU   H15 1415   4.185   6.853   5.192 -2.4087  1.4287  1.2030
   10V3OU    N1 1416   4.322   6.737   5.309 -0.4250  0.1598  0.5963
   10V3OU   H19 1417   4.387   6.759   5.382 -0.7073  0.1897  0.8398
   10V3OU   H20 1418   4.250   6.695   5.364 -1.1986  0.1045 -0.4192
   10V3OU   C21 1419   4.359   6.982   5.250 -0.3123 -0.2772  0.3835
   10V3OU   H11 1420   4.415   6.967   5.153 -0.3233  0.4915  0.2464
   10V3OU    O5 1421   4.454   7.009   5.352  0.0846  0.4710 -0.1708
   10V3OU   H18 1422   4.508   6.931   5.374 -1.0396 -0.0868  0.7152
   10V3OU   C22 1423   4.340   7.232   5.181 -0.3542  0.3100  0.2383
   10V3OU   H12 1424   4.266   7.306   5.142  0.3297  0.8318 -0.0792
   10V3OU   H13 1425   4.425   7.211   5.112 -0.9285 -0.4268 -0.2628
   10V3OU   H14 1426   4.391   7.277   5.270  1.0519  1.3240 -1.0247
   10V3OU   C11 1427   3.613   6.779   5.560 -0.5293 -0.1706 -0.4183
   10V3OU    O1 1428   3.642   6.844   5.663  0.7918 -0.5572 -0.5347
   10V3OU    C9 1429   3.642   6.840   5.428  0.0761 -0.0455 -0.2259
   10V3OU    C7 1430   3.727   6.950   5.420 -0.3214  0.3118  0.3641
   10V3OU    O9 1431   3.736   7.037   5.527 -0.2060  0.6536  0.0765
   10V3OU   H25 1432   3.696   6.987   5.600 -2.3135  2.3794  0.1923
   10V3OU   C17 1433   3.460   6.466   5.695  0.1430  0.0001  0.2546
   10V3OU    H7 1434   3.440   6.410   5.787  2.2548 -0.1657  0.6663
   10V3OU   C18 1435   3.406   6.417   5.576  0.1543  0.1239  0.1979
   10V3OU    H8 1436   3.368   6.314   5.575  0.9971 -0.1993  0.5789
   11V3OU   H29 1437   3.844   1.601   3.576 -0.7515 -0.6107  0.1168
   11V3OU   C27 1438   3.770   1.671   3.528 -0.0098 -0.0341 -0.2018
   11V3OU   H27 1439   3.683   1.614   3.488 -1.2149  0.5684  1.4576
   11V3OU   H28 1440   3.747   1.754   3.600  2.3631  1.5365 -1.1077
   11V3OU   O11 1441   3.834   1.733   3.416 -0.0375  0.4179  0.0291
   11V3OU   C15 1442   3.963   1.782   3.414 -0.0058  0.3367  0.0825
   11V3OU   C13 1443   4.015   1.824   3.290  0.1754  1.2634  0.4604
   11V3OU   C14 1444   4.152   1.841   3.267  0.2143  0.3322 -0.0574
   11V3OU   C16 1445   4.238   1.840   3.377 -0.0081 -0.6687  0.1204
   11V3OU    H6 1446   4.344   1.865   3.370  0.2062  0.0113  3.9226
   11V3OU   C12 1447   4.212   1.872   3.135  0.2690 -0.4456 -0.2201
   11V3OU    O2 1448   4.333   1.899   3.125  0.1822  0.2762  0.5476
   11V3OU   C10 1449   4.122   1.888   3.020 -0.1537  0.5379  0.2328
   11V3OU    C8 1450   4.172   1.929   2.897  0.5108  0.4271  0.4580
   11V3OU   O10 1451   4.302   1.937   2.858  0.3675 -0.0245 -0.1286
   11V3OU   H26 1452   4.340   1.907   2.942  2.4386  1.9205 -0.2801
   11V3OU    C6 1453   4.083   1.972   2.793  0.0652 -0.8324  0.2962
   11V3OU    C5 1454   3.947   1.987   2.818  0.0659 -0.3630  0.0513
   11V3OU    C4 1455   4.143   2.001   2.660 -0.2727  1.4140  0.5845
   11V3OU    H4 1456   4.230   2.074   2.662  1.7280 -0.8383  1.2535
   11V3OU    H5 1457   4.194   1.906   2.624  0.9112  3.1167 -2.6436
   11V3OU    C2 1458   4.053   2.044   2.545 -0.1282 -0.0317 -0.1007
   11V3OU    O6 1459   4.026   2.185   2.550  0.0851  0.0106 -0.1342
   11V3OU   H21 1460   3.954   2.178   2.614 -0.1790 -1.6358 -0.5699
   11V3OU    C3 1461   3.916   1.979   2.566  0.0599 -0.5075 -0.3481
   11V3OU    H2 1462   3.844   2.015   2.489 -0.6724  0.9533  0.9767
   11V3OU    H3 1463   3.929   1.868   2.550 -3.1085 -0.8692 -0.9998
   11V3OU   C25 1464   4.121   2.005   2.413 -0.2269 -0.8072  0.0739
   11V3OU    O7 1465   4.077   1.938   2.321 -0.3643 -0.2206 -0.2940
   11V3OU   C26 1466   4.247   2.082   2.377 -0.7573  0.0560  0.0283
   11V3OU   H22 1467   4.219   2.189   2.361 -1.3838 -0.4715 -3.0309
   11V3OU   H23 1468   4.279   2.055   2.273 -1.5742  1.8865 -0.7542
   11V3OU    O8 1469   4.361   2.067   2.459 -0.6938 -0.0988 -0.0868
   11V3OU   H24 1470   4.379   2.158   2.487 -1.8420  0.0552  0.2176
   11V3OU    C1 1471   3.854   2.003   2.702  0.5069  0.0936 -0.2453
   11V3OU    H1 1472   3.761   1.939   2.712 -0.6293  1.7143  0.1532
   11V3OU    O3 1473   3.822   2.142   2.709  0.0324 -0.0294  0.1031
   11V3OU   C19 1474   3.706   2.208   2.761  0.2168  0.4597 -0.1016
   11V3OU    H9 1475   3.686   2.181   2.869  0.7690  0.5635  0.0279
   11V3OU    O4 1476   3.597   2.149   2.693  0.0936  0.0302  0.4610
   11V3OU   C20 1477   3.555   2.196   2.565  0.0546 -0.7432  0.1883
   11V3OU   H10 1478   3.633   2.181   2.484  0.2271  1.8860 -0.2055
   11V3OU   C24 1479   3.714   2.359   2.739  0.1177  0.5592  0.5422
   11V3OU   H16 1480   3.807   2.407   2.780  0.7598  1.7815 -2.1515
   11V3OU   H17 1481   3.628   2.399   2.799 -0.6497 -1.0689  0.5681
   11V3OU   C23 1482   3.685   2.402   2.595 -0.3182  0.1283  0.4978
   11V3OU   H15 1483   3.763   2.348   2.531 -0.2668 -0.7489  1.2719
   11V3OU    N1 1484   3.707   2.545   2.590 -0.9295  0.2334  0.7008
   11V3OU   H19 1485   3.749   2.573   2.676  0.2064 -1.4303  0.7328
   11V3OU   H20 1486   3.622   2.596   2.593 -0.0833  1.8092 -0.3978
   11V3OU   C21 1487   3.545   2.348   2.553  0.0709 -0.7336  0.2895
   11V3OU   H11 1488   3.536   2.376   2.443 -5.6509 -1.3278  0.3126
   11V3OU    O5 1489   3.434   2.404   2.620  0.1769  0.1118 -0.2200
   11V3OU   H18 1490   3.435   2.376   2.713  1.0151  3.8752  1.0754
   11V3OU   C22 1491   3.421   2.135   2.526 -0.3435  0.3964 -0.2819
   11V3OU   H12 1492   3.347   2.158   2.606 -0.2331 -1.1774  0.3087
   11V3OU   H13 1493   3.431   2.023   2.516 -0.9318  0.2248  0.9248
   11V3OU   H14 1494   3.388   2.176   2.428  1.4466  0.4661 -0.8883
   11V3OU   C11 1495   3.925   1.852   3.177  0.0032 -0.9369  0.0032
   11V3OU    O1 1496   3.819   1.915   3.199  0.3169 -0.0219 -1.0141
   11V3OU    C9 1497   3.982   1.886   3.045 -0.2110 -0.9234 -0.0879
   11V3OU    C7 1498   3.903   1.946   2.948  0.0571 -0.3110  0.0660
   11V3OU    O9 1499   3.781   2.004   2.980 -0.1353 -0.3918 -0.5038
   11V3OU   H25 1500   3.774   1.977   3.073  2.2685  2.0312  0.5259
   11V3OU   C17 1501   4.055   1.781   3.521 -0.2084 -0.1693  0.2581
   11V3OU    H7 1502   4.024   1.736   3.615  1.6550  0.0838  1.0318
   11V3OU   C18 1503   4.189   1.814   3.504 -0.4263  0.7756  0.2779
   11V3OU    H8 1504   4.261   1.809   3.587  0.5907 -2.6923 -0.6197
   12V3OU   H29 1505   6.084   1.958   5.769  1.0915  0.4098 -0.2561
   12V3OU   C27 1506   6.140   1.865   5.799 -0.1929 -0.0754  0.7559
   12V3OU   H27 1507   6.214   1.847   5.717 -2.0194  0.8325 -1.2183
   12V3OU   H28 1508   6.191   1.875   5.898  1.7114 -2.5798  0.1102
   12V3OU   O11 1509   6.047   1.758   5.813 -0.4027  0.0239  0.1755
   12V3OU   C15 1510   5.937   1.775   5.895 -0.3236  1.0048  0.0904
   12V3OU   C13 1511   5.846   1.667   5.902  0.2324  0.5350  0.1680
   12V3OU   C14 1512   5.762   1.646   6.011  0.4775  0.1440  0.2813
   12V3OU   C16 1513   5.766   1.738   6.115 -0.4891  0.1053  0.3585
   12V3OU    H6 1514   5.690   1.736   6.195  0.2431  1.3553  1.1284
   12V3OU   C12 1515   5.659   1.539   6.010  0.7967 -0.1602 -0.2137
   12V3OU    O2 1516   5.582   1.522   6.107  0.3486  0.1703 -0.5110
   12V3OU   C10 1517   5.648   1.455   5.889 -0.1100 -0.1782 -0.1259
   12V3OU    C8 1518   5.561   1.347   5.891 -0.1278 -0.1560  0.5296
   12V3OU   O10 1519   5.462   1.335   5.984 -0.3197 -0.3240  0.3037
   12V3OU   H26 1520   5.484   1.402   6.051  1.0274 -1.3160  0.8741
   12V3OU    C6 1521   5.550   1.259   5.779 -0.2930  0.2561  0.2181
   12V3OU    C5 1522   5.638   1.281   5.673 -0.7897  0.3486 -0.1760
   12V3OU    C4 1523   5.458   1.143   5.790  0.4328 -0.3370  0.1151
   12V3OU    H4 1524   5.454   1.103   5.896  1.5780 -0.3905  0.1448
   12V3OU    H5 1525   5.354   1.183   5.770 -0.0927 -0.7447  1.8723
   12V3OU    C2 1526   5.479   1.035   5.683  0.5902 -0.0619 -0.1327
   12V3OU    O6 1527   5.602   0.967   5.711  0.7043  0.0295 -0.4159
   12V3OU   H21 1528   5.673   1.019   5.670  1.0336  1.0821  1.3650
   12V3OU    C3 1529   5.497   1.105   5.549 -0.3622  0.2480 -0.1084
   12V3OU    H2 1530   5.512   1.024   5.472 -0.8066 -0.0269  0.0947
   12V3OU    H3 1531   5.406   1.164   5.522 -1.1831 -1.4047 -1.1550
   12V3OU   C25 1532   5.368   0.929   5.683  0.4632  0.0732 -0.3414
   12V3OU    O7 1533   5.256   0.972   5.711  0.6049  0.1660  0.0912
   12V3OU   C26 1534   5.396   0.782   5.655 -0.3956 -0.1655  0.0410
   12V3OU   H22 1535   5.293   0.738   5.661 -1.8048  2.3018 -3.1471
   12V3OU   H23 1536   5.457   0.740   5.738  1.4872  0.9369 -0.7284
   12V3OU    O8 1537   5.461   0.757   5.533  0.0895  0.7901  0.0933
   12V3OU   H24 1538   5.535   0.704   5.566 -0.8283  0.0494  1.0213
   12V3OU    C1 1539   5.619   1.196   5.551  0.1660 -0.4573  0.2229
   12V3OU    H1 1540   5.615   1.256   5.455  0.2974 -0.7646  0.0221
   12V3OU    O3 1541   5.728   1.104   5.548  0.3498 -0.2568  0.7170
   12V3OU   C19 1542   5.828   1.111   5.446 -0.2611  0.1027  0.1340
   12V3OU    H9 1543   5.861   1.218   5.434 -0.1329 -0.0618 -1.1289
   12V3OU    O4 1544   5.765   1.080   5.324 -0.0876 -0.1635  0.1092
   12V3OU   C20 1545   5.735   0.946   5.286 -0.5116  0.0342 -0.2575
   12V3OU   H10 1546   5.644   0.913   5.345  0.1888 -0.5722  0.4864
   12V3OU   C24 1547   5.940   1.014   5.485 -0.0127  0.2995 -0.0858
   12V3OU   H16 1548   5.972   1.032   5.591  1.2165  0.8328 -0.5298
   12V3OU   H17 1549   6.027   1.037   5.418  0.4649 -0.3494  0.2978
   12V3OU   C23 1550   5.891   0.870   5.465  0.6528  0.0877 -0.2193
   12V3OU   H15 1551   5.796   0.862   5.528  0.0455 -1.2901 -1.2688
   12V3OU    N1 1552   5.991   0.783   5.524  0.3321 -0.0916  0.0654
   12V3OU   H19 1553   6.079   0.830   5.512  0.4625 -0.6592 -1.4962
   12V3OU   H20 1554   5.999   0.708   5.458  2.0072  0.3011 -0.2351
   12V3OU   C21 1555   5.842   0.843   5.319 -0.1642  0.4708 -0.0234
   12V3OU   H11 1556   5.781   0.749   5.324  0.2132  0.2780  1.5781
   12V3OU    O5 1557   5.939   0.836   5.216 -0.3044  0.5594 -0.1612
   12V3OU   H18 1558   5.936   0.743   5.188 -0.2701  0.5177 -0.0283
   12V3OU   C22 1559   5.712   0.963   5.136 -0.2897 -0.0192 -0.2982
   12V3OU   H12 1560   5.707   0.863   5.087 -1.4200 -0.4839  0.6992
   12V3OU   H13 1561   5.791   1.027   5.091 -1.5119  1.9585  0.2411
   12V3OU   H14 1562   5.612   1.011   5.118  0.6480  2.2091  0.1177
   12V3OU   C11 1563   5.813   1.604   5.773  0.1560  0.1650  0.3680
   12V3OU    O1 1564   5.853   1.640   5.660 -0.0008  0.3397  0.3671
   12V3OU    C9 1565   5.733   1.480   5.778 -0.1094  0.3205 -0.0184
   12V3OU    C7 1566   5.730   1.389   5.672 -0.0794 -0.2387  0.4568
   12V3OU    O9 1567   5.801   1.412   5.556  0.3279 -0.2346  0.7010
   12V3OU   H25 1568   5.855   1.486   5.587 -1.4589  0.4915  2.2427
   12V3OU   C17 1569   5.940   1.869   6.000  0.5104  0.0663  0.9424
   12V3OU    H7 1570   5.963   1.974   5.979 -1.1315  0.3357  0.3760
   12V3OU   C18 1571   5.855   1.844   6.107 -0.0910 -0.2251  0.4017
   12V3OU    H8 1572   5.858   1.909   6.195 -0.5613 -0.8767  0.9076
   13V3OU   H29 1573   3.262   2.213   4.161 -0.2260  1.1252 -1.3626
   13V3OU   C27 1574   3.356   2.191   4.104  0.3345 -0.3923  0.0759
   13V3OU   H27 1575   3.429   2.275   4.113 -1.6923  1.5902 -0.8836
   13V3OU   H28 1576   3.394   2.087   4.119 -0.8001 -1.2155 -2.2391
   13V3OU   O11 1577   3.318   2.179   3.967  0.2328  0.0869  0.0584
   13V3OU   C15 1578   3.194   2.139   3.922  0.1317  0.2967  0.1532
   13V3OU   C13 1579   3.175   2.144   3.783 -0.0666  0.5682  0.1889
   13V3OU   C14 1580   3.046   2.131   3.730  0.1091 -0.5048 -0.0008
   13V3OU   C16 1581   2.939   2.107   3.816 -0.1691 -0.7181 -0.4026
   13V3OU    H6 1582   2.838   2.088   3.777 -0.2069  0.8674 -1.1593
   13V3OU   C12 1583   3.022   2.162   3.587 -0.1119 -0.1310  0.1119
   13V3OU    O2 1584   2.907   2.178   3.542 -0.0136  0.3219  0.0191
   13V3OU   C10 1585   3.131   2.140   3.490  0.0656  1.2233 -0.0135
   13V3OU    C8 1586   3.112   2.163   3.355  0.3039 -0.1092 -0.2857
   13V3OU   O10 1587   2.991   2.174   3.292 -0.0642  0.5466  0.5192
   13V3OU   H26 1588   2.928   2.163   3.365  0.0062  0.4466  0.5667
   13V3OU    C6 1589   3.225   2.176   3.268  0.0669 -0.0970 -0.5984
   13V3OU    C5 1590   3.353   2.163   3.320 -0.1443  0.1587 -0.0026
   13V3OU    C4 1591   3.213   2.224   3.128  0.0686  0.3796 -0.4396
   13V3OU    H4 1592   3.120   2.166   3.099  1.0369 -1.1625 -0.5664
   13V3OU    H5 1593   3.192   2.335   3.123 -3.4116 -0.1724 -1.1172
   13V3OU    C2 1594   3.327   2.190   3.031  0.5246  0.4070  0.0841
   13V3OU    O6 1595   3.324   2.056   2.981 -0.2198  0.5576 -0.2992
   13V3OU   H21 1596   3.349   2.012   3.064 -0.4891  0.4668 -0.2656
   13V3OU    C3 1597   3.460   2.200   3.105  0.4654  0.4425  0.1874
   13V3OU    H2 1598   3.545   2.168   3.038  1.5945  1.2852  1.1672
   13V3OU    H3 1599   3.485   2.307   3.126  1.1745 -0.0067  1.8010
   13V3OU   C25 1600   3.312   2.271   2.902 -0.5456  0.1389  0.0317
   13V3OU    O7 1601   3.406   2.337   2.860 -0.4314 -0.2091 -0.2622
   13V3OU   C26 1602   3.178   2.286   2.832 -0.2962 -0.1141 -0.5050
   13V3OU   H22 1603   3.130   2.190   2.800 -0.7849  0.4333 -1.4800
   13V3OU   H23 1604   3.190   2.350   2.741  0.5546 -0.6582 -0.7871
   13V3OU    O8 1605   3.079   2.343   2.914  0.1807 -0.2845  0.1942
   13V3OU   H24 1606   2.989   2.335   2.879  1.0180 -1.7035 -1.7656
   13V3OU    C1 1607   3.467   2.119   3.233 -0.3613 -0.1424 -0.1345
   13V3OU    H1 1608   3.570   2.131   3.278 -1.5458  1.4595  2.3648
   13V3OU    O3 1609   3.430   1.985   3.199 -0.2947 -0.2041  0.0374
   13V3OU   C19 1610   3.490   1.855   3.205 -0.1058 -0.1198  0.0021
   13V3OU    H9 1611   3.596   1.847   3.166 -0.1230  0.9015 -0.2668
   13V3OU    O4 1612   3.411   1.780   3.115 -0.0303 -0.0658 -0.1093
   13V3OU   C20 1613   3.283   1.725   3.147  0.1905 -0.6229 -0.1715
   13V3OU   H10 1614   3.211   1.811   3.157  0.7532 -0.0250 -1.1243
   13V3OU   C24 1615   3.486   1.806   3.350 -0.1772  0.1002  0.0748
   13V3OU   H16 1616   3.531   1.883   3.417 -0.2261 -0.0101  0.2346
   13V3OU   H17 1617   3.549   1.714   3.358  0.5154  0.4381 -1.1840
   13V3OU   C23 1618   3.341   1.778   3.387 -0.1076 -0.4464 -0.0548
   13V3OU   H15 1619   3.281   1.874   3.373  1.1743  0.1559 -1.7635
   13V3OU    N1 1620   3.331   1.734   3.525  0.5975 -0.0251  0.1343
   13V3OU   H19 1621   3.342   1.634   3.526 -0.4276 -0.1765 -0.8494
   13V3OU   H20 1622   3.237   1.743   3.558  0.7993  0.1995  0.6556
   13V3OU   C21 1623   3.285   1.669   3.290 -0.7996 -0.1727  0.0271
   13V3OU   H11 1624   3.175   1.672   3.316 -0.6477  0.8714  0.5937
   13V3OU    O5 1625   3.331   1.536   3.302 -0.3023 -0.0520 -0.4606
   13V3OU   H18 1626   3.416   1.518   3.258  0.5848  0.8287  0.7936
   13V3OU   C22 1627   3.242   1.637   3.030  0.1432 -0.5622 -0.2007
   13V3OU   H12 1628   3.266   1.690   2.934  0.1380  0.4219  0.3323
   13V3OU   H13 1629   3.131   1.631   3.025  0.1202 -0.6001  0.2933
   13V3OU   H14 1630   3.300   1.541   3.029 -0.7567 -1.1316 -1.9423
   13V3OU   C11 1631   3.287   2.120   3.691 -0.1226 -0.3509  0.3530
   13V3OU    O1 1632   3.396   2.071   3.726  0.2066  0.0012 -0.1646
   13V3OU    C9 1633   3.262   2.133   3.545 -0.1465 -0.2412  0.3659
   13V3OU    C7 1634   3.372   2.153   3.462 -0.4286 -0.1378  0.0147
   13V3OU    O9 1635   3.502   2.146   3.506 -0.5054 -0.1454  0.2462
   13V3OU   H25 1636   3.490   2.117   3.598 -0.9167 -0.0066  0.2356
   13V3OU   C17 1637   3.086   2.108   4.008  0.1188 -0.1662 -0.0262
   13V3OU    H7 1638   3.096   2.072   4.110 -2.9452 -0.8109  0.1627
   13V3OU   C18 1639   2.960   2.090   3.952  0.3896 -0.6863 -0.4778
   13V3OU    H8 1640   2.881   2.048   4.017  1.8233 -0.0533  1.7726
   14SOL     OW 1641   6.813   5.348   2.409 -0.2044  0.0916 -0.2816
   14SOL    HW1 1642   6.856   5.260   2.429 -0.9028 -0.5397 -1.4123
   14SOL    HW2 1643   6.809   5.361   2.310 -0.4698  1.2165 -0.1342
   15SOL     OW 1644   1.477   2.502   5.488  0.4546  0.7329 -0.5897
   15SOL    HW1 1645   1.531   2.536   5.411 -0.6891 -1.8921 -2.7078
   15SOL    HW2 1646   1.521   2.422   5.528 -0.3465  0.4182 -0.3230
   16SOL     OW 1647   4.170   4.285   0.320 -0.0667  0.5570  0.2652
   16SOL    HW1 1648   4.262   4.288   0.361 -0.5463 -2.2057  1.8078
   16SOL    HW2 1649   4.157   4.197   0.275 -1.5341  1.4615 -1.2072
   17SOL     OW 1650   2.639   2.842   6.280 -0.1621 -0.0989  0.2833
   17SOL    HW1 1651   2.562   2.900   6.306 -0.8427 -1.1050  0.5852
   17SOL    HW2 1652   2.689   2.814   6.363 -0.2285 -0.4639  0.2015
   18SOL     OW 1653   4.979   2.940   2.191 -0.7339 -0.4535  0.0696
   18SOL    HW1 1654   4.959   2.956   2.287  0.2085 -0.2998  0.2483
   18SOL    HW2 1655   5.067   2.980   2.168 -0.7414 -0.8821 -0.7493
   19SOL     OW 1656   3.707   1.261   5.965  0.6974 -0.4728  0.1398
   19SOL    HW1 1657   3.668   1.322   5.896 -1.5256 -3.0153 -1.0431
   19SOL    HW2 1658   3.788   1.216   5.927  1.7380  0.8912  0.6530
   20SOL     OW 1659   1.603   2.353   4.528  0.4424 -0.3291  0.8607
   20SOL    HW1 1660   1.548   2.271   4.545 -1.5939  0.8758  0.4962
   20SOL    HW2 1661   1.586   2.419   4.601  0.7681  0.3831  0.3021
   21SOL     OW 1662   4.256   2.314   1.435 -0.3181 -0.2897 -0.0968
   21SOL    HW1 1663   4.340   2.274   1.398 -0.4654 -0.1975 -0.5373
   21SOL    HW2 1664   4.262   2.317   1.535  0.1230 -0.4577 -0.1147
   22SOL     OW 1665   5.009   0.836   1.437  0.5288 -0.4416  0.3239
   22SOL    HW1 1666   4.991   0.931   1.410  0.7371 -0.4459  0.1745
   22SOL    HW2 1667   5.054   0.788   1.363  2.7997  0.0478  1.3004
   23SOL     OW 1668   1.962   6.154   0.732  0.2700 -0.8394 -0.1923
   23SOL    HW1 1669   1.958   6.090   0.808  0.7110  0.8063  1.2891
   23SOL    HW2 1670   1.975   6.247   0.767 -1.8158  0.2957 -2.1452
   24SOL     OW 1671   5.022   2.397   1.618  0.0969 -0.4544  0.1448
   24SOL    HW1 1672   4.936   2.424   1.660 -0.9424 -1.6496 -1.1182
   24SOL    HW2 1673   5.076   2.479   1.595 -1.1547  0.3563  0.0225
   25SOL     OW 1674   3.658   4.176   4.733 -0.6019 -0.3139  0.0088
   25SOL    HW1 1675   3.562   4.146   4.731 -0.6201 -0.2603  0.0581
   25SOL    HW2 1676   3.685   4.205   4.641 -0.4308 -0.9490 -0.1446
   26SOL     OW 1677   2.573   3.407   0.539 -0.2576  0.0390 -0.0800
   26SOL    HW1 1678   2.525   3.341   0.596  1.4284 -1.0395  0.1314
   26SOL    HW2 1679   2.671   3.400   0.554  0.0847  1.2460 -1.5150
   27SOL     OW 1680   0.861   3.217   2.699  0.3628 -1.1367  0.5059
   27SOL    HW1 1681   0.852   3.117   2.694 -0.0943 -1.0530 -0.8434
   27SOL    HW2 1682   0.785   3.259   2.649  1.9600 -0.1566 -1.2246
   28SOL     OW 1683   1.820   6.175   0.502  0.6662 -0.6370 -0.6952
   28SOL    HW1 1684   1.880   6.233   0.448  1.2654 -0.7007 -0.1078
   28SOL    HW2 1685   1.853   6.170   0.596  0.1141 -1.2038 -0.5187
   29SOL     OW 1686   4.313   4.973   3.626  0.6357  0.3248  0.2661
   29SOL    HW1 1687   4.310   4.954   3.724  0.0382  0.5988  0.3050
   29SOL    HW2 1688   4.354   5.064   3.611 -1.9804  1.6359  0.4806
   30SOL     OW 1689   3.966   4.823   6.849 -0.5985  0.4515 -0.1915
   30SOL    HW1 1690   4.025   4.765   6.904  0.5800 -0.7500 -2.5599
   30SOL    HW2 1691   3.921   4.891   6.907  1.3713 -0.0283  2.0131
   31SOL     OW 1692   1.896   5.418   5.671 -0.4252  0.7291  0.1325
   31SOL    HW1 1693   1.843   5.383   5.594 -1.1354 -1.5962  1.5524
   31SOL    HW2 1694   1.847   5.494   5.713 -0.0818  1.9379 -1.5937
   32SOL     OW 1695   1.039   3.483   2.624  0.5575 -0.1470 -0.7573
   32SOL    HW1 1696   0.994   3.424   2.692 -1.3501  4.2433  2.2865
   32SOL    HW2 1697   0.981   3.490   2.543 -1.4706  0.7719  0.6607
   33SOL     OW 1698   4.879   5.251   0.298  0.0752  0.3456  0.1412
   33SOL    HW1 1699   4.947   5.215   0.363  0.4338  0.8065  0.0251
   33SOL    HW2 1700   4.874   5.350   0.308 -2.1419  0.1458  1.6779
   34SOL     OW 1701   6.556   1.971   6.076  0.0904 -0.1497  0.0154
   34SOL    HW1 1702   6.462   1.960   6.107  0.5313  0.9544  1.8975
   34SOL    HW2 1703   6.560   2.038   6.002 -0.3362  2.1016  1.9144
   35SOL     OW 1704   6.394   2.586   5.668 -0.0898 -0.0563  0.1738
   35SOL    HW1 1705   6.423   2.516   5.604 -0.4979  0.8714 -1.0655
   35SOL    HW2 1706   6.298   2.609   5.652 -0.3518 -0.1558  1.4594
   36SOL     OW 1707   6.552   0.062   2.773  0.3044 -0.6431  0.0010
   36SOL    HW1 1708   6.536   0.086   2.869 -1.1145 -0.5748 -0.2393
   36SOL    HW2 1709   6.499   0.123   2.714 -0.3152 -1.8806 -0.7567
   37SOL     OW 1710   6.575   2.662   2.117  0.3785 -0.0315  0.0628
   37SOL    HW1 1711   6.584   2.733   2.186 -0.3427 -0.5625  0.7209
   37SOL    HW2 1712   6.492   2.679   2.063 -0.1296 -0.7012  0.6223
   38SOL     OW 1713   3.631   1.396   6.964  0.2688 -0.2191 -0.4520
   38SOL    HW1 1714   3.580   1.349   7.036 -0.2782  0.7751 -0.1653
   38SOL    HW2 1715   3.729   1.386   6.980  0.1547  0.1705  0.5753
   39SOL     OW 1716   5.675   4.636   4.924  0.1023  0.2101  0.0787
   39SOL    HW1 1717   5.600   4.614   4.862  0.6250  0.3221 -0.6042
   39SOL    HW2 1718   5.760   4.597   4.889  0.2401 -0.5938  1.2531
   40SOL     OW 1719   6.994   5.342   5.271  0.5627  0.2635  0.6055
   40SOL    HW1 1720   6.896   5.339   5.255  0.6867  0.2685 -0.2255
   40SOL    HW2 1721   7.012   5.374   5.364 -0.2134  0.3423  0.7351
   41SOL     OW 1722   0.936   6.513   5.745 -0.2131 -0.2703  0.4712
   41SOL    HW1 1723   1.030   6.543   5.762 -0.2855 -0.3952  1.1291
   41SOL    HW2 1724   0.911   6.534   5.651  0.6332 -0.6573  0.1447
   42SOL     OW 1725   6.334   2.917   4.602  0.1522 -0.4410  0.3730
   42SOL    HW1 1726   6.385   2.976   4.665  0.1808  0.8170 -0.7610
   42SOL    HW2 1727   6.250   2.965   4.574  0.3291 -0.8084 -0.8181
   43SOL     OW 1728   1.872   2.682   1.517  0.0567  0.3596  0.0597
   43SOL    HW1 1729   1.776   2.709   1.513 -0.9233 -2.8269 -3.3862
   43SOL    HW2 1730   1.882   2.601   1.575  0.8688  1.1194  1.0238
   44SOL     OW 1731   0.032   4.144   5.597 -0.1513 -0.2231 -0.3566
   44SOL    HW1 1732  -0.038   4.212   5.574  2.1682  1.5129 -2.9611
   44SOL    HW2 1733   0.080   4.173   5.679 -0.3877  0.3196 -0.4026
   45SOL     OW 1734   4.515   1.395   6.374 -0.0290  0.3444  0.5315
   45SOL    HW1 1735   4.469   1.423   6.458 -2.0838 -1.4743  0.0977
   45SOL    HW2 1736   4.523   1.473   6.312 -0.6584  1.1716  1.4625
   46SOL     OW 1737   0.477   4.693   2.341 -0.3335  0.3986  0.6228
   46SOL    HW1 1738   0.547   4.688   2.269 -1.5129  1.1257 -0.6284
   46SOL    HW2 1739   0.509   4.644   2.422  1.6345  0.7550  0.1181
   47SOL     OW 1740   6.538   0.070   2.367 -0.2520  0.1069  0.5516
   47SOL    HW1 1741   6.539   0.106   2.460  0.8800 -0.6122  0.8437
   47SOL    HW2 1742   6.451   0.092   2.323  0.7959  4.3915  0.2159
   48SOL     OW 1743   4.657   0.336   5.906 -0.4651  0.4317 -0.0669
   48SOL    HW1 1744   4.605   0.347   5.991  0.0374  1.5107  0.1236
   48SOL    HW2 1745   4.630   0.407   5.841  0.1485  0.4809 -0.2753
   49SOL     OW 1746   1.560   4.045   1.235 -0.7398  0.3997  0.1868
   49SOL    HW1 1747   1.551   3.966   1.175  0.1122  0.8662 -0.5815
   49SOL    HW2 1748   1.557   4.016   1.330 -1.5578 -0.4167 -0.0808
   50SOL     OW 1749   0.584   3.767   2.558  0.1435  0.5739 -0.1978
   50SOL    HW1 1750   0.618   3.709   2.484  1.2105  0.2127  0.5620
   50SOL    HW2 1751   0.525   3.714   2.619 -2.2053  1.2736 -1.6985
   51SOL     OW 1752   0.970   2.913   1.428  0.2658 -0.2924  0.2188
   51SOL    HW1 1753   0.914   2.996   1.434  0.7557 -0.0161  1.0907
   51SOL    HW2 1754   1.038   2.914   1.501  2.2420 -0.0212 -1.5472
   52SOL     OW 1755   2.124   6.016   3.485  0.4512 -0.0886  0.1973
   52SOL    HW1 1756   2.105   6.002   3.388  1.3923 -0.6045  0.0816
   52SOL    HW2 1757   2.157   5.931   3.526 -0.6085 -0.0824  1.1522
   53SOL     OW 1758   4.601   5.296   0.420 -0.4353  0.0081 -0.4430
   53SOL    HW1 1759   4.639   5.284   0.328 -0.6304 -2.7567 -0.2498
   53SOL    HW2 1760   4.528   5.229   0.434 -1.4107  1.3476  1.2508
   54SOL     OW 1761   0.644   3.311   0.155 -0.1320  0.8828  0.4276
   54SOL    HW1 1762   0.666   3.226   0.203 -1.7583  0.7920  1.0861
   54SOL    HW2 1763   0.599   3.375   0.218 -1.1633  1.2604 -0.6354
   55SOL     OW 1764   3.046   0.925   3.668  0.3398 -0.0236 -0.1539
   55SOL    HW1 1765   3.001   0.990   3.607 -0.9516  0.2394  1.0169
   55SOL    HW2 1766   3.115   0.873   3.617 -1.0133 -0.1519 -1.9459
   56SOL     OW 1767   3.876   6.927   6.074 -0.1318  0.3564  0.3852
   56SOL    HW1 1768   3.849   6.905   6.168 -1.2878  1.2408  0.2765
   56SOL    HW2 1769   3.975   6.939   6.071  0.6477 -4.1921  0.5412
   57SOL     OW 1770   6.755   5.860   5.871  0.3166  0.5329 -0.5197
   57SOL    HW1 1771   6.835   5.920   5.866  0.5207  0.5674  2.1471
   57SOL    HW2 1772   6.707   5.875   5.956 -0.7178 -1.7729 -0.6196
   58SOL     OW 1773   6.763   5.162   1.693  0.2309 -0.6498 -1.1714
   58SOL    HW1 1774   6.713   5.076   1.703  2.0484 -1.6652 -0.2649
   58SOL    HW2 1775   6.855   5.143   1.658  1.2845  0.7146  0.7107
   59SOL     OW 1776   1.325   5.757   2.939 -0.2342  0.0635  0.0505
   59SOL    HW1 1777   1.299   5.711   3.024 -2.3506  0.4472 -0.3278
   59SOL    HW2 1778   1.423   5.779   2.941 -0.0207 -0.8894  1.9051
   60SOL     OW 1779   2.451   1.055   6.006 -0.1669 -0.0999 -0.5443
   60SOL    HW1 1780   2.507   1.127   6.048 -0.5415  0.0500 -0.2895
   60SOL    HW2 1781   2.395   1.011   6.077 -0.3749 -0.2420 -0.7938
   61SOL     OW 1782   0.316   1.206   2.617  0.5123  0.1967 -0.0058
   61SOL    HW1 1783   0.379   1.270   2.572 -0.9715  0.7293 -1.4365
   61SOL    HW2 1784   0.364   1.160   2.692  2.3461  1.1681 -0.4987
   62SOL     OW 1785   1.942   5.694   0.738 -0.0101 -0.5565 -0.2476
   62SOL    HW1 1786   1.979   5.636   0.665 -0.4708 -0.2587 -0.7285
   62SOL    HW2 1787   1.910   5.780   0.699 -1.4938 -0.9168  0.0731
   63SOL     OW 1788   3.052   3.744   4.051 -0.4666 -0.2655  0.1126
   63SOL    HW1 1789   2.960   3.782   4.060 -0.1320  0.5984  0.0560
   63SOL    HW2 1790   3.057   3.657   4.099 -1.3517 -0.3975 -0.0123
   64SOL     OW 1791   4.942   1.326   3.833 -0.3150  0.1938  0.2263
   64SOL    HW1 1792   4.928   1.399   3.900  0.0488  0.6838 -0.2206
   64SOL    HW2 1793   4.858   1.272   3.823 -0.5026  0.3870  0.7542
   65SOL     OW 1794   1.165   0.247   6.611  0.2306 -0.5316  0.6073
   65SOL    HW1 1795   1.145   0.149   6.611 -1.0281 -0.3150 -0.6939
   65SOL    HW2 1796   1.229   0.268   6.538 -0.6738 -0.2018 -0.1098
   66SOL     OW 1797   1.639   1.423   5.699  0.1962 -0.2747  0.1711
   66SOL    HW1 1798   1.714   1.410   5.635  0.2658  1.1720 -0.0647
   66SOL    HW2 1799   1.668   1.484   5.773 -0.4626 -0.4428  0.5761
   67SOL     OW 1800   1.587   0.727   0.440  0.1756 -0.3205 -0.1248
   67SOL    HW1 1801   1.555   0.636   0.413  0.6433 -0.1253 -1.4207
   67SOL    HW2 1802   1.666   0.753   0.384  0.3395  0.6957  0.5456
   68SOL     OW 1803   0.389   0.162   6.253 -0.2800 -0.5660 -0.3853
   68SOL    HW1 1804   0.357   0.203   6.167  1.1675 -1.0888 -1.2105
   68SOL    HW2 1805   0.382   0.062   6.246 -2.4114 -0.5913  1.0563
   69SOL     OW 1806   6.205   0.393   4.473 -0.8645 -0.2550  0.2466
   69SOL    HW1 1807   6.305   0.390   4.472 -0.8226  0.5083  0.8931
   69SOL    HW2 1808   6.170   0.389   4.380 -0.2103 -0.0900 -0.0092
   70SOL     OW 1809   4.171   6.444   0.478  0.2563 -0.3825  0.0476
   70SOL    HW1 1810   4.122   6.363   0.510  0.1096 -0.6137 -0.7468
   70SOL    HW2 1811   4.169   6.514   0.549  1.3809 -1.4812  1.2161
   71SOL     OW 1812   4.522   3.083   1.311  0.2531  0.9812 -0.1798
   71SOL    HW1 1813   4.479   2.995   1.334  1.5994 -0.4146 -2.5367
   71SOL    HW2 1814   4.570   3.118   1.391 -1.6538  0.4429  1.2834
   72SOL     OW 1815   0.309   5.442   3.590  0.1154  0.4643 -0.0507
   72SOL    HW1 1816   0.363   5.358   3.581 -1.1729 -0.5710  1.3328
   72SOL    HW2 1817   0.371   5.519   3.605  1.2527 -0.6413  1.2884
   73SOL     OW 1818   2.400   2.582   2.268 -0.3822  0.5380  0.1155
   73SOL    HW1 1819   2.483   2.620   2.310 -0.9342  2.9580 -0.7978
   73SOL    HW2 1820   2.413   2.577   2.169 -0.5799 -1.1727  0.1528
   74SOL     OW 1821   4.908   6.067   4.604 -0.3476 -0.2731  0.2105
   74SOL    HW1 1822   4.939   5.972   4.599  2.1430  0.4367  0.4946
   74SOL    HW2 1823   4.830   6.074   4.665  0.5276 -1.9288  1.6007
   75SOL     OW 1824   0.377   5.081   3.517 -0.0211  0.1420 -0.5080
   75SOL    HW1 1825   0.374   4.982   3.532  0.4814  0.0827 -0.7994
   75SOL    HW2 1826   0.438   5.123   3.583 -1.4374  0.4686  0.6614
   76SOL     OW 1827   4.372   4.475   2.297 -0.2466  0.4305  0.4139
   76SOL    HW1 1828   4.433   4.396   2.299  0.4109  0.8722 -1.2804
   76SOL    HW2 1829   4.277   4.444   2.305 -0.0410 -0.6067 -0.9063
   77SOL     OW 1830   5.884   3.514   3.272  0.1465 -0.2857 -0.8578
   77SOL    HW1 1831   5.867   3.416   3.265 -0.9951 -0.1218 -0.4754
   77SOL    HW2 1832   5.940   3.544   3.194  0.3947 -1.2071 -1.0403
   78SOL     OW 1833   6.142   4.390   2.260  0.6762  0.5331  0.0285
   78SOL    HW1 1834   6.130   4.330   2.339  2.7072 -0.3934 -0.2802
   78SOL    HW2 1835   6.178   4.478   2.290 -3.0966  2.0675  0.5782
   79SOL     OW 1836   2.840   5.479   3.518  0.1023 -0.1479  0.7552
   79SOL    HW1 1837   2.821   5.381   3.513 -1.5113  0.1735 -0.3748
   79SOL    HW2 1838   2.767   5.525   3.570  0.6099  0.5112  0.9057
   80SOL     OW 1839   5.891   3.789   3.326 -1.0617  0.0029 -0.1439
   80SOL    HW1 1840   5.880   3.691   3.343 -0.9201 -0.0064 -0.0999
   80SOL    HW2 1841   5.906   3.804   3.229  2.1285 -0.3509  0.1765
   81SOL     OW 1842   6.589   4.080   2.581  0.0576 -0.0729 -0.0653
   81SOL    HW1 1843   6.515   4.144   2.560  0.0623 -0.2984 -0.7641
   81SOL    HW2 1844   6.581   4.050   2.676 -0.5305  0.1892 -0.0319
   82SOL     OW 1845   3.766   0.550   4.562 -0.5516  0.3047 -0.1087
   82SOL    HW1 1846   3.689   0.613   4.574 -0.1768  2.0068 -4.5523
   82SOL    HW2 1847   3.845   0.600   4.528  1.9631 -1.7569  2.2294
   83SOL     OW 1848   3.238   4.907   3.156 -0.7824 -0.2414  0.4110
   83SOL    HW1 1849   3.294   4.932   3.077 -1.8603 -1.5853 -0.8286
   83SOL    HW2 1850   3.298   4.879   3.231  0.2514  0.5853 -0.0765
   84SOL     OW 1851   6.522   5.727   5.125  0.0614  0.4012  0.4017
   84SOL    HW1 1852   6.508   5.824   5.106 -1.4997  0.6646  2.5872
   84SOL    HW2 1853   6.477   5.703   5.211  0.7012 -2.1997  0.0792
   85SOL     OW 1854   0.857   4.151   4.198  0.2707 -0.3128  0.3319
   85SOL    HW1 1855   0.887   4.219   4.264 -1.3169  0.3983  0.3709
   85SOL    HW2 1856   0.839   4.194   4.110 -1.3373 -0.5293  0.5222
   86SOL     OW 1857   1.310   3.648   6.937 -0.5088  0.0247  0.2118
   86SOL    HW1 1858   1.246   3.710   6.981 -0.5410  0.6577 -0.7034
   86SOL    HW2 1859   1.400   3.691   6.931  0.5216 -1.4998  3.0439
   87SOL     OW 1860   3.277   1.807   0.882 -0.0806  0.6376 -0.0882
   87SOL    HW1 1861   3.255   1.832   0.788 -2.0468  1.1842  0.4761
   87SOL    HW2 1862   3.193   1.804   0.937  0.8277 -1.1889  1.3133
   88SOL     OW 1863   3.883   5.128   2.901 -1.0305 -0.2552 -0.3614
   88SOL    HW1 1864   3.887   5.216   2.853  2.1822  0.0449  0.2501
   88SOL    HW2 1865   3.823   5.136   2.980 -0.4835  1.5407 -0.0819
   89SOL     OW 1866   4.484   1.684   6.824  0.5500 -0.3059  0.1094
   89SOL    HW1 1867   4.463   1.743   6.746 -2.3266  1.6201  2.0801
   89SOL    HW2 1868   4.582   1.665   6.827  1.1311  1.6859 -2.4710
   90SOL     OW 1869   6.085   5.595   4.449  0.2120 -0.8690 -0.0705
   90SOL    HW1 1870   6.059   5.558   4.359  0.4931 -2.3813  0.4334
   90SOL    HW2 1871   6.174   5.640   4.441 -0.6726  0.7965 -0.9513
   91SOL     OW 1872   6.478   0.478   5.110  0.5701  1.0826  0.6078
   91SOL    HW1 1873   6.429   0.471   5.024  0.9334  0.2595  0.4579
   91SOL    HW2 1874   6.446   0.408   5.173  0.6069  1.4063  0.9925
   92SOL     OW 1875   3.781   3.439   5.467 -0.2850 -0.1978 -0.5810
   92SOL    HW1 1876   3.716   3.369   5.438 -1.6824  0.6916  0.2982
   92SOL    HW2 1877   3.732   3.514   5.511  1.1516  1.3825 -1.5452
   93SOL     OW 1878   6.789   0.588   5.755  0.4070 -0.0162 -0.4137
   93SOL    HW1 1879   6.839   0.502   5.769  0.3500 -0.3264 -1.9262
   93SOL    HW2 1880   6.707   0.571   5.700 -1.8946  0.3538  2.6735
   94SOL     OW 1881   0.805   3.330   2.975  0.1240 -0.0999 -0.1710
   94SOL    HW1 1882   0.871   3.339   3.050  0.5860 -0.1132 -0.5752
   94SOL    HW2 1883   0.851   3.295   2.894 -0.3435  0.0742 -0.5126
   95SOL     OW 1884   3.443   6.189   3.175 -0.4674 -0.3546 -0.0951
   95SOL    HW1 1885   3.445   6.287   3.196  1.0537 -0.0201 -1.6398
   95SOL    HW2 1886   3.523   6.144   3.214  0.2952 -0.4516 -1.7048
   96SOL     OW 1887   0.897   5.581   0.987 -0.3427  0.0772 -0.1769
   96SOL    HW1 1888   0.800   5.562   0.998  0.0467 -0.9699  1.9063
   96SOL    HW2 1889   0.932   5.628   1.068  1.0395 -0.2143 -0.5666
   97SOL     OW 1890   5.264   1.696   6.820  0.2278 -0.0898  0.2761
   97SOL    HW1 1891   5.310   1.728   6.737  0.2017 -0.0752  0.2675
   97SOL    HW2 1892   5.332   1.665   6.886  0.5174  3.0883  1.6454
   98SOL     OW 1893   0.439   4.625   3.188 -0.7332 -0.0284 -0.0633
   98SOL    HW1 1894   0.486   4.670   3.264 -0.7820 -0.9298  0.5112
   98SOL    HW2 1895   0.340   4.628   3.203 -0.8327  0.9881 -0.7809
   99SOL     OW 1896   4.519   5.465   3.277 -0.1972  0.6155  0.1288
   99SOL    HW1 1897   4.600   5.496   3.327 -0.1818  1.7615 -0.5644
   99SOL    HW2 1898   4.531   5.370   3.248  0.8807  0.7639  0.0643
  100SOL     OW 1899   4.767   3.675   2.158 -0.0815  0.2191  0.4810
  100SOL    HW1 1900   4.801   3.768   2.144  0.0901  0.2172  0.8775
  100SOL    HW2 1901   4.809   3.636   2.239  0.3967 -0.4767 -0.0946
  101SOL     OW 1902   4.037   4.106   6.446  0.3919  0.2402 -0.1125
  101SOL    HW1 1903   3.939   4.124   6.436  0.0836 -1.4390 -0.3921
  101SOL    HW2 1904   4.073   4.069   6.360  0.9915 -0.3912  0.4022
  102SOL     OW 1905   3.004   5.347   0.262 -0.0145  0.2791 -0.4907
  102SOL    HW1 1906   2.935   5.378   0.198 -1.3101  0.2477  0.8321
  102SOL    HW2 1907   3.092   5.389   0.240 -0.5576  0.7135 -1.8999
  103SOL     OW 1908   5.317   2.371   3.587 -0.1359 -0.2041 -0.2598
  103SOL    HW1 1909   5.310   2.315   3.505  0.5485  0.1903 -0.5882
  103SOL    HW2 1910   5.359   2.318   3.661 -1.3241 -0.7656  0.0448
  104SOL     OW 1911   2.762   0.065   3.758 -0.5635 -0.3013 -1.1195
  104SOL    HW1 1912   2.830   0.099   3.692 -0.6072  0.8684 -0.5903
  104SOL    HW2 1913   2.695   0.008   3.710 -0.1964 -0.0445 -1.9674
  105SOL     OW 1914   1.691   1.789   2.892  0.1044  0.7284  0.0466
  105SOL    HW1 1915   1.681   1.831   2.982 -0.2906  1.1395 -0.1854
  105SOL    HW2 1916   1.601   1.782   2.849  0.3019  0.5968 -0.3484
  106SOL     OW 1917   3.657   2.287   0.620  0.2150  0.4465 -0.3697
  106SOL    HW1 1918   3.634   2.190   0.615 -0.1834  0.4396  1.3468
  106SOL    HW2 1919   3.734   2.300   0.683  0.8091  1.1753 -1.2128
  107SOL     OW 1920   2.422   1.512   6.606  0.3535  0.3999 -0.0721
  107SOL    HW1 1921   2.435   1.428   6.553 -1.1024 -0.2798  0.5795
  107SOL    HW2 1922   2.392   1.585   6.545 -0.0352 -0.0201 -0.3966
  108SOL     OW 1923   3.117   5.201   6.390  0.0324 -0.2714 -0.0214
  108SOL    HW1 1924   3.156   5.251   6.313  0.1541  1.0175  0.8443
  108SOL    HW2 1925   3.035   5.247   6.423  1.1267  0.4314  1.9227
  109SOL     OW 1926   5.047   3.960   4.080 -0.6839 -0.2734  0.5677
  109SOL    HW1 1927   4.978   3.890   4.097 -0.6060 -1.2301 -2.3561
  109SOL    HW2 1928   5.012   4.026   4.014 -0.0023  1.2810  1.7060
  110SOL     OW 1929   5.811   5.099   6.753 -0.2264  0.0922  0.2878
  110SOL    HW1 1930   5.738   5.054   6.701 -0.4857  0.5562  0.2410
  110SOL    HW2 1931   5.840   5.040   6.829  0.3482 -0.7051 -0.5402
  111SOL     OW 1932   3.973   4.129   3.573  0.7531  0.0373 -0.3895
  111SOL    HW1 1933   3.977   4.141   3.474  0.7846 -3.8050 -1.0373
  111SOL    HW2 1934   4.064   4.107   3.608  0.3694 -0.9106  0.0547
  112SOL     OW 1935   6.739   0.594   1.377 -0.4816 -0.2046  0.1047
  112SOL    HW1 1936   6.773   0.501   1.367 -0.2953 -0.0315 -1.1378
  112SOL    HW2 1937   6.758   0.645   1.292 -0.6620  0.9283  0.7266
  113SOL     OW 1938   0.049   2.595   2.817  0.3348 -0.0773  0.1458
  113SOL    HW1 1939  -0.023   2.538   2.855  0.2089 -0.1145 -0.1455
  113SOL    HW2 1940   0.088   2.652   2.889 -0.9366  0.9705  0.0587
  114SOL     OW 1941   1.038   3.710   2.382 -0.0974  0.0441  0.3425
  114SOL    HW1 1942   1.134   3.723   2.358 -0.5009  0.4554 -1.1745
  114SOL    HW2 1943   0.985   3.790   2.352 -0.6692  0.6742  2.7987
  115SOL     OW 1944   1.729   0.282   5.123  0.2771  0.7770  0.2968
  115SOL    HW1 1945   1.791   0.246   5.053 -0.7802 -0.1640 -0.2048
  115SOL    HW2 1946   1.771   0.361   5.168  2.5195 -0.7665  1.1119
  116SOL     OW 1947   5.996   0.821   4.932 -0.3991  0.3915 -0.2872
  116SOL    HW1 1948   5.971   0.856   5.022  0.4894 -0.3058  0.2434
  116SOL    HW2 1949   5.960   0.728   4.920  1.0662 -0.2568  0.1178
  117SOL     OW 1950   6.382   2.971   6.647 -0.2870 -0.1058  0.5799
  117SOL    HW1 1951   6.300   2.931   6.689 -0.8019  0.1922 -0.1223
  117SOL    HW2 1952   6.421   2.906   6.583 -1.4367  0.6573 -0.9728
  118SOL     OW 1953   3.389   1.529   5.692  0.1501 -0.4219  0.1304
  118SOL    HW1 1954   3.340   1.495   5.612 -0.2666  0.0185  0.1953
  118SOL    HW2 1955   3.450   1.604   5.665 -1.7551  1.3755  0.5724
  119SOL     OW 1956   6.967   3.395   2.068 -0.1245  0.4374  0.5998
  119SOL    HW1 1957   6.880   3.348   2.085 -0.4640 -0.7474 -3.2655
  119SOL    HW2 1958   7.040   3.327   2.060  0.1427  0.8867 -1.1294
  120SOL     OW 1959   5.600   6.464   5.460  0.6589 -0.3740 -0.3108
  120SOL    HW1 1960   5.597   6.479   5.559  1.0730 -0.6441 -0.2547
  120SOL    HW2 1961   5.545   6.384   5.437  1.0039 -0.6347 -0.2330
  121SOL     OW 1962   0.838   6.356   6.717  0.1952  0.4197  0.4443
  121SOL    HW1 1963   0.765   6.314   6.663 -0.0194  1.5509 -0.1903
  121SOL    HW2 1964   0.898   6.408   6.656  1.6314 -0.5869  0.9297
  122SOL     OW 1965   3.026   4.135   5.330 -0.6312  0.1870 -0.0144
  122SOL    HW1 1966   3.029   4.171   5.423  1.4591 -0.7879  0.3748
  122SOL    HW2 1967   3.119   4.132   5.293 -1.1471 -1.4863 -1.3054
  123SOL     OW 1968   4.053   6.673   2.181 -0.1279 -0.2639  0.1525
  123SOL    HW1 1969   4.120   6.739   2.215  0.6398 -1.0169  0.1413
  123SOL    HW2 1970   4.078   6.645   2.088 -1.0306  0.2059 -0.2371
  124SOL     OW 1971   0.677   0.789   6.568 -0.3361 -0.1786  0.0562
  124SOL    HW1 1972   0.737   0.861   6.604  0.0653 -0.5048  0.0430
  124SOL    HW2 1973   0.588   0.794   6.614 -0.4186  0.5191 -0.1646
  125SOL     OW 1974   3.415   5.854   4.091 -0.2665 -0.6450 -0.3390
  125SOL    HW1 1975   3.406   5.800   4.174 -0.3114  1.6147  1.2226
  125SOL    HW2 1976   3.451   5.797   4.017  0.0653 -2.6469  1.2916
  126SOL     OW 1977   1.891   6.011   5.843  0.0048  0.1200  0.0031
  126SOL    HW1 1978   1.874   5.998   5.746  2.3012  2.6773 -0.8609
  126SOL    HW2 1979   1.966   5.951   5.872 -0.5907 -0.5445  0.1979
  127SOL     OW 1980   2.757   3.113   1.130  0.0021 -0.0175  0.1276
  127SOL    HW1 1981   2.787   3.150   1.042 -1.0765 -0.3526 -0.3960
  127SOL    HW2 1982   2.777   3.180   1.202  1.4276  0.0142 -0.2678
  128SOL     OW 1983   5.575   6.886   4.046  0.3689  0.5006 -0.2322
  128SOL    HW1 1984   5.503   6.903   3.979  0.2125  2.8621  0.4463
  128SOL    HW2 1985   5.650   6.836   4.002 -0.7457 -0.1273 -1.5027
  129SOL     OW 1986   2.960   1.930   1.701 -0.4905 -0.0531  0.4221
  129SOL    HW1 1987   2.874   1.938   1.751 -1.7005  3.8791 -1.8284
  129SOL    HW2 1988   3.034   1.970   1.755 -0.6726 -0.7418  1.1874
  130SOL     OW 1989   4.175   5.845   6.134 -0.3333  0.2094 -0.2823
  130SOL    HW1 1990   4.184   5.813   6.228 -0.5883 -2.4837 -1.0965
  130SOL    HW2 1991   4.218   5.935   6.125  0.6536  0.0441  2.1356
  131SOL     OW 1992   2.641   0.529   5.094 -0.5243 -0.4209 -0.1399
  131SOL    HW1 1993   2.661   0.565   5.185 -0.2506  1.6250 -0.9583
  131SOL    HW2 1994   2.726   0.523   5.041 -0.8963  0.0301 -0.8016
  132SOL     OW 1995   1.897   1.344   6.321  0.1488 -0.1355 -0.2461
  132SOL    HW1 1996   1.964   1.278   6.356 -1.0721  0.0204  2.6080
  132SOL    HW2 1997   1.932   1.437   6.332 -0.3680 -0.0711  0.8989
  133SOL     OW 1998   5.426   1.416   1.957 -0.1329  0.6473 -0.0000
  133SOL    HW1 1999   5.496   1.472   2.001 -1.4435  1.7217  0.8136
  133SOL    HW2 2000   5.337   1.435   1.999 -0.6108 -2.3939  0.5990
  134SOL     OW 2001   5.643   2.068   2.923 -0.4822  0.1628 -0.1891
  134SOL    HW1 2002   5.645   2.007   2.844  1.0978  1.2117 -1.0114
  134SOL    HW2 2003   5.710   2.037   2.991 -1.3477 -0.3397  0.4559
  135SOL     OW 2004   6.238   0.920   5.212 -0.0836  0.0886  0.9422
  135SOL    HW1 2005   6.275   0.867   5.135  2.1052  2.5587  0.1729
  135SOL    HW2 2006   6.140   0.901   5.219  0.1680 -2.3832 -0.5988
  136SOL     OW 2007   3.606   3.003   6.050 -0.0120  0.1366 -0.1943
  136SOL    HW1 2008   3.604   3.047   5.961  0.6777  0.8057  0.1005
  136SOL    HW2 2009   3.550   3.055   6.115  1.6444  1.2252  0.4172
  137SOL     OW 2010   2.231   0.023   0.969  0.1222  0.1644  0.4652
  137SOL    HW1 2011   2.184   0.007   0.881  0.6860  2.2729 -0.2612
  137SOL    HW2 2012   2.329   0.004   0.958 -0.1154 -1.8109  1.3153
  138SOL     OW 2013   1.431   1.620   5.602 -0.1136  0.6225  0.1743
  138SOL    HW1 2014   1.503   1.571   5.651 -0.1348  0.9106  0.4992
  138SOL    HW2 2015   1.350   1.563   5.596  0.9936 -0.8073 -2.5971
  139SOL     OW 2016   0.545   0.842   6.165 -0.7099 -0.2111  0.2880
  139SOL    HW1 2017   0.472   0.861   6.230  0.0822 -2.5568  2.0307
  139SOL    HW2 2018   0.634   0.852   6.211 -0.0362 -0.0194 -1.0137
  140SOL     OW 2019   2.412   6.944   6.189  0.2654  0.3079  0.9785
  140SOL    HW1 2020   2.365   6.928   6.102  1.0008  1.4518  0.3484
  140SOL    HW2 2021   2.387   7.034   6.225 -0.6292 -0.4696  2.3598
  141SOL     OW 2022   1.956   2.436   2.253 -0.0483  0.4136  0.1904
  141SOL    HW1 2023   1.956   2.457   2.351 -0.7614 -1.0339  0.5228
  141SOL    HW2 2024   2.027   2.369   2.234  0.0617  0.6645 -0.2896
  142SOL     OW 2025   5.854   3.006   3.837 -0.1379 -0.0954 -0.3399
  142SOL    HW1 2026   5.763   2.972   3.816 -0.4211  0.5196 -0.1221
  142SOL    HW2 2027   5.874   3.087   3.783  1.0220 -1.2768 -1.7683
  143SOL     OW 2028   2.282   0.501   3.091  0.3927 -0.1295  0.1744
  143SOL    HW1 2029   2.201   0.556   3.112 -0.9604 -0.6729 -2.9269
  143SOL    HW2 2030   2.288   0.488   2.992  2.0729 -3.4505  0.5666
  144SOL     OW 2031   3.108   1.881   5.733  0.3629 -0.7695 -0.1304
  144SOL    HW1 2032   3.021   1.929   5.745  0.3065 -0.7197 -0.7180
  144SOL    HW2 2033   3.095   1.804   5.670  0.3688 -1.7830  1.0741
  145SOL     OW 2034   5.234   0.537   2.180  0.6306 -0.1149 -0.1411
  145SOL    HW1 2035   5.178   0.611   2.144 -1.1317 -1.3175 -0.0086
  145SOL    HW2 2036   5.192   0.449   2.157  1.8148 -1.0388  1.0547
  146SOL     OW 2037   3.345   1.237   2.540  0.6941  0.2486  0.1026
  146SOL    HW1 2038   3.334   1.330   2.575  1.4711  0.0082  1.0467
  146SOL    HW2 2039   3.442   1.220   2.520  0.3151  0.2972 -2.0190
  147SOL     OW 2040   0.336   0.146   3.925  1.0991  0.4510 -0.3040
  147SOL    HW1 2041   0.341   0.125   4.023 -0.6494 -0.9764 -0.4747
  147SOL    HW2 2042   0.396   0.083   3.876  0.6103 -0.0455 -0.2801
  148SOL     OW 2043   2.542   5.232   3.527 -0.6439 -0.5064 -0.6432
  148SOL    HW1 2044   2.504   5.322   3.504  0.5734  0.6962  1.6498
  148SOL    HW2 2045   2.467   5.170   3.550 -1.6333 -0.7180 -3.9682
  149SOL     OW 2046   0.232   6.012   0.102 -0.0874  0.3871  0.4707
  149SOL    HW1 2047   0.191   6.085   0.158 -0.7932 -0.4373  1.0509
  149SOL    HW2 2048   0.263   6.050   0.015  0.0164  1.4764  0.9650
  150SOL     OW 2049   5.255   0.210   1.661  0.3461 -0.3502 -0.0470
  150SOL    HW1 2050   5.238   0.204   1.562  1.1599  1.6283 -0.3501
  150SOL    HW2 2051   5.341   0.164   1.682  0.1147 -0.8778 -0.2256
  151SOL     OW 2052   6.411   6.182   5.622 -0.2205 -0.3550 -0.1558
  151SOL    HW1 2053   6.343   6.251   5.595 -0.2079 -0.1774  0.2652
  151SOL    HW2 2054   6.388   6.095   5.579 -0.1842 -0.0689 -0.7715
  152SOL     OW 2055   4.275   3.182   6.171 -0.1471 -0.6333 -0.0853
  152SOL    HW1 2056   4.299   3.275   6.146 -1.4274  0.1167  1.2990
  152SOL    HW2 2057   4.201   3.149   6.112 -0.6340 -0.2513  0.3066
  153SOL     OW 2058   0.140   2.745   3.044  0.3050  0.9346 -0.2744
  153SOL    HW1 2059   0.227   2.775   3.005  2.5946 -1.3533  2.5520
  153SOL    HW2 2060   0.118   2.803   3.123 -1.0880  1.8331 -1.2889
  154SOL     OW 2061   3.548   1.503   2.372  0.1218  0.1822 -0.0438
  154SOL    HW1 2062   3.548   1.408   2.405 -1.4575  0.2235  0.1429
  154SOL    HW2 2063   3.620   1.554   2.418  1.5802 -1.1227 -0.7779
  155SOL     OW 2064   3.898   0.206   4.422  0.0004 -0.2698  0.1500
  155SOL    HW1 2065   3.949   0.276   4.471 -0.4517 -0.1006  0.3867
  155SOL    HW2 2066   3.802   0.233   4.415 -0.1038 -0.6876 -0.0907
  156SOL     OW 2067   6.748   5.167   6.678 -0.4889  0.0473  0.3564
  156SOL    HW1 2068   6.733   5.142   6.774  1.7304 -0.9354  0.4973
  156SOL    HW2 2069   6.807   5.247   6.673  1.0417 -1.0661 -0.1573
  157SOL     OW 2070   4.620   6.123   6.554  0.0230 -0.1515  0.4142
  157SOL    HW1 2071   4.696   6.092   6.610  0.7461 -0.7902 -0.8735
  157SOL    HW2 2072   4.546   6.056   6.556  0.3935 -0.5745 -0.0607
  158SOL     OW 2073   1.167   1.280   5.954  0.0305  0.3855  0.2271
  158SOL    HW1 2074   1.196   1.336   5.876 -0.8308  0.6454  0.0863
  158SOL    HW2 2075   1.070   1.294   5.971  0.4334  1.3046  2.1402
  159SOL     OW 2076   0.768   2.513   1.257  0.3347 -0.3950 -0.4034
  159SOL    HW1 2077   0.771   2.507   1.157 -1.6114 -2.2380 -0.4157
  159SOL    HW2 2078   0.822   2.439   1.296  2.8569  1.5151  0.0439
  160SOL     OW 2079   1.226   2.353   5.658 -0.3611  0.3094  0.4703
  160SOL    HW1 2080   1.227   2.405   5.573 -0.5998  0.2489  0.4289
  160SOL    HW2 2081   1.175   2.403   5.728 -0.5175  0.1711  0.4561
  161SOL     OW 2082   6.517   1.339   6.470 -0.6781 -0.8505 -0.2254
  161SOL    HW1 2083   6.536   1.245   6.495  1.1200 -0.4075  0.2437
  161SOL    HW2 2084   6.603   1.390   6.463 -1.5400  0.5375 -1.3657
  162SOL     OW 2085   1.777   0.755   3.760 -0.0181  0.5989  0.2445
  162SOL    HW1 2086   1.711   0.680   3.747 -0.2836  0.9694 -0.5987
  162SOL    HW2 2087   1.867   0.716   3.778 -0.6269  0.0818  2.4143
  163SOL     OW 2088   3.971   4.450   6.236  0.3182  0.1518 -0.2275
  163SOL    HW1 2089   3.892   4.396   6.266  1.2664 -0.4964  1.1735
  163SOL    HW2 2090   3.956   4.479   6.141 -1.4722 -0.1781 -0.0946
  164SOL     OW 2091   6.232   3.827   1.727 -0.6497 -0.2834  0.4866
  164SOL    HW1 2092   6.206   3.923   1.732  2.0208  0.5473  0.4857
  164SOL    HW2 2093   6.216   3.782   1.815 -0.4960  0.6018  0.9735
  165SOL     OW 2094   4.901   6.770   1.209  0.5553  0.2547 -0.3803
  165SOL    HW1 2095   4.840   6.742   1.134  0.6189 -0.4394 -0.1756
  165SOL    HW2 2096   4.992   6.733   1.194  0.2397 -1.0421  0.7250
  166SOL     OW 2097   5.636   1.760   6.774 -0.6060  0.0372 -0.3321
  166SOL    HW1 2098   5.719   1.802   6.811  0.4467  1.0606 -3.5429
  166SOL    HW2 2099   5.658   1.671   6.734 -1.7319 -1.0889  1.4191
  167SOL     OW 2100   6.629   4.219   5.175 -0.4425  0.0375 -0.5870
  167SOL    HW1 2101   6.542   4.218   5.223 -0.1993  1.7197 -0.0635
  167SOL    HW2 2102   6.690   4.150   5.215 -1.3461 -0.8179 -0.6467
  168SOL     OW 2103   3.393   6.518   1.199  0.0240  0.0944  0.2352
  168SOL    HW1 2104   3.472   6.457   1.210  1.4108  1.8323  0.4578
  168SOL    HW2 2105   3.347   6.527   1.287 -0.6638 -1.1974  0.0290
  169SOL     OW 2106   2.342   2.588   1.137 -0.0526  0.0101 -0.3612
  169SOL    HW1 2107   2.365   2.554   1.046 -0.6407 -0.9738 -0.1509
  169SOL    HW2 2108   2.421   2.637   1.175  0.4623 -0.2517 -1.0752
  170SOL     OW 2109   5.520   2.085   5.397  0.4807 -0.2049  0.6221
  170SOL    HW1 2110   5.528   2.178   5.432 -0.3167 -0.3352  1.1765
  170SOL    HW2 2111   5.566   2.078   5.308 -1.3261  1.2772 -0.4860
  171SOL     OW 2112   3.468   1.832   3.742  0.4712  0.6031  0.4498
  171SOL    HW1 2113   3.431   1.789   3.660  1.3810  0.8318 -0.0975
  171SOL    HW2 2114   3.453   1.930   3.738  0.3503  0.5928  0.6455
  172SOL     OW 2115   6.216   7.015   1.796 -0.1497  0.3806 -0.2005
  172SOL    HW1 2116   6.258   6.954   1.863 -0.8609  1.0252  0.8696
  172SOL    HW2 2117   6.284   7.080   1.762 -0.0707  0.8453  0.8375
  173SOL     OW 2118   5.939   2.667   5.691 -0.7300  0.0528 -0.1618
  173SOL    HW1 2119   6.002   2.655   5.614 -1.0588 -0.9596 -0.2800
  173SOL    HW2 2120   5.909   2.763   5.694  1.3132  0.7358  0.3009
  174SOL     OW 2121   0.872   4.961   6.340  0.2426  0.3846 -0.4952
  174SOL    HW1 2122   0.864   4.872   6.296 -0.6512  0.5960 -0.7953
  174SOL    HW2 2123   0.903   4.950   6.434 -1.3471 -0.3918 -0.0341
  175SOL     OW 2124   5.877   6.284   4.102 -0.1392  0.1532 -0.4474
  175SOL    HW1 2125   5.929   6.223   4.162  1.8814  0.5314 -1.7183
  175SOL    HW2 2126   5.926   6.371   4.093 -1.1451  0.6338 -1.4858
  176SOL     OW 2127   2.158   2.578   2.113  0.2998  0.7140 -0.4720
  176SOL    HW1 2128   2.216   2.503   2.081  1.0187  1.3400 -0.6507
  176SOL    HW2 2129   2.073   2.540   2.150  0.9216 -0.2313  0.0352
  177SOL     OW 2130   6.361   2.462   3.728  0.6691  0.2584 -0.4758
  177SOL    HW1 2131   6.286   2.519   3.763  0.5678 -0.6574  0.8690
  177SOL    HW2 2132   6.439   2.521   3.707 -0.0372  1.0987 -0.8274
  178SOL     OW 2133   3.670   0.976   4.454  0.2779  0.1606  0.0789
  178SOL    HW1 2134   3.608   1.039   4.408 -0.0192 -0.6799 -0.7098
  178SOL    HW2 2135   3.697   1.014   4.543  0.8500  1.8211 -0.7468
  179SOL     OW 2136   1.832   1.296   0.738 -0.4071 -0.2271 -0.4016
  179SOL    HW1 2137   1.809   1.393   0.754  0.1579 -0.2055  0.3246
  179SOL    HW2 2138   1.894   1.289   0.661  0.9845  0.1777  0.6429
  180SOL     OW 2139   3.378   4.226   0.467  0.2407 -0.2660 -0.2054
  180SOL    HW1 2140   3.387   4.310   0.413 -0.9468 -0.1264 -0.1968
  180SOL    HW2 2141   3.305   4.237   0.534 -0.2136 -1.4524 -0.4879
  181SOL     OW 2142   6.881   6.396   2.063  0.2017 -0.2829 -0.2412
  181SOL    HW1 2143   6.895   6.334   1.985 -2.2051 -0.6667 -0.4532
  181SOL    HW2 2144   6.926   6.483   2.044  1.3931 -1.0516 -1.1227
  182SOL     OW 2145   4.033   5.394   3.888  0.4592 -0.0281 -0.6221
  182SOL    HW1 2146   3.948   5.431   3.926  0.3605 -0.0973 -0.7756
  182SOL    HW2 2147   4.098   5.377   3.962 -0.1659 -1.3147 -0.3368
  183SOL     OW 2148   0.751   0.112   2.611  0.6093 -0.5619  0.0257
  183SOL    HW1 2149   0.773   0.050   2.685 -0.0655 -1.7104 -0.6904
  183SOL    HW2 2150   0.656   0.142   2.620  0.2974 -1.2747 -0.7362
  184SOL     OW 2151   4.608   2.915   3.576  0.5049 -0.1535  0.1548
  184SOL    HW1 2152   4.663   2.833   3.559 -1.8017 -1.5217 -1.3230
  184SOL    HW2 2153   4.633   2.987   3.511  0.8680 -0.5854 -0.1824
  185SOL     OW 2154   4.066   1.020   4.212 -0.0392 -0.0695 -0.0233
  185SOL    HW1 2155   3.982   0.969   4.232  0.0498 -0.1539  0.1306
  185SOL    HW2 2156   4.143   0.978   4.260 -0.1599  0.9251  1.0670
  186SOL     OW 2157   5.860   6.836   4.387  0.0170  0.6659  0.4830
  186SOL    HW1 2158   5.793   6.908   4.370  0.2628  0.7925  0.0348
  186SOL    HW2 2159   5.823   6.771   4.452 -0.1455  1.2862  1.0231
  187SOL     OW 2160   5.959   0.286   4.541 -0.3173  0.5118  0.1688
  187SOL    HW1 2161   5.895   0.363   4.545 -0.0722  0.6781  1.9530
  187SOL    HW2 2162   6.051   0.322   4.523 -0.1780  0.6957  1.1473
  188SOL     OW 2163   0.085   2.330   2.198 -0.0723  0.6280 -0.4086
  188SOL    HW1 2164   0.014   2.300   2.135 -0.9478  1.3837  0.2065
  188SOL    HW2 2165   0.145   2.252   2.219 -0.5669  0.0421 -1.1056
  189SOL     OW 2166   1.458   4.621   5.832 -0.5082  0.2930  0.1827
  189SOL    HW1 2167   1.495   4.714   5.838  2.2228 -0.5649 -1.2653
  189SOL    HW2 2168   1.358   4.625   5.827 -0.4887  3.1224  0.2906
  190SOL     OW 2169   3.095   1.832   0.331 -0.1018  0.0337  0.1227
  190SOL    HW1 2170   3.018   1.773   0.353  0.3371 -0.5130  0.2134
  190SOL    HW2 2171   3.065   1.905   0.269 -0.3835 -1.0462 -1.0566
  191SOL     OW 2172   3.773   6.079   6.570 -0.2094  0.1011  0.6193
  191SOL    HW1 2173   3.753   6.004   6.508  1.5199  0.5289 -0.5002
  191SOL    HW2 2174   3.741   6.165   6.530 -1.0394  0.1350  1.3244
  192SOL     OW 2175   4.827   1.620   0.700 -0.1711  0.1426  0.4490
  192SOL    HW1 2176   4.755   1.653   0.761 -0.8999  1.8186 -1.2404
  192SOL    HW2 2177   4.915   1.660   0.726 -0.7710  2.2333 -0.5856
  193SOL     OW 2178   2.753   6.628   4.285  0.4953 -0.8185  0.0516
  193SOL    HW1 2179   2.733   6.673   4.198 -2.2898 -2.5862 -0.3311
  193SOL    HW2 2180   2.754   6.529   4.273  1.2823 -1.0710  1.8100
  194SOL     OW 2181   2.256   0.232   3.787  0.0451 -0.5015 -0.0874
  194SOL    HW1 2182   2.159   0.242   3.764 -0.1972 -0.9415  0.6917
  194SOL    HW2 2183   2.273   0.268   3.878  0.8651  0.6670 -0.6776
  195SOL     OW 2184   2.285   6.587   2.116 -0.1129  0.3217 -0.3357
  195SOL    HW1 2185   2.238   6.639   2.045 -0.3542 -0.4552 -0.7628
  195SOL    HW2 2186   2.223   6.572   2.194  0.2004  1.3022  0.1171
  196SOL     OW 2187   3.068   1.342   0.527  0.6728  0.3535 -0.4710
  196SOL    HW1 2188   3.000   1.293   0.582  0.9524 -0.1636 -0.5812
  196SOL    HW2 2189   3.055   1.441   0.539 -0.4160  0.2804 -0.8724
  197SOL     OW 2190   5.742   1.034   6.774  0.1469 -0.6701 -0.0196
  197SOL    HW1 2191   5.781   1.117   6.814  0.0728  0.4921 -2.2588
  197SOL    HW2 2192   5.655   1.013   6.819 -0.7475  1.5347 -0.6054
  198SOL     OW 2193   1.329   4.066   3.149  0.3930 -0.6601 -0.2146
  198SOL    HW1 2194   1.309   3.968   3.147  1.5709 -0.9822  1.4132
  198SOL    HW2 2195   1.286   4.107   3.229 -0.6277  0.3188 -1.2288
  199SOL     OW 2196   0.776   1.119   6.157 -0.1040 -0.1190  0.3732
  199SOL    HW1 2197   0.765   1.044   6.223  1.9194  0.5332  1.5502
  199SOL    HW2 2198   0.801   1.081   6.068  0.1924 -0.8803  0.7671
  200SOL     OW 2199   3.632   2.680   5.219  0.1383 -0.3827  0.2924
  200SOL    HW1 2200   3.573   2.606   5.188 -1.2975  0.1645  1.5770
  200SOL    HW2 2201   3.706   2.694   5.153 -0.3101 -2.0701 -0.6210
  201SOL     OW 2202   5.447   3.555   0.815  0.6561 -0.4315 -0.4712
  201SOL    HW1 2203   5.503   3.472   0.808  1.0986 -0.1203 -0.6404
  201SOL    HW2 2204   5.355   3.530   0.847  1.1755 -0.8454  0.7930
  202SOL     OW 2205   3.020   3.754   6.245  0.2335 -0.2826 -0.7511
  202SOL    HW1 2206   2.935   3.731   6.198  0.3514 -0.3090 -0.9548
  202SOL    HW2 2207   3.011   3.842   6.290  0.1845 -0.1639 -0.9911
  203SOL     OW 2208   5.643   2.109   0.066  0.3367  0.0589  0.8869
  203SOL    HW1 2209   5.622   2.012   0.077 -0.5861 -0.0176 -1.0889
  203SOL    HW2 2210   5.716   2.135   0.130  2.7202 -2.6284 -0.5118
  204SOL     OW 2211   6.916   2.103   5.832 -0.4199  0.1418 -0.0266
  204SOL    HW1 2212   6.962   2.152   5.759  0.1019 -0.5481 -0.1724
  204SOL    HW2 2213   6.982   2.047   5.882 -1.0996 -0.9319 -0.2975
  205SOL     OW 2214   6.621   6.181   2.209 -0.0347  0.2872 -0.3617
  205SOL    HW1 2215   6.649   6.263   2.259  0.3770 -0.2418  0.2993
  205SOL    HW2 2216   6.627   6.101   2.270  0.4180 -0.3634 -1.2280
  206SOL     OW 2217   0.516   6.760   2.830  1.2332  0.2013 -0.3275
  206SOL    HW1 2218   0.602   6.719   2.801  0.4100 -1.6204 -0.3525
  206SOL    HW2 2219   0.475   6.810   2.753  1.3394 -0.5778 -0.8976
  207SOL     OW 2220   0.726   1.973   3.372  0.4387  0.1506 -0.3328
  207SOL    HW1 2221   0.642   1.945   3.324  0.3335  0.4342 -0.3135
  207SOL    HW2 2222   0.784   2.026   3.309  0.5431  0.0715 -0.3043
  208SOL     OW 2223   6.314   0.824   6.480  0.0750  0.0616  0.5023
  208SOL    HW1 2224   6.372   0.828   6.561 -2.1757  0.8001  2.2096
  208SOL    HW2 2225   6.281   0.730   6.467 -0.2891  0.1120  1.0285
  209SOL     OW 2226   5.884   6.475   3.236  0.4338  0.7682  0.3432
  209SOL    HW1 2227   5.833   6.561   3.233  0.6588  0.9032  0.3491
  209SOL    HW2 2228   5.833   6.408   3.289 -0.3859  0.4713 -0.7627
  210SOL     OW 2229   2.362   3.644   2.898 -0.1398 -0.1452 -0.6547
  210SOL    HW1 2230   2.422   3.714   2.935  0.4311 -1.0253  0.1090
  210SOL    HW2 2231   2.400   3.554   2.917 -1.1793 -0.6866 -1.0813
  211SOL     OW 2232   3.536   6.488   0.748  0.3775  0.1660  0.1807
  211SOL    HW1 2233   3.596   6.527   0.677  0.9953  0.6185  0.9334
  211SOL    HW2 2234   3.570   6.515   0.838  0.6019 -1.7938  0.7349
  212SOL     OW 2235   0.166   5.803   3.459  0.6425 -0.2870  0.3706
  212SOL    HW1 2236   0.211   5.802   3.548 -1.5943 -3.6745  1.6235
  212SOL    HW2 2237   0.100   5.878   3.456  2.0799  1.0506  0.7403
  213SOL     OW 2238   1.893   0.952   3.393 -0.2853  0.4490  0.3180
  213SOL    HW1 2239   1.808   0.916   3.354 -0.4378  1.0724  0.0480
  213SOL    HW2 2240   1.906   1.046   3.361  0.9283  0.0850 -0.2914
  214SOL     OW 2241   5.896   6.575   1.201  0.1475  0.6784 -0.0999
  214SOL    HW1 2242   5.872   6.523   1.119  0.3167  1.3521 -0.5850
  214SOL    HW2 2243   5.980   6.538   1.241 -0.4746 -0.2912  0.3558
  215SOL     OW 2244   5.203   0.615   3.208  0.6709 -0.5839 -0.5790
  215SOL    HW1 2245   5.290   0.576   3.176  0.8781 -0.3023 -0.3690
  215SOL    HW2 2246   5.205   0.623   3.308  1.7674  2.5006 -0.7328
  216SOL     OW 2247   0.971   0.850   2.811  0.3818 -0.4323 -0.3440
  216SOL    HW1 2248   0.905   0.886   2.877  1.2884  1.3742 -0.3628
  216SOL    HW2 2249   0.922   0.812   2.733 -0.6846 -1.8374  0.9399
  217SOL     OW 2250   6.779   6.958   0.829  0.2428  0.1715 -0.2640
  217SOL    HW1 2251   6.709   6.978   0.761 -0.1898 -0.7150 -0.0890
  217SOL    HW2 2252   6.787   6.859   0.841  2.7545  0.1205 -1.5709
  218SOL     OW 2253   0.384   3.791   2.161  0.0067 -0.4988  0.0106
  218SOL    HW1 2254   0.469   3.832   2.127  0.8994 -1.7317  0.6500
  218SOL    HW2 2255   0.331   3.860   2.210  0.7947  0.2134 -0.1139
  219SOL     OW 2256   2.258   3.945   1.060  0.4488 -0.1440 -0.4845
  219SOL    HW1 2257   2.281   3.915   1.153  0.2790 -1.3576 -0.8150
  219SOL    HW2 2258   2.343   3.961   1.009  0.5564 -0.6054 -0.4603
  220SOL     OW 2259   0.773   2.679   0.713  0.1510 -0.2240 -0.9414
  220SOL    HW1 2260   0.774   2.722   0.623 -0.2294 -0.4986 -1.0793
  220SOL    HW2 2261   0.725   2.738   0.778  0.4447 -0.0163 -0.9117
  221SOL     OW 2262   3.740   1.196   0.901  0.1860  0.1776 -0.1981
  221SOL    HW1 2263   3.686   1.219   0.983  1.7442 -1.9362  1.5564
  221SOL    HW2 2264   3.717   1.104   0.871  2.3467 -0.5714  0.2665
  222SOL     OW 2265   3.472   0.515   3.008  0.0397 -0.0607  0.2455
  222SOL    HW1 2266   3.387   0.496   3.056  0.3814 -1.0056  0.5009
  222SOL    HW2 2267   3.550   0.493   3.067  0.4676 -1.0352 -0.6578
  223SOL     OW 2268   5.886   6.082   5.939 -0.1642  0.8150  0.0441
  223SOL    HW1 2269   5.803   6.029   5.951 -0.1458  0.7091 -0.2876
  223SOL    HW2 2270   5.862   6.176   5.915 -0.1853  0.7479 -0.1945
  224SOL     OW 2271   1.373   5.901   0.406  0.3869  0.0875 -0.4446
  224SOL    HW1 2272   1.427   5.984   0.419  0.3930 -0.2736  2.4096
  224SOL    HW2 2273   1.280   5.925   0.381  1.0245  0.8158 -2.2747
  225SOL     OW 2274   0.159   7.004   5.771  0.1965 -0.3788  0.1522
  225SOL    HW1 2275   0.109   7.004   5.684  1.4153 -0.0323 -0.5589
  225SOL    HW2 2276   0.240   7.061   5.763 -1.1436  2.0778  2.3956
  226SOL     OW 2277   4.227   5.174   1.707 -0.2505 -0.1813 -0.0152
  226SOL    HW1 2278   4.190   5.167   1.800 -0.2464  2.8745  0.3262
  226SOL    HW2 2279   4.151   5.172   1.641 -0.7718  2.1910  0.4282
  227SOL     OW 2280   0.698   5.512   0.584  0.5543  0.4537  0.5111
  227SOL    HW1 2281   0.634   5.455   0.635  1.3558 -2.4560 -1.5242
  227SOL    HW2 2282   0.647   5.579   0.529 -0.5838 -0.0937  0.8769
  228SOL     OW 2283   1.671   5.126   5.877 -0.2081  0.6875  0.1800
  228SOL    HW1 2284   1.614   5.208   5.886  0.2557  0.9528  0.7915
  228SOL    HW2 2285   1.767   5.150   5.891  0.3829  0.6519 -3.0120
  229SOL     OW 2286   4.372   0.900   4.889 -0.1903  0.6946  0.4835
  229SOL    HW1 2287   4.411   0.893   4.981  0.0959  0.9631  0.3874
  229SOL    HW2 2288   4.446   0.916   4.823 -0.1039 -1.7868 -0.1208
  230SOL     OW 2289   5.608   1.778   0.347 -0.5628 -0.5822 -0.0004
  230SOL    HW1 2290   5.590   1.688   0.387 -0.8652 -1.6645 -2.4390
  230SOL    HW2 2291   5.701   1.807   0.372 -0.2554 -1.8241  0.3404
  231SOL     OW 2292   3.609   0.396   1.021  0.1104 -0.6023  0.4929
  231SOL    HW1 2293   3.552   0.393   0.939 -0.4386 -1.2473  0.8865
  231SOL    HW2 2294   3.679   0.326   1.016  1.6488  0.9224 -0.5153
  232SOL     OW 2295   0.865   5.986   5.039 -0.1040 -0.2449 -0.4811
  232SOL    HW1 2296   0.766   5.995   5.028 -0.0901  0.7349  0.0920
  232SOL    HW2 2297   0.899   5.916   4.977 -0.7859  1.2458 -2.6661
  233SOL     OW 2298   3.127   0.466   0.965  0.9508  0.1150 -0.4402
  233SOL    HW1 2299   3.086   0.526   0.896 -1.7216 -2.0042 -0.8719
  233SOL    HW2 2300   3.197   0.408   0.922 -0.3629 -0.8584 -1.3175
  234SOL     OW 2301   2.224   5.967   1.761  0.3713 -0.3949 -0.1344
  234SOL    HW1 2302   2.134   5.961   1.717  0.5352  1.2849 -0.7931
  234SOL    HW2 2303   2.220   5.923   1.851 -0.7811 -1.3413 -0.6209
  235SOL     OW 2304   2.922   4.798   4.922  0.8249  0.3176 -0.3445
  235SOL    HW1 2305   2.870   4.749   4.851  2.1534 -1.1688 -0.3360
  235SOL    HW2 2306   3.014   4.759   4.929  0.8552  0.6882  1.9492
  236SOL     OW 2307   0.813   6.480   6.183 -0.2843 -0.8679 -0.0204
  236SOL    HW1 2308   0.773   6.451   6.096 -1.1283 -0.4216  0.2069
  236SOL    HW2 2309   0.879   6.411   6.214 -0.9644 -1.6836 -0.3408
  237SOL     OW 2310   2.803   0.929   5.275 -0.1175  0.0222 -0.1472
  237SOL    HW1 2311   2.837   1.022   5.277 -1.1863  0.4432 -0.6162
  237SOL    HW2 2312   2.723   0.921   5.336 -0.4356 -0.4097 -0.6037
  238SOL     OW 2313   2.806   5.328   1.536 -0.4882 -0.0024 -0.2021
  238SOL    HW1 2314   2.738   5.355   1.605 -0.1870 -0.1437  0.1585
  238SOL    HW2 2315   2.767   5.260   1.475 -0.1572 -1.3809  1.0487
  239SOL     OW 2316   0.925   0.681   0.179  0.3717 -0.4367 -0.3013
  239SOL    HW1 2317   0.926   0.712   0.084 -0.4866  0.8577  0.0836
  239SOL    HW2 2318   0.832   0.658   0.206  0.4636  0.0971  0.4986
  240SOL     OW 2319   1.494   2.021   6.579  0.5893 -0.1968 -1.2295
  240SOL    HW1 2320   1.551   1.960   6.635 -0.5201 -1.8335 -1.7799
  240SOL    HW2 2321   1.410   1.973   6.555 -0.1574  1.4627 -2.0441
  241SOL     OW 2322   6.679   6.735   0.402 -0.9104  0.2807  0.2224
  241SOL    HW1 2323   6.766   6.784   0.401 -1.7357  1.8758 -1.7777
  241SOL    HW2 2324   6.690   6.647   0.447  2.3406 -0.6071 -1.9970
  242SOL     OW 2325   2.532   1.537   5.798  0.4048  0.6678 -0.1109
  242SOL    HW1 2326   2.593   1.611   5.829  0.2665  0.8052 -0.1653
  242SOL    HW2 2327   2.568   1.498   5.713  0.0178  1.2580 -0.5598
  243SOL     OW 2328   3.642   6.213   2.243 -0.2483 -0.0181  0.0403
  243SOL    HW1 2329   3.717   6.275   2.266 -0.0163  0.7988 -2.6444
  243SOL    HW2 2330   3.641   6.137   2.308  1.2452  1.2919  1.6967
  244SOL     OW 2331   2.268   5.851   4.816 -0.3111 -0.4643  0.1553
  244SOL    HW1 2332   2.284   5.938   4.769 -0.3420 -0.6440 -0.1916
  244SOL    HW2 2333   2.234   5.868   4.908 -2.2243 -0.1200 -0.5727
  245SOL     OW 2334   4.117   6.705   3.667  0.6528  0.1559 -0.3609
  245SOL    HW1 2335   4.190   6.639   3.652  0.1318 -1.0280  1.9034
  245SOL    HW2 2336   4.058   6.710   3.586  0.6051 -2.3221 -0.5403
  246SOL     OW 2337   2.715   6.655   2.578 -0.1266  0.2067 -0.1021
  246SOL    HW1 2338   2.726   6.670   2.479 -0.6680 -2.6321 -0.6816
  246SOL    HW2 2339   2.622   6.680   2.605 -0.0634  0.7326 -0.3577
  247SOL     OW 2340   1.877   1.373   1.105 -0.3554  0.6303 -0.1112
  247SOL    HW1 2341   1.903   1.291   1.157 -1.1047  0.7157  0.4097
  247SOL    HW2 2342   1.958   1.428   1.088  0.0385  0.1592  0.2059
  248SOL     OW 2343   3.223   4.111   3.674  0.1172 -0.3354 -0.5324
  248SOL    HW1 2344   3.245   4.123   3.771 -0.1783  0.1730 -0.5243
  248SOL    HW2 2345   3.307   4.092   3.623  0.7598  2.3588 -0.6315
  249SOL     OW 2346   6.472   6.354   2.744 -0.2165  0.0560 -0.2122
  249SOL    HW1 2347   6.514   6.393   2.826  0.9125 -1.7002  0.0946
  249SOL    HW2 2348   6.480   6.255   2.746 -2.6547 -0.2190 -1.1564
  250SOL     OW 2349   1.388   0.239   2.018 -0.0662  0.3289  0.0020
  250SOL    HW1 2350   1.299   0.198   2.002  0.8513 -1.5790 -0.4653
  250SOL    HW2 2351   1.444   0.229   1.936  0.4620  1.8902  0.1378
  251SOL     OW 2352   3.208   4.314   0.818  0.1580  0.4415 -0.5236
  251SOL    HW1 2353   3.113   4.295   0.791  0.2963  0.4403 -1.0306
  251SOL    HW2 2354   3.267   4.243   0.780  0.2466 -0.1250  0.6429
  252SOL     OW 2355   4.537   6.372   4.320 -0.1622 -0.1806 -0.4116
  252SOL    HW1 2356   4.457   6.411   4.366 -0.2127  0.7680 -1.2689
  252SOL    HW2 2357   4.616   6.431   4.334  0.4569 -1.1928  0.5641
  253SOL     OW 2358   0.584   1.051   0.176  0.2625 -0.2641 -0.6753
  253SOL    HW1 2359   0.558   1.146   0.158 -1.6080 -0.4829  0.5597
  253SOL    HW2 2360   0.679   1.048   0.206  0.1023  1.3632  0.1463
  254SOL     OW 2361   1.018   2.631   4.040  0.6408  0.5093 -0.2569
  254SOL    HW1 2362   1.105   2.651   4.085  0.3843  1.8667 -0.3249
  254SOL    HW2 2363   1.023   2.542   3.995  2.2733  0.9107 -0.9325
  255SOL     OW 2364   2.400   3.138   3.937 -0.0730  0.4172  0.0660
  255SOL    HW1 2365   2.385   3.048   3.897 -1.0577  0.0235  1.2745
  255SOL    HW2 2366   2.314   3.189   3.941  0.2393  0.9283  0.5217
  256SOL     OW 2367   1.430   0.185   2.476 -0.1222  0.1570 -0.0512
  256SOL    HW1 2368   1.346   0.238   2.474  0.7485  1.5921 -0.2401
  256SOL    HW2 2369   1.483   0.209   2.557  0.3606 -0.2990 -0.2251
  257SOL     OW 2370   3.463   5.343   4.611 -0.3344  0.3411 -0.0812
  257SOL    HW1 2371   3.491   5.427   4.566  0.7328 -0.2654 -0.5877
  257SOL    HW2 2372   3.364   5.345   4.627 -0.3192  1.6916 -0.0399
  258SOL     OW 2373   2.853   3.427   0.304 -0.5108 -0.4247 -0.2752
  258SOL    HW1 2374   2.913   3.394   0.231 -0.8684  1.2202 -1.3701
  258SOL    HW2 2375   2.848   3.527   0.301 -2.8965 -0.4778  0.1048
  259SOL     OW 2376   5.768   4.547   5.248 -0.0207  0.3671 -0.0185
  259SOL    HW1 2377   5.687   4.598   5.221 -0.2613  1.2105  2.0668
  259SOL    HW2 2378   5.753   4.449   5.234 -2.8280  0.1246  3.3730
  260SOL     OW 2379   4.218   1.504   1.392 -0.0921  0.0579 -0.0547
  260SOL    HW1 2380   4.234   1.569   1.467  0.8085  0.6307 -0.7249
  260SOL    HW2 2381   4.216   1.411   1.428 -0.2106  0.3637  0.7493
  261SOL     OW 2382   4.990   2.883   1.788 -0.2585 -0.1701 -0.3532
  261SOL    HW1 2383   4.963   2.865   1.694 -0.6926  1.3359 -0.5497
  261SOL    HW2 2384   4.935   2.959   1.825  2.1432  1.5282 -0.0184
  262SOL     OW 2385   2.126   3.770   2.884  0.1946  0.3236  0.0487
  262SOL    HW1 2386   2.219   3.733   2.887  0.2027  0.2819 -0.6900
  262SOL    HW2 2387   2.109   3.814   2.796 -0.1646  1.1977  0.5425
  263SOL     OW 2388   1.110   1.447   5.027  0.0578  0.0393 -0.4649
  263SOL    HW1 2389   1.152   1.490   4.947  1.6991  1.1020  0.8979
  263SOL    HW2 2390   1.120   1.348   5.021  2.3956  0.2281 -0.4387
  264SOL     OW 2391   6.863   2.562   2.586  0.0323 -0.2671  0.9291
  264SOL    HW1 2392   6.877   2.661   2.582 -0.4392 -0.1921  1.0583
  264SOL    HW2 2393   6.795   2.534   2.519  2.3977 -0.9564 -1.3519
  265SOL     OW 2394   0.828   6.838   2.622  0.6685 -0.2995  0.2971
  265SOL    HW1 2395   0.900   6.856   2.555  0.5539 -1.1801 -0.0855
  265SOL    HW2 2396   0.855   6.875   2.711  1.7038 -0.8132  0.2124
  266SOL     OW 2397   0.493   6.428   3.637 -0.2324 -0.6973  0.4306
  266SOL    HW1 2398   0.513   6.476   3.722  1.6314 -0.1938 -0.2602
  266SOL    HW2 2399   0.409   6.466   3.597 -0.8607 -0.6077  1.7603
  267SOL     OW 2400   0.209   4.505   4.171 -0.2445 -0.3255  0.1722
  267SOL    HW1 2401   0.227   4.432   4.238 -0.4541  0.4412  1.0951
  267SOL    HW2 2402   0.112   4.503   4.146  0.2651 -2.1520 -2.0225
  268SOL     OW 2403   0.034   1.605   5.706  0.1693  0.1122 -0.0808
  268SOL    HW1 2404   0.018   1.542   5.630  1.6590  0.3445 -0.6292
  268SOL    HW2 2405   0.110   1.666   5.683  0.9363 -0.0709  1.7552
  269SOL     OW 2406   5.144   4.868   5.103 -0.2058  0.1704 -0.5350
  269SOL    HW1 2407   5.192   4.904   5.182 -3.4574  1.7577  0.9085
  269SOL    HW2 2408   5.136   4.768   5.111  1.0619  0.1083  0.1643
  270SOL     OW 2409   1.993   2.866   1.299  0.5946 -0.4823  0.2894
  270SOL    HW1 2410   1.954   2.814   1.375 -0.5125 -1.0213 -0.6089
  270SOL    HW2 2411   1.967   2.963   1.308  0.5914 -0.5159  0.6685
  271SOL     OW 2412   0.392   2.031   5.911 -0.2262  0.9158 -0.1599
  271SOL    HW1 2413   0.310   2.083   5.937 -0.4057  0.7617 -0.4127
  271SOL    HW2 2414   0.472   2.073   5.952 -0.1278  2.5820 -1.9048
  272SOL     OW 2415   2.296   4.896   5.329 -0.0254 -0.0398 -0.0489
  272SOL    HW1 2416   2.364   4.908   5.402 -0.3053  0.7271  0.1026
  272SOL    HW2 2417   2.285   4.982   5.280 -1.2751  0.0137  0.2814
  273SOL     OW 2418   2.016   5.775   0.368 -0.2878 -0.2991 -0.0509
  273SOL    HW1 2419   1.976   5.686   0.390  0.4433 -0.6481 -0.0898
  273SOL    HW2 2420   2.100   5.788   0.422 -0.4291  0.4010  0.0106
  274SOL     OW 2421   0.041   1.899   2.257  0.1550 -0.1865  0.3100
  274SOL    HW1 2422   0.004   1.811   2.227 -1.0493  0.1784  0.6813
  274SOL    HW2 2423   0.011   1.917   2.351  0.7966  0.3987  0.4043
  275SOL     OW 2424   2.424   4.643   4.343 -0.0293  0.1003  0.5207
  275SOL    HW1 2425   2.338   4.692   4.357 -0.7293 -1.1563  0.7782
  275SOL    HW2 2426   2.450   4.597   4.428  0.2605 -0.5137  0.1037
  276SOL     OW 2427   5.615   6.520   5.726  0.1678 -0.7059  0.2861
  276SOL    HW1 2428   5.590   6.614   5.705 -0.4685 -1.7673 -5.1833
  276SOL    HW2 2429   5.693   6.519   5.788  0.6661  3.4106 -0.0338
  277SOL     OW 2430   6.117   0.574   3.276 -0.2793  0.5768  0.5671
  277SOL    HW1 2431   6.203   0.607   3.237 -0.8610 -0.2582 -1.6008
  277SOL    HW2 2432   6.041   0.612   3.223 -1.0399 -2.2181 -0.5392
  278SOL     OW 2433   3.770   1.073   2.595 -1.1328  0.4216 -0.4537
  278SOL    HW1 2434   3.726   1.047   2.681  0.6583  2.0325  1.0433
  278SOL    HW2 2435   3.829   0.999   2.564 -1.7426 -0.1476 -0.2810
  279SOL     OW 2436   3.918   2.623   2.425  0.0741 -0.4094  0.4042
  279SOL    HW1 2437   3.851   2.624   2.498  0.6600  0.2775  0.9512
  279SOL    HW2 2438   3.875   2.649   2.339  0.1052  2.6643  1.2051
  280SOL     OW 2439   3.781   1.205   0.167  1.0219  0.5069 -0.6322
  280SOL    HW1 2440   3.836   1.269   0.221  0.7822  0.7335 -0.6562
  280SOL    HW2 2441   3.816   1.112   0.179 -1.1385 -0.0231  2.7246
  281SOL     OW 2442   4.901   1.166   2.131 -0.9237  0.3830 -0.2792
  281SOL    HW1 2443   4.942   1.193   2.218 -1.6056  2.3311 -0.5116
  281SOL    HW2 2444   4.971   1.125   2.072 -0.0151  0.8122  0.4737
  282SOL     OW 2445   4.576   2.298   4.868  0.4179  0.0401 -0.3960
  282SOL    HW1 2446   4.600   2.386   4.909 -0.5910  0.2031 -0.1224
  282SOL    HW2 2447   4.573   2.228   4.939  1.3951 -0.2608 -0.6411
  283SOL     OW 2448   2.933   0.800   6.732  0.6099  0.1080 -0.1363
  283SOL    HW1 2449   2.911   0.716   6.782  0.5672 -0.1057 -0.5099
  283SOL    HW2 2450   3.021   0.836   6.763  0.4979  0.0778  0.2210
  284SOL     OW 2451   5.262   6.736   2.377  0.5851  0.3332  0.1875
  284SOL    HW1 2452   5.304   6.678   2.446 -0.9520  1.1823  1.9106
  284SOL    HW2 2453   5.165   6.713   2.367  0.7201  0.3929 -1.5352
  285SOL     OW 2454   6.195   0.952   6.151  0.2525  0.6303  0.6050
  285SOL    HW1 2455   6.126   0.945   6.223  0.8412  1.3506  1.2628
  285SOL    HW2 2456   6.199   0.865   6.101  0.5647 -0.2931  2.1440
  286SOL     OW 2457   1.639   4.411   4.792  0.1881 -0.2658  0.0821
  286SOL    HW1 2458   1.735   4.386   4.799  0.0452 -0.8820 -0.0737
  286SOL    HW2 2459   1.631   4.510   4.776  0.8133 -0.2970 -0.4846
  287SOL     OW 2460   2.060   4.270   6.515 -0.3599 -0.2754  0.4719
  287SOL    HW1 2461   2.055   4.225   6.425 -0.0195 -0.1248  0.3776
  287SOL    HW2 2462   2.027   4.364   6.506  1.2150  0.2624  0.1537
  288SOL     OW 2463   3.425   6.961   2.305 -0.0586 -0.3306 -0.0932
  288SOL    HW1 2464   3.454   7.054   2.328  1.2941 -0.8527  0.3823
  288SOL    HW2 2465   3.378   6.962   2.217  0.1193  0.7691 -0.1943
  289SOL     OW 2466   6.511   5.125   6.539 -0.3206  0.1280  0.2495
  289SOL    HW1 2467   6.503   5.161   6.446 -1.9031  1.6199  0.9031
  289SOL    HW2 2468   6.594   5.158   6.582 -0.4546  0.8746 -0.0610
  290SOL     OW 2469   3.502   6.364   3.914 -0.7353 -0.1691 -0.1374
  290SOL    HW1 2470   3.505   6.408   3.824  0.8829  0.4470  0.1792
  290SOL    HW2 2471   3.407   6.357   3.945 -1.3804 -0.9838 -2.1666
  291SOL     OW 2472   6.798   3.776   4.976 -0.2056 -0.6943  0.8460
  291SOL    HW1 2473   6.812   3.694   4.921 -0.7973  0.1657 -0.6243
  291SOL    HW2 2474   6.704   3.776   5.011 -1.0650  0.5531 -1.2876
  292SOL     OW 2475   6.307   5.346   4.052 -0.3576  0.2925 -0.0700
  292SOL    HW1 2476   6.284   5.393   3.967  0.2939  0.2535 -0.2707
  292SOL    HW2 2477   6.386   5.287   4.038 -0.0110  0.5720  0.6491
  293SOL     OW 2478   5.073   6.031   3.620 -0.1529 -0.5201  0.2215
  293SOL    HW1 2479   5.170   6.050   3.607 -0.1761 -1.3060 -1.3342
  293SOL    HW2 2480   5.025   6.040   3.532 -1.1586 -1.9604  0.5829
  294SOL     OW 2481   5.931   4.465   2.764 -0.0137  0.5766 -0.1335
  294SOL    HW1 2482   5.979   4.482   2.850 -0.4681 -0.7953  0.4256
  294SOL    HW2 2483   5.877   4.545   2.740 -1.7457  0.2034  2.1249
  295SOL     OW 2484   7.011   3.279   2.897  0.3610  0.0010  0.6019
  295SOL    HW1 2485   6.920   3.238   2.897 -0.3844  1.4341 -2.1666
  295SOL    HW2 2486   7.023   3.334   2.979 -0.5232 -1.6250  1.8893
  296SOL     OW 2487   0.906   1.130   0.022  0.0858  0.2616 -0.2495
  296SOL    HW1 2488   0.840   1.080  -0.034 -0.0575 -1.3449  1.2573
  296SOL    HW2 2489   0.882   1.121   0.119  2.5982 -0.5844  0.3812
  297SOL     OW 2490   0.490   4.118   1.377  0.5234 -0.7925 -0.3853
  297SOL    HW1 2491   0.443   4.192   1.425 -0.3209 -3.1699  2.8068
  297SOL    HW2 2492   0.586   4.117   1.403 -0.2279 -3.0063  2.8502
  298SOL     OW 2493   0.848   0.760   3.984  0.0709  0.4028 -0.4111
  298SOL    HW1 2494   0.886   0.731   4.072  0.5398 -2.9387 -1.5951
  298SOL    HW2 2495   0.918   0.808   3.932  0.0848  1.5126  0.5615
  299SOL     OW 2496   2.822   3.403   6.361 -0.5256 -0.4208  0.0276
  299SOL    HW1 2497   2.790   3.342   6.433  0.4000 -0.5700  0.3299
  299SOL    HW2 2498   2.881   3.474   6.400  1.6763 -1.7026 -0.7720
  300SOL     OW 2499   0.535   6.763   1.257  0.0648 -0.4611  0.6517
  300SOL    HW1 2500   0.604   6.699   1.224 -0.3824 -0.7538  0.2724
  300SOL    HW2 2501   0.566   6.803   1.343 -1.2196 -4.0238  3.0122
  301SOL     OW 2502   0.480   6.819   0.011  0.4397  0.0679  0.2994
  301SOL    HW1 2503   0.425   6.841   0.092 -0.0940  1.4503 -0.4099
  301SOL    HW2 2504   0.421   6.780  -0.060  1.2304 -3.1830  1.2359
  302SOL     OW 2505   0.857   4.577   1.764  0.1578 -0.3780 -0.3025
  302SOL    HW1 2506   0.935   4.587   1.825 -0.2437  0.8397  0.0489
  302SOL    HW2 2507   0.858   4.652   1.697 -1.6626  0.7358  0.8345
  303SOL     OW 2508   1.870   6.169   2.604 -0.3214 -0.0915  0.4548
  303SOL    HW1 2509   1.866   6.254   2.657  0.6279  0.0800  0.2729
  303SOL    HW2 2510   1.912   6.098   2.659  1.8886  0.4327 -0.4682
  304SOL     OW 2511   5.252   5.505   0.826 -0.1167  0.0678 -0.1762
  304SOL    HW1 2512   5.152   5.507   0.827 -0.1502 -0.0441 -1.5869
  304SOL    HW2 2513   5.287   5.593   0.859 -0.6699  0.0850  0.3914
  305SOL     OW 2514   1.081   6.419   0.926 -0.5372  0.5859  0.3775
  305SOL    HW1 2515   1.130   6.391   0.844  0.5876 -2.9817  2.0254
  305SOL    HW2 2516   0.987   6.385   0.922 -0.8641  1.4962  0.0834
  306SOL     OW 2517   4.875   2.176   4.591  0.3463 -0.2646  0.0396
  306SOL    HW1 2518   4.845   2.138   4.504  1.2941  0.2484 -0.5271
  306SOL    HW2 2519   4.879   2.103   4.660 -1.8202 -0.4183  0.0758
  307SOL     OW 2520   6.220   3.664   5.780  0.0277  0.4419  0.0507
  307SOL    HW1 2521   6.213   3.700   5.873 -1.0013 -0.7624  0.4706
  307SOL    HW2 2522   6.179   3.728   5.716 -0.2631  0.7822  0.5700
  308SOL     OW 2523   5.556   3.591   1.119 -0.0212 -0.3026 -0.3024
  308SOL    HW1 2524   5.489   3.520   1.142  1.4959 -1.9318 -0.6809
  308SOL    HW2 2525   5.533   3.631   1.030 -2.0722  1.2327  0.8393
  309SOL     OW 2526   4.206   3.790   4.059  0.1560 -0.0619  0.4007
  309SOL    HW1 2527   4.300   3.774   4.090 -0.2365  0.3722  1.9085
  309SOL    HW2 2528   4.200   3.773   3.961  1.3396 -2.1224  0.6342
  310SOL     OW 2529   0.775   2.610   3.825  0.4310  0.2524 -0.4313
  310SOL    HW1 2530   0.685   2.569   3.815  0.7861 -0.9115  0.8688
  310SOL    HW2 2531   0.845   2.538   3.829  1.3712  1.1056 -0.8707
  311SOL     OW 2532   6.975   1.712   1.430 -0.0152  0.0761  0.0365
  311SOL    HW1 2533   7.017   1.626   1.399 -0.4859  0.0050 -0.4056
  311SOL    HW2 2534   6.983   1.781   1.359  1.2356  0.7066  0.7609
  312SOL     OW 2535   1.583   6.845   5.384 -0.1835  0.4983 -0.8560
  312SOL    HW1 2536   1.656   6.795   5.430 -1.1827  0.9139  1.2721
  312SOL    HW2 2537   1.624   6.908   5.317  1.2908 -0.2825 -0.7493
  313SOL     OW 2538   0.600   1.508   1.327  0.4218  0.2919  0.4675
  313SOL    HW1 2539   0.511   1.543   1.298  0.4750  0.8864  0.9900
  313SOL    HW2 2540   0.671   1.541   1.266  0.3583  0.3315  0.4157
  314SOL     OW 2541   5.809   3.098   2.673  0.7293 -0.1304 -0.2233
  314SOL    HW1 2542   5.796   3.197   2.676 -0.6012 -0.2907 -0.1637
  314SOL    HW2 2543   5.890   3.073   2.726  1.7693  1.0286 -1.2236
  315SOL     OW 2544   1.934   2.440   4.448  0.4966 -0.2887 -0.0236
  315SOL    HW1 2545   2.033   2.444   4.435  0.4180  0.7884 -0.3803
  315SOL    HW2 2546   1.888   2.468   4.364 -0.1574 -2.3161 -0.3975
  316SOL     OW 2547   1.504   0.653   0.854 -0.0813  0.2101  0.3730
  316SOL    HW1 2548   1.483   0.716   0.779 -1.1454 -1.2101 -0.5758
  316SOL    HW2 2549   1.469   0.689   0.940 -1.0237  0.7302 -0.2191
  317SOL     OW 2550   4.660   4.487   1.568 -0.3334  0.0600  0.2543
  317SOL    HW1 2551   4.616   4.458   1.653 -0.5050  1.2989  0.6156
  317SOL    HW2 2552   4.660   4.412   1.502 -0.4104 -0.8382  1.2669
  318SOL     OW 2553   6.626   0.464   2.091  0.3308  0.8856  0.0630
  318SOL    HW1 2554   6.563   0.406   2.038  0.0990  2.6040 -1.6768
  318SOL    HW2 2555   6.574   0.518   2.158 -0.2081  2.5306 -1.5800
  319SOL     OW 2556   5.800   6.915   6.885  0.4052  0.5008  0.4969
  319SOL    HW1 2557   5.856   6.972   6.826  0.3157 -1.1634 -1.2974
  319SOL    HW2 2558   5.824   6.819   6.871 -3.7006 -0.4654 -1.4400
  320SOL     OW 2559   3.357   2.282   4.486 -0.0414 -0.3354 -0.1448
  320SOL    HW1 2560   3.373   2.190   4.522  0.2822  0.5318  2.0934
  320SOL    HW2 2561   3.260   2.305   4.492  0.1800  0.2862  1.5182
  321SOL     OW 2562   2.370   5.259   1.260 -0.4182  0.1946 -0.3860
  321SOL    HW1 2563   2.427   5.220   1.187 -1.7035  0.8072 -1.7632
  321SOL    HW2 2564   2.415   5.339   1.299  0.5275 -0.4544 -0.1119
  322SOL     OW 2565   1.339   3.748   2.405 -0.1904  0.2596 -0.1412
  322SOL    HW1 2566   1.397   3.732   2.486  0.2758 -0.3999 -0.5898
  322SOL    HW2 2567   1.388   3.806   2.340  1.3286 -2.7343 -1.8844
  323SOL     OW 2568   6.553   6.441   5.469 -0.2567  0.2898 -0.1323
  323SOL    HW1 2569   6.582   6.499   5.545  0.0671  1.2537 -0.9679
  323SOL    HW2 2570   6.485   6.376   5.502  1.9258 -1.2773  1.6330
  324SOL     OW 2571   3.816   3.029   1.067  0.3266  0.4701  0.5057
  324SOL    HW1 2572   3.822   3.093   0.990  0.1948 -0.4460 -0.2878
  324SOL    HW2 2573   3.858   2.942   1.041 -0.1640 -0.0171  1.3028
  325SOL     OW 2574   1.392   6.977   6.847  0.3956  0.5243  0.4979
  325SOL    HW1 2575   1.350   7.027   6.922 -2.5685 -1.1368  0.1105
  325SOL    HW2 2576   1.421   7.041   6.776 -1.3214  1.8475  0.9218
  326SOL     OW 2577   4.094   6.323   2.180  0.1534  0.0549 -0.1931
  326SOL    HW1 2578   4.070   6.407   2.131 -1.1479 -0.3556 -0.3022
  326SOL    HW2 2579   4.017   6.294   2.237  0.6484 -0.9661 -0.0102
  327SOL     OW 2580   0.003   2.626   0.823  0.1432  0.7481  0.2895
  327SOL    HW1 2581  -0.006   2.611   0.922  1.8745  1.6914  0.6309
  327SOL    HW2 2582   0.040   2.544   0.780  1.2119  0.9594  0.7595
  328SOL     OW 2583   1.901   2.579   0.575  0.0699  0.2283 -0.1907
  328SOL    HW1 2584   1.804   2.573   0.600 -0.1232  0.7775 -0.7867
  328SOL    HW2 2585   1.911   2.570   0.476  0.4057  2.2886 -0.3818
  329SOL     OW 2586   4.059   4.106   3.319  0.3287  0.7619 -0.0696
  329SOL    HW1 2587   4.002   4.088   3.239  0.4663  0.3916 -0.0857
  329SOL    HW2 2588   4.092   4.019   3.356  0.4525  0.9462  0.2524
  330SOL     OW 2589   1.693   4.851   4.201  0.0709  0.1689  0.0772
  330SOL    HW1 2590   1.712   4.851   4.103 -0.0931  0.7157  0.0448
  330SOL    HW2 2591   1.613   4.794   4.220 -0.1260  0.3739 -0.1481
  331SOL     OW 2592   6.730   6.920   2.287 -0.6337 -0.0837 -0.0290
  331SOL    HW1 2593   6.668   6.980   2.338 -0.8143 -0.4347  0.1687
  331SOL    HW2 2594   6.727   6.828   2.326  0.5793  0.0690  0.4525
  332SOL     OW 2595   6.078   2.880   6.173  0.2389  0.0573  0.0802
  332SOL    HW1 2596   6.093   2.788   6.137  1.0033  0.6531 -1.1606
  332SOL    HW2 2597   6.151   2.904   6.236  0.1306 -0.1081  0.2713
  333SOL     OW 2598   0.866   6.253   0.846 -0.4098  0.5831 -0.6023
  333SOL    HW1 2599   0.905   6.178   0.793  1.8341  1.7069 -0.6720
  333SOL    HW2 2600   0.826   6.321   0.785 -0.0466  0.6978 -0.7152
  334SOL     OW 2601   0.910   5.347   2.896 -0.8028  0.1612 -0.4018
  334SOL    HW1 2602   0.932   5.417   2.829 -0.5845  0.4950  0.0115
  334SOL    HW2 2603   0.892   5.389   2.985  0.3706 -0.3541  0.1126
  335SOL     OW 2604   4.316   3.760   5.537  0.2863 -0.1732 -0.7769
  335SOL    HW1 2605   4.270   3.798   5.618 -0.1674 -0.7101 -0.7793
  335SOL    HW2 2606   4.398   3.711   5.566  1.1556  1.2174 -0.8178
  336SOL     OW 2607   1.969   4.131   2.304  0.3781 -0.2148 -0.0770
  336SOL    HW1 2608   1.975   4.189   2.223  0.2635  0.9025  0.6921
  336SOL    HW2 2609   1.934   4.041   2.278 -0.4086  0.3704 -1.1429
  337SOL     OW 2610   1.549   2.575   4.687  0.5678  0.4291  0.0324
  337SOL    HW1 2611   1.541   2.570   4.786  2.0707  1.4744  0.2310
  337SOL    HW2 2612   1.486   2.643   4.651 -0.2001 -0.1710  0.2204
  338SOL     OW 2613   4.173   3.758   6.061  0.7209 -0.6692 -0.3323
  338SOL    HW1 2614   4.184   3.682   6.125 -0.7321 -1.8685 -1.4367
  338SOL    HW2 2615   4.193   3.726   5.968 -0.7072  0.0443 -0.9180
  339SOL     OW 2616   6.795   0.894   5.148  0.5353 -0.0181 -0.2710
  339SOL    HW1 2617   6.814   0.878   5.245  4.9456  0.3890 -0.8820
  339SOL    HW2 2618   6.766   0.809   5.105 -0.2043 -0.4950  1.1025
  340SOL     OW 2619   4.647   2.949   6.758  0.4307  0.2279 -0.3754
  340SOL    HW1 2620   4.592   2.869   6.783 -0.1630  1.2559  1.8301
  340SOL    HW2 2621   4.722   2.920   6.698 -0.4256 -1.7696 -0.5722
  341SOL     OW 2622   4.094   2.693   6.409 -0.4094  0.3918 -0.2097
  341SOL    HW1 2623   4.104   2.610   6.463 -1.0069 -0.2625 -1.0588
  341SOL    HW2 2624   4.005   2.692   6.362  0.0500  0.9654 -1.1315
  342SOL     OW 2625   6.418   4.111   1.115 -0.2314  0.2327  0.8107
  342SOL    HW1 2626   6.500   4.134   1.063 -0.4533  3.0468  1.5226
  342SOL    HW2 2627   6.435   4.130   1.212 -1.8385  1.3392  0.9063
  343SOL     OW 2628   0.688   4.626   0.411  0.1940  0.2438  0.4176
  343SOL    HW1 2629   0.704   4.716   0.371  1.2237 -0.4287 -0.7641
  343SOL    HW2 2630   0.632   4.635   0.493 -2.8089  1.6636 -1.5779
  344SOL     OW 2631   4.198   3.885   6.972  0.0369 -0.1008  0.3095
  344SOL    HW1 2632   4.145   3.813   6.926 -1.1089  0.1291  1.2323
  344SOL    HW2 2633   4.151   3.973   6.961  1.2911  0.4849 -0.5862
  345SOL     OW 2634   5.110   3.196   1.448 -0.8334 -0.0888  0.1112
  345SOL    HW1 2635   5.091   3.194   1.350 -0.9647  1.2442  0.0900
  345SOL    HW2 2636   5.030   3.231   1.497 -1.0039 -1.3648  0.7718
  346SOL     OW 2637   6.851   0.252   0.721 -0.2662 -0.3779  0.4397
  346SOL    HW1 2638   6.897   0.165   0.740  2.4192  0.0205 -3.1635
  346SOL    HW2 2639   6.787   0.239   0.645  2.0518  1.1151 -1.9208
  347SOL     OW 2640   1.269   1.816   3.275  0.8636 -0.0868 -0.4901
  347SOL    HW1 2641   1.242   1.897   3.327  2.8964 -0.4700  1.2893
  347SOL    HW2 2642   1.188   1.761   3.255 -0.5417  2.2131 -1.5657
  348SOL     OW 2643   1.531   1.189   1.836  0.0067  0.3477 -0.3321
  348SOL    HW1 2644   1.579   1.122   1.893  0.1196 -0.2847 -1.1420
  348SOL    HW2 2645   1.518   1.274   1.888  0.8541  0.0872  0.3437
  349SOL     OW 2646   0.705   0.741   1.273 -0.0395  0.1131  0.4133
  349SOL    HW1 2647   0.765   0.818   1.296  0.3908  0.2948 -1.1470
  349SOL    HW2 2648   0.653   0.764   1.191  0.9742 -1.6669 -0.7964
  350SOL     OW 2649   6.190   4.111   3.537  0.6115  0.1843 -0.4889
  350SOL    HW1 2650   6.250   4.052   3.590  0.1077  0.7049  0.6863
  350SOL    HW2 2651   6.152   4.060   3.460  0.4822 -0.9045  0.2815
  351SOL     OW 2652   1.347   0.662   3.537  0.2633 -0.4103  0.4698
  351SOL    HW1 2653   1.317   0.626   3.449  1.1550  1.1839 -0.5451
  351SOL    HW2 2654   1.447   0.671   3.536  0.6352 -3.0176  2.7286
  352SOL     OW 2655   2.066   1.811   4.154 -0.0117  0.1747 -0.0070
  352SOL    HW1 2656   2.119   1.738   4.112  2.4372  1.7393  0.1795
  352SOL    HW2 2657   2.103   1.831   4.245  0.6998  2.8921 -0.7970
  353SOL     OW 2658   4.389   1.249   2.158 -0.4113  0.4291  0.3009
  353SOL    HW1 2659   4.362   1.155   2.138  1.6380 -0.1201 -0.0815
  353SOL    HW2 2660   4.453   1.281   2.088  0.3176  1.4633  1.4036
  354SOL     OW 2661   4.034   6.527   1.973  0.3041  0.2623  0.2116
  354SOL    HW1 2662   4.114   6.475   1.943 -1.0815 -1.7630 -0.1248
  354SOL    HW2 2663   3.982   6.557   1.893 -0.2795 -0.0706  0.4616
  355SOL     OW 2664   3.865   1.850   1.282  0.4182  0.3897 -0.1966
  355SOL    HW1 2665   3.778   1.853   1.233  0.0890  1.4759  0.4211
  355SOL    HW2 2666   3.936   1.897   1.229  1.1569 -2.0887 -1.5969
  356SOL     OW 2667   1.621   0.602   5.087 -0.3121  0.3270  0.0434
  356SOL    HW1 2668   1.646   0.617   5.183 -1.2462  0.5337  0.2638
  356SOL    HW2 2669   1.649   0.682   5.033  0.2660  0.1865  0.1288
  357SOL     OW 2670   0.665   1.739   5.994  0.0863  0.0242 -0.1315
  357SOL    HW1 2671   0.606   1.659   5.982 -0.8187  0.6866 -0.1760
  357SOL    HW2 2672   0.737   1.717   6.060 -1.0752 -0.3440  1.0593
  358SOL     OW 2673   4.649   6.372   1.440  0.2485 -0.4590  0.0218
  358SOL    HW1 2674   4.719   6.407   1.378 -0.0871 -0.5129 -0.3925
  358SOL    HW2 2675   4.564   6.357   1.390 -0.6927  1.5651  0.9125
  359SOL     OW 2676   4.003   3.747   1.343  0.2410 -0.2511  0.1288
  359SOL    HW1 2677   3.934   3.746   1.270  0.0035 -0.8500  0.3577
  359SOL    HW2 2678   3.974   3.686   1.417  0.5272  0.2699  0.6821
  360SOL     OW 2679   5.026   4.653   1.438  0.4284  0.4148  0.6644
  360SOL    HW1 2680   4.931   4.647   1.405  0.6386  1.8044 -0.2859
  360SOL    HW2 2681   5.026   4.648   1.538 -0.6081 -0.0573  0.6581
  361SOL     OW 2682   2.889   0.394   1.453 -0.1330  0.1038 -0.5407
  361SOL    HW1 2683   2.803   0.445   1.460 -0.0711 -0.0341  2.5531
  361SOL    HW2 2684   2.960   0.455   1.417 -0.9253  1.0197 -0.6171
  362SOL     OW 2685   2.100   1.848   6.463 -0.6961  0.4034 -0.1954
  362SOL    HW1 2686   2.110   1.895   6.376  1.8239 -0.7928 -0.6392
  362SOL    HW2 2687   2.058   1.909   6.530 -1.5104  1.7594 -1.8815
  363SOL     OW 2688   0.048   5.283   4.809 -0.1282  0.0525  0.6423
  363SOL    HW1 2689  -0.024   5.346   4.782 -0.0631 -0.2795 -0.3210
  363SOL    HW2 2690   0.034   5.256   4.905 -0.9652  0.4169  0.6307
  364SOL     OW 2691   7.015   1.586   4.124  0.1285 -0.1695  0.0069
  364SOL    HW1 2692   7.102   1.615   4.085 -0.1438 -1.4782 -1.7308
  364SOL    HW2 2693   7.031   1.524   4.200  0.6895  0.9867  0.8524
  365SOL     OW 2694   1.100   0.862   2.279  0.2303  0.2533 -0.0946
  365SOL    HW1 2695   1.059   0.951   2.300  1.8577  0.0308  5.3774
  365SOL    HW2 2696   1.172   0.875   2.210  1.8537  3.7398  1.9475
  366SOL     OW 2697   3.092   0.754   6.355  0.1840  0.3918 -0.2434
  366SOL    HW1 2698   3.175   0.742   6.300 -0.2531  1.0623 -1.0696
  366SOL    HW2 2699   3.065   0.666   6.395  0.6546 -0.0539 -0.8908
  367SOL     OW 2700   2.834   2.321   4.361 -0.1997 -0.1180  0.3692
  367SOL    HW1 2701   2.775   2.394   4.397 -1.1673 -0.8984  0.3875
  367SOL    HW2 2702   2.810   2.303   4.266  0.1287 -0.3193  0.3258
  368SOL     OW 2703   2.436   4.913   2.358  0.1529 -0.1852  0.4544
  368SOL    HW1 2704   2.429   4.961   2.446  0.9512 -0.1955  0.5330
  368SOL    HW2 2705   2.346   4.881   2.330 -0.0857 -0.3425  1.3676
  369SOL     OW 2706   6.523   1.152   5.378 -0.1775 -0.2730  0.7677
  369SOL    HW1 2707   6.541   1.189   5.470 -0.0524 -0.1806  0.7060
  369SOL    HW2 2708   6.517   1.053   5.383  2.9065 -0.5727  0.3907
  370SOL     OW 2709   4.742   3.031   1.051 -0.3562  0.1831 -0.0299
  370SOL    HW1 2710   4.727   2.942   1.095  0.8778 -0.4570 -0.8627
  370SOL    HW2 2711   4.655   3.080   1.045 -1.1925 -1.2809 -0.2399
  371SOL     OW 2712   5.231   2.838   3.440  0.2428 -0.0285  0.5887
  371SOL    HW1 2713   5.261   2.895   3.517 -0.7392  0.9311  0.2826
  371SOL    HW2 2714   5.270   2.747   3.450 -0.0472 -0.0087  2.3765
  372SOL     OW 2715   1.668   5.968   5.225 -0.0831 -0.0717  0.3027
  372SOL    HW1 2716   1.692   5.892   5.286  2.8151 -1.9530 -2.8488
  372SOL    HW2 2717   1.577   5.952   5.187 -0.3648 -0.8352  1.2616
  373SOL     OW 2718   2.576   0.441   3.895  0.0998 -0.0027  0.0396
  373SOL    HW1 2719   2.557   0.425   3.798  0.1935 -0.8493  0.1539
  373SOL    HW2 2720   2.665   0.403   3.918  0.7583  1.5414  0.1254
  374SOL     OW 2721   0.038   4.456   6.878  0.0918  0.3674 -0.3623
  374SOL    HW1 2722   0.029   4.356   6.875 -0.1075  0.3894 -0.4822
  374SOL    HW2 2723   0.003   4.495   6.793 -2.9434  0.7939  0.9846
  375SOL     OW 2724   6.040   4.907   1.527 -0.0227  0.4347  0.4064
  375SOL    HW1 2725   6.023   4.998   1.490  0.7554 -0.0315 -1.1909
  375SOL    HW2 2726   6.126   4.906   1.577 -1.0016  1.0287  2.2021
  376SOL     OW 2727   4.730   1.081   2.979 -0.3144  0.4028 -0.5077
  376SOL    HW1 2728   4.796   1.066   2.906  0.7052  1.2426  0.2107
  376SOL    HW2 2729   4.727   1.000   3.038  0.8773  0.7433  0.0539
  377SOL     OW 2730   5.908   6.300   5.260  0.0928  0.4249  0.2655
  377SOL    HW1 2731   5.844   6.336   5.192 -1.4654  1.2683  2.0798
  377SOL    HW2 2732   5.956   6.221   5.222 -1.1352  0.5080 -1.5819
  378SOL     OW 2733   1.199   3.820   5.753 -0.2518 -0.7122 -0.0300
  378SOL    HW1 2734   1.216   3.828   5.851 -0.0490  1.7539 -0.2089
  378SOL    HW2 2735   1.102   3.835   5.735 -0.0507  0.3362 -0.3069
  379SOL     OW 2736   2.031   0.826   6.864  0.2099  0.3840  0.5167
  379SOL    HW1 2737   2.054   0.905   6.808 -1.7825  0.9986  0.5235
  379SOL    HW2 2738   2.098   0.818   6.938  0.4860  1.9938  0.4744
  380SOL     OW 2739   5.540   3.903   1.521 -0.0487 -0.3094 -0.1830
  380SOL    HW1 2740   5.573   3.934   1.432  0.9853  0.3934  0.4246
  380SOL    HW2 2741   5.542   3.979   1.585 -3.1428 -0.1587 -0.1445
  381SOL     OW 2742   6.978   1.436   2.045 -0.1081 -0.3828 -0.4859
  381SOL    HW1 2743   6.986   1.353   2.100 -0.6818 -0.0451  0.1312
  381SOL    HW2 2744   7.067   1.460   2.007  0.4486 -0.3037  0.7988
  382SOL     OW 2745   5.110   3.864   3.669  0.3633  0.4634 -0.7528
  382SOL    HW1 2746   5.192   3.908   3.707  0.6312  0.7187 -1.6053
  382SOL    HW2 2747   5.133   3.821   3.582 -0.4095  0.5101 -0.9848
  383SOL     OW 2748   3.640   5.187   0.304 -0.0506  0.2596 -0.0278
  383SOL    HW1 2749   3.611   5.108   0.250 -1.3420 -0.1053  1.1263
  383SOL    HW2 2750   3.698   5.155   0.379  0.9026  0.6359 -0.6012
  384SOL     OW 2751   0.859   5.528   3.491 -0.1861  0.9025 -0.3464
  384SOL    HW1 2752   0.892   5.615   3.455  0.4975  1.8194  2.2602
  384SOL    HW2 2753   0.780   5.497   3.438  1.3142  1.5623 -3.1690
  385SOL     OW 2754   1.949   4.791   1.642  0.0395 -0.4020 -0.1117
  385SOL    HW1 2755   1.868   4.827   1.596  1.0573  1.3135 -0.6130
  385SOL    HW2 2756   1.924   4.761   1.734 -0.9009  1.3774  0.2405
  386SOL     OW 2757   5.308   0.570   5.338  0.2865  0.0668 -0.2026
  386SOL    HW1 2758   5.289   0.544   5.432 -1.9553  0.3860 -0.5039
  386SOL    HW2 2759   5.301   0.669   5.328 -1.2261 -0.0880 -1.0034
  387SOL     OW 2760   0.922   1.374   0.891  0.2942  0.1593 -0.0773
  387SOL    HW1 2761   0.931   1.382   0.990 -3.2124 -0.8052  0.4432
  387SOL    HW2 2762   0.935   1.464   0.849 -0.6212  1.0744  1.5267
  388SOL     OW 2763   1.596   6.023   1.796 -0.5489  0.5390 -0.6928
  388SOL    HW1 2764   1.573   6.120   1.790 -2.7828  0.0952  0.0532
  388SOL    HW2 2765   1.681   6.013   1.848 -0.3494  2.0754 -0.6654
  389SOL     OW 2766   0.471   4.506   3.703 -0.3383  0.1549 -0.4895
  389SOL    HW1 2767   0.423   4.437   3.757  1.4575  0.7616  2.0886
  389SOL    HW2 2768   0.433   4.597   3.724 -0.1316  0.3273 -0.8611
  390SOL     OW 2769   6.406   1.035   3.801 -0.1549 -0.0842  0.1850
  390SOL    HW1 2770   6.315   1.067   3.828 -0.2713  0.0607 -0.3749
  390SOL    HW2 2771   6.469   1.045   3.878 -0.2350  1.2932  0.0876
  391SOL     OW 2772   2.105   4.476   1.825 -0.2704  0.3284 -0.1238
  391SOL    HW1 2773   2.183   4.527   1.789  1.0957  0.1339  2.3815
  391SOL    HW2 2774   2.112   4.380   1.796  0.5489  0.2697  0.2364
  392SOL     OW 2775   3.127   5.290   2.460 -0.2235 -0.0047 -0.4094
  392SOL    HW1 2776   3.195   5.349   2.503 -0.0362 -1.4230  1.3753
  392SOL    HW2 2777   3.040   5.298   2.509 -0.3379 -0.7919 -0.4746
  393SOL     OW 2778   3.672   2.069   4.387  0.4797 -0.2804 -0.1577
  393SOL    HW1 2779   3.650   2.042   4.293 -0.1766 -2.6684  0.5969
  393SOL    HW2 2780   3.751   2.016   4.418  0.7745  0.5952  0.6180
  394SOL     OW 2781   2.600   1.978   0.906 -0.0269 -0.2286  1.0129
  394SOL    HW1 2782   2.565   1.884   0.908 -0.6343 -0.0596 -0.2330
  394SOL    HW2 2783   2.680   1.982   0.846 -0.3048  0.1215  0.6548
  395SOL     OW 2784   0.903   0.311   6.970  0.2632 -0.3540 -0.1759
  395SOL    HW1 2785   0.940   0.218   6.959  1.7126  0.3945 -2.4984
  395SOL    HW2 2786   0.960   0.375   6.919 -1.2935  1.6939  0.5302
  396SOL     OW 2787   5.265   0.289   5.046  0.9650  0.4767 -0.0647
  396SOL    HW1 2788   5.227   0.269   4.955  1.1718  1.1971 -0.3160
  396SOL    HW2 2789   5.218   0.368   5.085  0.9057  0.1903  0.4436
  397SOL     OW 2790   4.089   6.706   4.625  0.1374  0.2382  0.0652
  397SOL    HW1 2791   4.167   6.768   4.619  1.1298 -1.0878 -1.5225
  397SOL    HW2 2792   4.006   6.754   4.595  1.1065  0.5006 -2.4224
  398SOL     OW 2793   5.394   1.372   2.435  0.6218 -0.4409  0.1189
  398SOL    HW1 2794   5.387   1.360   2.534 -0.7103  1.3858  0.3020
  398SOL    HW2 2795   5.444   1.457   2.415 -2.5213  1.4391 -0.5530
  399SOL     OW 2796   4.762   4.816   1.694  0.3483  0.0979 -0.2074
  399SOL    HW1 2797   4.709   4.872   1.757  1.6032 -0.3539  1.3072
  399SOL    HW2 2798   4.723   4.724   1.689 -0.0531  0.2814 -0.5103
  400SOL     OW 2799   5.813   1.182   3.907 -0.1591 -0.1567 -0.3953
  400SOL    HW1 2800   5.763   1.203   3.823  0.2203 -2.6326 -1.3064
  400SOL    HW2 2801   5.749   1.161   3.980 -0.4661  0.8164 -0.3669
  401SOL     OW 2802   0.293   0.003   5.438  0.2388  0.2331 -0.2851
  401SOL    HW1 2803   0.195  -0.016   5.446  0.4219 -0.3249  0.8148
  401SOL    HW2 2804   0.326  -0.029   5.349 -0.2653 -0.9917 -0.0470
  402SOL     OW 2805   1.599   3.850   1.653 -0.7789  0.0148  0.2553
  402SOL    HW1 2806   1.667   3.848   1.579 -0.9456  0.6906  0.0762
  402SOL    HW2 2807   1.510   3.824   1.616 -0.9048  0.5580  0.1644
  403SOL     OW 2808   4.728   1.588   2.624  0.2833 -0.3905  0.1100
  403SOL    HW1 2809   4.827   1.577   2.635  0.3521 -0.8862 -0.8832
  403SOL    HW2 2810   4.706   1.684   2.610  0.7462 -0.3940 -0.6797
  404SOL     OW 2811   2.217   1.895   4.482 -0.2318 -0.0122 -0.5569
  404SOL    HW1 2812   2.258   1.894   4.573 -0.7782  1.0862 -0.2833
  404SOL    HW2 2813   2.171   1.808   4.465 -0.1081 -0.2322  0.2052
  405SOL     OW 2814   6.261   2.378   3.304  0.0379  0.1946  0.1845
  405SOL    HW1 2815   6.193   2.451   3.306 -1.4874 -1.1205 -0.8645
  405SOL    HW2 2816   6.347   2.411   3.343 -0.7198  2.3897  0.1322
  406SOL     OW 2817   6.091   2.236   0.014 -0.1593  0.1675 -0.1884
  406SOL    HW1 2818   6.177   2.190   0.037 -0.2884  0.6757  1.3897
  406SOL    HW2 2819   6.021   2.214   0.082 -1.6922 -1.2056 -2.0673
  407SOL     OW 2820   6.047   1.645   1.985  0.0911 -0.0875 -0.0281
  407SOL    HW1 2821   6.022   1.575   1.917  0.9752  1.0356 -1.5882
  407SOL    HW2 2822   6.102   1.603   2.057 -1.4548 -1.4614  0.4158
  408SOL     OW 2823   1.373   2.719   2.085 -0.2674 -0.8645 -0.2870
  408SOL    HW1 2824   1.395   2.755   2.175  0.9707 -0.8277 -0.5886
  408SOL    HW2 2825   1.313   2.640   2.095 -0.0065 -0.9622  0.5830
  409SOL     OW 2826   2.297   1.488   3.394 -0.1232 -0.3397  0.3028
  409SOL    HW1 2827   2.256   1.454   3.479 -0.5555 -2.3253 -0.6621
  409SOL    HW2 2828   2.326   1.583   3.408 -0.6514 -0.4369  2.4991
  410SOL     OW 2829   4.621   3.504   0.562 -0.0215  0.3904  0.8511
  410SOL    HW1 2830   4.522   3.516   0.564  0.2294  2.8129  0.7351
  410SOL    HW2 2831   4.644   3.433   0.495 -1.6671 -0.7689  1.4297
  411SOL     OW 2832   1.324   2.226   4.637 -0.0316  0.1831 -0.0888
  411SOL    HW1 2833   1.242   2.215   4.580 -1.2608  1.6983  1.2983
  411SOL    HW2 2834   1.307   2.294   4.708  2.1671 -0.1026  0.8050
  412SOL     OW 2835   2.752   4.171   6.183 -0.3405 -0.6895 -0.0612
  412SOL    HW1 2836   2.694   4.241   6.140  0.4811 -1.2681 -2.2894
  412SOL    HW2 2837   2.807   4.212   6.255  0.2912  1.0586 -1.4731
  413SOL     OW 2838   6.966   3.210   0.210  0.3192 -0.1702  0.3437
  413SOL    HW1 2839   6.924   3.136   0.157  0.4362 -0.2366  0.3432
  413SOL    HW2 2840   6.923   3.297   0.185 -0.3564 -0.3363  0.9100
  414SOL     OW 2841   5.775   5.136   3.665 -0.1879  0.2139 -0.4113
  414SOL    HW1 2842   5.793   5.229   3.697 -1.6143  0.3466  0.1010
  414SOL    HW2 2843   5.730   5.139   3.576 -0.1847  0.0152 -0.4206
  415SOL     OW 2844   5.061   6.279   6.877  0.2889  0.4061  0.1115
  415SOL    HW1 2845   5.139   6.254   6.934  1.0350 -0.0934 -1.0913
  415SOL    HW2 2846   5.061   6.223   6.794 -0.2150  1.7405 -0.8212
  416SOL     OW 2847   5.070   3.958   3.284  0.1060  0.0763  0.1170
  416SOL    HW1 2848   4.971   3.946   3.281  0.2103 -0.5820 -1.4790
  416SOL    HW2 2849   5.108   3.908   3.362 -0.8098  0.4278  0.8043
  417SOL     OW 2850   0.991   0.613   3.207  0.5947 -0.0969  0.3221
  417SOL    HW1 2851   1.074   0.587   3.255 -0.7549 -1.0568  2.2435
  417SOL    HW2 2852   0.982   0.713   3.208  2.4676  0.1505 -1.3187
  418SOL     OW 2853   7.002   6.861   1.697 -0.8215  0.0723 -0.1365
  418SOL    HW1 2854   6.963   6.769   1.703  0.6916 -0.6145 -0.3936
  418SOL    HW2 2855   7.097   6.859   1.728 -1.3664  1.9795  1.9212
  419SOL     OW 2856   2.461   0.281   6.572 -0.5502 -0.5097  0.2081
  419SOL    HW1 2857   2.518   0.340   6.629 -0.1569 -0.1057 -0.5890
  419SOL    HW2 2858   2.392   0.237   6.629 -2.7656  2.9230  0.4792
  420SOL     OW 2859   6.704   2.820   6.328 -0.6451  0.1000 -0.9100
  420SOL    HW1 2860   6.781   2.800   6.267 -0.5133 -0.1654 -0.6592
  420SOL    HW2 2861   6.694   2.919   6.338 -0.5105  0.1390 -1.1646
  421SOL     OW 2862   4.285   0.701   6.423  0.0228  0.0652  0.7764
  421SOL    HW1 2863   4.233   0.619   6.445 -0.7420  0.0996 -0.7444
  421SOL    HW2 2864   4.253   0.778   6.479 -4.1289  0.9562 -2.3142
  422SOL     OW 2865   4.837   6.489   4.311  0.1119  0.2656  0.3858
  422SOL    HW1 2866   4.829   6.411   4.373  0.6203  2.1182  2.9286
  422SOL    HW2 2867   4.930   6.524   4.314  0.7511 -0.7111 -3.0351
  423SOL     OW 2868   5.391   6.342   3.659 -0.2311 -0.2306  0.6466
  423SOL    HW1 2869   5.417   6.367   3.753  0.9082 -1.3443  0.6480
  423SOL    HW2 2870   5.445   6.396   3.595  0.3106 -0.7634  0.6459
  424SOL     OW 2871   2.499   0.533   1.976  0.0081 -0.8816 -0.1912
  424SOL    HW1 2872   2.482   0.447   1.928  0.1069 -0.5144 -0.8977
  424SOL    HW2 2873   2.523   0.604   1.910 -0.8283 -0.1179  0.2916
  425SOL     OW 2874   0.080   4.859   5.941  0.7235 -0.5712 -0.2686
  425SOL    HW1 2875   0.015   4.867   5.866  0.0057 -3.3818 -0.0571
  425SOL    HW2 2876   0.098   4.949   5.980  0.1189  0.7885 -2.9251
  426SOL     OW 2877   4.990   5.809   4.626  0.7611  0.0891  0.1792
  426SOL    HW1 2878   4.970   5.778   4.533  1.3513  0.3263 -0.0312
  426SOL    HW2 2879   5.019   5.731   4.681 -0.4472 -0.2136  0.4171
  427SOL     OW 2880   2.960   4.309   6.002 -0.2543  0.0499 -0.6673
  427SOL    HW1 2881   2.901   4.367   5.946 -2.7096 -1.4614  0.1784
  427SOL    HW2 2882   2.997   4.362   6.078  0.5427  1.3289 -1.8913
  428SOL     OW 2883   5.302   1.191   1.164 -0.5414 -0.5168 -0.1537
  428SOL    HW1 2884   5.237   1.248   1.215 -1.1695 -0.8672 -0.5447
  428SOL    HW2 2885   5.275   1.095   1.173  1.5237 -0.9936  1.9976
  429SOL     OW 2886   2.220   0.578   2.062  0.1100  0.0366  0.5423
  429SOL    HW1 2887   2.201   0.551   2.156  0.5719  1.0447  0.9313
  429SOL    HW2 2888   2.319   0.575   2.045  0.0570  0.1825  0.1918
  430SOL     OW 2889   1.241   2.492   2.156 -0.0800 -0.2501  1.1207
  430SOL    HW1 2890   1.149   2.472   2.124  0.2418  1.6954 -1.2291
  430SOL    HW2 2891   1.286   2.406   2.183 -1.0544 -1.8406 -1.9127
  431SOL     OW 2892   6.414   2.483   1.175  0.8032  0.1470 -0.6252
  431SOL    HW1 2893   6.397   2.534   1.259 -1.8812  1.6886 -1.9801
  431SOL    HW2 2894   6.405   2.385   1.193 -0.9006  0.4990  0.6651
  432SOL     OW 2895   4.615   5.026   3.751  0.2197 -0.1850  0.2713
  432SOL    HW1 2896   4.565   5.105   3.785 -1.2639 -0.7610 -0.4628
  432SOL    HW2 2897   4.634   4.963   3.827  1.8989  1.0834  0.9552
  433SOL     OW 2898   2.549   3.539   6.224 -1.0635  0.3482 -0.2415
  433SOL    HW1 2899   2.621   3.498   6.281 -2.5035  0.0879  1.4737
  433SOL    HW2 2900   2.588   3.617   6.175  0.3304  0.4308  0.8990
  434SOL     OW 2901   4.148   5.119   2.997 -0.0355 -0.5711  0.2502
  434SOL    HW1 2902   4.055   5.143   2.967 -0.5311  0.9692  2.7416
  434SOL    HW2 2903   4.150   5.023   3.024 -0.8516 -0.6671  0.0014
  435SOL     OW 2904   4.990   0.636   6.924 -0.0541 -0.1691  0.2856
  435SOL    HW1 2905   5.012   0.606   7.016  1.2664  2.6466  1.0252
  435SOL    HW2 2906   5.038   0.579   6.857  0.2868 -1.2327  1.4136
  436SOL     OW 2907   2.881   1.674   2.171  0.3078  0.0058  0.1123
  436SOL    HW1 2908   2.915   1.609   2.239 -0.0245  0.5176  0.7818
  436SOL    HW2 2909   2.904   1.767   2.199 -1.0157  0.3216  0.2319
  437SOL     OW 2910   1.812   4.595   5.879 -0.3903  0.5376 -0.2044
  437SOL    HW1 2911   1.841   4.652   5.802  1.9180  0.5807  0.6357
  437SOL    HW2 2912   1.799   4.501   5.847  0.3348  0.5954 -0.6886
  438SOL     OW 2913   3.421   6.062   0.091 -0.0364  0.2035  0.4917
  438SOL    HW1 2914   3.516   6.037   0.108 -0.3932 -1.2190  0.5206
  438SOL    HW2 2915   3.360   5.993   0.131 -1.0486  0.3941 -0.6450
  439SOL     OW 2916   1.287   0.925   4.798  0.0458 -0.5438  0.2378
  439SOL    HW1 2917   1.333   0.987   4.862 -1.2765 -1.9230  2.6576
  439SOL    HW2 2918   1.217   0.976   4.747 -0.1200  0.2546  1.2297
  440SOL     OW 2919   6.934   7.019   6.525 -0.6515 -0.6668 -0.0004
  440SOL    HW1 2920   6.933   6.950   6.598 -2.1048  0.1773  0.8088
  440SOL    HW2 2921   6.848   7.015   6.475  0.0720 -0.7827 -1.2695
  441SOL     OW 2922   6.542   1.488   6.195 -0.3320 -0.8247  0.1817
  441SOL    HW1 2923   6.532   1.583   6.225  0.1146 -1.1036  1.2953
  441SOL    HW2 2924   6.559   1.430   6.275  0.6362 -1.6662 -0.5977
  442SOL     OW 2925   6.017   0.612   4.212 -0.3846  1.0592 -0.0233
  442SOL    HW1 2926   6.021   0.656   4.122  0.7363 -1.0795 -1.0840
  442SOL    HW2 2927   6.034   0.514   4.203 -0.9374  0.6511  2.4643
  443SOL     OW 2928   2.052   6.832   4.769 -0.4690 -0.5372 -0.0599
  443SOL    HW1 2929   2.149   6.843   4.749  0.1346 -2.3354  1.5628
  443SOL    HW2 2930   2.002   6.914   4.741  1.8204  1.3330  1.0395
  444SOL     OW 2931   1.294   6.624   0.502 -0.6291  0.2326 -0.6344
  444SOL    HW1 2932   1.307   6.718   0.534 -0.8727 -0.4066  1.4996
  444SOL    HW2 2933   1.197   6.599   0.510 -0.3343 -0.6774  0.3000
  445SOL     OW 2934   2.257   6.263   4.038  0.3861 -0.0892  0.0349
  445SOL    HW1 2935   2.349   6.300   4.052  0.2394  1.1976 -2.0652
  445SOL    HW2 2936   2.199   6.286   4.117  1.4724  0.3301  0.7252
  446SOL     OW 2937   6.532   3.871   0.203 -0.0260 -0.0524 -0.0023
  446SOL    HW1 2938   6.443   3.843   0.167  0.2850 -1.0717  0.0056
  446SOL    HW2 2939   6.587   3.790   0.223  0.7618  0.5622  0.3620
  447SOL     OW 2940   3.893   2.222   2.076  0.5870 -0.6175  0.8298
  447SOL    HW1 2941   3.897   2.277   1.993  1.4459 -2.3566 -0.3219
  447SOL    HW2 2942   3.961   2.149   2.072  1.3788 -0.1384  3.5354
  448SOL     OW 2943   6.559   0.026   2.065 -0.5381 -0.2044  0.8808
  448SOL    HW1 2944   6.569   0.048   2.162 -1.8845 -0.2917  1.0671
  448SOL    HW2 2945   6.570   0.108   2.010  0.5133 -0.2030  1.0684
  449SOL     OW 2946   2.721   6.350   6.152  0.2298 -0.2092 -0.0617
  449SOL    HW1 2947   2.801   6.337   6.093  0.4923  0.1874  0.2027
  449SOL    HW2 2948   2.683   6.261   6.177  1.0471 -0.4291  0.4285
  450SOL     OW 2949   5.589   5.678   3.288  0.2124  0.0838  0.1360
  450SOL    HW1 2950   5.563   5.773   3.302  2.1434  0.7825 -0.6235
  450SOL    HW2 2951   5.554   5.646   3.200 -0.7844 -0.0436  0.5773
  451SOL     OW 2952   6.497   1.881   6.516  0.3222 -0.3242 -0.4006
  451SOL    HW1 2953   6.513   1.959   6.576  1.7911 -0.2570 -0.8336
  451SOL    HW2 2954   6.483   1.799   6.572  0.0966  0.0065  0.0368
  452SOL     OW 2955   6.345   6.714   6.401 -1.0096  0.0906 -0.7589
  452SOL    HW1 2956   6.408   6.717   6.323 -0.1811 -0.5270 -0.1308
  452SOL    HW2 2957   6.343   6.622   6.439 -0.2370  0.7004  0.8624
  453SOL     OW 2958   0.154   4.715   6.867  0.0741  0.0358 -0.3199
  453SOL    HW1 2959   0.088   4.752   6.801 -1.8917 -1.3549  0.7479
  453SOL    HW2 2960   0.126   4.623   6.893  2.4614 -0.5857  0.2643
  454SOL     OW 2961   5.422   2.769   6.272 -0.4392 -0.4683  0.3043
  454SOL    HW1 2962   5.438   2.865   6.249  0.7302 -0.6935  0.1469
  454SOL    HW2 2963   5.405   2.717   6.188  0.7844 -0.7284  0.2007
  455SOL     OW 2964   5.126   2.597   4.727  0.2940  0.2813  0.1477
  455SOL    HW1 2965   5.201   2.533   4.744  1.2343  1.3730  0.2735
  455SOL    HW2 2966   5.042   2.546   4.709  1.0916 -0.9863 -0.1545
  456SOL     OW 2967   4.174   6.489   4.776 -0.2470 -0.0112 -0.1348
  456SOL    HW1 2968   4.127   6.548   4.710  0.2372  0.3582 -0.1524
  456SOL    HW2 2969   4.117   6.409   4.795 -1.2161  0.7659  0.3754
  457SOL     OW 2970   2.727   6.533   3.722  0.5011  0.0900  0.1376
  457SOL    HW1 2971   2.669   6.613   3.709  0.3106 -0.2453 -1.3244
  457SOL    HW2 2972   2.823   6.561   3.726  0.3905  0.4438  0.2968
  458SOL     OW 2973   1.201   2.994   4.326  0.0092 -0.1215  0.3268
  458SOL    HW1 2974   1.299   3.011   4.319 -0.1487  0.6044 -0.2192
  458SOL    HW2 2975   1.182   2.897   4.311  0.6157 -0.2195  0.1954
  459SOL     OW 2976   1.065   6.214   2.527  0.2735  0.6476  0.1223
  459SOL    HW1 2977   1.063   6.136   2.590 -0.7828  0.0491 -0.6279
  459SOL    HW2 2978   0.985   6.272   2.543 -0.6982 -0.1919 -1.4824
  460SOL     OW 2979   2.626   5.374   4.336 -0.6614  0.4604 -0.0712
  460SOL    HW1 2980   2.713   5.422   4.319 -1.6551  2.4317  0.0696
  460SOL    HW2 2981   2.643   5.294   4.394  1.0999  0.6162 -0.3143
  461SOL     OW 2982   5.637   4.657   4.530  0.1173 -0.3874 -0.4077
  461SOL    HW1 2983   5.569   4.603   4.579 -0.4800 -0.5399 -1.4017
  461SOL    HW2 2984   5.687   4.599   4.467  0.4958 -0.0703 -0.4053
  462SOL     OW 2985   6.943   6.902   3.534 -0.4959 -0.1689 -0.2990
  462SOL    HW1 2986   6.890   6.818   3.546 -1.2071  0.2082 -0.7362
  462SOL    HW2 2987   6.923   6.966   3.608  1.2277 -0.9596  0.9267
  463SOL     OW 2988   3.055   3.672   3.352 -0.2189  0.1875  0.6880
  463SOL    HW1 2989   3.076   3.695   3.447  0.0764  0.3145  0.5920
  463SOL    HW2 2990   2.957   3.683   3.337 -0.4805 -1.0954  1.3214
  464SOL     OW 2991   0.426   6.497   1.226  0.4723  0.0543 -0.2276
  464SOL    HW1 2992   0.401   6.587   1.262 -1.8111 -0.4810 -0.3275
  464SOL    HW2 2993   0.461   6.440   1.301  1.3888  0.8108 -0.0575
  465SOL     OW 2994   2.525   3.649   0.726  0.3624 -0.5953  0.3222
  465SOL    HW1 2995   2.456   3.720   0.713  1.5823  0.6785  0.5392
  465SOL    HW2 2996   2.562   3.621   0.637  0.8057  0.0140  0.3072
  466SOL     OW 2997   1.455   6.574   6.233 -0.6219 -0.6667  0.2350
  466SOL    HW1 2998   1.539   6.610   6.192 -0.1765 -1.6205  0.3034
  466SOL    HW2 2999   1.407   6.649   6.278  0.4719 -0.2092  0.6878
  467SOL     OW 3000   5.412   5.608   4.218  0.0114 -0.1612 -0.0388
  467SOL    HW1 3001   5.390   5.705   4.227  0.6229 -0.0943  0.9040
  467SOL    HW2 3002   5.328   5.555   4.208 -0.4154  0.3527  0.7008
  468SOL     OW 3003   2.386   2.782   6.501 -0.0452  0.5943 -0.5237
  468SOL    HW1 3004   2.349   2.777   6.408  1.0529  0.3470 -0.9575
  468SOL    HW2 3005   2.413   2.690   6.530 -0.7832  0.5998  0.2219
  469SOL     OW 3006   2.863   2.750   1.400  0.4136 -0.2250  0.3864
  469SOL    HW1 3007   2.842   2.772   1.305  0.9495 -0.3845  0.2269
  469SOL    HW2 3008   2.918   2.823   1.441 -0.1323  0.0244  0.6963
  470SOL     OW 3009   6.430   3.915   4.447 -0.6571  0.7658 -0.3483
  470SOL    HW1 3010   6.510   3.949   4.496  0.3117 -2.0016  0.1605
  470SOL    HW2 3011   6.425   3.958   4.357  3.2834 -1.1255 -1.6878
  471SOL     OW 3012   0.097   1.264   0.025  0.2091 -0.9551 -0.0554
  471SOL    HW1 3013   0.172   1.324  -0.003 -0.1270 -0.9223 -0.9350
  471SOL    HW2 3014   0.054   1.300   0.108  0.6801 -0.5534  0.0151
  472SOL     OW 3015   1.563   6.288   1.719 -0.1828 -0.1331  0.0913
  472SOL    HW1 3016   1.642   6.349   1.724  0.2310 -0.3226 -2.7665
  472SOL    HW2 3017   1.529   6.284   1.626 -2.6880 -1.2335  0.9615
  473SOL     OW 3018   5.666   6.100   3.604 -0.2180 -0.2454  1.0672
  473SOL    HW1 3019   5.572   6.098   3.640  0.0417  1.2809  1.8681
  473SOL    HW2 3020   5.722   6.161   3.659  0.4045  1.5827 -1.4295
  474SOL     OW 3021   2.750   0.459   6.242  0.7573 -0.1852  0.0716
  474SOL    HW1 3022   2.726   0.555   6.257  0.6893 -0.1163 -0.4622
  474SOL    HW2 3023   2.840   0.453   6.199  0.6541 -0.3487 -0.1265
  475SOL     OW 3024   1.030   6.067   5.540 -0.1962  0.0392  0.7807
  475SOL    HW1 3025   0.958   6.101   5.601 -1.0783 -1.2965  0.5346
  475SOL    HW2 3026   0.988   6.027   5.458  0.8260 -0.7903  0.6405
  476SOL     OW 3027   1.173   4.499   3.686  0.1365  0.3651 -0.4178
  476SOL    HW1 3028   1.101   4.436   3.655 -0.1522 -0.9915  2.5782
  476SOL    HW2 3029   1.134   4.590   3.698 -0.8755 -0.1273  0.2141
  477SOL     OW 3030   5.935   0.884   0.706 -0.4921  0.0307  0.3038
  477SOL    HW1 3031   5.849   0.850   0.667  0.1916  1.1138 -2.3191
  477SOL    HW2 3032   5.979   0.810   0.757 -2.0997 -1.0590  0.2158
  478SOL     OW 3033   1.373   3.058   6.616 -0.6412  0.0626  0.1907
  478SOL    HW1 3034   1.309   3.130   6.588 -0.5497 -0.5743 -1.8320
  478SOL    HW2 3035   1.442   3.097   6.677 -1.1354  1.4816 -0.1060
  479SOL     OW 3036   1.788   0.370   4.736 -0.5082 -0.1146 -0.2021
  479SOL    HW1 3037   1.855   0.315   4.785  0.9213  1.9231  0.2838
  479SOL    HW2 3038   1.804   0.467   4.756 -2.3187  0.5555 -1.7132
  480SOL     OW 3039   2.789   1.549   0.089  0.0101  0.0659 -0.1065
  480SOL    HW1 3040   2.860   1.503   0.036 -0.8798 -0.9442 -0.4679
  480SOL    HW2 3041   2.817   1.643   0.108  0.2074  0.6054 -2.6990
  481SOL     OW 3042   1.096   3.982   6.391  0.0964  0.0834 -0.3463
  481SOL    HW1 3043   1.032   3.992   6.316  2.4503  1.9491 -2.2755
  481SOL    HW2 3044   1.138   3.891   6.387 -1.0818 -0.4911 -0.1208
  482SOL     OW 3045   2.251   1.113   6.906 -0.0491  0.6987 -0.5301
  482SOL    HW1 3046   2.322   1.178   6.933  1.2088 -0.5205 -0.8055
  482SOL    HW2 3047   2.285   1.056   6.831 -0.5886 -1.2225  0.6296
  483SOL     OW 3048   4.014   3.704   6.848 -0.3507  0.0242  0.2539
  483SOL    HW1 3049   4.092   3.681   6.789 -1.1462  0.7432 -1.1431
  483SOL    HW2 3050   3.951   3.764   6.798 -3.0225 -2.3892  0.4861
  484SOL     OW 3051   6.241   2.307   4.351  0.5016 -0.4029 -0.2236
  484SOL    HW1 3052   6.274   2.214   4.335  0.8679 -0.2247 -0.5228
  484SOL    HW2 3053   6.225   2.352   4.263 -0.2085 -0.3668 -0.0824
  485SOL     OW 3054   4.499   6.719   0.104 -0.8329 -0.3909  0.0223
  485SOL    HW1 3055   4.414   6.708   0.052 -0.8263 -2.9177  0.3886
  485SOL    HW2 3056   4.549   6.632   0.104  0.5716  0.3426  1.8583
  486SOL     OW 3057   1.969   0.980   5.539  0.1495  0.1370  0.4093
  486SOL    HW1 3058   1.909   1.060   5.546  0.8439  0.8845 -1.4951
  486SOL    HW2 3059   2.055   1.006   5.497  1.1950 -1.2658  1.5699
  487SOL     OW 3060   5.804   6.690   1.770 -0.5481  0.8145 -0.2679
  487SOL    HW1 3061   5.772   6.665   1.678  1.5837 -0.5819 -0.7150
  487SOL    HW2 3062   5.775   6.620   1.835 -0.4962  0.8349 -0.2227
  488SOL     OW 3063   2.745   3.345   3.271 -0.3859 -0.2536  0.2921
  488SOL    HW1 3064   2.738   3.280   3.347 -0.0507 -1.3485 -0.5963
  488SOL    HW2 3065   2.829   3.328   3.220 -1.1469 -0.2665 -0.9871
  489SOL     OW 3066   5.189   6.897   1.737  0.1626  0.5718  0.9058
  489SOL    HW1 3067   5.131   6.931   1.662 -0.4240  0.7280  1.4185
  489SOL    HW2 3068   5.281   6.935   1.728  0.4826 -0.4331 -0.4718
  490SOL     OW 3069   5.141   6.753   6.880 -0.3379 -0.5757 -0.1152
  490SOL    HW1 3070   5.187   6.839   6.899  1.2105 -1.4588  0.3108
  490SOL    HW2 3071   5.086   6.726   6.959  0.2817 -0.6562  0.2920
  491SOL     OW 3072   6.571   4.002   0.446  0.4798  0.2623  0.0749
  491SOL    HW1 3073   6.472   3.998   0.453  0.1363  2.4622 -2.1688
  491SOL    HW2 3074   6.603   3.938   0.377  0.9183 -1.8623  2.1318
  492SOL     OW 3075   4.737   6.352   0.300 -0.6711  0.2820 -0.5934
  492SOL    HW1 3076   4.805   6.423   0.317 -2.6994  1.5829  3.2781
  492SOL    HW2 3077   4.651   6.395   0.272 -0.9271 -1.0626 -2.0156
  493SOL     OW 3078   4.851   4.947   4.407 -0.7440  0.4253 -0.2922
  493SOL    HW1 3079   4.883   4.854   4.386  2.2319  1.0896  0.7434
  493SOL    HW2 3080   4.756   4.957   4.378 -0.9661 -2.7164 -1.0279
  494SOL     OW 3081   5.910   5.090   5.100 -0.3067  0.0605 -0.0970
  494SOL    HW1 3082   5.859   5.015   5.142 -3.8118  1.0234 -2.1789
  494SOL    HW2 3083   5.920   5.073   5.002  5.6273 -1.0856  0.3716
  495SOL     OW 3084   6.525   3.290   4.196 -0.1017  0.7926  0.4850
  495SOL    HW1 3085   6.548   3.353   4.270  0.4825 -2.7313  3.5852
  495SOL    HW2 3086   6.426   3.273   4.196 -0.1185  0.8802  0.3130
  496SOL     OW 3087   0.837   4.007   0.105  0.1684  0.2450  0.0358
  496SOL    HW1 3088   0.781   4.082   0.069 -2.3322 -1.1502  0.7807
  496SOL    HW2 3089   0.834   3.930   0.041  1.1908  0.1079  0.1402
  497SOL     OW 3090   0.426   1.731   2.522 -0.5702 -0.0653  0.7746
  497SOL    HW1 3091   0.414   1.830   2.531 -2.3746 -0.2307  0.5327
  497SOL    HW2 3092   0.519   1.707   2.549  0.0032  1.7222  0.5725
  498SOL     OW 3093   6.788   0.890   4.308 -0.9404  0.2610  0.5927
  498SOL    HW1 3094   6.825   0.818   4.249 -2.1255 -0.2388  0.4414
  498SOL    HW2 3095   6.842   0.893   4.392 -0.2448 -0.1139  0.1795
  499SOL     OW 3096   4.931   6.824   0.434  0.1243  0.0731  0.2204
  499SOL    HW1 3097   4.835   6.842   0.417  0.5248  0.6766 -1.5836
  499SOL    HW2 3098   4.955   6.854   0.526 -1.1274  1.0737  0.2347
  500SOL     OW 3099   7.017   3.583   1.710  0.4090  0.6134 -0.1047
  500SOL    HW1 3100   6.970   3.495   1.721  1.2798  0.3276  1.7310
  500SOL    HW2 3101   7.113   3.567   1.688  0.7297  1.0580  0.9073
  501SOL     OW 3102   1.544   6.901   4.930 -0.5072  0.0651 -0.1333
  501SOL    HW1 3103   1.499   6.829   4.981 -1.1601  1.4528  1.3404
  501SOL    HW2 3104   1.635   6.917   4.967 -0.2927 -0.1105 -0.5751
  502SOL     OW 3105   5.954   0.191   2.946  0.2557  0.3069 -0.0548
  502SOL    HW1 3106   5.989   0.101   2.923 -0.6571  0.2377 -1.2754
  502SOL    HW2 3107   5.944   0.199   3.046 -0.9718 -1.4680  0.0100
  503SOL     OW 3108   0.161   0.181   2.471  0.2165 -0.0767 -0.2512
  503SOL    HW1 3109   0.244   0.128   2.455  0.1525  0.2039 -1.5691
  503SOL    HW2 3110   0.090   0.153   2.406 -0.1474  0.9149 -0.2930
  504SOL     OW 3111   6.575   0.856   6.596 -0.1815 -0.1050 -0.3988
  504SOL    HW1 3112   6.622   0.867   6.508 -0.2371 -1.1242 -0.5609
  504SOL    HW2 3113   6.638   0.815   6.663 -0.3803 -0.0653 -0.1851
  505SOL     OW 3114   3.166   6.862   0.795 -0.1937  0.2966 -0.1702
  505SOL    HW1 3115   3.114   6.933   0.844 -1.5454 -0.2910 -0.6909
  505SOL    HW2 3116   3.105   6.815   0.731  1.0732 -0.2611 -1.0007
  506SOL     OW 3117   6.702   4.588   4.400  0.1334 -0.8235 -0.0717
  506SOL    HW1 3118   6.647   4.504   4.397 -1.4160  0.1444  0.4838
  506SOL    HW2 3119   6.655   4.660   4.350  0.5315  0.2477  1.0549
  507SOL     OW 3120   1.995   0.752   0.447 -0.0742  0.3044 -0.2721
  507SOL    HW1 3121   1.951   0.697   0.377  0.7125  0.5231 -0.9539
  507SOL    HW2 3122   1.951   0.841   0.452 -0.5114  0.0820 -0.0675
  508SOL     OW 3123   5.232   1.404   0.008  0.5169 -0.2114 -0.0388
  508SOL    HW1 3124   5.158   1.360   0.058 -1.1534  0.4107 -1.8066
  508SOL    HW2 3125   5.248   1.496   0.045  1.3474 -0.8228  1.1787
  509SOL     OW 3126   4.318   4.929   5.558  0.1517 -0.0672  0.2294
  509SOL    HW1 3127   4.374   4.999   5.514  1.1823 -0.1032  1.4313
  509SOL    HW2 3128   4.282   4.965   5.645  1.0763 -1.1663  1.0842
  510SOL     OW 3129   4.053   4.194   0.542  0.2415 -0.4559  0.5468
  510SOL    HW1 3130   4.092   4.239   0.462 -1.3338  0.3779  0.2168
  510SOL    HW2 3131   4.123   4.138   0.585  1.2740 -0.5125 -1.1018
  511SOL     OW 3132   2.786   2.007   5.422 -0.3816 -0.2756 -0.0808
  511SOL    HW1 3133   2.801   2.106   5.429 -0.5852 -0.2540  0.0700
  511SOL    HW2 3134   2.756   1.972   5.510  2.3535 -0.9578  0.6591
  512SOL     OW 3135   2.393   1.435   2.575  0.6537  0.4414  0.3039
  512SOL    HW1 3136   2.493   1.437   2.583  0.7266 -0.6229 -0.2449
  512SOL    HW2 3137   2.367   1.434   2.479  0.1070  0.5764  0.4440
  513SOL     OW 3138   3.740   3.004   7.008 -0.3253  0.1520  0.6495
  513SOL    HW1 3139   3.750   2.914   7.050  0.1662  0.4635  1.2114
  513SOL    HW2 3140   3.760   2.997   6.910  0.7114 -0.1572  0.8742
  514SOL     OW 3141   0.984   1.237   1.357  0.0173 -0.5265  0.6135
  514SOL    HW1 3142   0.944   1.267   1.444  0.9393  1.9783  0.2531
  514SOL    HW2 3143   1.073   1.194   1.374  2.2196  3.6240  0.8354
  515SOL     OW 3144   5.049   0.685   6.125 -0.0422 -0.1252 -0.2554
  515SOL    HW1 3145   5.056   0.775   6.082 -0.5197 -0.1404 -0.3639
  515SOL    HW2 3146   5.061   0.614   6.056 -0.7136 -0.1488 -0.3545
  516SOL     OW 3147   6.300   5.569   1.172 -0.2457 -0.4356 -0.0328
  516SOL    HW1 3148   6.343   5.483   1.145  0.6440  0.0753 -0.2942
  516SOL    HW2 3149   6.366   5.625   1.222 -1.0400 -0.2119  0.7938
  517SOL     OW 3150   6.906   4.651   6.000  0.3412 -0.2235  0.4701
  517SOL    HW1 3151   6.973   4.723   6.020  0.0642 -0.7308  3.7170
  517SOL    HW2 3152   6.894   4.594   6.080  0.2572 -3.7508 -1.8488
  518SOL     OW 3153   1.365   4.653   0.423 -0.1680  0.2457 -0.6103
  518SOL    HW1 3154   1.362   4.578   0.489  1.6594  2.0548  1.7395
  518SOL    HW2 3155   1.282   4.653   0.368 -1.1856 -2.1855  0.7883
  519SOL     OW 3156   1.847   6.754   5.474  0.1358 -0.0569 -0.9923
  519SOL    HW1 3157   1.891   6.787   5.558 -1.4701  1.9474 -0.8563
  519SOL    HW2 3158   1.813   6.661   5.488 -0.4878  0.3995  0.7671
  520SOL     OW 3159   2.138   2.792   1.065 -0.0353 -0.2149 -0.7723
  520SOL    HW1 3160   2.190   2.715   1.101  1.9556  1.7009  0.7192
  520SOL    HW2 3161   2.069   2.820   1.132 -1.4733 -1.2792 -1.7519
  521SOL     OW 3162   2.208   0.234   2.354 -0.3365  0.6827 -0.4680
  521SOL    HW1 3163   2.253   0.210   2.268 -0.9256  1.3766 -0.9826
  521SOL    HW2 3164   2.197   0.152   2.410 -2.8699 -0.4612 -2.4129
  522SOL     OW 3165   5.306   0.320   0.351 -0.1639 -0.2869 -0.2790
  522SOL    HW1 3166   5.218   0.366   0.338 -0.5072 -0.6716  0.6367
  522SOL    HW2 3167   5.325   0.263   0.271  0.0065  0.9743 -1.1833
  523SOL     OW 3168   6.119   3.492   1.160  0.0876 -0.3402 -0.0064
  523SOL    HW1 3169   6.023   3.508   1.184 -0.4171 -2.1494 -0.6110
  523SOL    HW2 3170   6.170   3.469   1.243 -0.0305  0.4543  0.2959
  524SOL     OW 3171   4.067   0.379   4.568  0.2220 -0.4987 -0.9677
  524SOL    HW1 3172   4.024   0.464   4.537  1.5746  0.3514 -0.6269
  524SOL    HW2 3173   4.153   0.401   4.616 -0.4577 -1.9147  1.0426
  525SOL     OW 3174   5.845   3.168   6.689 -0.2457 -0.3531  0.6833
  525SOL    HW1 3175   5.918   3.106   6.662  0.1531  0.7033 -0.8220
  525SOL    HW2 3176   5.879   3.263   6.685 -2.0585  0.2936 -1.5981
  526SOL     OW 3177   5.917   3.777   4.701 -0.0978 -0.2255  0.4613
  526SOL    HW1 3178   5.993   3.713   4.711  0.9284  0.8393 -0.3302
  526SOL    HW2 3179   5.874   3.764   4.612  0.1299  0.1921  0.2877
  527SOL     OW 3180   0.976   6.735   5.506 -0.0761 -0.1597  0.2517
  527SOL    HW1 3181   1.044   6.804   5.483  1.2420 -1.1724  0.9635
  527SOL    HW2 3182   0.901   6.778   5.557  1.2764  0.5942  1.7065
  528SOL     OW 3183   3.833   4.530   2.482 -0.0874 -0.6797 -0.7381
  528SOL    HW1 3184   3.815   4.459   2.551 -1.0055 -0.0084 -0.2620
  528SOL    HW2 3185   3.924   4.568   2.497 -0.2107 -0.6587  0.0024
  529SOL     OW 3186   4.825   3.824   1.831  0.1801  0.4939 -0.8770
  529SOL    HW1 3187   4.914   3.857   1.800  1.5058  0.9749  2.8581
  529SOL    HW2 3188   4.785   3.889   1.896 -1.5204 -1.0551 -0.2606
  530SOL     OW 3189   4.996   1.909   0.594  0.0006 -0.6940 -0.6494
  530SOL    HW1 3190   5.023   1.985   0.534 -2.6158  1.4875  0.7054
  530SOL    HW2 3191   4.978   1.828   0.538 -1.7147  1.0548 -2.8332
  531SOL     OW 3192   6.483   2.506   0.918  0.3780 -0.3852 -0.2044
  531SOL    HW1 3193   6.549   2.581   0.910  1.1366 -0.8918  1.0546
  531SOL    HW2 3194   6.429   2.518   1.001 -0.2955 -0.6264 -0.6034
  532SOL     OW 3195   4.728   3.948   5.994 -0.1177 -0.0408  0.0110
  532SOL    HW1 3196   4.650   3.935   6.055 -0.3295  2.0741  0.2708
  532SOL    HW2 3197   4.773   3.860   5.978 -3.3013 -1.6136 -1.2119
  533SOL     OW 3198   1.369   1.955   0.467 -0.0835  0.8110 -0.2477
  533SOL    HW1 3199   1.339   1.860   0.466  1.1759  0.4104 -0.8590
  533SOL    HW2 3200   1.436   1.969   0.540 -0.5218  1.3261  0.0693
  534SOL     OW 3201   1.345   5.015   1.377 -0.0484 -0.0762  0.4730
  534SOL    HW1 3202   1.425   5.036   1.433  0.4585  0.8555 -0.5520
  534SOL    HW2 3203   1.364   4.937   1.318  0.3495  0.5035 -0.1920
  535SOL     OW 3204   3.837   1.862   0.557 -0.6165  0.7292 -0.1607
  535SOL    HW1 3205   3.747   1.904   0.566 -1.0221 -0.2577  0.6630
  535SOL    HW2 3206   3.842   1.810   0.472 -0.8980  0.6550 -0.1322
  536SOL     OW 3207   2.277   1.464   1.389  0.4772 -0.2376 -0.0982
  536SOL    HW1 3208   2.190   1.511   1.402  0.1290 -1.0803  0.7250
  536SOL    HW2 3209   2.346   1.530   1.360 -0.1881  0.6318  0.2413
  537SOL     OW 3210   4.211   4.924   4.536 -0.1223  0.7786  0.7352
  537SOL    HW1 3211   4.282   4.980   4.494  0.0074 -1.2592 -2.0503
  537SOL    HW2 3212   4.121   4.957   4.507 -0.1453  0.9280  0.9748
  538SOL     OW 3213   5.135   3.956   6.894  0.7727 -0.5164  0.2659
  538SOL    HW1 3214   5.189   3.872   6.898  1.0868 -0.2925  0.9235
  538SOL    HW2 3215   5.122   3.991   6.987 -0.6394 -0.6458  0.1294
  539SOL     OW 3216   4.694   0.794   1.820  0.6392 -0.2130 -0.9065
  539SOL    HW1 3217   4.662   0.717   1.876  0.3939  1.1804  0.9696
  539SOL    HW2 3218   4.785   0.773   1.784 -0.4446 -2.4096 -2.6490
  540SOL     OW 3219   2.287   3.590   0.416 -0.2879 -0.1361  0.2725
  540SOL    HW1 3220   2.339   3.526   0.473  0.1856 -0.2514 -0.2846
  540SOL    HW2 3221   2.314   3.579   0.321 -0.1533  0.9486  0.1775
  541SOL     OW 3222   2.730   1.551   6.548  0.4303 -0.2119 -0.2135
  541SOL    HW1 3223   2.725   1.485   6.474 -1.3450  2.2168 -2.4155
  541SOL    HW2 3224   2.675   1.518   6.625  1.7941 -2.4675 -0.0821
  542SOL     OW 3225   0.792   3.029   5.132 -0.2085 -0.6471 -0.3206
  542SOL    HW1 3226   0.752   2.941   5.107  1.3438 -0.8097 -2.5651
  542SOL    HW2 3227   0.891   3.018   5.145 -0.0185  0.7118 -0.4314
  543SOL     OW 3228   6.772   0.180   4.669  0.7122 -0.2669  0.2736
  543SOL    HW1 3229   6.691   0.185   4.727  0.9230 -0.3387  0.5758
  543SOL    HW2 3230   6.820   0.094   4.685  0.4062 -0.5944 -0.5014
  544SOL     OW 3231   0.319   6.435   5.156 -0.4943 -0.1097 -0.0987
  544SOL    HW1 3232   0.251   6.503   5.129 -0.5218  0.0959  0.4930
  544SOL    HW2 3233   0.403   6.449   5.104 -0.2420  0.8453  0.5505
  545SOL     OW 3234   0.072   0.949   3.162 -0.1424 -0.0386 -0.1861
  545SOL    HW1 3235  -0.009   1.007   3.172  0.8092  1.0333  1.9914
  545SOL    HW2 3236   0.084   0.896   3.246  3.0603  2.1064  0.8734
  546SOL     OW 3237   2.730   3.131   0.592  0.3333  0.0437 -0.3344
  546SOL    HW1 3238   2.776   3.106   0.507  1.7401 -0.9797  0.6789
  546SOL    HW2 3239   2.644   3.082   0.600  1.1167 -1.3693 -0.2927
  547SOL     OW 3240   6.116   2.559   1.998  0.1959 -0.0712  0.1776
  547SOL    HW1 3241   6.079   2.478   1.952 -0.4493 -0.5699  1.5294
  547SOL    HW2 3242   6.099   2.552   2.096 -0.3769  1.9917  0.2564
  548SOL     OW 3243   2.200   6.777   6.871 -0.3080  1.1755  0.4302
  548SOL    HW1 3244   2.165   6.763   6.779 -1.6095  0.5359  0.9948
  548SOL    HW2 3245   2.168   6.704   6.931 -0.3879  2.1520  1.6341
  549SOL     OW 3246   2.868   3.176   0.883  0.2295 -0.0075  0.4921
  549SOL    HW1 3247   2.849   3.185   0.785  1.8815 -1.4646  0.0009
  549SOL    HW2 3248   2.936   3.244   0.910 -1.6403  1.7253  1.1255
  550SOL     OW 3249   4.325   6.787   2.212 -0.4527  0.1317 -0.4746
  550SOL    HW1 3250   4.393   6.715   2.203  1.1473  1.4510  0.4907
  550SOL    HW2 3251   4.340   6.857   2.143 -1.1951  0.1804 -0.6019
  551SOL     OW 3252   2.958   0.702   5.369 -0.0019 -0.2010  0.1158
  551SOL    HW1 3253   2.890   0.773   5.349  0.1965  0.0948  0.4718
  551SOL    HW2 3254   2.948   0.671   5.463  0.6374  0.1641  0.3143
  552SOL     OW 3255   5.875   4.279   5.728  0.8328  0.3513 -1.0953
  552SOL    HW1 3256   5.926   4.310   5.648  1.6093  0.0183 -0.7325
  552SOL    HW2 3257   5.933   4.221   5.785  0.7283  1.6436  0.4054
  553SOL     OW 3258   0.612   4.075   5.381  0.2717 -0.4997  0.4424
  553SOL    HW1 3259   0.553   4.085   5.461  0.4878 -1.5160  0.7471
  553SOL    HW2 3260   0.603   3.983   5.344  0.8525 -0.3250 -0.1650
  554SOL     OW 3261   3.836   1.054   3.392  0.4323 -0.2136  0.2249
  554SOL    HW1 3262   3.814   1.075   3.297  2.0414  0.6575  0.0264
  554SOL    HW2 3263   3.850   1.139   3.442  0.6437 -0.6946  0.9936
  555SOL     OW 3264   4.545   1.119   6.632 -0.4562 -0.2245 -0.0369
  555SOL    HW1 3265   4.617   1.169   6.679 -0.6675  1.1699 -1.1053
  555SOL    HW2 3266   4.563   1.119   6.533 -1.7805 -0.0365 -0.3042
  556SOL     OW 3267   1.045   2.074   2.994  0.0772 -0.2254  0.3731
  556SOL    HW1 3268   1.028   2.123   2.908  0.7685  1.1099  0.9672
  556SOL    HW2 3269   1.086   1.985   2.974  2.3955  0.9866 -0.6356
  557SOL     OW 3270   6.438   4.891   5.374  0.5595  0.2334  0.3794
  557SOL    HW1 3271   6.477   4.891   5.466  0.1141  0.3840  0.5696
  557SOL    HW2 3272   6.338   4.894   5.379  0.5257  0.0964 -0.1072
  558SOL     OW 3273   5.365   3.784   6.945 -0.1309 -0.3313  0.9230
  558SOL    HW1 3274   5.373   3.801   7.044 -0.1911  0.2596  0.8311
  558SOL    HW2 3275   5.450   3.813   6.900 -0.0160 -0.8103  0.8261
  559SOL     OW 3276   6.113   3.440   1.656 -0.5089  0.1117  0.0300
  559SOL    HW1 3277   6.154   3.514   1.709 -1.1617 -0.2031  1.0147
  559SOL    HW2 3278   6.051   3.388   1.715 -0.6716 -0.7251 -0.8586
  560SOL     OW 3279   0.819   0.687   1.763  0.2013  0.1383  0.0398
  560SOL    HW1 3280   0.732   0.648   1.736 -0.0581  0.3258  0.5894
  560SOL    HW2 3281   0.874   0.706   1.682  0.0417 -0.6883 -0.2669
  561SOL     OW 3282   5.546   0.223   6.223  0.2892 -0.3356  0.6024
  561SOL    HW1 3283   5.594   0.146   6.180 -2.5295 -1.6958 -0.3735
  561SOL    HW2 3284   5.467   0.188   6.272  0.2358  1.7963  2.1314
  562SOL     OW 3285   6.082   6.721   6.573 -0.1697  0.8072  0.2200
  562SOL    HW1 3286   6.160   6.660   6.556 -1.8934 -0.9289 -2.2368
  562SOL    HW2 3287   6.065   6.776   6.491 -1.2901  1.4197  0.8401
  563SOL     OW 3288   1.999   0.292   6.064  0.1373 -0.6012 -0.3138
  563SOL    HW1 3289   1.910   0.275   6.023  0.7598 -0.3264 -1.8756
  563SOL    HW2 3290   2.023   0.217   6.126 -0.8818 -1.0131 -0.4053
  564SOL     OW 3291   2.648   0.992   0.894  0.5349  0.8841 -0.3010
  564SOL    HW1 3292   2.587   1.040   0.831  2.1639  1.8559 -1.2096
  564SOL    HW2 3293   2.595   0.929   0.950 -1.4327  2.4167 -0.3363
  565SOL     OW 3294   6.148   2.910   5.489  0.2461  0.4816  0.0511
  565SOL    HW1 3295   6.158   2.825   5.438 -1.1941  0.8660 -0.9093
  565SOL    HW2 3296   6.065   2.906   5.545 -0.0372  1.3934 -0.2873
  566SOL     OW 3297   1.748   4.019   0.261  0.1971  0.4835  0.2508
  566SOL    HW1 3298   1.763   4.000   0.164  0.0687 -0.4897  0.4049
  566SOL    HW2 3299   1.650   4.021   0.280  0.2144 -1.1512  0.6679
  567SOL     OW 3300   5.336   5.010   5.235 -0.1402  0.1409 -0.2448
  567SOL    HW1 3301   5.360   5.068   5.157 -0.6219  0.1618 -0.3835
  567SOL    HW2 3302   5.292   5.066   5.306  0.9005  0.2495  0.3379
  568SOL     OW 3303   3.020   2.527   5.854  0.0134  0.5958 -0.5354
  568SOL    HW1 3304   3.002   2.444   5.907 -0.1293  1.7501  1.3247
  568SOL    HW2 3305   3.118   2.534   5.834  0.2584  0.7369  0.6662
  569SOL     OW 3306   5.467   5.992   6.619 -0.1076  0.3220 -0.6845
  569SOL    HW1 3307   5.483   5.904   6.665 -2.7426 -1.2603 -2.5128
  569SOL    HW2 3308   5.554   6.040   6.608  1.2754 -1.4638  1.4295
  570SOL     OW 3309   0.784   4.415   6.778  0.3008 -0.0749  0.3964
  570SOL    HW1 3310   0.839   4.484   6.732 -2.1581  1.7738  0.0533
  570SOL    HW2 3311   0.778   4.437   6.875  0.4492 -0.5040  0.5077
  571SOL     OW 3312   5.751   3.113   4.529  0.1145 -0.8743 -0.5202
  571SOL    HW1 3313   5.692   3.178   4.481 -1.8050 -1.6850  0.6319
  571SOL    HW2 3314   5.802   3.161   4.600  0.9893 -0.1328 -1.6267
  572SOL     OW 3315   1.655   2.972   3.437  0.5114 -0.1435  0.0329
  572SOL    HW1 3316   1.667   2.891   3.380 -2.3306 -0.3048 -0.4909
  572SOL    HW2 3317   1.689   2.953   3.529 -0.3017 -2.0602 -0.0089
  573SOL     OW 3318   2.312   0.149   6.853 -0.0793 -0.3192 -0.1378
  573SOL    HW1 3319   2.299   0.183   6.946 -0.1604 -2.2896  0.6250
  573SOL    HW2 3320   2.344   0.054   6.857  2.9339  0.4736 -2.1050
  574SOL     OW 3321   5.351   2.823   1.735  0.2842 -0.1032 -0.3041
  574SOL    HW1 3322   5.325   2.822   1.832  0.1846 -0.0828 -0.3304
  574SOL    HW2 3323   5.426   2.887   1.721  1.1569 -1.0365 -0.0199
  575SOL     OW 3324   1.617   5.656   4.650  0.0187 -0.3947 -0.1289
  575SOL    HW1 3325   1.697   5.618   4.695  0.0066 -0.6099 -0.2873
  575SOL    HW2 3326   1.547   5.678   4.718  0.8861  1.4849  0.2298
  576SOL     OW 3327   5.178   2.867   3.148  0.4431  0.1284  0.0485
  576SOL    HW1 3328   5.184   2.772   3.115 -2.5646 -0.3625  0.6478
  576SOL    HW2 3329   5.208   2.871   3.243 -0.8420 -0.5563  0.4997
  577SOL     OW 3330   4.436   4.871   6.598  0.9809 -0.3078 -0.5815
  577SOL    HW1 3331   4.528   4.908   6.585  1.2049  0.5228  2.6052
  577SOL    HW2 3332   4.442   4.775   6.627  0.8543 -0.1898 -0.1618
  578SOL     OW 3333   3.366   4.958   6.503  0.3721 -1.1443  0.4658
  578SOL    HW1 3334   3.421   4.981   6.422 -0.8390  0.2059 -0.0209
  578SOL    HW2 3335   3.324   4.868   6.490 -0.3413 -0.6599 -0.7182
  579SOL     OW 3336   3.686   0.354   0.026 -0.2717  0.2893 -0.1499
  579SOL    HW1 3337   3.655   0.355  -0.069  2.1988 -0.3141 -1.0473
  579SOL    HW2 3338   3.656   0.269   0.070  1.0528 -0.8799 -1.3790
  580SOL     OW 3339   0.671   2.048   2.318  0.1938 -0.2879  0.1188
  580SOL    HW1 3340   0.611   2.079   2.244 -0.6495 -0.5167  0.6821
  580SOL    HW2 3341   0.723   2.126   2.354  0.1754 -0.0662 -0.3357
  581SOL     OW 3342   3.787   1.065   6.494  0.0636  0.0838  0.0080
  581SOL    HW1 3343   3.727   1.059   6.574  0.6670 -0.6692  0.4194
  581SOL    HW2 3344   3.876   1.025   6.516 -0.2728 -1.6301 -1.5487
  582SOL     OW 3345   6.658   2.778   3.985  0.1676 -0.0476  0.1238
  582SOL    HW1 3346   6.645   2.793   4.082  1.0189  1.7806 -0.0031
  582SOL    HW2 3347   6.594   2.835   3.933  0.3428 -0.3094 -0.3897
  583SOL     OW 3348   3.276   5.824   1.051  0.1779 -0.0215 -0.2346
  583SOL    HW1 3349   3.337   5.790   0.979  1.6515 -0.5903  1.2197
  583SOL    HW2 3350   3.243   5.748   1.106  0.2889  0.5286  0.6100
  584SOL     OW 3351   6.973   3.894   2.862  0.1235 -0.2020  0.2380
  584SOL    HW1 3352   6.959   3.830   2.787  2.8841 -0.8758  0.1955
  584SOL    HW2 3353   6.965   3.988   2.828  1.5641 -0.4922 -1.0135
  585SOL     OW 3354   2.031   2.713   6.392 -0.5454  0.4736  0.0638
  585SOL    HW1 3355   2.052   2.739   6.487  0.4923  0.7871 -0.2383
  585SOL    HW2 3356   1.940   2.748   6.367 -1.9844 -1.7754  1.7441
  586SOL     OW 3357   3.318   2.714   1.484 -0.9449 -0.0276  0.4170
  586SOL    HW1 3358   3.300   2.737   1.388  0.3599 -0.8822 -0.0662
  586SOL    HW2 3359   3.242   2.661   1.521 -2.0478  1.3920  0.2703
  587SOL     OW 3360   0.084   3.538   6.949  0.4152 -0.1357  0.1327
  587SOL    HW1 3361   0.048   3.491   6.869  0.1530  1.0406 -0.4598
  587SOL    HW2 3362   0.136   3.619   6.920  0.5202  0.1724  1.1290
  588SOL     OW 3363   1.528   5.745   1.995  0.6715 -0.4087 -0.0769
  588SOL    HW1 3364   1.617   5.750   1.949  0.7445  0.3599  0.1394
  588SOL    HW2 3365   1.542   5.754   2.094  0.4363 -1.2437  0.0415
  589SOL     OW 3366   4.369   1.283   4.846 -0.5141 -0.0479 -0.4964
  589SOL    HW1 3367   4.303   1.215   4.814 -0.8451 -0.6574  1.3864
  589SOL    HW2 3368   4.320   1.358   4.890  0.0183 -0.2353  0.4282
  590SOL     OW 3369   2.702   0.679   5.970  0.2301  0.2361 -0.6980
  590SOL    HW1 3370   2.796   0.670   5.937  0.4224  1.0257 -0.3986
  590SOL    HW2 3371   2.670   0.772   5.955  0.4282  0.7328  1.5594
  591SOL     OW 3372   0.509   2.449   1.282 -0.4105 -0.4539  0.6935
  591SOL    HW1 3373   0.603   2.483   1.282 -0.1151 -1.0757 -1.6567
  591SOL    HW2 3374   0.510   2.349   1.276 -1.2219 -0.4646  0.6554
  592SOL     OW 3375   0.728   3.247   4.985  0.8348  0.0641 -0.1058
  592SOL    HW1 3376   0.646   3.283   5.027  0.4052 -0.7963 -0.1827
  592SOL    HW2 3377   0.765   3.172   5.041  0.9159 -0.3110 -0.6500
  593SOL     OW 3378   5.602   2.048   5.141  0.3967 -0.2609 -0.4236
  593SOL    HW1 3379   5.600   2.003   5.052 -0.8266 -0.3069 -0.3909
  593SOL    HW2 3380   5.564   2.140   5.134  0.6364 -0.1243 -0.0159
  594SOL     OW 3381   0.644   5.503   3.313  0.3597  0.1291 -0.4588
  594SOL    HW1 3382   0.592   5.464   3.238 -2.9306  2.4535  0.4139
  594SOL    HW2 3383   0.595   5.582   3.351  1.3409 -1.3718  4.7221
  595SOL     OW 3384   0.177   0.657   0.208 -0.7146 -0.2048  0.5252
  595SOL    HW1 3385   0.272   0.658   0.237 -0.3010 -0.0732 -0.7600
  595SOL    HW2 3386   0.131   0.577   0.246  0.3504 -1.1715 -0.1396
  596SOL     OW 3387   4.457   5.953   5.043  0.2148  0.1749  0.2950
  596SOL    HW1 3388   4.423   5.870   4.998 -0.0705 -0.1766  1.1345
  596SOL    HW2 3389   4.557   5.950   5.046  0.2464  0.2733 -0.4306
  597SOL     OW 3390   3.402   4.478   1.564  0.5121  0.1719  0.2454
  597SOL    HW1 3391   3.491   4.459   1.523  1.5889  2.1818  1.5130
  597SOL    HW2 3392   3.414   4.516   1.655 -1.5365  2.2391 -0.2369
  598SOL     OW 3393   1.880   1.482   4.671  0.1360 -0.3557 -0.2645
  598SOL    HW1 3394   1.844   1.516   4.584 -0.1441  0.0540  0.0063
  598SOL    HW2 3395   1.949   1.412   4.654 -1.1623 -1.5426 -0.7916
  599SOL     OW 3396   1.875   5.510   3.545 -0.1095 -0.2855 -0.3943
  599SOL    HW1 3397   1.912   5.572   3.475 -1.8372  0.8332 -0.3826
  599SOL    HW2 3398   1.782   5.484   3.521 -0.3908 -0.6721  1.0055
  600SOL     OW 3399   2.785   3.841   6.462  0.4568 -0.3357  0.4401
  600SOL    HW1 3400   2.828   3.912   6.518  0.8793  0.2120 -0.5505
  600SOL    HW2 3401   2.753   3.767   6.521  1.3292 -0.0100  1.3556
  601SOL     OW 3402   3.435   0.667   0.542 -0.4696  0.1433  0.2746
  601SOL    HW1 3403   3.411   0.750   0.490 -0.0283  0.2958  0.3031
  601SOL    HW2 3404   3.487   0.605   0.482 -0.9656 -0.1983  0.1980
  602SOL     OW 3405   2.859   0.859   2.218  0.1509  0.7960  0.5908
  602SOL    HW1 3406   2.918   0.929   2.259  1.6969 -0.0711 -0.0283
  602SOL    HW2 3407   2.913   0.804   2.154 -1.9270  1.4679 -1.8970
  603SOL     OW 3408   4.867   3.243   4.167  0.2450  0.1156 -0.3180
  603SOL    HW1 3409   4.771   3.232   4.190  0.1155 -0.6286 -1.1559
  603SOL    HW2 3410   4.875   3.290   4.079  0.6399 -0.2370 -0.4734
  604SOL     OW 3411   4.984   6.498   5.982  0.4395 -0.0219  0.1585
  604SOL    HW1 3412   5.033   6.576   5.943  1.9446 -1.3752 -0.7200
  604SOL    HW2 3413   4.976   6.426   5.914 -0.4069 -0.8960  1.1553
  605SOL     OW 3414   1.131   2.809   1.227  0.1246 -0.3464  0.5071
  605SOL    HW1 3415   1.130   2.716   1.190 -1.1143  0.0287 -0.4619
  605SOL    HW2 3416   1.048   2.824   1.281 -0.3876  0.6317 -0.5152
  606SOL     OW 3417   6.135   2.989   3.072  0.3436 -0.5438  0.5982
  606SOL    HW1 3418   6.158   2.912   3.132 -0.8160 -0.9100  0.5946
  606SOL    HW2 3419   6.207   3.000   3.003  0.6311 -1.4978  0.7310
  607SOL     OW 3420   3.841   3.854   0.813 -0.4327  0.0321 -0.1078
  607SOL    HW1 3421   3.898   3.792   0.867 -1.5047 -2.0547 -1.2570
  607SOL    HW2 3422   3.798   3.921   0.873  0.1323 -0.8328  1.3060
  608SOL     OW 3423   0.809   0.319   4.328 -0.1066  0.3302 -0.3146
  608SOL    HW1 3424   0.795   0.363   4.240 -0.9480  1.3341  0.3012
  608SOL    HW2 3425   0.895   0.268   4.327 -0.9362 -1.1658 -2.2919
  609SOL     OW 3426   0.191   1.531   0.008  0.6919 -0.7974 -0.6956
  609SOL    HW1 3427   0.161   1.620  -0.027  0.2158 -0.7972 -0.2946
  609SOL    HW2 3428   0.291   1.524  -0.001  1.2024  1.0933  2.2199
  610SOL     OW 3429   2.170   1.446   4.908  0.2732  0.4269  0.2287
  610SOL    HW1 3430   2.168   1.541   4.878 -0.5689  0.0779 -0.8788
  610SOL    HW2 3431   2.263   1.410   4.900  0.0910  0.3017 -2.2551
  611SOL     OW 3432   1.079   5.202   4.819 -0.6492 -1.1294  0.1312
  611SOL    HW1 3433   1.068   5.233   4.914  1.2151 -0.5028  0.1966
  611SOL    HW2 3434   1.142   5.124   4.816 -2.1349 -2.3464 -0.4445
  612SOL     OW 3435   5.279   6.266   4.525  0.4014  0.2721 -0.4241
  612SOL    HW1 3436   5.376   6.261   4.551  0.7363 -0.1820 -1.6551
  612SOL    HW2 3437   5.251   6.179   4.485 -0.2271  0.7416 -1.0250
  613SOL     OW 3438   6.664   4.920   0.740  0.1332  0.3977  0.4396
  613SOL    HW1 3439   6.701   4.966   0.821  1.3348  0.6301 -0.2168
  613SOL    HW2 3440   6.575   4.958   0.717 -0.8343 -0.5432  2.3930
  614SOL     OW 3441   5.819   1.971   6.532  0.2066 -0.4931  0.2461
  614SOL    HW1 3442   5.795   2.012   6.620 -0.6317 -0.5372  0.0499
  614SOL    HW2 3443   5.879   2.033   6.482  1.2724 -0.7820  1.1379
  615SOL     OW 3444   1.329   3.070   1.080  0.0975  0.1489 -0.2388
  615SOL    HW1 3445   1.335   3.015   1.163  1.3579  1.4318  0.5784
  615SOL    HW2 3446   1.256   3.137   1.089  0.3638  0.4215 -0.0522
  616SOL     OW 3447   3.089   6.135   6.397  0.0081 -0.1085 -0.3750
  616SOL    HW1 3448   3.085   6.225   6.439  1.1079  0.5958 -1.6808
  616SOL    HW2 3449   3.170   6.087   6.430  0.0591 -0.1474 -0.5557
  617SOL     OW 3450   6.477   0.602   2.251 -0.1998  0.0074 -0.1125
  617SOL    HW1 3451   6.516   0.660   2.323 -1.7277  1.4491 -0.3946
  617SOL    HW2 3452   6.414   0.536   2.292  1.9500 -1.9529  0.2765
  618SOL     OW 3453   2.059   1.662   4.764 -0.5207  0.0020  0.2759
  618SOL    HW1 3454   2.006   1.581   4.741 -1.7501  0.8218  0.1120
  618SOL    HW2 3455   2.013   1.712   4.837 -0.2077  0.9601 -0.1629
  619SOL     OW 3456   0.150   1.213   0.825  0.4848 -0.1347  0.4181
  619SOL    HW1 3457   0.165   1.216   0.923  0.7182 -0.9726  0.4117
  619SOL    HW2 3458   0.235   1.188   0.779  0.9421  2.2035 -0.1614
  620SOL     OW 3459   0.956   5.592   2.708 -0.3652 -0.3550  0.2220
  620SOL    HW1 3460   0.915   5.650   2.779 -0.0178 -0.6447  0.6629
  620SOL    HW2 3461   0.886   5.568   2.641 -0.6003  0.2641  0.2380
  621SOL     OW 3462   6.885   0.379   5.243 -0.2931  0.1482  0.0640
  621SOL    HW1 3463   6.933   0.314   5.302  1.1631  0.7797 -0.3957
  621SOL    HW2 3464   6.903   0.357   5.147  0.4483  1.3607 -0.1005
  622SOL     OW 3465   4.114   0.228   4.266  0.1679 -0.2371 -0.3285
  622SOL    HW1 3466   4.182   0.221   4.339  0.9530 -1.0945 -1.1148
  622SOL    HW2 3467   4.022   0.216   4.304  0.5442 -0.3685  0.5531
  623SOL     OW 3468   0.597   2.437   0.396  0.1400 -0.2211 -0.5028
  623SOL    HW1 3469   0.636   2.457   0.486  0.4433 -2.5691 -0.0479
  623SOL    HW2 3470   0.663   2.463   0.325 -0.8805  3.5613 -0.3001
  624SOL     OW 3471   1.182   5.613   0.735 -0.8487 -0.1398  0.3348
  624SOL    HW1 3472   1.177   5.687   0.802  3.8324 -0.4651  1.3999
  624SOL    HW2 3473   1.235   5.644   0.656 -1.0825 -1.6170 -0.4265
  625SOL     OW 3474   2.779   0.820   3.995  0.4486 -0.2009 -0.0409
  625SOL    HW1 3475   2.742   0.799   4.086  1.7928 -1.3407  0.2770
  625SOL    HW2 3476   2.756   0.914   3.971 -0.1873  0.0292  1.3535
  626SOL     OW 3477   1.945   3.887   5.738 -0.3195 -0.1419 -0.2243
  626SOL    HW1 3478   1.990   3.818   5.794 -0.3324  0.1257  0.1189
  626SOL    HW2 3479   1.992   3.896   5.650  0.5485  0.4293  0.2888
  627SOL     OW 3480   0.621   3.506   1.141  0.2570  0.7282 -0.1255
  627SOL    HW1 3481   0.693   3.466   1.197 -0.8129  0.6455  1.2460
  627SOL    HW2 3482   0.635   3.605   1.134  2.8775  0.3111 -3.4779
  628SOL     OW 3483   0.562   4.510   4.679  0.2602 -0.0702  0.6017
  628SOL    HW1 3484   0.466   4.493   4.657  1.0265  0.8640 -5.1694
  628SOL    HW2 3485   0.617   4.431   4.652  1.4204  1.2035 -1.0279
  629SOL     OW 3486   2.420   6.938   1.327  0.0470 -0.3546 -0.3143
  629SOL    HW1 3487   2.382   7.022   1.364 -1.1387 -1.5614  1.3696
  629SOL    HW2 3488   2.357   6.899   1.261  1.0824  0.5798 -1.9060
  630SOL     OW 3489   3.078   0.287   4.854  0.0508 -0.3656 -0.3094
  630SOL    HW1 3490   3.027   0.268   4.770 -0.0271 -1.2628 -0.0712
  630SOL    HW2 3491   3.080   0.205   4.911  1.3097 -0.1872 -0.0684
  631SOL     OW 3492   3.329   4.760   0.758 -0.1494  0.2612 -0.0600
  631SOL    HW1 3493   3.282   4.825   0.698  0.1858  1.2415  0.7241
  631SOL    HW2 3494   3.311   4.783   0.853  1.1807  0.1124  0.2444
  632SOL     OW 3495   1.822   2.639   1.106  0.2167 -0.3042 -0.2917
  632SOL    HW1 3496   1.839   2.542   1.094 -0.3867 -0.2525 -1.8644
  632SOL    HW2 3497   1.894   2.680   1.161  1.1078 -1.4123 -0.6127
  633SOL     OW 3498   3.208   5.496   5.621  0.1208 -0.0219 -0.3537
  633SOL    HW1 3499   3.195   5.471   5.526 -1.1412  0.2546 -0.2679
  633SOL    HW2 3500   3.192   5.417   5.680 -2.5865  0.5548 -0.1708
  634SOL     OW 3501   2.472   3.303   6.423  0.2535 -0.0333 -0.1447
  634SOL    HW1 3502   2.497   3.262   6.335 -1.3178 -0.0751 -0.5856
  634SOL    HW2 3503   2.546   3.287   6.489  1.8993  0.8390 -1.6989
  635SOL     OW 3504   1.813   6.911   4.428 -0.2713 -0.1467  0.2606
  635SOL    HW1 3505   1.781   6.882   4.338  0.3411 -0.1663  0.0419
  635SOL    HW2 3506   1.841   6.830   4.481  2.4789  0.0441 -0.7500
  636SOL     OW 3507   0.182   2.831   4.361  0.0147  0.0197  0.0262
  636SOL    HW1 3508   0.255   2.825   4.294 -0.5163  1.1199 -0.6868
  636SOL    HW2 3509   0.216   2.876   4.444  0.3358 -0.1410 -0.0198
  637SOL     OW 3510   3.500   6.677   0.990  0.2042  0.4641 -0.6566
  637SOL    HW1 3511   3.554   6.746   1.039 -0.2398  0.2340  0.1872
  637SOL    HW2 3512   3.445   6.626   1.056 -2.0522  1.5446 -1.5874
  638SOL     OW 3513   3.163   5.351   3.672 -0.0380  0.0625 -0.0857
  638SOL    HW1 3514   3.114   5.365   3.759  0.9030  0.7299  0.3604
  638SOL    HW2 3515   3.259   5.375   3.684 -0.3146  2.4764 -1.8993
  639SOL     OW 3516   4.899   5.333   5.442 -0.3008  0.3937  0.5125
  639SOL    HW1 3517   4.814   5.317   5.392 -0.0677 -1.9205  0.7622
  639SOL    HW2 3518   4.904   5.271   5.521  2.0901 -0.3004 -0.1025
  640SOL     OW 3519   6.443   3.281   1.483  1.0361  0.3585 -0.1608
  640SOL    HW1 3520   6.452   3.224   1.401  0.8266  0.1690 -0.0545
  640SOL    HW2 3521   6.491   3.368   1.469  1.9734 -0.1261 -0.0579
  641SOL     OW 3522   5.589   6.323   6.545 -0.1703  0.8643  0.3220
  641SOL    HW1 3523   5.548   6.324   6.636  0.0096  2.3040  0.4007
  641SOL    HW2 3524   5.689   6.326   6.553 -0.1339  0.4412  0.0769
  642SOL     OW 3525   6.328   5.225   2.057  0.0014 -0.6204  0.6646
  642SOL    HW1 3526   6.397   5.264   1.997 -0.8169 -1.7227 -1.0789
  642SOL    HW2 3527   6.238   5.262   2.033 -0.6238 -2.5608 -0.2320
  643SOL     OW 3528   5.407   6.922   2.693  0.0719 -0.6577  0.3694
  643SOL    HW1 3529   5.506   6.914   2.706  0.2387 -1.6999 -1.2539
  643SOL    HW2 3530   5.388   6.990   2.622 -0.5651  1.5300  2.5044
  644SOL     OW 3531   1.876   1.133   3.980  0.2777 -0.1023 -0.0646
  644SOL    HW1 3532   1.784   1.145   3.943  0.8505 -0.8138 -1.7833
  644SOL    HW2 3533   1.898   1.211   4.040 -1.6561 -0.2485  0.9186
  645SOL     OW 3534   6.863   4.941   2.676  0.5647 -0.2446 -0.2593
  645SOL    HW1 3535   6.772   4.902   2.689  0.3236 -0.1794 -1.6219
  645SOL    HW2 3536   6.888   4.994   2.757 -0.2240 -0.9940  0.5009
  646SOL     OW 3537   0.405   0.702   1.360  0.2427  0.0260 -0.0910
  646SOL    HW1 3538   0.422   0.617   1.409  3.6231  1.5771  1.7116
  646SOL    HW2 3539   0.460   0.704   1.276 -0.5820  0.0806 -0.6497
  647SOL     OW 3540   4.457   0.475   6.118 -0.1272 -0.4277 -0.2697
  647SOL    HW1 3541   4.474   0.557   6.174  0.8059 -0.0005 -1.1405
  647SOL    HW2 3542   4.373   0.488   6.065  0.5881  0.4518 -1.2293
  648SOL     OW 3543   1.533   0.562   3.180  0.6257 -0.3364  0.0971
  648SOL    HW1 3544   1.483   0.485   3.140  1.7293 -1.2753  0.4667
  648SOL    HW2 3545   1.483   0.647   3.162 -0.5588 -1.1106 -0.4266
  649SOL     OW 3546   0.591   6.933   2.182  0.4202 -1.0689 -0.1149
  649SOL    HW1 3547   0.491   6.944   2.183  0.5410  0.0473  0.0142
  649SOL    HW2 3548   0.631   6.994   2.114  0.9152 -2.5594 -1.2148
  650SOL     OW 3549   0.209   3.492   0.151  0.0096 -0.2279  0.3336
  650SOL    HW1 3550   0.247   3.399   0.149  0.7853  0.0852  0.0485
  650SOL    HW2 3551   0.173   3.516   0.061 -0.0808 -0.2074  0.3753
  651SOL     OW 3552   1.934   4.524   4.849  0.3285  0.5453 -0.3699
  651SOL    HW1 3553   1.996   4.456   4.890  0.8523  0.7892 -0.7470
  651SOL    HW2 3554   1.961   4.540   4.754 -0.1752  0.8271 -0.4664
  652SOL     OW 3555   4.040   2.182   0.692 -0.0498 -0.0473  0.2080
  652SOL    HW1 3556   4.092   2.104   0.726 -0.4205 -0.0640  0.7608
  652SOL    HW2 3557   3.945   2.176   0.725  0.4749  1.8904  2.3852
  653SOL     OW 3558   3.199   4.440   5.566  0.1110  0.0436 -0.3210
  653SOL    HW1 3559   3.259   4.499   5.620 -0.5708 -0.5193  1.1070
  653SOL    HW2 3560   3.202   4.468   5.471  2.3334  0.2782 -0.2443
  654SOL     OW 3561   0.532   4.020   2.124  0.1143  0.0672  0.2507
  654SOL    HW1 3562   0.622   4.062   2.136  0.5029 -0.8354  0.6245
  654SOL    HW2 3563   0.486   4.061   2.045  0.6896  0.8052  0.2902
  655SOL     OW 3564   2.114   1.811   6.881  0.5239  0.3012 -0.1671
  655SOL    HW1 3565   2.196   1.755   6.879  0.2756 -0.1037  0.5066
  655SOL    HW2 3566   2.109   1.861   6.968  0.4918  0.9973 -0.5548
  656SOL     OW 3567   1.105   2.199   2.316  0.1502 -0.6030 -0.1734
  656SOL    HW1 3568   1.042   2.265   2.275  0.1726 -0.2377  0.3802
  656SOL    HW2 3569   1.052   2.124   2.356  0.0942 -0.6101 -0.2598
  657SOL     OW 3570   2.409   4.669   1.414 -0.0835 -0.2191  0.3223
  657SOL    HW1 3571   2.330   4.614   1.388  0.5916 -1.0702  0.0191
  657SOL    HW2 3572   2.427   4.738   1.344 -1.3412  0.8739  1.0245
  658SOL     OW 3573   3.800   1.387   3.353 -0.5237  0.1975  0.0297
  658SOL    HW1 3574   3.792   1.438   3.267  0.9656  2.3805  1.1166
  658SOL    HW2 3575   3.714   1.339   3.371 -1.1777  0.4255 -2.1969
  659SOL     OW 3576   4.782   1.918   1.089 -0.5026  0.3480 -0.0385
  659SOL    HW1 3577   4.851   1.874   1.147 -1.3168 -2.2060 -0.8664
  659SOL    HW2 3578   4.747   1.851   1.023 -2.4193  2.0920 -0.8771
  660SOL     OW 3579   0.066   3.927   6.908 -0.5137  0.1100 -0.2647
  660SOL    HW1 3580   0.027   3.855   6.965  2.2853 -1.7232 -0.4492
  660SOL    HW2 3581   0.082   3.891   6.816  1.1708  0.8351 -0.2970
  661SOL     OW 3582   0.263   3.187   5.148 -0.4585  0.2166 -0.0844
  661SOL    HW1 3583   0.302   3.183   5.239  2.4614  2.4346 -1.0814
  661SOL    HW2 3584   0.202   3.266   5.141  1.5737  1.8161 -0.7145
  662SOL     OW 3585   4.476   1.936   3.933 -0.2887 -0.0582  0.1158
  662SOL    HW1 3586   4.546   2.005   3.944 -0.7459  0.2592  1.1206
  662SOL    HW2 3587   4.385   1.978   3.944 -0.5547 -0.9263  1.5742
  663SOL     OW 3588   6.442   5.893   2.126  0.1043 -0.5432  0.0481
  663SOL    HW1 3589   6.426   5.959   2.200 -0.0539 -2.1999  1.5676
  663SOL    HW2 3590   6.357   5.846   2.104  0.3088 -0.5782 -0.6979
  664SOL     OW 3591   6.999   4.768   6.678 -0.2202  0.0994 -0.2854
  664SOL    HW1 3592   7.006   4.672   6.651 -0.3059 -0.7342  2.4059
  664SOL    HW2 3593   6.908   4.802   6.656 -0.2974 -0.5158 -0.9758
  665SOL     OW 3594   1.311   1.077   1.985 -0.4046  0.1515  0.1395
  665SOL    HW1 3595   1.344   1.000   2.040  0.7429  0.7901  0.3700
  665SOL    HW2 3596   1.381   1.103   1.919 -0.8675  0.8573 -0.0827
  666SOL     OW 3597   3.797   2.783   1.366  0.6424 -0.1646 -0.0397
  666SOL    HW1 3598   3.753   2.731   1.438 -0.4408  0.8144  0.0329
  666SOL    HW2 3599   3.728   2.818   1.303  1.6103 -1.8409 -2.1767
  667SOL     OW 3600   3.994   5.085   2.181  0.1308  0.2477 -0.2004
  667SOL    HW1 3601   3.905   5.098   2.226 -0.3008  0.7417 -1.1638
  667SOL    HW2 3602   4.002   4.991   2.149 -0.2630  0.3342 -0.5589
  668SOL     OW 3603   6.168   4.842   5.374 -0.0386 -0.0596 -0.4810
  668SOL    HW1 3604   6.112   4.807   5.299  0.1276 -0.2914 -0.5005
  668SOL    HW2 3605   6.111   4.860   5.453 -0.7657  3.1365 -1.5957
  669SOL     OW 3606   5.064   0.992   0.048 -0.2037 -0.1179 -0.2211
  669SOL    HW1 3607   5.066   0.953  -0.044  2.4242  1.1895 -0.8109
  669SOL    HW2 3608   5.142   0.958   0.100 -0.7004  0.5077  0.9655
  670SOL     OW 3609   0.046   5.408   2.712  0.2101 -0.1995  0.1241
  670SOL    HW1 3610  -0.002   5.475   2.657  1.3223  0.5650  0.0539
  670SOL    HW2 3611   0.090   5.341   2.652 -0.7035 -0.8706  0.1867
  671SOL     OW 3612   6.893   3.242   5.163  0.3240  0.4230  0.2291
  671SOL    HW1 3613   6.952   3.191   5.226  2.6809  2.8415  0.1496
  671SOL    HW2 3614   6.817   3.283   5.213  1.2595  0.9631  1.2412
  672SOL     OW 3615   5.832   1.494   1.150  0.1808  0.2323  0.7156
  672SOL    HW1 3616   5.883   1.559   1.207 -0.0156  0.4533  0.6411
  672SOL    HW2 3617   5.761   1.543   1.098  0.1340 -0.0179  0.5402
  673SOL     OW 3618   3.822   3.529   4.100  0.4788  0.3642  0.2607
  673SOL    HW1 3619   3.921   3.513   4.104  0.5919 -0.3756 -3.0366
  673SOL    HW2 3620   3.774   3.442   4.106  0.2081  0.4040 -1.1142
  674SOL     OW 3621   3.266   5.081   4.915 -0.3266  0.1863 -1.0331
  674SOL    HW1 3622   3.296   5.004   4.858 -1.7313  0.0309 -1.6144
  674SOL    HW2 3623   3.173   5.063   4.947 -0.6818  1.6542 -1.2068
  675SOL     OW 3624   4.525   0.524   2.239 -0.0806  0.6268 -0.1509
  675SOL    HW1 3625   4.534   0.547   2.335 -3.1153 -1.3295  0.7603
  675SOL    HW2 3626   4.459   0.585   2.195 -1.6417 -0.8338  0.0776
  676SOL     OW 3627   2.955   1.603   5.883  0.3799 -0.0523  0.1698
  676SOL    HW1 3628   2.909   1.522   5.847 -0.0112 -0.0171  0.5852
  676SOL    HW2 3629   2.995   1.582   5.972  0.0593  0.2837  0.3929
  677SOL     OW 3630   1.993   4.958   2.804 -0.3466  0.0288 -0.2666
  677SOL    HW1 3631   1.931   5.036   2.811 -0.6421 -0.2076 -0.2029
  677SOL    HW2 3632   2.087   4.990   2.802 -0.4809  0.4058 -0.6293
  678SOL     OW 3633   1.597   1.275   3.733 -0.8613  0.2739  0.1216
  678SOL    HW1 3634   1.528   1.204   3.718  0.2741 -1.3405  2.0506
  678SOL    HW2 3635   1.671   1.265   3.667 -1.9928  1.5100 -1.4308
  679SOL     OW 3636   4.411   6.506   4.872  0.1983 -0.1491 -0.8239
  679SOL    HW1 3637   4.313   6.500   4.854  0.2388  0.6545 -1.3345
  679SOL    HW2 3638   4.453   6.574   4.812  0.8241  0.5854  0.3989
  680SOL     OW 3639   3.606   3.649   5.876  0.5867 -0.1179  0.4045
  680SOL    HW1 3640   3.638   3.564   5.918  0.3937  0.5088  1.8565
  680SOL    HW2 3641   3.652   3.727   5.917  0.6943  0.5119 -0.8590
  681SOL     OW 3642   2.852   0.773   4.281  0.2585  0.0908 -0.7059
  681SOL    HW1 3643   2.902   0.716   4.215 -0.2263 -0.5294 -0.5455
  681SOL    HW2 3644   2.905   0.781   4.365 -0.4513 -1.6147 -0.0649
  682SOL     OW 3645   6.470   5.252   6.300 -0.2429  0.3862 -0.1507
  682SOL    HW1 3646   6.510   5.194   6.229  0.2723 -0.3275  0.7109
  682SOL    HW2 3647   6.389   5.298   6.263 -0.2968 -0.3931 -1.0367
  683SOL     OW 3648   3.922   1.655   4.683  0.0531 -0.0482 -0.5112
  683SOL    HW1 3649   3.962   1.743   4.709  1.6798 -0.7101 -0.6917
  683SOL    HW2 3650   3.836   1.672   4.633 -0.7305  1.3475  1.1785
  684SOL     OW 3651   4.601   1.585   4.842 -0.4778 -0.4023  0.0310
  684SOL    HW1 3652   4.701   1.592   4.839 -0.4435 -1.2101 -1.3806
  684SOL    HW2 3653   4.565   1.573   4.750 -1.9265  0.1962  0.4827
  685SOL     OW 3654   4.056   3.776   0.198  0.1004 -0.0231  0.3326
  685SOL    HW1 3655   4.119   3.751   0.125 -0.6130  0.1691 -0.3606
  685SOL    HW2 3656   3.965   3.739   0.179 -0.2393  0.5345  0.8200
  686SOL     OW 3657   4.239   4.536   0.970 -0.0199 -0.0238  0.3515
  686SOL    HW1 3658   4.337   4.556   0.972 -0.2624  1.3945 -0.4708
  686SOL    HW2 3659   4.223   4.443   1.003  1.5975 -0.2857  0.4734
  687SOL     OW 3660   6.419   6.561   3.760 -0.2882  0.6783  0.7182
  687SOL    HW1 3661   6.389   6.504   3.683  0.5495  0.7610  0.3148
  687SOL    HW2 3662   6.339   6.599   3.807 -0.8262  1.5597 -0.8225
  688SOL     OW 3663   1.352   3.434   6.097  0.0322  0.0268  0.3067
  688SOL    HW1 3664   1.337   3.450   5.999 -1.5550 -2.1467  0.1236
  688SOL    HW2 3665   1.442   3.469   6.123 -0.0953  1.9788 -1.5713
  689SOL     OW 3666   0.499   0.133   4.885 -0.0896  0.2489  0.9035
  689SOL    HW1 3667   0.497   0.092   4.793  0.0903 -0.2700  1.1265
  689SOL    HW2 3668   0.406   0.161   4.910  0.1791  2.5810 -0.3799
  690SOL     OW 3669   1.412   4.910   0.431 -1.0382  0.5832  0.8085
  690SOL    HW1 3670   1.393   4.811   0.433 -1.9023  0.7562  1.3704
  690SOL    HW2 3671   1.493   4.926   0.374 -1.4842 -0.3475 -0.1395
  691SOL     OW 3672   0.552   3.820   5.254 -0.5413 -0.1192  0.1200
  691SOL    HW1 3673   0.484   3.814   5.328  1.4523  2.0424  2.2923
  691SOL    HW2 3674   0.609   3.737   5.254 -1.9862 -1.1618 -0.5945
  692SOL     OW 3675   4.765   2.120   3.288  0.0174  0.2583  0.3644
  692SOL    HW1 3676   4.772   2.064   3.206  1.9222 -0.6617  1.0928
  692SOL    HW2 3677   4.738   2.213   3.263  1.0624  0.1335 -1.3735
  693SOL     OW 3678   0.427   3.111   2.349 -0.0355  0.2058  0.1215
  693SOL    HW1 3679   0.519   3.150   2.359  1.0848 -2.3955  1.0073
  693SOL    HW2 3680   0.413   3.042   2.419 -2.2983 -0.2119 -0.6702
  694SOL     OW 3681   0.562   4.796   3.395  0.2344 -0.0528 -0.0283
  694SOL    HW1 3682   0.635   4.823   3.458  0.2044  0.8703 -0.3716
  694SOL    HW2 3683   0.568   4.852   3.312 -1.6249  0.9563  0.4616
  695SOL     OW 3684   1.027   5.734   6.570  0.4141 -0.4135 -0.1802
  695SOL    HW1 3685   0.955   5.783   6.521  1.4578 -0.2341 -1.6002
  695SOL    HW2 3686   1.026   5.638   6.545  1.4086 -0.1889 -1.1751
  696SOL     OW 3687   5.133   6.484   1.528 -0.7659 -0.0870 -0.4976
  696SOL    HW1 3688   5.189   6.557   1.490  0.9819  0.0715  2.1236
  696SOL    HW2 3689   5.038   6.514   1.534  0.0009  2.2741  1.0399
  697SOL     OW 3690   3.464   5.325   3.660 -0.1224  0.0029 -0.2303
  697SOL    HW1 3691   3.527   5.401   3.676 -0.6875  0.3253  0.4886
  697SOL    HW2 3692   3.479   5.254   3.728  0.4971 -0.6048 -0.9834
  698SOL     OW 3693   4.367   2.812   5.321 -0.3637 -0.5964 -0.0276
  698SOL    HW1 3694   4.270   2.798   5.303 -0.4042  1.8113 -2.1411
  698SOL    HW2 3695   4.378   2.882   5.392 -0.1684 -0.5177 -0.1348
  699SOL     OW 3696   4.316   1.815   4.593  0.7558 -0.2663 -0.2115
  699SOL    HW1 3697   4.269   1.803   4.680  2.4408 -0.2535  0.7558
  699SOL    HW2 3698   4.250   1.814   4.518 -0.9711  1.4589  1.1728
  700SOL     OW 3699   1.652   1.925   4.015 -0.2585 -0.2664 -0.6794
  700SOL    HW1 3700   1.599   1.852   3.973 -0.3226 -0.0737 -0.9373
  700SOL    HW2 3701   1.608   2.013   3.997 -2.1272 -0.4125  2.5506
  701SOL     OW 3702   5.500   4.927   3.313  0.1658  0.4938 -0.0336
  701SOL    HW1 3703   5.560   5.005   3.333 -0.2423  1.4296 -2.1655
  701SOL    HW2 3704   5.545   4.866   3.247 -1.4502  1.7266 -2.4562
  702SOL     OW 3705   6.077   2.025   3.266  0.2304 -0.3846 -0.3817
  702SOL    HW1 3706   6.012   2.067   3.328  1.1744  1.6033 -0.6427
  702SOL    HW2 3707   6.170   2.048   3.295  0.8533 -2.8410 -0.2267
  703SOL     OW 3708   4.120   2.698   0.073 -0.0089  0.1140 -0.3783
  703SOL    HW1 3709   4.104   2.750   0.157  1.0141  0.8578 -0.6321
  703SOL    HW2 3710   4.056   2.621   0.070 -2.0398  1.7048 -0.3170
  704SOL     OW 3711   6.010   5.162   1.423 -0.0115 -0.3249  0.2096
  704SOL    HW1 3712   5.912   5.163   1.404  0.0140  3.0294 -0.3794
  704SOL    HW2 3713   6.027   5.197   1.515  0.6590 -0.0456 -0.0093
  705SOL     OW 3714   1.142   5.356   0.021  0.6445  0.1064 -0.2301
  705SOL    HW1 3715   1.234   5.354  -0.017  0.7771  0.1425  0.0835
  705SOL    HW2 3716   1.075   5.368  -0.052  1.0113  2.1617 -0.2872
  706SOL     OW 3717   2.790   5.196   0.078 -0.0682 -0.0354 -0.2037
  706SOL    HW1 3718   2.854   5.157   0.012 -3.1212 -1.0813 -2.8025
  706SOL    HW2 3719   2.703   5.145   0.075 -1.5093  2.0332  2.1983
  707SOL     OW 3720   0.997   4.160   0.321 -0.7547 -0.8917  0.5436
  707SOL    HW1 3721   0.932   4.109   0.265  1.1486 -2.2776 -0.5116
  707SOL    HW2 3722   0.950   4.236   0.365 -3.1132 -1.9587  0.0188
  708SOL     OW 3723   3.106   2.039   1.925 -0.5196  0.1527 -0.3623
  708SOL    HW1 3724   3.197   2.081   1.935 -0.5418  0.4607 -1.3625
  708SOL    HW2 3725   3.112   1.941   1.944  0.1980  0.0208 -1.1849
  709SOL     OW 3726   0.411   2.159   1.469 -0.4566  0.5166 -0.4633
  709SOL    HW1 3727   0.398   2.065   1.501  0.0369  0.4602 -0.4196
  709SOL    HW2 3728   0.390   2.223   1.543 -0.7388  0.4413 -0.4765
  710SOL     OW 3729   5.355   2.648   3.880 -0.2259 -0.0561 -0.0421
  710SOL    HW1 3730   5.310   2.738   3.876 -0.9808 -0.4104  0.2282
  710SOL    HW2 3731   5.453   2.661   3.890 -0.3300  0.7468  0.0648
  711SOL     OW 3732   3.303   3.137   5.846  0.8902  0.3444  0.8315
  711SOL    HW1 3733   3.226   3.144   5.910 -1.5267 -0.6097 -1.7599
  711SOL    HW2 3734   3.351   3.051   5.861 -0.3076 -0.3616  0.7157
  712SOL     OW 3735   4.967   3.606   1.229  0.1087 -0.1847 -0.3209
  712SOL    HW1 3736   5.031   3.683   1.231  0.5891 -0.5713 -0.4541
  712SOL    HW2 3737   5.019   3.521   1.230 -0.4431 -0.5179  0.6682
  713SOL     OW 3738   2.081   1.692   4.420  0.1661 -0.1364  0.2933
  713SOL    HW1 3739   2.125   1.612   4.378  0.6248  0.3989 -0.2599
  713SOL    HW2 3740   2.006   1.661   4.479 -0.1009 -0.9454 -0.4348
  714SOL     OW 3741   2.246   5.135   2.032 -0.3411  0.1028 -0.3758
  714SOL    HW1 3742   2.277   5.229   2.021 -0.2498  0.2710  1.1535
  714SOL    HW2 3743   2.325   5.073   2.028 -0.3434  0.1257 -0.8641
  715SOL     OW 3744   0.473   5.394   0.281 -0.5977  0.0549  0.4705
  715SOL    HW1 3745   0.425   5.354   0.203  0.4669 -0.8027  0.2294
  715SOL    HW2 3746   0.491   5.323   0.349  1.0040  0.1519  0.2010
  716SOL     OW 3747   1.925   2.063   5.326 -0.1372 -0.0028 -0.1062
  716SOL    HW1 3748   1.976   2.137   5.370  1.3039 -0.7439 -0.4898
  716SOL    HW2 3749   1.925   1.983   5.386 -0.5103 -0.1454 -0.2933
  717SOL     OW 3750   1.149   4.584   6.914 -0.5006 -0.0254  0.1496
  717SOL    HW1 3751   1.174   4.676   6.884 -3.2735  0.6325 -0.4372
  717SOL    HW2 3752   1.169   4.519   6.841  1.8736 -0.0465  0.7220
  718SOL     OW 3753   3.169   6.349   1.667 -0.1079 -0.3533 -0.2461
  718SOL    HW1 3754   3.134   6.286   1.737  1.8186  0.7001  1.7690
  718SOL    HW2 3755   3.145   6.443   1.692  1.8287  0.1666 -0.1669
  719SOL     OW 3756   2.735   6.121   2.787 -0.1108 -0.4010 -0.9118
  719SOL    HW1 3757   2.661   6.183   2.766 -0.3611 -0.4962 -0.3512
  719SOL    HW2 3758   2.793   6.161   2.859  0.7204 -0.0743 -1.7426
  720SOL     OW 3759   2.453   2.151   0.119  0.0029  0.1950 -0.5245
  720SOL    HW1 3760   2.519   2.183   0.187 -1.0923  0.8849  0.2530
  720SOL    HW2 3761   2.383   2.096   0.164  0.0976 -0.6161 -1.3526
  721SOL     OW 3762   0.087   6.444   4.567 -0.0549  0.3948 -0.1125
  721SOL    HW1 3763   0.154   6.478   4.501  1.9561 -0.1445  1.5495
  721SOL    HW2 3764   0.117   6.355   4.601 -1.0564  0.6456  1.4974
  722SOL     OW 3765   1.725   6.492   1.790  0.2086 -0.0414  0.0698
  722SOL    HW1 3766   1.753   6.540   1.707  0.8841  1.8269  1.3147
  722SOL    HW2 3767   1.779   6.526   1.868 -1.2864 -0.8143  1.5009
  723SOL     OW 3768   4.522   4.828   5.939  0.2969 -0.3251 -0.0984
  723SOL    HW1 3769   4.567   4.749   5.898  0.3499 -0.5496  0.3839
  723SOL    HW2 3770   4.523   4.819   6.039 -1.3112 -0.6043 -0.0893
  724SOL     OW 3771   0.797   5.522   5.060 -0.5922 -0.2647  0.6390
  724SOL    HW1 3772   0.722   5.457   5.074 -0.8193  0.1247  1.2902
  724SOL    HW2 3773   0.846   5.499   4.976 -1.4453 -0.5214  0.1955
  725SOL     OW 3774   0.369   6.150   3.645  0.5140  0.6087  0.0583
  725SOL    HW1 3775   0.437   6.220   3.622 -0.6550  1.0693 -2.2241
  725SOL    HW2 3776   0.280   6.193   3.657 -0.1416 -0.4063 -0.9542
  726SOL     OW 3777   2.278   2.197   2.827 -0.0358 -0.1877 -0.4682
  726SOL    HW1 3778   2.286   2.127   2.756  0.7370  0.0808 -0.6639
  726SOL    HW2 3779   2.358   2.192   2.887  0.9239  1.6034 -1.4997
  727SOL     OW 3780   6.335   3.020   5.659 -0.1594  0.4865 -0.0431
  727SOL    HW1 3781   6.412   2.977   5.705  1.7631  1.3748 -2.2159
  727SOL    HW2 3782   6.295   2.956   5.593  0.3828  0.8500 -0.7298
  728SOL     OW 3783   6.365   6.356   5.932  0.1696  0.1530  0.6982
  728SOL    HW1 3784   6.435   6.286   5.923  0.9223  1.1039 -1.5601
  728SOL    HW2 3785   6.397   6.427   5.996  0.9594  0.2124  0.2465
  729SOL     OW 3786   0.140   6.189   3.814 -0.1063  0.4856  0.5711
  729SOL    HW1 3787   0.143   6.105   3.868 -0.7042  0.4073  0.4960
  729SOL    HW2 3788   0.172   6.265   3.869  0.9021  0.1359  0.4862
  730SOL     OW 3789   2.638   6.653   6.539 -0.2862 -0.7840 -0.5063
  730SOL    HW1 3790   2.554   6.663   6.485  0.1545  1.0794 -0.9013
  730SOL    HW2 3791   2.689   6.739   6.539 -0.5578 -0.4089  3.4024
  731SOL     OW 3792   5.202   5.067   1.930 -0.3662 -0.1728  0.7030
  731SOL    HW1 3793   5.159   5.150   1.964 -0.2161  0.5398 -0.7979
  731SOL    HW2 3794   5.135   5.013   1.879  0.3967  0.8754 -1.5277
  732SOL     OW 3795   4.701   0.791   4.514  0.1116 -0.1891  0.4339
  732SOL    HW1 3796   4.628   0.738   4.471  0.9542  0.4188 -1.8818
  732SOL    HW2 3797   4.771   0.813   4.446  1.9462  0.1616  2.3436
  733SOL     OW 3798   6.792   3.523   4.847 -0.2804  0.9612  0.5954
  733SOL    HW1 3799   6.732   3.477   4.912  1.0840 -0.1533  1.0987
  733SOL    HW2 3800   6.853   3.457   4.804  0.9635  2.1160  0.5040
  734SOL     OW 3801   0.223   1.445   6.059  0.3210 -0.2554  0.7912
  734SOL    HW1 3802   0.136   1.471   6.017  0.2015  0.0148  1.1983
  734SOL    HW2 3803   0.279   1.396   5.992 -0.1539 -0.4533  0.5357
  735SOL     OW 3804   3.257   2.434   1.311  0.2917  0.1783 -0.0304
  735SOL    HW1 3805   3.316   2.428   1.230  1.8023  0.5133  1.0007
  735SOL    HW2 3806   3.279   2.517   1.362  0.1372 -0.5831  1.3137
  736SOL     OW 3807   0.338   6.775   5.789  0.1050 -0.4198 -0.4545
  736SOL    HW1 3808   0.268   6.844   5.771  0.6904  0.2039 -0.3703
  736SOL    HW2 3809   0.377   6.744   5.703  3.0990  2.7601 -0.4591
  737SOL     OW 3810   5.217   0.657   0.335 -0.3405 -0.1340  0.5857
  737SOL    HW1 3811   5.215   0.655   0.435  0.7658  0.6902  0.6390
  737SOL    HW2 3812   5.213   0.752   0.304  0.2391 -0.3338 -0.1292
  738SOL     OW 3813   0.293   3.936   6.208  0.1771 -0.2880 -0.0127
  738SOL    HW1 3814   0.216   3.997   6.192  0.9522  0.6400 -0.2296
  738SOL    HW2 3815   0.292   3.906   6.303  0.0122  0.3746  0.1990
  739SOL     OW 3816   1.992   5.828   1.716  0.3085  0.0567  0.5819
  739SOL    HW1 3817   1.973   5.749   1.775 -0.6033 -0.0687  0.1539
  739SOL    HW2 3818   1.992   5.798   1.621  1.6844  0.2701  0.4984
  740SOL     OW 3819   3.574   2.244   6.061 -0.2961 -0.1905  0.5964
  740SOL    HW1 3820   3.647   2.274   6.000 -3.0369 -0.1803 -3.0221
  740SOL    HW2 3821   3.589   2.149   6.087 -0.7002 -1.5067 -3.2910
  741SOL     OW 3822   1.718   0.989   4.587 -0.0491 -0.1366 -0.2069
  741SOL    HW1 3823   1.668   1.052   4.527 -0.4470 -0.1288  0.1233
  741SOL    HW2 3824   1.678   0.993   4.679  0.9253  0.2824  0.2058
  742SOL     OW 3825   0.698   5.637   1.340  0.1992 -0.0769 -0.4234
  742SOL    HW1 3826   0.700   5.575   1.262  0.3049 -0.9553  0.2609
  742SOL    HW2 3827   0.667   5.587   1.421 -0.3245  0.9265  0.0008
  743SOL     OW 3828   5.708   5.591   3.816 -0.2076 -0.1791 -0.2556
  743SOL    HW1 3829   5.655   5.528   3.872  0.5931  0.3227  1.0953
  743SOL    HW2 3830   5.696   5.684   3.850 -1.6385  0.5062 -2.4142
  744SOL     OW 3831   6.025   2.215   6.778  0.1556  0.0291  0.0480
  744SOL    HW1 3832   6.042   2.260   6.865  0.9220 -0.0555 -0.0508
  744SOL    HW2 3833   5.936   2.169   6.780 -0.2185  0.7624  0.4711
  745SOL     OW 3834   5.091   2.017   2.349 -0.0380 -0.0581  0.2604
  745SOL    HW1 3835   5.071   1.992   2.444 -0.4178  0.8188  0.4231
  745SOL    HW2 3836   5.051   2.107   2.329 -0.8612 -0.6872 -1.0392
  746SOL     OW 3837   0.941   1.021   4.194 -0.0122  1.1126  0.4789
  746SOL    HW1 3838   0.965   1.115   4.221 -0.3404  0.7456  2.1711
  746SOL    HW2 3839   1.003   0.991   4.121  2.1044  1.6049  1.9499
  747SOL     OW 3840   6.034   3.151   1.986  0.3249  0.4093 -0.7032
  747SOL    HW1 3841   6.025   3.099   2.071 -2.3178  1.1804 -0.4426
  747SOL    HW2 3842   6.112   3.214   1.994 -0.6662  1.4283  1.7127
  748SOL     OW 3843   5.861   4.767   1.153 -0.0597 -0.0587 -0.5069
  748SOL    HW1 3844   5.884   4.670   1.162  0.7468  0.2224  0.8583
  748SOL    HW2 3845   5.941   4.817   1.120 -0.0757  0.3176  0.0172
  749SOL     OW 3846   5.789   5.629   1.744 -0.6587  0.1329 -0.4705
  749SOL    HW1 3847   5.810   5.727   1.749  0.5277 -0.0947 -0.6290
  749SOL    HW2 3848   5.862   5.582   1.694  0.7372 -1.3404  2.6067
  750SOL     OW 3849   4.917   2.088   6.405  0.0919 -0.0933  0.4702
  750SOL    HW1 3850   5.004   2.111   6.363  0.0682  1.1956  1.0845
  750SOL    HW2 3851   4.926   2.089   6.504 -0.7206  0.4600  0.5433
  751SOL     OW 3852   6.888   1.396   6.180 -0.1896  0.8528  0.0827
  751SOL    HW1 3853   6.937   1.411   6.094 -0.5265  0.3552 -0.1999
  751SOL    HW2 3854   6.954   1.392   6.255  0.2250  0.0751 -0.3107
  752SOL     OW 3855   1.311   1.870   6.428  0.3820  0.2381  0.3661
  752SOL    HW1 3856   1.379   1.890   6.358  0.1245  1.7921  0.5127
  752SOL    HW2 3857   1.250   1.797   6.397  1.7890 -0.8246  0.0360
  753SOL     OW 3858   1.396   0.430   0.569  0.2035 -0.0163 -0.9692
  753SOL    HW1 3859   1.342   0.512   0.547 -2.1110 -0.4862  2.1888
  753SOL    HW2 3860   1.374   0.358   0.504 -2.6403  0.0276 -0.1925
  754SOL     OW 3861   2.165   0.005   3.417  0.5432 -0.1038 -0.2963
  754SOL    HW1 3862   2.144  -0.093   3.411  0.1847 -0.0386 -0.1698
  754SOL    HW2 3863   2.241   0.027   3.357 -0.6124 -0.1214 -1.8457
  755SOL     OW 3864   1.919   5.962   0.920  0.7254  0.3376 -0.1276
  755SOL    HW1 3865   1.844   5.898   0.939  0.4875  0.8893  0.8868
  755SOL    HW2 3866   2.004   5.911   0.911  0.3077 -0.2608 -0.8914
  756SOL     OW 3867   1.253   1.102   2.667 -0.0088  0.0926  0.5774
  756SOL    HW1 3868   1.215   1.010   2.653  1.4848 -0.4461 -0.1442
  756SOL    HW2 3869   1.252   1.123   2.764 -0.5451 -0.6013  0.7385
  757SOL     OW 3870   0.848   6.354   5.050  0.0940 -0.2884 -0.1816
  757SOL    HW1 3871   0.840   6.453   5.048 -0.0383 -0.2875  0.2509
  757SOL    HW2 3872   0.912   6.324   4.979  0.6525  0.1580  0.1269
  758SOL     OW 3873   2.128   2.138   5.080 -0.1344  0.3280  0.3073
  758SOL    HW1 3874   2.184   2.200   5.134  1.8821 -0.2718 -0.9492
  758SOL    HW2 3875   2.164   2.045   5.090 -1.6098 -0.2608  0.2980
  759SOL     OW 3876   4.410   4.928   2.934 -0.2300 -0.1657 -0.0893
  759SOL    HW1 3877   4.329   4.871   2.945  0.1187 -0.4194  1.3302
  759SOL    HW2 3878   4.477   4.907   3.006  0.6064  0.8599 -0.5255
  760SOL     OW 3879   2.933   6.216   0.617  0.6812 -0.0842  0.2596
  760SOL    HW1 3880   2.991   6.239   0.695  0.6580 -0.6189  0.4345
  760SOL    HW2 3881   2.971   6.137   0.569  0.1595 -0.3656  0.3059
  761SOL     OW 3882   0.581   5.864   6.833  0.5988  0.9718  0.0082
  761SOL    HW1 3883   0.554   5.773   6.865  0.3323  0.9708 -0.2093
  761SOL    HW2 3884   0.523   5.890   6.756  1.8052  0.5965 -1.0599
  762SOL     OW 3885   4.598   4.302   2.320 -0.2382  0.5114  0.3661
  762SOL    HW1 3886   4.614   4.345   2.409  1.7573  0.6041  0.0278
  762SOL    HW2 3887   4.686   4.292   2.273 -0.7428 -2.7335 -0.1286
  763SOL     OW 3888   6.837   6.530   5.843 -0.3187  0.4191 -0.3074
  763SOL    HW1 3889   6.862   6.459   5.778  1.0513  0.1927  0.4321
  763SOL    HW2 3890   6.773   6.492   5.910 -1.0919  0.4296 -1.0257
  764SOL     OW 3891   6.635   0.516   4.072 -0.2253  0.0126 -0.0513
  764SOL    HW1 3892   6.649   0.602   4.023 -1.6995  1.1027  1.3116
  764SOL    HW2 3893   6.684   0.518   4.159 -0.0485 -0.6381 -0.1313
  765SOL     OW 3894   1.763   3.891   5.968 -0.0079 -0.1583 -0.3545
  765SOL    HW1 3895   1.795   3.888   6.063  0.5625 -1.1105 -0.5692
  765SOL    HW2 3896   1.841   3.888   5.906 -0.3953  0.1991 -0.8658
  766SOL     OW 3897   0.336   3.433   1.402  0.5361  0.0452  0.0347
  766SOL    HW1 3898   0.253   3.458   1.353  0.7519  2.0062  0.6002
  766SOL    HW2 3899   0.353   3.335   1.390 -0.1662  0.1685 -2.6118
  767SOL     OW 3900   4.050   0.106   3.416 -0.2390  1.2027 -0.1570
  767SOL    HW1 3901   4.025   0.116   3.512  1.2831  2.3876  0.1451
  767SOL    HW2 3902   4.070   0.010   3.396  1.0300  1.1758  1.1240
  768SOL     OW 3903   2.585   1.589   4.405  0.4217  0.8059 -0.2575
  768SOL    HW1 3904   2.680   1.577   4.433 -0.2571  0.1289  1.9129
  768SOL    HW2 3905   2.542   1.500   4.390 -0.3117  1.0323  0.3988
  769SOL     OW 3906   1.291   6.642   5.426  0.5492  0.4283  0.2031
  769SOL    HW1 3907   1.317   6.619   5.520  0.8139 -0.1615 -0.0086
  769SOL    HW2 3908   1.257   6.736   5.423  1.2677  0.7173  0.7575
  770SOL     OW 3909   0.551   6.722   6.254  0.0161 -0.3034  0.2829
  770SOL    HW1 3910   0.523   6.676   6.169 -0.2521  0.4030 -0.0119
  770SOL    HW2 3911   0.585   6.653   6.319 -0.6427 -0.9557 -0.0491
  771SOL     OW 3912   4.255   3.510   3.689  0.5734  0.6881 -0.1041
  771SOL    HW1 3913   4.223   3.493   3.782  0.1889 -0.5723 -0.4470
  771SOL    HW2 3914   4.338   3.456   3.672  0.3607  0.5214 -0.6407
  772SOL     OW 3915   3.808   2.340   1.215 -0.1760 -0.1450  0.5416
  772SOL    HW1 3916   3.891   2.394   1.230  1.0106 -1.4736 -0.9228
  772SOL    HW2 3917   3.746   2.391   1.155  0.1419  0.3183  0.5998
  773SOL     OW 3918   4.514   0.121   4.139  0.0045 -0.8629 -0.4142
  773SOL    HW1 3919   4.479   0.203   4.094 -0.0682 -1.4526 -1.4569
  773SOL    HW2 3920   4.612   0.110   4.118  0.0875 -0.8838 -0.0296
  774SOL     OW 3921   5.913   1.241   5.158 -0.3353 -0.3097  0.2031
  774SOL    HW1 3922   5.949   1.193   5.078 -0.8621 -0.1805 -0.1216
  774SOL    HW2 3923   5.844   1.184   5.203  1.1074 -1.0678  1.5332
  775SOL     OW 3924   1.740   0.216   5.948 -0.6462  0.0132  0.0769
  775SOL    HW1 3925   1.730   0.220   5.849  0.4287 -0.1286 -0.0431
  775SOL    HW2 3926   1.735   0.121   5.979 -0.1103 -0.0245  0.0568
  776SOL     OW 3927   5.060   1.378   5.162  0.0154 -0.2843  0.1511
  776SOL    HW1 3928   4.963   1.401   5.166 -0.3346 -1.4076 -1.0900
  776SOL    HW2 3929   5.085   1.355   5.068  1.6728  0.6864  0.3103
  777SOL     OW 3930   4.291   4.637   5.894  0.5279  0.2311  0.3160
  777SOL    HW1 3931   4.369   4.699   5.900 -0.1707  1.1977 -0.2635
  777SOL    HW2 3932   4.213   4.686   5.854 -0.0490 -1.0235 -0.1222
  778SOL     OW 3933   5.806   5.754   6.179  0.3048  0.2423 -0.7608
  778SOL    HW1 3934   5.803   5.729   6.276  0.4807 -0.4264 -0.9214
  778SOL    HW2 3935   5.862   5.836   6.167 -0.4235  0.8305 -0.1980
  779SOL     OW 3936   4.888   4.846   3.104  0.5236  0.4290  0.4339
  779SOL    HW1 3937   4.915   4.785   3.178  0.0136  1.5628  1.5956
  779SOL    HW2 3938   4.953   4.838   3.028  0.9659 -0.8599  0.9246
  780SOL     OW 3939   2.901   6.846   6.810 -0.4948  0.0235 -0.0737
  780SOL    HW1 3940   2.959   6.766   6.820  0.2099  0.7062  1.4752
  780SOL    HW2 3941   2.812   6.829   6.852 -0.5107 -0.0936 -0.1541
  781SOL     OW 3942   6.749   2.460   2.105  0.4431  0.0479  0.6660
  781SOL    HW1 3943   6.703   2.389   2.157  2.8015  0.4272  3.5311
  781SOL    HW2 3944   6.694   2.543   2.105 -0.5525 -0.5927  0.6833
  782SOL     OW 3945   3.743   5.957   7.010 -0.0745  0.3190 -0.0548
  782SOL    HW1 3946   3.823   6.003   7.049  0.3268  0.1646 -0.6750
  782SOL    HW2 3947   3.698   6.018   6.945 -1.0067  0.7459  0.9585
  783SOL     OW 3948   1.189   2.886   4.792 -0.4324 -0.1985  0.6404
  783SOL    HW1 3949   1.127   2.810   4.772  0.0484  0.0606 -2.2745
  783SOL    HW2 3950   1.142   2.973   4.776  0.4239  0.0002 -1.0510
  784SOL     OW 3951   6.611   6.169   5.983  1.0364 -0.0303  0.3955
  784SOL    HW1 3952   6.643   6.164   5.888 -1.3372 -1.1960 -0.4211
  784SOL    HW2 3953   6.619   6.079   6.026 -1.6154 -0.5785 -0.0835
  785SOL     OW 3954   4.499   1.288   5.756 -0.4852  0.1172  0.3247
  785SOL    HW1 3955   4.515   1.250   5.848  2.2013 -0.2326 -0.2016
  785SOL    HW2 3956   4.545   1.376   5.748 -0.7012  0.1491 -0.7050
  786SOL     OW 3957   5.442   0.292   6.763 -0.5590  0.2955 -0.0431
  786SOL    HW1 3958   5.377   0.291   6.839 -0.6829 -0.2308 -0.1531
  786SOL    HW2 3959   5.423   0.215   6.701 -0.2803  0.5530 -0.4538
  787SOL     OW 3960   1.089   4.943   7.021 -0.0803 -0.0940  0.0060
  787SOL    HW1 3961   1.009   4.977   6.972 -0.3051  0.3475  0.6713
  787SOL    HW2 3962   1.071   4.942   7.119 -0.0512 -2.0879  0.0151
  788SOL     OW 3963   0.154   0.810   1.289  0.1549 -0.3345 -0.0040
  788SOL    HW1 3964   0.101   0.725   1.287  1.2690 -1.0887  1.1912
  788SOL    HW2 3965   0.249   0.790   1.265  0.2141  0.7776 -0.7792
  789SOL     OW 3966   6.560   3.648   6.857 -0.0764 -0.2647  0.4966
  789SOL    HW1 3967   6.547   3.610   6.949 -2.3253 -0.3406  0.2023
  789SOL    HW2 3968   6.655   3.680   6.847 -0.3108  1.8688  3.6497
  790SOL     OW 3969   5.832   3.553   0.933  0.1884 -0.1287  0.1067
  790SOL    HW1 3970   5.849   3.553   1.032 -0.2834 -2.3769  0.2478
  790SOL    HW2 3971   5.918   3.557   0.884  0.5007 -0.4408  0.6275
  791SOL     OW 3972   1.820   4.598   2.797 -0.4238 -0.7234 -0.0821
  791SOL    HW1 3973   1.862   4.646   2.720  0.7213 -0.5775  0.6120
  791SOL    HW2 3974   1.783   4.510   2.766 -1.1765 -0.0928 -1.0526
  792SOL     OW 3975   3.917   6.098   3.366  0.4363  0.5001  0.7089
  792SOL    HW1 3976   3.894   6.193   3.348 -0.7648  0.1442  0.2266
  792SOL    HW2 3977   3.937   6.086   3.463  1.0292  1.3207  0.6921
  793SOL     OW 3978   2.006   2.870   1.759  0.0346 -0.2840  0.3406
  793SOL    HW1 3979   2.031   2.851   1.664 -0.7630  1.6149 -0.3014
  793SOL    HW2 3980   2.085   2.858   1.818  0.4350 -1.9040 -0.4902
  794SOL     OW 3981   0.515   5.281   2.717 -0.5572 -0.0757  0.1868
  794SOL    HW1 3982   0.587   5.233   2.767  0.7366  0.0288 -1.5068
  794SOL    HW2 3983   0.521   5.379   2.735 -0.2378 -0.0606 -0.0057
  795SOL     OW 3984   0.047   3.928   2.032 -0.4794  0.1761  0.1892
  795SOL    HW1 3985   0.021   3.848   2.086  0.0789  0.2163  0.5292
  795SOL    HW2 3986   0.074   4.002   2.093  2.0382 -0.4060 -0.0967
  796SOL     OW 3987   4.691   3.083   0.693 -0.0699  0.0769  0.3512
  796SOL    HW1 3988   4.782   3.079   0.734  0.0033  0.1770  0.1985
  796SOL    HW2 3989   4.688   3.156   0.624  0.3833 -1.2857 -1.1889
  797SOL     OW 3990   1.489   2.347   5.775 -0.3652  0.0161  0.5148
  797SOL    HW1 3991   1.500   2.251   5.800 -0.4725  0.3342  1.9054
  797SOL    HW2 3992   1.403   2.360   5.726 -0.2560 -0.6231  0.1506
  798SOL     OW 3993   3.132   3.160   6.051  0.3172 -0.5126 -0.5262
  798SOL    HW1 3994   3.052   3.115   6.012  0.0481  2.0433 -3.2783
  798SOL    HW2 3995   3.102   3.229   6.118  0.3260 -0.5597 -0.4736
  799SOL     OW 3996   2.605   0.616   5.403  0.7843 -0.4853  0.0125
  799SOL    HW1 3997   2.622   0.624   5.501  0.1784  1.0794  0.0193
  799SOL    HW2 3998   2.530   0.552   5.387 -0.3685  0.6396  0.7260
  800SOL     OW 3999   5.052   4.311   2.111  0.1117 -0.0414  0.4970
  800SOL    HW1 4000   5.130   4.371   2.095 -0.1836  0.7277  1.7735
  800SOL    HW2 4001   5.084   4.226   2.153  0.2510  0.4640  1.4639
  801SOL     OW 4002   4.444   5.018   5.060 -0.1914  0.0336 -0.2548
  801SOL    HW1 4003   4.535   5.003   5.099 -0.5951 -2.5991 -0.1363
  801SOL    HW2 4004   4.449   5.013   4.960  0.0912  2.0953 -0.3844
  802SOL     OW 4005   0.931   1.821   3.499 -0.4802  0.7700 -0.2533
  802SOL    HW1 4006   0.856   1.840   3.436 -0.5390 -1.1853 -0.8328
  802SOL    HW2 4007   0.896   1.772   3.579 -0.1329  1.7533  0.5297
  803SOL     OW 4008   3.650   0.791   3.532  0.1226  0.5237 -0.5204
  803SOL    HW1 4009   3.621   0.831   3.445  1.0321  0.6506 -0.7768
  803SOL    HW2 4010   3.738   0.746   3.520 -0.6367 -1.1697 -0.1214
  804SOL     OW 4011   6.126   6.474   1.594  0.4150 -0.0125 -0.0401
  804SOL    HW1 4012   6.122   6.456   1.692 -0.4526 -1.2090 -0.2610
  804SOL    HW2 4013   6.033   6.477   1.557  0.6581  2.1647 -0.5572
  805SOL     OW 4014   0.198   2.658   0.383  0.1532  0.8570 -0.1525
  805SOL    HW1 4015   0.140   2.708   0.319 -0.8421 -0.6375 -0.4737
  805SOL    HW2 4016   0.284   2.632   0.338 -0.1134  0.6947 -0.5744
  806SOL     OW 4017   1.371   4.130   2.722  0.3709  0.1896  0.1005
  806SOL    HW1 4018   1.287   4.147   2.671  0.2645  0.8938  0.5021
  806SOL    HW2 4019   1.372   4.186   2.805 -0.7302 -2.8673  2.3461
  807SOL     OW 4020   1.007   2.474   1.924  0.7598  0.9724  0.6789
  807SOL    HW1 4021   0.931   2.509   1.870  2.0557  0.5332 -1.5427
  807SOL    HW2 4022   1.091   2.522   1.898  2.2758 -2.3051 -1.1621
  808SOL     OW 4023   3.959   0.856   1.455 -0.0355 -0.2148 -0.0820
  808SOL    HW1 4024   3.942   0.846   1.357  1.4866  1.1284 -0.5250
  808SOL    HW2 4025   4.057   0.869   1.470 -0.1719 -0.9512  1.6879
  809SOL     OW 4026   4.784   6.004   5.300 -0.0113 -0.0804  0.6003
  809SOL    HW1 4027   4.835   6.065   5.360  1.3731 -1.4014  0.8092
  809SOL    HW2 4028   4.797   5.909   5.329 -1.3688 -0.5735 -0.2743
  810SOL     OW 4029   4.810   1.231   5.430 -0.5201  0.2422  0.2856
  810SOL    HW1 4030   4.812   1.317   5.482 -1.1370  1.0534 -0.9665
  810SOL    HW2 4031   4.888   1.174   5.456  0.4663  1.6107  0.4653
  811SOL     OW 4032   6.242   2.737   4.797 -0.3139  0.4445  0.2222
  811SOL    HW1 4033   6.161   2.688   4.764  1.1378 -0.9464 -1.5041
  811SOL    HW2 4034   6.280   2.793   4.724 -0.0653  1.5993  1.2065
  812SOL     OW 4035   4.858   0.648   2.669 -0.0044 -0.1589  0.3232
  812SOL    HW1 4036   4.819   0.668   2.579 -0.8990 -0.5859  0.5971
  812SOL    HW2 4037   4.957   0.656   2.665  0.1819 -2.3201 -1.2745
  813SOL     OW 4038   5.291   2.277   1.371 -0.2997 -0.6496 -0.0396
  813SOL    HW1 4039   5.319   2.197   1.317 -2.5905 -1.5665  0.0513
  813SOL    HW2 4040   5.323   2.267   1.465 -0.7132 -1.5437  0.0088
  814SOL     OW 4041   5.034   2.727   0.900 -0.2847 -0.6218 -0.0990
  814SOL    HW1 4042   5.090   2.714   0.982  0.2628  0.6935 -0.2514
  814SOL    HW2 4043   5.094   2.741   0.821 -0.8206  0.1325 -0.3792
  815SOL     OW 4044   5.640   3.480   0.361  0.0479 -0.3949  0.4941
  815SOL    HW1 4045   5.627   3.579   0.348  0.3023 -0.4244 -0.0188
  815SOL    HW2 4046   5.555   3.433   0.341 -0.4536 -0.1719  2.0414
  816SOL     OW 4047   4.484   3.619   5.704 -0.1374  0.4431 -0.1516
  816SOL    HW1 4048   4.527   3.615   5.794 -0.3513 -0.5861 -0.0839
  816SOL    HW2 4049   4.519   3.544   5.647 -1.0594  0.2301 -0.4475
  817SOL     OW 4050   5.453   4.579   4.766  0.1874  0.0321  0.2123
  817SOL    HW1 4051   5.358   4.600   4.744  0.2471 -0.8444 -1.0008
  817SOL    HW2 4052   5.463   4.480   4.779  1.1287 -0.0311 -0.8424
  818SOL     OW 4053   1.135   5.469   1.607 -0.4277  0.0510 -0.2706
  818SOL    HW1 4054   1.180   5.463   1.696  0.5671  0.6085 -0.7112
  818SOL    HW2 4055   1.151   5.560   1.568 -0.0376 -0.4916 -1.4213
  819SOL     OW 4056   3.183   6.062   3.502  0.3966  0.0936 -0.5831
  819SOL    HW1 4057   3.199   6.034   3.407  0.4647  0.4451 -0.6753
  819SOL    HW2 4058   3.265   6.105   3.539  0.4779 -0.3280 -0.2574
  820SOL     OW 4059   3.251   5.456   0.218  0.0113  0.0926  0.4567
  820SOL    HW1 4060   3.312   5.530   0.243 -0.1816  0.5472 -0.3947
  820SOL    HW2 4061   3.240   5.453   0.119  0.9586 -1.8209  0.3648
  821SOL     OW 4062   4.813   3.991   0.520 -0.3772 -0.3315 -0.4638
  821SOL    HW1 4063   4.729   3.983   0.467 -1.1816  0.6123  0.6474
  821SOL    HW2 4064   4.798   3.958   0.613  0.6017 -0.5452 -0.3687
  822SOL     OW 4065   6.998   5.683   6.584  0.0692 -0.5456 -0.1270
  822SOL    HW1 4066   6.917   5.715   6.633  0.3601  2.4468 -1.4175
  822SOL    HW2 4067   7.069   5.660   6.651 -0.2802  1.3193  0.9658
  823SOL     OW 4068   6.146   6.957   0.664  0.8476 -0.1326  0.1789
  823SOL    HW1 4069   6.140   6.990   0.758  0.1838  2.3529 -0.6671
  823SOL    HW2 4070   6.097   6.871   0.655 -1.3747  0.9178  1.5664
  824SOL     OW 4071   0.596   1.811   6.555  0.4051 -0.1067 -0.1070
  824SOL    HW1 4072   0.688   1.775   6.569  0.6624 -0.0693 -1.5629
  824SOL    HW2 4073   0.556   1.771   6.472 -1.6823 -1.6178  1.4966
  825SOL     OW 4074   1.209   1.322   6.474 -0.7997 -0.1934 -0.1973
  825SOL    HW1 4075   1.247   1.230   6.468  0.0665  0.1570 -0.2060
  825SOL    HW2 4076   1.278   1.389   6.448 -1.1838  0.5155  0.5528
  826SOL     OW 4077   0.974   0.337   6.255  0.3581 -0.2443 -0.1079
  826SOL    HW1 4078   1.036   0.404   6.294  1.3480 -1.1250 -0.1264
  826SOL    HW2 4079   1.026   0.270   6.201 -0.7923 -0.0071 -1.5730
  827SOL     OW 4080   4.520   0.413   6.440 -0.4315  0.2417 -0.2486
  827SOL    HW1 4081   4.454   0.343   6.467 -0.1166  0.3211  0.7717
  827SOL    HW2 4082   4.503   0.440   6.345 -0.0326 -1.8196 -0.9512
  828SOL     OW 4083   6.157   6.914   1.262 -0.1741 -0.6729 -0.2550
  828SOL    HW1 4084   6.182   6.847   1.192  0.4810  0.6817 -1.3615
  828SOL    HW2 4085   6.187   6.882   1.352  0.0570 -1.8788 -0.7450
  829SOL     OW 4086   3.834   6.549   4.111  0.3134  0.4531 -0.0879
  829SOL    HW1 4087   3.770   6.473   4.119 -0.3717  1.0207 -0.0348
  829SOL    HW2 4088   3.915   6.531   4.167 -1.2507  1.1751  2.6285
  830SOL     OW 4089   6.202   0.627   3.787 -0.0244 -0.1099  0.5469
  830SOL    HW1 4090   6.145   0.652   3.865 -0.1442  0.4893  0.2755
  830SOL    HW2 4091   6.152   0.644   3.702  0.1491 -0.6408  0.3352
  831SOL     OW 4092   2.622   5.830   4.407  0.5556 -0.2673  0.2489
  831SOL    HW1 4093   2.694   5.822   4.338  1.1660 -0.4418  0.8834
  831SOL    HW2 4094   2.590   5.924   4.412  1.0858 -0.0827  0.2852
  832SOL     OW 4095   5.553   1.610   2.327 -0.7115  0.4793 -0.1311
  832SOL    HW1 4096   5.486   1.639   2.258 -0.7739 -1.2636 -0.8499
  832SOL    HW2 4097   5.611   1.688   2.352 -1.4395  1.4277 -1.2704
  833SOL     OW 4098   1.406   3.412   0.361 -0.8771  0.1868 -0.1130
  833SOL    HW1 4099   1.471   3.394   0.287 -0.7315  0.3446 -0.0242
  833SOL    HW2 4100   1.429   3.355   0.440  0.1872  1.4292  0.5248
  834SOL     OW 4101   2.923   1.457   2.814  0.1778 -0.1974 -0.4115
  834SOL    HW1 4102   2.980   1.489   2.739  0.2543 -0.8110 -0.6202
  834SOL    HW2 4103   2.977   1.402   2.877 -0.5558 -2.4485 -1.6423
  835SOL     OW 4104   3.974   5.848   1.152  0.0936  0.1131 -0.1443
  835SOL    HW1 4105   3.989   5.934   1.102 -1.2602 -0.5628 -1.7851
  835SOL    HW2 4106   4.052   5.831   1.213  1.6677  1.1322 -1.7842
  836SOL     OW 4107   2.177   0.473   5.215  0.7626  0.3447  0.3629
  836SOL    HW1 4108   2.254   0.486   5.278  2.6004  1.1734 -1.9156
  836SOL    HW2 4109   2.192   0.391   5.160 -0.2515  0.2371  0.2183
  837SOL     OW 4110   5.609   2.940   6.832  0.2664  0.4256 -0.2773
  837SOL    HW1 4111   5.644   3.021   6.879  0.3386  0.8360 -1.0291
  837SOL    HW2 4112   5.642   2.939   6.737  2.4476 -1.8409  0.3931
  838SOL     OW 4113   4.074   6.629   6.574 -0.1931 -0.5594  0.0650
  838SOL    HW1 4114   3.991   6.671   6.610  0.6564  0.7858  0.5059
  838SOL    HW2 4115   4.150   6.694   6.580  0.5605 -1.1999 -1.7715
  839SOL     OW 4116   2.957   5.885   5.146  0.0510  0.2535 -0.1022
  839SOL    HW1 4117   2.999   5.863   5.233  1.7480  1.0964 -0.6588
  839SOL    HW2 4118   2.864   5.849   5.143  0.8086 -1.9283  1.0766
  840SOL     OW 4119   0.567   5.645   0.347  0.3152  0.3994  0.1459
  840SOL    HW1 4120   0.561   5.687   0.257 -0.9704 -0.1319 -0.0251
  840SOL    HW2 4121   0.524   5.555   0.346  2.0761 -0.5105  0.7875
  841SOL     OW 4122   5.845   2.392   4.018 -0.1201  0.2952 -0.5597
  841SOL    HW1 4123   5.817   2.324   4.086  1.7165 -0.1703 -0.1863
  841SOL    HW2 4124   5.769   2.414   3.958 -1.6899  0.4008  1.3799
  842SOL     OW 4125   4.773   4.557   1.911  0.4273 -0.2494 -0.6472
  842SOL    HW1 4126   4.683   4.596   1.891  1.0976  1.0228 -1.2811
  842SOL    HW2 4127   4.817   4.610   1.984  1.3621  0.2421 -1.5399
  843SOL     OW 4128   4.713   5.968   1.428  0.0449 -0.0798  0.4672
  843SOL    HW1 4129   4.785   5.977   1.359 -1.5510 -1.8069 -1.5838
  843SOL    HW2 4130   4.754   5.942   1.516  1.9946  0.3180 -0.2698
  844SOL     OW 4131   3.480   1.618   0.062  0.3531  0.2397 -0.0792
  844SOL    HW1 4132   3.481   1.526   0.101  0.1609  0.5230  0.6048
  844SOL    HW2 4133   3.509   1.614  -0.034 -2.0037 -0.8601 -0.8127
  845SOL     OW 4134   7.003   5.061   6.508  0.3197 -0.3213 -0.0510
  845SOL    HW1 4135   6.918   5.098   6.471  0.7875  1.5344  0.6124
  845SOL    HW2 4136   6.983   5.004   6.588 -0.2750  0.6231  0.4841
  846SOL     OW 4137   1.950   6.178   6.927 -0.2491 -0.3476 -0.2103
  846SOL    HW1 4138   1.888   6.125   6.985 -1.8268  0.8650 -0.7091
  846SOL    HW2 4139   1.896   6.230   6.860  1.2945  1.0971 -0.3863
  847SOL     OW 4140   1.289   3.450   2.043  0.0198 -0.1955 -0.1033
  847SOL    HW1 4141   1.270   3.352   2.042  0.6351 -0.3511  0.9936
  847SOL    HW2 4142   1.365   3.470   1.981  0.8395 -0.6631  0.7002
  848SOL     OW 4143   4.931   1.190   0.508  0.0393  0.3315  0.4636
  848SOL    HW1 4144   4.906   1.147   0.422 -1.0495 -0.7480  1.2847
  848SOL    HW2 4145   4.856   1.249   0.539  0.3262  0.5329  0.7921
  849SOL     OW 4146   6.994   4.498   6.607  0.4041 -0.4384 -0.4322
  849SOL    HW1 4147   7.026   4.518   6.514  0.3849  0.0383 -0.3353
  849SOL    HW2 4148   6.900   4.464   6.602  0.2920 -0.1085 -0.5573
  850SOL     OW 4149   5.609   6.115   6.113 -0.0128 -0.3828 -0.4866
  850SOL    HW1 4150   5.514   6.091   6.133 -0.0194  0.5528  0.7150
  850SOL    HW2 4151   5.611   6.188   6.044 -0.1831 -0.2290 -0.3317
  851SOL     OW 4152   1.563   5.006   0.126  0.3206 -0.2178 -0.2112
  851SOL    HW1 4153   1.601   4.921   0.163 -0.6813  0.3104  2.2302
  851SOL    HW2 4154   1.624   5.082   0.148  0.6203 -0.1108 -1.3406
  852SOL     OW 4155   4.171   6.070   1.293  0.0402 -0.0988 -0.2775
  852SOL    HW1 4156   4.216   6.153   1.327 -1.1798  0.1574  0.8414
  852SOL    HW2 4157   4.181   6.064   1.194 -2.0624  2.8625 -0.8092
  853SOL     OW 4158   3.068   0.803   1.575 -0.3388  0.2587  0.6853
  853SOL    HW1 4159   3.132   0.730   1.554 -1.1128 -0.2009 -0.1610
  853SOL    HW2 4160   3.108   0.864   1.643  1.3160  0.4282 -0.3854
  854SOL     OW 4161   1.527   3.117   0.038 -0.5941 -0.3777 -0.1855
  854SOL    HW1 4162   1.565   3.190   0.096 -0.0931 -1.3561  0.7487
  854SOL    HW2 4163   1.473   3.055   0.095  1.4813 -2.4535 -0.3586
  855SOL     OW 4164   5.335   2.804   2.013  0.3151 -0.2708  0.6108
  855SOL    HW1 4165   5.296   2.723   2.056 -1.3237 -0.2546 -0.7090
  855SOL    HW2 4166   5.299   2.886   2.058 -0.3798 -0.2723  0.0872
  856SOL     OW 4167   1.081   2.220   4.453  0.5001  0.0462 -0.2090
  856SOL    HW1 4168   1.002   2.182   4.404  1.7973  0.8172 -3.1124
  856SOL    HW2 4169   1.099   2.313   4.419  2.3419  0.0832  0.7783
  857SOL     OW 4170   2.252   1.837   1.506  0.6158  0.1037  0.1737
  857SOL    HW1 4171   2.196   1.920   1.503 -0.5932 -0.6674  0.5456
  857SOL    HW2 4172   2.206   1.768   1.562  1.7386 -0.7272  0.1143
  858SOL     OW 4173   1.829   6.611   1.298 -0.1200  0.1318  0.0868
  858SOL    HW1 4174   1.796   6.545   1.365  1.4454  0.1026  0.8519
  858SOL    HW2 4175   1.928   6.620   1.304  0.3833 -1.3105 -3.5569
  859SOL     OW 4176   1.517   5.035   4.600 -0.2310 -0.1156  0.1506
  859SOL    HW1 4177   1.543   4.942   4.575  0.6414  0.2175 -0.2284
  859SOL    HW2 4178   1.507   5.091   4.518 -2.1183 -0.2050  0.2925
  860SOL     OW 4179   5.973   6.108   4.306  0.0940 -0.1327 -0.3323
  860SOL    HW1 4180   6.050   6.052   4.337  0.4635 -0.7537 -2.2609
  860SOL    HW2 4181   5.954   6.178   4.375  0.3027 -1.9166  1.6436
  861SOL     OW 4182   1.944   6.513   2.706 -0.0586 -0.2527 -0.0264
  861SOL    HW1 4183   1.937   6.529   2.607 -1.1477 -0.5937 -0.0155
  861SOL    HW2 4184   1.947   6.601   2.754  0.3821 -0.0847 -0.3553
  862SOL     OW 4185   0.385   0.140   7.003  0.5301  0.6866  0.1075
  862SOL    HW1 4186   0.480   0.168   6.987  0.1303  0.8460 -2.3291
  862SOL    HW2 4187   0.382   0.077   7.081  2.7438  0.1716 -0.1459
  863SOL     OW 4188   1.755   5.749   1.349 -0.3705 -0.3777  0.0450
  863SOL    HW1 4189   1.764   5.710   1.257 -0.1844 -0.6590  0.1803
  863SOL    HW2 4190   1.659   5.747   1.377 -0.6487  1.0836 -0.7336
  864SOL     OW 4191   6.392   6.728   5.692 -0.2681  0.6810 -0.1019
  864SOL    HW1 4192   6.341   6.783   5.759 -3.8365 -1.3228 -0.8803
  864SOL    HW2 4193   6.364   6.754   5.600  1.7300  0.8462 -0.6983
  865SOL     OW 4194   2.113   5.845   5.804 -0.0180  0.1328 -0.0381
  865SOL    HW1 4195   2.118   5.756   5.850  0.5890 -0.5028 -1.2840
  865SOL    HW2 4196   2.083   5.832   5.710 -2.0242  1.4942  0.3553
  866SOL     OW 4197   6.887   6.655   6.346  0.0836 -0.4424 -0.2061
  866SOL    HW1 4198   6.870   6.744   6.304 -1.2782  0.1790  1.5077
  866SOL    HW2 4199   6.977   6.621   6.318 -1.0511 -0.5825 -4.3072
  867SOL     OW 4200   0.110   3.453   5.243  0.6901 -0.2549 -0.0023
  867SOL    HW1 4201   0.060   3.445   5.157 -0.1545 -1.1416  0.5440
  867SOL    HW2 4202   0.182   3.522   5.234 -1.1685  1.7480 -0.5716
  868SOL     OW 4203   6.144   3.323   3.106  0.1153  0.4493  0.3736
  868SOL    HW1 4204   6.179   3.287   3.019  1.6077  2.6456 -0.0086
  868SOL    HW2 4205   6.094   3.408   3.089 -2.5777 -0.8125  1.3406
  869SOL     OW 4206   4.927   5.260   6.746 -0.3957  0.0369 -0.2043
  869SOL    HW1 4207   4.953   5.295   6.836 -3.7760  0.3662  0.7993
  869SOL    HW2 4208   4.839   5.300   6.719  0.7891  0.4135 -3.9911
  870SOL     OW 4209   0.965   1.106   3.632  0.2710  0.2719 -0.5446
  870SOL    HW1 4210   1.034   1.081   3.701 -0.9907 -0.1897  0.6012
  870SOL    HW2 4211   0.995   1.187   3.582  0.7337  1.3038  1.3216
  871SOL     OW 4212   6.313   6.866   4.229  0.3952  0.6301  0.1441
  871SOL    HW1 4213   6.289   6.866   4.132 -1.2437  1.6575  0.5034
  871SOL    HW2 4214   6.291   6.955   4.268  1.1504  0.2707  1.4419
  872SOL     OW 4215   6.186   1.953   5.468 -0.0654  0.0266 -0.1217
  872SOL    HW1 4216   6.087   1.937   5.465 -0.1751  0.6676 -0.1807
  872SOL    HW2 4217   6.228   1.919   5.384 -0.5196  1.4835 -0.9784
  873SOL     OW 4218   5.853   4.159   2.237  0.4747  0.4393 -0.7081
  873SOL    HW1 4219   5.773   4.218   2.243 -0.6444 -1.1224  0.5847
  873SOL    HW2 4220   5.899   4.156   2.326  1.0145  0.0156 -0.9925
  874SOL     OW 4221   3.055   0.351   4.137 -0.4411 -0.1841 -0.9136
  874SOL    HW1 4222   3.142   0.355   4.186 -1.8012  0.9331  1.5887
  874SOL    HW2 4223   3.057   0.415   4.060  0.7992  0.1205 -0.6488
  875SOL     OW 4224   5.741   2.603   4.620 -0.4217 -0.0408 -0.7409
  875SOL    HW1 4225   5.738   2.666   4.542  0.8107 -0.5054 -1.1893
  875SOL    HW2 4226   5.693   2.518   4.596 -2.0435  0.6818 -0.1520
  876SOL     OW 4227   0.968   5.915   1.110 -0.3088  0.4600  0.6318
  876SOL    HW1 4228   0.993   5.887   1.018  0.3645 -1.0019  1.2274
  876SOL    HW2 4229   1.004   6.007   1.128  2.4117 -0.4734  0.5113
  877SOL     OW 4230   0.882   1.631   0.104 -0.6505 -0.0196  1.1452
  877SOL    HW1 4231   0.813   1.590   0.164 -0.6014 -2.3320 -0.2709
  877SOL    HW2 4232   0.844   1.642   0.012 -0.3320  2.3384  1.2282
  878SOL     OW 4233   0.958   2.398   2.515 -0.6343  0.0574 -0.1347
  878SOL    HW1 4234   0.984   2.338   2.591 -0.4302 -1.8626 -1.6257
  878SOL    HW2 4235   1.036   2.455   2.489 -0.8228  1.0302  1.2930
  879SOL     OW 4236   0.585   0.830   2.799 -0.3091 -0.0835  0.1372
  879SOL    HW1 4237   0.644   0.768   2.851 -0.4564  1.0282  1.7074
  879SOL    HW2 4238   0.622   0.842   2.707  0.8738 -0.8476  0.4898
  880SOL     OW 4239   5.602   5.808   6.028 -0.0589 -0.4169  0.4047
  880SOL    HW1 4240   5.678   5.787   6.089 -0.2736  1.2818  1.3196
  880SOL    HW2 4241   5.567   5.723   5.988  1.8282 -1.2878  0.5196
  881SOL     OW 4242   4.056   0.426   4.977 -0.0459 -0.1684 -0.1938
  881SOL    HW1 4243   3.984   0.458   4.916 -0.2260  0.7576  0.4776
  881SOL    HW2 4244   4.051   0.475   5.064  1.6104  0.1810 -0.2530
  882SOL     OW 4245   1.275   4.925   4.401 -0.2325 -0.3224 -0.0607
  882SOL    HW1 4246   1.203   4.992   4.383  0.0665  0.0476  0.1026
  882SOL    HW2 4247   1.256   4.876   4.486 -0.4182 -0.3991 -0.1468
  883SOL     OW 4248   5.387   4.646   0.511  0.5758  0.4714 -0.0548
  883SOL    HW1 4249   5.465   4.597   0.472 -1.1324 -1.1955 -1.5498
  883SOL    HW2 4250   5.315   4.581   0.535 -0.7908  2.0556  0.3103
  884SOL     OW 4251   0.891   5.481   4.820 -0.0882  0.5083  0.2225
  884SOL    HW1 4252   0.951   5.440   4.752  1.2842 -0.6897  2.0623
  884SOL    HW2 4253   0.805   5.429   4.825  0.5694 -0.5667  0.6839
  885SOL     OW 4254   0.401   6.862   1.572  0.3108 -0.4215 -0.0642
  885SOL    HW1 4255   0.371   6.945   1.524 -0.6123 -0.8657 -0.2868
  885SOL    HW2 4256   0.483   6.826   1.527  0.3429  0.0185 -0.3660
  886SOL     OW 4257   3.973   6.282   4.792 -0.1662  0.1254 -0.3376
  886SOL    HW1 4258   3.893   6.319   4.745 -1.0044  1.4459  1.9757
  886SOL    HW2 4259   3.950   6.193   4.831  0.4119 -0.7884 -1.9582
  887SOL     OW 4260   6.863   0.906   3.864  0.0430 -0.6862  0.3221
  887SOL    HW1 4261   6.856   0.976   3.935  2.3794  0.5462 -0.5631
  887SOL    HW2 4262   6.956   0.871   3.860 -0.9804 -3.8471  0.6167
  888SOL     OW 4263   2.369   3.519   0.172  0.6962 -0.0619  0.2509
  888SOL    HW1 4264   2.396   3.433   0.215 -0.8157 -0.7000 -0.0102
  888SOL    HW2 4265   2.409   3.525   0.081  0.9848 -0.3797  0.3541
  889SOL     OW 4266   6.126   4.628   5.856  0.0676  0.0975 -0.6207
  889SOL    HW1 4267   6.132   4.685   5.937  1.1627 -2.5666  1.3416
  889SOL    HW2 4268   6.030   4.615   5.831 -0.2757  1.0997  0.1332
  890SOL     OW 4269   5.870   3.275   0.953  0.8453 -0.3423  0.4355
  890SOL    HW1 4270   5.823   3.360   0.972 -1.3355 -1.1617 -0.8909
  890SOL    HW2 4271   5.878   3.221   1.037 -0.1081  0.0529  0.7877
  891SOL     OW 4272   1.679   4.893   1.585  0.3274 -0.1591  0.1213
  891SOL    HW1 4273   1.602   4.944   1.623 -0.9672 -1.4469 -0.6375
  891SOL    HW2 4274   1.665   4.881   1.487  1.1440 -1.0072  0.0948
  892SOL     OW 4275   0.205   0.551   4.002  0.2213  0.6812 -0.1365
  892SOL    HW1 4276   0.284   0.498   3.971  0.3538 -0.5537  2.0980
  892SOL    HW2 4277   0.236   0.633   4.049  0.0731  1.4400 -1.3211
  893SOL     OW 4278   0.134   5.190   3.036 -0.0221  0.4280  0.3217
  893SOL    HW1 4279   0.124   5.171   3.134 -1.5435 -3.1812 -0.3715
  893SOL    HW2 4280   0.217   5.145   3.002 -0.1799  0.5706 -0.2538
  894SOL     OW 4281   2.654   6.011   1.268 -0.9271  0.0646  0.3215
  894SOL    HW1 4282   2.655   6.056   1.357  0.7865 -2.5778  1.7606
  894SOL    HW2 4283   2.740   5.962   1.254 -2.2105 -1.8418 -1.5644
  895SOL     OW 4284   1.415   0.638   1.961 -0.2978  0.3372  0.6673
  895SOL    HW1 4285   1.488   0.588   2.008  0.0982  0.5659  0.3045
  895SOL    HW2 4286   1.410   0.608   1.865 -1.6712 -0.7532  1.0370
  896SOL     OW 4287   0.097   3.321   4.827 -0.1789  0.2820 -0.8268
  896SOL    HW1 4288   0.018   3.301   4.769  0.9390  0.6483 -2.5718
  896SOL    HW2 4289   0.141   3.235   4.854 -1.6819  0.0147  1.0146
  897SOL     OW 4290   1.422   2.225   5.175  0.3742  0.1174 -0.0991
  897SOL    HW1 4291   1.464   2.139   5.148  2.0393  0.1163  2.2261
  897SOL    HW2 4292   1.360   2.256   5.103  0.7028 -2.3466 -1.5373
  898SOL     OW 4293   6.146   1.491   3.989  0.3275 -0.6897  0.2097
  898SOL    HW1 4294   6.134   1.466   3.893  0.1823  1.5384 -0.4005
  898SOL    HW2 4295   6.241   1.518   4.004 -0.0261  0.5573  0.2715
  899SOL     OW 4296   6.581   3.626   1.893  0.1855  0.2399  0.4016
  899SOL    HW1 4297   6.546   3.713   1.927  0.0884 -0.7781  3.1310
  899SOL    HW2 4298   6.630   3.641   1.807 -1.1758  2.7002 -0.0384
  900SOL     OW 4299   4.630   6.124   3.652  0.2346  0.1920 -0.6744
  900SOL    HW1 4300   4.589   6.078   3.730  2.1738 -1.9051 -0.7917
  900SOL    HW2 4301   4.568   6.117   3.573 -1.4398  1.7624  0.3943
  901SOL     OW 4302   3.860   6.010   4.855 -0.7084  0.0001 -0.0177
  901SOL    HW1 4303   3.816   5.948   4.789 -1.6391  0.0165  0.5639
  901SOL    HW2 4304   3.928   5.960   4.907 -1.0465 -0.3973  0.0504
  902SOL     OW 4305   1.500   3.222   0.546 -0.2418 -0.5046 -0.3101
  902SOL    HW1 4306   1.525   3.262   0.634  1.3600 -1.5959 -0.2392
  902SOL    HW2 4307   1.402   3.199   0.548 -0.1441 -0.9742  1.3841
  903SOL     OW 4308   6.733   4.396   2.823  0.1890 -0.6414  0.1705
  903SOL    HW1 4309   6.636   4.379   2.843 -0.6189  1.1822 -1.8268
  903SOL    HW2 4310   6.780   4.420   2.908 -2.2642  3.2019  0.7019
  904SOL     OW 4311   3.806   3.748   6.646  0.2862 -0.7387 -0.2428
  904SOL    HW1 4312   3.714   3.783   6.662  0.7931  0.4960  0.0756
  904SOL    HW2 4313   3.855   3.811   6.585  1.1788 -0.9776  0.2181
  905SOL     OW 4314   6.346   3.771   4.934  0.3386 -0.0108 -0.5806
  905SOL    HW1 4315   6.254   3.765   4.972  0.6137 -0.2673  0.0674
  905SOL    HW2 4316   6.341   3.794   4.837 -0.4116 -0.2449 -0.6016
  906SOL     OW 4317   4.315   0.479   0.388  0.1299 -0.0533 -0.4592
  906SOL    HW1 4318   4.281   0.465   0.295 -0.3828  2.1879 -0.6535
  906SOL    HW2 4319   4.305   0.575   0.413 -0.2108 -0.6904  2.1071
  907SOL     OW 4320   4.956   2.097   0.816 -0.7028 -0.3256  0.0165
  907SOL    HW1 4321   4.871   2.114   0.866 -0.4550 -1.9402  1.0587
  907SOL    HW2 4322   4.935   2.048   0.731 -0.7703 -1.7789  0.8299
  908SOL     OW 4323   4.396   6.516   3.835  0.2867 -0.0060 -0.1494
  908SOL    HW1 4324   4.382   6.531   3.737  1.5379  4.0682  0.0937
  908SOL    HW2 4325   4.479   6.563   3.864 -1.1641  0.7732  3.2045
  909SOL     OW 4326   3.263   5.640   5.340  0.1352  0.1273  0.1446
  909SOL    HW1 4327   3.181   5.583   5.339  0.9906 -1.1694 -1.5835
  909SOL    HW2 4328   3.341   5.585   5.368  0.8717  0.5850 -0.9289
  910SOL     OW 4329   1.281   3.806   3.181  0.0226 -0.3786 -0.4131
  910SOL    HW1 4330   1.352   3.790   3.249 -0.7448  2.1405  1.1104
  910SOL    HW2 4331   1.192   3.784   3.220 -0.3129 -0.4578 -1.1958
  911SOL     OW 4332   0.318   6.118   5.829  0.0666  0.7596  0.2422
  911SOL    HW1 4333   0.413   6.103   5.855 -0.5269 -0.1434  2.1249
  911SOL    HW2 4334   0.299   6.216   5.825  1.5455  1.0306 -2.2570
  912SOL     OW 4335   6.320   0.217   2.305 -0.2153  0.5064  0.5118
  912SOL    HW1 4336   6.294   0.306   2.265 -1.5163  0.7632  1.8579
  912SOL    HW2 4337   6.340   0.228   2.402 -0.7816 -0.7223  0.7952
  913SOL     OW 4338   1.673   2.264   5.266  0.2340 -0.0594  0.6561
  913SOL    HW1 4339   1.574   2.247   5.258 -0.0477  1.3630  0.8601
  913SOL    HW2 4340   1.722   2.177   5.256 -0.9791 -0.6658 -0.3419
  914SOL     OW 4341   3.990   1.309   6.034 -0.1523 -0.2881  0.3079
  914SOL    HW1 4342   4.064   1.252   5.997 -0.2777  0.3831 -1.0374
  914SOL    HW2 4343   3.930   1.252   6.090  1.1628 -0.9267  1.1372
  915SOL     OW 4344   0.407   0.713   2.299 -0.4931  0.2513 -0.0148
  915SOL    HW1 4345   0.319   0.706   2.346  0.1158 -2.9949  0.9174
  915SOL    HW2 4346   0.405   0.658   2.216  0.8725 -0.5476  0.4496
  916SOL     OW 4347   4.899   4.908   4.977 -0.0396 -0.1886 -0.4831
  916SOL    HW1 4348   4.857   4.834   4.924  0.4368  0.0106 -1.1554
  916SOL    HW2 4349   4.988   4.878   5.011 -0.3458 -0.3162  0.2181
  917SOL     OW 4350   4.041   4.261   5.541  0.1511 -0.1847  0.1164
  917SOL    HW1 4351   4.080   4.347   5.506 -1.1830  0.2227 -0.4259
  917SOL    HW2 4352   4.087   4.184   5.496 -1.2310  0.3238 -2.3497
  918SOL     OW 4353   2.889   4.529   6.714  0.0262 -0.3470  0.0874
  918SOL    HW1 4354   2.923   4.495   6.801  0.1967 -1.8600 -0.5295
  918SOL    HW2 4355   2.939   4.611   6.688 -1.3210  1.2931  2.2872
  919SOL     OW 4356   2.299   2.439   6.349  0.2000  0.1031 -0.1278
  919SOL    HW1 4357   2.202   2.461   6.339  0.2147  0.1720 -0.1178
  919SOL    HW2 4358   2.322   2.361   6.291 -0.2793 -1.0955  1.2173
  920SOL     OW 4359   5.435   6.873   3.472  0.5993  0.1029  0.0212
  920SOL    HW1 4360   5.495   6.930   3.414 -0.1079  1.1668  0.3079
  920SOL    HW2 4361   5.491   6.821   3.537  1.1674  2.4646  1.5398
  921SOL     OW 4362   6.540   1.806   3.186  0.0943  0.4876 -0.5009
  921SOL    HW1 4363   6.520   1.711   3.163  1.4483  0.1116 -0.2258
  921SOL    HW2 4364   6.637   1.814   3.212 -0.2839  1.7172  0.6348
  922SOL     OW 4365   0.957   0.946   0.869  0.7271 -0.0039 -0.1918
  922SOL    HW1 4366   0.980   1.019   0.934  1.0750 -1.0214  0.8538
  922SOL    HW2 4367   1.023   0.945   0.794  0.9640  0.4798  0.0109
  923SOL     OW 4368   0.902   3.888   1.209  0.0674  0.4632 -0.4495
  923SOL    HW1 4369   0.930   3.978   1.174  1.9790 -0.4066 -1.3154
  923SOL    HW2 4370   0.956   3.817   1.163 -1.4404 -1.1433  0.1857
  924SOL     OW 4371   5.930   0.387   0.424  0.1883  0.3428  0.1038
  924SOL    HW1 4372   5.888   0.436   0.500 -1.5113 -0.6162 -0.1489
  924SOL    HW2 4373   5.939   0.290   0.447  0.1032  0.1255 -0.7217
  925SOL     OW 4374   0.067   6.759   0.978 -0.1202 -0.0299  0.6121
  925SOL    HW1 4375   0.100   6.793   0.890  0.1653 -1.2236  0.2251
  925SOL    HW2 4376  -0.033   6.753   0.977 -0.1403  0.3352  0.5118
  926SOL     OW 4377   3.711   3.661   5.601 -0.0579  0.0185 -0.0570
  926SOL    HW1 4378   3.693   3.757   5.577 -2.2853 -0.2694  0.2496
  926SOL    HW2 4379   3.672   3.642   5.691  3.1688 -0.4072  1.3887
  927SOL     OW 4380   5.654   3.936   3.313 -0.4543  0.0405  0.4303
  927SOL    HW1 4381   5.744   3.903   3.284  0.1218  1.9244 -0.0922
  927SOL    HW2 4382   5.659   3.967   3.408 -0.5231  0.1987  0.3835
  928SOL     OW 4383   3.912   5.859   3.640  0.6273  0.0083 -0.2667
  928SOL    HW1 4384   3.924   5.842   3.737 -2.0334 -1.8845 -0.1714
  928SOL    HW2 4385   3.897   5.957   3.624 -0.9550  0.1013  1.5215
  929SOL     OW 4386   4.918   2.394   0.534  0.3097  0.3575  0.4219
  929SOL    HW1 4387   4.891   2.319   0.475  0.6056  0.7182 -0.1852
  929SOL    HW2 4388   4.970   2.359   0.612 -0.4439 -0.1642  0.7060
  930SOL     OW 4389   1.336   5.429   5.438  0.3693 -0.5270  0.0869
  930SOL    HW1 4390   1.293   5.474   5.516 -2.6405 -1.1413 -1.0908
  930SOL    HW2 4391   1.405   5.489   5.398  1.2165  0.2184  2.5219
  931SOL     OW 4392   0.464   1.537   7.006  0.2672 -0.6869 -0.2222
  931SOL    HW1 4393   0.492   1.632   6.997 -2.1854  0.0863 -0.7156
  931SOL    HW2 4394   0.529   1.478   6.958  0.3915  1.0403 -2.3440
  932SOL     OW 4395   2.332   4.237   5.170  0.4616  0.6723  0.1697
  932SOL    HW1 4396   2.345   4.165   5.101  0.6335 -0.2399  1.1373
  932SOL    HW2 4397   2.392   4.314   5.149 -0.1602  0.8192 -1.2288
  933SOL     OW 4398   4.356   5.175   6.189  0.0253 -0.7814  0.2967
  933SOL    HW1 4399   4.259   5.198   6.192  0.1130 -0.3169 -0.2986
  933SOL    HW2 4400   4.404   5.239   6.129  0.3437 -2.2732 -1.0927
  934SOL     OW 4401   0.819   5.085   0.698  0.0614  0.4780 -0.2610
  934SOL    HW1 4402   0.908   5.128   0.685 -0.5230  1.5550 -0.8369
  934SOL    HW2 4403   0.770   5.081   0.611 -0.0617 -1.0545 -0.1587
  935SOL     OW 4404   2.141   1.706   0.614 -0.3563  0.7842  0.2453
  935SOL    HW1 4405   2.071   1.660   0.560 -0.3271 -1.5312  2.0350
  935SOL    HW2 4406   2.231   1.690   0.574 -0.4633  0.2142  0.2253
  936SOL     OW 4407   6.777   2.837   4.811  0.6548 -0.1618 -0.8063
  936SOL    HW1 4408   6.693   2.785   4.829  0.8146  0.3708  1.7817
  936SOL    HW2 4409   6.757   2.935   4.811  1.3297  0.0074  0.5201
  937SOL     OW 4410   0.864   0.229   3.407 -0.3656 -0.1895  0.1194
  937SOL    HW1 4411   0.838   0.137   3.377  1.5909 -1.8856  3.0745
  937SOL    HW2 4412   0.802   0.259   3.479 -1.6431  1.3818 -1.5448
  938SOL     OW 4413   6.326   0.872   0.594  0.2249 -0.4830 -0.1540
  938SOL    HW1 4414   6.390   0.924   0.652  1.1808 -0.3834 -1.2627
  938SOL    HW2 4415   6.248   0.930   0.570  0.2243 -0.2650  0.3634
  939SOL     OW 4416   2.541   1.050   6.306 -0.2762  0.4840  0.1682
  939SOL    HW1 4417   2.549   1.128   6.244  0.2390  2.0071  2.0126
  939SOL    HW2 4418   2.616   1.053   6.373 -1.4001 -0.4227  1.5307
  940SOL     OW 4419   4.868   1.466   4.037  0.2580  0.5090 -0.4667
  940SOL    HW1 4420   4.789   1.471   4.098 -0.4871 -1.3856 -1.2091
  940SOL    HW2 4421   4.951   1.453   4.092 -0.3200 -0.5540  0.2020
  941SOL     OW 4422   2.406   3.479   5.561  0.3603 -0.0434  0.1506
  941SOL    HW1 4423   2.342   3.484   5.484 -0.4398 -1.5498  0.6854
  941SOL    HW2 4424   2.400   3.563   5.614 -0.8851  0.0039 -0.0365
  942SOL     OW 4425   4.434   0.339   1.330 -0.2987  0.0098 -0.0062
  942SOL    HW1 4426   4.444   0.244   1.297 -1.5196 -0.2233  0.2775
  942SOL    HW2 4427   4.382   0.340   1.415 -0.3521  0.9516 -0.0416
  943SOL     OW 4428   4.471   3.645   6.597 -0.6249  0.6922 -0.3322
  943SOL    HW1 4429   4.554   3.636   6.542 -0.6583 -0.4193 -0.2302
  943SOL    HW2 4430   4.467   3.571   6.664 -1.6479  0.7908 -0.2688
  944SOL     OW 4431   4.363   6.753   4.256  0.2593  0.0270  0.2936
  944SOL    HW1 4432   4.451   6.706   4.252 -1.4554 -3.4570 -2.8340
  944SOL    HW2 4433   4.325   6.745   4.348  2.8500  1.0568  1.5274
  945SOL     OW 4434   6.017   0.283   1.236 -0.3599 -0.0296 -0.0381
  945SOL    HW1 4435   5.987   0.329   1.320 -0.8717  0.5196 -0.5173
  945SOL    HW2 4436   6.098   0.329   1.201 -1.2729  0.9652 -0.8958
  946SOL     OW 4437   1.562   0.502   2.710 -0.3755 -0.1223  0.6017
  946SOL    HW1 4438   1.560   0.495   2.610 -3.3823 -1.7160  0.6605
  946SOL    HW2 4439   1.542   0.596   2.737  1.8716  0.6593 -0.2289
  947SOL     OW 4440   5.511   6.798   2.006 -0.0111 -0.5978 -0.0297
  947SOL    HW1 4441   5.433   6.738   2.026  0.3393 -0.6462  1.2858
  947SOL    HW2 4442   5.539   6.785   1.911 -1.4861 -0.7142 -0.4773
  948SOL     OW 4443   0.805   2.494   0.233 -0.2618 -0.4025 -0.5405
  948SOL    HW1 4444   0.851   2.583   0.237  0.1941 -0.6673  0.4639
  948SOL    HW2 4445   0.862   2.429   0.183  0.1264 -0.5302  0.0564
  949SOL     OW 4446   4.479   5.417   4.907 -0.2690  0.1358  0.1343
  949SOL    HW1 4447   4.421   5.461   4.838 -1.3200 -0.1250  0.8426
  949SOL    HW2 4448   4.440   5.430   4.998 -0.0272 -1.3476  0.4738
  950SOL     OW 4449   5.297   4.149   3.185 -0.2715 -0.4258  0.2113
  950SOL    HW1 4450   5.326   4.086   3.257 -0.7446  2.0472  2.7382
  950SOL    HW2 4451   5.198   4.142   3.172 -0.5355  0.6238  1.4423
  951SOL     OW 4452   6.138   2.657   3.573 -0.2927 -0.1431  0.2722
  951SOL    HW1 4453   6.178   2.743   3.542 -1.5462  0.2946 -0.2244
  951SOL    HW2 4454   6.077   2.676   3.650  0.9949 -0.8968  1.5223
  952SOL     OW 4455   5.311   6.599   5.571  0.1018  0.2850  0.3238
  952SOL    HW1 4456   5.260   6.581   5.487 -1.1343  0.4149  1.0279
  952SOL    HW2 4457   5.289   6.528   5.638 -1.3552  1.8654  1.5926
  953SOL     OW 4458   3.111   1.944   2.873 -0.2562  0.0033  0.3915
  953SOL    HW1 4459   3.043   1.928   2.944 -0.0080  1.4338  0.9705
  953SOL    HW2 4460   3.192   1.985   2.913 -0.2884  1.2780 -0.7860
  954SOL     OW 4461   4.726   2.652   4.761 -0.5086  0.4728  0.2243
  954SOL    HW1 4462   4.687   2.602   4.838  1.5018 -1.2119  0.2359
  954SOL    HW2 4463   4.799   2.598   4.720  2.1028  3.4902  0.4666
  955SOL     OW 4464   0.623   0.407   0.287 -0.2585 -0.3781  0.6107
  955SOL    HW1 4465   0.704   0.375   0.335  0.3446 -1.6312 -1.1335
  955SOL    HW2 4466   0.590   0.335   0.225 -0.4516  1.4174 -1.5108
  956SOL     OW 4467   2.337   6.147   1.096  0.0968 -0.0275 -0.3624
  956SOL    HW1 4468   2.333   6.089   1.178  0.0342  2.3586  1.4136
  956SOL    HW2 4469   2.432   6.171   1.077  0.0648 -0.1539 -0.6811
  957SOL     OW 4470   0.848   2.817   6.604 -0.1501  0.4992  0.1363
  957SOL    HW1 4471   0.846   2.909   6.645  0.9321  1.2623 -1.4199
  957SOL    HW2 4472   0.936   2.804   6.558 -0.4794 -1.1662 -0.0622
  958SOL     OW 4473   1.126   4.701   4.895 -0.0662 -0.3313 -0.4337
  958SOL    HW1 4474   1.079   4.693   4.982  1.7274 -1.7561  0.4716
  958SOL    HW2 4475   1.129   4.611   4.850 -0.5171  0.2786 -1.7422
  959SOL     OW 4476   1.151   4.564   1.246 -0.2327  0.3617 -0.0502
  959SOL    HW1 4477   1.206   4.492   1.289 -1.7135 -0.1249  1.1111
  959SOL    HW2 4478   1.206   4.610   1.176  1.3416 -0.6794  0.4369
  960SOL     OW 4479   3.208   2.046   6.123  0.0722 -0.3770 -0.0087
  960SOL    HW1 4480   3.112   2.024   6.138  0.4260 -1.2380  1.1785
  960SOL    HW2 4481   3.254   1.967   6.081  0.2730  0.0153 -0.5355
  961SOL     OW 4482   6.235   0.062   4.354  0.4039  0.1593 -1.0803
  961SOL    HW1 4483   6.294   0.142   4.352  0.3643  0.2739  0.8006
  961SOL    HW2 4484   6.213   0.039   4.448 -0.4717 -1.4286 -1.6317
  962SOL     OW 4485   4.265   0.125   3.728  0.6228  0.2329 -0.0390
  962SOL    HW1 4486   4.329   0.165   3.662  0.0758  2.7846  0.8545
  962SOL    HW2 4487   4.172   0.138   3.696  0.3923  0.6964  0.7889
  963SOL     OW 4488   4.890   1.673   3.150 -0.0993 -0.8579 -0.2289
  963SOL    HW1 4489   4.973   1.678   3.206 -0.2806  0.2842 -0.0248
  963SOL    HW2 4490   4.902   1.607   3.076  1.9667  1.0760 -1.7419
  964SOL     OW 4491   6.545   2.938   4.175  0.4368 -0.0042 -0.3136
  964SOL    HW1 4492   6.502   2.935   4.085  0.0996 -1.4421 -0.1328
  964SOL    HW2 4493   6.533   3.029   4.215 -0.7489  0.2046 -1.0921
  965SOL     OW 4494   0.503   3.028   3.691 -0.4868  0.8600  0.5004
  965SOL    HW1 4495   0.573   3.046   3.623 -0.6358  3.5251  0.9121
  965SOL    HW2 4496   0.415   3.064   3.659 -1.9624 -3.0760 -0.3403
  966SOL     OW 4497   3.651   6.117   6.816  0.4008  0.1037  0.5777
  966SOL    HW1 4498   3.671   6.078   6.726  1.7207  0.0436  0.8727
  966SOL    HW2 4499   3.553   6.132   6.825  0.0796 -1.2594 -0.3122
  967SOL     OW 4500   3.649   2.203   1.385 -0.1167  0.3054  0.6080
  967SOL    HW1 4501   3.703   2.133   1.433 -1.3823 -0.8392  0.4322
  967SOL    HW2 4502   3.710   2.263   1.334  0.9510 -1.5685 -0.4228
  968SOL     OW 4503   3.824   2.669   5.965  0.2385  0.2789  0.3548
  968SOL    HW1 4504   3.861   2.595   5.908 -0.3703 -0.3853  0.7922
  968SOL    HW2 4505   3.729   2.687   5.939 -0.2732 -0.5003  1.5616
  969SOL     OW 4506   1.053   5.372   1.068 -0.5370 -0.3024 -0.3241
  969SOL    HW1 4507   0.984   5.441   1.046 -0.1248 -0.3588 -1.9526
  969SOL    HW2 4508   1.133   5.385   1.009  0.9153 -0.1845  1.5902
  970SOL     OW 4509   0.380   3.020   0.406 -0.5658 -0.1134  0.2714
  970SOL    HW1 4510   0.363   2.965   0.324  0.3657  0.7960 -0.5694
  970SOL    HW2 4511   0.342   3.112   0.393  0.0621  0.2055  0.6210
  971SOL     OW 4512   3.300   1.346   6.211  0.2209 -0.2490  0.0662
  971SOL    HW1 4513   3.396   1.322   6.217  0.0380 -0.8423  0.8881
  971SOL    HW2 4514   3.289   1.445   6.225  0.5734 -0.4349  1.9669
  972SOL     OW 4515   0.959   2.214   4.126 -0.7215 -0.3873  0.8917
  972SOL    HW1 4516   1.005   2.141   4.175 -1.1513 -0.7427  0.7768
  972SOL    HW2 4517   0.872   2.179   4.089  0.8817 -1.0538 -2.6827
  973SOL     OW 4518   0.762   1.028   3.395 -0.6275 -0.1393 -0.5323
  973SOL    HW1 4519   0.695   1.041   3.322 -1.7452  1.2028  0.6761
  973SOL    HW2 4520   0.746   1.095   3.467 -0.8582 -2.6432  1.9060
  974SOL     OW 4521   1.264   6.844   2.756 -0.3087 -0.4885 -0.0844
  974SOL    HW1 4522   1.236   6.845   2.660  2.1171 -0.2678 -0.8457
  974SOL    HW2 4523   1.275   6.939   2.788 -0.9037 -0.5653  0.3815
  975SOL     OW 4524   5.275   0.560   2.446  0.1584  0.4755 -0.0406
  975SOL    HW1 4525   5.240   0.565   2.353  2.9836 -0.1000 -1.2442
  975SOL    HW2 4526   5.275   0.464   2.476 -1.7113  0.7642  1.0198
  976SOL     OW 4527   5.251   2.987   4.686 -0.6665 -0.4876 -0.2708
  976SOL    HW1 4528   5.214   2.906   4.732  0.4884 -0.5118  0.6714
  976SOL    HW2 4529   5.348   2.996   4.709 -0.9776  1.6694  0.3642
  977SOL     OW 4530   2.153   5.850   0.900 -0.9279  0.2021  0.1815
  977SOL    HW1 4531   2.242   5.883   0.869 -0.9687  1.7919  1.6016
  977SOL    HW2 4532   2.139   5.757   0.867  1.6502 -0.4338  0.6073
  978SOL     OW 4533   3.603   5.226   5.389  0.3929 -0.5534  0.0972
  978SOL    HW1 4534   3.578   5.299   5.325 -0.1537 -0.4235  0.4458
  978SOL    HW2 4535   3.548   5.145   5.371 -0.3371 -0.2538  0.8971
  979SOL     OW 4536   3.412   0.874   1.576  0.0892  0.4150  0.3792
  979SOL    HW1 4537   3.482   0.899   1.509  1.6645 -1.1052  1.3741
  979SOL    HW2 4538   3.368   0.789   1.548 -1.7270  1.5720 -0.4529
  980SOL     OW 4539   0.686   1.224   2.711 -1.1939 -0.0939  0.2598
  980SOL    HW1 4540   0.766   1.182   2.668 -0.4182 -1.3016  2.7076
  980SOL    HW2 4541   0.646   1.291   2.648  1.9298  0.8340 -0.9560
  981SOL     OW 4542   5.115   5.959   2.993  0.6876 -0.1953  0.2207
  981SOL    HW1 4543   5.215   5.958   2.989  0.7654 -2.0418  1.3316
  981SOL    HW2 4544   5.084   5.879   3.043 -1.4026 -0.0461 -0.7583
  982SOL     OW 4545   0.931   6.764   0.584 -0.0661  0.0303  0.3409
  982SOL    HW1 4546   1.000   6.692   0.589  0.1405  0.2179  0.2332
  982SOL    HW2 4547   0.848   6.729   0.541 -0.0633 -0.2162  0.5350
  983SOL     OW 4548   5.954   0.483   1.388 -0.3176  0.3847 -0.2564
  983SOL    HW1 4549   5.857   0.508   1.392 -0.2791  1.5111 -3.6623
  983SOL    HW2 4550   6.007   0.559   1.352  1.8513 -0.3495  1.1866
  984SOL     OW 4551   1.839   4.893   5.316 -0.0481  0.1121  0.3139
  984SOL    HW1 4552   1.756   4.866   5.365 -0.4479 -0.1476 -0.4970
  984SOL    HW2 4553   1.899   4.813   5.306 -0.8174 -0.2984 -1.2700
  985SOL     OW 4554   6.111   6.070   2.750  0.4352 -0.2156  0.0507
  985SOL    HW1 4555   6.105   6.115   2.661  1.9005 -1.0539 -0.5177
  985SOL    HW2 4556   6.046   5.994   2.754  2.3616 -2.0978 -1.5553
  986SOL     OW 4557   3.676   0.084   1.273  0.4624  0.8952 -0.0938
  986SOL    HW1 4558   3.592   0.132   1.301  0.2029  0.0722  0.5861
  986SOL    HW2 4559   3.694   0.103   1.176 -0.6537  0.8854 -0.3200
  987SOL     OW 4560   2.459   0.736   0.631  0.1407  0.6722 -0.1703
  987SOL    HW1 4561   2.404   0.803   0.581  0.9758  0.6590 -1.1197
  987SOL    HW2 4562   2.425   0.730   0.725 -0.7598  1.4845 -0.4242
  988SOL     OW 4563   4.081   5.141   6.234  0.0912  0.2615  0.0597
  988SOL    HW1 4564   4.099   5.103   6.325 -0.5605 -0.6566 -0.1849
  988SOL    HW2 4565   4.087   5.241   6.238  1.5842  0.1764  0.7747
  989SOL     OW 4566   1.306   1.581   5.939 -0.9047 -0.1744 -0.1180
  989SOL    HW1 4567   1.219   1.596   5.987 -0.8093 -2.3613  0.8514
  989SOL    HW2 4568   1.287   1.542   5.849 -0.9781  1.8353 -1.0388
  990SOL     OW 4569   2.732   0.123   4.241 -0.2936  0.2010  0.0283
  990SOL    HW1 4570   2.707   0.054   4.309  2.8642  1.0744  2.3485
  990SOL    HW2 4571   2.759   0.077   4.156  0.2567 -1.3716  0.9940
  991SOL     OW 4572   4.181   5.248   2.734 -0.2315 -0.4199  0.2209
  991SOL    HW1 4573   4.176   5.179   2.806  1.5162 -1.1573 -0.3040
  991SOL    HW2 4574   4.214   5.205   2.649 -0.7515  0.7321 -0.5989
  992SOL     OW 4575   2.755   2.496   6.313 -0.3403 -0.1328  0.1220
  992SOL    HW1 4576   2.672   2.536   6.275  0.1844  0.4927 -0.4016
  992SOL    HW2 4577   2.835   2.547   6.280  0.1496  0.5780  2.2264
  993SOL     OW 4578   2.035   6.588   6.065  0.0033 -0.4116 -0.3254
  993SOL    HW1 4579   2.047   6.514   6.132  1.7073 -2.3486 -2.6045
  993SOL    HW2 4580   2.079   6.563   5.979 -2.2935  1.8352 -2.3228
  994SOL     OW 4581   1.049   4.334   1.879 -0.9828  0.1201 -0.5577
  994SOL    HW1 4582   1.036   4.357   1.975 -1.6158  3.0593 -1.2543
  994SOL    HW2 4583   1.147   4.327   1.860 -0.8524 -0.4527  0.2808
  995SOL     OW 4584   5.245   3.247   2.291 -0.7186  0.0841 -0.8408
  995SOL    HW1 4585   5.241   3.298   2.205 -1.8569  1.2171 -0.1474
  995SOL    HW2 4586   5.328   3.274   2.341 -1.5372  1.6715 -0.2699
  996SOL     OW 4587   6.064   3.917   1.342  0.1187 -0.4118  0.0772
  996SOL    HW1 4588   6.027   3.833   1.382 -1.4121 -0.6305 -1.6816
  996SOL    HW2 4589   6.149   3.896   1.295  0.6451 -0.6174  1.0870
  997SOL     OW 4590   1.527   5.023   4.328 -0.0064 -0.1707 -0.7850
  997SOL    HW1 4591   1.570   4.969   4.256 -0.4052  2.0054 -2.7714
  997SOL    HW2 4592   1.439   4.982   4.352  0.3048 -1.1482 -1.2431
  998SOL     OW 4593   4.353   3.341   6.460  0.3732 -0.6598  0.5699
  998SOL    HW1 4594   4.446   3.368   6.434  0.3527 -0.2900  0.8613
  998SOL    HW2 4595   4.352   3.245   6.485  0.7999 -0.5359  1.1007
  999SOL     OW 4596   3.493   1.769   2.538  0.3693 -0.1932  0.0836
  999SOL    HW1 4597   3.411   1.792   2.486  1.0654  2.8911  0.1444
  999SOL    HW2 4598   3.482   1.799   2.633  1.4196 -0.0631  0.1817
 1000SOL     OW 4599   5.143   5.509   1.586  0.7906 -0.2476  0.2025
 1000SOL    HW1 4600   5.083   5.485   1.509  0.0815  0.9667  0.3575
 1000SOL    HW2 4601   5.188   5.426   1.620  0.3948 -0.9454 -0.9053
 1001SOL     OW 4602   0.808   2.434   4.609  0.5753  0.6594  0.4901
 1001SOL    HW1 4603   0.811   2.369   4.534  0.3477  2.0975 -0.8265
 1001SOL    HW2 4604   0.715   2.437   4.647  0.7047 -0.1106  0.8754
 1002SOL     OW 4605   2.421   4.109   5.942 -0.3040 -0.5167 -0.4306
 1002SOL    HW1 4606   2.514   4.079   5.919 -0.1234 -0.0791 -0.2780
 1002SOL    HW2 4607   2.418   4.137   6.038 -1.1880 -2.8585  0.2990
 1003SOL     OW 4608   1.216   6.824   5.919  0.3433 -0.1356  0.2574
 1003SOL    HW1 4609   1.199   6.750   5.984  0.9604 -0.8746 -0.4045
 1003SOL    HW2 4610   1.311   6.821   5.890  0.3701  0.9247  0.2154
 1004SOL     OW 4611   3.399   4.909   2.200 -0.2420 -0.2366 -0.0834
 1004SOL    HW1 4612   3.455   4.947   2.274 -1.0054  0.8587 -0.0296
 1004SOL    HW2 4613   3.362   4.820   2.227  0.0015 -0.1323  0.5993
 1005SOL     OW 4614   2.781   4.631   6.041  0.2419 -0.9478 -0.1146
 1005SOL    HW1 4615   2.777   4.679   6.129 -1.0974  0.9473 -1.1420
 1005SOL    HW2 4616   2.858   4.666   5.988 -0.3150 -0.4318 -0.5885
 1006SOL     OW 4617   4.504   3.234   1.688 -0.3188  0.1797  0.3403
 1006SOL    HW1 4618   4.553   3.321   1.690  0.5403 -0.3081  1.0178
 1006SOL    HW2 4619   4.535   3.180   1.609 -1.2783  0.7018 -0.4296
 1007SOL     OW 4620   1.634   3.906   3.118  0.1369  0.4082 -0.1300
 1007SOL    HW1 4621   1.631   3.807   3.101 -1.0502  0.3992  0.0558
 1007SOL    HW2 4622   1.580   3.927   3.200 -1.2384  1.4247 -1.2447
 1008SOL     OW 4623   6.426   3.276   6.494  0.9353 -0.4320  0.6794
 1008SOL    HW1 4624   6.390   3.321   6.576  0.1836  1.5747 -0.6712
 1008SOL    HW2 4625   6.519   3.308   6.477  0.1793  1.2564 -0.6367
 1009SOL     OW 4626   4.750   1.408   0.547  0.1703  0.5592  0.3849
 1009SOL    HW1 4627   4.654   1.414   0.521  0.5619  1.5715 -1.0045
 1009SOL    HW2 4628   4.775   1.488   0.602 -0.1536 -0.5331  2.1627
 1010SOL     OW 4629   1.509   2.760   0.816 -0.6353 -0.6392  0.2308
 1010SOL    HW1 4630   1.519   2.734   0.720 -1.2680  1.0869 -0.3433
 1010SOL    HW2 4631   1.440   2.703   0.860 -0.8348 -0.9965 -0.5316
 1011SOL     OW 4632   5.557   1.854   0.093 -0.4131  0.2512 -0.2807
 1011SOL    HW1 4633   5.536   1.777   0.033 -4.4634  0.1083  1.0521
 1011SOL    HW2 4634   5.594   1.819   0.179  0.2261  0.0419 -0.6309
 1012SOL     OW 4635   1.527   3.895   2.282  0.1259 -0.1081 -0.6406
 1012SOL    HW1 4636   1.491   3.871   2.192 -0.6247  0.9549 -0.6392
 1012SOL    HW2 4637   1.624   3.871   2.286  0.0704 -0.5414 -1.5873
 1013SOL     OW 4638   0.254   3.554   0.420 -0.8273 -0.0154 -0.4728
 1013SOL    HW1 4639   0.224   3.514   0.334 -1.8148 -1.5937  0.5673
 1013SOL    HW2 4640   0.252   3.485   0.492  1.8795  0.7195  0.4534
 1014SOL     OW 4641   5.972   2.765   0.877 -0.2916 -0.4282 -0.4942
 1014SOL    HW1 4642   5.926   2.792   0.792 -2.3514 -0.1892  0.6456
 1014SOL    HW2 4643   6.034   2.838   0.906 -1.5257  0.6365 -0.4583
 1015SOL     OW 4644   5.270   5.679   3.549  0.5384  0.3006  0.3916
 1015SOL    HW1 4645   5.262   5.691   3.450 -1.1868  0.4376  0.5106
 1015SOL    HW2 4646   5.188   5.715   3.593  1.0149 -0.3112  1.8255
 1016SOL     OW 4647   4.214   4.900   0.537  0.6054 -0.4974 -0.3475
 1016SOL    HW1 4648   4.141   4.862   0.481  1.0709  0.3190 -1.5561
 1016SOL    HW2 4649   4.205   4.867   0.631 -1.5504 -0.0680 -0.3595
 1017SOL     OW 4650   5.575   2.310   0.996  0.6729  0.3213 -0.3039
 1017SOL    HW1 4651   5.529   2.249   0.931 -0.0379 -0.2334  0.7051
 1017SOL    HW2 4652   5.674   2.303   0.984  0.5835 -0.7036 -0.5002
 1018SOL     OW 4653   2.731   2.381   2.306 -0.0612  0.3030 -0.0424
 1018SOL    HW1 4654   2.642   2.342   2.331 -0.3811  0.5189 -0.8054
 1018SOL    HW2 4655   2.797   2.364   2.379 -1.1351  1.5195  1.2642
 1019SOL     OW 4656   1.606   1.418   6.691 -0.0288  0.6264 -0.0462
 1019SOL    HW1 4657   1.610   1.461   6.781 -0.6080  0.1947  0.1923
 1019SOL    HW2 4658   1.537   1.464   6.635  0.8808  1.4010 -0.5487
 1020SOL     OW 4659   2.565   0.292   2.938 -0.6963  0.3355 -0.8110
 1020SOL    HW1 4660   2.564   0.272   2.840 -0.4369 -2.2693 -0.3576
 1020SOL    HW2 4661   2.471   0.301   2.971 -0.7808  1.4258 -1.3003
 1021SOL     OW 4662   6.525   4.260   1.809 -0.4350  0.5065  0.9382
 1021SOL    HW1 4663   6.520   4.262   1.909 -1.6942 -2.3191  1.0491
 1021SOL    HW2 4664   6.441   4.218   1.772  0.2814  0.8736 -1.2662
 1022SOL     OW 4665   2.991   6.758   1.255  0.7798  0.4194  0.2364
 1022SOL    HW1 4666   3.010   6.823   1.328  0.6134  0.1380  0.5351
 1022SOL    HW2 4667   2.918   6.695   1.284  2.2710 -1.1543  0.7458
 1023SOL     OW 4668   3.386   6.037   2.708  0.5861 -0.0209 -0.0761
 1023SOL    HW1 4669   3.306   6.006   2.657  0.8931  2.3254 -2.2032
 1023SOL    HW2 4670   3.468   5.990   2.675  0.5225  0.0938 -0.4015
 1024SOL     OW 4671   0.680   2.104   0.462 -0.1627 -0.4804  0.0835
 1024SOL    HW1 4672   0.674   2.189   0.514  0.9498  0.1287 -0.7417
 1024SOL    HW2 4673   0.635   2.116   0.373  1.3360 -0.2136 -0.6713
 1025SOL     OW 4674   1.939   0.475   5.017  0.2996  0.2888  0.5702
 1025SOL    HW1 4675   1.920   0.383   4.982  1.7076 -0.2146  1.0524
 1025SOL    HW2 4676   2.010   0.470   5.087  0.4500  1.7633  0.5512
 1026SOL     OW 4677   1.011   0.916   6.280 -0.0227 -0.1226  0.2030
 1026SOL    HW1 4678   1.078   0.880   6.345 -0.8872  0.0310  1.2056
 1026SOL    HW2 4679   1.055   0.928   6.191  0.6728 -2.2775  0.1887
 1027SOL     OW 4680   4.839   2.777   5.559 -0.2205  0.1389  0.1602
 1027SOL    HW1 4681   4.891   2.854   5.520 -0.8000  0.9869  1.0046
 1027SOL    HW2 4682   4.745   2.781   5.526 -0.4556  0.2690  0.8347
 1028SOL     OW 4683   3.503   0.769   6.032  0.9620 -0.0959  0.3128
 1028SOL    HW1 4684   3.568   0.804   5.964 -0.7846  1.4600 -0.6778
 1028SOL    HW2 4685   3.422   0.734   5.984  0.5301 -0.8145  1.5410
 1029SOL     OW 4686   3.417   1.735   4.243  0.1658  0.1965 -0.5312
 1029SOL    HW1 4687   3.460   1.656   4.201 -0.4571 -0.6289  0.3322
 1029SOL    HW2 4688   3.317   1.725   4.238  0.0140  1.9582 -2.3067
 1030SOL     OW 4689   6.341   0.358   3.118  0.2455 -0.1005  0.1647
 1030SOL    HW1 4690   6.367   0.376   3.212 -0.2744  1.8912 -0.0274
 1030SOL    HW2 4691   6.245   0.382   3.104  0.2952 -0.4210 -0.8686
 1031SOL     OW 4692   4.991   2.634   1.880  0.1032 -0.3728 -0.8285
 1031SOL    HW1 4693   4.917   2.604   1.820 -1.5463  1.3225  0.2479
 1031SOL    HW2 4694   5.011   2.730   1.863  0.9062 -0.3627  0.0882
 1032SOL     OW 4695   5.847   0.338   6.938  0.8624  0.0053  0.1896
 1032SOL    HW1 4696   5.793   0.409   6.892  0.2272 -0.5966 -0.0118
 1032SOL    HW2 4697   5.893   0.378   7.018  0.1192  0.5285  0.3688
 1033SOL     OW 4698   3.795   4.197   5.930 -0.6005  0.1460 -0.6658
 1033SOL    HW1 4699   3.820   4.100   5.936 -0.6919  0.1468 -0.2750
 1033SOL    HW2 4700   3.864   4.245   5.877  0.3834  0.1983  0.6350
 1034SOL     OW 4701   0.578   0.851   1.549 -0.2872  0.0965  0.4078
 1034SOL    HW1 4702   0.555   0.815   1.459  0.2079  0.7163  0.0171
 1034SOL    HW2 4703   0.637   0.931   1.538 -0.8275  0.6290  1.2604
 1035SOL     OW 4704   4.603   1.317   3.090  0.5468  0.7996  0.1359
 1035SOL    HW1 4705   4.650   1.264   3.020 -2.2889 -1.8621  0.0050
 1035SOL    HW2 4706   4.667   1.342   3.163  2.5287 -0.6775 -1.0123
 1036SOL     OW 4707   5.806   2.829   1.291 -0.7342 -0.0077  0.3032
 1036SOL    HW1 4708   5.770   2.736   1.297  0.1069 -0.4171 -0.7122
 1036SOL    HW2 4709   5.903   2.826   1.266 -1.0364  1.1687 -1.1608
 1037SOL     OW 4710   6.869   1.876   0.124 -0.6117  0.0740 -0.0825
 1037SOL    HW1 4711   6.864   1.898   0.027  1.1843 -0.2823 -0.2904
 1037SOL    HW2 4712   6.863   1.777   0.136  1.0807 -0.0422 -0.0238
 1038SOL     OW 4713   4.509   4.920   3.396 -0.3656  0.0098  0.4756
 1038SOL    HW1 4714   4.600   4.930   3.436  0.9477 -0.8788 -2.0549
 1038SOL    HW2 4715   4.440   4.939   3.465  1.7181  0.5291  2.5431
 1039SOL     OW 4716   0.658   0.956   0.949  0.3419  0.3098  0.0866
 1039SOL    HW1 4717   0.629   1.042   0.909  0.8935  0.8621  0.8463
 1039SOL    HW2 4718   0.754   0.938   0.925  0.5672  0.4690  0.8530
 1040SOL     OW 4719   1.403   6.837   3.734 -0.0631 -0.1664 -0.0358
 1040SOL    HW1 4720   1.400   6.920   3.678  0.3335 -0.0399  0.1240
 1040SOL    HW2 4721   1.393   6.757   3.676  0.9659 -0.0676 -0.3785
 1041SOL     OW 4722   1.151   6.155   1.166 -0.1530 -0.2816  0.5948
 1041SOL    HW1 4723   1.243   6.142   1.130  0.4057  1.2306  1.4034
 1041SOL    HW2 4724   1.136   6.251   1.188 -2.3468 -0.2782 -0.5826
 1042SOL     OW 4725   0.341   0.517   4.695 -0.2932  0.5073  0.1138
 1042SOL    HW1 4726   0.363   0.551   4.603 -1.2303  2.0937  0.4325
 1042SOL    HW2 4727   0.365   0.588   4.762 -0.3025 -0.3429  1.0284
 1043SOL     OW 4728   6.201   4.261   0.879  0.1248  0.0248  0.2298
 1043SOL    HW1 4729   6.244   4.350   0.864 -0.4097  0.2787  0.1894
 1043SOL    HW2 4730   6.134   4.244   0.807  2.4040 -1.7925 -1.6099
 1044SOL     OW 4731   6.251   5.486   0.728 -0.2286  0.2391  0.5773
 1044SOL    HW1 4732   6.220   5.393   0.747 -0.3834  0.5852  2.1898
 1044SOL    HW2 4733   6.245   5.504   0.630 -0.0538 -1.4880  0.2172
 1045SOL     OW 4734   1.749   3.017   4.134  0.0258  0.5473  0.6655
 1045SOL    HW1 4735   1.816   3.089   4.152 -0.3354  0.4200  2.7494
 1045SOL    HW2 4736   1.681   3.016   4.206  0.3395 -2.2879  1.0494
 1046SOL     OW 4737   2.286   4.217   2.066 -0.5974 -1.2160  0.1994
 1046SOL    HW1 4738   2.273   4.256   1.975 -0.9180 -1.7925 -0.0036
 1046SOL    HW2 4739   2.330   4.285   2.125 -0.9155 -0.6372 -0.2207
 1047SOL     OW 4740   6.020   0.887   1.304  0.3208 -0.8608  0.3112
 1047SOL    HW1 4741   6.101   0.945   1.316 -0.0582 -0.2599  0.0232
 1047SOL    HW2 4742   5.982   0.863   1.393 -0.9397  1.3766  0.4625
 1048SOL     OW 4743   1.310   1.683   0.667  0.9195  0.5763  0.2422
 1048SOL    HW1 4744   1.327   1.762   0.726 -0.2906  0.8161  0.2862
 1048SOL    HW2 4745   1.305   1.601   0.723  1.8421  0.5047  0.2339
 1049SOL     OW 4746   2.254   4.813   4.058  0.3774 -0.1144  0.2672
 1049SOL    HW1 4747   2.347   4.807   4.022  0.6360 -0.2617  0.9398
 1049SOL    HW2 4748   2.196   4.747   4.011  1.1720 -1.7635  1.4932
 1050SOL     OW 4749   4.402   4.760   0.853 -0.2991 -0.2955 -0.0929
 1050SOL    HW1 4750   4.454   4.835   0.812  1.7429 -1.1815  0.7499
 1050SOL    HW2 4751   4.389   4.778   0.951  1.6308 -1.7123  0.4863
 1051SOL     OW 4752   0.213   2.061   3.685 -1.0758 -0.0500  0.2076
 1051SOL    HW1 4753   0.188   2.042   3.590  1.2510  0.5570 -0.5816
 1051SOL    HW2 4754   0.312   2.061   3.694 -1.2403 -0.2455  2.7013
 1052SOL     OW 4755   0.386   5.377   6.650  0.1397  0.1549 -0.0754
 1052SOL    HW1 4756   0.464   5.356   6.710 -0.5039  1.2380  1.1818
 1052SOL    HW2 4757   0.351   5.292   6.611  1.8761 -0.3711 -0.5946
 1053SOL     OW 4758   6.163   0.855   2.297  0.5657 -0.3339  0.1701
 1053SOL    HW1 4759   6.178   0.798   2.216  0.6359  0.2153 -0.2103
 1053SOL    HW2 4760   6.230   0.929   2.298  1.5879 -1.2363  1.5787
 1054SOL     OW 4761   6.473   0.133   6.020  0.0949  0.3132  0.0457
 1054SOL    HW1 4762   6.469   0.203   6.091 -0.5664  1.5348 -1.1470
 1054SOL    HW2 4763   6.448   0.044   6.059 -0.8945  1.0629  1.2033
 1055SOL     OW 4764   1.028   2.878   3.252  0.4590 -0.1018 -0.0062
 1055SOL    HW1 4765   0.947   2.937   3.261  0.2023 -0.4122 -0.2396
 1055SOL    HW2 4766   1.012   2.792   3.301 -0.3175 -1.1507 -1.9553
 1056SOL     OW 4767   5.290   1.168   2.287  0.4973  0.2994  0.2051
 1056SOL    HW1 4768   5.342   1.139   2.206  2.1391 -1.1861  1.7126
 1056SOL    HW2 4769   5.345   1.233   2.340 -0.4894  1.1077  0.2768
 1057SOL     OW 4770   1.418   0.781   3.086 -0.6284 -0.0255  0.1313
 1057SOL    HW1 4771   1.346   0.817   3.146 -1.0680 -1.3092  0.3957
 1057SOL    HW2 4772   1.477   0.857   3.058 -1.6577  0.9455  0.4674
 1058SOL     OW 4773   3.318   2.812   6.236  0.2430  0.2910 -0.1434
 1058SOL    HW1 4774   3.297   2.808   6.333 -0.2068  0.2344 -0.2389
 1058SOL    HW2 4775   3.285   2.729   6.191 -0.6192  0.8254 -0.5353
 1059SOL     OW 4776   1.647   3.468   2.512  0.0230 -0.0261 -0.2737
 1059SOL    HW1 4777   1.672   3.388   2.457 -0.6209  0.3333 -1.1201
 1059SOL    HW2 4778   1.575   3.443   2.576 -1.0497  0.1346 -1.3765
 1060SOL     OW 4779   6.645   6.702   5.351  0.8091 -0.2490  0.0581
 1060SOL    HW1 4780   6.580   6.699   5.274  2.1497 -0.4427 -1.0995
 1060SOL    HW2 4781   6.608   6.648   5.427 -0.6237  0.0767 -0.3674
 1061SOL     OW 4782   0.758   4.983   2.406  0.2349 -0.0832  0.3887
 1061SOL    HW1 4783   0.791   4.994   2.500 -1.6512 -0.5850  1.1534
 1061SOL    HW2 4784   0.659   4.998   2.403  0.2915  0.2372 -1.5903
 1062SOL     OW 4785   0.790   0.512   1.455 -0.4727 -0.3262  0.7020
 1062SOL    HW1 4786   0.771   0.442   1.386 -0.4116 -0.3256  0.6842
 1062SOL    HW2 4787   0.772   0.602   1.415 -0.5571 -0.3319  0.7267
 1063SOL     OW 4788   5.950   0.585   0.857  0.4240 -0.1506  0.0988
 1063SOL    HW1 4789   5.885   0.510   0.871 -0.1154  0.3488  0.3303
 1063SOL    HW2 4790   5.934   0.655   0.926  2.8579 -1.1108  1.7801
 1064SOL     OW 4791   5.038   3.133   6.220 -0.2137  0.0519 -0.5639
 1064SOL    HW1 4792   4.988   3.189   6.154 -1.6902  0.1033  0.5329
 1064SOL    HW2 4793   5.129   3.111   6.184 -1.4207 -1.0707 -3.1803
 1065SOL     OW 4794   1.666   4.078   5.425  0.1031  0.4667 -0.1579
 1065SOL    HW1 4795   1.647   4.173   5.400 -1.5746  0.3703  0.6118
 1065SOL    HW2 4796   1.594   4.045   5.486  1.0325 -1.0933  0.1359
 1066SOL     OW 4797   5.806   3.835   1.635  0.0533 -0.0784 -0.1493
 1066SOL    HW1 4798   5.879   3.804   1.574  0.6157  0.3375  0.3063
 1066SOL    HW2 4799   5.744   3.895   1.585  1.0879  1.1002 -0.0705
 1067SOL     OW 4800   3.849   0.475   0.269 -0.4195 -0.0936 -0.3214
 1067SOL    HW1 4801   3.832   0.487   0.171  1.2955  0.9141 -0.5375
 1067SOL    HW2 4802   3.915   0.401   0.282 -0.4046 -0.0140  0.0473
 1068SOL     OW 4803   6.383   5.596   2.282 -0.0854 -0.0274 -0.3668
 1068SOL    HW1 4804   6.428   5.664   2.340 -0.7149 -0.2840  0.4521
 1068SOL    HW2 4805   6.429   5.591   2.193  2.3796 -1.2794  0.8806
 1069SOL     OW 4806   3.085   5.079   0.219  0.6414  0.5034  0.1011
 1069SOL    HW1 4807   3.156   5.054   0.284  1.2859 -0.9467 -1.1073
 1069SOL    HW2 4808   3.048   5.169   0.243  1.3539  0.3368  2.0122
 1070SOL     OW 4809   0.387   4.842   0.383 -0.2510 -0.1311  0.0138
 1070SOL    HW1 4810   0.363   4.844   0.286 -1.8624 -0.0812  0.3793
 1070SOL    HW2 4811   0.371   4.750   0.419 -0.0575 -0.0467  0.3196
 1071SOL     OW 4812   2.407   6.104   4.273 -0.1569  0.5743  0.2445
 1071SOL    HW1 4813   2.448   6.095   4.364 -2.7199  1.6528  1.6268
 1071SOL    HW2 4814   2.438   6.030   4.214  1.4479 -0.2584  2.0471
 1072SOL     OW 4815   0.810   5.929   4.408  0.7477  0.4654  0.3648
 1072SOL    HW1 4816   0.811   6.029   4.397  1.1697  0.4458  0.2293
 1072SOL    HW2 4817   0.719   5.895   4.384  0.2026  0.9483  1.6445
 1073SOL     OW 4818   2.183   4.764   4.324  0.3551  0.1108 -0.2066
 1073SOL    HW1 4819   2.089   4.797   4.329  0.2223 -0.3379  0.4343
 1073SOL    HW2 4820   2.221   4.786   4.234 -0.4154  0.1519 -0.5377
 1074SOL     OW 4821   2.211   0.826   0.036 -0.0543 -0.2433 -0.2550
 1074SOL    HW1 4822   2.302   0.862   0.016 -0.0926 -0.9980 -1.9874
 1074SOL    HW2 4823   2.196   0.823   0.135  1.2453  1.2145  0.0137
 1075SOL     OW 4824   0.822   6.169   2.303 -0.1115 -0.4455 -0.3322
 1075SOL    HW1 4825   0.875   6.084   2.307 -0.5822 -0.6885  1.8410
 1075SOL    HW2 4826   0.734   6.152   2.259  0.1631 -0.8654 -0.7276
 1076SOL     OW 4827   4.109   5.717   3.257  0.5040  0.4293 -0.3314
 1076SOL    HW1 4828   4.135   5.697   3.352  2.0671  0.0411 -0.8141
 1076SOL    HW2 4829   4.009   5.723   3.251  0.3162 -0.6013  1.1303
 1077SOL     OW 4830   2.203   5.544   6.888 -0.1491 -0.5822  0.1359
 1077SOL    HW1 4831   2.257   5.463   6.869 -3.1627 -3.0196  1.0212
 1077SOL    HW2 4832   2.128   5.551   6.822 -0.1613  1.3343  0.2905
 1078SOL     OW 4833   3.004   0.579   0.514  0.3618  0.0066 -0.2792
 1078SOL    HW1 4834   2.952   0.664   0.513 -0.2355 -0.3612 -0.4994
 1078SOL    HW2 4835   3.041   0.562   0.422 -4.0754 -2.7332 -1.8536
 1079SOL     OW 4836   6.173   3.453   6.979  0.1361  0.0399  0.1516
 1079SOL    HW1 4837   6.194   3.548   6.957 -0.9040  0.1121 -0.6216
 1079SOL    HW2 4838   6.145   3.405   6.896  1.8685 -1.2979  0.2920
 1080SOL     OW 4839   6.910   2.598   3.075 -0.1172  0.2102 -0.2960
 1080SOL    HW1 4840   7.006   2.605   3.046 -0.7793 -0.2864 -2.8506
 1080SOL    HW2 4841   6.873   2.689   3.091  0.3263  0.5187 -0.9731
 1081SOL     OW 4842   1.777   0.668   5.301  0.2608  0.9453 -0.3044
 1081SOL    HW1 4843   1.816   0.718   5.223 -0.7013  1.8926 -0.2052
 1081SOL    HW2 4844   1.850   0.620   5.349  1.0878  1.5309 -0.9366
 1082SOL     OW 4845   2.730   6.434   0.000 -0.0472 -0.0606 -0.4797
 1082SOL    HW1 4846   2.793   6.500   0.041 -0.8114  0.2482  0.2254
 1082SOL    HW2 4847   2.639   6.475  -0.010 -0.0250 -0.3138 -2.0030
 1083SOL     OW 4848   0.605   2.112   3.083  0.4088  0.5155  0.8205
 1083SOL    HW1 4849   0.529   2.170   3.053  0.0588 -0.1181  0.4501
 1083SOL    HW2 4850   0.568   2.033   3.133  0.5684 -1.2530 -1.6668
 1084SOL     OW 4851   2.091   6.005   3.222 -0.0681 -0.0610  0.2623
 1084SOL    HW1 4852   2.103   5.907   3.206  4.1802 -0.2255  2.8978
 1084SOL    HW2 4853   2.170   6.055   3.188 -1.9449  2.5069 -0.6611
 1085SOL     OW 4854   6.195   5.215   6.008 -0.4140 -0.7613  1.0169
 1085SOL    HW1 4855   6.199   5.304   6.053  1.6435 -0.6584  0.7229
 1085SOL    HW2 4856   6.228   5.144   6.070 -0.2595 -1.0288  0.6352
 1086SOL     OW 4857   2.278   1.646   4.055 -0.8560  0.7658  0.1819
 1086SOL    HW1 4858   2.260   1.634   3.958 -0.4123 -0.1965  0.2019
 1086SOL    HW2 4859   2.346   1.719   4.068 -1.5361  1.4677 -0.1633
 1087SOL     OW 4860   6.926   5.650   6.196  0.1264 -0.6266  0.6199
 1087SOL    HW1 4861   6.979   5.634   6.113 -0.6447 -0.4152  0.0708
 1087SOL    HW2 4862   6.979   5.706   6.260  0.2613  0.2615 -0.2460
 1088SOL     OW 4863   1.304   5.724   4.321  0.2477  0.2344  0.4754
 1088SOL    HW1 4864   1.395   5.745   4.357  0.1783 -0.9373  1.4103
 1088SOL    HW2 4865   1.311   5.699   4.225  0.9400  0.0022  0.5773
 1089SOL     OW 4866   2.866   6.386   4.223  0.1026  0.3451 -0.6753
 1089SOL    HW1 4867   2.886   6.293   4.252  1.2039  0.8470  0.2615
 1089SOL    HW2 4868   2.801   6.384   4.147 -0.1898 -1.1546 -0.4205
 1090SOL     OW 4869   0.981   4.792   4.194 -0.4376 -0.4404  0.2343
 1090SOL    HW1 4870   0.911   4.828   4.133 -0.2283 -0.9441 -0.3101
 1090SOL    HW2 4871   1.047   4.864   4.215  0.2918 -0.6293 -1.3064
 1091SOL     OW 4872   1.219   1.431   3.879  0.3036  0.1721  0.5141
 1091SOL    HW1 4873   1.196   1.334   3.868  2.0022 -0.0888 -1.4716
 1091SOL    HW2 4874   1.319   1.440   3.881  0.2571  2.0190 -1.6387
 1092SOL     OW 4875   4.146   0.891   3.927  1.1719 -0.3879  1.0001
 1092SOL    HW1 4876   4.172   0.806   3.971  0.1365 -0.3465  1.7179
 1092SOL    HW2 4877   4.069   0.932   3.975  0.3648 -0.0551 -0.4994
 1093SOL     OW 4878   5.818   6.847   3.779  0.1082  0.6538  0.2316
 1093SOL    HW1 4879   5.863   6.799   3.854 -0.5874 -2.6241 -1.2874
 1093SOL    HW2 4880   5.883   6.862   3.704 -0.5834 -1.8847 -0.9801
 1094SOL     OW 4881   0.534   0.003   3.773 -0.1150  0.3830  0.4200
 1094SOL    HW1 4882   0.540  -0.093   3.743 -2.1772  0.4706 -0.4571
 1094SOL    HW2 4883   0.567   0.062   3.699  2.3844  0.3702  1.4352
 1095SOL     OW 4884   5.422   5.308   6.804  0.2094 -0.0515 -0.6463
 1095SOL    HW1 4885   5.471   5.226   6.774 -1.1261 -1.5528  1.0382
 1095SOL    HW2 4886   5.335   5.282   6.845  0.3116  2.0974  1.1406
 1096SOL     OW 4887   0.101   6.561   6.261  0.9044  0.5681 -0.3956
 1096SOL    HW1 4888   0.200   6.562   6.280  1.5347 -0.0257 -3.1955
 1096SOL    HW2 4889   0.084   6.605   6.172 -0.9152 -2.3268 -1.5998
 1097SOL     OW 4890   1.272   0.514   1.682  0.5562  0.1645 -0.3399
 1097SOL    HW1 4891   1.312   0.423   1.691 -2.0631 -1.0578  0.0561
 1097SOL    HW2 4892   1.270   0.541   1.586  2.5827  0.4594 -0.3372
 1098SOL     OW 4893   1.663   6.619   3.961 -0.3652 -0.0175  0.3096
 1098SOL    HW1 4894   1.712   6.579   3.884 -0.4715  0.0109  0.2277
 1098SOL    HW2 4895   1.727   6.639   4.035 -0.5817 -2.3552  1.2283
 1099SOL     OW 4896   6.444   4.185   1.401 -0.2044  0.7478  0.0412
 1099SOL    HW1 4897   6.350   4.151   1.406  0.4015 -0.9495  0.5762
 1099SOL    HW2 4898   6.443   4.284   1.390 -2.0518  0.7581  0.0196
 1100SOL     OW 4899   3.063   5.959   0.564  0.1212 -0.3201 -0.5182
 1100SOL    HW1 4900   3.161   5.977   0.564 -0.0215  0.5218 -0.1035
 1100SOL    HW2 4901   3.041   5.894   0.491  1.0206 -0.7543 -0.4185
 1101SOL     OW 4902   4.486   2.531   6.273 -0.1150 -0.1497 -0.7549
 1101SOL    HW1 4903   4.585   2.515   6.275 -0.1834 -0.4998  0.2553
 1101SOL    HW2 4904   4.457   2.570   6.360 -1.0633 -1.2738 -0.5457
 1102SOL     OW 4905   6.276   3.863   4.006 -0.4971 -0.4223 -0.2646
 1102SOL    HW1 4906   6.336   3.937   3.973  0.5744  0.4127  3.1387
 1102SOL    HW2 4907   6.330   3.780   4.019 -0.5164 -0.2882  0.7550
 1103SOL     OW 4908   4.049   1.653   0.135  0.0476  0.6229 -0.1728
 1103SOL    HW1 4909   4.007   1.705   0.060 -0.2625  2.0741  0.9516
 1103SOL    HW2 4910   4.143   1.684   0.149  0.5288 -0.5257 -0.7517
 1104SOL     OW 4911   4.401   2.581   6.028 -0.3375  0.3857  0.3186
 1104SOL    HW1 4912   4.385   2.679   6.020 -1.9383  0.1292  0.1162
 1104SOL    HW2 4913   4.443   2.561   6.116  0.9276  1.3415 -0.0388
 1105SOL     OW 4914   3.625   6.386   2.006 -0.7246  0.2280 -0.2278
 1105SOL    HW1 4915   3.670   6.456   2.062  3.1667 -0.1239 -2.4905
 1105SOL    HW2 4916   3.631   6.297   2.053 -1.5364  0.6350  0.6705
 1106SOL     OW 4917   0.368   2.859   2.141  0.2053  0.3755 -0.3645
 1106SOL    HW1 4918   0.285   2.853   2.196  0.7007  0.8172  0.4534
 1106SOL    HW2 4919   0.366   2.943   2.087 -0.1441  0.0924 -0.7957
 1107SOL     OW 4920   0.261   1.439   1.663 -0.2492  0.2069 -0.0776
 1107SOL    HW1 4921   0.236   1.342   1.657  0.2881  0.1350 -1.7200
 1107SOL    HW2 4922   0.360   1.447   1.672 -0.3719  0.5956  0.9991
 1108SOL     OW 4923   3.576   3.817   1.455  0.3101 -0.0067 -0.0632
 1108SOL    HW1 4924   3.599   3.727   1.417  0.2060 -0.1794  0.2816
 1108SOL    HW2 4925   3.636   3.837   1.532 -1.1007 -0.7733  1.3071
 1109SOL     OW 4926   1.545   6.685   2.095  0.0694 -0.2962 -0.2201
 1109SOL    HW1 4927   1.564   6.781   2.115 -0.6338  0.1312 -1.4852
 1109SOL    HW2 4928   1.631   6.637   2.076  0.4697 -0.0519  0.9207
 1110SOL     OW 4929   5.219   1.571   4.918 -0.6213 -0.2886 -0.2324
 1110SOL    HW1 4930   5.175   1.656   4.949 -0.2446  0.4400 -1.5847
 1110SOL    HW2 4931   5.316   1.589   4.900 -0.8554 -0.5657 -1.9895
 1111SOL     OW 4932   1.828   4.554   0.720 -0.3610  0.3286  0.2768
 1111SOL    HW1 4933   1.911   4.591   0.762 -0.6375  0.9959  0.2436
 1111SOL    HW2 4934   1.789   4.484   0.780 -0.6240  1.1051  1.0306
 1112SOL     OW 4935   4.604   1.322   1.276  0.1014  0.3880 -0.2325
 1112SOL    HW1 4936   4.545   1.252   1.318  1.6022 -0.2636  0.9130
 1112SOL    HW2 4937   4.652   1.282   1.198  0.5540  0.2709  0.0968
 1113SOL     OW 4938   4.971   5.506   0.821  0.3304  0.4005 -0.1483
 1113SOL    HW1 4939   4.936   5.516   0.915 -0.6645  2.5020 -0.7001
 1113SOL    HW2 4940   4.905   5.454   0.767 -0.7210  2.0538 -0.5025
 1114SOL     OW 4941   0.869   5.120   1.865 -0.3698 -0.4129 -0.2908
 1114SOL    HW1 4942   0.857   5.089   1.771  1.3284  1.7979 -1.3428
 1114SOL    HW2 4943   0.933   5.197   1.866 -2.1169  1.1446  2.3985
 1115SOL     OW 4944   3.428   5.586   4.462  0.4937 -0.0331  0.1933
 1115SOL    HW1 4945   3.474   5.674   4.467  1.9727 -0.8276  1.1480
 1115SOL    HW2 4946   3.329   5.599   4.476  0.2694  1.7469 -2.3375
 1116SOL     OW 4947   5.744   5.456   4.767 -0.0004  0.0363  0.3334
 1116SOL    HW1 4948   5.811   5.459   4.693 -1.4047  1.2331 -0.9546
 1116SOL    HW2 4949   5.786   5.418   4.849  1.9011 -0.3287 -0.7648
 1117SOL     OW 4950   2.860   5.453   2.920 -0.0690 -0.4261 -0.4123
 1117SOL    HW1 4951   2.881   5.521   2.990 -0.5652 -0.4041 -0.2761
 1117SOL    HW2 4952   2.921   5.374   2.929 -0.0333 -0.3568 -0.0501
 1118SOL     OW 4953   3.953   0.069   1.819  0.0260  0.1314 -0.4758
 1118SOL    HW1 4954   3.882   0.078   1.889 -1.1764 -2.6412 -1.2262
 1118SOL    HW2 4955   3.927   0.122   1.738  0.4731  1.7431  0.3771
 1119SOL     OW 4956   5.911   5.823   0.939 -0.6308  0.3012 -0.1526
 1119SOL    HW1 4957   5.960   5.878   0.871 -0.3519 -0.9453 -1.0026
 1119SOL    HW2 4958   5.978   5.774   0.996 -0.8355 -1.1457 -1.0964
 1120SOL     OW 4959   4.887   1.493   4.535  0.6693  0.2944  0.7695
 1120SOL    HW1 4960   4.868   1.466   4.629  1.1306  0.4157  0.8974
 1120SOL    HW2 4961   4.975   1.455   4.506 -1.1259 -2.9951 -0.9039
 1121SOL     OW 4962   1.031   3.728   4.960  0.9948 -0.9774 -0.5390
 1121SOL    HW1 4963   1.087   3.770   5.032  0.7640 -1.2657 -0.1864
 1121SOL    HW2 4964   0.956   3.676   5.002 -2.0574  2.6506 -0.9633
 1122SOL     OW 4965   5.434   2.683   3.068 -0.4490 -0.4835 -0.3279
 1122SOL    HW1 4966   5.517   2.677   3.013 -1.0437  1.8977 -1.6809
 1122SOL    HW2 4967   5.355   2.686   3.007 -1.2868  0.3069  0.7567
 1123SOL     OW 4968   2.970   5.381   0.558 -0.4404 -0.2100 -0.0924
 1123SOL    HW1 4969   2.872   5.363   0.552 -0.0623 -2.0399 -2.3642
 1123SOL    HW2 4970   3.005   5.405   0.467  0.9351  2.3114  1.0258
 1124SOL     OW 4971   1.695   0.068   0.989 -0.1223 -0.8928  0.2147
 1124SOL    HW1 4972   1.691  -0.030   1.007  0.3328 -1.0199 -0.3565
 1124SOL    HW2 4973   1.759   0.111   1.052  0.1348 -1.0601  0.0693
 1125SOL     OW 4974   2.331   2.555   0.467  0.1605 -0.4452  0.2686
 1125SOL    HW1 4975   2.274   2.585   0.391 -2.7587 -1.3179  1.9789
 1125SOL    HW2 4976   2.276   2.547   0.550  3.0963 -0.0090  2.4383
 1126SOL     OW 4977   3.623   1.021   3.675  0.0552  0.2741 -0.8886
 1126SOL    HW1 4978   3.694   1.086   3.648  0.7545  0.1981  0.6522
 1126SOL    HW2 4979   3.650   0.929   3.646 -0.2788  0.4617 -1.8496
 1127SOL     OW 4980   5.103   4.090   0.111  0.1769  0.0749 -0.1822
 1127SOL    HW1 4981   5.075   4.076   0.206 -0.7712 -0.9899 -0.5915
 1127SOL    HW2 4982   5.202   4.097   0.106  0.2969 -0.6943  0.7933
 1128SOL     OW 4983   4.093   6.612   5.582 -0.1325 -0.2389  0.3626
 1128SOL    HW1 4984   4.151   6.589   5.504  0.9511  1.9073  0.4617
 1128SOL    HW2 4985   3.997   6.603   5.555  0.1951 -1.7993 -0.4514
 1129SOL     OW 4986   6.515   3.221   1.058 -0.6529  0.1418 -0.7609
 1129SOL    HW1 4987   6.514   3.320   1.047  0.3268  0.3925  1.0936
 1129SOL    HW2 4988   6.575   3.196   1.134 -0.3159 -1.9329 -1.6401
 1130SOL     OW 4989   1.359   1.613   4.503 -0.7251 -0.5503  0.0102
 1130SOL    HW1 4990   1.356   1.682   4.576  1.8493 -1.9918  1.6417
 1130SOL    HW2 4991   1.266   1.580   4.484 -1.8158  2.0761  0.3812
 1131SOL     OW 4992   4.489   2.061   0.027 -0.0608 -0.3632 -0.1837
 1131SOL    HW1 4993   4.465   2.036   0.121  0.1479 -0.1228 -0.0635
 1131SOL    HW2 4994   4.569   2.008  -0.002 -0.3231 -0.6710 -0.3403
 1132SOL     OW 4995   6.978   1.570   1.731  0.6644  0.2004  0.0873
 1132SOL    HW1 4996   6.967   1.471   1.738  1.4876  0.2375  3.6890
 1132SOL    HW2 4997   6.921   1.615   1.800 -0.1538  2.3716 -1.8438
 1133SOL     OW 4998   3.640   0.750   0.352  0.3289 -0.0956  0.3005
 1133SOL    HW1 4999   3.704   0.805   0.405 -2.4518  1.2598  2.5062
 1133SOL    HW2 5000   3.638   0.657   0.390  0.3648  0.0927  0.7751
 1134SOL     OW 5001   2.585   1.040   3.936  0.2809  0.7069  0.4222
 1134SOL    HW1 5002   2.571   1.070   4.030 -0.8695  1.8821 -0.0942
 1134SOL    HW2 5003   2.496   1.019   3.894  0.8508 -0.9180 -0.0708
 1135SOL     OW 5004   5.141   4.642   5.275  0.0113 -0.1330 -0.2917
 1135SOL    HW1 5005   5.222   4.597   5.314  1.8315  1.8414 -1.5257
 1135SOL    HW2 5006   5.079   4.670   5.348  1.7931  0.7264  0.9652
 1136SOL     OW 5007   5.777   3.271   0.468 -0.2765  0.2082 -0.2259
 1136SOL    HW1 5008   5.755   3.360   0.428  0.3759 -0.2165 -1.5991
 1136SOL    HW2 5009   5.863   3.238   0.429  0.0823 -0.5186  1.1253
 1137SOL     OW 5010   0.955   5.437   5.828  0.0583  0.1878  0.0319
 1137SOL    HW1 5011   0.912   5.417   5.916  1.6073  1.5121  1.1659
 1137SOL    HW2 5012   1.012   5.360   5.801 -2.0764 -1.1421 -0.9713
 1138SOL     OW 5013   1.196   0.070   1.872  0.0816  0.3306 -0.0452
 1138SOL    HW1 5014   1.136   0.145   1.900  0.3570 -0.0348  1.6465
 1138SOL    HW2 5015   1.250   0.098   1.792  0.3043  2.0157  0.6443
 1139SOL     OW 5016   2.154   4.787   0.091 -0.2961 -0.2391 -0.2284
 1139SOL    HW1 5017   2.087   4.757   0.022  0.8040 -0.4320 -1.2377
 1139SOL    HW2 5018   2.217   4.712   0.110  0.0634  0.1734  0.2035
 1140SOL     OW 5019   0.726   2.163   3.991  0.1991 -0.0993  0.0548
 1140SOL    HW1 5020   0.720   2.171   3.891  1.1526 -1.2254 -0.1181
 1140SOL    HW2 5021   0.641   2.196   4.032 -0.4238 -0.1296 -1.1672
 1141SOL     OW 5022   5.847   3.084   2.388  0.2599 -0.3773  0.7188
 1141SOL    HW1 5023   5.770   3.023   2.402  0.6804 -1.8204 -2.3148
 1141SOL    HW2 5024   5.826   3.175   2.425 -3.5359 -0.2822 -1.1823
 1142SOL     OW 5025   5.332   0.851   5.328  0.6963 -0.2751 -0.6646
 1142SOL    HW1 5026   5.260   0.913   5.360  0.1761 -0.8902 -0.6322
 1142SOL    HW2 5027   5.391   0.827   5.406  0.0196 -0.9859 -0.3662
 1143SOL     OW 5028   4.631   1.479   4.200 -0.3060 -0.2211 -0.7589
 1143SOL    HW1 5029   4.618   1.472   4.299 -0.5346  1.0874 -0.6847
 1143SOL    HW2 5030   4.579   1.557   4.165 -0.3305 -0.7488 -1.9355
 1144SOL     OW 5031   5.122   6.094   2.134 -0.3969 -0.0968  0.0046
 1144SOL    HW1 5032   5.079   6.137   2.054 -0.6532  0.3105  0.3599
 1144SOL    HW2 5033   5.167   6.164   2.189  0.9393 -0.5393 -0.4792
 1145SOL     OW 5034   4.105   5.455   6.819 -0.0764 -0.7277  0.1924
 1145SOL    HW1 5035   4.059   5.451   6.908 -0.8160 -2.3138 -0.2366
 1145SOL    HW2 5036   4.088   5.544   6.777  0.7641  0.2768  1.8589
 1146SOL     OW 5037   2.135   1.664   1.959  0.3667  0.0807 -0.2157
 1146SOL    HW1 5038   2.217   1.703   2.002  1.8510 -2.0095 -1.0223
 1146SOL    HW2 5039   2.077   1.625   2.030  0.3827  0.9693  0.3049
 1147SOL     OW 5040   5.768   3.844   0.100  0.5602  0.7986 -0.0379
 1147SOL    HW1 5041   5.859   3.858   0.138  0.2098  0.2636  1.0597
 1147SOL    HW2 5042   5.775   3.818   0.004  1.6151 -0.0749  0.2543
 1148SOL     OW 5043   2.824   2.003   0.745  0.3086  0.1990 -0.0454
 1148SOL    HW1 5044   2.829   1.929   0.679 -1.9176  1.8882 -2.3007
 1148SOL    HW2 5045   2.883   2.079   0.715 -0.7114  0.9775 -0.1300
 1149SOL     OW 5046   3.675   0.324   4.656 -0.8624 -0.9775 -0.4833
 1149SOL    HW1 5047   3.737   0.265   4.708 -1.6185 -0.0483  1.5937
 1149SOL    HW2 5048   3.726   0.405   4.624 -0.1707 -2.0058 -2.0685
 1150SOL     OW 5049   5.096   3.373   4.243  0.7343  0.2731  0.5517
 1150SOL    HW1 5050   5.018   3.317   4.217  1.8011 -1.0593  0.0735
 1150SOL    HW2 5051   5.094   3.460   4.193 -0.1659  0.0513  0.1937
 1151SOL     OW 5052   5.696   2.229   4.236  0.3495  0.1762  0.0533
 1151SOL    HW1 5053   5.602   2.219   4.204  0.4548 -1.4642  0.1933
 1151SOL    HW2 5054   5.731   2.141   4.266  1.9643  0.7508 -0.0323
 1152SOL     OW 5055   5.473   3.634   2.361  0.2289 -0.1897  0.5389
 1152SOL    HW1 5056   5.440   3.654   2.453  1.3561 -0.5068  1.0313
 1152SOL    HW2 5057   5.461   3.715   2.303 -0.3238  0.0684  1.0003
 1153SOL     OW 5058   3.026   5.333   3.086  0.2189  0.1542  0.4069
 1153SOL    HW1 5059   2.987   5.269   3.152 -0.6117  1.4292  1.2165
 1153SOL    HW2 5060   3.122   5.351   3.109  0.3137 -0.4115  0.4658
 1154SOL     OW 5061   0.701   4.681   4.519  0.4895 -0.1884  0.6154
 1154SOL    HW1 5062   0.800   4.678   4.532  0.4251 -1.0434  0.9615
 1154SOL    HW2 5063   0.656   4.625   4.589 -0.3046  0.9518  1.0422
 1155SOL     OW 5064   6.390   1.032   2.120  0.1124  0.4198  0.1321
 1155SOL    HW1 5065   6.467   1.092   2.095  0.2295  0.2052 -0.0180
 1155SOL    HW2 5066   6.315   1.046   2.055  0.1062  0.4678  0.1497
 1156SOL     OW 5067   1.232   6.388   5.330  0.4243 -0.0452  0.0244
 1156SOL    HW1 5068   1.135   6.377   5.354  0.4286 -0.1715 -0.0144
 1156SOL    HW2 5069   1.267   6.473   5.369 -0.2202  1.0287 -1.6125
 1157SOL     OW 5070   6.888   5.861   2.237  0.3527  0.4506  0.1826
 1157SOL    HW1 5071   6.879   5.841   2.335 -0.8633 -2.0165 -0.3446
 1157SOL    HW2 5072   6.911   5.957   2.225 -0.2796  1.0356  2.8568
 1158SOL     OW 5073   2.273   3.554   6.741  0.1984  0.4692 -0.1268
 1158SOL    HW1 5074   2.198   3.615   6.765  1.4133  1.7009  0.7073
 1158SOL    HW2 5075   2.287   3.556   6.642 -1.5643 -0.6698 -0.4391
 1159SOL     OW 5076   1.416   3.355   5.066  0.1521  0.3187  0.5315
 1159SOL    HW1 5077   1.321   3.385   5.058  0.8398  2.2172 -2.1364
 1159SOL    HW2 5078   1.424   3.262   5.030 -0.5209  0.7066 -0.7105
 1160SOL     OW 5079   6.802   6.686   1.245 -0.5029 -0.1014 -0.2059
 1160SOL    HW1 5080   6.773   6.764   1.299 -1.5572  0.3293 -1.3475
 1160SOL    HW2 5081   6.901   6.688   1.233 -0.0347 -0.8959  2.6896
 1161SOL     OW 5082   2.644   4.742   2.348 -0.0790 -0.3234  0.0565
 1161SOL    HW1 5083   2.621   4.696   2.433 -0.1036 -0.8188 -0.2151
 1161SOL    HW2 5084   2.581   4.818   2.333 -0.4021 -0.5570  0.2211
 1162SOL     OW 5085   2.748   3.598   5.272  0.7649  0.2909 -0.6480
 1162SOL    HW1 5086   2.678   3.666   5.252  0.5418  0.0558 -0.6804
 1162SOL    HW2 5087   2.723   3.511   5.229 -0.0123 -0.3968  1.0888
 1163SOL     OW 5088   3.707   1.049   4.983 -0.1639 -0.0412  0.0310
 1163SOL    HW1 5089   3.701   1.138   5.027 -1.2841 -0.0090 -0.1580
 1163SOL    HW2 5090   3.684   0.977   5.049 -1.7491  0.0013 -0.4206
 1164SOL     OW 5091   6.303   1.302   6.304  0.0431 -0.3186  0.2373
 1164SOL    HW1 5092   6.384   1.334   6.352 -0.8835 -2.3753  3.4863
 1164SOL    HW2 5093   6.322   1.212   6.263  0.1348  0.4174 -1.4326
 1165SOL     OW 5094   1.639   3.179   4.561 -0.2342  0.0532 -0.1284
 1165SOL    HW1 5095   1.686   3.220   4.483 -1.4315 -0.1124 -0.9647
 1165SOL    HW2 5096   1.656   3.081   4.563  1.6338  0.3463  1.1656
 1166SOL     OW 5097   3.305   4.066   5.835 -0.5223 -0.0973  0.0352
 1166SOL    HW1 5098   3.350   3.979   5.816 -2.1625 -1.1622  0.7562
 1166SOL    HW2 5099   3.365   4.141   5.809  1.1476 -1.4276 -0.1431
 1167SOL     OW 5100   2.536   6.705   1.992 -0.4022 -0.2304 -0.2615
 1167SOL    HW1 5101   2.479   6.750   1.923  0.7016  0.0427 -1.0251
 1167SOL    HW2 5102   2.482   6.636   2.040 -1.9522  1.4203  0.4796
 1168SOL     OW 5103   4.594   5.966   5.840 -0.2359 -0.1707  0.3648
 1168SOL    HW1 5104   4.632   5.879   5.811  1.5058  0.9125 -0.8097
 1168SOL    HW2 5105   4.654   6.008   5.908 -0.0519  0.9102 -0.4317
 1169SOL     OW 5106   2.484   2.312   4.334  0.2634  0.0308 -0.4265
 1169SOL    HW1 5107   2.437   2.224   4.334 -2.1287  1.1846  1.0535
 1169SOL    HW2 5108   2.548   2.315   4.411 -1.7610  0.5349  1.3070
 1170SOL     OW 5109   2.507   6.683   1.413 -0.8110 -0.7227  0.1941
 1170SOL    HW1 5110   2.502   6.643   1.321  2.3127  0.9774 -0.8619
 1170SOL    HW2 5111   2.505   6.782   1.407 -0.6663 -0.5711  1.9871
 1171SOL     OW 5112   1.694   4.642   4.473 -0.1176 -0.3438  0.7305
 1171SOL    HW1 5113   1.685   4.672   4.568  0.3822  1.5120  0.2368
 1171SOL    HW2 5114   1.617   4.679   4.420  0.2436 -0.3542  0.1934
 1172SOL     OW 5115   0.731   2.475   6.509 -0.6024 -0.0060 -0.4983
 1172SOL    HW1 5116   0.697   2.492   6.601 -1.8481 -1.8418 -0.5581
 1172SOL    HW2 5117   0.684   2.536   6.445 -1.3809 -0.2258 -0.1581
 1173SOL     OW 5118   6.021   4.963   0.350 -0.5156  0.1377  0.5864
 1173SOL    HW1 5119   5.934   4.933   0.313 -0.7054  0.4859  0.7472
 1173SOL    HW2 5120   6.080   4.884   0.366 -0.5664 -0.0504 -0.1120
 1174SOL     OW 5121   3.844   4.206   4.944  0.2329  0.0972  0.4251
 1174SOL    HW1 5122   3.789   4.185   4.864  0.8515 -0.8030  0.2126
 1174SOL    HW2 5123   3.785   4.234   5.019 -0.4462 -0.1232 -0.0169
 1175SOL     OW 5124   2.614   6.372   3.155  0.6148  0.0939  0.5913
 1175SOL    HW1 5125   2.650   6.280   3.144  0.3857  0.0819 -0.0947
 1175SOL    HW2 5126   2.609   6.418   3.066 -1.0275  0.0943  0.6427
 1176SOL     OW 5127   0.339   6.466   6.358 -0.1185  0.8121 -0.2977
 1176SOL    HW1 5128   0.336   6.371   6.327 -0.5338  0.5059  0.6572
 1176SOL    HW2 5129   0.413   6.478   6.424  0.3552  1.3110 -0.9094
 1177SOL     OW 5130   1.830   3.603   4.256 -0.1264  0.0671 -0.4007
 1177SOL    HW1 5131   1.928   3.617   4.241  0.0479 -1.0881 -0.4044
 1177SOL    HW2 5132   1.779   3.667   4.199  0.6185  0.2342 -0.8997
 1178SOL     OW 5133   4.746   6.032   1.897 -0.4749  0.3042 -0.4951
 1178SOL    HW1 5134   4.692   6.043   1.981 -2.9691  0.9840 -2.0497
 1178SOL    HW2 5135   4.711   6.094   1.827  1.9284  0.2094 -1.8951
 1179SOL     OW 5136   0.561   6.475   5.049 -0.6981 -0.2838  0.3006
 1179SOL    HW1 5137   0.568   6.512   4.956  4.5281 -1.1836  0.0402
 1179SOL    HW2 5138   0.600   6.541   5.113 -1.2722 -0.9967  1.3950
 1180SOL     OW 5139   3.365   4.751   5.934  0.1076  0.0811 -0.4732
 1180SOL    HW1 5140   3.349   4.653   5.932 -0.0564  0.0554  0.8921
 1180SOL    HW2 5141   3.320   4.790   6.015  0.3284  1.2507 -0.8951
 1181SOL     OW 5142   4.531   6.754   6.429 -0.0637  0.0258 -0.1763
 1181SOL    HW1 5143   4.575   6.697   6.359  1.3574  1.0266 -0.1432
 1181SOL    HW2 5144   4.443   6.787   6.394  1.2830  1.7512 -2.1836
 1182SOL     OW 5145   5.708   0.641   2.022 -0.1016  0.9013  0.3604
 1182SOL    HW1 5146   5.611   0.614   2.018 -0.0313  0.6603  0.2879
 1182SOL    HW2 5147   5.765   0.562   2.000  0.0753  1.3463 -0.8502
 1183SOL     OW 5148   5.661   2.322   3.337  0.0790 -0.0114 -0.3967
 1183SOL    HW1 5149   5.575   2.333   3.287 -0.3861 -0.0612  0.3762
 1183SOL    HW2 5150   5.671   2.397   3.403  1.1627  0.6152 -1.2186
 1184SOL     OW 5151   3.682   1.206   5.196  0.3742 -0.2321 -0.1207
 1184SOL    HW1 5152   3.695   1.161   5.284  0.0346  1.0280  0.5855
 1184SOL    HW2 5153   3.751   1.277   5.184  1.3040 -1.3188 -1.5093
 1185SOL     OW 5154   1.228   0.536   4.298 -0.4950  0.0643 -0.9339
 1185SOL    HW1 5155   1.257   0.631   4.292 -1.2987  0.4852  0.9591
 1185SOL    HW2 5156   1.197   0.517   4.391 -0.5991 -1.9904 -1.3426
 1186SOL     OW 5157   1.284   4.975   4.740 -0.2746 -0.1272  0.1890
 1186SOL    HW1 5158   1.356   5.022   4.689 -0.3341  0.7025  0.8617
 1186SOL    HW2 5159   1.317   4.884   4.767  0.6181  0.3401  0.7153
 1187SOL     OW 5160   0.207   6.700   2.204 -0.5414  0.4200 -0.4293
 1187SOL    HW1 5161   0.138   6.708   2.133 -1.5311 -0.9766  0.3315
 1187SOL    HW2 5162   0.164   6.675   2.291  0.8103  0.5295  0.3095
 1188SOL     OW 5163   1.164   1.916   1.266  0.1283  0.2139  0.7278
 1188SOL    HW1 5164   1.239   1.859   1.231 -0.5981 -1.3999  1.6747
 1188SOL    HW2 5165   1.171   1.922   1.366 -0.3709  0.9892  0.7244
 1189SOL     OW 5166   6.553   3.132   3.416  0.5328 -0.2478  0.4892
 1189SOL    HW1 5167   6.502   3.217   3.426  1.8648  0.5907  0.3604
 1189SOL    HW2 5168   6.638   3.138   3.468  1.2049 -1.0281 -0.4887
 1190SOL     OW 5169   3.901   3.609   2.942 -0.7011 -0.9076 -0.0703
 1190SOL    HW1 5170   3.822   3.671   2.944 -2.3475 -2.8354 -1.3152
 1190SOL    HW2 5171   3.906   3.558   3.028 -1.5611 -1.6153 -0.4243
 1191SOL     OW 5172   1.093   4.568   2.595  0.2402 -0.4517  0.0352
 1191SOL    HW1 5173   1.043   4.496   2.643  0.4978  0.4384  1.7352
 1191SOL    HW2 5174   1.029   4.640   2.568  0.1812 -0.6912 -0.4788
 1192SOL     OW 5175   5.561   5.101   2.499 -0.2517 -0.0646 -0.2627
 1192SOL    HW1 5176   5.607   5.014   2.481  0.7556  0.5669 -0.7835
 1192SOL    HW2 5177   5.509   5.094   2.585 -1.2796 -1.5957 -0.9662
 1193SOL     OW 5178   6.558   2.574   1.692 -0.7202  0.1349 -0.2606
 1193SOL    HW1 5179   6.592   2.629   1.616 -1.2207  0.6519 -0.1231
 1193SOL    HW2 5180   6.478   2.620   1.733 -0.3237 -0.0250  0.7153
 1194SOL     OW 5181   5.641   0.086   4.611 -0.4240 -0.0986 -0.2844
 1194SOL    HW1 5182   5.730   0.051   4.640 -0.6278 -0.0431  0.4222
 1194SOL    HW2 5183   5.621   0.171   4.659 -0.4239  0.4168 -1.1796
 1195SOL     OW 5184   4.219   5.388   4.096 -0.0978 -0.3782 -0.4073
 1195SOL    HW1 5185   4.298   5.413   4.152 -1.0148  0.4584  0.5824
 1195SOL    HW2 5186   4.227   5.293   4.066  0.9067 -0.5369  0.3206
 1196SOL     OW 5187   6.952   5.048   3.367  0.4413 -0.4090 -0.4350
 1196SOL    HW1 5188   6.853   5.036   3.364  0.3948 -0.3277  0.5768
 1196SOL    HW2 5189   6.976   5.141   3.339  0.1486 -0.1157  0.2537
 1197SOL     OW 5190   1.726   5.014   3.222 -0.2853 -0.0132  0.8046
 1197SOL    HW1 5191   1.660   4.966   3.280 -1.1726 -1.8632 -1.6053
 1197SOL    HW2 5192   1.788   4.948   3.180  0.3685  1.2709 -0.3295
 1198SOL     OW 5193   5.596   3.298   4.393 -0.2007 -0.1424 -0.0613
 1198SOL    HW1 5194   5.667   3.353   4.348 -0.4965  0.3116  0.0238
 1198SOL    HW2 5195   5.506   3.331   4.366 -0.3859  0.2519  0.9955
 1199SOL     OW 5196   2.636   2.973   6.874 -0.6678 -0.1238 -0.6290
 1199SOL    HW1 5197   2.582   2.977   6.958 -0.7788  2.4157 -0.7377
 1199SOL    HW2 5198   2.576   2.993   6.795 -0.1926 -0.5363 -1.0999
 1200SOL     OW 5199   5.906   2.205   3.374 -0.4198 -0.1634 -0.4609
 1200SOL    HW1 5200   5.812   2.233   3.355 -0.0519  0.7251 -1.0613
 1200SOL    HW2 5201   5.949   2.273   3.433  0.1368 -0.0602 -0.9735
 1201SOL     OW 5202   4.284   6.727   5.921 -0.9346 -0.4151  0.0273
 1201SOL    HW1 5203   4.198   6.677   5.937 -0.0393 -2.0003  0.1221
 1201SOL    HW2 5204   4.361   6.666   5.938  0.2014  0.4060 -1.8953
 1202SOL     OW 5205   4.767   0.337   2.383 -0.1683  0.0264 -0.4160
 1202SOL    HW1 5206   4.699   0.308   2.315 -0.2238 -1.8863  0.3952
 1202SOL    HW2 5207   4.820   0.413   2.347  0.0349 -1.1361 -2.7429
 1203SOL     OW 5208   1.696   6.795   3.710 -0.1725 -0.4141  0.1709
 1203SOL    HW1 5209   1.605   6.805   3.752 -0.0757  0.3109  0.2230
 1203SOL    HW2 5210   1.764   6.776   3.781 -0.0370  0.6338  0.3363
 1204SOL     OW 5211   2.633   3.947   5.084 -0.3338  0.8812  0.1058
 1204SOL    HW1 5212   2.715   3.927   5.137 -0.4722 -1.1197 -0.3572
 1204SOL    HW2 5213   2.659   3.976   4.992 -0.0908 -1.3334 -0.5787
 1205SOL     OW 5214   5.813   5.915   1.763 -0.0299  0.5304  0.1275
 1205SOL    HW1 5215   5.755   5.925   1.682  0.5486 -0.2956 -0.4074
 1205SOL    HW2 5216   5.900   5.962   1.748  1.2342 -1.9260 -0.9384
 1206SOL     OW 5217   4.530   1.929   5.794  1.0195  0.0112 -0.0953
 1206SOL    HW1 5218   4.469   1.980   5.854  1.7327  2.4103 -1.2915
 1206SOL    HW2 5219   4.485   1.913   5.706  1.2128 -0.4779 -0.1114
 1207SOL     OW 5220   6.633   3.427   5.060 -0.0363  0.2815 -0.1397
 1207SOL    HW1 5221   6.628   3.383   5.150 -0.7169 -0.7543 -0.6692
 1207SOL    HW2 5222   6.541   3.440   5.024  0.2640 -0.9516 -1.4443
 1208SOL     OW 5223   4.464   2.241   1.277  0.5063 -0.1910 -0.0594
 1208SOL    HW1 5224   4.563   2.243   1.292  0.3324 -0.2043  1.1360
 1208SOL    HW2 5225   4.441   2.166   1.215  1.1349 -0.8827  0.5351
 1209SOL     OW 5226   0.232   4.922   4.198 -0.6157 -0.1302 -0.2747
 1209SOL    HW1 5227   0.238   4.858   4.121  0.4025 -1.3701  0.7891
 1209SOL    HW2 5228   0.147   4.905   4.249  0.1257 -1.3500  0.5873
 1210SOL     OW 5229   6.936   6.337   1.085  0.0508  0.2463 -0.0926
 1210SOL    HW1 5230   7.021   6.387   1.101 -0.7139  1.3137  0.7891
 1210SOL    HW2 5231   6.956   6.251   1.038  1.5444  0.7482 -0.4216
 1211SOL     OW 5232   0.665   3.168   4.720  0.1563 -0.2844  0.4202
 1211SOL    HW1 5233   0.694   3.246   4.665  2.0880 -1.2749 -0.0710
 1211SOL    HW2 5234   0.661   3.195   4.816  3.4500 -0.1228  0.6432
 1212SOL     OW 5235   3.896   0.560   0.527  0.2603 -0.6863 -0.1103
 1212SOL    HW1 5236   3.879   0.489   0.595 -1.0564  0.0494  0.3656
 1212SOL    HW2 5237   3.865   0.529   0.437  0.9685 -1.2291 -0.1731
 1213SOL     OW 5238   3.323   6.354   4.643 -0.0015  0.0670 -0.3348
 1213SOL    HW1 5239   3.362   6.376   4.553 -1.7961  0.7192 -0.9949
 1213SOL    HW2 5240   3.393   6.310   4.699  1.3453  0.1949 -1.8269
 1214SOL     OW 5241   6.857   6.487   3.087 -0.3733  0.4360  0.3405
 1214SOL    HW1 5242   6.854   6.578   3.128 -2.2776  0.7705 -0.4633
 1214SOL    HW2 5243   6.821   6.420   3.152 -0.7421  0.5460  0.2518
 1215SOL     OW 5244   3.854   5.627   2.191  0.4940 -0.3796  0.1165
 1215SOL    HW1 5245   3.844   5.676   2.277  1.0623 -1.0083  0.5474
 1215SOL    HW2 5246   3.882   5.691   2.119  0.7967  0.0017  0.5708
 1216SOL     OW 5247   2.586   6.494   6.761 -0.3161  0.0097  0.6767
 1216SOL    HW1 5248   2.590   6.399   6.729  0.1502 -0.0864  1.0073
 1216SOL    HW2 5249   2.612   6.555   6.686  1.1002 -0.2337  0.9326
 1217SOL     OW 5250   0.021   6.960   3.892  0.0804 -0.0310 -0.1152
 1217SOL    HW1 5251   0.079   6.983   3.971 -0.8348 -0.8129  0.8115
 1217SOL    HW2 5252  -0.067   6.926   3.924  0.5576 -2.7862 -1.3893
 1218SOL     OW 5253   5.159   2.173   4.562 -0.0919  0.3691 -0.2357
 1218SOL    HW1 5254   5.206   2.206   4.644 -0.4816 -1.8632  0.9882
 1218SOL    HW2 5255   5.068   2.215   4.556 -0.5892 -0.4239  1.2687
 1219SOL     OW 5256   2.521   2.960   0.593 -0.1973 -0.4762 -0.8447
 1219SOL    HW1 5257   2.458   2.979   0.668  0.9903 -1.0150  0.3335
 1219SOL    HW2 5258   2.523   2.862   0.574 -0.2798 -0.3752 -1.3934
 1220SOL     OW 5259   6.403   4.269   2.552 -0.1119 -0.2877 -0.0358
 1220SOL    HW1 5260   6.313   4.273   2.596  0.0704  1.0936  0.2586
 1220SOL    HW2 5261   6.428   4.359   2.519  1.2801 -0.5967  0.0954
 1221SOL     OW 5262   0.978   0.856   3.322  0.5047 -0.3854  0.2588
 1221SOL    HW1 5263   1.014   0.798   3.396 -1.0906 -1.1418  0.4895
 1221SOL    HW2 5264   0.922   0.929   3.362 -0.7841 -1.0999 -0.1935
 1222SOL     OW 5265   5.151   3.617   3.846  1.0676 -0.5922  0.5106
 1222SOL    HW1 5266   5.080   3.687   3.851  0.9454 -0.8084  2.4559
 1222SOL    HW2 5267   5.171   3.597   3.750 -1.0750 -0.1150 -0.0875
 1223SOL     OW 5268   3.140   1.166   2.098  0.2676  0.3067 -0.6189
 1223SOL    HW1 5269   3.106   1.151   2.006 -1.6643  0.1761  0.0788
 1223SOL    HW2 5270   3.155   1.263   2.113  1.8217  0.2350 -1.4361
 1224SOL     OW 5271   6.255   2.984   7.009  0.3413  0.2753 -0.5803
 1224SOL    HW1 5272   6.323   3.046   7.051 -0.4946  1.5230 -1.0131
 1224SOL    HW2 5273   6.216   2.925   7.079 -0.9325  2.2318  0.4462
 1225SOL     OW 5274   1.240   4.187   6.237  0.1790 -0.2447  0.0262
 1225SOL    HW1 5275   1.337   4.192   6.259  1.1854 -1.3051 -3.4726
 1225SOL    HW2 5276   1.196   4.119   6.295  1.1094  1.1968  2.6000
 1226SOL     OW 5277   2.115   4.358   4.662  0.3694  0.5650  0.4342
 1226SOL    HW1 5278   2.066   4.272   4.669 -0.1012  0.6155 -1.5323
 1226SOL    HW2 5279   2.066   4.419   4.599  0.7855  2.2106  1.6305
 1227SOL     OW 5280   0.414   4.424   5.512  0.0697  0.0294  0.3933
 1227SOL    HW1 5281   0.387   4.469   5.427 -0.9451 -0.4012  0.4785
 1227SOL    HW2 5282   0.391   4.481   5.590  2.2163  1.0303  0.3522
 1228SOL     OW 5283   5.244   0.464   5.590  0.1236  0.2953 -0.5799
 1228SOL    HW1 5284   5.253   0.367   5.612 -0.4145 -0.4705 -3.3394
 1228SOL    HW2 5285   5.175   0.505   5.649 -0.8331 -1.4293 -0.4107
 1229SOL     OW 5286   6.049   2.105   2.496 -0.3005  0.2081 -0.0551
 1229SOL    HW1 5287   5.952   2.126   2.489 -0.2945 -0.1136 -1.4637
 1229SOL    HW2 5288   6.103   2.182   2.461 -0.2055 -0.9698 -2.7779
 1230SOL     OW 5289   2.974   6.853   3.517  0.2914  0.2064 -0.1487
 1230SOL    HW1 5290   2.875   6.863   3.534  0.2474 -0.9798  0.4108
 1230SOL    HW2 5291   3.006   6.929   3.461 -1.0083  0.4423 -0.6066
 1231SOL     OW 5292   6.888   5.807   4.545 -0.1135  0.2562 -0.0248
 1231SOL    HW1 5293   6.986   5.794   4.536 -0.2845 -1.4507  0.3361
 1231SOL    HW2 5294   6.840   5.759   4.472 -0.7978 -1.5471  1.5307
 1232SOL     OW 5295   0.245   5.303   0.146 -0.1548  0.0553 -0.3628
 1232SOL    HW1 5296   0.188   5.225   0.118 -0.0341 -0.4300  0.6953
 1232SOL    HW2 5297   0.193   5.388   0.137 -0.9669 -0.3584  0.3428
 1233SOL     OW 5298   5.950   3.163   5.846  0.4711 -0.7463 -0.1875
 1233SOL    HW1 5299   5.853   3.162   5.868 -0.0456 -1.0006 -2.2774
 1233SOL    HW2 5300   6.000   3.207   5.920 -1.5886  2.1033 -0.3006
 1234SOL     OW 5301   5.528   6.343   1.137 -0.1876  0.1799 -0.2972
 1234SOL    HW1 5302   5.479   6.305   1.215 -1.5664 -0.5462 -1.4648
 1234SOL    HW2 5303   5.591   6.275   1.101  0.9647  0.7523  0.5589
 1235SOL     OW 5304   5.823   4.538   3.109 -0.4048  0.7456 -0.3468
 1235SOL    HW1 5305   5.918   4.539   3.079 -0.0809  0.3956  0.6501
 1235SOL    HW2 5306   5.763   4.552   3.029  0.3926 -0.8833 -1.2672
 1236SOL     OW 5307   6.239   2.650   5.409  0.5356  0.4814  0.2797
 1236SOL    HW1 5308   6.171   2.581   5.435 -1.8092  1.5154 -2.5379
 1236SOL    HW2 5309   6.273   2.630   5.317  4.2587 -0.0185  1.5987
 1237SOL     OW 5310   2.336   2.449   1.406  0.0360 -0.2698 -0.3063
 1237SOL    HW1 5311   2.398   2.507   1.460  1.3216 -2.0415  0.2403
 1237SOL    HW2 5312   2.333   2.481   1.312  2.4940 -0.5800 -0.5585
 1238SOL     OW 5313   0.235   3.345   2.307 -0.2448  0.3741  0.0435
 1238SOL    HW1 5314   0.289   3.261   2.308  0.7054  0.8950 -2.1790
 1238SOL    HW2 5315   0.142   3.325   2.337  0.5758 -0.9598  1.8849
 1239SOL     OW 5316   6.749   6.007   3.439  0.1747  0.0970 -0.6485
 1239SOL    HW1 5317   6.688   6.026   3.516 -2.1785  1.1534 -2.6605
 1239SOL    HW2 5318   6.713   5.931   3.386  0.5059  0.8495 -1.9817
 1240SOL     OW 5319   0.892   6.184   0.028 -0.1269  0.5584 -0.1066
 1240SOL    HW1 5320   0.875   6.274  -0.011 -1.6716 -0.9254 -3.2405
 1240SOL    HW2 5321   0.990   6.170   0.039  0.1689  2.3269 -0.2483
 1241SOL     OW 5322   6.151   5.179   4.685  0.5406 -0.6566  0.2977
 1241SOL    HW1 5323   6.094   5.124   4.747  0.8441 -1.1633  0.1322
 1241SOL    HW2 5324   6.245   5.144   4.686  1.0604  0.7091  1.2160
 1242SOL     OW 5325   2.966   0.713   5.909 -0.1718 -0.2940  0.0237
 1242SOL    HW1 5326   3.055   0.676   5.936 -1.0297 -0.7019  2.5713
 1242SOL    HW2 5327   2.961   0.809   5.935  0.4437  0.5597 -2.6354
 1243SOL     OW 5328   5.714   0.419   3.685  0.2569 -0.4221 -0.2756
 1243SOL    HW1 5329   5.776   0.340   3.692  0.6807 -0.5369 -3.8435
 1243SOL    HW2 5330   5.635   0.394   3.629 -0.2879  1.3113 -0.3222
 1244SOL     OW 5331   4.388   5.155   2.529 -0.2649 -0.3729  0.0295
 1244SOL    HW1 5332   4.333   5.210   2.466  3.2428  2.2508 -1.0865
 1244SOL    HW2 5333   4.457   5.105   2.477  0.9121 -0.4182  1.5652
 1245SOL     OW 5334   1.674   1.266   3.332  0.2501  0.0175 -0.6105
 1245SOL    HW1 5335   1.686   1.362   3.310  0.4352  0.4926  1.3286
 1245SOL    HW2 5336   1.591   1.254   3.388  0.1576 -0.9654 -0.9269
 1246SOL     OW 5337   2.076   1.977   0.090 -0.3662  0.7308  0.1610
 1246SOL    HW1 5338   2.040   2.065   0.057 -1.1878  0.7136  0.9692
 1246SOL    HW2 5339   2.144   1.994   0.161  0.6261  0.7410 -0.7738
 1247SOL     OW 5340   2.868   4.624   0.889  0.1672  0.2685 -0.0402
 1247SOL    HW1 5341   2.921   4.648   0.808 -0.6167 -1.9722 -1.3133
 1247SOL    HW2 5342   2.787   4.571   0.862 -0.8233  0.5560  2.1180
 1248SOL     OW 5343   3.871   0.833   5.378  0.0445  0.6219  0.0310
 1248SOL    HW1 5344   3.857   0.807   5.282  1.0127 -0.7135  0.2115
 1248SOL    HW2 5345   3.968   0.851   5.394 -0.3226  2.4728  0.4170
 1249SOL     OW 5346   6.862   1.246   4.466  0.0323 -0.0486  0.4185
 1249SOL    HW1 5347   6.771   1.221   4.433 -0.2020 -0.0534  1.0547
 1249SOL    HW2 5348   6.885   1.192   4.547  0.4095  0.2779  0.5363
 1250SOL     OW 5349   4.612   4.774   2.164 -0.2407  0.0635 -0.7996
 1250SOL    HW1 5350   4.573   4.704   2.104 -1.4948  2.2948 -2.7683
 1250SOL    HW2 5351   4.697   4.810   2.124 -0.0421  0.2258 -0.2433
 1251SOL     OW 5352   5.892   5.742   5.649  0.4066 -0.2154 -0.0423
 1251SOL    HW1 5353   5.900   5.647   5.679  0.1824  0.3885  2.1270
 1251SOL    HW2 5354   5.936   5.802   5.717 -0.6839  1.3201 -0.6396
 1252SOL     OW 5355   1.743   3.726   2.373  0.2549 -0.6745 -0.0991
 1252SOL    HW1 5356   1.673   3.684   2.430 -1.6955  1.2248 -0.9394
 1252SOL    HW2 5357   1.725   3.704   2.277 -1.2014  2.4259 -0.6253
 1253SOL     OW 5358   4.032   4.726   1.041 -0.0203  0.1024  0.2883
 1253SOL    HW1 5359   3.998   4.747   0.950  0.7097 -1.2243 -0.3266
 1253SOL    HW2 5360   4.092   4.646   1.036  0.1787  0.1207  1.9068
 1254SOL     OW 5361   5.592   6.818   0.127  0.0306 -0.4689 -0.6659
 1254SOL    HW1 5362   5.521   6.871   0.174  1.2018  0.2767  0.3285
 1254SOL    HW2 5363   5.581   6.827   0.028 -0.6918  0.4020 -0.5126
 1255SOL     OW 5364   0.615   5.947   2.012 -0.5092  0.0644  0.4022
 1255SOL    HW1 5365   0.565   5.880   2.067  2.2109 -1.7654  0.8621
 1255SOL    HW2 5366   0.701   5.906   1.979  0.0885  2.5507 -1.4804
 1256SOL     OW 5367   5.886   7.014   4.914  0.1904  0.2989 -0.2381
 1256SOL    HW1 5368   5.957   6.965   4.965  0.2532  0.5615 -0.0751
 1256SOL    HW2 5369   5.905   7.005   4.816  0.4166  0.3184 -0.1978
 1257SOL     OW 5370   1.923   3.940   1.033 -0.3531  0.2389  0.2650
 1257SOL    HW1 5371   1.946   3.994   0.952 -0.0866 -1.2428 -0.6972
 1257SOL    HW2 5372   2.006   3.928   1.089 -0.0274 -0.4968 -0.3560
 1258SOL     OW 5373   6.340   0.087   6.416 -0.0784  0.4412 -0.5937
 1258SOL    HW1 5374   6.342   0.032   6.500  1.1438 -0.0818 -0.9393
 1258SOL    HW2 5375   6.279   0.165   6.429 -0.3461  0.0641  0.5817
 1259SOL     OW 5376   0.608   6.193   4.129 -0.5703  0.0760  0.5121
 1259SOL    HW1 5377   0.521   6.227   4.166 -0.0333  2.0218  0.0882
 1259SOL    HW2 5378   0.667   6.164   4.205 -0.9234  0.4258  0.9267
 1260SOL     OW 5379   1.198   0.694   5.962  0.5500 -0.6084 -0.1568
 1260SOL    HW1 5380   1.102   0.672   5.973  0.6723 -0.9534  0.2633
 1260SOL    HW2 5381   1.254   0.628   6.012  0.8605  1.6977  2.8969
 1261SOL     OW 5382   2.496   0.545   3.249 -0.2353 -0.3517 -0.1482
 1261SOL    HW1 5383   2.427   0.525   3.179 -1.4482  1.8163  0.3447
 1261SOL    HW2 5384   2.452   0.553   3.338  0.7184  0.5899  0.2593
 1262SOL     OW 5385   4.943   7.003   0.662  0.1482 -0.2195  0.3676
 1262SOL    HW1 5386   4.979   6.961   0.746  1.2578 -0.3191 -0.1481
 1262SOL    HW2 5387   4.894   7.087   0.686 -1.5486 -1.4192  1.3458
 1263SOL     OW 5388   1.226   3.571   0.487 -0.0187  0.4215 -0.5512
 1263SOL    HW1 5389   1.288   3.517   0.430 -0.3122 -0.6785  0.1583
 1263SOL    HW2 5390   1.138   3.581   0.440 -0.8482 -1.9362  0.3728
 1264SOL     OW 5391   4.139   3.392   5.998  0.3750  0.0143 -0.1772
 1264SOL    HW1 5392   4.126   3.441   5.912  0.9060  0.8740  0.2235
 1264SOL    HW2 5393   4.157   3.457   6.072  0.6328 -0.7506  0.4525
 1265SOL     OW 5394   3.170   3.868   1.761 -0.0192 -0.3863  0.1810
 1265SOL    HW1 5395   3.199   3.878   1.665 -0.3441  1.0509  0.1973
 1265SOL    HW2 5396   3.133   3.777   1.775  1.0474 -0.9962 -0.7812
 1266SOL     OW 5397   4.816   2.313   4.315 -0.2214  0.5131  0.0097
 1266SOL    HW1 5398   4.907   2.350   4.296 -0.2578 -0.3644 -2.2194
 1266SOL    HW2 5399   4.818   2.214   4.309 -1.0643  0.3850  1.3785
 1267SOL     OW 5400   6.273   1.576   1.474  0.0129  0.5370  0.0602
 1267SOL    HW1 5401   6.226   1.540   1.393 -0.2851 -0.6646  0.7369
 1267SOL    HW2 5402   6.370   1.552   1.470 -0.3242 -1.1457  0.8878
 1268SOL     OW 5403   3.791   3.724   1.137 -0.5284  0.2000  0.2647
 1268SOL    HW1 5404   3.736   3.642   1.149 -1.4736  0.8623  0.5753
 1268SOL    HW2 5405   3.733   3.805   1.148  0.3421  0.9102 -0.2318
 1269SOL     OW 5406   6.647   1.557   2.903 -0.2904  0.0272  0.4290
 1269SOL    HW1 5407   6.665   1.511   2.816  0.5293  0.2447  0.4730
 1269SOL    HW2 5408   6.618   1.651   2.886 -1.6835 -0.3936  0.3494
 1270SOL     OW 5409   4.330   4.254   6.415  0.1310 -0.1707  0.4482
 1270SOL    HW1 5410   4.244   4.205   6.429 -0.0932  0.4239  1.2311
 1270SOL    HW2 5411   4.399   4.192   6.376 -0.1637 -1.0836  1.3607
 1271SOL     OW 5412   1.470   3.358   2.665 -0.5097  0.0738 -0.0659
 1271SOL    HW1 5413   1.385   3.389   2.621 -0.7520  0.0801  0.3991
 1271SOL    HW2 5414   1.467   3.259   2.678 -0.2250  0.0017 -0.5049
 1272SOL     OW 5415   0.308   1.624   0.353  0.0778 -0.4876  0.2257
 1272SOL    HW1 5416   0.345   1.533   0.373 -0.4531 -1.3990 -2.5204
 1272SOL    HW2 5417   0.378   1.679   0.308  0.2410  0.3432  1.4393
 1273SOL     OW 5418   6.465   1.946   2.252  0.0249  0.3514 -0.5366
 1273SOL    HW1 5419   6.450   1.996   2.167  0.8747  0.4831 -0.6148
 1273SOL    HW2 5420   6.561   1.954   2.279 -0.1494 -0.0334  0.2171
 1274SOL     OW 5421   6.156   6.423   3.271 -0.8934 -0.4366  0.0215
 1274SOL    HW1 5422   6.222   6.468   3.210  0.0375 -2.7584 -0.7942
 1274SOL    HW2 5423   6.063   6.451   3.246 -0.3980  0.5540 -0.8238
 1275SOL     OW 5424   0.823   3.027   4.399  0.0149 -0.2087  0.3200
 1275SOL    HW1 5425   0.729   3.057   4.384  1.0109  2.6382 -0.9293
 1275SOL    HW2 5426   0.839   2.941   4.350 -0.8610  1.4349 -3.2064
 1276SOL     OW 5427   5.310   0.562   3.460  0.2832 -0.8580 -0.5429
 1276SOL    HW1 5428   5.380   0.511   3.412  0.9888 -1.8891  1.4847
 1276SOL    HW2 5429   5.352   0.624   3.526 -0.6777 -0.2044 -0.5103
 1277SOL     OW 5430   4.410   3.905   3.028  0.9092 -0.1876 -0.4125
 1277SOL    HW1 5431   4.447   3.921   3.120  0.4978 -1.2216 -0.0509
 1277SOL    HW2 5432   4.310   3.906   3.032  0.8805  1.1340 -1.1139
 1278SOL     OW 5433   1.206   4.197   5.170 -0.4412 -0.0284 -0.2915
 1278SOL    HW1 5434   1.214   4.114   5.114 -0.0787 -0.0561 -0.2045
 1278SOL    HW2 5435   1.110   4.214   5.191 -0.5330 -0.3262 -0.4620
 1279SOL     OW 5436   0.576   0.968   1.797 -0.1117 -0.3453 -0.2110
 1279SOL    HW1 5437   0.560   0.910   1.716 -0.0371 -0.2319 -0.3065
 1279SOL    HW2 5438   0.658   1.023   1.783 -0.5883  0.3246 -0.4290
 1280SOL     OW 5439   3.813   5.946   5.450 -0.5664 -0.2117  0.1887
 1280SOL    HW1 5440   3.721   5.978   5.426 -0.1549  2.1336  1.4404
 1280SOL    HW2 5441   3.806   5.860   5.501 -1.9262 -0.9158 -1.1087
 1281SOL     OW 5442   4.288   1.087   3.427 -0.4818 -0.2389 -0.2979
 1281SOL    HW1 5443   4.317   1.115   3.335  0.9592 -1.6755 -0.3327
 1281SOL    HW2 5444   4.338   1.140   3.495 -1.0927  0.3925 -0.3324
 1282SOL     OW 5445   1.594   0.423   6.392 -0.2742  0.2212  0.1475
 1282SOL    HW1 5446   1.620   0.440   6.297  0.9118  0.2643  0.4647
 1282SOL    HW2 5447   1.661   0.363   6.435  0.7269  2.3578  1.7320
 1283SOL     OW 5448   4.993   3.544   6.612  0.2181  0.2876  0.4891
 1283SOL    HW1 5449   4.967   3.557   6.708 -2.7719 -0.4157 -0.1009
 1283SOL    HW2 5450   4.974   3.628   6.561 -2.1931 -0.5701 -0.1539
 1284SOL     OW 5451   3.333   0.707   2.424 -0.1684 -0.5822 -0.3206
 1284SOL    HW1 5452   3.419   0.725   2.472  0.1651  0.0060 -1.1162
 1284SOL    HW2 5453   3.276   0.789   2.425  0.4421 -0.0919 -2.1098
 1285SOL     OW 5454   3.560   1.051   6.981  0.6962  0.5144  0.1920
 1285SOL    HW1 5455   3.610   1.115   7.039  0.2848  0.2351  0.8627
 1285SOL    HW2 5456   3.518   0.980   7.038 -1.8379  1.6302 -0.1543
 1286SOL     OW 5457   6.913   0.029   5.165 -0.2544 -0.1377  0.0610
 1286SOL    HW1 5458   6.837  -0.020   5.208  1.4787 -1.6139  1.6931
 1286SOL    HW2 5459   6.954   0.091   5.232 -1.6354  2.7822 -1.6239
 1287SOL     OW 5460   2.301   6.896   0.530 -0.3167  0.2744 -0.4475
 1287SOL    HW1 5461   2.316   6.800   0.555 -1.6523  0.2584  0.3815
 1287SOL    HW2 5462   2.234   6.937   0.592 -1.8552  0.9721 -2.4484
 1288SOL     OW 5463   0.963   5.015   5.655  0.2103  0.1191 -0.4297
 1288SOL    HW1 5464   0.870   4.986   5.680  0.9698 -1.5877  0.6721
 1288SOL    HW2 5465   1.024   4.936   5.660  2.1121  1.5881  0.8867
 1289SOL     OW 5466   3.430   6.862   0.756  0.3431 -0.2223  0.3847
 1289SOL    HW1 5467   3.477   6.797   0.816  1.2714  0.5147  0.4848
 1289SOL    HW2 5468   3.332   6.845   0.759  0.5759 -1.6473  0.3557
 1290SOL     OW 5469   5.855   3.085   1.660 -0.4190  0.2039  0.4965
 1290SOL    HW1 5470   5.785   3.071   1.590 -1.5186 -1.2926  1.8008
 1290SOL    HW2 5471   5.836   3.026   1.738  2.3755 -0.3042  0.9008
 1291SOL     OW 5472   4.252   2.095   3.969 -0.3166  0.0515 -0.5564
 1291SOL    HW1 5473   4.155   2.121   3.965 -0.7227 -1.1569  0.8460
 1291SOL    HW2 5474   4.297   2.145   4.043  0.0536  0.3318 -0.9647
 1292SOL     OW 5475   2.009   2.930   4.915  0.3764  0.6167 -0.6554
 1292SOL    HW1 5476   2.013   3.022   4.954  0.5524  0.4836 -0.3568
 1292SOL    HW2 5477   2.095   2.911   4.867  0.4095  0.5432 -0.5668
 1293SOL     OW 5478   0.045   4.492   5.860 -0.6823  0.0404  0.1074
 1293SOL    HW1 5479  -0.035   4.524   5.911 -1.6225 -0.7175 -0.8348
 1293SOL    HW2 5480   0.056   4.546   5.777 -0.6481 -0.3029 -0.1173
 1294SOL     OW 5481   6.337   0.265   1.395  0.5701  0.5737 -0.5232
 1294SOL    HW1 5482   6.346   0.211   1.311  0.5857  0.6510 -0.5711
 1294SOL    HW2 5483   6.252   0.241   1.441  1.6668 -1.2591  0.7026
 1295SOL     OW 5484   2.717   1.636   0.890  0.2601 -0.9410  0.5652
 1295SOL    HW1 5485   2.755   1.670   0.976  0.6903 -0.3844  0.1583
 1295SOL    HW2 5486   2.788   1.591   0.836  0.1266 -0.7723  0.2418
 1296SOL     OW 5487   6.898   1.311   6.530  0.1250  0.1224  0.2088
 1296SOL    HW1 5488   6.950   1.341   6.610 -1.8491  1.1117  1.1966
 1296SOL    HW2 5489   6.835   1.383   6.501 -1.4140 -1.3383 -0.3023
 1297SOL     OW 5490   3.742   3.927   6.285  0.1110  0.4239  0.0927
 1297SOL    HW1 5491   3.734   3.830   6.263  0.4636  0.3759  0.1803
 1297SOL    HW2 5492   3.694   3.980   6.215 -0.0173  0.1945  0.0019
 1298SOL     OW 5493   1.179   4.949   0.574 -0.3213  0.3727  0.7133
 1298SOL    HW1 5494   1.171   4.870   0.635  1.4859  1.7529  2.8720
 1298SOL    HW2 5495   1.238   4.925   0.496 -1.7665 -1.0723 -0.0075
 1299SOL     OW 5496   4.822   5.004   1.422 -0.0806  0.5009 -0.3478
 1299SOL    HW1 5497   4.839   4.937   1.496  1.8136  1.4090  0.1073
 1299SOL    HW2 5498   4.756   5.072   1.454  1.2785  1.3160  0.8439
 1300SOL     OW 5499   6.647   0.084   1.065  0.5625  0.1928 -0.2787
 1300SOL    HW1 5500   6.576   0.150   1.038 -0.0244 -0.4274 -0.2699
 1300SOL    HW2 5501   6.695   0.053   0.983 -0.1284 -0.4497 -0.4556
 1301SOL     OW 5502   5.062   4.199   3.552 -0.6884  0.5320 -0.1049
 1301SOL    HW1 5503   4.999   4.130   3.518  0.9038 -2.0332  1.8181
 1301SOL    HW2 5504   5.011   4.265   3.608 -1.9688 -0.1350 -0.4344
 1302SOL     OW 5505   2.890   2.425   0.813  0.3508 -0.0467 -0.1052
 1302SOL    HW1 5506   2.971   2.472   0.848  0.3438 -1.1700  1.5122
 1302SOL    HW2 5507   2.851   2.368   0.884 -0.4808 -1.4051 -1.5808
 1303SOL     OW 5508   1.948   6.424   0.084  0.0213  0.1512  0.0418
 1303SOL    HW1 5509   2.043   6.455   0.089 -0.1268  0.9272 -1.5414
 1303SOL    HW2 5510   1.942   6.346   0.022 -0.7698  1.9391 -2.2455
 1304SOL     OW 5511   0.484   1.785   6.320 -0.1620  0.0178 -0.3289
 1304SOL    HW1 5512   0.499   1.688   6.299 -1.4277 -0.0396 -1.0295
 1304SOL    HW2 5513   0.391   1.811   6.296 -0.3351  1.0451  1.2783
 1305SOL     OW 5514   6.047   6.801   3.226 -0.1614  0.3897  0.0452
 1305SOL    HW1 5515   6.125   6.767   3.277 -0.4398  1.3051  1.1305
 1305SOL    HW2 5516   6.004   6.726   3.175  0.8714 -0.2905  0.1560
 1306SOL     OW 5517   2.673   3.063   3.864 -0.2871  0.5271 -0.1184
 1306SOL    HW1 5518   2.722   3.139   3.820 -0.7490  0.3565 -0.9490
 1306SOL    HW2 5519   2.602   3.099   3.923 -0.0570  0.7521  0.0245
 1307SOL     OW 5520   3.627   6.685   1.700 -0.3970 -1.0168  0.5883
 1307SOL    HW1 5521   3.713   6.635   1.698 -0.0805 -0.5511  1.9135
 1307SOL    HW2 5522   3.607   6.716   1.793 -0.5536  1.3764 -0.1611
 1308SOL     OW 5523   2.447   3.627   3.789 -0.7255 -0.6956  0.4076
 1308SOL    HW1 5524   2.542   3.648   3.764 -0.3526 -2.0373  0.6358
 1308SOL    HW2 5525   2.443   3.601   3.885 -0.9585 -2.7628 -0.1247
 1309SOL     OW 5526   4.155   3.037   6.769 -0.2262 -0.0780  0.0863
 1309SOL    HW1 5527   4.111   3.116   6.811  1.9292  2.3898 -1.9523
 1309SOL    HW2 5528   4.122   3.027   6.675  2.4346  1.0667 -1.0659
 1310SOL     OW 5529   1.012   6.185   1.882 -0.3191 -0.0001  0.1445
 1310SOL    HW1 5530   0.984   6.102   1.833 -0.4944  0.9218 -1.3831
 1310SOL    HW2 5531   0.972   6.184   1.974  0.1201 -1.8395  0.3622
 1311SOL     OW 5532   6.133   5.325   5.773 -0.0286 -0.0405 -0.1398
 1311SOL    HW1 5533   6.167   5.277   5.854 -1.1863 -1.4974 -0.4779
 1311SOL    HW2 5534   6.139   5.265   5.694  1.2495  1.4276 -1.2199
 1312SOL     OW 5535   4.288   5.217   5.134  0.2038 -0.1394  0.9351
 1312SOL    HW1 5536   4.233   5.247   5.057  0.6552 -0.1798  0.5928
 1312SOL    HW2 5537   4.347   5.141   5.106  1.0251  0.4325  1.0649
 1313SOL     OW 5538   1.422   0.563   4.085 -0.4311 -0.1587 -0.4843
 1313SOL    HW1 5539   1.372   0.531   4.165  1.7708  1.5813  1.7579
 1313SOL    HW2 5540   1.517   0.531   4.091  1.1609  4.0752  0.4541
 1314SOL     OW 5541   2.423   0.953   6.645  0.3059  0.0348 -0.0174
 1314SOL    HW1 5542   2.363   0.875   6.660  0.8392 -0.7533 -1.7111
 1314SOL    HW2 5543   2.516   0.921   6.627  0.4848  1.0199 -0.9690
 1315SOL     OW 5544   1.604   3.823   4.771  0.4549 -0.3224 -0.1456
 1315SOL    HW1 5545   1.536   3.860   4.834 -1.8143 -1.6298 -1.6919
 1315SOL    HW2 5546   1.574   3.734   4.738  3.5302 -1.4972 -0.0525
 1316SOL     OW 5547   5.362   5.771   0.919  0.2343  0.2262  0.2575
 1316SOL    HW1 5548   5.375   5.830   0.840  2.0629  1.0042  1.0846
 1316SOL    HW2 5549   5.294   5.811   0.980  0.6212  0.8802  0.2617
 1317SOL     OW 5550   0.165   0.232   6.430  0.7148  0.5428  0.3059
 1317SOL    HW1 5551   0.255   0.189   6.421  0.1117 -1.1807  1.9705
 1317SOL    HW2 5552   0.176   0.324   6.467  1.8295  0.6458 -0.2467
 1318SOL     OW 5553   1.644   5.584   0.672  0.0150  0.2799  0.1719
 1318SOL    HW1 5554   1.685   5.620   0.588 -0.7793  1.8099  0.4068
 1318SOL    HW2 5555   1.685   5.630   0.751  0.4508 -0.8417  0.6269
 1319SOL     OW 5556   1.378   3.782   4.273 -0.2629  0.1677 -0.3176
 1319SOL    HW1 5557   1.352   3.761   4.367  0.7968 -0.9406 -0.2481
 1319SOL    HW2 5558   1.421   3.872   4.269 -1.2666  0.6820  0.0602
 1320SOL     OW 5559   5.102   2.638   1.154 -0.0442  0.1477 -0.2617
 1320SOL    HW1 5560   5.099   2.542   1.181  0.2278  0.4657  0.9520
 1320SOL    HW2 5561   5.194   2.674   1.167  0.2536  0.1901 -2.1745
 1321SOL     OW 5562   4.333   2.498   0.101  0.2041  0.0869  0.1961
 1321SOL    HW1 5563   4.380   2.555   0.168  0.9683 -0.2865 -0.0106
 1321SOL    HW2 5564   4.271   2.554   0.047  0.7608  0.6747  0.1602
 1322SOL     OW 5565   3.677   1.530   3.830  0.0559 -1.0933 -0.5242
 1322SOL    HW1 5566   3.760   1.494   3.788  1.0734  0.7436 -0.2008
 1322SOL    HW2 5567   3.687   1.628   3.844 -1.1510 -1.2462  1.8929
 1323SOL     OW 5568   2.344   6.499   2.503  0.2666 -0.1307  0.3091
 1323SOL    HW1 5569   2.282   6.441   2.557  0.1987  0.9767  1.4438
 1323SOL    HW2 5570   2.437   6.462   2.508  0.2054 -0.2099  0.9258
 1324SOL     OW 5571   3.682   0.483   3.193  0.0485  0.4388 -0.4474
 1324SOL    HW1 5572   3.608   0.463   3.258 -0.7821  1.7974 -0.9389
 1324SOL    HW2 5573   3.769   0.454   3.233 -0.2988  2.1322  1.7623
 1325SOL     OW 5574   4.651   5.243   2.684  0.4952 -0.1545 -0.1438
 1325SOL    HW1 5575   4.585   5.259   2.758  0.5119  0.9067 -0.3431
 1325SOL    HW2 5576   4.608   5.260   2.596  0.4446 -1.5298 -0.4091
 1326SOL     OW 5577   0.468   2.135   2.121 -0.3142  0.0700  0.1978
 1326SOL    HW1 5578   0.396   2.074   2.089  1.4817 -1.8766 -0.4421
 1326SOL    HW2 5579   0.450   2.228   2.091 -0.8494 -0.9311 -2.9561
 1327SOL     OW 5580   1.130   6.414   4.672 -0.3417 -0.3600 -0.0102
 1327SOL    HW1 5581   1.210   6.471   4.688  0.5960 -1.4060 -0.8039
 1327SOL    HW2 5582   1.078   6.405   4.756 -0.4748  1.5757  0.1538
 1328SOL     OW 5583   4.776   1.735   6.279  0.3512 -0.1687 -0.4646
 1328SOL    HW1 5584   4.822   1.731   6.368 -1.7336 -1.5035  0.6219
 1328SOL    HW2 5585   4.744   1.829   6.262  0.3578 -0.0011  0.4235
 1329SOL     OW 5586   6.868   1.863   5.675 -0.2067  0.7111 -0.2843
 1329SOL    HW1 5587   6.919   1.777   5.674 -1.2428  0.0537 -1.8520
 1329SOL    HW2 5588   6.931   1.940   5.682  0.8561 -0.1205 -0.4979
 1330SOL     OW 5589   1.605   1.709   2.126  0.0161  0.2880 -0.1078
 1330SOL    HW1 5590   1.687   1.733   2.074 -0.8344 -0.1067 -1.6784
 1330SOL    HW2 5591   1.623   1.723   2.224  1.6379  1.0871 -0.4803
 1331SOL     OW 5592   5.468   6.179   5.539 -0.9026  0.2676  0.5077
 1331SOL    HW1 5593   5.502   6.086   5.547 -0.6535  0.0669 -2.1625
 1331SOL    HW2 5594   5.372   6.182   5.567 -0.9891 -0.8452  0.3745
 1332SOL     OW 5595   3.780   2.641   1.600 -0.1652 -0.2342  0.4239
 1332SOL    HW1 5596   3.847   2.573   1.569 -0.4301  0.2034 -1.1650
 1332SOL    HW2 5597   3.700   2.593   1.636 -0.6746 -0.8226 -1.3824
 1333SOL     OW 5598   6.800   1.832   0.736 -0.2723 -0.0457  0.2844
 1333SOL    HW1 5599   6.854   1.895   0.793  2.6276 -1.9934 -0.0400
 1333SOL    HW2 5600   6.769   1.756   0.793 -0.4584 -0.2146 -0.0450
 1334SOL     OW 5601   4.085   6.089   5.184  0.3632  0.3015  0.3199
 1334SOL    HW1 5602   4.093   6.063   5.088  1.5325 -0.4790  0.6051
 1334SOL    HW2 5603   4.160   6.048   5.236 -0.5837  0.2126  1.6731
 1335SOL     OW 5604   1.261   6.373   6.268 -0.1551 -0.4477 -0.0496
 1335SOL    HW1 5605   1.210   6.374   6.354  0.1595  0.4741  0.1390
 1335SOL    HW2 5606   1.336   6.439   6.273 -0.8458  0.5169 -1.4488
 1336SOL     OW 5607   5.354   4.703   6.351  0.0438  0.3877  0.3848
 1336SOL    HW1 5608   5.380   4.611   6.381 -1.8461 -0.5436 -0.6265
 1336SOL    HW2 5609   5.436   4.754   6.324  1.0440 -1.4561 -0.2445
 1337SOL     OW 5610   0.722   6.901   4.466 -0.0610  0.1297 -0.5655
 1337SOL    HW1 5611   0.685   6.977   4.413 -0.8484  0.5224  0.5187
 1337SOL    HW2 5612   0.822   6.904   4.463 -0.0823  1.2253 -0.5107
 1338SOL     OW 5613   6.558   6.729   1.987  0.2609  0.2821 -0.2805
 1338SOL    HW1 5614   6.622   6.804   2.002  0.7663 -0.1543 -0.2329
 1338SOL    HW2 5615   6.470   6.765   1.956  0.0535  1.0086  1.0906
 1339SOL     OW 5616   5.211   5.109   0.119  0.5868 -0.6512 -0.0164
 1339SOL    HW1 5617   5.201   5.198   0.164  1.3365 -0.7402  0.3507
 1339SOL    HW2 5618   5.175   5.037   0.177  1.2000 -0.7239  0.2840
 1340SOL     OW 5619   0.277   6.990   6.480 -0.3575 -0.2121  0.7045
 1340SOL    HW1 5620   0.367   7.016   6.516 -0.1818  0.8576 -0.4569
 1340SOL    HW2 5621   0.282   6.983   6.380 -1.1316 -1.9606  0.7542
 1341SOL     OW 5622   3.902   2.862   1.714  0.1441 -0.3955  0.9521
 1341SOL    HW1 5623   3.944   2.911   1.637  0.6596  1.4854  2.3767
 1341SOL    HW2 5624   3.837   2.794   1.678 -0.0590  0.8094 -1.1224
 1342SOL     OW 5625   5.285   5.405   3.241 -0.4924 -0.6553  0.2553
 1342SOL    HW1 5626   5.213   5.342   3.210 -0.6357 -0.2368 -0.2697
 1342SOL    HW2 5627   5.343   5.431   3.164 -1.6112  1.3792  0.0188
 1343SOL     OW 5628   2.806   5.140   3.161 -0.6268  0.3111 -0.4425
 1343SOL    HW1 5629   2.767   5.146   3.069  0.8720 -0.4155 -1.1522
 1343SOL    HW2 5630   2.817   5.044   3.186 -1.2432  0.5018  0.6070
 1344SOL     OW 5631   1.049   6.510   4.919 -0.8789  0.1705 -0.2225
 1344SOL    HW1 5632   1.131   6.462   4.951 -1.2633 -1.7264 -1.8351
 1344SOL    HW2 5633   1.040   6.597   4.966  2.4957  0.8260 -0.5408
 1345SOL     OW 5634   4.068   0.501   5.248  0.5132  0.3266 -0.0939
 1345SOL    HW1 5635   4.168   0.494   5.252  0.4616 -1.4879 -0.9471
 1345SOL    HW2 5636   4.042   0.589   5.209  1.7624  1.0084  0.5696
 1346SOL     OW 5637   1.925   1.186   3.267  0.0246  0.8827 -0.0533
 1346SOL    HW1 5638   1.975   1.268   3.238 -1.4427  2.8233  2.5161
 1346SOL    HW2 5639   1.833   1.211   3.296 -0.8602 -1.8867 -0.1778
 1347SOL     OW 5640   2.677   4.560   1.432  0.0225  0.3674 -0.5522
 1347SOL    HW1 5641   2.587   4.587   1.465  0.1656 -1.5595  1.6883
 1347SOL    HW2 5642   2.674   4.549   1.333 -1.7659  1.8254 -0.7079
 1348SOL     OW 5643   4.842   5.184   3.703 -0.0027 -0.3355 -0.7132
 1348SOL    HW1 5644   4.766   5.121   3.720 -0.2161  0.3180  0.9060
 1348SOL    HW2 5645   4.922   5.154   3.755 -0.0341  0.5975 -0.1174
 1349SOL     OW 5646   4.195   6.465   5.369 -0.3434  0.1354  0.8999
 1349SOL    HW1 5647   4.110   6.450   5.320  0.1849 -0.1809  0.0653
 1349SOL    HW2 5648   4.271   6.474   5.304  0.6585 -2.0675  1.6497
 1350SOL     OW 5649   3.379   6.799   3.891 -0.3760  0.4100  0.7170
 1350SOL    HW1 5650   3.436   6.771   3.813  0.6289 -0.0921  1.5929
 1350SOL    HW2 5651   3.436   6.846   3.958 -0.7308 -1.0820  2.1261
 1351SOL     OW 5652   2.189   5.244   0.035 -0.3187 -0.3384 -0.0487
 1351SOL    HW1 5653   2.258   5.314   0.052  0.0313 -0.8755  0.8348
 1351SOL    HW2 5654   2.207   5.164   0.094 -0.1455 -1.5574 -1.6767
 1352SOL     OW 5655   3.280   0.660   1.474 -0.0842 -0.3310  0.7654
 1352SOL    HW1 5656   3.330   0.590   1.525  0.2432 -1.6460 -1.2553
 1352SOL    HW2 5657   3.271   0.633   1.378 -1.2248  1.7430  0.2016
 1353SOL     OW 5658   0.436   2.848   4.221  0.3526  0.4741  0.0413
 1353SOL    HW1 5659   0.466   2.767   4.272  1.2176  1.5339  1.2712
 1353SOL    HW2 5660   0.452   2.833   4.123 -0.3524 -1.1756  0.1460
 1354SOL     OW 5661   2.733   3.350   2.903  0.1485 -0.3303  0.9479
 1354SOL    HW1 5662   2.729   3.291   2.823  0.0249 -0.3401  0.9613
 1354SOL    HW2 5663   2.645   3.348   2.951 -0.4753  1.2529 -0.0428
 1355SOL     OW 5664   0.992   4.770   1.327 -0.3373 -0.6629  0.2015
 1355SOL    HW1 5665   1.033   4.689   1.285 -1.4612 -0.5761 -1.1445
 1355SOL    HW2 5666   0.980   4.841   1.258  1.3248  0.9756  1.5212
 1356SOL     OW 5667   4.320   2.283   6.286 -0.4605  0.3614  0.3635
 1356SOL    HW1 5668   4.251   2.254   6.352 -0.0937 -1.1373  0.1365
 1356SOL    HW2 5669   4.372   2.360   6.324 -0.7879  0.0605  1.4697
 1357SOL     OW 5670   5.595   3.119   0.334  0.4123 -0.6235 -0.3951
 1357SOL    HW1 5671   5.663   3.166   0.391  1.2508 -1.7180 -0.4598
 1357SOL    HW2 5672   5.541   3.057   0.392  0.5148 -0.8969 -0.5883
 1358SOL     OW 5673   3.850   5.014   6.996 -0.1484  0.7456  0.4103
 1358SOL    HW1 5674   3.822   5.098   6.950 -0.0691  0.6411  0.1736
 1358SOL    HW2 5675   3.880   5.037   7.089  0.5539  1.0794  0.1126
 1359SOL     OW 5676   2.871   4.725   6.299 -0.0281  1.3193  0.2299
 1359SOL    HW1 5677   2.823   4.727   6.387  0.0008  1.3420  0.2451
 1359SOL    HW2 5678   2.921   4.811   6.286  2.0328  0.3788  1.3556
 1360SOL     OW 5679   6.021   1.499   5.198  0.2498 -0.0733 -0.3618
 1360SOL    HW1 5680   5.992   1.523   5.106  1.1812  0.1814 -0.5966
 1360SOL    HW2 5681   5.959   1.430   5.236 -0.4749  0.2502 -0.9526
 1361SOL     OW 5682   2.731   2.012   0.272  0.0132 -0.5291 -0.0856
 1361SOL    HW1 5683   2.649   1.963   0.243 -0.2657 -0.0122 -0.2001
 1361SOL    HW2 5684   2.731   2.103   0.229 -0.4747  0.3209  1.5998
 1362SOL     OW 5685   0.338   4.634   2.000  0.4638  0.2554  0.0596
 1362SOL    HW1 5686   0.313   4.538   1.988  1.8274 -0.0591 -0.4137
 1362SOL    HW2 5687   0.257   4.686   2.024 -1.2046 -0.3117 -3.5856
 1363SOL     OW 5688   4.202   5.833   2.533 -0.6253 -0.4020  0.1855
 1363SOL    HW1 5689   4.286   5.870   2.494  0.7787 -2.5533  0.9786
 1363SOL    HW2 5690   4.209   5.734   2.539 -3.2632 -0.6538  0.2790
 1364SOL     OW 5691   3.834   5.501   4.045  0.1089  0.3478  0.6562
 1364SOL    HW1 5692   3.743   5.496   4.005 -0.9709  0.4488  2.9043
 1364SOL    HW2 5693   3.850   5.594   4.079  1.7911  0.8055 -1.1989
 1365SOL     OW 5694   6.098   5.377   6.562 -0.0099 -0.1902  0.4905
 1365SOL    HW1 5695   6.147   5.316   6.626  0.8030  0.7260  0.7661
 1365SOL    HW2 5696   6.160   5.449   6.531 -0.2635 -0.8251 -1.6566
 1366SOL     OW 5697   4.257   0.607   1.640  0.1795 -0.1258  0.3213
 1366SOL    HW1 5698   4.159   0.590   1.636  0.1366  0.0321  0.7052
 1366SOL    HW2 5699   4.274   0.705   1.634  0.2770 -0.1029  0.9115
 1367SOL     OW 5700   1.748   1.589   1.309  0.3015  0.2608 -0.1049
 1367SOL    HW1 5701   1.781   1.680   1.332  0.4633  0.1476  0.1109
 1367SOL    HW2 5702   1.750   1.577   1.209 -1.0398  0.9993 -0.2514
 1368SOL     OW 5703   0.759   4.344   0.464  0.3283  0.2299 -0.0134
 1368SOL    HW1 5704   0.734   4.437   0.437 -1.0311 -0.6846 -2.1395
 1368SOL    HW2 5705   0.676   4.291   0.481  1.0277 -0.9758 -0.2408
 1369SOL     OW 5706   3.774   4.097   2.215  0.1728  0.5156 -0.2467
 1369SOL    HW1 5707   3.710   4.169   2.187  1.3748  0.7006 -2.8464
 1369SOL    HW2 5708   3.729   4.008   2.209  0.0434  0.6615 -1.8762
 1370SOL     OW 5709   0.240   4.179   4.639 -0.2738 -0.8602  0.7979
 1370SOL    HW1 5710   0.179   4.144   4.710 -2.0052  0.1009 -0.1288
 1370SOL    HW2 5711   0.239   4.118   4.560  1.7547 -2.0003  1.5680
 1371SOL     OW 5712   3.007   4.982   6.235 -0.0782  0.0910  0.0745
 1371SOL    HW1 5713   3.048   5.035   6.309 -0.6728  0.8928 -0.1653
 1371SOL    HW2 5714   2.992   5.041   6.156  0.7977 -0.8175 -0.7946
 1372SOL     OW 5715   0.654   3.373   6.927  0.8633 -0.2763  0.4180
 1372SOL    HW1 5716   0.683   3.287   6.885  4.3875  0.8648  0.2401
 1372SOL    HW2 5717   0.637   3.358   7.024  0.6797 -1.3181  0.2375
 1373SOL     OW 5718   4.834   5.081   2.800 -1.0192  0.2508  0.6403
 1373SOL    HW1 5719   4.749   5.122   2.767 -1.1656  0.6192  1.4395
 1373SOL    HW2 5720   4.856   5.000   2.746 -0.1932  1.9048 -1.6728
 1374SOL     OW 5721   2.881   6.748   3.981  0.2627 -0.3763 -0.7847
 1374SOL    HW1 5722   2.909   6.693   4.059 -1.6687  2.4286  2.1230
 1374SOL    HW2 5723   2.908   6.702   3.896  4.6506 -2.4524  1.4237
 1375SOL     OW 5724   0.528   0.203   4.392 -0.2149 -0.4344 -0.2633
 1375SOL    HW1 5725   0.621   0.240   4.399 -0.7434  1.3854 -1.8932
 1375SOL    HW2 5726   0.480   0.248   4.316 -3.2481  0.5332  2.0185
 1376SOL     OW 5727   6.191   2.282   2.858 -0.6952  0.5806 -0.6814
 1376SOL    HW1 5728   6.116   2.286   2.922  0.9223 -0.5526  1.4061
 1376SOL    HW2 5729   6.192   2.193   2.812 -0.2831  0.3556 -0.2425
 1377SOL     OW 5730   6.440   1.342   0.951  0.4054 -0.3122 -0.0170
 1377SOL    HW1 5731   6.476   1.381   1.036  1.6928 -0.1985 -0.6078
 1377SOL    HW2 5732   6.459   1.403   0.875  0.4420 -1.0465 -0.6004
 1378SOL     OW 5733   5.087   5.750   1.452  0.1634  0.8203 -0.0980
 1378SOL    HW1 5734   5.126   5.679   1.511 -2.6641 -0.3897  0.4813
 1378SOL    HW2 5735   5.112   5.840   1.488 -0.2191  0.1140  2.1019
 1379SOL     OW 5736   6.386   4.908   6.901  0.2256  0.3201  0.1111
 1379SOL    HW1 5737   6.466   4.870   6.855  0.8869  1.6373  0.1460
 1379SOL    HW2 5738   6.319   4.936   6.833  1.4197  2.7554 -0.1617
 1380SOL     OW 5739   5.389   4.965   1.239  0.6843 -0.1857  0.0597
 1380SOL    HW1 5740   5.476   4.917   1.230  1.1183  0.8144 -1.6583
 1380SOL    HW2 5741   5.391   5.048   1.183 -0.6298  0.9763  1.6219
 1381SOL     OW 5742   3.022   6.708   6.401  0.3299  0.4417 -0.7097
 1381SOL    HW1 5743   2.952   6.639   6.421  1.7475 -0.7176  0.4199
 1381SOL    HW2 5744   2.977   6.796   6.381 -1.4333 -0.1063  0.6044
 1382SOL     OW 5745   4.389   2.413   6.523 -0.5224 -0.0559 -0.4199
 1382SOL    HW1 5746   4.291   2.397   6.539 -0.6530  0.4200 -0.7374
 1382SOL    HW2 5747   4.427   2.467   6.598 -0.6501  0.3227 -0.6282
 1383SOL     OW 5748   6.589   0.978   4.897 -0.4244  0.2976  0.5830
 1383SOL    HW1 5749   6.595   0.882   4.924  0.1412  0.8529  2.5822
 1383SOL    HW2 5750   6.608   1.036   4.976  0.3610  2.0616 -0.8390
 1384SOL     OW 5751   6.382   0.112   1.178  0.5475 -0.0483 -0.6065
 1384SOL    HW1 5752   6.310   0.047   1.156  1.8436 -0.6214 -3.7864
 1384SOL    HW2 5753   6.471   0.074   1.151  1.9182  1.2637  1.7062
 1385SOL     OW 5754   6.446   2.852   0.725  0.1364 -0.5569  0.0691
 1385SOL    HW1 5755   6.359   2.827   0.683  0.6526 -0.4280 -1.1218
 1385SOL    HW2 5756   6.512   2.779   0.710 -0.0667 -1.2232  2.0375
 1386SOL     OW 5757   6.563   2.305   4.335  0.1179 -0.0647 -0.0037
 1386SOL    HW1 5758   6.575   2.394   4.380  0.3994  0.7446 -1.6296
 1386SOL    HW2 5759   6.652   2.261   4.326  0.0852 -0.1401  0.0407
 1387SOL     OW 5760   1.761   6.988   6.873  0.3884  0.6019 -0.3174
 1387SOL    HW1 5761   1.761   6.962   6.777 -0.3125 -0.5332 -0.0284
 1387SOL    HW2 5762   1.701   6.927   6.925  0.7786  1.1670  0.8509
 1388SOL     OW 5763   6.261   0.602   5.397  0.0987  0.1074  0.1807
 1388SOL    HW1 5764   6.280   0.564   5.306 -0.1113  2.2509 -0.8141
 1388SOL    HW2 5765   6.182   0.555   5.436  0.2813 -0.9526 -0.6563
 1389SOL     OW 5766   6.629   0.600   3.287 -0.2955 -0.2577 -0.0239
 1389SOL    HW1 5767   6.621   0.589   3.386 -0.0727 -1.6507 -0.1476
 1389SOL    HW2 5768   6.718   0.640   3.265 -0.6259  0.7408  0.3586
 1390SOL     OW 5769   4.628   6.544   6.275 -0.4956 -0.2038  0.0483
 1390SOL    HW1 5770   4.600   6.491   6.355 -0.7030  2.1225  1.6440
 1390SOL    HW2 5771   4.720   6.517   6.247 -0.7525 -1.6462  0.5346
 1391SOL     OW 5772   2.143   0.028   0.680  0.1860  0.2665 -0.1892
 1391SOL    HW1 5773   2.095  -0.059   0.691  0.1057  0.3461  0.0871
 1391SOL    HW2 5774   2.077   0.103   0.686  0.4426  0.4118  0.9021
 1392SOL     OW 5775   1.667   2.102   1.017  0.1205 -0.1039 -0.2034
 1392SOL    HW1 5776   1.692   2.112   0.921  0.7797  0.9727  0.0644
 1392SOL    HW2 5777   1.593   2.165   1.039  2.2559  2.2407  0.7733
 1393SOL     OW 5778   4.700   0.257   4.738 -0.5215  0.5298 -0.9241
 1393SOL    HW1 5779   4.738   0.175   4.781 -0.2415  0.4306 -1.3465
 1393SOL    HW2 5780   4.660   0.317   4.807 -0.7231  0.0370 -0.6087
 1394SOL     OW 5781   3.999   6.278   3.895  0.2353 -0.0870 -0.5772
 1394SOL    HW1 5782   3.918   6.269   3.952 -0.0537  0.6461 -0.8650
 1394SOL    HW2 5783   4.032   6.373   3.897  0.3764 -0.1067 -1.4091
 1395SOL     OW 5784   3.798   6.195   1.848  0.2748 -0.1867  0.0038
 1395SOL    HW1 5785   3.843   6.233   1.767  1.2876 -0.6864  0.3019
 1395SOL    HW2 5786   3.847   6.226   1.930  0.4743 -1.2397  0.3057
 1396SOL     OW 5787   5.210   4.514   1.285  0.3795 -0.7417 -0.4075
 1396SOL    HW1 5788   5.126   4.568   1.290  0.0394 -1.3476  0.6744
 1396SOL    HW2 5789   5.208   4.455   1.205 -0.9381 -1.8863  0.4381
 1397SOL     OW 5790   1.438   0.670   2.312 -0.1760 -0.2884  0.3421
 1397SOL    HW1 5791   1.411   0.734   2.384  0.1976 -1.0879  1.2046
 1397SOL    HW2 5792   1.357   0.625   2.275 -0.2451 -1.0440  1.3812
 1398SOL     OW 5793   6.030   4.419   0.670 -0.1677 -0.3966 -0.2387
 1398SOL    HW1 5794   5.978   4.464   0.742 -0.2910  0.3871 -0.7982
 1398SOL    HW2 5795   6.106   4.478   0.642 -0.0472 -0.7449 -0.6593
 1399SOL     OW 5796   5.685   4.630   0.243 -0.2185  0.0374 -0.4842
 1399SOL    HW1 5797   5.626   4.663   0.169 -0.6913 -0.5373 -0.3641
 1399SOL    HW2 5798   5.768   4.590   0.204 -0.3580 -0.0463 -0.6973
 1400SOL     OW 5799   3.217   6.973   1.816  0.0100  0.0290  0.4092
 1400SOL    HW1 5800   3.124   6.938   1.828  0.1592 -0.1501  1.0971
 1400SOL    HW2 5801   3.272   6.906   1.765  0.0901 -0.4198  1.0714
 1401SOL     OW 5802   2.033   6.789   0.689  0.3449  0.2881 -0.1468
 1401SOL    HW1 5803   2.007   6.712   0.631  1.0385 -0.2533  0.2498
 1401SOL    HW2 5804   1.961   6.806   0.756  0.6686 -0.7360  0.4811
 1402SOL     OW 5805   1.844   6.985   3.870  0.0757  0.6718 -0.6056
 1402SOL    HW1 5806   1.915   6.936   3.819  0.5511  1.2618 -0.5379
 1402SOL    HW2 5807   1.783   7.032   3.806 -0.5046 -0.1592 -0.6762
 1403SOL     OW 5808   1.439   5.942   6.878 -0.2790 -0.5314 -0.2051
 1403SOL    HW1 5809   1.361   5.887   6.907 -0.1009 -0.3090  0.7386
 1403SOL    HW2 5810   1.486   5.897   6.802  0.6903 -2.4448  1.4307
 1404SOL     OW 5811   1.162   6.923   5.420 -0.4535  0.2351 -0.0335
 1404SOL    HW1 5812   1.231   6.944   5.351 -0.9554 -0.2295 -0.6903
 1404SOL    HW2 5813   1.153   6.999   5.484  0.4721  0.4071 -0.0971
 1405SOL     OW 5814   2.977   2.195   4.762  0.2879  0.1664 -0.0030
 1405SOL    HW1 5815   2.892   2.142   4.757  1.1813 -1.2621 -0.7382
 1405SOL    HW2 5816   3.048   2.139   4.805  1.3421  0.6331 -1.0930
 1406SOL     OW 5817   1.068   3.679   1.528  0.1314 -0.1603 -0.3665
 1406SOL    HW1 5818   0.978   3.709   1.562 -0.1748 -2.2511  0.8348
 1406SOL    HW2 5819   1.115   3.627   1.599  2.2439  0.6843 -1.0550
 1407SOL     OW 5820   3.997   0.561   1.238  0.2883 -0.3857  0.0159
 1407SOL    HW1 5821   3.987   0.539   1.334 -0.7940 -2.3677 -0.5037
 1407SOL    HW2 5822   3.906   0.574   1.197  0.7458  0.9481 -0.6564
 1408SOL     OW 5823   1.612   0.039   4.724 -0.3360  0.0261 -0.5899
 1408SOL    HW1 5824   1.566  -0.020   4.791  0.1793  0.6908  0.3909
 1408SOL    HW2 5825   1.594   0.135   4.746  0.1173  0.2630 -1.2110
 1409SOL     OW 5826   6.688   2.114   6.333 -0.2018  0.7833 -0.0263
 1409SOL    HW1 5827   6.659   2.165   6.414 -1.4483 -0.3253  0.2576
 1409SOL    HW2 5828   6.609   2.096   6.275  0.7389  1.9351 -1.7509
 1410SOL     OW 5829   5.394   6.976   4.645  0.3608  0.4718  0.4464
 1410SOL    HW1 5830   5.485   7.013   4.626  1.3023 -0.3204  2.9532
 1410SOL    HW2 5831   5.332   7.050   4.670  0.6428  0.9144 -0.1634
 1411SOL     OW 5832   1.132   1.027   6.055  0.3863 -0.2320 -0.2891
 1411SOL    HW1 5833   1.149   1.125   6.045 -0.6458  0.0934  0.8969
 1411SOL    HW2 5834   1.215   0.982   6.086  0.1034  0.7763  2.1526
 1412SOL     OW 5835   1.392   5.206   5.638  0.4303 -0.2880  0.0480
 1412SOL    HW1 5836   1.451   5.268   5.586 -0.7988  0.0316 -1.0099
 1412SOL    HW2 5837   1.409   5.112   5.609  0.6104 -0.2226 -0.0606
 1413SOL     OW 5838   4.852   0.468   4.676 -0.1227 -0.5553  0.1315
 1413SOL    HW1 5839   4.843   0.477   4.577  1.9988 -2.2799 -0.2841
 1413SOL    HW2 5840   4.833   0.374   4.703  1.5835 -0.6808  1.0295
 1414SOL     OW 5841   0.248   1.166   1.663  0.5552  0.0382  0.6394
 1414SOL    HW1 5842   0.285   1.131   1.749  1.7633 -0.6230 -0.1261
 1414SOL    HW2 5843   0.261   1.099   1.590  3.2694  2.0877 -0.9688
 1415SOL     OW 5844   6.050   2.631   2.264 -0.1076  0.0459  0.3248
 1415SOL    HW1 5845   5.955   2.643   2.236 -0.1556 -1.6318 -0.3771
 1415SOL    HW2 5846   6.068   2.684   2.346 -0.8612  2.6033 -1.0513
 1416SOL     OW 5847   1.704   3.036   1.117 -0.9095 -0.1861 -0.2978
 1416SOL    HW1 5848   1.766   2.977   1.167  1.3277  2.7837  0.7150
 1416SOL    HW2 5849   1.698   3.005   1.022  3.1368 -0.0132 -0.7840
 1417SOL     OW 5850   1.157   2.950   1.633  0.3567 -0.2226  0.7515
 1417SOL    HW1 5851   1.175   3.044   1.662 -0.4105 -0.5391  2.3216
 1417SOL    HW2 5852   1.241   2.909   1.597  0.7434  0.9884  0.2230
 1418SOL     OW 5853   0.362   1.494   3.219 -0.0780 -0.6274 -0.6738
 1418SOL    HW1 5854   0.380   1.471   3.124 -0.6577 -1.7965 -0.5170
 1418SOL    HW2 5855   0.283   1.556   3.224  0.9795  0.7910 -1.0440
 1419SOL     OW 5856   2.929   4.300   0.729  0.6404  0.2677 -0.1035
 1419SOL    HW1 5857   2.868   4.227   0.698  1.1493 -0.4112  0.4510
 1419SOL    HW2 5858   2.884   4.352   0.802 -0.1460  1.2096 -1.2355
 1420SOL     OW 5859   4.595   0.862   0.177 -0.2693 -0.0289 -0.3661
 1420SOL    HW1 5860   4.647   0.782   0.147  1.6927  0.1691  2.1127
 1420SOL    HW2 5861   4.598   0.933   0.107  2.2302 -0.3341 -0.6604
 1421SOL     OW 5862   6.657   2.411   0.016 -0.9115 -0.5230  0.2803
 1421SOL    HW1 5863   6.697   2.385   0.103  1.9119  2.8898  0.2587
 1421SOL    HW2 5864   6.572   2.462   0.031 -1.4037 -1.4999  0.8677
 1422SOL     OW 5865   3.262   6.570   3.119 -0.2423  0.0210 -0.0793
 1422SOL    HW1 5866   3.173   6.617   3.121 -1.0706 -1.4038 -1.2054
 1422SOL    HW2 5867   3.272   6.523   3.031  0.3496 -2.2151  1.1082
 1423SOL     OW 5868   1.857   5.900   0.575  0.4527 -0.2260  0.4931
 1423SOL    HW1 5869   1.893   5.986   0.611  2.3219 -0.6555 -0.2338
 1423SOL    HW2 5870   1.890   5.886   0.482  1.3118 -2.3222  1.0513
 1424SOL     OW 5871   4.642   6.387   1.889 -0.8580  0.6443 -0.6183
 1424SOL    HW1 5872   4.620   6.320   1.819 -0.3039  0.6388 -0.7924
 1424SOL    HW2 5873   4.673   6.472   1.845  0.0356  0.4499 -0.3733
 1425SOL     OW 5874   0.433   6.602   5.563  0.2948 -0.3579  0.3055
 1425SOL    HW1 5875   0.406   6.521   5.511 -0.9206 -0.0837  0.4790
 1425SOL    HW2 5876   0.520   6.637   5.528 -0.2952 -0.4137 -1.2686
 1426SOL     OW 5877   3.134   5.556   4.338  0.5512  0.1744 -0.2158
 1426SOL    HW1 5878   3.152   5.652   4.318  1.4361 -0.1361 -0.9549
 1426SOL    HW2 5879   3.153   5.501   4.257  1.0642 -0.7506  0.5170
 1427SOL     OW 5880   5.200   0.956   4.959  0.4987  0.2313 -0.4076
 1427SOL    HW1 5881   5.197   1.030   5.026 -0.2611  0.6388 -0.8816
 1427SOL    HW2 5882   5.282   0.901   4.975  0.6631  0.6972  0.4476
 1428SOL     OW 5883   4.473   5.745   4.181  0.4146  0.4715 -0.2974
 1428SOL    HW1 5884   4.462   5.843   4.171  1.3649  0.3856 -2.9134
 1428SOL    HW2 5885   4.570   5.723   4.192  0.3205 -0.2464 -0.8605
 1429SOL     OW 5886   6.872   5.242   0.351  0.7501 -0.0725  0.3904
 1429SOL    HW1 5887   6.970   5.239   0.371  0.6859  0.2628  0.7693
 1429SOL    HW2 5888   6.825   5.171   0.402  1.0191 -1.4020 -1.1472
 1430SOL     OW 5889   3.822   1.755   4.137 -1.0717 -0.1479  0.3110
 1430SOL    HW1 5890   3.835   1.746   4.038  0.2314 -0.7978  0.5240
 1430SOL    HW2 5891   3.844   1.668   4.181 -0.1822  0.5740  1.3119
 1431SOL     OW 5892   3.825   6.640   6.906  0.3233  0.3700  0.3741
 1431SOL    HW1 5893   3.849   6.556   6.858  1.2218  0.6034  0.4027
 1431SOL    HW2 5894   3.739   6.676   6.870  0.8633  0.4218 -0.8907
 1432SOL     OW 5895   2.665   2.392   6.725 -0.8444  0.0445  0.0370
 1432SOL    HW1 5896   2.758   2.355   6.718 -0.4473  0.9015  0.5698
 1432SOL    HW2 5897   2.637   2.393   6.821 -1.1792  0.3185 -0.0606
 1433SOL     OW 5898   5.716   5.584   0.865  0.3273  0.2522 -0.4962
 1433SOL    HW1 5899   5.751   5.668   0.907  1.5347 -0.9835  1.1020
 1433SOL    HW2 5900   5.712   5.511   0.934 -2.9013 -0.4476 -1.2763
 1434SOL     OW 5901   3.107   0.741   4.444  0.1045  0.0524 -0.0573
 1434SOL    HW1 5902   3.153   0.827   4.463  0.2546  0.1310 -0.7472
 1434SOL    HW2 5903   3.123   0.677   4.519  2.3277 -0.3327 -0.8007
 1435SOL     OW 5904   2.975   5.815   0.337 -0.5015 -0.0768  0.3260
 1435SOL    HW1 5905   2.885   5.782   0.364 -1.4604  2.1638  0.1181
 1435SOL    HW2 5906   2.974   5.840   0.240 -1.0182  3.8081  1.1731
 1436SOL     OW 5907   0.981   2.085   4.800  0.0823  0.3129 -0.1629
 1436SOL    HW1 5908   1.056   2.137   4.758  1.6589 -0.3547  1.6658
 1436SOL    HW2 5909   0.985   2.096   4.900 -1.1740 -1.1787  0.0824
 1437SOL     OW 5910   2.744   2.725   6.541  0.1251 -0.1366  0.2455
 1437SOL    HW1 5911   2.827   2.670   6.533 -0.0108 -0.2224 -0.7847
 1437SOL    HW2 5912   2.668   2.668   6.572 -0.1115 -0.6661 -1.2082
 1438SOL     OW 5913   5.640   0.600   5.679 -1.0529 -0.3970 -0.2593
 1438SOL    HW1 5914   5.735   0.584   5.704 -1.3727 -0.9919  0.6180
 1438SOL    HW2 5915   5.582   0.528   5.719 -1.7455 -0.6755 -1.6845
 1439SOL     OW 5916   1.113   6.972   6.385 -0.2139  0.0233 -0.1448
 1439SOL    HW1 5917   1.087   6.972   6.481 -2.2639 -2.4551 -0.5770
 1439SOL    HW2 5918   1.036   6.940   6.330  0.2443  3.0919 -2.8769
 1440SOL     OW 5919   6.277   5.050   6.666 -0.3901  0.2916  0.0300
 1440SOL    HW1 5920   6.352   5.080   6.606  0.5205 -0.5057  0.7207
 1440SOL    HW2 5921   6.235   4.968   6.627  1.4394 -1.3651  1.3228
 1441SOL     OW 5922   3.250   1.636   4.650  0.1667  0.0714 -0.1486
 1441SOL    HW1 5923   3.175   1.643   4.584  0.4958  0.6341 -0.4742
 1441SOL    HW2 5924   3.215   1.650   4.742 -0.1425  0.2547 -0.2927
 1442SOL     OW 5925   1.665   1.617   5.879 -0.5675 -0.5168  0.4216
 1442SOL    HW1 5926   1.597   1.689   5.866 -0.4625 -0.2677  1.1963
 1442SOL    HW2 5927   1.715   1.634   5.963  2.4201  0.8788 -1.4834
 1443SOL     OW 5928   0.910   3.828   3.933  0.0781  0.9491  0.4575
 1443SOL    HW1 5929   0.995   3.819   3.881  0.6212  1.0821  1.3119
 1443SOL    HW2 5930   0.907   3.758   4.004 -1.5351 -0.4515 -0.9002
 1444SOL     OW 5931   0.870   1.446   3.173  0.1319  0.1295  0.1976
 1444SOL    HW1 5932   0.797   1.470   3.110  1.1188  0.2559 -0.9343
 1444SOL    HW2 5933   0.894   1.349   3.163  1.6653  0.6063 -1.1309
 1445SOL     OW 5934   1.535   2.987   3.021  0.1516 -0.2813 -0.1650
 1445SOL    HW1 5935   1.540   2.964   2.924 -0.6329  2.2111 -0.8590
 1445SOL    HW2 5936   1.614   3.042   3.047 -0.5335  0.5646  0.1581
 1446SOL     OW 5937   2.139   3.170   6.076 -0.3332 -0.3422 -0.4919
 1446SOL    HW1 5938   2.234   3.159   6.048 -0.2830  0.5801 -0.7102
 1446SOL    HW2 5939   2.120   3.267   6.094 -1.7093 -0.2351 -2.2422
 1447SOL     OW 5940   2.841   1.784   6.609  0.0550 -0.7197 -0.3264
 1447SOL    HW1 5941   2.802   1.724   6.540 -0.8824 -1.4060  0.7698
 1447SOL    HW2 5942   2.940   1.770   6.613 -0.0265 -1.4845 -0.7744
 1448SOL     OW 5943   1.402   0.744   1.389  0.0637  0.0142  0.0521
 1448SOL    HW1 5944   1.404   0.739   1.290 -0.1900  1.0727 -0.0152
 1448SOL    HW2 5945   1.315   0.708   1.423  0.8819 -2.0830  0.0256
 1449SOL     OW 5946   4.692   1.096   0.363 -0.0373  0.0429 -0.8423
 1449SOL    HW1 5947   4.624   1.162   0.330 -0.4584 -0.5612 -1.2242
 1449SOL    HW2 5948   4.674   1.007   0.320  1.4958  0.0622 -1.5883
 1450SOL     OW 5949   1.923   0.666   6.686 -0.3406  0.3078  0.4322
 1450SOL    HW1 5950   1.954   0.732   6.754  1.5516  0.6426 -0.6556
 1450SOL    HW2 5951   1.831   0.689   6.656 -0.1074  1.8510  0.8155
 1451SOL     OW 5952   4.618   1.952   4.320  0.4986 -0.0363 -0.1312
 1451SOL    HW1 5953   4.565   1.897   4.256  0.7612 -1.6691  0.9954
 1451SOL    HW2 5954   4.576   1.947   4.411  0.8823  1.1509  0.1264
 1452SOL     OW 5955   5.474   1.291   4.206 -0.0028 -0.1563 -0.3270
 1452SOL    HW1 5956   5.464   1.310   4.304 -2.0238 -1.9807 -0.1070
 1452SOL    HW2 5957   5.421   1.358   4.154 -1.6837 -1.1221  0.0647
 1453SOL     OW 5958   0.698   4.581   6.550  0.1063 -0.3388  0.9971
 1453SOL    HW1 5959   0.663   4.488   6.533 -1.0571  0.0203  1.3056
 1453SOL    HW2 5960   0.795   4.585   6.527 -0.6874 -0.5847 -3.0568
 1454SOL     OW 5961   5.422   2.138   4.470  0.0216  0.1830 -0.5073
 1454SOL    HW1 5962   5.323   2.154   4.475 -0.0146 -0.2391  0.3496
 1454SOL    HW2 5963   5.455   2.161   4.379 -0.4170  2.8048 -0.0915
 1455SOL     OW 5964   4.429   3.655   2.880  0.5823 -0.5213 -0.0553
 1455SOL    HW1 5965   4.429   3.741   2.931  0.3528  0.1009 -1.0709
 1455SOL    HW2 5966   4.336   3.617   2.879  0.5553 -0.4525 -0.1491
 1456SOL     OW 5967   0.741   2.201   6.557 -0.3809 -0.2773  0.0266
 1456SOL    HW1 5968   0.647   2.166   6.563 -0.3098 -0.2670  1.5201
 1456SOL    HW2 5969   0.739   2.297   6.531 -0.7376 -0.5000 -0.7992
 1457SOL     OW 5970   4.695   5.318   4.413 -0.0739 -0.2973 -0.3205
 1457SOL    HW1 5971   4.623   5.324   4.344 -0.0387 -3.1127 -0.7316
 1457SOL    HW2 5972   4.766   5.254   4.381  1.2260  0.2876  1.2636
 1458SOL     OW 5973   0.836   1.637   6.868 -0.0587  0.4074  0.3651
 1458SOL    HW1 5974   0.866   1.663   6.776 -0.3564 -0.9587 -0.1372
 1458SOL    HW2 5975   0.747   1.592   6.863 -0.5836  1.2890  1.4569
 1459SOL     OW 5976   3.517   1.105   2.054 -0.1035  0.3923 -0.4594
 1459SOL    HW1 5977   3.478   1.187   2.013  0.9244  1.0488 -0.1716
 1459SOL    HW2 5978   3.459   1.074   2.129 -1.3213 -0.0693 -1.5583
 1460SOL     OW 5979   5.300   5.442   5.939  0.3059 -0.2281 -0.1310
 1460SOL    HW1 5980   5.301   5.535   5.903  2.5236 -0.8594 -1.8952
 1460SOL    HW2 5981   5.321   5.444   6.037  1.3467  1.0770 -0.3514
 1461SOL     OW 5982   3.748   0.250   3.770 -0.0177 -0.6747 -0.1260
 1461SOL    HW1 5983   3.678   0.206   3.826  0.8493 -0.8031  0.8871
 1461SOL    HW2 5984   3.818   0.290   3.829  1.3186 -1.4666 -1.1239
 1462SOL     OW 5985   3.918   6.053   4.453 -0.6345  0.0571  0.2448
 1462SOL    HW1 5986   3.867   6.121   4.506 -0.3345  0.9120 -0.5238
 1462SOL    HW2 5987   3.918   6.080   4.357  0.5206 -0.3880  0.1044
 1463SOL     OW 5988   1.930   4.821   2.008 -0.0154 -0.5680  0.6599
 1463SOL    HW1 5989   1.961   4.879   1.933  1.0634 -1.8959  0.0306
 1463SOL    HW2 5990   1.912   4.877   2.089  1.7963  0.5642  0.3396
 1464SOL     OW 5991   0.424   4.996   5.818 -0.2824  0.0053  0.9309
 1464SOL    HW1 5992   0.384   4.925   5.761  0.6325  1.1722 -1.2926
 1464SOL    HW2 5993   0.358   5.024   5.888 -0.8663 -2.5688  1.5176
 1465SOL     OW 5994   4.562   0.235   2.242  0.0663  0.1052  0.0912
 1465SOL    HW1 5995   4.505   0.174   2.296 -2.4739 -0.8582 -3.3357
 1465SOL    HW2 5996   4.519   0.325   2.235 -0.9923 -0.4926 -2.1388
 1466SOL     OW 5997   0.621   1.378   5.554  0.4779 -0.2680  0.6923
 1466SOL    HW1 5998   0.602   1.425   5.468  1.6242  1.2522  1.2353
 1466SOL    HW2 5999   0.714   1.398   5.584  1.0126 -2.8844  0.9926
 1467SOL     OW 6000   6.852   4.836   1.283  0.4213 -0.2800 -0.4366
 1467SOL    HW1 6001   6.762   4.864   1.315  0.2071 -0.4827 -0.8599
 1467SOL    HW2 6002   6.843   4.771   1.208  0.9156 -1.0061  0.1150
 1468SOL     OW 6003   3.355   6.282   1.466 -0.4662  0.9239  0.6292
 1468SOL    HW1 6004   3.309   6.300   1.553 -1.5827  1.1060  0.0170
 1468SOL    HW2 6005   3.317   6.200   1.424 -0.4183  1.2207 -0.0157
 1469SOL     OW 6006   0.104   2.916   5.629 -0.1982 -0.1686 -0.2865
 1469SOL    HW1 6007   0.025   2.975   5.645 -0.2415  0.2770 -1.9278
 1469SOL    HW2 6008   0.188   2.966   5.649 -0.3085 -0.7726  1.8496
 1470SOL     OW 6009   2.502   1.490   5.499  0.0673 -0.0167 -0.1023
 1470SOL    HW1 6010   2.463   1.571   5.541 -0.6747 -0.3700 -0.0982
 1470SOL    HW2 6011   2.601   1.502   5.488 -0.0797  1.0034 -0.3789
 1471SOL     OW 6012   1.210   4.047   4.505 -0.7320 -0.0348 -0.6552
 1471SOL    HW1 6013   1.130   3.994   4.535 -0.1771 -2.3075 -2.8857
 1471SOL    HW2 6014   1.193   4.085   4.414  0.3279  0.4231 -0.6734
 1472SOL     OW 6015   4.969   5.516   5.707  0.0303 -0.3604  0.7085
 1472SOL    HW1 6016   4.910   5.441   5.736 -0.7610 -0.0123  0.0484
 1472SOL    HW2 6017   5.011   5.494   5.619 -0.1258 -0.0778  0.5598
 1473SOL     OW 6018   5.330   3.026   4.422  0.4284 -0.2133  0.5057
 1473SOL    HW1 6019   5.412   2.973   4.402  0.3674 -0.3496  0.6170
 1473SOL    HW2 6020   5.283   2.987   4.501 -0.4305 -0.9154 -0.3302
 1474SOL     OW 6021   2.070   1.182   4.859  0.3653  0.0780 -0.5477
 1474SOL    HW1 6022   2.107   1.269   4.890 -2.7436  1.4264 -0.2966
 1474SOL    HW2 6023   2.118   1.153   4.776  1.4594  2.0046 -0.6416
 1475SOL     OW 6024   2.095   2.520   5.042 -0.1704  0.2725  0.0826
 1475SOL    HW1 6025   2.174   2.545   4.984  0.3219 -0.5199  0.3982
 1475SOL    HW2 6026   2.051   2.438   5.004 -0.3256  0.2140  0.3923
 1476SOL     OW 6027   4.216   6.678   1.157  0.5015  0.1808 -0.0998
 1476SOL    HW1 6028   4.287   6.658   1.225 -0.0608 -2.2499 -0.1431
 1476SOL    HW2 6029   4.139   6.724   1.202  0.3650 -0.9049  0.8322
 1477SOL     OW 6030   5.930   2.718   2.786 -0.1883 -0.0699  0.2610
 1477SOL    HW1 6031   5.994   2.642   2.791 -0.2118 -0.0412  1.4209
 1477SOL    HW2 6032   5.963   2.786   2.722  0.1439 -0.7717 -0.3238
 1478SOL     OW 6033   2.269   6.415   0.719  0.9772 -0.5886 -0.6631
 1478SOL    HW1 6034   2.346   6.352   0.728 -0.2319 -2.1590 -0.9736
 1478SOL    HW2 6035   2.196   6.388   0.782 -0.9652 -1.7059 -3.2245
 1479SOL     OW 6036   6.575   2.780   6.921 -0.0500 -0.0116  0.0817
 1479SOL    HW1 6037   6.656   2.725   6.902  0.6712  0.8462  0.5966
 1479SOL    HW2 6038   6.519   2.735   6.990  0.1693 -0.4247 -0.0078
 1480SOL     OW 6039   0.660   4.709   4.118  0.4901  0.1547  0.2070
 1480SOL    HW1 6040   0.670   4.778   4.191  0.4270 -0.5842  0.9272
 1480SOL    HW2 6041   0.702   4.623   4.147  1.5016  0.1746 -1.1052
 1481SOL     OW 6042   5.967   5.982   0.674 -0.0510  0.3050 -0.1393
 1481SOL    HW1 6043   5.961   6.076   0.639 -0.1096  0.7323  0.9638
 1481SOL    HW2 6044   6.042   5.977   0.740  0.9816 -0.8271 -1.3444
 1482SOL     OW 6045   3.114   3.362   0.220  0.6225 -0.3086  0.1545
 1482SOL    HW1 6046   3.128   3.372   0.318 -1.7801 -1.7565  0.7399
 1482SOL    HW2 6047   3.110   3.265   0.197  0.1278  0.0089 -1.1868
 1483SOL     OW 6048   1.355   0.299   6.381 -0.5008 -0.1551  0.5722
 1483SOL    HW1 6049   1.315   0.300   6.289 -2.6234  1.8505  1.4207
 1483SOL    HW2 6050   1.439   0.353   6.382 -0.4446 -0.2205 -0.1831
 1484SOL     OW 6051   6.266   6.134   0.175  0.4450  0.0717  0.4113
 1484SOL    HW1 6052   6.229   6.201   0.111  1.9251  1.3583  0.8146
 1484SOL    HW2 6053   6.194   6.070   0.203 -0.4883  0.1571 -1.6409
 1485SOL     OW 6054   2.131   6.778   5.054 -0.4427 -0.1890  0.0067
 1485SOL    HW1 6055   2.084   6.793   5.141  1.1905  2.9215  0.5436
 1485SOL    HW2 6056   2.076   6.815   4.979 -0.6532 -0.2993  0.1093
 1486SOL     OW 6057   1.835   4.924   3.576 -0.3038 -0.2997 -0.5815
 1486SOL    HW1 6058   1.757   4.886   3.625 -0.3862 -0.2957 -0.7103
 1486SOL    HW2 6059   1.896   4.850   3.548 -0.2345 -0.2990 -0.4377
 1487SOL     OW 6060   0.491   3.368   5.068 -0.2809 -0.1858 -0.2694
 1487SOL    HW1 6061   0.460   3.455   5.030 -0.2909 -0.4497 -0.8827
 1487SOL    HW2 6062   0.412   3.310   5.088 -0.2335 -1.1453 -2.5164
 1488SOL     OW 6063   4.136   4.707   6.635 -0.0506 -0.5261 -0.5296
 1488SOL    HW1 6064   4.068   4.762   6.684  0.7417 -0.2316  0.2639
 1488SOL    HW2 6065   4.107   4.696   6.540 -0.6710  0.5106 -0.4819
 1489SOL     OW 6066   4.486   6.701   5.071  0.4000 -0.3349  0.0835
 1489SOL    HW1 6067   4.460   6.698   5.168 -0.8318 -2.2988 -0.2443
 1489SOL    HW2 6068   4.446   6.623   5.023  0.2341  1.0409 -2.2137
 1490SOL     OW 6069   4.862   3.078   1.310  0.1929  0.0634 -0.0047
 1490SOL    HW1 6070   4.807   3.079   1.227 -0.0359  2.3716  0.1065
 1490SOL    HW2 6071   4.934   3.010   1.302  0.4897  0.5885 -2.3201
 1491SOL     OW 6072   2.210   6.299   2.668 -0.4416  0.4841  0.1719
 1491SOL    HW1 6073   2.187   6.223   2.607 -1.1842  0.9169 -0.1021
 1491SOL    HW2 6074   2.158   6.291   2.753  0.3787  0.0386  0.6448
 1492SOL     OW 6075   0.391   4.569   0.004  0.3649  0.3387 -0.2629
 1492SOL    HW1 6076   0.396   4.575  -0.096 -1.4799  0.0467 -0.3975
 1492SOL    HW2 6077   0.317   4.626   0.037 -2.3125 -3.2293  0.4459
 1493SOL     OW 6078   1.013   5.830   4.235  0.6889 -0.4400 -0.8528
 1493SOL    HW1 6079   0.947   5.853   4.306 -0.5743  0.2390 -2.1880
 1493SOL    HW2 6080   1.085   5.898   4.232  0.9147 -0.6369 -0.0429
 1494SOL     OW 6081   1.901   4.130   5.838  0.4767  0.0256 -0.1421
 1494SOL    HW1 6082   1.997   4.132   5.867  0.6987 -1.7470 -0.5907
 1494SOL    HW2 6083   1.888   4.053   5.775 -1.2222  0.3210 -0.1871
 1495SOL     OW 6084   4.791   3.072   1.819  0.0979  0.0476 -0.0887
 1495SOL    HW1 6085   4.744   3.027   1.743 -0.3424 -1.0192  0.7958
 1495SOL    HW2 6086   4.775   3.021   1.903  1.1853  0.8059  0.6008
 1496SOL     OW 6087   3.745   5.982   6.082 -0.0059 -0.0524  0.1774
 1496SOL    HW1 6088   3.733   5.950   5.988  1.1100 -0.7425  0.2560
 1496SOL    HW2 6089   3.727   6.081   6.086 -0.5596 -0.1089 -0.6493
 1497SOL     OW 6090   1.573   5.797   2.264  0.1060  0.7115 -0.3742
 1497SOL    HW1 6091   1.587   5.895   2.258  2.4661  0.4131 -0.4577
 1497SOL    HW2 6092   1.645   5.755   2.319 -0.4045 -1.0767 -0.9677
 1498SOL     OW 6093   4.031   2.322   6.255  0.2356 -0.5506 -0.0282
 1498SOL    HW1 6094   4.037   2.230   6.217 -0.0553 -0.6042  0.0523
 1498SOL    HW2 6095   4.102   2.335   6.324  1.2983 -0.1779 -1.1644
 1499SOL     OW 6096   4.401   4.616   6.661  0.2044  0.6804 -0.1412
 1499SOL    HW1 6097   4.307   4.636   6.687 -0.3461  0.1526 -1.6285
 1499SOL    HW2 6098   4.425   4.524   6.693  0.0492  0.6150 -0.2145
 1500SOL     OW 6099   4.276   6.430   0.029 -0.2687 -0.5784 -0.0820
 1500SOL    HW1 6100   4.320   6.349  -0.011  0.0604  0.1328 -1.2177
 1500SOL    HW2 6101   4.283   6.506  -0.036 -1.4142  0.1000  0.5701
 1501SOL     OW 6102   2.458   2.053   4.675  0.1889 -0.5219 -0.0576
 1501SOL    HW1 6103   2.472   1.972   4.733 -0.4268 -0.1977  0.5675
 1501SOL    HW2 6104   2.546   2.096   4.655  0.4262 -0.7179  0.5385
 1502SOL     OW 6105   2.786   6.291   4.815  0.3280 -0.0545  0.7736
 1502SOL    HW1 6106   2.851   6.364   4.836 -0.0266 -0.0546  1.9628
 1502SOL    HW2 6107   2.711   6.293   4.882 -0.4325 -0.6115 -0.0385
 1503SOL     OW 6108   6.262   6.932   3.036 -0.4147 -0.1115 -0.2045
 1503SOL    HW1 6109   6.320   7.008   3.064  0.7273 -1.4529  1.2467
 1503SOL    HW2 6110   6.198   6.910   3.110  0.5076 -1.7138  0.1491
 1504SOL     OW 6111   4.349   3.091   3.203  0.3916 -0.3629  0.8485
 1504SOL    HW1 6112   4.306   3.158   3.143  0.1873  1.2915  2.7686
 1504SOL    HW2 6113   4.279   3.028   3.238  0.2488 -0.3341  0.6164
 1505SOL     OW 6114   6.350   3.528   0.979 -0.1246  0.6131 -0.4259
 1505SOL    HW1 6115   6.254   3.520   1.004  0.1749 -2.5362  0.2183
 1505SOL    HW2 6116   6.401   3.568   1.055 -0.5491 -0.4759  0.4655
 1506SOL     OW 6117   4.855   0.149   5.973  0.5481  0.0091 -0.4866
 1506SOL    HW1 6118   4.782   0.212   5.948  0.6460 -0.3085 -1.6161
 1506SOL    HW2 6119   4.911   0.129   5.893  0.6925 -1.2906 -0.0851
 1507SOL     OW 6120   5.760   1.804   0.730  0.4152 -0.6078  0.3472
 1507SOL    HW1 6121   5.822   1.741   0.777  0.0391 -1.4798 -0.3076
 1507SOL    HW2 6122   5.802   1.833   0.644  0.1392 -0.7725  0.1594
 1508SOL     OW 6123   5.917   3.361   1.406 -0.2645  0.3172  0.0935
 1508SOL    HW1 6124   5.870   3.397   1.487 -0.2058 -0.4960  0.4956
 1508SOL    HW2 6125   6.006   3.325   1.432 -0.6357 -0.8234 -0.1534
 1509SOL     OW 6126   1.936   1.948   3.917  0.0656  0.2040  0.1891
 1509SOL    HW1 6127   1.979   1.932   4.006  1.9490  0.6262 -0.6028
 1509SOL    HW2 6128   1.856   2.007   3.929 -0.5049 -0.8044  1.7369
 1510SOL     OW 6129   5.805   2.324   2.534  0.0193  0.2073  0.3527
 1510SOL    HW1 6130   5.869   2.372   2.594  0.7709 -0.0586 -0.2215
 1510SOL    HW2 6131   5.796   2.374   2.448 -2.6022  1.7096  1.3568
 1511SOL     OW 6132   2.570   1.276   1.794 -0.1763 -0.4255 -0.5283
 1511SOL    HW1 6133   2.492   1.288   1.732 -1.0622  0.3343  0.6798
 1511SOL    HW2 6134   2.626   1.200   1.762 -0.9970 -0.5171 -1.8490
 1512SOL     OW 6135   0.587   2.001   4.640  0.3672 -0.5949  0.2348
 1512SOL    HW1 6136   0.536   2.046   4.567  0.4457 -0.0652  0.5039
 1512SOL    HW2 6137   0.522   1.959   4.703  0.2626 -4.1676 -1.9824
 1513SOL     OW 6138   3.853   0.950   3.944 -0.0212  0.0199  0.5350
 1513SOL    HW1 6139   3.820   0.989   4.030  0.3882 -0.9530  1.1453
 1513SOL    HW2 6140   3.848   0.851   3.948  3.6140 -0.2977  0.9771
 1514SOL     OW 6141   0.896   3.460   2.394  0.4458  0.4160 -0.3293
 1514SOL    HW1 6142   0.843   3.427   2.317  0.2049  1.5338 -0.6586
 1514SOL    HW2 6143   0.949   3.540   2.367 -0.3979  1.4323  0.8993
 1515SOL     OW 6144   4.191   5.572   2.459 -0.4102  0.1702  0.1797
 1515SOL    HW1 6145   4.096   5.543   2.451 -0.9437  1.8220  0.1809
 1515SOL    HW2 6146   4.245   5.499   2.502 -1.6223 -0.8554  0.0156
 1516SOL     OW 6147   5.636   5.377   1.558  0.1642  0.5202  0.3670
 1516SOL    HW1 6148   5.687   5.391   1.643  0.9528  0.2538 -0.0447
 1516SOL    HW2 6149   5.604   5.465   1.523 -0.8239  0.5529  1.3269
 1517SOL     OW 6150   2.455   5.043   2.579  0.5650  0.1015 -0.2455
 1517SOL    HW1 6151   2.471   5.142   2.572  0.6462 -0.0114 -2.0008
 1517SOL    HW2 6152   2.537   4.999   2.616  1.4412  0.4495 -1.6663
 1518SOL     OW 6153   4.005   1.373   6.900  1.1720  0.0995  0.0793
 1518SOL    HW1 6154   4.029   1.373   6.997 -0.2591 -0.7066  0.4719
 1518SOL    HW2 6155   4.013   1.280   6.864  0.6966  0.1990 -0.2954
 1519SOL     OW 6156   2.097   1.546   1.078 -0.7092  0.3531  0.0933
 1519SOL    HW1 6157   2.092   1.553   1.178 -2.3509 -0.9669  0.1375
 1519SOL    HW2 6158   2.183   1.588   1.047 -0.8903  2.2252  1.8829
 1520SOL     OW 6159   4.172   2.555   1.033 -0.1318 -0.0967  0.4446
 1520SOL    HW1 6160   4.106   2.582   1.103  0.7363  0.9407  0.8972
 1520SOL    HW2 6161   4.260   2.535   1.077  0.6067  1.1893 -0.3637
 1521SOL     OW 6162   1.770   5.359   1.074  0.0910 -0.4777  0.0472
 1521SOL    HW1 6163   1.765   5.361   1.174  2.3408 -0.3756  0.2080
 1521SOL    HW2 6164   1.774   5.264   1.043  1.1292 -0.4921  0.1975
 1522SOL     OW 6165   5.559   1.375   3.786 -0.3121 -0.2317  0.1072
 1522SOL    HW1 6166   5.534   1.459   3.739  0.6238  1.3406  2.2633
 1522SOL    HW2 6167   5.641   1.335   3.743 -0.1098  0.5726 -0.2582
 1523SOL     OW 6168   4.925   0.222   0.061  0.3012 -0.6012  0.0194
 1523SOL    HW1 6169   4.868   0.296   0.097 -0.0748 -0.4807 -0.7983
 1523SOL    HW2 6170   4.924   0.145   0.125 -0.8246 -0.6158  0.0037
 1524SOL     OW 6171   6.374   3.147   4.840 -0.5404  0.9137  0.2534
 1524SOL    HW1 6172   6.284   3.139   4.797 -0.4140 -1.0979  0.2878
 1524SOL    HW2 6173   6.368   3.120   4.936  0.3821 -1.0971 -0.1861
 1525SOL     OW 6174   1.497   1.511   4.305 -0.1609  0.8996 -0.0010
 1525SOL    HW1 6175   1.514   1.567   4.223  0.1169  2.4727  1.0892
 1525SOL    HW2 6176   1.473   1.571   4.381  0.0418 -0.5141  1.2037
 1526SOL     OW 6177   1.910   3.504   7.014  0.4652 -0.3205 -0.6296
 1526SOL    HW1 6178   1.845   3.456   6.955  0.3466 -2.3549  1.0589
 1526SOL    HW2 6179   1.869   3.521   7.103  1.2624  1.0744 -0.4875
 1527SOL     OW 6180   4.789   6.480   6.669 -0.2959  0.2099  0.0087
 1527SOL    HW1 6181   4.781   6.424   6.751 -1.7745 -0.7830 -0.7715
 1527SOL    HW2 6182   4.879   6.467   6.629 -0.3365 -1.0178  0.2728
 1528SOL     OW 6183   2.178   6.576   5.553  0.0465  0.1659 -0.2163
 1528SOL    HW1 6184   2.203   6.491   5.508 -0.5360 -0.7088  1.0768
 1528SOL    HW2 6185   2.080   6.578   5.569  0.2461  0.4369  1.0541
 1529SOL     OW 6186   3.630   2.977   0.581  0.0320 -0.2880  0.2426
 1529SOL    HW1 6187   3.585   3.057   0.542 -0.9725 -0.8652  0.1751
 1529SOL    HW2 6188   3.720   3.003   0.616 -0.2418  0.8468  0.1508
 1530SOL     OW 6189   6.106   6.239   2.983 -0.2634  0.0143 -0.2805
 1530SOL    HW1 6190   6.160   6.323   2.985 -1.4795  0.8016  0.1661
 1530SOL    HW2 6191   6.106   6.202   2.890  0.8683  0.1032 -0.3290
 1531SOL     OW 6192   4.857   4.357   6.503  0.3635 -0.0432 -0.2824
 1531SOL    HW1 6193   4.828   4.409   6.583 -0.8484  1.8401 -1.8560
 1531SOL    HW2 6194   4.817   4.398   6.420 -0.2742 -3.2007 -1.6937
 1532SOL     OW 6195   1.454   5.563   2.610  0.0508 -0.6467 -0.1582
 1532SOL    HW1 6196   1.359   5.543   2.634 -0.6822  1.5108 -1.0537
 1532SOL    HW2 6197   1.474   5.524   2.520  0.0146 -1.0589  0.0081
 1533SOL     OW 6198   5.041   3.273   3.348  0.4860 -0.4917 -0.1894
 1533SOL    HW1 6199   5.121   3.220   3.376  0.9895 -0.0801 -0.8020
 1533SOL    HW2 6200   4.959   3.217   3.354  0.7893 -0.8548  0.6594
 1534SOL     OW 6201   6.904   6.284   5.024  0.4560  0.4046 -0.1183
 1534SOL    HW1 6202   6.849   6.260   5.104  0.1973  0.7108 -0.1992
 1534SOL    HW2 6203   6.997   6.305   5.052 -0.2574  3.1661  0.5006
 1535SOL     OW 6204   4.959   5.468   6.049 -0.1687 -0.5354 -0.2560
 1535SOL    HW1 6205   4.914   5.404   5.986  1.0069 -0.4620 -1.2169
 1535SOL    HW2 6206   4.985   5.551   5.999  0.0036 -0.1010  0.5368
 1536SOL     OW 6207   5.710   2.551   4.977  0.5890  0.1637  0.1348
 1536SOL    HW1 6208   5.761   2.497   4.910 -1.1243 -2.2681  0.6508
 1536SOL    HW2 6209   5.613   2.549   4.955  0.4461  3.8108 -0.2248
 1537SOL     OW 6210   3.111   2.493   2.088  0.1995  0.4286 -0.2205
 1537SOL    HW1 6211   3.063   2.580   2.102  0.7502  0.8318 -0.7460
 1537SOL    HW2 6212   3.063   2.439   2.019  0.8718  1.1555 -1.2992
 1538SOL     OW 6213   0.296   0.448   3.034 -0.2111  0.0101  0.2048
 1538SOL    HW1 6214   0.347   0.369   3.069  1.0945 -0.4150 -2.3691
 1538SOL    HW2 6215   0.205   0.451   3.075  0.2877 -1.8754  1.5720
 1539SOL     OW 6216   1.852   3.403   2.133  0.2350  0.3505 -0.0625
 1539SOL    HW1 6217   1.938   3.449   2.113  0.2915  0.8564  1.2785
 1539SOL    HW2 6218   1.780   3.472   2.146  0.0283  0.0181  0.6107
 1540SOL     OW 6219   4.962   5.173   5.007 -0.1940 -0.0372  0.2153
 1540SOL    HW1 6220   4.866   5.200   5.005 -0.5488 -1.2608  0.2404
 1540SOL    HW2 6221   4.976   5.094   4.949  1.1248  1.0631 -1.0340
 1541SOL     OW 6222   0.732   5.791   1.724 -0.4223  0.0069 -0.6038
 1541SOL    HW1 6223   0.696   5.831   1.639  0.7538  0.2308 -1.0234
 1541SOL    HW2 6224   0.744   5.692   1.711  1.0838  0.2417 -1.2222
 1542SOL     OW 6225   4.552   3.516   1.767 -0.1061  0.3876 -0.1930
 1542SOL    HW1 6226   4.585   3.511   1.861 -1.3617  1.8217  0.3731
 1542SOL    HW2 6227   4.608   3.581   1.716  0.5245 -0.3286 -0.4181
 1543SOL     OW 6228   4.851   0.300   4.206 -0.1745 -0.8344  0.6431
 1543SOL    HW1 6229   4.838   0.237   4.283 -1.3397 -2.9852 -1.2252
 1543SOL    HW2 6230   4.949   0.307   4.186  0.4016  1.4116  3.5151
 1544SOL     OW 6231   0.716   3.248   4.015 -0.0604 -0.5185  0.7929
 1544SOL    HW1 6232   0.710   3.345   3.994  1.4464 -0.5226  0.2437
 1544SOL    HW2 6233   0.633   3.219   4.064 -1.5894  0.5119 -1.0613
 1545SOL     OW 6234   0.820   4.922   2.734  0.0229  0.7287  0.3026
 1545SOL    HW1 6235   0.752   4.855   2.766 -0.2122  0.8479  0.0572
 1545SOL    HW2 6236   0.810   5.006   2.786 -0.1901  0.8343  0.0962
 1546SOL     OW 6237   5.735   1.945   3.267  0.3275 -0.2455 -0.2814
 1546SOL    HW1 6238   5.758   2.035   3.230 -0.2675 -0.3608 -0.9440
 1546SOL    HW2 6239   5.756   1.875   3.200  0.8289 -0.6162  0.2479
 1547SOL     OW 6240   6.970   4.841   4.291  0.1061 -0.7595  0.2470
 1547SOL    HW1 6241   6.887   4.848   4.347  0.1967  3.5296  0.1435
 1547SOL    HW2 6242   7.047   4.814   4.350 -0.4504  0.2436  1.4845
 1548SOL     OW 6243   6.205   3.393   1.415 -0.5451 -0.2599 -0.3309
 1548SOL    HW1 6244   6.161   3.432   1.496 -0.2979  0.8464 -0.7165
 1548SOL    HW2 6245   6.285   3.338   1.443  0.1505  0.9531  0.1285
 1549SOL     OW 6246   2.858   1.567   4.698  0.7279 -0.6932 -0.2242
 1549SOL    HW1 6247   2.870   1.607   4.607 -3.9579  0.0578 -0.7749
 1549SOL    HW2 6248   2.833   1.471   4.689 -1.8950 -0.1072 -0.0536
 1550SOL     OW 6249   4.209   4.103   1.243  0.6187  0.1046  0.0079
 1550SOL    HW1 6250   4.212   4.005   1.262  2.4434 -0.2126 -1.6677
 1550SOL    HW2 6251   4.261   4.153   1.312 -0.9509  0.0251  1.3070
 1551SOL     OW 6252   3.900   3.199   0.893  0.4499 -0.1978  0.2496
 1551SOL    HW1 6253   3.883   3.200   0.794 -0.0417  1.6466  0.3053
 1551SOL    HW2 6254   3.998   3.206   0.910  0.4896  0.1597 -0.1088
 1552SOL     OW 6255   0.073   2.756   3.340 -0.2574 -0.4728  1.1016
 1552SOL    HW1 6256   0.023   2.730   3.422  0.7404 -0.4388  1.7387
 1552SOL    HW2 6257   0.172   2.753   3.358 -0.0357  1.1446  0.4083
 1553SOL     OW 6258   6.411   1.442   2.967 -0.2661  0.0754  0.3639
 1553SOL    HW1 6259   6.443   1.348   2.960 -1.1690 -0.2807  0.7676
 1553SOL    HW2 6260   6.486   1.505   2.949  0.7564 -0.7153  1.6648
 1554SOL     OW 6261   4.882   1.029   2.752  0.3935 -0.0144  0.0939
 1554SOL    HW1 6262   4.804   1.050   2.693 -0.8216 -0.0184  1.6234
 1554SOL    HW2 6263   4.955   0.988   2.697 -1.5780 -2.2574 -1.0764
 1555SOL     OW 6264   5.091   5.618   4.207 -0.3804 -0.3314 -0.6043
 1555SOL    HW1 6265   5.123   5.713   4.214 -0.8794 -0.2330  0.4894
 1555SOL    HW2 6266   4.996   5.617   4.175 -0.8283 -0.3724  0.6616
 1556SOL     OW 6267   6.009   3.685   5.293 -0.5967  0.3152  0.0383
 1556SOL    HW1 6268   6.038   3.734   5.376 -1.7688  0.6916  0.2374
 1556SOL    HW2 6269   5.968   3.598   5.319 -0.2926  0.0964 -0.2036
 1557SOL     OW 6270   2.978   2.760   2.089 -0.3676  0.2456  0.6602
 1557SOL    HW1 6271   2.939   2.753   1.997  1.3094  0.4905 -0.1079
 1557SOL    HW2 6272   2.989   2.856   2.113  0.7519  0.1853  0.4154
 1558SOL     OW 6273   5.040   4.079   0.380  0.9455 -0.0106 -0.5375
 1558SOL    HW1 6274   5.046   4.176   0.401  0.2773  0.1488 -1.0538
 1558SOL    HW2 6275   4.964   4.038   0.431  2.0255 -0.5614  0.7062
 1559SOL     OW 6276   4.243   0.004   0.797 -0.6397 -0.6547  0.1564
 1559SOL    HW1 6277   4.299   0.001   0.880  1.5393  0.8355 -1.1586
 1559SOL    HW2 6278   4.300   0.032   0.720 -3.5564  2.8201 -0.9811
 1560SOL     OW 6279   1.557   0.886   0.052 -0.2485  0.7594  0.7003
 1560SOL    HW1 6280   1.576   0.856  -0.042 -1.2615  2.5808 -0.1412
 1560SOL    HW2 6281   1.605   0.971   0.070 -0.3310  0.5957  1.7438
 1561SOL     OW 6282   4.863   0.114   3.532 -0.3091  0.2968 -0.2819
 1561SOL    HW1 6283   4.878   0.064   3.447 -1.6083  0.3269 -0.5369
 1561SOL    HW2 6284   4.806   0.194   3.515 -1.0892 -0.0270  0.7154
 1562SOL     OW 6285   6.615   3.640   0.853  0.6073  0.3123  0.3919
 1562SOL    HW1 6286   6.629   3.554   0.805  0.7352  0.7481 -0.3709
 1562SOL    HW2 6287   6.519   3.668   0.842  0.0737 -0.6437  2.2011
 1563SOL     OW 6288   2.337   1.688   6.420  0.0338  0.3768  0.1628
 1563SOL    HW1 6289   2.298   1.621   6.357 -0.9203 -0.1312  1.2528
 1563SOL    HW2 6290   2.271   1.761   6.435  0.0623  0.2610  0.8988
 1564SOL     OW 6291   5.211   1.938   0.139 -0.0863 -0.0852  0.2062
 1564SOL    HW1 6292   5.138   1.911   0.203 -1.1568  0.5272 -0.7067
 1564SOL    HW2 6293   5.180   2.017   0.086  1.1117 -0.0638 -0.4899
 1565SOL     OW 6294   2.474   4.866   1.793  0.3830 -0.0378 -0.1236
 1565SOL    HW1 6295   2.469   4.898   1.888 -1.3758 -0.0987 -0.1612
 1565SOL    HW2 6296   2.570   4.856   1.767  0.9938  2.5286  0.7742
 1566SOL     OW 6297   1.598   3.415   5.292 -0.5738 -0.5414  0.2576
 1566SOL    HW1 6298   1.678   3.458   5.333 -0.3524 -1.9769  1.4046
 1566SOL    HW2 6299   1.598   3.431   5.193 -0.4411  1.9136  0.6068
 1567SOL     OW 6300   5.788   3.718   4.466 -0.0670 -0.3246  0.1807
 1567SOL    HW1 6301   5.713   3.745   4.527  0.2687 -0.3342  0.6055
 1567SOL    HW2 6302   5.751   3.669   4.387 -0.4012 -1.6122  1.1040
 1568SOL     OW 6303   2.216   4.213   1.124  0.4445  0.3546 -0.1089
 1568SOL    HW1 6304   2.233   4.123   1.085  1.6574  1.4222 -2.2639
 1568SOL    HW2 6305   2.303   4.258   1.144 -0.0986  1.3960  0.0106
 1569SOL     OW 6306   0.348   3.740   4.427 -0.2842 -0.5611 -0.0756
 1569SOL    HW1 6307   0.434   3.751   4.378 -1.1486 -0.3323 -1.6255
 1569SOL    HW2 6308   0.347   3.801   4.507  0.1093  1.1784 -1.3221
 1570SOL     OW 6309   4.854   5.244   1.741  0.7723 -0.1474  0.7228
 1570SOL    HW1 6310   4.872   5.176   1.813 -0.1615 -0.6554  0.4995
 1570SOL    HW2 6311   4.934   5.253   1.683  1.6758  0.5225  2.0124
 1571SOL     OW 6312   6.273   6.453   6.470 -0.0216  0.0909 -0.4298
 1571SOL    HW1 6313   6.192   6.397   6.490  0.3816 -1.2446 -2.2837
 1571SOL    HW2 6314   6.355   6.399   6.487  0.4248  0.6439 -0.8130
 1572SOL     OW 6315   3.132   1.371   3.371 -0.0794 -0.4248 -0.2780
 1572SOL    HW1 6316   3.161   1.291   3.317 -0.6314 -0.5048 -0.4706
 1572SOL    HW2 6317   3.195   1.446   3.356 -0.0233 -0.5625 -0.7630
 1573SOL     OW 6318   2.466   0.017   2.181 -0.3594  0.5533 -0.0979
 1573SOL    HW1 6319   2.530   0.006   2.104 -1.3352 -0.7833 -0.7724
 1573SOL    HW2 6320   2.381   0.059   2.148 -0.8428 -0.1638  0.2001
 1574SOL     OW 6321   6.938   4.047   1.662 -0.1012 -0.3105  0.0408
 1574SOL    HW1 6322   6.943   3.984   1.740 -1.8383  0.9043  1.2082
 1574SOL    HW2 6323   6.843   4.059   1.635  0.1366  1.9780  0.0265
 1575SOL     OW 6324   5.597   3.827   6.831 -0.2137 -0.2733  0.0930
 1575SOL    HW1 6325   5.621   3.915   6.872 -0.0314 -0.5876  0.6707
 1575SOL    HW2 6326   5.674   3.793   6.776  0.1435 -0.5952  0.7757
 1576SOL     OW 6327   0.859   5.479   1.911 -0.1593  0.0604  0.0539
 1576SOL    HW1 6328   0.764   5.488   1.938 -0.3951 -1.1402 -0.3320
 1576SOL    HW2 6329   0.912   5.556   1.948 -1.2550  0.7039  0.3084
 1577SOL     OW 6330   4.350   1.426   3.792 -0.0625 -0.1675 -0.4885
 1577SOL    HW1 6331   4.360   1.428   3.891 -0.6518 -2.1866 -0.3448
 1577SOL    HW2 6332   4.398   1.504   3.752 -0.4206  1.0869  1.4083
 1578SOL     OW 6333   6.116   6.183   4.761  0.0430 -0.4245  0.3475
 1578SOL    HW1 6334   6.078   6.270   4.792  1.1483  0.2108 -0.0012
 1578SOL    HW2 6335   6.137   6.126   4.841  0.5420  0.1820  0.6627
 1579SOL     OW 6336   1.948   6.253   4.937  0.0124 -0.2775  0.3091
 1579SOL    HW1 6337   1.864   6.292   4.900 -0.2251  1.0099  2.0741
 1579SOL    HW2 6338   1.990   6.317   5.000  0.2517 -2.3905  2.4567
 1580SOL     OW 6339   5.267   4.023   1.281  0.0209  0.3788  0.0803
 1580SOL    HW1 6340   5.271   4.089   1.356 -5.4583  0.9842  0.2577
 1580SOL    HW2 6341   5.337   4.045   1.213 -0.6522  5.6801  0.7115
 1581SOL     OW 6342   7.010   1.530   5.962 -0.6610  0.1299  0.2754
 1581SOL    HW1 6343   7.041   1.518   5.867 -0.1352  2.2177  0.1316
 1581SOL    HW2 6344   7.004   1.628   5.982 -3.2473 -0.2397  1.6155
 1582SOL     OW 6345   1.371   4.508   1.705 -0.2648  0.7475  0.8060
 1582SOL    HW1 6346   1.468   4.534   1.696 -0.1061  0.3058  1.2205
 1582SOL    HW2 6347   1.314   4.579   1.663  0.2503  0.8836  0.3188
 1583SOL     OW 6348   2.664   4.899   0.848  0.7475 -0.0339 -0.1317
 1583SOL    HW1 6349   2.751   4.946   0.862  0.5978  0.2571 -0.1722
 1583SOL    HW2 6350   2.652   4.880   0.751  1.3498 -1.2114  0.0087
 1584SOL     OW 6351   4.604   4.925   4.746  0.0999 -0.2730 -0.0981
 1584SOL    HW1 6352   4.658   4.848   4.781 -0.6118 -1.3800 -1.3600
 1584SOL    HW2 6353   4.523   4.890   4.699  0.2455  1.2076 -1.5183
 1585SOL     OW 6354   6.697   2.529   5.991 -0.0078 -0.2437 -0.5687
 1585SOL    HW1 6355   6.633   2.555   6.063 -0.2599  1.3024 -1.3206
 1585SOL    HW2 6356   6.790   2.546   6.021 -0.0032 -1.1083 -0.0355
 1586SOL     OW 6357   4.769   1.687   0.199  0.2709 -0.0850 -0.3973
 1586SOL    HW1 6358   4.726   1.704   0.111  1.1615  0.7761 -0.6789
 1586SOL    HW2 6359   4.771   1.588   0.216 -2.7238 -0.1650  0.1311
 1587SOL     OW 6360   1.021   5.877   6.809  0.6612 -0.0051  0.0797
 1587SOL    HW1 6361   0.985   5.964   6.776  1.5414  0.9895  1.6249
 1587SOL    HW2 6362   1.021   5.810   6.735 -2.1002  0.6346 -0.6018
 1588SOL     OW 6363   1.325   5.990   5.829 -0.0143  0.3620 -0.2272
 1588SOL    HW1 6364   1.291   6.060   5.892  0.1553 -0.6025  0.9769
 1588SOL    HW2 6365   1.425   5.993   5.826  0.0738 -0.7389  0.9495
 1589SOL     OW 6366   0.067   5.440   1.032  0.4155  0.1085  0.6167
 1589SOL    HW1 6367   0.120   5.507   0.979 -1.7559  1.1587 -0.3515
 1589SOL    HW2 6368   0.014   5.488   1.102 -0.4895 -0.7043  0.5055
 1590SOL     OW 6369   6.323   3.456   2.769 -0.2498 -0.3504 -0.1144
 1590SOL    HW1 6370   6.313   3.358   2.786 -3.5373  0.1802  2.1052
 1590SOL    HW2 6371   6.361   3.501   2.850 -1.8558  0.5035  0.2243
 1591SOL     OW 6372   6.502   5.516   1.996 -0.2273  0.0940 -0.1626
 1591SOL    HW1 6373   6.567   5.583   1.961 -0.0400 -0.7613 -1.5478
 1591SOL    HW2 6374   6.409   5.542   1.968 -0.4262  0.9629  1.2484
 1592SOL     OW 6375   5.274   1.991   5.490 -0.2611 -0.1999 -0.1137
 1592SOL    HW1 6376   5.370   2.007   5.465 -0.4848  0.9368 -0.2966
 1592SOL    HW2 6377   5.251   2.047   5.570 -0.8967 -0.1155 -0.3526
 1593SOL     OW 6378   2.225   4.189   6.764  0.1098 -0.0201  0.4701
 1593SOL    HW1 6379   2.321   4.212   6.748  0.3631 -1.6524 -0.5862
 1593SOL    HW2 6380   2.172   4.208   6.682 -0.3449  0.1824  0.8034
 1594SOL     OW 6381   0.241   0.304   6.783 -0.7783 -0.2059  0.2923
 1594SOL    HW1 6382   0.276   0.270   6.870  0.5266 -1.7693 -0.7752
 1594SOL    HW2 6383   0.167   0.245   6.750 -0.1116 -0.6483 -0.4482
 1595SOL     OW 6384   4.842   1.723   3.843 -0.8146  0.0047 -0.1604
 1595SOL    HW1 6385   4.786   1.771   3.911 -0.2914 -1.1915  1.1817
 1595SOL    HW2 6386   4.888   1.646   3.887  1.1265  0.3537 -1.4487
 1596SOL     OW 6387   2.268   5.602   1.890 -0.2406  0.3221 -0.0228
 1596SOL    HW1 6388   2.342   5.606   1.824 -0.1827  1.6769  0.0991
 1596SOL    HW2 6389   2.269   5.684   1.947 -1.6032  0.1988  0.2218
 1597SOL     OW 6390   1.158   2.569   2.521 -0.0676  0.3984  0.3598
 1597SOL    HW1 6391   1.154   2.667   2.500  2.0772  0.5518  0.4840
 1597SOL    HW2 6392   1.252   2.543   2.542 -0.3324 -2.0043 -1.0958
 1598SOL     OW 6393   5.689   6.549   2.013 -0.1192 -0.1025 -0.5505
 1598SOL    HW1 6394   5.635   6.631   2.027 -2.3509 -1.6404  0.3833
 1598SOL    HW2 6395   5.635   6.482   1.961  0.3173 -2.1949  1.5309
 1599SOL     OW 6396   3.284   5.729   6.834 -0.2901  0.5615 -0.1752
 1599SOL    HW1 6397   3.232   5.811   6.811  2.1353  1.6744 -2.2482
 1599SOL    HW2 6398   3.319   5.688   6.749  1.0112 -0.9118  1.0203
 1600SOL     OW 6399   5.626   2.496   3.571  0.0406  0.4947  0.3569
 1600SOL    HW1 6400   5.687   2.492   3.650 -0.9508 -0.7232  1.1121
 1600SOL    HW2 6401   5.537   2.460   3.597  0.0632 -1.1853 -1.6451
 1601SOL     OW 6402   4.509   4.373   1.756  0.0194 -0.0487 -0.5643
 1601SOL    HW1 6403   4.415   4.346   1.735 -0.3953 -0.1387  1.2977
 1601SOL    HW2 6404   4.551   4.306   1.817  2.1569 -1.2811 -3.1381
 1602SOL     OW 6405   0.830   3.154   5.854  0.0122 -0.3533  0.4688
 1602SOL    HW1 6406   0.896   3.204   5.909 -0.2767  0.7573 -0.1621
 1602SOL    HW2 6407   0.829   3.058   5.882  1.4702 -0.2732  0.8773
 1603SOL     OW 6408   0.869   5.256   6.488  0.0180 -0.5792 -0.0409
 1603SOL    HW1 6409   0.845   5.341   6.535 -2.4464 -1.4717  0.4245
 1603SOL    HW2 6410   0.890   5.277   6.392 -1.3488  0.4865 -0.1426
 1604SOL     OW 6411   1.466   5.436   4.583 -0.1760 -0.8234 -0.0542
 1604SOL    HW1 6412   1.377   5.428   4.539 -1.0984  0.3684  1.4949
 1604SOL    HW2 6413   1.497   5.531   4.580  0.4772 -1.0065  0.4844
 1605SOL     OW 6414   0.980   5.607   6.327 -0.4211  0.1494  0.0980
 1605SOL    HW1 6415   0.886   5.583   6.351 -0.0176 -2.6250 -0.6433
 1605SOL    HW2 6416   1.000   5.575   6.234  1.2471  0.6764  0.2353
 1606SOL     OW 6417   4.373   5.163   4.541  0.0445 -0.4998 -0.1641
 1606SOL    HW1 6418   4.370   5.124   4.633 -0.4442 -0.0252  0.0269
 1606SOL    HW2 6419   4.299   5.229   4.530 -0.7032 -1.4950 -1.3500
 1607SOL     OW 6420   2.245   4.802   6.042  0.0514  0.6367 -0.3527
 1607SOL    HW1 6421   2.149   4.828   6.028 -0.3919 -1.0181 -0.5550
 1607SOL    HW2 6422   2.266   4.722   5.986  1.9951  1.8469 -1.4590
 1608SOL     OW 6423   5.929   3.948   3.787 -0.3150  0.2717 -0.4607
 1608SOL    HW1 6424   5.928   4.010   3.708 -3.3979 -0.7444 -1.3845
 1608SOL    HW2 6425   5.903   3.856   3.757  2.4720 -1.1456  1.1674
 1609SOL     OW 6426   5.728   4.226   2.779 -0.3716 -0.0876  0.3860
 1609SOL    HW1 6427   5.643   4.174   2.776  0.4200 -1.3923 -0.7127
 1609SOL    HW2 6428   5.797   4.176   2.832  0.2146  0.1020 -0.1707
 1610SOL     OW 6429   2.988   0.132   1.033 -0.0647  0.5434 -0.2034
 1610SOL    HW1 6430   2.924   0.174   0.969 -0.0111 -0.3638 -0.8746
 1610SOL    HW2 6431   3.082   0.156   1.007  0.0765 -1.3680 -1.6775
 1611SOL     OW 6432   5.513   4.865   4.840 -0.0776  0.4626  0.9737
 1611SOL    HW1 6433   5.467   4.810   4.770 -0.4443  0.6451  1.0708
 1611SOL    HW2 6434   5.582   4.809   4.886 -0.0386  0.2563  0.6682
 1612SOL     OW 6435   6.805   4.679   3.097 -0.2139  0.2695 -0.2970
 1612SOL    HW1 6436   6.847   4.706   3.183  3.7039  0.3138 -2.0169
 1612SOL    HW2 6437   6.800   4.579   3.091  0.1846  0.2514 -0.3112
 1613SOL     OW 6438   6.703   1.580   3.928  0.3402 -0.1532 -0.3606
 1613SOL    HW1 6439   6.722   1.667   3.974 -0.9448 -0.1490  0.1984
 1613SOL    HW2 6440   6.731   1.505   3.987  0.9536 -0.1398 -0.6208
 1614SOL     OW 6441   3.359   2.351   1.031 -0.0262 -0.0436  0.0066
 1614SOL    HW1 6442   3.319   2.263   1.004 -1.7359  0.7540 -0.2013
 1614SOL    HW2 6443   3.402   2.394   0.951 -0.9695  0.2036 -0.3786
 1615SOL     OW 6444   0.918   2.020   6.664  0.1386  0.0789 -0.0143
 1615SOL    HW1 6445   0.851   2.086   6.629  0.5397  0.3852 -0.2119
 1615SOL    HW2 6446   0.935   2.038   6.761 -1.4617 -1.1790  0.5428
 1616SOL     OW 6447   4.293   0.263   3.419  0.3668 -0.0166 -0.2389
 1616SOL    HW1 6448   4.365   0.199   3.443  1.1870  0.2470 -1.8569
 1616SOL    HW2 6449   4.213   0.212   3.387  0.2341 -0.2714  0.4733
 1617SOL     OW 6450   5.046   5.295   1.957 -0.2107  0.6806 -0.0389
 1617SOL    HW1 6451   5.124   5.357   1.945 -0.3216  1.0244  0.9350
 1617SOL    HW2 6452   5.020   5.293   2.053  0.3750 -1.5913  0.1293
 1618SOL     OW 6453   3.634   2.648   5.491 -0.0854  0.0546  0.2426
 1618SOL    HW1 6454   3.624   2.654   5.392  2.2062 -0.4291 -0.0755
 1618SOL    HW2 6455   3.704   2.579   5.513 -0.7092 -0.0063  2.2145
 1619SOL     OW 6456   5.363   2.613   3.438 -0.2578 -0.4544  0.3850
 1619SOL    HW1 6457   5.460   2.633   3.423 -0.2540 -0.8319 -0.1350
 1619SOL    HW2 6458   5.354   2.531   3.495 -0.2744  0.7170  2.1289
 1620SOL     OW 6459   6.288   2.088   2.659 -0.3094  0.2441 -0.0693
 1620SOL    HW1 6460   6.205   2.066   2.608 -0.0168  0.1643 -0.5236
 1620SOL    HW2 6461   6.331   2.004   2.691 -0.7113  0.3185  0.6653
 1621SOL     OW 6462   2.653   1.608   3.494 -0.9368  0.0430 -0.4040
 1621SOL    HW1 6463   2.658   1.520   3.543  0.3652  0.2415 -0.1490
 1621SOL    HW2 6464   2.669   1.592   3.397 -1.9314 -0.1467 -0.5472
 1622SOL     OW 6465   5.002   0.447   1.335  0.1821 -0.0336 -0.2252
 1622SOL    HW1 6466   5.051   0.499   1.266 -0.5845 -0.1671 -0.8891
 1622SOL    HW2 6467   4.914   0.416   1.298 -0.7265  0.7772  1.1325
 1623SOL     OW 6468   3.642   0.328   4.306 -0.1153  0.3093  0.4138
 1623SOL    HW1 6469   3.563   0.271   4.282  0.5060 -0.8927  1.1355
 1623SOL    HW2 6470   3.703   0.335   4.227 -1.6016  2.4448 -0.6193
 1624SOL     OW 6471   6.346   1.509   2.553 -0.0795  0.0448 -0.2827
 1624SOL    HW1 6472   6.437   1.493   2.591 -0.9633  0.3444  2.1080
 1624SOL    HW2 6473   6.354   1.563   2.469  1.9430 -0.3013 -0.3643
 1625SOL     OW 6474   0.068   2.601   1.345  0.0333  0.4260 -0.2573
 1625SOL    HW1 6475   0.047   2.651   1.429 -0.1766 -0.4580  0.2290
 1625SOL    HW2 6476   0.002   2.626   1.275 -0.9889 -0.2485  0.4297
 1626SOL     OW 6477   3.944   3.601   1.553  0.5291 -0.2835 -0.2268
 1626SOL    HW1 6478   3.845   3.608   1.547  0.5120 -0.4879 -0.1704
 1626SOL    HW2 6479   3.976   3.647   1.636  0.6037  0.9548 -0.9115
 1627SOL     OW 6480   0.600   2.762   2.954  0.5282  0.3400 -0.7823
 1627SOL    HW1 6481   0.529   2.776   2.884  1.3149  1.5733 -1.3773
 1627SOL    HW2 6482   0.677   2.824   2.936  1.8596 -1.1105 -0.2800
 1628SOL     OW 6483   2.763   6.375   0.505 -0.0911  0.6067  0.8159
 1628SOL    HW1 6484   2.737   6.445   0.571  2.6134 -0.2918  3.0631
 1628SOL    HW2 6485   2.831   6.314   0.547  1.9509  0.0481 -2.8802
 1629SOL     OW 6486   1.555   5.679   3.977  0.1315  0.0826  0.5919
 1629SOL    HW1 6487   1.601   5.640   3.898  2.2615 -1.1151  2.2923
 1629SOL    HW2 6488   1.603   5.762   4.007  1.0300 -0.9279  2.1148
 1630SOL     OW 6489   2.413   4.879   1.243  0.0209  0.0087 -0.3458
 1630SOL    HW1 6490   2.405   4.976   1.265  0.5725 -0.0687  0.2206
 1630SOL    HW2 6491   2.508   4.858   1.218  0.2659 -0.6852  1.0692
 1631SOL     OW 6492   6.187   4.012   5.147 -0.0879 -0.4143 -0.1729
 1631SOL    HW1 6493   6.098   4.047   5.176 -0.1817  0.1177 -1.0705
 1631SOL    HW2 6494   6.188   4.003   5.047  0.6426 -1.0436 -0.1152
 1632SOL     OW 6495   3.939   1.880   6.245 -0.0430  0.2052  0.9067
 1632SOL    HW1 6496   3.857   1.914   6.291  0.2975 -1.0995  2.5657
 1632SOL    HW2 6497   3.933   1.781   6.235  0.1015  0.3811 -1.5609
 1633SOL     OW 6498   4.001   1.353   1.235  0.0646 -0.4966  0.1349
 1633SOL    HW1 6499   4.064   1.417   1.279  0.3896  0.0760 -1.1036
 1633SOL    HW2 6500   3.907   1.387   1.244  0.0927 -0.5526  0.6516
 1634SOL     OW 6501   1.767   4.158   1.085  0.0680 -0.3922 -0.2171
 1634SOL    HW1 6502   1.825   4.076   1.080  1.3305  0.5175 -4.3321
 1634SOL    HW2 6503   1.672   4.131   1.103  0.3291 -2.9352 -2.0564
 1635SOL     OW 6504   2.841   5.017   6.539  0.1407  0.2447  0.0923
 1635SOL    HW1 6505   2.819   4.919   6.548  2.5610 -0.5341 -1.6332
 1635SOL    HW2 6506   2.940   5.029   6.536 -0.0116  2.2038 -4.0248
 1636SOL     OW 6507   2.009   4.676   0.881 -0.5734 -0.0560  0.1732
 1636SOL    HW1 6508   2.046   4.767   0.901  1.4422 -0.8955  0.5540
 1636SOL    HW2 6509   1.971   4.637   0.965  0.8066 -0.4993  0.6260
 1637SOL     OW 6510   0.020   1.109   4.222 -0.3006 -0.3184 -0.0760
 1637SOL    HW1 6511   0.066   1.027   4.257  0.2214 -0.4267 -0.9722
 1637SOL    HW2 6512   0.052   1.189   4.272  0.7326 -0.4188 -0.5532
 1638SOL     OW 6513   0.582   4.593   2.073  0.2897  0.2704 -0.0446
 1638SOL    HW1 6514   0.483   4.605   2.060  0.0824 -1.1754  0.0393
 1638SOL    HW2 6515   0.604   4.496   2.072  1.5762  0.5197  1.0240
 1639SOL     OW 6516   5.103   0.262   2.332  0.1009 -0.2586  0.3076
 1639SOL    HW1 6517   5.057   0.283   2.246 -0.2978 -0.4319  0.4736
 1639SOL    HW2 6518   5.108   0.162   2.342  2.2094 -0.2857 -0.6053
 1640SOL     OW 6519   0.291   6.834   4.796 -0.0563 -0.0498  0.7266
 1640SOL    HW1 6520   0.365   6.826   4.730 -0.5076  0.6897  0.1079
 1640SOL    HW2 6521   0.260   6.929   4.799 -1.5879 -0.5100  0.2993
 1641SOL     OW 6522   6.222   5.552   2.030  0.5641  0.7339  0.3019
 1641SOL    HW1 6523   6.192   5.547   2.125  1.7216  1.9789  0.7531
 1641SOL    HW2 6524   6.179   5.478   1.978  0.7760 -0.6543  2.0101
 1642SOL     OW 6525   1.468   1.413   4.811 -0.0069 -0.7693 -0.5804
 1642SOL    HW1 6526   1.391   1.475   4.795  0.6500 -0.2138 -1.6469
 1642SOL    HW2 6527   1.552   1.466   4.822  0.4276 -1.4336 -0.6517
 1643SOL     OW 6528   2.450   5.009   0.333  0.2956 -0.3720 -0.2672
 1643SOL    HW1 6529   2.513   4.941   0.295  0.0711 -0.3871 -0.6271
 1643SOL    HW2 6530   2.499   5.094   0.350  0.6728 -0.7484  0.5847
 1644SOL     OW 6531   4.532   5.741   0.817 -0.0948 -0.0516 -0.0601
 1644SOL    HW1 6532   4.462   5.694   0.872  0.1583 -0.3832 -0.0169
 1644SOL    HW2 6533   4.583   5.673   0.765  1.2841  0.0161  1.1439
 1645SOL     OW 6534   2.784   3.565   4.171 -0.3705 -0.6817  0.3854
 1645SOL    HW1 6535   2.862   3.519   4.213  0.1754  0.0815  0.2275
 1645SOL    HW2 6536   2.788   3.553   4.071  0.7201  1.0873  0.1752
 1646SOL     OW 6537   5.191   6.598   3.257 -0.0344  0.7870  0.1681
 1646SOL    HW1 6538   5.199   6.691   3.293 -1.6838  0.7343  0.7477
 1646SOL    HW2 6539   5.171   6.534   3.332 -0.2567  0.1692 -0.4036
 1647SOL     OW 6540   5.389   1.348   2.752  0.0593  0.3372  0.2646
 1647SOL    HW1 6541   5.320   1.384   2.814 -0.4963  0.1133 -0.2164
 1647SOL    HW2 6542   5.386   1.248   2.754  0.0007  0.3310 -0.1682
 1648SOL     OW 6543   0.702   1.077   6.865  0.6130 -0.1609 -0.7884
 1648SOL    HW1 6544   0.619   1.112   6.820  1.1578  0.5022 -1.2994
 1648SOL    HW2 6545   0.765   1.042   6.796  0.8094 -0.5565 -0.4095
 1649SOL     OW 6546   2.890   3.733   0.123  0.6540 -0.0026 -0.2011
 1649SOL    HW1 6547   2.864   3.829   0.108  0.7947 -0.0776 -0.9517
 1649SOL    HW2 6548   2.989   3.728   0.139  0.6696 -0.0346 -0.3056
 1650SOL     OW 6549   4.710   6.489   3.545  0.4495 -0.1301  0.2247
 1650SOL    HW1 6550   4.712   6.404   3.598  0.2360 -1.1353 -1.3133
 1650SOL    HW2 6551   4.649   6.554   3.589  0.8809 -0.6442  1.6216
 1651SOL     OW 6552   4.235   5.775   6.393  0.8456  0.3388 -0.0445
 1651SOL    HW1 6553   4.142   5.783   6.428  0.2599  0.8116 -1.6078
 1651SOL    HW2 6554   4.266   5.681   6.400  0.6735  0.3722  1.4690
 1652SOL     OW 6555   3.067   0.232   5.417 -0.3732  0.0642  0.4360
 1652SOL    HW1 6556   3.032   0.157   5.474  0.5959 -0.2260  0.6880
 1652SOL    HW2 6557   3.107   0.302   5.476  0.5535 -0.1954  0.1340
 1653SOL     OW 6558   5.357   2.004   6.595 -0.6234  0.5779 -1.0664
 1653SOL    HW1 6559   5.378   2.035   6.688 -2.1489 -0.7347 -0.2346
 1653SOL    HW2 6560   5.291   2.068   6.554 -1.3610  0.1775 -0.5333
 1654SOL     OW 6561   4.663   2.275   5.348 -0.0015  0.2334  0.0875
 1654SOL    HW1 6562   4.727   2.351   5.347  2.7096 -1.8091  2.1465
 1654SOL    HW2 6563   4.706   2.194   5.309 -2.6758 -0.4459 -1.7577
 1655SOL     OW 6564   4.380   5.038   5.830 -0.3280 -0.0642  0.3436
 1655SOL    HW1 6565   4.289   5.051   5.870  0.4364  1.1550  1.8021
 1655SOL    HW2 6566   4.425   4.961   5.875 -0.4387 -0.3436 -0.0190
 1656SOL     OW 6567   6.347   0.415   4.876 -0.0771  0.3390 -0.3061
 1656SOL    HW1 6568   6.282   0.488   4.900  1.6514  1.9269 -0.2807
 1656SOL    HW2 6569   6.302   0.349   4.816 -1.8565  1.1107  0.1096
 1657SOL     OW 6570   2.769   5.514   1.027 -0.2462  0.2301  0.1025
 1657SOL    HW1 6571   2.821   5.526   0.943 -1.5091  0.4606 -0.6732
 1657SOL    HW2 6572   2.681   5.562   1.020 -0.3007  0.4166  1.6299
 1658SOL     OW 6573   5.385   0.069   2.490  0.1348 -0.3527 -0.5828
 1658SOL    HW1 6574   5.468   0.033   2.447  2.6872  0.1128  3.3517
 1658SOL    HW2 6575   5.390   0.169   2.494  0.3759 -0.3987  1.2507
 1659SOL     OW 6576   2.326   6.515   1.580  0.8287 -0.0730  0.3660
 1659SOL    HW1 6577   2.276   6.565   1.651  2.8834  1.2947  0.9289
 1659SOL    HW2 6578   2.414   6.560   1.562  2.0091 -2.4789 -0.3870
 1660SOL     OW 6579   6.896   3.317   6.395  0.3014 -0.2945  0.0771
 1660SOL    HW1 6580   6.936   3.350   6.481  2.7876 -2.6958 -0.0114
 1660SOL    HW2 6581   6.963   3.327   6.322 -0.8555 -0.5845 -1.0613
 1661SOL     OW 6582   5.680   0.302   0.334  0.2073 -0.1104  0.0148
 1661SOL    HW1 6583   5.759   0.352   0.369 -1.1050  1.2231  1.2050
 1661SOL    HW2 6584   5.611   0.295   0.405 -1.3964  0.1533 -1.4461
 1662SOL     OW 6585   6.100   5.358   1.920 -0.2805  0.1108  0.0908
 1662SOL    HW1 6586   6.091   5.357   1.821 -0.9108 -1.1383  0.1422
 1662SOL    HW2 6587   6.034   5.296   1.961  1.3192 -0.9811  1.1752
 1663SOL     OW 6588   2.266   6.499   6.389  0.2530  0.3823 -0.6735
 1663SOL    HW1 6589   2.258   6.460   6.481 -0.7695 -0.5021 -1.1128
 1663SOL    HW2 6590   2.327   6.577   6.391 -0.2710  0.7858  0.8929
 1664SOL     OW 6591   4.941   6.250   2.579 -0.1312 -0.0663 -0.1333
 1664SOL    HW1 6592   4.987   6.168   2.547 -0.2659 -0.8025  1.4589
 1664SOL    HW2 6593   4.847   6.252   2.545 -0.1560 -0.6264 -0.0966
 1665SOL     OW 6594   6.789   1.567   4.690 -0.2188  0.0025  0.1224
 1665SOL    HW1 6595   6.734   1.574   4.774 -0.4668 -3.0880  0.3408
 1665SOL    HW2 6596   6.861   1.500   4.704  1.3111  1.2609 -1.4088
 1666SOL     OW 6597   1.528   0.919   1.618 -0.5598  0.2695 -0.0673
 1666SOL    HW1 6598   1.516   1.018   1.610  2.0822  0.6299 -0.4947
 1666SOL    HW2 6599   1.519   0.877   1.528 -0.0241  0.3627 -0.1681
 1667SOL     OW 6600   0.831   2.199   0.759 -0.6068 -0.4929  0.3937
 1667SOL    HW1 6601   0.823   2.203   0.858  1.6538  2.2111  0.5976
 1667SOL    HW2 6602   0.921   2.163   0.734 -0.8388 -0.3868 -0.6525
 1668SOL     OW 6603   5.389   1.269   3.422 -0.1416  0.0386 -0.1175
 1668SOL    HW1 6604   5.332   1.344   3.455 -0.2599 -0.8332  1.7563
 1668SOL    HW2 6605   5.346   1.182   3.444  0.5304 -0.6195 -1.2883
 1669SOL     OW 6606   5.974   0.136   0.572  0.2632  0.5474 -0.1069
 1669SOL    HW1 6607   5.971   0.065   0.501  0.8694  0.3479  0.0574
 1669SOL    HW2 6608   6.070   0.159   0.591  0.0680  2.0889 -0.8303
 1670SOL     OW 6609   5.074   1.911   4.446  0.4162  0.1894  0.3953
 1670SOL    HW1 6610   5.099   1.840   4.511  2.1152 -0.0501 -0.4549
 1670SOL    HW2 6611   5.120   1.996   4.470 -2.5834  1.4586  2.1474
 1671SOL     OW 6612   4.152   6.735   1.780 -0.4204  0.7994  0.2808
 1671SOL    HW1 6613   4.235   6.775   1.817  0.7071 -0.3912 -0.8715
 1671SOL    HW2 6614   4.172   6.691   1.692 -1.5395 -2.2992  1.4398
 1672SOL     OW 6615   5.903   0.593   5.129 -0.2471 -0.6139  0.5606
 1672SOL    HW1 6616   5.951   0.518   5.177 -1.0680 -1.6871 -0.2386
 1672SOL    HW2 6617   5.915   0.582   5.031 -0.1529  0.4939  0.4407
 1673SOL     OW 6618   1.328   2.043   4.380  0.5111  0.1566 -0.2200
 1673SOL    HW1 6619   1.256   1.978   4.403 -0.9718  1.1818 -1.6847
 1673SOL    HW2 6620   1.301   2.135   4.411  2.0442  0.2956  0.8162
 1674SOL     OW 6621   4.327   4.755   1.659 -0.3460  0.3072  0.1757
 1674SOL    HW1 6622   4.368   4.814   1.729  2.0703 -1.1475  0.0598
 1674SOL    HW2 6623   4.255   4.700   1.701  0.4396  0.1181  1.3261
 1675SOL     OW 6624   0.824   4.477   6.034 -0.2482  0.1032 -0.5206
 1675SOL    HW1 6625   0.761   4.486   5.957 -2.1053 -0.6983  0.8090
 1675SOL    HW2 6626   0.785   4.522   6.114  1.3720  0.4350  0.1245
 1676SOL     OW 6627   2.215   4.549   0.229 -0.2324  0.4501 -0.2030
 1676SOL    HW1 6628   2.176   4.625   0.281 -0.6710  0.8237 -1.0657
 1676SOL    HW2 6629   2.153   4.471   0.232  0.5657 -0.1825  1.3378
 1677SOL     OW 6630   6.752   3.160   2.885 -0.1570  0.2215 -0.2566
 1677SOL    HW1 6631   6.694   3.124   2.958  1.2650 -0.3222  0.6669
 1677SOL    HW2 6632   6.786   3.084   2.830 -1.1911  0.6294 -1.4922
 1678SOL     OW 6633   3.849   0.560   4.840  0.3580 -0.3111 -0.1957
 1678SOL    HW1 6634   3.849   0.659   4.852  0.2208 -0.2021 -1.0392
 1678SOL    HW2 6635   3.816   0.537   4.748  0.5400 -1.1284 -0.0668
 1679SOL     OW 6636   5.714   4.643   3.422 -0.3515  0.1259  0.4084
 1679SOL    HW1 6637   5.625   4.599   3.424 -0.2963  0.0040  2.0111
 1679SOL    HW2 6638   5.718   4.714   3.493  1.1485 -0.5762  1.0943
 1680SOL     OW 6639   0.608   1.400   1.603  0.6451  0.5549  0.3092
 1680SOL    HW1 6640   0.576   1.436   1.691  1.7042  1.4497  0.3633
 1680SOL    HW2 6641   0.584   1.464   1.530  0.6331  0.3009  0.0876
 1681SOL     OW 6642   6.691   5.237   5.425  0.1315 -0.7956 -0.0859
 1681SOL    HW1 6643   6.606   5.276   5.391  1.7720  1.2540 -2.2195
 1681SOL    HW2 6644   6.721   5.288   5.505 -0.5077 -1.3886  0.5441
 1682SOL     OW 6645   4.945   0.033   3.024  0.3713 -0.0119  0.1663
 1682SOL    HW1 6646   4.955  -0.057   2.981 -0.1886 -0.2458  0.5100
 1682SOL    HW2 6647   4.898   0.095   2.960  1.5089  0.2928 -0.3941
 1683SOL     OW 6648   2.724   1.821   5.227  0.1031  0.0372  0.0021
 1683SOL    HW1 6649   2.683   1.852   5.313 -2.1302 -3.7469  0.5141
 1683SOL    HW2 6650   2.820   1.798   5.243  0.4592  1.8653  0.7435
 1684SOL     OW 6651   1.412   4.122   7.022  0.4946 -0.5360 -0.2132
 1684SOL    HW1 6652   1.409   4.033   6.978  0.4981 -0.5988 -0.0866
 1684SOL    HW2 6653   1.507   4.145   7.044  0.8191  0.6052 -2.4898
 1685SOL     OW 6654   1.720   3.376   2.834  0.0056  0.2183  0.0061
 1685SOL    HW1 6655   1.711   3.390   2.735 -0.9092 -0.9563 -0.1038
 1685SOL    HW2 6656   1.786   3.441   2.871 -1.4939  2.4102 -0.9493
 1686SOL     OW 6657   4.788   2.720   2.376 -0.6358  0.5390  0.0949
 1686SOL    HW1 6658   4.803   2.706   2.278  2.3081 -1.2843  0.6785
 1686SOL    HW2 6659   4.808   2.815   2.400  0.3684  0.5837 -0.8303
 1687SOL     OW 6660   3.649   5.985   3.922 -0.4552  0.5081  0.6313
 1687SOL    HW1 6661   3.629   5.981   3.824 -0.3660  2.0484  0.5336
 1687SOL    HW2 6662   3.564   5.985   3.974 -0.5020 -0.3183  0.5628
 1688SOL     OW 6663   5.484   0.819   1.582 -0.1525  0.1003  0.2276
 1688SOL    HW1 6664   5.425   0.806   1.503  1.6616  0.2086 -1.1987
 1688SOL    HW2 6665   5.546   0.896   1.565  1.5719 -1.0985  0.9331
 1689SOL     OW 6666   3.887   4.071   1.877 -0.3937  0.3327  0.0740
 1689SOL    HW1 6667   3.885   4.118   1.788 -1.9952  0.8925  0.3824
 1689SOL    HW2 6668   3.971   4.096   1.925  1.4907 -1.4801 -2.0179
 1690SOL     OW 6669   0.007   1.917   2.540  0.4826 -0.4827  0.1403
 1690SOL    HW1 6670   0.039   1.982   2.610  0.7925 -0.6277  0.1364
 1690SOL    HW2 6671   0.065   1.836   2.541 -0.9949 -1.5809  1.3908
 1691SOL     OW 6672   1.871   6.521   2.051  0.5980 -0.1190  0.3786
 1691SOL    HW1 6673   1.940   6.589   2.024 -0.1592  0.7833  0.6596
 1691SOL    HW2 6674   1.874   6.509   2.151  1.6012 -1.4812  0.2131
 1692SOL     OW 6675   3.886   5.196   0.838 -0.7015 -0.2209 -0.2051
 1692SOL    HW1 6676   3.945   5.142   0.778  0.0941  0.2780  0.1167
 1692SOL    HW2 6677   3.843   5.269   0.785 -0.3270 -0.0369 -0.2559
 1693SOL     OW 6678   4.786   0.221   1.176 -0.5126 -0.2980  0.9078
 1693SOL    HW1 6679   4.719   0.278   1.224 -0.5862 -0.8368  1.4714
 1693SOL    HW2 6680   4.785   0.129   1.216 -0.0267 -0.5454  0.3638
 1694SOL     OW 6681   5.608   5.242   4.621 -0.2497 -0.1473  0.0504
 1694SOL    HW1 6682   5.676   5.305   4.659 -1.0136  0.6399  0.1309
 1694SOL    HW2 6683   5.563   5.193   4.695  1.0284 -1.5477 -0.0512
 1695SOL     OW 6684   3.155   2.483   0.931 -0.0880 -0.4040  0.4464
 1695SOL    HW1 6685   3.234   2.439   0.975  0.4782 -0.0003 -0.1586
 1695SOL    HW2 6686   3.172   2.492   0.833 -0.0645  1.4182  0.5945
 1696SOL     OW 6687   3.538   0.263   6.120  0.5952  0.0429 -0.0584
 1696SOL    HW1 6688   3.439   0.279   6.119  0.7146  0.8378  0.0925
 1696SOL    HW2 6689   3.579   0.308   6.041  0.7479 -0.9650 -0.5685
 1697SOL     OW 6690   6.041   3.758   5.986 -0.1860  0.2290 -0.3043
 1697SOL    HW1 6691   5.992   3.769   5.899  0.6329 -0.0920 -0.8195
 1697SOL    HW2 6692   6.010   3.675   6.031 -0.0321 -0.0420 -0.6920
 1698SOL     OW 6693   0.227   4.975   6.928 -0.2140 -0.3035  0.7048
 1698SOL    HW1 6694   0.237   4.880   6.899 -3.9154 -0.5673 -0.2912
 1698SOL    HW2 6695   0.239   5.035   6.849 -1.7586 -0.3243  0.4217
 1699SOL     OW 6696   6.341   2.112   3.324 -0.4587  0.3583 -0.2741
 1699SOL    HW1 6697   6.324   2.205   3.355 -0.6423 -0.1305  1.2163
 1699SOL    HW2 6698   6.358   2.054   3.404 -1.0890 -1.0297 -1.1117
 1700SOL     OW 6699   6.564   5.479   1.423  0.3152  0.7331 -0.5756
 1700SOL    HW1 6700   6.521   5.565   1.453  0.2162 -0.0406  1.6940
 1700SOL    HW2 6701   6.604   5.433   1.502 -0.1466 -1.6219 -1.6401
 1701SOL     OW 6702   3.733   0.910   1.622  0.1817 -0.3655 -0.0105
 1701SOL    HW1 6703   3.680   0.832   1.654 -4.3471  2.1903 -0.4029
 1701SOL    HW2 6704   3.767   0.892   1.530 -1.3976 -1.6601 -0.3874
 1702SOL     OW 6705   3.373   1.638   5.956  0.3056  0.3892 -0.8675
 1702SOL    HW1 6706   3.353   1.581   5.877 -1.5202 -0.2342 -0.0034
 1702SOL    HW2 6707   3.297   1.700   5.973 -0.3122 -0.8918  1.5456
 1703SOL     OW 6708   6.336   6.827   2.297 -0.6597 -0.2410 -0.1234
 1703SOL    HW1 6709   6.339   6.838   2.396 -0.5409 -0.6050 -0.0845
 1703SOL    HW2 6710   6.427   6.801   2.264 -0.8373 -0.7083 -0.2544
 1704SOL     OW 6711   1.157   1.957   0.277 -0.6624 -0.4625 -0.5348
 1704SOL    HW1 6712   1.221   1.893   0.320 -0.6591 -1.2361 -1.6853
 1704SOL    HW2 6713   1.099   1.909   0.212  2.1558  1.1766 -4.7358
 1705SOL     OW 6714   2.160   0.674   6.019 -0.4647 -0.1056 -0.1743
 1705SOL    HW1 6715   2.212   0.739   6.075 -0.1977 -0.8628  0.4641
 1705SOL    HW2 6716   2.129   0.720   5.936  0.5845  0.5735 -0.2118
 1706SOL     OW 6717   5.493   2.186   5.838  0.2663  0.3398  0.0629
 1706SOL    HW1 6718   5.553   2.257   5.801  0.5563 -0.0845 -0.2950
 1706SOL    HW2 6719   5.488   2.195   5.937  0.8591  0.4373  0.0886
 1707SOL     OW 6720   6.450   4.367   5.878  0.0725 -0.7333  0.1765
 1707SOL    HW1 6721   6.358   4.369   5.916 -0.0297  0.7435 -0.0906
 1707SOL    HW2 6722   6.506   4.303   5.930 -0.8873 -1.0487  0.8453
 1708SOL     OW 6723   5.330   6.650   5.113  0.2897  0.7725  0.2662
 1708SOL    HW1 6724   5.331   6.556   5.081  0.6045  0.8316  0.0980
 1708SOL    HW2 6725   5.368   6.654   5.205 -2.9170  0.2287  1.7572
 1709SOL     OW 6726   3.787   2.283   5.910  0.1076 -0.4832 -0.0196
 1709SOL    HW1 6727   3.849   2.348   5.868 -0.3285  0.0967  0.2244
 1709SOL    HW2 6728   3.829   2.192   5.910  0.6957 -0.2165 -0.4055
 1710SOL     OW 6729   5.022   0.730   5.090 -0.2718  0.4358  0.2839
 1710SOL    HW1 6730   4.991   0.716   4.996 -0.7227  0.1946  0.4653
 1710SOL    HW2 6731   5.049   0.825   5.102 -1.6308  0.8476  0.3030
 1711SOL     OW 6732   5.367   3.631   5.626 -0.1460  0.5254 -0.2400
 1711SOL    HW1 6733   5.344   3.546   5.672 -2.0702  0.5028 -1.1127
 1711SOL    HW2 6734   5.335   3.709   5.680  1.2354  0.6921  0.3588
 1712SOL     OW 6735   6.727   0.812   3.606 -0.0406  0.2178  0.2264
 1712SOL    HW1 6736   6.780   0.873   3.665  0.4316 -0.3873  0.4278
 1712SOL    HW2 6737   6.633   0.805   3.640  0.2093 -0.0696  0.8596
 1713SOL     OW 6738   2.316   1.367   5.782 -0.3404 -0.2479 -0.7155
 1713SOL    HW1 6739   2.384   1.432   5.817  0.1101 -1.3409  0.5288
 1713SOL    HW2 6740   2.253   1.415   5.721  0.2502  1.2499 -0.2094
 1714SOL     OW 6741   1.783   6.275   5.766  0.1099 -0.7179 -0.3122
 1714SOL    HW1 6742   1.774   6.180   5.739 -0.6187 -0.1932 -2.0602
 1714SOL    HW2 6743   1.868   6.287   5.818 -0.0404 -2.3876  0.3750
 1715SOL     OW 6744   2.225   2.694   1.873 -0.2337 -0.3327  0.3700
 1715SOL    HW1 6745   2.195   2.650   1.957  1.1762  0.1037  1.1359
 1715SOL    HW2 6746   2.298   2.759   1.893  0.5967 -0.6921 -1.2624
 1716SOL     OW 6747   1.896   5.335   1.813 -0.3030  0.1715  0.5834
 1716SOL    HW1 6748   1.904   5.236   1.805 -0.7909  0.1041  0.9175
 1716SOL    HW2 6749   1.963   5.378   1.752 -1.4253 -0.3311 -1.0777
 1717SOL     OW 6750   3.327   5.992   0.631  0.6362 -0.0264 -0.1121
 1717SOL    HW1 6751   3.363   6.033   0.548 -0.8855  0.0588 -0.7650
 1717SOL    HW2 6752   3.343   5.893   0.630  0.9758  0.0307 -0.3111
 1718SOL     OW 6753   5.024   0.478   3.758  0.1710  0.9522  0.0655
 1718SOL    HW1 6754   5.021   0.470   3.658  0.6811 -1.5192  0.1730
 1718SOL    HW2 6755   4.939   0.442   3.797  1.5730 -2.1070  0.5862
 1719SOL     OW 6756   0.149   2.118   2.678  0.6021 -0.3171 -0.2797
 1719SOL    HW1 6757   0.091   2.198   2.694  0.5760 -0.4210  0.1517
 1719SOL    HW2 6758   0.229   2.146   2.625  1.1887  0.2465  0.8604
 1720SOL     OW 6759   1.788   4.809   0.988  0.1436 -0.3022 -0.2648
 1720SOL    HW1 6760   1.770   4.800   0.890  2.7101 -1.7793 -0.6863
 1720SOL    HW2 6761   1.792   4.718   1.030  1.3720  0.1848  0.7233
 1721SOL     OW 6762   1.605   1.960   4.285 -0.4728  0.4999 -0.3705
 1721SOL    HW1 6763   1.640   1.924   4.199  1.2630  3.3234 -0.9908
 1721SOL    HW2 6764   1.517   2.006   4.268 -1.8032 -1.7393  0.0895
 1722SOL     OW 6765   1.419   3.951   5.605 -0.4816 -0.4079  0.2952
 1722SOL    HW1 6766   1.352   3.910   5.667 -0.9455 -1.6930 -0.9902
 1722SOL    HW2 6767   1.511   3.925   5.635 -0.6402 -0.2273  0.9684
 1723SOL     OW 6768   3.674   3.456   1.164  0.2925 -0.6171 -0.1447
 1723SOL    HW1 6769   3.574   3.453   1.163  0.2480  0.4358 -1.5487
 1723SOL    HW2 6770   3.709   3.367   1.192 -1.0308 -1.1105  0.0438
 1724SOL     OW 6771   0.308   5.397   5.861 -0.3818 -0.7204 -0.1359
 1724SOL    HW1 6772   0.276   5.489   5.884  1.4114 -0.5170  1.7571
 1724SOL    HW2 6773   0.386   5.403   5.799 -1.4154 -1.0923 -1.5463
 1725SOL     OW 6774   2.302   6.910   4.006  0.8182 -0.0495  0.1054
 1725SOL    HW1 6775   2.203   6.916   4.012  0.7380  1.4300 -1.8620
 1725SOL    HW2 6776   2.343   6.996   4.036  1.4909 -0.4238  0.2906
 1726SOL     OW 6777   4.081   2.790   5.266  1.0116 -0.0023  0.0979
 1726SOL    HW1 6778   4.041   2.872   5.308  0.4594 -0.4399  0.4355
 1726SOL    HW2 6779   4.013   2.748   5.205  1.1833 -0.3835  0.1669
 1727SOL     OW 6780   1.585   3.554   1.545 -0.5174  0.3170 -0.3465
 1727SOL    HW1 6781   1.593   3.481   1.477  1.1544 -1.0346  1.2123
 1727SOL    HW2 6782   1.676   3.592   1.564 -1.1838  1.8325 -0.0826
 1728SOL     OW 6783   0.915   0.017   1.553 -0.4759  0.9512 -0.1013
 1728SOL    HW1 6784   0.944  -0.078   1.565 -1.2985  0.8752  1.6602
 1728SOL    HW2 6785   0.995   0.075   1.542  0.0044 -0.0733 -2.8091
 1729SOL     OW 6786   6.876   3.460   0.140  0.7724  0.2344 -0.2573
 1729SOL    HW1 6787   6.917   3.496   0.057 -1.0957 -0.6103 -1.6131
 1729SOL    HW2 6788   6.916   3.507   0.220  3.5051  0.1821 -1.4839
 1730SOL     OW 6789   3.248   4.475   5.952  0.5175  0.1333  0.4348
 1730SOL    HW1 6790   3.179   4.488   5.880  2.0634  3.4959 -0.6609
 1730SOL    HW2 6791   3.254   4.378   5.975 -1.7950 -0.7842 -2.1961
 1731SOL     OW 6792   0.918   0.207   4.643 -0.2379 -0.6315 -0.5141
 1731SOL    HW1 6793   0.846   0.255   4.692  0.3092 -0.0406 -0.2738
 1731SOL    HW2 6794   0.938   0.120   4.690  0.1922 -0.1344  0.2539
 1732SOL     OW 6795   6.247   0.394   2.089  0.3484 -0.3687  0.1111
 1732SOL    HW1 6796   6.207   0.485   2.102 -0.6449 -0.9525  1.4718
 1732SOL    HW2 6797   6.181   0.335   2.042  2.3749  0.5546 -4.3557
 1733SOL     OW 6798   6.069   0.944   0.478  0.1943 -0.3226 -0.2231
 1733SOL    HW1 6799   6.035   0.917   0.388  2.1669  0.6044 -1.3109
 1733SOL    HW2 6800   6.016   0.897   0.549 -0.1806 -2.6029 -1.8780
 1734SOL     OW 6801   3.167   0.282   3.385  0.0496  0.1207 -0.0831
 1734SOL    HW1 6802   3.229   0.256   3.459 -2.6041  0.4413  2.4770
 1734SOL    HW2 6803   3.127   0.372   3.405 -2.2460 -0.6606 -0.7997
 1735SOL     OW 6804   3.970   4.044   1.387 -0.8182 -0.4295 -0.2089
 1735SOL    HW1 6805   4.048   4.088   1.344 -0.5730 -0.7471 -0.0893
 1735SOL    HW2 6806   3.968   3.947   1.363 -0.7621 -0.5781  0.3659
 1736SOL     OW 6807   1.436   4.372   6.228  0.0498  0.0948 -0.1004
 1736SOL    HW1 6808   1.449   4.456   6.280 -0.1547  0.7200 -1.0380
 1736SOL    HW2 6809   1.492   4.374   6.146  0.0584 -0.7018 -0.1260
 1737SOL     OW 6810   6.824   3.711   6.830  0.0586  0.4554 -0.3414
 1737SOL    HW1 6811   6.876   3.642   6.779 -0.3434  0.4286 -0.7189
 1737SOL    HW2 6812   6.870   3.729   6.918 -0.8397 -1.6897  0.6227
 1738SOL     OW 6813   1.139   1.226   7.005 -0.7226 -0.1222 -0.0070
 1738SOL    HW1 6814   1.047   1.191   7.025 -0.7137  0.3435  0.8850
 1738SOL    HW2 6815   1.195   1.223   7.088  0.5636 -1.8273 -0.8680
 1739SOL     OW 6816   2.885   6.291   2.974  0.7068  0.2385 -0.2299
 1739SOL    HW1 6817   2.855   6.386   2.962 -0.2842 -0.3650 -4.1957
 1739SOL    HW2 6818   2.982   6.284   2.951  1.4715  0.5995  2.6047
 1740SOL     OW 6819   2.694   3.359   6.822 -0.3223 -0.1646  0.1019
 1740SOL    HW1 6820   2.741   3.440   6.856  0.2210 -0.5308  0.2313
 1740SOL    HW2 6821   2.718   3.280   6.878  0.3015 -0.7110 -0.9040
 1741SOL     OW 6822   2.008   0.403   0.878  0.7277 -0.1751  0.1271
 1741SOL    HW1 6823   2.049   0.339   0.943 -0.1317 -0.1202  0.7389
 1741SOL    HW2 6824   1.926   0.362   0.837  0.1162  0.5462  0.5913
 1742SOL     OW 6825   1.552   1.850   0.999  0.3975 -0.5906  0.1360
 1742SOL    HW1 6826   1.593   1.930   1.043  1.3767 -1.6011  1.1443
 1742SOL    HW2 6827   1.622   1.778   0.989 -0.6847 -1.6846  0.1721
 1743SOL     OW 6828   2.365   6.866   1.831  0.1148  0.0752 -0.5086
 1743SOL    HW1 6829   2.314   6.881   1.747 -0.6598  1.6271  0.1964
 1743SOL    HW2 6830   2.431   6.941   1.844 -0.0655  0.0835  0.4643
 1744SOL     OW 6831   0.043   1.462   5.476 -0.6250 -0.2018  0.5257
 1744SOL    HW1 6832   0.123   1.454   5.417 -0.2505  0.5275  0.9228
 1744SOL    HW2 6833  -0.015   1.538   5.445 -0.5355  0.0501  0.9618
 1745SOL     OW 6834   0.904   4.679   7.004 -0.0100  0.2624  0.0418
 1745SOL    HW1 6835   0.993   4.676   6.958 -0.8650 -1.0120 -1.6325
 1745SOL    HW2 6836   0.894   4.767   7.049  1.4018  1.1041 -1.1785
 1746SOL     OW 6837   5.114   3.708   1.996  0.0052 -0.5231  0.1848
 1746SOL    HW1 6838   5.171   3.657   2.060  0.5502  0.4249  0.4812
 1746SOL    HW2 6839   5.091   3.650   1.918  1.2523 -0.9686  0.1339
 1747SOL     OW 6840   2.313   2.943   3.520  0.0752  0.0165 -0.5661
 1747SOL    HW1 6841   2.271   3.005   3.454 -0.7718  0.3479  0.2641
 1747SOL    HW2 6842   2.411   2.963   3.527 -0.4657  2.5097  0.9916
 1748SOL     OW 6843   7.025   1.966   1.222  0.2044 -0.2528 -0.1857
 1748SOL    HW1 6844   6.962   1.983   1.146 -1.4824 -0.8026  1.0256
 1748SOL    HW2 6845   7.010   2.034   1.294  1.6130  0.1190 -0.2049
 1749SOL     OW 6846   3.963   5.413   1.403  0.5585 -0.4790  0.3281
 1749SOL    HW1 6847   3.874   5.456   1.390  0.8696  0.4563  1.2385
 1749SOL    HW2 6848   3.996   5.429   1.496  2.2986  0.3659 -0.3821
 1750SOL     OW 6849   0.355   6.857   0.266 -0.3589  0.6292  0.4840
 1750SOL    HW1 6850   0.397   6.773   0.302  0.9076  0.9707 -0.1778
 1750SOL    HW2 6851   0.258   6.859   0.293 -0.3074 -0.8369  0.8619
 1751SOL     OW 6852   0.524   1.393   2.568 -0.0996  0.6262 -0.3480
 1751SOL    HW1 6853   0.567   1.483   2.580 -0.7523  0.9715 -0.5782
 1751SOL    HW2 6854   0.511   1.376   2.470  0.2090  0.1872 -0.3147
 1752SOL     OW 6855   4.456   5.982   0.397 -0.2412  0.1072  0.0648
 1752SOL    HW1 6856   4.414   6.044   0.464 -1.0870  0.3061 -0.6280
 1752SOL    HW2 6857   4.544   6.020   0.367  0.0374  0.1217  0.8994
 1753SOL     OW 6858   2.436   5.999   2.575 -0.2383 -0.5915  0.0500
 1753SOL    HW1 6859   2.483   5.983   2.488  0.7907  0.7322  0.3265
 1753SOL    HW2 6860   2.475   5.939   2.645  0.3635 -0.2242  0.0417
 1754SOL     OW 6861   6.933   2.072   1.461 -0.1169 -0.2205 -0.3490
 1754SOL    HW1 6862   6.990   2.120   1.528 -1.0883 -0.8336  0.9684
 1754SOL    HW2 6863   6.862   2.134   1.428  0.4354  0.1194 -0.9046
 1755SOL     OW 6864   1.241   1.094   6.786  0.8826 -0.4694  0.2489
 1755SOL    HW1 6865   1.171   1.023   6.778  0.0223  0.3486  0.3704
 1755SOL    HW2 6866   1.231   1.141   6.874  2.1358 -0.9062  0.6439
 1756SOL     OW 6867   6.974   1.606   3.388 -0.0303 -0.7292  0.0603
 1756SOL    HW1 6868   6.952   1.697   3.423  0.6718  0.0492 -1.4267
 1756SOL    HW2 6869   7.029   1.557   3.456 -1.4922 -0.5751  1.4278
 1757SOL     OW 6870   5.122   1.575   1.173 -0.3682  0.3338  0.4918
 1757SOL    HW1 6871   5.099   1.646   1.239 -0.6237  0.2960  0.4451
 1757SOL    HW2 6872   5.200   1.604   1.117 -0.9350  0.8876 -0.0183
 1758SOL     OW 6873   2.949   5.582   6.307 -0.4037 -0.5320  0.1194
 1758SOL    HW1 6874   2.999   5.584   6.220 -0.2051 -0.0516  0.2403
 1758SOL    HW2 6875   2.958   5.491   6.348 -0.4038 -0.7296 -0.3043
 1759SOL     OW 6876   2.535   3.008   1.268  0.1610  0.1316 -0.0585
 1759SOL    HW1 6877   2.468   3.060   1.321  0.0283 -0.1716  0.0773
 1759SOL    HW2 6878   2.601   3.070   1.227 -0.7833  0.5220 -1.0374
 1760SOL     OW 6879   0.093   4.997   1.092 -0.2896 -0.5322 -0.1371
 1760SOL    HW1 6880   0.128   4.903   1.098 -4.1303 -2.1044  0.3800
 1760SOL    HW2 6881   0.100   5.028   0.997 -1.5922 -2.5340 -0.9546
 1761SOL     OW 6882   4.511   2.189   6.474 -0.6663 -0.1622 -0.1075
 1761SOL    HW1 6883   4.456   2.107   6.493 -0.9531 -0.9745 -3.6985
 1761SOL    HW2 6884   4.453   2.270   6.481 -1.3265 -0.6266 -0.0673
 1762SOL     OW 6885   3.861   5.818   1.541 -0.4824 -0.2164  0.2411
 1762SOL    HW1 6886   3.771   5.823   1.585 -1.4515 -3.5530 -1.0211
 1762SOL    HW2 6887   3.911   5.739   1.576  1.2207  0.5164 -0.4084
 1763SOL     OW 6888   3.260   2.371   6.560  0.2114 -0.8475  0.3596
 1763SOL    HW1 6889   3.209   2.349   6.477 -2.8470  0.1813  1.8037
 1763SOL    HW2 6890   3.296   2.287   6.600  0.9666 -1.4498 -1.4867
 1764SOL     OW 6891   0.204   5.020   0.472  0.4929  0.4075 -0.1260
 1764SOL    HW1 6892   0.156   5.002   0.386  0.1269 -1.8424  0.4653
 1764SOL    HW2 6893   0.297   4.983   0.467 -0.1729 -1.6025  1.0490
 1765SOL     OW 6894   4.865   1.506   1.810  0.0735 -0.5117 -0.3831
 1765SOL    HW1 6895   4.884   1.552   1.724 -0.7603 -2.2677 -1.5795
 1765SOL    HW2 6896   4.951   1.479   1.853  0.5822 -2.6875 -2.4922
 1766SOL     OW 6897   5.351   1.823   3.186 -0.1859  0.4538 -0.6453
 1766SOL    HW1 6898   5.405   1.804   3.104  1.4085  2.6433 -0.1895
 1766SOL    HW2 6899   5.261   1.780   3.178  1.5334 -3.4681 -1.4083
 1767SOL     OW 6900   0.613   5.777   4.308 -0.0050  0.0148 -0.3189
 1767SOL    HW1 6901   0.571   5.726   4.233 -0.6451 -1.9265  1.2543
 1767SOL    HW2 6902   0.648   5.713   4.376 -1.9013  1.5876  2.3575
 1768SOL     OW 6903   5.426   3.639   3.674 -0.1384  0.6025 -0.0183
 1768SOL    HW1 6904   5.483   3.586   3.610  0.3229  1.2040 -0.1115
 1768SOL    HW2 6905   5.419   3.590   3.761  0.9748  0.7801  0.1782
 1769SOL     OW 6906   6.440   5.723   1.487  0.7674  0.5995 -0.0288
 1769SOL    HW1 6907   6.449   5.760   1.395 -0.6379  0.4361 -0.2574
 1769SOL    HW2 6908   6.489   5.780   1.552  0.3866  1.6621 -0.6600
 1770SOL     OW 6909   6.870   1.296   1.819  0.0099  0.3303  0.1702
 1770SOL    HW1 6910   6.904   1.346   1.899 -0.0569 -1.5565  1.4626
 1770SOL    HW2 6911   6.876   1.198   1.837 -2.2354 -0.1249 -1.2285
 1771SOL     OW 6912   0.924   4.290   4.936 -0.0738 -0.6033 -0.0695
 1771SOL    HW1 6913   0.949   4.246   5.022 -0.4968 -2.4796 -0.8477
 1771SOL    HW2 6914   0.838   4.339   4.948  0.8335  0.7958  1.0456
 1772SOL     OW 6915   2.207   4.513   5.366 -0.2210 -0.2834 -0.5394
 1772SOL    HW1 6916   2.275   4.460   5.416  0.4912  1.0025 -0.0877
 1772SOL    HW2 6917   2.140   4.452   5.324  1.2102 -1.5974 -0.9892
 1773SOL     OW 6918   4.628   3.437   2.014 -0.0039 -0.3358  0.4816
 1773SOL    HW1 6919   4.692   3.360   2.020  0.9048  0.3413 -0.1548
 1773SOL    HW2 6920   4.670   3.519   2.053  0.2580  0.5423 -1.4929
 1774SOL     OW 6921   1.722   0.472   3.430 -0.3570  0.1074  0.1180
 1774SOL    HW1 6922   1.665   0.421   3.367 -0.3794  0.9279 -0.5460
 1774SOL    HW2 6923   1.819   0.453   3.411 -0.3853 -0.9894  0.9951
 1775SOL     OW 6924   2.787   3.863   4.008  0.0725  0.0515 -0.5919
 1775SOL    HW1 6925   2.745   3.778   3.977  0.3780 -0.3674  0.1180
 1775SOL    HW2 6926   2.773   3.934   3.939  0.0915 -0.6541 -1.3365
 1776SOL     OW 6927   0.378   3.538   3.754 -0.2539  0.0720 -0.1136
 1776SOL    HW1 6928   0.405   3.633   3.771 -1.4988  0.4270 -0.0147
 1776SOL    HW2 6929   0.342   3.498   3.838 -1.0609 -0.0234 -0.4943
 1777SOL     OW 6930   6.936   1.201   2.788 -0.5259  0.0240 -0.5354
 1777SOL    HW1 6931   6.957   1.286   2.739  2.1431 -1.5091 -2.2460
 1777SOL    HW2 6932   6.892   1.137   2.726 -0.5349 -0.6152  0.1247
 1778SOL     OW 6933   0.726   2.255   1.816 -0.8534  0.4113  0.1270
 1778SOL    HW1 6934   0.639   2.305   1.825 -0.0953  1.3713  3.2423
 1778SOL    HW2 6935   0.711   2.158   1.838 -1.2566  0.4228 -0.0812
 1779SOL     OW 6936   0.298   2.993   6.953 -0.6675  0.0342 -0.3523
 1779SOL    HW1 6937   0.322   2.916   6.893 -1.0601 -1.3149  1.1379
 1779SOL    HW2 6938   0.320   3.079   6.908  1.0484 -0.9746 -1.5506
 1780SOL     OW 6939   3.359   3.151   1.142 -0.0805 -0.0684 -0.4005
 1780SOL    HW1 6940   3.268   3.118   1.120  0.2883 -0.6578 -1.0538
 1780SOL    HW2 6941   3.419   3.142   1.063  0.0018  2.3338 -0.6829
 1781SOL     OW 6942   0.955   2.079   5.083  0.4242  0.3462 -0.4871
 1781SOL    HW1 6943   0.892   2.004   5.104 -0.7288  1.3034 -0.3951
 1781SOL    HW2 6944   0.938   2.156   5.145  0.9228  1.0442 -1.1903
 1782SOL     OW 6945   2.942   2.796   0.360 -0.2691  0.4280 -0.1162
 1782SOL    HW1 6946   2.865   2.759   0.308  0.3238  0.1648 -0.8380
 1782SOL    HW2 6947   2.989   2.722   0.408 -0.6734  0.6386  0.6206
 1783SOL     OW 6948   3.162   0.557   0.267  0.4724  0.4531  0.0414
 1783SOL    HW1 6949   3.227   0.481   0.277  1.2144  1.0599 -0.0840
 1783SOL    HW2 6950   3.175   0.601   0.179 -0.4057  0.3322 -0.1617
 1784SOL     OW 6951   1.924   5.997   3.886  0.0955  0.0035  1.1509
 1784SOL    HW1 6952   2.007   5.964   3.931  1.4174 -0.4166 -1.3830
 1784SOL    HW2 6953   1.947   6.069   3.821 -1.0081 -1.8461 -1.4956
 1785SOL     OW 6954   4.659   2.506   5.017  0.2390 -0.4986  0.3623
 1785SOL    HW1 6955   4.584   2.548   5.068  1.7072  0.6323  1.7082
 1785SOL    HW2 6956   4.746   2.528   5.062  1.4511 -1.1648 -1.5316
 1786SOL     OW 6957   1.356   2.198   0.234  0.1111 -0.0494 -0.0733
 1786SOL    HW1 6958   1.321   2.217   0.142  1.2099  0.1895 -0.4588
 1786SOL    HW2 6959   1.319   2.111   0.267 -0.5689  0.0364 -0.5882
 1787SOL     OW 6960   0.442   4.316   2.218  0.1739  0.5522 -0.2907
 1787SOL    HW1 6961   0.446   4.404   2.265 -0.7868  1.1223 -1.2262
 1787SOL    HW2 6962   0.505   4.316   2.140 -1.3742  1.2465 -1.5932
 1788SOL     OW 6963   6.360   0.012   6.934 -1.1666  0.2284  0.4490
 1788SOL    HW1 6964   6.309  -0.068   6.903  0.6973 -0.5928 -0.6392
 1788SOL    HW2 6965   6.368   0.078   6.859 -0.1261  0.0585  0.3894
 1789SOL     OW 6966   4.141   5.322   4.929 -0.4281  0.2342  0.1180
 1789SOL    HW1 6967   4.140   5.373   4.843  3.2891 -0.8851 -0.7757
 1789SOL    HW2 6968   4.104   5.379   5.003 -3.9331  1.1562 -2.1029
 1790SOL     OW 6969   2.834   2.094   3.049  0.4559  0.2246  0.1188
 1790SOL    HW1 6970   2.864   2.147   3.128  1.4322  0.2479 -0.2577
 1790SOL    HW2 6971   2.836   2.151   2.967 -3.0906  1.0230  0.4134
 1791SOL     OW 6972   5.076   0.739   2.075  0.1307 -0.4728 -0.0112
 1791SOL    HW1 6973   5.084   0.767   1.980  1.0158  2.4377  0.8144
 1791SOL    HW2 6974   5.045   0.817   2.130 -0.5972 -2.1344  2.0712
 1792SOL     OW 6975   2.467   3.021   6.645  0.7237  0.4606 -0.0479
 1792SOL    HW1 6976   2.455   2.932   6.601  1.5052 -0.2328  1.0985
 1792SOL    HW2 6977   2.440   3.094   6.581  2.6836 -0.4385 -2.0139
 1793SOL     OW 6978   6.608   1.128   0.436 -0.0486 -0.0436 -0.2706
 1793SOL    HW1 6979   6.645   1.127   0.529  2.1256  0.0537 -1.0657
 1793SOL    HW2 6980   6.597   1.034   0.404 -0.0654 -0.0744 -0.1740
 1794SOL     OW 6981   6.813   4.290   5.499 -0.5593 -0.8204 -0.2469
 1794SOL    HW1 6982   6.742   4.346   5.456  0.2554  1.4584  1.1924
 1794SOL    HW2 6983   6.783   4.261   5.590  0.6805  1.1119  0.8453
 1795SOL     OW 6984   0.180   5.273   5.535  0.0758 -0.2488  0.4411
 1795SOL    HW1 6985   0.194   5.186   5.583 -2.7967 -1.5734 -0.8343
 1795SOL    HW2 6986   0.242   5.278   5.457  1.2601 -0.4524  1.3449
 1796SOL     OW 6987   6.793   1.357   3.029  0.0922 -0.3272 -0.0176
 1796SOL    HW1 6988   6.766   1.409   2.949  0.9208 -1.4769 -1.0740
 1796SOL    HW2 6989   6.764   1.405   3.112  0.1528  1.3979 -0.9694
 1797SOL     OW 6990   4.242   0.406   0.122 -0.2559 -0.2092 -0.2426
 1797SOL    HW1 6991   4.198   0.438   0.038  0.6265 -0.8423 -0.9699
 1797SOL    HW2 6992   4.209   0.314   0.143 -1.2371  0.3336  0.6916
 1798SOL     OW 6993   6.623   2.298   0.793  0.6614  0.0268  0.4972
 1798SOL    HW1 6994   6.563   2.375   0.817  2.0905  1.3579 -0.0071
 1798SOL    HW2 6995   6.567   2.220   0.763 -0.8731  2.1863 -3.0042
 1799SOL     OW 6996   6.091   4.736   0.963  0.0768  0.4447  0.6218
 1799SOL    HW1 6997   6.129   4.796   0.892  0.9718  0.0071  0.7049
 1799SOL    HW2 6998   6.152   4.736   1.043 -0.6172  0.4785  1.1654
 1800SOL     OW 6999   2.853   3.953   5.510  0.0203  0.2919  0.7361
 1800SOL    HW1 7000   2.817   3.930   5.601 -0.3489  2.8447  1.3186
 1800SOL    HW2 7001   2.945   3.992   5.520  1.6055 -2.8658 -0.4159
 1801SOL     OW 7002   1.785   3.218   5.996 -0.3003 -0.3325  0.4964
 1801SOL    HW1 7003   1.861   3.154   5.985 -0.4465 -1.2215  3.5587
 1801SOL    HW2 7004   1.715   3.200   5.928  1.2747 -0.9312 -1.0327
 1802SOL     OW 7005   0.418   2.287   4.354 -0.0344 -0.2594  0.3234
 1802SOL    HW1 7006   0.472   2.324   4.279 -0.9794  1.4296  0.4219
 1802SOL    HW2 7007   0.454   2.198   4.380  2.4101  0.5990  0.1110
 1803SOL     OW 7008   2.489   5.801   1.256 -0.7688  0.2260  0.1257
 1803SOL    HW1 7009   2.420   5.874   1.260 -0.0675  0.9541 -0.5213
 1803SOL    HW2 7010   2.569   5.829   1.308 -0.9055 -0.5576  0.7614
 1804SOL     OW 7011   3.031   0.042   6.933 -0.2031 -0.1036 -0.2621
 1804SOL    HW1 7012   3.117  -0.007   6.915  0.4289  1.4996 -1.8451
 1804SOL    HW2 7013   2.954  -0.015   6.904  0.4312 -0.7699 -0.6742
 1805SOL     OW 7014   5.098   0.367   6.209 -0.1035 -0.1839  0.1313
 1805SOL    HW1 7015   5.168   0.400   6.272  1.3243 -2.9579  0.1466
 1805SOL    HW2 7016   5.007   0.391   6.244  0.7338  0.6122  1.8571
 1806SOL     OW 7017   3.477   0.516   2.706 -0.1691 -0.0008 -0.2477
 1806SOL    HW1 7018   3.463   0.510   2.805  0.5325  2.1885  0.0507
 1806SOL    HW2 7019   3.536   0.595   2.686  0.7593 -1.1550 -2.3321
 1807SOL     OW 7020   1.417   6.314   5.680  0.0540  0.4138  0.3352
 1807SOL    HW1 7021   1.439   6.406   5.646 -2.1023  0.8208 -0.0824
 1807SOL    HW2 7022   1.330   6.317   5.730 -0.0360 -1.4095  0.3437
 1808SOL     OW 7023   1.631   3.626   4.553  0.2154  0.2004 -0.3682
 1808SOL    HW1 7024   1.612   3.545   4.608 -1.3066  0.9575  0.2707
 1808SOL    HW2 7025   1.701   3.604   4.484  0.3607 -1.4288  0.2590
 1809SOL     OW 7026   5.781   4.624   3.987  0.1612  0.0556  0.1693
 1809SOL    HW1 7027   5.856   4.639   4.051  0.1445 -0.4701  0.3143
 1809SOL    HW2 7028   5.811   4.562   3.914 -0.0551  0.0475  0.0865
 1810SOL     OW 7029   0.599   2.854   1.562  0.1984  0.6705 -0.1684
 1810SOL    HW1 7030   0.678   2.911   1.541 -0.2926  1.7750  0.8557
 1810SOL    HW2 7031   0.620   2.758   1.543  2.3278  0.7336  1.5848
 1811SOL     OW 7032   2.828   1.318   4.998 -0.5278  0.1078 -0.0341
 1811SOL    HW1 7033   2.801   1.292   4.905 -0.1889  0.8703 -0.3608
 1811SOL    HW2 7034   2.833   1.418   5.003 -2.5333  0.2028  1.3627
 1812SOL     OW 7035   6.560   5.622   3.842  0.3940  0.2321  0.0999
 1812SOL    HW1 7036   6.535   5.694   3.779  2.7304 -0.1995 -1.4679
 1812SOL    HW2 7037   6.569   5.535   3.793 -0.8767 -0.8383  1.6563
 1813SOL     OW 7038   1.351   2.189   3.006  0.3823  0.1106  0.6721
 1813SOL    HW1 7039   1.352   2.224   3.100 -0.6396 -1.7849  1.4600
 1813SOL    HW2 7040   1.259   2.155   2.984  0.3165  1.4981 -1.4437
 1814SOL     OW 7041   7.020   6.372   0.104  0.2958 -0.1170 -0.1891
 1814SOL    HW1 7042   6.938   6.361   0.047  0.7247 -1.2720 -0.6234
 1814SOL    HW2 7043   7.046   6.468   0.107 -2.2436  0.6352  1.6518
 1815SOL     OW 7044   4.461   3.885   0.040  0.4229 -0.4910  0.5372
 1815SOL    HW1 7045   4.368   3.882   0.002  0.9916 -1.3452 -0.8635
 1815SOL    HW2 7046   4.525   3.915  -0.031  1.3834 -1.0009  1.1692
 1816SOL     OW 7047   6.686   3.887   2.150  0.5400 -0.2101  0.1841
 1816SOL    HW1 7048   6.686   3.911   2.053  1.9329 -2.2455 -0.3857
 1816SOL    HW2 7049   6.718   3.964   2.204 -0.5686  1.0674 -0.9032
 1817SOL     OW 7050   3.232   0.870   0.219 -0.8806 -0.0177 -0.1958
 1817SOL    HW1 7051   3.183   0.941   0.167 -1.6091 -1.1855 -1.1492
 1817SOL    HW2 7052   3.166   0.821   0.277 -0.4526 -0.2100  0.1287
 1818SOL     OW 7053   2.741   0.848   4.983  0.4980  0.0575  0.3306
 1818SOL    HW1 7054   2.738   0.868   5.081  2.0082  1.1007  0.1963
 1818SOL    HW2 7055   2.666   0.787   4.960  1.4099 -2.0687  2.5537
 1819SOL     OW 7056   6.976   4.750   1.532  0.9186 -0.0923 -0.0469
 1819SOL    HW1 7057   6.966   4.819   1.604  2.0583  1.4375 -1.2941
 1819SOL    HW2 7058   6.915   4.771   1.456 -0.4803 -1.8533  0.5010
 1820SOL     OW 7059   4.493   2.334   2.039 -0.0054  0.1625  0.1301
 1820SOL    HW1 7060   4.513   2.430   2.020  0.4763  0.5115  2.1809
 1820SOL    HW2 7061   4.405   2.327   2.086  1.0297 -0.0835  2.1655
 1821SOL     OW 7062   6.125   2.729   5.053  0.3553 -0.7224 -0.1065
 1821SOL    HW1 7063   6.135   2.754   4.957  0.6861 -0.7560 -0.0804
 1821SOL    HW2 7064   6.210   2.691   5.087  1.8824  3.5472  1.4953
 1822SOL     OW 7065   6.234   4.268   6.581  0.1755  0.4455 -0.2818
 1822SOL    HW1 7066   6.315   4.291   6.527 -0.1294 -1.1109 -1.4667
 1822SOL    HW2 7067   6.157   4.254   6.520 -0.9518  1.6399  0.8187
 1823SOL     OW 7068   1.303   3.198   4.640 -0.0113  0.0314 -0.1738
 1823SOL    HW1 7069   1.269   3.290   4.655 -0.8420 -0.2326 -0.3701
 1823SOL    HW2 7070   1.240   3.149   4.579  0.8156 -0.4211 -0.6774
 1824SOL     OW 7071   4.157   0.215   1.359 -0.0656  0.5559  0.0761
 1824SOL    HW1 7072   4.167   0.285   1.429 -2.5013  0.4410  0.6180
 1824SOL    HW2 7073   4.204   0.131   1.389 -0.8217  0.6012  1.4399
 1825SOL     OW 7074   3.123   4.096   3.386  0.0755 -0.4372 -0.3681
 1825SOL    HW1 7075   3.127   4.112   3.485 -1.3072  0.7082 -0.4597
 1825SOL    HW2 7076   3.192   4.029   3.360 -0.1866 -1.5023  1.5123
 1826SOL     OW 7077   3.585   2.921   1.255  0.0615 -0.2701  0.4907
 1826SOL    HW1 7078   3.590   2.992   1.325 -0.9168  0.3099 -0.0020
 1826SOL    HW2 7079   3.536   2.956   1.175  2.8631 -0.2012 -1.3695
 1827SOL     OW 7080   6.028   3.790   2.273  0.3037  0.2893 -0.2796
 1827SOL    HW1 7081   6.070   3.880   2.285 -1.4577  1.2232 -0.7916
 1827SOL    HW2 7082   5.929   3.801   2.259  0.0352 -1.7388 -0.2403
 1828SOL     OW 7083   4.936   6.171   1.581 -0.1405  0.9679 -0.0790
 1828SOL    HW1 7084   4.936   6.071   1.587 -2.0999  1.0013  1.3288
 1828SOL    HW2 7085   4.974   6.199   1.493 -0.0645 -1.0421 -0.7319
 1829SOL     OW 7086   6.876   0.307   3.511  0.9827 -0.8381 -0.0164
 1829SOL    HW1 7087   6.933   0.331   3.590 -0.8608 -1.3325  1.5352
 1829SOL    HW2 7088   6.808   0.238   3.538  0.2186 -0.9451 -2.0247
 1830SOL     OW 7089   1.883   5.313   5.945  0.2569 -0.4444  0.0927
 1830SOL    HW1 7090   1.852   5.370   5.870 -1.6058 -1.7634 -0.2094
 1830SOL    HW2 7091   1.831   5.333   6.028  0.7307 -0.5661  0.4297
 1831SOL     OW 7092   0.301   6.167   6.921 -0.3406 -0.1547 -0.3160
 1831SOL    HW1 7093   0.398   6.188   6.934 -0.0141 -0.3689 -2.0958
 1831SOL    HW2 7094   0.252   6.249   6.891 -0.4967 -0.2900 -0.4327
 1832SOL     OW 7095   5.869   1.075   0.910 -0.2969 -0.1149  0.1359
 1832SOL    HW1 7096   5.877   1.040   0.817 -2.1138 -1.3737  0.3801
 1832SOL    HW2 7097   5.840   1.170   0.908  1.0338  0.2950 -0.5585
 1833SOL     OW 7098   5.401   6.839   5.632  0.3643 -0.3999  0.3456
 1833SOL    HW1 7099   5.380   6.742   5.624  2.2508 -0.7682 -0.7632
 1833SOL    HW2 7100   5.327   6.892   5.589 -1.9787 -1.0978  3.1913
 1834SOL     OW 7101   0.561   6.253   4.819 -0.4419  0.6605 -0.1436
 1834SOL    HW1 7102   0.585   6.220   4.911 -1.0168  0.3009 -0.1178
 1834SOL    HW2 7103   0.639   6.302   4.780  0.1899 -0.1215  0.1028
 1835SOL     OW 7104   0.949   3.952   1.808  0.2447 -0.0513  0.4790
 1835SOL    HW1 7105   1.017   3.896   1.761 -1.1797 -1.0611 -0.4487
 1835SOL    HW2 7106   0.870   3.896   1.832 -2.3915  1.9496 -2.7050
 1836SOL     OW 7107   0.084   0.241   0.231 -0.1282  0.0253 -0.1620
 1836SOL    HW1 7108   0.170   0.257   0.182  0.2792 -2.2032 -0.3140
 1836SOL    HW2 7109   0.014   0.303   0.197  1.7109  2.9087  0.9654
 1837SOL     OW 7110   1.993   5.455   6.743 -0.0596 -0.1129 -0.0621
 1837SOL    HW1 7111   1.927   5.472   6.816  0.9310  0.1769  0.7874
 1837SOL    HW2 7112   2.037   5.366   6.757  0.5198  0.1793  0.0142
 1838SOL     OW 7113   4.993   0.987   3.177  0.3121  0.2923 -0.0644
 1838SOL    HW1 7114   4.981   1.004   3.275 -0.9606  0.5811 -0.2477
 1838SOL    HW2 7115   4.936   0.908   3.150  2.0692 -0.9745 -0.2348
 1839SOL     OW 7116   4.686   6.302   5.648  0.2762 -0.2149  0.3241
 1839SOL    HW1 7117   4.592   6.333   5.665  0.1674  0.0374 -0.6932
 1839SOL    HW2 7118   4.686   6.228   5.581  0.9533  1.3607 -1.5042
 1840SOL     OW 7119   2.787   1.444   6.061  0.7006  0.4425  0.3507
 1840SOL    HW1 7120   2.869   1.387   6.066  0.3560 -0.1174 -0.1503
 1840SOL    HW2 7121   2.812   1.540   6.072  1.4779  0.3130 -0.2131
 1841SOL     OW 7122   1.235   0.227   4.206 -0.5620 -0.2198  0.4383
 1841SOL    HW1 7123   1.159   0.181   4.160 -1.5955  0.6776  1.1909
 1841SOL    HW2 7124   1.224   0.326   4.197 -0.5164 -0.0290  2.1225
 1842SOL     OW 7125   4.060   4.473   6.747 -0.2934 -0.1193 -0.7524
 1842SOL    HW1 7126   4.061   4.565   6.709 -1.6845  0.7708  1.1769
 1842SOL    HW2 7127   3.994   4.469   6.823  1.2359 -2.1343  0.5801
 1843SOL     OW 7128   0.869   0.063   5.010 -0.0337  0.6561  0.3754
 1843SOL    HW1 7129   0.865   0.016   5.098 -0.6782  0.3821  0.2090
 1843SOL    HW2 7130   0.889   0.160   5.025 -1.3671  0.8722  0.9322
 1844SOL     OW 7131   1.223   5.797   6.975 -0.0015  0.1929 -0.1507
 1844SOL    HW1 7132   1.200   5.742   7.056  0.1533 -0.1300 -0.3254
 1844SOL    HW2 7133   1.143   5.805   6.916 -0.1342  0.4869  0.0670
 1845SOL     OW 7134   0.598   0.616   4.217 -0.2815  0.0090 -0.0949
 1845SOL    HW1 7135   0.647   0.703   4.224 -1.1249  0.4189  1.0784
 1845SOL    HW2 7136   0.661   0.545   4.187  0.5031  0.9523 -0.7542
 1846SOL     OW 7137   1.792   2.128   3.651 -0.1294 -0.0631  0.3538
 1846SOL    HW1 7138   1.780   2.184   3.570 -0.4860  1.2501  1.2847
 1846SOL    HW2 7139   1.756   2.036   3.634 -1.1441  0.4939 -0.6218
 1847SOL     OW 7140   0.917   5.382   2.279 -0.1166 -0.1947 -0.3086
 1847SOL    HW1 7141   0.898   5.298   2.228  2.1395  0.1552 -1.8618
 1847SOL    HW2 7142   0.904   5.461   2.219  0.7394  0.3561  0.2169
 1848SOL     OW 7143   6.429   6.793   3.605 -0.1537 -0.1533  0.2997
 1848SOL    HW1 7144   6.429   6.703   3.647  0.5721  0.2827  1.2921
 1848SOL    HW2 7145   6.485   6.792   3.522 -0.9453 -0.8340 -0.2368
 1849SOL     OW 7146   2.685   1.915   6.084  0.5860 -0.9651 -0.0971
 1849SOL    HW1 7147   2.656   1.872   6.170  0.3872 -0.1078  0.2806
 1849SOL    HW2 7148   2.637   2.003   6.073 -0.5216 -1.7245 -1.8138
 1850SOL     OW 7149   7.005   5.812   1.737  0.0829  0.2605 -0.1635
 1850SOL    HW1 7150   7.012   5.716   1.765 -0.8807 -0.1850 -1.3188
 1850SOL    HW2 7151   6.945   5.861   1.800 -1.3289 -0.4981 -0.8719
 1851SOL     OW 7152   1.831   4.020   2.985  0.5441 -0.3277  0.3757
 1851SOL    HW1 7153   1.765   3.966   3.037  0.6789 -1.9101 -1.0035
 1851SOL    HW2 7154   1.842   3.980   2.894  3.4671 -0.2083  0.5655
 1852SOL     OW 7155   1.631   2.234   2.399  0.2524 -0.1301 -0.1285
 1852SOL    HW1 7156   1.657   2.314   2.346  0.5701  0.9903  1.6505
 1852SOL    HW2 7157   1.533   2.237   2.420  0.3989  0.1499  0.5202
 1853SOL     OW 7158   6.666   1.173   0.931 -0.5770  0.1439 -0.1457
 1853SOL    HW1 7159   6.582   1.224   0.949 -1.4721 -0.9000 -1.1295
 1853SOL    HW2 7160   6.661   1.085   0.978 -0.9717 -0.7559 -1.7789
 1854SOL     OW 7161   2.583   5.124   6.381  0.3518  0.6185 -1.2629
 1854SOL    HW1 7162   2.585   5.157   6.286  0.2850 -0.2207 -1.5624
 1854SOL    HW2 7163   2.670   5.081   6.403  0.2218  0.4495 -1.0742
 1855SOL     OW 7164   3.055   0.495   1.222 -0.3572  0.2615 -0.3218
 1855SOL    HW1 7165   2.996   0.576   1.228  1.5152  1.6514  0.1391
 1855SOL    HW2 7166   3.082   0.482   1.126  0.1848  0.8229 -0.2486
 1856SOL     OW 7167   6.760   1.552   3.229  0.0526 -0.4199 -0.6506
 1856SOL    HW1 7168   6.840   1.577   3.284 -0.2306  0.4314 -0.6095
 1856SOL    HW2 7169   6.761   1.604   3.144  0.4509 -1.6743 -1.4410
 1857SOL     OW 7170   4.911   3.819   5.719 -0.6214  0.1297 -0.3344
 1857SOL    HW1 7171   4.943   3.877   5.644 -0.4043  0.0961 -0.2694
 1857SOL    HW2 7172   4.946   3.726   5.706  1.6697  0.6850  1.1781
 1858SOL     OW 7173   6.127   3.045   1.574 -0.7935  0.1404  0.1524
 1858SOL    HW1 7174   6.054   3.084   1.631 -1.5861 -0.2638 -0.5636
 1858SOL    HW2 7175   6.104   2.951   1.549  0.0569 -0.0506  0.0416
 1859SOL     OW 7176   1.659   0.651   6.581 -0.0223 -0.0328 -0.1215
 1859SOL    HW1 7177   1.598   0.571   6.581  0.0057 -0.1160  2.2069
 1859SOL    HW2 7178   1.643   0.705   6.498 -1.4392 -1.3987 -0.7893
 1860SOL     OW 7179   4.649   6.934   0.933  0.1714  0.0040  0.2405
 1860SOL    HW1 7180   4.563   6.884   0.944 -0.6686  1.0397 -1.2817
 1860SOL    HW2 7181   4.631   7.022   0.889  1.9054  0.6519  0.7622
 1861SOL     OW 7182   6.938   0.070   6.999 -0.3033  0.5206 -0.4943
 1861SOL    HW1 7183   6.845   0.034   6.991 -0.4918  0.7514  0.4899
 1861SOL    HW2 7184   6.937   0.150   7.060  0.7808 -0.4976  0.9342
 1862SOL     OW 7185   0.352   4.847   4.824  0.0693  0.4737  0.1138
 1862SOL    HW1 7186   0.445   4.875   4.799  0.0267  1.3080  0.8547
 1862SOL    HW2 7187   0.290   4.925   4.816  0.1430  0.9835  3.2941
 1863SOL     OW 7188   5.326   2.821   1.277 -0.7461 -0.1986  0.3531
 1863SOL    HW1 7189   5.292   2.885   1.346 -1.3830 -0.8903  0.6913
 1863SOL    HW2 7190   5.364   2.740   1.323  0.5293  0.1502 -0.0473
 1864SOL     OW 7191   5.267   0.813   0.704 -0.0604 -0.7635 -0.1078
 1864SOL    HW1 7192   5.200   0.851   0.768  0.3288 -3.1609  1.8917
 1864SOL    HW2 7193   5.257   0.857   0.615 -3.8711 -0.5525  0.2487
 1865SOL     OW 7194   3.181   6.093   3.212 -0.1144  0.1804 -0.4103
 1865SOL    HW1 7195   3.268   6.139   3.194 -0.3384  0.1649 -1.6333
 1865SOL    HW2 7196   3.109   6.161   3.222 -0.0319  0.1791  0.2024
 1866SOL     OW 7197   3.270   6.952   0.483  0.4811  0.0855  0.0562
 1866SOL    HW1 7198   3.363   6.988   0.470  0.0550  0.5295 -2.1245
 1866SOL    HW2 7199   3.269   6.854   0.465  0.4522  0.1739 -0.4522
 1867SOL     OW 7200   0.307   3.135   5.427  0.3300  0.2932  0.0416
 1867SOL    HW1 7201   0.371   3.211   5.411  0.9715 -0.5262 -1.5285
 1867SOL    HW2 7202   0.344   3.074   5.497  2.0693 -0.9596 -1.8640
 1868SOL     OW 7203   0.419   4.662   4.362  1.2021  0.4989 -0.9114
 1868SOL    HW1 7204   0.500   4.645   4.419 -0.3641  0.2869  1.3825
 1868SOL    HW2 7205   0.384   4.574   4.329  0.2448  0.2551  0.6196
 1869SOL     OW 7206   2.408   1.946   6.213 -0.1681 -0.3696 -0.1181
 1869SOL    HW1 7207   2.457   1.904   6.290  0.6032 -2.3569 -1.5871
 1869SOL    HW2 7208   2.387   1.875   6.145 -1.4156  1.1992 -1.4477
 1870SOL     OW 7209   0.921   1.035   4.959 -0.3450  0.2363  0.1908
 1870SOL    HW1 7210   0.873   0.964   4.907  0.1561 -0.2470  0.3712
 1870SOL    HW2 7211   0.887   1.035   5.053  0.2337 -0.3295  0.4032
 1871SOL     OW 7212   4.575   0.151   0.232 -0.7804  0.5180  0.1103
 1871SOL    HW1 7213   4.646   0.144   0.302 -1.1051 -1.7501  0.2922
 1871SOL    HW2 7214   4.564   0.247   0.205  0.9429  1.1621  1.4918
 1872SOL     OW 7215   2.049   0.816   2.532 -0.3024  0.0465  0.3270
 1872SOL    HW1 7216   2.027   0.844   2.438 -1.6812 -2.8795 -0.3519
 1872SOL    HW2 7217   2.123   0.750   2.530 -0.2667  0.0423  1.3220
 1873SOL     OW 7218   5.767   2.124   0.803 -0.7937 -0.3023  0.1786
 1873SOL    HW1 7219   5.802   2.119   0.709  0.3308 -0.9027  0.6116
 1873SOL    HW2 7220   5.738   2.034   0.833 -1.4013 -0.0612  0.3185
 1874SOL     OW 7221   3.598   1.216   1.145 -0.3606 -0.1180 -1.2112
 1874SOL    HW1 7222   3.541   1.242   1.223 -0.3572  0.0961 -1.2791
 1874SOL    HW2 7223   3.539   1.187   1.069 -0.3278 -2.1784 -0.4996
 1875SOL     OW 7224   3.405   6.568   6.206  0.5954  0.2456 -0.1071
 1875SOL    HW1 7225   3.376   6.497   6.142 -2.7008  2.1390 -0.9162
 1875SOL    HW2 7226   3.454   6.639   6.156 -0.5293  0.9313 -0.2480
 1876SOL     OW 7227   1.745   6.362   6.069 -0.0318  0.1527 -0.3850
 1876SOL    HW1 7228   1.807   6.351   5.991 -0.1945  0.4192 -0.5513
 1876SOL    HW2 7229   1.796   6.346   6.154  0.6643  1.9677 -0.4264
 1877SOL     OW 7230   0.337   4.506   5.773  0.2424  0.0922  0.2685
 1877SOL    HW1 7231   0.244   4.540   5.762  0.2522 -0.1011 -0.5191
 1877SOL    HW2 7232   0.349   4.468   5.865 -0.3196  0.5138  0.5199
 1878SOL     OW 7233   1.137   7.025   3.537  0.3705  0.2675  0.1859
 1878SOL    HW1 7234   1.235   7.031   3.519  0.5325  1.1728  1.2905
 1878SOL    HW2 7235   1.111   7.092   3.605 -0.5682 -1.6235  1.7942
 1879SOL     OW 7236   6.954   0.075   1.535  0.1069 -0.2845  0.1853
 1879SOL    HW1 7237   6.952  -0.022   1.558 -1.5005 -0.0744  1.0826
 1879SOL    HW2 7238   6.937   0.086   1.437  0.4692 -0.9118  0.0499
 1880SOL     OW 7239   1.962   4.139   4.710 -0.4692  0.0394 -0.2204
 1880SOL    HW1 7240   1.940   4.042   4.712 -1.0788  0.1589 -0.9273
 1880SOL    HW2 7241   1.935   4.181   4.797 -0.4165 -0.3761 -0.0039
 1881SOL     OW 7242   3.616   1.549   5.464  0.2111  0.2971 -0.0949
 1881SOL    HW1 7243   3.714   1.554   5.482  0.6034 -0.2520 -1.9365
 1881SOL    HW2 7244   3.590   1.615   5.394 -0.4622 -0.5131 -0.6359
 1882SOL     OW 7245   2.235   0.758   4.511  0.2036 -0.0190  0.0102
 1882SOL    HW1 7246   2.320   0.704   4.511 -0.7694 -1.6391  0.5108
 1882SOL    HW2 7247   2.194   0.754   4.603 -2.4302 -2.7050 -1.1003
 1883SOL     OW 7248   0.837   7.001   1.223  0.2184 -0.3361 -0.0719
 1883SOL    HW1 7249   0.780   7.060   1.279  0.2624 -1.0490  0.7322
 1883SOL    HW2 7250   0.927   7.043   1.211 -0.3028  0.5808 -0.9788
 1884SOL     OW 7251   6.973   1.099   1.062  0.3881  0.3364  0.3398
 1884SOL    HW1 7252   7.027   1.045   0.997 -0.7582 -0.0621 -0.3161
 1884SOL    HW2 7253   6.973   1.053   1.151  1.7299  0.7344  0.5623
 1885SOL     OW 7254   2.757   1.772   2.658 -0.1613  0.4206 -0.6671
 1885SOL    HW1 7255   2.758   1.691   2.599 -1.1703  0.0225 -0.1641
 1885SOL    HW2 7256   2.799   1.849   2.610  1.4600 -0.5556 -0.8999
 1886SOL     OW 7257   2.066   3.598   2.053  0.3788  0.8166  0.9237
 1886SOL    HW1 7258   2.087   3.599   1.955  0.1117  0.3030  0.8581
 1886SOL    HW2 7259   2.116   3.524   2.098  1.0997  1.5304  1.3209
 1887SOL     OW 7260   6.588   5.115   2.170 -1.2152 -0.9181 -1.0286
 1887SOL    HW1 7261   6.523   5.074   2.233 -2.6622  1.5485 -0.7799
 1887SOL    HW2 7262   6.681   5.083   2.192 -1.8110 -1.0568  1.5667
 1888SOL     OW 7263   6.621   6.719   4.827 -0.4043  0.6141  0.6227
 1888SOL    HW1 7264   6.657   6.627   4.809  1.0377  1.2671  0.0528
 1888SOL    HW2 7265   6.590   6.724   4.922 -2.7509 -1.1572  0.0484
 1889SOL     OW 7266   6.554   1.391   1.266 -0.0608 -0.3611  0.1956
 1889SOL    HW1 7267   6.536   1.477   1.218  0.3848 -1.8979 -2.9886
 1889SOL    HW2 7268   6.653   1.375   1.270 -0.1626 -0.9914  0.2767
 1890SOL     OW 7269   7.023   4.303   1.661 -0.2249  0.1091  0.4983
 1890SOL    HW1 7270   7.109   4.314   1.612 -0.4811 -0.6697 -0.1366
 1890SOL    HW2 7271   7.002   4.206   1.671 -0.4848  0.2598  1.6223
 1891SOL     OW 7272   3.236   5.369   6.190 -0.1513 -0.2536 -0.0586
 1891SOL    HW1 7273   3.278   5.322   6.113 -0.5687  0.7226 -0.9159
 1891SOL    HW2 7274   3.211   5.462   6.162 -0.3750  0.0960  1.2390
 1892SOL     OW 7275   3.639   2.920   3.777 -0.4166  0.3861 -0.2198
 1892SOL    HW1 7276   3.614   2.993   3.713 -2.4364 -0.8292 -0.9102
 1892SOL    HW2 7277   3.712   2.953   3.837 -0.4130  2.5384 -1.2771
 1893SOL     OW 7278   0.408   2.252   0.499 -0.5383 -0.0927  0.5911
 1893SOL    HW1 7279   0.329   2.314   0.505 -0.4329  0.1924 -0.6456
 1893SOL    HW2 7280   0.487   2.303   0.464 -0.3839 -0.8622 -0.2013
 1894SOL     OW 7281   5.310   6.507   0.756  0.0110  0.6554 -0.0437
 1894SOL    HW1 7282   5.219   6.542   0.733  0.6888  2.8675  0.4173
 1894SOL    HW2 7283   5.363   6.493   0.672 -0.4421  0.2590 -0.2640
 1895SOL     OW 7284   1.916   2.171   4.215 -0.3261 -0.0738 -0.1258
 1895SOL    HW1 7285   1.876   2.205   4.301 -1.6514 -4.1776  1.1297
 1895SOL    HW2 7286   1.844   2.163   4.146  0.3970  1.4980 -1.1307
 1896SOL     OW 7287   0.098   2.300   5.318 -0.9193 -0.0122  0.5122
 1896SOL    HW1 7288   0.053   2.388   5.310  1.3137  1.1684  0.0337
 1896SOL    HW2 7289   0.123   2.267   5.227  0.3888  0.0620  0.8242
 1897SOL     OW 7290   5.046   1.143   5.607 -0.4348  0.5579  1.0111
 1897SOL    HW1 7291   4.988   1.215   5.645 -0.1167  0.7231  1.1921
 1897SOL    HW2 7292   5.072   1.080   5.680 -0.1931  0.6214  0.9812
 1898SOL     OW 7293   3.323   4.230   6.058  0.8167 -0.0970 -0.3666
 1898SOL    HW1 7294   3.280   4.198   5.974 -1.0302 -1.4112  0.9913
 1898SOL    HW2 7295   3.297   4.170   6.134  2.8372  0.7317  1.0848
 1899SOL     OW 7296   5.947   4.110   5.277  0.5004  0.0383 -0.4880
 1899SOL    HW1 7297   6.011   4.165   5.331  1.4492 -0.4209 -1.1162
 1899SOL    HW2 7298   5.869   4.166   5.250  0.5284  0.5510  0.4725
 1900SOL     OW 7299   2.187   2.803   5.237 -0.5162  0.9267 -0.7121
 1900SOL    HW1 7300   2.232   2.726   5.191 -0.3169  0.5860  0.0285
 1900SOL    HW2 7301   2.219   2.808   5.332 -0.9035  1.6224 -0.6098
 1901SOL     OW 7302   3.071   4.101   5.601 -0.0470 -0.1161 -0.4823
 1901SOL    HW1 7303   3.152   4.160   5.608  0.6621 -0.7820 -2.3777
 1901SOL    HW2 7304   3.097   4.007   5.621 -0.6449 -0.1625  0.1177
 1902SOL     OW 7305   1.197   5.513   5.049 -0.0076  0.5478  0.5107
 1902SOL    HW1 7306   1.174   5.416   5.053 -0.0500  0.4167 -1.6535
 1902SOL    HW2 7307   1.296   5.523   5.036  0.0863  0.8372  1.3694
 1903SOL     OW 7308   4.946   5.627   1.767 -0.0957 -0.5267 -0.2760
 1903SOL    HW1 7309   4.877   5.566   1.806 -1.2696 -0.3378 -1.9361
 1903SOL    HW2 7310   4.989   5.583   1.688 -1.8726  1.1581 -2.3166
 1904SOL     OW 7311   2.305   0.794   0.858  0.3518 -0.7559 -0.2247
 1904SOL    HW1 7312   2.221   0.769   0.809  0.9975  0.1643 -1.8979
 1904SOL    HW2 7313   2.297   0.889   0.890  1.2590 -0.1463 -1.6811
 1905SOL     OW 7314   6.559   3.893   3.714 -0.5207 -1.1113 -0.3459
 1905SOL    HW1 7315   6.649   3.885   3.758  0.2548 -0.3629 -1.7162
 1905SOL    HW2 7316   6.503   3.958   3.766  0.5516  0.1487 -0.6969
 1906SOL     OW 7317   0.987   4.155   0.970 -0.0547  0.4047 -0.1026
 1906SOL    HW1 7318   0.918   4.150   0.898 -0.2299 -3.2486  0.1303
 1906SOL    HW2 7319   0.957   4.220   1.040 -2.1254  0.6431 -1.1239
 1907SOL     OW 7320   0.130   5.616   5.985  0.1446  0.2682 -0.0897
 1907SOL    HW1 7321   0.037   5.596   5.954  0.4410 -0.8151 -0.3489
 1907SOL    HW2 7322   0.166   5.694   5.935  0.0517 -0.4801 -1.3595
 1908SOL     OW 7323   1.895   0.913   0.802  0.2716  0.5380  0.2357
 1908SOL    HW1 7324   1.863   0.988   0.860 -3.1887 -1.1173  0.6930
 1908SOL    HW2 7325   1.897   0.828   0.854  2.1202 -0.1381 -0.8088
 1909SOL     OW 7326   0.652   1.009   5.794  0.2957 -0.0515  0.3324
 1909SOL    HW1 7327   0.752   1.010   5.793  0.3318  1.8898 -1.3946
 1909SOL    HW2 7328   0.618   1.103   5.801 -1.4237 -0.6936  1.0113
 1910SOL     OW 7329   2.786   3.836   5.740  0.3190 -0.0920  0.7370
 1910SOL    HW1 7330   2.885   3.818   5.736  0.4056  0.4929 -0.0670
 1910SOL    HW2 7331   2.742   3.768   5.798  0.9752 -1.3276 -0.1753
 1911SOL     OW 7332   6.244   6.647   4.003 -0.3455 -0.4955 -0.2711
 1911SOL    HW1 7333   6.207   6.730   3.961 -1.6270 -1.0403 -0.2364
 1911SOL    HW2 7334   6.170   6.583   4.024  0.5329 -1.2878  0.5241
 1912SOL     OW 7335   0.105   0.867   2.899  0.3337  0.3339 -0.0816
 1912SOL    HW1 7336   0.197   0.837   2.875  0.1431 -1.2442  1.0694
 1912SOL    HW2 7337   0.102   0.895   2.995 -0.9484 -2.2293  0.7045
 1913SOL     OW 7338   3.238   4.710   6.478 -0.2425 -0.1066  0.2400
 1913SOL    HW1 7339   3.168   4.691   6.547 -2.2365 -3.8864 -2.4597
 1913SOL    HW2 7340   3.303   4.634   6.474 -0.0552  0.1006 -1.8418
 1914SOL     OW 7341   1.994   4.742   6.907 -0.0001  0.0794  0.2867
 1914SOL    HW1 7342   2.018   4.660   6.854 -1.4045 -0.4209  0.3822
 1914SOL    HW2 7343   1.918   4.789   6.862 -1.0110 -0.1768  1.6510
 1915SOL     OW 7344   6.742   6.274   3.312  0.2736 -0.0797  0.5682
 1915SOL    HW1 7345   6.775   6.180   3.325  0.4861  0.0605  1.0376
 1915SOL    HW2 7346   6.642   6.275   3.318  0.2774 -0.2568  0.6668
 1916SOL     OW 7347   2.070   0.631   1.589  0.5261 -0.7863  0.1465
 1916SOL    HW1 7348   2.076   0.531   1.591 -0.5387 -0.9584 -2.3800
 1916SOL    HW2 7349   2.155   0.669   1.552 -0.8856 -1.1770 -3.9195
 1917SOL     OW 7350   4.408   2.212   4.168 -0.1848  0.1363 -0.1346
 1917SOL    HW1 7351   4.374   2.257   4.251 -0.9670  0.6762 -0.7367
 1917SOL    HW2 7352   4.506   2.231   4.158 -0.3055  0.9411  0.1177
 1918SOL     OW 7353   2.446   0.831   5.318  0.3450 -0.1631 -0.1042
 1918SOL    HW1 7354   2.348   0.812   5.313  0.2923  0.3887 -2.3342
 1918SOL    HW2 7355   2.497   0.745   5.317 -0.0689 -0.4542 -2.7500
 1919SOL     OW 7356   0.662   3.423   2.183 -0.6819 -0.2487 -0.5109
 1919SOL    HW1 7357   0.569   3.452   2.206 -0.7448 -1.7749  1.4309
 1919SOL    HW2 7358   0.659   3.356   2.109 -0.9273  0.9410 -1.6291
 1920SOL     OW 7359   6.823   1.774   4.103 -0.0639 -0.5259  0.1908
 1920SOL    HW1 7360   6.848   1.830   4.025  0.2116 -0.4589  0.3275
 1920SOL    HW2 7361   6.895   1.708   4.122 -0.0685 -0.4547  0.4674
 1921SOL     OW 7362   0.865   0.758   6.946 -0.3449  0.0527  0.1788
 1921SOL    HW1 7363   0.836   0.672   6.903 -0.7337 -2.2853  4.5842
 1921SOL    HW2 7364   0.786   0.820   6.951 -0.6581 -0.2209 -0.9660
 1922SOL     OW 7365   4.015   2.529   5.364  0.4838 -0.7265  0.3465
 1922SOL    HW1 7366   3.946   2.484   5.421  0.6048  0.2534  1.2996
 1922SOL    HW2 7367   4.050   2.609   5.412  1.5895 -0.6596 -0.5409
 1923SOL     OW 7368   0.585   4.509   2.564 -0.4552  0.1369 -0.0019
 1923SOL    HW1 7369   0.660   4.455   2.527 -0.7500 -0.7433  0.6348
 1923SOL    HW2 7370   0.510   4.448   2.591 -0.9046  0.8853  0.4926
 1924SOL     OW 7371   5.211   4.147   0.577  0.8515  0.7248 -0.4728
 1924SOL    HW1 7372   5.230   4.068   0.635  1.3096  2.3900  1.7627
 1924SOL    HW2 7373   5.146   4.120   0.505 -0.7670 -1.1335  1.5375
 1925SOL     OW 7374   5.276   3.152   3.417 -0.0239  0.3979 -0.0876
 1925SOL    HW1 7375   5.289   3.053   3.421 -3.0328 -0.0847  0.1248
 1925SOL    HW2 7376   5.298   3.192   3.506  0.7164 -0.1297 -0.0234
 1926SOL     OW 7377   6.294   5.721   2.982 -0.5553  0.0020 -0.5259
 1926SOL    HW1 7378   6.388   5.718   2.947 -0.3295 -0.7867  0.1218
 1926SOL    HW2 7379   6.231   5.684   2.914 -0.4469  0.8354 -1.0930
 1927SOL     OW 7380   2.708   6.902   3.539  0.0275 -0.0209  0.3800
 1927SOL    HW1 7381   2.704   6.900   3.439  2.1806 -0.0275  0.2380
 1927SOL    HW2 7382   2.646   6.833   3.576  1.0102 -1.8037 -1.0876
 1928SOL     OW 7383   5.563   4.869   5.339  0.6381  0.3935 -0.0933
 1928SOL    HW1 7384   5.619   4.927   5.398  1.0536 -0.2469  0.1509
 1928SOL    HW2 7385   5.486   4.922   5.304  0.3855  0.7929  1.0116
 1929SOL     OW 7386   6.869   2.826   6.064  0.4974 -0.3465  0.3021
 1929SOL    HW1 7387   6.809   2.790   5.992  1.8954 -1.4186 -0.3738
 1929SOL    HW2 7388   6.917   2.907   6.030  0.3437 -0.2062  0.4179
 1930SOL     OW 7389   5.056   0.159   3.708 -0.3124  0.4298 -0.7198
 1930SOL    HW1 7390   4.983   0.149   3.640 -0.9710  4.0046 -0.7346
 1930SOL    HW2 7391   5.114   0.237   3.683  0.7815  0.4518  1.6365
 1931SOL     OW 7392   0.813   6.223   4.719 -0.0170 -0.0537 -0.1968
 1931SOL    HW1 7393   0.847   6.243   4.627  0.8138  0.0112  0.1192
 1931SOL    HW2 7394   0.890   6.210   4.782 -0.5721  0.3132  0.5808
 1932SOL     OW 7395   4.615   3.081   3.288 -0.2543 -0.1418 -0.2386
 1932SOL    HW1 7396   4.527   3.076   3.241 -0.9320 -3.8576  1.1043
 1932SOL    HW2 7397   4.689   3.062   3.223 -1.0075 -3.0417 -0.3987
 1933SOL     OW 7398   1.556   2.962   2.052 -0.4687 -0.1142 -0.3550
 1933SOL    HW1 7399   1.629   2.893   2.046 -0.5045 -0.0492 -1.7093
 1933SOL    HW2 7400   1.492   2.951   1.976 -0.4431  1.4444 -0.6437
 1934SOL     OW 7401   2.182   2.890   5.793  0.0795  0.3043 -0.5844
 1934SOL    HW1 7402   2.177   2.825   5.717  0.2344  2.3259 -2.3970
 1934SOL    HW2 7403   2.274   2.929   5.797 -0.4196  1.5105 -0.5006
 1935SOL     OW 7404   0.381   0.444   5.520 -0.3871  0.4715  0.6117
 1935SOL    HW1 7405   0.443   0.383   5.569  0.4356  1.6108  1.0462
 1935SOL    HW2 7406   0.365   0.526   5.575 -0.7026  1.0737 -0.3621
 1936SOL     OW 7407   1.143   2.827   2.439 -0.3871  0.4038 -0.0125
 1936SOL    HW1 7408   1.129   2.894   2.512 -0.7385 -0.9890  1.2393
 1936SOL    HW2 7409   1.056   2.807   2.395 -0.0999  1.6443 -1.2468
 1937SOL     OW 7410   6.550   2.878   5.098 -0.2896 -0.6695  0.0367
 1937SOL    HW1 7411   6.555   2.821   5.016 -1.8717  1.2567 -1.5108
 1937SOL    HW2 7412   6.642   2.890   5.136  0.3228 -2.5610 -0.7355
 1938SOL     OW 7413   6.082   1.493   0.120 -0.0494 -0.0691 -0.0392
 1938SOL    HW1 7414   6.111   1.484   0.215 -1.4994 -0.3104  0.4024
 1938SOL    HW2 7415   5.982   1.500   0.116  0.0005  0.1369 -1.5335
 1939SOL     OW 7416   5.394   2.782   2.788  0.4799 -0.0061  0.4563
 1939SOL    HW1 7417   5.403   2.876   2.823  0.8879 -0.6221  2.0811
 1939SOL    HW2 7418   5.480   2.733   2.803 -0.2059 -1.0759  0.9595
 1940SOL     OW 7419   0.157   4.276   6.065  0.2323  0.2275 -0.1827
 1940SOL    HW1 7420   0.075   4.253   6.012  0.0955 -0.2649  0.2366
 1940SOL    HW2 7421   0.132   4.295   6.160  0.9077 -3.4606  0.9094
 1941SOL     OW 7422   0.457   0.960   3.684  0.2398 -0.4416 -0.1015
 1941SOL    HW1 7423   0.554   0.941   3.697  0.0904 -1.0579  0.1160
 1941SOL    HW2 7424   0.435   1.048   3.726 -0.0048 -1.8468  3.0381
 1942SOL     OW 7425   5.755   1.003   3.325 -0.0027 -0.3606 -0.2498
 1942SOL    HW1 7426   5.677   0.951   3.290  0.1092  0.3182 -1.5563
 1942SOL    HW2 7427   5.754   1.095   3.287  1.4346 -0.3397 -0.2906
 1943SOL     OW 7428   6.087   2.600   4.236  0.5340  0.2573  0.1249
 1943SOL    HW1 7429   6.187   2.606   4.231  0.5894  2.4331  2.3072
 1943SOL    HW2 7430   6.061   2.517   4.286  1.0330 -1.9170 -2.9268
 1944SOL     OW 7431   3.849   5.862   2.056 -0.4665  0.4319  0.3145
 1944SOL    HW1 7432   3.888   5.867   1.964  1.3436  1.4528  1.0788
 1944SOL    HW2 7433   3.903   5.919   2.118 -0.7466 -1.3475  2.3245
 1945SOL     OW 7434   6.514   2.538   6.671  0.3656 -0.0887  0.0272
 1945SOL    HW1 7435   6.496   2.519   6.768  0.2866  0.2378  0.0767
 1945SOL    HW2 7436   6.454   2.483   6.614 -1.2940  1.4699  0.1890
 1946SOL     OW 7437   2.974   6.682   3.741  0.3507  0.3115  0.7573
 1946SOL    HW1 7438   3.046   6.615   3.759  1.6102  1.8394  1.6054
 1946SOL    HW2 7439   2.999   6.737   3.661 -0.8802 -0.4806 -0.1995
 1947SOL     OW 7440   2.577   1.443   3.889  0.0552  0.4973  0.3571
 1947SOL    HW1 7441   2.618   1.438   3.798  0.9262  1.7481  0.6611
 1947SOL    HW2 7442   2.480   1.419   3.883  0.2264  0.0407 -0.8026
 1948SOL     OW 7443   0.679   0.901   4.221  0.4111  0.2300 -0.9649
 1948SOL    HW1 7444   0.643   0.916   4.129  0.8439 -0.3540 -1.2325
 1948SOL    HW2 7445   0.769   0.944   4.230 -0.2332  1.5086 -0.3603
 1949SOL     OW 7446   0.740   3.840   0.309  0.1111  0.2879  1.0004
 1949SOL    HW1 7447   0.792   3.924   0.289 -0.1439  0.4645  1.0789
 1949SOL    HW2 7448   0.649   3.847   0.268  0.9035 -0.9786 -1.1628
 1950SOL     OW 7449   1.087   5.889   5.770 -0.4423 -0.3982  0.2117
 1950SOL    HW1 7450   1.060   5.918   5.678 -1.0413 -1.6006 -0.0060
 1950SOL    HW2 7451   1.178   5.925   5.791 -0.7088  0.7209 -0.4537
 1951SOL     OW 7452   6.799   2.594   5.056  0.2660 -0.0558 -0.0402
 1951SOL    HW1 7453   6.807   2.694   5.050 -0.4624 -0.0367 -0.8968
 1951SOL    HW2 7454   6.888   2.555   5.079  0.7182  0.7447 -0.3807
 1952SOL     OW 7455   4.690   6.993   3.225 -0.2427  0.0269  0.4519
 1952SOL    HW1 7456   4.672   7.036   3.137 -0.3220 -1.9270 -0.5463
 1952SOL    HW2 7457   4.784   7.011   3.253 -0.3684  1.0834  0.2419
 1953SOL     OW 7458   5.649   3.391   3.991 -0.2417  0.2276 -0.6158
 1953SOL    HW1 7459   5.704   3.430   3.917  1.8960  2.6133  1.9952
 1953SOL    HW2 7460   5.567   3.445   4.005  1.3910  2.4379  1.2453
 1954SOL     OW 7461   6.316   5.196   0.253  0.1309 -0.7183 -0.1575
 1954SOL    HW1 7462   6.336   5.106   0.214 -2.1722 -0.9326 -0.9986
 1954SOL    HW2 7463   6.327   5.266   0.183  0.5615 -0.4986  0.1222
 1955SOL     OW 7464   3.004   6.042   4.034  0.4191  0.7525 -0.0573
 1955SOL    HW1 7465   3.017   6.101   3.955  0.2720  0.0422 -0.6248
 1955SOL    HW2 7466   3.060   5.960   4.024  2.0605  1.6082  1.6039
 1956SOL     OW 7467   6.614   2.064   2.898  0.2968  0.0126 -0.5608
 1956SOL    HW1 7468   6.534   2.083   2.955  0.8574  1.5550 -0.2300
 1956SOL    HW2 7469   6.649   2.150   2.861  2.3865 -0.5033  0.1031
 1957SOL     OW 7470   4.366   3.241   6.927 -0.3423  0.3480 -0.1080
 1957SOL    HW1 7471   4.340   3.146   6.945  0.1721  0.1934 -0.1576
 1957SOL    HW2 7472   4.464   3.245   6.908 -0.1104  1.0742  1.1799
 1958SOL     OW 7473   2.977   5.672   5.880  0.3916 -0.1868  0.3644
 1958SOL    HW1 7474   2.901   5.615   5.910 -0.7766  0.8121 -0.5666
 1958SOL    HW2 7475   3.019   5.632   5.800 -0.5372  0.2945 -0.3920
 1959SOL     OW 7476   4.054   2.674   1.298  0.9126 -0.2719  0.2642
 1959SOL    HW1 7477   4.060   2.589   1.351  3.1156  0.1981  0.8992
 1959SOL    HW2 7478   3.976   2.728   1.330  0.2111 -1.5023  0.6948
 1960SOL     OW 7479   3.986   3.290   2.932 -0.9236  0.1441  0.2551
 1960SOL    HW1 7480   3.960   3.374   2.885 -2.4981 -0.1478  0.5487
 1960SOL    HW2 7481   4.082   3.268   2.910 -0.3798  2.1473  0.4182
 1961SOL     OW 7482   5.453   4.000   2.228 -0.0246 -0.6415  0.6498
 1961SOL    HW1 7483   5.485   4.052   2.308 -1.6108 -1.1117  1.6168
 1961SOL    HW2 7484   5.474   4.052   2.145  0.6459  0.3875  1.4322
 1962SOL     OW 7485   2.486   2.978   5.267 -0.2448  0.2550  0.1503
 1962SOL    HW1 7486   2.565   3.031   5.299 -1.5762  0.6413  3.1131
 1962SOL    HW2 7487   2.417   3.040   5.230 -0.8439  0.3919  1.4561
 1963SOL     OW 7488   5.506   6.664   6.519  0.5477 -0.5712 -0.0234
 1963SOL    HW1 7489   5.460   6.598   6.460 -1.2026  1.4418 -1.0580
 1963SOL    HW2 7490   5.560   6.727   6.462 -0.3339  0.7766  0.5854
 1964SOL     OW 7491   4.735   4.040   5.243 -0.5679 -0.2344 -0.3734
 1964SOL    HW1 7492   4.744   4.131   5.284  1.1987 -0.5752  0.0803
 1964SOL    HW2 7493   4.717   4.049   5.145 -1.3195  0.5855 -0.1775
 1965SOL     OW 7494   0.415   3.243   6.148  0.2386  0.1138  0.8588
 1965SOL    HW1 7495   0.496   3.235   6.206  0.2684 -2.2998  0.5689
 1965SOL    HW2 7496   0.333   3.248   6.206  0.4650  1.2806  1.1183
 1966SOL     OW 7497   5.906   6.822   2.565  0.2004 -0.0856 -0.2132
 1966SOL    HW1 7498   5.896   6.733   2.608  0.3410 -0.2880 -0.5970
 1966SOL    HW2 7499   5.861   6.821   2.476 -1.6869  0.8628  0.6486
 1967SOL     OW 7500   6.870   2.842   5.093  0.1771 -0.5650 -0.0515
 1967SOL    HW1 7501   6.864   2.900   5.011  1.7820  1.2985  1.0618
 1967SOL    HW2 7502   6.948   2.870   5.147 -1.3424 -1.1433  2.6024
 1968SOL     OW 7503   0.041   1.821   0.867 -0.1231 -0.5878  0.1925
 1968SOL    HW1 7504   0.021   1.830   0.770 -0.5864  3.0393  0.5061
 1968SOL    HW2 7505   0.140   1.826   0.881 -0.0489 -1.2145 -0.0445
 1969SOL     OW 7506   1.716   3.630   5.826 -0.3543  0.0994 -0.0720
 1969SOL    HW1 7507   1.703   3.729   5.820 -0.4622  0.0013 -2.4973
 1969SOL    HW2 7508   1.769   3.608   5.908 -0.5485  2.1251  0.6444
 1970SOL     OW 7509   1.994   0.695   6.415  0.3327 -0.8326 -0.1096
 1970SOL    HW1 7510   2.001   0.635   6.335  0.8846 -0.7046 -0.1657
 1970SOL    HW2 7511   1.974   0.640   6.496  0.1023 -1.0038 -0.2822
 1971SOL     OW 7512   4.467   3.766   4.130 -0.0429 -0.0582  0.0291
 1971SOL    HW1 7513   4.527   3.795   4.055 -1.6776  3.7940 -0.0026
 1971SOL    HW2 7514   4.499   3.678   4.165  2.6285 -0.5538 -3.1051
 1972SOL     OW 7515   1.248   5.609   1.173 -0.6447 -0.7567  0.2178
 1972SOL    HW1 7516   1.267   5.512   1.158 -2.3496 -0.6422 -4.7385
 1972SOL    HW2 7517   1.152   5.621   1.197 -0.1718 -0.2564  2.0149
 1973SOL     OW 7518   2.494   0.664   6.141 -0.4111 -0.0213 -0.0887
 1973SOL    HW1 7519   2.527   0.614   6.221 -1.3088 -0.3551  0.0825
 1973SOL    HW2 7520   2.566   0.666   6.072  0.1540 -0.2724  0.4781
 1974SOL     OW 7521   5.222   6.865   4.329  0.2088  0.1373  0.2537
 1974SOL    HW1 7522   5.182   6.777   4.355  2.4698 -1.1358 -0.3262
 1974SOL    HW2 7523   5.194   6.889   4.236  1.1378 -1.0003 -0.3440
 1975SOL     OW 7524   6.065   6.521   3.788 -0.0530  0.3562  0.5685
 1975SOL    HW1 7525   6.099   6.427   3.783  0.0366  0.4158  0.0140
 1975SOL    HW2 7526   5.993   6.535   3.720 -0.0313  0.7027  0.6123
 1976SOL     OW 7527   5.789   3.490   3.780 -0.2620  0.6006  0.1657
 1976SOL    HW1 7528   5.884   3.457   3.782 -0.5803 -0.3242  0.1715
 1976SOL    HW2 7529   5.758   3.496   3.686 -0.2911  0.6398  0.1777
 1977SOL     OW 7530   0.257   1.318   4.245  0.5834 -0.0023  0.5373
 1977SOL    HW1 7531   0.245   1.399   4.187 -1.7835 -1.0718 -0.5820
 1977SOL    HW2 7532   0.217   1.335   4.335  0.2509  0.1420  0.3637
 1978SOL     OW 7533   3.920   1.093   3.710  0.2355  0.0538 -0.0501
 1978SOL    HW1 7534   3.882   1.035   3.782  0.2846 -0.0018 -0.0696
 1978SOL    HW2 7535   4.002   1.140   3.744  0.2394  0.0535 -0.0591
 1979SOL     OW 7536   2.602   4.996   5.333  0.4574 -0.3544  0.1207
 1979SOL    HW1 7537   2.657   5.079   5.327 -3.7222  2.6600 -1.5111
 1979SOL    HW2 7538   2.582   4.975   5.429  2.3511 -0.1447  0.5986
 1980SOL     OW 7539   5.101   4.352   1.100 -0.3638  0.2874  0.0611
 1980SOL    HW1 7540   5.090   4.273   1.161 -1.2035 -0.0061 -0.4649
 1980SOL    HW2 7541   5.015   4.403   1.095  0.0526  1.0104  0.0697
 1981SOL     OW 7542   5.920   6.624   5.120 -0.6592 -0.3895  0.1250
 1981SOL    HW1 7543   5.957   6.702   5.169 -0.4844 -0.8728  0.7708
 1981SOL    HW2 7544   5.827   6.645   5.090 -0.9326 -0.2371  1.0400
 1982SOL     OW 7545   1.725   4.931   0.730  0.3282 -0.1972  0.3896
 1982SOL    HW1 7546   1.755   4.892   0.643  1.0829  3.9984 -1.4522
 1982SOL    HW2 7547   1.625   4.930   0.733  0.3123 -1.2989 -0.0479
 1983SOL     OW 7548   1.713   6.896   6.626  0.0139  0.1118  0.1909
 1983SOL    HW1 7549   1.678   6.908   6.533 -0.8539  0.1204  0.5128
 1983SOL    HW2 7550   1.680   6.810   6.663 -0.5016  0.5912  0.8686
 1984SOL     OW 7551   6.944   2.572   4.740  0.1498 -0.1274 -0.3236
 1984SOL    HW1 7552   7.024   2.609   4.693  0.5384  0.3591  0.6874
 1984SOL    HW2 7553   6.888   2.647   4.774  0.1745 -0.4636  0.4729
 1985SOL     OW 7554   3.543   6.823   6.120 -0.0772 -0.1898  0.0217
 1985SOL    HW1 7555   3.493   6.879   6.186 -1.2333 -1.0166 -0.1325
 1985SOL    HW2 7556   3.569   6.879   6.042  0.2748  0.5224  0.6384
 1986SOL     OW 7557   6.887   3.729   2.634  0.1090 -0.0767 -0.6424
 1986SOL    HW1 7558   6.880   3.649   2.694 -0.1469 -0.4283 -1.1302
 1986SOL    HW2 7559   6.800   3.741   2.586  0.7060 -0.5720 -1.8988
 1987SOL     OW 7560   3.093   5.746   6.492 -0.2987 -0.5581 -0.5463
 1987SOL    HW1 7561   3.043   5.712   6.412 -1.6735  0.1381 -0.0300
 1987SOL    HW2 7562   3.031   5.750   6.571  0.4952  0.6103  0.0603
 1988SOL     OW 7563   0.261   1.036   0.014 -0.5067  0.5976  0.0536
 1988SOL    HW1 7564   0.196   1.112   0.025 -0.6816  0.4107  0.3158
 1988SOL    HW2 7565   0.231   0.978  -0.062 -0.8877  0.2689  0.4506
 1989SOL     OW 7566   0.373   1.733   6.753 -0.1650  0.0946  0.0101
 1989SOL    HW1 7567   0.334   1.659   6.696  1.0744 -0.2360 -0.4391
 1989SOL    HW2 7568   0.451   1.773   6.705  1.0485 -0.3328  1.5781
 1990SOL     OW 7569   5.690   2.265   0.345  0.1884 -0.0709  0.1815
 1990SOL    HW1 7570   5.682   2.308   0.256 -0.0952 -1.1198 -0.3115
 1990SOL    HW2 7571   5.599   2.257   0.386  0.0595 -1.4749 -0.3529
 1991SOL     OW 7572   6.652   3.065   0.548 -0.0427  0.0044  0.4734
 1991SOL    HW1 7573   6.688   3.019   0.629 -0.5837 -0.7756  0.2761
 1991SOL    HW2 7574   6.713   3.140   0.523 -0.2072  0.6561  1.9641
 1992SOL     OW 7575   2.538   3.911   5.473 -0.1056  0.3273  0.0403
 1992SOL    HW1 7576   2.637   3.925   5.476 -0.0242 -0.3702  1.5045
 1992SOL    HW2 7577   2.516   3.841   5.405  0.4883 -0.0590  0.2391
 1993SOL     OW 7578   1.403   3.110   5.594 -0.1389 -0.1794 -0.0018
 1993SOL    HW1 7579   1.353   3.025   5.607  1.2305 -0.9480  0.4410
 1993SOL    HW2 7580   1.407   3.132   5.497 -0.7144 -0.4741 -0.0971
 1994SOL     OW 7581   6.829   4.588   3.476  0.6594 -0.5470 -0.7934
 1994SOL    HW1 7582   6.765   4.665   3.477  2.5975  1.1380 -0.0390
 1994SOL    HW2 7583   6.790   4.513   3.530 -0.6832  0.4136 -0.3550
 1995SOL     OW 7584   2.546   2.578   1.998 -0.8563  0.7390  0.4840
 1995SOL    HW1 7585   2.462   2.526   1.980 -0.8783  1.1029 -0.5325
 1995SOL    HW2 7586   2.564   2.639   1.921  1.7652 -1.1940 -0.6033
 1996SOL     OW 7587   1.186   2.433   0.087 -0.0424 -0.4092 -0.8922
 1996SOL    HW1 7588   1.201   2.425  -0.012 -0.2393 -0.2391 -0.9364
 1996SOL    HW2 7589   1.138   2.518   0.107 -0.9586 -0.9437 -0.7595
 1997SOL     OW 7590   6.107   6.205   3.437  0.1119  0.3777 -0.1551
 1997SOL    HW1 7591   6.139   6.297   3.413 -1.2532  0.7833 -0.5155
 1997SOL    HW2 7592   6.069   6.161   3.356  0.4733 -0.3980  0.0847
 1998SOL     OW 7593   5.619   0.896   3.606  0.1129  0.0444  0.3415
 1998SOL    HW1 7594   5.579   0.956   3.537 -0.0277  0.6899  0.9707
 1998SOL    HW2 7595   5.653   0.813   3.562 -4.1293 -1.7575  0.0086
 1999SOL     OW 7596   5.045   3.130   5.694  0.0529 -0.4579 -0.2811
 1999SOL    HW1 7597   5.003   3.125   5.603 -0.5209  1.1875 -0.1420
 1999SOL    HW2 7598   5.020   3.048   5.746 -0.3158 -1.0229 -1.3046
 2000SOL     OW 7599   1.132   2.884   6.872 -0.2661  0.1530  0.3802
 2000SOL    HW1 7600   1.223   2.865   6.834  0.1345 -1.1698  1.9164
 2000SOL    HW2 7601   1.140   2.949   6.947 -0.6098  0.1699  0.4027
 2001SOL     OW 7602   3.632   5.440   0.185 -0.0768  0.2977 -0.2050
 2001SOL    HW1 7603   3.644   5.359   0.242  1.2749  0.1902 -0.5974
 2001SOL    HW2 7604   3.601   5.412   0.094  0.0866  0.2515 -0.2465
 2002SOL     OW 7605   6.997   0.343   3.842  0.3973  0.2088 -0.2944
 2002SOL    HW1 7606   7.051   0.392   3.911 -1.3275  1.2304  0.3914
 2002SOL    HW2 7607   7.056   0.278   3.794  1.6783 -0.6343  2.2047
 2003SOL     OW 7608   0.934   1.675   5.445  0.0102 -0.0052 -0.1087
 2003SOL    HW1 7609   0.937   1.682   5.545  0.0502  1.3418 -0.1778
 2003SOL    HW2 7610   1.024   1.697   5.407 -0.3002  0.6571 -0.4816
 2004SOL     OW 7611   5.908   2.401   4.365  0.9324 -0.2578  0.3214
 2004SOL    HW1 7612   5.837   2.355   4.311  0.3318  0.7087  0.2473
 2004SOL    HW2 7613   5.928   2.348   4.447 -0.9384  0.1265  1.0826
 2005SOL     OW 7614   6.886   5.716   5.552  0.1401 -0.3283 -0.2135
 2005SOL    HW1 7615   6.862   5.731   5.456  1.2729  0.7476 -0.3451
 2005SOL    HW2 7616   6.938   5.631   5.560  1.1857  0.2430 -0.7649
 2006SOL     OW 7617   6.483   2.150   6.667 -0.1077  0.3997  0.2486
 2006SOL    HW1 7618   6.383   2.145   6.670 -0.0522 -1.1904  0.2897
 2006SOL    HW2 7619   6.520   2.144   6.760 -0.0022  3.3100  0.4816
 2007SOL     OW 7620   4.440   6.947   1.528  0.6156  0.3615  0.6727
 2007SOL    HW1 7621   4.352   6.911   1.498  2.0262 -1.5212 -1.6016
 2007SOL    HW2 7622   4.432   6.984   1.621 -2.5271  0.3393  0.5047
 2008SOL     OW 7623   6.563   1.896   5.680  0.0546 -0.3057 -0.0970
 2008SOL    HW1 7624   6.660   1.920   5.682  0.4242 -1.7558  0.5964
 2008SOL    HW2 7625   6.541   1.837   5.758 -1.1732 -0.7762 -0.7631
 2009SOL     OW 7626   4.146   2.649   1.658  0.2557 -0.1792  0.5638
 2009SOL    HW1 7627   4.129   2.609   1.748 -0.2689  0.9154  0.9724
 2009SOL    HW2 7628   4.084   2.726   1.644  0.8744  0.1569 -0.4103
 2010SOL     OW 7629   4.305   0.949   4.310  0.2192  0.3149 -0.4105
 2010SOL    HW1 7630   4.330   0.874   4.250 -0.9864 -1.1620  0.8403
 2010SOL    HW2 7631   4.353   0.939   4.398  0.3457  1.2376 -0.3604
 2011SOL     OW 7632   4.071   4.180   6.697  0.0725  0.3130  0.0929
 2011SOL    HW1 7633   4.058   4.278   6.684 -0.5290  0.1964 -0.2313
 2011SOL    HW2 7634   4.067   4.133   6.609 -1.0699 -0.1507  0.3609
 2012SOL     OW 7635   0.988   6.532   6.570  0.2318  0.1678 -0.6996
 2012SOL    HW1 7636   0.942   6.611   6.530  0.0053  1.1955  1.4424
 2012SOL    HW2 7637   1.045   6.562   6.646  0.8211 -1.6573 -0.3727
 2013SOL     OW 7638   0.501   3.255   4.192 -0.4603  0.4527  0.3222
 2013SOL    HW1 7639   0.466   3.330   4.248 -2.4978 -0.4155  0.3252
 2013SOL    HW2 7640   0.521   3.176   4.251  0.3199  0.5259  0.1615
 2014SOL     OW 7641   4.962   3.497   6.232 -0.1594 -0.0289  0.2704
 2014SOL    HW1 7642   5.037   3.479   6.296 -0.3857  0.3118  0.6346
 2014SOL    HW2 7643   4.971   3.589   6.194  2.1109 -1.4639 -3.1032
 2015SOL     OW 7644   0.974   2.482   3.578  0.6541 -0.1706  0.3377
 2015SOL    HW1 7645   0.883   2.457   3.611  0.3970 -1.3766 -1.1853
 2015SOL    HW2 7646   0.966   2.542   3.499  1.1590 -0.8201 -0.2165
 2016SOL     OW 7647   6.823   3.441   1.448 -0.0427  0.7702  0.2876
 2016SOL    HW1 7648   6.897   3.378   1.470  0.8386  0.7586 -2.3569
 2016SOL    HW2 7649   6.860   3.533   1.434 -0.8615  1.2261  0.9638
 2017SOL     OW 7650   3.562   1.715   1.626 -0.1104  0.0567 -0.9256
 2017SOL    HW1 7651   3.647   1.760   1.655 -0.1948 -0.8076  0.8315
 2017SOL    HW2 7652   3.582   1.621   1.600 -0.7008 -0.6616  1.0521
 2018SOL     OW 7653   0.008   2.986   3.197 -0.3039 -0.1297  0.6636
 2018SOL    HW1 7654   0.020   2.917   3.269 -0.5798 -0.2725  0.5732
 2018SOL    HW2 7655  -0.055   3.057   3.229 -0.4025 -0.1774  0.5751
 2019SOL     OW 7656   0.193   1.288   1.080 -0.1286  0.0801  0.0446
 2019SOL    HW1 7657   0.244   1.374   1.083  2.2493 -1.2444  0.0670
 2019SOL    HW2 7658   0.167   1.261   1.173  0.7876 -0.1355  0.2480
 2020SOL     OW 7659   3.298   4.961   4.511  0.0720 -0.6675 -0.0177
 2020SOL    HW1 7660   3.299   4.996   4.417 -0.2767 -1.4339 -0.3161
 2020SOL    HW2 7661   3.382   4.988   4.558  0.5348 -0.8125 -0.7537
 2021SOL     OW 7662   4.162   4.838   3.034  0.0179 -0.3102 -0.1673
 2021SOL    HW1 7663   4.126   4.817   2.944 -0.7761 -0.7311  0.2367
 2021SOL    HW2 7664   4.113   4.785   3.103 -0.0276  0.6945  0.6059
 2022SOL     OW 7665   1.665   6.415   1.446  0.0345  0.5167 -0.0464
 2022SOL    HW1 7666   1.578   6.463   1.453 -0.9526 -1.3474  1.1171
 2022SOL    HW2 7667   1.654   6.332   1.391  1.1379  0.3800 -0.0912
 2023SOL     OW 7668   4.679   2.198   6.815  0.0533  0.1503 -0.5508
 2023SOL    HW1 7669   4.606   2.265   6.798  0.9840  1.1918 -0.6037
 2023SOL    HW2 7670   4.761   2.246   6.846  1.0864 -0.8596 -1.6077
 2024SOL     OW 7671   0.307   6.310   1.695  0.4825  0.1344 -0.2665
 2024SOL    HW1 7672   0.388   6.315   1.752  0.7167  0.6113 -0.6300
 2024SOL    HW2 7673   0.246   6.238   1.728 -0.4674  1.8355  2.0111
 2025SOL     OW 7674   6.113   6.124   5.585 -0.1957 -0.2245  0.1108
 2025SOL    HW1 7675   6.174   6.162   5.515 -0.5204 -0.4137 -0.2804
 2025SOL    HW2 7676   6.029   6.179   5.590 -1.6243 -2.0278 -1.9518
 2026SOL     OW 7677   4.163   3.933   1.942 -0.1186 -1.0976 -0.3755
 2026SOL    HW1 7678   4.232   3.876   1.986 -0.6511 -1.4756 -0.0259
 2026SOL    HW2 7679   4.138   4.008   2.003  0.0613 -0.8929 -0.5493
 2027SOL     OW 7680   0.497   2.046   4.378  0.2246 -0.0267 -0.2269
 2027SOL    HW1 7681   0.429   2.012   4.312  0.3265 -2.0724  0.6389
 2027SOL    HW2 7682   0.583   1.996   4.366  0.4654  0.0701  0.9565
 2028SOL     OW 7683   1.690   5.901   4.012  0.1293  0.4138 -0.4789
 2028SOL    HW1 7684   1.661   5.978   4.068 -1.5804 -0.4605 -0.0889
 2028SOL    HW2 7685   1.777   5.922   3.968 -0.0615  2.3498 -0.0019
 2029SOL     OW 7686   1.367   5.798   1.005 -0.1397  0.2081 -0.5090
 2029SOL    HW1 7687   1.311   5.735   1.059 -0.8902  3.5458  3.1399
 2029SOL    HW2 7688   1.309   5.847   0.940 -0.4646  0.0926 -0.3106
 2030SOL     OW 7689   5.745   4.525   4.327  0.0002 -0.3011  0.5653
 2030SOL    HW1 7690   5.813   4.595   4.302 -0.4943 -0.0397 -0.0539
 2030SOL    HW2 7691   5.774   4.436   4.291  0.6012 -0.4230  1.3046
 2031SOL     OW 7692   3.669   4.845   3.060  0.1945 -0.1554 -0.3182
 2031SOL    HW1 7693   3.717   4.931   3.078  0.2545 -0.5165  1.3595
 2031SOL    HW2 7694   3.735   4.770   3.056  0.1293 -0.1721 -1.6591
 2032SOL     OW 7695   2.826   5.435   5.263 -0.3640 -0.9947  0.3988
 2032SOL    HW1 7696   2.821   5.535   5.264  1.0467 -0.9018  0.2441
 2032SOL    HW2 7697   2.824   5.400   5.357  1.1236 -0.6825  0.5646
 2033SOL     OW 7698   6.501   2.227   0.365  0.2942 -0.0277 -0.1979
 2033SOL    HW1 7699   6.446   2.217   0.448  0.2975  0.8709 -0.0736
 2033SOL    HW2 7700   6.445   2.205   0.285  0.1926 -0.5624  0.0168
 2034SOL     OW 7701   1.139   2.862   0.821  0.0489  0.0062  0.2279
 2034SOL    HW1 7702   1.071   2.926   0.856  0.4147  1.5999 -1.7290
 2034SOL    HW2 7703   1.210   2.848   0.889 -1.4508 -0.5451  1.7498
 2035SOL     OW 7704   6.058   3.724   1.550 -0.1370  0.2375 -0.1468
 2035SOL    HW1 7705   6.128   3.780   1.593 -0.3707  0.6428 -0.2811
 2035SOL    HW2 7706   6.073   3.627   1.572 -0.1775  0.4242  0.7223
 2036SOL     OW 7707   5.935   2.681   4.013 -0.1512 -0.0965 -0.0275
 2036SOL    HW1 7708   5.989   2.666   4.096 -0.5867  2.2111  0.7644
 2036SOL    HW2 7709   5.882   2.599   3.992  0.9483 -1.1699  1.2258
 2037SOL     OW 7710   3.548   0.450   3.756 -0.0182  0.4563 -0.0174
 2037SOL    HW1 7711   3.611   0.375   3.779  2.2383  2.4684  0.7004
 2037SOL    HW2 7712   3.471   0.449   3.820  1.1521  0.1031  1.4354
 2038SOL     OW 7713   5.568   4.939   6.244  0.1261  0.0566 -0.0201
 2038SOL    HW1 7714   5.590   4.986   6.329 -1.0915  1.9382 -0.6849
 2038SOL    HW2 7715   5.535   5.005   6.177  0.1024 -1.5195 -1.6395
 2039SOL     OW 7716   2.868   4.969   2.402 -0.1748 -0.1567  0.5187
 2039SOL    HW1 7717   2.809   4.898   2.362 -0.6475  0.7539 -0.4634
 2039SOL    HW2 7718   2.890   5.036   2.332  0.1017  0.7799  1.4825
 2040SOL     OW 7719   1.239   5.453   0.480 -0.3107 -0.3928  0.3560
 2040SOL    HW1 7720   1.312   5.396   0.442  0.2432  0.2970  0.3755
 2040SOL    HW2 7721   1.277   5.514   0.549 -0.7966  0.4190 -0.0852
 2041SOL     OW 7722   2.985   5.774   3.983  0.3594  0.5064  0.2513
 2041SOL    HW1 7723   2.974   5.769   3.884 -1.4142 -0.3734  0.4323
 2041SOL    HW2 7724   3.068   5.725   4.010  0.2366 -0.2869 -0.7220
 2042SOL     OW 7725   4.650   4.483   2.528 -0.0032  0.3485  0.2856
 2042SOL    HW1 7726   4.671   4.476   2.625 -0.1283 -0.7320  0.2465
 2042SOL    HW2 7727   4.597   4.566   2.511 -0.3768  0.3110  1.2118
 2043SOL     OW 7728   3.242   6.486   5.104  0.2454  0.5651  0.1770
 2043SOL    HW1 7729   3.256   6.495   5.006  0.1318 -2.1404 -0.1502
 2043SOL    HW2 7730   3.320   6.526   5.152  0.8557  0.9026 -1.0471
 2044SOL     OW 7731   6.961   0.976   1.298 -0.1303  0.1564 -0.5609
 2044SOL    HW1 7732   7.047   0.925   1.300 -0.9347 -1.2514 -0.9351
 2044SOL    HW2 7733   6.934   0.999   1.392 -0.0269 -0.5821 -0.3418
 2045SOL     OW 7734   2.156   0.977   0.321 -0.1451  0.0708  0.3089
 2045SOL    HW1 7735   2.092   0.979   0.398 -2.1210  1.7222 -1.2593
 2045SOL    HW2 7736   2.106   0.992   0.235  1.9661 -1.7041 -1.3629
 2046SOL     OW 7737   4.613   0.800   1.067 -0.6324  0.3078  0.6368
 2046SOL    HW1 7738   4.562   0.825   0.985  1.3508  1.7726 -0.2389
 2046SOL    HW2 7739   4.556   0.814   1.148 -2.1076  0.3601 -0.3842
 2047SOL     OW 7740   1.897   6.464   3.821 -0.2137 -0.2479 -0.6930
 2047SOL    HW1 7741   1.922   6.376   3.781  2.1612 -1.3557  2.7394
 2047SOL    HW2 7742   1.935   6.538   3.765  1.1177 -1.5893 -1.6468
 2048SOL     OW 7743   3.750   3.046   1.910 -0.0811 -0.9783 -0.0338
 2048SOL    HW1 7744   3.787   2.960   1.876 -1.5601 -1.5490 -0.2615
 2048SOL    HW2 7745   3.650   3.045   1.903 -0.0838  1.5710 -2.0435
 2049SOL     OW 7746   6.631   6.893   1.663  0.4226 -0.0516 -0.0379
 2049SOL    HW1 7747   6.699   6.916   1.733 -0.2375 -1.0697  0.9820
 2049SOL    HW2 7748   6.565   6.828   1.701 -0.0180 -0.5556 -1.5945
 2050SOL     OW 7749   5.004   4.341   0.459  0.0055  0.5195  0.3113
 2050SOL    HW1 7750   4.961   4.413   0.404 -0.0545  0.8918  0.8331
 2050SOL    HW2 7751   5.061   4.383   0.530 -1.4796  0.1086  1.8011
 2051SOL     OW 7752   0.290   2.399   3.298 -0.0733  0.4285 -0.6164
 2051SOL    HW1 7753   0.344   2.472   3.340  1.5579 -0.2526 -1.4299
 2051SOL    HW2 7754   0.231   2.357   3.367  0.9505  0.7608  0.4921
 2052SOL     OW 7755   3.694   6.815   2.369  0.4274  0.3408  0.3983
 2052SOL    HW1 7756   3.620   6.862   2.321 -0.3997 -0.2917  1.0251
 2052SOL    HW2 7757   3.720   6.867   2.450 -0.5927 -0.3136  1.1767
 2053SOL     OW 7758   1.205   6.523   5.790 -0.1716  0.2634 -0.2180
 2053SOL    HW1 7759   1.263   6.596   5.755  0.3852  0.1176  0.3654
 2053SOL    HW2 7760   1.212   6.520   5.890  0.0975 -0.8034 -0.2515
 2054SOL     OW 7761   4.327   6.534   4.446 -0.3652 -0.9280  0.2839
 2054SOL    HW1 7762   4.249   6.546   4.384 -0.3516 -3.6753 -0.4267
 2054SOL    HW2 7763   4.298   6.479   4.524  0.2062  0.5188  1.5509
 2055SOL     OW 7764   0.482   3.673   5.600 -0.4910  0.6188 -0.6265
 2055SOL    HW1 7765   0.571   3.628   5.593 -0.5191  0.8392 -4.5994
 2055SOL    HW2 7766   0.493   3.767   5.632  0.5548  0.3339 -0.1280
 2056SOL     OW 7767   1.562   2.699   1.891 -0.0062 -0.4264  0.2090
 2056SOL    HW1 7768   1.491   2.702   1.962  1.0709 -0.7256  1.3360
 2056SOL    HW2 7769   1.528   2.744   1.809 -0.4297  2.2421  1.7144
 2057SOL     OW 7770   3.239   5.585   1.238  0.2109 -0.0463  0.5506
 2057SOL    HW1 7771   3.190   5.547   1.316  1.1190 -1.1789  0.5893
 2057SOL    HW2 7772   3.200   5.549   1.153 -0.2512  0.5569  0.4968
 2058SOL     OW 7773   2.875   3.588   2.881  0.5007  0.1421  0.1566
 2058SOL    HW1 7774   2.817   3.658   2.923 -1.7156  0.2337 -2.7331
 2058SOL    HW2 7775   2.830   3.499   2.890  0.4107  0.0365 -1.1576
 2059SOL     OW 7776   1.746   2.486   1.873  0.0076  0.3495  0.1765
 2059SOL    HW1 7777   1.668   2.548   1.882 -1.1914 -0.8803 -1.1490
 2059SOL    HW2 7778   1.727   2.401   1.922  0.6633  0.1705  0.1219
 2060SOL     OW 7779   2.644   5.296   1.947  0.4713  0.6729 -0.5793
 2060SOL    HW1 7780   2.621   5.341   1.861 -1.1537 -0.8127 -0.9831
 2060SOL    HW2 7781   2.559   5.272   1.995  1.0355 -3.7734 -1.3915
 2061SOL     OW 7782   0.824   1.133   3.883 -0.6052 -0.4009 -0.1653
 2061SOL    HW1 7783   0.832   1.133   3.783  1.8196 -1.7651 -0.0347
 2061SOL    HW2 7784   0.911   1.161   3.923 -1.6202  0.3522  1.5931
 2062SOL     OW 7785   4.726   6.154   4.778 -0.8079  0.2445 -0.0010
 2062SOL    HW1 7786   4.737   6.094   4.858  0.3419 -0.3442 -0.5834
 2062SOL    HW2 7787   4.728   6.250   4.809  0.5479  0.0521  0.6025
 2063SOL     OW 7788   2.744   1.793   1.137  0.6014 -0.1933  1.2115
 2063SOL    HW1 7789   2.736   1.714   1.198 -0.8549  0.0597  1.3716
 2063SOL    HW2 7790   2.716   1.876   1.185 -1.1085 -0.0690  0.0677
 2064SOL     OW 7791   4.690   5.224   4.954  0.6593  0.0916  0.2174
 2064SOL    HW1 7792   4.699   5.160   4.878  3.6092  1.4825 -0.7737
 2064SOL    HW2 7793   4.617   5.289   4.934  0.3930 -0.4698 -0.7098
 2065SOL     OW 7794   1.131   0.837   3.866  0.4331  0.1721  0.3598
 2065SOL    HW1 7795   1.187   0.755   3.875 -0.6903 -0.5365  1.1826
 2065SOL    HW2 7796   1.153   0.901   3.940  1.3579  0.6696 -0.3210
 2066SOL     OW 7797   4.619   2.725   5.837  0.8424  0.3220  0.2569
 2066SOL    HW1 7798   4.542   2.688   5.890  0.8161  2.4716  1.8546
 2066SOL    HW2 7799   4.601   2.712   5.739 -1.4437  0.5598  0.5932
 2067SOL     OW 7800   0.504   4.420   4.224  0.1184 -0.1782 -0.3416
 2067SOL    HW1 7801   0.594   4.438   4.264 -0.5863 -0.0487  1.2478
 2067SOL    HW2 7802   0.503   4.454   4.130  2.0214 -1.0505 -0.7270
 2068SOL     OW 7803   6.383   0.814   0.186  0.2259 -0.0559 -0.3335
 2068SOL    HW1 7804   6.438   0.781   0.264 -0.3591  2.4793  1.2616
 2068SOL    HW2 7805   6.297   0.763   0.183  0.5688 -0.6925  0.1957
 2069SOL     OW 7806   6.350   2.544   2.557 -0.7073 -0.0477  0.2120
 2069SOL    HW1 7807   6.342   2.557   2.458  0.6411  0.3431  0.1274
 2069SOL    HW2 7808   6.408   2.465   2.575 -0.3108  0.3424  0.6778
 2070SOL     OW 7809   0.832   1.947   4.574  0.0180 -0.2627 -0.2645
 2070SOL    HW1 7810   0.889   2.007   4.631 -1.0280 -0.1387  0.6811
 2070SOL    HW2 7811   0.736   1.963   4.595 -0.3124 -1.7084 -0.5811
 2071SOL     OW 7812   3.205   5.371   5.396  0.0744  0.0414 -0.5692
 2071SOL    HW1 7813   3.170   5.347   5.305  0.2612  0.4352 -0.7461
 2071SOL    HW2 7814   3.248   5.291   5.437 -2.2661 -0.9049  0.2518
 2072SOL     OW 7815   2.704   2.061   6.776 -0.1349  0.7272  0.5087
 2072SOL    HW1 7816   2.720   1.969   6.813  0.7543  0.2209 -1.0550
 2072SOL    HW2 7817   2.612   2.092   6.803  0.0516 -0.0566  2.1487
 2073SOL     OW 7818   3.361   0.934   1.133  0.0182 -0.4949  0.1982
 2073SOL    HW1 7819   3.441   0.883   1.164  0.7565  0.7246  0.3657
 2073SOL    HW2 7820   3.316   0.977   1.211 -4.1742 -5.5309  1.0965
 2074SOL     OW 7821   5.177   0.717   1.253 -0.0861  0.0307  0.1329
 2074SOL    HW1 7822   5.267   0.756   1.272 -0.2328  0.7419 -0.5463
 2074SOL    HW2 7823   5.186   0.649   1.180 -0.1282  0.2588 -0.0863
 2075SOL     OW 7824   6.064   0.398   5.254  0.4629 -0.0510  0.0363
 2075SOL    HW1 7825   6.051   0.402   5.354  0.9625  1.3787  0.0621
 2075SOL    HW2 7826   6.081   0.303   5.227 -1.5501 -0.7625  1.0567
 2076SOL     OW 7827   0.139   4.694   0.665  0.3488  0.4103 -0.0642
 2076SOL    HW1 7828   0.185   4.655   0.585  0.7801  2.3062 -0.8103
 2076SOL    HW2 7829   0.205   4.747   0.719 -0.2121  0.1833  0.8625
 2077SOL     OW 7830   0.425   0.780   3.162 -0.1090  0.1619 -0.5666
 2077SOL    HW1 7831   0.329   0.765   3.188  0.3475  0.4336  1.3875
 2077SOL    HW2 7832   0.456   0.703   3.106 -1.0790 -0.5787 -0.1218
 2078SOL     OW 7833   5.199   3.113   3.044 -0.3056 -0.0904 -0.4345
 2078SOL    HW1 7834   5.200   3.172   3.125  0.8667  0.5139 -0.8638
 2078SOL    HW2 7835   5.182   3.018   3.072  0.1925  0.0901  0.5272
 2079SOL     OW 7836   1.045   1.862   2.028  0.4830 -0.2457  0.0484
 2079SOL    HW1 7837   0.953   1.844   2.064  0.3774 -0.3471 -0.2632
 2079SOL    HW2 7838   1.078   1.781   1.979  0.5975 -0.0916 -0.1330
 2080SOL     OW 7839   3.503   0.568   1.823 -0.6233 -0.1130  0.2353
 2080SOL    HW1 7840   3.546   0.501   1.884 -1.9672 -1.0910  0.1402
 2080SOL    HW2 7841   3.502   0.657   1.867 -1.7857 -0.8516  1.7682
 2081SOL     OW 7842   3.213   0.682   3.210 -0.2639  0.3931 -0.5353
 2081SOL    HW1 7843   3.237   0.706   3.304 -0.0020  1.6100 -0.8968
 2081SOL    HW2 7844   3.251   0.592   3.188  1.1316  0.8225 -0.0041
 2082SOL     OW 7845   6.490   0.834   6.947  0.1564  0.5991 -0.1413
 2082SOL    HW1 7846   6.518   0.930   6.948  0.2396  0.5718  0.5639
 2082SOL    HW2 7847   6.457   0.808   7.037  1.7115 -0.4955  0.1475
 2083SOL     OW 7848   3.915   6.736   3.458 -0.7303  0.5060  0.5513
 2083SOL    HW1 7849   3.816   6.746   3.449 -0.5455  0.9535 -1.4854
 2083SOL    HW2 7850   3.960   6.796   3.392  0.8784 -0.1688  0.9985
 2084SOL     OW 7851   5.161   4.727   4.073 -0.0464 -0.1110  0.0270
 2084SOL    HW1 7852   5.199   4.717   3.981 -0.2267  0.1309 -0.0749
 2084SOL    HW2 7853   5.118   4.641   4.100 -0.7478  0.0676 -0.4652
 2085SOL     OW 7854   2.343   5.340   2.341 -0.1195  0.6866 -0.5395
 2085SOL    HW1 7855   2.280   5.417   2.333 -0.4075  0.4680 -0.3778
 2085SOL    HW2 7856   2.291   5.255   2.356  0.2044  0.4885 -0.5260
 2086SOL     OW 7857   1.762   0.805   6.066  0.3329 -0.5601  0.4465
 2086SOL    HW1 7858   1.839   0.831   6.125 -1.6910 -1.9058  3.9908
 2086SOL    HW2 7859   1.784   0.718   6.020  1.3248 -0.3570  0.5062
 2087SOL     OW 7860   0.324   6.982   5.162 -0.2931 -0.5084  0.1277
 2087SOL    HW1 7861   0.380   6.948   5.086  0.0967  2.5571 -1.0858
 2087SOL    HW2 7862   0.227   6.969   5.140 -0.1673 -0.4838 -0.4579
 2088SOL     OW 7863   4.814   2.443   1.788 -0.1635 -0.6397  0.5529
 2088SOL    HW1 7864   4.745   2.493   1.734  0.3295 -0.5511 -0.0011
 2088SOL    HW2 7865   4.793   2.346   1.786 -0.2962 -0.6096  0.4175
 2089SOL     OW 7866   4.564   6.066   2.995  0.0684 -0.1831  0.6328
 2089SOL    HW1 7867   4.472   6.104   2.983  0.2324 -0.1652 -0.7529
 2089SOL    HW2 7868   4.557   5.966   3.005  0.0470 -0.7157 -3.2473
 2090SOL     OW 7869   3.002   0.998   2.922  0.2735 -0.2197 -0.6389
 2090SOL    HW1 7870   2.969   0.908   2.894 -1.9627  0.9330 -2.0838
 2090SOL    HW2 7871   2.979   1.014   3.018 -0.9202 -0.5503 -0.8525
 2091SOL     OW 7872   1.918   0.583   0.178  0.0513  0.5779  0.6298
 2091SOL    HW1 7873   1.993   0.533   0.135 -0.6308  0.2527 -0.1849
 2091SOL    HW2 7874   1.833   0.568   0.128 -0.7160  0.4024  1.9182
 2092SOL     OW 7875   5.938   2.359   1.398  0.6348 -0.0790  0.6454
 2092SOL    HW1 7876   5.917   2.410   1.314 -0.3002 -1.2949  0.1016
 2092SOL    HW2 7877   6.031   2.324   1.394  0.7253  0.2035  0.2793
 2093SOL     OW 7878   6.077   1.828   4.280 -0.4326  0.1809 -0.0262
 2093SOL    HW1 7879   6.062   1.788   4.371  0.0818  0.7054  0.2984
 2093SOL    HW2 7880   6.032   1.771   4.211 -0.7586 -0.2734  0.5441
 2094SOL     OW 7881   7.022   3.665   0.774 -0.0452  0.6641 -0.0591
 2094SOL    HW1 7882   7.112   3.695   0.805  1.1086 -0.2515 -2.2781
 2094SOL    HW2 7883   6.954   3.735   0.796  1.4441  2.0261  0.4035
 2095SOL     OW 7884   6.780   3.163   3.540 -0.7202  0.1429 -0.2834
 2095SOL    HW1 7885   6.802   3.258   3.564  2.6382 -0.5794  0.0354
 2095SOL    HW2 7886   6.818   3.102   3.610 -0.7209 -1.5204 -1.6826
 2096SOL     OW 7887   4.447   4.209   0.695  0.4034 -0.2149  0.3087
 2096SOL    HW1 7888   4.540   4.190   0.725 -0.3576 -0.8448  2.3753
 2096SOL    HW2 7889   4.408   4.284   0.749 -0.5401 -0.4146 -0.0616
 2097SOL     OW 7890   2.616   0.300   1.186 -0.3635 -0.3752  0.0413
 2097SOL    HW1 7891   2.631   0.289   1.088  1.1014 -0.5259  0.2666
 2097SOL    HW2 7892   2.648   0.219   1.234  3.0088  1.3409  0.9978
 2098SOL     OW 7893   4.077   5.577   5.489 -0.5620  0.3485  0.3863
 2098SOL    HW1 7894   3.977   5.570   5.489 -0.4716 -1.4673  1.0246
 2098SOL    HW2 7895   4.104   5.660   5.442 -2.3236 -0.0568 -1.4840
 2099SOL     OW 7896   4.756   2.241   2.311  0.4260  0.0935  0.1857
 2099SOL    HW1 7897   4.724   2.323   2.358  1.8082  0.7875 -0.0273
 2099SOL    HW2 7898   4.690   2.167   2.324 -0.3045  0.9143  1.3184
 2100SOL     OW 7899   6.573   4.765   3.840 -0.0626  0.2690 -0.4585
 2100SOL    HW1 7900   6.577   4.817   3.925 -0.1422  1.6730 -1.2804
 2100SOL    HW2 7901   6.657   4.780   3.787 -0.6014  0.5471 -1.2580
 2101SOL     OW 7902   5.405   3.243   6.936 -0.1346 -0.2925 -0.3294
 2101SOL    HW1 7903   5.473   3.302   6.892  1.7323 -1.8786  0.3086
 2101SOL    HW2 7904   5.377   3.171   6.872 -1.1553  0.2807 -0.5454
 2102SOL     OW 7905   5.969   1.825   2.805 -0.7956  0.2343 -0.8416
 2102SOL    HW1 7906   5.906   1.753   2.774 -0.8241  0.1714 -0.6375
 2102SOL    HW2 7907   6.063   1.797   2.786 -0.8676  0.9037 -2.3975
 2103SOL     OW 7908   6.186   4.585   5.578  0.0111 -0.1197  0.5100
 2103SOL    HW1 7909   6.223   4.659   5.521 -1.2226  0.6994  0.7239
 2103SOL    HW2 7910   6.155   4.623   5.665 -0.4343 -0.9270  0.7162
 2104SOL     OW 7911   3.056   2.169   5.825  0.0496 -0.3336 -0.0383
 2104SOL    HW1 7912   3.138   2.147   5.878 -1.0688  0.0989  1.9923
 2104SOL    HW2 7913   3.000   2.234   5.876 -1.2912 -0.1731 -1.6261
 2105SOL     OW 7914   0.817   4.418   2.207 -0.1906  0.5466 -0.1276
 2105SOL    HW1 7915   0.914   4.395   2.202 -0.0753  1.2160 -1.2473
 2105SOL    HW2 7916   0.806   4.516   2.221 -0.7019  0.4269  0.3154
 2106SOL     OW 7917   5.698   3.339   5.636 -0.1758 -0.0423 -0.1284
 2106SOL    HW1 7918   5.735   3.420   5.590 -1.8744  0.9989  0.2522
 2106SOL    HW2 7919   5.647   3.283   5.570  1.0747 -0.8818 -0.4115
 2107SOL     OW 7920   4.893   5.377   3.073  0.2920  0.5985 -0.2375
 2107SOL    HW1 7921   4.855   5.285   3.064 -0.4341  0.9280 -0.6431
 2107SOL    HW2 7922   4.955   5.381   3.151 -2.3630  0.6615  2.0187
 2108SOL     OW 7923   1.368   4.572   2.154  0.3520 -0.0368 -0.7029
 2108SOL    HW1 7924   1.453   4.520   2.166 -0.3322 -0.8287  0.9511
 2108SOL    HW2 7925   1.324   4.585   2.242 -0.7958  1.1751 -1.4222
 2109SOL     OW 7926   3.574   4.415   1.863 -0.2997  0.4864  0.2812
 2109SOL    HW1 7927   3.494   4.367   1.898  1.3785 -3.7050 -0.9477
 2109SOL    HW2 7928   3.651   4.402   1.927  0.0838  2.3758  0.2804
 2110SOL     OW 7929   1.504   1.575   6.126 -0.1807 -0.5814  0.1793
 2110SOL    HW1 7930   1.423   1.576   6.067  1.2445 -1.0577 -1.8999
 2110SOL    HW2 7931   1.542   1.482   6.128 -1.2181 -1.0820  3.4721
 2111SOL     OW 7932   4.953   6.300   5.763 -0.3906 -0.0307 -0.4066
 2111SOL    HW1 7933   4.864   6.326   5.726 -0.2187 -0.9003 -1.4807
 2111SOL    HW2 7934   4.953   6.202   5.784  0.8849 -0.4823 -2.2455
 2112SOL     OW 7935   2.379   6.371   4.586  0.6757 -0.3049  0.3701
 2112SOL    HW1 7936   2.462   6.382   4.532 -0.3367  1.2152 -0.9911
 2112SOL    HW2 7937   2.353   6.459   4.625  0.5674 -1.0917  2.1631
 2113SOL     OW 7938   1.603   6.509   5.717 -0.0454 -0.1992 -0.1165
 2113SOL    HW1 7939   1.664   6.581   5.751 -0.6701 -0.3989  1.4815
 2113SOL    HW2 7940   1.649   6.420   5.724  0.7859 -0.0137 -2.2333
 2114SOL     OW 7941   5.423   5.565   1.736  0.0577 -0.0886 -0.0347
 2114SOL    HW1 7942   5.330   5.601   1.734  0.0245 -0.2031 -0.6306
 2114SOL    HW2 7943   5.430   5.488   1.673  0.0281 -1.3824  1.4924
 2115SOL     OW 7944   6.180   5.145   0.480 -0.2967  0.3103  0.1296
 2115SOL    HW1 7945   6.108   5.078   0.462 -0.8623  0.9668 -0.0523
 2115SOL    HW2 7946   6.227   5.168   0.395 -0.8749  1.0183 -0.0065
 2116SOL     OW 7947   1.631   4.603   1.663  0.5590  0.0882  0.3575
 2116SOL    HW1 7948   1.715   4.608   1.717  1.8843 -0.3899 -1.5690
 2116SOL    HW2 7949   1.615   4.690   1.617 -0.0689  0.2123  0.8086
 2117SOL     OW 7950   1.458   4.067   6.522  0.4198 -0.8190  0.0830
 2117SOL    HW1 7951   1.402   4.122   6.584  0.5109  0.9723 -1.3286
 2117SOL    HW2 7952   1.531   4.022   6.574  0.4227  0.5053  1.3064
 2118SOL     OW 7953   5.570   5.250   0.690 -0.0391 -0.1227  0.2143
 2118SOL    HW1 7954   5.578   5.350   0.688  0.0323 -0.1338 -0.0951
 2118SOL    HW2 7955   5.488   5.225   0.742 -1.2510  0.1669 -1.4792
 2119SOL     OW 7956   0.785   1.814   2.096 -0.1703 -0.3728  0.0569
 2119SOL    HW1 7957   0.749   1.898   2.056 -0.7065 -0.9817 -0.7657
 2119SOL    HW2 7958   0.808   1.830   2.192 -3.5920 -0.1750  0.9818
 2120SOL     OW 7959   2.116   3.038   2.167  0.3264  0.9244 -0.2282
 2120SOL    HW1 7960   2.149   2.945   2.180 -2.3467 -0.0355  0.0627
 2120SOL    HW2 7961   2.171   3.101   2.222  2.0319 -0.4631 -0.2654
 2121SOL     OW 7962   1.588   6.505   6.474  0.6088 -0.5026 -0.0593
 2121SOL    HW1 7963   1.541   6.427   6.517 -0.5747  0.5432  0.6139
 2121SOL    HW2 7964   1.580   6.497   6.375 -2.6199  0.4881 -0.0018
 2122SOL     OW 7965   5.906   4.155   4.768 -0.2928 -0.8000 -0.8974
 2122SOL    HW1 7966   5.858   4.070   4.791  0.3479 -0.8817  0.2344
 2122SOL    HW2 7967   5.948   4.146   4.678 -0.2099 -1.7045 -0.7833
 2123SOL     OW 7968   0.851   0.617   6.495 -0.1635 -0.0481  0.2547
 2123SOL    HW1 7969   0.771   0.674   6.512 -0.4352  0.0574 -1.2618
 2123SOL    HW2 7970   0.823   0.522   6.481 -0.0317 -0.0088 -0.2960
 2124SOL     OW 7971   3.087   0.556   6.818  0.3292  0.2662 -0.5164
 2124SOL    HW1 7972   3.071   0.467   6.860 -1.5948  1.3548  1.2318
 2124SOL    HW2 7973   3.030   0.564   6.736 -0.9090  0.5127  0.3353
 2125SOL     OW 7974   6.905   2.221   5.453 -0.1524  0.3821  0.1171
 2125SOL    HW1 7975   6.964   2.227   5.372  2.6582 -0.6183  1.9463
 2125SOL    HW2 7976   6.860   2.131   5.455 -1.3950  0.9384 -0.9898
 2126SOL     OW 7977   0.268   0.686   5.218 -0.4444 -0.1909  0.0812
 2126SOL    HW1 7978   0.173   0.668   5.243 -0.7287  0.1552 -0.7261
 2126SOL    HW2 7979   0.271   0.756   5.147  0.3336 -1.0441 -0.7502
 2127SOL     OW 7980   0.765   5.050   0.137 -0.0115 -0.3291  0.2748
 2127SOL    HW1 7981   0.862   5.054   0.114  0.0228  1.1061  0.5408
 2127SOL    HW2 7982   0.750   4.986   0.212  0.6536 -0.9016 -0.0729
 2128SOL     OW 7983   0.031   5.732   4.251  0.2785  0.4198 -0.1765
 2128SOL    HW1 7984  -0.020   5.652   4.221 -1.1523  1.2513 -0.0656
 2128SOL    HW2 7985   0.051   5.724   4.349  1.6508 -0.5631 -0.5119
 2129SOL     OW 7986   5.844   1.904   5.620  0.3979 -0.1127 -0.3861
 2129SOL    HW1 7987   5.752   1.876   5.648  0.3974  1.8844  1.8279
 2129SOL    HW2 7988   5.904   1.824   5.620 -0.6341 -0.9403  1.1437
 2130SOL     OW 7989   1.356   0.849   2.111  0.2100 -0.1757  0.4878
 2130SOL    HW1 7990   1.385   0.820   2.202  3.6182  1.0584 -0.0379
 2130SOL    HW2 7991   1.385   0.782   2.044 -0.5048 -0.1287  0.1226
 2131SOL     OW 7992   2.060   6.769   3.463  0.0085 -0.2750 -0.2360
 2131SOL    HW1 7993   1.969   6.805   3.483  0.2923 -0.3489  1.3537
 2131SOL    HW2 7994   2.072   6.681   3.508  1.0241 -0.0500 -0.0373
 2132SOL     OW 7995   3.200   0.164   3.990  0.6484 -0.0699 -0.4971
 2132SOL    HW1 7996   3.175   0.070   3.965  1.9966 -0.5165 -0.2777
 2132SOL    HW2 7997   3.125   0.207   4.040 -0.0587 -0.9679 -0.7606
 2133SOL     OW 7998   3.905   0.966   0.752  0.5091 -0.2123 -0.1526
 2133SOL    HW1 7999   3.944   1.050   0.716  2.0350 -0.9651 -0.3161
 2133SOL    HW2 8000   3.832   0.934   0.691 -0.1313  1.0009 -0.0489
 2134SOL     OW 8001   1.661   0.445   6.109  0.1683 -0.1243  0.3102
 2134SOL    HW1 8002   1.741   0.494   6.075  0.0708  0.3131  0.6910
 2134SOL    HW2 8003   1.621   0.389   6.036 -1.2175  2.3031 -0.9156
 2135SOL     OW 8004   5.450   4.348   3.101 -0.2547  0.0083  0.0382
 2135SOL    HW1 8005   5.523   4.371   3.166  0.6747 -1.4794 -0.4181
 2135SOL    HW2 8006   5.404   4.264   3.131  0.5179 -0.9823 -1.4498
 2136SOL     OW 8007   6.493   3.659   6.181  0.3501  0.4503 -0.9018
 2136SOL    HW1 8008   6.495   3.651   6.081  1.6088 -0.3645 -0.8422
 2136SOL    HW2 8009   6.585   3.643   6.217  0.0421  1.3356  0.3613
 2137SOL     OW 8010   1.325   2.209   2.124 -0.4179 -0.0161  0.0924
 2137SOL    HW1 8011   1.410   2.167   2.154  0.8646  1.3751 -1.4323
 2137SOL    HW2 8012   1.250   2.178   2.183  0.9280 -2.0838  0.8331
 2138SOL     OW 8013   2.393   3.570   6.493  0.1462 -0.7440  0.1897
 2138SOL    HW1 8014   2.476   3.607   6.536 -0.2858  0.5469 -0.0529
 2138SOL    HW2 8015   2.418   3.493   6.434  1.6378  1.3967 -2.1857
 2139SOL     OW 8016   1.456   5.075   3.984  0.0445 -0.1680 -0.3296
 2139SOL    HW1 8017   1.448   5.108   4.078  0.0072 -0.0980 -0.3579
 2139SOL    HW2 8018   1.367   5.077   3.940  0.1397  0.2101 -0.5063
 2140SOL     OW 8019   5.767   6.787   2.297 -0.5351 -0.2089  0.4247
 2140SOL    HW1 8020   5.705   6.710   2.285 -0.7341  0.0022  0.0560
 2140SOL    HW2 8021   5.788   6.826   2.207 -0.2207 -0.0041  0.5868
 2141SOL     OW 8022   6.003   1.776   3.912 -0.3977 -0.2941  0.3767
 2141SOL    HW1 8023   5.941   1.742   3.983 -0.2953 -2.1639 -0.3534
 2141SOL    HW2 8024   6.073   1.706   3.893  1.3138  1.3266  0.4324
 2142SOL     OW 8025   1.110   3.254   1.327  0.3043 -0.3090 -0.2944
 2142SOL    HW1 8026   1.074   3.346   1.310 -0.9035 -0.8380 -0.6962
 2142SOL    HW2 8027   1.039   3.198   1.370  0.6920 -1.3384 -0.9600
 2143SOL     OW 8028   2.104   5.207   6.807  0.1761 -0.0407  0.4693
 2143SOL    HW1 8029   2.142   5.222   6.899  1.0949  0.4217  0.0243
 2143SOL    HW2 8030   2.137   5.121   6.770  0.4027  0.1244  0.2819
 2144SOL     OW 8031   2.569   4.328   4.850  0.4773  0.2203  0.5589
 2144SOL    HW1 8032   2.495   4.312   4.784  1.7413 -1.2116 -0.5741
 2144SOL    HW2 8033   2.620   4.243   4.865  1.8696  1.1578  1.3609
 2145SOL     OW 8034   2.895   0.695   0.784 -0.6816 -0.6589 -0.5002
 2145SOL    HW1 8035   2.939   0.731   0.866 -0.0722 -0.7658 -0.7780
 2145SOL    HW2 8036   2.824   0.629   0.811 -1.7713  0.6592  0.0142
 2146SOL     OW 8037   0.044   4.502   2.427 -0.0954 -0.3894  0.6294
 2146SOL    HW1 8038  -0.033   4.474   2.485 -0.5170  0.1477  0.3409
 2146SOL    HW2 8039   0.054   4.437   2.352 -0.2590 -0.4710  0.6777
 2147SOL     OW 8040   6.205   1.332   3.100 -0.3484 -0.0134 -0.4009
 2147SOL    HW1 8041   6.239   1.238   3.106 -0.5478 -0.0583  0.0358
 2147SOL    HW2 8042   6.275   1.389   3.056  1.2688  0.3558  2.4078
 2148SOL     OW 8043   5.760   3.102   4.134  0.1886  0.6275  0.1482
 2148SOL    HW1 8044   5.836   3.161   4.160  1.9790 -0.4769 -2.2409
 2148SOL    HW2 8045   5.722   3.132   4.047 -0.2657 -0.4895 -0.0583
 2149SOL     OW 8046   6.526   2.907   5.788 -0.0835 -0.2534 -0.2151
 2149SOL    HW1 8047   6.623   2.888   5.770  0.0788 -1.5345  1.6577
 2149SOL    HW2 8048   6.495   2.850   5.864 -2.1577  0.6054 -0.3526
 2150SOL     OW 8049   5.550   2.510   1.148 -0.0080  0.0270  0.0206
 2150SOL    HW1 8050   5.589   2.582   1.090  1.8133 -0.5997  0.4056
 2150SOL    HW2 8051   5.545   2.425   1.098  0.2524 -0.1800  0.3392
 2151SOL     OW 8052   1.092   1.631   3.078 -0.3919  0.2096  0.1983
 2151SOL    HW1 8053   1.158   1.561   3.106  0.7020  1.3100  0.4485
 2151SOL    HW2 8054   1.000   1.591   3.074 -0.0305 -0.8637  1.8388
 2152SOL     OW 8055   6.280   1.272   1.720  0.1368 -0.2338 -0.6048
 2152SOL    HW1 8056   6.263   1.179   1.750 -1.6516  0.0417 -0.6452
 2152SOL    HW2 8057   6.335   1.271   1.636  1.3282 -1.1576  0.1443
 2153SOL     OW 8058   1.535   3.689   2.618  0.0409 -0.2033  0.0213
 2153SOL    HW1 8059   1.553   3.745   2.699  0.2930  0.8961 -0.7697
 2153SOL    HW2 8060   1.588   3.604   2.624  2.4101  1.1743 -0.3424
 2154SOL     OW 8061   4.529   3.691   0.255 -0.7304 -0.1713  0.2313
 2154SOL    HW1 8062   4.622   3.656   0.243  0.1421  1.6620  1.1423
 2154SOL    HW2 8063   4.507   3.754   0.180  0.2500  2.2479  1.8499
 2155SOL     OW 8064   5.809   4.870   5.191  0.0952  0.3515  0.3438
 2155SOL    HW1 8065   5.873   4.796   5.169  2.4420  2.4014 -0.1117
 2155SOL    HW2 8066   5.732   4.832   5.242  0.2896 -2.6841 -1.3378
 2156SOL     OW 8067   1.479   5.215   0.835 -0.5361  0.2540 -0.3783
 2156SOL    HW1 8068   1.386   5.253   0.836 -0.2842  0.9993 -1.9339
 2156SOL    HW2 8069   1.477   5.126   0.789 -0.7493 -0.5665  1.1810
 2157SOL     OW 8070   4.155   2.492   6.001 -0.4105 -0.2057 -0.0456
 2157SOL    HW1 8071   4.252   2.514   6.008 -0.5763  0.3735  0.4516
 2157SOL    HW2 8072   4.128   2.434   6.079 -0.6267  0.2379  0.2103
 2158SOL     OW 8073   0.038   5.880   0.267  0.5812 -0.2604 -0.0108
 2158SOL    HW1 8074  -0.017   5.798   0.253  1.9509 -0.9054 -1.9102
 2158SOL    HW2 8075   0.125   5.872   0.218  1.7142  1.4027  1.5900
 2159SOL     OW 8076   6.045   1.654   5.446 -0.1329  0.0302  0.5323
 2159SOL    HW1 8077   5.973   1.647   5.515  0.0858 -0.7231  0.6951
 2159SOL    HW2 8078   6.025   1.592   5.370  1.2072 -1.5603  1.3963
 2160SOL     OW 8079   6.637   1.429   5.676 -0.0356 -0.3047 -0.4598
 2160SOL    HW1 8080   6.651   1.503   5.610 -2.0701  1.1877  0.6548
 2160SOL    HW2 8081   6.656   1.463   5.768 -3.3787 -0.2828  0.3459
 2161SOL     OW 8082   5.613   6.937   5.029  0.3292 -0.7737  0.1138
 2161SOL    HW1 8083   5.535   6.999   5.028  0.4713 -0.5977 -0.6409
 2161SOL    HW2 8084   5.678   6.963   4.957  1.0219 -0.9929  0.6481
 2162SOL     OW 8085   6.561   0.501   0.304 -0.3155  0.4808  0.2412
 2162SOL    HW1 8086   6.538   0.568   0.374  0.3328 -0.0679  0.9988
 2162SOL    HW2 8087   6.476   0.463   0.266 -0.7127 -0.4694  1.9710
 2163SOL     OW 8088   4.061   6.812   2.577 -0.6099  0.2197  0.2525
 2163SOL    HW1 8089   4.094   6.786   2.668 -1.4494 -0.8447  0.2656
 2163SOL    HW2 8090   4.029   6.731   2.528  0.8086  0.6108 -1.4330
 2164SOL     OW 8091   2.109   0.756   1.838  0.7095  0.2343 -0.2992
 2164SOL    HW1 8092   2.065   0.707   1.763  0.1171 -0.2707  0.3642
 2164SOL    HW2 8093   2.142   0.690   1.906 -2.9135  0.6936  2.2144
 2165SOL     OW 8094   5.242   5.524   2.908 -0.1595  0.3806 -0.4049
 2165SOL    HW1 8095   5.238   5.586   2.830 -1.7457  1.5107  0.5138
 2165SOL    HW2 8096   5.150   5.508   2.943  0.3395 -1.5096  0.1809
 2166SOL     OW 8097   5.052   0.250   6.853  0.3227 -0.1444  0.9061
 2166SOL    HW1 8098   5.148   0.251   6.878  0.8582  1.7893 -0.9314
 2166SOL    HW2 8099   4.996   0.239   6.935  2.0080  3.2921  2.7106
 2167SOL     OW 8100   6.038   6.891   5.601 -0.1910  0.3603  0.0435
 2167SOL    HW1 8101   6.087   6.889   5.688  0.2358  1.0202 -0.1767
 2167SOL    HW2 8102   6.075   6.819   5.542 -0.8430 -0.4412  0.5838
 2168SOL     OW 8103   0.027   4.681   6.382 -0.5376  0.4088  0.1906
 2168SOL    HW1 8104   0.029   4.779   6.361  1.9959  0.8326  1.9623
 2168SOL    HW2 8105   0.120   4.646   6.389 -1.3606 -1.8481  0.8866
 2169SOL     OW 8106   1.551   3.117   6.805 -0.4289  0.0069 -0.5646
 2169SOL    HW1 8107   1.651   3.122   6.806 -0.4731  0.9167 -0.1394
 2169SOL    HW2 8108   1.518   3.104   6.899 -0.8412  2.9007 -0.2315
 2170SOL     OW 8109   1.471   5.429   3.316 -0.1531 -0.1510 -0.0473
 2170SOL    HW1 8110   1.441   5.476   3.399 -0.8383 -0.0619 -0.3348
 2170SOL    HW2 8111   1.566   5.399   3.326  0.1523  0.9111  0.3041
 2171SOL     OW 8112   3.234   6.115   4.476  0.2008 -0.1431 -0.4173
 2171SOL    HW1 8113   3.331   6.112   4.455 -0.1268 -0.2360 -2.1040
 2171SOL    HW2 8114   3.211   6.204   4.516  0.6076  0.8401 -2.2474
 2172SOL     OW 8115   3.470   0.213   3.038  0.0890 -0.1424  0.0969
 2172SOL    HW1 8116   3.438   0.141   3.099 -0.8427  0.5241  0.4088
 2172SOL    HW2 8117   3.393   0.271   3.011  0.7818  0.5889 -0.3535
 2173SOL     OW 8118   6.555   2.007   1.161 -0.2673 -0.4580  0.6420
 2173SOL    HW1 8119   6.593   2.090   1.119 -0.7487 -0.7638 -0.4334
 2173SOL    HW2 8120   6.621   1.969   1.225 -0.6732  1.6538  2.4249
 2174SOL     OW 8121   0.878   5.000   6.856  0.0919  0.1290  0.2242
 2174SOL    HW1 8122   0.797   5.050   6.886 -0.7444 -0.9290 -0.1911
 2174SOL    HW2 8123   0.863   4.964   6.764  1.3278  0.5252 -0.1566
 2175SOL     OW 8124   0.473   5.387   0.823 -0.0911 -0.7418  0.6234
 2175SOL    HW1 8125   0.548   5.342   0.871  1.2897 -3.0621 -3.2884
 2175SOL    HW2 8126   0.411   5.317   0.786 -0.4137  0.7673 -1.8877
 2176SOL     OW 8127   2.074   5.914   0.002  0.1085  0.3765 -0.0173
 2176SOL    HW1 8128   2.052   5.966  -0.080 -1.6036 -1.1743 -0.6187
 2176SOL    HW2 8129   2.072   5.975   0.081  0.3300  1.6105 -0.9263
 2177SOL     OW 8130   0.766   2.774   0.446  0.2470 -0.2731 -0.3748
 2177SOL    HW1 8131   0.777   2.869   0.475  0.4393 -0.1632 -0.7989
 2177SOL    HW2 8132   0.815   2.759   0.360 -2.3942  0.1175 -2.0870
 2178SOL     OW 8133   3.724   3.895   5.173 -0.0156 -0.1772 -0.5285
 2178SOL    HW1 8134   3.753   3.803   5.199 -0.3036  0.7798  4.0068
 2178SOL    HW2 8135   3.801   3.958   5.181 -0.5390  0.4656 -0.4394
 2179SOL     OW 8136   1.689   1.811   0.419 -0.3144  0.0907 -0.0625
 2179SOL    HW1 8137   1.650   1.869   0.347  0.9349  0.5671 -0.3802
 2179SOL    HW2 8138   1.766   1.759   0.382  0.2349  0.2055  0.8695
 2180SOL     OW 8139   0.390   6.689   0.827  0.2151 -0.2424  0.3916
 2180SOL    HW1 8140   0.436   6.753   0.889 -0.2091  0.4480  0.0125
 2180SOL    HW2 8141   0.435   6.600   0.830  2.8290  0.8973 -1.3990
 2181SOL     OW 8142   5.958   4.725   2.500  1.0010  0.0950  0.4364
 2181SOL    HW1 8143   5.890   4.689   2.564 -1.2914  0.0797 -1.8422
 2181SOL    HW2 8144   5.968   4.824   2.514  0.6855  0.0585  0.9480
 2182SOL     OW 8145   6.981   1.017   6.554 -0.0411 -0.4621  0.2656
 2182SOL    HW1 8146   6.936   1.105   6.539 -2.2640 -1.5343  0.2579
 2182SOL    HW2 8147   6.975   0.961   6.471  0.4993 -0.9704  0.5609
 2183SOL     OW 8148   0.294   5.524   1.875  0.2644 -0.0119 -0.5813
 2183SOL    HW1 8149   0.378   5.470   1.876  1.4908  1.8050 -0.8420
 2183SOL    HW2 8150   0.315   5.619   1.851 -1.6875  0.8039  0.6519
 2184SOL     OW 8151   6.498   6.384   3.956  0.1344  0.5992  0.0750
 2184SOL    HW1 8152   6.419   6.376   4.016  0.1850 -1.2030 -0.0366
 2184SOL    HW2 8153   6.475   6.443   3.878 -1.0189  0.3081  0.1710
 2185SOL     OW 8154   2.589   0.927   2.850 -0.2913  0.4797  0.2262
 2185SOL    HW1 8155   2.644   0.879   2.781  1.1554  0.3293  1.4359
 2185SOL    HW2 8156   2.630   0.915   2.940 -1.0997  2.2197  0.8772
 2186SOL     OW 8157   6.899   3.846   5.613  0.0065  0.1962 -0.0373
 2186SOL    HW1 8158   6.964   3.918   5.588 -1.6899  0.9338 -2.6819
 2186SOL    HW2 8159   6.920   3.763   5.561  0.2447 -0.3282  0.8837
 2187SOL     OW 8160   1.568   2.835   6.595  0.1053 -0.4033  0.0274
 2187SOL    HW1 8161   1.499   2.765   6.575 -0.0786  0.1737 -1.4696
 2187SOL    HW2 8162   1.545   2.919   6.546  0.3594  0.7026  1.7533
 2188SOL     OW 8163   1.747   4.421   4.324  0.7380 -0.5126 -0.0313
 2188SOL    HW1 8164   1.739   4.337   4.377 -3.3618 -0.5743 -0.4189
 2188SOL    HW2 8165   1.720   4.499   4.380  0.4301 -0.0246 -0.8415
 2189SOL     OW 8166   2.570   3.952   6.315 -0.4268  0.7266 -0.1504
 2189SOL    HW1 8167   2.617   4.010   6.249 -0.0081  0.4921 -0.0688
 2189SOL    HW2 8168   2.638   3.903   6.370 -0.7602  1.1380  0.6493
 2190SOL     OW 8169   6.258   3.401   5.788  0.1486  0.0884  0.6487
 2190SOL    HW1 8170   6.220   3.351   5.709  3.1762 -1.0444 -0.2372
 2190SOL    HW2 8171   6.226   3.495   5.786 -2.6956 -0.7773  0.1612
 2191SOL     OW 8172   6.271   5.271   5.051 -0.0735  0.2352 -0.0649
 2191SOL    HW1 8173   6.241   5.207   5.121  1.8125  0.7664  1.2891
 2191SOL    HW2 8174   6.299   5.220   4.969  0.0159 -0.5661  0.4539
 2192SOL     OW 8175   5.308   0.653   6.958  0.2737  0.1465  0.3069
 2192SOL    HW1 8176   5.346   0.700   6.879 -0.0276  1.5194  0.9480
 2192SOL    HW2 8177   5.301   0.717   7.035 -0.7158 -0.7943  1.0327
 2193SOL     OW 8178   4.642   6.600   0.498 -0.1675  0.2069  0.4785
 2193SOL    HW1 8179   4.597   6.585   0.410 -2.2643 -0.2133  1.5565
 2193SOL    HW2 8180   4.670   6.512   0.536 -2.2127  0.0101  1.6575
 2194SOL     OW 8181   0.553   0.315   5.108  0.9599  0.0824 -0.0372
 2194SOL    HW1 8182   0.520   0.240   5.051 -0.5069  1.2763 -0.8253
 2194SOL    HW2 8183   0.561   0.284   5.203  1.6099 -1.3965 -0.5428
 2195SOL     OW 8184   1.080   2.574   1.537 -0.0359 -0.7963 -0.4992
 2195SOL    HW1 8185   1.088   2.593   1.635  0.5611 -0.4005 -0.6199
 2195SOL    HW2 8186   0.985   2.585   1.509 -0.8996 -4.1478  0.6780
 2196SOL     OW 8187   2.741   4.329   2.085 -0.1245 -0.2320  0.2659
 2196SOL    HW1 8188   2.740   4.244   2.137 -0.7829 -0.3368  0.0826
 2196SOL    HW2 8189   2.743   4.407   2.148  0.7655 -0.3768  0.4322
 2197SOL     OW 8190   6.028   4.760   2.862  0.4398 -0.0363 -0.1174
 2197SOL    HW1 8191   6.126   4.771   2.874  0.2930 -0.6570  2.0270
 2197SOL    HW2 8192   5.996   4.683   2.917 -1.3473  0.5268 -0.2992
 2198SOL     OW 8193   0.786   1.965   0.025 -0.8764 -0.0624 -0.4570
 2198SOL    HW1 8194   0.746   2.042   0.074 -1.7626 -1.1357  0.5678
 2198SOL    HW2 8195   0.836   1.998  -0.055 -1.6063  1.5289 -0.2832
 2199SOL     OW 8196   0.070   3.195   3.639  0.2546  0.2294 -0.0601
 2199SOL    HW1 8197   0.075   3.295   3.641  1.4710  0.2639 -2.1382
 2199SOL    HW2 8198   0.032   3.162   3.725  0.4714  2.4347  0.9487
 2200SOL     OW 8199   3.791   5.728   2.426  0.2461 -0.4312  0.2378
 2200SOL    HW1 8200   3.846   5.805   2.393  1.9691 -1.8609 -0.4423
 2200SOL    HW2 8201   3.811   5.710   2.522  1.8003 -1.5464 -0.2536
 2201SOL     OW 8202   1.026   6.487   4.073  0.0472 -0.0307 -0.1942
 2201SOL    HW1 8203   0.968   6.568   4.074  0.4987  0.2933  0.7420
 2201SOL    HW2 8204   1.122   6.516   4.074  0.2333 -0.5503  2.3375
 2202SOL     OW 8205   6.826   0.648   6.496  0.3353  0.0577 -0.2209
 2202SOL    HW1 8206   6.807   0.680   6.589 -0.4066 -0.6336 -0.1310
 2202SOL    HW2 8207   6.924   0.658   6.477  0.3414  1.1240  0.2760
 2203SOL     OW 8208   3.345   5.010   6.205  0.1321 -0.0766  0.6070
 2203SOL    HW1 8209   3.342   5.108   6.224 -0.7576 -0.2196  1.2710
 2203SOL    HW2 8210   3.422   4.990   6.144 -0.3846  1.1995 -0.5058
 2204SOL     OW 8211   5.211   4.883   1.487  0.2201  0.4367  0.3192
 2204SOL    HW1 8212   5.167   4.810   1.434  1.8302  0.4884 -1.1970
 2204SOL    HW2 8213   5.290   4.918   1.436  1.3190  1.1384  2.3768
 2205SOL     OW 8214   2.513   4.510   4.563  0.1096  0.2890  0.0799
 2205SOL    HW1 8215   2.610   4.487   4.554  0.2377  1.0096 -0.4560
 2205SOL    HW2 8216   2.465   4.434   4.606  0.9948  0.1241  0.8018
 2206SOL     OW 8217   1.077   0.893   1.590 -1.2822 -0.0087  0.3171
 2206SOL    HW1 8218   1.085   0.896   1.689 -0.3531 -1.3199  0.3041
 2206SOL    HW2 8219   1.128   0.969   1.550 -1.1690  0.1768  0.8096
 2207SOL     OW 8220   5.038   4.307   1.507 -0.0904 -0.3942 -0.1519
 2207SOL    HW1 8221   5.044   4.378   1.436  0.6253 -1.4400 -1.1800
 2207SOL    HW2 8222   5.022   4.218   1.463  1.8452 -1.2990  0.8695
 2208SOL     OW 8223   6.948   3.515   6.695  0.4864 -0.3010  0.4677
 2208SOL    HW1 8224   7.018   3.488   6.629  0.8661  2.9909 -0.6823
 2208SOL    HW2 8225   6.863   3.467   6.676  0.8391 -0.0901 -1.9350
 2209SOL     OW 8226   2.305   0.842   2.293  0.2749  0.3012  0.1935
 2209SOL    HW1 8227   2.370   0.880   2.358 -2.0233  0.8663  2.3272
 2209SOL    HW2 8228   2.320   0.744   2.284 -0.2397 -0.0982  2.8227
 2210SOL     OW 8229   5.442   0.523   2.004  0.2468 -0.2056  0.1021
 2210SOL    HW1 8230   5.379   0.544   2.078 -0.2627 -0.2263 -0.3232
 2210SOL    HW2 8231   5.391   0.510   1.919  0.5848 -2.3922  0.1785
 2211SOL     OW 8232   0.091   6.627   2.459 -0.1835  0.1909  0.5803
 2211SOL    HW1 8233   0.103   6.718   2.499 -0.0067  0.3200  0.2308
 2211SOL    HW2 8234   0.016   6.580   2.507 -0.1364  0.4370  0.9015
 2212SOL     OW 8235   2.816   6.151   6.756  0.0245 -0.2163 -0.5008
 2212SOL    HW1 8236   2.857   6.238   6.784  1.0672 -0.0956 -2.2314
 2212SOL    HW2 8237   2.746   6.168   6.686 -2.0722 -0.5517  1.3942
 2213SOL     OW 8238   1.022   3.283   3.165 -0.6487  0.1831 -0.7708
 2213SOL    HW1 8239   1.103   3.228   3.146  2.5520  2.1744  4.7438
 2213SOL    HW2 8240   1.035   3.375   3.130 -0.9258  0.2819 -0.6181
 2214SOL     OW 8241   5.648   2.981   5.541 -0.5097  0.3393 -0.0410
 2214SOL    HW1 8242   5.580   2.910   5.559 -0.2346  0.4487  1.5775
 2214SOL    HW2 8243   5.705   2.954   5.462 -0.1100 -1.4836  0.8275
 2215SOL     OW 8244   2.326   6.511   3.797 -0.1633  0.1491  0.4805
 2215SOL    HW1 8245   2.327   6.415   3.768  1.0073  0.8206 -1.9122
 2215SOL    HW2 8246   2.240   6.530   3.845  0.0189 -2.3135  1.9804
 2216SOL     OW 8247   5.321   3.636   4.804  0.5647 -0.1780 -0.3270
 2216SOL    HW1 8248   5.316   3.728   4.765  3.0762 -0.0764 -0.6168
 2216SOL    HW2 8249   5.323   3.569   4.730 -1.2002 -0.5095 -0.1157
 2217SOL     OW 8250   1.169   5.208   4.375 -0.2764 -0.2251  0.2161
 2217SOL    HW1 8251   1.088   5.227   4.430 -0.2980 -0.8691  0.4144
 2217SOL    HW2 8252   1.223   5.292   4.365 -0.4378 -0.0287  0.9423
 2218SOL     OW 8253   0.096   3.393   6.536  0.0536  0.3584  0.0564
 2218SOL    HW1 8254   0.192   3.420   6.528 -0.0130  0.3501 -0.9378
 2218SOL    HW2 8255   0.082   3.343   6.621  1.3947 -1.5961 -0.8059
 2219SOL     OW 8256   4.380   5.460   0.232  0.5492  0.4739 -0.1151
 2219SOL    HW1 8257   4.309   5.492   0.170  0.0564 -1.0313 -0.3690
 2219SOL    HW2 8258   4.353   5.478   0.326  0.3287  0.8692 -0.2522
 2220SOL     OW 8259   6.377   2.205   0.605  0.1694 -0.2656 -0.7523
 2220SOL    HW1 8260   6.413   2.130   0.660 -1.1618 -1.1980 -1.1121
 2220SOL    HW2 8261   6.328   2.268   0.664 -0.0628 -0.5206 -0.6726
 2221SOL     OW 8262   2.789   6.894   6.557 -0.1222 -0.0039 -0.1681
 2221SOL    HW1 8263   2.838   6.868   6.640  1.5988  0.0578 -1.0968
 2221SOL    HW2 8264   2.723   6.966   6.577  0.8567  0.6001  1.0088
 2222SOL     OW 8265   0.003   6.639   2.042 -0.1720 -0.2436 -0.0687
 2222SOL    HW1 8266   0.030   6.599   1.954  1.1930  1.4745 -0.4864
 2222SOL    HW2 8267  -0.052   6.721   2.026  2.0533  1.4793  0.5099
 2223SOL     OW 8268   6.675   3.863   5.778 -0.0222  0.2267  0.2190
 2223SOL    HW1 8269   6.742   3.845   5.849 -0.3202 -0.6884  0.2824
 2223SOL    HW2 8270   6.716   3.847   5.688  0.4803  1.7914  0.1451
 2224SOL     OW 8271   0.625   4.324   5.336  0.3935 -0.6008  0.3119
 2224SOL    HW1 8272   0.540   4.354   5.379  0.5264  0.2474 -0.0023
 2224SOL    HW2 8273   0.629   4.224   5.337 -2.0026 -0.8445 -2.2539
 2225SOL     OW 8274   1.951   0.386   5.375  0.5403 -0.1402  0.3794
 2225SOL    HW1 8275   1.964   0.429   5.465  0.5877 -1.3389  0.9680
 2225SOL    HW2 8276   2.020   0.419   5.311 -0.7460  2.3278  0.1533
 2226SOL     OW 8277   1.825   6.931   3.140 -0.1891  0.3775  0.4778
 2226SOL    HW1 8278   1.808   6.978   3.227 -2.1908 -1.2344  1.0145
 2226SOL    HW2 8279   1.752   6.866   3.121  0.8834 -0.2917 -1.7880
 2227SOL     OW 8280   5.021   6.512   3.929 -0.1076 -0.0230  0.9576
 2227SOL    HW1 8281   5.049   6.427   3.884  0.4890  0.8498 -0.3665
 2227SOL    HW2 8282   5.082   6.531   4.005  0.5936 -0.0897  0.4215
 2228SOL     OW 8283   5.503   5.145   6.075 -0.6255 -0.0881 -0.0923
 2228SOL    HW1 8284   5.465   5.161   5.985  0.5153 -0.1184 -0.5969
 2228SOL    HW2 8285   5.528   5.232   6.118  0.0142 -0.1416 -0.3447
 2229SOL     OW 8286   3.310   6.583   1.456 -0.7824 -0.2346 -0.3608
 2229SOL    HW1 8287   3.279   6.643   1.529  2.1590  0.0424  0.8144
 2229SOL    HW2 8288   3.326   6.491   1.493  0.9330 -0.0428 -0.5480
 2230SOL     OW 8289   3.975   5.640   5.037 -0.7601 -0.4907  0.5474
 2230SOL    HW1 8290   3.998   5.568   5.102  0.1272 -0.1942  0.5833
 2230SOL    HW2 8291   3.951   5.723   5.088 -2.1912 -0.8624  0.5135
 2231SOL     OW 8292   4.412   0.770   4.146 -0.6355  0.0575 -0.3231
 2231SOL    HW1 8293   4.349   0.705   4.102  0.3055 -1.0628 -0.0829
 2231SOL    HW2 8294   4.502   0.762   4.103  0.1118 -0.5121  1.2541
 2232SOL     OW 8295   6.168   1.758   0.082  0.2791 -0.0578  0.1791
 2232SOL    HW1 8296   6.153   1.660   0.073  1.6669 -0.2917  0.2630
 2232SOL    HW2 8297   6.123   1.791   0.165 -1.8538 -0.2326 -0.8454
 2233SOL     OW 8298   2.023   3.710   3.924 -0.2374  0.2679  0.3502
 2233SOL    HW1 8299   2.087   3.638   3.897 -1.2563 -0.4453 -0.2295
 2233SOL    HW2 8300   1.945   3.712   3.860 -0.6476  1.3250  0.8499
 2234SOL     OW 8301   4.394   1.957   4.878 -0.2250 -0.3897  0.3422
 2234SOL    HW1 8302   4.419   1.974   4.782  1.9333  3.2371  1.3313
 2234SOL    HW2 8303   4.331   2.028   4.908  0.3436 -0.5548  1.9936
 2235SOL     OW 8304   6.383   3.824   3.510 -0.1751  0.5748  0.5122
 2235SOL    HW1 8305   6.298   3.789   3.549  0.2372  0.1952  1.0876
 2235SOL    HW2 8306   6.443   3.856   3.583  1.5057 -2.1183  0.4533
 2236SOL     OW 8307   4.656   0.432   4.088 -0.4101  0.3084  0.0597
 2236SOL    HW1 8308   4.728   0.377   4.130  0.1788  1.7219  1.0189
 2236SOL    HW2 8309   4.568   0.388   4.102  0.2528 -1.6566 -1.4791
 2237SOL     OW 8310   0.938   1.184   2.001  0.5082 -0.0976  0.1648
 2237SOL    HW1 8311   0.896   1.271   2.027 -0.3877 -0.6166  0.5095
 2237SOL    HW2 8312   0.908   1.159   1.908 -1.1436 -1.1616  0.9410
 2238SOL     OW 8313   4.788   0.823   3.098 -0.1747 -0.7290 -0.1352
 2238SOL    HW1 8314   4.824   0.741   3.053 -1.6045 -0.2807 -2.2602
 2238SOL    HW2 8315   4.735   0.796   3.178 -2.2015 -2.1655 -1.8318
 2239SOL     OW 8316   0.287   0.876   0.923  0.0506 -0.2548  0.0775
 2239SOL    HW1 8317   0.346   0.951   0.953  0.0592  1.0970 -2.9407
 2239SOL    HW2 8318   0.193   0.909   0.915 -0.0219 -0.6736 -0.8931
 2240SOL     OW 8319   4.782   5.604   2.516 -0.7835 -0.4576 -0.2897
 2240SOL    HW1 8320   4.785   5.637   2.610 -0.6686 -0.7795 -0.1812
 2240SOL    HW2 8321   4.688   5.577   2.493 -1.0460  0.6606 -0.6300
 2241SOL     OW 8322   3.193   4.731   4.970 -0.2970 -0.5262 -0.0566
 2241SOL    HW1 8323   3.245   4.731   5.055  0.2345 -2.5780 -0.3513
 2241SOL    HW2 8324   3.243   4.781   4.900 -0.3579  0.4615  0.5815
 2242SOL     OW 8325   0.464   2.546   5.859  0.1126  0.5647 -0.1579
 2242SOL    HW1 8326   0.383   2.528   5.915  0.3342 -0.8134 -0.2367
 2242SOL    HW2 8327   0.543   2.559   5.919  0.0486  0.7038 -0.1052
 2243SOL     OW 8328   1.352   5.156   2.430 -0.2162  0.0758  0.2287
 2243SOL    HW1 8329   1.337   5.100   2.349 -1.6320  0.1305  0.4339
 2243SOL    HW2 8330   1.296   5.122   2.505  0.8310  0.2245  1.1089
 2244SOL     OW 8331   6.580   5.996   4.486 -0.2223  0.6371  0.1226
 2244SOL    HW1 8332   6.629   5.946   4.415 -0.7368  0.0893  0.1447
 2244SOL    HW2 8333   6.566   6.091   4.457  1.3329  0.9673  0.3565
 2245SOL     OW 8334   2.596   2.030   1.205  0.2681 -0.8952  0.0499
 2245SOL    HW1 8335   2.598   2.047   1.106  0.0176 -1.6874 -0.0964
 2245SOL    HW2 8336   2.502   2.017   1.235  0.4334 -1.8795  0.1712
 2246SOL     OW 8337   1.788   5.176   6.783  0.1547 -0.1918  0.4816
 2246SOL    HW1 8338   1.816   5.081   6.780  1.4709  0.1747  0.4327
 2246SOL    HW2 8339   1.828   5.220   6.864 -0.7265  0.2406  0.7016
 2247SOL     OW 8340   4.448   1.000   6.171  0.0933 -0.0204  0.0748
 2247SOL    HW1 8341   4.349   0.982   6.165 -0.0079  0.7082 -0.5340
 2247SOL    HW2 8342   4.494   0.919   6.208 -0.5302 -0.9899 -1.1905
 2248SOL     OW 8343   4.915   0.357   0.961  0.5894 -0.4781  0.2506
 2248SOL    HW1 8344   4.895   0.283   1.024 -0.2242 -0.5079 -0.0189
 2248SOL    HW2 8345   4.856   0.435   0.982  1.3258  0.0379  0.4310
 2249SOL     OW 8346   3.572   5.036   6.071 -0.0137  0.2974 -0.7845
 2249SOL    HW1 8347   3.593   4.986   5.987  1.0113 -2.2463  0.8704
 2249SOL    HW2 8348   3.654   5.085   6.101  0.6012 -1.2762  0.2553
 2250SOL     OW 8349   2.617   6.470   5.533 -0.0982 -0.1702  0.2772
 2250SOL    HW1 8350   2.628   6.415   5.616  0.0485  1.0359  1.0938
 2250SOL    HW2 8351   2.534   6.441   5.484 -0.6371 -0.3705  1.2809
 2251SOL     OW 8352   4.756   4.235   0.642 -0.2293 -0.1584  0.2671
 2251SOL    HW1 8353   4.784   4.176   0.567  0.0826  0.9315 -0.4850
 2251SOL    HW2 8354   4.835   4.282   0.680 -0.4521 -0.3290  0.9678
 2252SOL     OW 8355   0.712   5.175   1.384  0.2674 -0.1602  0.0522
 2252SOL    HW1 8356   0.640   5.145   1.322 -0.0182  0.8033 -0.1076
 2252SOL    HW2 8357   0.676   5.246   1.445  1.2161  0.7920 -0.4400
 2253SOL     OW 8358   4.620   3.353   3.885 -0.3449 -0.6503  0.0960
 2253SOL    HW1 8359   4.651   3.258   3.874 -3.2741 -1.6553 -0.4758
 2253SOL    HW2 8360   4.542   3.355   3.947 -0.0822  1.4802  0.4194
 2254SOL     OW 8361   4.934   5.550   2.839  0.7904 -0.3314  0.3940
 2254SOL    HW1 8362   4.880   5.510   2.912 -1.2759 -0.6963 -1.2371
 2254SOL    HW2 8363   4.960   5.479   2.774  0.1911  0.3836 -0.6561
 2255SOL     OW 8364   6.545   0.548   4.710  0.2206 -0.4615  0.0929
 2255SOL    HW1 8365   6.478   0.621   4.695 -0.5792 -1.2952 -0.6113
 2255SOL    HW2 8366   6.501   0.473   4.761  0.4500 -1.2316 -0.8022
 2256SOL     OW 8367   6.661   3.422   0.702 -0.2853  0.1722 -0.1847
 2256SOL    HW1 8368   6.572   3.386   0.675  0.6017 -1.4224 -1.1615
 2256SOL    HW2 8369   6.730   3.350   0.691  1.0630  1.2602  0.8998
 2257SOL     OW 8370   4.944   3.786   1.504 -0.1878 -0.4705  0.0758
 2257SOL    HW1 8371   5.035   3.796   1.543 -0.4809  0.6316  0.5031
 2257SOL    HW2 8372   4.889   3.725   1.562  0.4960 -1.7789 -0.6041
 2258SOL     OW 8373   2.173   5.873   5.072  0.0378 -0.1937  0.0901
 2258SOL    HW1 8374   2.084   5.906   5.104 -0.1397  0.7340 -1.2478
 2258SOL    HW2 8375   2.239   5.876   5.147 -0.9880 -0.6500  1.0309
 2259SOL     OW 8376   2.643   0.947   3.273 -0.3722 -0.0566 -0.5610
 2259SOL    HW1 8377   2.584   1.025   3.291 -1.6546 -1.1620  0.2074
 2259SOL    HW2 8378   2.625   0.874   3.339  0.5009 -1.1682 -1.4820
 2260SOL     OW 8379   6.349   5.968   5.444  0.2024 -0.4259 -0.3269
 2260SOL    HW1 8380   6.315   5.955   5.537 -0.4062 -1.1319 -0.6417
 2260SOL    HW2 8381   6.347   5.881   5.395  1.0429 -0.1762 -0.8356
 2261SOL     OW 8382   1.503   4.141   5.889  0.0392 -0.9410  0.5584
 2261SOL    HW1 8383   1.569   4.111   5.958 -0.2689 -0.1119  1.2176
 2261SOL    HW2 8384   1.459   4.061   5.849 -0.8777 -1.4018  2.3939
 2262SOL     OW 8385   0.396   3.222   6.831 -0.1829 -0.5671 -0.1286
 2262SOL    HW1 8386   0.436   3.307   6.864 -1.7365  1.0152 -2.0739
 2262SOL    HW2 8387   0.458   3.180   6.764 -0.2172  0.0137 -0.5292
 2263SOL     OW 8388   1.249   4.921   2.226  0.7349  0.1457 -0.2266
 2263SOL    HW1 8389   1.218   4.981   2.152  0.9849  1.8057  0.9702
 2263SOL    HW2 8390   1.191   4.934   2.306  1.3415 -0.5799  0.3419
 2264SOL     OW 8391   5.001   6.706   4.139 -0.2718  0.2177  0.4797
 2264SOL    HW1 8392   4.918   6.746   4.102 -1.6542 -2.4083  0.5651
 2264SOL    HW2 8393   5.081   6.751   4.098 -1.6759 -1.0738 -4.1464
 2265SOL     OW 8394   6.389   3.397   0.754 -1.0537  0.4140 -0.1480
 2265SOL    HW1 8395   6.334   3.317   0.777 -0.2003  0.3405  1.9021
 2265SOL    HW2 8396   6.400   3.454   0.836 -0.9276  2.1904 -1.3499
 2266SOL     OW 8397   1.563   3.820   5.145 -0.0244 -0.4913  0.8130
 2266SOL    HW1 8398   1.519   3.742   5.100 -0.8433  0.3981  0.0452
 2266SOL    HW2 8399   1.516   3.839   5.231 -0.7762  0.0706  0.2900
 2267SOL     OW 8400   5.688   4.298   1.412 -0.0040 -0.3878 -0.0759
 2267SOL    HW1 8401   5.703   4.204   1.384  1.3541  0.1492 -1.2849
 2267SOL    HW2 8402   5.655   4.351   1.334  0.6731  0.4368  0.1793
 2268SOL     OW 8403   2.795   3.981   0.045  0.0387 -0.5342  0.4741
 2268SOL    HW1 8404   2.889   4.000   0.018  0.6754 -3.4555  0.3374
 2268SOL    HW2 8405   2.733   3.998  -0.032  0.6209  0.0184  0.1231
 2269SOL     OW 8406   1.117   6.720   3.136  0.2209 -0.6896  0.1762
 2269SOL    HW1 8407   1.132   6.713   3.235 -1.3714 -0.3620  0.4769
 2269SOL    HW2 8408   1.203   6.741   3.090  0.8629 -0.1134  1.5785
 2270SOL     OW 8409   4.693   4.851   3.972  0.0729  0.1088 -0.0107
 2270SOL    HW1 8410   4.710   4.786   3.898  0.3351  0.7350 -0.5042
 2270SOL    HW2 8411   4.777   4.865   4.024  0.5678  1.5985 -1.1599
 2271SOL     OW 8412   3.796   2.347   4.487 -0.1961  0.5991  0.2970
 2271SOL    HW1 8413   3.864   2.420   4.480  0.3999 -0.0992 -2.3425
 2271SOL    HW2 8414   3.707   2.381   4.457 -0.2208  0.6166  0.3921
 2272SOL     OW 8415   3.376   4.877   2.530 -0.1532 -0.1349  0.2945
 2272SOL    HW1 8416   3.390   4.976   2.537 -0.4321  0.2174 -2.6426
 2272SOL    HW2 8417   3.279   4.857   2.521 -0.0077 -0.5265 -0.5119
 2273SOL     OW 8418   5.719   4.247   5.205 -0.4265 -0.0402  0.6556
 2273SOL    HW1 8419   5.686   4.301   5.127 -1.6686 -1.6463  0.0220
 2273SOL    HW2 8420   5.655   4.173   5.224  0.4449 -0.3839  2.4973
 2274SOL     OW 8421   5.465   0.423   3.251 -0.0103 -0.5240 -0.2033
 2274SOL    HW1 8422   5.520   0.466   3.179  3.5647 -1.8443  1.5271
 2274SOL    HW2 8423   5.434   0.333   3.221 -0.3239 -0.2227 -0.7973
 2275SOL     OW 8424   1.982   3.399   6.316  0.7074 -0.1763  0.0306
 2275SOL    HW1 8425   2.047   3.368   6.386  1.5305 -1.9872 -1.4616
 2275SOL    HW2 8426   1.896   3.349   6.326  0.0385  1.1021  1.0234
 2276SOL     OW 8427   2.151   3.925   4.030 -0.5097  0.2143  0.5070
 2276SOL    HW1 8428   2.214   3.974   3.970 -0.4889  1.8334  1.7773
 2276SOL    HW2 8429   2.113   3.846   3.982 -1.4223  2.0920 -2.0376
 2277SOL     OW 8430   1.359   1.726   1.166  0.0504 -0.6021  0.0251
 2277SOL    HW1 8431   1.422   1.744   1.091  0.8065 -1.6030  0.3940
 2277SOL    HW2 8432   1.411   1.715   1.251 -0.8356  1.2552  0.8635
 2278SOL     OW 8433   5.218   0.606   4.598 -0.6076  0.1220 -0.4651
 2278SOL    HW1 8434   5.158   0.665   4.545 -1.1562 -1.4984 -1.7473
 2278SOL    HW2 8435   5.194   0.510   4.581 -1.5189 -0.5436  3.4921
 2279SOL     OW 8436   0.905   3.767   3.027 -0.5067 -0.2959  0.3449
 2279SOL    HW1 8437   0.829   3.813   2.981  0.8171 -1.1109 -2.9338
 2279SOL    HW2 8438   0.989   3.820   3.015  0.2572 -1.5201  0.1155
 2280SOL     OW 8439   1.168   1.688   6.883 -0.3192 -0.0479  0.4515
 2280SOL    HW1 8440   1.157   1.729   6.793  1.3990  0.7396  0.5532
 2280SOL    HW2 8441   1.117   1.740   6.951  1.0245  1.3680  0.4185
 2281SOL     OW 8442   2.258   2.249   5.644  0.4464  0.2010  0.1712
 2281SOL    HW1 8443   2.258   2.152   5.665 -0.1806  0.1001 -0.2629
 2281SOL    HW2 8444   2.191   2.267   5.571 -1.9289  1.4453  2.4974
 2282SOL     OW 8445   5.288   0.337   6.981 -0.8131  0.0151  0.3770
 2282SOL    HW1 8446   5.296   0.436   6.982 -0.5329  0.0306 -1.0187
 2282SOL    HW2 8447   5.344   0.298   7.054 -0.4963  0.8548  0.5883
 2283SOL     OW 8448   5.143   4.952   1.065 -0.2676 -0.1282 -0.6943
 2283SOL    HW1 8449   5.091   5.020   1.116  0.3380  0.5089 -0.9207
 2283SOL    HW2 8450   5.214   4.913   1.123  0.3271  0.4910 -1.0031
 2284SOL     OW 8451   0.288   0.430   3.360  0.0964 -0.0450 -0.5756
 2284SOL    HW1 8452   0.261   0.489   3.437 -1.4971  0.0886 -1.1947
 2284SOL    HW2 8453   0.212   0.371   3.335  1.0408 -1.0308 -1.2195
 2285SOL     OW 8454   0.659   3.757   3.524  0.2169  0.7583 -0.4709
 2285SOL    HW1 8455   0.704   3.809   3.451 -0.3288 -0.1216 -1.4413
 2285SOL    HW2 8456   0.688   3.661   3.520  0.1647  0.6872  0.4706
 2286SOL     OW 8457   0.530   4.577   1.716  0.0954 -0.0258 -1.0463
 2286SOL    HW1 8458   0.514   4.658   1.772 -0.6339 -0.4955 -0.5664
 2286SOL    HW2 8459   0.627   4.553   1.719  0.0764 -0.0050 -0.0430
 2287SOL     OW 8460   0.974   0.051   0.302 -0.1551  0.7072 -1.0936
 2287SOL    HW1 8461   0.959   0.023   0.397  1.8737 -0.7021 -1.1206
 2287SOL    HW2 8462   0.888   0.082   0.262 -2.1786 -3.1790 -0.2346
 2288SOL     OW 8463   6.664   3.387   2.010 -0.0580 -0.4580  0.4666
 2288SOL    HW1 8464   6.678   3.338   1.923  0.2037 -1.1456  0.8885
 2288SOL    HW2 8465   6.661   3.485   1.992 -1.1888 -0.6410 -0.4735
 2289SOL     OW 8466   1.997   6.018   0.268 -0.0579  0.1329 -0.1263
 2289SOL    HW1 8467   1.921   6.044   0.209 -0.2940 -0.5064 -0.1096
 2289SOL    HW2 8468   1.988   5.922   0.295  1.9919 -0.6924 -2.0674
 2290SOL     OW 8469   5.850   5.377   3.731 -0.6864 -0.3897 -0.0369
 2290SOL    HW1 8470   5.849   5.315   3.809 -0.3519  0.7251  0.8680
 2290SOL    HW2 8471   5.796   5.459   3.752  0.8855  0.7519 -0.2576
 2291SOL     OW 8472   2.142   6.451   5.030 -0.2795  0.4018  0.1404
 2291SOL    HW1 8473   2.208   6.498   5.088 -1.2942  1.9370  0.1207
 2291SOL    HW2 8474   2.156   6.478   4.935  1.1103 -1.7827 -0.3410
 2292SOL     OW 8475   3.555   2.692   4.875  0.1259  0.0345 -0.1657
 2292SOL    HW1 8476   3.517   2.765   4.932  0.4092  1.0572 -1.2408
 2292SOL    HW2 8477   3.486   2.621   4.860 -0.4384  0.4995  0.2039
 2293SOL     OW 8478   6.660   6.888   1.396 -0.5692 -0.4248  0.5676
 2293SOL    HW1 8479   6.677   6.908   1.492  1.1606  0.5595  0.0961
 2293SOL    HW2 8480   6.563   6.865   1.383 -1.1622  0.8673  2.3111
 2294SOL     OW 8481   4.773   4.150   1.686 -0.2898  0.4971 -0.2577
 2294SOL    HW1 8482   4.730   4.176   1.773  0.4265 -0.5619  0.4307
 2294SOL    HW2 8483   4.864   4.113   1.704  0.1463  0.9122 -1.5310
 2295SOL     OW 8484   5.129   6.496   1.183  0.2335  0.4382 -0.6939
 2295SOL    HW1 8485   5.145   6.594   1.191  0.2620  0.5353 -1.7459
 2295SOL    HW2 8486   5.122   6.471   1.086  0.5459 -0.6501 -0.4534
 2296SOL     OW 8487   6.525   6.194   0.202 -0.5078 -0.1038  0.1006
 2296SOL    HW1 8488   6.520   6.273   0.262 -1.6285  0.3282 -0.5289
 2296SOL    HW2 8489   6.434   6.152   0.194 -0.3434 -0.2915 -1.0835
 2297SOL     OW 8490   6.907   3.276   6.058 -0.0297  0.1712  0.1977
 2297SOL    HW1 8491   6.925   3.353   5.997  0.4775 -0.0917  0.0088
 2297SOL    HW2 8492   6.809   3.255   6.057  0.0582 -0.2434 -1.0202
 2298SOL     OW 8493   0.984   2.679   6.994  0.0856 -0.0082 -0.5120
 2298SOL    HW1 8494   1.035   2.744   6.937 -0.8892  1.4898  0.2625
 2298SOL    HW2 8495   0.976   2.715   7.087 -0.8494 -1.0507 -0.1702
 2299SOL     OW 8496   5.437   1.229   0.251 -0.1315 -0.3094  0.8972
 2299SOL    HW1 8497   5.529   1.223   0.214 -0.7907  1.0377 -1.1026
 2299SOL    HW2 8498   5.372   1.247   0.177 -1.8706 -0.1246  2.3943
 2300SOL     OW 8499   6.498   1.375   4.816  0.0309 -0.0047 -0.0654
 2300SOL    HW1 8500   6.592   1.370   4.849 -0.3484 -0.0781  1.0395
 2300SOL    HW2 8501   6.498   1.392   4.718  1.1892  1.3773  0.1426
 2301SOL     OW 8502   2.040   0.625   3.146 -0.3745 -0.2563  0.3165
 2301SOL    HW1 8503   1.954   0.578   3.123  0.1971 -1.2441  0.1486
 2301SOL    HW2 8504   2.059   0.694   3.076  0.7915 -2.5061 -1.7567
 2302SOL     OW 8505   3.908   0.605   0.884  0.5082  0.6995 -0.5952
 2302SOL    HW1 8506   3.961   0.614   0.800 -0.3110 -2.0582 -1.5064
 2302SOL    HW2 8507   3.911   0.511   0.916 -2.9008  0.6391 -0.0832
 2303SOL     OW 8508   5.612   1.920   4.913  0.2122 -0.6088  0.3103
 2303SOL    HW1 8509   5.625   1.821   4.910 -1.2183 -0.8322  0.8408
 2303SOL    HW2 8510   5.565   1.950   4.830 -2.7394 -0.9610  1.7346
 2304SOL     OW 8511   2.303   4.060   0.457  0.2967  0.7362  0.2539
 2304SOL    HW1 8512   2.366   3.984   0.445 -1.8041 -1.2815  1.3955
 2304SOL    HW2 8513   2.250   4.073   0.373 -0.4606 -0.1323  0.5939
 2305SOL     OW 8514   2.212   2.425   4.453 -0.7035 -0.2516  0.0710
 2305SOL    HW1 8515   2.292   2.432   4.392 -1.7120 -1.9614 -1.5652
 2305SOL    HW2 8516   2.218   2.340   4.505 -0.6238  0.4646  1.2598
 2306SOL     OW 8517   5.890   3.752   6.889  0.0223 -0.4758 -1.1571
 2306SOL    HW1 8518   5.826   3.679   6.863  0.7146 -1.0609 -1.2241
 2306SOL    HW2 8519   5.984   3.721   6.875  0.3995 -0.3532  0.7889
 2307SOL     OW 8520   6.294   3.936   0.405 -0.2087  0.5886 -0.0344
 2307SOL    HW1 8521   6.282   3.847   0.360  4.6165 -0.6628  0.5999
 2307SOL    HW2 8522   6.306   4.007   0.336  2.2421 -0.4737 -0.8060
 2308SOL     OW 8523   4.331   4.174   1.471 -0.0587  0.2956 -0.1322
 2308SOL    HW1 8524   4.431   4.176   1.477  0.1065 -1.3426 -1.5856
 2308SOL    HW2 8525   4.293   4.143   1.558  0.8411 -1.2604 -0.2646
 2309SOL     OW 8526   1.563   2.001   5.125  0.6357 -0.7463 -0.3182
 2309SOL    HW1 8527   1.662   1.993   5.114  0.4307 -1.2578 -2.1907
 2309SOL    HW2 8528   1.520   1.911   5.110 -0.1222 -0.5142  0.3846
 2310SOL     OW 8529   5.941   4.927   5.866 -0.0034  0.4733 -0.0024
 2310SOL    HW1 8530   5.856   4.878   5.882  0.5151 -0.4218  0.0801
 2310SOL    HW2 8531   6.007   4.904   5.937  1.3362 -1.2859 -1.7091
 2311SOL     OW 8532   5.311   0.128   4.357  0.3626  0.3171 -0.3742
 2311SOL    HW1 8533   5.396   0.125   4.306  1.0113 -1.7828  0.7267
 2311SOL    HW2 8534   5.272   0.036   4.365 -0.3751  0.7427  1.7560
 2312SOL     OW 8535   5.620   7.018   6.654  0.0990 -0.2755 -0.7560
 2312SOL    HW1 8536   5.526   7.004   6.623 -0.2066 -0.5708  0.2630
 2312SOL    HW2 8537   5.649   6.940   6.709 -0.4444  1.4098  2.1430
 2313SOL     OW 8538   2.121   3.373   3.584  0.5130 -0.2545 -0.2344
 2313SOL    HW1 8539   2.040   3.410   3.538  0.6337 -0.0170 -0.2616
 2313SOL    HW2 8540   2.102   3.282   3.619 -0.3145  0.4621  1.2602
 2314SOL     OW 8541   2.977   3.289   3.124  0.2971  0.2391 -0.2125
 2314SOL    HW1 8542   3.076   3.296   3.119  0.3501 -0.6057 -0.5383
 2314SOL    HW2 8543   2.936   3.317   3.038  0.3842 -1.2085 -0.7598
 2315SOL     OW 8544   2.812   1.145   1.712  0.2523  0.0763  0.2989
 2315SOL    HW1 8545   2.755   1.163   1.631 -0.9683 -1.6554  0.7187
 2315SOL    HW2 8546   2.825   1.047   1.722  2.6048  0.3892  0.7691
 2316SOL     OW 8547   2.110   5.948   6.501  0.0823 -0.1665  0.5081
 2316SOL    HW1 8548   2.145   5.952   6.408 -0.8126 -0.4538  0.1548
 2316SOL    HW2 8549   2.072   5.858   6.519 -1.5376  0.4759  0.4837
 2317SOL     OW 8550   2.643   2.518   5.967 -0.1199  0.2822 -0.4849
 2317SOL    HW1 8551   2.588   2.494   5.887 -1.1699  1.8054 -0.2714
 2317SOL    HW2 8552   2.582   2.532   6.046  0.8182 -0.3420  0.3791
 2318SOL     OW 8553   0.366   2.910   2.526  0.7373  0.0444  0.1522
 2318SOL    HW1 8554   0.438   2.843   2.546  0.5228  0.1238  1.2336
 2318SOL    HW2 8555   0.295   2.867   2.471  1.3681 -0.1673 -0.5174
 2319SOL     OW 8556   5.797   4.054   6.905 -0.1181  0.3964  0.0835
 2319SOL    HW1 8557   5.882   4.002   6.909 -0.6769 -0.6483 -0.8921
 2319SOL    HW2 8558   5.781   4.100   6.992  2.0171  1.5898 -0.0847
 2320SOL     OW 8559   0.145   2.148   0.352  0.5823 -0.1049  0.9159
 2320SOL    HW1 8560   0.137   2.204   0.435 -1.2645  0.0004  0.7017
 2320SOL    HW2 8561   0.062   2.094   0.340  0.6302  0.2166 -1.1153
 2321SOL     OW 8562   6.546   1.057   5.845 -0.6679 -0.3939  0.3775
 2321SOL    HW1 8563   6.548   1.110   5.930  0.0088 -0.5251  0.4543
 2321SOL    HW2 8564   6.452   1.037   5.820 -0.9057  0.3203  0.6755
 2322SOL     OW 8565   1.534   3.987   6.277  0.1553 -0.2544 -0.1090
 2322SOL    HW1 8566   1.484   4.000   6.363 -0.8839 -0.8521 -0.6011
 2322SOL    HW2 8567   1.597   4.063   6.264 -0.9751  0.7910  0.3156
 2323SOL     OW 8568   1.798   0.539   3.086  0.6791  0.2282 -0.5562
 2323SOL    HW1 8569   1.783   0.552   2.988 -0.2414 -0.5319 -0.5382
 2323SOL    HW2 8570   1.715   0.567   3.136  1.5467  1.6982  0.1108
 2324SOL     OW 8571   2.322   5.403   5.623  0.5873  0.2427 -0.2618
 2324SOL    HW1 8572   2.295   5.387   5.718  0.7096  0.3303 -0.2112
 2324SOL    HW2 8573   2.268   5.344   5.563  0.7263 -0.0397 -0.1143
 2325SOL     OW 8574   3.807   5.423   3.113 -0.4698  0.5163 -0.4161
 2325SOL    HW1 8575   3.841   5.395   3.203 -0.7626  1.4079 -0.0210
 2325SOL    HW2 8576   3.746   5.351   3.078 -1.0515  0.5414  0.4957
 2326SOL     OW 8577   6.995   6.058   4.463 -0.1689 -0.3306  0.1690
 2326SOL    HW1 8578   7.094   6.059   4.477 -0.1312 -0.6293 -0.0743
 2326SOL    HW2 8579   6.958   5.973   4.500 -0.4628  0.1996  1.1254
 2327SOL     OW 8580   1.856   4.485   5.275  0.1100  0.2570 -0.2269
 2327SOL    HW1 8581   1.948   4.449   5.258  0.3631  1.1782 -0.8831
 2327SOL    HW2 8582   1.828   4.543   5.199 -0.2308  1.5352  0.8178
 2328SOL     OW 8583   5.698   1.408   2.403  0.6444 -0.0145 -0.1430
 2328SOL    HW1 8584   5.673   1.415   2.500  0.8633  0.8190 -0.1356
 2328SOL    HW2 8585   5.646   1.475   2.351 -0.2085 -1.1380 -0.7662
 2329SOL     OW 8586   2.326   6.735   5.730  0.0514 -0.3611  0.0461
 2329SOL    HW1 8587   2.425   6.720   5.732  0.1203 -0.1143 -1.1791
 2329SOL    HW2 8588   2.287   6.689   5.651 -0.1814  3.0942 -2.0245
 2330SOL     OW 8589   4.210   6.110   3.242 -0.0618  0.3814  0.2758
 2330SOL    HW1 8590   4.285   6.131   3.304  0.3430 -1.3743  0.4539
 2330SOL    HW2 8591   4.131   6.079   3.295 -0.0189 -0.2515 -0.0186
 2331SOL     OW 8592   1.827   0.238   3.081  0.2321 -0.1245  0.5107
 2331SOL    HW1 8593   1.748   0.212   3.024  0.7854  0.3057 -0.4777
 2331SOL    HW2 8594   1.815   0.331   3.115  0.5194  0.1148 -0.0292
 2332SOL     OW 8595   6.917   3.562   0.398  0.4077 -0.3796 -0.3371
 2332SOL    HW1 8596   6.938   3.510   0.481  3.2370 -0.4041 -0.9601
 2332SOL    HW2 8597   6.941   3.658   0.413 -0.8153 -0.0286 -0.5574
 2333SOL     OW 8598   3.330   6.130   5.285  0.1687  0.2221  0.3642
 2333SOL    HW1 8599   3.274   6.212   5.293  0.6516  0.4371  1.7527
 2333SOL    HW2 8600   3.302   6.079   5.204 -1.0543  1.0564  0.2327
 2334SOL     OW 8601   1.697   0.868   3.211  0.4328  0.3113  0.0836
 2334SOL    HW1 8602   1.607   0.879   3.170 -0.4942  0.3926  2.0485
 2334SOL    HW2 8603   1.765   0.855   3.138 -1.1452  0.1513 -1.4342
 2335SOL     OW 8604   3.875   5.524   0.256  0.0732  0.8128  0.2525
 2335SOL    HW1 8605   3.778   5.506   0.237 -0.5272  3.7034  0.1421
 2335SOL    HW2 8606   3.902   5.478   0.340 -1.2573 -0.4091  0.0422
 2336SOL     OW 8607   2.572   5.692   1.020 -0.5945 -0.2389 -0.1120
 2336SOL    HW1 8608   2.546   5.722   1.112 -2.1938 -0.4014 -0.4692
 2336SOL    HW2 8609   2.616   5.768   0.971  2.1032 -0.7268  1.3929
 2337SOL     OW 8610   2.455   5.395   6.860  0.1176 -0.5919 -0.0756
 2337SOL    HW1 8611   2.444   5.391   6.959 -0.9651 -0.8891 -0.1911
 2337SOL    HW2 8612   2.490   5.485   6.833 -1.7604  0.3277  0.4053
 2338SOL     OW 8613   0.979   3.945   4.598 -0.5754 -0.1732  0.5336
 2338SOL    HW1 8614   0.930   3.893   4.529  1.1961 -1.7020  0.3378
 2338SOL    HW2 8615   0.960   4.043   4.587 -0.7742 -0.4301 -1.7275
 2339SOL     OW 8616   6.483   1.473   0.713 -0.7501 -0.2897 -0.1491
 2339SOL    HW1 8617   6.481   1.481   0.613 -1.9040  0.2048 -0.1053
 2339SOL    HW2 8618   6.392   1.492   0.749 -1.0638 -3.1552  0.8091
 2340SOL     OW 8619   3.463   5.707   3.877 -0.1774 -0.4984 -0.7279
 2340SOL    HW1 8620   3.523   5.628   3.862  0.0066 -0.7079  0.8810
 2340SOL    HW2 8621   3.421   5.734   3.791 -0.1585 -2.2873 -1.3536
 2341SOL     OW 8622   0.231   4.513   3.558 -0.4931 -1.2318  0.6969
 2341SOL    HW1 8623   0.324   4.486   3.534 -0.5583 -0.2092 -0.8562
 2341SOL    HW2 8624   0.194   4.449   3.626  1.0087 -2.1788  0.6646
 2342SOL     OW 8625   6.411   4.192   6.977 -0.9522 -0.1376 -0.3415
 2342SOL    HW1 8626   6.488   4.159   7.031 -0.0116  1.3345 -0.7098
 2342SOL    HW2 8627   6.411   4.148   6.888  0.1596  0.6362 -0.7527
 2343SOL     OW 8628   6.071   2.764   1.575 -0.2860  0.3015  0.0960
 2343SOL    HW1 8629   6.153   2.729   1.619 -0.2785 -1.5060 -1.2586
 2343SOL    HW2 8630   5.993   2.758   1.638  0.2273  0.2376  0.7259
 2344SOL     OW 8631   4.827   1.323   6.041  0.4665 -0.7175 -0.3983
 2344SOL    HW1 8632   4.913   1.314   6.090  0.1937 -1.9243 -0.1230
 2344SOL    HW2 8633   4.796   1.418   6.046  1.0732 -0.5612  0.7032
 2345SOL     OW 8634   2.528   6.925   3.875 -0.6700  0.1550 -0.0698
 2345SOL    HW1 8635   2.450   6.908   3.935 -0.0340  1.2907  1.1104
 2345SOL    HW2 8636   2.592   6.986   3.920  1.4101 -1.5245 -0.6230
 2346SOL     OW 8637   2.154   3.015   6.474 -0.3775  0.1395  0.5449
 2346SOL    HW1 8638   2.230   2.953   6.457 -0.4138  0.1829  0.2110
 2346SOL    HW2 8639   2.098   2.979   6.549 -0.8266 -0.6245 -0.1394
 2347SOL     OW 8640   5.418   2.359   3.224  0.8997  0.0055 -0.9881
 2347SOL    HW1 8641   5.342   2.309   3.264  0.9564  0.6417 -0.0566
 2347SOL    HW2 8642   5.384   2.426   3.158  0.5013  1.3138  0.4954
 2348SOL     OW 8643   5.296   4.700   3.642 -0.4249 -0.0801  0.7082
 2348SOL    HW1 8644   5.272   4.755   3.562  0.7152  0.6584  0.8347
 2348SOL    HW2 8645   5.373   4.744   3.689  0.0948 -1.4648  1.1856
 2349SOL     OW 8646   5.651   1.365   3.471  0.2076 -0.1060 -0.0258
 2349SOL    HW1 8647   5.615   1.457   3.453  1.6580  0.4898  0.0124
 2349SOL    HW2 8648   5.574   1.301   3.482 -0.9031  1.4156  1.7502
 2350SOL     OW 8649   2.488   3.775   5.230  0.4301  0.1614  0.5677
 2350SOL    HW1 8650   2.503   3.848   5.163  0.2357 -1.7013 -1.6418
 2350SOL    HW2 8651   2.392   3.746   5.226  0.4824 -0.1453  1.4814
 2351SOL     OW 8652   5.837   1.842   2.099 -0.1718 -0.0326  0.2247
 2351SOL    HW1 8653   5.889   1.793   2.030 -1.2424  0.8281 -1.2377
 2351SOL    HW2 8654   5.743   1.856   2.068  0.4492  4.5434 -0.3901
 2352SOL     OW 8655   4.711   5.187   4.036  0.2762  0.3915 -0.1916
 2352SOL    HW1 8656   4.726   5.095   4.073 -0.4378 -0.2345 -1.3887
 2352SOL    HW2 8657   4.792   5.243   4.052  1.3806 -0.9469 -0.8989
 2353SOL     OW 8658   6.207   4.716   1.224  0.3440 -0.9367 -0.2140
 2353SOL    HW1 8659   6.276   4.767   1.275  0.7295 -0.3242 -1.3233
 2353SOL    HW2 8660   6.144   4.672   1.288  1.3885 -0.9984  0.7978
 2354SOL     OW 8661   0.789   2.772   5.660  0.1047 -0.5591 -0.1023
 2354SOL    HW1 8662   0.833   2.691   5.622 -0.4484 -0.5105 -0.8613
 2354SOL    HW2 8663   0.785   2.844   5.590  1.6259  0.5521  0.8697
 2355SOL     OW 8664   2.818   1.023   4.762 -0.3417  0.2285 -0.1024
 2355SOL    HW1 8665   2.744   1.006   4.698  0.3875 -1.9726 -0.4562
 2355SOL    HW2 8666   2.809   0.962   4.841  1.3567 -0.5486 -0.4430
 2356SOL     OW 8667   6.491   2.163   5.333 -0.1005  0.6918  0.1142
 2356SOL    HW1 8668   6.523   2.160   5.238  1.3308 -0.0225  0.5947
 2356SOL    HW2 8669   6.411   2.103   5.343  0.0083  0.4317 -0.5381
 2357SOL     OW 8670   6.520   1.405   1.564 -0.1334  0.7349 -0.3960
 2357SOL    HW1 8671   6.541   1.502   1.566  1.4799  0.4379 -1.6315
 2357SOL    HW2 8672   6.537   1.368   1.473  0.7332 -1.0072  0.4122
 2358SOL     OW 8673   2.685   5.163   6.698  0.3382 -0.1714 -0.1179
 2358SOL    HW1 8674   2.757   5.113   6.650  0.9751 -0.6450  1.3012
 2358SOL    HW2 8675   2.725   5.239   6.749 -0.4108  0.7116 -0.7957
 2359SOL     OW 8676   6.342   4.928   0.137  0.4306  0.9679 -0.0124
 2359SOL    HW1 8677   6.252   4.885   0.129  1.1627 -0.8024  0.6292
 2359SOL    HW2 8678   6.389   4.927   0.049 -0.5242  2.7977 -0.5807
 2360SOL     OW 8679   0.056   1.461   0.214 -0.3782  0.1367 -0.1349
 2360SOL    HW1 8680  -0.026   1.516   0.228 -0.7588 -0.4479 -0.0303
 2360SOL    HW2 8681   0.099   1.487   0.127 -2.5028 -1.7725 -1.8994
 2361SOL     OW 8682   0.613   3.727   4.320 -0.2878  0.3408 -0.5241
 2361SOL    HW1 8683   0.695   3.783   4.325  0.4399 -0.7647  0.2205
 2361SOL    HW2 8684   0.593   3.705   4.224 -0.5648  1.8078 -0.8241
 2362SOL     OW 8685   0.858   0.996   6.661 -0.8881  0.2295  0.3772
 2362SOL    HW1 8686   0.941   0.952   6.695  0.3939  0.3798 -2.2821
 2362SOL    HW2 8687   0.882   1.060   6.588 -3.0918  2.5238  1.5084
 2363SOL     OW 8688   5.760   0.187   2.479  0.3197 -0.1804  0.1321
 2363SOL    HW1 8689   5.694   0.129   2.431  0.8388  1.0275 -2.2260
 2363SOL    HW2 8690   5.851   0.145   2.473  0.3338 -0.1759  0.3261
 2364SOL     OW 8691   0.735   3.556   5.611 -0.2123  0.3866  0.7657
 2364SOL    HW1 8692   0.806   3.609   5.658  0.8025  1.0501 -1.3490
 2364SOL    HW2 8693   0.778   3.483   5.558 -1.3863 -0.8907  1.5201
 2365SOL     OW 8694   4.881   6.737   3.836 -0.2655 -0.7204  0.2714
 2365SOL    HW1 8695   4.926   6.768   3.752 -0.9273 -0.9781 -0.1838
 2365SOL    HW2 8696   4.929   6.657   3.872 -0.1319 -0.7617  0.0033
 2366SOL     OW 8697   0.188   0.849   6.843 -0.1353  0.4649 -0.6603
 2366SOL    HW1 8698   0.192   0.756   6.879 -0.7831  0.4388 -0.6380
 2366SOL    HW2 8699   0.111   0.857   6.779  0.6960  0.6469 -1.6629
 2367SOL     OW 8700   6.980   6.678   0.542  0.2310  0.1126 -0.3086
 2367SOL    HW1 8701   6.951   6.760   0.492  0.3671  0.7150  0.5768
 2367SOL    HW2 8702   7.045   6.704   0.613  0.1290 -0.7441  0.1073
 2368SOL     OW 8703   6.532   5.703   2.864  0.3386  0.2949  0.5458
 2368SOL    HW1 8704   6.555   5.609   2.839  1.7948  0.6676  0.3857
 2368SOL    HW2 8705   6.578   5.766   2.802 -1.6536  1.1151 -0.1441
 2369SOL     OW 8706   1.046   3.062   4.547 -0.2413  0.3132 -0.2649
 2369SOL    HW1 8707   1.113   3.025   4.482  0.9195  0.2633  0.9239
 2369SOL    HW2 8708   0.953   3.047   4.512  0.3322 -0.3669 -1.5477
 2370SOL     OW 8709   6.556   4.413   6.945  0.5317  0.0905 -1.0324
 2370SOL    HW1 8710   6.488   4.342   6.967  0.1657  0.7186 -0.1179
 2370SOL    HW2 8711   6.524   4.502   6.977  2.0404  0.3175 -0.0668
 2371SOL     OW 8712   3.077   1.491   1.309  0.1252 -0.1026  0.3829
 2371SOL    HW1 8713   3.154   1.458   1.364  1.0858 -0.4006 -1.0636
 2371SOL    HW2 8714   3.079   1.591   1.307  1.3964 -0.1129 -0.8095
 2372SOL     OW 8715   2.453   5.037   2.976 -0.8323 -0.3583  0.4754
 2372SOL    HW1 8716   2.493   4.946   2.966 -2.0088 -0.7094 -1.3457
 2372SOL    HW2 8717   2.525   5.106   2.964 -0.1631 -1.0058  0.6444
 2373SOL     OW 8718   2.036   4.220   1.669  0.4166  0.3651  0.3286
 2373SOL    HW1 8719   2.111   4.180   1.616  2.1676  0.0911  2.8433
 2373SOL    HW2 8720   1.949   4.193   1.627  1.5807 -3.0175 -0.2804
 2374SOL     OW 8721   6.455   6.164   0.806  0.0074 -0.5573  0.0950
 2374SOL    HW1 8722   6.503   6.205   0.884 -0.8742 -2.8749  1.9987
 2374SOL    HW2 8723   6.521   6.138   0.736  0.8032  1.8500 -0.1334
 2375SOL     OW 8724   3.180   6.205   1.051 -0.2096 -0.1255  0.4889
 2375SOL    HW1 8725   3.266   6.165   1.081 -0.6186 -1.7940 -0.4442
 2375SOL    HW2 8726   3.183   6.222   0.953 -1.3380 -1.3940  0.1976
 2376SOL     OW 8727   0.871   4.534   2.924  0.0860  1.1989 -0.3829
 2376SOL    HW1 8728   0.814   4.601   2.971 -1.1274  1.3880 -2.0441
 2376SOL    HW2 8729   0.842   4.525   2.829  1.2732 -0.5054 -0.6488
 2377SOL     OW 8730   6.099   0.956   3.635  0.3719  0.3450 -0.0442
 2377SOL    HW1 8731   6.072   1.004   3.552 -0.6034  0.6284  0.4232
 2377SOL    HW2 8732   6.086   1.017   3.714 -1.6440 -0.9019  0.6606
 2378SOL     OW 8733   1.083   6.452   0.144  0.0819  0.7343  0.0214
 2378SOL    HW1 8734   1.016   6.439   0.070  1.1866 -1.7856 -0.6343
 2378SOL    HW2 8735   1.167   6.490   0.106 -0.2641  2.0722  0.5225
 2379SOL     OW 8736   4.003   4.762   4.654  0.0149 -0.1367  0.7040
 2379SOL    HW1 8737   4.100   4.782   4.645  0.3137 -0.9833  1.8112
 2379SOL    HW2 8738   3.988   4.702   4.733 -1.3831 -0.1797  0.4400
 2380SOL     OW 8739   2.343   1.316   3.798  0.1575 -0.1676  0.1499
 2380SOL    HW1 8740   2.296   1.353   3.718  2.3207  0.3189 -0.9685
 2380SOL    HW2 8741   2.365   1.220   3.782  0.5048 -0.0966  0.1893
 2381SOL     OW 8742   3.461   6.410   1.776 -0.4813  0.4281  0.7171
 2381SOL    HW1 8743   3.539   6.418   1.838  1.0389 -2.3943 -0.6351
 2381SOL    HW2 8744   3.493   6.415   1.682 -2.1307  0.3293  0.1243
 2382SOL     OW 8745   4.840   3.636   5.350 -0.1534 -0.4262  0.3562
 2382SOL    HW1 8746   4.841   3.716   5.411 -2.2398  0.7365 -1.0066
 2382SOL    HW2 8747   4.816   3.555   5.403 -1.8630  0.5345  1.1597
 2383SOL     OW 8748   1.284   4.048   3.954  0.3972  0.1010 -0.3073
 2383SOL    HW1 8749   1.363   4.109   3.950  0.0136  0.5726 -0.8740
 2383SOL    HW2 8750   1.206   4.098   3.991  0.2250 -0.2119 -0.2449
 2384SOL     OW 8751   6.584   4.880   5.607 -0.4986 -0.1120 -0.2246
 2384SOL    HW1 8752   6.504   4.883   5.668 -0.8345  0.9036 -0.7022
 2384SOL    HW2 8753   6.620   4.787   5.606  0.2353  0.0600  2.4265
 2385SOL     OW 8754   6.006   2.645   4.675  0.2632  0.5619  0.2599
 2385SOL    HW1 8755   6.036   2.715   4.609  0.3987  2.1252  1.9079
 2385SOL    HW2 8756   5.907   2.632   4.666 -0.0518  2.1918  1.0088
 2386SOL     OW 8757   0.224   0.361   5.869 -0.3065 -0.1855  0.2293
 2386SOL    HW1 8758   0.312   0.409   5.869  0.7656 -2.0249  1.1740
 2386SOL    HW2 8759   0.229   0.281   5.810 -1.3103 -0.3697  0.3735
 2387SOL     OW 8760   1.321   5.894   3.723  0.5037 -0.3669 -0.0682
 2387SOL    HW1 8761   1.371   5.976   3.752 -0.7043  1.2227 -2.1440
 2387SOL    HW2 8762   1.345   5.872   3.628 -2.4392  0.3821 -1.1051
 2388SOL     OW 8763   2.278   5.602   4.685  0.5868  0.2710 -0.1280
 2388SOL    HW1 8764   2.361   5.607   4.630 -0.6929  0.6908 -2.1485
 2388SOL    HW2 8765   2.266   5.688   4.735  1.0114  0.4901 -0.3970
 2389SOL     OW 8766   0.401   2.639   4.760  0.7882  0.4042  0.1289
 2389SOL    HW1 8767   0.399   2.723   4.813  0.1958  1.5538 -1.6335
 2389SOL    HW2 8768   0.319   2.634   4.702  1.0779 -1.1204 -0.1912
 2390SOL     OW 8769   6.602   4.422   5.407 -0.2458 -0.4089 -0.3245
 2390SOL    HW1 8770   6.530   4.407   5.474  0.1197 -1.5432 -0.1656
 2390SOL    HW2 8771   6.579   4.502   5.351 -2.2556 -1.4496 -1.1018
 2391SOL     OW 8772   6.370   6.100   3.973  0.4472 -0.6549  0.4628
 2391SOL    HW1 8773   6.409   6.075   4.062  1.7837 -2.7623 -0.6404
 2391SOL    HW2 8774   6.334   6.019   3.928  2.4402 -0.2432 -2.1427
 2392SOL     OW 8775   0.115   3.393   4.195 -0.2567  0.7417  0.0586
 2392SOL    HW1 8776   0.141   3.433   4.283 -2.2169  1.3442  0.4010
 2392SOL    HW2 8777   0.086   3.299   4.208  0.4811  0.4788 -0.1324
 2393SOL     OW 8778   0.066   2.296   4.266  0.0133  0.4551 -0.4010
 2393SOL    HW1 8779  -0.026   2.265   4.288  0.4310 -1.1171 -0.7350
 2393SOL    HW2 8780   0.120   2.303   4.350  0.1446 -0.5430 -0.3966
 2394SOL     OW 8781   0.832   4.151   6.703 -0.1738  0.0950 -0.6540
 2394SOL    HW1 8782   0.927   4.143   6.675  0.0572 -0.5026  0.2439
 2394SOL    HW2 8783   0.812   4.246   6.728  0.2664  0.1744 -0.5913
 2395SOL     OW 8784   3.797   4.688   2.269  0.5093  0.0650  0.0082
 2395SOL    HW1 8785   3.744   4.766   2.302  2.3233  0.5968  1.8780
 2395SOL    HW2 8786   3.809   4.622   2.343 -0.7671 -1.9360 -1.4640
 2396SOL     OW 8787   1.594   0.698   3.446 -0.3564 -0.5871 -0.1902
 2396SOL    HW1 8788   1.605   0.738   3.355 -1.3905 -1.5286 -0.7496
 2396SOL    HW2 8789   1.647   0.613   3.450  0.9062  0.2039  0.6117
 2397SOL     OW 8790   5.300   5.842   5.516 -0.2018  0.2283  0.1844
 2397SOL    HW1 8791   5.295   5.848   5.417  1.6385  0.1597  0.0550
 2397SOL    HW2 8792   5.396   5.841   5.545 -0.6428 -1.7957  1.8320
 2398SOL     OW 8793   6.665   1.924   4.263 -0.0131  0.2366 -0.1174
 2398SOL    HW1 8794   6.700   1.859   4.196 -1.6787  0.5772 -1.3741
 2398SOL    HW2 8795   6.654   1.879   4.351  3.4348  0.0986  0.3814
 2399SOL     OW 8796   3.064   2.796   1.767 -0.2321  0.3809 -0.2328
 2399SOL    HW1 8797   3.121   2.744   1.704 -1.1539 -0.0873 -0.7115
 2399SOL    HW2 8798   2.976   2.749   1.778  0.0919  0.1727  1.8089
 2400SOL     OW 8799   0.719   2.527   6.038  0.1574 -0.8282 -0.1647
 2400SOL    HW1 8800   0.707   2.443   6.092  0.4368  0.1276  1.4474
 2400SOL    HW2 8801   0.730   2.604   6.100  1.1892  0.2351 -1.6291
 2401SOL     OW 8802   2.560   6.368   4.978  0.4629 -0.2309  0.1165
 2401SOL    HW1 8803   2.533   6.465   4.976  0.0196 -0.3312  1.0247
 2401SOL    HW2 8804   2.507   6.318   4.909  1.6260  0.3897 -1.2832
 2402SOL     OW 8805   4.498   0.984   5.760 -0.4886  0.2362  0.4473
 2402SOL    HW1 8806   4.548   0.953   5.679  0.7246 -0.0258  1.2634
 2402SOL    HW2 8807   4.499   1.084   5.763 -1.3021  0.2847 -0.2998
 2403SOL     OW 8808   6.490   2.685   2.759  0.5780  0.6069  0.0343
 2403SOL    HW1 8809   6.468   2.647   2.669  0.2140  0.6452  0.1038
 2403SOL    HW2 8810   6.572   2.642   2.795  0.0551 -0.2713  0.2023
 2404SOL     OW 8811   3.020   0.303   2.972 -0.0716 -0.1205 -0.2546
 2404SOL    HW1 8812   2.945   0.267   3.027 -0.1080 -0.8059 -0.7463
 2404SOL    HW2 8813   3.013   0.268   2.879  0.1690  0.7872 -0.6180
 2405SOL     OW 8814   5.766   5.017   1.327  0.2124 -0.2445 -0.4868
 2405SOL    HW1 8815   5.672   5.028   1.361  0.6307  0.5251  0.4710
 2405SOL    HW2 8816   5.796   4.923   1.344  0.5525  0.2036  1.7736
 2406SOL     OW 8817   2.336   3.297   0.665  0.5761  0.1495 -0.3122
 2406SOL    HW1 8818   2.245   3.272   0.631  0.5686  0.2833 -0.3900
 2406SOL    HW2 8819   2.338   3.292   0.765  0.5367 -0.0366 -0.3212
 2407SOL     OW 8820   6.631   4.175   4.900 -0.0863  0.2579 -0.2236
 2407SOL    HW1 8821   6.636   4.194   4.998 -1.0626  0.3875 -0.1950
 2407SOL    HW2 8822   6.548   4.124   4.879 -1.1720  2.3399 -1.2953
 2408SOL     OW 8823   1.560   1.067   0.430 -0.1560  0.5321  0.6869
 2408SOL    HW1 8824   1.613   0.987   0.460 -0.8047 -0.2183 -0.1464
 2408SOL    HW2 8825   1.576   1.142   0.494  0.9833 -0.0500  1.1147
 2409SOL     OW 8826   1.141   3.812   3.801 -0.1911 -0.0572 -0.0413
 2409SOL    HW1 8827   1.218   3.844   3.856  0.6029  0.1446 -1.2401
 2409SOL    HW2 8828   1.173   3.744   3.735 -1.3274 -1.1220  0.4793
 2410SOL     OW 8829   2.573   5.629   3.565  0.1892 -0.0665  0.0754
 2410SOL    HW1 8830   2.508   5.566   3.524 -0.3328  0.6024 -0.1333
 2410SOL    HW2 8831   2.524   5.701   3.614  0.7519 -1.3787  2.7868
 2411SOL     OW 8832   5.413   2.194   2.854 -0.3406  1.1317 -0.6880
 2411SOL    HW1 8833   5.500   2.152   2.878 -0.3922  1.7396  0.6153
 2411SOL    HW2 8834   5.338   2.134   2.881 -0.3554  1.0274 -0.9568
 2412SOL     OW 8835   0.424   5.584   5.264 -0.9455 -0.0045  0.6857
 2412SOL    HW1 8836   0.440   5.658   5.328  0.4485 -0.8144  1.3100
 2412SOL    HW2 8837   0.421   5.620   5.171  2.3557  0.5663  0.7041
 2413SOL     OW 8838   0.515   5.599   2.603  0.1745  0.1122  1.1390
 2413SOL    HW1 8839   0.552   5.572   2.692  0.7389  1.0861  1.2076
 2413SOL    HW2 8840   0.588   5.637   2.547 -0.4488  0.7673  0.7601
 2414SOL     OW 8841   6.153   6.426   5.076 -0.2748 -0.2666 -0.3232
 2414SOL    HW1 8842   6.080   6.427   5.007 -1.8385 -1.9888  1.1996
 2414SOL    HW2 8843   6.122   6.473   5.158  0.4838 -0.6610  0.1928
 2415SOL     OW 8844   5.788   6.561   3.968 -0.0427 -0.0622  0.5584
 2415SOL    HW1 8845   5.839   6.604   4.043  1.1027 -1.7367  0.8102
 2415SOL    HW2 8846   5.852   6.533   3.896 -0.7493 -1.1284  0.3225
 2416SOL     OW 8847   1.909   3.875   4.763  0.0172 -0.3644 -0.2123
 2416SOL    HW1 8848   1.947   3.797   4.713  1.1756  0.3685 -0.5145
 2416SOL    HW2 8849   1.809   3.867   4.765  0.0596 -1.3931 -1.0018
 2417SOL     OW 8850   2.487   5.335   2.586 -0.1535 -0.5446  1.0494
 2417SOL    HW1 8851   2.509   5.432   2.596 -4.0271  0.4173  1.8857
 2417SOL    HW2 8852   2.487   5.310   2.489  2.7143 -0.3038  0.9195
 2418SOL     OW 8853   6.955   1.085   1.996 -0.1426  0.3560 -0.3723
 2418SOL    HW1 8854   6.899   1.018   2.045  0.6856 -0.1894 -0.1646
 2418SOL    HW2 8855   6.978   1.050   1.905  2.3191 -0.7455  0.6022
 2419SOL     OW 8856   0.573   1.959   2.751  0.5777 -0.2632  0.5011
 2419SOL    HW1 8857   0.639   2.025   2.787  1.1650 -0.7139  0.2687
 2419SOL    HW2 8858   0.535   1.905   2.826  1.7562 -1.1624  0.4898
 2420SOL     OW 8859   5.264   1.640   0.102  0.0228 -0.4360  0.0159
 2420SOL    HW1 8860   5.198   1.710   0.128  0.5010  0.9282 -2.1393
 2420SOL    HW2 8861   5.354   1.682   0.088  1.0497 -2.0181  1.5138
 2421SOL     OW 8862   5.677   5.320   6.429  0.0192 -0.1165  0.0713
 2421SOL    HW1 8863   5.632   5.386   6.489 -0.9980  0.7376 -1.5459
 2421SOL    HW2 8864   5.693   5.235   6.479  0.0603  0.8636  1.7886
 2422SOL     OW 8865   0.665   4.902   0.348 -0.5586  0.5949  0.0423
 2422SOL    HW1 8866   0.698   4.980   0.402 -0.8657  0.3367  0.6122
 2422SOL    HW2 8867   0.567   4.890   0.364 -0.8362  1.0108 -1.2038
 2423SOL     OW 8868   1.244   6.738   6.896 -0.4568  0.2052  0.2403
 2423SOL    HW1 8869   1.187   6.743   6.978 -0.0920  1.9528  0.4214
 2423SOL    HW2 8870   1.286   6.826   6.879  0.2760 -0.3968 -1.2830
 2424SOL     OW 8871   6.152   2.177   5.270 -0.3176  0.1343 -0.0672
 2424SOL    HW1 8872   6.067   2.157   5.220 -0.6978  0.2409  0.5302
 2424SOL    HW2 8873   6.169   2.105   5.337 -0.3466  0.5098  0.3479
 2425SOL     OW 8874   0.786   4.681   6.234  0.3000 -0.5755  0.6039
 2425SOL    HW1 8875   0.695   4.707   6.201  0.6255 -0.3134 -0.1031
 2425SOL    HW2 8876   0.776   4.616   6.309 -0.4646 -1.0055  0.1494
 2426SOL     OW 8877   5.348   2.911   0.528  0.7444  0.0775  0.2470
 2426SOL    HW1 8878   5.334   2.883   0.433 -0.0680  1.1743  0.0151
 2426SOL    HW2 8879   5.347   3.011   0.533 -0.8301  0.0279  1.6239
 2427SOL     OW 8880   5.689   5.376   6.156  0.0132  0.4530 -0.1340
 2427SOL    HW1 8881   5.742   5.303   6.113 -2.1544 -0.0407 -2.1285
 2427SOL    HW2 8882   5.683   5.359   6.254  2.1360 -0.3115 -0.0728
 2428SOL     OW 8883   0.743   2.731   5.055 -0.4271 -0.1057 -0.3554
 2428SOL    HW1 8884   0.819   2.696   5.109  0.1823  1.1866 -0.3458
 2428SOL    HW2 8885   0.660   2.729   5.110 -0.2289 -0.6833 -0.0639
 2429SOL     OW 8886   1.658   0.111   2.910 -0.2579  0.1358  0.2337
 2429SOL    HW1 8887   1.620   0.019   2.908  0.4837 -0.1997  1.0510
 2429SOL    HW2 8888   1.742   0.114   2.855  0.4294 -0.0252  1.2366
 2430SOL     OW 8889   4.502   3.944   1.030  0.2907  0.3778 -0.4154
 2430SOL    HW1 8890   4.562   4.017   0.997 -1.4296  1.9308 -0.2254
 2430SOL    HW2 8891   4.489   3.954   1.129 -0.5036  0.2255 -0.5028
 2431SOL     OW 8892   6.462   2.823   3.082 -0.0736 -0.4255 -0.1338
 2431SOL    HW1 8893   6.413   2.819   3.170  1.4431 -2.6671  0.6960
 2431SOL    HW2 8894   6.500   2.733   3.061  0.5292  0.3330 -2.6039
 2432SOL     OW 8895   1.724   5.272   2.506  0.5176 -0.2877  0.2035
 2432SOL    HW1 8896   1.681   5.361   2.494  3.1168  0.8718 -1.5738
 2432SOL    HW2 8897   1.683   5.206   2.444  0.4930  0.4685 -0.6028
 2433SOL     OW 8898   3.402   5.970   1.467 -0.6914  0.3804  0.4216
 2433SOL    HW1 8899   3.492   5.985   1.510  0.1291  0.2804 -1.1912
 2433SOL    HW2 8900   3.369   5.878   1.491  0.3699 -0.1815 -0.1813
 2434SOL     OW 8901   4.483   5.846   2.705 -0.1814  0.1225 -0.0570
 2434SOL    HW1 8902   4.412   5.780   2.728  0.8243 -0.9774 -0.0524
 2434SOL    HW2 8903   4.569   5.821   2.749  0.8674 -0.0001 -2.0437
 2435SOL     OW 8904   2.568   5.349   4.742 -0.0122  0.2627 -0.5596
 2435SOL    HW1 8905   2.482   5.362   4.791  0.0332 -0.0089 -0.4018
 2435SOL    HW2 8906   2.589   5.251   4.739 -0.1724  0.2543 -1.4029
 2436SOL     OW 8907   0.811   0.661   5.481  0.4041 -0.5841  0.3051
 2436SOL    HW1 8908   0.761   0.693   5.561 -1.0186 -2.2565  0.1574
 2436SOL    HW2 8909   0.837   0.565   5.494  2.4905 -0.1315 -0.1784
 2437SOL     OW 8910   2.638   4.469   6.599 -0.6499  0.3899 -0.2522
 2437SOL    HW1 8911   2.639   4.473   6.499 -0.0034  0.8959 -0.2297
 2437SOL    HW2 8912   2.732   4.471   6.633 -0.8674  0.1769  0.3700
 2438SOL     OW 8913   3.294   1.717   1.611 -0.1456  0.2253 -0.5982
 2438SOL    HW1 8914   3.394   1.721   1.621 -0.0751  2.3560 -1.5176
 2438SOL    HW2 8915   3.270   1.738   1.516 -1.5434  2.1648  0.1227
 2439SOL     OW 8916   0.215   4.697   4.997  0.0808  0.1890  0.1715
 2439SOL    HW1 8917   0.278   4.644   5.054  0.7717  1.9383  1.1133
 2439SOL    HW2 8918   0.267   4.743   4.925 -0.2507  0.9223  0.3967
 2440SOL     OW 8919   0.202   6.045   1.782  0.1883 -0.1259  0.4558
 2440SOL    HW1 8920   0.194   5.947   1.768 -0.3170 -0.0929  0.4649
 2440SOL    HW2 8921   0.113   6.088   1.762  0.8211  0.5161 -1.1765
 2441SOL     OW 8922   1.439   6.130   3.802  0.0840  0.0673 -0.1169
 2441SOL    HW1 8923   1.412   6.210   3.856  1.4879 -1.1925  2.5979
 2441SOL    HW2 8924   1.534   6.141   3.772 -0.5492  0.5638 -2.1188
 2442SOL     OW 8925   1.649   0.519   3.722 -0.3882 -0.3282  0.4537
 2442SOL    HW1 8926   1.648   0.525   3.622  0.2197  1.1533  0.5125
 2442SOL    HW2 8927   1.691   0.433   3.750 -1.3110 -1.1395 -0.5592
 2443SOL     OW 8928   3.376   3.804   3.699 -0.6210  0.6037 -0.4458
 2443SOL    HW1 8929   3.302   3.853   3.744 -0.5862 -0.2491  0.5830
 2443SOL    HW2 8930   3.461   3.820   3.750 -0.5488 -0.2446 -0.2927
 2444SOL     OW 8931   2.761   0.508   3.264 -0.2222  0.0001  0.1957
 2444SOL    HW1 8932   2.664   0.522   3.281 -0.1819 -0.1283  0.5396
 2444SOL    HW2 8933   2.802   0.594   3.232 -0.2962  0.2568  0.7848
 2445SOL     OW 8934   3.218   0.959   1.786  0.4599 -0.4123  0.0995
 2445SOL    HW1 8935   3.172   1.047   1.782 -1.0235 -1.1734 -0.0872
 2445SOL    HW2 8936   3.297   0.960   1.725  0.5231  0.8005  0.1722
 2446SOL     OW 8937   4.069   5.972   5.692  0.4468 -0.0029  0.1257
 2446SOL    HW1 8938   4.052   6.035   5.616 -0.5138  0.3269  0.6010
 2446SOL    HW2 8939   4.161   5.988   5.728  0.5183  0.5712 -0.2847
 2447SOL     OW 8940   1.788   6.188   1.077  0.0333 -0.7763  0.6897
 2447SOL    HW1 8941   1.742   6.151   1.158  0.5012 -2.2129  0.3167
 2447SOL    HW2 8942   1.842   6.116   1.033  1.2539  0.4474  0.1315
 2448SOL     OW 8943   0.205   0.040   3.212  0.0081 -0.4760  0.4384
 2448SOL    HW1 8944   0.267   0.092   3.154 -0.8679  0.0672 -0.0443
 2448SOL    HW2 8945   0.203  -0.056   3.183  1.6611 -0.8227  1.3545
 2449SOL     OW 8946   0.416   2.584   2.246  0.1249  0.4219  0.4158
 2449SOL    HW1 8947   0.405   2.624   2.336  2.2840  1.7016  0.1741
 2449SOL    HW2 8948   0.423   2.656   2.177 -0.1038 -0.4946 -0.6072
 2450SOL     OW 8949   6.652   3.768   2.513 -0.3115  0.0632  0.3851
 2450SOL    HW1 8950   6.611   3.728   2.431 -0.2576  1.2076 -0.2172
 2450SOL    HW2 8951   6.652   3.867   2.505  1.2072  0.1374  1.0495
 2451SOL     OW 8952   3.874   1.384   3.691 -0.2270  0.9806 -0.1319
 2451SOL    HW1 8953   3.969   1.384   3.662 -0.4670  1.6056 -0.9723
 2451SOL    HW2 8954   3.848   1.293   3.724  0.6610  0.8182  0.1262
 2452SOL     OW 8955   1.683   2.661   4.032 -0.0281 -0.0558 -0.0345
 2452SOL    HW1 8956   1.613   2.715   4.079  0.9933  0.1028  1.3791
 2452SOL    HW2 8957   1.737   2.720   3.972 -0.3978  0.0308 -0.2854
 2453SOL     OW 8958   4.803   2.464   6.950 -0.2035 -0.2908 -0.2873
 2453SOL    HW1 8959   4.798   2.436   7.046  0.6028  0.4942  0.0079
 2453SOL    HW2 8960   4.711   2.474   6.913 -0.7134  2.6824  1.4338
 2454SOL     OW 8961   4.642   1.278   2.045 -0.8323  0.1040 -0.2374
 2454SOL    HW1 8962   4.647   1.376   2.065 -3.2555  0.2455  0.0023
 2454SOL    HW2 8963   4.726   1.233   2.075 -0.2616  1.8831  0.9791
 2455SOL     OW 8964   3.327   1.820   3.967  0.4305 -0.2426  0.5867
 2455SOL    HW1 8965   3.387   1.774   4.033 -0.0862 -2.8972 -0.6824
 2455SOL    HW2 8966   3.371   1.820   3.877 -0.1972  0.5707  0.2651
 2456SOL     OW 8967   5.173   3.805   0.953  0.0708 -0.1935  0.6855
 2456SOL    HW1 8968   5.082   3.844   0.965  0.2937  0.6580 -0.2596
 2456SOL    HW2 8969   5.223   3.809   1.040 -0.4087  0.3476  0.9385
 2457SOL     OW 8970   6.667   3.477   4.351  0.0198 -0.1582 -0.0588
 2457SOL    HW1 8971   6.685   3.530   4.434  1.4315  0.3234 -0.6341
 2457SOL    HW2 8972   6.749   3.478   4.294 -0.4582 -1.6834 -0.8019
 2458SOL     OW 8973   3.587   2.244   1.735 -0.0971 -0.3001  0.7256
 2458SOL    HW1 8974   3.581   2.160   1.681  2.4985 -1.1947  1.6876
 2458SOL    HW2 8975   3.589   2.323   1.673 -0.5062 -1.0679 -0.2993
 2459SOL     OW 8976   2.459   0.480   1.304 -0.1275 -0.3750 -0.5861
 2459SOL    HW1 8977   2.439   0.565   1.256  3.5429  0.7262 -0.4736
 2459SOL    HW2 8978   2.528   0.428   1.252  1.5256 -0.7267  1.8015
 2460SOL     OW 8979   2.413   4.620   2.036  0.2670 -0.2306 -0.1839
 2460SOL    HW1 8980   2.423   4.542   2.097 -0.6666 -0.6224 -0.5028
 2460SOL    HW2 8981   2.390   4.587   1.944 -2.8572  0.4224  0.2456
 2461SOL     OW 8982   2.597   6.725   5.748 -0.4344 -0.2584  0.1579
 2461SOL    HW1 8983   2.626   6.681   5.833 -1.3215 -0.3282  0.4342
 2461SOL    HW2 8984   2.644   6.683   5.670 -1.1447 -1.5795  0.4298
 2462SOL     OW 8985   4.545   0.706   2.422  0.2767  0.1598  0.1464
 2462SOL    HW1 8986   4.520   0.782   2.362 -0.7306  0.6972  1.2289
 2462SOL    HW2 8987   4.490   0.709   2.505  0.6392 -1.4177  0.4715
 2463SOL     OW 8988   5.250   2.656   6.437  0.5356 -0.0147  0.2429
 2463SOL    HW1 8989   5.187   2.732   6.455  1.1416  0.4356  0.5230
 2463SOL    HW2 8990   5.332   2.691   6.391  1.4288 -0.2558  1.5827
 2464SOL     OW 8991   4.237   0.288   1.086 -0.2163 -0.1794 -0.2668
 2464SOL    HW1 8992   4.275   0.381   1.091  1.1225 -0.7468  0.4986
 2464SOL    HW2 8993   4.197   0.263   1.174 -1.1613 -0.1058 -0.6630
 2465SOL     OW 8994   2.451   2.372   5.076  0.0804  0.2592 -0.3676
 2465SOL    HW1 8995   2.549   2.352   5.085 -0.0664 -0.0677  0.6190
 2465SOL    HW2 8996   2.440   2.460   5.030  0.7873 -0.5507 -2.1943
 2466SOL     OW 8997   4.453   2.078   1.756  0.0093 -0.2382  0.9167
 2466SOL    HW1 8998   4.368   2.047   1.714  0.7691 -1.2381  0.0649
 2466SOL    HW2 8999   4.463   2.034   1.846  0.5942 -1.7831  0.1397
 2467SOL     OW 9000   4.037   1.166   4.427 -0.4143  0.1010 -0.9655
 2467SOL    HW1 9001   4.050   1.114   4.343  0.5221  0.4785 -1.0660
 2467SOL    HW2 9002   3.950   1.215   4.423 -1.3409 -1.4882 -0.8387
 2468SOL     OW 9003   4.710   3.022   6.031 -0.0429 -0.0540 -0.4159
 2468SOL    HW1 9004   4.761   3.105   6.053 -0.4762  0.8841 -2.6788
 2468SOL    HW2 9005   4.717   3.004   5.933 -0.0570 -2.6552  0.0094
 2469SOL     OW 9006   3.508   3.839   0.431 -0.8184  0.2746  0.3058
 2469SOL    HW1 9007   3.556   3.851   0.518 -1.7304 -0.9127  0.9931
 2469SOL    HW2 9008   3.518   3.922   0.376  4.7143 -0.8054 -1.0037
 2470SOL     OW 9009   0.323   1.715   3.437  0.0181 -0.3750  0.5092
 2470SOL    HW1 9010   0.365   1.640   3.387 -0.8816 -0.2503 -0.4708
 2470SOL    HW2 9011   0.292   1.682   3.526  1.8013 -0.5538  1.0997
 2471SOL     OW 9012   6.921   3.703   1.482  0.3665 -0.4650  0.8895
 2471SOL    HW1 9013   6.953   3.663   1.568 -0.0833  1.6483  2.1074
 2471SOL    HW2 9014   6.972   3.786   1.462  1.0798 -1.3654 -1.4231
 2472SOL     OW 9015   5.280   6.003   4.454  0.5273  0.0083 -0.4574
 2472SOL    HW1 9016   5.239   5.956   4.376 -1.1785 -0.8364  0.8745
 2472SOL    HW2 9017   5.300   5.936   4.526  0.6750  0.9515  0.3935
 2473SOL     OW 9018   2.894   1.971   2.512 -0.2641 -0.3274 -0.0068
 2473SOL    HW1 9019   2.883   1.990   2.415  0.0192  0.6645  0.1499
 2473SOL    HW2 9020   2.987   1.938   2.529 -0.8120 -2.1443 -0.3073
 2474SOL     OW 9021   1.522   4.260   5.646  0.0753  0.0736 -0.2426
 2474SOL    HW1 9022   1.517   4.221   5.737 -0.6955  1.3694  0.2963
 2474SOL    HW2 9023   1.441   4.231   5.593  1.0233 -1.5179 -0.9027
 2475SOL     OW 9024   2.298   1.059   0.941  0.7062  0.2379 -0.0373
 2475SOL    HW1 9025   2.252   1.122   1.003  0.9484  0.1324  0.2553
 2475SOL    HW2 9026   2.316   1.104   0.854  0.5454  0.4540  0.0435
 2476SOL     OW 9027   1.075   4.682   1.975  0.1053 -0.2456  0.0158
 2476SOL    HW1 9028   1.103   4.688   2.071 -0.6943  2.5358  0.1710
 2476SOL    HW2 9029   1.120   4.754   1.923 -0.0147 -1.2751 -1.5720
 2477SOL     OW 9030   6.092   6.830   4.724  0.0973 -0.1501 -0.1625
 2477SOL    HW1 9031   6.018   6.770   4.753 -0.1959  1.1991  2.2153
 2477SOL    HW2 9032   6.178   6.779   4.724 -0.3485 -0.9252  0.4176
 2478SOL     OW 9033   1.112   3.802   0.034 -0.5994  0.1985 -0.8377
 2478SOL    HW1 9034   1.022   3.785   0.074  0.3606 -0.8260  0.9918
 2478SOL    HW2 9035   1.148   3.888   0.070  1.1257 -1.6804  2.3272
 2479SOL     OW 9036   2.100   3.626   5.664 -0.6105  0.3244  0.9872
 2479SOL    HW1 9037   2.064   3.550   5.718  2.8386 -0.9491  1.7213
 2479SOL    HW2 9038   2.189   3.654   5.700  1.1254  0.5658 -2.9562
 2480SOL     OW 9039   0.675   6.005   0.014  0.3728 -0.1716  0.0710
 2480SOL    HW1 9040   0.653   5.964  -0.074 -0.0132  0.0852  0.0483
 2480SOL    HW2 9041   0.751   6.068   0.003  0.0160  0.2168 -0.1667
 2481SOL     OW 9042   3.062   2.723   1.012 -0.1850 -0.3018  0.9221
 2481SOL    HW1 9043   3.103   2.632   0.997 -2.2841 -1.1766  0.0880
 2481SOL    HW2 9044   3.035   2.762   0.924  1.3902  1.5425  1.1949
 2482SOL     OW 9045   5.736   0.377   3.349  0.0947  0.0593 -0.1777
 2482SOL    HW1 9046   5.738   0.338   3.257 -0.3739  0.2059 -0.2526
 2482SOL    HW2 9047   5.828   0.376   3.387  0.0085 -1.7168  0.0721
 2483SOL     OW 9048   2.312   1.304   2.070 -0.4706  0.2749 -0.1470
 2483SOL    HW1 9049   2.341   1.220   2.024 -1.0710  0.3722 -0.7298
 2483SOL    HW2 9050   2.383   1.373   2.062  0.0271 -0.1795  0.3342
 2484SOL     OW 9051   6.981   4.787   0.505  0.0513  0.3076 -0.3915
 2484SOL    HW1 9052   7.048   4.762   0.574 -0.8817  0.5753  0.6496
 2484SOL    HW2 9053   6.898   4.733   0.518 -0.1892  0.4628 -1.2209
 2485SOL     OW 9054   3.613   3.357   7.021  0.1245 -0.3359  0.5034
 2485SOL    HW1 9055   3.690   3.360   6.957  0.0234 -0.1144  0.3890
 2485SOL    HW2 9056   3.565   3.270   7.011  0.3270 -0.4522  0.5358
 2486SOL     OW 9057   1.743   2.041   2.756 -0.1180  0.4597  0.1380
 2486SOL    HW1 9058   1.778   1.979   2.826  0.9353  2.4810  1.5014
 2486SOL    HW2 9059   1.817   2.066   2.693 -0.7378 -0.2944 -0.9218
 2487SOL     OW 9060   5.859   6.527   2.670  0.4618  0.2755  0.1736
 2487SOL    HW1 9061   5.790   6.550   2.738 -0.9084  3.7041 -2.1096
 2487SOL    HW2 9062   5.948   6.518   2.715 -0.5631  1.2190  2.5563
 2488SOL     OW 9063   6.170   4.974   0.766  0.2129  0.0721 -0.0424
 2488SOL    HW1 9064   6.269   4.972   0.777  0.0251 -0.4315  1.9813
 2488SOL    HW2 9065   6.131   5.036   0.835 -0.8880  0.2146 -0.7787
 2489SOL     OW 9066   3.790   6.295   5.053 -0.4983 -0.1666  0.1386
 2489SOL    HW1 9067   3.834   6.219   5.006 -1.3577 -0.9752  0.6201
 2489SOL    HW2 9068   3.706   6.264   5.096  0.2427  0.5654  2.2185
 2490SOL     OW 9069   1.757   1.015   6.843 -0.1407 -0.3217  0.8459
 2490SOL    HW1 9070   1.772   1.097   6.899 -1.1682  2.3894 -2.5217
 2490SOL    HW2 9071   1.839   0.994   6.791 -0.4320 -0.3745  0.4048
 2491SOL     OW 9072   2.892   1.093   2.447  0.1228 -0.5145  0.4076
 2491SOL    HW1 9073   2.935   1.044   2.523 -0.2158 -1.4917 -0.0107
 2491SOL    HW2 9074   2.962   1.147   2.399  0.7967 -1.6130  0.0989
 2492SOL     OW 9075   4.709   0.324   3.411 -0.3179 -0.4416 -0.4500
 2492SOL    HW1 9076   4.686   0.399   3.473  0.7363 -1.8416  1.7727
 2492SOL    HW2 9077   4.727   0.360   3.319 -3.4269  1.5423 -0.3944
 2493SOL     OW 9078   2.508   0.329   5.802 -0.2533 -0.0021 -0.2247
 2493SOL    HW1 9079   2.550   0.415   5.775  1.0960 -0.0793  1.5162
 2493SOL    HW2 9080   2.525   0.311   5.899 -1.2530 -1.8023 -0.3260
 2494SOL     OW 9081   2.722   0.993   5.591 -0.5188  0.2761 -0.0910
 2494SOL    HW1 9082   2.692   1.046   5.512 -0.1558  0.2808 -0.2284
 2494SOL    HW2 9083   2.822   0.993   5.595 -0.4904 -0.9225 -0.4528
 2495SOL     OW 9084   5.206   1.956   4.773  0.3000  0.2399 -0.2122
 2495SOL    HW1 9085   5.122   1.902   4.767  1.1078 -0.9613 -1.3623
 2495SOL    HW2 9086   5.195   2.028   4.841 -0.4162 -2.1252  2.3448
 2496SOL     OW 9087   1.758   0.421   1.742  0.1488  0.6803  0.0459
 2496SOL    HW1 9088   1.785   0.514   1.716 -0.2543  1.2008  1.4167
 2496SOL    HW2 9089   1.798   0.399   1.831  0.1696 -0.4476 -0.2242
 2497SOL     OW 9090   0.104   3.738   4.158 -0.0590  0.1278 -0.4410
 2497SOL    HW1 9091   0.099   3.681   4.076  3.2161 -0.1216 -0.5763
 2497SOL    HW2 9092   0.129   3.682   4.237 -0.5609  0.7969  0.2093
 2498SOL     OW 9093   1.897   4.203   6.917 -0.2710 -0.0815 -0.2476
 2498SOL    HW1 9094   1.983   4.253   6.922  1.6022 -2.8281 -2.1142
 2498SOL    HW2 9095   1.826   4.261   6.877  1.1629  1.6985 -0.3256
 2499SOL     OW 9096   1.312   4.523   2.776 -0.3419 -0.3519  0.0205
 2499SOL    HW1 9097   1.336   4.430   2.801  0.3117 -0.2533 -0.2082
 2499SOL    HW2 9098   1.213   4.530   2.763 -0.3241 -1.1912 -0.6720
 2500SOL     OW 9099   6.734   3.801   1.646  0.2343  0.9042 -0.1230
 2500SOL    HW1 9100   6.769   3.774   1.556 -0.7577 -1.8294  0.2108
 2500SOL    HW2 9101   6.809   3.801   1.712  0.4343 -0.3471 -0.3247
 2501SOL     OW 9102   2.293   6.221   3.767 -0.0219 -0.0787  0.0390
 2501SOL    HW1 9103   2.270   6.230   3.864 -1.5610  0.1330 -0.3250
 2501SOL    HW2 9104   2.373   6.161   3.758 -1.5800 -2.5128  1.2751
 2502SOL     OW 9105   0.998   2.175   3.493 -0.4889  0.0409 -0.2044
 2502SOL    HW1 9106   0.984   2.155   3.397  0.4035 -0.1672 -0.2960
 2502SOL    HW2 9107   1.007   2.274   3.506  0.7693 -0.0159 -0.5355
 2503SOL     OW 9108   6.449   0.263   4.330 -0.5582 -0.2457 -0.2778
 2503SOL    HW1 9109   6.536   0.248   4.375 -0.8063 -0.6462  0.0672
 2503SOL    HW2 9110   6.465   0.290   4.235 -0.0830 -1.9266 -0.7090
 2504SOL     OW 9111   6.941   3.801   1.818  0.0120  0.1948 -0.5380
 2504SOL    HW1 9112   6.978   3.712   1.792 -2.7276 -1.0163 -0.5694
 2504SOL    HW2 9113   6.966   3.822   1.912  1.2751 -0.2385 -0.7593
 2505SOL     OW 9114   1.265   6.118   2.349  0.0090  0.4037  0.0737
 2505SOL    HW1 9115   1.210   6.069   2.281  1.3745  0.0943 -0.8677
 2505SOL    HW2 9116   1.205   6.169   2.410 -1.3677 -0.9718 -0.0667
 2506SOL     OW 9117   3.872   4.403   1.184  0.2436 -0.4529 -0.4707
 2506SOL    HW1 9118   3.910   4.366   1.099  0.8741  0.2855 -0.5325
 2506SOL    HW2 9119   3.797   4.346   1.216  0.4217 -1.0951 -1.1845
 2507SOL     OW 9120   5.313   4.579   5.474  0.2797  0.9691  0.0097
 2507SOL    HW1 9121   5.344   4.673   5.482  1.1045  1.1076 -3.2817
 2507SOL    HW2 9122   5.392   4.518   5.472  0.0073  0.6175 -1.4315
 2508SOL     OW 9123   0.195   3.629   3.518  0.0704  0.0731  0.0566
 2508SOL    HW1 9124   0.213   3.719   3.558 -0.5558 -0.2531  1.1111
 2508SOL    HW2 9125   0.281   3.578   3.513  0.2197  0.2347  0.7431
 2509SOL     OW 9126   3.346   3.804   7.009 -0.0332 -0.5413  0.0099
 2509SOL    HW1 9127   3.415   3.733   7.022  1.6159  1.2470  1.8266
 2509SOL    HW2 9128   3.282   3.802   7.086 -0.0810 -0.1507 -0.0200
 2510SOL     OW 9129   5.780   6.952   2.089  0.3022 -0.3826  0.3657
 2510SOL    HW1 9130   5.771   6.921   1.994 -1.6183 -0.7266  0.6182
 2510SOL    HW2 9131   5.761   7.050   2.094 -2.7104 -0.8784  0.7202
 2511SOL     OW 9132   1.340   6.116   5.030 -0.3849  0.4124  0.1994
 2511SOL    HW1 9133   1.324   6.052   5.105  0.1513 -2.2252 -1.7744
 2511SOL    HW2 9134   1.431   6.100   4.990 -0.6304  1.7417 -1.0143
 2512SOL     OW 9135   1.503   2.704   0.560  0.2585  0.2083 -0.1813
 2512SOL    HW1 9136   1.427   2.647   0.529  0.2079 -0.0065  0.3235
 2512SOL    HW2 9137   1.506   2.788   0.506 -0.7915  0.5523  0.2743
 2513SOL     OW 9138   4.320   1.464   6.874 -0.1649  0.7867 -0.3585
 2513SOL    HW1 9139   4.226   1.498   6.871 -0.0261  1.2523  0.2185
 2513SOL    HW2 9140   4.382   1.535   6.841  0.0227  0.6461 -0.3099
 2514SOL     OW 9141   3.195   5.624   3.990  0.0785 -0.4812  0.1140
 2514SOL    HW1 9142   3.201   5.525   3.984 -0.0455 -0.4045 -1.9608
 2514SOL    HW2 9143   3.285   5.664   3.972  0.4055 -0.2091  2.1330
 2515SOL     OW 9144   0.638   4.323   2.036 -0.1224  0.1353  0.3680
 2515SOL    HW1 9145   0.686   4.257   1.978  1.4743  1.0088  0.6614
 2515SOL    HW2 9146   0.696   4.348   2.113 -1.1219  1.1155  0.8254
 2516SOL     OW 9147   3.464   4.137   3.406 -0.0841  0.4596  0.6554
 2516SOL    HW1 9148   3.465   4.179   3.497 -0.6670 -0.4855  1.1125
 2516SOL    HW2 9149   3.409   4.054   3.408 -0.1678  0.4603 -0.5877
 2517SOL     OW 9150   3.437   5.620   3.079 -0.6027 -0.5878  0.0274
 2517SOL    HW1 9151   3.534   5.626   3.056 -0.6028 -1.1390 -0.1273
 2517SOL    HW2 9152   3.384   5.670   3.011 -0.2281  2.6563  1.8931
 2518SOL     OW 9153   6.465   4.297   3.550 -0.1467 -0.1896  0.2959
 2518SOL    HW1 9154   6.466   4.204   3.515 -0.0485 -0.5277  1.1752
 2518SOL    HW2 9155   6.425   4.358   3.481 -0.7146 -0.9602 -0.0719
 2519SOL     OW 9156   2.880   4.404   2.447  0.2513 -0.0866  0.5158
 2519SOL    HW1 9157   2.945   4.480   2.443 -0.4973  0.5513  0.0449
 2519SOL    HW2 9158   2.922   4.322   2.409  1.6902 -0.4021  2.6716
 2520SOL     OW 9159   2.357   4.602   1.726 -0.1365  0.0096  0.3132
 2520SOL    HW1 9160   2.337   4.575   1.632 -0.4144 -0.7036  0.5652
 2520SOL    HW2 9161   2.383   4.698   1.729  1.1380 -0.2881 -0.6583
 2521SOL     OW 9162   3.277   4.189   6.536 -0.4365 -0.0265  0.1703
 2521SOL    HW1 9163   3.266   4.171   6.438  2.7912  2.0048 -0.6931
 2521SOL    HW2 9164   3.187   4.206   6.577 -1.7899  0.0284 -2.6112
 2522SOL     OW 9165   5.098   6.702   0.985  1.2014 -0.4121 -0.4373
 2522SOL    HW1 9166   5.076   6.637   0.913  1.9618  0.3967 -1.4155
 2522SOL    HW2 9167   5.196   6.698   1.006  0.9714 -0.7467  0.6812
 2523SOL     OW 9168   5.751   3.744   3.865  0.4034 -0.1399 -0.3306
 2523SOL    HW1 9169   5.760   3.660   3.811  0.3865 -0.9327  0.8457
 2523SOL    HW2 9170   5.673   3.796   3.833  0.6000 -0.4155 -1.2862
 2524SOL     OW 9171   6.791   2.874   3.702  0.1678 -0.7579  1.0500
 2524SOL    HW1 9172   6.742   2.834   3.624  1.2680  1.2529 -0.7508
 2524SOL    HW2 9173   6.878   2.826   3.714  0.6902 -0.1181  0.0131
 2525SOL     OW 9174   3.547   6.293   2.572 -0.3576 -0.3065  0.4974
 2525SOL    HW1 9175   3.548   6.196   2.550 -0.8612 -0.5616  1.5549
 2525SOL    HW2 9176   3.490   6.342   2.505  2.7570 -0.1249 -2.2815
 2526SOL     OW 9177   1.918   1.721   6.708  0.1570  0.1717  0.2279
 2526SOL    HW1 9178   1.881   1.800   6.659  0.4803 -0.4608 -1.0809
 2526SOL    HW2 9179   1.985   1.753   6.775 -1.1766  1.1489  1.1432
 2527SOL     OW 9180   3.920   3.034   0.619  0.4542 -0.5255  0.0872
 2527SOL    HW1 9181   3.970   2.951   0.597  0.1285 -0.2937 -1.6671
 2527SOL    HW2 9182   3.971   3.114   0.587  0.2286 -0.1164  0.7234
 2528SOL     OW 9183   5.772   3.688   6.312 -0.5957  1.3655  0.4063
 2528SOL    HW1 9184   5.776   3.629   6.231  1.2773  0.8405  0.8464
 2528SOL    HW2 9185   5.680   3.726   6.320 -1.2644  0.1814 -1.0777
 2529SOL     OW 9186   0.875   5.999   6.206  0.0606 -0.1680  0.1624
 2529SOL    HW1 9187   0.845   6.076   6.150  2.3417  0.9880  0.4166
 2529SOL    HW2 9188   0.846   5.913   6.164 -0.9107  0.7645 -1.1301
 2530SOL     OW 9189   0.113   6.290   3.052 -0.0602 -0.2141  0.1580
 2530SOL    HW1 9190   0.074   6.363   2.996  1.4213  0.9716  0.6007
 2530SOL    HW2 9191   0.157   6.329   3.133  1.2306 -1.5380  0.1446
 2531SOL     OW 9192   5.063   2.023   5.912 -0.4796 -0.0938  0.0186
 2531SOL    HW1 9193   5.073   1.929   5.880 -1.3448  0.3956 -1.8673
 2531SOL    HW2 9194   4.966   2.043   5.928 -0.6802  1.2220 -2.3251
 2532SOL     OW 9195   1.102   5.117   0.951  0.0835  0.0300  0.5963
 2532SOL    HW1 9196   1.093   5.144   0.855 -1.4838  0.0227  0.7259
 2532SOL    HW2 9197   1.090   5.197   1.010 -2.2295 -0.4549  0.8815
 2533SOL     OW 9198   0.182   5.116   6.681  0.1520  0.2832  0.2199
 2533SOL    HW1 9199   0.270   5.072   6.663  0.3180  0.5015  0.4864
 2533SOL    HW2 9200   0.117   5.091   6.609  0.1925 -0.5364  0.4486
 2534SOL     OW 9201   2.122   2.277   5.425  0.1693 -0.4758  0.2706
 2534SOL    HW1 9202   2.109   2.356   5.366 -1.9053 -0.5591  0.5469
 2534SOL    HW2 9203   2.203   2.226   5.395 -0.0172  0.2584 -1.6055
 2535SOL     OW 9204   3.423   3.858   0.932 -0.1759 -0.1625 -0.7670
 2535SOL    HW1 9205   3.436   3.849   1.030  0.0076  0.5949 -0.7174
 2535SOL    HW2 9206   3.500   3.816   0.883 -0.8770 -1.6603 -0.6252
 2536SOL     OW 9207   1.641   2.187   6.419  0.1817  0.2485 -0.0422
 2536SOL    HW1 9208   1.573   2.144   6.479  0.1135  0.0012 -0.2929
 2536SOL    HW2 9209   1.603   2.270   6.380  0.0907  0.2121 -0.0318
 2537SOL     OW 9210   2.972   5.364   3.876  0.1398  0.1016  0.1187
 2537SOL    HW1 9211   3.003   5.312   3.955  0.1802  0.2570  0.2060
 2537SOL    HW2 9212   2.878   5.395   3.892  0.2279  0.3273  0.2039
 2538SOL     OW 9213   4.607   3.000   6.323  0.3774  0.3263  0.5972
 2538SOL    HW1 9214   4.689   3.031   6.372  0.9674  1.4450 -1.0081
 2538SOL    HW2 9215   4.630   2.983   6.228 -0.4360 -3.0591  0.8696
 2539SOL     OW 9216   0.350   6.144   3.176 -0.4709  0.4113 -0.2208
 2539SOL    HW1 9217   0.324   6.141   3.080  1.9042 -0.6681 -0.9279
 2539SOL    HW2 9218   0.340   6.053   3.216 -1.4382  0.8539  0.5670
 2540SOL     OW 9219   0.635   5.055   6.076 -0.1087 -0.2476  0.1759
 2540SOL    HW1 9220   0.710   5.117   6.097  0.6866  0.3170 -3.5653
 2540SOL    HW2 9221   0.550   5.108   6.069 -0.0488 -0.1428  0.2327
 2541SOL     OW 9222   5.251   3.045   2.081 -0.3841 -0.5377 -0.1213
 2541SOL    HW1 9223   5.254   3.081   2.175  1.0984  0.4158 -0.5029
 2541SOL    HW2 9224   5.320   3.092   2.026 -1.8028 -0.4816 -1.9119
 2542SOL     OW 9225   0.698   0.581   3.218  0.3043 -0.1903 -0.0379
 2542SOL    HW1 9226   0.798   0.575   3.221  0.3448  0.5069  0.1712
 2542SOL    HW2 9227   0.666   0.637   3.294 -0.2198 -0.0838 -0.3332
 2543SOL     OW 9228   3.539   5.095   4.534  0.1266  0.2685  0.4592
 2543SOL    HW1 9229   3.509   5.183   4.570  0.7140 -0.2777  2.3776
 2543SOL    HW2 9230   3.639   5.094   4.525  0.0178  0.3252 -1.1040
 2544SOL     OW 9231   0.747   6.985   3.347  0.3135  0.2826 -0.0499
 2544SOL    HW1 9232   0.793   6.941   3.424 -0.8361  1.3805  1.3044
 2544SOL    HW2 9233   0.712   6.914   3.285  0.3169 -0.6450  0.9738
 2545SOL     OW 9234   5.151   5.231   5.894 -0.2454  0.8552 -0.1054
 2545SOL    HW1 9235   5.142   5.201   5.989 -0.8234  0.4323 -0.2845
 2545SOL    HW2 9236   5.216   5.307   5.888  1.5180 -0.5711  0.3107
 2546SOL     OW 9237   2.212   4.429   1.546 -0.1799 -0.7369  0.2423
 2546SOL    HW1 9238   2.283   4.382   1.493 -0.4843 -1.0926  0.1481
 2546SOL    HW2 9239   2.123   4.412   1.504 -0.1944  0.8120 -0.4492
 2547SOL     OW 9240   3.393   1.243   1.705 -0.1024 -0.3205  0.6127
 2547SOL    HW1 9241   3.485   1.207   1.695 -0.0954 -0.2612  0.4484
 2547SOL    HW2 9242   3.383   1.288   1.793  0.0801 -0.1706  0.5556
 2548SOL     OW 9243   0.183   2.951   1.805  0.0168 -0.0087 -0.6604
 2548SOL    HW1 9244   0.196   2.864   1.853 -0.9300  0.3378  0.2689
 2548SOL    HW2 9245   0.090   2.985   1.822 -0.6057 -0.1607 -3.2440
 2549SOL     OW 9246   1.869   4.225   4.960 -0.0216 -0.0713 -0.3619
 2549SOL    HW1 9247   1.916   4.140   4.984 -2.1332 -1.7735 -1.8484
 2549SOL    HW2 9248   1.785   4.233   5.013  0.0892  1.0440 -0.3305
 2550SOL     OW 9249   2.107   0.438   5.870  0.4323  0.1154 -0.5322
 2550SOL    HW1 9250   2.073   0.390   5.951 -1.6312  0.6614 -1.0225
 2550SOL    HW2 9251   2.150   0.524   5.899 -0.6050  0.4813 -0.0156
 2551SOL     OW 9252   1.255   1.450   1.178 -0.0324 -0.3269  0.0123
 2551SOL    HW1 9253   1.290   1.542   1.163 -0.6091  0.0816  1.0856
 2551SOL    HW2 9254   1.331   1.385   1.176  0.5542  0.3281  0.5374
 2552SOL     OW 9255   6.533   3.114   3.093 -1.1734 -0.1854 -0.4565
 2552SOL    HW1 9256   6.508   3.020   3.072 -0.7790 -0.5644  0.7351
 2552SOL    HW2 9257   6.494   3.141   3.181  1.0668 -0.2188  0.6339
 2553SOL     OW 9258   1.400   1.605   3.352 -0.3557  0.3903  0.1292
 2553SOL    HW1 9259   1.382   1.699   3.322 -0.6469  0.4236  0.4034
 2553SOL    HW2 9260   1.411   1.603   3.451  0.0735  0.1965  0.0805
 2554SOL     OW 9261   2.789   4.809   5.216 -0.0263 -0.0779 -0.6032
 2554SOL    HW1 9262   2.735   4.885   5.253  1.2941  0.2224  0.8375
 2554SOL    HW2 9263   2.729   4.747   5.165 -1.6125  0.5710  0.3714
 2555SOL     OW 9264   4.396   4.583   5.294  0.0543  0.3628  0.1320
 2555SOL    HW1 9265   4.357   4.660   5.244 -0.4314  0.0556  0.0326
 2555SOL    HW2 9266   4.483   4.611   5.335 -0.0370  0.9133 -0.0376
 2556SOL     OW 9267   0.512   5.613   6.909 -0.2022  0.0705 -0.0516
 2556SOL    HW1 9268   0.415   5.601   6.929 -0.6726  0.5036 -1.8797
 2556SOL    HW2 9269   0.549   5.527   6.871 -0.4118  0.4864 -1.2573
 2557SOL     OW 9270   3.649   3.932   1.890 -0.4485 -0.4393 -0.1290
 2557SOL    HW1 9271   3.564   3.983   1.908 -0.4911 -0.6803  0.3587
 2557SOL    HW2 9272   3.727   3.992   1.903 -0.5014 -0.4792  0.3933
 2558SOL     OW 9273   6.720   1.070   0.680 -0.5193 -0.2548  0.0318
 2558SOL    HW1 9274   6.810   1.089   0.642  0.4381 -1.3320  1.6369
 2558SOL    HW2 9275   6.711   1.115   0.769 -1.5744 -0.1712 -0.0983
 2559SOL     OW 9276   4.860   6.666   3.343 -0.5695 -0.6972 -0.3021
 2559SOL    HW1 9277   4.799   6.699   3.272 -0.6360 -1.0407 -0.4084
 2559SOL    HW2 9278   4.814   6.593   3.394  0.1068 -1.6403 -1.0126
 2560SOL     OW 9279   1.808   6.872   0.848  0.0362 -0.2357 -0.1768
 2560SOL    HW1 9280   1.760   6.789   0.876  0.6410 -0.3263  0.6351
 2560SOL    HW2 9281   1.779   6.898   0.756  0.0180 -1.4859 -0.5406
 2561SOL     OW 9282   6.079   1.440   1.691  0.4478  0.3987  0.0650
 2561SOL    HW1 9283   6.163   1.386   1.701  0.1380 -0.3033 -0.8723
 2561SOL    HW2 9284   6.096   1.518   1.631  0.5114  0.4099  0.0987
 2562SOL     OW 9285   2.849   5.171   6.041 -0.0480 -0.3002  0.1750
 2562SOL    HW1 9286   2.860   5.120   5.956 -1.4927  0.4727 -0.5052
 2562SOL    HW2 9287   2.752   5.191   6.056  0.4205  1.8851  0.6314
 2563SOL     OW 9288   5.121   2.210   1.777  0.4677  0.1947 -0.1372
 2563SOL    HW1 9289   5.114   2.225   1.875  0.6227  2.8773 -0.4742
 2563SOL    HW2 9290   5.069   2.280   1.728  0.6264 -0.9122 -1.9892
 2564SOL     OW 9291   6.692   0.188   3.273 -0.7582  0.2257 -0.0458
 2564SOL    HW1 9292   6.752   0.114   3.242  0.1132  0.4919  0.9622
 2564SOL    HW2 9293   6.707   0.269   3.217 -1.2289 -0.1366 -0.7179
 2565SOL     OW 9294   1.036   2.642   0.705  0.6087  0.1559 -0.0433
 2565SOL    HW1 9295   1.091   2.718   0.740 -0.4106  0.6542  0.5052
 2565SOL    HW2 9296   0.939   2.664   0.713  0.1919 -1.9534  2.0023
 2566SOL     OW 9297   3.569   5.547   2.544 -0.1421  0.2744  0.7494
 2566SOL    HW1 9298   3.478   5.529   2.580 -0.0324 -0.0483  0.8667
 2566SOL    HW2 9299   3.638   5.516   2.609  0.0533  0.4451  0.6257
 2567SOL     OW 9300   6.330   1.054   3.059  0.5572 -0.0352  0.3065
 2567SOL    HW1 9301   6.420   1.096   3.049  0.5929  0.2564  1.6451
 2567SOL    HW2 9302   6.318   0.984   2.989  0.3431  2.3985 -2.2630
 2568SOL     OW 9303   1.610   6.779   0.237  0.0480 -0.2438  0.1014
 2568SOL    HW1 9304   1.575   6.771   0.143  1.1661  0.0163 -0.3457
 2568SOL    HW2 9305   1.663   6.697   0.259  2.0921  0.8625 -0.4911
 2569SOL     OW 9306   1.134   4.239   1.311 -0.1740  0.0298  0.2639
 2569SOL    HW1 9307   1.152   4.178   1.233 -2.1190 -0.4265  0.1365
 2569SOL    HW2 9308   1.155   4.191   1.396 -0.0821 -0.2098  0.1074
 2570SOL     OW 9309   1.408   2.242   3.736 -0.0207  0.2073  0.5562
 2570SOL    HW1 9310   1.322   2.294   3.740  0.0495  0.4401 -0.6208
 2570SOL    HW2 9311   1.475   2.292   3.682 -0.2005 -1.4362 -1.2822
 2571SOL     OW 9312   6.969   0.344   4.520  0.1810  0.2689 -0.2385
 2571SOL    HW1 9313   6.895   0.302   4.572  2.1087 -1.3466  1.3509
 2571SOL    HW2 9314   6.980   0.297   4.433  1.1177 -1.3941  0.7381
 2572SOL     OW 9315   6.530   5.300   2.502 -0.1939 -0.3480 -0.2648
 2572SOL    HW1 9316   6.466   5.323   2.429  0.7056  1.2921 -0.5886
 2572SOL    HW2 9317   6.623   5.295   2.465 -0.0904 -2.8436  0.1617
 2573SOL     OW 9318   3.462   5.208   1.598  0.2218 -0.5453  0.0980
 2573SOL    HW1 9319   3.486   5.226   1.694 -1.0448 -0.3868  0.3973
 2573SOL    HW2 9320   3.450   5.109   1.586  2.0069 -0.7456 -0.3107
 2574SOL     OW 9321   5.526   1.630   0.720  0.0901 -0.2271 -0.4322
 2574SOL    HW1 9322   5.610   1.660   0.673 -0.0946  0.5700 -0.2771
 2574SOL    HW2 9323   5.454   1.616   0.653 -0.5721  2.2367 -0.3382
 2575SOL     OW 9324   6.030   6.867   3.594 -0.4348 -0.0456 -0.1667
 2575SOL    HW1 9325   6.033   6.778   3.548  0.0407 -0.0045 -0.2146
 2575SOL    HW2 9326   6.122   6.895   3.619 -0.4912  0.8344 -0.9128
 2576SOL     OW 9327   5.911   3.923   6.183 -0.9048 -0.1800  0.5170
 2576SOL    HW1 9328   5.901   3.884   6.275  0.5635  0.4428  0.9664
 2576SOL    HW2 9329   5.968   3.864   6.127  1.2006  1.1350  1.1533
 2577SOL     OW 9330   0.752   0.395   4.078 -0.0883 -0.5668  0.2402
 2577SOL    HW1 9331   0.743   0.296   4.074 -3.0023 -0.3715 -0.0327
 2577SOL    HW2 9332   0.688   0.437   4.015 -2.4004  1.5288  3.6387
 2578SOL     OW 9333   1.456   5.362   0.038  0.4460  0.4935 -0.3088
 2578SOL    HW1 9334   1.430   5.372   0.134  3.1690 -0.1663  0.6001
 2578SOL    HW2 9335   1.449   5.266   0.011  1.3637  0.3898 -0.2033
 2579SOL     OW 9336   1.543   5.934   5.500  0.0466  0.3464  0.2126
 2579SOL    HW1 9337   1.465   5.990   5.528  0.3229  1.2399 -0.7754
 2579SOL    HW2 9338   1.510   5.859   5.443 -0.0744  0.8530 -0.3901
 2580SOL     OW 9339   2.501   4.912   3.808  0.1995 -0.1771 -0.1827
 2580SOL    HW1 9340   2.520   4.835   3.868  1.5867  0.2242 -0.0702
 2580SOL    HW2 9341   2.492   4.996   3.862  0.3139  0.0044 -0.4405
 2581SOL     OW 9342   2.261   5.760   3.511  0.7953  0.1318  0.2571
 2581SOL    HW1 9343   2.231   5.667   3.492  0.9779  0.1195  0.0307
 2581SOL    HW2 9344   2.279   5.770   3.609 -0.4218  0.2771  0.4741
 2582SOL     OW 9345   3.621   3.909   1.213  0.1618  0.2075  0.2160
 2582SOL    HW1 9346   3.555   3.981   1.194 -0.4523 -0.0138  1.4431
 2582SOL    HW2 9347   3.618   3.885   1.310  1.7360 -0.1165  0.2192
 2583SOL     OW 9348   2.920   4.299   6.350  0.6617 -0.1511 -0.0140
 2583SOL    HW1 9349   2.962   4.358   6.281 -0.7790  1.7399  0.6440
 2583SOL    HW2 9350   2.968   4.312   6.437 -1.2407  2.1881  0.7974
 2584SOL     OW 9351   0.123   2.535   7.011 -0.8430 -0.4553 -0.3410
 2584SOL    HW1 9352   0.212   2.539   6.966 -0.3032 -0.2876  0.6957
 2584SOL    HW2 9353   0.134   2.497   7.103 -2.2155 -2.7459 -1.0453
 2585SOL     OW 9354   5.434   1.731   4.499 -0.1696 -0.3446 -0.2244
 2585SOL    HW1 9355   5.483   1.810   4.461 -0.8710 -0.2792 -1.0288
 2585SOL    HW2 9356   5.469   1.711   4.591 -0.3752  1.2605  0.2382
 2586SOL     OW 9357   1.151   1.976   2.540  0.0788 -0.1693  0.2865
 2586SOL    HW1 9358   1.223   2.002   2.604 -0.5302  0.9385  0.5570
 2586SOL    HW2 9359   1.191   1.932   2.460  0.9984 -0.0669  0.6835
 2587SOL     OW 9360   0.339   5.875   3.269 -0.2011  0.3708  0.5727
 2587SOL    HW1 9361   0.252   5.854   3.314 -0.1754  0.7643  0.8018
 2587SOL    HW2 9362   0.413   5.825   3.313 -0.2031  0.6124  0.8508
 2588SOL     OW 9363   1.507   5.417   2.404 -0.0347 -0.1688  0.6470
 2588SOL    HW1 9364   1.541   5.455   2.319  1.1489 -0.0733  1.1447
 2588SOL    HW2 9365   1.448   5.338   2.385  0.2311 -0.1558 -0.2436
 2589SOL     OW 9366   5.171   5.416   5.457 -0.1668 -0.1489 -0.0374
 2589SOL    HW1 9367   5.135   5.487   5.396 -2.3435  0.3330  1.6898
 2589SOL    HW2 9368   5.113   5.335   5.450 -0.0821 -0.3009  0.9329
 2590SOL     OW 9369   3.642   6.416   3.484  0.0802  0.0117 -0.4347
 2590SOL    HW1 9370   3.736   6.428   3.516 -0.2606  0.8957  0.2751
 2590SOL    HW2 9371   3.643   6.393   3.387  1.0337 -0.1906 -0.3915
 2591SOL     OW 9372   0.394   3.486   2.161  0.0680  0.4326  0.8081
 2591SOL    HW1 9373   0.325   3.450   2.224 -1.5292 -0.9107 -1.5983
 2591SOL    HW2 9374   0.377   3.584   2.147 -0.2807  0.4839  1.5027
 2592SOL     OW 9375   2.203   1.071   5.441 -0.6089 -0.3819 -0.5949
 2592SOL    HW1 9376   2.184   1.089   5.344 -0.4389 -2.9279 -1.1700
 2592SOL    HW2 9377   2.271   1.137   5.474 -1.4630  1.2312 -1.8551
 2593SOL     OW 9378   2.580   2.679   6.948 -0.3370  0.3352 -0.1643
 2593SOL    HW1 9379   2.671   2.702   6.912  0.1792 -0.2227  0.7492
 2593SOL    HW2 9380   2.539   2.760   6.988 -0.1886  0.5622 -0.4662
 2594SOL     OW 9381   1.177   2.425   3.731 -0.1649  0.0921  0.0866
 2594SOL    HW1 9382   1.141   2.407   3.822 -0.4078  0.3454  0.0419
 2594SOL    HW2 9383   1.101   2.443   3.668  0.0335  0.6064 -0.0131
 2595SOL     OW 9384   1.272   1.936   4.904  0.4032  0.0533 -0.0710
 2595SOL    HW1 9385   1.238   2.025   4.935  4.0116  1.1053  1.3298
 2595SOL    HW2 9386   1.304   1.884   4.983  0.1506 -1.7103 -1.0903
 2596SOL     OW 9387   1.471   4.220   3.931  0.0027 -0.3316  0.5914
 2596SOL    HW1 9388   1.487   4.313   3.965 -0.2461 -0.3799  0.8497
 2596SOL    HW2 9389   1.556   4.182   3.896  0.8208 -1.1090  3.1883
 2597SOL     OW 9390   3.164   4.944   1.246  0.1508 -0.1033  0.1313
 2597SOL    HW1 9391   3.141   4.849   1.267  0.3861  0.0613  1.1881
 2597SOL    HW2 9392   3.262   4.959   1.260  0.2601  0.1145 -0.7796
 2598SOL     OW 9393   0.023   3.145   5.370  0.1448 -0.3794  0.4553
 2598SOL    HW1 9394  -0.028   3.092   5.438  0.4410 -1.1289  0.1054
 2598SOL    HW2 9395   0.117   3.159   5.402 -0.1579  0.6985  0.9390
 2599SOL     OW 9396   5.337   5.876   0.436  0.1846  0.0571  0.0210
 2599SOL    HW1 9397   5.252   5.916   0.402  0.6310  1.0514  0.0543
 2599SOL    HW2 9398   5.376   5.816   0.366 -0.4120 -0.2046 -0.0914
 2600SOL     OW 9399   0.147   0.180   1.651 -0.2361  0.8013 -0.5790
 2600SOL    HW1 9400   0.155   0.160   1.749  0.7846  0.4216 -0.7260
 2600SOL    HW2 9401   0.057   0.152   1.619  0.3119 -1.6040 -0.2817
 2601SOL     OW 9402   3.465   2.943   3.381 -0.0093  0.5002 -0.0014
 2601SOL    HW1 9403   3.489   3.039   3.366 -0.0516  0.5386  0.1748
 2601SOL    HW2 9404   3.398   2.914   3.313  0.9287  0.2387 -0.8345
 2602SOL     OW 9405   3.074   6.783   4.749  0.0127 -0.0661  0.0212
 2602SOL    HW1 9406   2.999   6.794   4.814 -1.0471  2.1038 -1.4461
 2602SOL    HW2 9407   3.037   6.766   4.658  1.2684  1.0669 -0.7455
 2603SOL     OW 9408   6.504   2.408   5.858 -0.4277 -0.0462 -0.2263
 2603SOL    HW1 9409   6.582   2.446   5.908 -0.7634 -0.2149  0.4355
 2603SOL    HW2 9410   6.463   2.480   5.801 -0.8986  0.5484  0.8157
 2604SOL     OW 9411   2.843   0.222   1.911  0.1962 -0.1120 -0.0909
 2604SOL    HW1 9412   2.785   0.303   1.918  0.1239 -0.2340  0.9139
 2604SOL    HW2 9413   2.880   0.215   1.818  0.4807  1.2636 -0.1000
 2605SOL     OW 9414   3.648   6.040   4.232 -0.4310  0.5269  0.0648
 2605SOL    HW1 9415   3.745   6.051   4.255 -0.4843  1.3292 -0.0690
 2605SOL    HW2 9416   3.638   6.022   4.134 -0.4597  1.0815 -0.0331
 2606SOL     OW 9417   2.353   4.051   3.882  0.1946 -0.0309  1.2481
 2606SOL    HW1 9418   2.379   4.135   3.834  0.4936 -0.6364  0.3107
 2606SOL    HW2 9419   2.356   4.066   3.981  0.9718  0.8376  1.1044
 2607SOL     OW 9420   1.083   2.210   2.710 -0.1009  0.3031  0.1375
 2607SOL    HW1 9421   1.084   2.142   2.636  0.5330  0.4560  0.0025
 2607SOL    HW2 9422   1.166   2.266   2.705 -0.1678  0.4682  0.8262
 2608SOL     OW 9423   1.622   3.247   0.851  0.1639 -0.3889 -0.1563
 2608SOL    HW1 9424   1.539   3.194   0.869 -1.0406  0.7546 -2.0388
 2608SOL    HW2 9425   1.611   3.340   0.886  0.5237 -0.1575 -0.6385
 2609SOL     OW 9426   3.774   6.341   3.722 -0.0524 -0.0558  0.1906
 2609SOL    HW1 9427   3.768   6.378   3.815  1.3713 -2.2326  1.2168
 2609SOL    HW2 9428   3.822   6.406   3.663  1.3240  0.2733  1.6276
 2610SOL     OW 9429   1.420   0.392   0.823 -0.1589  0.0682  0.0883
 2610SOL    HW1 9430   1.407   0.384   0.725  0.7421 -1.1521  0.0511
 2610SOL    HW2 9431   1.457   0.482   0.845 -0.4143  0.3611 -0.6681
 2611SOL     OW 9432   6.437   6.629   4.329 -0.5451 -0.0658  0.5101
 2611SOL    HW1 9433   6.512   6.678   4.373  0.6709 -1.2563 -0.1733
 2611SOL    HW2 9434   6.377   6.694   4.282  0.0128  0.9026  1.1135
 2612SOL     OW 9435   4.507   1.160   1.519 -0.3804  0.0743  0.1795
 2612SOL    HW1 9436   4.504   1.139   1.617 -1.9597  0.2450  0.1877
 2612SOL    HW2 9437   4.573   1.100   1.475  0.3340 -0.0310  1.3354
 2613SOL     OW 9438   1.983   5.996   1.333  0.1045  0.3053  0.4883
 2613SOL    HW1 9439   2.020   5.948   1.253  1.3082  1.3691  0.3636
 2613SOL    HW2 9440   1.998   5.940   1.415  1.0155  0.2197  0.2797
 2614SOL     OW 9441   4.337   5.541   1.079 -0.3360  0.4138 -0.2220
 2614SOL    HW1 9442   4.341   5.630   1.124 -1.2558  0.4238 -0.1306
 2614SOL    HW2 9443   4.260   5.489   1.116 -0.0188 -0.2830 -0.5266
 2615SOL     OW 9444   1.397   4.242   1.471  0.0838  0.2354  0.6812
 2615SOL    HW1 9445   1.312   4.214   1.516 -1.2586 -0.2814 -2.0294
 2615SOL    HW2 9446   1.388   4.335   1.437 -0.7161 -0.8467 -2.3863
 2616SOL     OW 9447   5.516   1.123   1.592 -0.2508 -0.5299 -0.4563
 2616SOL    HW1 9448   5.536   1.212   1.632 -0.4135 -1.3605  1.5953
 2616SOL    HW2 9449   5.595   1.091   1.539 -0.0867  0.6851 -0.9646
 2617SOL     OW 9450   2.299   6.031   1.340  0.0622 -0.1924  0.7511
 2617SOL    HW1 9451   2.289   6.121   1.381 -0.4965  0.0390  0.1325
 2617SOL    HW2 9452   2.208   5.993   1.321  0.1203 -2.2163  3.7923
 2618SOL     OW 9453   6.946   6.413   1.762 -0.3585  0.2298 -0.2407
 2618SOL    HW1 9454   6.855   6.454   1.752 -0.8223 -0.4517  0.9602
 2618SOL    HW2 9455   7.004   6.442   1.686 -2.7701 -2.6743 -3.5457
 2619SOL     OW 9456   6.702   5.157   2.871 -0.0685 -0.3298  0.7609
 2619SOL    HW1 9457   6.780   5.214   2.895  1.6755 -1.9194 -0.8575
 2619SOL    HW2 9458   6.722   5.062   2.896 -0.7713 -1.0232 -1.1536
 2620SOL     OW 9459   5.990   6.239   2.145 -0.0841 -0.1236 -0.1527
 2620SOL    HW1 9460   5.901   6.258   2.103  0.0820 -1.0011 -0.9226
 2620SOL    HW2 9461   5.986   6.262   2.242 -0.5431  1.7346 -0.5737
 2621SOL     OW 9462   6.748   4.528   3.848 -0.0057 -0.0299  0.1087
 2621SOL    HW1 9463   6.757   4.484   3.758  1.4284  2.0995 -0.8679
 2621SOL    HW2 9464   6.666   4.585   3.849  0.7626  1.1149 -0.4206
 2622SOL     OW 9465   6.837   2.212   4.401  0.1844  0.5450  0.3630
 2622SOL    HW1 9466   6.826   2.114   4.417  0.2087  0.6110  0.8045
 2622SOL    HW2 9467   6.847   2.259   4.489  2.4801  0.6643  0.1022
 2623SOL     OW 9468   5.870   2.721   5.126  0.4382 -0.3791  0.3699
 2623SOL    HW1 9469   5.816   2.660   5.069  1.6812 -0.0873 -1.1782
 2623SOL    HW2 9470   5.966   2.718   5.098  0.7161  1.4733  0.9384
 2624SOL     OW 9471   6.699   4.627   5.585  0.3813 -0.1905 -0.3229
 2624SOL    HW1 9472   6.621   4.567   5.604  0.1239  0.1600 -0.2659
 2624SOL    HW2 9473   6.770   4.575   5.537  0.1873 -0.5570 -0.2199
 2625SOL     OW 9474   6.976   0.491   0.349 -0.2411 -0.3676 -0.3738
 2625SOL    HW1 9475   6.907   0.562   0.338  0.3874  0.3622  0.2544
 2625SOL    HW2 9476   6.965   0.447   0.438  1.4931  1.3719  0.8057
 2626SOL     OW 9477   5.766   2.433   6.126  0.3499 -0.3847 -0.1687
 2626SOL    HW1 9478   5.760   2.503   6.055  0.6913 -0.5051 -0.3208
 2626SOL    HW2 9479   5.861   2.427   6.158  0.1787 -0.2540  0.3777
 2627SOL     OW 9480   5.804   4.886   0.091 -0.1614  0.2892  0.0672
 2627SOL    HW1 9481   5.757   4.975   0.093 -0.6147  0.2102  5.2239
 2627SOL    HW2 9482   5.739   4.815   0.066  0.2570  1.1562 -4.3810
 2628SOL     OW 9483   1.413   3.045   0.845  0.3196  0.7997 -0.0222
 2628SOL    HW1 9484   1.433   2.950   0.820 -0.8820  0.5062  0.0602
 2628SOL    HW2 9485   1.369   3.046   0.935 -0.4757  1.3431 -0.4060
 2629SOL     OW 9486   1.944   4.978   0.333  0.3599 -0.1905  0.2960
 2629SOL    HW1 9487   1.910   5.065   0.368 -0.1017  0.4038 -1.4988
 2629SOL    HW2 9488   2.039   4.988   0.305  0.0763 -0.0075 -0.6497
 2630SOL     OW 9489   5.430   4.642   1.413  0.6030  0.0103 -0.1329
 2630SOL    HW1 9490   5.352   4.597   1.369 -0.2966  1.5554 -0.2120
 2630SOL    HW2 9491   5.477   4.700   1.347  0.5244  0.7225  0.4295
 2631SOL     OW 9492   1.425   5.152   5.253 -0.5126 -0.4595 -0.0055
 2631SOL    HW1 9493   1.333   5.183   5.278 -0.3083  2.1636 -2.0702
 2631SOL    HW2 9494   1.430   5.052   5.261 -4.4458 -1.0720 -2.4574
 2632SOL     OW 9495   0.108   2.022   3.157 -0.2331  0.3510  0.2161
 2632SOL    HW1 9496   0.009   2.024   3.141 -0.9995 -2.2760  3.3152
 2632SOL    HW2 9497   0.150   1.951   3.101 -0.2792  0.7881 -0.3744
 2633SOL     OW 9498   1.065   0.729   3.569 -0.5176  0.0975  0.0745
 2633SOL    HW1 9499   1.163   0.728   3.590 -0.7361 -0.3661  1.1378
 2633SOL    HW2 9500   1.014   0.760   3.650 -1.2440  0.4977 -0.5229
 2634SOL     OW 9501   6.501   2.273   1.536  0.7124  0.0174 -0.2987
 2634SOL    HW1 9502   6.465   2.221   1.613  2.3045 -1.2769 -0.3941
 2634SOL    HW2 9503   6.570   2.338   1.569  0.6485  0.1965 -0.5164
 2635SOL     OW 9504   6.231   2.257   1.418  0.4029 -0.4000 -0.4106
 2635SOL    HW1 9505   6.248   2.195   1.340 -0.6826 -3.3974  1.5506
 2635SOL    HW2 9506   6.318   2.278   1.463  0.8465 -0.0765 -1.3896
 2636SOL     OW 9507   4.275   5.020   6.393  0.0197  0.3211  0.0146
 2636SOL    HW1 9508   4.310   5.102   6.348 -1.6219  2.1727  1.8624
 2636SOL    HW2 9509   4.351   4.969   6.433  0.9745  1.7693  0.1303
 2637SOL     OW 9510   3.808   5.001   1.073 -0.1001 -0.4799 -0.7079
 2637SOL    HW1 9511   3.846   5.073   1.015 -1.0236 -1.2145 -2.2883
 2637SOL    HW2 9512   3.743   4.947   1.020 -1.1398 -1.0677  1.0913
 2638SOL     OW 9513   6.650   0.061   6.990  0.3735  0.4626  0.0773
 2638SOL    HW1 9514   6.571   0.007   7.020  1.1892 -0.3836  0.7386
 2638SOL    HW2 9515   6.621   0.156   6.976 -1.0468 -0.0660 -0.9287
 2639SOL     OW 9516   1.522   3.450   5.730  0.5500  0.3228  0.4081
 2639SOL    HW1 9517   1.599   3.507   5.757  1.1608  0.5717 -1.7071
 2639SOL    HW2 9518   1.550   3.354   5.728  0.5049  0.3042  0.6308
 2640SOL     OW 9519   5.383   6.468   6.391  0.7139  0.1231  0.3071
 2640SOL    HW1 9520   5.433   6.400   6.444  2.6527  0.8237 -0.5479
 2640SOL    HW2 9521   5.399   6.455   6.293  1.4376  1.9895  0.1292
 2641SOL     OW 9522   4.244   4.850   6.978 -0.4050  0.4106 -0.2665
 2641SOL    HW1 9523   4.319   4.816   6.921 -0.6815  0.3152 -0.5811
 2641SOL    HW2 9524   4.256   4.947   6.996 -0.4424  0.4944 -0.6928
 2642SOL     OW 9525   1.567   4.120   1.749 -0.0668 -0.7135 -0.4884
 2642SOL    HW1 9526   1.570   4.034   1.697 -2.9880 -0.6450 -0.9672
 2642SOL    HW2 9527   1.598   4.195   1.691  3.3888 -1.4214  0.2120
 2643SOL     OW 9528   4.000   6.993   4.446  0.4708 -0.7006  0.3474
 2643SOL    HW1 9529   3.970   6.961   4.356  1.0068  1.3767 -0.6330
 2643SOL    HW2 9530   3.985   7.092   4.453  3.1215 -0.2940  1.4150
 2644SOL     OW 9531   3.732   6.309   2.983  0.4660  0.5688 -0.2215
 2644SOL    HW1 9532   3.639   6.292   2.949  0.5698 -2.9683  0.8510
 2644SOL    HW2 9533   3.786   6.353   2.911 -1.2980  0.1500 -1.8954
 2645SOL     OW 9534   6.311   4.030   2.708 -0.0977 -0.3498 -0.3678
 2645SOL    HW1 9535   6.224   4.001   2.667  0.4492 -0.8617 -1.1896
 2645SOL    HW2 9536   6.369   3.950   2.722  0.6247  0.1103 -0.7279
 2646SOL     OW 9537   4.323   6.525   3.570 -0.1285 -0.7837  0.0365
 2646SOL    HW1 9538   4.364   6.573   3.493 -0.3269 -1.2368 -0.3524
 2646SOL    HW2 9539   4.265   6.452   3.537  0.4454 -1.5256  0.6258
 2647SOL     OW 9540   5.445   4.051   1.052 -0.3016 -0.2330 -0.0696
 2647SOL    HW1 9541   5.438   3.959   1.013 -0.2602  0.1512 -0.9909
 2647SOL    HW2 9542   5.422   4.119   0.983  0.3940  0.4860  0.3878
 2648SOL     OW 9543   6.902   4.306   4.963  0.3225 -0.3332  1.0869
 2648SOL    HW1 9544   6.888   4.212   4.994  4.1952 -2.3995 -2.4702
 2648SOL    HW2 9545   6.824   4.336   4.908 -0.8493 -1.5252  2.0520
 2649SOL     OW 9546   6.399   3.095   3.685 -0.0998  0.6692  0.1755
 2649SOL    HW1 9547   6.365   3.173   3.737  1.1124  2.3469 -1.3988
 2649SOL    HW2 9548   6.458   3.127   3.612 -2.4897 -1.4058 -2.9735
 2650SOL     OW 9549   5.433   3.840   4.467  0.7498 -0.8394 -0.3850
 2650SOL    HW1 9550   5.408   3.769   4.401 -1.4602 -2.5128  2.0458
 2650SOL    HW2 9551   5.462   3.797   4.552  0.3491  1.2050  0.8432
 2651SOL     OW 9552   0.736   4.222   5.678  0.3066  0.1706  0.1854
 2651SOL    HW1 9553   0.701   4.306   5.719  0.3491 -0.5958  1.8928
 2651SOL    HW2 9554   0.808   4.183   5.736  1.9127  0.1242 -1.7365
 2652SOL     OW 9555   3.237   4.028   0.271 -0.6454 -0.1214 -0.0798
 2652SOL    HW1 9556   3.241   4.117   0.316  1.4733  0.6994 -1.7046
 2652SOL    HW2 9557   3.329   4.003   0.240 -1.5771 -1.8265 -1.6466
 2653SOL     OW 9558   6.227   5.849   3.868 -0.3914 -0.2914  0.2311
 2653SOL    HW1 9559   6.140   5.890   3.895 -0.6301 -0.7165  0.1179
 2653SOL    HW2 9560   6.211   5.757   3.831  0.2112 -0.8217  1.2507
 2654SOL     OW 9561   0.149   5.991   5.298 -0.1301 -0.0116 -0.4708
 2654SOL    HW1 9562   0.117   5.901   5.269 -0.6771  0.0576 -0.0796
 2654SOL    HW2 9563   0.211   5.981   5.376  1.6057 -0.2274 -1.8037
 2655SOL     OW 9564   2.634   4.591   2.619 -0.2654 -0.1669 -0.3249
 2655SOL    HW1 9565   2.696   4.578   2.696 -0.5747 -2.4680 -0.3982
 2655SOL    HW2 9566   2.640   4.513   2.557 -1.5384  0.6524 -1.5656
 2656SOL     OW 9567   7.008   0.513   6.173  0.2814  0.4105 -0.3893
 2656SOL    HW1 9568   6.931   0.569   6.141  0.1942  0.5282  0.0229
 2656SOL    HW2 9569   7.088   0.571   6.187  0.3113  0.3614 -0.3602
 2657SOL     OW 9570   2.282   6.586   1.030 -0.8459 -0.1863 -0.2855
 2657SOL    HW1 9571   2.211   6.634   1.082 -1.1217  0.3487 -1.1394
 2657SOL    HW2 9572   2.246   6.499   0.997  0.1109 -1.7904  2.5412
 2658SOL     OW 9573   3.413   3.660   6.256 -0.7476 -0.1876 -0.1115
 2658SOL    HW1 9574   3.511   3.654   6.240 -0.0285  0.5977  3.1635
 2658SOL    HW2 9575   3.366   3.684   6.171  1.9144 -0.1544 -1.6720
 2659SOL     OW 9576   1.632   6.701   2.532 -1.3159 -0.0662 -0.1907
 2659SOL    HW1 9577   1.613   6.615   2.486  1.1610  0.8522 -3.2678
 2659SOL    HW2 9578   1.589   6.776   2.481  1.5877  0.9941 -1.2741
 2660SOL     OW 9579   3.703   1.523   4.828 -0.2884 -0.7391 -0.0987
 2660SOL    HW1 9580   3.739   1.492   4.916  1.2366 -0.4632 -0.5909
 2660SOL    HW2 9581   3.779   1.553   4.771 -1.5376  3.3335  0.0970
 2661SOL     OW 9582   4.260   6.815   6.358  0.2678 -0.1455 -0.3899
 2661SOL    HW1 9583   4.224   6.908   6.372 -0.4134 -0.3468 -0.7682
 2661SOL    HW2 9584   4.206   6.769   6.287  0.8526 -0.6948 -0.4798
 2662SOL     OW 9585   1.315   5.411   1.839 -0.2004 -0.0609 -0.1625
 2662SOL    HW1 9586   1.403   5.447   1.809 -0.9782  1.3848 -0.8159
 2662SOL    HW2 9587   1.312   5.410   1.939  0.7417 -0.6179 -0.1339
 2663SOL     OW 9588   1.140   1.506   2.292  0.5546  0.2220 -0.0395
 2663SOL    HW1 9589   1.187   1.590   2.266  2.3348 -0.1274  1.7488
 2663SOL    HW2 9590   1.192   1.427   2.260  0.3979 -0.1761  0.6616
 2664SOL     OW 9591   0.140   1.431   6.311  0.1414  0.1313  0.1644
 2664SOL    HW1 9592   0.167   1.438   6.215  0.3097 -1.6838  0.0542
 2664SOL    HW2 9593   0.106   1.520   6.342  0.0784  0.7514 -1.5641
 2665SOL     OW 9594   5.082   6.911   6.007  0.3615  0.9573  0.1483
 2665SOL    HW1 9595   5.054   6.845   6.077  4.1065 -1.8218 -0.6756
 2665SOL    HW2 9596   5.108   6.997   6.051 -0.6690  0.5033  1.7412
 2666SOL     OW 9597   5.893   3.774   2.597  0.2630 -0.0940 -0.0603
 2666SOL    HW1 9598   5.840   3.756   2.514 -0.7338  2.8965 -0.2012
 2666SOL    HW2 9599   5.831   3.777   2.675  0.6576  0.5959  0.2291
 2667SOL     OW 9600   4.098   6.518   0.223 -0.5951 -0.0862 -0.7233
 2667SOL    HW1 9601   4.123   6.494   0.317  0.0956  0.7338 -0.6737
 2667SOL    HW2 9602   4.163   6.476   0.160 -1.6576 -1.4668 -0.9182
 2668SOL     OW 9603   3.586   3.856   4.082 -0.0507  0.1327  0.5043
 2668SOL    HW1 9604   3.536   3.776   4.050 -1.9093  1.8275 -1.1736
 2668SOL    HW2 9605   3.555   3.880   4.173 -1.4912  0.4585 -0.0483
 2669SOL     OW 9606   0.833   4.712   2.284  0.1580 -0.1156  0.1980
 2669SOL    HW1 9607   0.902   4.724   2.213  0.0185 -0.2669  0.0374
 2669SOL    HW2 9608   0.800   4.801   2.314  1.0409 -0.0019  0.8773
 2670SOL     OW 9609   2.372   4.649   2.463  0.4288  0.8133 -0.3205
 2670SOL    HW1 9610   2.411   4.573   2.411 -1.7242 -1.9319  1.7256
 2670SOL    HW2 9611   2.428   4.665   2.545 -0.2436 -0.0520  0.3217
 2671SOL     OW 9612   1.858   3.497   6.074 -0.1263 -0.4718  0.2461
 2671SOL    HW1 9613   1.910   3.487   6.159 -0.3154 -1.8310  0.2167
 2671SOL    HW2 9614   1.830   3.407   6.041 -1.0583  0.1249 -0.6419
 2672SOL     OW 9615   1.916   1.879   1.638 -0.8119  0.0888  0.1404
 2672SOL    HW1 9616   1.961   1.799   1.677  0.9352  0.9218 -0.0875
 2672SOL    HW2 9617   1.946   1.961   1.686 -0.0670  0.9454 -1.7001
 2673SOL     OW 9618   4.819   1.163   5.798 -0.4962 -0.0131  0.1643
 2673SOL    HW1 9619   4.845   1.226   5.871 -0.2522  1.8819 -1.4722
 2673SOL    HW2 9620   4.798   1.073   5.837 -1.9142  1.3212  2.7245
 2674SOL     OW 9621   6.355   0.690   3.231 -0.0918 -0.4906  0.2112
 2674SOL    HW1 9622   6.345   0.782   3.268 -0.4242 -1.1768  1.8897
 2674SOL    HW2 9623   6.449   0.659   3.245 -0.8613 -1.7791  3.0665
 2675SOL     OW 9624   1.862   2.649   2.460 -0.0937 -0.7721  0.1456
 2675SOL    HW1 9625   1.773   2.690   2.439  0.3138 -0.3256 -0.7270
 2675SOL    HW2 9626   1.856   2.600   2.547 -0.7012  0.8050  1.0292
 2676SOL     OW 9627   4.580   1.160   4.442 -0.5669 -0.6134 -0.0064
 2676SOL    HW1 9628   4.499   1.189   4.391 -0.6209 -0.1352  0.3370
 2676SOL    HW2 9629   4.651   1.130   4.378 -1.0066 -1.0152 -0.3068
 2677SOL     OW 9630   5.181   3.978   6.343 -0.3055 -0.3380 -0.5017
 2677SOL    HW1 9631   5.228   4.031   6.272 -0.9542 -0.0922 -0.7584
 2677SOL    HW2 9632   5.143   4.040   6.411 -0.7231 -0.4922 -0.5901
 2678SOL     OW 9633   0.694   4.363   0.911 -0.0475  0.0413 -0.0291
 2678SOL    HW1 9634   0.703   4.274   0.957  1.6475  0.4276  0.4602
 2678SOL    HW2 9635   0.778   4.415   0.923 -1.0748  1.8039 -0.1644
 2679SOL     OW 9636   2.243   1.914   1.127  0.7580  0.0849 -0.1509
 2679SOL    HW1 9637   2.285   1.831   1.090 -1.0751 -0.4983 -1.0652
 2679SOL    HW2 9638   2.156   1.891   1.171  0.2280  1.5102 -0.3948
 2680SOL     OW 9639   5.935   2.956   2.168  0.6833  0.1327  0.4622
 2680SOL    HW1 9640   5.895   3.015   2.238 -1.5317 -0.2278 -0.4102
 2680SOL    HW2 9641   5.914   2.861   2.188  0.3496 -0.0015 -0.4505
 2681SOL     OW 9642   0.464   5.399   3.128 -0.4777 -0.1163  0.0528
 2681SOL    HW1 9643   0.444   5.304   3.148  0.9039 -0.8919 -1.9574
 2681SOL    HW2 9644   0.403   5.432   3.056  0.4806 -0.2014 -0.8227
 2682SOL     OW 9645   1.103   3.254   0.961  0.2845  0.0895  0.2534
 2682SOL    HW1 9646   1.080   3.249   0.864 -1.6378 -0.0743  0.6790
 2682SOL    HW2 9647   1.054   3.183   1.011 -0.0743  1.2087  1.5619
 2683SOL     OW 9648   6.647   3.584   4.627  0.3925  0.0498  0.6185
 2683SOL    HW1 9649   6.589   3.504   4.611 -1.2813  0.9737  1.7295
 2683SOL    HW2 9650   6.719   3.560   4.692 -0.8530 -0.2756  1.9260
 2684SOL     OW 9651   0.022   6.046   0.896 -0.1664  0.0746  0.7011
 2684SOL    HW1 9652   0.116   6.077   0.906  0.5339 -0.3783 -2.9067
 2684SOL    HW2 9653  -0.014   6.079   0.809 -2.5159 -1.7690  0.8744
 2685SOL     OW 9654   6.332   5.590   2.608 -0.1340 -0.1539  0.2880
 2685SOL    HW1 9655   6.380   5.508   2.640  0.1573 -0.9330 -1.9838
 2685SOL    HW2 9656   6.395   5.648   2.556 -1.1989 -0.3691 -1.3115
 2686SOL     OW 9657   5.481   6.053   3.864  0.3141  0.3715 -0.3521
 2686SOL    HW1 9658   5.461   5.955   3.876 -0.5722  0.7341  1.4730
 2686SOL    HW2 9659   5.571   6.073   3.904  1.7023 -0.1029 -2.9979
 2687SOL     OW 9660   4.330   1.006   2.446  1.0662  0.2244  0.0362
 2687SOL    HW1 9661   4.399   0.988   2.376  1.4693  1.4129  0.1083
 2687SOL    HW2 9662   4.323   1.104   2.461 -1.7825  0.2765 -1.0962
 2688SOL     OW 9663   4.111   0.038   6.269 -0.4669 -0.3950  0.2389
 2688SOL    HW1 9664   4.134   0.135   6.275  0.4257 -0.6065  0.4650
 2688SOL    HW2 9665   4.128   0.005   6.176  1.8298 -0.9187  0.7669
 2689SOL     OW 9666   6.840   6.685   0.932 -0.0973 -0.2932 -0.0456
 2689SOL    HW1 9667   6.829   6.595   0.889  1.7806 -1.0294  0.8699
 2689SOL    HW2 9668   6.791   6.686   1.019 -0.1908 -0.4099 -0.0959
 2690SOL     OW 9669   4.797   6.047   5.033  0.7591  0.0118  0.0776
 2690SOL    HW1 9670   4.861   6.122   5.017 -0.8185  1.0024 -2.1583
 2690SOL    HW2 9671   4.780   6.038   5.131  0.3096  3.2429  0.4248
 2691SOL     OW 9672   4.060   5.443   5.208  0.0582 -0.0253 -0.3063
 2691SOL    HW1 9673   4.028   5.349   5.214 -0.6504  0.2536  0.4390
 2691SOL    HW2 9674   4.088   5.475   5.299  0.2257  0.5073 -0.5385
 2692SOL     OW 9675   6.391   1.688   2.349 -0.2647  0.2741 -0.3150
 2692SOL    HW1 9676   6.467   1.646   2.299 -1.1245 -0.0114 -1.4393
 2692SOL    HW2 9677   6.385   1.785   2.324  0.9410  0.8096  1.3156
 2693SOL     OW 9678   1.445   6.274   6.574  0.2118 -0.1572 -0.7873
 2693SOL    HW1 9679   1.473   6.260   6.669 -1.8600 -2.7281 -0.4163
 2693SOL    HW2 9680   1.444   6.186   6.526  0.5186  0.9780 -3.0217
 2694SOL     OW 9681   6.031   4.351   2.011  0.2076 -0.5026  0.2996
 2694SOL    HW1 9682   6.055   4.361   2.107 -1.2748 -3.1078  1.0627
 2694SOL    HW2 9683   6.021   4.253   1.989 -0.3815  0.0416 -2.2734
 2695SOL     OW 9684   3.951   6.139   3.631  0.4160 -0.2401 -0.5008
 2695SOL    HW1 9685   4.046   6.134   3.663  0.1450 -0.2974  0.2911
 2695SOL    HW2 9686   3.899   6.201   3.689 -0.3294 -1.1490 -0.1790
 2696SOL     OW 9687   1.448   6.881   0.498 -0.0620  0.0805  0.4684
 2696SOL    HW1 9688   1.464   6.887   0.596 -0.7375 -0.0116  0.5937
 2696SOL    HW2 9689   1.534   6.863   0.450  0.1248 -0.8809  1.1316
 2697SOL     OW 9690   0.972   2.391   3.901 -0.0653  0.6592 -0.0571
 2697SOL    HW1 9691   0.912   2.353   3.831 -0.7923 -0.3754  1.0755
 2697SOL    HW2 9692   0.978   2.327   3.978  1.1068  1.5309  0.6129
 2698SOL     OW 9693   5.666   5.611   4.328 -0.4020  0.1857 -0.4943
 2698SOL    HW1 9694   5.697   5.706   4.332 -1.2368  0.4348  0.4873
 2698SOL    HW2 9695   5.582   5.606   4.274 -0.1963 -0.0545 -0.8000
 2699SOL     OW 9696   0.498   4.795   3.901 -0.2493 -0.0242 -0.1606
 2699SOL    HW1 9697   0.417   4.741   3.923 -0.2659  0.0367 -0.0739
 2699SOL    HW2 9698   0.577   4.759   3.951 -0.0207 -0.6872 -0.9691
 2700SOL     OW 9699   5.640   4.999   3.910  0.1098  0.1313 -0.1442
 2700SOL    HW1 9700   5.690   5.031   3.829  0.4739  1.2444  0.4999
 2700SOL    HW2 9701   5.541   5.006   3.893  0.1726  1.7015 -0.0153
 2701SOL     OW 9702   2.915   5.120   2.183 -0.2113  0.0353  0.1119
 2701SOL    HW1 9703   2.888   5.217   2.185  1.6427  0.5811  0.5526
 2701SOL    HW2 9704   3.015   5.113   2.189 -0.3037 -1.9182 -0.0122
 2702SOL     OW 9705   1.483   3.433   4.664 -0.4084 -0.4979  0.1398
 2702SOL    HW1 9706   1.398   3.482   4.643  1.0405  1.0329 -2.9055
 2702SOL    HW2 9707   1.476   3.339   4.631 -0.7345 -0.1786 -0.7428
 2703SOL     OW 9708   5.074   1.589   6.667 -0.0828 -0.2757  0.7962
 2703SOL    HW1 9709   5.028   1.509   6.705  0.7765 -0.9959  0.3798
 2703SOL    HW2 9710   5.140   1.624   6.733  2.3987 -2.3501 -0.3723
 2704SOL     OW 9711   5.792   5.165   1.038  0.1225  0.1542 -0.5741
 2704SOL    HW1 9712   5.798   5.128   1.131  3.6123  0.3114 -0.5879
 2704SOL    HW2 9713   5.803   5.264   1.042 -0.5643  0.2604 -1.1361
 2705SOL     OW 9714   1.378   1.551   2.546  0.3690 -0.5860 -0.5598
 2705SOL    HW1 9715   1.410   1.462   2.577 -1.2842 -1.3875 -1.0327
 2705SOL    HW2 9716   1.279   1.547   2.529 -0.1766  1.9011  1.4162
 2706SOL     OW 9717   5.394   1.616   1.166 -0.4654  0.1632 -0.5098
 2706SOL    HW1 9718   5.455   1.684   1.125 -1.1537  1.1191  0.0206
 2706SOL    HW2 9719   5.449   1.542   1.205  0.4413  1.4856  0.8146
 2707SOL     OW 9720   5.000   0.937   4.792  0.8283 -0.0946  0.1082
 2707SOL    HW1 9721   5.079   0.917   4.850  0.4474 -1.7949  0.1098
 2707SOL    HW2 9722   4.936   0.996   4.841  1.2637 -0.1854  0.7939
 2708SOL     OW 9723   1.388   6.007   2.018 -0.0017 -0.4165  1.1773
 2708SOL    HW1 9724   1.453   5.991   1.943 -2.4833  0.1529 -1.2469
 2708SOL    HW2 9725   1.436   6.051   2.094  2.3649  0.3603 -0.6149
 2709SOL     OW 9726   3.649   6.958   1.649  0.4310 -0.1416  0.3889
 2709SOL    HW1 9727   3.647   6.869   1.696 -0.4593 -0.2975  0.0664
 2709SOL    HW2 9728   3.603   7.027   1.704  1.2516  0.1676  0.7070
 2710SOL     OW 9729   3.400   5.884   5.646 -0.5728 -0.3553  0.0985
 2710SOL    HW1 9730   3.390   5.888   5.745  1.4691  0.0742  0.3256
 2710SOL    HW2 9731   3.348   5.958   5.604 -3.2109 -1.7940  0.6325
 2711SOL     OW 9732   0.050   4.028   5.332 -0.2080  0.2602  0.1275
 2711SOL    HW1 9733   0.092   3.938   5.327  0.5222  0.5792  0.3768
 2711SOL    HW2 9734   0.052   4.061   5.426 -0.5410  0.5085  0.0518
 2712SOL     OW 9735   5.841   4.232   4.018 -0.3448  0.2170  0.1684
 2712SOL    HW1 9736   5.914   4.164   4.016 -0.4774  0.0161  1.2801
 2712SOL    HW2 9737   5.870   4.315   3.971  1.2879  0.8096  2.1259
 2713SOL     OW 9738   0.003   4.602   0.249 -0.0432 -0.3894  0.7032
 2713SOL    HW1 9739  -0.083   4.617   0.296  0.1129 -2.1852  1.6879
 2713SOL    HW2 9740   0.007   4.657   0.166 -1.0545  1.5959  1.9147
 2714SOL     OW 9741   6.636   3.048   6.977 -0.0930 -0.6557  0.2597
 2714SOL    HW1 9742   6.621   2.953   6.949 -0.7395 -0.4667 -0.0559
 2714SOL    HW2 9743   6.575   3.071   7.052  0.6029 -0.7147  0.8500
 2715SOL     OW 9744   2.989   5.064   5.451 -0.0222  0.0149  0.2665
 2715SOL    HW1 9745   2.944   5.100   5.370 -0.8673  0.6489  1.0044
 2715SOL    HW2 9746   2.937   4.987   5.488  0.6715 -0.6574 -0.1032
 2716SOL     OW 9747   6.580   4.095   3.132 -0.1454  0.1752 -0.1555
 2716SOL    HW1 9748   6.597   4.193   3.143  1.5438  0.0346 -1.1282
 2716SOL    HW2 9749   6.667   4.048   3.115 -1.0686 -1.3285 -0.9460
 2717SOL     OW 9750   6.909   6.476   2.612  0.2659 -0.1933 -0.1145
 2717SOL    HW1 9751   6.906   6.411   2.688  0.3715  0.1896  0.2201
 2717SOL    HW2 9752   6.819   6.482   2.570 -0.2201  0.7695  0.9920
 2718SOL     OW 9753   3.598   0.426   5.886 -0.7885 -0.2641 -0.6755
 2718SOL    HW1 9754   3.631   0.337   5.855 -1.2954  0.4274 -3.4293
 2718SOL    HW2 9755   3.675   0.489   5.893 -0.4797 -0.7672  0.9370
 2719SOL     OW 9756   0.222   3.566   1.586  0.0802  0.6522 -0.5552
 2719SOL    HW1 9757   0.286   3.519   1.525  0.9916  1.4571 -0.2442
 2719SOL    HW2 9758   0.236   3.665   1.578  0.8498  0.7530  1.6149
 2720SOL     OW 9759   2.556   3.297   5.756  0.4072  0.0215  0.5320
 2720SOL    HW1 9760   2.606   3.236   5.695  1.6887  1.3568  0.1908
 2720SOL    HW2 9761   2.498   3.358   5.702 -0.4454 -0.5019  0.8372
 2721SOL     OW 9762   5.886   5.181   1.935 -0.3369  0.9759  0.0201
 2721SOL    HW1 9763   5.825   5.117   1.890  1.7050 -2.5921  1.8376
 2721SOL    HW2 9764   5.910   5.146   2.026  2.9155  3.0760  0.1519
 2722SOL     OW 9765   1.756   6.581   3.345  0.3850  0.6888 -0.0759
 2722SOL    HW1 9766   1.744   6.672   3.384  0.0794  1.5628 -2.1127
 2722SOL    HW2 9767   1.737   6.583   3.247  1.7317 -1.2816 -0.4467
 2723SOL     OW 9768   1.165   3.705   6.349  0.5421  0.5469 -0.1165
 2723SOL    HW1 9769   1.222   3.744   6.421 -0.7301  0.4562  0.9793
 2723SOL    HW2 9770   1.187   3.608   6.338 -0.5669  0.0762  1.5263
 2724SOL     OW 9771   1.762   1.089   6.302  0.5768 -0.2753 -0.3033
 2724SOL    HW1 9772   1.818   1.170   6.286 -0.1772  0.4299  0.5173
 2724SOL    HW2 9773   1.723   1.093   6.394 -0.1741 -1.1373 -0.5673
 2725SOL     OW 9774   3.783   4.665   1.190 -0.2024  0.1242  0.4992
 2725SOL    HW1 9775   3.818   4.572   1.199 -2.2931 -0.8352 -0.5598
 2725SOL    HW2 9776   3.842   4.716   1.126 -0.3436 -1.2336 -0.7746
 2726SOL     OW 9777   0.606   5.417   5.675 -0.4901  0.3536 -0.4424
 2726SOL    HW1 9778   0.632   5.446   5.582  1.1198  0.2386 -0.0647
 2726SOL    HW2 9779   0.589   5.319   5.676 -0.7477  0.3957 -0.6627
 2727SOL     OW 9780   3.049   1.608   0.562  0.4372 -0.6790 -0.4035
 2727SOL    HW1 9781   3.118   1.677   0.540 -0.2105  0.0216 -0.3281
 2727SOL    HW2 9782   2.958   1.651   0.559  0.1083 -1.2557  0.7796
 2728SOL     OW 9783   5.032   1.099   5.136 -0.4044  0.7268 -0.3174
 2728SOL    HW1 9784   5.056   1.058   5.224 -1.8173  0.7918  0.1186
 2728SOL    HW2 9785   5.048   1.198   5.140  1.6886  0.4602 -0.9160
 2729SOL     OW 9786   2.633   5.707   2.020 -0.3216 -0.4393 -0.2310
 2729SOL    HW1 9787   2.723   5.666   2.036  0.3093 -0.5867 -3.3392
 2729SOL    HW2 9788   2.642   5.807   2.019 -0.0618 -0.4630 -0.9993
 2730SOL     OW 9789   2.071   4.764   5.038  0.0971 -0.5886  0.3134
 2730SOL    HW1 9790   2.095   4.678   4.993 -1.3384 -0.0344 -1.6226
 2730SOL    HW2 9791   2.068   4.750   5.137 -0.7471 -2.9309  0.0075
 2731SOL     OW 9792   7.000   2.147   4.674  0.1310  0.3912  0.0762
 2731SOL    HW1 9793   6.929   2.081   4.695 -0.8710  1.8483  1.5601
 2731SOL    HW2 9794   7.088   2.114   4.708 -0.2077 -0.5153  0.0801
 2732SOL     OW 9795   6.458   3.610   1.197 -0.1038 -0.3779  0.1968
 2732SOL    HW1 9796   6.471   3.555   1.280 -1.2242 -0.3131  0.4219
 2732SOL    HW2 9797   6.393   3.684   1.215 -2.2843 -1.7903 -1.3290
 2733SOL     OW 9798   3.378   1.495   2.642  0.2559  0.2724  0.1631
 2733SOL    HW1 9799   3.432   1.539   2.570  1.9920 -0.6494  0.8582
 2733SOL    HW2 9800   3.436   1.478   2.721 -0.9218 -1.2776  0.7310
 2734SOL     OW 9801   6.248   3.671   0.328 -0.1250  0.4065 -0.1904
 2734SOL    HW1 9802   6.281   3.612   0.254 -0.4459 -0.2169  0.1497
 2734SOL    HW2 9803   6.219   3.614   0.405 -2.3583  0.8631 -0.6114
 2735SOL     OW 9804   1.065   1.679   3.902 -0.4009 -0.1632 -0.0537
 2735SOL    HW1 9805   1.128   1.755   3.886 -1.5089  0.6721 -0.5522
 2735SOL    HW2 9806   1.115   1.593   3.890  0.5504  0.4673 -0.8604
 2736SOL     OW 9807   6.545   4.921   5.111  0.0504  0.2467  0.0585
 2736SOL    HW1 9808   6.494   4.921   5.197 -1.0443  0.2347 -0.5687
 2736SOL    HW2 9809   6.481   4.916   5.034  0.8621  2.3262 -0.8367
 2737SOL     OW 9810   4.676   3.232   0.431 -0.0406 -0.0608  0.5407
 2737SOL    HW1 9811   4.738   3.183   0.369  1.1080  1.9042  0.0634
 2737SOL    HW2 9812   4.581   3.210   0.408  0.3611  0.4296 -1.7831
 2738SOL     OW 9813   5.216   1.662   4.356 -0.2753 -0.0968  0.1422
 2738SOL    HW1 9814   5.140   1.723   4.381  0.0493  0.8967 -1.2243
 2738SOL    HW2 9815   5.296   1.685   4.411 -0.1826  0.6365 -0.3042
 2739SOL     OW 9816   1.141   2.873   6.524  0.0812 -0.1120 -0.6720
 2739SOL    HW1 9817   1.231   2.833   6.507  0.1483  0.1143 -0.8572
 2739SOL    HW2 9818   1.152   2.963   6.565 -0.0633 -0.1199 -0.6150
 2740SOL     OW 9819   3.203   5.459   0.697  0.2242 -0.2011 -0.1311
 2740SOL    HW1 9820   3.131   5.421   0.640  0.5539  0.7262 -1.2136
 2740SOL    HW2 9821   3.277   5.392   0.708  0.0263 -0.4882 -0.5563
 2741SOL     OW 9822   5.385   4.818   5.597 -0.0704 -0.0258  0.2501
 2741SOL    HW1 9823   5.440   4.887   5.549  2.7958 -0.3279  2.7860
 2741SOL    HW2 9824   5.335   4.861   5.671  1.0166 -0.4636  1.2736
 2742SOL     OW 9825   2.961   5.289   4.744 -0.1965 -0.0975  0.1772
 2742SOL    HW1 9826   2.901   5.211   4.730  0.5662 -0.9181  1.2737
 2742SOL    HW2 9827   2.949   5.324   4.837 -0.2213  0.8260 -0.1642
 2743SOL     OW 9828   3.211   2.522   0.673  0.2589 -0.3615 -0.1005
 2743SOL    HW1 9829   3.153   2.538   0.593 -0.6274 -1.4364  0.3056
 2743SOL    HW2 9830   3.307   2.518   0.644  0.2039  1.6497 -0.7557
 2744SOL     OW 9831   0.283   5.890   4.090  0.4850 -0.2107  0.6057
 2744SOL    HW1 9832   0.339   5.968   4.061 -1.4662  0.8714 -0.4032
 2744SOL    HW2 9833   0.215   5.870   4.021 -0.0840 -1.8291  1.5761
 2745SOL     OW 9834   0.391   1.186   0.691 -0.1399  0.0407 -0.3133
 2745SOL    HW1 9835   0.462   1.131   0.648  1.3997 -0.4896  2.6415
 2745SOL    HW2 9836   0.399   1.281   0.659  2.3279  0.1198  0.3222
 2746SOL     OW 9837   4.354   6.843   0.440  0.6307  0.2979 -0.1486
 2746SOL    HW1 9838   4.341   6.783   0.361  0.9681 -0.7096  0.5381
 2746SOL    HW2 9839   4.278   6.831   0.504  0.4378  0.9937 -0.2349
 2747SOL     OW 9840   3.341   0.146   2.009  0.1208 -0.7462  0.2120
 2747SOL    HW1 9841   3.250   0.167   2.046  1.1935  2.3964  1.4091
 2747SOL    HW2 9842   3.407   0.142   2.083  1.6773  1.7046 -0.9173
 2748SOL     OW 9843   0.691   3.478   3.621  0.2041 -0.3821 -0.7466
 2748SOL    HW1 9844   0.753   3.489   3.544 -1.5978 -0.4533 -2.2712
 2748SOL    HW2 9845   0.682   3.381   3.643  0.6170 -0.3716 -0.5214
 2749SOL     OW 9846   3.218   1.455   5.484  0.0588 -0.5557  0.4779
 2749SOL    HW1 9847   3.249   1.519   5.414  0.1121  0.5783  1.5081
 2749SOL    HW2 9848   3.283   1.379   5.492  1.2545  0.4667  0.8398
 2750SOL     OW 9849   0.361   6.918   6.216 -0.4627 -0.2712 -0.3502
 2750SOL    HW1 9850   0.424   6.847   6.249  1.0010  1.2255  0.2291
 2750SOL    HW2 9851   0.311   6.884   6.137 -1.4218 -2.7045  1.2085
 2751SOL     OW 9852   3.777   1.169   2.133  0.3325 -0.5646  0.0260
 2751SOL    HW1 9853   3.782   1.265   2.104  2.4915 -1.0516 -1.3896
 2751SOL    HW2 9854   3.681   1.141   2.136 -0.3050  1.3934 -0.3295
 2752SOL     OW 9855   4.929   6.931   5.574  0.1314 -0.1856 -0.5336
 2752SOL    HW1 9856   4.913   6.834   5.552 -1.7033 -0.4263  1.5488
 2752SOL    HW2 9857   4.856   6.986   5.532  0.6801  0.2022 -0.9841
 2753SOL     OW 9858   6.989   6.656   6.028  0.3745  0.5068  0.1154
 2753SOL    HW1 9859   7.038   6.742   6.017 -2.4533  2.4155  1.3419
 2753SOL    HW2 9860   6.952   6.627   5.940  0.5798  1.0606 -0.1574
 2754SOL     OW 9861   4.017   1.106   7.025  0.1255  0.8722 -0.1017
 2754SOL    HW1 9862   4.048   1.198   7.047 -0.7313  1.4773 -1.2525
 2754SOL    HW2 9863   4.094   1.042   7.027  0.7133  1.5925  0.7770
 2755SOL     OW 9864   5.554   2.355   5.494 -0.1673  0.0103 -0.6604
 2755SOL    HW1 9865   5.609   2.413   5.555 -0.6854 -2.1133  2.0406
 2755SOL    HW2 9866   5.457   2.366   5.516 -0.2564 -2.0269  0.1792
 2756SOL     OW 9867   4.439   0.096   0.581 -0.3827 -0.2182 -0.1711
 2756SOL    HW1 9868   4.486   0.183   0.570  0.2624 -0.6863 -1.3060
 2756SOL    HW2 9869   4.483   0.026   0.525 -1.0087 -1.2414  0.5588
 2757SOL     OW 9870   4.536   3.625   5.968  0.2873  0.3249 -0.2742
 2757SOL    HW1 9871   4.477   3.559   6.014  1.5122 -0.5300  0.1002
 2757SOL    HW2 9872   4.583   3.681   6.036  0.5523  0.4405 -0.5508
 2758SOL     OW 9873   6.797   3.998   0.621 -0.1546 -0.3507 -0.1646
 2758SOL    HW1 9874   6.802   3.914   0.676 -1.4997  1.0290  2.2361
 2758SOL    HW2 9875   6.715   3.995   0.564 -0.2031 -0.6611 -0.0815
 2759SOL     OW 9876   2.711   2.131   4.949 -0.7318  0.3131  0.7309
 2759SOL    HW1 9877   2.779   2.105   5.018 -1.6281 -0.8088  1.2263
 2759SOL    HW2 9878   2.724   2.077   4.866 -1.3675 -0.3568  1.0488
 2760SOL     OW 9879   4.617   6.081   4.413 -0.4386  0.0091  0.2396
 2760SOL    HW1 9880   4.554   6.155   4.389 -0.9765 -0.3116  0.6309
 2760SOL    HW2 9881   4.711   6.115   4.410 -0.6886  0.7674  0.6054
 2761SOL     OW 9882   3.109   0.296   5.158 -0.1853  0.5799  0.1033
 2761SOL    HW1 9883   3.203   0.298   5.122 -0.2996  1.6503 -0.1492
 2761SOL    HW2 9884   3.111   0.275   5.255  0.1296 -2.6172 -0.4645
 2762SOL     OW 9885   1.128   1.387   0.723 -0.7944  0.6224 -0.0742
 2762SOL    HW1 9886   1.085   1.429   0.643 -2.4210  0.1625  0.5163
 2762SOL    HW2 9887   1.060   1.377   0.796  0.1053 -0.9633  0.5939
 2763SOL     OW 9888   1.153   5.689   3.791 -0.2010  0.2283  0.2863
 2763SOL    HW1 9889   1.207   5.771   3.773 -1.4474  1.7991  3.0444
 2763SOL    HW2 9890   1.058   5.706   3.767 -0.3540 -0.7281  0.1608
 2764SOL     OW 9891   6.619   1.849   3.612 -0.2913  0.1292 -0.4824
 2764SOL    HW1 9892   6.543   1.904   3.576 -0.8431 -1.0363 -1.1567
 2764SOL    HW2 9893   6.621   1.761   3.565 -0.3611 -1.0494  1.6142
 2765SOL     OW 9894   5.959   1.007   4.444  0.3141  0.1578 -0.2714
 2765SOL    HW1 9895   6.053   1.029   4.470  0.5364 -0.2184 -0.7370
 2765SOL    HW2 9896   5.907   0.980   4.525  1.0444 -1.1856 -0.2155
 2766SOL     OW 9897   3.353   6.640   2.239  0.4066  0.3745 -0.6654
 2766SOL    HW1 9898   3.357   6.588   2.153  0.7461  3.6026 -2.8010
 2766SOL    HW2 9899   3.417   6.717   2.234 -0.2477  1.2151  2.1584
 2767SOL     OW 9900   3.874   0.129   2.852  0.2676 -0.2933  0.0487
 2767SOL    HW1 9901   3.777   0.152   2.858  0.4698  0.3671  0.9544
 2767SOL    HW2 9902   3.884   0.030   2.845 -0.5071 -0.3033 -1.3213
 2768SOL     OW 9903   6.486   6.476   1.753 -0.2240  0.4073  0.7196
 2768SOL    HW1 9904   6.440   6.417   1.820 -0.0874  1.5001  1.7985
 2768SOL    HW2 9905   6.419   6.540   1.715 -0.1694  0.1830  0.2397
 2769SOL     OW 9906   0.871   6.490   5.474 -0.6782  0.2347 -0.1539
 2769SOL    HW1 9907   0.925   6.574   5.464 -2.4162  1.2026 -2.2732
 2769SOL    HW2 9908   0.914   6.417   5.422  0.0888  0.1530  0.5568
 2770SOL     OW 9909   3.195   2.587   6.123  0.4244 -0.4881  0.1686
 2770SOL    HW1 9910   3.097   2.598   6.139  0.5652 -0.7881  1.3841
 2770SOL    HW2 9911   3.213   2.582   6.025 -0.7222  0.0021 -0.0809
 2771SOL     OW 9912   3.829   0.226   4.099  0.2347  0.1827  0.6144
 2771SOL    HW1 9913   3.845   0.302   4.036 -0.6577  0.2528  0.4654
 2771SOL    HW2 9914   3.897   0.154   4.082 -0.0971  0.1209 -0.5573
 2772SOL     OW 9915   5.942   2.077   4.016 -0.6799 -0.0997 -0.3622
 2772SOL    HW1 9916   5.850   2.108   3.991 -0.9918 -0.9828 -0.3311
 2772SOL    HW2 9917   5.997   2.065   3.934 -1.0935 -1.1103 -0.4989
 2773SOL     OW 9918   0.395   5.195   4.798  0.1489 -0.2121 -0.2594
 2773SOL    HW1 9919   0.461   5.128   4.763  0.2764  0.5477 -1.5604
 2773SOL    HW2 9920   0.376   5.263   4.726 -1.7929 -0.2204  0.1918
 2774SOL     OW 9921   4.029   0.622   4.448  0.8465  0.2033  0.2226
 2774SOL    HW1 9922   4.041   0.589   4.355  0.3590  1.5161 -0.3392
 2774SOL    HW2 9923   4.087   0.703   4.463  0.5384  0.3128  0.8855
 2775SOL     OW 9924   4.827   2.689   6.026 -0.4274  0.2530 -0.1211
 2775SOL    HW1 9925   4.748   2.708   5.968  0.0552 -0.9143 -1.2143
 2775SOL    HW2 9926   4.895   2.637   5.974  1.2401  1.5498  0.6877
 2776SOL     OW 9927   4.539   5.871   3.319  0.5445  0.2442  0.0519
 2776SOL    HW1 9928   4.543   5.870   3.219  1.7553 -0.9360  0.0820
 2776SOL    HW2 9929   4.497   5.786   3.351 -1.3680  1.3062  0.5463
 2777SOL     OW 9930   0.966   4.106   5.785 -0.5688  0.5092  0.2519
 2777SOL    HW1 9931   1.009   4.142   5.868  0.1633  2.3504 -0.8728
 2777SOL    HW2 9932   1.024   4.125   5.706 -2.8347  1.9875 -1.1598
 2778SOL     OW 9933   2.062   0.756   5.367  0.0207 -0.0110 -0.7565
 2778SOL    HW1 9934   2.012   0.821   5.425  0.4127  0.3586 -0.8286
 2778SOL    HW2 9935   2.119   0.698   5.424  1.5679  1.3434 -0.8511
 2779SOL     OW 9936   6.310   5.993   1.152  0.3224 -0.5778  0.0427
 2779SOL    HW1 9937   6.231   6.045   1.120 -1.1911 -2.0968  1.1369
 2779SOL    HW2 9938   6.356   5.949   1.074  1.0329  1.4997 -0.7715
 2780SOL     OW 9939   1.937   0.909   5.175 -0.0938 -0.1862  0.2408
 2780SOL    HW1 9940   1.882   0.983   5.214 -1.2319 -1.0680  0.3547
 2780SOL    HW2 9941   1.992   0.867   5.248 -1.8231 -1.4857  0.8793
 2781SOL     OW 9942   5.888   5.759   1.427 -0.0394  0.5356  0.2315
 2781SOL    HW1 9943   5.898   5.669   1.470 -0.0828  1.0167  1.2726
 2781SOL    HW2 9944   5.972   5.812   1.441  0.6156  0.1241 -1.7391
 2782SOL     OW 9945   4.123   5.714   3.514 -0.0915  0.2544 -0.0630
 2782SOL    HW1 9946   4.134   5.650   3.590 -0.3057  0.3743  0.0724
 2782SOL    HW2 9947   4.036   5.763   3.524  0.4883  1.2307  0.3296
 2783SOL     OW 9948   6.389   0.906   1.206 -0.2618  0.2471  0.1613
 2783SOL    HW1 9949   6.466   0.877   1.262  0.3201  1.9994  0.3409
 2783SOL    HW2 9950   6.331   0.968   1.259  0.1934  1.7802 -1.0704
 2784SOL     OW 9951   0.421   5.778   1.830  0.4126  0.2367 -0.4915
 2784SOL    HW1 9952   0.423   5.823   1.741  0.0068  1.7167  0.2144
 2784SOL    HW2 9953   0.505   5.800   1.880  0.3104  0.0289 -0.2254
 2785SOL     OW 9954   6.859   1.886   1.644 -0.1866 -0.3036  0.2731
 2785SOL    HW1 9955   6.901   1.801   1.612 -0.7545 -0.0456 -1.2933
 2785SOL    HW2 9956   6.860   1.953   1.569 -2.7341 -0.0708  0.3474
 2786SOL     OW 9957   6.860   0.888   2.932 -0.2176  0.2269 -0.0706
 2786SOL    HW1 9958   6.959   0.888   2.922 -0.3767  0.6047 -2.1884
 2786SOL    HW2 9959   6.834   0.953   3.004  1.0256  0.8750 -0.1763
 2787SOL     OW 9960   1.425   0.653   0.171 -0.2188  0.4833 -0.2502
 2787SOL    HW1 9961   1.329   0.676   0.160 -0.3637 -0.5891 -1.4146
 2787SOL    HW2 9962   1.482   0.726   0.131 -0.5955  0.3398 -1.0680
 2788SOL     OW 9963   0.240   5.691   2.301  0.4485  0.0043  0.2268
 2788SOL    HW1 9964   0.226   5.762   2.370  0.1950  0.6686 -0.4981
 2788SOL    HW2 9965   0.306   5.625   2.336  0.5162  0.4597  1.0088
 2789SOL     OW 9966   3.879   4.783   5.969 -0.0737 -0.5381 -0.3633
 2789SOL    HW1 9967   3.810   4.712   5.986 -0.3819 -0.1481  0.0399
 2789SOL    HW2 9968   3.936   4.794   6.050 -0.8182  0.5347  0.0416
 2790SOL     OW 9969   0.698   0.724   2.031  0.1735 -0.1786 -0.5361
 2790SOL    HW1 9970   0.790   0.732   2.069  0.6713 -1.1489 -1.4937
 2790SOL    HW2 9971   0.699   0.755   1.936 -0.6098  0.2454 -0.4217
 2791SOL     OW 9972   5.782   2.918   5.295  0.6982  0.1872 -0.4411
 2791SOL    HW1 9973   5.814   2.851   5.227  1.0171  1.5456 -1.6949
 2791SOL    HW2 9974   5.855   2.984   5.313  1.2664 -1.1049  2.6236
 2792SOL     OW 9975   6.882   0.059   3.712 -0.2750 -0.2582 -0.3912
 2792SOL    HW1 9976   6.797   0.045   3.763 -0.3767 -0.2569 -0.5599
 2792SOL    HW2 9977   6.960   0.043   3.772 -0.3839  1.2153  0.1909
 2793SOL     OW 9978   4.274   5.424   1.551 -0.3325 -0.3115  0.2701
 2793SOL    HW1 9979   4.338   5.378   1.491 -0.4250  0.4096 -0.3968
 2793SOL    HW2 9980   4.256   5.367   1.631  1.4979 -0.3108  0.7105
 2794SOL     OW 9981   4.438   6.037   1.438  0.1247  0.0786 -0.1121
 2794SOL    HW1 9982   4.403   6.033   1.344  0.8941 -1.6199 -0.3695
 2794SOL    HW2 9983   4.537   6.031   1.437  0.3124  2.1219  0.7470
 2795SOL     OW 9984   1.363   0.413   4.580 -0.1869 -0.2931 -0.1606
 2795SOL    HW1 9985   1.397   0.395   4.672 -1.3457  1.6594  0.7219
 2795SOL    HW2 9986   1.329   0.329   4.539  0.0187 -1.1292  1.3378
 2796SOL     OW 9987   5.638   4.522   6.215  0.3957  0.0043  0.1106
 2796SOL    HW1 9988   5.575   4.524   6.136 -0.6444  1.1199  0.9326
 2796SOL    HW2 9989   5.683   4.611   6.224  1.3047 -0.4522  0.1712
 2797SOL     OW 9990   2.076   5.506   2.855 -0.0735  0.4822 -0.4703
 2797SOL    HW1 9991   2.038   5.470   2.770 -1.3627  0.4082  0.1075
 2797SOL    HW2 9992   2.097   5.430   2.917 -1.7409  0.6181  0.3176
 2798SOL     OW 9993   4.113   6.512   3.936  0.3921 -0.3057 -0.1430
 2798SOL    HW1 9994   4.073   6.602   3.919  0.0150 -0.5147 -0.4107
 2798SOL    HW2 9995   4.209   6.512   3.910  0.6452  0.2908  0.7858
 2799SOL     OW 9996   6.877   4.398   2.592  0.0966  0.2094  0.1244
 2799SOL    HW1 9997   6.887   4.300   2.575  2.2445  0.4597 -0.3612
 2799SOL    HW2 9998   6.825   4.412   2.677  0.1040 -1.3429  0.4196
 2800SOL     OW 9999   0.566   2.843   6.514  0.0888  0.0232 -0.5754
 2800SOL    HW110000   0.659   2.815   6.538 -0.7095 -1.2307  1.2671
 2800SOL    HW210001   0.565   2.876   6.420  2.4596  0.4456 -0.5215
 2801SOL     OW10002   3.339   5.630   3.359  0.1521  0.2347  0.2404
 2801SOL    HW110003   3.333   5.531   3.374 -0.6429  0.2839  0.2974
 2801SOL    HW210004   3.381   5.648   3.270 -1.3097 -0.1966 -0.5552
 2802SOL     OW10005   6.457   0.301   3.351  0.4445 -0.2012 -0.4207
 2802SOL    HW110006   6.543   0.262   3.317  0.1211 -2.3332  1.0427
 2802SOL    HW210007   6.475   0.393   3.387  1.2044  1.2486 -4.0527
 2803SOL     OW10008   4.785   0.629   5.486 -0.4730  0.1729  0.6875
 2803SOL    HW110009   4.855   0.565   5.457 -0.4646  0.1717  0.7113
 2803SOL    HW210010   4.791   0.643   5.585 -1.6983 -1.2603  1.0001
 2804SOL     OW10011   2.116   5.063   4.522  0.5701  0.1336  0.0979
 2804SOL    HW110012   2.151   5.043   4.430 -0.4754  1.6633 -0.6695
 2804SOL    HW210013   2.021   5.033   4.530  0.5259  0.3768  0.5438
 2805SOL     OW10014   0.154   1.998   6.803 -0.7791  0.4376  0.0535
 2805SOL    HW110015   0.188   2.054   6.879 -1.0626 -2.0532  2.1683
 2805SOL    HW210016   0.205   1.912   6.799 -2.6907 -0.7265 -0.6911
 2806SOL     OW10017   0.249   2.636   5.203  0.1413 -0.2618  0.3621
 2806SOL    HW110018   0.244   2.591   5.292 -0.0111 -0.8934  0.0399
 2806SOL    HW210019   0.272   2.569   5.133 -0.3682  0.1082 -0.1726
 2807SOL     OW10020   6.920   4.874   5.701  0.0407 -0.2035 -0.0505
 2807SOL    HW110021   6.869   4.852   5.618 -1.8952  0.2605  0.9489
 2807SOL    HW210022   6.856   4.884   5.777  1.7180 -0.1837  1.4217
 2808SOL     OW10023   5.187   6.771   1.234 -0.2883  0.8345  0.1370
 2808SOL    HW110024   5.215   6.750   1.328  1.6447 -3.3911 -1.1334
 2808SOL    HW210025   5.267   6.774   1.175 -1.5216  2.6371 -1.5716
 2809SOL     OW10026   1.818   4.487   6.973 -0.3506  0.2699  0.3064
 2809SOL    HW110027   1.767   4.572   6.988 -0.4666  0.0678  1.0809
 2809SOL    HW210028   1.811   4.461   6.877 -0.7886  0.8319  0.1795
 2810SOL     OW10029   0.937   2.960   1.813 -0.3184  0.1281 -0.9636
 2810SOL    HW110030   0.945   3.000   1.904 -1.1024 -1.0436 -0.3534
 2810SOL    HW210031   1.021   2.912   1.789 -0.1424  0.3658 -0.8148
 2811SOL     OW10032   3.847   5.591   5.862  0.2291  0.3126 -0.6922
 2811SOL    HW110033   3.835   5.502   5.819 -1.8479  0.3925 -0.4111
 2811SOL    HW210034   3.785   5.658   5.819 -0.1982  0.9486  0.8166
 2812SOL     OW10035   3.062   1.277   6.307 -0.3722  0.4371 -0.3946
 2812SOL    HW110036   3.065   1.181   6.333  0.3886  0.2143 -1.2636
 2812SOL    HW210037   3.152   1.306   6.275 -0.5220  1.5178  0.1111
 2813SOL     OW10038   3.630   5.607   0.547 -0.1323 -0.3002  0.3349
 2813SOL    HW110039   3.679   5.692   0.527 -0.0720 -0.1027  1.2723
 2813SOL    HW210040   3.583   5.576   0.465  0.3735  0.2914 -0.1919
 2814SOL     OW10041   4.996   6.147   1.855 -0.4561 -0.4188 -0.2607
 2814SOL    HW110042   4.951   6.205   1.788 -1.1111  1.4030  1.6578
 2814SOL    HW210043   4.931   6.080   1.891 -0.5774 -0.2466 -0.1639
 2815SOL     OW10044   1.462   0.337   4.816  0.5113 -0.1767  0.3387
 2815SOL    HW110045   1.559   0.360   4.807  0.5780 -0.6553 -0.1814
 2815SOL    HW210046   1.423   0.390   4.891  1.1745  0.0175  0.5580
 2816SOL     OW10047   1.843   5.998   6.145  0.4357 -0.3972 -0.5390
 2816SOL    HW110048   1.923   6.056   6.127 -0.2024  0.2531 -1.3556
 2816SOL    HW210049   1.821   5.945   6.063 -0.5431  0.1469 -0.6382
 2817SOL     OW10050   1.697   6.554   4.671 -0.2899  0.5451 -0.1954
 2817SOL    HW110051   1.781   6.590   4.713 -0.2245 -0.2935  0.4013
 2817SOL    HW210052   1.658   6.625   4.612  0.8037  0.9740 -0.4491
 2818SOL     OW10053   0.611   3.579   4.577 -0.1439 -0.2739 -0.2822
 2818SOL    HW110054   0.566   3.592   4.489  1.5681  0.1976 -1.1329
 2818SOL    HW210055   0.676   3.503   4.570  1.1879  0.7890  0.0571
 2819SOL     OW10056   2.751   6.224   0.876  0.0121 -0.7399 -0.1738
 2819SOL    HW110057   2.822   6.155   0.890 -1.0858 -1.9626 -0.4273
 2819SOL    HW210058   2.790   6.315   0.886  1.6767 -1.3761 -0.5948
 2820SOL     OW10059   3.132   3.048   0.659  0.7031  0.0479  0.1299
 2820SOL    HW110060   3.151   3.132   0.711 -0.9653  0.8662 -0.5048
 2820SOL    HW210061   3.074   2.988   0.714  1.5023 -0.4942  0.3957
 2821SOL     OW10062   6.127   1.824   1.782 -0.6100  0.1017 -0.0437
 2821SOL    HW110063   6.078   1.804   1.867  0.6827  0.4633  0.8193
 2821SOL    HW210064   6.134   1.923   1.770  1.0986  0.1001  0.6083
 2822SOL     OW10065   5.285   5.695   6.228 -0.2306  0.0121 -0.2030
 2822SOL    HW110066   5.202   5.696   6.172 -0.6561  0.0523  0.4082
 2822SOL    HW210067   5.324   5.602   6.227 -0.2375  0.0104 -0.5531
 2823SOL     OW10068   2.148   5.830   4.230 -0.3550  0.2545  0.1366
 2823SOL    HW110069   2.164   5.738   4.195 -1.5389  0.6094 -1.5259
 2823SOL    HW210070   2.060   5.833   4.277  0.1167  0.3428  1.0344
 2824SOL     OW10071   0.567   5.139   2.028  0.4644 -0.5494  0.3510
 2824SOL    HW110072   0.488   5.100   2.074 -0.5745 -0.9328 -1.6795
 2824SOL    HW210073   0.638   5.069   2.017  0.6439 -0.5057  1.1194
 2825SOL     OW10074   2.591   6.865   0.513  0.3671 -0.0989  0.2798
 2825SOL    HW110075   2.498   6.873   0.549  1.3407  0.5969  2.9380
 2825SOL    HW210076   2.629   6.776   0.538  0.5273 -0.2502 -0.4965
 2826SOL     OW10077   4.971   3.048   0.858 -0.2046 -0.0592  0.0903
 2826SOL    HW110078   4.934   3.006   0.941  0.1795  0.7940  0.7147
 2826SOL    HW210079   5.015   2.979   0.802  2.9381 -0.1484  2.4172
 2827SOL     OW10080   4.418   2.751   6.451 -0.0987 -0.5686 -0.1911
 2827SOL    HW110081   4.329   2.760   6.407  0.7122 -0.0289 -1.8468
 2827SOL    HW210082   4.489   2.785   6.388  1.5774 -3.5659 -0.1140
 2828SOL     OW10083   0.825   6.746   1.090 -0.1984  0.0890 -0.3568
 2828SOL    HW110084   0.793   6.819   1.149 -2.0658 -0.4213 -0.6781
 2828SOL    HW210085   0.917   6.718   1.117 -0.1914  1.2958  0.9228
 2829SOL     OW10086   1.644   4.701   2.280  0.5659  0.1553  0.4172
 2829SOL    HW110087   1.644   4.722   2.377 -0.4196 -1.1501  0.7256
 2829SOL    HW210088   1.641   4.601   2.267 -1.6255  0.3102 -0.8946
 2830SOL     OW10089   5.107   2.636   5.839 -0.8193 -0.4106 -0.4899
 2830SOL    HW110090   5.026   2.597   5.795 -1.6882  0.4321  0.3131
 2830SOL    HW210091   5.166   2.678   5.770 -0.8093 -1.4476 -1.1381
 2831SOL     OW10092   5.347   2.794   0.030  0.2985  0.0854 -0.2508
 2831SOL    HW110093   5.351   2.807  -0.069 -0.4941  0.9355 -0.1743
 2831SOL    HW210094   5.409   2.859   0.075 -1.0841  1.3118 -0.0677
 2832SOL     OW10095   3.828   6.253   1.372  0.1076 -1.0558 -0.2415
 2832SOL    HW110096   3.814   6.156   1.349  1.8639 -1.3433 -0.2187
 2832SOL    HW210097   3.896   6.292   1.311 -0.4181  0.1264 -0.0997
 2833SOL     OW10098   6.429   1.838   4.825  0.4361  0.4177 -0.1702
 2833SOL    HW110099   6.369   1.777   4.774  0.1159  0.8723 -0.3366
 2833SOL    HW210100   6.474   1.902   4.763  0.5986  0.5030  0.0317
 2834SOL     OW10101   2.922   2.679   6.206 -0.1498 -0.7237 -1.0474
 2834SOL    HW110102   2.851   2.725   6.152 -1.3709 -1.4631 -0.1519
 2834SOL    HW210103   2.946   2.737   6.284 -2.6208 -1.9657  0.8121
 2835SOL     OW10104   3.649   4.261   0.575 -0.0199 -0.1923 -0.0347
 2835SOL    HW110105   3.694   4.172   0.579  1.0125  0.3315  0.2271
 2835SOL    HW210106   3.556   4.250   0.540  0.8437 -1.0924 -2.1680
 2836SOL     OW10107   6.096   3.031   4.489 -0.6467 -0.4403 -0.4469
 2836SOL    HW110108   6.057   3.105   4.434 -1.7222 -0.0851  0.7470
 2836SOL    HW210109   6.071   2.943   4.449 -0.9428 -0.1849 -0.8322
 2837SOL     OW10110   5.843   0.520   4.504 -0.2389  0.4605  1.0854
 2837SOL    HW110111   5.906   0.585   4.460 -0.6443  0.7018  0.8614
 2837SOL    HW210112   5.749   0.546   4.484 -0.4433 -1.6066 -1.1602
 2838SOL     OW10113   4.445   1.748   1.705  0.6645  0.2037  0.1057
 2838SOL    HW110114   4.479   1.789   1.620  1.1303  1.4965  0.8893
 2838SOL    HW210115   4.506   1.674   1.733  0.4243 -0.3340 -0.7531
 2839SOL     OW10116   0.296   4.612   6.403 -0.0626 -0.3552 -0.0149
 2839SOL    HW110117   0.320   4.592   6.498  1.1317 -2.3246 -0.6708
 2839SOL    HW210118   0.335   4.701   6.377  1.1940 -0.6335  0.8097
 2840SOL     OW10119   5.073   2.739   5.353  0.0473  0.0161 -0.2555
 2840SOL    HW110120   4.981   2.750   5.390 -0.6129 -3.2018 -0.5873
 2840SOL    HW210121   5.117   2.828   5.345 -2.5038  1.5315  1.1979
 2841SOL     OW10122   1.137   2.690   1.787 -0.2148  0.8262 -0.0160
 2841SOL    HW110123   1.163   2.749   1.711  1.6069  0.2121  0.0886
 2841SOL    HW210124   1.173   2.727   1.872  0.0440  0.1110  0.1891
 2842SOL     OW10125   1.617   1.558   1.662 -0.2498 -0.2149 -0.1258
 2842SOL    HW110126   1.657   1.645   1.632  0.2869 -0.8843 -1.4144
 2842SOL    HW210127   1.582   1.508   1.583  1.5664 -2.2119  0.2482
 2843SOL     OW10128   6.420   6.544   6.969 -0.5407  0.7757  0.0848
 2843SOL    HW110129   6.343   6.599   7.000 -0.9092  0.3511 -0.0742
 2843SOL    HW210130   6.437   6.561   6.872 -2.9401 -1.9827 -0.9572
 2844SOL     OW10131   6.149   2.542   1.124 -0.3499 -0.3640 -0.6101
 2844SOL    HW110132   6.245   2.517   1.137 -0.3749 -0.0723  0.1970
 2844SOL    HW210133   6.135   2.573   1.030  0.5996  0.7051 -0.4228
 2845SOL     OW10134   4.519   1.238   6.036 -0.2054 -0.2732  0.2964
 2845SOL    HW110135   4.531   1.141   6.060 -0.6959 -0.2666  0.5841
 2845SOL    HW210136   4.609   1.280   6.024  0.1972  0.0065  3.2968
 2846SOL     OW10137   1.119   5.060   1.533  0.2714  0.4241  0.1855
 2846SOL    HW110138   1.195   5.026   1.478  0.0240 -0.1015  0.1602
 2846SOL    HW210139   1.153   5.094   1.621  0.8569  2.5798 -0.8054
 2847SOL     OW10140   6.992   3.534   3.410 -0.3590 -0.9266  0.4283
 2847SOL    HW110141   7.087   3.548   3.440 -0.5858 -1.2308  1.3327
 2847SOL    HW210142   6.940   3.490   3.484 -1.7391  1.1244  0.7754
 2848SOL     OW10143   2.115   2.134   0.796  0.1146 -0.5882 -0.4470
 2848SOL    HW110144   2.065   2.202   0.849 -0.7215 -1.3255 -0.2813
 2848SOL    HW210145   2.094   2.042   0.829  2.4417 -0.9015  0.3775
 2849SOL     OW10146   6.732   4.289   5.766  0.6132  0.0562 -0.5997
 2849SOL    HW110147   6.650   4.249   5.725 -0.7463  1.0705  0.9719
 2849SOL    HW210148   6.730   4.388   5.753  1.1454  0.1800  0.1985
 2850SOL     OW10149   3.131   0.575   3.930 -0.3215 -0.6022  0.1477
 2850SOL    HW110150   3.115   0.602   4.025  0.5425  1.7420 -0.2972
 2850SOL    HW210151   3.052   0.602   3.874  0.6922  1.5290 -0.3600
 2851SOL     OW10152   1.658   4.656   0.521 -0.2993 -0.1317  0.1719
 2851SOL    HW110153   1.711   4.639   0.605  1.7689 -1.4681 -1.3211
 2851SOL    HW210154   1.570   4.611   0.528 -0.3181  0.0749  1.7537
 2852SOL     OW10155   3.419   4.630   0.423  0.8369  0.1860  0.3650
 2852SOL    HW110156   3.381   4.721   0.439 -0.9633  0.0690 -2.4684
 2852SOL    HW210157   3.491   4.635   0.354  0.3119 -0.5826 -0.2636
 2853SOL     OW10158   0.111   6.554   2.873  0.0380 -0.1255 -0.1888
 2853SOL    HW110159   0.058   6.639   2.883  0.2425  0.0124 -0.2832
 2853SOL    HW210160   0.108   6.525   2.777  0.4498  0.0866 -0.2662
 2854SOL     OW10161   1.722   5.098   5.613 -0.3588 -0.7857  0.0814
 2854SOL    HW110162   1.817   5.070   5.596  0.0298  1.3287 -1.8005
 2854SOL    HW210163   1.700   5.085   5.709  1.9122 -1.1617  0.6050
 2855SOL     OW10164   6.043   1.425   0.956  0.5066  0.1361  0.3356
 2855SOL    HW110165   5.968   1.447   1.017 -0.6660  1.0529 -1.3738
 2855SOL    HW210166   6.012   1.360   0.886  1.2364  0.6261 -0.4755
 2856SOL     OW10167   1.951   3.888   0.630 -0.4522 -0.8135  0.3416
 2856SOL    HW110168   1.907   3.944   0.559  1.3456 -0.2838 -0.4021
 2856SOL    HW210169   1.992   3.948   0.699  2.7332 -1.0095 -1.1952
 2857SOL     OW10170   2.680   6.599   0.661 -0.2059 -0.2108  0.0670
 2857SOL    HW110171   2.719   6.683   0.701 -0.5682  1.3906 -2.6872
 2857SOL    HW210172   2.580   6.603   0.668 -0.2021 -0.8513  0.6442
 2858SOL     OW10173   6.205   6.252   0.709 -0.0456 -0.1687  0.3097
 2858SOL    HW110174   6.207   6.246   0.609 -0.1883  1.4167  0.1822
 2858SOL    HW210175   6.268   6.185   0.747 -0.0089 -0.8234 -0.8376
 2859SOL     OW10176   2.869   3.478   3.620 -0.1777  0.0348 -0.1918
 2859SOL    HW110177   2.857   3.548   3.550 -0.3992  0.6834  0.4747
 2859SOL    HW210178   2.924   3.515   3.695  2.4750 -1.5083 -1.2351
 2860SOL     OW10179   2.832   3.393   0.567  0.6186 -0.1422 -0.3099
 2860SOL    HW110180   2.849   3.406   0.470  0.8107 -1.2257 -0.4260
 2860SOL    HW210181   2.821   3.296   0.587 -1.2758  0.1866  0.4493
 2861SOL     OW10182   3.565   5.829   4.795  0.0685 -0.5338  0.1157
 2861SOL    HW110183   3.487   5.792   4.745 -0.2051  1.3794 -0.9490
 2861SOL    HW210184   3.627   5.754   4.821 -1.1293 -1.8557 -0.7199
 2862SOL     OW10185   0.849   4.707   3.931  0.0115  0.2178  0.0369
 2862SOL    HW110186   0.781   4.726   4.002 -0.7338 -2.1727  0.0517
 2862SOL    HW210187   0.817   4.631   3.874  1.8929  0.2050 -1.0880
 2863SOL     OW10188   6.020   6.506   4.168  0.7576  0.0512 -0.0054
 2863SOL    HW110189   6.110   6.463   4.154  0.7792 -0.5778  1.8868
 2863SOL    HW210190   6.028   6.579   4.235  0.1967  1.3227 -1.2708
 2864SOL     OW10191   4.885   6.568   1.587  0.1061  0.3186 -0.5076
 2864SOL    HW110192   4.818   6.626   1.541 -0.0053 -0.6543 -1.5974
 2864SOL    HW210193   4.847   6.477   1.600  0.2368  0.4758  1.2985
 2865SOL     OW10194   2.772   1.821   6.883 -0.7813  0.1987 -0.3064
 2865SOL    HW110195   2.813   1.818   6.792  1.2658 -1.1213  0.5948
 2865SOL    HW210196   2.708   1.745   6.894 -1.4440  0.6677 -0.7738
 2866SOL     OW10197   2.019   0.859   1.117  0.0609 -0.0330  0.3266
 2866SOL    HW110198   2.066   0.819   1.196 -0.7298  1.9853  1.9044
 2866SOL    HW210199   1.986   0.786   1.057 -0.2229 -1.6871  2.3870
 2867SOL     OW10200   1.178   1.273   4.253  0.6907  0.0141 -0.0474
 2867SOL    HW110201   1.160   1.252   4.349  0.0987 -2.6666 -0.6760
 2867SOL    HW210202   1.277   1.273   4.237  0.8386  1.4490  0.7184
 2868SOL     OW10203   1.762   5.735   1.885 -0.1731 -0.3004 -0.6612
 2868SOL    HW110204   1.828   5.680   1.936  0.5095 -0.7073 -1.9401
 2868SOL    HW210205   1.793   5.830   1.882 -0.7641 -0.0508  0.5656
 2869SOL     OW10206   1.058   5.321   1.396 -0.2221 -0.2161  0.6778
 2869SOL    HW110207   1.064   5.228   1.434 -1.2144  0.3982  2.4911
 2869SOL    HW210208   1.084   5.386   1.467 -0.4162  0.9397 -0.2978
 2870SOL     OW10209   1.875   3.438   3.170  0.1333 -0.0099  0.5137
 2870SOL    HW110210   1.823   3.519   3.142  1.0148  1.1307  2.0233
 2870SOL    HW210211   1.920   3.398   3.090 -2.1191 -0.4089 -0.6525
 2871SOL     OW10212   3.910   3.327   1.687 -0.0896  0.1236 -0.2806
 2871SOL    HW110213   3.977   3.390   1.648  0.0085  0.2932  0.1569
 2871SOL    HW210214   3.957   3.251   1.732 -0.1767  0.3594  0.2226
 2872SOL     OW10215   0.118   2.296   6.381  0.4119 -0.3913 -0.5391
 2872SOL    HW110216   0.186   2.268   6.449 -0.7317  1.3884  1.4454
 2872SOL    HW210217   0.137   2.390   6.353  0.7221 -1.0125 -2.6015
 2873SOL     OW10218   5.918   3.233   3.655 -0.3540  0.9225 -0.6370
 2873SOL    HW110219   5.955   3.305   3.713  1.6374 -1.1630  0.8874
 2873SOL    HW210220   5.987   3.206   3.588 -0.7457 -0.0650 -0.6629
 2874SOL     OW10221   1.879   6.156   4.430  0.0812  0.2602  0.0391
 2874SOL    HW110222   1.978   6.157   4.415 -0.1126  0.8855 -1.3749
 2874SOL    HW210223   1.859   6.127   4.524  1.5032 -2.3256 -0.3725
 2875SOL     OW10224   4.876   5.932   2.293 -0.3657 -0.0380 -0.1102
 2875SOL    HW110225   4.896   5.910   2.388  0.2951 -0.1195 -0.2636
 2875SOL    HW210226   4.961   5.957   2.246 -0.9724  2.2354 -0.1087
 2876SOL     OW10227   5.101   5.983   0.339 -0.2283 -0.0013 -0.3240
 2876SOL    HW110228   5.038   6.010   0.265  1.3490  2.7483 -0.8082
 2876SOL    HW210229   5.050   5.975   0.424 -1.7293 -1.0383 -1.2729
 2877SOL     OW10230   6.140   6.478   0.280  0.7470  0.3927  0.0429
 2877SOL    HW110231   6.188   6.422   0.212  1.5439 -0.3805  1.2200
 2877SOL    HW210232   6.061   6.521   0.236  0.4161 -1.2150 -1.0501
 2878SOL     OW10233   3.666   6.871   0.015 -0.2718  0.2802 -0.2756
 2878SOL    HW110234   3.625   6.890   0.104 -0.9302  1.0017 -0.7220
 2878SOL    HW210235   3.626   6.787  -0.023 -1.0399  0.7394 -0.5115
 2879SOL     OW10236   5.033   1.283   2.770 -0.1623 -0.1515  0.0981
 2879SOL    HW110237   5.030   1.349   2.695 -1.7803 -0.1095  0.1757
 2879SOL    HW210238   5.020   1.191   2.733  3.4102 -0.7032 -0.1980
 2880SOL     OW10239   0.935   1.732   0.848  0.0723 -0.9020 -0.1869
 2880SOL    HW110240   0.840   1.750   0.821 -0.0283 -0.2655  0.5671
 2880SOL    HW210241   0.996   1.792   0.796  0.0042 -0.8030 -0.1528
 2881SOL     OW10242   4.846   4.863   2.385 -0.3026 -0.1756  0.1813
 2881SOL    HW110243   4.883   4.771   2.371 -0.0501 -0.1480  0.6288
 2881SOL    HW210244   4.864   4.919   2.305  0.0747 -0.3472  0.1441
 2882SOL     OW10245   6.378   5.827   4.580 -0.0065 -0.6950  0.4227
 2882SOL    HW110246   6.394   5.732   4.554  1.4607 -0.5491  0.7321
 2882SOL    HW210247   6.452   5.884   4.545 -1.2605  0.4790 -0.4337
 2883SOL     OW10248   5.799   0.812   6.585 -0.0766 -0.7444  0.2798
 2883SOL    HW110249   5.767   0.900   6.621  0.9453  0.1717 -0.9550
 2883SOL    HW210250   5.730   0.774   6.524  0.1613  0.0555 -0.5124
 2884SOL     OW10251   1.369   6.881   4.363 -0.1059  0.1008  0.4690
 2884SOL    HW110252   1.426   6.871   4.281  0.3953 -0.2999  0.8606
 2884SOL    HW210253   1.276   6.850   4.342 -0.6911  2.4305 -0.6994
 2885SOL     OW10254   1.528   3.699   3.923 -0.3123 -0.0685  0.2484
 2885SOL    HW110255   1.585   3.746   3.991  1.0753 -0.7505 -0.3912
 2885SOL    HW210256   1.587   3.644   3.864 -1.4733  0.5450 -1.5481
 2886SOL     OW10257   0.545   6.137   5.424 -0.1354 -0.0044 -0.0553
 2886SOL    HW110258   0.598   6.191   5.489 -0.1060  0.4471 -0.4473
 2886SOL    HW210259   0.606   6.073   5.377 -0.2411 -0.6724  0.6990
 2887SOL     OW10260   6.904   1.818   5.997 -0.2549  0.6973 -0.6095
 2887SOL    HW110261   6.997   1.838   5.965  0.1973 -0.2052  0.0833
 2887SOL    HW210262   6.838   1.851   5.930  0.5729  1.1883 -1.2036
 2888SOL     OW10263   5.866   1.565   0.347  0.0978 -0.0901 -0.5960
 2888SOL    HW110264   5.926   1.575   0.426 -1.4158  3.9290  0.2745
 2888SOL    HW210265   5.771   1.553   0.378 -0.3128 -0.2677 -1.8532
 2889SOL     OW10266   6.445   1.238   4.168  0.1105  0.1272  0.2204
 2889SOL    HW110267   6.504   1.235   4.087 -0.8177  0.7275 -0.4879
 2889SOL    HW210268   6.400   1.150   4.180  0.3532 -0.0055  0.1640
 2890SOL     OW10269   0.690   0.689   0.309 -0.2598 -0.1900 -0.3016
 2890SOL    HW110270   0.668   0.681   0.406  2.5086 -2.4315  0.2603
 2890SOL    HW210271   0.624   0.636   0.255 -0.4382 -0.8881  0.5812
 2891SOL     OW10272   0.301   0.956   1.495 -0.0809  0.2376 -0.1878
 2891SOL    HW110273   0.394   0.918   1.497  0.1169  0.6232 -1.3048
 2891SOL    HW210274   0.245   0.902   1.432 -0.1537  0.9860 -0.7766
 2892SOL     OW10275   3.639   7.015   4.498  0.2136  0.0015 -0.4360
 2892SOL    HW110276   3.646   7.045   4.593  0.2498  0.5643 -0.6132
 2892SOL    HW210277   3.616   7.094   4.440  1.7303 -0.0357 -1.1111
 2893SOL     OW10278   6.663   3.654   0.297 -0.1434 -0.2794  0.2553
 2893SOL    HW110279   6.613   3.652   0.384 -0.2682  1.2067  0.2457
 2893SOL    HW210280   6.759   3.634   0.313  0.3645  2.4535  1.1914
 2894SOL     OW10281   0.162   0.720   2.386 -0.3046  0.2590 -0.4774
 2894SOL    HW110282   0.103   0.772   2.447  3.6403  2.0501  2.2606
 2894SOL    HW210283   0.157   0.623   2.409 -0.6916  0.6244  1.0958
 2895SOL     OW10284   6.322   4.494   1.137  0.6173  0.1611 -0.3268
 2895SOL    HW110285   6.395   4.459   1.195 -0.2261  0.6616  1.0951
 2895SOL    HW210286   6.299   4.588   1.165 -1.2478 -0.3414 -0.0139
 2896SOL     OW10287   3.151   3.958   1.231  0.1921  0.0368 -0.1558
 2896SOL    HW110288   3.179   3.955   1.327  0.1109 -0.3332 -0.1441
 2896SOL    HW210289   3.159   4.052   1.197 -0.8583  0.3940  0.5277
 2897SOL     OW10290   2.480   6.899   2.994  0.2211  0.1714 -0.0309
 2897SOL    HW110291   2.440   6.810   2.970  1.3628 -0.0923 -1.0242
 2897SOL    HW210292   2.565   6.885   3.044 -0.1270  0.7268  0.7425
 2898SOL     OW10293   5.885   4.284   1.707  0.4406 -0.0927 -0.0886
 2898SOL    HW110294   5.984   4.278   1.698  0.6202  1.1466  0.7128
 2898SOL    HW210295   5.852   4.366   1.661  0.0756  0.6195  1.3758
 2899SOL     OW10296   1.644   3.589   2.136 -0.3966 -0.4225  0.2444
 2899SOL    HW110297   1.555   3.577   2.180 -1.2523  2.7241 -0.4105
 2899SOL    HW210298   1.631   3.623   2.043  1.5096 -1.9262 -0.6446
 2900SOL     OW10299   6.769   3.622   2.218  0.3116  0.7988 -0.4515
 2900SOL    HW110300   6.857   3.605   2.174  0.3786  2.7872 -1.1663
 2900SOL    HW210301   6.726   3.702   2.178 -1.3966  0.4547  0.5638
 2901SOL     OW10302   4.538   0.401   2.654  0.2284 -1.0001 -0.2803
 2901SOL    HW110303   4.613   0.340   2.627  1.3732  0.4913 -0.6037
 2901SOL    HW210304   4.453   0.369   2.612  1.0331 -1.6735 -1.4672
 2902SOL     OW10305   5.800   1.346   0.831  0.4766  0.6002 -1.0589
 2902SOL    HW110306   5.752   1.320   0.747  1.5298  0.0413 -1.5168
 2902SOL    HW210307   5.750   1.420   0.877 -0.5367  0.3696 -1.7565
 2903SOL     OW10308   4.893   2.616   5.153  0.0534  0.0150  0.1463
 2903SOL    HW110309   4.992   2.600   5.160  0.0896 -0.8004 -1.5722
 2903SOL    HW210310   4.876   2.692   5.089 -0.4298 -2.2360 -2.6292
 2904SOL     OW10311   3.365   6.785   1.674  0.1101  1.1181  0.3861
 2904SOL    HW110312   3.449   6.731   1.678 -0.3435  0.2735 -0.9273
 2904SOL    HW210313   3.378   6.862   1.611  0.4227  1.9778  1.4701
 2905SOL     OW10314   4.189   6.951   2.389  0.1550  0.2792  0.4223
 2905SOL    HW110315   4.235   6.892   2.324 -0.3150 -0.7878  1.0249
 2905SOL    HW210316   4.145   6.895   2.460 -0.5363  1.3384  0.8622
 2906SOL     OW10317   0.630   5.546   1.052 -0.0266 -0.0339 -0.5452
 2906SOL    HW110318   0.594   5.632   1.014 -1.2368 -0.0258  0.5559
 2906SOL    HW210319   0.566   5.472   1.034 -0.2608 -0.1747  0.7813
 2907SOL     OW10320   1.642   1.165   6.563  0.2551 -0.1124 -0.5192
 2907SOL    HW110321   1.646   1.248   6.619 -0.2966 -0.7967  0.5680
 2907SOL    HW210322   1.680   1.088   6.614  0.0467 -0.6918 -1.2170
 2908SOL     OW10323   1.407   4.406   0.261  0.3320  1.0400  0.7655
 2908SOL    HW110324   1.500   4.371   0.275  0.1805  0.0193 -0.6115
 2908SOL    HW210325   1.381   4.463   0.339  2.9818  3.2713  0.1808
 2909SOL     OW10326   2.388   5.960   0.845  0.0270 -0.6010  0.4919
 2909SOL    HW110327   2.356   6.019   0.920  0.2958  0.3327 -0.1117
 2909SOL    HW210328   2.476   5.919   0.870  1.6795  2.1057 -0.4387
 2910SOL     OW10329   5.483   0.510   5.122  0.4844  0.2053  0.3958
 2910SOL    HW110330   5.536   0.425   5.126  0.9258  0.3800 -1.1431
 2910SOL    HW210331   5.444   0.529   5.212 -1.8108 -3.0118  0.2866
 2911SOL     OW10332   6.656   3.447   6.410  0.1486  0.8031 -0.2414
 2911SOL    HW110333   6.648   3.512   6.336  0.1962 -0.9691 -1.8839
 2911SOL    HW210334   6.732   3.385   6.393 -0.8860 -0.7128  0.3807
 2912SOL     OW10335   2.982   5.158   1.767 -0.4994  0.1819 -0.1682
 2912SOL    HW110336   2.896   5.113   1.793 -0.2252 -0.1651  0.1578
 2912SOL    HW210337   3.006   5.134   1.673  0.2607 -1.3493  0.3824
 2913SOL     OW10338   5.325   6.295   1.589  1.1408 -0.2450  0.3322
 2913SOL    HW110339   5.313   6.271   1.686 -1.0469  1.7234  0.6228
 2913SOL    HW210340   5.268   6.373   1.566  3.8040  1.2461 -1.8792
 2914SOL     OW10341   2.767   0.760   6.323 -0.2709  0.0346  0.0974
 2914SOL    HW110342   2.864   0.780   6.334 -0.6554  1.7313  0.9270
 2914SOL    HW210343   2.726   0.829   6.263 -0.6118 -1.8621 -1.9546
 2915SOL     OW10344   1.766   3.538   6.583 -0.2728 -0.0052 -0.2932
 2915SOL    HW110345   1.843   3.491   6.627 -0.5772 -0.4889 -0.2687
 2915SOL    HW210346   1.719   3.474   6.522  0.2221  0.6896 -1.4310
 2916SOL     OW10347   1.739   4.205   4.548  0.0276 -1.0143 -0.3105
 2916SOL    HW110348   1.817   4.190   4.608 -1.4291  2.1869  2.7326
 2916SOL    HW210349   1.658   4.159   4.585 -0.6501  0.0418 -0.4362
 2917SOL     OW10350   0.402   4.953   1.568 -0.2281 -0.5062  0.1027
 2917SOL    HW110351   0.420   4.913   1.658 -1.1922  1.0385  1.0386
 2917SOL    HW210352   0.314   4.921   1.534  0.1051 -1.0365 -0.2771
 2918SOL     OW10353   4.101   3.255   0.548 -0.0347  0.2379 -0.5003
 2918SOL    HW110354   4.136   3.302   0.466  0.2593  0.9154  0.0082
 2918SOL    HW210355   4.060   3.322   0.609  1.8092  0.0981  0.9850
 2919SOL     OW10356   2.648   4.780   0.267  0.2512 -0.3503  0.7766
 2919SOL    HW110357   2.718   4.754   0.334  0.2788 -0.1489  0.8277
 2919SOL    HW210358   2.691   4.832   0.193  0.0250  0.5089  1.2353
 2920SOL     OW10359   1.661   1.084   2.087 -0.8408  0.0894  0.4494
 2920SOL    HW110360   1.584   1.085   2.152 -0.8055 -1.1638  0.5202
 2920SOL    HW210361   1.740   1.041   2.130 -1.2597 -2.1833 -0.8914
 2921SOL     OW10362   3.634   3.406   3.765  0.2715 -0.4466 -0.1469
 2921SOL    HW110363   3.589   3.391   3.677  0.5607  0.5079 -0.4696
 2921SOL    HW210364   3.574   3.374   3.838 -0.4680 -0.1936 -0.6275
 2922SOL     OW10365   5.249   4.744   0.024  0.2394  0.2089  0.1476
 2922SOL    HW110366   5.305   4.672  -0.016  0.5416  0.6433 -0.2287
 2922SOL    HW210367   5.282   4.765   0.116 -0.5823 -0.9303  0.7267
 2923SOL     OW10368   5.375   3.358   0.384  0.1501 -0.3708  0.1735
 2923SOL    HW110369   5.380   3.450   0.424 -0.0477 -0.9802  1.6735
 2923SOL    HW210370   5.348   3.293   0.455  1.5601 -1.8010 -0.5530
 2924SOL     OW10371   1.502   3.892   6.910  0.0050  0.1451 -1.1381
 2924SOL    HW110372   1.582   3.947   6.937 -0.2688  2.5193 -4.4414
 2924SOL    HW210373   1.530   3.826   6.840 -0.4268 -1.2178 -0.0602
 2925SOL     OW10374   3.549   1.225   3.325  0.1434 -0.2920  0.6927
 2925SOL    HW110375   3.515   1.227   3.419 -0.3513  0.2789  0.5078
 2925SOL    HW210376   3.529   1.312   3.280  0.6344 -0.4551  0.1477
 2926SOL     OW10377   4.760   3.585   3.916  0.4178 -0.1635  0.4594
 2926SOL    HW110378   4.704   3.502   3.918  0.5750 -0.2671  0.6945
 2926SOL    HW210379   4.701   3.664   3.904  0.5197 -0.5181 -3.4082
 2927SOL     OW10380   2.425   4.426   7.018 -0.1381 -0.5901 -0.2521
 2927SOL    HW110381   2.435   4.524   7.000  0.5210 -0.5625  0.2138
 2927SOL    HW210382   2.329   4.400   7.014 -0.3281  0.1044 -0.2219
 2928SOL     OW10383   4.913   1.489   2.952  0.2381  0.0368  0.1620
 2928SOL    HW110384   4.897   1.558   2.882 -0.8695  0.4066  0.7495
 2928SOL    HW210385   4.959   1.410   2.912 -0.0154  0.4098 -0.8917
 2929SOL     OW10386   3.966   3.220   3.620  0.7683  0.0702  0.4473
 2929SOL    HW110387   3.881   3.224   3.566  1.0089  1.6854  0.1408
 2929SOL    HW210388   4.044   3.220   3.558  1.0682  2.6080  0.7352
 2930SOL     OW10389   2.728   4.327   0.909 -0.2691  0.0803  0.2932
 2930SOL    HW110390   2.768   4.236   0.906 -1.2208 -0.3172 -1.8940
 2930SOL    HW210391   2.638   4.326   0.865 -1.4065  1.5894  2.3566
 2931SOL     OW10392   6.359   6.768   2.578  0.1949 -0.1483  0.5628
 2931SOL    HW110393   6.349   6.670   2.564  0.6657 -0.1294  0.0745
 2931SOL    HW210394   6.374   6.786   2.675 -0.4139 -0.5095  0.7286
 2932SOL     OW10395   3.226   3.223   5.615 -1.2908  0.2247  0.2714
 2932SOL    HW110396   3.271   3.311   5.598  2.1404 -1.4534 -0.0312
 2932SOL    HW210397   3.251   3.190   5.706  0.0275 -1.7833 -0.7536
 2933SOL     OW10398   5.776   0.919   4.247  0.0804  0.3319  0.5227
 2933SOL    HW110399   5.857   0.940   4.301 -0.2661  0.7259  0.9028
 2933SOL    HW210400   5.788   0.832   4.199  0.8831  0.5891  0.2530
 2934SOL     OW10401   0.687   6.450   3.420 -0.1973 -0.1614  0.1877
 2934SOL    HW110402   0.618   6.458   3.493  0.1057  1.7197  0.3226
 2934SOL    HW210403   0.641   6.446   3.331 -0.5355  1.7718  0.2249
 2935SOL     OW10404   1.652   6.746   2.809  0.0887  0.1085 -0.2037
 2935SOL    HW110405   1.645   6.752   2.710 -2.8858  0.8243 -0.0575
 2935SOL    HW210406   1.604   6.665   2.842 -0.0902  0.5687  0.7122
 2936SOL     OW10407   0.973   5.970   2.680 -0.0363 -0.0245 -0.2705
 2936SOL    HW110408   0.875   5.952   2.693  0.0161 -0.7248 -0.8024
 2936SOL    HW210409   1.004   5.930   2.594  0.7011  0.2798 -0.1581
 2937SOL     OW10410   2.528   2.307   1.119 -0.1247 -0.2774  0.2892
 2937SOL    HW110411   2.466   2.255   1.177 -0.4714 -1.4414 -1.0664
 2937SOL    HW210412   2.478   2.382   1.076 -0.2365 -0.3097  0.3625
 2938SOL     OW10413   1.359   3.201   1.699 -0.4561 -0.1765 -0.0622
 2938SOL    HW110414   1.281   3.242   1.746 -1.0283 -0.4709 -0.7342
 2938SOL    HW210415   1.351   3.215   1.601  0.5729  0.1721 -0.1103
 2939SOL     OW10416   2.565   6.868   5.090  0.2257 -0.3775  0.0198
 2939SOL    HW110417   2.577   6.803   5.166  1.4575 -0.1370  0.0512
 2939SOL    HW210418   2.592   6.959   5.120 -1.5013  0.1843 -0.0224
 2940SOL     OW10419   5.484   1.736   2.951  0.4511 -0.1425  0.2531
 2940SOL    HW110420   5.433   1.650   2.963  0.4149  0.0010  1.1182
 2940SOL    HW210421   5.574   1.727   2.993  0.4579  0.2383  0.3167
 2941SOL     OW10422   0.734   4.588   5.440  0.0564  0.1236 -0.4113
 2941SOL    HW110423   0.709   4.491   5.446  1.2058 -0.1442  0.3709
 2941SOL    HW210424   0.708   4.634   5.524 -0.6539  0.5570 -0.8537
 2942SOL     OW10425   2.405   3.034   6.282  0.5006  0.2399  0.4703
 2942SOL    HW110426   2.376   3.127   6.304  1.9890  0.7420  0.4437
 2942SOL    HW210427   2.328   2.982   6.246 -0.4498  1.3358  0.8841
 2943SOL     OW10428   5.915   2.938   5.660 -0.0394 -0.8538 -0.7092
 2943SOL    HW110429   5.823   2.950   5.621 -0.8413 -1.2378  0.9533
 2943SOL    HW210430   5.936   3.015   5.720  0.4924 -1.0520 -0.6332
 2944SOL     OW10431   0.040   2.322   1.235  0.1569  0.3380 -0.5223
 2944SOL    HW110432   0.081   2.287   1.151  0.4465  0.9936 -0.6549
 2944SOL    HW210433   0.066   2.417   1.248 -0.9040  0.6116 -0.3340
 2945SOL     OW10434   5.021   3.221   0.140 -0.5191  0.1921  0.6018
 2945SOL    HW110435   4.930   3.261   0.137 -0.3829  0.4411 -1.0465
 2945SOL    HW210436   5.016   3.131   0.183 -2.0220 -0.9127 -1.7027
 2946SOL     OW10437   4.400   3.298   1.168  0.1585 -0.0754  0.0049
 2946SOL    HW110438   4.455   3.231   1.219 -2.0277 -1.2494  0.9523
 2946SOL    HW210439   4.331   3.337   1.229 -2.4083 -1.3278 -1.9259
 2947SOL     OW10440   2.937   4.980   0.807  0.2304  0.1396 -0.2587
 2947SOL    HW110441   2.905   5.041   0.733 -1.0563 -1.7205 -1.3253
 2947SOL    HW210442   2.982   5.035   0.877  1.2341  2.0509 -2.2435
 2948SOL     OW10443   1.924   1.811   1.349  0.4540 -0.1646  0.2724
 2948SOL    HW110444   1.921   1.859   1.436 -3.3325  0.4299 -0.0423
 2948SOL    HW210445   1.922   1.878   1.274  0.4662 -0.7380 -0.2486
 2949SOL     OW10446   2.829   4.827   5.514  0.4940 -0.4984 -0.1985
 2949SOL    HW110447   2.759   4.802   5.581  0.7049 -0.4329  0.0492
 2949SOL    HW210448   2.799   4.801   5.422  0.2077 -0.5983 -0.0760
 2950SOL     OW10449   0.627   6.974   5.268  0.0576  0.6092 -0.4202
 2950SOL    HW110450   0.606   6.941   5.176  1.2066 -1.9979  0.1333
 2950SOL    HW210451   0.726   6.988   5.277  0.0306  0.2727  0.5555
 2951SOL     OW10452   3.055   5.927   1.712  0.3842  0.1087  0.2859
 2951SOL    HW110453   3.125   5.971   1.768  0.3352  0.6081 -0.0449
 2951SOL    HW210454   3.086   5.835   1.685  0.6071  0.0530  0.7294
 2952SOL     OW10455   4.957   4.905   4.026 -0.7137  0.1643 -0.2087
 2952SOL    HW110456   5.035   4.852   4.061 -0.7668 -0.2201 -0.6651
 2952SOL    HW210457   4.990   4.976   3.965 -0.5682  1.2317  1.0723
 2953SOL     OW10458   6.980   2.235   1.999  0.0636  0.3777 -0.0856
 2953SOL    HW110459   6.995   2.217   1.901  1.2094  0.6569  0.0228
 2953SOL    HW210460   6.882   2.235   2.018 -0.1522 -0.3528 -1.1057
 2954SOL     OW10461   0.895   4.759   2.538 -0.0982  0.6957  0.0945
 2954SOL    HW110462   0.838   4.714   2.469 -0.1188  1.3901 -0.3468
 2954SOL    HW210463   0.837   4.811   2.601 -0.0730  0.1277  0.5960
 2955SOL     OW10464   3.005   1.842   5.034 -0.0910  1.1461  0.0924
 2955SOL    HW110465   2.923   1.890   5.063  0.1417  1.4490  0.2623
 2955SOL    HW210466   2.983   1.748   5.009 -1.1988  2.2035 -3.5074
 2956SOL     OW10467   6.206   5.976   4.369  0.1133 -0.1087 -0.0163
 2956SOL    HW110468   6.250   5.894   4.331  2.2862  0.3370  1.3245
 2956SOL    HW210469   6.212   5.973   4.469 -1.4228  0.8593  0.1327
 2957SOL     OW10470   5.393   1.219   3.148  0.0536 -0.1115 -0.2722
 2957SOL    HW110471   5.297   1.207   3.124  0.1925  1.5322 -1.8327
 2957SOL    HW210472   5.401   1.239   3.246 -1.1448 -0.5056 -0.0743
 2958SOL     OW10473   1.919   6.730   2.882  0.5225  0.4260 -0.3674
 2958SOL    HW110474   1.925   6.704   2.979  1.2365 -3.8672 -1.3703
 2958SOL    HW210475   1.829   6.770   2.864  1.0493  3.2480  2.3241
 2959SOL     OW10476   5.775   2.207   2.132 -0.6530 -0.1907  0.5491
 2959SOL    HW110477   5.746   2.155   2.052  1.8691 -0.4798 -0.2726
 2959SOL    HW210478   5.749   2.158   2.215 -0.3112 -1.6540 -0.1742
 2960SOL     OW10479   2.107   5.305   3.108 -0.3317 -0.1926 -0.0566
 2960SOL    HW110480   2.206   5.316   3.110 -0.1488 -1.1539 -1.6136
 2960SOL    HW210481   2.081   5.230   3.169  0.1277 -1.1506 -1.0090
 2961SOL     OW10482   1.338   2.041   2.724  0.2388 -0.3514 -0.6014
 2961SOL    HW110483   1.422   1.992   2.700  0.5667 -0.2492  0.3012
 2961SOL    HW210484   1.361   2.127   2.769 -0.2855  1.5123 -3.6256
 2962SOL     OW10485   0.349   1.052   1.888  0.4897 -0.0142  0.1425
 2962SOL    HW110486   0.442   1.021   1.870 -0.3274 -1.2339 -2.3824
 2962SOL    HW210487   0.287   0.974   1.887 -0.7294  0.9007  0.8292
 2963SOL     OW10488   3.658   3.376   0.898 -0.4236 -0.1490 -0.1652
 2963SOL    HW110489   3.747   3.333   0.882 -1.0167 -1.6864  0.5013
 2963SOL    HW210490   3.659   3.422   0.987 -0.7573 -1.4972  0.5587
 2964SOL     OW10491   3.737   0.199   6.320 -0.3484 -0.5124  0.1217
 2964SOL    HW110492   3.682   0.203   6.237 -1.2054 -3.9204  0.3866
 2964SOL    HW210493   3.787   0.113   6.323  2.3699  0.9993  1.5732
 2965SOL     OW10494   1.411   3.431   3.561  0.5995  0.4136 -0.0064
 2965SOL    HW110495   1.361   3.382   3.490  1.3644 -0.5958  0.1174
 2965SOL    HW210496   1.482   3.371   3.599  1.6036  1.6353  0.1332
 2966SOL     OW10497   0.201   4.916   3.298 -0.6982  0.4565 -0.2230
 2966SOL    HW110498   0.114   4.964   3.313 -0.5970  0.1030  1.7404
 2966SOL    HW210499   0.219   4.854   3.374  1.1175  0.2550 -0.7583
 2967SOL     OW10500   4.292   6.959   6.708  0.6084  0.2666  0.2940
 2967SOL    HW110501   4.354   6.932   6.782  1.0871 -2.0878 -0.8372
 2967SOL    HW210502   4.256   6.876   6.664  2.4687  1.3947 -3.8232
 2968SOL     OW10503   3.783   4.437   0.745  0.0719  0.4511 -0.2238
 2968SOL    HW110504   3.767   4.535   0.734 -1.3858  0.5948  2.4164
 2968SOL    HW210505   3.725   4.387   0.680 -1.8988  1.3122  0.7640
 2969SOL     OW10506   4.215   4.903   3.390 -0.4559 -0.5243  0.1365
 2969SOL    HW110507   4.263   4.906   3.479 -1.1941 -1.2494  0.5686
 2969SOL    HW210508   4.275   4.861   3.322  0.3169  0.5130  0.1509
 2970SOL     OW10509   3.221   4.911   0.556  0.3226  0.6078  0.0114
 2970SOL    HW110510   3.249   4.913   0.460 -2.9198 -0.1449 -1.0959
 2970SOL    HW210511   3.187   5.002   0.582 -1.7565  0.0920 -0.6651
 2971SOL     OW10512   1.610   5.572   1.738 -0.3057  0.1936 -0.7576
 2971SOL    HW110513   1.670   5.643   1.775 -0.9521 -0.2008  1.1850
 2971SOL    HW210514   1.606   5.495   1.802 -0.9075 -0.8964 -2.0447
 2972SOL     OW10515   6.566   3.755   5.096  0.1204  0.2179 -0.3584
 2972SOL    HW110516   6.581   3.796   5.186 -1.9021 -0.6690  0.4186
 2972SOL    HW210517   6.477   3.782   5.061 -0.4425 -1.9142 -0.6985
 2973SOL     OW10518   2.375   1.769   6.867 -0.0042  0.4616  0.2772
 2973SOL    HW110519   2.401   1.813   6.781 -0.6259  1.5929  0.6375
 2973SOL    HW210520   2.448   1.708   6.897  0.3492  0.2865 -0.8948
 2974SOL     OW10521   6.947   2.638   6.227 -0.6844  0.0117 -0.5599
 2974SOL    HW110522   6.919   2.701   6.154 -0.8525  0.7467  0.1351
 2974SOL    HW210523   6.993   2.559   6.186  0.7390  1.2144 -1.3623
 2975SOL     OW10524   3.785   6.713   3.895  0.1566 -0.0175 -0.0766
 2975SOL    HW110525   3.832   6.650   3.957  0.4114  1.4859  1.3580
 2975SOL    HW210526   3.853   6.774   3.852 -0.3128  1.5630  1.2984
 2976SOL     OW10527   6.562   5.817   3.357  0.7652 -0.2518 -0.1493
 2976SOL    HW110528   6.480   5.773   3.394  1.1505 -1.0582 -0.2423
 2976SOL    HW210529   6.583   5.778   3.268  1.5997 -0.4791  0.1421
 2977SOL     OW10530   5.186   3.837   1.623 -0.4752 -0.0871 -0.2187
 2977SOL    HW110531   5.229   3.752   1.653  0.7500  1.0927  1.5306
 2977SOL    HW210532   5.255   3.896   1.581 -1.2728  0.1503 -1.2262
 2978SOL     OW10533   0.990   2.675   4.710 -0.1861 -0.1834  0.3308
 2978SOL    HW110534   0.898   2.713   4.705  0.5443  1.9540  1.7301
 2978SOL    HW210535   0.994   2.608   4.784 -1.3242 -2.8082 -1.7693
 2979SOL     OW10536   0.579   0.206   2.848 -0.5018  0.1026 -0.3221
 2979SOL    HW110537   0.597   0.119   2.894  1.2917  0.1825 -0.8082
 2979SOL    HW210538   0.481   0.219   2.839 -0.8558 -1.0010  1.3977
 2980SOL     OW10539   0.588   2.852   3.239  0.1843 -0.3016  0.7123
 2980SOL    HW110540   0.610   2.815   3.149 -0.9357  1.8945 -0.5417
 2980SOL    HW210541   0.542   2.940   3.229 -0.3295 -0.1630  3.4455
 2981SOL     OW10542   0.204   3.072   3.001 -0.8015 -0.4254 -0.1087
 2981SOL    HW110543   0.177   3.148   2.942 -1.0570  0.2967  0.9268
 2981SOL    HW210544   0.133   3.056   3.069  0.6869  0.5736  1.7647
 2982SOL     OW10545   4.457   5.206   2.874  0.8844 -0.7592  0.0351
 2982SOL    HW110546   4.389   5.266   2.914 -1.1174 -0.5152 -3.3153
 2982SOL    HW210547   4.435   5.111   2.897 -0.5785 -0.6738 -0.8699
 2983SOL     OW10548   2.433   6.946   0.157 -0.8498  0.6128  0.1764
 2983SOL    HW110549   2.443   6.852   0.187  1.3437  0.5643 -0.5138
 2983SOL    HW210550   2.475   7.007   0.224  3.0451  0.5816 -1.9414
 2984SOL     OW10551   3.809   2.403   5.526  0.0983  0.0908  1.4375
 2984SOL    HW110552   3.834   2.312   5.493  1.2732  0.6935  0.5749
 2984SOL    HW210553   3.826   2.409   5.625 -1.3808 -1.0520  1.7965
 2985SOL     OW10554   1.507   4.186   4.734  0.2750 -0.1139  0.2973
 2985SOL    HW110555   1.523   4.111   4.798 -0.2009 -0.7920 -0.3621
 2985SOL    HW210556   1.558   4.266   4.764 -0.4657 -0.1928  1.9031
 2986SOL     OW10557   0.681   3.487   3.904  0.1431  0.4971  0.2836
 2986SOL    HW110558   0.776   3.476   3.876 -0.2688 -0.1511 -0.9556
 2986SOL    HW210559   0.623   3.490   3.823 -0.8934  0.9657  1.0176
 2987SOL     OW10560   0.482   6.658   2.146 -0.2117  0.4921 -0.5573
 2987SOL    HW110561   0.394   6.694   2.174 -1.5464 -1.3361 -2.0992
 2987SOL    HW210562   0.550   6.677   2.216 -2.9447 -2.5400  3.3356
 2988SOL     OW10563   5.631   4.070   1.984 -0.6690 -0.4983  0.2772
 2988SOL    HW110564   5.664   4.164   1.977 -0.7347 -0.4916  0.0443
 2988SOL    HW210565   5.707   4.006   1.976 -0.4447 -0.4428  1.6806
 2989SOL     OW10566   5.301   5.773   4.596  0.0602 -0.1366 -0.4212
 2989SOL    HW110567   5.271   5.684   4.563 -0.1032 -0.7331  1.2185
 2989SOL    HW210568   5.385   5.763   4.649 -0.3331  0.5560  0.3791
 2990SOL     OW10569   6.837   2.940   2.736  0.3329 -0.2167  0.3211
 2990SOL    HW110570   6.914   2.901   2.685 -0.2426 -0.3286 -0.4697
 2990SOL    HW210571   6.753   2.929   2.684 -0.0736  0.7795  0.7521
 2991SOL     OW10572   0.094   4.667   5.664  0.2704  0.6118 -0.1762
 2991SOL    HW110573   0.101   4.683   5.565  1.3576  0.2109 -0.1809
 2991SOL    HW210574   0.014   4.716   5.700 -1.1200 -0.5476 -1.5237
 2992SOL     OW10575   1.745   6.238   2.318  0.3345 -0.1425  0.5778
 2992SOL    HW110576   1.788   6.329   2.318  2.8263 -1.2282  0.4081
 2992SOL    HW210577   1.788   6.181   2.388  0.1763 -1.7621 -0.5828
 2993SOL     OW10578   5.522   1.968   0.695 -0.4727 -0.0002 -0.7134
 2993SOL    HW110579   5.458   1.937   0.625  0.3566 -0.3520 -1.3404
 2993SOL    HW210580   5.602   1.908   0.695  0.0975  0.7468 -0.3113
 2994SOL     OW10581   5.857   6.392   1.649  0.1468  0.4220  0.3620
 2994SOL    HW110582   5.793   6.315   1.658  1.7211 -0.8684  1.0015
 2994SOL    HW210583   5.913   6.398   1.732  0.4128  1.9474  0.0968
 2995SOL     OW10584   2.368   4.364   5.524 -0.0273  0.2933  0.2565
 2995SOL    HW110585   2.460   4.403   5.513  0.1252 -0.3639 -0.9797
 2995SOL    HW210586   2.361   4.280   5.470 -1.5955  0.7183 -0.2560
 2996SOL     OW10587   6.618   6.987   4.160 -0.7232 -0.8032  0.4573
 2996SOL    HW110588   6.611   7.082   4.130 -0.1591 -0.8986  0.0149
 2996SOL    HW210589   6.605   6.982   4.259 -0.3520 -0.2251  0.5371
 2997SOL     OW10590   5.230   3.426   5.376 -0.0679 -0.3087  0.1435
 2997SOL    HW110591   5.258   3.472   5.460 -0.7864 -2.0234  1.3598
 2997SOL    HW210592   5.249   3.486   5.298  4.5287 -0.2707  1.0154
 2998SOL     OW10593   5.641   1.064   2.132  0.4401 -0.1742 -0.4816
 2998SOL    HW110594   5.553   1.070   2.084  0.3867  0.0635 -0.3540
 2998SOL    HW210595   5.629   1.091   2.228  0.4944 -0.8900 -0.2671
 2999SOL     OW10596   1.391   4.327   0.873  0.0038 -0.1282  0.0410
 2999SOL    HW110597   1.405   4.299   0.968 -0.6081  0.5551  0.3420
 2999SOL    HW210598   1.334   4.259   0.827 -1.4598  0.5589  0.7642
 3000SOL     OW10599   2.394   5.805   0.328 -0.2084  0.0878  0.0561
 3000SOL    HW110600   2.329   5.815   0.404 -1.0302 -0.7264 -0.5075
 3000SOL    HW210601   2.344   5.811   0.242  0.8127  1.7638 -0.4704
 3001SOL     OW10602   6.483   5.277   3.224  0.3392 -0.0018  0.3014
 3001SOL    HW110603   6.497   5.352   3.289 -0.4221  0.0356  0.4308
 3001SOL    HW210604   6.385   5.261   3.213  0.4925 -1.9043  1.3535
 3002SOL     OW10605   6.016   1.191   0.198  0.0863 -0.3161 -0.2838
 3002SOL    HW110606   6.093   1.148   0.244 -1.8446 -1.9056  1.6949
 3002SOL    HW210607   5.987   1.272   0.250  0.6204  0.5332 -1.2578
 3003SOL     OW10608   6.584   4.939   1.815  0.0994 -0.2463  0.0856
 3003SOL    HW110609   6.666   4.949   1.871 -0.1239  2.2509  0.0872
 3003SOL    HW210610   6.505   4.922   1.875 -0.0148  1.6296  0.5267
 3004SOL     OW10611   1.952   0.107   1.613  0.3360  0.3746  0.6744
 3004SOL    HW110612   1.898   0.171   1.558  0.0834 -0.9428 -0.6554
 3004SOL    HW210613   1.925   0.115   1.709 -1.5840  0.3952  0.1688
 3005SOL     OW10614   5.320   5.804   5.252  0.2703 -0.1120 -0.3928
 3005SOL    HW110615   5.335   5.828   5.156 -0.5087 -0.5189 -0.6262
 3005SOL    HW210616   5.352   5.711   5.268 -2.3765 -1.2434 -1.0561
 3006SOL     OW10617   3.844   6.329   0.650 -0.0020  0.2434 -0.0403
 3006SOL    HW110618   3.816   6.341   0.745 -1.7390 -0.3321 -0.4425
 3006SOL    HW210619   3.763   6.322   0.592  1.0019 -0.7667 -1.3869
 3007SOL     OW10620   0.867   2.243   1.566 -0.4046  0.3943 -0.9197
 3007SOL    HW110621   0.963   2.226   1.590  0.4568  2.7379 -2.3069
 3007SOL    HW210622   0.815   2.265   1.648 -0.0115 -1.7241 -0.0338
 3008SOL     OW10623   5.274   1.927   4.196 -0.1696 -0.5866 -0.2545
 3008SOL    HW110624   5.243   1.881   4.279 -2.3007  2.0378  0.5406
 3008SOL    HW210625   5.202   1.988   4.162  1.6306  0.4451 -2.5272
 3009SOL     OW10626   3.785   6.944   2.579 -0.0270 -0.1962 -0.1245
 3009SOL    HW110627   3.884   6.938   2.589 -0.0722 -0.9147 -0.0585
 3009SOL    HW210628   3.741   6.906   2.661 -0.3643 -0.7950 -0.5776
 3010SOL     OW10629   0.479   6.013   0.209  0.0626  0.0572 -0.0003
 3010SOL    HW110630   0.385   5.987   0.186 -0.5543  2.1524 -0.0079
 3010SOL    HW210631   0.529   6.036   0.125  0.3037 -0.1592  0.0822
 3011SOL     OW10632   2.311   0.447   6.153 -0.1933  0.2033 -0.3831
 3011SOL    HW110633   2.329   0.465   6.250  1.9557 -0.0296 -0.6977
 3011SOL    HW210634   2.315   0.533   6.102  0.8702  0.0414 -0.5749
 3012SOL     OW10635   2.795   3.106   1.938 -0.1646  0.5100  0.1141
 3012SOL    HW110636   2.782   3.114   2.037  0.6071  0.5538  0.2241
 3012SOL    HW210637   2.883   3.148   1.913  1.5239 -2.8475 -0.0510
 3013SOL     OW10638   1.064   3.387   4.099 -0.3051  0.6841  0.2551
 3013SOL    HW110639   1.018   3.325   4.162  2.7483 -2.7355 -0.5850
 3013SOL    HW210640   1.139   3.433   4.146  0.7595 -0.3797 -0.3704
 3014SOL     OW10641   3.539   5.213   5.654  0.3271 -0.2639 -0.0303
 3014SOL    HW110642   3.611   5.220   5.723 -1.3557  0.1192  1.7938
 3014SOL    HW210643   3.576   5.237   5.565  1.9507  2.0586  1.1641
 3015SOL     OW10644   5.449   4.654   2.455  0.2464 -0.4898 -0.0562
 3015SOL    HW110645   5.525   4.658   2.389 -0.3782  2.6496 -0.7443
 3015SOL    HW210646   5.413   4.561   2.458  2.7858 -1.6102 -1.2237
 3016SOL     OW10647   6.437   4.484   5.644  0.4668 -0.5219 -0.4505
 3016SOL    HW110648   6.340   4.504   5.629  0.6154 -0.5962 -1.6106
 3016SOL    HW210649   6.450   4.449   5.737 -0.7015 -0.9872 -0.4447
 3017SOL     OW10650   5.431   5.327   3.448 -0.0771  0.0140 -0.9220
 3017SOL    HW110651   5.478   5.413   3.468  2.9324 -1.4453 -1.2503
 3017SOL    HW210652   5.390   5.332   3.357  1.0088  0.7424 -1.3855
 3018SOL     OW10653   6.128   6.662   3.447 -0.8609 -0.2496 -0.0232
 3018SOL    HW110654   6.106   6.564   3.445 -0.6284 -0.3867  1.9258
 3018SOL    HW210655   6.225   6.674   3.425 -1.0016 -0.4010 -0.7479
 3019SOL     OW10656   3.336   5.105   0.065 -0.0868 -0.1533  0.5756
 3019SOL    HW110657   3.327   5.204   0.075  1.1163 -0.1453  1.8679
 3019SOL    HW210658   3.259   5.060   0.109 -1.4532  0.2093 -1.3347
 3020SOL     OW10659   2.734   1.352   3.669 -0.3323 -0.4309 -0.0093
 3020SOL    HW110660   2.746   1.283   3.740 -1.4004  0.0958  0.7211
 3020SOL    HW210661   2.719   1.308   3.580 -0.1281 -1.1201  0.2979
 3021SOL     OW10662   2.055   3.404   5.842 -0.4999  0.2371 -0.0288
 3021SOL    HW110663   2.109   3.326   5.874  0.6994  1.5193  1.2292
 3021SOL    HW210664   2.052   3.474   5.913  0.2251  2.2161 -1.8208
 3022SOL     OW10665   0.612   1.630   4.972  0.7112 -0.0928  0.2449
 3022SOL    HW110666   0.680   1.663   4.907  2.0652  0.1224  1.6985
 3022SOL    HW210667   0.649   1.550   5.021 -0.9972 -1.3973 -0.4997
 3023SOL     OW10668   1.353   3.207   1.426 -0.2499  0.3820  0.4016
 3023SOL    HW110669   1.261   3.211   1.386  0.5947 -1.0134 -1.8900
 3023SOL    HW210670   1.392   3.117   1.409  2.5935  1.7970 -1.1757
 3024SOL     OW10671   5.379   2.960   3.629  0.1331 -0.3491  0.0947
 3024SOL    HW110672   5.399   3.032   3.695  0.3726 -0.5071  0.1980
 3024SOL    HW210673   5.457   2.897   3.625 -0.8546 -1.7305  1.4829
 3025SOL     OW10674   3.861   6.607   1.061 -0.3700  0.1743  0.0950
 3025SOL    HW110675   3.784   6.671   1.060  0.7159  1.6009 -2.2377
 3025SOL    HW210676   3.943   6.654   1.028  0.8135 -2.0810 -0.3620
 3026SOL     OW10677   4.932   6.015   0.561  0.2852 -0.5423 -0.6042
 3026SOL    HW110678   4.967   6.076   0.632  0.2384 -0.5822 -0.5466
 3026SOL    HW210679   4.851   5.967   0.596  0.1987 -0.4813 -0.7206
 3027SOL     OW10680   0.503   1.266   3.348 -0.3737 -0.0319  0.4807
 3027SOL    HW110681   0.480   1.179   3.303  1.1486 -0.7721  1.0524
 3027SOL    HW210682   0.446   1.339   3.310 -1.5557 -1.2349 -0.1539
 3028SOL     OW10683   1.301   0.104   4.757 -0.3651  0.1225  0.4000
 3028SOL    HW110684   1.340   0.052   4.681  0.3540  1.3189 -0.0764
 3028SOL    HW210685   1.360   0.182   4.777 -2.9284  2.6053 -0.9783
 3029SOL     OW10686   2.436   1.475   5.235  0.2012 -0.2139 -0.5218
 3029SOL    HW110687   2.454   1.477   5.334 -0.8753 -0.2705 -0.3191
 3029SOL    HW210688   2.492   1.404   5.193 -0.2594 -1.0541  0.2456
 3030SOL     OW10689   2.934   5.421   4.982  0.4260 -0.2243 -0.1567
 3030SOL    HW110690   2.849   5.449   5.027 -0.1073 -2.0477  0.0898
 3030SOL    HW210691   3.007   5.413   5.050  0.5404  0.4050 -0.2056
 3031SOL     OW10692   6.781   3.165   4.348  0.1519  0.0451  0.0750
 3031SOL    HW110693   6.870   3.131   4.316 -0.7479 -1.0803 -1.3770
 3031SOL    HW210694   6.741   3.225   4.278 -0.7521 -0.4344  0.1608
 3032SOL     OW10695   4.598   6.990   2.628 -0.0758 -0.3512  0.4460
 3032SOL    HW110696   4.683   6.963   2.582 -0.6768 -0.2239 -0.7690
 3032SOL    HW210697   4.550   7.058   2.572  0.7814  2.4032  2.8298
 3033SOL     OW10698   0.446   0.452   3.939 -0.2138  0.0814 -0.6519
 3033SOL    HW110699   0.471   0.385   3.869 -0.0765 -0.2683 -0.2653
 3033SOL    HW210700   0.499   0.536   3.925  1.1655 -0.6323  0.1382
 3034SOL     OW10701   3.129   5.263   5.756  0.1497 -0.6509  0.4075
 3034SOL    HW110702   3.034   5.232   5.764  0.6308 -2.3998 -0.4115
 3034SOL    HW210703   3.177   5.245   5.842 -0.0998 -0.2315  0.6431
 3035SOL     OW10704   0.667   1.149   1.500 -0.2081 -0.6511 -0.0838
 3035SOL    HW110705   0.653   1.235   1.550 -0.2046 -0.3925 -0.5284
 3035SOL    HW210706   0.636   1.160   1.406 -0.5005 -1.2381 -0.0565
 3036SOL     OW10707   5.739   1.877   1.064  0.3129 -0.4251  0.2736
 3036SOL    HW110708   5.753   1.903   1.160  0.2765 -1.6276  0.6167
 3036SOL    HW210709   5.644   1.850   1.051  0.4602 -0.8234  0.0332
 3037SOL     OW10710   3.686   5.355   1.472  0.0106 -0.3752 -0.4459
 3037SOL    HW110711   3.729   5.295   1.405 -0.0602  0.9096 -1.6819
 3037SOL    HW210712   3.595   5.321   1.494 -0.0244 -0.7303 -1.1265
 3038SOL     OW10713   5.355   0.119   5.908 -0.0889 -0.7130 -0.4618
 3038SOL    HW110714   5.386   0.027   5.930  2.7092 -0.1061 -1.4260
 3038SOL    HW210715   5.305   0.157   5.986  0.5443 -2.2605  0.7494
 3039SOL     OW10716   6.956   0.602   6.937 -0.2800 -0.5908  0.2470
 3039SOL    HW110717   6.872   0.589   6.991  0.1693  0.1811  1.1672
 3039SOL    HW210718   7.014   0.521   6.945 -0.6188 -0.8409  0.1864
 3040SOL     OW10719   3.121   3.876   6.770  0.4171  0.0768 -0.7293
 3040SOL    HW110720   3.182   3.801   6.797 -1.7967 -0.9974  1.6904
 3040SOL    HW210721   3.162   3.963   6.795  1.2397 -0.5765  0.2696
 3041SOL     OW10722   3.317   1.347   4.109 -0.2162  0.3240 -0.6543
 3041SOL    HW110723   3.265   1.265   4.134 -0.2383  0.9021  1.4021
 3041SOL    HW210724   3.273   1.393   4.032 -0.9966 -0.8291 -0.9126
 3042SOL     OW10725   5.989   3.473   0.472 -0.3289 -0.6813 -0.3638
 3042SOL    HW110726   6.063   3.501   0.533 -0.8436  2.2695 -0.9669
 3042SOL    HW210727   5.985   3.373   0.469  0.0453 -1.0126  3.9709
 3043SOL     OW10728   0.449   6.410   6.712 -0.1063 -0.1190 -0.1503
 3043SOL    HW110729   0.430   6.459   6.798  1.3429  1.2107 -0.5484
 3043SOL    HW210730   0.495   6.324   6.733  0.8128  0.4896  0.3896
 3044SOL     OW10731   1.561   5.053   1.916 -0.3855  0.1835 -0.1579
 3044SOL    HW110732   1.540   5.006   2.001 -0.9609 -2.8504 -1.8303
 3044SOL    HW210733   1.652   5.026   1.884 -0.8581 -0.1446 -1.3140
 3045SOL     OW10734   6.434   4.020   4.794  0.3870 -0.0973  0.0933
 3045SOL    HW110735   6.375   3.951   4.836 -0.2729  0.1192 -0.4556
 3045SOL    HW210736   6.382   4.071   4.727  0.9741  0.6904  0.2246
 3046SOL     OW10737   3.364   2.582   5.572  0.0123  0.1409 -0.6249
 3046SOL    HW110738   3.456   2.608   5.542 -0.0731 -1.7784 -2.7598
 3046SOL    HW210739   3.363   2.575   5.672  2.5306 -0.9937 -0.6059
 3047SOL     OW10740   0.935   4.974   1.120 -0.0797  0.2619  0.0014
 3047SOL    HW110741   0.998   5.017   1.055 -0.3521  1.5338  0.5384
 3047SOL    HW210742   0.889   5.046   1.173 -0.4931 -0.7243  1.0022
 3048SOL     OW10743   6.934   0.094   2.902  0.2114  0.1416  0.1759
 3048SOL    HW110744   6.922   0.111   2.804 -3.0446  1.2240  0.6426
 3048SOL    HW210745   6.956   0.181   2.948  1.3007 -0.2839  0.4780
 3049SOL     OW10746   3.428   4.978   2.974 -0.3310  0.1230 -0.5102
 3049SOL    HW110747   3.520   4.941   2.983 -0.6465 -0.5573  0.0224
 3049SOL    HW210748   3.400   4.975   2.878 -0.3487 -1.0633 -0.4869
 3050SOL     OW10749   0.653   3.702   0.623  0.1841  0.5377  0.2215
 3050SOL    HW110750   0.625   3.792   0.655  0.2824  0.7492 -0.2719
 3050SOL    HW210751   0.615   3.686   0.531  0.0374  0.0153  0.3678
 3051SOL     OW10752   2.000   5.857   2.468 -0.1033 -0.1560  0.1394
 3051SOL    HW110753   1.914   5.836   2.514 -0.0246 -0.7893  0.0057
 3051SOL    HW210754   1.982   5.877   2.372 -0.1882  0.4953  0.2852
 3052SOL     OW10755   4.294   5.675   2.857 -0.3834 -0.5020 -0.3524
 3052SOL    HW110756   4.234   5.753   2.841  0.2649  0.1703  0.4534
 3052SOL    HW210757   4.262   5.624   2.937  0.4662  0.2314  0.4782
 3053SOL     OW10758   4.892   3.205   4.896 -0.2589 -0.4901  0.1588
 3053SOL    HW110759   4.919   3.201   4.800 -0.3586  0.3985  0.0831
 3053SOL    HW210760   4.959   3.258   4.948 -0.1600 -1.0381  0.6050
 3054SOL     OW10761   1.694   5.218   0.254  0.3778 -0.2023  0.1793
 3054SOL    HW110762   1.777   5.239   0.202  0.1818  0.9017  0.2913
 3054SOL    HW210763   1.702   5.258   0.345 -0.5148  0.4386 -0.0090
 3055SOL     OW10764   5.683   6.175   1.623  0.0660 -0.2583 -0.0917
 3055SOL    HW110765   5.588   6.206   1.615 -0.3424 -0.9979  1.4689
 3055SOL    HW210766   5.702   6.108   1.551  0.0290  1.2819 -1.5953
 3056SOL     OW10767   4.765   4.040   2.013 -0.4508 -0.1185 -0.2110
 3056SOL    HW110768   4.781   4.132   2.050 -1.1722 -0.6503  1.5535
 3056SOL    HW210769   4.823   3.974   2.062  2.1803 -0.3635 -3.3216
 3057SOL     OW10770   5.851   6.047   6.552  0.5529  0.1546  0.0854
 3057SOL    HW110771   5.794   6.010   6.479  0.7551 -1.0232  0.5065
 3057SOL    HW210772   5.871   6.144   6.533 -0.8526  0.3501 -0.4938
 3058SOL     OW10773   3.484   6.224   2.897 -0.1263  0.6058 -0.3886
 3058SOL    HW110774   3.445   6.146   2.849 -0.5942  0.3226  0.4404
 3058SOL    HW210775   3.470   6.214   2.996 -0.2577  1.7720 -0.2705
 3059SOL     OW10776   2.241   3.639   4.906  0.7232 -0.3332  0.4091
 3059SOL    HW110777   2.219   3.683   4.994  0.4543  1.8021 -0.6603
 3059SOL    HW210778   2.157   3.603   4.865  0.5815  0.1111  0.3012
 3060SOL     OW10779   5.886   4.586   0.845  0.9582  0.2850  0.1766
 3060SOL    HW110780   5.958   4.629   0.899 -0.1776 -0.0778  2.0426
 3060SOL    HW210781   5.843   4.655   0.787 -0.1347  1.5081  2.3435
 3061SOL     OW10782   4.237   0.967   2.140  0.3760  0.4712  0.0996
 3061SOL    HW110783   4.148   0.979   2.096  1.2150  0.8685 -1.5666
 3061SOL    HW210784   4.232   1.001   2.234 -1.0158  1.1725 -0.1941
 3062SOL     OW10785   1.902   6.528   6.500 -0.8077 -0.2698 -0.6250
 3062SOL    HW110786   1.807   6.499   6.486 -1.6191  1.5078  0.8407
 3062SOL    HW210787   1.921   6.610   6.447 -0.6800  0.4286  0.4662
 3063SOL     OW10788   2.729   4.091   0.292  0.1045 -0.5738  0.0286
 3063SOL    HW110789   2.737   4.079   0.193  1.5747  0.4410 -0.0036
 3063SOL    HW210790   2.695   4.183   0.312  0.0628 -0.6842  0.4712
 3064SOL     OW10791   6.897   4.037   4.572  0.1610  0.1177  0.0413
 3064SOL    HW110792   6.807   3.996   4.579 -0.4333  1.5071  1.1254
 3064SOL    HW210793   6.888   4.137   4.568  1.6723  0.6019  3.9335
 3065SOL     OW10794   1.828   1.836   1.945 -0.8856  0.0826 -0.0763
 3065SOL    HW110795   1.890   1.888   2.003 -0.8892  0.7289 -0.6375
 3065SOL    HW210796   1.745   1.890   1.928 -0.0979  0.7235 -2.2026
 3066SOL     OW10797   1.884   5.961   2.778  0.1550 -0.5016  0.3482
 3066SOL    HW110798   1.913   5.902   2.853  0.9440  0.7611  1.0668
 3066SOL    HW210799   1.845   5.905   2.705 -1.4540 -1.7075  2.0262
 3067SOL     OW10800   0.436   6.927   1.057  0.5636  0.0215 -0.8180
 3067SOL    HW110801   0.467   6.853   1.116 -2.0258 -0.1206  0.4985
 3067SOL    HW210802   0.436   7.013   1.108  1.6426  0.6078 -1.7420
 3068SOL     OW10803   5.042   4.900   6.944  0.6475 -0.0820  0.1619
 3068SOL    HW110804   5.015   4.974   7.006 -2.5492 -0.6833 -0.2924
 3068SOL    HW210805   5.127   4.858   6.975 -0.0325  0.6121  3.2712
 3069SOL     OW10806   4.743   1.421   0.247 -0.0401  0.0320 -0.4268
 3069SOL    HW110807   4.747   1.396   0.150  2.4849 -1.7427  0.0195
 3069SOL    HW210808   4.670   1.369   0.292  1.1639 -2.0196 -0.7240
 3070SOL     OW10809   3.960   0.120   2.292 -0.2401 -0.5759 -0.4800
 3070SOL    HW110810   3.940   0.073   2.206 -1.4562 -1.0948  0.0590
 3070SOL    HW210811   4.030   0.069   2.342  1.9791  0.7858 -1.9974
 3071SOL     OW10812   2.050   5.547   5.105  0.0804  0.8039 -0.6275
 3071SOL    HW110813   2.039   5.643   5.078 -0.9591  0.6761 -0.7106
 3071SOL    HW210814   1.997   5.489   5.043 -1.6322  0.4218  1.1043
 3072SOL     OW10815   6.072   5.663   3.669  0.0672 -0.0505  0.3155
 3072SOL    HW110816   5.984   5.710   3.674 -0.8269 -1.4745 -0.9181
 3072SOL    HW210817   6.090   5.636   3.575 -0.1242 -3.2430  1.0707
 3073SOL     OW10818   3.802   1.733   1.746  0.3756 -0.5917 -0.1517
 3073SOL    HW110819   3.788   1.780   1.834  1.5689 -0.7495  0.1392
 3073SOL    HW210820   3.832   1.640   1.763  2.1785 -0.1435 -0.6952
 3074SOL     OW10821   3.923   6.989   7.026 -0.8651  0.5368  0.1685
 3074SOL    HW110822   3.979   6.947   7.098 -0.1467 -1.0408 -1.2405
 3074SOL    HW210823   3.831   6.951   7.030 -0.5340 -0.3590 -0.3773
 3075SOL     OW10824   1.706   3.236   4.821 -0.6662 -0.2639 -0.0726
 3075SOL    HW110825   1.670   3.227   4.729 -1.1959  2.8836 -0.2944
 3075SOL    HW210826   1.634   3.217   4.888 -0.0377 -3.5229 -0.1474
 3076SOL     OW10827   6.929   4.502   4.271 -0.3241  0.6107  0.3238
 3076SOL    HW110828   6.971   4.425   4.320  0.1863  0.9882  0.4906
 3076SOL    HW210829   6.846   4.531   4.320  0.8643  1.8207  1.7523
 3077SOL     OW10830   3.498   5.791   6.109 -0.1204 -0.7092  0.0329
 3077SOL    HW110831   3.528   5.696   6.099  0.6139 -0.5533  0.6736
 3077SOL    HW210832   3.530   5.827   6.196 -1.2158 -0.1668  0.2346
 3078SOL     OW10833   6.142   6.254   3.761  0.7748  0.0205 -0.1239
 3078SOL    HW110834   6.143   6.157   3.783  0.5560  0.0037 -0.1904
 3078SOL    HW210835   6.160   6.267   3.663 -0.3712 -0.0172 -0.3469
 3079SOL     OW10836   6.835   3.019   5.614  0.0856  0.7922  0.0545
 3079SOL    HW110837   6.797   3.109   5.636 -1.8899 -0.2066  0.9090
 3079SOL    HW210838   6.765   2.962   5.572  1.2177 -0.4998 -0.1565
 3080SOL     OW10839   6.090   4.543   0.184 -0.0450  0.0761  0.0746
 3080SOL    HW110840   6.153   4.616   0.211  1.5430 -0.9913 -0.5689
 3080SOL    HW210841   6.075   4.482   0.262 -1.6234  1.2064  0.7063
 3081SOL     OW10842   0.967   2.138   6.899 -0.2100  0.1845  0.0538
 3081SOL    HW110843   0.930   2.231   6.899  0.7653  0.5777 -0.3693
 3081SOL    HW210844   1.052   2.136   6.951 -1.0628 -0.8397  1.5221
 3082SOL     OW10845   2.755   3.245   5.267  0.2032  0.1069 -0.0214
 3082SOL    HW110846   2.663   3.278   5.247  0.8771  1.2452 -1.3864
 3082SOL    HW210847   2.783   3.178   5.197 -0.0211 -1.1817  1.0730
 3083SOL     OW10848   1.555   5.178   6.187  0.0911 -0.3339  0.4828
 3083SOL    HW110849   1.519   5.087   6.169 -0.7218 -0.0200  0.5082
 3083SOL    HW210850   1.508   5.245   6.129  1.4169 -0.0610 -0.3136
 3084SOL     OW10851   6.853   6.322   6.944  0.0931 -0.3487  0.1955
 3084SOL    HW110852   6.756   6.300   6.955 -0.1240  0.5656  0.2591
 3084SOL    HW210853   6.880   6.304   6.849 -0.3898  0.2543 -0.0674
 3085SOL     OW10854   1.935   2.340   5.703  0.3085  0.0372 -0.0289
 3085SOL    HW110855   1.925   2.245   5.734  0.3982  0.3935  1.1356
 3085SOL    HW210856   1.892   2.350   5.613 -0.0318 -1.0148 -0.0031
 3086SOL     OW10857   3.717   3.872   4.908  0.0998  0.1291 -0.1258
 3086SOL    HW110858   3.748   3.885   5.002 -0.5121 -0.2886  0.1388
 3086SOL    HW210859   3.734   3.777   4.881  3.3389  0.9829 -1.5936
 3087SOL     OW10860   5.575   5.664   4.694  0.0382 -0.1357  0.6979
 3087SOL    HW110861   5.659   5.614   4.715  0.6373 -0.8560 -2.7942
 3087SOL    HW210862   5.515   5.607   4.639 -1.0226  1.6272 -0.0848
 3088SOL     OW10863   3.578   6.128   5.161 -0.4268  0.3751  0.3041
 3088SOL    HW110864   3.515   6.169   5.228  0.4930 -0.7474  1.9309
 3088SOL    HW210865   3.565   6.029   5.159  1.2615  0.1098  0.6855
 3089SOL     OW10866   4.909   3.004   5.391  0.2209 -0.2287 -0.2304
 3089SOL    HW110867   4.979   3.076   5.393 -1.5459  1.6026 -0.5234
 3089SOL    HW210868   4.899   2.971   5.298 -0.5700  0.8758 -0.5617
 3090SOL     OW10869   2.273   4.114   1.525  0.5106  0.1961  0.5419
 3090SOL    HW110870   2.338   4.189   1.537  0.7975 -0.1966  1.5390
 3090SOL    HW210871   2.321   4.034   1.490  0.8558 -0.4810  2.4315
 3091SOL     OW10872   3.418   3.390   0.477 -0.1114 -0.3960 -0.0253
 3091SOL    HW110873   3.496   3.375   0.416 -0.5524  0.7783 -0.9008
 3091SOL    HW210874   3.448   3.439   0.559 -0.0380  0.6410 -0.6660
 3092SOL     OW10875   6.592   0.774   2.439 -0.5287 -0.1408  0.2122
 3092SOL    HW110876   6.612   0.831   2.360 -1.7182  0.4046  0.2779
 3092SOL    HW210877   6.549   0.830   2.510 -3.2995 -1.3570 -0.3528
 3093SOL     OW10878   6.819   5.629   0.487  0.0144 -0.6239  0.3977
 3093SOL    HW110879   6.754   5.692   0.443  0.2748 -0.0891  0.7725
 3093SOL    HW210880   6.830   5.654   0.583 -0.8262 -2.0068  0.8822
 3094SOL     OW10881   4.226   1.608   1.651  0.3057 -0.0255 -0.1548
 3094SOL    HW110882   4.306   1.660   1.682  1.3887 -0.5534 -1.9254
 3094SOL    HW210883   4.252   1.513   1.635 -0.8946 -0.3970  0.0522
 3095SOL     OW10884   0.365   2.522   4.466 -0.6433 -0.0412 -0.0899
 3095SOL    HW110885   0.361   2.436   4.414  1.5080 -0.8360  0.9241
 3095SOL    HW210886   0.451   2.570   4.443 -1.9991  2.1374 -0.9920
 3096SOL     OW10887   2.219   0.748   4.784 -0.3451 -0.4183 -0.1371
 3096SOL    HW110888   2.294   0.803   4.819 -0.3786  0.2962 -1.1299
 3096SOL    HW210889   2.143   0.751   4.848 -0.3561  0.7411 -0.1710
 3097SOL     OW10890   5.891   4.464   3.811  0.2177 -0.7758  0.3825
 3097SOL    HW110891   5.974   4.420   3.845 -0.0337 -1.7844 -0.2265
 3097SOL    HW210892   5.831   4.394   3.770 -0.7623 -0.0188  0.4810
 3098SOL     OW10893   1.398   0.438   3.764 -0.0076  0.1617  0.5000
 3098SOL    HW110894   1.489   0.478   3.774  0.4529 -0.6424 -0.3288
 3098SOL    HW210895   1.335   0.504   3.723  0.3880  0.4766  0.4053
 3099SOL     OW10896   5.881   2.096   0.559  0.1362  0.0725  0.7275
 3099SOL    HW110897   5.812   2.147   0.508  0.9328 -0.8368 -1.4138
 3099SOL    HW210898   5.966   2.148   0.562  0.1258  0.0738  1.0368
 3100SOL     OW10899   6.460   2.799   4.385  0.1512 -0.5339 -1.4795
 3100SOL    HW110900   6.390   2.835   4.447  0.2337  1.1600 -2.3160
 3100SOL    HW210901   6.496   2.874   4.329  2.8216 -1.3178 -0.9079
 3101SOL     OW10902   0.190   5.113   2.084  0.7999 -0.0943  0.1021
 3101SOL    HW110903   0.127   5.186   2.058  0.7238 -0.1336  0.1746
 3101SOL    HW210904   0.198   5.047   2.009 -0.3727 -0.8654  0.6227
 3102SOL     OW10905   4.663   3.842   3.956  0.0172  0.4781  0.2780
 3102SOL    HW110906   4.759   3.861   3.936  0.0441  0.3655  0.2977
 3102SOL    HW210907   4.606   3.916   3.920 -0.0251 -0.1947 -1.1120
 3103SOL     OW10908   4.902   5.520   0.358  0.0682 -0.4859 -0.6450
 3103SOL    HW110909   4.929   5.547   0.450 -4.0818  0.1680  0.5672
 3103SOL    HW210910   4.943   5.584   0.292  0.7242  0.8834  1.0040
 3104SOL     OW10911   3.296   1.394   5.178  0.4658 -0.4249  0.1720
 3104SOL    HW110912   3.363   1.367   5.247  1.0029 -0.2515 -0.2856
 3104SOL    HW210913   3.303   1.334   5.098  0.9974  0.4343 -0.4367
 3105SOL     OW10914   1.126   6.001   3.950  0.4447  0.0621  0.2398
 3105SOL    HW110915   1.166   5.923   3.901  0.0996  0.3719 -0.5645
 3105SOL    HW210916   1.189   6.032   4.020  2.0367  1.0604 -1.5331
 3106SOL     OW10917   1.499   6.415   0.753 -0.1095 -0.4560 -0.0370
 3106SOL    HW110918   1.550   6.404   0.839  0.0800  0.6274 -0.0015
 3106SOL    HW210919   1.550   6.475   0.691 -1.4014  0.8062  0.0679
 3107SOL     OW10920   3.273   0.100   6.523  0.1987 -0.2624 -0.3209
 3107SOL    HW110921   3.222   0.043   6.587  0.8786  0.5135  0.9604
 3107SOL    HW210922   3.359   0.055   6.500 -0.4757 -1.0015 -1.5148
 3108SOL     OW10923   3.962   6.561   3.119 -0.0345 -0.1746 -0.2158
 3108SOL    HW110924   4.051   6.606   3.119 -0.5789  0.9601 -1.1360
 3108SOL    HW210925   3.919   6.571   3.029 -1.4071 -0.0531  0.4136
 3109SOL     OW10926   4.719   5.935   0.692  0.6020  0.1688  0.6168
 3109SOL    HW110927   4.632   5.980   0.712 -0.0834 -0.2718 -1.2199
 3109SOL    HW210928   4.736   5.865   0.761 -1.7545 -1.4327 -0.2880
 3110SOL     OW10929   5.081   3.678   0.091  0.1988 -0.4071 -0.1489
 3110SOL    HW110930   5.129   3.591   0.083  0.1763 -0.5666  1.1475
 3110SOL    HW210931   5.107   3.722   0.178 -1.4985 -0.1922  0.2809
 3111SOL     OW10932   4.639   6.379   4.949 -0.0733 -0.1158 -0.1797
 3111SOL    HW110933   4.708   6.420   5.009 -0.8771  2.0528 -0.6363
 3111SOL    HW210934   4.562   6.442   4.940 -0.6289 -1.0257 -2.3417
 3112SOL     OW10935   4.877   3.725   0.996  0.6425 -0.0875 -0.1885
 3112SOL    HW110936   4.910   3.671   1.074 -1.3962  0.6986  1.3029
 3112SOL    HW210937   4.778   3.732   1.000  0.6609  1.6722 -1.7404
 3113SOL     OW10938   2.100   4.395   2.331  0.0826  0.5023  0.7472
 3113SOL    HW110939   2.043   4.317   2.355 -0.0144  0.2065 -0.4246
 3113SOL    HW210940   2.089   4.418   2.235  0.5178  1.6329  0.9400
 3114SOL     OW10941   0.431   0.749   4.852  0.1575  0.6769  0.4596
 3114SOL    HW110942   0.348   0.787   4.893 -0.2169  0.1471  0.1971
 3114SOL    HW210943   0.481   0.697   4.921 -0.8381 -0.8204  0.1034
 3115SOL     OW10944   0.880   0.863   0.467  0.0330  0.1689  0.4271
 3115SOL    HW110945   0.907   0.817   0.552  0.3087 -0.0938  0.1973
 3115SOL    HW210946   0.825   0.801   0.411 -0.6376  0.5338  0.6668
 3116SOL     OW10947   1.309   5.382   6.269  0.3963 -0.5718  0.1462
 3116SOL    HW110948   1.349   5.466   6.232  0.7198 -1.2590 -1.0997
 3116SOL    HW210949   1.309   5.387   6.369  2.5900 -0.0594  0.1853
 3117SOL     OW10950   2.159   1.095   5.162 -0.7064  0.2478  0.7379
 3117SOL    HW110951   2.105   1.179   5.172 -1.1425 -0.0199  0.6718
 3117SOL    HW210952   2.098   1.016   5.165 -0.4005 -0.0262 -0.0879
 3118SOL     OW10953   3.199   6.667   4.058  0.1745 -0.2246 -0.3385
 3118SOL    HW110954   3.275   6.726   4.029 -0.3947 -0.4007 -2.3687
 3118SOL    HW210955   3.205   6.580   4.009 -0.2349 -1.0260  0.9925
 3119SOL     OW10956   4.868   4.471   4.538 -0.6881 -0.5613 -0.1574
 3119SOL    HW110957   4.853   4.377   4.508 -0.7283 -1.5623  2.7319
 3119SOL    HW210958   4.894   4.472   4.634  2.0271  2.2411 -0.7601
 3120SOL     OW10959   0.107   1.920   5.872 -0.1834  0.0702  0.0859
 3120SOL    HW110960   0.167   1.870   5.810 -0.0484 -0.3650  0.5529
 3120SOL    HW210961   0.157   1.995   5.914  0.0967 -0.3960  0.6036
 3121SOL     OW10962   1.189   2.577   3.153  0.1928  0.3325 -0.2716
 3121SOL    HW110963   1.194   2.676   3.165  0.2524  0.3908 -0.7366
 3121SOL    HW210964   1.218   2.554   3.060 -1.4367  0.0379 -0.7358
 3122SOL     OW10965   0.260   5.026   2.368  0.2945  0.8821 -0.5961
 3122SOL    HW110966   0.249   4.927   2.368 -2.4744  0.9965  2.0437
 3122SOL    HW210967   0.252   5.061   2.275 -2.3658 -1.1809 -1.2934
 3123SOL     OW10968   4.815   4.718   4.767  0.2545 -0.1869  0.0001
 3123SOL    HW110969   4.900   4.755   4.731 -0.5406  0.7928 -0.9639
 3123SOL    HW210970   4.828   4.623   4.794  1.6328 -0.0589 -0.1727
 3124SOL     OW10971   0.822   2.963   5.486 -0.4073  0.0428  0.2658
 3124SOL    HW110972   0.761   3.042   5.476 -1.0294 -0.3205  1.1520
 3124SOL    HW210973   0.916   2.991   5.462 -0.8471  0.6741 -0.8261
 3125SOL     OW10974   2.019   6.361   6.241  0.0745 -0.1653 -0.3913
 3125SOL    HW110975   2.061   6.270   6.247  3.6120  1.2711 -0.5113
 3125SOL    HW210976   2.025   6.406   6.330 -1.4695  0.0851 -0.3864
 3126SOL     OW10977   2.903   5.309   1.151 -0.1507 -0.1640  0.0238
 3126SOL    HW110978   2.840   5.380   1.122  1.0527  1.3646  0.9862
 3126SOL    HW210979   2.996   5.346   1.155  0.1103 -0.8611  3.4303
 3127SOL     OW10980   2.741   5.773   6.266 -0.6135 -0.2691 -0.0096
 3127SOL    HW110981   2.759   5.845   6.200 -2.2190  2.1743  2.0291
 3127SOL    HW210982   2.817   5.708   6.265  1.5005  2.0343 -1.1920
 3128SOL     OW10983   6.265   4.599   6.299 -0.1450  0.0088  0.4121
 3128SOL    HW110984   6.286   4.585   6.396 -0.3033  0.2191  0.4798
 3128SOL    HW210985   6.168   4.579   6.283 -0.2717  0.5971  0.4269
 3129SOL     OW10986   2.597   0.911   0.365  0.0261  0.0924 -0.0229
 3129SOL    HW110987   2.510   0.942   0.402 -0.3982 -0.4170 -0.5757
 3129SOL    HW210988   2.588   0.816   0.334  0.6610  0.1701 -0.4676
 3130SOL     OW10989   2.471   2.641   1.503  0.4097  0.2101 -0.1029
 3130SOL    HW110990   2.525   2.642   1.586  0.5584 -0.8492 -0.1783
 3130SOL    HW210991   2.516   2.696   1.433  2.7312 -2.5276 -0.9571
 3131SOL     OW10992   0.722   4.871   6.611  0.6324  0.2835  0.8004
 3131SOL    HW110993   0.694   4.927   6.532  1.1970 -1.5090 -0.7343
 3131SOL    HW210994   0.658   4.795   6.623  1.1107 -0.0241  1.4569
 3132SOL     OW10995   1.006   5.297   4.573 -0.2892  0.2779 -0.0936
 3132SOL    HW110996   0.908   5.309   4.564 -0.1785  0.1235 -1.7561
 3132SOL    HW210997   1.027   5.258   4.663 -1.6162  1.5228  0.7968
 3133SOL     OW10998   5.900   5.572   3.029 -0.2468  0.0003 -0.1679
 3133SOL    HW110999   5.952   5.571   2.944  0.4997  0.4748  0.2814
 3133SOL    HW211000   5.962   5.575   3.107 -0.9470  1.5259  0.3600
 3134SOL     OW11001   6.890   1.404   0.590 -0.5839 -0.4497 -0.3719
 3134SOL    HW111002   6.869   1.386   0.686 -0.0670  0.0044 -0.1679
 3134SOL    HW211003   6.931   1.323   0.549  1.3045  0.0485  0.4119
 3135SOL     OW11004   1.841   4.556   1.079 -0.3252 -0.1674  0.1755
 3135SOL    HW111005   1.888   4.468   1.074 -1.3215 -0.6985 -0.2286
 3135SOL    HW211006   1.786   4.559   1.163 -1.9355 -0.8099 -0.8137
 3136SOL     OW11007   1.567   0.685   5.497 -0.3654 -0.0806 -0.4142
 3136SOL    HW111008   1.635   0.678   5.425 -0.3855  2.3779 -0.7772
 3136SOL    HW211009   1.491   0.742   5.465 -0.9608  0.0199  1.1087
 3137SOL     OW11010   5.389   0.681   3.730  1.0056 -0.0146 -0.3701
 3137SOL    HW111011   5.472   0.736   3.739  0.5833  0.6070 -0.2352
 3137SOL    HW211012   5.380   0.621   3.809  2.1189 -1.1954 -1.1021
 3138SOL     OW11013   2.664   1.314   6.757 -0.9111 -0.1933  0.4142
 3138SOL    HW111014   2.581   1.272   6.719  0.0189  0.4163 -2.5881
 3138SOL    HW211015   2.742   1.255   6.741 -0.4039  0.2819  1.0742
 3139SOL     OW11016   6.197   0.683   2.083  0.3797 -0.4282  0.3911
 3139SOL    HW111017   6.297   0.681   2.090  0.2745 -0.9703  2.1688
 3139SOL    HW211018   6.171   0.691   1.987  2.1454  1.9701 -0.0042
 3140SOL     OW11019   3.702   4.390   6.320 -0.6222 -0.0926 -0.0384
 3140SOL    HW111020   3.654   4.393   6.232 -0.8878 -0.6572  0.0860
 3140SOL    HW211021   3.712   4.295   6.349  1.3535 -0.0606 -0.4948
 3141SOL     OW11022   4.968   3.540   5.686 -0.3241  0.4026 -0.2853
 3141SOL    HW111023   5.040   3.476   5.660 -0.1236  0.3384  0.3993
 3141SOL    HW211024   4.887   3.490   5.716 -0.8425  0.4713 -1.5069
 3142SOL     OW11025   3.233   6.010   5.061 -0.6978  0.3681  0.8767
 3142SOL    HW111026   3.243   6.042   4.967  0.2748  0.2144  0.9205
 3142SOL    HW211027   3.136   6.000   5.083 -1.0192  2.3271  0.5438
 3143SOL     OW11028   2.094   3.055   3.910 -0.0712  0.2987 -0.2226
 3143SOL    HW111029   2.174   2.999   3.887 -1.2445 -2.9710  2.6840
 3143SOL    HW211030   2.111   3.102   3.997 -1.4712 -1.0805  0.8578
 3144SOL     OW11031   2.652   4.147   3.257  0.1001  0.4399 -0.2927
 3144SOL    HW111032   2.568   4.104   3.291  0.7343  0.5943  1.6044
 3144SOL    HW211033   2.629   4.229   3.204 -0.9572  0.2446 -0.1535
 3145SOL     OW11034   6.660   3.176   1.291 -0.5267 -0.1200  0.0787
 3145SOL    HW111035   6.715   3.258   1.309 -0.3943 -0.0086 -0.7719
 3145SOL    HW211036   6.697   3.099   1.343  0.1962  0.0464 -0.1738
 3146SOL     OW11037   2.137   5.115   6.201 -0.2052  0.3612  0.3510
 3146SOL    HW111038   2.166   5.202   6.162  0.7685 -0.0928  0.0321
 3146SOL    HW211039   2.038   5.117   6.217 -0.0211  1.9408  1.4672
 3147SOL     OW11040   1.932   2.610   4.674 -0.0399  0.7418 -0.0003
 3147SOL    HW111041   2.031   2.619   4.675 -0.1566  3.4460 -1.7665
 3147SOL    HW211042   1.904   2.558   4.594 -0.0571 -1.3865  1.3207
 3148SOL     OW11043   3.423   6.229   3.526 -0.2936  0.4801  0.1902
 3148SOL    HW111044   3.392   6.301   3.588 -1.2375  0.8603 -0.7087
 3148SOL    HW211045   3.514   6.253   3.491 -0.6437  1.2833 -0.1798
 3149SOL     OW11046   5.055   5.189   5.627 -0.1744 -0.3407 -0.4899
 3149SOL    HW111047   5.135   5.197   5.568  0.6518  1.7828  0.7707
 3149SOL    HW211048   5.074   5.235   5.714 -2.4236 -0.6658  0.2312
 3150SOL     OW11049   6.958   6.261   1.477 -0.0607 -0.8076  0.4211
 3150SOL    HW111050   6.991   6.352   1.500  1.2905 -0.6940 -1.6168
 3150SOL    HW211051   6.981   6.197   1.550 -0.9728  0.4421  1.8428
 3151SOL     OW11052   3.712   6.331   0.024 -0.1656 -0.0967 -0.5141
 3151SOL    HW111053   3.763   6.396   0.081 -0.1220 -0.9090  0.4079
 3151SOL    HW211054   3.711   6.242   0.069 -2.2481 -0.1609 -0.5784
 3152SOL     OW11055   6.445   0.349   6.189  0.6658  0.5064 -0.8677
 3152SOL    HW111056   6.446   0.437   6.142  0.7397  1.4134  0.7370
 3152SOL    HW211057   6.466   0.363   6.286  0.8820 -1.3154 -0.6124
 3153SOL     OW11058   4.205   0.615   5.929  0.0613 -0.4164 -0.7809
 3153SOL    HW111059   4.165   0.531   5.891  0.3483 -0.3794 -1.1657
 3153SOL    HW211060   4.238   0.673   5.855 -1.9723  0.9985 -0.6743
 3154SOL     OW11061   4.893   6.976   2.593 -0.3816  0.5548  0.0363
 3154SOL    HW111062   4.916   6.883   2.622 -1.4746 -0.3055 -1.6900
 3154SOL    HW211063   4.971   7.016   2.544 -0.2141  0.2291  0.0351
 3155SOL     OW11064   1.354   4.094   1.933  0.2876  0.2598 -0.4660
 3155SOL    HW111065   1.444   4.093   1.890  0.1572 -1.7740 -0.7917
 3155SOL    HW211066   1.331   4.188   1.961  1.3312  1.2763 -2.7803
 3156SOL     OW11067   4.043   0.745   6.211 -0.5663  0.0696  0.1625
 3156SOL    HW111068   4.089   0.656   6.210 -0.7857 -0.0413 -0.1706
 3156SOL    HW211069   4.111   0.818   6.221 -0.2844 -0.0771 -0.6339
 3157SOL     OW11070   0.058   0.186   1.024 -0.0539  0.2844 -0.6408
 3157SOL    HW111071   0.130   0.149   0.965 -1.0995  0.6805 -2.2529
 3157SOL    HW211072   0.099   0.243   1.095  1.1930  1.2022 -2.0377
 3158SOL     OW11073   5.937   0.924   0.237 -0.2210  0.3019  0.2177
 3158SOL    HW111074   5.881   0.896   0.159 -0.5295  1.0462  0.1604
 3158SOL    HW211075   5.972   1.016   0.221 -0.1053  0.3724  0.8602
 3159SOL     OW11076   3.942   6.864   6.602 -0.2053  0.7941  0.0213
 3159SOL    HW111077   3.875   6.932   6.633 -0.4489  0.3279  0.5267
 3159SOL    HW211078   4.008   6.848   6.674  0.4534  1.2366 -0.4694
 3160SOL     OW11079   4.148   2.303   1.868  0.4958  0.1431 -0.3089
 3160SOL    HW111080   4.242   2.303   1.835  1.0887 -0.5166  1.2654
 3160SOL    HW211081   4.144   2.343   1.960 -0.6830 -0.2746 -0.1491
 3161SOL     OW11082   0.108   4.273   0.841 -0.2461 -0.1867  0.0078
 3161SOL    HW111083   0.057   4.264   0.927  1.4425  0.2139  1.1173
 3161SOL    HW211084   0.130   4.369   0.825  0.4694 -0.3852 -0.2393
 3162SOL     OW11085   0.601   6.370   0.818 -0.2939 -0.2357  0.3418
 3162SOL    HW111086   0.652   6.419   0.889 -0.2323  0.8403 -0.4344
 3162SOL    HW211087   0.504   6.370   0.840 -0.6422  2.4705 -0.8912
 3163SOL     OW11088   3.290   4.325   1.908  0.2829 -0.4037  0.2390
 3163SOL    HW111089   3.216   4.268   1.871  1.5106 -1.6080 -0.4969
 3163SOL    HW211090   3.280   4.419   1.875 -0.2516 -0.8202 -0.8313
 3164SOL     OW11091   3.832   4.048   0.608 -0.2844  0.0798  0.2358
 3164SOL    HW111092   3.920   4.094   0.621  0.0682 -0.7339  0.8336
 3164SOL    HW211093   3.826   3.971   0.672 -0.9143 -0.6247 -0.6637
 3165SOL     OW11094   0.212   5.187   4.209 -0.3671  0.0795  0.2852
 3165SOL    HW111095   0.230   5.091   4.189  1.2707  0.6984 -1.5089
 3165SOL    HW211096   0.131   5.194   4.268 -1.1158 -2.3169 -0.3422
 3166SOL     OW11097   0.948   2.678   2.842  0.2268 -0.0309 -0.1432
 3166SOL    HW111098   0.929   2.764   2.891  0.6473  0.0466 -0.1093
 3166SOL    HW211099   1.036   2.686   2.796 -0.2914 -0.0016 -1.1540
 3167SOL     OW11100   1.028   6.783   4.992  0.2643  1.0019  0.2435
 3167SOL    HW111101   1.021   6.867   5.047 -1.2210  1.6781 -0.8890
 3167SOL    HW211102   1.106   6.790   4.931 -0.3059  1.9650 -0.4188
 3168SOL     OW11103   1.445   1.270   4.145  0.1986 -0.2706  0.0946
 3168SOL    HW111104   1.497   1.184   4.143  0.2904 -0.2095 -0.4484
 3168SOL    HW211105   1.490   1.335   4.207 -0.4038 -0.9347  1.2661
 3169SOL     OW11106   5.891   2.924   2.955 -0.0159  0.0307 -0.0903
 3169SOL    HW111107   5.971   2.952   3.008 -0.2893  2.3441 -0.7815
 3169SOL    HW211108   5.912   2.841   2.904  0.6772 -1.5306  2.5322
 3170SOL     OW11109   3.954   2.701   5.612  0.2603  0.1132  0.2029
 3170SOL    HW111110   4.022   2.774   5.605  1.7196 -1.0356  1.5443
 3170SOL    HW211111   3.865   2.740   5.635 -0.0182  1.8277 -3.1144
 3171SOL     OW11112   4.227   1.518   4.952 -0.3800 -0.2017  0.4614
 3171SOL    HW111113   4.215   1.601   4.897 -0.1423 -0.0839  0.5885
 3171SOL    HW211114   4.153   1.454   4.931 -0.3354 -0.1250  0.0631
 3172SOL     OW11115   1.568   5.199   6.467 -0.0216  0.4862 -0.1271
 3172SOL    HW111116   1.533   5.247   6.547 -1.1912  0.4563 -0.5915
 3172SOL    HW211117   1.536   5.245   6.384 -1.2477 -1.1053 -0.5869
 3173SOL     OW11118   5.731   0.266   1.726  0.3620 -0.7707 -0.4014
 3173SOL    HW111119   5.677   0.238   1.646 -0.3823  0.4304 -0.3452
 3173SOL    HW211120   5.674   0.257   1.808 -0.1785  1.5185 -0.4584
 3174SOL     OW11121   3.666   0.238   3.492  0.0610  0.0660  0.3387
 3174SOL    HW111122   3.728   0.279   3.426 -2.1954  1.8553 -0.8165
 3174SOL    HW211123   3.682   0.278   3.582 -0.0263  1.2386 -0.1488
 3175SOL     OW11124   2.061   4.050   0.807  0.1151 -0.1210 -0.6962
 3175SOL    HW111125   2.042   4.146   0.787 -1.1900 -0.1967  0.0201
 3175SOL    HW211126   2.155   4.040   0.838  0.1677  0.9814 -0.4624
 3176SOL     OW11127   3.060   3.047   1.413  0.3495  0.1451 -0.5784
 3176SOL    HW111128   3.074   3.088   1.503 -0.8510 -2.2894  0.8144
 3176SOL    HW211129   3.002   3.106   1.358  0.4695  1.3247  0.5115
 3177SOL     OW11130   2.724   4.700   4.708  0.2541  0.1211 -0.5348
 3177SOL    HW111131   2.678   4.677   4.794  0.1261  2.0701 -0.0438
 3177SOL    HW211132   2.664   4.675   4.631 -0.2933 -0.1967 -0.0211
 3178SOL     OW11133   4.351   1.926   5.557  0.6500 -0.0852 -0.4410
 3178SOL    HW111134   4.397   2.013   5.542  0.0321  0.1397 -1.1170
 3178SOL    HW211135   4.301   1.900   5.474 -1.0333  0.0419  0.4780
 3179SOL     OW11136   6.424   0.078   5.637 -0.2346  0.0412 -0.5177
 3179SOL    HW111137   6.494   0.049   5.703 -1.1543  2.0984  1.5049
 3179SOL    HW211138   6.416   0.009   5.565  1.4717 -1.9068  1.0166
 3180SOL     OW11139   0.803   3.070   0.707 -0.1377 -0.0416 -0.0833
 3180SOL    HW111140   0.816   3.041   0.802 -1.5848 -0.0196  0.1563
 3180SOL    HW211141   0.712   3.112   0.698  0.1628  0.3757 -1.3827
 3181SOL     OW11142   6.391   6.438   1.393 -0.3177 -0.2287  0.6224
 3181SOL    HW111143   6.478   6.472   1.428  0.4537 -2.1468  0.7275
 3181SOL    HW211144   6.399   6.340   1.373 -1.5101  0.1805 -2.4533
 3182SOL     OW11145   1.224   6.323   1.801  0.0719  0.2113 -0.3048
 3182SOL    HW111146   1.177   6.409   1.781  1.2632  0.5136 -2.0498
 3182SOL    HW211147   1.157   6.254   1.829 -1.0888  1.2590 -0.3978
 3183SOL     OW11148   1.295   0.472   2.129 -0.5283  0.1569 -0.0606
 3183SOL    HW111149   1.317   0.551   2.073 -0.3648 -0.5783 -1.0640
 3183SOL    HW211150   1.316   0.388   2.078 -1.0401 -0.5352  0.8385
 3184SOL     OW11151   4.332   1.472   6.093 -0.6521 -0.2911 -0.0628
 3184SOL    HW111152   4.392   1.394   6.076  2.9300  1.8606  1.5621
 3184SOL    HW211153   4.382   1.557   6.079 -3.1234  1.7254  2.1316
 3185SOL     OW11154   1.659   6.911   6.074 -0.2625 -0.4495  0.2258
 3185SOL    HW111155   1.699   6.819   6.069 -1.0941 -0.9103  1.5322
 3185SOL    HW211156   1.570   6.912   6.028 -1.3127 -0.9391  2.1497
 3186SOL     OW11157   0.773   2.497   0.988  0.1887 -0.2866  0.6920
 3186SOL    HW111158   0.845   2.466   0.925  0.8565  1.2055  0.6872
 3186SOL    HW211159   0.685   2.460   0.957  0.3508  1.0623 -1.6700
 3187SOL     OW11160   2.450   2.130   6.871  0.2058 -0.1049  0.0473
 3187SOL    HW111161   2.399   2.046   6.853  0.3330 -0.0105 -0.8060
 3187SOL    HW211162   2.447   2.151   6.969  0.9487 -1.5890  0.4099
 3188SOL     OW11163   2.298   4.569   5.894 -0.1157  0.1450  0.5302
 3188SOL    HW111164   2.375   4.506   5.884 -0.5143 -0.1260 -1.1836
 3188SOL    HW211165   2.216   4.527   5.855 -0.6030  1.3543  0.2047
 3189SOL     OW11166   6.956   6.029   7.000  0.3924  0.3496 -0.4821
 3189SOL    HW111167   6.892   6.058   7.072  1.4798 -0.9336  1.0464
 3189SOL    HW211168   7.006   6.109   6.967  0.8646  0.7823  1.1862
 3190SOL     OW11169   1.845   1.851   7.006 -0.3737  0.0699  0.4318
 3190SOL    HW111170   1.929   1.873   7.055 -0.8551 -0.3824  1.5143
 3190SOL    HW211171   1.810   1.933   6.960  1.0015  0.0993 -0.6146
 3191SOL     OW11172   0.701   6.201   3.569 -0.2319  0.2465  0.2154
 3191SOL    HW111173   0.658   6.287   3.540 -0.1764 -0.6275 -2.8709
 3191SOL    HW211174   0.658   6.124   3.522  3.2985 -0.8639 -1.5980
 3192SOL     OW11175   4.746   4.728   0.118 -0.8746  0.1036 -0.4103
 3192SOL    HW111176   4.691   4.737   0.201 -1.6091  1.3347 -0.9954
 3192SOL    HW211177   4.686   4.711   0.040 -0.4942  1.6683 -1.0926
 3193SOL     OW11178   0.906   2.215   5.319 -0.0039  0.2399  0.2558
 3193SOL    HW111179   0.857   2.302   5.329  0.1316  0.6332 -1.9640
 3193SOL    HW211180   0.996   2.222   5.362 -0.4716  0.7434  1.1946
 3194SOL     OW11181   2.875   1.658   1.554 -0.2549  0.2158 -0.2786
 3194SOL    HW111182   2.937   1.590   1.594 -0.1728  0.4160 -0.0644
 3194SOL    HW211183   2.901   1.749   1.584 -0.4412  0.3340 -0.4680
 3195SOL     OW11184   0.370   5.303   4.543  0.2817  0.2540 -0.2718
 3195SOL    HW111185   0.426   5.222   4.526 -0.5989 -0.4246 -0.0238
 3195SOL    HW211186   0.408   5.382   4.494  0.9789 -0.3719 -0.7480
 3196SOL     OW11187   3.592   4.725   5.200  0.0701  0.5220  0.1606
 3196SOL    HW111188   3.607   4.806   5.143  0.6891  1.0698  1.0627
 3196SOL    HW211189   3.603   4.642   5.145 -1.7851  1.0223 -1.0820
 3197SOL     OW11190   2.205   2.936   0.130 -0.1881 -0.3721  0.0961
 3197SOL    HW111191   2.117   2.908   0.166 -1.7910  2.5541 -1.1640
 3197SOL    HW211192   2.241   3.012   0.185  1.1948 -1.0320  0.1407
 3198SOL     OW11193   1.407   0.046   6.433  0.4224  0.1592  0.2007
 3198SOL    HW111194   1.385   0.140   6.406  1.3633  0.4428  0.3737
 3198SOL    HW211195   1.326  -0.012   6.421 -0.1229  0.9528 -0.0652
 3199SOL     OW11196   0.873   3.534   0.082  0.7932  0.5721 -0.5595
 3199SOL    HW111197   0.797   3.469   0.088 -0.2625  1.8767  0.7158
 3199SOL    HW211198   0.913   3.529  -0.010 -1.1823  0.2396 -1.4641
 3200SOL     OW11199   2.035   0.526   6.201 -0.9598 -0.0528 -0.1141
 3200SOL    HW111200   2.016   0.433   6.169  2.1486 -0.6439 -0.5702
 3200SOL    HW211201   2.102   0.570   6.141 -0.7225  1.6622  1.3045
 3201SOL     OW11202   6.133   0.354   4.220  0.2979 -0.2392  0.1838
 3201SOL    HW111203   6.211   0.351   4.159 -0.1649 -1.3049 -0.3913
 3201SOL    HW211204   6.053   0.314   4.175  0.7032 -4.2675  2.4876
 3202SOL     OW11205   3.165   3.786   0.182  0.3090  0.2623  0.0711
 3202SOL    HW111206   3.164   3.715   0.252 -3.0909 -0.1092 -0.1878
 3202SOL    HW211207   3.195   3.873   0.223 -0.2275 -0.2537  1.6199
 3203SOL     OW11208   0.914   1.317   6.036  0.3829  0.3185  0.2196
 3203SOL    HW111209   0.854   1.252   6.083 -1.2052  0.9915 -0.7886
 3203SOL    HW211210   0.895   1.410   6.069 -0.9664  0.8422 -1.8458
 3204SOL     OW11211   3.444   1.601   0.526  0.3823  0.1703  0.3659
 3204SOL    HW111212   3.434   1.689   0.479  0.9696 -0.3840 -0.8632
 3204SOL    HW211213   3.455   1.617   0.624  2.1359  1.6067  0.0099
 3205SOL     OW11214   0.511   6.546   2.475  0.2457 -0.2348  0.0921
 3205SOL    HW111215   0.530   6.493   2.392  0.1458 -0.4309  0.1942
 3205SOL    HW211216   0.571   6.627   2.477  1.0273 -0.8073  0.3690
 3206SOL     OW11217   2.668   0.982   3.602  0.3608  0.5050 -0.2817
 3206SOL    HW111218   2.576   1.015   3.618  0.4165  0.2427  0.6586
 3206SOL    HW211219   2.664   0.889   3.565  0.2377  0.0570  0.7993
 3207SOL     OW11220   2.101   6.829   2.189 -0.2318  0.1656 -0.1997
 3207SOL    HW111221   2.117   6.743   2.239  0.5463  0.3470 -0.1199
 3207SOL    HW211222   2.114   6.813   2.091  1.1600  0.4494 -0.0870
 3208SOL     OW11223   4.188   1.441   2.185  0.0608 -0.1708  0.7602
 3208SOL    HW111224   4.158   1.428   2.280 -3.0666 -0.8662 -0.2286
 3208SOL    HW211225   4.247   1.364   2.159  0.8716 -0.0334  2.0803
 3209SOL     OW11226   1.760   1.523   4.392 -0.0518  0.6941 -0.0688
 3209SOL    HW111227   1.791   1.601   4.338  0.1391  0.0493 -0.8960
 3209SOL    HW211228   1.668   1.496   4.362  1.1629 -1.4976 -2.1531
 3210SOL     OW11229   5.880   2.132   5.468 -0.2567 -0.0534 -0.2436
 3210SOL    HW111230   5.870   2.045   5.517 -0.8322  1.8965  3.4718
 3210SOL    HW211231   5.950   2.188   5.513 -0.2907  1.6765 -2.1890
 3211SOL     OW11232   6.186   4.253   3.177 -0.4722 -0.0162  0.3585
 3211SOL    HW111233   6.135   4.186   3.232 -1.9944 -0.1591 -1.1387
 3211SOL    HW211234   6.204   4.215   3.086  1.9520  0.2300  0.6665
 3212SOL     OW11235   1.676   0.287   4.114  0.4464 -0.2795  0.4130
 3212SOL    HW111236   1.747   0.352   4.143  1.7705 -0.9191 -1.2379
 3212SOL    HW211237   1.679   0.207   4.173  0.1327  0.2989  1.2299
 3213SOL     OW11238   2.887   4.445   1.565 -0.1349 -0.6460 -0.3258
 3213SOL    HW111239   2.852   4.420   1.656  0.6767  3.9815  1.5507
 3213SOL    HW211240   2.815   4.491   1.514  0.6625  1.0338 -0.0003
 3214SOL     OW11241   2.276   5.724   0.065  0.0802 -0.5106 -0.0534
 3214SOL    HW111242   2.249   5.651   0.003 -0.4681  1.0779 -1.7818
 3214SOL    HW211243   2.211   5.800   0.057  0.8713  0.3636  1.3526
 3215SOL     OW11244   3.288   1.180   3.215 -0.0077  0.2952  0.4415
 3215SOL    HW111245   3.303   1.091   3.172  0.0624 -0.5190  2.0557
 3215SOL    HW211246   3.372   1.209   3.260 -0.0375  1.1902 -0.0561
 3216SOL     OW11247   4.888   2.535   5.688  0.1362 -0.3393 -0.0544
 3216SOL    HW111248   4.823   2.460   5.694  0.3870 -0.6550 -1.0502
 3216SOL    HW211249   4.849   2.608   5.632 -0.2427  0.4360  1.1797
 3217SOL     OW11250   4.074   6.920   1.968 -0.5463  0.0197 -0.1123
 3217SOL    HW111251   4.026   6.993   1.919  0.8842  0.5596 -0.7551
 3217SOL    HW211252   4.086   6.842   1.907  0.3040  0.2879 -0.2965
 3218SOL     OW11253   2.485   1.139   0.713 -0.2161  0.0320 -0.7245
 3218SOL    HW111254   2.522   1.114   0.624  0.4226  0.3098 -0.5462
 3218SOL    HW211255   2.525   1.226   0.742  1.0090 -0.9587  0.6662
 3219SOL     OW11256   2.519   0.219   5.396 -0.1759 -0.3497 -0.1930
 3219SOL    HW111257   2.566   0.166   5.325  0.5337  0.5207 -0.3840
 3219SOL    HW211258   2.572   0.214   5.481 -0.6891 -0.8517  0.1094
 3220SOL     OW11259   1.159   5.472   2.573  0.3813  0.1246  0.0540
 3220SOL    HW111260   1.130   5.379   2.551  1.5607 -0.2331 -0.0794
 3220SOL    HW211261   1.084   5.521   2.617  0.0510 -1.2007  1.0250
 3221SOL     OW11262   1.071   4.652   5.169  0.2661 -0.7561 -0.5721
 3221SOL    HW111263   1.041   4.595   5.246  0.3673 -0.3104 -0.1993
 3221SOL    HW211264   1.116   4.734   5.204  1.2243 -1.0358 -1.1242
 3222SOL     OW11265   5.540   3.169   3.850  0.6714  0.7031  0.3440
 3222SOL    HW111266   5.506   3.105   3.919  0.0495  0.3049 -0.3216
 3222SOL    HW211267   5.593   3.241   3.895  0.7410  0.1446  1.1796
 3223SOL     OW11268   4.806   2.196   0.364 -0.3444  0.0759 -0.6763
 3223SOL    HW111269   4.785   2.115   0.310  0.5788 -0.1129 -0.7595
 3223SOL    HW211270   4.731   2.213   0.429 -0.7068 -0.6230 -0.9034
 3224SOL     OW11271   1.418   0.223   1.350 -0.7053 -1.0474 -0.2101
 3224SOL    HW111272   1.325   0.239   1.383 -0.5783  0.8593 -0.6263
 3224SOL    HW211273   1.434   0.278   1.268  1.3058  0.0377  0.8099
 3225SOL     OW11274   2.272   4.539   4.980  0.2283  0.5823 -0.1809
 3225SOL    HW111275   2.256   4.590   4.896  0.3963 -0.5039 -0.8821
 3225SOL    HW211276   2.284   4.442   4.959  2.4033  0.5701  0.8554
 3226SOL     OW11277   6.406   1.663   5.071  0.1084  0.1024  0.0728
 3226SOL    HW111278   6.358   1.606   5.138  1.1333 -1.3267 -0.3608
 3226SOL    HW211279   6.353   1.668   4.987  0.1224 -0.4218  0.0313
 3227SOL     OW11280   3.476   6.983   2.947 -0.1433  0.4155 -0.3413
 3227SOL    HW111281   3.435   6.953   3.033  3.2889 -0.7141  1.0490
 3227SOL    HW211282   3.491   7.082   2.950  0.9388  0.2384  0.8657
 3228SOL     OW11283   5.166   0.026   5.221 -0.1772 -0.1241 -0.1914
 3228SOL    HW111284   5.181   0.125   5.229  1.7926 -0.4563  0.8070
 3228SOL    HW211285   5.245  -0.016   5.175 -1.5804 -1.1103 -1.8329
 3229SOL     OW11286   5.674   0.026   4.333  0.4030 -0.2396 -0.1729
 3229SOL    HW111287   5.593   0.045   4.277  0.7115 -0.5261 -0.7263
 3229SOL    HW211288   5.672   0.084   4.414 -0.9738 -1.1202  0.4489
 3230SOL     OW11289   4.085   4.823   2.788 -0.0095  0.0901  0.6391
 3230SOL    HW111290   3.995   4.859   2.762 -1.2602 -2.2050  1.5389
 3230SOL    HW211291   4.145   4.823   2.708 -1.0654  0.8766 -0.1868
 3231SOL     OW11292   6.661   2.439   2.448 -0.0837 -0.0881  0.3972
 3231SOL    HW111293   6.691   2.374   2.377  0.0324 -3.0179  2.8981
 3231SOL    HW211294   6.588   2.397   2.502  0.4619  1.6087  2.5905
 3232SOL     OW11295   2.991   1.823   1.046 -0.0027 -0.5149  0.1538
 3232SOL    HW111296   3.000   1.739   0.992 -0.0048 -0.6258  0.3242
 3232SOL    HW211297   2.910   1.816   1.104 -1.7203  0.7825 -1.9340
 3233SOL     OW11298   3.881   0.952   0.181 -0.1307 -0.2591 -0.0939
 3233SOL    HW111299   3.936   0.989   0.107  1.0480 -2.5231 -0.4347
 3233SOL    HW211300   3.856   0.857   0.160 -0.8349 -0.5487  1.8280
 3234SOL     OW11301   2.598   3.657   3.087  0.2069 -0.5345  0.1130
 3234SOL    HW111302   2.608   3.567   3.044 -0.0090 -0.4332 -0.1550
 3234SOL    HW211303   2.635   3.655   3.180  1.2441 -0.5819 -0.2985
 3235SOL     OW11304   0.174   5.857   5.846  0.1463  0.1508  0.2502
 3235SOL    HW111305   0.212   5.941   5.885  0.8140 -0.6929  1.4695
 3235SOL    HW211306   0.232   5.826   5.771 -0.1049  0.7595 -0.2103
 3236SOL     OW11307   7.001   0.657   1.851  0.0526  0.6686 -0.2943
 3236SOL    HW111308   7.034   0.564   1.870 -0.6470  0.2789 -0.9413
 3236SOL    HW211309   6.906   0.665   1.879  0.1580  1.2461 -0.0946
 3237SOL     OW11310   4.527   0.600   4.812 -0.2772  0.6903  0.2615
 3237SOL    HW111311   4.583   0.678   4.786  0.4223  0.1050 -0.0045
 3237SOL    HW211312   4.583   0.533   4.860 -0.6116 -0.1741 -0.5343
 3238SOL     OW11313   5.905   1.132   1.772  0.6549 -0.1034  0.6639
 3238SOL    HW111314   5.872   1.054   1.826  2.9057 -1.0314  0.8177
 3238SOL    HW211315   5.887   1.217   1.821 -0.0680 -0.6814  1.4283
 3239SOL     OW11316   3.658   6.215   0.489 -0.0631  0.9906 -0.1145
 3239SOL    HW111317   3.569   6.241   0.450 -1.7385 -1.3248  1.8289
 3239SOL    HW211318   3.692   6.133   0.444  1.3823  2.1279 -1.1608
 3240SOL     OW11319   6.522   4.729   4.638  0.3637 -0.3142  0.2874
 3240SOL    HW111320   6.611   4.759   4.603  0.2611 -1.4292 -0.9960
 3240SOL    HW211321   6.513   4.630   4.628  0.5285 -0.8488  4.0411
 3241SOL     OW11322   1.334   2.470   3.472 -0.0718  0.2200  0.4299
 3241SOL    HW111323   1.351   2.565   3.446 -0.7251  0.3978  0.6147
 3241SOL    HW211324   1.270   2.468   3.549  1.8035 -0.3054  2.0325
 3242SOL     OW11325   0.584   3.564   1.471 -0.8036  0.3505 -0.3667
 3242SOL    HW111326   0.496   3.517   1.462 -0.6057 -0.1186  0.0894
 3242SOL    HW211327   0.656   3.511   1.427 -0.3756 -0.3987  1.1621
 3243SOL     OW11328   6.613   1.990   2.004  0.2313  0.1895  0.2855
 3243SOL    HW111329   6.601   1.963   1.909 -1.2657  0.8017  0.2604
 3243SOL    HW211330   6.646   1.913   2.057  1.1040 -0.1487 -0.7273
 3244SOL     OW11331   2.602   4.239   5.257 -0.0551  0.2947 -0.2675
 3244SOL    HW111332   2.609   4.141   5.241  0.1617  0.0025  1.3499
 3244SOL    HW211333   2.660   4.288   5.192 -0.1125 -0.6460 -1.0445
 3245SOL     OW11334   3.310   5.792   4.695 -0.4089 -0.4312  0.3281
 3245SOL    HW111335   3.244   5.718   4.710 -1.1190  0.1893  0.3609
 3245SOL    HW211336   3.277   5.875   4.740  0.6168 -0.2206  0.7033
 3246SOL     OW11337   2.825   6.468   1.247  0.3506 -0.2586 -0.0431
 3246SOL    HW111338   2.890   6.393   1.257 -1.2366 -1.7194 -0.2691
 3246SOL    HW211339   2.755   6.443   1.180  0.0795  1.6631 -0.5316
 3247SOL     OW11340   3.868   6.976   6.358 -0.1249  0.1523 -0.4205
 3247SOL    HW111341   3.956   7.013   6.328 -0.3074  1.5328  0.6704
 3247SOL    HW211342   3.883   6.912   6.433 -0.0107 -0.0075 -0.5790
 3248SOL     OW11343   3.134   4.731   6.949 -1.0741 -0.9089 -0.6532
 3248SOL    HW111344   3.221   4.726   6.901 -0.7913  0.5332 -0.3416
 3248SOL    HW211345   3.100   4.639   6.967  2.2470 -1.7786  2.5817
 3249SOL     OW11346   1.180   0.713   4.968 -0.0074 -0.2297 -0.0370
 3249SOL    HW111347   1.221   0.781   4.908  1.6652 -2.0315 -1.0484
 3249SOL    HW211348   1.174   0.750   5.061 -0.8974  1.9265 -0.9108
 3250SOL     OW11349   2.784   4.966   1.573 -0.8546  0.6162 -0.1904
 3250SOL    HW111350   2.736   4.967   1.661 -1.4071  0.6364 -0.4884
 3250SOL    HW211351   2.762   5.049   1.522  0.0430  0.9613 -0.0491
 3251SOL     OW11352   3.439   4.095   1.184  0.0691 -0.4414 -1.0852
 3251SOL    HW111353   3.396   4.108   1.273  0.3549  0.1619 -1.0264
 3251SOL    HW211354   3.375   4.122   1.112 -1.0569 -3.1495 -1.2255
 3252SOL     OW11355   4.097   2.431   0.596  0.1607  0.2554 -0.4532
 3252SOL    HW111356   4.088   2.339   0.634 -0.9596  0.4454 -0.2342
 3252SOL    HW211357   4.149   2.426   0.510  2.3853 -0.2210  0.8364
 3253SOL     OW11358   0.264   5.165   1.688  0.8569 -0.5733 -0.3784
 3253SOL    HW111359   0.324   5.230   1.734  0.8120 -0.4299 -0.5216
 3253SOL    HW211360   0.318   5.089   1.652  0.7544 -1.3075  0.9618
 3254SOL     OW11361   5.295   3.467   3.447 -0.5961 -0.2824  0.5526
 3254SOL    HW111362   5.196   3.454   3.435 -0.3632  0.0897 -2.6304
 3254SOL    HW211363   5.332   3.390   3.499 -2.2579 -1.5775 -0.0601
 3255SOL     OW11364   5.877   3.069   6.257 -0.2104  0.2899  0.1020
 3255SOL    HW111365   5.947   2.998   6.254 -0.4830 -0.2839  3.5480
 3255SOL    HW211366   5.793   3.036   6.213  0.6114 -0.2950 -1.0675
 3256SOL     OW11367   6.698   5.663   0.193 -0.3234  0.4719  0.1019
 3256SOL    HW111368   6.786   5.624   0.219  0.6771  1.8664 -1.0437
 3256SOL    HW211369   6.663   5.719   0.268  1.0987  2.0772 -0.3728
 3257SOL     OW11370   3.934   3.252   6.486  0.8770 -0.1041 -0.0005
 3257SOL    HW111371   3.991   3.171   6.500  0.2738 -0.7447 -1.0635
 3257SOL    HW211372   3.864   3.257   6.557  1.3878 -0.0890  0.5046
 3258SOL     OW11373   6.001   1.294   4.102 -0.1619  0.1920  0.0836
 3258SOL    HW111374   6.058   1.367   4.064  0.1409  0.4255  0.9811
 3258SOL    HW211375   5.943   1.257   4.029  2.3869 -1.3256 -1.3381
 3259SOL     OW11376   5.252   6.525   6.938  0.1211 -0.3122  0.4044
 3259SOL    HW111377   5.242   6.623   6.919  0.3696 -0.1364  1.1469
 3259SOL    HW211378   5.167   6.491   6.980  0.4718 -0.1291  1.2898
 3260SOL     OW11379   3.732   6.833   4.152 -0.4396  0.0702  0.1281
 3260SOL    HW111380   3.726   6.804   4.057  0.5188  0.9439 -0.2165
 3260SOL    HW211381   3.820   6.803   4.190  0.1708  1.6643  0.0373
 3261SOL     OW11382   4.865   0.869   3.654  0.1500 -0.8374  0.0252
 3261SOL    HW111383   4.770   0.841   3.669 -0.0479 -0.4459 -0.4555
 3261SOL    HW211384   4.927   0.809   3.705 -0.3963 -0.5985  0.9904
 3262SOL     OW11385   3.675   0.741   5.552  0.2294 -0.5914  0.3527
 3262SOL    HW111386   3.728   0.777   5.475  0.4150 -0.9855  0.2964
 3262SOL    HW211387   3.703   0.648   5.572  1.0791 -0.0682  1.7244
 3263SOL     OW11388   2.951   0.727   3.234  0.1797  0.8068  0.0167
 3263SOL    HW111389   3.047   0.705   3.215  0.9557 -2.0331  5.3317
 3263SOL    HW211390   2.946   0.806   3.295 -0.9939  1.3293 -0.7100
 3264SOL     OW11391   5.274   6.984   6.931  0.5313  0.0317 -0.0305
 3264SOL    HW111392   5.233   7.036   7.006 -0.5929 -0.4485 -0.2835
 3264SOL    HW211393   5.372   6.999   6.930  0.5102  0.4250  1.2453
 3265SOL     OW11394   5.040   3.385   5.029  0.5439  0.3834 -0.3378
 3265SOL    HW111395   5.029   3.484   5.029  0.1667  0.3428  0.1719
 3265SOL    HW211396   5.134   3.361   5.054  0.2271  0.5744  1.1113
 3266SOL     OW11397   5.558   0.586   2.408 -0.3536 -0.1499 -0.1845
 3266SOL    HW111398   5.593   0.669   2.364  1.6516 -0.6840  0.2767
 3266SOL    HW211399   5.464   0.601   2.437  0.5135  2.7334  1.6730
 3267SOL     OW11400   4.167   1.011   6.221  0.4425 -0.9237  0.0132
 3267SOL    HW111401   4.068   1.005   6.237  0.4051 -0.4401 -0.0046
 3267SOL    HW211402   4.206   1.078   6.284  0.5269 -0.0635 -0.9307
 3268SOL     OW11403   0.171   3.763   6.695 -0.0262 -0.2579 -0.1593
 3268SOL    HW111404   0.246   3.715   6.741 -0.4235 -0.7128  0.0217
 3268SOL    HW211405   0.204   3.803   6.610  1.5483  3.2031  1.8510
 3269SOL     OW11406   1.260   1.393   5.722 -0.3609 -0.1545  0.4577
 3269SOL    HW111407   1.333   1.328   5.746  0.7021  0.5305 -0.7826
 3269SOL    HW211408   1.240   1.386   5.625 -1.1700  0.4710  0.5667
 3270SOL     OW11409   5.450   1.051   2.738  0.2381 -0.0077 -0.1029
 3270SOL    HW111410   5.480   0.979   2.676  1.1658  1.0363 -0.9158
 3270SOL    HW211411   5.499   1.042   2.825 -0.3631 -0.9107  0.1555
 3271SOL     OW11412   0.593   5.929   5.048  0.1148  0.7403 -0.1714
 3271SOL    HW111413   0.586   6.028   5.060 -2.0057  0.6552 -0.3469
 3271SOL    HW211414   0.581   5.906   4.952  0.2960  0.2952 -0.0913
 3272SOL     OW11415   6.303   1.340   0.075 -0.5409 -0.3686  0.2005
 3272SOL    HW111416   6.236   1.413   0.061  0.4866  0.5185 -0.1948
 3272SOL    HW211417   6.310   1.284  -0.008 -0.3228 -0.0691  0.0184
 3273SOL     OW11418   4.900   4.503   0.279 -0.4019 -0.1733  0.2774
 3273SOL    HW111419   4.825   4.513   0.213 -0.5423 -0.7710  0.3392
 3273SOL    HW211420   4.964   4.579   0.269  0.9721 -1.5058 -2.3699
 3274SOL     OW11421   2.172   6.075   2.521 -0.1562  0.4433 -0.1121
 3274SOL    HW111422   2.110   5.999   2.505 -0.5423  1.1696 -2.4005
 3274SOL    HW211423   2.262   6.040   2.546 -0.6802 -0.7021  0.2228
 3275SOL     OW11424   0.847   3.146   1.188 -0.0918 -0.6179  0.0574
 3275SOL    HW111425   0.759   3.167   1.146 -0.4131 -0.7806  0.6370
 3275SOL    HW211426   0.905   3.097   1.122  0.6165  1.8555 -1.2803
 3276SOL     OW11427   4.003   5.915   2.367  0.0900  0.4299  0.2955
 3276SOL    HW111428   4.070   5.901   2.440  0.4630 -0.6331 -0.2365
 3276SOL    HW211429   4.042   5.888   2.280 -1.1020 -0.4590  0.0015
 3277SOL     OW11430   4.898   1.622   5.502  0.3842  1.0150  0.0578
 3277SOL    HW111431   4.880   1.550   5.570 -0.6347  0.2310 -0.9990
 3277SOL    HW211432   4.994   1.617   5.473  1.0441  1.8438  1.9410
 3278SOL     OW11433   6.651   0.789   5.888 -0.1255  0.0852 -0.7714
 3278SOL    HW111434   6.630   0.875   5.841 -1.1416  0.6144  0.5949
 3278SOL    HW211435   6.703   0.730   5.827  0.6107  1.6678 -1.7363
 3279SOL     OW11436   4.121   0.792   0.726  0.0210 -0.1321 -0.1024
 3279SOL    HW111437   4.178   0.847   0.787 -0.7128  1.8980 -1.1518
 3279SOL    HW211438   4.030   0.833   0.720  0.0110 -0.3858 -2.3794
 3280SOL     OW11439   4.575   0.429   1.786  0.2122  0.1368  0.3928
 3280SOL    HW111440   4.562   0.337   1.748 -0.4638  0.6966 -0.7571
 3280SOL    HW211441   4.491   0.457   1.833  0.3125  0.2880  0.4823
 3281SOL     OW11442   0.987   6.370   2.208  0.2465  0.1027  0.8240
 3281SOL    HW111443   1.059   6.386   2.276  2.9666 -0.4388 -1.6864
 3281SOL    HW211444   0.923   6.302   2.243  0.4698  1.1290  3.4674
 3282SOL     OW11445   6.815   6.845   1.992 -0.1932  0.0209  0.3781
 3282SOL    HW111446   6.768   6.867   2.077 -1.5364 -1.4793  0.0772
 3282SOL    HW211447   6.840   6.929   1.945 -0.2035  0.8666  1.8198
 3283SOL     OW11448   4.696   3.474   5.087 -0.6273  0.1455  0.0797
 3283SOL    HW111449   4.618   3.455   5.029 -0.1184 -2.9790  0.2195
 3283SOL    HW211450   4.780   3.445   5.041  0.0291 -0.1388  1.3929
 3284SOL     OW11451   4.167   3.860   0.451  0.0605 -0.0484 -0.1129
 3284SOL    HW111452   4.174   3.947   0.501 -2.4992 -0.1021  0.4651
 3284SOL    HW211453   4.136   3.877   0.358  3.2456 -0.1020 -1.3112
 3285SOL     OW11454   4.539   5.788   3.052  0.2551  0.4158  0.2776
 3285SOL    HW111455   4.510   5.763   2.959 -0.2529  1.6875  0.0690
 3285SOL    HW211456   4.620   5.735   3.077  1.3465  1.1559 -1.4991
 3286SOL     OW11457   4.927   5.210   4.335  0.1294 -0.0099 -0.1686
 3286SOL    HW111458   4.915   5.115   4.364  1.0271 -0.3003 -0.7115
 3286SOL    HW211459   4.976   5.260   4.407 -0.8142  0.1856  0.3480
 3287SOL     OW11460   2.589   0.491   2.260  0.0478 -0.2564 -0.3077
 3287SOL    HW111461   2.616   0.395   2.264  0.6721 -0.1203 -0.9344
 3287SOL    HW211462   2.570   0.515   2.165  1.2761  0.5912 -0.3633
 3288SOL     OW11463   2.330   6.353   6.159 -0.3144  0.4201 -0.3241
 3288SOL    HW111464   2.314   6.421   6.230  0.7472  1.7712 -1.3303
 3288SOL    HW211465   2.266   6.277   6.171 -1.2402  1.3716  1.0781
 3289SOL     OW11466   6.312   1.468   1.933  0.6892 -0.2937 -0.1937
 3289SOL    HW111467   6.321   1.385   1.879 -0.3699 -0.2367 -0.4849
 3289SOL    HW211468   6.304   1.547   1.872  0.2642 -0.1423  0.0450
 3290SOL     OW11469   6.047   0.026   4.151  0.0850  0.8198 -0.4297
 3290SOL    HW111470   6.089   0.042   4.240  0.2845 -0.1931 -0.3269
 3290SOL    HW211471   5.992   0.106   4.125  1.1059  1.6701 -0.0258
 3291SOL     OW11472   1.486   3.886   2.843 -0.4984 -0.3786 -0.2215
 3291SOL    HW111473   1.526   3.915   2.930  5.2329  0.5365 -2.6696
 3291SOL    HW211474   1.421   3.955   2.812  0.1533  1.2043  1.6646
 3292SOL     OW11475   2.539   0.086   0.354  0.2038  0.7632  0.4034
 3292SOL    HW111476   2.555   0.010   0.417  2.4794  1.7076  1.0625
 3292SOL    HW211477   2.480   0.154   0.397 -0.2268  0.2944  0.5657
 3293SOL     OW11478   2.820   3.747   1.179 -0.5842  0.2127 -0.0798
 3293SOL    HW111479   2.914   3.770   1.154 -0.9826  2.3838  0.2083
 3293SOL    HW211480   2.759   3.765   1.102 -1.0568  1.1880  0.5016
 3294SOL     OW11481   6.328   6.777   5.385 -0.4741  0.5257  0.4021
 3294SOL    HW111482   6.251   6.717   5.406 -0.7562  0.3144 -1.0907
 3294SOL    HW211483   6.317   6.814   5.292  1.9727 -0.7843 -0.5224
 3295SOL     OW11484   2.133   5.126   5.887 -0.0757  0.4072  0.2943
 3295SOL    HW111485   2.119   5.038   5.932  1.4118  1.0017  2.0466
 3295SOL    HW211486   2.055   5.186   5.906 -0.8119 -0.2931 -0.4097
 3296SOL     OW11487   6.149   4.080   1.822  0.0232 -0.1054 -0.2171
 3296SOL    HW111488   6.155   4.142   1.744  0.2124 -0.9052 -0.8438
 3296SOL    HW211489   6.062   4.095   1.870 -0.1277  0.3282 -0.6190
 3297SOL     OW11490   3.466   6.262   4.843  0.1309 -0.4724 -0.2920
 3297SOL    HW111491   3.511   6.350   4.859  1.3644 -0.9863 -0.7950
 3297SOL    HW211492   3.472   6.207   4.926  1.6057 -1.0269 -0.7420
 3298SOL     OW11493   2.106   5.809   5.503  0.3045  0.7158 -0.0728
 3298SOL    HW111494   2.177   5.862   5.456  1.0490 -0.9575 -0.8999
 3298SOL    HW211495   2.087   5.725   5.453  0.8045 -0.9607  2.3519
 3299SOL     OW11496   6.252   6.270   4.371 -0.3805  0.2953  0.5459
 3299SOL    HW111497   6.233   6.172   4.368  0.8344 -0.0670  2.8107
 3299SOL    HW211498   6.346   6.287   4.343  0.4356  0.3916  3.0906
 3300SOL     OW11499   0.132   0.763   0.558  0.2781 -0.3016  1.0329
 3300SOL    HW111500   0.138   0.749   0.459 -1.4117  1.1772  0.6663
 3300SOL    HW211501   0.167   0.682   0.605 -3.1801 -3.1982 -0.8264
 3301SOL     OW11502   6.024   3.216   0.401  0.7421 -0.1621  0.0870
 3301SOL    HW111503   6.031   3.250   0.307  1.8448  0.2411  0.2971
 3301SOL    HW211504   6.056   3.122   0.405  1.0674 -0.0512  0.1229
 3302SOL     OW11505   3.567   0.092   4.757 -0.2321  0.5002  0.3696
 3302SOL    HW111506   3.538   0.169   4.701 -0.4300 -0.0782 -0.3542
 3302SOL    HW211507   3.665   0.100   4.776  0.1471  0.0475 -1.2042
 3303SOL     OW11508   5.870   3.696   4.122  0.3628 -0.1321  0.5589
 3303SOL    HW111509   5.826   3.725   4.037 -1.6468 -2.6339  0.6258
 3303SOL    HW211510   5.916   3.774   4.164 -1.7975  2.0816 -0.8974
 3304SOL     OW11511   2.767   6.309   4.564  0.3131  0.4548 -0.6756
 3304SOL    HW111512   2.769   6.299   4.663  3.1640 -1.1850 -0.7778
 3304SOL    HW211513   2.860   6.303   4.528 -0.7112  0.0089 -3.5476
 3305SOL     OW11514   2.229   6.310   5.440 -0.4576  0.1641  0.5408
 3305SOL    HW111515   2.173   6.233   5.470  1.6721 -1.3293  0.9249
 3305SOL    HW211516   2.281   6.284   5.359 -0.3610  1.5161  0.1448
 3306SOL     OW11517   1.131   2.201   0.697  0.1891 -0.1259  0.5677
 3306SOL    HW111518   1.160   2.105   0.691  1.8321  0.1156  2.9024
 3306SOL    HW211519   1.153   2.248   0.612 -0.3971 -1.7405 -0.5209
 3307SOL     OW11520   0.275   3.206   1.742 -0.4893 -0.0107  0.2512
 3307SOL    HW111521   0.247   3.119   1.781 -0.4191  0.8284  2.3220
 3307SOL    HW211522   0.328   3.257   1.809  1.2713  0.7788 -1.6376
 3308SOL     OW11523   0.081   2.511   2.401 -0.7354  0.2138  0.0208
 3308SOL    HW111524   0.095   2.423   2.356 -0.8345 -0.3703  1.0940
 3308SOL    HW211525  -0.006   2.509   2.451 -1.0826  1.1759 -0.5252
 3309SOL     OW11526   0.163   5.220   2.563  0.0784 -0.3777  0.0147
 3309SOL    HW111527   0.209   5.170   2.637 -1.1552 -1.9185 -0.2035
 3309SOL    HW211528   0.202   5.194   2.475  0.7588  0.5669  0.0276
 3310SOL     OW11529   0.720   2.061   3.664  0.2285  0.2287  1.2893
 3310SOL    HW111530   0.817   2.042   3.676  0.2147  0.7285  2.3207
 3310SOL    HW211531   0.699   2.068   3.567  1.6745  2.3279  1.0682
 3311SOL     OW11532   0.508   3.906   6.045  0.3825  0.0906 -0.1393
 3311SOL    HW111533   0.447   3.908   6.124  1.4214  2.6262  0.7019
 3311SOL    HW211534   0.460   3.869   5.966 -1.7136  0.5076  0.8902
 3312SOL     OW11535   6.312   6.974   6.154  0.3242  0.4728  0.1526
 3312SOL    HW111536   6.359   6.886   6.153  1.5169  1.0878  0.1177
 3312SOL    HW211537   6.308   7.009   6.248  0.4510  0.6873  0.0791
 3313SOL     OW11538   1.535   6.788   4.557  0.0594  0.7245 -0.5178
 3313SOL    HW111539   1.463   6.820   4.495 -0.0229  1.2889 -0.1330
 3313SOL    HW211540   1.610   6.854   4.558 -0.1248  0.9236  0.3058
 3314SOL     OW11541   1.438   1.927   3.603  0.1909  0.0540  0.4113
 3314SOL    HW111542   1.471   2.021   3.614  0.9463 -0.2180  0.5198
 3314SOL    HW211543   1.339   1.928   3.589  0.1426  0.8472  0.7421
 3315SOL     OW11544   4.444   1.089   6.887 -0.0350 -0.2750  0.2195
 3315SOL    HW111545   4.457   1.173   6.941  0.8716 -1.6979  2.3359
 3315SOL    HW211546   4.493   1.099   6.800 -2.8178  2.6865 -1.2409
 3316SOL     OW11547   5.178   0.890   1.031  0.2749 -0.2979  0.0714
 3316SOL    HW111548   5.085   0.852   1.031 -0.3794  1.0662  2.6594
 3316SOL    HW211549   5.238   0.829   1.082  0.8602 -1.1811 -1.6060
 3317SOL     OW11550   1.636   1.734   0.109  0.0840 -0.3089 -0.1205
 3317SOL    HW111551   1.724   1.766   0.075  0.8451 -1.1000  1.0149
 3317SOL    HW211552   1.576   1.813   0.127  1.0074  0.3306  0.2539
 3318SOL     OW11553   2.054   6.574   1.728  0.0898  0.2013  0.1168
 3318SOL    HW111554   1.958   6.603   1.725  0.1915  0.5922  0.5311
 3318SOL    HW211555   2.061   6.479   1.699 -0.2851  0.5073 -1.0502
 3319SOL     OW11556   2.710   1.810   3.679  0.5287  0.3753 -0.8341
 3319SOL    HW111557   2.702   1.747   3.602  1.9377 -0.1539 -0.5772
 3319SOL    HW211558   2.770   1.770   3.748 -0.7205  0.8167  0.5673
 3320SOL     OW11559   0.693   0.516   0.966  0.6818 -0.0821  0.6826
 3320SOL    HW111560   0.634   0.493   0.889  1.4013 -0.2738  0.1826
 3320SOL    HW211561   0.762   0.583   0.937 -0.3222  1.4666  1.6876
 3321SOL     OW11562   3.556   4.241   5.400 -0.1271  0.2993 -0.5241
 3321SOL    HW111563   3.548   4.340   5.384  0.2502  0.3480 -0.4092
 3321SOL    HW211564   3.609   4.224   5.482  1.2871 -0.0260 -1.4696
 3322SOL     OW11565   6.511   1.745   5.901 -0.2969 -0.7165  0.6212
 3322SOL    HW111566   6.508   1.789   5.991 -0.4294 -1.2243  0.8698
 3322SOL    HW211567   6.551   1.653   5.910 -0.6663 -0.9216  0.2272
 3323SOL     OW11568   0.108   5.381   4.009 -0.2723  0.3855 -0.1340
 3323SOL    HW111569   0.158   5.339   4.084 -0.7902  2.6006  1.5497
 3323SOL    HW211570   0.094   5.314   3.936  2.0508 -1.2599  0.8242
 3324SOL     OW11571   0.890   5.985   5.319  0.0730 -0.0726 -0.6016
 3324SOL    HW111572   0.861   5.967   5.225 -1.1131 -0.8838 -0.1083
 3324SOL    HW211573   0.916   5.899   5.362  1.7279  0.4358 -0.5178
 3325SOL     OW11574   6.644   6.997   6.717  0.6388 -0.1271  1.1094
 3325SOL    HW111575   6.676   7.017   6.810 -0.5803 -0.2128  1.5654
 3325SOL    HW211576   6.544   6.989   6.717  0.6615 -0.6370 -0.1208
 3326SOL     OW11577   4.413   6.528   0.346 -0.6689 -0.0149  0.4998
 3326SOL    HW111578   4.404   6.514   0.247  1.3753 -2.1468  0.5207
 3326SOL    HW211579   4.332   6.494   0.393 -0.7780 -0.9147 -0.3220
 3327SOL     OW11580   4.193   4.863   2.303 -0.0932 -0.1181  0.4545
 3327SOL    HW111581   4.203   4.962   2.293 -1.5695  0.2389  1.9868
 3327SOL    HW211582   4.176   4.842   2.399  0.5620 -1.9198  0.2098
 3328SOL     OW11583   5.032   4.737   0.221  0.1760  0.2139 -0.0506
 3328SOL    HW111584   4.942   4.745   0.178  0.2236  0.1183 -0.1660
 3328SOL    HW211585   5.104   4.755   0.154  0.2414  0.4001  0.0670
 3329SOL     OW11586   3.021   1.350   5.232 -0.2706  0.0627  0.1114
 3329SOL    HW111587   3.119   1.365   5.219 -0.4524  0.6548 -0.6975
 3329SOL    HW211588   2.977   1.338   5.142 -1.2003  1.5588  0.3415
 3330SOL     OW11589   0.953   0.666   4.208 -0.0317 -0.3758  0.1099
 3330SOL    HW111590   1.032   0.611   4.179 -0.8455 -0.6313 -1.7876
 3330SOL    HW211591   0.971   0.706   4.297  2.2392 -0.4362 -0.2628
 3331SOL     OW11592   0.395   2.901   2.809  0.1540 -0.6000  0.1183
 3331SOL    HW111593   0.377   2.926   2.714  1.2556  2.7889  0.6654
 3331SOL    HW211594   0.370   2.977   2.869  1.8870 -1.6308  2.2797
 3332SOL     OW11595   6.116   5.610   2.784  0.6011  0.3372 -0.2000
 3332SOL    HW111596   6.187   5.656   2.730  0.6893  1.3983  0.7682
 3332SOL    HW211597   6.052   5.564   2.723  1.8105 -0.1883 -1.1166
 3333SOL     OW11598   5.302   3.055   5.747 -0.1945 -0.1530 -0.0323
 3333SOL    HW111599   5.221   3.114   5.751  2.3976  3.8175 -0.0176
 3333SOL    HW211600   5.327   3.038   5.652 -2.1530 -3.3989 -0.1168
 3334SOL     OW11601   1.551   2.042   1.427  0.0187  0.4924  0.2468
 3334SOL    HW111602   1.459   2.081   1.428 -0.0445  0.3549 -0.1746
 3334SOL    HW211603   1.613   2.104   1.378  0.7119  1.8199  2.6095
 3335SOL     OW11604   2.298   1.767   4.717  0.0356  0.0401  0.2554
 3335SOL    HW111605   2.205   1.730   4.724 -1.0370  2.5648  0.3046
 3335SOL    HW211606   2.358   1.719   4.781 -1.3069 -1.3546  0.5295
 3336SOL     OW11607   0.754   5.130   2.876  0.1641 -0.2961  0.1806
 3336SOL    HW111608   0.808   5.214   2.881 -0.9161  0.3964  0.4603
 3336SOL    HW211609   0.748   5.088   2.966  1.3655 -1.1271 -0.0977
 3337SOL     OW11610   3.483   0.503   6.444  0.3806 -0.7166  0.0059
 3337SOL    HW111611   3.482   0.422   6.387  0.1225 -0.9971  0.4029
 3337SOL    HW211612   3.472   0.477   6.540 -0.2131 -0.1853  0.0948
 3338SOL     OW11613   6.746   0.661   1.950  0.1344  0.1682 -0.1620
 3338SOL    HW111614   6.712   0.598   2.020  2.0845  1.0717  1.7313
 3338SOL    HW211615   6.669   0.699   1.898 -1.3938 -0.5131  1.5119
 3339SOL     OW11616   6.536   3.644   0.529 -0.3544  0.0866 -0.1367
 3339SOL    HW111617   6.479   3.721   0.557 -2.3027 -1.3942  0.2446
 3339SOL    HW211618   6.541   3.578   0.604  1.2444 -0.1805 -0.4583
 3340SOL     OW11619   6.568   6.833   3.378  0.1270  0.1905  0.0428
 3340SOL    HW111620   6.615   6.920   3.394  0.8516 -0.1539 -0.1584
 3340SOL    HW211621   6.635   6.759   3.379 -0.0996 -0.1152 -2.1687
 3341SOL     OW11622   5.708   6.117   1.201 -0.4144  0.0898 -0.1385
 3341SOL    HW111623   5.638   6.131   1.272 -0.2672 -3.4472  0.9453
 3341SOL    HW211624   5.797   6.142   1.237 -0.6654  0.9582 -0.1088
 3342SOL     OW11625   5.354   4.153   6.174  0.6215  0.5830 -0.3284
 3342SOL    HW111626   5.420   4.147   6.249  1.4910  1.0588 -1.0366
 3342SOL    HW211627   5.339   4.249   6.151 -0.9214  0.5163  0.3330
 3343SOL     OW11628   0.853   1.482   6.358  0.1944 -0.4936  0.6195
 3343SOL    HW111629   0.793   1.403   6.372 -1.8892  0.7378 -0.7828
 3343SOL    HW211630   0.899   1.505   6.444 -2.2446 -0.8254  2.1093
 3344SOL     OW11631   3.823   0.029   6.763 -0.2576  0.2288  0.1776
 3344SOL    HW111632   3.887   0.025   6.840  1.4927 -0.3535 -1.2338
 3344SOL    HW211633   3.729   0.023   6.798  0.3466  1.8405  2.3885
 3345SOL     OW11634   0.648   3.399   1.828  0.0374  0.3064 -0.1451
 3345SOL    HW111635   0.702   3.348   1.895  0.1229  0.9554  0.2975
 3345SOL    HW211636   0.709   3.455   1.772 -0.1463  0.8840  0.2198
 3346SOL     OW11637   5.572   1.235   6.649  0.4312 -0.2330 -0.2399
 3346SOL    HW111638   5.649   1.180   6.681  0.9003 -0.5638 -1.8291
 3346SOL    HW211639   5.486   1.188   6.672  0.7959 -1.1789 -0.7344
 3347SOL     OW11640   1.550   6.441   2.436 -0.1944  0.5595  0.4505
 3347SOL    HW111641   1.626   6.387   2.401  0.9707  1.7094  1.1080
 3347SOL    HW211642   1.469   6.426   2.379  0.4193 -0.9498 -0.0546
 3348SOL     OW11643   3.293   5.423   2.663 -0.0161 -0.1735 -0.2316
 3348SOL    HW111644   3.272   5.360   2.738  0.5999 -0.1514 -0.0407
 3348SOL    HW211645   3.258   5.514   2.686  4.8396  1.3056  2.6178
 3349SOL     OW11646   4.073   6.842   0.173  0.4491 -0.4852  0.0763
 3349SOL    HW111647   4.081   6.891   0.260 -0.5745  0.9899 -0.6143
 3349SOL    HW211648   4.093   6.745   0.187 -1.8620 -0.7229  2.4167
 3350SOL     OW11649   4.389   2.166   0.489 -0.2144  0.6137  0.1708
 3350SOL    HW111650   4.453   2.240   0.511  0.2053  0.0996  0.6977
 3350SOL    HW211651   4.301   2.205   0.460 -0.2369  1.3237  1.1387
 3351SOL     OW11652   4.304   2.869   6.987  0.0920  0.1548 -0.4953
 3351SOL    HW111653   4.223   2.817   7.013 -0.7786  2.1346  0.9960
 3351SOL    HW211654   4.285   2.918   6.902  0.1403 -0.2375 -0.7368
 3352SOL     OW11655   2.977   5.184   4.187 -0.0048  0.0172 -0.1266
 3352SOL    HW111656   2.893   5.209   4.138 -1.1820  0.4101  1.9567
 3352SOL    HW211657   2.967   5.208   4.283  2.5784  0.1516  0.1604
 3353SOL     OW11658   1.852   5.095   2.196  0.2415  0.0527  0.6244
 3353SOL    HW111659   1.917   5.036   2.243 -0.5873 -0.6034  0.9701
 3353SOL    HW211660   1.766   5.096   2.246 -1.4851 -2.4820 -1.9813
 3354SOL     OW11661   5.320   0.489   1.749  0.4026 -0.1008  0.3052
 3354SOL    HW111662   5.294   0.393   1.734 -1.2444  0.2448  0.7095
 3354SOL    HW211663   5.320   0.537   1.661 -1.4212  0.1075  0.3733
 3355SOL     OW11664   3.396   6.565   4.415  0.4068 -0.1975  0.0089
 3355SOL    HW111665   3.430   6.658   4.398  0.5940 -0.3876 -0.6842
 3355SOL    HW211666   3.298   6.562   4.397  0.5793 -0.3662 -0.9764
 3356SOL     OW11667   0.026   0.029   6.189  0.0182 -0.2183  0.1493
 3356SOL    HW111668   0.026   0.115   6.137  0.0612 -0.5771 -0.4571
 3356SOL    HW211669   0.062   0.046   6.281  1.1083  0.1999 -0.3320
 3357SOL     OW11670   3.508   2.968   0.959 -0.0137  0.2980 -0.1836
 3357SOL    HW111671   3.606   2.952   0.973 -0.3643 -0.1028  2.2270
 3357SOL    HW211672   3.465   2.883   0.925  0.1896 -0.0587  0.4437
 3358SOL     OW11673   0.320   0.939   6.303 -0.3260  0.3375  0.3858
 3358SOL    HW111674   0.288   0.897   6.388  0.0632 -0.9577 -0.0981
 3358SOL    HW211675   0.325   1.039   6.316 -0.7685  0.2123  1.7059
 3359SOL     OW11676   2.169   4.756   1.213  0.3488 -0.7913 -0.1172
 3359SOL    HW111677   2.116   4.814   1.151 -0.7654  0.2849  1.7478
 3359SOL    HW211678   2.265   4.783   1.210  0.4310 -1.1818 -1.7970
 3360SOL     OW11679   0.546   5.220   1.694 -0.4846  0.1378 -0.2053
 3360SOL    HW111680   0.573   5.261   1.781  1.6213  0.4681 -0.9781
 3360SOL    HW211681   0.535   5.121   1.706  0.7043  0.0496  0.2341
 3361SOL     OW11682   3.311   1.358   1.183 -0.2800 -0.1364 -0.1663
 3361SOL    HW111683   3.328   1.453   1.158  1.6552 -0.2956  0.3629
 3361SOL    HW211684   3.213   1.343   1.193 -0.6043  1.8944  0.0995
 3362SOL     OW11685   0.752   4.896   0.929 -0.0108  0.2498 -0.3782
 3362SOL    HW111686   0.778   4.969   0.865  0.2927  0.2999 -0.2018
 3362SOL    HW211687   0.814   4.898   1.008  0.0178 -0.2216 -0.3887
 3363SOL     OW11688   1.730   4.357   1.966  0.1417  0.1995  0.1377
 3363SOL    HW111689   1.764   4.441   1.924 -0.3931  0.6756  0.6292
 3363SOL    HW211690   1.661   4.315   1.907 -0.9915  1.1453  0.7399
 3364SOL     OW11691   2.675   0.087   1.332 -1.1876 -0.4648 -0.3689
 3364SOL    HW111692   2.642   0.102   1.426 -2.0515  0.4764 -0.8111
 3364SOL    HW211693   2.665  -0.010   1.309 -0.4882 -0.8078  0.6778
 3365SOL     OW11694   6.332   1.837   1.285 -0.1302 -0.6088 -0.6737
 3365SOL    HW111695   6.396   1.904   1.246  0.1144  0.0216  0.7437
 3365SOL    HW211696   6.308   1.865   1.378 -0.2842 -2.3313 -0.1666
 3366SOL     OW11697   5.172   1.026   4.294  0.4110 -0.0523 -0.0480
 3366SOL    HW111698   5.163   1.082   4.212 -2.0258 -1.5174 -0.8791
 3366SOL    HW211699   5.143   0.932   4.274 -1.5237 -0.1778  2.7340
 3367SOL     OW11700   1.574   2.478   3.612 -0.0055 -0.4378 -0.7307
 3367SOL    HW111701   1.496   2.455   3.554 -0.4134 -0.4023 -0.2039
 3367SOL    HW211702   1.653   2.499   3.554 -1.4534  3.8094 -1.5373
 3368SOL     OW11703   1.104   0.023   5.856 -0.1805  0.4284  0.1666
 3368SOL    HW111704   1.106   0.046   5.759  1.0404  0.7141  0.2477
 3368SOL    HW211705   1.124  -0.074   5.868 -1.6422  0.0985  0.0620
 3369SOL     OW11706   3.871   3.830   2.071  0.6180  0.6282 -0.1134
 3369SOL    HW111707   3.851   3.878   1.986 -2.1984  0.1697  0.1896
 3369SOL    HW211708   3.842   3.885   2.149 -0.3542 -0.5013  0.3499
 3370SOL     OW11709   5.184   4.458   1.834 -0.6304 -0.0075 -0.0046
 3370SOL    HW111710   5.118   4.505   1.776 -0.1228 -0.3324 -0.8655
 3370SOL    HW211711   5.266   4.437   1.781  1.6647  3.3872  1.8013
 3371SOL     OW11712   6.631   3.263   6.110  0.2579 -0.2667 -0.0583
 3371SOL    HW111713   6.640   3.189   6.177 -1.3554 -1.3411 -0.9663
 3371SOL    HW211714   6.534   3.278   6.089  0.4666  2.6770  0.6759
 3372SOL     OW11715   1.230   3.943   5.033 -0.1661 -0.4074 -0.2036
 3372SOL    HW111716   1.330   3.946   5.027  0.0599 -1.4613  1.9586
 3372SOL    HW211717   1.192   3.924   4.943  1.6643 -1.2778 -0.8481
 3373SOL     OW11718   6.744   2.436   1.833 -0.1476  0.2110  0.2221
 3373SOL    HW111719   6.662   2.480   1.797  0.9277  2.0379 -0.1347
 3373SOL    HW211720   6.743   2.439   1.933 -1.4555 -1.6696  0.3197
 3374SOL     OW11721   0.903   2.602   5.227  0.0557  0.2266 -0.4701
 3374SOL    HW111722   1.000   2.608   5.204 -0.1203  1.1299 -1.0202
 3374SOL    HW211723   0.893   2.597   5.326  0.6236  1.4786 -0.3239
 3375SOL     OW11724   1.049   5.788   2.507 -0.0304  0.2468  1.0217
 3375SOL    HW111725   1.146   5.809   2.494 -0.4727  3.2629  1.8328
 3375SOL    HW211726   1.037   5.741   2.595  0.8042 -1.9252  0.0605
 3376SOL     OW11727   4.267   3.033   0.513  0.3363  0.3308 -0.2873
 3376SOL    HW111728   4.206   3.111   0.498 -0.6413 -0.5036 -0.7674
 3376SOL    HW211729   4.344   3.038   0.449 -1.0410 -0.3995 -2.0764
 3377SOL     OW11730   0.903   2.761   2.019  0.7004  0.2038  0.2137
 3377SOL    HW111731   0.907   2.732   1.924 -1.2599  0.8024 -0.0852
 3377SOL    HW211732   0.995   2.757   2.058  1.8066  1.2886 -2.0860
 3378SOL     OW11733   3.492   1.256   1.407  0.6295 -0.0843 -0.0309
 3378SOL    HW111734   3.406   1.222   1.444  0.3325 -0.5934 -1.1576
 3378SOL    HW211735   3.505   1.351   1.436 -1.6735  0.9576 -2.0116
 3379SOL     OW11736   5.457   0.561   0.249 -0.5429 -0.0801 -0.4183
 3379SOL    HW111737   5.368   0.604   0.259 -0.4128  0.3196 -0.9624
 3379SOL    HW211738   5.449   0.463   0.269 -0.6072  0.3545  2.0840
 3380SOL     OW11739   3.626   0.245   2.811 -0.1892  0.2789  0.2871
 3380SOL    HW111740   3.639   0.333   2.766  0.9490  0.5720  1.1465
 3380SOL    HW211741   3.560   0.254   2.886  0.8483  0.7112  1.1725
 3381SOL     OW11742   2.026   3.124   3.109 -0.4550 -0.5923 -0.1073
 3381SOL    HW111743   2.020   3.064   3.189  0.7246 -1.1723 -0.4211
 3381SOL    HW211744   2.119   3.118   3.070 -0.0017  2.1377  0.3885
 3382SOL     OW11745   2.447   5.032   6.678  0.7204 -0.2348  0.2357
 3382SOL    HW111746   2.532   5.082   6.694  0.7145  0.2018 -1.0246
 3382SOL    HW211747   2.461   4.935   6.697  0.8924  0.1244  2.1430
 3383SOL     OW11748   3.349   4.952   0.312 -0.6438  0.2574 -1.3103
 3383SOL    HW111749   3.426   4.909   0.264 -0.5892 -0.8980 -0.2597
 3383SOL    HW211750   3.381   5.034   0.359 -0.3272  0.4442 -1.8377
 3384SOL     OW11751   0.692   0.098   4.010  0.6199  0.8454  0.6730
 3384SOL    HW111752   0.635   0.085   3.928  0.6141  0.2350  0.7742
 3384SOL    HW211753   0.646   0.057   4.089  1.1857  0.3797  0.7620
 3385SOL     OW11754   5.374   4.033   3.414  0.3931  0.3570 -0.4257
 3385SOL    HW111755   5.327   3.945   3.418 -0.8540  1.0266  0.0364
 3385SOL    HW211756   5.443   4.036   3.487 -0.6851  0.3850  0.6140
 3386SOL     OW11757   2.490   2.911   5.742 -0.2401  0.2445 -0.4010
 3386SOL    HW111758   2.541   2.931   5.826 -0.9076 -0.4077  0.1715
 3386SOL    HW211759   2.535   2.955   5.665  1.8032 -1.1686 -0.0777
 3387SOL     OW11760   2.043   1.625   3.714 -0.0103 -0.6178  0.4915
 3387SOL    HW111761   1.957   1.663   3.747  0.1553 -1.6684  2.2377
 3387SOL    HW211762   2.119   1.666   3.764  0.5719  0.3875 -1.1141
 3388SOL     OW11763   6.398   3.327   5.991 -0.0870  0.9703  0.0580
 3388SOL    HW111764   6.353   3.380   5.919 -0.3867  1.2159  0.4256
 3388SOL    HW211765   6.385   3.229   5.973  1.8809  0.9390 -1.5442
 3389SOL     OW11766   5.529   0.982   3.078 -0.9236  0.4957 -0.1766
 3389SOL    HW111767   5.502   1.073   3.109 -0.3495  0.5019  0.3131
 3389SOL    HW211768   5.454   0.917   3.096 -0.9680  0.6876  0.3336
 3390SOL     OW11769   6.068   6.042   6.962  0.1822 -0.0304  0.4860
 3390SOL    HW111770   6.011   6.104   7.016  0.7610  1.5003 -0.5926
 3390SOL    HW211771   6.012   5.965   6.931 -0.8398  0.4945  0.9711
 3391SOL     OW11772   5.125   1.051   0.778  0.0487  0.5497  0.5537
 3391SOL    HW111773   5.160   1.105   0.701  1.5402  0.0641  0.8470
 3391SOL    HW211774   5.190   1.057   0.854 -0.3885 -0.6385  1.0371
 3392SOL     OW11775   5.577   6.672   0.397  0.0924  0.1360  0.0813
 3392SOL    HW111776   5.546   6.735   0.468  0.2136 -0.2721  0.4999
 3392SOL    HW211777   5.553   6.708   0.307  0.6965  1.0785  0.2837
 3393SOL     OW11778   1.432   6.044   1.111 -0.0560 -0.1715 -0.4348
 3393SOL    HW111779   1.529   6.031   1.131 -0.6425 -1.6637  1.8511
 3393SOL    HW211780   1.398   5.966   1.058 -0.6157 -1.3707  1.5446
 3394SOL     OW11781   0.079   1.477   0.736  0.3330 -0.3081 -0.2589
 3394SOL    HW111782   0.012   1.465   0.663  0.1374 -0.3545 -0.0695
 3394SOL    HW211783   0.112   1.388   0.767  0.2297 -0.2976 -0.1168
 3395SOL     OW11784   0.807   4.905   4.926 -0.2400 -0.1619 -0.0280
 3395SOL    HW111785   0.881   4.909   4.859 -1.1058  1.4236 -0.9607
 3395SOL    HW211786   0.772   4.812   4.932 -0.0599 -0.3663 -1.6971
 3396SOL     OW11787   3.298   1.570   2.326 -0.3345  0.1486  0.0331
 3396SOL    HW111788   3.293   1.668   2.342  1.5706  0.5421 -1.4964
 3396SOL    HW211789   3.391   1.538   2.342 -1.0973 -1.6067  1.3530
 3397SOL     OW11790   0.659   3.164   5.384 -0.0520 -0.1846 -0.1886
 3397SOL    HW111791   0.588   3.234   5.373  0.1127  0.1474  0.7802
 3397SOL    HW211792   0.673   3.117   5.296 -0.7209  0.4549 -0.6538
 3398SOL     OW11793   4.260   4.612   0.437  0.1415 -0.0934 -0.0111
 3398SOL    HW111794   4.205   4.691   0.409 -1.0125 -0.8552  0.0721
 3398SOL    HW211795   4.352   4.644   0.463  0.6445  0.9083 -2.6413
 3399SOL     OW11796   1.532   2.160   3.984  0.2138  0.4658 -0.1965
 3399SOL    HW111797   1.477   2.181   3.903 -0.1335 -1.1156 -0.3942
 3399SOL    HW211798   1.480   2.183   4.067 -1.0807 -1.6298 -0.3625
 3400SOL     OW11799   1.168   2.757   5.297 -0.1400  0.6305 -0.2094
 3400SOL    HW111800   1.085   2.787   5.249 -0.7005  0.6580  0.7664
 3400SOL    HW211801   1.247   2.769   5.236 -0.9613 -0.3200 -1.5029
 3401SOL     OW11802   5.619   1.133   2.406 -0.3032 -0.1647  0.7441
 3401SOL    HW111803   5.568   1.098   2.484  0.3781 -0.2488  1.1550
 3401SOL    HW211804   5.628   1.233   2.414 -0.3441 -0.1576  0.7040
 3402SOL     OW11805   1.388   5.687   4.816 -0.2120 -0.4125 -0.2035
 3402SOL    HW111806   1.298   5.685   4.773 -0.3301  3.7018 -0.5495
 3402SOL    HW211807   1.377   5.694   4.916 -0.2497 -0.6061 -0.1939
 3403SOL     OW11808   1.377   2.182   2.412  0.1234 -0.0543 -0.0576
 3403SOL    HW111809   1.285   2.204   2.380 -0.6269  0.2030  2.1465
 3403SOL    HW211810   1.382   2.084   2.433 -0.4281  0.3383  2.0870
 3404SOL     OW11811   5.100   2.826   4.878  0.0068 -0.1327  0.8754
 3404SOL    HW111812   5.007   2.828   4.917  0.1037  1.0445  1.0732
 3404SOL    HW211813   5.109   2.746   4.818 -2.3071  1.5282 -1.9633
 3405SOL     OW11814   6.128   5.599   3.211 -0.7718 -0.4043  0.2111
 3405SOL    HW111815   6.178   5.647   3.139 -1.2382 -1.1532 -0.6427
 3405SOL    HW211816   6.192   5.551   3.270 -0.3227  0.9573  0.8730
 3406SOL     OW11817   6.388   6.002   2.721  0.1936  0.0227 -0.3907
 3406SOL    HW111818   6.449   5.994   2.800  0.2130  0.3278 -0.3743
 3406SOL    HW211819   6.304   6.046   2.749 -0.1217 -0.5786 -0.3702
 3407SOL     OW11820   5.241   2.556   2.101  0.4150  0.1872  0.1098
 3407SOL    HW111821   5.175   2.623   2.133  1.3933  1.5059 -0.5177
 3407SOL    HW211822   5.194   2.483   2.051 -0.4891  1.6633 -1.2762
 3408SOL     OW11823   1.429   1.496   6.397 -0.4194 -0.4348 -0.0670
 3408SOL    HW111824   1.495   1.424   6.377  1.7845  1.6909 -0.8795
 3408SOL    HW211825   1.452   1.578   6.346  0.0098  2.4032  4.1931
 3409SOL     OW11826   4.406   1.788   2.561 -0.2820 -0.2846 -0.6074
 3409SOL    HW111827   4.394   1.820   2.655 -1.1506 -1.0638 -0.4477
 3409SOL    HW211828   4.327   1.734   2.533  0.7341 -1.5292 -1.1914
 3410SOL     OW11829   1.582   4.292   3.296  0.4475  0.3492  0.6785
 3410SOL    HW111830   1.511   4.320   3.231  0.0166 -0.5311  0.7465
 3410SOL    HW211831   1.587   4.358   3.371  0.2548  0.8441  0.2636
 3411SOL     OW11832   0.159   4.988   5.669  0.0276 -0.4642 -1.1332
 3411SOL    HW111833   0.074   4.942   5.691  0.0891 -0.3483 -0.6276
 3411SOL    HW211834   0.214   4.931   5.607 -0.5557 -0.3904 -1.7225
 3412SOL     OW11835   3.456   4.349   0.234  0.0315 -0.1416 -0.3487
 3412SOL    HW111836   3.382   4.305   0.184  0.6529 -0.9624 -0.5767
 3412SOL    HW211837   3.519   4.392   0.170  0.1376 -0.0783 -0.2023
 3413SOL     OW11838   5.627   4.016   1.258  0.1765  0.2467  0.2845
 3413SOL    HW111839   5.698   3.961   1.212 -1.4216 -1.7346  0.0358
 3413SOL    HW211840   5.566   4.056   1.189  1.3400  2.4917  0.4612
 3414SOL     OW11841   5.595   4.605   2.250  0.6744 -0.0739  0.6570
 3414SOL    HW111842   5.688   4.638   2.238  0.3485  0.7776  0.3643
 3414SOL    HW211843   5.540   4.632   2.171  0.7652 -2.7953 -0.4388
 3415SOL     OW11844   0.418   0.708   5.956  0.6612  0.8165  0.5404
 3415SOL    HW111845   0.468   0.774   6.013  1.3478 -0.1748  1.1053
 3415SOL    HW211846   0.451   0.616   5.975 -1.8676  0.0226  1.4938
 3416SOL     OW11847   3.982   5.053   0.211  0.3571 -0.2128 -0.0990
 3416SOL    HW111848   3.928   5.084   0.289  1.0838  0.9350 -0.0113
 3416SOL    HW211849   4.050   5.124   0.189 -0.0490 -0.3668 -1.9746
 3417SOL     OW11850   0.144   3.028   4.812  0.6643  0.3941 -0.1651
 3417SOL    HW111851   0.063   3.076   4.846  1.2878  1.2670  0.1250
 3417SOL    HW211852   0.139   2.932   4.839 -0.9878  0.0780 -1.4133
 3418SOL     OW11853   3.979   2.751   6.868  0.5432  0.1146 -0.5897
 3418SOL    HW111854   4.051   2.684   6.850  0.2345 -0.5908  0.6595
 3418SOL    HW211855   4.019   2.843   6.866  1.7288 -0.3074  1.0291
 3419SOL     OW11856   4.367   1.289   2.427  0.1245  0.1865 -0.0129
 3419SOL    HW111857   4.417   1.351   2.487 -0.2170  1.5620 -1.0804
 3419SOL    HW211858   4.413   1.284   2.338 -0.0365 -0.8439 -0.0458
 3420SOL     OW11859   4.521   0.694   5.236 -0.7762 -0.4721 -0.2458
 3420SOL    HW111860   4.526   0.778   5.181 -0.0624  0.3386  0.9920
 3420SOL    HW211861   4.600   0.637   5.217 -0.0866  0.1978  0.4947
 3421SOL     OW11862   2.171   3.712   0.612 -0.8827 -0.1134  0.2195
 3421SOL    HW111863   2.091   3.769   0.630 -0.9172 -0.6375  1.9126
 3421SOL    HW211864   2.209   3.735   0.522 -2.2646  0.9114 -0.1372
 3422SOL     OW11865   3.406   6.075   6.249 -0.2237  0.0367 -0.7701
 3422SOL    HW111866   3.360   6.022   6.320 -0.2667  1.9118  0.7085
 3422SOL    HW211867   3.362   6.165   6.242  2.2567  1.3638 -0.3367
 3423SOL     OW11868   1.878   2.873   3.912  0.0496 -0.4394  0.4372
 3423SOL    HW111869   1.834   2.926   3.985  0.3316  2.3109 -1.2596
 3423SOL    HW211870   1.976   2.894   3.911 -0.0279 -0.0841 -0.9796
 3424SOL     OW11871   1.920   1.045   0.494  0.4642 -0.0859 -0.2779
 3424SOL    HW111872   1.848   0.982   0.524  1.7838 -1.7667 -0.4394
 3424SOL    HW211873   1.879   1.132   0.467 -1.4912 -0.9428 -0.2905
 3425SOL     OW11874   0.115   6.889   5.991 -0.0805  0.7483 -0.1810
 3425SOL    HW111875   0.062   6.947   6.052 -1.4063 -1.2254  0.6250
 3425SOL    HW211876   0.138   6.941   5.908 -1.7432  2.2231  0.2134
 3426SOL     OW11877   4.209   6.335   2.427 -0.7608 -0.7866 -0.5600
 3426SOL    HW111878   4.301   6.373   2.421 -0.8373 -0.6919 -1.1336
 3426SOL    HW211879   4.177   6.309   2.336 -1.4114 -0.5614 -0.3991
 3427SOL     OW11880   1.671   3.247   1.852  0.2751  0.2748 -0.1017
 3427SOL    HW111881   1.683   3.149   1.864  2.0603  0.1993 -2.0197
 3427SOL    HW211882   1.760   3.291   1.840 -0.5746  1.9264 -0.7264
 3428SOL     OW11883   1.293   5.440   3.072 -0.2728  0.6778  0.1409
 3428SOL    HW111884   1.338   5.487   2.996 -0.5426 -0.0367 -0.4766
 3428SOL    HW211885   1.356   5.434   3.150  0.8477 -0.5863 -0.8127
 3429SOL     OW11886   2.761   5.012   1.957 -0.7236 -0.3011 -0.2405
 3429SOL    HW111887   2.725   5.105   1.961 -0.6395 -0.2988  0.6503
 3429SOL    HW211888   2.835   5.002   2.023 -1.7095 -1.4048  0.7468
 3430SOL     OW11889   1.023   4.560   0.946 -0.7103  0.2712  0.2042
 3430SOL    HW111890   0.989   4.477   0.991  0.3654 -0.6646 -0.6451
 3430SOL    HW211891   1.014   4.638   1.008 -3.8184  0.0079  0.2737
 3431SOL     OW11892   4.768   2.614   0.450 -0.3546  0.8958  0.2116
 3431SOL    HW111893   4.827   2.551   0.499  3.3547  3.8189  0.0330
 3431SOL    HW211894   4.726   2.678   0.515 -0.0353  1.2616  0.0669
 3432SOL     OW11895   4.456   1.553   3.024  0.3595 -0.4171 -0.0906
 3432SOL    HW111896   4.498   1.463   3.031  1.5228  0.2289  2.5173
 3432SOL    HW211897   4.396   1.556   2.944  0.9373 -3.1933 -0.7285
 3433SOL     OW11898   0.780   5.736   5.606 -0.6256  0.1450  0.1263
 3433SOL    HW111899   0.817   5.725   5.698 -0.4552  2.8490  0.4807
 3433SOL    HW211900   0.855   5.735   5.540 -0.4616  0.5824  0.2982
 3434SOL     OW11901   0.845   5.890   6.452 -0.0070  0.3681 -0.1631
 3434SOL    HW111902   0.879   5.931   6.367  0.2408  1.2399  0.3502
 3434SOL    HW211903   0.746   5.879   6.446 -0.0046  0.5321 -0.5231
 3435SOL     OW11904   2.223   7.006   1.647 -0.1358 -0.0365 -0.5694
 3435SOL    HW111905   2.271   7.083   1.605 -1.4280  1.6267  0.8489
 3435SOL    HW211906   2.125   7.012   1.625 -0.8214  0.7527  2.2918
 3436SOL     OW11907   4.077   4.638   2.483  0.1870 -0.1217  0.0207
 3436SOL    HW111908   4.079   4.562   2.419 -0.7868 -0.8056  0.7636
 3436SOL    HW211909   4.163   4.643   2.533  0.4541 -0.3884 -0.4071
 3437SOL     OW11910   0.273   3.849   1.601  0.3616  0.6560  0.6170
 3437SOL    HW111911   0.372   3.859   1.603  0.4611  0.1444 -0.6758
 3437SOL    HW211912   0.239   3.835   1.694  1.6539 -0.5842  0.9305
 3438SOL     OW11913   3.183   0.216   1.744  0.3596  0.2927 -0.0216
 3438SOL    HW111914   3.189   0.123   1.780  0.7813 -0.5892 -2.2435
 3438SOL    HW211915   3.171   0.280   1.820  0.5062 -1.5105  1.5946
 3439SOL     OW11916   1.102   1.547   2.563 -0.1971  0.5853 -0.0604
 3439SOL    HW111917   1.056   1.629   2.597  0.0657  0.9193 -0.5012
 3439SOL    HW211918   1.079   1.534   2.466  0.6052  0.7398 -0.2767
 3440SOL     OW11919   4.188   3.598   6.669 -0.3093  0.0556 -0.1525
 3440SOL    HW111920   4.273   3.643   6.642 -0.0217 -0.2427  0.2603
 3440SOL    HW211921   4.148   3.552   6.589  0.8040 -1.2518  0.0051
 3441SOL     OW11922   5.008   6.609   2.326  0.0040 -0.4114 -0.5279
 3441SOL    HW111923   4.926   6.666   2.323  0.6322  0.6402  1.1921
 3441SOL    HW211924   5.018   6.561   2.239 -1.5012  0.7378 -1.3782
 3442SOL     OW11925   6.547   4.076   5.698  0.3017 -0.3190  0.1734
 3442SOL    HW111926   6.450   4.054   5.706  0.3455 -0.8298 -0.5965
 3442SOL    HW211927   6.602   3.994   5.716  0.5508 -0.2631 -0.3042
 3443SOL     OW11928   0.410   0.457   1.538  0.3732 -0.8716 -0.4526
 3443SOL    HW111929   0.403   0.359   1.557 -0.5642 -0.4229  1.7655
 3443SOL    HW211930   0.449   0.504   1.617 -2.5505  0.9914  0.0350
 3444SOL     OW11931   4.820   5.476   5.042  0.4850  0.0225  0.3915
 3444SOL    HW111932   4.765   5.403   5.082  0.7677 -0.7290 -0.5722
 3444SOL    HW211933   4.912   5.473   5.081  0.5338 -0.2233  0.2608
 3445SOL     OW11934   1.302   6.572   4.105  0.0935 -0.4857  0.0145
 3445SOL    HW111935   1.369   6.646   4.097 -1.3044  0.9562  1.0961
 3445SOL    HW211936   1.317   6.523   4.190 -1.2905  1.0155  1.1821
 3446SOL     OW11937   6.621   1.444   2.655  0.1786 -0.2187  0.6697
 3446SOL    HW111938   6.690   1.470   2.588 -2.0053 -0.9226 -2.0417
 3446SOL    HW211939   6.601   1.346   2.645 -2.6841  0.3658 -0.2388
 3447SOL     OW11940   5.349   4.431   1.583 -0.5274 -0.5334  0.1705
 3447SOL    HW111941   5.346   4.349   1.525  0.8874 -0.9357  0.6162
 3447SOL    HW211942   5.391   4.506   1.533  1.5012 -1.1218  0.8789
 3448SOL     OW11943   2.118   1.295   6.684 -0.0570  0.7431 -0.1323
 3448SOL    HW111944   2.038   1.343   6.648 -0.1242  1.5538  1.0536
 3448SOL    HW211945   2.172   1.357   6.740  0.9189 -0.0525 -0.1558
 3449SOL     OW11946   0.824   0.515   6.109  0.0751  0.7718 -0.0077
 3449SOL    HW111947   0.880   0.467   6.176  0.4060  1.6909  0.3953
 3449SOL    HW211948   0.875   0.593   6.072  0.5074 -0.6147 -2.5194
 3450SOL     OW11949   5.548   6.071   0.944 -0.2346 -0.5393  0.7491
 3450SOL    HW111950   5.556   6.072   1.044 -3.4933 -0.9860  1.1273
 3450SOL    HW211951   5.590   5.987   0.908  1.4885 -0.1035  1.6101
 3451SOL     OW11952   3.684   3.365   3.220  0.2007 -0.0466 -0.4628
 3451SOL    HW111953   3.731   3.453   3.209  0.5497 -0.4591 -2.6910
 3451SOL    HW211954   3.694   3.311   3.137 -0.3836 -2.0473  0.7068
 3452SOL     OW11955   4.723   6.333   0.601  0.0865 -0.0818 -0.7455
 3452SOL    HW111956   4.799   6.312   0.662 -2.7606 -2.3612  2.3382
 3452SOL    HW211957   4.710   6.257   0.537 -1.7870 -1.5643  1.2731
 3453SOL     OW11958   5.465   5.330   4.401 -0.2190  0.7672 -0.0379
 3453SOL    HW111959   5.528   5.287   4.465 -0.2567  1.2841  0.3544
 3453SOL    HW211960   5.517   5.379   4.331 -0.1798  0.7142 -0.0452
 3454SOL     OW11961   2.326   0.590   6.916  0.4437  0.5538  0.2111
 3454SOL    HW111962   2.387   0.609   6.839  0.0862  1.0177  0.0407
 3454SOL    HW211963   2.306   0.676   6.964  1.1130  0.1969  1.1573
 3455SOL     OW11964   2.486   1.170   3.279 -0.5166 -0.4747 -0.1799
 3455SOL    HW111965   2.490   1.246   3.215  0.6774  0.6353  1.1599
 3455SOL    HW211966   2.395   1.168   3.322  0.4459  2.5376  2.4028
 3456SOL     OW11967   1.015   2.421   6.625  0.0221 -0.6559 -0.1500
 3456SOL    HW111968   0.978   2.421   6.718 -0.6955 -0.5424 -0.4318
 3456SOL    HW211969   0.944   2.390   6.561  0.0875  0.5299 -0.8257
 3457SOL     OW11970   0.881   5.191   6.126  0.1866 -0.0369  0.7871
 3457SOL    HW111971   0.957   5.232   6.076  0.2011 -0.9072  0.0749
 3457SOL    HW211972   0.916   5.120   6.188 -0.0844 -0.9031 -0.0255
 3458SOL     OW11973   2.015   6.851   6.016  0.4727 -0.2649  0.3633
 3458SOL    HW111974   2.105   6.857   5.973 -0.8264 -0.4162 -2.6207
 3458SOL    HW211975   2.002   6.759   6.054  1.1826 -0.5821 -0.1427
 3459SOL     OW11976   6.392   4.810   4.897  0.3209 -0.6634 -0.0350
 3459SOL    HW111977   6.363   4.727   4.943  1.1987 -0.4539  0.9269
 3459SOL    HW211978   6.462   4.788   4.828  2.2152 -0.5171  1.7515
 3460SOL     OW11979   0.524   4.398   4.993 -0.2152  0.5014 -0.4599
 3460SOL    HW111980   0.528   4.300   5.015 -2.8039  0.4580  0.1317
 3460SOL    HW211981   0.462   4.412   4.916 -1.9742  1.8535  1.1127
 3461SOL     OW11982   1.949   5.126   5.223 -1.0266  0.0801  0.3309
 3461SOL    HW111983   1.887   5.051   5.247  0.2672 -0.1745  3.2871
 3461SOL    HW211984   1.896   5.210   5.212 -2.1366 -0.5961  0.3159
 3462SOL     OW11985   4.932   6.049   0.953 -0.0520 -0.0902 -0.5504
 3462SOL    HW111986   4.902   5.954   0.955  2.4453 -0.9675 -0.4301
 3462SOL    HW211987   5.029   6.052   0.928 -0.1476  2.4684 -0.8581
 3463SOL     OW11988   0.566   5.813   0.596 -0.0319 -0.3035  0.0629
 3463SOL    HW111989   0.552   5.778   0.504  0.2975 -0.6148  0.1259
 3463SOL    HW211990   0.544   5.910   0.599 -0.1886 -0.3272 -0.3077
 3464SOL     OW11991   3.049   1.358   6.021 -0.1735  0.2475 -0.2646
 3464SOL    HW111992   3.073   1.323   6.111 -0.1832  0.9933  0.0411
 3464SOL    HW211993   3.115   1.327   5.954 -0.7573 -1.1895 -0.2045
 3465SOL     OW11994   5.254   3.061   6.013 -0.1847 -0.4297 -0.0602
 3465SOL    HW111995   5.289   3.072   5.920 -0.3431 -0.9887 -0.1889
 3465SOL    HW211996   5.228   2.965   6.028 -1.6866 -0.0401  0.0217
 3466SOL     OW11997   1.760   1.154   5.605 -0.6721 -0.1674  0.2196
 3466SOL    HW111998   1.777   1.144   5.703 -0.2481  1.0166  0.2821
 3466SOL    HW211999   1.763   1.251   5.580 -0.6375 -0.4620 -0.9961
 3467SOL     OW12000   0.392   1.372   4.837  0.8630 -0.1518  0.4492
 3467SOL    HW112001   0.444   1.383   4.921  1.0871 -0.4268  0.3481
 3467SOL    HW212002   0.443   1.314   4.773 -0.4435 -2.1484  1.1122
 3468SOL     OW12003   6.145   2.847   6.780 -0.2038  0.1790 -0.5071
 3468SOL    HW112004   6.120   2.752   6.764  0.3715  0.1775 -1.4827
 3468SOL    HW212005   6.182   2.857   6.873  3.0015 -1.2805 -1.5039
 3469SOL     OW12006   1.521   6.213   4.660 -1.1811 -0.1457  0.3596
 3469SOL    HW112007   1.575   6.291   4.690 -1.6516 -1.1374  4.4445
 3469SOL    HW212008   1.578   6.131   4.659 -1.4769 -0.3463 -0.3209
 3470SOL     OW12009   2.829   3.795   1.456  0.2485  0.1859  0.2166
 3470SOL    HW112010   2.743   3.799   1.505 -0.0247 -1.4810 -0.0457
 3470SOL    HW212011   2.815   3.752   1.367  0.9568  2.0060 -0.8179
 3471SOL     OW12012   5.145   2.150   7.020  0.1346  0.6206 -0.6499
 3471SOL    HW112013   5.183   2.211   6.951  2.9043  2.0065  1.8870
 3471SOL    HW212014   5.104   2.203   7.094  0.7877 -0.5913  0.6485
 3472SOL     OW12015   0.029   5.512   1.789  0.3222  0.4647 -0.0998
 3472SOL    HW112016  -0.021   5.430   1.762 -0.0618  1.0467 -1.2541
 3472SOL    HW212017   0.127   5.496   1.783  0.2435  0.4200 -1.4125
 3473SOL     OW12018   5.763   3.007   3.535 -0.3811  0.3736 -0.5609
 3473SOL    HW112019   5.717   2.920   3.554 -2.0455  1.2166 -0.6459
 3473SOL    HW212020   5.767   3.062   3.618 -1.5471  1.2305 -1.0550
 3474SOL     OW12021   3.109   2.020   5.369  0.3162 -0.8133 -0.0951
 3474SOL    HW112022   3.102   2.110   5.413  0.3406 -0.8974  0.0840
 3474SOL    HW212023   3.022   1.971   5.381  0.3878 -0.9111  0.0241
 3475SOL     OW12024   4.676   5.297   5.245 -0.1112 -0.1418 -0.2944
 3475SOL    HW112025   4.654   5.232   5.172 -2.8225 -1.6872  1.7155
 3475SOL    HW212026   4.612   5.374   5.243 -1.4008 -1.0871  1.3840
 3476SOL     OW12027   1.026   2.418   0.870 -0.0347  0.1173 -0.3571
 3476SOL    HW112028   1.065   2.334   0.833  0.9050  0.1726  0.4602
 3476SOL    HW212029   1.062   2.497   0.820 -1.3814  0.0245 -1.5226
 3477SOL     OW12030   5.333   5.430   3.872  0.2178 -0.6487 -0.7560
 3477SOL    HW112031   5.235   5.436   3.890  0.2417 -1.6257 -0.1708
 3477SOL    HW212032   5.350   5.437   3.774 -0.5144 -1.2302 -0.9331
 3478SOL     OW12033   4.552   4.958   2.701 -0.0418  0.6495 -0.8056
 3478SOL    HW112034   4.559   5.057   2.712 -0.2568  0.5524  0.2842
 3478SOL    HW212035   4.477   4.922   2.757  0.7816 -0.2664 -0.2353
 3479SOL     OW12036   2.180   3.478   5.412 -0.1589 -0.5146  0.0332
 3479SOL    HW112037   2.179   3.517   5.320 -1.5176 -2.1874 -0.7166
 3479SOL    HW212038   2.136   3.541   5.476 -0.4756  0.0640 -0.7372
 3480SOL     OW12039   3.611   3.882   2.173  0.1057  0.0776  0.3099
 3480SOL    HW112040   3.516   3.869   2.203  0.2560 -1.3421  0.2456
 3480SOL    HW212041   3.614   3.880   2.073 -0.0389  2.1214  0.2356
 3481SOL     OW12042   6.451   1.013   4.646  0.0803 -0.0422 -0.2503
 3481SOL    HW112043   6.520   1.001   4.575 -1.2687 -4.0100 -1.1527
 3481SOL    HW212044   6.495   1.021   4.735  1.7481  3.5551 -1.2037
 3482SOL     OW12045   4.771   1.800   5.709 -0.8156  0.1153 -0.1797
 3482SOL    HW112046   4.696   1.866   5.719 -1.0187  0.1215 -1.5549
 3482SOL    HW212047   4.809   1.807   5.617  0.1439 -0.6743  0.1422
 3483SOL     OW12048   2.769   0.228   0.199  0.3619 -0.0065  1.0820
 3483SOL    HW112049   2.696   0.188   0.255  0.5748  1.4430  2.4721
 3483SOL    HW212050   2.858   0.197   0.233  0.4724  0.3318  1.1026
 3484SOL     OW12051   5.342   0.007   6.355  0.0254  0.1186 -0.0587
 3484SOL    HW112052   5.330  -0.041   6.442  2.4375  1.0091  0.8284
 3484SOL    HW212053   5.380  -0.057   6.288 -1.1809 -0.3800 -0.3058
 3485SOL     OW12054   3.606   2.018   4.892  0.6957 -0.2210 -0.2767
 3485SOL    HW112055   3.701   1.991   4.905  0.5675 -1.8621 -2.1982
 3485SOL    HW212056   3.585   2.018   4.794 -1.6780 -1.3393  0.1798
 3486SOL     OW12057   6.926   2.331   1.678 -0.0661 -0.3209 -0.1376
 3486SOL    HW112058   6.899   2.352   1.584  0.3734  0.0518 -0.1890
 3486SOL    HW212059   6.857   2.366   1.742  0.1562  0.3863 -0.2759
 3487SOL     OW12060   1.181   4.159   5.609  0.4291  0.3104 -0.0344
 3487SOL    HW112061   1.256   4.095   5.629 -0.4654 -0.4054  1.1588
 3487SOL    HW212062   1.212   4.226   5.542  2.0465 -0.1422  0.2090
 3488SOL     OW12063   4.793   6.250   1.072 -0.0938 -0.3646  0.1252
 3488SOL    HW112064   4.706   6.240   1.023 -0.6064 -2.2659  1.2825
 3488SOL    HW212065   4.865   6.201   1.022  0.2247  0.7764 -0.5662
 3489SOL     OW12066   0.506   2.487   3.887  0.1933 -0.1326 -0.2782
 3489SOL    HW112067   0.429   2.535   3.930 -0.6352 -1.2280 -0.4797
 3489SOL    HW212068   0.493   2.485   3.788  1.1744  0.8155 -0.4428
 3490SOL     OW12069   3.052   6.936   1.454 -0.2582 -0.0391  0.2732
 3490SOL    HW112070   3.052   7.032   1.426 -2.5682 -0.0867 -0.0859
 3490SOL    HW212071   3.126   6.920   1.519  0.0237  2.0281  0.5257
 3491SOL     OW12072   2.446   1.265   1.234  0.0837  0.3642  0.0145
 3491SOL    HW112073   2.373   1.283   1.300  1.0388  1.6163  0.7894
 3491SOL    HW212074   2.494   1.181   1.259  0.1119  0.5551  0.6264
 3492SOL     OW12075   4.792   5.405   6.282 -0.2259  0.3205 -0.2802
 3492SOL    HW112076   4.851   5.353   6.343 -1.0202 -0.6510 -0.3140
 3492SOL    HW212077   4.847   5.446   6.209  0.6717  1.1341  0.8188
 3493SOL     OW12078   1.013   3.138   2.025 -0.5781  0.1521 -0.4045
 3493SOL    HW112079   0.984   3.140   2.121 -0.6075  0.2019 -0.4141
 3493SOL    HW212080   1.112   3.150   2.020 -0.1771 -2.5524 -0.2176
 3494SOL     OW12081   5.654   3.510   5.956  0.0361  0.0157  0.1941
 3494SOL    HW112082   5.620   3.586   5.901 -0.6041 -0.3234  0.1080
 3494SOL    HW212083   5.752   3.522   5.973 -0.1298  1.0595  0.5045
 3495SOL     OW12084   5.713   1.349   4.880 -0.0232 -0.1288 -0.2134
 3495SOL    HW112085   5.795   1.322   4.930  0.0644  1.4265  0.5473
 3495SOL    HW212086   5.719   1.317   4.785  2.3734  1.5870 -0.7199
 3496SOL     OW12087   0.782   3.876   5.470  0.1163 -0.5498 -0.0409
 3496SOL    HW112088   0.738   3.964   5.453  0.7209 -0.5861 -1.9808
 3496SOL    HW212089   0.807   3.871   5.567  0.8026  1.7653 -0.0205
 3497SOL     OW12090   2.446   1.986   2.053  0.3989  0.1605 -0.4326
 3497SOL    HW112091   2.504   2.035   1.989  1.3907  0.3752  0.5914
 3497SOL    HW212092   2.351   2.017   2.043  0.6917  0.8707 -1.1266
 3498SOL     OW12093   2.686   0.080   1.617  0.4001  0.2791 -0.0792
 3498SOL    HW112094   2.783   0.105   1.611  1.0912 -2.4302 -2.1569
 3498SOL    HW212095   2.676  -0.003   1.670 -0.8850  0.7679  0.4843
 3499SOL     OW12096   1.566   2.815   1.516 -0.3010  0.4504  0.0163
 3499SOL    HW112097   1.557   2.913   1.533 -0.4779  0.7078 -1.4939
 3499SOL    HW212098   1.484   2.768   1.549 -0.8170  0.9843 -0.4940
 3500SOL     OW12099   0.884   3.024   6.306 -0.6871  0.4393 -0.0396
 3500SOL    HW112100   0.939   3.085   6.249 -0.0959  0.0821  0.1444
 3500SOL    HW212101   0.931   3.006   6.392 -1.5006  0.8338  0.4965
 3501SOL     OW12102   1.806   4.233   3.538  0.2131  0.0569  0.4924
 3501SOL    HW112103   1.904   4.214   3.539  0.2723  0.3547  0.4719
 3501SOL    HW212104   1.763   4.184   3.462  0.1299 -1.0912  1.2524
 3502SOL     OW12105   0.530   1.029   3.198  0.3093 -0.1033  0.8370
 3502SOL    HW112106   0.498   0.935   3.196 -0.6397 -0.0487  4.8119
 3502SOL    HW212107   0.477   1.085   3.134 -1.1168 -1.7411  0.5366
 3503SOL     OW12108   0.882   3.467   4.935  0.1247 -0.3292  0.2351
 3503SOL    HW112109   0.829   3.389   4.969 -0.8200 -1.4068 -3.2447
 3503SOL    HW212110   0.820   3.537   4.899  1.0001 -0.0459 -0.7899
 3504SOL     OW12111   1.711   2.366   6.712 -0.5912 -0.7089 -0.8393
 3504SOL    HW112112   1.718   2.459   6.677 -0.2771 -1.2212 -2.2318
 3504SOL    HW212113   1.803   2.327   6.722 -0.7098 -0.8019 -0.0502
 3505SOL     OW12114   4.614   2.610   0.697  0.3420  0.1487 -0.3897
 3505SOL    HW112115   4.609   2.701   0.657  1.5123 -0.3875 -1.8546
 3505SOL    HW212116   4.540   2.598   0.763  0.0072  2.0407 -0.3789
 3506SOL     OW12117   0.831   6.220   3.867 -0.1332  0.0028  0.4334
 3506SOL    HW112118   0.798   6.196   3.958 -0.4717 -1.6553 -0.0745
 3506SOL    HW212119   0.767   6.183   3.799  1.5400 -1.2899 -0.5257
 3507SOL     OW12120   5.558   3.315   3.050  0.5968 -0.2928 -0.0467
 3507SOL    HW112121   5.486   3.370   3.093  0.5504 -1.2022  1.0922
 3507SOL    HW212122   5.573   3.232   3.104  0.7569 -1.3471 -1.6568
 3508SOL     OW12123   3.716   1.899   6.396 -0.5787 -0.1599 -0.8767
 3508SOL    HW112124   3.727   1.923   6.492  0.6810  0.7649 -1.2124
 3508SOL    HW212125   3.740   1.803   6.382  0.1564 -0.0550 -0.4027
 3509SOL     OW12126   3.390   3.420   1.160 -0.3192 -0.2006  0.3314
 3509SOL    HW112127   3.299   3.452   1.184  0.4874  0.0848  3.4675
 3509SOL    HW212128   3.390   3.320   1.154 -0.6054 -0.2934  1.6270
 3510SOL     OW12129   0.078   6.279   0.478 -0.5805 -0.4277 -0.0880
 3510SOL    HW112130   0.081   6.239   0.387 -1.7566  0.5944 -0.6022
 3510SOL    HW212131   0.145   6.353   0.484  1.3885 -2.1903  0.7706
 3511SOL     OW12132   1.983   4.551   4.519  0.0474 -0.1929 -0.7486
 3511SOL    HW112133   2.047   4.598   4.458 -0.2682  1.3822  0.0666
 3511SOL    HW212134   1.889   4.574   4.493 -0.0935  0.2294  0.0959
 3512SOL     OW12135   6.921   6.594   5.268 -0.4108 -0.0269 -0.0363
 3512SOL    HW112136   6.888   6.642   5.350 -1.6235  0.7559 -0.9377
 3512SOL    HW212137   6.995   6.646   5.226  2.3087 -1.8985  2.1161
 3513SOL     OW12138   1.100   4.692   2.241 -0.1432  0.0455 -0.0888
 3513SOL    HW112139   1.058   4.661   2.326  2.1843 -0.2806  1.0421
 3513SOL    HW212140   1.175   4.755   2.262 -0.7530  1.5026 -2.0281
 3514SOL     OW12141   1.768   3.998   7.017  0.0529 -0.0426 -0.0249
 3514SOL    HW112142   1.808   3.912   6.987  0.2371  0.1587 -0.3723
 3514SOL    HW212143   1.826   4.074   6.986 -1.2259  0.3337 -1.6550
 3515SOL     OW12144   6.622   5.655   0.962  0.2232  0.2761  0.1978
 3515SOL    HW112145   6.661   5.605   1.039 -0.7238  0.3369  0.7341
 3515SOL    HW212146   6.566   5.593   0.907 -0.8268  0.6921  0.7763
 3516SOL     OW12147   0.645   2.633   6.300 -0.4823 -0.4212 -0.0741
 3516SOL    HW112148   0.566   2.633   6.238  0.1086 -0.4360 -0.8482
 3516SOL    HW212149   0.716   2.694   6.263  0.7560 -2.0830 -0.5574
 3517SOL     OW12150   1.587   3.510   6.169  0.0741 -0.0784 -0.1011
 3517SOL    HW112151   1.563   3.603   6.141 -0.8544 -0.9602 -2.5464
 3517SOL    HW212152   1.684   3.495   6.152  0.1815  0.3638  0.0973
 3518SOL     OW12153   4.052   3.153   1.288 -0.1246 -0.2108 -0.0184
 3518SOL    HW112154   4.033   3.070   1.235  0.4345 -0.7235  0.5754
 3518SOL    HW212155   3.966   3.194   1.318 -0.3768 -1.0995  0.4864
 3519SOL     OW12156   2.020   6.999   6.949  0.8339  0.2068 -0.4101
 3519SOL    HW112157   2.077   6.927   6.908  0.5099 -0.5077  0.3589
 3519SOL    HW212158   1.925   6.985   6.921  0.4037 -1.0223  1.4902
 3520SOL     OW12159   1.923   2.134   2.378 -0.2438 -0.2351 -0.3353
 3520SOL    HW112160   1.926   2.119   2.477 -0.0314 -0.9982 -0.4503
 3520SOL    HW212161   1.834   2.174   2.354  0.3242  1.5199  0.3484
 3521SOL     OW12162   3.344   6.954   6.262  0.4651 -1.0555  0.9708
 3521SOL    HW112163   3.282   6.884   6.226  1.8527 -0.0640 -4.2207
 3521SOL    HW212164   3.292   7.037   6.284 -0.4277 -1.1285 -0.7009
 3522SOL     OW12165   1.578   6.818   6.994  0.3584 -0.0118 -0.2993
 3522SOL    HW112166   1.600   6.749   6.924  0.4850  0.9155 -1.1915
 3522SOL    HW212167   1.511   6.882   6.958 -0.4432 -0.1717  0.8498
 3523SOL     OW12168   0.185   1.101   4.739 -0.4334 -0.2457 -0.2721
 3523SOL    HW112169   0.092   1.136   4.722 -0.8256 -1.7664 -1.4901
 3523SOL    HW212170   0.219   1.138   4.825 -2.5836 -0.4529  0.7388
 3524SOL     OW12171   4.758   6.926   5.989  0.1128 -0.7411  0.4829
 3524SOL    HW112172   4.793   7.020   5.985 -0.5441 -0.5149 -0.3092
 3524SOL    HW212173   4.813   6.872   6.052  0.4629  0.1977  0.9947
 3525SOL     OW12174   3.082   6.650   6.826 -0.1566 -0.0229  0.1471
 3525SOL    HW112175   3.150   6.617   6.761  0.0511 -2.3026  1.4300
 3525SOL    HW212176   3.126   6.664   6.916 -0.8341  1.2262  0.3120
 3526SOL     OW12177   2.837   3.013   6.668 -0.0138 -0.1956 -0.0012
 3526SOL    HW112178   2.778   2.957   6.609  0.4713  0.0233 -0.7165
 3526SOL    HW212179   2.796   3.021   6.759 -0.6097 -0.8324 -0.2035
 3527SOL     OW12180   2.630   4.344   2.380 -0.2728  0.2995 -0.6533
 3527SOL    HW112181   2.622   4.244   2.380  0.3094  0.2483 -0.6206
 3527SOL    HW212182   2.724   4.370   2.405  0.0246  0.8154 -2.1964
 3528SOL     OW12183   3.986   6.196   2.777  0.0299  0.7091 -0.0527
 3528SOL    HW112184   3.952   6.128   2.712  0.5165  0.7428 -0.3495
 3528SOL    HW212185   3.979   6.160   2.870 -1.0487  0.8160 -0.0738
 3529SOL     OW12186   5.516   3.490   6.511  0.0782  0.2814 -0.6381
 3529SOL    HW112187   5.458   3.411   6.493 -3.1379  2.1479  0.6484
 3529SOL    HW212188   5.470   3.574   6.481  1.7464  1.9747  1.1694
 3530SOL     OW12189   2.584   5.202   6.092 -0.5664  0.2688 -0.2893
 3530SOL    HW112190   2.643   5.281   6.107  0.3326 -0.5765  0.8651
 3530SOL    HW212191   2.524   5.219   6.013  0.9678  1.3100 -1.2935
 3531SOL     OW12192   6.397   3.478   4.808 -0.4770 -0.0406  0.0421
 3531SOL    HW112193   6.436   3.567   4.830  1.0260 -1.0183  1.5995
 3531SOL    HW212194   6.407   3.461   4.709 -0.3469  1.2903 -0.1940
 3532SOL     OW12195   3.761   3.823   1.659  0.3005 -0.1278 -0.5203
 3532SOL    HW112196   3.708   3.866   1.732 -2.3230 -1.8749 -1.2407
 3532SOL    HW212197   3.848   3.791   1.696 -1.1970 -1.5504  2.0947
 3533SOL     OW12198   5.897   1.684   4.137  0.3509  0.0465  0.4986
 3533SOL    HW112199   5.852   1.604   4.097  1.9121 -0.3951 -0.4313
 3533SOL    HW212200   5.830   1.757   4.150 -0.7803 -0.8571 -0.1126
 3534SOL     OW12201   3.550   6.912   0.242 -0.4250 -0.7283 -0.0082
 3534SOL    HW112202   3.484   6.836   0.235  1.7782 -2.7519 -0.0779
 3534SOL    HW212203   3.580   6.921   0.337  1.1561 -1.6565 -0.3861
 3535SOL     OW12204   2.467   6.360   5.256 -0.4059 -0.1760 -0.6921
 3535SOL    HW112205   2.525   6.336   5.178  0.4148 -0.9203  0.1268
 3535SOL    HW212206   2.418   6.445   5.236 -0.0026 -0.2089 -1.9058
 3536SOL     OW12207   0.771   3.677   4.761 -0.2079 -0.0731  0.2356
 3536SOL    HW112208   0.803   3.772   4.761  0.1097 -0.1649  1.4219
 3536SOL    HW212209   0.710   3.663   4.683  0.9641  0.6724 -0.8651
 3537SOL     OW12210   0.300   3.813   6.468  0.2400 -0.0656  0.2657
 3537SOL    HW112211   0.326   3.729   6.421  0.6588 -0.2437  0.8171
 3537SOL    HW212212   0.381   3.860   6.502 -0.0969 -0.3067  1.4407
 3538SOL     OW12213   1.613   3.501   6.959  0.0426 -0.1763  0.0422
 3538SOL    HW112214   1.629   3.594   6.924 -0.8919  0.1559  0.4464
 3538SOL    HW212215   1.564   3.448   6.890 -1.7838  0.4731  0.7921
 3539SOL     OW12216   2.322   1.192   4.258  0.1008 -0.0905  0.3160
 3539SOL    HW112217   2.264   1.215   4.179  0.0027 -1.4003 -0.0208
 3539SOL    HW212218   2.415   1.174   4.226 -0.1255 -1.4407  0.3666
 3540SOL     OW12219   5.614   4.054   3.567  0.2300 -0.7469 -0.0738
 3540SOL    HW112220   5.699   4.105   3.581  0.8992 -2.0509  0.8885
 3540SOL    HW212221   5.605   3.986   3.640 -1.2899 -1.1094 -0.5834
 3541SOL     OW12222   4.185   3.212   3.456  0.1123  0.2856  0.1690
 3541SOL    HW112223   4.279   3.229   3.487  0.4058 -0.6170 -0.2075
 3541SOL    HW212224   4.166   3.270   3.377  0.6127 -0.0864 -0.2270
 3542SOL     OW12225   2.815   2.801   0.628 -0.0570 -0.1250 -0.2969
 3542SOL    HW112226   2.816   2.834   0.534 -0.4791 -0.4580 -0.4236
 3542SOL    HW212227   2.741   2.735   0.639  0.1503 -0.2788  0.2042
 3543SOL     OW12228   0.063   6.025   1.399  0.3582 -0.1091 -0.2675
 3543SOL    HW112229   0.022   6.116   1.399 -0.0494 -0.2818  0.5929
 3543SOL    HW212230   0.034   5.974   1.318 -0.7449 -0.0513  0.0755
 3544SOL     OW12231   6.972   6.002   5.817 -0.6555 -0.1777 -0.6140
 3544SOL    HW112232   7.057   5.949   5.811  0.4761  1.5026 -0.1186
 3544SOL    HW212233   6.933   6.013   5.726 -0.3892 -1.0130 -0.8404
 3545SOL     OW12234   1.540   4.226   0.566  0.4479 -0.0780  0.2824
 3545SOL    HW112235   1.635   4.248   0.585  0.5890  0.5626 -1.0697
 3545SOL    HW212236   1.535   4.161   0.491 -0.1223 -1.9927  1.8942
 3546SOL     OW12237   4.644   6.977   1.847  0.3303 -0.2002  0.2822
 3546SOL    HW112238   4.605   7.046   1.787  0.6166 -0.6247 -0.4043
 3546SOL    HW212239   4.713   7.019   1.906  0.7691  0.0314 -0.3908
 3547SOL     OW12240   4.120   3.865   3.095 -0.0289  0.1021 -0.9118
 3547SOL    HW112241   4.136   3.837   3.190  0.3574 -2.2226 -1.5936
 3547SOL    HW212242   4.041   3.926   3.091 -0.8895 -0.8150  0.7759
 3548SOL     OW12243   5.507   4.000   4.911  0.1182  0.6238  0.2850
 3548SOL    HW112244   5.573   3.929   4.935  1.5124  1.9666  0.5041
 3548SOL    HW212245   5.531   4.041   4.823  0.2270  1.8813  0.8861
 3549SOL     OW12246   5.069   5.984   2.557  0.1878 -0.6542  0.0057
 3549SOL    HW112247   5.162   6.014   2.535  0.6346 -2.3689 -0.6023
 3549SOL    HW212248   5.062   5.885   2.543 -1.5137 -0.6806  0.8296
 3550SOL     OW12249   3.897   1.331   0.364 -0.8553 -0.3776  0.4304
 3550SOL    HW112250   3.975   1.338   0.426  0.5813  1.8856 -1.4655
 3550SOL    HW212251   3.822   1.388   0.398  0.6169  2.4309 -0.7166
 3551SOL     OW12252   4.791   1.151   3.290  0.4653  0.5378  0.3186
 3551SOL    HW112253   4.809   1.121   3.196 -1.3520  0.8570 -0.1658
 3551SOL    HW212254   4.803   1.250   3.296  1.2984  0.4314  0.6337
 3552SOL     OW12255   3.764   1.901   1.977 -0.0533 -0.0737 -0.5423
 3552SOL    HW112256   3.677   1.869   2.015  0.0206 -0.7559 -0.9411
 3552SOL    HW212257   3.767   2.001   1.980  0.0946 -0.1099  1.5635
 3553SOL     OW12258   5.195   5.988   1.550 -0.7814  0.0337  0.2382
 3553SOL    HW112259   5.176   6.038   1.635 -4.6365  2.0036 -1.5204
 3553SOL    HW212260   5.180   6.049   1.472 -1.0038 -2.6655 -1.9792
 3554SOL     OW12261   1.585   2.252   4.250 -0.1776 -0.3295 -0.0756
 3554SOL    HW112262   1.669   2.300   4.227 -0.7580  0.7171 -0.0766
 3554SOL    HW212263   1.570   2.255   4.349 -0.1733 -0.5822 -0.0658
 3555SOL     OW12264   0.592   0.310   3.738  0.2750  0.0109  0.5418
 3555SOL    HW112265   0.629   0.401   3.725 -1.5849  0.7323 -0.1105
 3555SOL    HW212266   0.594   0.260   3.652 -3.0295  1.2311 -0.4117
 3556SOL     OW12267   6.853   1.791   6.279 -0.0417  0.2165 -0.3539
 3556SOL    HW112268   6.867   1.779   6.181 -1.1572 -1.2623 -0.3623
 3556SOL    HW212269   6.780   1.858   6.295 -2.7395 -2.4345 -0.7196
 3557SOL     OW12270   4.446   1.725   5.964  0.2195  0.4040  0.2803
 3557SOL    HW112271   4.400   1.661   5.902 -0.5753  0.3672  0.8952
 3557SOL    HW212272   4.463   1.811   5.916 -2.8774  1.3821  0.7416
 3558SOL     OW12273   2.211   5.027   0.205  0.1483 -0.1907 -0.0076
 3558SOL    HW112274   2.181   4.940   0.165 -2.0396 -1.1477  3.2945
 3558SOL    HW212275   2.293   5.012   0.259  0.6995  0.1967 -0.7175
 3559SOL     OW12276   1.795   4.905   4.848  0.1964  0.4462 -0.4372
 3559SOL    HW112277   1.759   4.938   4.935 -0.7262 -1.6174  0.0314
 3559SOL    HW212278   1.895   4.908   4.850  0.2136 -0.1966  0.9822
 3560SOL     OW12279   0.169   5.552   6.716 -0.4524  0.4973  0.0874
 3560SOL    HW112280   0.223   5.607   6.779 -0.9562  0.2252  0.7566
 3560SOL    HW212281   0.225   5.476   6.682  0.8603  2.3634 -2.2393
 3561SOL     OW12282   3.690   5.720   5.695 -0.2049 -0.2332 -0.2917
 3561SOL    HW112283   3.604   5.687   5.656  0.0637 -0.5635 -0.6005
 3561SOL    HW212284   3.678   5.815   5.725 -0.6545 -0.2520 -0.4063
 3562SOL     OW12285   2.438   3.871   3.055  0.1008 -0.0093 -0.7242
 3562SOL    HW112286   2.481   3.790   3.095 -3.0761 -1.0132  1.0149
 3562SOL    HW212287   2.437   3.945   3.122  0.6442  0.5978 -1.3715
 3563SOL     OW12288   2.584   5.941   2.358 -0.4009 -0.2228  0.1154
 3563SOL    HW112289   2.606   6.038   2.351  0.8415 -0.2238  2.6921
 3563SOL    HW212290   2.614   5.893   2.276  1.1126  1.2264 -0.2087
 3564SOL     OW12291   6.099   6.426   6.804 -0.1238  0.1204 -0.0394
 3564SOL    HW112292   6.138   6.476   6.725  0.2158  1.5836  1.0047
 3564SOL    HW212293   6.115   6.328   6.792  0.7929  0.3885 -1.3255
 3565SOL     OW12294   1.634   2.139   4.788 -0.0687  0.4333 -0.3093
 3565SOL    HW112295   1.631   2.061   4.850 -3.1156 -0.3099 -1.2071
 3565SOL    HW212296   1.609   2.110   4.696  0.7710  2.1471 -1.1351
 3566SOL     OW12297   5.353   6.004   1.274 -0.0331  1.3399  0.6795
 3566SOL    HW112298   5.385   5.950   1.352 -1.4945  0.0070  0.3840
 3566SOL    HW212299   5.298   5.947   1.213  1.2577  2.2715 -1.4971
 3567SOL     OW12300   0.121   2.035   5.417  0.3513 -0.2166  0.0519
 3567SOL    HW112301   0.041   2.088   5.446  0.0119 -0.7012  0.0227
 3567SOL    HW212302   0.187   2.095   5.373  0.5060  0.3907  1.0872
 3568SOL     OW12303   2.763   2.025   4.702  0.7740 -0.1631 -0.0627
 3568SOL    HW112304   2.809   2.044   4.615  0.2022 -0.2082 -0.3761
 3568SOL    HW212305   2.702   1.947   4.692  1.3744 -0.7347  0.6238
 3569SOL     OW12306   5.706   0.415   2.606 -0.2248 -0.3932  0.1755
 3569SOL    HW112307   5.763   0.347   2.560  0.1750  0.7277 -1.0587
 3569SOL    HW212308   5.654   0.467   2.538  0.4232  1.3599  0.9377
 3570SOL     OW12309   2.787   5.404   2.437  0.4995 -0.5903 -0.2278
 3570SOL    HW112310   2.716   5.473   2.427  0.3437 -0.7767 -0.4132
 3570SOL    HW212311   2.814   5.369   2.347 -1.3355 -2.6974 -0.0636
 3571SOL     OW12312   2.356   0.141   1.461  0.2139  0.0218 -0.3313
 3571SOL    HW112313   2.418   0.195   1.519  0.9291 -0.0858 -0.9796
 3571SOL    HW212314   2.319   0.199   1.389 -1.8804  0.5541  1.0842
 3572SOL     OW12315   3.345   0.487   1.219  0.0158 -0.4480 -0.0465
 3572SOL    HW112316   3.365   0.544   1.139 -0.3997 -0.6405 -0.2881
 3572SOL    HW212317   3.246   0.475   1.229  0.1052 -2.5414 -1.0193
 3573SOL     OW12318   2.253   6.263   0.107 -0.4974 -0.4099 -0.2054
 3573SOL    HW112319   2.293   6.297   0.192 -2.9723  0.2002  0.8064
 3573SOL    HW212320   2.281   6.168   0.092  1.3805  0.0097  0.3146
 3574SOL     OW12321   6.978   1.809   4.576 -1.1930  0.0577 -0.2181
 3574SOL    HW112322   6.880   1.800   4.559 -1.4268 -0.3238  1.2287
 3574SOL    HW212323   6.996   1.798   4.673  0.1341  1.5566 -0.2529
 3575SOL     OW12324   3.664   5.814   5.086  0.0909  0.0065  0.5116
 3575SOL    HW112325   3.753   5.831   5.129  1.4988 -0.7827 -1.8815
 3575SOL    HW212326   3.660   5.861   4.998 -1.5747 -0.6014  0.2275
 3576SOL     OW12327   6.601   3.629   2.761  0.4537  0.6134  0.6183
 3576SOL    HW112328   6.615   3.687   2.680 -0.8692  1.3755  0.8991
 3576SOL    HW212329   6.624   3.534   2.739 -2.2177  0.3127 -1.4967
 3577SOL     OW12330   4.157   3.164   0.963  0.0028 -0.2370 -0.0529
 3577SOL    HW112331   4.153   3.150   1.062  0.4962 -0.8693 -0.1172
 3577SOL    HW212332   4.235   3.114   0.925 -0.3158 -0.1862 -0.7921
 3578SOL     OW12333   1.141   5.251   5.746 -0.0047  0.9717  0.0103
 3578SOL    HW112334   1.090   5.175   5.706  1.3496 -0.5450  1.0196
 3578SOL    HW212335   1.233   5.254   5.707  0.2403  1.5277  0.6047
 3579SOL     OW12336   5.522   5.863   2.159 -0.0653 -0.2978  0.1950
 3579SOL    HW112337   5.602   5.901   2.206  0.2270 -0.4506 -0.1807
 3579SOL    HW212338   5.550   5.790   2.098 -0.4775 -0.2602 -0.0448
 3580SOL     OW12339   2.923   6.477   3.333 -0.1388  0.5382 -0.5885
 3580SOL    HW112340   2.985   6.496   3.409 -1.1698 -0.0399  0.4415
 3580SOL    HW212341   2.935   6.382   3.304 -1.7943 -0.1983  0.9046
 3581SOL     OW12342   4.052   1.966   1.147  0.2908  0.6235  0.5905
 3581SOL    HW112343   4.074   1.898   1.078  0.2937  0.5161  0.6962
 3581SOL    HW212344   4.126   1.970   1.214  0.5506  1.1254  0.2809
 3582SOL     OW12345   5.471   2.580   1.624 -0.3680  0.1132 -0.3825
 3582SOL    HW112346   5.437   2.567   1.531 -0.6068  1.6053 -0.5375
 3582SOL    HW212347   5.423   2.657   1.666  0.5189  0.1621  0.5875
 3583SOL     OW12348   5.826   4.530   6.553  1.0384  0.6353  0.0601
 3583SOL    HW112349   5.847   4.461   6.623  1.0535 -2.3422 -2.6100
 3583SOL    HW212350   5.882   4.611   6.567  0.7618  0.3584  3.6130
 3584SOL     OW12351   0.461   1.114   5.142 -0.0909  0.5128 -0.2772
 3584SOL    HW112352   0.513   1.075   5.066  3.1280 -0.2125  2.1267
 3584SOL    HW212353   0.486   1.068   5.227 -1.6499  2.9802  1.6393
 3585SOL     OW12354   5.860   7.028   6.305 -0.4023  0.4054 -0.0595
 3585SOL    HW112355   5.910   6.942   6.293  1.0711  1.3521 -1.0077
 3585SOL    HW212356   5.769   7.020   6.263 -0.4416 -0.7952  0.2182
 3586SOL     OW12357   5.923   3.302   1.804  0.4527 -0.2779 -0.1740
 3586SOL    HW112358   5.947   3.276   1.898  1.6399  0.8992 -0.1280
 3586SOL    HW212359   5.915   3.219   1.748  2.7316 -0.8756  0.2840
 3587SOL     OW12360   3.043   0.835   1.015 -0.4707 -0.0675  0.0251
 3587SOL    HW112361   3.126   0.873   0.972 -0.1040 -1.1057 -0.2142
 3587SOL    HW212362   3.066   0.798   1.104 -0.3422 -1.7150 -0.6646
 3588SOL     OW12363   4.624   0.232   4.486 -0.0111  0.9986 -0.4074
 3588SOL    HW112364   4.642   0.245   4.583  0.4799 -2.0453  0.0328
 3588SOL    HW212365   4.708   0.201   4.441 -1.2432 -2.5241 -0.6392
 3589SOL     OW12366   3.306   6.354   6.006  0.0151  0.3488  0.1420
 3589SOL    HW112367   3.250   6.271   5.997  1.7287 -0.7711 -0.8876
 3589SOL    HW212368   3.276   6.421   5.939  0.6556 -0.7391 -1.2968
 3590SOL     OW12369   4.518   5.256   3.848  0.4256 -0.0377  0.0352
 3590SOL    HW112370   4.528   5.342   3.799  1.0564 -0.1440 -0.0264
 3590SOL    HW212371   4.593   5.245   3.912 -0.1062 -0.1466  0.6572
 3591SOL     OW12372   2.938   4.288   4.690 -0.3806  0.2050  0.2402
 3591SOL    HW112373   2.998   4.367   4.702 -1.5544  1.0217  0.9069
 3591SOL    HW212374   2.981   4.207   4.731  0.3519  0.7255  0.5193
 3592SOL     OW12375   2.171   6.849   1.153 -0.5459  0.5084 -0.1423
 3592SOL    HW112376   2.200   6.917   1.086 -0.3388 -0.2779 -0.8696
 3592SOL    HW212377   2.111   6.892   1.221 -0.0657  1.4995 -0.3301
 3593SOL     OW12378   2.686   4.071   5.849  0.3323  0.6368  0.0984
 3593SOL    HW112379   2.744   4.151   5.842 -0.4144  1.1567 -0.3182
 3593SOL    HW212380   2.729   3.994   5.801  0.5947  1.0654 -0.3608
 3594SOL     OW12381   5.863   5.313   4.236  0.0084  0.4966  0.1193
 3594SOL    HW112382   5.803   5.259   4.295  0.5556  1.6495  1.8007
 3594SOL    HW212383   5.819   5.399   4.212  0.9657  1.4085  1.4730
 3595SOL     OW12384   5.377   5.883   4.198 -0.0728  0.3695 -0.1457
 3595SOL    HW112385   5.282   5.913   4.187 -0.0034  0.2299 -1.3294
 3595SOL    HW212386   5.434   5.962   4.221 -0.4308  0.4963  0.3284
 3596SOL     OW12387   6.143   0.280   6.475 -0.2882 -0.3530  0.1985
 3596SOL    HW112388   6.119   0.319   6.564  0.9339  2.8519 -0.7386
 3596SOL    HW212389   6.118   0.344   6.403  1.8866 -1.2916 -1.5009
 3597SOL     OW12390   6.390   5.871   0.047 -0.3030  0.2720 -0.0390
 3597SOL    HW112391   6.356   5.944   0.107 -0.3077  0.7641 -0.6248
 3597SOL    HW212392   6.328   5.793   0.051  1.8235 -1.5124  3.8787
 3598SOL     OW12393   6.822   1.811   3.092 -0.5093  0.1605 -0.0878
 3598SOL    HW112394   6.781   1.901   3.080 -0.1942  0.4774  1.0988
 3598SOL    HW212395   6.870   1.785   3.008  1.0204  1.9415  0.1668
 3599SOL     OW12396   6.214   0.222   4.730  0.4973 -0.1926 -0.3417
 3599SOL    HW112397   6.127   0.269   4.717  0.6960 -0.2327 -1.9173
 3599SOL    HW212398   6.211   0.133   4.686  0.7062 -1.0126  1.2137
 3600SOL     OW12399   6.414   6.740   5.080 -0.2790  0.9854 -0.1349
 3600SOL    HW112400   6.321   6.763   5.049 -1.1868  1.1785  2.5144
 3600SOL    HW212401   6.413   6.651   5.126  0.2794  2.0306  2.0512
 3601SOL     OW12402   1.447   4.820   6.721  0.2371 -0.2531  0.6157
 3601SOL    HW112403   1.450   4.850   6.816 -1.2603  1.3136  0.2144
 3601SOL    HW212404   1.351   4.816   6.690  0.6264 -1.8049 -0.5158
 3602SOL     OW12405   4.302   4.808   1.094 -0.7008 -0.4169 -0.0335
 3602SOL    HW112406   4.208   4.777   1.079 -1.6366  2.0216  0.4243
 3602SOL    HW212407   4.338   4.765   1.178 -1.3649 -1.3662 -0.2179
 3603SOL     OW12408   4.623   5.494   0.624  0.2738  0.3810 -0.4947
 3603SOL    HW112409   4.616   5.439   0.541  1.6426  1.4698 -1.3769
 3603SOL    HW212410   4.538   5.485   0.677 -0.1051 -1.3849 -1.3175
 3604SOL     OW12411   3.244   1.685   4.922 -1.0881  1.0083  0.4390
 3604SOL    HW112412   3.322   1.639   4.965  1.4162  2.2835 -2.3576
 3604SOL    HW212413   3.247   1.782   4.943 -1.2534  1.2380 -0.5467
 3605SOL     OW12414   2.246   6.974   2.376 -0.4284  0.2351 -0.0192
 3605SOL    HW112415   2.193   6.917   2.313 -0.5319 -2.1236  2.0385
 3605SOL    HW212416   2.341   6.979   2.344 -0.2881 -1.6086 -0.0129
 3606SOL     OW12417   5.963   5.015   2.952  0.5470  0.1140 -0.2784
 3606SOL    HW112418   6.022   4.949   2.905  1.4027  2.2585 -2.4239
 3606SOL    HW212419   5.878   5.027   2.900  0.5648  0.9650 -0.1205
 3607SOL     OW12420   3.484   1.002   5.220 -0.8102 -0.2292 -0.1792
 3607SOL    HW112421   3.506   1.068   5.149  0.9816 -1.1100 -0.4776
 3607SOL    HW212422   3.497   0.909   5.186 -1.1043 -0.6981  0.9197
 3608SOL     OW12423   0.835   5.246   1.134 -0.3548 -0.2424  0.2072
 3608SOL    HW112424   0.809   5.228   1.229  1.2235 -1.8802  0.3818
 3608SOL    HW212425   0.919   5.299   1.131  1.1740 -2.5607 -0.1707
 3609SOL     OW12426   3.144   3.526   1.205 -0.0101 -0.1226  0.0668
 3609SOL    HW112427   3.103   3.553   1.292  2.6823  2.5383  0.6555
 3609SOL    HW212428   3.123   3.595   1.135  1.3970  0.0549 -0.2130
 3610SOL     OW12429   2.164   0.528   0.475  0.5379  0.6064  0.1742
 3610SOL    HW112430   2.243   0.524   0.413  0.0262 -0.2033 -0.4654
 3610SOL    HW212431   2.120   0.617   0.467  2.0630  1.5013  1.4271
 3611SOL     OW12432   4.371   4.625   1.402 -0.1192 -0.1835  0.2469
 3611SOL    HW112433   4.470   4.617   1.392  0.0921  0.0576  1.8674
 3611SOL    HW212434   4.349   4.658   1.494 -1.7032 -0.0658 -0.1387
 3612SOL     OW12435   2.267   3.850   3.730 -0.0852 -0.5152 -0.1848
 3612SOL    HW112436   2.309   3.765   3.760  0.0161 -0.4603 -0.1727
 3612SOL    HW212437   2.291   3.924   3.794 -2.4113 -1.0314  1.4334
 3613SOL     OW12438   0.102   1.185   3.017 -0.7043  0.1532 -0.4663
 3613SOL    HW112439   0.036   1.190   2.942 -0.6349 -1.3998 -0.6761
 3613SOL    HW212440   0.083   1.103   3.072  0.2979  0.3472  0.2011
 3614SOL     OW12441   2.575   6.465   2.903 -0.4466 -0.4533 -0.1307
 3614SOL    HW112442   2.559   6.399   2.829 -0.4268 -0.9853  0.3353
 3614SOL    HW212443   2.662   6.513   2.886 -0.3023 -0.7706 -0.3060
 3615SOL     OW12444   5.724   1.733   3.793  0.3917 -0.3879  0.0119
 3615SOL    HW112445   5.806   1.751   3.847 -0.4548  0.6550  0.9886
 3615SOL    HW212446   5.680   1.649   3.826 -0.2962  0.4146  1.1823
 3616SOL     OW12447   2.984   1.098   5.650  0.2291 -0.3562  0.7997
 3616SOL    HW112448   3.065   1.151   5.625  0.5122 -0.9869  0.3517
 3616SOL    HW212449   2.996   1.059   5.741  1.3724 -2.1887 -0.0576
 3617SOL     OW12450   6.803   0.622   6.083 -0.1711  0.1226 -0.1857
 3617SOL    HW112451   6.741   0.631   6.162  0.6193  1.0985  0.3471
 3617SOL    HW212452   6.761   0.667   6.004 -0.3528  0.3780  0.0497
 3618SOL     OW12453   1.850   3.618   2.870  0.1170  0.6769  0.4458
 3618SOL    HW112454   1.945   3.593   2.888  0.3603 -0.3718 -1.8645
 3618SOL    HW212455   1.847   3.709   2.829  0.2235  0.3916 -0.2081
 3619SOL     OW12456   5.243   5.228   4.309 -0.1125 -0.0301 -0.2278
 3619SOL    HW112457   5.331   5.269   4.329  0.4121 -0.2500 -1.8950
 3619SOL    HW212458   5.176   5.256   4.377  0.8994  1.3218  0.2369
 3620SOL     OW12459   1.753   0.240   6.590 -0.2148  0.0219  0.5588
 3620SOL    HW112460   1.823   0.203   6.529  0.2313  1.5354  0.1190
 3620SOL    HW212461   1.796   0.305   6.653 -0.6981 -1.3504  2.3835
 3621SOL     OW12462   0.746   1.851   0.295 -0.8924  0.0135  0.3312
 3621SOL    HW112463   0.655   1.811   0.301 -0.0550 -1.9322  0.9825
 3621SOL    HW212464   0.778   1.848   0.200 -1.7577  1.3284 -0.0091
 3622SOL     OW12465   6.365   0.573   0.810 -0.1777  0.8365  0.0345
 3622SOL    HW112466   6.374   0.548   0.713 -0.8381  0.9859 -0.0698
 3622SOL    HW212467   6.302   0.650   0.819  0.0996  1.0062  0.5630
 3623SOL     OW12468   3.199   4.555   5.318  0.5827  0.5993 -0.1620
 3623SOL    HW112469   3.102   4.532   5.310  1.0886 -2.0572  0.2166
 3623SOL    HW212470   3.214   4.650   5.291 -2.2334  1.3655  0.6922
 3624SOL     OW12471   3.465   5.607   5.627 -0.7213  0.1244  0.5095
 3624SOL    HW112472   3.407   5.687   5.611 -0.7532  0.8435  3.5729
 3624SOL    HW212473   3.408   5.525   5.628 -0.8649  0.1565 -1.4720
 3625SOL     OW12474   1.054   0.503   4.852 -0.2164 -0.3911 -0.1225
 3625SOL    HW112475   1.101   0.583   4.888  1.0689 -1.5887  1.0089
 3625SOL    HW212476   0.958   0.525   4.836 -0.1726  1.0438  1.3096
 3626SOL     OW12477   2.938   0.195   3.575  0.8827  0.3709  0.0225
 3626SOL    HW112478   2.995   0.228   3.500  0.9383  0.0535 -0.0776
 3626SOL    HW212479   2.842   0.220   3.558  0.8507  0.0216 -0.3103
 3627SOL     OW12480   5.087   1.325   4.496  0.3804 -0.4687  0.3249
 3627SOL    HW112481   5.092   1.280   4.586  0.8741 -1.0753 -0.0004
 3627SOL    HW212482   5.051   1.261   4.429 -1.7891  0.5410  0.4310
 3628SOL     OW12483   0.454   4.310   1.685  0.1969  0.3226  0.1689
 3628SOL    HW112484   0.479   4.402   1.714  0.4794  0.1103  0.6059
 3628SOL    HW212485   0.532   4.266   1.641 -0.4615  0.9375 -1.7015
 3629SOL     OW12486   3.057   6.588   1.780  0.0456  0.3909 -0.1261
 3629SOL    HW112487   3.029   6.666   1.836  0.9998  1.1947 -0.7254
 3629SOL    HW212488   3.025   6.601   1.686 -0.3428 -0.2590 -0.0876
 3630SOL     OW12489   1.137   1.613   1.951  0.2198  0.0614  0.2905
 3630SOL    HW112490   1.099   1.568   2.032  1.9902 -0.2366  0.9938
 3630SOL    HW212491   1.100   1.569   1.869 -0.9970 -0.1437  0.9225
 3631SOL     OW12492   4.615   5.037   0.123  0.3760  0.2901 -0.0491
 3631SOL    HW112493   4.708   5.057   0.092  0.2983  0.8730  0.0897
 3631SOL    HW212494   4.574   4.970   0.061  0.5393  0.7809 -0.7009
 3632SOL     OW12495   0.951   4.586   6.507 -0.3245 -0.6272  0.3688
 3632SOL    HW112496   0.992   4.676   6.523 -0.8824  0.1245 -1.9934
 3632SOL    HW212497   1.022   4.521   6.478 -0.4327  0.2546 -2.1510
 3633SOL     OW12498   0.852   2.140   3.188 -0.7114 -0.1919  1.3060
 3633SOL    HW112499   0.923   2.140   3.118 -1.6629 -1.4066  0.2882
 3633SOL    HW212500   0.762   2.140   3.145 -1.3270 -0.6037  2.5276
 3634SOL     OW12501   6.863   1.965   4.830 -0.4843 -0.6162 -0.7642
 3634SOL    HW112502   6.786   1.919   4.875  0.4402 -1.4038  0.0564
 3634SOL    HW212503   6.942   1.905   4.830  0.8407  0.9997  0.5093
 3635SOL     OW12504   5.510   0.952   0.101 -0.3565 -0.1231  0.1727
 3635SOL    HW112505   5.487   0.941   0.004  0.1178 -0.9857  0.1440
 3635SOL    HW212506   5.586   1.016   0.111 -1.4969  1.2847  0.1215
 3636SOL     OW12507   4.885   5.170   0.942  0.1827 -0.3152  0.5004
 3636SOL    HW112508   4.815   5.211   1.000  0.7624  0.8957  0.3595
 3636SOL    HW212509   4.858   5.178   0.846 -0.0455 -0.9385  0.5061
 3637SOL     OW12510   1.203   5.040   3.924  0.6931 -0.1252 -0.2387
 3637SOL    HW112511   1.140   5.100   3.877  1.0561  0.2959 -0.1932
 3637SOL    HW212512   1.167   5.018   4.015  0.8799  0.5773  0.0125
 3638SOL     OW12513   1.113   6.426   1.209  0.3027  0.1798 -0.0547
 3638SOL    HW112514   1.204   6.467   1.209  0.8638 -1.0197  1.0153
 3638SOL    HW212515   1.073   6.434   1.118  2.4505 -1.4052 -1.2056
 3639SOL     OW12516   3.068   2.225   0.312 -0.1033  0.8387 -0.4430
 3639SOL    HW112517   3.160   2.260   0.332  0.8738 -1.8403  0.2259
 3639SOL    HW212518   3.011   2.232   0.394  0.3762  0.1164 -0.0287
 3640SOL     OW12519   5.003   6.632   5.645  0.4420  0.3409 -0.1284
 3640SOL    HW112520   5.054   6.572   5.584  0.6256 -0.2897  0.6340
 3640SOL    HW212521   5.053   6.641   5.731 -1.0257 -0.7951  0.8790
 3641SOL     OW12522   6.199   3.422   4.595  0.3805 -0.1821  0.6821
 3641SOL    HW112523   6.171   3.450   4.503  0.1264 -0.0815  0.7912
 3641SOL    HW212524   6.187   3.323   4.605 -0.6030 -0.0455  0.9604
 3642SOL     OW12525   6.110   6.573   6.206 -0.0234  0.1600 -0.5046
 3642SOL    HW112526   6.048   6.524   6.267  0.3856 -0.8327 -0.8673
 3642SOL    HW212527   6.193   6.519   6.192  0.8416  1.3656 -0.2071
 3643SOL     OW12528   2.111   6.916   2.594  0.1832 -0.1830  0.5891
 3643SOL    HW112529   2.133   6.840   2.656 -0.0469 -1.8217 -1.2553
 3643SOL    HW212530   2.191   6.939   2.540  0.2508  0.9294  1.1422
 3644SOL     OW12531   0.730   2.272   5.646  0.1698  0.1163  0.1156
 3644SOL    HW112532   0.792   2.304   5.718 -1.2458 -1.2274  2.0180
 3644SOL    HW212533   0.736   2.172   5.640  1.3206  0.2525 -2.7141
 3645SOL     OW12534   6.119   1.874   2.218 -0.5944 -0.1493 -0.3071
 3645SOL    HW112535   6.173   1.958   2.213  1.3710 -1.4126 -1.2725
 3645SOL    HW212536   6.022   1.898   2.227  0.0276  2.1937  1.2210
 3646SOL     OW12537   2.095   6.678   4.217  0.7479 -0.1935  0.1513
 3646SOL    HW112538   2.142   6.639   4.138  2.2523  0.6463  0.5905
 3646SOL    HW212539   2.147   6.658   4.300 -0.2504 -0.1475  0.8094
 3647SOL     OW12540   4.531   5.711   2.168  0.2414  0.6474  0.3849
 3647SOL    HW112541   4.624   5.674   2.164  0.1349  0.4497 -0.9850
 3647SOL    HW212542   4.467   5.639   2.194  0.3642  0.5500  0.4166
 3648SOL     OW12543   6.814   0.336   1.726 -0.0401  0.2509 -0.4215
 3648SOL    HW112544   6.774   0.298   1.643  1.7012  0.4427 -1.3748
 3648SOL    HW212545   6.827   0.435   1.715 -1.4246  0.6119  0.7779
 3649SOL     OW12546   1.222   6.455   4.337 -0.6526  0.5291  0.1897
 3649SOL    HW112547   1.148   6.419   4.282 -0.0677 -0.3172 -0.0584
 3649SOL    HW212548   1.237   6.396   4.416 -1.2675  1.5480  1.1006
 3650SOL     OW12549   0.437   6.620   6.024  0.0566  0.9402  0.2275
 3650SOL    HW112550   0.508   6.580   5.966  2.6083  3.4522  1.3769
 3650SOL    HW212551   0.375   6.674   5.967 -1.2646 -1.5184 -0.8335
 3651SOL     OW12552   4.225   2.488   4.959 -0.3625 -0.0023 -0.1430
 3651SOL    HW112553   4.136   2.445   4.968  0.6350 -2.1213  0.0917
 3651SOL    HW212554   4.238   2.520   4.865 -1.1181 -0.2275 -0.3222
 3652SOL     OW12555   3.505   5.507   4.207 -0.3017  0.3065 -0.5883
 3652SOL    HW112556   3.482   5.530   4.302  0.0593 -0.4399 -0.3135
 3652SOL    HW212557   3.526   5.409   4.200  1.4113  0.6627 -1.0844
 3653SOL     OW12558   6.807   1.673   0.498 -0.1613 -0.3818 -0.1093
 3653SOL    HW112559   6.810   1.581   0.538  0.2850  0.3778  1.7316
 3653SOL    HW212560   6.800   1.740   0.572 -1.7869  1.0280 -1.4733
 3654SOL     OW12561   6.083   0.584   2.673  0.0745  0.0692  0.2656
 3654SOL    HW112562   6.091   0.682   2.655 -2.0559  0.2241 -0.0972
 3654SOL    HW212563   6.055   0.537   2.589 -1.0454 -0.5099  0.9353
 3655SOL     OW12564   3.734   4.774   1.949 -0.1230 -0.5623 -0.2085
 3655SOL    HW112565   3.661   4.841   1.963  0.2232 -0.1832 -0.1934
 3655SOL    HW212566   3.718   4.694   2.008  0.1552  0.0698  0.7546
 3656SOL     OW12567   4.560   6.148   5.297  0.5327 -0.0998  0.8898
 3656SOL    HW112568   4.638   6.091   5.274 -0.3902 -0.6484 -1.0997
 3656SOL    HW212569   4.538   6.138   5.394  3.1294  0.3909  1.5912
 3657SOL     OW12570   4.463   6.131   3.383 -0.3377  0.0104  0.0366
 3657SOL    HW112571   4.501   6.040   3.365 -2.6404 -0.6021 -2.5108
 3657SOL    HW212572   4.527   6.201   3.352  0.4299 -0.8287 -0.3140
 3658SOL     OW12573   5.524   0.822   0.359  0.3863  0.3208 -0.6322
 3658SOL    HW112574   5.508   0.724   0.348  0.4298  0.4048 -1.5155
 3658SOL    HW212575   5.513   0.868   0.271 -0.7378  1.2775 -0.0239
 3659SOL     OW12576   1.860   3.877   6.210 -0.2130 -0.4868 -0.5277
 3659SOL    HW112577   1.823   3.912   6.296 -2.2951  1.1785 -1.9986
 3659SOL    HW212578   1.941   3.821   6.229  0.9960  1.9418  2.2820
 3660SOL     OW12579   5.385   2.048   2.308  0.1493 -0.2540 -0.2675
 3660SOL    HW112580   5.353   2.139   2.334  0.4635 -0.6301  1.5175
 3660SOL    HW212581   5.313   1.981   2.326 -0.2541 -0.3522 -1.9980
 3661SOL     OW12582   1.166   2.331   0.439 -0.1405 -0.2470 -0.0154
 3661SOL    HW112583   1.227   2.333   0.360 -0.1565 -3.1367 -0.2190
 3661SOL    HW212584   1.085   2.276   0.417 -0.8265  0.0704  1.5585
 3662SOL     OW12585   0.926   0.327   5.009 -0.6499 -0.2042  0.0848
 3662SOL    HW112586   0.997   0.368   4.951  0.4431 -1.3409  0.5639
 3662SOL    HW212587   0.896   0.394   5.077 -0.1291  0.3422 -0.2108
 3663SOL     OW12588   6.958   4.701   4.007  0.3612  0.7683  0.1356
 3663SOL    HW112589   6.939   4.720   4.104  0.7390  0.6602  0.2357
 3663SOL    HW212590   6.885   4.645   3.969  1.7741 -2.0593  1.2613
 3664SOL     OW12591   0.663   3.231   6.330 -0.6495 -0.1345 -0.1957
 3664SOL    HW112592   0.726   3.154   6.325  1.0219  1.0114  1.6444
 3664SOL    HW212593   0.619   3.233   6.420 -0.4952  1.1313 -0.1183
 3665SOL     OW12594   1.273   6.990   0.323 -0.5325  0.0016 -0.1308
 3665SOL    HW112595   1.181   7.013   0.353 -0.8554 -0.6480 -0.6103
 3665SOL    HW212596   1.312   6.920   0.383 -0.8376 -0.6429 -0.6736
 3666SOL     OW12597   2.957   3.009   3.881 -0.0057  0.1438  0.3019
 3666SOL    HW112598   2.978   3.090   3.826  0.1373  0.7179  1.1759
 3666SOL    HW212599   2.858   2.999   3.890 -0.0651 -0.5285 -0.8687
 3667SOL     OW12600   4.902   5.327   2.582 -0.0202 -0.2217  0.0988
 3667SOL    HW112601   4.866   5.407   2.535  1.3249  0.5164  0.2809
 3667SOL    HW212602   4.826   5.272   2.618 -0.9908  0.3908 -0.9461
 3668SOL     OW12603   4.121   0.806   1.181  0.6589 -0.3966 -0.1124
 3668SOL    HW112604   4.028   0.821   1.145 -0.0184 -0.0794  1.6734
 3668SOL    HW212605   4.129   0.711   1.212  1.6847 -1.0632 -2.2639
 3669SOL     OW12606   2.025   6.318   5.877  0.1761 -0.0663 -0.0272
 3669SOL    HW112607   2.067   6.228   5.893  0.1359  0.1491  1.4946
 3669SOL    HW212608   2.096   6.389   5.884 -0.2976  0.2848  2.3777
 3670SOL     OW12609   1.537   5.450   1.495  0.5240  0.0731 -0.2316
 3670SOL    HW112610   1.475   5.520   1.460 -1.6622 -1.1443  0.9491
 3670SOL    HW212611   1.589   5.486   1.572  0.1049  0.6515 -0.2133
 3671SOL     OW12612   5.011   0.523   0.190  0.1483 -0.0730  0.0258
 3671SOL    HW112613   4.939   0.490   0.252 -1.2531  2.3400 -0.1994
 3671SOL    HW212614   5.089   0.554   0.244  0.2835 -0.9702  0.3731
 3672SOL     OW12615   2.410   6.986   2.736 -0.4267  0.1994  0.4523
 3672SOL    HW112616   2.443   6.963   2.828  2.7280 -0.4836 -0.7212
 3672SOL    HW212617   2.410   6.903   2.679 -3.4322  0.3787  0.0357
 3673SOL     OW12618   3.412   0.440   4.699 -0.4503 -0.1550 -0.4298
 3673SOL    HW112619   3.368   0.489   4.624  0.6194 -0.2056 -1.1269
 3673SOL    HW212620   3.503   0.411   4.670 -0.1342 -0.4529  0.7968
 3674SOL     OW12621   2.266   6.911   5.934 -0.6423  1.4509  0.1878
 3674SOL    HW112622   2.279   7.004   5.902  2.8920  1.0521  0.1020
 3674SOL    HW212623   2.287   6.847   5.860  0.4473  0.6005  1.1875
 3675SOL     OW12624   3.101   2.246   5.574 -0.4523  0.0276  0.1786
 3675SOL    HW112625   3.198   2.269   5.564 -0.5371  1.0459  1.5397
 3675SOL    HW212626   3.080   2.230   5.670 -1.9902  1.5054  0.1348
 3676SOL     OW12627   5.534   3.023   4.727  0.0007 -0.7252  0.0271
 3676SOL    HW112628   5.605   3.043   4.659  0.0842  0.3556  0.4204
 3676SOL    HW212629   5.545   3.084   4.806 -1.7323 -0.0911 -0.1840
 3677SOL     OW12630   2.506   5.915   4.093  0.2439  0.4519  0.4151
 3677SOL    HW112631   2.526   5.823   4.128  2.2748  0.0185 -1.6096
 3677SOL    HW212632   2.580   5.944   4.033 -0.4195  3.3974  0.8495
 3678SOL     OW12633   3.857   1.685   2.701 -0.0703  0.3707 -0.3877
 3678SOL    HW112634   3.818   1.667   2.610 -0.9568  0.5941 -0.0574
 3678SOL    HW212635   3.939   1.630   2.713 -0.0114  0.2447 -1.2793
 3679SOL     OW12636   5.406   4.209   0.375  0.8087 -0.1708 -0.0549
 3679SOL    HW112637   5.379   4.180   0.467 -1.5727 -1.3846 -1.0516
 3679SOL    HW212638   5.437   4.304   0.378 -2.4496  1.0057  1.5780
 3680SOL     OW12639   2.416   0.105   4.106 -0.3593  0.5511  0.6479
 3680SOL    HW112640   2.391   0.198   4.082 -0.9204  0.6332  1.5399
 3680SOL    HW212641   2.488   0.106   4.176 -0.6114  0.3145  0.9116
 3681SOL     OW12642   5.973   0.776   6.774  0.0693  0.4533  0.0747
 3681SOL    HW112643   6.034   0.697   6.764  0.8718  1.0878 -0.1936
 3681SOL    HW212644   5.905   0.776   6.700 -0.4633 -0.4290  0.5533
 3682SOL     OW12645   3.199   3.517   3.188 -0.6957 -0.2159 -0.0190
 3682SOL    HW112646   3.146   3.571   3.254  0.1354  0.6796 -0.0608
 3682SOL    HW212647   3.158   3.526   3.097  0.6646  2.2373 -0.4845
 3683SOL     OW12648   6.370   6.163   4.632 -0.3313 -0.2634  0.9798
 3683SOL    HW112649   6.278   6.148   4.667 -0.9171  0.6129 -0.1049
 3683SOL    HW212650   6.430   6.089   4.661 -1.9656 -2.2285 -0.3952
 3684SOL     OW12651   0.596   5.672   3.876  0.3316 -1.1751  0.5205
 3684SOL    HW112652   0.670   5.736   3.899 -1.0995  1.5804 -1.8892
 3684SOL    HW212653   0.534   5.663   3.955 -1.1809  3.1869  0.1047
 3685SOL     OW12654   4.270   0.709   6.801 -0.1920  0.2583  0.0139
 3685SOL    HW112655   4.218   0.636   6.757 -1.0601  1.6928 -1.4564
 3685SOL    HW212656   4.333   0.750   6.735  0.2621  0.8671  0.7975
 3686SOL     OW12657   5.415   6.889   3.817 -0.1425 -0.4283  0.2730
 3686SOL    HW112658   5.333   6.903   3.761  0.0217  0.1486  0.1777
 3686SOL    HW212659   5.487   6.847   3.761  0.1586  0.5200 -0.0603
 3687SOL     OW12660   2.863   1.161   5.396 -0.5258 -0.1174  0.7731
 3687SOL    HW112661   2.891   1.141   5.489  1.2131 -0.3728  0.2272
 3687SOL    HW212662   2.937   1.208   5.348 -1.5221  0.3326 -0.3730
 3688SOL     OW12663   5.676   5.371   1.881 -0.1515  0.2062  0.0271
 3688SOL    HW112664   5.750   5.326   1.931 -0.2013  0.7622  0.6203
 3688SOL    HW212665   5.710   5.456   1.840 -0.6604  0.9013  1.0189
 3689SOL     OW12666   1.772   1.856   3.292 -0.5662  0.5806  0.0997
 3689SOL    HW112667   1.725   1.771   3.265  0.4243  0.2314 -0.5906
 3689SOL    HW212668   1.784   1.914   3.212  2.4318 -0.4669 -0.3500
 3690SOL     OW12669   6.491   6.584   0.675  0.3939 -0.2432 -0.1835
 3690SOL    HW112670   6.559   6.518   0.644  1.1567  0.1410  0.6317
 3690SOL    HW212671   6.454   6.633   0.596  2.9218  1.3236 -0.5254
 3691SOL     OW12672   5.895   6.662   4.780 -0.0019 -0.1167 -0.2635
 3691SOL    HW112673   5.833   6.682   4.856  0.9488  1.5038  0.1316
 3691SOL    HW212674   5.959   6.590   4.807 -0.0130  0.0721  0.2847
 3692SOL     OW12675   1.326   2.595   0.956  0.0791  0.1238  0.3456
 3692SOL    HW112676   1.395   2.607   1.028 -0.3897  0.8877  0.6790
 3692SOL    HW212677   1.240   2.566   0.997 -0.1159  0.3001  0.0666
 3693SOL     OW12678   4.625   1.501   4.472  0.5254  0.1319  0.2005
 3693SOL    HW112679   4.723   1.496   4.491 -0.0457 -0.0941  3.5818
 3693SOL    HW212680   4.575   1.440   4.534 -1.7233 -0.9728 -2.4575
 3694SOL     OW12681   4.339   3.561   3.205 -0.2436 -0.5736 -0.0855
 3694SOL    HW112682   4.341   3.567   3.105 -1.7831 -0.7693 -0.1604
 3694SOL    HW212683   4.259   3.507   3.234 -0.2691  0.1297  1.2595
 3695SOL     OW12684   1.151   6.672   3.848 -0.3202 -1.0025 -0.0666
 3695SOL    HW112685   1.161   6.575   3.868  1.7039 -0.8388 -0.0808
 3695SOL    HW212686   1.228   6.703   3.792  0.0818  0.9906  1.4476
 3696SOL     OW12687   3.275   2.214   0.626 -0.6033 -0.5125  0.2975
 3696SOL    HW112688   3.370   2.186   0.617 -0.5236  0.2897 -2.0721
 3696SOL    HW212689   3.270   2.304   0.669 -0.5535 -1.8217  3.2533
 3697SOL     OW12690   0.499   3.888   0.170 -0.3270  0.2207 -0.0679
 3697SOL    HW112691   0.500   3.988   0.176  2.0594  0.1718  2.1137
 3697SOL    HW212692   0.558   3.858   0.094 -0.9487  0.4208 -0.6455
 3698SOL     OW12693   1.398   6.705   3.405  0.0650 -0.4742  0.6080
 3698SOL    HW112694   1.474   6.646   3.432 -0.4502 -0.3535  2.4375
 3698SOL    HW212695   1.312   6.662   3.430 -0.4803 -0.3428 -0.9217
 3699SOL     OW12696   4.037   5.143   1.503 -0.2202 -0.4023  0.4507
 3699SOL    HW112697   4.050   5.230   1.455 -0.6026 -0.1358  0.8152
 3699SOL    HW212698   3.940   5.134   1.528 -0.8301 -2.2731 -2.1438
 3700SOL     OW12699   6.655   0.672   6.301 -0.3516 -0.0531  0.0339
 3700SOL    HW112700   6.618   0.764   6.289 -1.8051 -0.6944 -0.6043
 3700SOL    HW212701   6.732   0.675   6.365 -1.1209  1.4140  0.9362
 3701SOL     OW12702   0.224   2.575   5.993 -0.3883 -0.2848 -0.3467
 3701SOL    HW112703   0.129   2.548   6.010 -0.5485  0.3575 -0.1864
 3701SOL    HW212704   0.227   2.673   5.975  0.3915 -0.0648  0.8813
 3702SOL     OW12705   3.542   4.069   0.287 -0.2164  0.0908  0.3825
 3702SOL    HW112706   3.518   4.163   0.312  0.4689  0.6142 -0.8181
 3702SOL    HW212707   3.641   4.056   0.296 -0.2367 -0.3456  0.0517
 3703SOL     OW12708   4.895   0.952   4.020  0.9093  0.4931 -0.1555
 3703SOL    HW112709   4.899   0.864   3.974 -0.0372  0.8657 -0.9953
 3703SOL    HW212710   4.986   0.978   4.052  1.5399  0.0792 -1.5537
 3704SOL     OW12711   2.570   6.047   1.834 -0.0781 -0.1176  0.1731
 3704SOL    HW112712   2.494   5.990   1.804 -1.1040  1.6694 -0.7895
 3704SOL    HW212713   2.655   6.015   1.791 -0.6120 -0.9971 -0.2421
 3705SOL     OW12714   6.085   0.157   6.126  0.5243  0.0570  0.1156
 3705SOL    HW112715   6.030   0.094   6.180  1.5381 -0.3911  0.6652
 3705SOL    HW212716   6.170   0.112   6.098  0.0124  0.2764 -1.9150
 3706SOL     OW12717   4.684   1.417   2.368  0.0578  0.3923 -0.0667
 3706SOL    HW112718   4.664   1.510   2.338  2.0368  0.7137 -0.5262
 3706SOL    HW212719   4.758   1.418   2.435 -0.4856 -0.8028  0.5960
 3707SOL     OW12720   0.025   4.547   0.996 -0.7088 -0.1391 -0.0417
 3707SOL    HW112721  -0.063   4.568   1.038 -0.4081  0.0329  0.5010
 3707SOL    HW212722   0.093   4.616   1.022 -0.5370  0.0132 -0.8671
 3708SOL     OW12723   1.477   3.415   1.809  0.2358 -0.2324  0.0947
 3708SOL    HW112724   1.547   3.352   1.842 -0.8208 -1.2655  0.4325
 3708SOL    HW212725   1.420   3.369   1.741 -1.3714 -0.1257  1.2985
 3709SOL     OW12726   5.870   5.897   3.599  0.4997  0.5678  0.5237
 3709SOL    HW112727   5.878   5.823   3.532 -0.9377  0.0972  0.8235
 3709SOL    HW212728   5.801   5.963   3.568  0.3717  0.7516  1.1697
 3710SOL     OW12729   6.757   5.996   0.555  0.4134  0.2245  0.3559
 3710SOL    HW112730   6.773   5.919   0.617 -0.3122 -0.5962 -0.4404
 3710SOL    HW212731   6.797   6.079   0.594  1.3023 -0.5608  1.1946
 3711SOL     OW12732   0.231   1.944   2.889  0.0110  0.6117 -0.2031
 3711SOL    HW112733   0.217   2.019   2.824 -1.4127 -0.1873 -0.8826
 3711SOL    HW212734   0.188   1.861   2.853  0.0462 -0.0966  1.3200
 3712SOL     OW12735   2.219   1.498   4.283  0.4535  0.1085  0.2934
 3712SOL    HW112736   2.257   1.545   4.203 -0.9693 -0.8974 -1.0324
 3712SOL    HW212737   2.179   1.411   4.254  1.1393 -0.9366  2.3574
 3713SOL     OW12738   3.969   3.185   6.900  0.0320  0.1452 -0.0820
 3713SOL    HW112739   3.885   3.182   6.846  0.2254  0.4262 -0.4036
 3713SOL    HW212740   4.011   3.276   6.891  0.4702 -0.0565 -0.0739
 3714SOL     OW12741   5.938   3.200   5.253 -0.5192 -0.5532  0.9861
 3714SOL    HW112742   5.981   3.280   5.296 -1.3285  0.5190 -0.1266
 3714SOL    HW212743   5.998   3.121   5.263  0.8125  0.4411  1.1884
 3715SOL     OW12744   5.023   1.744   0.278 -0.1819 -0.1365 -0.2005
 3715SOL    HW112745   5.031   1.678   0.352 -0.1738  0.1216  0.0304
 3715SOL    HW212746   4.933   1.736   0.235  0.4239 -1.5126 -1.3394
 3716SOL     OW12747   5.272   0.585   1.498  0.2129 -0.0384  0.0178
 3716SOL    HW112748   5.207   0.627   1.434 -2.9342 -2.8296  1.1012
 3716SOL    HW212749   5.335   0.526   1.448 -0.3207  0.0411 -0.7696
 3717SOL     OW12750   3.458   5.313   1.879 -0.1698 -0.4930  0.2585
 3717SOL    HW112751   3.362   5.285   1.873 -0.3661  0.3122 -0.5106
 3717SOL    HW212752   3.470   5.375   1.956 -0.9806  2.0838 -1.5900
 3718SOL     OW12753   5.887   5.879   3.082  0.1241  0.9508  0.4085
 3718SOL    HW112754   5.971   5.827   3.099 -0.6975  0.2666  2.7543
 3718SOL    HW212755   5.824   5.824   3.028  0.0793  0.3500  1.0723
 3719SOL     OW12756   1.790   2.431   5.475  0.3683  0.0151 -0.0225
 3719SOL    HW112757   1.862   2.487   5.434  1.3114 -0.5213  0.8553
 3719SOL    HW212758   1.753   2.368   5.407 -0.1320  1.1164 -0.8013
 3720SOL     OW12759   3.609   6.604   0.299 -0.7044 -0.2158  0.7043
 3720SOL    HW112760   3.677   6.579   0.231 -0.5087 -2.5467  1.6874
 3720SOL    HW212761   3.518   6.597   0.259 -0.5307 -0.2084  0.3036
 3721SOL     OW12762   5.336   2.150   1.632 -0.0967 -0.0029  0.8500
 3721SOL    HW112763   5.329   2.053   1.612 -1.3636  0.2611 -0.1651
 3721SOL    HW212764   5.257   2.179   1.687  0.7407  0.2869  1.9308
 3722SOL     OW12765   1.359   3.688   1.571  0.0440 -0.3451 -0.2313
 3722SOL    HW112766   1.450   3.648   1.565  0.4451  0.7246 -2.9026
 3722SOL    HW212767   1.327   3.711   1.479 -1.8920  1.5846  0.8273
 3723SOL     OW12768   4.068   1.849   6.896  0.4464 -0.3703 -0.0753
 3723SOL    HW112769   4.065   1.761   6.848 -0.0673  0.2652 -1.2226
 3723SOL    HW212770   4.149   1.852   6.954  1.0195 -1.1946 -0.8132
 3724SOL     OW12771   5.384   1.164   2.020 -0.2416  0.0461 -0.0924
 3724SOL    HW112772   5.425   1.106   1.950  1.3002  2.5508 -1.4217
 3724SOL    HW212773   5.388   1.260   1.991 -4.4119  0.7973  1.0929
 3725SOL     OW12774   1.349   5.994   6.176 -0.5254  0.2481  1.0428
 3725SOL    HW112775   1.305   6.061   6.116  0.6668 -0.6346 -0.8807
 3725SOL    HW212776   1.278   5.936   6.217 -1.3370  0.3508 -0.1502
 3726SOL     OW12777   2.594   3.673   1.577 -0.3544 -0.3571 -0.0071
 3726SOL    HW112778   2.675   3.614   1.580 -1.8058 -2.4080  1.6875
 3726SOL    HW212779   2.574   3.706   1.669 -0.9988  0.7919 -0.5448
 3727SOL     OW12780   4.783   6.302   4.528  0.1545 -0.3243  0.2062
 3727SOL    HW112781   4.699   6.310   4.582  1.2024 -0.2710  1.8823
 3727SOL    HW212782   4.841   6.230   4.567  1.0281 -0.1563 -0.7477
 3728SOL     OW12783   1.888   5.695   0.078 -0.5332  0.0922  0.3416
 3728SOL    HW112784   1.963   5.762   0.078 -0.2975 -0.1319 -0.8773
 3728SOL    HW212785   1.801   5.742   0.081 -0.3619  0.3512  2.0445
 3729SOL     OW12786   5.827   2.321   4.854 -0.4376  0.3663 -0.6340
 3729SOL    HW112787   5.921   2.344   4.831 -0.4528 -1.0090 -2.2353
 3729SOL    HW212788   5.825   2.255   4.929 -0.1566  0.6786 -0.3495
 3730SOL     OW12789   2.935   0.712   3.799  0.3823  0.2097  0.0490
 3730SOL    HW112790   2.994   0.780   3.755 -0.5034 -0.3773 -2.1710
 3730SOL    HW212791   2.878   0.758   3.868  0.6342  1.5025 -0.5665
 3731SOL     OW12792   2.459   3.514   6.958  0.3838  0.6579  0.0754
 3731SOL    HW112793   2.540   3.471   6.918  0.3661  1.4279 -0.8476
 3731SOL    HW212794   2.384   3.512   6.892 -0.5802 -0.6225  1.1562
 3732SOL     OW12795   0.007   3.050   5.989  0.1678  0.1108  0.0676
 3732SOL    HW112796  -0.043   3.127   6.030  2.5460  1.7657  0.0704
 3732SOL    HW212797   0.039   3.075   5.898 -0.8005 -1.7143 -0.8349
 3733SOL     OW12798   6.776   4.192   4.273  0.3587  0.3720 -0.1404
 3733SOL    HW112799   6.855   4.209   4.332  0.4401 -1.3735  0.2926
 3733SOL    HW212800   6.797   4.222   4.180  1.3036  0.5014  0.1044
 3734SOL     OW12801   4.103   2.978   6.516  0.2926 -0.5417  0.3341
 3734SOL    HW112802   4.085   2.880   6.510  0.0829 -0.4532 -0.9225
 3734SOL    HW212803   4.191   2.999   6.473 -0.1237 -0.0715 -0.3165
 3735SOL     OW12804   5.355   4.603   3.136 -0.6299  0.0039  0.4541
 3735SOL    HW112805   5.259   4.599   3.165 -0.7133  0.4577  0.2582
 3735SOL    HW212806   5.385   4.513   3.106 -1.0947 -0.0757  0.2144
 3736SOL     OW12807   5.542   2.283   4.764 -0.2884  0.1545  0.4882
 3736SOL    HW112808   5.640   2.291   4.778 -0.1544  0.2749 -0.4624
 3736SOL    HW212809   5.519   2.189   4.740 -0.4422  0.0621  1.0035
 3737SOL     OW12810   5.086   4.363   6.183 -0.5664 -0.1580 -0.6570
 3737SOL    HW112811   5.015   4.293   6.182  1.7303 -2.7857  1.1524
 3737SOL    HW212812   5.072   4.423   6.262 -0.8576 -0.6112 -0.3528
 3738SOL     OW12813   2.151   1.612   2.734 -0.1901  0.3917 -0.2693
 3738SOL    HW112814   2.147   1.520   2.695  1.0570 -0.3404  1.2032
 3738SOL    HW212815   2.131   1.607   2.832 -1.1794  1.8671 -0.3681
 3739SOL     OW12816   4.817   0.221   0.724 -0.0578 -0.2388  0.1741
 3739SOL    HW112817   4.856   0.259   0.808 -0.9018 -0.2869  0.6009
 3739SOL    HW212818   4.719   0.240   0.721 -0.2648 -1.2939 -0.2229
 3740SOL     OW12819   1.604   1.508   0.272 -0.1841  0.1796  0.3015
 3740SOL    HW112820   1.649   1.561   0.200 -1.8736  0.5569 -0.5477
 3740SOL    HW212821   1.576   1.570   0.346 -1.7069  0.4633 -0.4581
 3741SOL     OW12822   5.404   6.103   2.235 -0.4946  0.1545 -0.1277
 3741SOL    HW112823   5.416   6.180   2.173  0.9602 -1.0780 -1.4758
 3741SOL    HW212824   5.447   6.022   2.196 -0.2707 -0.9025  2.1349
 3742SOL     OW12825   0.419   3.054   3.172  0.5898 -0.1145 -0.0884
 3742SOL    HW112826   0.393   3.140   3.214  0.6054  0.3627 -1.0302
 3742SOL    HW212827   0.353   3.030   3.101  1.5076  0.0076 -1.0092
 3743SOL     OW12828   6.900   6.393   3.940  0.0313  0.5397 -0.0591
 3743SOL    HW112829   6.875   6.330   3.867 -1.2699 -0.8508  1.4943
 3743SOL    HW212830   6.821   6.447   3.967  0.2002  0.2980  0.9936
 3744SOL     OW12831   0.485   1.298   6.623  0.0660  0.4147  0.0978
 3744SOL    HW112832   0.390   1.325   6.608 -0.7593 -2.7240 -1.0978
 3744SOL    HW212833   0.489   1.234   6.701  1.0343 -0.1982 -0.4397
 3745SOL     OW12834   1.674   6.364   4.865  0.3755 -0.0500 -0.1255
 3745SOL    HW112835   1.700   6.434   4.799  1.4661  0.5099  0.8611
 3745SOL    HW212836   1.621   6.406   4.939 -0.5446 -0.6075 -0.4573
 3746SOL     OW12837   2.362   4.229   4.708  0.2476 -0.2421  0.3254
 3746SOL    HW112838   2.356   4.167   4.630  0.2273  2.1125 -1.6230
 3746SOL    HW212839   2.272   4.268   4.727  0.0007 -1.6011  2.3162
 3747SOL     OW12840   0.026   5.119   1.327 -0.1524 -0.2528  0.0313
 3747SOL    HW112841  -0.038   5.049   1.356 -0.7646  0.0870 -0.4584
 3747SOL    HW212842   0.066   5.093   1.239 -1.1479  0.4627 -0.6588
 3748SOL     OW12843   5.458   5.020   1.997  0.9107 -0.1116  0.1312
 3748SOL    HW112844   5.481   5.083   2.070  1.5198 -0.1469 -0.0248
 3748SOL    HW212845   5.359   5.018   1.984  0.6541 -1.2599  1.9823
 3749SOL     OW12846   2.046   5.684   6.549 -0.2437  0.1548  0.9529
 3749SOL    HW112847   2.011   5.622   6.618 -0.2320 -1.2610 -0.2587
 3749SOL    HW212848   2.041   5.640   6.459  2.8880  0.5795  0.4501
 3750SOL     OW12849   1.157   5.201   5.372 -0.1790 -0.2984 -0.0688
 3750SOL    HW112850   1.221   5.277   5.388  1.1571 -1.2659 -0.5900
 3750SOL    HW212851   1.067   5.225   5.408  0.1521  1.6001 -0.3673
 3751SOL     OW12852   2.353   5.103   3.329  0.3178  0.2997 -0.2126
 3751SOL    HW112853   2.254   5.090   3.322  0.0042  1.2219  1.7630
 3751SOL    HW212854   2.383   5.169   3.260 -0.6901  1.0539  0.0456
 3752SOL     OW12855   5.992   2.790   4.425  0.4362  0.3040 -0.0637
 3752SOL    HW112856   5.998   2.726   4.348  0.9666  1.1383 -0.7329
 3752SOL    HW212857   5.900   2.828   4.430  0.5207  0.5727 -0.5541
 3753SOL     OW12858   6.327   5.337   1.422  0.3948  0.0003 -0.2541
 3753SOL    HW112859   6.402   5.396   1.392 -0.5671  1.4393  0.0471
 3753SOL    HW212860   6.288   5.290   1.343  0.2383  0.9192 -0.7424
 3754SOL     OW12861   0.418   6.075   3.937 -0.6355 -0.3443 -0.3427
 3754SOL    HW112862   0.434   6.109   3.845  3.4210 -1.4959 -0.2519
 3754SOL    HW212863   0.482   6.119   4.001 -1.2344 -1.7665  1.3332
 3755SOL     OW12864   0.576   2.898   5.992  0.1833 -0.5880 -1.4341
 3755SOL    HW112865   0.517   2.912   5.912  1.9482  0.5818 -2.5773
 3755SOL    HW212866   0.672   2.906   5.966  0.8946 -1.8915  0.4966
 3756SOL     OW12867   6.520   0.905   4.088 -0.3612  0.0021  0.0824
 3756SOL    HW112868   6.562   0.838   4.027 -1.5520  0.0243 -0.7861
 3756SOL    HW212869   6.491   0.860   4.172  2.6258  0.2327  1.3665
 3757SOL     OW12870   2.622   4.571   6.846 -0.5250 -0.0722 -0.1169
 3757SOL    HW112871   2.687   4.525   6.905 -1.7880 -1.4207  0.2841
 3757SOL    HW212872   2.625   4.530   6.755 -2.1241 -1.5079  0.4195
 3758SOL     OW12873   1.461   1.437   0.843 -0.0811  0.2229 -0.2749
 3758SOL    HW112874   1.397   1.360   0.841 -1.9054  1.6790  0.0134
 3758SOL    HW212875   1.496   1.449   0.936 -0.5875  0.3690 -0.1009
 3759SOL     OW12876   1.034   6.867   1.813 -0.8371 -0.1795 -0.9331
 3759SOL    HW112877   1.115   6.921   1.837 -1.7304  0.8713 -0.1566
 3759SOL    HW212878   1.043   6.833   1.719  0.8876 -0.8450 -0.5592
 3760SOL     OW12879   3.975   0.629   2.855  0.0862 -0.3179 -0.3067
 3760SOL    HW112880   4.073   0.619   2.873 -0.1960 -1.6628  0.6355
 3760SOL    HW212881   3.924   0.618   2.941 -0.9885 -1.2548 -1.0383
 3761SOL     OW12882   1.137   6.515   2.405 -0.5092 -0.4270 -0.2684
 3761SOL    HW112883   1.172   6.516   2.499  1.1980  1.8908 -0.8495
 3761SOL    HW212884   1.213   6.505   2.341 -1.7086 -2.5951 -1.4500
 3762SOL     OW12885   6.633   2.155   6.924  0.6006 -0.2528  0.3524
 3762SOL    HW112886   6.632   2.252   6.951  2.2889  0.2251 -1.1376
 3762SOL    HW212887   6.647   2.098   7.005  2.2770  0.9246  0.9492
 3763SOL     OW12888   2.119   4.555   6.386 -0.3337 -0.0058 -0.4635
 3763SOL    HW112889   2.136   4.647   6.350 -2.1656  0.4258 -0.3102
 3763SOL    HW212890   2.132   4.488   6.313 -2.5004  0.7157 -1.6036
 3764SOL     OW12891   0.263   3.145   4.061  0.0421  0.4160 -0.0795
 3764SOL    HW112892   0.344   3.197   4.087 -0.1985  0.5969  0.3187
 3764SOL    HW212893   0.288   3.073   3.996  0.3410  1.1664 -0.8074
 3765SOL     OW12894   6.404   3.212   5.394  0.1300 -0.0214 -0.6814
 3765SOL    HW112895   6.360   3.300   5.412  3.9412  1.6218  1.6870
 3765SOL    HW212896   6.367   3.143   5.457 -1.5993  0.2853 -1.3137
 3766SOL     OW12897   0.604   1.649   3.607  0.1010 -0.2021  0.0860
 3766SOL    HW112898   0.637   1.663   3.514 -0.0139  0.5766  0.1575
 3766SOL    HW212899   0.530   1.582   3.606  0.0561 -0.1507 -0.3961
 3767SOL     OW12900   6.210   6.693   1.938  0.2725 -0.2491  0.0371
 3767SOL    HW112901   6.184   6.636   2.015  0.5228 -1.0975 -0.4931
 3767SOL    HW212902   6.241   6.782   1.971  0.1841 -0.5291  0.8893
 3768SOL     OW12903   4.478   6.596   6.046 -0.3389 -0.5240  0.0940
 3768SOL    HW112904   4.529   6.662   5.991 -1.3770  0.4177  0.2356
 3768SOL    HW212905   4.528   6.577   6.131  0.3777 -0.5950 -0.3310
 3769SOL     OW12906   0.015   0.903   0.862 -0.4403 -0.0071  0.0230
 3769SOL    HW112907  -0.081   0.924   0.842 -0.2114  1.5259  0.3925
 3769SOL    HW212908   0.044   0.825   0.808 -1.6984 -0.0536 -0.6247
 3770SOL     OW12909   0.435   3.464   2.543 -0.0987 -0.3319  0.3317
 3770SOL    HW112910   0.363   3.410   2.500  0.2232 -1.3985  1.0932
 3770SOL    HW212911   0.424   3.461   2.643 -0.4798  1.5941  0.3844
 3771SOL     OW12912   4.463   0.690   4.430 -0.2572  0.3325  0.4560
 3771SOL    HW112913   4.450   0.746   4.348 -0.6114 -0.1447  0.1795
 3771SOL    HW212914   4.373   0.666   4.468 -0.1692 -1.0801 -0.1440
 3772SOL     OW12915   5.043   6.835   2.064 -0.4061 -0.1421  0.1239
 3772SOL    HW112916   4.995   6.845   2.151 -1.6918  2.3815 -0.7793
 3772SOL    HW212917   4.979   6.803   1.994  0.4483 -1.4609 -0.0907
 3773SOL     OW12918   6.727   3.376   6.740 -0.1815 -0.1768 -0.2443
 3773SOL    HW112919   6.630   3.395   6.758 -0.0958  0.4470 -0.4163
 3773SOL    HW212920   6.757   3.300   6.798 -0.6319 -0.0118  0.2214
 3774SOL     OW12921   0.415   3.448   6.524  0.6652  0.3744 -0.2230
 3774SOL    HW112922   0.431   3.492   6.613  0.3291 -1.3871  0.7442
 3774SOL    HW212923   0.447   3.354   6.527 -0.4305 -0.0747 -1.5996
 3775SOL     OW12924   5.456   1.891   2.551 -0.8121 -0.4523  0.2361
 3775SOL    HW112925   5.538   1.883   2.609 -0.5418 -1.5153 -0.2803
 3775SOL    HW212926   5.481   1.939   2.466 -0.7339 -0.7353  0.0986
 3776SOL     OW12927   6.393   2.878   1.567  0.0677  0.0945 -0.2000
 3776SOL    HW112928   6.316   2.942   1.572 -0.0189  0.1955 -2.2019
 3776SOL    HW212929   6.383   2.821   1.486  1.8990 -0.1816 -0.2607
 3777SOL     OW12930   6.430   5.029   0.580  0.5744 -0.3424  0.2668
 3777SOL    HW112931   6.371   5.098   0.538 -0.5189 -0.1689  2.0243
 3777SOL    HW212932   6.464   4.967   0.509 -0.7187  0.2853 -0.9468
 3778SOL     OW12933   2.675   3.115   5.573  0.7230 -0.2616  0.1174
 3778SOL    HW112934   2.702   3.175   5.498  0.9700 -0.1662  0.2839
 3778SOL    HW212935   2.753   3.058   5.600  0.9497  0.4460  1.0120
 3779SOL     OW12936   4.990   5.118   1.242  0.3310  0.2505  0.4111
 3779SOL    HW112937   4.922   5.156   1.179 -0.2021  1.6102  1.7238
 3779SOL    HW212938   4.945   5.057   1.307  0.5509  0.2404  0.5569
 3780SOL     OW12939   3.536   2.712   5.951  0.4696 -0.4010  0.0796
 3780SOL    HW112940   3.526   2.766   6.035 -0.0530 -0.0523 -0.2089
 3780SOL    HW212941   3.563   2.771   5.876 -2.1010 -0.1378 -0.7242
 3781SOL     OW12942   2.220   1.831   3.027 -1.1238 -0.5274  0.1081
 3781SOL    HW112943   2.249   1.782   3.109 -1.2010  1.4420  1.3887
 3781SOL    HW212944   2.296   1.838   2.963 -0.1905  0.3564  1.2748
 3782SOL     OW12945   0.545   5.135   1.175  0.1475  0.1513  0.2750
 3782SOL    HW112946   0.453   5.167   1.195  0.8181  1.5835  1.2629
 3782SOL    HW212947   0.561   5.139   1.076 -0.6791  0.3639  0.1451
 3783SOL     OW12948   1.711   1.542   3.505  0.3455  0.5243  0.1654
 3783SOL    HW112949   1.810   1.536   3.501  0.4881  1.8529  1.0168
 3783SOL    HW212950   1.673   1.533   3.412  1.1246 -1.4460 -0.0033
 3784SOL     OW12951   5.970   3.524   6.617  0.1035 -0.3731  0.1250
 3784SOL    HW112952   6.063   3.561   6.609 -0.3223  0.6325 -0.2552
 3784SOL    HW212953   5.950   3.468   6.537  0.2348 -0.2777  0.0254
 3785SOL     OW12954   0.852   3.076   3.240  0.2218  0.1007  0.1649
 3785SOL    HW112955   0.912   3.152   3.216  1.4592 -0.8339  0.2490
 3785SOL    HW212956   0.799   3.101   3.322  2.2736  0.0437  1.5729
 3786SOL     OW12957   6.290   1.205   6.836  0.2337 -0.0005 -0.1283
 3786SOL    HW112958   6.235   1.123   6.820 -0.5687  0.7690 -1.5342
 3786SOL    HW212959   6.383   1.190   6.803  0.2214 -0.4916  0.0504
 3787SOL     OW12960   6.271   1.548   0.861  0.1631  0.4146 -0.4214
 3787SOL    HW112961   6.308   1.592   0.943  2.4611 -0.3203 -0.9912
 3787SOL    HW212962   6.194   1.489   0.886 -2.0134  3.4154  0.5631
 3788SOL     OW12963   1.437   6.773   0.752 -0.7473  0.4770 -0.0380
 3788SOL    HW112964   1.380   6.713   0.808 -0.0963 -0.9936 -0.8941
 3788SOL    HW212965   1.494   6.718   0.691  1.3209  1.8976  0.4934
 3789SOL     OW12966   1.634   1.904   5.630  0.7612  0.1254 -0.2244
 3789SOL    HW112967   1.637   1.814   5.587 -0.9518  0.9407 -2.2588
 3789SOL    HW212968   1.599   1.971   5.564 -0.9804  1.7063  2.1360
 3790SOL     OW12969   1.083   4.109   6.638 -0.2723  0.7567  0.3495
 3790SOL    HW112970   1.080   4.087   6.540  0.8250 -1.3876  0.7459
 3790SOL    HW212971   1.175   4.139   6.663 -0.7602  2.1166  0.6058
 3791SOL     OW12972   4.206   6.273   5.605  0.2062 -0.1605  0.6144
 3791SOL    HW112973   4.263   6.324   5.541  0.8148  0.0604  1.3115
 3791SOL    HW212974   4.114   6.262   5.567 -0.3746  2.6361  0.9877
 3792SOL     OW12975   0.971   4.020   3.506 -0.9647  0.0419  0.2615
 3792SOL    HW112976   0.873   4.004   3.492 -1.0741 -0.8056  1.7252
 3792SOL    HW212977   0.989   4.025   3.604  0.9031 -3.1154  0.2121
 3793SOL     OW12978   2.615   0.312   4.390  0.5120  0.3131  0.3851
 3793SOL    HW112979   2.637   0.266   4.303  1.1779 -0.2439  0.8385
 3793SOL    HW212980   2.534   0.271   4.430  0.3923  0.3552  0.1886
 3794SOL     OW12981   2.339   4.067   4.932 -0.3659  0.1699 -0.0341
 3794SOL    HW112982   2.350   4.114   4.844 -2.0030  1.5269  0.4333
 3794SOL    HW212983   2.369   3.972   4.923 -3.5011 -0.7156 -3.0276
 3795SOL     OW12984   3.467   3.863   4.859 -0.4446 -0.0983  0.1851
 3795SOL    HW112985   3.565   3.864   4.881 -0.2037 -1.9913 -0.6400
 3795SOL    HW212986   3.440   3.954   4.828  1.2103  0.3228 -0.1621
 3796SOL     OW12987   1.653   3.255   3.303  0.1579  0.0065 -0.1781
 3796SOL    HW112988   1.686   3.296   3.218 -3.2351 -0.6907 -2.0141
 3796SOL    HW212989   1.590   3.180   3.281 -0.5040 -0.4906  2.9906
 3797SOL     OW12990   5.468   4.542   4.298 -0.0072 -0.3140 -0.0224
 3797SOL    HW112991   5.567   4.532   4.305 -0.0141 -1.9348 -1.7367
 3797SOL    HW212992   5.443   4.565   4.204 -1.2604  0.2445  0.4226
 3798SOL     OW12993   1.304   3.491   3.184 -0.9645 -0.6126 -0.7179
 3798SOL    HW112994   1.237   3.559   3.156  0.0548 -0.1777 -2.1703
 3798SOL    HW212995   1.384   3.496   3.125 -0.2176 -2.0484  0.1190
 3799SOL     OW12996   5.266   6.510   0.362  0.0331 -0.0940  0.8383
 3799SOL    HW112997   5.328   6.579   0.401 -1.2420 -0.2636  3.3607
 3799SOL    HW212998   5.321   6.439   0.318  1.4389  1.6474 -0.4246
 3800SOL     OW12999   3.788   4.804   0.460  0.3265  0.3835  0.0078
 3800SOL    HW113000   3.882   4.780   0.437 -0.2051 -0.8298 -1.0415
 3800SOL    HW213001   3.730   4.792   0.380 -0.9586 -0.2334  0.9905
 3801SOL     OW13002   0.259   0.582   6.862  0.2751 -0.2446 -0.3110
 3801SOL    HW113003   0.342   0.573   6.918 -0.5511 -0.8162  0.8881
 3801SOL    HW213004   0.235   0.493   6.824  0.6787  0.0915 -1.3729
 3802SOL     OW13005   4.946   4.688   0.702 -0.3414 -0.1785 -0.4350
 3802SOL    HW113006   5.009   4.725   0.634 -2.0957  0.7972 -1.6078
 3802SOL    HW213007   4.910   4.762   0.760 -0.4552 -0.7031  0.1881
 3803SOL     OW13008   4.908   3.809   6.486  0.2103  0.0316  0.0107
 3803SOL    HW113009   4.980   3.858   6.437 -0.2044  1.1556  0.4953
 3803SOL    HW213010   4.888   3.855   6.572  0.4719 -1.5536  0.9587
 3804SOL     OW13011   6.992   3.472   5.862  0.2974 -0.2584 -0.9284
 3804SOL    HW113012   7.035   3.435   5.780  1.1976 -0.4300 -0.3952
 3804SOL    HW213013   7.037   3.558   5.887  0.4733 -0.5336 -0.2613
 3805SOL     OW13014   6.712   1.969   2.313 -0.1732  0.4245 -0.1727
 3805SOL    HW113015   6.736   1.918   2.396 -3.8595 -2.0579 -0.4057
 3805SOL    HW213016   6.757   1.928   2.234 -1.6117 -1.4458 -0.1001
 3806SOL     OW13017   2.042   0.041   6.172  0.0479 -0.1663  0.1195
 3806SOL    HW113018   1.993  -0.001   6.249 -0.3574 -0.8549 -0.5021
 3806SOL    HW213019   2.033  -0.017   6.091 -0.4595  1.0700 -0.7429
 3807SOL     OW13020   5.616   2.238   1.705 -0.6038  0.6077 -0.5359
 3807SOL    HW113021   5.547   2.173   1.673 -1.3762  0.1884  1.8282
 3807SOL    HW213022   5.572   2.322   1.734 -0.1863  0.2401  1.2498
 3808SOL     OW13023   2.023   3.700   5.940 -0.0393  0.8618  0.3262
 3808SOL    HW113024   1.976   3.693   6.028 -0.4441  1.7413  0.1853
 3808SOL    HW213025   2.118   3.672   5.952 -0.2726  0.2625  0.8790
 3809SOL     OW13026   3.136   5.952   6.778  0.2538 -0.0807 -0.3240
 3809SOL    HW113027   3.169   5.993   6.693 -0.0800 -0.0660 -0.4503
 3809SOL    HW213028   3.038   5.933   6.769  0.0817  0.4875  0.2707
 3810SOL     OW13029   4.191   5.758   4.625 -0.4298 -0.2844  0.4059
 3810SOL    HW113030   4.137   5.808   4.557  0.8374 -2.6392 -2.5206
 3810SOL    HW213031   4.288   5.774   4.608 -0.0700 -1.5918  1.1502
 3811SOL     OW13032   5.927   5.334   2.860  0.4794  0.4952  0.2756
 3811SOL    HW113033   5.884   5.273   2.926 -0.5307 -0.4850 -1.2261
 3811SOL    HW213034   5.870   5.416   2.849 -0.0129  0.0853 -0.2821
 3812SOL     OW13035   5.985   1.191   0.560  0.2913  0.0231 -0.4260
 3812SOL    HW113036   6.080   1.222   0.555  0.7202 -0.8372  1.5050
 3812SOL    HW213037   5.982   1.091   0.552 -0.3962  0.0003  0.0316
 3813SOL     OW13038   2.871   2.160   6.973  0.1494  0.7780  0.6469
 3813SOL    HW113039   2.964   2.194   6.958  0.0634  0.9866  0.5897
 3813SOL    HW213040   2.825   2.148   6.885  0.8536 -1.3866  0.5208
 3814SOL     OW13041   5.421   3.043   2.893  0.1108  0.0673 -0.5817
 3814SOL    HW113042   5.333   3.089   2.909 -0.1101 -0.3675 -0.5252
 3814SOL    HW213043   5.470   3.035   2.980 -0.4725 -1.0430 -0.3243
 3815SOL     OW13044   3.060   0.248   2.068  0.4902  0.4670 -0.3592
 3815SOL    HW113045   3.032   0.318   2.134  0.5913  0.3745 -0.2147
 3815SOL    HW213046   2.980   0.213   2.020  0.4210  0.5741 -0.3217
 3816SOL     OW13047   5.636   1.818   1.877 -0.1563  0.6119 -0.5736
 3816SOL    HW113048   5.703   1.749   1.850  1.1518  1.2544  0.8149
 3816SOL    HW213049   5.545   1.791   1.848  0.4939 -1.0619 -1.1486
 3817SOL     OW13050   1.747   6.548   0.225 -0.7191  0.1384  0.6149
 3817SOL    HW113051   1.814   6.495   0.173 -1.1698 -1.8043  1.9065
 3817SOL    HW213052   1.681   6.486   0.268 -1.2024  1.7353  2.3272
 3818SOL     OW13053   0.701   3.915   2.930  0.1798 -0.0396  0.1794
 3818SOL    HW113054   0.695   3.984   2.858 -0.4422 -1.1844 -0.9220
 3818SOL    HW213055   0.610   3.897   2.966  0.6764  1.8163  2.6072
 3819SOL     OW13056   0.903   4.912   2.020  0.9714  0.0796 -0.2283
 3819SOL    HW113057   0.901   4.986   1.952 -0.4121 -1.2130 -1.6820
 3819SOL    HW213058   0.952   4.834   1.982  0.2227 -0.6522  0.2884
 3820SOL     OW13059   3.766   6.364   0.931  0.0366 -0.2319 -0.0753
 3820SOL    HW113060   3.827   6.440   0.954 -0.9029  0.5475 -0.1125
 3820SOL    HW213061   3.705   6.346   1.007  0.0980 -0.8125 -0.1552
 3821SOL     OW13062   7.001   4.041   3.260 -0.9911 -0.1671  0.5627
 3821SOL    HW113063   7.035   3.959   3.214  0.5308  0.3938  0.6604
 3821SOL    HW213064   6.907   4.025   3.290 -0.7705 -1.8188  0.4574
 3822SOL     OW13065   4.987   6.574   0.305 -0.4057  0.2782  0.3084
 3822SOL    HW113066   5.086   6.564   0.307 -0.0591  2.9183  0.2350
 3822SOL    HW213067   4.961   6.661   0.349 -2.7052 -0.4145  0.4826
 3823SOL     OW13068   4.631   5.957   0.078  0.3945  0.2009  0.2062
 3823SOL    HW113069   4.670   5.869   0.051 -0.6750 -0.3447  0.3804
 3823SOL    HW213070   4.642   5.969   0.177 -0.9990 -0.5559  0.4771
 3824SOL     OW13071   3.175   1.282   4.429 -0.6861  0.1585  0.3656
 3824SOL    HW113072   3.085   1.264   4.471 -1.1983  1.2289 -0.2409
 3824SOL    HW213073   3.165   1.288   4.330  0.3548 -1.3687  0.1329
 3825SOL     OW13074   3.019   4.788   5.974 -0.2808 -0.0712 -0.5522
 3825SOL    HW113075   3.062   4.820   5.889  1.3417  0.1978  0.3283
 3825SOL    HW213076   3.090   4.765   6.040 -1.4720 -1.9207  0.1642
 3826SOL     OW13077   5.580   0.679   2.697 -0.2111  0.3574  0.8287
 3826SOL    HW113078   5.606   0.614   2.626 -1.7183 -0.1270  0.6759
 3826SOL    HW213079   5.592   0.772   2.663 -0.3261  0.1352  0.1516
 3827SOL     OW13080   1.973   3.372   6.665  0.0863  0.1483 -0.4737
 3827SOL    HW113081   1.919   3.310   6.608  0.4611  0.6295 -1.3733
 3827SOL    HW213082   2.067   3.373   6.631 -0.3109  2.6186 -1.6932
 3828SOL     OW13083   2.794   2.791   1.133  0.1380  0.4897 -0.1751
 3828SOL    HW113084   2.812   2.889   1.135  1.7877  0.2521 -0.9594
 3828SOL    HW213085   2.841   2.750   1.054  1.0605 -1.1824  1.1508
 3829SOL     OW13086   1.514   6.418   0.298 -0.6506 -0.0818 -0.6269
 3829SOL    HW113087   1.495   6.428   0.395  0.1272 -0.2481 -0.4515
 3829SOL    HW213088   1.483   6.328   0.267  3.1867 -2.0290  0.5448
 3830SOL     OW13089   3.425   3.126   5.306  0.1973  0.0627  0.5853
 3830SOL    HW113090   3.356   3.119   5.377 -0.1730  0.2446  0.2496
 3830SOL    HW213091   3.417   3.048   5.244 -1.2885  1.2579 -0.8269
 3831SOL     OW13092   1.747   5.661   5.667 -0.1901  0.7376  0.9061
 3831SOL    HW113093   1.832   5.659   5.615 -0.8909  2.8013 -0.4832
 3831SOL    HW213094   1.679   5.714   5.616 -2.3915 -0.9852  1.8809
 3832SOL     OW13095   6.154   4.291   1.648  0.0903 -0.1044  0.3766
 3832SOL    HW113096   6.150   4.239   1.563 -0.2280 -0.6499  0.7160
 3832SOL    HW213097   6.201   4.378   1.632 -0.5221  0.0781 -0.4914
 3833SOL     OW13098   4.962   1.110   1.427 -0.5381 -0.3156 -0.0475
 3833SOL    HW113099   5.024   1.107   1.506  1.0808 -0.7341 -1.2763
 3833SOL    HW213100   4.980   1.193   1.374 -2.9365  0.9592  0.9770
 3834SOL     OW13101   3.142   6.248   2.894  0.3512  0.7756 -0.1592
 3834SOL    HW113102   3.176   6.154   2.885  0.9970  1.0687 -0.9189
 3834SOL    HW213103   3.219   6.312   2.885 -0.1114  1.3823  0.1567
 3835SOL     OW13104   0.616   1.600   2.214 -0.5685  0.5117 -0.1821
 3835SOL    HW113105   0.524   1.634   2.232 -0.1269  1.2137  0.8208
 3835SOL    HW213106   0.677   1.677   2.194 -0.2927  0.0164 -1.3351
 3836SOL     OW13107   0.850   1.721   6.219  0.7461  0.1973  0.2441
 3836SOL    HW113108   0.843   1.626   6.250  1.2335 -0.0083 -0.2613
 3836SOL    HW213109   0.808   1.781   6.287 -2.7213 -0.6209 -0.9573
 3837SOL     OW13110   6.164   6.866   5.879  0.7635  0.3898 -0.6247
 3837SOL    HW113111   6.200   6.899   5.967  0.6968  1.0620 -0.8434
 3837SOL    HW213112   6.103   6.789   5.896  2.1089 -0.6223 -0.2301
 3838SOL     OW13113   4.873   4.516   1.124  0.2451  0.0449  0.3297
 3838SOL    HW113114   4.827   4.565   1.050 -1.8602 -0.8197  0.9900
 3838SOL    HW213115   4.856   4.564   1.210  0.7925 -0.1796  0.5684
 3839SOL     OW13116   1.762   0.830   0.269 -0.3500  0.1556  0.0756
 3839SOL    HW113117   1.833   0.793   0.210 -0.0254 -0.6311  0.9354
 3839SOL    HW213118   1.689   0.869   0.213  0.5470  0.5923 -0.8214
 3840SOL     OW13119   1.881   5.141   6.269 -0.4537 -0.3958 -0.3445
 3840SOL    HW113120   1.884   5.158   6.367  0.0603 -0.3870 -0.3619
 3840SOL    HW213121   1.789   5.109   6.244 -0.6479 -0.1994  0.1020
 3841SOL     OW13122   3.816   5.819   0.664  0.3185  0.1030 -0.0315
 3841SOL    HW113123   3.897   5.874   0.682  1.0672 -0.5009 -1.4586
 3841SOL    HW213124   3.753   5.826   0.742  1.8207  0.3929  1.1962
 3842SOL     OW13125   1.871   5.466   6.995  0.2116 -0.4981 -0.1463
 3842SOL    HW113126   1.871   5.397   7.067 -0.7475  0.6368  0.9842
 3842SOL    HW213127   1.893   5.556   7.033  1.6328 -0.1619 -1.6203
 3843SOL     OW13128   3.807   2.486   6.862 -0.1139 -0.1097 -0.0297
 3843SOL    HW113129   3.740   2.415   6.844 -0.8616  0.4805  0.3446
 3843SOL    HW213130   3.815   2.547   6.783 -0.4567  0.1554  0.1351
 3844SOL     OW13131   6.332   6.519   3.069  0.1302 -0.1487  0.1266
 3844SOL    HW113132   6.418   6.470   3.059 -0.8409 -1.8126 -0.5318
 3844SOL    HW213133   6.308   6.564   2.983 -0.3770 -0.9682 -0.1741
 3845SOL     OW13134   0.784   1.631   1.892 -0.2637  0.4116  0.3855
 3845SOL    HW113135   0.774   1.693   1.970 -2.8084 -0.0223  0.4889
 3845SOL    HW213136   0.807   1.682   1.810 -0.2756  1.2130  0.8767
 3846SOL     OW13137   1.996   1.108   1.160  0.4844  0.0474  0.7167
 3846SOL    HW113138   2.077   1.156   1.127  0.6111 -0.9067 -0.4531
 3846SOL    HW213139   2.003   1.011   1.137 -1.1927  0.0158  0.1329
 3847SOL     OW13140   5.919   5.175   2.318  0.4570  0.6669 -0.0907
 3847SOL    HW113141   5.924   5.125   2.231  0.5625  0.4832  0.0210
 3847SOL    HW213142   5.837   5.232   2.319 -0.7952 -1.0717  0.6089
 3848SOL     OW13143   4.092   0.002   3.052 -0.5887  0.4923 -0.2146
 3848SOL    HW113144   4.063   0.092   3.021 -2.8827  0.4213  1.4555
 3848SOL    HW213145   4.034  -0.068   3.011 -0.1846 -0.0545  0.1236
 3849SOL     OW13146   1.938   5.834   4.479 -0.2445  0.8933  0.2807
 3849SOL    HW113147   1.974   5.741   4.481  0.1041  1.0416  1.6393
 3849SOL    HW213148   1.882   5.845   4.397  0.4485 -0.2206 -0.3814
 3850SOL     OW13149   0.608   4.141   3.945 -0.5699 -0.0247  0.2968
 3850SOL    HW113150   0.520   4.186   3.939 -1.0668 -0.8372  1.1981
 3850SOL    HW213151   0.619   4.080   3.867  1.1624  3.3197 -2.3390
 3851SOL     OW13152   1.366   6.882   1.939  0.3687 -0.1094  0.3514
 3851SOL    HW113153   1.308   6.957   1.907  0.8373 -0.0965 -0.5082
 3851SOL    HW213154   1.315   6.825   2.004 -0.7936 -0.3995 -0.7807
 3852SOL     OW13155   1.962   0.332   0.395  0.4907  0.8330 -0.0705
 3852SOL    HW113156   1.909   0.407   0.354 -0.0429  0.4158 -0.1422
 3852SOL    HW213157   2.060   0.355   0.390  0.5011  0.5561 -2.1081
 3853SOL     OW13158   1.617   5.072   2.347 -0.0368  0.2272 -0.1457
 3853SOL    HW113159   1.591   5.010   2.273 -0.0962 -1.5707  1.3158
 3853SOL    HW213160   1.534   5.101   2.396  0.1245  0.2000  0.1438
 3854SOL     OW13161   6.875   5.945   5.066 -0.4651  0.2974 -0.1741
 3854SOL    HW113162   6.964   5.902   5.079 -0.3817 -0.0286 -1.6916
 3854SOL    HW213163   6.844   5.931   4.972 -2.0162  0.6155  0.2619
 3855SOL     OW13164   3.878   0.326   6.104 -0.1004 -0.1865  0.0504
 3855SOL    HW113165   3.798   0.314   6.163  1.6057 -3.7535  1.9801
 3855SOL    HW213166   3.861   0.282   6.015 -0.0526 -1.7270  0.7701
 3856SOL     OW13167   1.580   6.578   0.554 -0.3751  0.7468  0.4457
 3856SOL    HW113168   1.503   6.590   0.492 -0.7117  0.4774  0.8014
 3856SOL    HW213169   1.655   6.638   0.527 -1.1865  1.9850  0.8527
 3857SOL     OW13170   6.847   0.011   1.239 -0.4679  0.1308  0.5089
 3857SOL    HW113171   6.782  -0.028   1.305 -0.9269  1.4914  0.8778
 3857SOL    HW213172   6.797   0.049   1.161  0.0954 -2.7498 -1.4602
 3858SOL     OW13173   4.901   0.411   1.600  0.7128  0.3839 -0.8009
 3858SOL    HW113174   4.843   0.492   1.593  1.0025  0.5448 -1.3867
 3858SOL    HW213175   4.962   0.406   1.521 -0.3412 -1.2322 -1.5702
 3859SOL     OW13176   0.698   3.770   0.034  0.5217  0.3889  0.1812
 3859SOL    HW113177   0.737   3.680   0.054  0.8636  0.3274 -0.6890
 3859SOL    HW213178   0.727   3.798  -0.058 -0.7582  0.7471 -0.1308
 3860SOL     OW13179   0.135   4.852   1.942 -0.4483 -0.1138 -0.4561
 3860SOL    HW113180   0.094   4.817   2.026  1.2520  0.4660  0.6587
 3860SOL    HW213181   0.066   4.853   1.870 -2.0799 -0.2198  1.0285
 3861SOL     OW13182   5.059   1.363   6.807  0.2633 -0.0470  0.3524
 3861SOL    HW113183   4.983   1.305   6.836  1.3530 -1.6965  0.0676
 3861SOL    HW213184   5.113   1.389   6.887  0.4817 -0.4895  0.3527
 3862SOL     OW13185   0.329   1.204   6.302 -0.1379 -0.2325  0.1957
 3862SOL    HW113186   0.251   1.266   6.291  0.8157  0.8400 -0.7900
 3862SOL    HW213187   0.395   1.220   6.229  1.2559 -0.7410  1.2993
 3863SOL     OW13188   3.350   6.416   2.404 -0.0124 -0.3310 -0.3893
 3863SOL    HW113189   3.364   6.495   2.343  0.5259 -0.1842 -0.0888
 3863SOL    HW213190   3.359   6.332   2.352 -1.9333 -0.2073 -0.9962
 3864SOL     OW13191   4.611   6.680   3.729  0.1019 -0.1637  0.2875
 3864SOL    HW113192   4.705   6.693   3.762 -0.2401 -0.0770  1.2862
 3864SOL    HW213193   4.590   6.749   3.660  1.0932 -0.8085 -0.6800
 3865SOL     OW13194   0.532   4.022   4.779 -0.1947 -0.0188 -0.3632
 3865SOL    HW113195   0.487   4.058   4.860  0.7542 -3.2483  1.8240
 3865SOL    HW213196   0.627   4.001   4.800  0.0352 -1.1219 -2.2466
 3866SOL     OW13197   6.080   0.741   3.994  0.1093  0.0351  0.2428
 3866SOL    HW113198   6.148   0.806   4.028 -0.9229  0.3987  1.7201
 3866SOL    HW213199   6.005   0.791   3.951  0.3231 -0.3146 -0.5517
 3867SOL     OW13200   2.940   1.554   3.315 -0.6358  0.0685  0.0372
 3867SOL    HW113201   3.008   1.486   3.344  0.9839  1.3204 -0.6508
 3867SOL    HW213202   2.910   1.533   3.222 -1.1554 -0.4210  0.3017
 3868SOL     OW13203   5.337   3.714   6.539 -0.0983  0.1191 -0.1938
 3868SOL    HW113204   5.284   3.799   6.546  0.1466  0.2940 -0.4661
 3868SOL    HW213205   5.326   3.662   6.624 -2.8070 -1.0917 -1.1598
 3869SOL     OW13206   1.351   1.837   5.170 -0.1042  0.0968  0.0835
 3869SOL    HW113207   1.300   1.882   5.244 -1.4363  0.9238 -1.2829
 3869SOL    HW213208   1.347   1.738   5.183 -0.1282  0.2370  1.2389
 3870SOL     OW13209   3.230   6.036   1.889 -0.2924  0.4418 -0.2889
 3870SOL    HW113210   3.193   6.118   1.934  2.1598  1.2438  0.4256
 3870SOL    HW213211   3.312   6.061   1.838  0.7629 -1.6623  0.2970
 3871SOL     OW13212   2.918   6.517   2.684 -0.3002  0.1047  0.0756
 3871SOL    HW113213   2.982   6.472   2.621 -0.6135  0.8648 -0.7996
 3871SOL    HW213214   2.842   6.557   2.633 -0.5119  0.8314  0.9205
 3872SOL     OW13215   2.862   2.455   1.431 -0.1624 -0.4932 -0.6219
 3872SOL    HW113216   2.829   2.537   1.385 -0.3728  0.0327  0.4368
 3872SOL    HW213217   2.895   2.389   1.363  1.3201  1.0084 -1.4203
 3873SOL     OW13218   3.276   2.104   0.958  0.7607  0.3248 -0.8347
 3873SOL    HW113219   3.327   2.026   0.921 -1.7353 -1.1820 -1.2987
 3873SOL    HW213220   3.179   2.095   0.936 -0.1993  1.6984  2.2302
 3874SOL     OW13221   2.139   0.765   3.362 -0.4541  0.0862 -0.8537
 3874SOL    HW113222   2.102   0.722   3.280 -1.4838  0.5470 -0.6528
 3874SOL    HW213223   2.067   0.819   3.406  0.5632  1.3145 -0.6395
 3875SOL     OW13224   4.792   6.093   6.948  0.8720  0.4098  0.7646
 3875SOL    HW113225   4.792   6.078   6.849  2.9523 -0.8193  0.8841
 3875SOL    HW213226   4.713   6.047   6.989  1.2920 -1.1800 -0.1024
 3876SOL     OW13227   6.575   4.084   6.508  0.7996 -0.0295 -0.2985
 3876SOL    HW113228   6.624   4.002   6.537 -0.6255 -0.9882 -0.5519
 3876SOL    HW213229   6.500   4.059   6.448  0.8109  1.5386 -1.0046
 3877SOL     OW13230   3.072   6.556   4.318  0.2182 -0.3257  0.4418
 3877SOL    HW113231   3.121   6.561   4.231  0.2804 -0.9542  0.4382
 3877SOL    HW213232   2.985   6.507   4.305 -0.7410  1.3461  0.3065
 3878SOL     OW13233   6.673   1.131   5.125  0.0165  0.3414 -0.0243
 3878SOL    HW113234   6.643   1.145   5.219 -2.9147  0.2015 -0.8145
 3878SOL    HW213235   6.717   1.041   5.117 -0.3481  0.0484  1.1001
 3879SOL     OW13236   1.388   0.550   6.168  1.0246 -0.2571  0.3693
 3879SOL    HW113237   1.317   0.480   6.176  0.4549  0.3268  0.4520
 3879SOL    HW213238   1.475   0.512   6.198  0.4949 -0.5755  1.5483
 3880SOL     OW13239   6.156   2.197   2.183 -0.2725  0.6025  0.0294
 3880SOL    HW113240   6.090   2.257   2.230  0.7301  2.8594 -1.2972
 3880SOL    HW213241   6.118   2.169   2.095  0.0290  0.8699 -0.1858
 3881SOL     OW13242   1.483   5.430   1.063 -0.2431  0.8889  0.0845
 3881SOL    HW113243   1.576   5.398   1.044 -0.3414  0.8216 -0.2937
 3881SOL    HW213244   1.449   5.387   1.147 -0.5014 -0.2722 -0.5996
 3882SOL     OW13245   2.401   5.151   5.877 -0.1197  0.4369 -0.4569
 3882SOL    HW113246   2.446   5.062   5.866  0.2286  0.4288  0.8527
 3882SOL    HW213247   2.302   5.138   5.880 -0.0528  0.0048  0.2826
 3883SOL     OW13248   0.415   1.387   5.106  0.2693 -0.2440  0.3286
 3883SOL    HW113249   0.327   1.416   5.071  0.9263 -0.3522 -1.5095
 3883SOL    HW213250   0.424   1.288   5.097  0.4151 -0.2863  0.8998
 3884SOL     OW13251   6.685   5.512   1.165  0.4777 -0.1983  0.5448
 3884SOL    HW113252   6.625   5.515   1.246  2.2158  0.5861  1.8676
 3884SOL    HW213253   6.709   5.417   1.146  0.9347 -0.3298  1.6668
 3885SOL     OW13254   5.422   1.983   3.428 -0.0502  0.9401 -0.5382
 3885SOL    HW113255   5.411   1.961   3.331  2.4054 -1.1369 -0.4616
 3885SOL    HW213256   5.514   2.021   3.444  0.5058 -0.9480  1.2236
 3886SOL     OW13257   5.391   0.447   6.143  0.1994 -0.0426 -0.0337
 3886SOL    HW113258   5.471   0.388   6.138  0.2530  0.0277  0.0066
 3886SOL    HW213259   5.355   0.446   6.236  0.6344  0.5669  0.1459
 3887SOL     OW13260   0.220   3.974   4.230  0.6277 -0.1708  0.4330
 3887SOL    HW113261   0.179   3.892   4.190  0.9865 -0.7420  1.1962
 3887SOL    HW213262   0.317   3.977   4.206  0.5244  0.2737  0.0455
 3888SOL     OW13263   5.379   1.549   4.167  0.5772 -0.0405 -0.0182
 3888SOL    HW113264   5.453   1.616   4.166  1.2663 -0.7799  0.1165
 3888SOL    HW213265   5.308   1.579   4.230 -0.3587  1.8252 -1.8294
 3889SOL     OW13266   1.948   4.875   3.102  0.3573 -0.2475  0.0457
 3889SOL    HW113267   1.973   4.904   3.010  0.4174 -1.4089 -0.3138
 3889SOL    HW213268   1.973   4.779   3.115 -0.8122 -0.4667  0.8310
 3890SOL     OW13269   1.618   5.862   0.038  0.1744  0.3698  0.2198
 3890SOL    HW113270   1.550   5.813   0.093  0.9567 -0.5563  0.3789
 3890SOL    HW213271   1.572   5.910  -0.037 -0.6063 -0.7267 -0.0244
 3891SOL     OW13272   0.863   4.432   1.503  0.0012  0.0146  0.5601
 3891SOL    HW113273   0.883   4.476   1.591 -2.1379  1.1936  0.5289
 3891SOL    HW213274   0.948   4.419   1.452  1.5310 -1.9497  3.2920
 3892SOL     OW13275   6.167   4.637   2.359 -0.2228  0.1491  0.3861
 3892SOL    HW113276   6.090   4.669   2.415 -0.9620  0.5835 -0.8522
 3892SOL    HW213277   6.247   4.622   2.418 -1.1070  0.1447  1.6218
 3893SOL     OW13278   1.465   4.468   4.035 -0.9454 -0.6257  0.2701
 3893SOL    HW113279   1.416   4.495   4.118 -0.8986  0.0631  0.0831
 3893SOL    HW213280   1.428   4.519   3.957  0.7962  0.7443  0.2992
 3894SOL     OW13281   0.384   1.197   3.030  0.3581 -0.4511  0.1182
 3894SOL    HW113282   0.407   1.147   2.947 -0.0344  2.0882 -1.6005
 3894SOL    HW213283   0.285   1.214   3.033  0.5181  0.4621  0.5001
 3895SOL     OW13284   0.273   3.755   0.101 -0.1376  0.7051  0.2080
 3895SOL    HW113285   0.283   3.662   0.137 -0.3555  1.0391  1.1606
 3895SOL    HW213286   0.330   3.817   0.155  1.1585  0.9204 -1.3306
 3896SOL     OW13287   6.662   3.082   4.814  0.3237  0.5799 -0.4272
 3896SOL    HW113288   6.692   3.128   4.731  2.3019  1.4817  0.7289
 3896SOL    HW213289   6.565   3.100   4.829 -0.2489 -0.1065 -2.8138
 3897SOL     OW13290   2.068   4.728   5.322 -0.4108  0.2159  0.0942
 3897SOL    HW113291   2.135   4.796   5.351  0.4682 -0.4528 -0.3174
 3897SOL    HW213292   2.098   4.637   5.352 -0.7205 -0.1883 -0.7802
 3898SOL     OW13293   1.128   0.186   1.519 -0.3119 -0.0982  0.1085
 3898SOL    HW113294   1.120   0.180   1.419  1.7798  1.1416 -0.1963
 3898SOL    HW213295   1.057   0.246   1.555 -1.0844 -0.5570 -0.6381
 3899SOL     OW13296   3.248   4.055   6.304 -0.3686 -0.2039  0.2832
 3899SOL    HW113297   3.151   4.052   6.283 -0.9825 -0.0197  2.7595
 3899SOL    HW213298   3.273   3.973   6.356  0.9404 -0.4696 -0.7062
 3900SOL     OW13299   1.284   0.777   6.952 -0.0983  0.3761 -0.1595
 3900SOL    HW113300   1.246   0.790   7.043  2.2609  0.9197  0.8417
 3900SOL    HW213301   1.324   0.863   6.920  1.9455 -0.5340 -0.2450
 3901SOL     OW13302   4.947   0.294   4.989  0.5169 -0.2687 -0.0387
 3901SOL    HW113303   4.975   0.298   5.085  1.2114 -0.3110 -0.2343
 3901SOL    HW213304   5.004   0.356   4.935  0.8538 -1.0389 -0.5911
 3902SOL     OW13305   1.536   1.018   1.004 -0.2724 -0.1013 -0.2263
 3902SOL    HW113306   1.617   1.062   0.964 -0.8466  1.0207 -0.2000
 3902SOL    HW213307   1.549   1.009   1.103  0.5925 -1.6603 -0.4532
 3903SOL     OW13308   0.484   5.128   2.463 -0.2387  0.1589 -0.1437
 3903SOL    HW113309   0.405   5.083   2.422 -0.5505  0.7989 -0.2672
 3903SOL    HW213310   0.459   5.165   2.553 -0.6882  2.1042 -1.0150
 3904SOL     OW13311   0.302   0.904   5.506 -0.0582 -0.2221 -0.1970
 3904SOL    HW113312   0.338   0.991   5.540 -0.2523 -0.8002  1.5920
 3904SOL    HW213313   0.365   0.867   5.438  2.1062 -0.5638  1.8655
 3905SOL     OW13314   1.103   1.881   4.500 -0.1187 -0.3043 -0.4518
 3905SOL    HW113315   1.167   1.843   4.567 -0.0362 -0.7208 -0.7665
 3905SOL    HW213316   1.013   1.891   4.542  0.1197  0.1943 -0.0348
 3906SOL     OW13317   2.427   1.890   4.103 -0.1039 -0.5721  0.5075
 3906SOL    HW113318   2.383   1.926   4.185  0.3098 -0.6999  0.7891
 3906SOL    HW213319   2.390   1.935   4.022  2.0100  2.2337  0.9473
 3907SOL     OW13320   2.727   5.679   5.295 -0.1932 -0.5183 -0.4118
 3907SOL    HW113321   2.638   5.661   5.251 -0.0585 -2.6235  0.0531
 3907SOL    HW213322   2.713   5.737   5.375 -1.0034  0.0754 -0.9691
 3908SOL     OW13323   0.855   1.156   3.137 -0.4780 -0.5667  0.2259
 3908SOL    HW113324   0.855   1.137   3.235 -0.0140 -0.5537  0.2324
 3908SOL    HW213325   0.821   1.075   3.088 -3.9984  0.5405  0.5630
 3909SOL     OW13326   0.054   5.005   4.804 -0.1046 -0.3792 -0.2431
 3909SOL    HW113327   0.093   5.096   4.784 -0.8087  0.0086  0.1326
 3909SOL    HW213328  -0.025   5.015   4.864 -0.0754 -1.2653 -0.0508
 3910SOL     OW13329   4.393   3.255   2.103  0.5286  0.1969  0.5656
 3910SOL    HW113330   4.432   3.347   2.109  0.6855  0.0884  1.4012
 3910SOL    HW213331   4.305   3.253   2.150 -0.7685  0.5556 -1.6997
 3911SOL     OW13332   1.233   4.501   3.092 -0.1655 -0.3826 -0.2195
 3911SOL    HW113333   1.317   4.463   3.051 -0.1201 -1.6225  0.9508
 3911SOL    HW213334   1.246   4.513   3.190 -0.7640  1.1787 -0.3082
 3912SOL     OW13335   3.271   6.192   3.761 -0.7305 -0.4943 -0.3944
 3912SOL    HW113336   3.317   6.150   3.840 -0.7155  0.9001  0.3733
 3912SOL    HW213337   3.172   6.176   3.769 -0.6404 -1.2400 -0.6564
 3913SOL     OW13338   0.745   3.866   3.275 -0.2045  0.4004 -0.5018
 3913SOL    HW113339   0.676   3.936   3.261  0.8657  1.4576 -0.6546
 3913SOL    HW213340   0.786   3.841   3.188 -0.5778 -0.4308 -0.4486
 3914SOL     OW13341   1.919   6.439   0.847  0.3074 -0.1544 -0.0415
 3914SOL    HW113342   1.927   6.434   0.946 -1.2453 -2.0777  0.0375
 3914SOL    HW213343   1.858   6.514   0.822 -0.5623 -0.6412  0.5726
 3915SOL     OW13344   4.867   2.038   4.328  0.5731  0.2711  0.0554
 3915SOL    HW113345   4.781   1.988   4.323 -0.2465  1.5985  0.3717
 3915SOL    HW213346   4.938   1.978   4.365 -0.6404 -0.3250  1.5246
 3916SOL     OW13347   4.744   0.556   1.066 -1.3470 -0.1332  0.0150
 3916SOL    HW113348   4.702   0.647   1.059 -2.7992 -0.5989  1.8879
 3916SOL    HW213349   4.720   0.515   1.153  0.3683 -1.8253 -0.2452
 3917SOL     OW13350   3.514   2.009   0.581 -0.0311  0.1472  0.1670
 3917SOL    HW113351   3.439   1.994   0.516 -0.3972  3.1901 -0.2528
 3917SOL    HW213352   3.543   1.921   0.619 -3.9050 -1.1856  0.4757
 3918SOL     OW13353   4.048   4.503   5.108  0.6495  0.0317 -0.8817
 3918SOL    HW113354   4.138   4.466   5.130  0.1404 -0.6974  0.0698
 3918SOL    HW213355   3.984   4.479   5.181  0.2224  2.6839 -0.2948
 3919SOL     OW13356   3.615   3.067   5.762 -0.0715 -0.0724  0.1034
 3919SOL    HW113357   3.547   3.088   5.692 -1.6307 -0.9454  1.2681
 3919SOL    HW213358   3.695   3.125   5.750  0.1714 -0.8593 -2.9605
 3920SOL     OW13359   4.322   2.276   6.902 -0.2048  0.5837  0.1511
 3920SOL    HW113360   4.264   2.272   6.984 -1.2322 -1.0410 -0.6177
 3920SOL    HW213361   4.396   2.209   6.911 -1.2725 -0.7869 -0.9134
 3921SOL     OW13362   0.126   5.543   3.411  0.4535 -0.2280  0.3629
 3921SOL    HW113363   0.123   5.643   3.419  1.0032 -0.2734  1.3839
 3921SOL    HW213364   0.182   5.506   3.485 -0.9094 -1.3829  0.8644
 3922SOL     OW13365   0.292   3.040   6.388 -0.1336  0.2967 -0.4934
 3922SOL    HW113366   0.199   3.026   6.354  0.0632 -0.4386 -0.7536
 3922SOL    HW213367   0.357   2.996   6.325  0.2895 -0.4183  0.4285
 3923SOL     OW13368   1.989   5.590   1.909  0.2490 -0.2683 -0.1660
 3923SOL    HW113369   2.081   5.581   1.945  0.6979 -1.0113 -1.4597
 3923SOL    HW213370   1.948   5.500   1.897 -0.4516  0.0328 -0.0962
 3924SOL     OW13371   6.602   1.193   3.948  0.4619  0.3263  0.6323
 3924SOL    HW113372   6.664   1.124   3.986  1.5700  1.6389  1.3288
 3924SOL    HW213373   6.655   1.259   3.894 -0.5368  0.7409  0.1402
 3925SOL     OW13374   2.084   6.669   6.653 -0.4320  0.0787  0.2342
 3925SOL    HW113375   2.035   6.623   6.579  2.5507  0.6722 -2.3544
 3925SOL    HW213376   2.162   6.614   6.680  0.4278  1.3910  0.5317
 3926SOL     OW13377   0.104   2.275   3.822  0.3813  0.1206  0.1969
 3926SOL    HW113378   0.127   2.204   3.755  1.5327 -0.6925  1.3971
 3926SOL    HW213379   0.155   2.258   3.906 -1.9718  0.3555  1.7578
 3927SOL     OW13380   5.483   1.920   3.722 -0.3059 -0.1059  0.0234
 3927SOL    HW113381   5.451   1.941   3.630  0.0702 -0.5761 -0.2157
 3927SOL    HW213382   5.578   1.890   3.718  0.5423  2.2154  0.8123
 3928SOL     OW13383   2.687   4.351   0.349 -0.2986  0.1230 -0.0848
 3928SOL    HW113384   2.773   4.369   0.396  0.0944 -2.0721  0.1205
 3928SOL    HW213385   2.640   4.438   0.331  1.7486  1.3280  0.1338
 3929SOL     OW13386   1.012   0.056   5.606  0.1034  0.1556 -0.0822
 3929SOL    HW113387   0.936  -0.000   5.638 -0.0675  1.4267  1.9364
 3929SOL    HW213388   0.977   0.138   5.561  0.1648  1.3255  1.8765
 3930SOL     OW13389   6.385   5.973   6.821 -0.1443  0.5327  0.4788
 3930SOL    HW113390   6.471   6.016   6.793 -0.1597  0.3802  0.1948
 3930SOL    HW213391   6.400   5.922   6.906 -0.0387  0.7969  0.6216
 3931SOL     OW13392   3.693   6.213   5.727  0.6855 -0.4266  0.0699
 3931SOL    HW113393   3.626   6.225   5.800 -0.1835  1.2329 -0.9426
 3931SOL    HW213394   3.768   6.278   5.740  1.8882 -1.8988  0.8877
 3932SOL     OW13395   5.472   4.098   6.391 -0.1246 -0.4043  0.0158
 3932SOL    HW113396   5.442   4.065   6.481 -1.6480 -1.8827 -0.9786
 3932SOL    HW213397   5.572   4.107   6.391 -0.1638  1.0028  2.2626
 3933SOL     OW13398   5.131   3.954   2.940  0.1315 -0.2754  0.6075
 3933SOL    HW113399   5.076   4.015   2.997 -1.7311  0.4582 -1.8170
 3933SOL    HW213400   5.078   3.873   2.917  1.2076 -1.0163  0.6272
 3934SOL     OW13401   3.567   3.037   6.427 -0.2879  0.2035  0.4078
 3934SOL    HW113402   3.562   3.137   6.428 -1.2431  0.1849  2.3088
 3934SOL    HW213403   3.612   3.007   6.343 -0.9298  2.1667 -0.7156
 3935SOL     OW13404   0.776   4.338   2.475 -0.0116  0.3301 -0.0190
 3935SOL    HW113405   0.795   4.242   2.494 -0.6751  0.0087 -0.9072
 3935SOL    HW213406   0.765   4.351   2.377  1.5700  1.6042 -0.0563
 3936SOL     OW13407   4.844   3.130   6.409 -0.1825 -0.7045 -0.5353
 3936SOL    HW113408   4.861   3.128   6.507 -0.0920  1.2486 -0.4690
 3936SOL    HW213409   4.926   3.161   6.361 -0.5670 -0.5660 -1.1186
 3937SOL     OW13410   2.330   6.439   6.662  0.4267 -0.2077 -0.6707
 3937SOL    HW113411   2.401   6.474   6.723 -0.4136  0.2931  0.0456
 3937SOL    HW213412   2.290   6.357   6.702  1.5182 -1.3051 -1.7378
 3938SOL     OW13413   3.174   1.817   5.990  0.3029  0.4417 -0.6396
 3938SOL    HW113414   3.098   1.801   6.052  1.4801  0.6286  0.9227
 3938SOL    HW213415   3.140   1.836   5.898 -1.4544 -2.7619 -0.7918
 3939SOL     OW13416   3.697   2.798   5.735  0.2210 -0.1243 -0.4768
 3939SOL    HW113417   3.694   2.897   5.727  1.8127 -0.1420 -1.5866
 3939SOL    HW213418   3.666   2.756   5.649  1.2948 -0.5601 -0.6614
 3940SOL     OW13419   0.965   3.678   4.178  0.9911 -0.3375 -0.1690
 3940SOL    HW113420   1.048   3.625   4.161  0.2524 -1.4685 -0.3330
 3940SOL    HW213421   0.891   3.617   4.205 -0.0649  0.5415 -0.9967
 3941SOL     OW13422   5.308   4.972   5.800 -0.6344  0.2426  0.1051
 3941SOL    HW113423   5.292   5.069   5.785  1.5492  0.5053 -1.0310
 3941SOL    HW213424   5.326   4.955   5.897  0.0320  1.1719  0.1542
 3942SOL     OW13425   2.347   3.718   1.706  0.9642  0.6140 -0.4166
 3942SOL    HW113426   2.405   3.722   1.624  0.8278  2.4236 -0.4531
 3942SOL    HW213427   2.364   3.798   1.763  0.8472 -0.4828  1.2181
 3943SOL     OW13428   1.310   1.562   5.166 -0.3178 -0.0398  0.4518
 3943SOL    HW113429   1.236   1.530   5.106  1.7235 -1.9672 -1.2301
 3943SOL    HW213430   1.394   1.513   5.144  1.3649  1.6109  2.7063
 3944SOL     OW13431   0.077   0.325   1.385  0.1062 -0.1166  0.2147
 3944SOL    HW113432   0.169   0.343   1.350 -0.7459  0.3945 -1.9044
 3944SOL    HW213433   0.083   0.289   1.478  2.4335 -0.1438  0.1022
 3945SOL     OW13434   6.085   0.363   0.903  0.4197 -0.1583 -0.3133
 3945SOL    HW113435   6.058   0.459   0.891  2.2858  0.1893 -2.2786
 3945SOL    HW213436   6.131   0.352   0.991 -0.9245  0.4352  0.5013
 3946SOL     OW13437   5.149   2.812   6.072 -0.1950  0.2143  0.0303
 3946SOL    HW113438   5.167   2.720   6.038  0.4045  0.7655 -1.2021
 3946SOL    HW213439   5.060   2.814   6.117 -0.2526 -0.9403 -0.0003
 3947SOL     OW13440   4.501   0.703   6.268 -0.1627  0.3280  0.0933
 3947SOL    HW113441   4.409   0.706   6.307 -0.1140 -1.0483  0.3685
 3947SOL    HW213442   4.568   0.686   6.340 -0.0230 -1.7753 -0.4704
 3948SOL     OW13443   3.908   1.486   4.198  0.1442 -0.3969  0.6711
 3948SOL    HW113444   3.921   1.408   4.137  0.4145  1.2818 -1.5676
 3948SOL    HW213445   3.997   1.523   4.225  0.0206 -0.2740  0.9229
 3949SOL     OW13446   0.498   1.516   6.272 -0.2759  0.1906 -0.0142
 3949SOL    HW113447   0.581   1.490   6.322 -0.2066 -0.4925 -0.4616
 3949SOL    HW213448   0.433   1.439   6.273  0.4746 -0.5770 -2.4933
 3950SOL     OW13449   1.446   3.634   4.990  0.0376 -0.2333  0.0953
 3950SOL    HW113450   1.352   3.606   4.976  0.0666 -0.3084  0.0535
 3950SOL    HW213451   1.507   3.556   4.980  0.2094  0.0328 -1.0260
 3951SOL     OW13452   6.392   6.485   6.217 -0.2918 -0.4813 -0.0265
 3951SOL    HW113453   6.491   6.468   6.225  0.1047  1.9420  1.3142
 3951SOL    HW213454   6.348   6.463   6.304 -0.1345  2.5549  0.9249
 3952SOL     OW13455   4.572   5.605   6.636  0.3487 -0.7494  0.5477
 3952SOL    HW113456   4.614   5.520   6.670 -1.2698 -1.8196  0.0237
 3952SOL    HW213457   4.565   5.600   6.536  1.0631  0.4345  0.4219
 3953SOL     OW13458   1.398   5.167   2.894 -0.2556  0.3634  0.5565
 3953SOL    HW113459   1.446   5.254   2.901  0.0701  0.0796  2.3692
 3953SOL    HW213460   1.302   5.184   2.872 -0.2022  1.1863  0.9078
 3954SOL     OW13461   4.803   3.988   1.334  0.2711 -0.3633  0.0786
 3954SOL    HW113462   4.854   3.919   1.385  0.4817 -1.2242 -1.2370
 3954SOL    HW213463   4.717   3.949   1.303 -1.2117  1.0454  2.1816
 3955SOL     OW13464   6.806   4.802   4.525 -0.0781 -0.1607 -0.2722
 3955SOL    HW113465   6.772   4.721   4.476 -1.3014 -0.8949  1.6885
 3955SOL    HW213466   6.873   4.774   4.594 -2.8744 -0.0668  2.6946
 3956SOL     OW13467   1.011   4.941   4.736 -0.1119  0.2730 -0.0998
 3956SOL    HW113468   0.994   5.040   4.733 -0.8040  0.2252  1.2349
 3956SOL    HW213469   1.110   4.925   4.732  0.1431  1.1619  1.5081
 3957SOL     OW13470   2.140   6.134   4.370 -0.3091 -0.1906 -0.8108
 3957SOL    HW113471   2.218   6.147   4.309  0.2968  0.1085  0.0079
 3957SOL    HW213472   2.122   6.036   4.380  1.7419 -0.4568  1.1274
 3958SOL     OW13473   2.429   6.046   0.474 -0.3699  0.4976 -0.4288
 3958SOL    HW113474   2.440   5.968   0.412 -1.6564 -0.3444  0.3595
 3958SOL    HW213475   2.333   6.055   0.499 -0.2950  2.5476 -0.7305
 3959SOL     OW13476   2.235   5.839   2.012 -0.5279  0.0653 -0.1439
 3959SOL    HW113477   2.303   5.798   2.072 -0.5135  1.7531  1.0446
 3959SOL    HW213478   2.150   5.853   2.061 -0.4468  1.6858 -0.3858
 3960SOL     OW13479   5.380   0.671   0.920 -0.3230  0.6825  0.0942
 3960SOL    HW113480   5.366   0.730   0.841  1.3294 -0.5380 -1.1849
 3960SOL    HW213481   5.476   0.676   0.949 -0.3494 -0.6913  0.4983
 3961SOL     OW13482   4.404   1.436   6.615 -0.6473 -0.5670 -0.4013
 3961SOL    HW113483   4.338   1.405   6.683 -2.7745  1.4562 -1.3928
 3961SOL    HW213484   4.399   1.536   6.607  0.7542 -0.6006 -2.3245
 3962SOL     OW13485   2.213   1.322   6.062 -0.2796  0.1793  0.5607
 3962SOL    HW113486   2.162   1.237   6.056  1.1331 -0.7447  1.1338
 3962SOL    HW213487   2.262   1.338   5.976 -1.1197  0.8150  0.1855
 3963SOL     OW13488   4.692   0.654   6.451  0.0731  0.6846  0.6294
 3963SOL    HW113489   4.694   0.608   6.539 -1.0581 -0.5015  0.0597
 3963SOL    HW213490   4.784   0.687   6.429  0.4977  0.4495  1.9478
 3964SOL     OW13491   6.953   3.817   3.525  0.2705  0.1976 -0.4389
 3964SOL    HW113492   7.032   3.757   3.514  1.5743  2.1431 -2.7478
 3964SOL    HW213493   6.916   3.839   3.435 -0.6993  2.1011  0.3711
 3965SOL     OW13494   3.594   1.943   6.978  0.5377 -0.4721  0.1593
 3965SOL    HW113495   3.675   1.934   6.920  0.4110 -1.5528  0.1300
 3965SOL    HW213496   3.623   1.954   7.073  0.7604  2.0177 -0.1497
 3966SOL     OW13497   5.805   1.396   2.889  0.1363  0.2935  0.4244
 3966SOL    HW113498   5.892   1.423   2.928  1.2509 -1.2706 -0.8615
 3966SOL    HW213499   5.733   1.403   2.959  1.4414  0.6974  1.7623
 3967SOL     OW13500   1.838   0.794   2.683 -0.1306  0.2747  0.3179
 3967SOL    HW113501   1.927   0.795   2.638 -0.9170  0.5311 -1.3142
 3967SOL    HW213502   1.772   0.842   2.626 -1.3901 -0.1862  1.3451
 3968SOL     OW13503   3.988   3.446   0.707  0.2920 -0.7845  0.0737
 3968SOL    HW113504   3.963   3.537   0.674  0.1692 -0.8232  0.0603
 3968SOL    HW213505   4.037   3.455   0.794  2.1946 -0.5534 -0.9630
 3969SOL     OW13506   2.776   3.931   1.781  0.0698 -0.1201  0.3531
 3969SOL    HW113507   2.823   4.002   1.728 -1.7993  0.8667 -0.0395
 3969SOL    HW213508   2.791   3.842   1.737  0.0628  0.4335 -0.8066
 3970SOL     OW13509   3.739   3.219   1.268  0.0432  0.0510 -0.1250
 3970SOL    HW113510   3.698   3.174   1.347 -0.0119 -1.1182 -0.8036
 3970SOL    HW213511   3.794   3.154   1.216  0.8798  1.0429 -0.5171
 3971SOL     OW13512   2.492   5.975   6.047  0.1561 -0.3534  0.2868
 3971SOL    HW113513   2.431   6.028   5.987 -0.3831  1.0866  2.0133
 3971SOL    HW213514   2.477   5.877   6.031 -1.5792 -0.0284 -0.3703
 3972SOL     OW13515   4.713   2.798   1.233  0.0600  0.5099  0.5093
 3972SOL    HW113516   4.634   2.820   1.290 -1.0166 -0.6106 -0.4910
 3972SOL    HW213517   4.795   2.790   1.291 -1.1860 -1.6485  2.0927
 3973SOL     OW13518   6.228   6.796   6.778  0.3357  0.0183  0.2738
 3973SOL    HW113519   6.146   6.786   6.722  0.5516 -1.9489  0.2468
 3973SOL    HW213520   6.211   6.760   6.870  0.8235  0.6794  0.6359
 3974SOL     OW13521   6.733   5.309   5.161 -0.0728 -0.2514  0.3418
 3974SOL    HW113522   6.704   5.276   5.071 -0.6679 -0.1471  0.4926
 3974SOL    HW213523   6.704   5.245   5.232  0.7724 -0.5537  0.4323
 3975SOL     OW13524   2.419   1.047   2.106  0.3519  0.4698 -0.5066
 3975SOL    HW113525   2.378   0.972   2.159 -0.3468  1.3366  0.2041
 3975SOL    HW213526   2.458   1.114   2.169  0.4620  0.9920 -1.1280
 3976SOL     OW13527   0.317   1.694   2.150  0.5145 -0.4642 -0.5465
 3976SOL    HW113528   0.265   1.670   2.068  2.7881 -0.7070 -1.9859
 3976SOL    HW213529   0.326   1.794   2.155 -0.5885 -0.3756  0.0778
 3977SOL     OW13530   6.437   5.672   6.230 -0.5773 -0.1408 -0.0273
 3977SOL    HW113531   6.444   5.597   6.164 -0.6864 -0.9589  0.8710
 3977SOL    HW213532   6.342   5.684   6.257 -0.5201  0.1252  0.0594
 3978SOL     OW13533   3.870   1.882   4.459  0.6245  0.1002  0.2764
 3978SOL    HW113534   3.957   1.837   4.436 -0.1225 -0.7508 -1.0014
 3978SOL    HW213535   3.803   1.813   4.486  0.4248  0.7847  1.6226
 3979SOL     OW13536   5.709   5.057   4.890 -0.2085 -0.1292  0.8465
 3979SOL    HW113537   5.670   5.142   4.926  0.0226  0.6975 -0.7624
 3979SOL    HW213538   5.636   4.990   4.877 -0.2514 -0.5934  3.1166
 3980SOL     OW13539   6.279   1.674   3.303  0.2086 -0.4923  0.5392
 3980SOL    HW113540   6.300   1.582   3.338  2.6365  0.1614  1.0163
 3980SOL    HW213541   6.247   1.732   3.378 -1.3880 -0.9270  0.2254
 3981SOL     OW13542   1.372   3.725   4.535  0.3985  0.1737  0.2378
 3981SOL    HW113543   1.472   3.721   4.526  0.4431  1.9012 -0.4938
 3981SOL    HW213544   1.348   3.777   4.617  0.1415  1.2983 -0.5252
 3982SOL     OW13545   5.028   2.332   1.205 -0.6637  0.3167 -0.1942
 3982SOL    HW113546   5.087   2.339   1.124 -0.6753  2.4496 -0.0675
 3982SOL    HW213547   5.083   2.309   1.285 -0.8116 -3.0513 -0.9306
 3983SOL     OW13548   2.779   2.130   1.378 -0.1529  0.1406  0.2002
 3983SOL    HW113549   2.713   2.105   1.307 -0.1113  0.5752  0.0002
 3983SOL    HW213550   2.732   2.181   1.450  0.0927  1.1808 -0.3453
 3984SOL     OW13551   5.065   5.625   2.188 -0.0557  0.3516  0.0547
 3984SOL    HW113552   5.080   5.574   2.272 -0.3744  0.3257  0.0983
 3984SOL    HW213553   5.137   5.693   2.176 -0.3350  0.7542  0.6507
 3985SOL     OW13554   6.980   4.761   3.315  0.3070 -0.1372 -0.6033
 3985SOL    HW113555   6.967   4.857   3.341 -2.0065  0.2163 -2.6383
 3985SOL    HW213556   6.949   4.702   3.389  1.8940  0.6490  0.7317
 3986SOL     OW13557   1.355   5.201   3.646 -0.4639 -0.1006 -0.1936
 3986SOL    HW113558   1.432   5.259   3.673 -1.6933  1.4021  0.1810
 3986SOL    HW213559   1.289   5.255   3.594  0.0390 -2.0061 -3.0897
 3987SOL     OW13560   0.419   3.938   5.733 -0.0928 -0.0876  0.3595
 3987SOL    HW113561   0.457   3.980   5.651  0.0602  0.4025  0.6724
 3987SOL    HW213562   0.343   3.994   5.768  0.4879  0.2550  1.1094
 3988SOL     OW13563   5.532   3.034   0.073 -0.7041  0.7412  0.0046
 3988SOL    HW113564   5.540   3.044   0.172 -1.4684  0.4208  0.1119
 3988SOL    HW213565   5.467   3.102   0.038  0.0760  1.3024 -0.3792
 3989SOL     OW13566   3.130   3.341   3.844 -0.2562 -0.2949  0.1593
 3989SOL    HW113567   3.073   3.300   3.772  0.7963 -1.0286 -0.2893
 3989SOL    HW213568   3.076   3.351   3.927 -2.4491  3.3793 -1.4754
 3990SOL     OW13569   4.561   1.829   3.008  0.3252 -0.3426 -0.1416
 3990SOL    HW113570   4.498   1.852   3.082 -0.0546 -0.5808 -0.3912
 3990SOL    HW213571   4.554   1.731   2.988 -0.5222 -0.0445 -1.3780
 3991SOL     OW13572   5.441   0.816   1.259  0.9605 -0.4091  0.1616
 3991SOL    HW113573   5.486   0.903   1.240  0.0976 -0.0114 -0.1171
 3991SOL    HW213574   5.509   0.742   1.260  1.3461 -0.1942 -2.6088
 3992SOL     OW13575   1.941   3.013   3.362 -0.0764 -0.2208 -0.1098
 3992SOL    HW113576   1.979   3.006   3.454  1.9566  0.0600 -0.8850
 3992SOL    HW213577   1.850   3.055   3.367 -0.0856 -0.3865  1.7723
 3993SOL     OW13578   3.256   0.496   2.217  0.2833  0.2316  0.0755
 3993SOL    HW113579   3.311   0.512   2.135  0.4326 -0.3347  0.0575
 3993SOL    HW213580   3.292   0.549   2.293  2.0307 -1.5485  0.5556
 3994SOL     OW13581   3.523   1.316   0.191 -0.1190  0.8958 -0.0968
 3994SOL    HW113582   3.609   1.266   0.194 -0.2914  0.6317  0.7196
 3994SOL    HW213583   3.464   1.286   0.266  0.4583  3.5516  1.5536
 3995SOL     OW13584   6.810   3.668   3.746  0.1598  0.0328  0.4504
 3995SOL    HW113585   6.797   3.687   3.843 -0.3167  1.7088  0.0871
 3995SOL    HW213586   6.901   3.699   3.718  0.9073 -1.8148  0.6404
 3996SOL     OW13587   4.660   2.211   1.670 -0.4578 -0.0729  0.4863
 3996SOL    HW113588   4.727   2.151   1.626  0.5757  0.4303  1.3316
 3996SOL    HW213589   4.579   2.157   1.696 -0.4574 -0.6601 -0.6526
 3997SOL     OW13590   2.533   5.454   1.347 -0.2917  0.2754  0.4988
 3997SOL    HW113591   2.470   5.500   1.410  0.4864  1.2833  0.5695
 3997SOL    HW213592   2.624   5.496   1.355  0.5329 -1.4729  0.7831
 3998SOL     OW13593   3.444   1.344   1.963  0.3244  0.4022 -0.0257
 3998SOL    HW113594   3.359   1.388   1.992 -0.3526 -1.4238  0.8587
 3998SOL    HW213595   3.520   1.381   2.017 -0.2889  0.2077  0.9950
 3999SOL     OW13596   5.608   0.495   6.857 -0.5171 -0.0029 -0.1934
 3999SOL    HW113597   5.587   0.582   6.812  0.0278  0.1037 -0.2448
 3999SOL    HW213598   5.546   0.425   6.822 -0.6785  0.2711 -0.4686
 4000SOL     OW13599   3.016   0.181   0.369 -0.8592 -0.3570  0.1760
 4000SOL    HW113600   2.987   0.087   0.389  0.9995 -1.0865 -0.3386
 4000SOL    HW213601   3.075   0.214   0.442  1.3064 -0.9163 -1.2480
 4001SOL     OW13602   1.396   2.865   2.324  0.3065  0.3891 -0.2545
 4001SOL    HW113603   1.302   2.847   2.354  0.9342 -1.4717  0.7784
 4001SOL    HW213604   1.408   2.963   2.308 -1.5419  0.7790  0.5219
 4002SOL     OW13605   2.830   3.881   5.242 -0.3532  0.0821 -0.0629
 4002SOL    HW113606   2.831   3.788   5.279 -0.6818  0.4135  0.7921
 4002SOL    HW213607   2.875   3.943   5.306  1.1916  0.2889 -1.2782
 4003SOL     OW13608   1.366   0.210   3.546  0.1736 -0.4014 -0.3728
 4003SOL    HW113609   1.388   0.292   3.599  0.2410 -0.4478 -0.3293
 4003SOL    HW213610   1.273   0.217   3.510  0.1648 -0.3242 -0.3349
 4004SOL     OW13611   1.091   5.347   3.544  0.2489 -0.1463 -0.0370
 4004SOL    HW113612   1.109   5.406   3.466 -1.0775 -1.9482 -1.8130
 4004SOL    HW213613   1.010   5.379   3.592 -0.8511 -0.8114 -1.3795
 4005SOL     OW13614   1.853   5.161   0.843 -0.2663 -0.3933 -0.6659
 4005SOL    HW113615   1.842   5.069   0.804 -1.6087 -0.8689  0.7273
 4005SOL    HW213616   1.803   5.227   0.788 -0.0682 -0.6427 -1.1512
 4006SOL     OW13617   5.724   7.012   1.826  0.2305  0.4469  0.4934
 4006SOL    HW113618   5.789   6.974   1.761 -0.4838 -0.1998  0.1411
 4006SOL    HW213619   5.746   7.108   1.843  1.1659  0.2825  0.2546
 4007SOL     OW13620   5.810   1.307   1.971  0.0516 -0.4733 -0.3627
 4007SOL    HW113621   5.752   1.232   2.002  1.4713 -1.8780 -0.9754
 4007SOL    HW213622   5.876   1.330   2.042 -1.8786  1.9290  0.8182
 4008SOL     OW13623   4.250   1.711   2.195  0.4268  0.3449  0.1182
 4008SOL    HW113624   4.216   1.758   2.113 -1.3851  1.5604  1.4654
 4008SOL    HW213625   4.222   1.615   2.192  1.6595 -0.0051 -1.3309
 4009SOL     OW13626   6.761   4.658   1.063 -0.1912 -0.4596 -0.0192
 4009SOL    HW113627   6.770   4.563   1.094 -2.1425 -0.8748 -0.6487
 4009SOL    HW213628   6.731   4.661   0.968  1.1271  0.8303 -0.4532
 4010SOL     OW13629   2.121   1.160   6.406 -0.4576 -0.5962  0.2558
 4010SOL    HW113630   2.156   1.209   6.485 -0.2695  0.9560 -0.7411
 4010SOL    HW213631   2.176   1.077   6.390  1.4851  0.6933 -0.0400
 4011SOL     OW13632   4.313   5.997   5.296  0.3427  0.0089  0.3809
 4011SOL    HW113633   4.373   6.061   5.344  0.9309 -0.2721  0.0280
 4011SOL    HW213634   4.353   5.974   5.207  0.0839 -0.7608  0.4547
 4012SOL     OW13635   6.094   4.482   3.017  1.2329  0.2630  0.1202
 4012SOL    HW113636   6.123   4.409   3.079 -0.1180 -0.5918 -0.2285
 4012SOL    HW213637   6.167   4.499   2.950  0.9493 -1.9088 -0.8019
 4013SOL     OW13638   1.490   4.665   4.289  0.0994 -0.4998  0.1753
 4013SOL    HW113639   1.440   4.712   4.216  1.5106 -1.1070 -1.2158
 4013SOL    HW213640   1.435   4.669   4.373 -0.2064  2.9495 -0.0155
 4014SOL     OW13641   3.548   2.433   4.385 -0.5020 -0.1767 -0.1057
 4014SOL    HW113642   3.508   2.489   4.312  2.5200 -1.6018 -3.1178
 4014SOL    HW213643   3.481   2.367   4.418 -2.2255  1.1114 -0.9065
 4015SOL     OW13644   3.998   6.131   5.449 -0.3149 -0.5772 -0.5273
 4015SOL    HW113645   4.027   6.135   5.353  0.1217  2.0983 -0.3417
 4015SOL    HW213646   3.911   6.082   5.454 -1.1438  0.5356 -2.5271
 4016SOL     OW13647   5.645   1.513   6.658 -0.3663 -0.0376  0.1310
 4016SOL    HW113648   5.622   1.520   6.561 -1.6355 -1.2171  0.3190
 4016SOL    HW213649   5.694   1.427   6.674 -0.5897 -0.0817  0.5993
 4017SOL     OW13650   4.921   0.752   1.675  0.2626 -0.0557 -0.7570
 4017SOL    HW113651   4.934   0.795   1.586 -1.4397  0.6592 -0.7079
 4017SOL    HW213652   4.955   0.658   1.673 -0.3646 -0.2706 -2.3727
 4018SOL     OW13653   4.479   0.895   0.858  0.2415 -0.2802  0.5030
 4018SOL    HW113654   4.547   0.965   0.838 -1.2506  1.5663  1.5941
 4018SOL    HW213655   4.388   0.936   0.861 -0.6151 -2.1309  1.8542
 4019SOL     OW13656   6.422   4.899   1.287  0.6768  0.4867  0.1580
 4019SOL    HW113657   6.470   4.870   1.371  0.8893  1.0356  0.2325
 4019SOL    HW213658   6.460   4.986   1.256  0.1255  0.6281 -0.1254
 4020SOL     OW13659   1.449   2.275   1.066  0.6543 -0.4906  0.0663
 4020SOL    HW113660   1.461   2.374   1.066 -2.2187 -0.0374  1.3903
 4020SOL    HW213661   1.420   2.245   1.157 -1.4797 -2.0702 -1.0330
 4021SOL     OW13662   1.798   2.331   7.007 -0.8287  0.1521 -0.1151
 4021SOL    HW113663   1.705   2.303   7.027 -1.6889  0.6991 -2.8449
 4021SOL    HW213664   1.812   2.426   7.034 -0.7287 -0.2091  1.1489
 4022SOL     OW13665   4.309   2.855   6.029  0.1515  0.5352 -0.2760
 4022SOL    HW113666   4.233   2.886   6.086  1.2241 -0.1234  1.6159
 4022SOL    HW213667   4.374   2.930   6.017  1.7686 -0.2371  2.6383
 4023SOL     OW13668   3.513   0.185   3.891  0.3758 -0.2319  0.0125
 4023SOL    HW113669   3.516   0.099   3.943  1.1733  0.2061  0.7124
 4023SOL    HW213670   3.424   0.228   3.903 -0.4486 -1.5001 -1.2551
 4024SOL     OW13671   5.441   2.971   2.383  0.1957  0.8463 -0.0740
 4024SOL    HW113672   5.451   3.015   2.472 -0.6436 -0.7856  0.8816
 4024SOL    HW213673   5.518   2.908   2.368  0.5216  1.3796 -0.6701
 4025SOL     OW13674   0.586   5.013   6.374  0.0243 -0.3163  0.3731
 4025SOL    HW113675   0.646   5.046   6.301 -0.2620 -2.4339 -0.8930
 4025SOL    HW213676   0.513   4.956   6.335 -0.2110 -1.4203  2.2824
 4026SOL     OW13677   5.894   2.641   0.207  0.0963 -0.5827  0.2620
 4026SOL    HW113678   5.869   2.717   0.147  1.7208  0.3087  0.6876
 4026SOL    HW213679   5.829   2.566   0.193 -1.3385  0.7238 -0.4160
 4027SOL     OW13680   4.307   0.170   6.860 -0.1273  0.5795 -0.6417
 4027SOL    HW113681   4.309   0.128   6.951 -0.3661  0.9556 -0.4578
 4027SOL    HW213682   4.304   0.099   6.790 -3.8304  0.1764 -0.2967
 4028SOL     OW13683   3.781   3.553   6.444  0.2358  0.3504  0.4450
 4028SOL    HW113684   3.836   3.470   6.454  1.0908  0.9285  0.7045
 4028SOL    HW213685   3.786   3.606   6.529  0.9681  1.4059 -0.2359
 4029SOL     OW13686   4.532   5.861   6.156  0.2261  1.0166  0.5154
 4029SOL    HW113687   4.455   5.909   6.114 -1.9481 -2.5697 -0.1072
 4029SOL    HW213688   4.527   5.870   6.255  0.9869  3.4656  0.3778
 4030SOL     OW13689   5.287   1.507   2.976  0.0035 -0.3242 -0.0479
 4030SOL    HW113690   5.228   1.474   3.051 -0.3927  0.4232 -0.0266
 4030SOL    HW213691   5.230   1.529   2.897  0.1055  1.5049  0.3517
 4031SOL     OW13692   1.678   5.052   1.086  0.0484  0.3970  0.3198
 4031SOL    HW113693   1.602   5.091   1.035  0.5814  3.1060  1.4632
 4031SOL    HW213694   1.737   5.001   1.023 -2.2388 -1.1766 -0.6993
 4032SOL     OW13695   5.649   4.009   4.058  0.1088  0.3222 -0.7860
 4032SOL    HW113696   5.718   4.072   4.022  1.6127 -0.3857  0.7087
 4032SOL    HW213697   5.694   3.942   4.117 -2.1403  1.2297  2.1808
 4033SOL     OW13698   2.321   2.534   0.093  0.3932  0.5686  0.5485
 4033SOL    HW113699   2.279   2.478   0.164  1.7954 -1.4405 -0.1414
 4033SOL    HW213700   2.275   2.623   0.090 -2.1786 -0.6321  1.4276
 4034SOL     OW13701   6.003   4.835   5.612 -0.2310  0.1644  0.1826
 4034SOL    HW113702   5.973   4.871   5.700 -1.5185 -0.2787 -0.0593
 4034SOL    HW213703   5.935   4.771   5.577 -0.2927  1.1975 -1.6884
 4035SOL     OW13704   4.216   2.145   4.993 -0.5136  0.0953  0.5724
 4035SOL    HW113705   4.270   2.157   5.076  1.8702 -1.0303 -0.7288
 4035SOL    HW213706   4.128   2.192   5.003  0.2660  1.1463  3.1562
 4036SOL     OW13707   2.325   3.855   1.298 -0.1468  0.1675  0.2501
 4036SOL    HW113708   2.236   3.836   1.340 -0.7450  1.0396 -0.5624
 4036SOL    HW213709   2.395   3.862   1.369 -0.5172 -1.5214  0.8259
 4037SOL     OW13710   5.522   6.823   1.382 -0.4978 -0.1759  0.0719
 4037SOL    HW113711   5.555   6.729   1.368  1.1391 -0.4008  4.0489
 4037SOL    HW213712   5.597   6.879   1.418 -2.3250  1.6791  1.1805
 4038SOL     OW13713   0.947   1.296   5.444 -0.1708  0.0090 -0.3142
 4038SOL    HW113714   0.910   1.334   5.529 -0.9026  1.4070 -1.2187
 4038SOL    HW213715   0.877   1.298   5.373  0.4145 -1.2036 -0.9555
 4039SOL     OW13716   4.488   1.334   0.023 -0.0126 -0.3093 -0.3052
 4039SOL    HW113717   4.582   1.350  -0.009 -0.2389  0.2796 -0.6993
 4039SOL    HW213718   4.424   1.382  -0.037 -0.4984  0.2844  0.6616
 4040SOL     OW13719   1.447   1.276   1.218  0.1369 -0.0326  0.7251
 4040SOL    HW113720   1.516   1.312   1.282  0.3092  0.5101  0.2452
 4040SOL    HW213721   1.452   1.176   1.216  1.4704  0.0286  0.0968
 4041SOL     OW13722   2.499   6.293   0.372  0.4705 -0.2803 -1.5411
 4041SOL    HW113723   2.593   6.318   0.393  0.3062  0.3828 -1.5482
 4041SOL    HW213724   2.474   6.209   0.420  0.6247  0.3050 -0.4201
 4042SOL     OW13725   6.706   5.618   1.796 -0.1819  0.5545  0.0205
 4042SOL    HW113726   6.669   5.698   1.748  1.5025  1.6492  0.4866
 4042SOL    HW213727   6.796   5.639   1.832 -0.2770 -1.1269  1.3749
 4043SOL     OW13728   2.892   6.654   0.038  0.1022 -0.3966  0.2289
 4043SOL    HW113729   2.859   6.748   0.052 -1.1088 -0.3711 -2.2211
 4043SOL    HW213730   2.992   6.655   0.031  0.0189  1.0633 -1.6398
 4044SOL     OW13731   5.422   5.815   2.533 -0.6769  0.1972 -0.1645
 4044SOL    HW113732   5.417   5.727   2.487  2.0178  0.4468 -1.1568
 4044SOL    HW213733   5.374   5.884   2.479 -2.4145 -0.5450  0.3916
 4045SOL     OW13734   5.785   5.887   0.030  0.0812 -0.1454 -0.4061
 4045SOL    HW113735   5.698   5.917   0.067  0.6716  0.8845  0.1957
 4045SOL    HW213736   5.799   5.928  -0.060  1.1550  1.9962  0.6643
 4046SOL     OW13737   5.551   6.614   2.360  0.0322  0.1954  0.3209
 4046SOL    HW113738   5.541   6.613   2.460 -0.0025  1.8986  0.3710
 4046SOL    HW213739   5.466   6.648   2.319 -0.1597 -1.0345 -0.3446
 4047SOL     OW13740   3.979   3.600   2.027  0.3907  0.5772  0.0214
 4047SOL    HW113741   3.935   3.687   2.049 -1.7803 -0.6551  0.7624
 4047SOL    HW213742   3.915   3.525   2.042  1.2545 -0.9899 -3.2305
 4048SOL     OW13743   6.823   4.142   2.492  0.8192  0.1927 -0.1887
 4048SOL    HW113744   6.884   4.070   2.524  0.7104  0.2640  0.1835
 4048SOL    HW213745   6.733   4.132   2.535  0.1656 -0.6576 -1.6748
 4049SOL     OW13746   5.603   3.782   4.671 -0.2119  0.6556 -0.8337
 4049SOL    HW113747   5.642   3.710   4.729 -1.3104 -0.0992 -1.0011
 4049SOL    HW213748   5.617   3.871   4.715  0.7619  0.2988 -0.4020
 4050SOL     OW13749   0.728   2.851   3.998  0.8465 -0.6924 -0.2700
 4050SOL    HW113750   0.761   2.775   3.943  1.9723 -1.0933  0.9181
 4050SOL    HW213751   0.789   2.929   3.989 -0.8175  0.5016 -2.2594
 4051SOL     OW13752   6.710   0.216   4.417 -0.2810  0.5474  0.2773
 4051SOL    HW113753   6.726   0.129   4.371  0.1816  0.5415  0.4357
 4051SOL    HW213754   6.708   0.201   4.516  0.6756  0.8357  0.3507
 4052SOL     OW13755   2.131   5.203   4.775 -0.1548 -0.6049 -0.3891
 4052SOL    HW113756   2.110   5.185   4.679 -0.3627 -1.2012 -0.2362
 4052SOL    HW213757   2.194   5.133   4.809  2.4127  1.2859 -0.9284
 4053SOL     OW13758   2.172   3.645   3.316 -0.2903  0.6283  0.6114
 4053SOL    HW113759   2.114   3.718   3.282  1.2184  0.9691 -1.4865
 4053SOL    HW213760   2.116   3.570   3.351 -1.9019  1.8043  0.6067
 4054SOL     OW13761   0.998   3.790   5.271 -0.2739 -0.0306 -0.1494
 4054SOL    HW113762   1.087   3.747   5.285  0.0438  0.7581  0.2576
 4054SOL    HW213763   0.942   3.780   5.354 -0.1149  0.5459  0.0264
 4055SOL     OW13764   0.801   2.968   2.599 -0.6061 -0.2081  0.4422
 4055SOL    HW113765   0.755   3.035   2.541  0.9479  1.9151  1.5186
 4055SOL    HW213766   0.851   2.903   2.541 -1.1051  0.3399 -0.6294
 4056SOL     OW13767   4.032   0.489   3.174  0.0748 -0.0945 -0.0452
 4056SOL    HW113768   4.096   0.556   3.211 -0.1524  1.3036 -2.0087
 4056SOL    HW213769   3.948   0.536   3.146 -0.3094 -1.2988 -0.9562
 4057SOL     OW13770   0.924   3.176   1.507  0.7012  0.5194 -0.0796
 4057SOL    HW113771   0.831   3.211   1.510  0.5769  0.1727  0.1948
 4057SOL    HW213772   0.955   3.157   1.600  0.8093  0.0203 -0.2142
 4058SOL     OW13773   1.228   4.871   0.930  0.4311 -0.1647 -0.3737
 4058SOL    HW113774   1.177   4.824   0.858  0.8298  1.2647 -1.6463
 4058SOL    HW213775   1.186   4.960   0.947  1.0547  0.0058  0.3270
 4059SOL     OW13776   6.032   3.575   3.036 -0.6685  0.1440  0.2639
 4059SOL    HW113777   6.020   3.671   3.060  2.4697  0.6297  0.3220
 4059SOL    HW213778   6.034   3.565   2.937 -2.1027 -0.0930  0.2314
 4060SOL     OW13779   5.114   0.637   0.583  0.0588 -0.5002  0.2873
 4060SOL    HW113780   5.025   0.682   0.589 -0.3062 -1.2764  0.8677
 4060SOL    HW213781   5.176   0.676   0.650 -0.6573 -1.7039  1.7222
 4061SOL     OW13782   7.020   5.785   0.859  0.3235 -0.4309 -0.2610
 4061SOL    HW113783   7.046   5.881   0.870  0.0558 -0.5220  1.3787
 4061SOL    HW213784   7.100   5.727   0.871  0.5009 -0.4261 -1.3337
 4062SOL     OW13785   0.091   6.275   2.702 -0.1658  0.4877 -0.5150
 4062SOL    HW113786   0.088   6.186   2.656 -0.9694  0.4254 -0.3612
 4062SOL    HW213787   0.124   6.345   2.638 -1.4528  0.4416 -1.2573
 4063SOL     OW13788   6.059   3.990   2.606  0.5948  0.0032  0.0636
 4063SOL    HW113789   5.997   3.916   2.633 -1.5622  1.2786 -1.1531
 4063SOL    HW213790   6.088   3.976   2.512  1.1456  0.0846  0.2219
 4064SOL     OW13791   0.973   3.702   6.149 -0.4895 -0.7944  0.0297
 4064SOL    HW113792   1.040   3.694   6.223 -1.4408  0.6790  1.0991
 4064SOL    HW213793   0.943   3.797   6.142 -0.6777 -0.9639 -2.0530
 4065SOL     OW13794   5.396   4.466   3.857  0.2299  0.4966  0.1986
 4065SOL    HW113795   5.452   4.516   3.923  0.3105  1.0404 -0.2800
 4065SOL    HW213796   5.378   4.523   3.777  0.5482 -0.3160 -0.4780
 4066SOL     OW13797   0.087   0.818   5.653 -0.3925 -0.1733 -0.6138
 4066SOL    HW113798   0.162   0.857   5.600 -1.1925 -1.1009 -2.4961
 4066SOL    HW213799   0.041   0.747   5.600 -1.9105 -0.4168  0.9282
 4067SOL     OW13800   5.570   5.430   5.107  0.4892 -0.2643 -0.5117
 4067SOL    HW113801   5.668   5.428   5.087  0.4756  2.0214 -1.1388
 4067SOL    HW213802   5.555   5.468   5.198  0.1997 -0.4764 -0.4716
 4068SOL     OW13803   2.276   5.370   6.152  0.2816 -0.4805 -0.0574
 4068SOL    HW113804   2.302   5.441   6.217  0.1782  1.2942 -1.8792
 4068SOL    HW213805   2.342   5.295   6.157  2.7181  1.4726 -0.7540
 4069SOL     OW13806   0.887   5.895   0.484 -0.0222  0.2502 -0.4090
 4069SOL    HW113807   0.886   5.831   0.561 -0.6523  0.5504 -0.1603
 4069SOL    HW213808   0.798   5.941   0.477  0.1589  0.5165 -1.0739
 4070SOL     OW13809   6.533   6.949   4.694  0.4272  0.5833  1.0543
 4070SOL    HW113810   6.553   7.038   4.736  0.7719  0.4992  1.0681
 4070SOL    HW213811   6.603   6.884   4.720  1.1971  0.7701 -0.4479
 4071SOL     OW13812   3.002   0.142   1.330  0.2958  0.7856  0.6290
 4071SOL    HW113813   2.986   0.149   1.232  1.4798  4.6768  0.5362
 4071SOL    HW213814   2.919   0.167   1.379 -0.3931 -1.4680  0.7217
 4072SOL     OW13815   1.435   0.427   6.688  0.3750  0.6148 -0.0590
 4072SOL    HW113816   1.395   0.420   6.779  1.7055 -0.9476  0.4697
 4072SOL    HW213817   1.457   0.335   6.655  2.0583  1.2901 -0.9470
 4073SOL     OW13818   5.375   6.874   5.918  0.0581  0.4319 -0.1802
 4073SOL    HW113819   5.282   6.912   5.926 -1.5132 -2.6189 -2.0896
 4073SOL    HW213820   5.395   6.856   5.822  2.1898 -0.1334  0.3252
 4074SOL     OW13821   6.011   0.999   3.386 -0.1606  0.2971  0.4493
 4074SOL    HW113822   6.013   1.094   3.416  0.0434  0.7322 -0.8530
 4074SOL    HW213823   5.916   0.967   3.384 -0.2175  0.4294  1.0336
 4075SOL     OW13824   6.835   6.021   5.555 -0.0909 -0.1646  0.3513
 4075SOL    HW113825   6.864   5.926   5.561  1.2022  0.0763 -1.3979
 4075SOL    HW213826   6.835   6.050   5.459 -1.1444  1.4049  0.7816
 4076SOL     OW13827   1.490   3.477   2.967 -0.2934 -0.2438 -0.2884
 4076SOL    HW113828   1.576   3.462   2.919  0.2124 -0.2683  0.5953
 4076SOL    HW213829   1.419   3.501   2.902  0.3038 -0.5505 -1.0696
 4077SOL     OW13830   4.218   5.155   7.011 -0.6751 -0.0599 -0.6685
 4077SOL    HW113831   4.249   5.200   7.095 -0.0912  0.4942 -1.1645
 4077SOL    HW213832   4.176   5.224   6.951 -2.8395 -0.7624 -0.0622
 4078SOL     OW13833   4.797   6.374   6.927 -0.0114 -0.2402 -0.9899
 4078SOL    HW113834   4.897   6.379   6.937 -0.0705  0.7250 -0.7670
 4078SOL    HW213835   4.765   6.285   6.959  0.4679  0.5067  1.8591
 4079SOL     OW13836   1.550   6.422   3.176 -0.6540  0.2017 -0.1305
 4079SOL    HW113837   1.569   6.394   3.270  0.7342 -0.3797 -0.5502
 4079SOL    HW213838   1.535   6.341   3.120 -0.9358  0.5178 -0.5148
 4080SOL     OW13839   5.961   5.428   5.333  0.5598 -0.1140  0.0791
 4080SOL    HW113840   5.904   5.415   5.251  0.4978 -0.6399  0.2017
 4080SOL    HW213841   5.993   5.523   5.337  0.0613  0.0708 -0.2311
 4081SOL     OW13842   5.645   0.699   1.008  0.0543 -0.3333 -0.2186
 4081SOL    HW113843   5.690   0.783   0.977 -1.6035  0.4807 -0.5319
 4081SOL    HW213844   5.665   0.683   1.104  0.0191  0.6946 -0.0328
 4082SOL     OW13845   6.953   5.571   6.956  0.2500  0.1583  0.5372
 4082SOL    HW113846   7.002   5.513   7.022  0.4826 -0.7551 -0.3995
 4082SOL    HW213847   7.003   5.657   6.945  0.4922  0.1067  1.1510
 4083SOL     OW13848   4.632   6.045   2.143 -0.0621 -0.1467 -0.1832
 4083SOL    HW113849   4.703   5.999   2.197 -1.5106 -1.8903  0.3038
 4083SOL    HW213850   4.542   6.012   2.171 -1.0457  1.3824 -1.3947
 4084SOL     OW13851   0.018   3.293   0.960 -0.0696  0.1842  0.8063
 4084SOL    HW113852  -0.039   3.375   0.965 -0.3428  0.0364  0.2273
 4084SOL    HW213853  -0.031   3.221   0.910  0.8401  0.2675 -0.2582
 4085SOL     OW13854   5.185   4.616   4.736  0.4772  0.3770  0.2321
 4085SOL    HW113855   5.175   4.714   4.720  1.0185  0.4470  0.3120
 4085SOL    HW213856   5.097   4.578   4.765 -0.2200  0.4847 -1.5871
 4086SOL     OW13857   6.441   2.512   0.419 -0.0838 -0.0706 -0.0763
 4086SOL    HW113858   6.514   2.580   0.414 -0.4238  0.5550  2.1281
 4086SOL    HW213859   6.480   2.421   0.423  0.4019 -0.0246 -2.4921
 4087SOL     OW13860   3.317   2.133   5.059  0.1460  0.8556 -0.2712
 4087SOL    HW113861   3.347   2.160   5.150 -0.5731  0.8552 -0.0328
 4087SOL    HW213862   3.263   2.207   5.018  0.6892  0.9673 -0.8105
 4088SOL     OW13863   6.247   6.292   5.317  0.8450  0.0183 -0.5076
 4088SOL    HW113864   6.148   6.278   5.325  0.5140  1.8184 -1.0468
 4088SOL    HW213865   6.281   6.239   5.239 -0.0416  0.8082 -1.4621
 4089SOL     OW13866   2.535   4.672   5.411  0.2353  0.8301 -0.3148
 4089SOL    HW113867   2.511   4.712   5.323 -0.4401  0.9801 -0.0642
 4089SOL    HW213868   2.462   4.689   5.477  0.3131 -0.0826  0.0209
 4090SOL     OW13869   5.727   4.936   1.943 -0.4488 -0.2422  0.5955
 4090SOL    HW113870   5.629   4.959   1.947 -0.4563  0.3681 -1.6183
 4090SOL    HW213871   5.737   4.840   1.915 -0.4228 -0.2700  0.7014
 4091SOL     OW13872   5.103   0.607   5.772  0.3531  0.5916  0.0939
 4091SOL    HW113873   5.175   0.618   5.841  1.9286 -3.4487 -0.6295
 4091SOL    HW213874   5.037   0.539   5.803 -0.0416  0.2012 -1.5035
 4092SOL     OW13875   2.530   6.719   3.710  0.1044  0.0146 -0.3657
 4092SOL    HW113876   2.532   6.802   3.767  2.2494 -0.0353 -0.2786
 4092SOL    HW213877   2.448   6.666   3.731  0.2343  0.5886  1.8428
 4093SOL     OW13878   4.607   1.596   1.277  0.4234 -0.3383  0.7239
 4093SOL    HW113879   4.572   1.628   1.189 -0.4456 -0.7643  0.9011
 4093SOL    HW213880   4.603   1.496   1.279  0.9901 -0.3565  1.0307
 4094SOL     OW13881   5.714   0.750   0.594  0.3825  0.5622 -0.8688
 4094SOL    HW113882   5.714   0.650   0.590 -4.2992  0.3146  0.2362
 4094SOL    HW213883   5.669   0.787   0.513 -0.0361  1.6309 -0.1773
 4095SOL     OW13884   4.250   6.283   6.632 -0.3134 -0.3720 -0.3100
 4095SOL    HW113885   4.293   6.201   6.670  3.4803  0.4949 -2.1677
 4095SOL    HW213886   4.183   6.319   6.696  0.8061 -2.6905  2.3540
 4096SOL     OW13887   0.957   3.576   6.597  0.1901 -0.4224  0.1139
 4096SOL    HW113888   0.965   3.540   6.504  0.3091  0.5586 -0.2612
 4096SOL    HW213889   1.048   3.583   6.638  0.4281  1.7189 -0.6985
 4097SOL     OW13890   2.472   5.049   5.064 -0.1259  0.8058 -0.3335
 4097SOL    HW113891   2.550   5.063   5.003  0.2139 -0.4339 -0.2095
 4097SOL    HW213892   2.505   5.041   5.158 -0.4778  0.9210 -0.1992
 4098SOL     OW13893   1.983   1.607   6.381 -0.6525  0.3444  0.4237
 4098SOL    HW113894   1.948   1.553   6.457 -1.2985  1.9660  1.3220
 4098SOL    HW213895   2.020   1.694   6.415  0.1044  0.6205 -0.9973
 4099SOL     OW13896   1.190   1.803   5.593 -0.2601  0.4746 -0.6125
 4099SOL    HW113897   1.287   1.778   5.593 -0.3380  0.1504 -0.0830
 4099SOL    HW213898   1.181   1.902   5.605  0.0241  0.6453 -1.7167
 4100SOL     OW13899   2.713   4.042   3.828 -0.3591  0.2198 -0.6892
 4100SOL    HW113900   2.638   4.060   3.764 -1.3277  0.2558  0.4388
 4100SOL    HW213901   2.800   4.062   3.782 -0.9905 -0.1969 -2.1467
 4101SOL     OW13902   3.433   1.796   4.545  0.6944 -0.7646  0.6081
 4101SOL    HW113903   3.436   1.779   4.446  0.7635  0.0899  0.4579
 4101SOL    HW213904   3.378   1.725   4.589 -1.3327  0.1551 -0.3369
 4102SOL     OW13905   4.232   1.171   2.851  0.9676  0.5129  0.1052
 4102SOL    HW113906   4.282   1.205   2.772  1.0584 -0.2446 -0.1763
 4102SOL    HW213907   4.296   1.125   2.913  1.2024  2.5551  1.4871
 4103SOL     OW13908   3.940   0.273   1.233  0.1569 -0.0924 -0.2528
 4103SOL    HW113909   4.021   0.237   1.278 -1.0716 -0.5887  1.6866
 4103SOL    HW213910   3.910   0.356   1.279 -0.5943 -0.0845 -0.7359
 4104SOL     OW13911   5.546   5.082   1.477 -0.4273  0.1114 -0.1096
 4104SOL    HW113912   5.535   5.124   1.567 -0.3808 -1.1560  0.5059
 4104SOL    HW213913   5.467   5.106   1.420 -0.6153  0.6574  0.3701
 4105SOL     OW13914   6.990   5.898   1.166 -0.0871  0.1858  0.4117
 4105SOL    HW113915   6.966   5.802   1.150  0.5298  0.1290 -0.2200
 4105SOL    HW213916   7.002   5.944   1.078 -0.4915  0.8786  0.7096
 4106SOL     OW13917   6.351   5.841   5.704  0.3389  0.3108  0.3957
 4106SOL    HW113918   6.307   5.763   5.750 -0.5234  1.4349  1.5619
 4106SOL    HW213919   6.440   5.813   5.670 -1.0252 -1.9241 -1.6348
 4107SOL     OW13920   5.191   5.819   1.150 -0.6677 -0.3463 -0.1080
 4107SOL    HW113921   5.157   5.735   1.109  0.6179 -1.3647  0.7989
 4107SOL    HW213922   5.133   5.845   1.227 -0.5576 -0.9257  0.1725
 4108SOL     OW13923   6.211   3.132   6.445 -0.0094 -0.2200 -0.1564
 4108SOL    HW113924   6.167   3.203   6.390  0.1936  0.5403  0.6248
 4108SOL    HW213925   6.305   3.161   6.467  0.1472 -0.8271 -0.0010
 4109SOL     OW13926   1.254   5.722   3.214  0.0422  0.1457 -0.1645
 4109SOL    HW113927   1.202   5.663   3.276  1.6655  0.3061  1.4232
 4109SOL    HW213928   1.235   5.818   3.236 -0.3927  0.2214 -0.8341
 4110SOL     OW13929   2.366   0.242   0.086 -0.0232  0.6947  0.4316
 4110SOL    HW113930   2.294   0.301   0.122  0.2003  1.1780  0.1114
 4110SOL    HW213931   2.384   0.168   0.150 -0.2734  1.0091  0.8729
 4111SOL     OW13932   6.218   4.057   2.382  0.5246  0.4858  0.1621
 4111SOL    HW113933   6.277   4.113   2.440  1.1520 -0.3866  0.3944
 4111SOL    HW213934   6.255   4.055   2.289 -0.2379  1.5269 -0.1789
 4112SOL     OW13935   6.454   5.976   6.457  0.3860  0.3218 -0.1575
 4112SOL    HW113936   6.475   5.910   6.529  0.1651 -0.2514 -0.6059
 4112SOL    HW213937   6.521   6.051   6.459  1.7874 -0.8747 -0.8421
 4113SOL     OW13938   4.855   1.390   4.825  0.0653 -0.1832  0.3261
 4113SOL    HW113939   4.927   1.326   4.800  0.4401  0.5639 -0.6010
 4113SOL    HW213940   4.766   1.354   4.796  0.3861  0.1964 -1.2508
 4114SOL     OW13941   5.942   3.928   5.502  0.1110 -0.1775 -0.2582
 4114SOL    HW113942   6.032   3.928   5.545 -0.1919  0.8915  0.4074
 4114SOL    HW213943   5.941   3.995   5.427  0.2246 -1.0692 -1.0863
 4115SOL     OW13944   4.344   6.016   0.028 -0.3124 -0.4830  0.2655
 4115SOL    HW113945   4.415   6.000   0.097 -0.3191  1.7562  0.8569
 4115SOL    HW213946   4.284   5.936   0.022  0.1823 -1.0428  2.2598
 4116SOL     OW13947   0.074   2.837   3.855 -0.3274 -0.3702 -0.3875
 4116SOL    HW113948   0.074   2.767   3.926  2.8279  1.2903  1.4887
 4116SOL    HW213949   0.135   2.809   3.780 -1.1100 -0.7030 -0.9160
 4117SOL     OW13950   6.161   6.980   0.938  0.2641 -0.1479  0.0797
 4117SOL    HW113951   6.062   6.985   0.929  0.4542 -0.1672 -2.7050
 4117SOL    HW213952   6.187   6.891   0.976 -0.7071 -0.7703 -0.6872
 4118SOL     OW13953   4.532   0.174   1.681  0.3200 -0.3765 -0.1242
 4118SOL    HW113954   4.575   0.200   1.594 -1.2730  1.6383 -0.3685
 4118SOL    HW213955   4.436   0.152   1.665  0.4809 -1.9501  0.8642
 4119SOL     OW13956   4.630   1.653   3.238  0.2713  0.0339  0.2176
 4119SOL    HW113957   4.549   1.625   3.187  0.2344  0.8419 -0.1882
 4119SOL    HW213958   4.706   1.668   3.175  0.0289  1.7506  0.2785
 4120SOL     OW13959   3.514   2.420   6.784  0.1331  0.2974  0.0882
 4120SOL    HW113960   3.496   2.341   6.843  0.5321  0.4466  0.4094
 4120SOL    HW213961   3.476   2.402   6.693 -2.0398  0.7541  0.8254
 4121SOL     OW13962   4.567   2.022   2.289  0.0264  0.7344  0.2409
 4121SOL    HW113963   4.490   2.055   2.344 -0.3980  0.7349 -0.3394
 4121SOL    HW213964   4.553   1.925   2.269  0.0587  0.7961 -0.0717
 4122SOL     OW13965   4.113   4.147   6.963  0.0908  0.3548  0.4428
 4122SOL    HW113966   4.155   4.234   6.987  0.6932  0.8187 -2.0032
 4122SOL    HW213967   4.096   4.144   6.864 -0.6211 -2.0009  0.5704
 4123SOL     OW13968   5.700   4.112   0.799 -0.1294 -0.3537  0.2490
 4123SOL    HW113969   5.619   4.112   0.740 -0.2306  0.7842  0.3676
 4123SOL    HW213970   5.777   4.153   0.751 -0.0786  0.1164  0.7257
 4124SOL     OW13971   0.202   1.689   1.662  0.1865  0.4174  0.0069
 4124SOL    HW113972   0.102   1.684   1.674  0.2054  0.8175  0.3520
 4124SOL    HW213973   0.239   1.596   1.656 -0.1046  0.2361  0.7798
 4125SOL     OW13974   6.005   4.058   4.524  0.5549 -0.0364  0.4813
 4125SOL    HW113975   5.957   4.113   4.456  2.1270  1.0152  0.1807
 4125SOL    HW213976   5.954   3.973   4.540  0.4417 -0.6376 -2.4736
 4126SOL     OW13977   2.008   5.356   2.599 -0.0144 -0.3125  0.4553
 4126SOL    HW113978   1.916   5.315   2.598  0.1222 -0.6182  0.3831
 4126SOL    HW213979   2.075   5.287   2.576  0.1148  0.2169 -0.8112
 4127SOL     OW13980   1.713   1.859   3.581  0.5928 -0.0379  0.2059
 4127SOL    HW113981   1.617   1.888   3.582  0.3923 -0.7002  0.4915
 4127SOL    HW213982   1.734   1.818   3.492  0.9001  1.0269 -0.2301
 4128SOL     OW13983   6.037   5.808   5.896  0.6740 -1.0040  0.3814
 4128SOL    HW113984   6.028   5.774   5.990 -2.1294 -0.7366  0.2983
 4128SOL    HW213985   6.081   5.897   5.897 -0.8819 -0.1878  1.7194
 4129SOL     OW13986   5.272   6.558   4.045  0.5354 -0.0468  0.1325
 4129SOL    HW113987   5.345   6.584   4.108  0.3689 -0.9876  0.7308
 4129SOL    HW213988   5.264   6.459   4.042 -0.1988  0.0214 -0.5344
 4130SOL     OW13989   3.982   1.157   2.352 -0.0652  0.3181  0.6496
 4130SOL    HW113990   4.017   1.076   2.398 -0.8632  1.0965  2.7158
 4130SOL    HW213991   3.883   1.149   2.341 -0.4696  1.7732  2.6431
 4131SOL     OW13992   3.873   5.133   6.640 -0.1584  0.4251 -0.1245
 4131SOL    HW113993   3.775   5.111   6.638  0.4366 -2.5484 -0.3049
 4131SOL    HW213994   3.921   5.081   6.569  1.6331  1.6732  0.0926
 4132SOL     OW13995   5.797   4.333   0.476  0.6644  0.4400 -0.1120
 4132SOL    HW113996   5.772   4.236   0.474 -1.7505  0.9913 -2.2423
 4132SOL    HW213997   5.874   4.348   0.415  1.5269 -0.1997  0.7789
 4133SOL     OW13998   5.595   5.531   3.520  0.1613  0.3244 -0.2950
 4133SOL    HW113999   5.616   5.559   3.614 -2.1657  1.5876 -0.0837
 4133SOL    HW214000   5.582   5.612   3.463 -1.2611 -0.3656 -1.0125
 4134SOL     OW14001   2.707   1.388   2.432 -0.8502 -0.4097 -0.0992
 4134SOL    HW114002   2.632   1.340   2.387 -1.2738 -1.6085  1.7435
 4134SOL    HW214003   2.709   1.363   2.529 -1.1124  3.3860  1.0371
 4135SOL     OW14004   0.234   5.648   0.959  0.1113 -0.6322 -0.5750
 4135SOL    HW114005   0.250   5.696   1.045 -0.1217  0.1083 -0.9315
 4135SOL    HW214006   0.321   5.640   0.909  0.1982 -0.8154 -0.3927
 4136SOL     OW14007   5.303   5.396   1.952  0.0226 -0.1845  0.0935
 4136SOL    HW114008   5.276   5.453   1.874 -2.2961 -0.8317  0.3399
 4136SOL    HW214009   5.316   5.302   1.921  1.7631  0.0516  0.0528
 4137SOL     OW14010   5.848   2.341   0.931  0.4318 -1.0490 -0.1372
 4137SOL    HW114011   5.830   2.260   0.875  2.0673 -0.6068 -1.3890
 4137SOL    HW214012   5.831   2.424   0.878 -1.7266 -0.4882  1.2962
 4138SOL     OW14013   2.403   6.932   4.492  0.0174  0.8165  0.0502
 4138SOL    HW114014   2.345   6.917   4.571 -2.6753  0.7493 -1.8040
 4138SOL    HW214015   2.387   6.860   4.424  0.3294  2.1987 -1.5820
 4139SOL     OW14016   0.459   6.091   0.821 -0.1501 -0.1652 -0.4168
 4139SOL    HW114017   0.527   6.154   0.784  0.9349  0.0969  1.8430
 4139SOL    HW214018   0.504   6.007   0.850 -0.9509 -0.3823  0.2271
 4140SOL     OW14019   0.737   6.170   3.154 -0.5443 -0.8551  0.3753
 4140SOL    HW114020   0.831   6.149   3.181 -0.4662 -0.0269  0.8053
 4140SOL    HW214021   0.729   6.161   3.054  0.3253  0.1966  0.1769
 4141SOL     OW14022   2.807   4.072   0.959 -0.4515 -0.6531  0.1688
 4141SOL    HW114023   2.735   4.031   1.015 -0.9989  0.8428  0.6227
 4141SOL    HW214024   2.875   4.003   0.935 -0.3395 -1.4166  2.4762
 4142SOL     OW14025   2.152   0.055   5.654 -0.0922  0.2426  0.4015
 4142SOL    HW114026   2.225   0.100   5.706  0.1237 -0.1955  0.4879
 4142SOL    HW214027   2.080   0.120   5.633  0.6799  0.8753 -0.3526
 4143SOL     OW14028   1.189   4.125   1.594  0.4932 -0.2745 -0.3078
 4143SOL    HW114029   1.140   4.109   1.679 -0.5509 -1.4760 -1.0903
 4143SOL    HW214030   1.229   4.038   1.562  1.7924  0.3715 -0.4996
 4144SOL     OW14031   5.220   5.062   2.325 -0.4253  0.6538  0.7181
 4144SOL    HW114032   5.229   5.129   2.399  1.6321 -1.0750  2.1587
 4144SOL    HW214033   5.203   4.971   2.364 -2.5922  0.1521 -1.1585
 4145SOL     OW14034   1.533   5.441   4.087  0.3727  0.7599 -0.4275
 4145SOL    HW114035   1.546   5.537   4.061  2.7386  0.2265 -1.4176
 4145SOL    HW214036   1.584   5.382   4.024 -0.8360 -1.1636  0.3062
 4146SOL     OW14037   4.427   5.086   0.347  0.1509  0.0757 -0.3669
 4146SOL    HW114038   4.394   5.007   0.399 -0.2403  0.1460 -0.5077
 4146SOL    HW214039   4.484   5.055   0.271  0.6976 -0.0306  0.0808
 4147SOL     OW14040   4.415   1.993   0.270  0.2866 -0.1997  0.2341
 4147SOL    HW114041   4.401   2.050   0.351  2.7157  0.8426  0.0079
 4147SOL    HW214042   4.459   1.907   0.297  1.0968  0.1484  0.0266
 4148SOL     OW14043   3.661   3.281   4.139 -0.4031  0.3630 -0.6039
 4148SOL    HW114044   3.566   3.259   4.116  0.1368 -0.6219 -1.9616
 4148SOL    HW214045   3.708   3.198   4.169 -0.1263  0.9722  0.7546
 4149SOL     OW14046   6.549   1.212   0.175  0.5079 -0.0359  0.3299
 4149SOL    HW114047   6.450   1.226   0.172  0.2060 -2.0252 -2.1682
 4149SOL    HW214048   6.574   1.174   0.263 -0.6765  1.8209  1.5515
 4150SOL     OW14049   6.961   5.604   1.202  0.6946 -0.1224 -0.1044
 4150SOL    HW114050   6.985   5.612   1.298  1.0229 -1.9648  0.0140
 4150SOL    HW214051   6.862   5.594   1.193  0.7886 -1.7444  0.2499
 4151SOL     OW14052   3.741   5.064   2.473  0.3394 -0.9452 -0.1206
 4151SOL    HW114053   3.711   5.121   2.548  0.4388 -2.2144  0.9156
 4151SOL    HW214054   3.744   5.118   2.389 -0.6052  0.2757  0.6017
 4152SOL     OW14055   2.123   6.122   6.165 -0.3108 -0.4563  0.2343
 4152SOL    HW114056   2.175   6.047   6.207 -1.2377  0.1144  2.5199
 4152SOL    HW214057   2.135   6.119   6.066  1.5574 -2.1986  0.4528
 4153SOL     OW14058   4.858   0.976   0.701 -0.1446  0.0519 -0.1597
 4153SOL    HW114059   4.932   1.042   0.684 -0.2253  0.1359 -0.1812
 4153SOL    HW214060   4.866   0.901   0.634  0.2562 -0.2251  0.1911
 4154SOL     OW14061   4.359   6.018   6.484 -0.0342 -1.1176 -0.5705
 4154SOL    HW114062   4.335   6.111   6.457  0.1152 -1.0638 -0.5184
 4154SOL    HW214063   4.298   5.954   6.438  0.7189 -1.0835 -1.6640
 4155SOL     OW14064   4.033   1.083   5.104  0.4335  0.3922 -0.1396
 4155SOL    HW114065   4.077   1.061   5.017 -0.5667  1.6463 -1.0135
 4155SOL    HW214066   3.958   1.018   5.121  2.0858 -1.3096  1.0057
 4156SOL     OW14067   1.823   0.693   2.339  0.2192  0.1146 -0.3988
 4156SOL    HW114068   1.896   0.747   2.297  0.3887 -0.3094 -0.6475
 4156SOL    HW214069   1.749   0.755   2.366 -0.7755  0.2782 -3.0911
 4157SOL     OW14070   2.261   1.126   3.411  0.1529  0.2152 -0.3397
 4157SOL    HW114071   2.215   1.116   3.323 -0.8894  1.3942  0.0335
 4157SOL    HW214072   2.196   1.106   3.484  0.2753  1.6772  0.1925
 4158SOL     OW14073   0.005   6.033   4.178 -0.8165 -0.0712 -0.5060
 4158SOL    HW114074   0.071   5.959   4.165  1.0430  1.4666 -0.3244
 4158SOL    HW214075  -0.032   6.028   4.271 -0.2715 -0.4361 -0.2987
 4159SOL     OW14076   5.734   5.591   6.848 -0.2961  0.2974  0.2804
 4159SOL    HW114077   5.822   5.639   6.838 -0.2132  0.0356 -0.2821
 4159SOL    HW214078   5.751   5.497   6.876 -0.4090  0.2990  0.3525
 4160SOL     OW14079   1.748   2.955   1.769 -0.3822 -0.1763  0.4364
 4160SOL    HW114080   1.746   3.005   1.682  0.2690  0.1909  0.6230
 4160SOL    HW214081   1.842   2.932   1.792 -0.6829 -1.6908  0.2654
 4161SOL     OW14082   3.683   3.030   1.495 -0.1540 -0.3680  0.5881
 4161SOL    HW114083   3.719   2.939   1.512  0.6985  0.1461  1.6156
 4161SOL    HW214084   3.631   3.061   1.575  1.6814  1.0234  1.3148
 4162SOL     OW14085   0.729   1.945   4.310  0.4118 -0.1178 -0.4913
 4162SOL    HW114086   0.766   1.909   4.396 -0.7004  1.2507  0.6015
 4162SOL    HW214087   0.793   1.924   4.235  0.6676 -2.6938  0.3527
 4163SOL     OW14088   6.331   2.287   4.068 -0.4877  0.1241  0.0936
 4163SOL    HW114089   6.425   2.300   4.036 -0.2701 -0.3511  0.5093
 4163SOL    HW214090   6.315   2.190   4.085 -1.4016  0.0659 -0.9787
 4164SOL     OW14091   0.897   1.247   0.495 -0.3473  0.5723 -0.2929
 4164SOL    HW114092   0.977   1.190   0.517 -1.0105 -0.2119  0.1161
 4164SOL    HW214093   0.919   1.342   0.514  1.0275  0.5781 -1.6544
 4165SOL     OW14094   1.978   4.316   1.009  0.4438 -0.3685  0.2210
 4165SOL    HW114095   1.912   4.249   1.045  1.0902 -0.5853  1.0417
 4165SOL    HW214096   2.071   4.281   1.022  0.7264 -0.6105 -2.0139
 4166SOL     OW14097   1.157   0.897   0.694 -0.5289 -0.0497 -0.5039
 4166SOL    HW114098   1.250   0.861   0.689 -0.0667  1.0018  0.2022
 4166SOL    HW214099   1.149   0.978   0.636 -0.8745  0.1104 -0.2401
 4167SOL     OW14100   0.133   4.406   2.879  0.2165  1.0249 -0.4015
 4167SOL    HW114101   0.097   4.493   2.913  0.7663  0.7279  1.0446
 4167SOL    HW214102   0.133   4.340   2.954  0.5013 -0.0107 -1.2920
 4168SOL     OW14103   4.658   4.259   0.278 -0.0408  0.2486  0.1122
 4168SOL    HW114104   4.745   4.275   0.325  0.5297 -0.6165 -0.6054
 4168SOL    HW214105   4.667   4.179   0.219 -0.8085  1.1568 -1.2873
 4169SOL     OW14106   1.852   5.423   3.100 -0.2911 -0.5378 -0.0693
 4169SOL    HW114107   1.790   5.368   3.044 -1.2763  1.7443 -1.3124
 4169SOL    HW214108   1.946   5.401   3.077 -0.6550  0.3751 -2.7740
 4170SOL     OW14109   6.983   6.661   4.007  0.0329  0.1385 -0.5354
 4170SOL    HW114110   6.941   6.580   3.964  0.3778  0.1277 -0.8557
 4170SOL    HW214111   6.912   6.729   4.026 -0.2875 -0.3184 -0.0871
 4171SOL     OW14112   0.119   0.401   4.194  0.4880  0.5062 -0.6640
 4171SOL    HW114113   0.068   0.463   4.254 -1.1819 -0.5958 -0.8823
 4171SOL    HW214114   0.162   0.454   4.121 -0.7029  1.4538 -0.7231
 4172SOL     OW14115   4.170   0.574   2.425 -0.1822  0.7091  0.6964
 4172SOL    HW114116   4.258   0.578   2.472  0.4117 -0.0151 -0.3181
 4172SOL    HW214117   4.134   0.481   2.428 -0.5408  0.8348  0.4466
 4173SOL     OW14118   6.279   2.276   4.977 -0.2135  0.5796 -0.2381
 4173SOL    HW114119   6.294   2.269   5.076 -2.0720  1.7224  0.1506
 4173SOL    HW214120   6.219   2.201   4.948 -1.0052  1.1897 -0.1960
 4174SOL     OW14121   4.037   4.860   6.201 -0.5888 -0.3368 -0.0699
 4174SOL    HW114122   4.117   4.801   6.205 -0.3943 -0.2606 -2.1188
 4174SOL    HW214123   4.063   4.954   6.226  0.7574  0.3916 -3.7134
 4175SOL     OW14124   4.171   1.191   5.335 -0.4159 -0.1948  0.2223
 4175SOL    HW114125   4.259   1.228   5.306 -0.6692  1.3210  1.2755
 4175SOL    HW214126   4.110   1.184   5.256 -0.1683  1.1404 -0.1098
 4176SOL     OW14127   0.158   6.696   1.436 -0.1179  0.2523 -0.5343
 4176SOL    HW114128   0.222   6.762   1.473 -0.9305 -0.0597  1.5453
 4176SOL    HW214129   0.083   6.744   1.389  0.2589  0.7183 -0.6615
 4177SOL     OW14130   2.950   6.065   0.982  0.4202  0.1488  0.2101
 4177SOL    HW114131   3.041   6.106   0.992  1.0897 -1.4411  1.1303
 4177SOL    HW214132   2.940   5.991   1.049 -1.1752 -0.3858 -0.5718
 4178SOL     OW14133   5.252   2.131   5.731 -0.1976 -0.0945  0.7358
 4178SOL    HW114134   5.172   2.113   5.788  0.2022 -1.4351  0.9076
 4178SOL    HW214135   5.333   2.142   5.789  0.0499 -0.5750  0.4942
 4179SOL     OW14136   1.323   4.504   2.461  0.2169 -0.1325  0.0601
 4179SOL    HW114137   1.239   4.528   2.508  0.8325  1.2294  0.5060
 4179SOL    HW214138   1.401   4.518   2.522  0.8807 -0.1351 -0.7636
 4180SOL     OW14139   5.213   6.067   0.919 -0.2225 -0.5400 -0.5894
 4180SOL    HW114140   5.223   6.157   0.961 -0.4508 -1.7045  2.2137
 4180SOL    HW214141   5.303   6.034   0.888 -0.2609  0.9210 -2.3837
 4181SOL     OW14142   0.077   3.547   1.271 -0.3832  0.0610 -0.1365
 4181SOL    HW114143   0.035   3.612   1.335  0.0964  1.3823 -1.1135
 4181SOL    HW214144   0.038   3.560   1.180 -0.4970 -1.2604 -0.2857
 4182SOL     OW14145   1.073   3.608   2.017  0.0875 -0.1963  0.1920
 4182SOL    HW114146   1.089   3.704   1.994 -0.3258 -0.7144 -2.5499
 4182SOL    HW214147   1.159   3.565   2.042  0.4969  0.5802  0.1612
 4183SOL     OW14148   4.948   2.737   0.069  0.2440 -0.3693 -0.4576
 4183SOL    HW114149   4.883   2.685   0.125 -1.7252  0.7406 -1.5933
 4183SOL    HW214150   5.003   2.675   0.014 -3.2288 -1.3797 -3.1005
 4184SOL     OW14151   6.603   6.506   2.931  0.2837 -0.0940 -0.0889
 4184SOL    HW114152   6.696   6.472   2.944  1.4053  1.1203 -3.6490
 4184SOL    HW214153   6.603   6.606   2.936 -1.0668 -0.1127  0.8732
 4185SOL     OW14154   5.400   3.627   0.530 -0.2087 -0.2412 -0.2469
 4185SOL    HW114155   5.305   3.657   0.526  0.9557  3.9768 -0.7600
 4185SOL    HW214156   5.422   3.599   0.624 -1.8374 -1.0908 -0.0815
 4186SOL     OW14157   2.924   1.208   4.042 -0.2464 -0.1183 -0.0184
 4186SOL    HW114158   2.861   1.262   4.097  0.1236  0.6568 -0.3332
 4186SOL    HW214159   2.881   1.186   3.954 -0.1583  0.2298 -0.1498
 4187SOL     OW14160   2.802   4.617   2.139 -0.0455 -0.0258  0.3367
 4187SOL    HW114161   2.744   4.628   2.219 -0.0652 -1.1459  0.4821
 4187SOL    HW214162   2.756   4.656   2.059 -0.6972 -0.2981  0.5760
 4188SOL     OW14163   4.013   4.460   1.998  0.5108 -0.1986 -0.2444
 4188SOL    HW114164   4.071   4.380   2.016  2.3070  0.4432 -2.6301
 4188SOL    HW214165   4.057   4.518   1.929 -1.8212  1.6923 -0.2677
 4189SOL     OW14166   6.868   5.345   0.886  0.3681 -0.3040 -0.3167
 4189SOL    HW114167   6.889   5.317   0.792  1.2092 -0.6502 -0.0318
 4189SOL    HW214168   6.948   5.390   0.926 -0.9643  2.8252 -0.8285
 4190SOL     OW14169   0.532   4.667   0.677  0.1441  0.4550 -0.4365
 4190SOL    HW114170   0.514   4.578   0.720 -0.1413  0.3615 -0.7410
 4190SOL    HW214171   0.629   4.690   0.687  0.7019 -0.8793 -2.1273
 4191SOL     OW14172   5.388   2.213   6.097 -0.1127 -0.3468 -0.0177
 4191SOL    HW114173   5.294   2.227   6.128 -1.0933 -0.3651 -2.7294
 4191SOL    HW214174   5.430   2.139   6.149 -0.9535  0.7734  2.4031
 4192SOL     OW14175   4.086   6.863   3.289 -0.2403 -0.4087 -0.0919
 4192SOL    HW114176   4.082   6.937   3.221 -0.2372 -0.3206  0.0035
 4192SOL    HW214177   4.140   6.788   3.253  0.0912 -0.2008 -0.0303
 4193SOL     OW14178   1.747   5.372   1.338 -0.2310  0.0299  0.1748
 4193SOL    HW114179   1.830   5.428   1.348 -0.5038  1.0727 -2.5152
 4193SOL    HW214180   1.669   5.422   1.376 -0.0114  0.1498  0.4744
 4194SOL     OW14181   6.538   5.703   2.472  0.2744 -0.6081  1.2461
 4194SOL    HW114182   6.588   5.665   2.394 -0.7551  0.2896  0.1088
 4194SOL    HW214183   6.558   5.800   2.481 -0.6462 -0.4086  1.2609
 4195SOL     OW14184   0.976   0.289   5.389  0.1451 -0.1489  0.1985
 4195SOL    HW114185   1.063   0.284   5.340  0.9619 -1.5216  1.6953
 4195SOL    HW214186   0.949   0.385   5.398  1.4564  0.3011 -0.3688
 4196SOL     OW14187   0.977   6.248   5.768  0.1655  0.2307 -0.6141
 4196SOL    HW114188   0.961   6.346   5.770  0.6003  0.2950 -0.3267
 4196SOL    HW214189   1.057   6.225   5.823 -1.3122 -0.5449  1.3756
 4197SOL     OW14190   5.221   0.002   2.865 -0.4382  0.2915 -0.3558
 4197SOL    HW114191   5.149  -0.053   2.908 -0.7189 -0.1229 -1.3256
 4197SOL    HW214192   5.263  -0.051   2.791  1.0437  0.4327  0.3469
 4198SOL     OW14193   3.910   3.372   0.179  0.0086 -0.4968  0.0738
 4198SOL    HW114194   3.868   3.394   0.090 -1.8162 -1.4543  0.6441
 4198SOL    HW214195   3.967   3.290   0.169  1.6656  0.6801 -0.6565
 4199SOL     OW14196   6.714   7.003   3.052 -0.0687  0.1451 -0.4435
 4199SOL    HW114197   6.772   7.048   2.984 -0.8123 -0.5687 -1.5763
 4199SOL    HW214198   6.763   6.926   3.093  1.0351  1.6242  1.1563
 4200SOL     OW14199   1.949   0.155   3.419  0.4053 -0.4014  0.7700
 4200SOL    HW114200   2.035   0.105   3.408  0.8851  0.4020  0.7328
 4200SOL    HW214201   1.966   0.253   3.404 -1.0951 -0.5104 -2.3761
 4201SOL     OW14202   0.514   3.576   0.334  0.1129  0.0546 -0.1827
 4201SOL    HW114203   0.553   3.668   0.330 -0.9150  0.6928  2.3352
 4201SOL    HW214204   0.415   3.581   0.341 -0.0133 -1.2865 -0.6124
 4202SOL     OW14205   5.047   3.012   0.426 -0.0464  0.4458 -0.4183
 4202SOL    HW114206   5.135   2.998   0.380  0.6300 -0.5528  1.1083
 4202SOL    HW214207   5.050   3.095   0.481  0.2716 -0.0619  0.3441
 4203SOL     OW14208   0.725   5.226   4.545  0.1258  0.4745 -0.2143
 4203SOL    HW114209   0.716   5.127   4.531 -0.9376  0.7053 -1.3391
 4203SOL    HW214210   0.725   5.273   4.457 -0.2285  1.5346  0.3248
 4204SOL     OW14211   1.013   5.268   6.823 -0.0472 -0.0918  0.1579
 4204SOL    HW114212   1.056   5.287   6.734  0.2906 -1.2786  0.0588
 4204SOL    HW214213   0.988   5.172   6.828  0.3485 -0.1387  1.5352
 4205SOL     OW14214   4.578   6.388   6.512  0.3422  0.1612 -0.2295
 4205SOL    HW114215   4.659   6.434   6.549 -1.5417  2.1994  1.5865
 4205SOL    HW214216   4.583   6.290   6.534  0.1442  0.9633  4.2726
 4206SOL     OW14217   4.389   1.310   5.188  0.1121 -0.0116  0.0343
 4206SOL    HW114218   4.418   1.351   5.102 -1.3103 -0.1348 -0.5285
 4206SOL    HW214219   4.379   1.382   5.257 -1.1090  0.4552 -0.5918
 4207SOL     OW14220   1.998   1.898   0.812  0.4888  0.5076  0.1628
 4207SOL    HW114221   1.946   1.927   0.732  0.1929  1.9276  0.8309
 4207SOL    HW214222   2.050   1.815   0.791 -1.2004 -0.3409 -0.8524
 4208SOL     OW14223   6.897   0.129   0.430  0.5231 -0.1304  0.3504
 4208SOL    HW114224   6.952   0.180   0.363 -0.8791 -1.3833 -1.8677
 4208SOL    HW214225   6.813   0.180   0.450  0.0083 -0.6476 -0.4226
 4209SOL     OW14226   6.455   0.871   5.391 -0.1774  0.8364 -0.1519
 4209SOL    HW114227   6.413   0.877   5.482 -0.0004 -0.4583  0.0408
 4209SOL    HW214228   6.384   0.851   5.323 -0.1919  0.9736 -0.1778
 4210SOL     OW14229   0.644   1.436   6.825 -0.2420 -0.0846 -0.5946
 4210SOL    HW114230   0.585   1.400   6.753  0.3240  1.8674 -2.1436
 4210SOL    HW214231   0.732   1.387   6.824 -0.2217 -0.0483 -1.2878
 4211SOL     OW14232   6.129   2.181   6.105 -0.3154 -0.6349  0.3568
 4211SOL    HW114233   6.078   2.263   6.132  0.8327 -0.2030  1.3233
 4211SOL    HW214234   6.192   2.204   6.031 -0.6394 -0.8694  0.0057
 4212SOL     OW14235   4.342   2.006   5.964  0.0255  0.4968 -0.1202
 4212SOL    HW114236   4.263   1.944   5.964 -1.0352  1.7921 -1.0546
 4212SOL    HW214237   4.361   2.035   6.058 -0.8106  0.3950  0.0911
 4213SOL     OW14238   3.063   3.843   5.705  0.0969 -0.0582 -0.2877
 4213SOL    HW114239   3.106   3.875   5.790 -1.1576 -1.3039  0.8681
 4213SOL    HW214240   3.134   3.821   5.638  1.1486  0.3236  0.6701
 4214SOL     OW14241   3.770   1.203   5.698 -0.4415 -0.1105 -0.0978
 4214SOL    HW114242   3.694   1.257   5.735  1.2075  2.2335  0.0627
 4214SOL    HW214243   3.741   1.158   5.614 -1.9858  0.7674 -0.0783
 4215SOL     OW14244   1.103   6.955   2.539 -0.5709 -0.1703 -0.2903
 4215SOL    HW114245   1.123   6.985   2.445 -1.0676  0.5258 -0.1835
 4215SOL    HW214246   1.126   7.028   2.603  0.7454 -1.0175  0.2506
 4216SOL     OW14247   2.586   2.018   2.335  0.5433 -0.1713 -0.3674
 4216SOL    HW114248   2.553   2.095   2.389 -0.7515 -0.8708 -0.1159
 4216SOL    HW214249   2.527   2.005   2.256  1.4892 -0.1489 -1.0941
 4217SOL     OW14250   5.893   2.471   5.260  0.3440 -0.4807 -0.1177
 4217SOL    HW114251   5.912   2.412   5.181  0.4385 -0.0729 -0.4034
 4217SOL    HW214252   5.881   2.566   5.229 -1.1134 -0.5428  0.1656
 4218SOL     OW14253   6.295   3.594   1.963  0.2098 -0.0489  0.0420
 4218SOL    HW114254   6.361   3.573   1.891  2.3161 -0.7751  2.0651
 4218SOL    HW214255   6.327   3.672   2.016 -1.1484  0.3078  0.3654
 4219SOL     OW14256   6.799   2.684   0.502  0.2861 -0.1061 -0.0792
 4219SOL    HW114257   6.846   2.772   0.492 -1.3001  0.6400 -1.5010
 4219SOL    HW214258   6.850   2.613   0.453  1.7149 -0.0837  1.2954
 4220SOL     OW14259   0.163   6.872   3.688  0.4871 -0.3098 -0.1986
 4220SOL    HW114260   0.095   6.901   3.755 -0.2888 -2.4106 -0.0010
 4220SOL    HW214261   0.164   6.936   3.612 -0.2228  0.8811  0.7532
 4221SOL     OW14262   4.619   1.019   3.448 -0.1792 -0.5675  0.2100
 4221SOL    HW114263   4.561   1.080   3.501 -0.5175 -0.6125 -0.1064
 4221SOL    HW214264   4.684   1.072   3.394  0.0997 -0.5187  0.5937
 4222SOL     OW14265   4.290   6.659   6.925  0.3868 -0.2514  0.2357
 4222SOL    HW114266   4.192   6.672   6.908  0.0697 -0.6186  1.6543
 4222SOL    HW214267   4.340   6.665   6.838 -0.9237 -0.4194 -0.5595
 4223SOL     OW14268   5.949   6.468   0.961 -0.7268  0.3692 -0.5458
 4223SOL    HW114269   6.044   6.492   0.941 -0.5692 -0.0910 -0.3714
 4223SOL    HW214270   5.937   6.369   0.949 -0.4119 -0.1120  2.4450
 4224SOL     OW14271   5.656   2.675   2.910  0.2034  0.0902 -0.3304
 4224SOL    HW114272   5.731   2.738   2.888 -0.5569  1.1621  0.0557
 4224SOL    HW214273   5.688   2.581   2.901  2.3022  0.4608  1.9380
 4225SOL     OW14274   5.931   5.283   0.448 -0.3353  0.0592 -0.1009
 4225SOL    HW114275   6.025   5.257   0.472 -0.5482 -0.4623  0.1707
 4225SOL    HW214276   5.875   5.283   0.530 -1.0514 -1.6478 -0.5460
 4226SOL     OW14277   1.026   1.585   1.695  0.0800 -0.5066  0.2356
 4226SOL    HW114278   0.992   1.679   1.691 -0.4633 -0.6003  2.1072
 4226SOL    HW214279   1.093   1.572   1.621 -2.0049  0.4181 -1.9711
 4227SOL     OW14280   0.771   0.396   5.870  0.0418 -0.1730 -0.5018
 4227SOL    HW114281   0.790   0.298   5.878 -0.2021 -0.4107 -2.3862
 4227SOL    HW214282   0.808   0.443   5.950  0.7040 -1.7201  0.1539
 4228SOL     OW14283   3.129   3.563   2.940  0.1571 -0.3472 -0.8910
 4228SOL    HW114284   3.158   3.658   2.929  1.7927 -0.9977 -2.6230
 4228SOL    HW214285   3.032   3.555   2.918  0.1289  0.8176 -1.2409
 4229SOL     OW14286   2.683   2.174   5.719 -0.5654  0.2717  0.2253
 4229SOL    HW114287   2.753   2.223   5.668 -1.9683  0.5039 -1.6005
 4229SOL    HW214288   2.685   2.077   5.693 -1.8355  0.5371 -1.0433
 4230SOL     OW14289   1.940   6.651   0.429  0.1336  0.4000 -0.4137
 4230SOL    HW114290   1.863   6.608   0.383 -0.4906  1.1531 -0.0940
 4230SOL    HW214291   1.949   6.745   0.397  0.8230  0.3683 -0.3269
 4231SOL     OW14292   2.314   6.103   6.601  0.3830  0.5796 -0.3478
 4231SOL    HW114293   2.229   6.063   6.564  1.0846  0.6831 -2.2050
 4231SOL    HW214294   2.297   6.138   6.693 -2.1769  2.5115 -1.4210
 4232SOL     OW14295   0.352   2.789   6.751  0.2207  0.1191  0.3523
 4232SOL    HW114296   0.444   2.802   6.713  0.7478  0.1321  1.5921
 4232SOL    HW214297   0.284   2.810   6.681  1.1613 -0.8109 -0.8861
 4233SOL     OW14298   5.168   3.294   2.832 -0.2193  0.2500  0.6481
 4233SOL    HW114299   5.093   3.260   2.775 -0.1029  1.0109  0.0286
 4233SOL    HW214300   5.185   3.229   2.907 -1.4749  0.0608  0.7889
 4234SOL     OW14301   5.319   6.067   2.504 -1.0697 -0.1517  0.2743
 4234SOL    HW114302   5.351   6.141   2.563  0.2351 -0.5463  0.0976
 4234SOL    HW214303   5.350   6.084   2.410 -0.0008 -1.3293  0.3844
 4235SOL     OW14304   2.517   2.194   2.962  0.2461  0.3964  0.0054
 4235SOL    HW114305   2.593   2.131   2.950 -0.1312  0.1975 -1.6056
 4235SOL    HW214306   2.494   2.201   3.059  1.5758 -0.3985  0.4005
 4236SOL     OW14307   2.125   1.589   5.835  0.2478 -0.3597 -0.1912
 4236SOL    HW114308   2.062   1.527   5.883  1.0673 -1.7946 -0.8949
 4236SOL    HW214309   2.082   1.619   5.750  0.5993 -1.5984 -0.8328
 4237SOL     OW14310   1.431   0.848   0.654  0.0501  0.2181  0.2006
 4237SOL    HW114311   1.459   0.817   0.563 -0.4105 -1.2549  0.5316
 4237SOL    HW214312   1.475   0.935   0.675 -0.6421  1.1282 -1.8503
 4238SOL     OW14313   1.123   0.145   1.254 -0.7689 -0.4078 -0.3338
 4238SOL    HW114314   1.076   0.230   1.230  0.3594 -0.0982 -1.5527
 4238SOL    HW214315   1.130   0.087   1.173 -0.3341 -1.0826  0.1786
 4239SOL     OW14316   6.797   0.758   1.159 -0.0095  0.0430 -0.7642
 4239SOL    HW114317   6.853   0.698   1.103 -0.5643 -0.5511 -0.6894
 4239SOL    HW214318   6.852   0.836   1.191  0.7363 -0.4785 -0.7686
 4240SOL     OW14319   6.259   6.480   2.606 -0.4879 -0.0431  0.1870
 4240SOL    HW114320   6.198   6.528   2.669  0.9367  1.0799  0.7669
 4240SOL    HW214321   6.333   6.437   2.658  0.0255 -0.1431 -0.6144
 4241SOL     OW14322   4.923   5.032   6.438 -0.2234 -0.6615 -0.1477
 4241SOL    HW114323   4.922   5.132   6.436  0.7776 -0.6374 -0.0279
 4241SOL    HW214324   4.923   4.997   6.344  0.6311 -0.5121 -0.2149
 4242SOL     OW14325   1.018   1.723   5.985  0.0475 -0.1241 -0.3837
 4242SOL    HW114326   1.099   1.771   6.020  0.3021 -0.5884 -0.3260
 4242SOL    HW214327   0.953   1.708   6.060  0.1516 -0.2336 -0.3144
 4243SOL     OW14328   6.457   0.533   6.840  0.1906 -0.0404  0.0977
 4243SOL    HW114329   6.449   0.505   6.745 -0.2934 -1.8252  0.6259
 4243SOL    HW214330   6.485   0.629   6.844  3.3215 -0.7274 -1.8551
 4244SOL     OW14331   1.633   1.075   4.836 -0.3488 -0.0560 -0.3194
 4244SOL    HW114332   1.704   1.130   4.879  0.2441 -0.2444 -1.0285
 4244SOL    HW214333   1.543   1.118   4.849 -0.1366  0.0610  0.7780
 4245SOL     OW14334   5.339   2.194   0.822 -0.6300 -0.1053  0.1910
 4245SOL    HW114335   5.272   2.144   0.877  0.5173  0.1137  1.8431
 4245SOL    HW214336   5.407   2.131   0.786 -0.8483 -0.1162 -0.2142
 4246SOL     OW14337   6.756   4.233   6.787 -0.2145 -0.8855 -0.0532
 4246SOL    HW114338   6.848   4.226   6.826 -0.1853  1.2181  0.3602
 4246SOL    HW214339   6.690   4.250   6.860 -0.8747 -1.7819 -0.4209
 4247SOL     OW14340   0.119   0.191   0.595  0.1313 -0.0965 -0.2444
 4247SOL    HW114341   0.062   0.129   0.650 -0.7643  0.4511 -0.5233
 4247SOL    HW214342   0.069   0.215   0.512 -0.4705  2.6529  0.8073
 4248SOL     OW14343   2.254   5.032   2.762 -0.0566  0.3785 -0.3541
 4248SOL    HW114344   2.337   5.032   2.706 -0.6526 -2.1070 -1.4099
 4248SOL    HW214345   2.279   5.028   2.859  1.1017 -0.4442 -0.6588
 4249SOL     OW14346   4.035   0.684   2.150 -0.1362 -0.0432  0.7493
 4249SOL    HW114347   4.073   0.591   2.148  1.3596  0.5456  0.5887
 4249SOL    HW214348   4.007   0.707   2.243 -0.8166 -0.7626  0.7296
 4250SOL     OW14349   3.690   2.103   0.192 -0.4892  0.7839 -0.5852
 4250SOL    HW114350   3.684   2.011   0.231  2.1379  0.4248 -0.8772
 4250SOL    HW214351   3.666   2.170   0.262  2.2469  0.0588  1.2081
 4251SOL     OW14352   6.455   0.765   3.755  0.1922  0.5231 -0.2972
 4251SOL    HW114353   6.425   0.855   3.787 -2.7160 -0.2153 -0.7281
 4251SOL    HW214354   6.384   0.724   3.698  1.5029 -2.0246 -0.2393
 4252SOL     OW14355   2.799   5.677   2.798 -0.2261  0.4266 -0.6165
 4252SOL    HW114356   2.808   5.592   2.850  0.6804  1.3424  0.8166
 4252SOL    HW214357   2.835   5.664   2.706  1.8568 -0.2246  0.2276
 4253SOL     OW14358   4.645   4.006   6.881 -0.0476 -0.6024 -0.3735
 4253SOL    HW114359   4.570   4.053   6.834  0.4210 -0.4259 -0.9604
 4253SOL    HW214360   4.731   4.027   6.834  0.3479 -0.9179  0.2089
 4254SOL     OW14361   2.520   0.054   1.887  0.2153 -0.0127  1.0975
 4254SOL    HW114362   2.474   0.140   1.867 -0.2062  0.1078  2.4419
 4254SOL    HW214363   2.618   0.071   1.898 -0.0288  0.5956  2.7217
 4255SOL     OW14364   3.184   5.202   2.196  0.0162  0.1187  0.0563
 4255SOL    HW114365   3.259   5.137   2.211 -0.6361 -0.1236  2.5953
 4255SOL    HW214366   3.148   5.233   2.284 -1.5797  1.7738 -1.1081
 4256SOL     OW14367   4.682   4.232   1.148 -0.2975  0.0840  0.2686
 4256SOL    HW114368   4.747   4.292   1.196 -0.2552  0.3480 -0.1107
 4256SOL    HW214369   4.643   4.167   1.212  0.9994 -0.6518  0.3396
 4257SOL     OW14370   0.011   6.731   6.952 -0.0854 -0.1948 -0.2184
 4257SOL    HW114371  -0.051   6.709   7.027 -0.7713  0.6759 -0.5175
 4257SOL    HW214372   0.071   6.806   6.980 -0.0779 -0.1325 -0.4039
 4258SOL     OW14373   2.035   6.920   4.071 -0.5038 -0.1549  0.7536
 4258SOL    HW114374   1.945   6.910   4.028 -0.3932  1.1557  0.1614
 4258SOL    HW214375   2.055   6.839   4.127 -2.5338 -0.0065  1.7953
 4259SOL     OW14376   3.422   2.827   0.739 -0.3682  0.2969 -0.1552
 4259SOL    HW114377   3.470   2.856   0.657  0.5517 -0.3275  0.1385
 4259SOL    HW214378   3.324   2.834   0.725 -0.2307  2.9314 -0.3008
 4260SOL     OW14379   1.477   2.970   1.782 -0.3753 -0.0875 -0.1272
 4260SOL    HW114380   1.447   3.050   1.730 -0.1427 -1.4470 -2.4519
 4260SOL    HW214381   1.570   2.946   1.757  0.9181  0.9098  3.1407
 4261SOL     OW14382   2.434   6.094   5.685 -0.2752  0.1224  0.6892
 4261SOL    HW114383   2.486   6.013   5.712 -0.3322 -0.6473 -1.3890
 4261SOL    HW214384   2.486   6.176   5.709  0.2012 -0.5221  1.9699
 4262SOL     OW14385   5.561   3.092   4.992  0.0939  0.0329 -0.4292
 4262SOL    HW114386   5.522   3.015   5.042 -2.3869  0.9398 -0.8362
 4262SOL    HW214387   5.602   3.157   5.058 -0.9722  0.0504  0.2378
 4263SOL     OW14388   3.117   6.026   1.408 -0.5554  0.0113 -0.4317
 4263SOL    HW114389   3.214   6.010   1.424 -0.5966  1.9091  2.3236
 4263SOL    HW214390   3.065   6.001   1.490 -2.2781  0.0820 -1.4481
 4264SOL     OW14391   3.195   0.159   0.109  0.2741 -0.6315 -0.4599
 4264SOL    HW114392   3.111   0.194   0.068  0.2926 -0.2485 -0.1786
 4264SOL    HW214393   3.181   0.064   0.136  0.3218 -0.9398 -1.4976
 4265SOL     OW14394   4.730   6.455   2.395 -0.4605  0.2067 -0.1191
 4265SOL    HW114395   4.725   6.422   2.300  0.5820  1.0304 -0.4868
 4265SOL    HW214396   4.677   6.395   2.454 -1.4376 -0.1110 -1.2811
 4266SOL     OW14397   2.845   1.402   5.694  0.2715 -0.3968 -0.3409
 4266SOL    HW114398   2.847   1.302   5.686  0.5958 -0.4184 -0.0255
 4266SOL    HW214399   2.804   1.441   5.612  1.0750 -0.7415 -0.9259
 4267SOL     OW14400   4.833   4.704   6.384  0.0182  0.0061  0.2196
 4267SOL    HW114401   4.920   4.749   6.361  0.6500 -0.7659  1.0154
 4267SOL    HW214402   4.785   4.758   6.452 -0.1081  0.4083 -0.1810
 4268SOL     OW14403   2.153   2.761   6.942 -0.4403  0.7360  0.1960
 4268SOL    HW114404   2.158   2.814   7.027  0.7201  0.8532  0.0605
 4268SOL    HW214405   2.243   2.755   6.901 -0.9001  0.2241 -0.7656
 4269SOL     OW14406   5.651   5.942   3.373  0.2193  0.1792  0.0552
 4269SOL    HW114407   5.745   5.946   3.338  0.5262  0.4306  0.8908
 4269SOL    HW214408   5.648   5.981   3.465 -0.6807  0.0303  0.0964
 4270SOL     OW14409   5.557   4.751   0.041  0.0206 -0.3860 -0.9740
 4270SOL    HW114410   5.523   4.671  -0.008  0.7957 -0.7213 -0.9845
 4270SOL    HW214411   5.494   4.827   0.029 -2.8210 -1.9745  2.2112
 4271SOL     OW14412   0.570   5.413   6.155 -0.4349  0.0422 -0.5892
 4271SOL    HW114413   0.482   5.456   6.174 -0.0645  1.0643 -1.1041
 4271SOL    HW214414   0.610   5.455   6.074  0.6062 -0.3018 -0.2627
 4272SOL     OW14415   5.607   1.520   0.426  0.2146  0.4879 -0.2655
 4272SOL    HW114416   5.514   1.487   0.411  0.3912  0.1754 -0.7038
 4272SOL    HW214417   5.652   1.465   0.496 -0.1775  1.1177  0.4955
 4273SOL     OW14418   2.803   1.830   0.502  0.3549 -0.6227  0.0664
 4273SOL    HW114419   2.785   1.922   0.467  1.2806 -0.2642  0.5045
 4273SOL    HW214420   2.729   1.769   0.473 -0.7368  0.4409  0.5131
 4274SOL     OW14421   2.555   1.069   5.338  0.5329 -0.0663 -0.2209
 4274SOL    HW114422   2.516   1.112   5.419  0.5612  2.4759 -1.4756
 4274SOL    HW214423   2.503   0.986   5.317 -0.7253  0.2944  1.2594
 4275SOL     OW14424   2.019   1.905   0.369  0.3264  0.0295 -0.2764
 4275SOL    HW114425   2.093   1.953   0.417  1.3971 -1.4053 -0.4288
 4275SOL    HW214426   2.056   1.858   0.289 -0.6004 -1.3450  0.0779
 4276SOL     OW14427   2.166   1.035   2.622 -0.2187  0.3360  0.5016
 4276SOL    HW114428   2.163   1.086   2.535 -0.8422  1.0981  0.9522
 4276SOL    HW214429   2.123   0.946   2.609 -0.1481  0.3714 -0.0224
 4277SOL     OW14430   2.610   1.716   2.389 -0.2853  0.7500 -0.3829
 4277SOL    HW114431   2.641   1.811   2.399  1.4321  0.1727  0.1081
 4277SOL    HW214432   2.659   1.673   2.314 -0.1660 -0.1058  0.1771
 4278SOL     OW14433   5.289   3.771   3.177 -0.0635  0.5742  0.3095
 4278SOL    HW114434   5.217   3.817   3.124 -1.1451 -0.6832  0.6539
 4278SOL    HW214435   5.376   3.818   3.162 -0.9984  2.3244  0.1291
 4279SOL     OW14436   5.435   7.014   1.787 -0.1389  0.3355  0.3542
 4279SOL    HW114437   5.442   7.026   1.886  0.6972  2.2232  0.1074
 4279SOL    HW214438   5.525   7.026   1.745 -0.3952 -0.9157 -0.6174
 4280SOL     OW14439   0.174   2.797   4.966 -0.2896  0.5929  0.9912
 4280SOL    HW114440   0.141   2.826   5.055 -0.3482 -0.5795  1.3661
 4280SOL    HW214441   0.217   2.707   4.974  1.6520  1.3962  0.2444
 4281SOL     OW14442   2.397   3.833   2.099 -0.1081 -0.0856  0.1094
 4281SOL    HW114443   2.427   3.748   2.142 -0.5114 -1.3387 -1.9459
 4281SOL    HW214444   2.298   3.843   2.108 -0.1136 -0.0409  0.0064
 4282SOL     OW14445   0.145   5.580   3.831 -0.2273  0.0656 -0.7738
 4282SOL    HW114446   0.116   5.532   3.914 -1.7082 -1.3441 -2.0366
 4282SOL    HW214447   0.188   5.516   3.768  0.4669  1.0174 -1.3008
 4283SOL     OW14448   4.375   5.209   0.759  0.2583 -0.1438  0.5056
 4283SOL    HW114449   4.403   5.295   0.802  2.0472  0.0119 -0.8514
 4283SOL    HW214450   4.455   5.157   0.732 -0.7255 -0.5275 -1.9723
 4284SOL     OW14451   2.436   5.896   1.592  0.0382  0.0127  0.5280
 4284SOL    HW114452   2.452   5.933   1.501  1.1236 -1.0166  0.2780
 4284SOL    HW214453   2.344   5.920   1.622 -0.5969 -0.2281 -1.1370
 4285SOL     OW14454   3.186   0.193   0.578 -0.0554  0.7298  0.4736
 4285SOL    HW114455   3.201   0.101   0.542  0.1196  0.1027  2.0703
 4285SOL    HW214456   3.261   0.253   0.549  0.4849  0.0532  0.4531
 4286SOL     OW14457   0.016   5.183   5.062 -0.2487 -0.4068  0.4812
 4286SOL    HW114458   0.050   5.104   5.113  2.8565  1.5947  1.8180
 4286SOL    HW214459  -0.025   5.249   5.125 -1.2997 -0.1940 -0.3895
 4287SOL     OW14460   0.744   5.276   4.241  0.6282 -0.0551  0.1745
 4287SOL    HW114461   0.725   5.342   4.169  1.3372  0.4486  0.4367
 4287SOL    HW214462   0.740   5.183   4.204 -2.4849 -0.0494  0.2248
 4288SOL     OW14463   1.113   5.213   2.778  0.3406 -0.0765  0.1940
 4288SOL    HW114464   1.047   5.258   2.837 -0.4487 -1.7835  0.6563
 4288SOL    HW214465   1.072   5.196   2.688  0.7955  0.5198 -0.1365
 4289SOL     OW14466   2.020   1.977   4.683  0.2026 -0.2132 -0.2759
 4289SOL    HW114467   1.980   2.067   4.668  2.1985  0.7541 -0.1647
 4289SOL    HW214468   2.051   1.939   4.596  0.6206 -0.1645 -0.1482
 4290SOL     OW14469   6.236   3.197   2.850  0.8509 -0.1652  0.2646
 4290SOL    HW114470   6.290   3.114   2.841  0.6790 -0.3403  0.8581
 4290SOL    HW214471   6.184   3.212   2.765  0.6744 -0.8049  0.2578
 4291SOL     OW14472   0.299   3.531   5.872  0.0044 -0.4195 -0.5334
 4291SOL    HW114473   0.391   3.570   5.863 -0.0865 -0.2950 -0.9541
 4291SOL    HW214474   0.285   3.463   5.800 -0.1368 -0.6306 -0.3063
 4292SOL     OW14475   2.055   1.936   3.380 -0.6354 -0.0973  0.7215
 4292SOL    HW114476   2.078   2.006   3.312  0.9271 -1.2332  0.0143
 4292SOL    HW214477   1.957   1.917   3.377 -0.5862 -0.2538 -1.3812
 4293SOL     OW14478   0.157   6.819   6.636  0.6256  0.5032 -0.3284
 4293SOL    HW114479   0.211   6.886   6.585 -0.9370  0.7802 -1.7028
 4293SOL    HW214480   0.072   6.862   6.667  1.0383  0.0323  1.6350
 4294SOL     OW14481   0.565   6.124   6.169 -0.2011  0.0884 -0.0253
 4294SOL    HW114482   0.477   6.091   6.203 -1.6750  2.3578 -1.3627
 4294SOL    HW214483   0.592   6.205   6.221  1.9572 -1.4095  1.3807
 4295SOL     OW14484   5.313   2.608   0.880 -0.1776 -0.4328 -0.3256
 4295SOL    HW114485   5.403   2.650   0.883 -0.5894  0.6713 -2.0766
 4295SOL    HW214486   5.255   2.656   0.814 -1.6389 -1.9245 -0.2157
 4296SOL     OW14487   4.162   6.981   1.454 -0.7573  0.5010  0.3268
 4296SOL    HW114488   4.136   6.893   1.494  1.3472 -1.2988 -1.9626
 4296SOL    HW214489   4.091   7.010   1.389  0.1928 -1.5811 -1.7959
 4297SOL     OW14490   1.729   0.284   4.463  0.9536 -0.6994  0.2443
 4297SOL    HW114491   1.741   0.305   4.560  1.7011  0.4840 -0.0864
 4297SOL    HW214492   1.685   0.361   4.417  0.9237 -1.1118 -0.4278
 4298SOL     OW14493   0.358   1.513   5.615 -0.4264  0.7963  0.5915
 4298SOL    HW114494   0.440   1.456   5.613 -1.8990 -1.4887  1.1352
 4298SOL    HW214495   0.375   1.595   5.669  1.7164  0.8185 -0.0278
 4299SOL     OW14496   6.738   1.346   4.944  0.0196  0.2071  0.2507
 4299SOL    HW114497   6.824   1.341   4.893 -0.3274  0.6312 -0.3912
 4299SOL    HW214498   6.727   1.262   4.998  0.2942 -0.3551 -0.5369
 4300SOL     OW14499   3.514   2.723   6.864  0.4357 -0.1103 -0.1800
 4300SOL    HW114500   3.605   2.726   6.906  0.8720 -2.5106 -0.7874
 4300SOL    HW214501   3.522   2.748   6.767  0.2987  0.4891 -0.0385
 4301SOL     OW14502   6.467   1.645   1.137 -0.5578  0.3098 -0.5765
 4301SOL    HW114503   6.406   1.701   1.194 -0.2118 -0.1678  0.2890
 4301SOL    HW214504   6.549   1.699   1.114 -0.3744  0.2757 -0.0204
 4302SOL     OW14505   5.946   5.648   4.015 -0.0150 -0.1036  0.2107
 4302SOL    HW114506   6.003   5.591   4.075 -1.9257 -1.7698  0.5437
 4302SOL    HW214507   5.883   5.589   3.963  0.7990  1.3730 -2.6578
 4303SOL     OW14508   2.072   0.686   3.845 -0.7693 -0.4290 -0.7367
 4303SOL    HW114509   2.118   0.606   3.883 -1.1406 -0.9203 -1.3173
 4303SOL    HW214510   2.092   0.766   3.903  0.4222 -0.7241 -0.7229
 4304SOL     OW14511   5.535   0.465   4.545  0.2783  0.0915 -0.0180
 4304SOL    HW114512   5.511   0.553   4.587 -1.9109 -1.0019  1.1958
 4304SOL    HW214513   5.505   0.465   4.450  0.1520  0.5782  0.0160
 4305SOL     OW14514   6.612   5.707   5.690 -0.3874  0.1033  0.5725
 4305SOL    HW114515   6.669   5.767   5.745 -0.2310 -0.2754  0.8243
 4305SOL    HW214516   6.665   5.673   5.612 -0.0463 -0.7977  1.1838
 4306SOL     OW14517   6.544   4.211   6.100 -0.6486  0.1652  0.3037
 4306SOL    HW114518   6.571   4.116   6.081  2.1874  1.3778 -2.8178
 4306SOL    HW214519   6.606   4.250   6.168  0.0056  0.5072 -0.4685
 4307SOL     OW14520   1.683   0.904   2.437 -0.0848 -0.1479 -0.0689
 4307SOL    HW114521   1.688   1.004   2.442 -1.0426 -0.1803  2.6142
 4307SOL    HW214522   1.590   0.874   2.454  0.3417 -1.5587 -0.0990
 4308SOL     OW14523   4.802   2.084   5.961  0.0450  0.5045  0.1005
 4308SOL    HW114524   4.736   2.016   5.929  1.2115  0.1117 -1.5960
 4308SOL    HW214525   4.778   2.173   5.924  1.4247  0.0415 -2.1099
 4309SOL     OW14526   1.791   6.081   0.086  0.3882  0.2956 -0.2100
 4309SOL    HW114527   1.752   5.989   0.074  0.5778  0.3518 -1.3019
 4309SOL    HW214528   1.722   6.141   0.124  0.3616 -0.3759  0.8547
 4310SOL     OW14529   0.760   6.892   5.580 -0.3452 -0.7897 -0.6180
 4310SOL    HW114530   0.714   6.835   5.511 -1.1987 -1.0678  0.1555
 4310SOL    HW214531   0.750   6.988   5.556 -0.8522 -0.8742 -0.7513
 4311SOL     OW14532   4.761   6.717   2.437  0.3617  0.3137 -0.0853
 4311SOL    HW114533   4.717   6.775   2.368  0.0331 -0.0520 -0.1877
 4311SOL    HW214534   4.749   6.621   2.413  0.0780  0.1759  0.5853
 4312SOL     OW14535   6.631   2.648   0.707  0.8064 -0.0265 -0.0548
 4312SOL    HW114536   6.700   2.669   0.638  1.6996 -2.0257  0.1724
 4312SOL    HW214537   6.616   2.550   0.710 -1.5503  0.2867  0.4281
 4313SOL     OW14538   5.267   2.136   2.051  0.3567  0.0909  0.5026
 4313SOL    HW114539   5.267   2.126   2.150  0.7775  1.3706  0.6463
 4313SOL    HW214540   5.228   2.053   2.009  0.4341 -0.5745  1.7057
 4314SOL     OW14541   4.080   0.708   5.063 -0.2894 -0.1721 -0.0168
 4314SOL    HW114542   4.108   0.691   4.969 -1.7497 -0.7961 -0.3724
 4314SOL    HW214543   4.129   0.787   5.099 -0.2448  0.5281 -1.5434
 4315SOL     OW14544   0.837   2.134   1.022 -0.3097  0.6682  0.4956
 4315SOL    HW114545   0.811   2.184   1.105  0.1879  0.8914  0.5274
 4315SOL    HW214546   0.933   2.107   1.029  0.0907  1.7472 -0.5187
 4316SOL     OW14547   3.382   6.998   3.645 -0.3179  0.2226  0.4646
 4316SOL    HW114548   3.327   7.078   3.668 -0.4579 -0.6315  3.4810
 4316SOL    HW214549   3.418   6.957   3.728  3.4059 -0.3792 -1.2332
 4317SOL     OW14550   6.701   2.460   1.159  0.6175 -0.0637  0.0475
 4317SOL    HW114551   6.724   2.385   1.097  1.5970  0.3082 -0.0520
 4317SOL    HW214552   6.605   2.486   1.145  0.1097 -1.6130  0.4324
 4318SOL     OW14553   4.389   3.996   6.255  0.2712 -0.1475  0.4945
 4318SOL    HW114554   4.295   4.016   6.227  0.3108  1.5202  1.3976
 4318SOL    HW214555   4.452   4.056   6.204  0.4724  1.7166  2.7395
 4319SOL     OW14556   2.810   1.389   1.923 -0.0598 -0.2132 -0.0077
 4319SOL    HW114557   2.774   1.345   1.841 -0.1027 -0.5456  0.1846
 4319SOL    HW214558   2.859   1.321   1.978  0.4574  0.1283 -0.0349
 4320SOL     OW14559   1.012   3.690   1.048 -0.3455  0.3150 -0.3209
 4320SOL    HW114560   1.094   3.694   0.991  0.5190 -0.4819  0.8256
 4320SOL    HW214561   0.933   3.671   0.990  0.4764 -0.2994 -1.2750
 4321SOL     OW14562   4.026   2.688   1.950  0.2501  0.0804 -0.4251
 4321SOL    HW114563   4.023   2.788   1.948  1.8080  0.1370 -0.7483
 4321SOL    HW214564   4.119   2.658   1.970 -0.2650 -1.3120 -0.0518
 4322SOL     OW14565   5.854   6.376   5.913  0.0923 -0.3632  0.9326
 4322SOL    HW114566   5.806   6.366   6.000 -0.9059 -0.8240  0.3396
 4322SOL    HW214567   5.947   6.340   5.922 -0.1047 -0.6848  1.7167
 4323SOL     OW14568   4.512   4.150   4.794  0.1820 -0.1046 -0.1735
 4323SOL    HW114569   4.552   4.225   4.740 -2.1682  1.8290  0.5480
 4323SOL    HW214570   4.582   4.108   4.851  1.1896  3.4406  1.4744
 4324SOL     OW14571   4.704   6.178   2.794  0.4790  0.1900  0.0694
 4324SOL    HW114572   4.791   6.142   2.828  0.7654  1.6689  1.0197
 4324SOL    HW214573   4.630   6.151   2.856  0.5717  0.5334  0.3354
 4325SOL     OW14574   5.893   3.938   1.115 -0.1244 -1.0612 -0.2962
 4325SOL    HW114575   5.928   3.956   1.207 -3.3510 -2.2248  1.3245
 4325SOL    HW214576   5.842   4.018   1.082  0.2739 -0.9704 -0.6995
 4326SOL     OW14577   3.038   6.310   1.331  0.4226 -0.2020 -0.3340
 4326SOL    HW114578   3.093   6.286   1.251 -0.6643 -1.2338 -0.7915
 4326SOL    HW214579   3.068   6.255   1.409  0.1416 -0.6396 -0.5375
 4327SOL     OW14580   1.426   6.054   6.426 -0.0455  0.1586  0.2743
 4327SOL    HW114581   1.413   6.026   6.330 -0.5405  0.6192  0.1996
 4327SOL    HW214582   1.378   5.990   6.486  2.2694 -1.5784  0.4122
 4328SOL     OW14583   2.861   3.765   0.576  0.0881  0.0119 -0.0715
 4328SOL    HW114584   2.792   3.817   0.524  1.6998  1.6362 -0.7101
 4328SOL    HW214585   2.915   3.710   0.512 -0.2981 -0.8792  0.3656
 4329SOL     OW14586   4.328   6.345   6.381 -0.4406 -0.3273 -0.2037
 4329SOL    HW114587   4.292   6.339   6.475  0.9335 -0.5935  0.3266
 4329SOL    HW214588   4.428   6.343   6.384 -0.3757  0.0623 -1.6616
 4330SOL     OW14589   6.807   0.346   2.542  0.0825 -0.0368  0.1535
 4330SOL    HW114590   6.728   0.407   2.554  0.5179  0.2304  1.8985
 4330SOL    HW214591   6.822   0.331   2.445 -4.0941 -2.7066 -0.3150
 4331SOL     OW14592   6.742   2.018   5.415 -0.6639 -0.2594 -0.1075
 4331SOL    HW114593   6.669   2.083   5.392 -0.1455  1.3166  2.3690
 4331SOL    HW214594   6.703   1.942   5.467 -0.7591 -0.2175 -0.1174
 4332SOL     OW14595   3.949   0.369   2.739  0.1647  0.2401 -0.6603
 4332SOL    HW114596   3.927   0.282   2.784  3.9128  0.4328  2.0493
 4332SOL    HW214597   3.949   0.442   2.808  0.2542  1.7902 -2.2453
 4333SOL     OW14598   6.585   6.565   1.168 -0.0519 -0.0384 -0.1497
 4333SOL    HW114599   6.521   6.641   1.180 -0.0170 -0.1481  0.8108
 4333SOL    HW214600   6.678   6.599   1.177  0.0518  0.1269 -1.5801
 4334SOL     OW14601   1.194   2.203   5.000  0.6317  0.1090 -0.5351
 4334SOL    HW114602   1.206   2.280   4.937  0.0606  2.2572  1.7998
 4334SOL    HW214603   1.101   2.205   5.038  1.2690 -0.4060  1.1599
 4335SOL     OW14604   0.848   5.374   0.352  0.2472  0.0388 -0.7963
 4335SOL    HW114605   0.824   5.414   0.263  0.0032 -0.2224 -0.8503
 4335SOL    HW214606   0.819   5.435   0.425  1.0672  0.5807 -0.9106
 4336SOL     OW14607   0.050   5.818   6.907  0.0033  0.6742  0.0515
 4336SOL    HW114608  -0.002   5.894   6.947 -1.0902  0.3716 -0.7396
 4336SOL    HW214609   0.114   5.854   6.838  0.1621  0.9589  0.3454
 4337SOL     OW14610   5.089   4.715   6.226  0.6016  0.4513 -0.0034
 4337SOL    HW114611   5.184   4.684   6.222 -0.2522 -2.2741 -1.5313
 4337SOL    HW214612   5.062   4.752   6.137  0.0318  0.6023  0.2252
 4338SOL     OW14613   3.212   2.329   2.267 -0.3868 -0.5377 -0.2836
 4338SOL    HW114614   3.167   2.387   2.199  1.1387  1.6262  0.4654
 4338SOL    HW214615   3.306   2.311   2.239  0.0328 -0.2210  0.8843
 4339SOL     OW14616   2.961   2.208   0.669 -0.3293 -0.2535  0.5766
 4339SOL    HW114617   3.055   2.175   0.674 -0.4621 -0.8213 -0.4049
 4339SOL    HW214618   2.958   2.305   0.691  1.0026  0.6126 -2.6307
 4340SOL     OW14619   3.503   4.083   3.667  0.1009 -0.0935 -0.2529
 4340SOL    HW114620   3.601   4.100   3.674 -0.0243  1.6602 -1.8922
 4340SOL    HW214621   3.464   4.072   3.759  1.7165 -0.2811  0.4425
 4341SOL     OW14622   3.653   5.483   2.295 -0.3384 -0.0175 -0.1470
 4341SOL    HW114623   3.615   5.535   2.371  1.0340  1.1145 -0.1962
 4341SOL    HW214624   3.728   5.535   2.253 -0.0711 -1.2873 -1.3063
 4342SOL     OW14625   5.779   0.592   3.885 -0.3041 -0.5992  0.1324
 4342SOL    HW114626   5.779   0.546   3.796 -2.0916  0.6368 -0.5863
 4342SOL    HW214627   5.816   0.684   3.874  0.2590 -0.7312  0.8706
 4343SOL     OW14628   6.845   5.203   6.296 -0.0459  0.2655  0.4063
 4343SOL    HW114629   6.826   5.286   6.347  0.2362  0.4152  0.2713
 4343SOL    HW214630   6.897   5.226   6.213 -1.5407  0.1776 -0.5983
 4344SOL     OW14631   0.471   1.555   5.931 -0.9605  0.1647  0.5373
 4344SOL    HW114632   0.451   1.539   6.028 -3.3731  1.8462  0.4132
 4344SOL    HW214633   0.423   1.487   5.875 -1.1843  0.3861  0.4583
 4345SOL     OW14634   5.517   2.440   4.528 -0.1601  0.4369 -0.6167
 4345SOL    HW114635   5.436   2.493   4.505 -0.8766  1.0260  2.6857
 4345SOL    HW214636   5.491   2.360   4.582  1.3635 -0.1113 -0.6275
 4346SOL     OW14637   6.042   6.324   4.529 -0.1258  0.0712  0.0174
 4346SOL    HW114638   6.112   6.353   4.464 -1.6675 -0.0450 -1.7715
 4346SOL    HW214639   6.077   6.249   4.585  1.3033  0.3209 -0.5081
 4347SOL     OW14640   1.950   6.361   3.436 -0.0729 -0.0529  0.5378
 4347SOL    HW114641   1.882   6.434   3.434 -0.3993 -0.3613  0.0275
 4347SOL    HW214642   1.939   6.304   3.354  2.6829  1.5875 -1.1307
 4348SOL     OW14643   1.970   4.582   6.103 -0.2013 -0.3426  0.3055
 4348SOL    HW114644   1.923   4.568   6.016 -1.9933  0.4969  1.0964
 4348SOL    HW214645   2.023   4.666   6.099  0.6652 -0.9017 -0.3372
 4349SOL     OW14646   1.394   3.079   2.655  0.1787  0.3551 -0.1644
 4349SOL    HW114647   1.466   3.011   2.648  1.0436  1.1811  0.5279
 4349SOL    HW214648   1.358   3.099   2.563  1.8581  1.0158 -0.7085
 4350SOL     OW14649   2.004   5.465   2.346  0.1227 -0.7312 -0.3607
 4350SOL    HW114650   2.023   5.402   2.272 -2.3088 -0.4394 -1.3214
 4350SOL    HW214651   1.991   5.414   2.431  1.5506 -1.1754 -0.3778
 4351SOL     OW14652   1.482   1.424   3.932  0.2662 -0.1706 -0.2786
 4351SOL    HW114653   1.544   1.388   3.862  3.2526 -0.0139  2.0834
 4351SOL    HW214654   1.462   1.353   3.999 -1.7673 -0.0466 -0.6816
 4352SOL     OW14655   5.964   4.160   0.706  0.1967 -0.8293 -0.0987
 4352SOL    HW114656   5.971   4.103   0.624  0.6914 -0.3576 -0.3888
 4352SOL    HW214657   5.981   4.255   0.683  2.0766 -0.8920  0.8287
 4353SOL     OW14658   6.395   5.106   4.842 -0.3364  0.1684  0.3950
 4353SOL    HW114659   6.391   5.006   4.840 -0.4890  0.1688  0.6349
 4353SOL    HW214660   6.483   5.137   4.807  0.1225 -0.0883  1.2940
 4354SOL     OW14661   5.246   0.259   2.856  0.8363 -0.3438 -0.2055
 4354SOL    HW114662   5.211   0.291   2.944  0.8025  1.0181 -0.6817
 4354SOL    HW214663   5.259   0.160   2.859  1.0038 -0.3055  1.3841
 4355SOL     OW14664   2.760   0.471   0.903 -0.4700  0.2873 -0.4136
 4355SOL    HW114665   2.814   0.408   0.847 -0.5103 -0.1177  0.0035
 4355SOL    HW214666   2.669   0.431   0.920 -0.1486 -0.0004  0.6987
 4356SOL     OW14667   1.140   5.078   6.283  0.2672 -0.2363 -0.4813
 4356SOL    HW114668   1.159   5.176   6.288  2.6304 -0.6889  0.7085
 4356SOL    HW214669   1.087   5.051   6.364 -0.4049  0.0422 -0.8203
 4357SOL     OW14670   4.094   4.776   5.503 -0.1307  0.2258 -0.1623
 4357SOL    HW114671   4.049   4.811   5.421 -2.0629 -0.0508  0.7138
 4357SOL    HW214672   4.188   4.811   5.508 -0.3297  1.0960 -1.9135
 4358SOL     OW14673   4.991   6.986   6.380  0.1565  0.2078 -0.0223
 4358SOL    HW114674   4.988   7.082   6.408  1.6832  0.2814 -0.0575
 4358SOL    HW214675   5.003   6.928   6.460  1.7749  0.2359 -0.2183
 4359SOL     OW14676   5.864   4.649   2.203 -0.3153 -0.5276  0.7680
 4359SOL    HW114677   5.912   4.657   2.116 -1.2304  1.5289  0.4017
 4359SOL    HW214678   5.930   4.640   2.277  0.5997  0.5811  0.1214
 4360SOL     OW14679   0.753   5.934   4.684 -0.0805 -0.4117 -0.1141
 4360SOL    HW114680   0.809   5.921   4.602  1.3332  0.1967  0.7177
 4360SOL    HW214681   0.759   6.029   4.715 -0.2280 -0.7303  0.9493
 4361SOL     OW14682   4.477   1.549   5.069  0.1068  0.3469  0.0663
 4361SOL    HW114683   4.393   1.565   5.018 -0.0940  1.6854  0.7508
 4361SOL    HW214684   4.554   1.545   5.005 -0.5691 -2.0774 -0.6729
 4362SOL     OW14685   4.471   3.098   3.982 -0.1316 -0.0766 -0.0666
 4362SOL    HW114686   4.376   3.089   3.955 -0.0165 -0.0014 -0.5046
 4362SOL    HW214687   4.530   3.079   3.904  0.1908  0.8695 -0.0684
 4363SOL     OW14688   4.713   0.685   6.068 -0.3301  0.0602 -0.5087
 4363SOL    HW114689   4.630   0.673   6.123 -0.4132  3.2898  0.2528
 4363SOL    HW214690   4.790   0.641   6.114 -0.3496  2.8101  2.4893
 4364SOL     OW14691   0.433   0.164   3.143 -0.1767  0.0862 -0.6262
 4364SOL    HW114692   0.499   0.194   3.212  0.4156  0.5787 -1.3809
 4364SOL    HW214693   0.482   0.135   3.060 -0.9043  0.5692 -1.2434
 4365SOL     OW14694   1.429   3.295   3.922 -0.1716 -0.3595 -0.0725
 4365SOL    HW114695   1.405   3.267   4.015  1.2275  0.0610  0.4345
 4365SOL    HW214696   1.392   3.386   3.905 -1.9471 -1.1370 -0.5797
 4366SOL     OW14697   1.011   5.513   6.083 -0.1497 -0.2591 -0.0969
 4366SOL    HW114698   1.036   5.584   6.017  0.6747  1.0145  1.5207
 4366SOL    HW214699   1.071   5.434   6.072  1.5340  0.8679  0.6080
 4367SOL     OW14700   2.372   1.270   1.573  0.7739 -0.3039 -0.2501
 4367SOL    HW114701   2.362   1.184   1.523 -0.7262 -0.8699  0.9549
 4367SOL    HW214702   2.322   1.343   1.526  0.5828 -0.5034 -0.3557
 4368SOL     OW14703   6.071   4.126   5.863  0.5111 -0.4430 -0.5535
 4368SOL    HW114704   5.992   4.113   5.923  0.0177 -0.4215 -1.1954
 4368SOL    HW214705   6.146   4.067   5.894 -0.3027 -1.6836 -0.9168
 4369SOL     OW14706   5.852   3.879   1.877 -0.1701 -0.1402  0.6871
 4369SOL    HW114707   5.842   3.865   1.779 -0.6337 -0.1645  0.7378
 4369SOL    HW214708   5.916   3.813   1.914  0.0469 -0.0978  0.3921
 4370SOL     OW14709   1.997   3.364   1.782 -0.1289  0.1337  0.3962
 4370SOL    HW114710   1.975   3.457   1.810 -2.3870 -0.5659  1.1664
 4370SOL    HW214711   1.997   3.303   1.861 -1.3529 -0.9567 -0.3845
 4371SOL     OW14712   2.501   2.587   6.178  0.1761 -0.2070  0.3579
 4371SOL    HW114713   2.427   2.555   6.236 -0.4766  0.0713 -0.3096
 4371SOL    HW214714   2.503   2.687   6.178 -1.1607 -0.1283 -1.6996
 4372SOL     OW14715   4.359   0.623   2.608  0.2072 -0.0636  0.1640
 4372SOL    HW114716   4.417   0.552   2.649 -1.4589 -1.2268  0.6362
 4372SOL    HW214717   4.308   0.670   2.680  0.8969  1.2769 -0.1996
 4373SOL     OW14718   0.891   5.231   5.478 -0.1295 -0.2641 -0.3158
 4373SOL    HW114719   0.797   5.262   5.465  0.0693  0.4590 -0.0268
 4373SOL    HW214720   0.892   5.156   5.544 -0.2632  1.2055  1.4170
 4374SOL     OW14721   2.736   0.030   4.692 -0.2743  0.3288 -0.3225
 4374SOL    HW114722   2.810   0.006   4.755 -2.1474 -1.7976  1.2270
 4374SOL    HW214723   2.680   0.103   4.732 -1.2574 -0.7780  0.3800
 4375SOL     OW14724   6.607   1.775   2.521 -0.1936  0.8408 -0.0269
 4375SOL    HW114725   6.592   1.779   2.620 -2.1993  1.5084 -0.3074
 4375SOL    HW214726   6.523   1.745   2.476  1.1694 -1.0476 -1.4560
 4376SOL     OW14727   0.872   1.735   6.556  0.3550 -0.5053  0.5248
 4376SOL    HW114728   0.940   1.663   6.542  1.3833  0.6445 -0.6356
 4376SOL    HW214729   0.918   1.818   6.587 -0.5681  0.2141 -0.0047
 4377SOL     OW14730   5.841   0.236   5.653 -0.6838  0.4531  0.1750
 4377SOL    HW114731   5.899   0.246   5.734 -0.2183 -1.1195  0.0646
 4377SOL    HW214732   5.745   0.248   5.680 -0.3766  3.0046  0.3649
 4378SOL     OW14733   3.839   6.563   5.499  1.0511  0.2673 -0.6241
 4378SOL    HW114734   3.780   6.491   5.537 -0.9260  1.3157 -1.5555
 4378SOL    HW214735   3.863   6.540   5.405  2.0234 -0.0705 -0.3034
 4379SOL     OW14736   1.519   6.145   0.198  0.4296  0.6523 -0.3281
 4379SOL    HW114737   1.521   6.133   0.297 -0.1198 -0.9101 -0.4806
 4379SOL    HW214738   1.470   6.069   0.156  0.2383  1.5326 -1.7761
 4380SOL     OW14739   6.873   5.902   3.014  0.4685 -0.2649  0.3811
 4380SOL    HW114740   6.931   5.832   2.973 -2.1898 -1.4541 -1.6437
 4380SOL    HW214741   6.930   5.976   3.049  3.1615 -1.1542 -1.7889
 4381SOL     OW14742   6.873   6.319   2.839 -0.5036  0.1988  0.1445
 4381SOL    HW114743   6.892   6.386   2.911  0.1140  0.1786  0.0135
 4381SOL    HW214744   6.960   6.279   2.808 -0.9997 -3.4933  2.8482
 4382SOL     OW14745   4.244   0.940   6.978 -0.0777 -0.3403  0.5174
 4382SOL    HW114746   4.257   0.851   6.934  0.1172  0.6645 -1.5724
 4382SOL    HW214747   4.296   1.010   6.929  1.7319  0.6113  3.5122
 4383SOL     OW14748   6.358   5.618   6.919  0.4974 -0.2334  0.1812
 4383SOL    HW114749   6.451   5.635   6.951  0.3506 -1.0550  1.0720
 4383SOL    HW214750   6.354   5.632   6.820  1.9911 -1.9250 -0.1640
 4384SOL     OW14751   4.556   3.849   5.343 -0.1760  0.8537 -0.3471
 4384SOL    HW114752   4.613   3.895   5.275  0.7682  1.3326  0.7392
 4384SOL    HW214753   4.495   3.916   5.386  0.8497  1.0269  0.8831
 4385SOL     OW14754   2.467   1.304   6.992 -0.1844  0.0816 -0.5042
 4385SOL    HW114755   2.549   1.293   6.937 -0.8717 -0.2207 -1.5106
 4385SOL    HW214756   2.490   1.301   7.089  1.0319  0.4259 -0.7721
 4386SOL     OW14757   1.122   2.138   6.455 -0.2555 -0.4651 -0.3864
 4386SOL    HW114758   1.214   2.108   6.478 -0.1271 -0.0208 -0.3102
 4386SOL    HW214759   1.072   2.160   6.540 -0.1999 -0.0460 -0.4572
 4387SOL     OW14760   1.117   6.547   1.707  0.2311  0.4919 -0.2250
 4387SOL    HW114761   1.049   6.614   1.736 -0.2430 -0.1660  0.2225
 4387SOL    HW214762   1.208   6.579   1.732 -0.0029  0.8923  0.1269
 4388SOL     OW14763   3.699   3.169   5.401  0.4757  0.1125 -0.0750
 4388SOL    HW114764   3.744   3.100   5.457  0.4226  0.2429  0.1277
 4388SOL    HW214765   3.607   3.137   5.377  1.4067 -1.1140 -2.2682
 4389SOL     OW14766   1.236   6.990   2.271  0.2546 -0.1302  0.0515
 4389SOL    HW114767   1.180   6.924   2.222 -0.5055  1.8574 -1.9723
 4389SOL    HW214768   1.203   7.083   2.250  1.2042  0.9371  2.7965
 4390SOL     OW14769   6.002   6.721   0.648  0.2044  0.0114  0.0818
 4390SOL    HW114770   6.015   6.626   0.619  1.9145 -0.2497  1.4857
 4390SOL    HW214771   5.938   6.724   0.724 -0.1392  0.0331 -0.2071
 4391SOL     OW14772   2.700   3.261   6.561  0.3648 -0.2938 -0.4291
 4391SOL    HW114773   2.750   3.175   6.569  1.4150  0.2929 -0.4145
 4391SOL    HW214774   2.686   3.301   6.651 -0.6819 -0.7411 -0.3789
 4392SOL     OW14775   3.347   1.976   6.454  0.2206 -0.0910  0.0405
 4392SOL    HW114776   3.297   2.042   6.398 -3.5521 -1.4927  1.4422
 4392SOL    HW214777   3.389   2.024   6.531 -1.7625  0.8244  0.6072
 4393SOL     OW14778   0.383   1.202   3.784 -0.4927 -0.2497  0.5066
 4393SOL    HW114779   0.458   1.265   3.762  0.5731 -1.4938  0.4135
 4393SOL    HW214780   0.305   1.253   3.820  1.1061  0.9219  2.4878
 4394SOL     OW14781   4.236   4.356   1.695  0.4412 -0.2073 -0.1509
 4394SOL    HW114782   4.183   4.435   1.725  2.0897  0.4137  1.2524
 4394SOL    HW214783   4.236   4.352   1.595  0.0113  1.3577 -0.2344
 4395SOL     OW14784   1.816   6.660   1.593 -0.2989 -0.1960 -0.1794
 4395SOL    HW114785   1.757   6.740   1.597  0.3113  0.2436  0.1487
 4395SOL    HW214786   1.874   6.665   1.512  0.3430  0.1226  0.2976
 4396SOL     OW14787   2.027   1.423   3.140  0.7238 -0.3416 -0.3378
 4396SOL    HW114788   2.069   1.404   3.051  0.4606  0.7787 -0.7278
 4396SOL    HW214789   1.985   1.514   3.137  0.8068 -0.2459  0.9718
 4397SOL     OW14790   3.628   4.771   1.657  0.6353 -0.9578 -0.1786
 4397SOL    HW114791   3.689   4.758   1.735  1.9981  0.6318 -0.9046
 4397SOL    HW214792   3.645   4.700   1.589  0.9592 -1.1086  0.0557
 4398SOL     OW14793   4.141   1.811   4.410 -0.4265  0.4444 -0.0199
 4398SOL    HW114794   4.125   1.729   4.356 -1.5069  1.0313 -0.6264
 4398SOL    HW214795   4.177   1.883   4.351 -1.0559  0.9099  0.1488
 4399SOL     OW14796   6.859   4.446   5.210 -0.3872 -0.1253  0.0067
 4399SOL    HW114797   6.790   4.388   5.255 -0.8866 -0.9791 -1.7485
 4399SOL    HW214798   6.884   4.405   5.122 -1.1367  2.5667 -1.5691
 4400SOL     OW14799   1.669   5.183   3.032 -0.1444 -0.0382  0.0529
 4400SOL    HW114800   1.581   5.157   2.992 -0.0400  0.8753 -0.8021
 4400SOL    HW214801   1.687   5.127   3.113 -2.2663  0.8355  1.1972
 4401SOL     OW14802   3.089   6.971   6.633  0.1429 -0.2206 -0.0202
 4401SOL    HW114803   3.031   7.040   6.588 -1.0433 -0.4498  1.1029
 4401SOL    HW214804   3.036   6.923   6.702  1.4081 -1.1878  0.3149
 4402SOL     OW14805   0.620   5.379   6.841  0.1665  0.6301  0.0649
 4402SOL    HW114806   0.626   5.282   6.866 -1.2712  0.6414  0.5417
 4402SOL    HW214807   0.707   5.408   6.801  0.2939 -1.1497 -1.1245
 4403SOL     OW14808   6.395   1.578   6.654  0.3257 -0.5795  0.1393
 4403SOL    HW114809   6.317   1.534   6.699  0.9495 -1.1067  0.7244
 4403SOL    HW214810   6.398   1.549   6.558 -1.0083  0.5517 -0.2912
 4404SOL     OW14811   3.299   0.365   3.853  0.1064  0.0892  0.2772
 4404SOL    HW114812   3.241   0.290   3.885 -0.5999  0.1285 -0.8681
 4404SOL    HW214813   3.253   0.452   3.871  0.1111  0.1556 -0.0359
 4405SOL     OW14814   2.924   6.138   4.274 -0.2237  0.2362 -0.2507
 4405SOL    HW114815   2.967   6.105   4.190  2.8494 -0.1332  1.3290
 4405SOL    HW214816   2.935   6.069   4.346 -0.0319  1.7546  1.2273
 4406SOL     OW14817   0.610   6.854   6.483  0.0855 -0.1788 -0.4351
 4406SOL    HW114818   0.545   6.805   6.425 -2.1831 -0.3424  2.0753
 4406SOL    HW214819   0.590   6.952   6.481 -2.2737 -0.4682  2.4823
 4407SOL     OW14820   3.256   1.163   5.554  0.0947 -0.5025 -0.0927
 4407SOL    HW114821   3.326   1.108   5.601 -0.2516 -0.0243  0.9979
 4407SOL    HW214822   3.252   1.135   5.458  1.6132 -0.7070 -0.1249
 4408SOL     OW14823   0.810   5.854   3.186  0.6301 -0.5287 -0.2893
 4408SOL    HW114824   0.844   5.947   3.179  0.1748 -0.3203  0.2072
 4408SOL    HW214825   0.853   5.809   3.265 -0.4672 -0.1540  0.5512
 4409SOL     OW14826   1.471   6.287   5.987 -0.1012  0.1000 -0.5053
 4409SOL    HW114827   1.546   6.327   6.040  0.3278  0.4798 -1.3823
 4409SOL    HW214828   1.488   6.301   5.890 -0.1914 -1.7851 -0.8312
 4410SOL     OW14829   2.328   0.337   4.016  0.3196  0.1166 -0.2250
 4410SOL    HW114830   2.402   0.388   3.973 -0.6302  0.2082 -1.8044
 4410SOL    HW214831   2.268   0.401   4.065 -0.7180  0.5415 -1.9785
 4411SOL     OW14832   0.819   2.948   0.112  0.1780 -0.3587  0.0900
 4411SOL    HW114833   0.724   2.979   0.117  0.0069 -1.0691  3.1252
 4411SOL    HW214834   0.880   3.027   0.111 -0.3897  0.0990  0.8017
 4412SOL     OW14835   0.480   2.255   4.048  0.3624 -0.6429 -0.3588
 4412SOL    HW114836   0.497   2.330   3.984 -0.1254 -0.5279 -0.3551
 4412SOL    HW214837   0.382   2.242   4.060  0.4323 -0.3061  0.7701
 4413SOL     OW14838   5.797   1.598   0.089  0.2168 -0.6486  0.3995
 4413SOL    HW114839   5.826   1.585   0.184  0.7552 -1.4803  0.1349
 4413SOL    HW214840   5.702   1.569   0.079 -0.4227  1.1071  1.0491
 4414SOL     OW14841   6.724   1.583   0.837  0.1168  0.0128 -0.2170
 4414SOL    HW114842   6.633   1.559   0.804 -0.9369  0.2113  2.3114
 4414SOL    HW214843   6.778   1.500   0.848 -0.5183 -0.3353  0.3150
 4415SOL     OW14844   6.473   3.061   2.036  0.0530  0.4659  0.1617
 4415SOL    HW114845   6.413   3.026   2.108 -1.8919  0.6088 -1.3036
 4415SOL    HW214846   6.501   2.985   1.977  1.4636  0.3844  0.8924
 4416SOL     OW14847   2.841   2.652   2.287 -0.8173 -0.0664  0.1902
 4416SOL    HW114848   2.875   2.691   2.201  0.9360  0.4061  1.0445
 4416SOL    HW214849   2.820   2.555   2.274  1.9477 -0.7048 -0.2225
 4417SOL     OW14850   6.347   3.452   0.161 -0.1996  0.1520  0.5065
 4417SOL    HW114851   6.283   3.429   0.087 -0.5957  0.2334  0.8195
 4417SOL    HW214852   6.433   3.484   0.121 -1.3123  2.8517  0.0034
 4418SOL     OW14853   5.190   2.003   0.940 -0.2103  0.3948 -0.3545
 4418SOL    HW114854   5.111   2.034   0.888  0.0869  0.1515 -0.9755
 4418SOL    HW214855   5.167   1.995   1.036 -0.5468  1.6390 -0.3228
 4419SOL     OW14856   3.952   5.045   3.375  0.0305  0.0251 -0.1497
 4419SOL    HW114857   3.942   5.050   3.474 -0.2203  1.6031 -0.2407
 4419SOL    HW214858   4.025   4.980   3.353 -0.8504 -1.4473  0.9890
 4420SOL     OW14859   5.042   4.810   2.894 -0.2889  0.1910  0.6410
 4420SOL    HW114860   5.013   4.864   2.815 -0.7385 -1.1357 -0.1343
 4420SOL    HW214861   5.120   4.753   2.869 -0.6975 -0.5546  1.0281
 4421SOL     OW14862   4.127   1.476   4.651  0.1872  0.1388  0.1600
 4421SOL    HW114863   4.152   1.509   4.560 -0.1842 -0.0119  0.0006
 4421SOL    HW214864   4.060   1.538   4.692  1.5603  1.1062  1.0048
 4422SOL     OW14865   4.395   0.358   4.069 -0.1553 -0.1533  0.4490
 4422SOL    HW114866   4.388   0.376   4.167  1.9538 -0.8632  0.7832
 4422SOL    HW214867   4.336   0.422   4.019  0.1667  1.4929  2.0675
 4423SOL     OW14868   2.512   6.741   1.014  1.0367  0.0081  0.2118
 4423SOL    HW114869   2.601   6.719   0.974  0.3061 -2.2585 -0.3092
 4423SOL    HW214870   2.448   6.666   0.997 -1.3503  2.0577 -0.4274
 4424SOL     OW14871   5.784   6.369   4.538  0.5761 -0.0550  0.1897
 4424SOL    HW114872   5.778   6.468   4.533 -0.8011 -0.0956  0.5138
 4424SOL    HW214873   5.880   6.341   4.542  0.9622  1.3691  2.4645
 4425SOL     OW14874   1.408   4.658   6.346  0.2976 -0.0950 -0.4242
 4425SOL    HW114875   1.469   4.664   6.425  1.6496 -0.4287 -1.4076
 4425SOL    HW214876   1.328   4.715   6.362  0.9992  0.6062  0.7724
 4426SOL     OW14877   0.298   1.582   1.273  0.1768  0.3065  0.4190
 4426SOL    HW114878   0.313   1.552   1.179  1.5000 -0.5510  0.8737
 4426SOL    HW214879   0.254   1.671   1.273 -0.0605  0.2124 -1.0048
 4427SOL     OW14880   5.361   1.313   4.456 -0.0216  0.0488 -0.5765
 4427SOL    HW114881   5.380   1.238   4.519  0.5633 -0.2412 -1.0891
 4427SOL    HW214882   5.267   1.344   4.469  0.7324  1.5113  2.0083
 4428SOL     OW14883   0.778   0.920   3.050 -0.0610  0.2793 -0.3917
 4428SOL    HW114884   0.808   0.838   3.098  0.1239  0.1626 -0.7014
 4428SOL    HW214885   0.678   0.926   3.053 -0.0228  0.5429  0.4380
 4429SOL     OW14886   4.178   0.601   5.618 -0.2493 -0.4812  0.5098
 4429SOL    HW114887   4.154   0.596   5.521  1.1670  0.6322  0.0634
 4429SOL    HW214888   4.242   0.527   5.641  0.2151 -0.1376  0.3350
 4430SOL     OW14889   4.145   6.841   0.617  0.7031  0.2078 -0.3333
 4430SOL    HW114890   4.158   6.910   0.688 -0.1105  0.7700 -0.7221
 4430SOL    HW214891   4.103   6.760   0.658 -1.8887  1.3513 -0.5179
 4431SOL     OW14892   0.152   2.011   0.064  0.4418 -0.4949  0.2254
 4431SOL    HW114893   0.093   2.080   0.106 -2.8984 -2.3029 -1.1069
 4431SOL    HW214894   0.137   1.923   0.110  1.2541 -1.2495 -0.9177
 4432SOL     OW14895   4.250   1.957   1.394 -0.4244  0.3559  0.1516
 4432SOL    HW114896   4.225   1.966   1.490 -1.1775 -0.9947  0.1199
 4432SOL    HW214897   4.349   1.950   1.385 -0.3556  0.3769  0.8409
 4433SOL     OW14898   2.160   2.979   0.683  0.2704  0.6335 -0.1852
 4433SOL    HW114899   2.084   2.990   0.747  0.1214  0.0845 -0.2657
 4433SOL    HW214900   2.157   3.053   0.615  0.1098  0.9045  0.1137
 4434SOL     OW14901   5.126   0.698   2.636  0.4371  0.0572 -0.0593
 4434SOL    HW114902   5.157   0.698   2.731  0.9284 -2.5579 -0.1371
 4434SOL    HW214903   5.174   0.626   2.585 -1.0067  0.3018 -1.8768
 4435SOL     OW14904   3.666   1.915   2.341 -0.0400  0.3420  0.2843
 4435SOL    HW114905   3.723   1.853   2.287 -0.1374  0.4499  0.0540
 4435SOL    HW214906   3.620   1.864   2.413  2.3050  0.6590  2.1097
 4436SOL     OW14907   2.763   3.015   5.124  0.3814 -0.1716 -0.3990
 4436SOL    HW114908   2.687   2.956   5.095 -0.6771  0.7027  0.5022
 4436SOL    HW214909   2.832   2.959   5.170  0.2501 -0.9635 -1.1317
 4437SOL     OW14910   5.083   5.280   4.554 -0.7121  0.0229 -0.6009
 4437SOL    HW114911   5.109   5.371   4.588  1.9388 -0.6956 -0.4647
 4437SOL    HW214912   5.025   5.235   4.621 -1.9621  1.5318 -0.6052
 4438SOL     OW14913   3.254   0.026   2.761 -0.8148  0.4505  0.3784
 4438SOL    HW114914   3.182  -0.015   2.818  0.2814  0.4593  1.8338
 4438SOL    HW214915   3.343  -0.001   2.797 -0.0675  2.4211  0.1134
 4439SOL     OW14916   0.959   2.171   0.361  0.1403  0.6716 -0.6089
 4439SOL    HW114917   1.029   2.101   0.374  0.3712  1.1658  1.0269
 4439SOL    HW214918   0.871   2.137   0.394 -0.2536  0.3313 -1.9542
 4440SOL     OW14919   4.263   0.700   2.851 -0.2386 -0.2132  0.5510
 4440SOL    HW114920   4.287   0.785   2.898 -0.5482  0.1647  0.0423
 4440SOL    HW214921   4.298   0.622   2.903  1.3530  0.2758  0.2519
 4441SOL     OW14922   1.796   3.366   5.684 -0.3838 -0.2621 -0.0130
 4441SOL    HW114923   1.745   3.452   5.675 -1.7270 -1.0649 -0.3824
 4441SOL    HW214924   1.879   3.382   5.738 -0.6557  1.2332  0.0184
 4442SOL     OW14925   3.054   2.019   0.134 -0.1977 -0.1823  0.1093
 4442SOL    HW114926   2.998   2.058   0.060 -1.5705 -1.1062  0.6117
 4442SOL    HW214927   3.079   2.091   0.198 -3.6357 -0.1511  1.6335
 4443SOL     OW14928   5.900   2.268   5.889  0.2449 -0.2777 -0.3604
 4443SOL    HW114929   5.827   2.243   5.826 -0.2673 -0.1337  0.1636
 4443SOL    HW214930   5.899   2.207   5.968 -1.2511  1.5266  1.1140
 4444SOL     OW14931   3.567   0.024   6.863  0.0467  0.0501 -0.1551
 4444SOL    HW114932   3.598  -0.027   6.943 -1.1963  1.2557  1.1524
 4444SOL    HW214933   3.470   0.006   6.848 -0.3052  1.6195  0.0514
 4445SOL     OW14934   2.612   2.960   3.243 -0.1025  0.4195  0.3241
 4445SOL    HW114935   2.548   2.889   3.273 -1.3338  0.7899 -1.3064
 4445SOL    HW214936   2.563   3.046   3.231  0.5049  0.5390 -1.6784
 4446SOL     OW14937   1.397   6.507   1.487 -0.2212 -0.8623 -0.4127
 4446SOL    HW114938   1.316   6.451   1.507 -1.0520  0.5871  0.4103
 4446SOL    HW214939   1.417   6.566   1.564  1.2674 -0.7333 -0.8662
 4447SOL     OW14940   1.830   4.891   6.731  0.0337  0.1674 -0.0873
 4447SOL    HW114941   1.913   4.930   6.693 -1.2543  3.2371 -0.0630
 4447SOL    HW214942   1.780   4.842   6.659  0.6826  0.4009 -0.7068
 4448SOL     OW14943   0.322   0.161   5.650 -0.5143 -0.5138  0.2479
 4448SOL    HW114944   0.306   0.113   5.564 -0.3378 -1.2880  0.6378
 4448SOL    HW214945   0.413   0.138   5.685  0.0733  1.0773 -0.1685
 4449SOL     OW14946   3.522   4.756   1.135  0.5882 -0.1845 -0.1769
 4449SOL    HW114947   3.564   4.822   1.073  1.0095  0.4987  0.8236
 4449SOL    HW214948   3.591   4.694   1.170  0.7166  0.6600  1.1221
 4450SOL     OW14949   0.864   5.909   1.927  0.0885  0.2146 -0.4875
 4450SOL    HW114950   0.825   5.848   1.859 -0.4629 -0.3460  0.3034
 4450SOL    HW214951   0.905   5.855   2.001  0.6440  0.8026 -0.3583
 4451SOL     OW14952   2.561   5.484   5.519  0.0389 -0.5666  0.0300
 4451SOL    HW114953   2.593   5.418   5.451 -1.7584 -1.1589 -0.2786
 4451SOL    HW214954   2.472   5.457   5.553 -0.9677  1.9076 -0.4009
 4452SOL     OW14955   6.557   1.139   6.749 -0.0273  0.0924 -0.3200
 4452SOL    HW114956   6.590   1.128   6.843  1.7560  0.0041 -0.9042
 4452SOL    HW214957   6.533   1.049   6.711 -2.3312  0.2865  0.5338
 4453SOL     OW14958   1.349   1.316   0.207 -0.1021 -0.0271 -0.6156
 4453SOL    HW114959   1.300   1.401   0.228 -0.7235 -1.2755  4.3556
 4453SOL    HW214960   1.447   1.336   0.197 -0.2621  1.3101  0.1923
 4454SOL     OW14961   3.148   6.544   3.472 -0.3885 -0.0151 -0.3464
 4454SOL    HW114962   3.237   6.502   3.489 -0.1285  1.0512  1.1790
 4454SOL    HW214963   3.156   6.643   3.477 -1.7057  0.0958  0.1482
 4455SOL     OW14964   5.632   5.173   3.383 -0.4535  0.0616 -0.2064
 4455SOL    HW114965   5.556   5.226   3.420 -1.1901 -0.6044 -0.7519
 4455SOL    HW214966   5.703   5.235   3.350 -0.3012  0.6852  1.2031
 4456SOL     OW14967   2.217   2.812   2.273  0.3496 -0.2746  0.2290
 4456SOL    HW114968   2.235   2.716   2.254 -0.7378 -0.1462 -1.6802
 4456SOL    HW214969   2.176   2.821   2.364 -0.4268 -1.7220  0.0488
 4457SOL     OW14970   1.724   4.687   3.708  0.3145 -0.3560 -0.5800
 4457SOL    HW114971   1.645   4.640   3.668  0.5247 -0.5820 -0.7289
 4457SOL    HW214972   1.740   4.654   3.801 -0.2070  0.2077 -0.2789
 4458SOL     OW14973   5.293   3.803   5.799 -0.1863  0.0827  0.1093
 4458SOL    HW114974   5.260   3.736   5.866  0.9095 -0.8172 -0.2252
 4458SOL    HW214975   5.283   3.895   5.837 -4.2727  0.0475 -0.4625
 4459SOL     OW14976   4.044   5.605   6.072  0.2395 -0.2554 -0.4944
 4459SOL    HW114977   3.995   5.614   5.986 -0.5263 -1.0558 -0.1583
 4459SOL    HW214978   4.115   5.675   6.078  0.1580 -0.0580 -1.6715
 4460SOL     OW14979   5.198   3.383   5.681  0.0575 -0.0799  0.1667
 4460SOL    HW114980   5.193   3.311   5.612  0.1073  0.2077 -0.1412
 4460SOL    HW214981   5.173   3.346   5.770  0.5014 -0.5790  0.0876
 4461SOL     OW14982   0.090   6.899   5.056 -0.0721 -0.1134  0.3860
 4461SOL    HW114983   0.070   6.869   4.962  4.1416 -0.7277 -0.5145
 4461SOL    HW214984   0.012   6.951   5.091 -1.9751 -0.0996 -3.3052
 4462SOL     OW14985   5.337   3.244   6.425  0.3015 -0.3332  0.1404
 4462SOL    HW114986   5.280   3.279   6.499  0.0966 -0.4298  0.0295
 4462SOL    HW214987   5.421   3.205   6.463 -0.0653 -0.9120  0.3725
 4463SOL     OW14988   0.452   2.576   6.559 -0.0524  0.2912  0.8363
 4463SOL    HW114989   0.495   2.661   6.528 -0.2238  0.1170  0.1141
 4463SOL    HW214990   0.353   2.582   6.544 -0.3370  0.7586  2.6334
 4464SOL     OW14991   2.274   3.443   6.183  0.0459  0.2696  0.1312
 4464SOL    HW114992   2.366   3.468   6.214  0.5691 -1.4289  0.0350
 4464SOL    HW214993   2.222   3.408   6.261  0.3182 -1.0477 -0.2480
 4465SOL     OW14994   1.261   3.151   0.603  0.4991 -0.5997  0.1081
 4465SOL    HW114995   1.296   3.123   0.693 -0.7340 -0.1481  0.7540
 4465SOL    HW214996   1.164   3.174   0.611  0.8941  1.6660 -0.8503
 4466SOL     OW14997   5.853   3.884   0.830 -0.3633  0.4616 -0.0601
 4466SOL    HW114998   5.839   3.979   0.804 -0.1018  0.9610  1.5406
 4466SOL    HW214999   5.876   3.878   0.927  1.1571 -1.1051 -0.4591
 4467SOL     OW15000   1.644   1.832   1.576 -0.4704 -0.1289  0.6751
 4467SOL    HW115001   1.595   1.906   1.530  2.0512  0.7329 -0.8301
 4467SOL    HW215002   1.729   1.868   1.614  0.4372 -2.0987  0.5981
 4468SOL     OW15003   0.065   3.933   1.445 -0.0896  0.0464  0.3797
 4468SOL    HW115004  -0.000   3.970   1.511 -0.1193  2.4089 -0.8701
 4468SOL    HW215005   0.149   3.908   1.492 -1.2385 -1.4924  1.7603
 4469SOL     OW15006   6.418   4.119   0.755 -0.1082  0.2560 -0.2320
 4469SOL    HW115007   6.369   4.188   0.808 -0.0704  1.2452 -1.4481
 4469SOL    HW215008   6.506   4.156   0.725  0.4575 -0.7635  0.1281
 4470SOL     OW15009   2.591   1.176   0.201  0.3020  0.0079  0.0507
 4470SOL    HW115010   2.493   1.163   0.218  0.1244 -1.0095 -1.5485
 4470SOL    HW215011   2.627   1.244   0.266 -1.0199 -1.0066  1.9606
 4471SOL     OW15012   3.873   5.067   0.452 -0.3014 -0.1779 -0.1332
 4471SOL    HW115013   3.927   5.066   0.536 -0.0297 -2.0619 -0.2852
 4471SOL    HW215014   3.826   4.979   0.442  0.4060 -0.3530 -2.4192
 4472SOL     OW15015   1.811   2.231   3.901  0.5123  0.1922  0.7173
 4472SOL    HW115016   1.827   2.208   3.806 -0.8565 -0.5994  0.6603
 4472SOL    HW215017   1.716   2.211   3.925  1.1510 -0.8269  2.5899
 4473SOL     OW15018   3.266   0.544   0.694  0.0445 -0.2836  0.4187
 4473SOL    HW115019   3.178   0.568   0.653 -0.6527  0.0098  2.0144
 4473SOL    HW215020   3.340   0.588   0.643 -0.7150 -0.5096 -0.9251
 4474SOL     OW15021   6.175   5.738   5.132 -0.0822  0.0931 -0.2052
 4474SOL    HW115022   6.103   5.672   5.153 -1.6459  2.0263  0.8277
 4474SOL    HW215023   6.187   5.744   5.033 -3.5517  1.8110 -0.6885
 4475SOL     OW15024   0.068   0.695   3.804 -0.1512 -0.2676  0.0219
 4475SOL    HW115025   0.127   0.776   3.808 -0.0620 -0.3303 -0.0102
 4475SOL    HW215026   0.087   0.636   3.882 -1.6053  0.6835  1.1546
 4476SOL     OW15027   6.599   0.277   1.497 -0.2495  0.1861  0.5634
 4476SOL    HW115028   6.663   0.269   1.421 -0.6406  3.1342 -0.1800
 4476SOL    HW215029   6.506   0.277   1.462 -0.4220  1.8355  0.9855
 4477SOL     OW15030   5.443   1.097   0.824 -0.1081 -0.1264  0.6111
 4477SOL    HW115031   5.484   1.053   0.745  0.3853  1.0245  0.2051
 4477SOL    HW215032   5.431   1.030   0.897  0.3531 -0.9832 -0.0814
 4478SOL     OW15033   4.335   5.114   4.817 -0.2755  0.1060  0.1339
 4478SOL    HW115034   4.391   5.192   4.844 -0.5469  0.6178 -0.7353
 4478SOL    HW215035   4.246   5.120   4.861  0.0175 -0.2073  0.7810
 4479SOL     OW15036   0.694   4.302   4.573  0.4272  0.3664  0.2658
 4479SOL    HW115037   0.738   4.295   4.484 -0.0457 -0.6018  0.0892
 4479SOL    HW215038   0.619   4.235   4.578 -0.7194  1.6396  0.7240
 4480SOL     OW15039   2.645   2.193   0.657  0.1199 -0.2467 -0.2622
 4480SOL    HW115040   2.565   2.197   0.717  0.9052 -1.3219  0.9296
 4480SOL    HW215041   2.720   2.149   0.706  1.4848  0.8271 -1.3171
 4481SOL     OW15042   2.876   5.074   5.776  0.3469 -0.0225  0.9677
 4481SOL    HW115043   2.787   5.106   5.744  0.5947  0.2701  0.5641
 4481SOL    HW215044   2.898   4.986   5.733  0.4205  0.0864  0.7848
 4482SOL     OW15045   6.387   5.092   3.862  0.1979 -0.0519 -0.3806
 4482SOL    HW115046   6.344   5.008   3.893 -1.7286  1.1716  0.4540
 4482SOL    HW215047   6.404   5.088   3.764 -0.5754 -1.1122 -0.4801
 4483SOL     OW15048   1.224   6.087   4.745  0.7192 -0.3759  0.1860
 4483SOL    HW115049   1.156   6.110   4.815  0.6493  0.6009 -0.1902
 4483SOL    HW215050   1.308   6.138   4.763  0.8029 -0.3521 -0.2726
 4484SOL     OW15051   6.289   4.121   0.199 -0.4046 -0.1695  0.1045
 4484SOL    HW115052   6.341   4.172   0.131 -0.8641  0.4653  0.2193
 4484SOL    HW215053   6.197   4.103   0.164  0.0823 -1.9108 -0.3928
 4485SOL     OW15054   3.870   1.612   5.559  0.5676  0.5150 -0.0885
 4485SOL    HW115055   3.927   1.530   5.559 -0.0923 -0.0682 -3.1678
 4485SOL    HW215056   3.920   1.688   5.516  0.0757  0.8208 -0.1277
 4486SOL     OW15057   1.300   4.699   1.513 -0.2595 -0.6685 -0.1107
 4486SOL    HW115058   1.219   4.700   1.455  0.1254 -0.8298 -0.6621
 4486SOL    HW215059   1.314   4.790   1.553  0.0209 -0.2857 -1.0522
 4487SOL     OW15060   2.431   4.945   5.602 -0.1783  0.1728  0.5574
 4487SOL    HW115061   2.372   4.864   5.596  1.6111 -1.0600 -2.2217
 4487SOL    HW215062   2.517   4.920   5.648  0.3090  0.5144 -0.1450
 4488SOL     OW15063   0.546   0.504   6.463 -0.3084  0.5275  0.2522
 4488SOL    HW115064   0.488   0.576   6.503 -0.2893  0.6888 -0.0057
 4488SOL    HW215065   0.542   0.510   6.363 -0.9064 -0.3175  0.2158
 4489SOL     OW15066   0.834   4.241   3.673 -0.6942  0.0615 -0.8205
 4489SOL    HW115067   0.781   4.185   3.610  0.6325 -1.3396 -0.7325
 4489SOL    HW215068   0.895   4.183   3.727  1.5886  1.6583 -1.5289
 4490SOL     OW15069   4.447   6.218   0.969 -0.0932  0.5661  0.5559
 4490SOL    HW115070   4.476   6.283   0.899 -0.0256  0.3237  0.3551
 4490SOL    HW215071   4.425   6.131   0.925 -2.3625  1.0870  0.5065
 4491SOL     OW15072   5.928   5.000   2.120  0.4983 -0.2365  0.0186
 4491SOL    HW115073   5.854   4.963   2.063  1.2132 -0.3740 -0.8506
 4491SOL    HW215074   6.009   4.942   2.110  1.3066  0.9629 -0.5279
 4492SOL     OW15075   1.048   5.656   1.978  0.2803  0.3075 -0.1315
 4492SOL    HW115076   1.064   5.634   2.075  1.7012  0.7560 -0.2378
 4492SOL    HW215077   1.134   5.684   1.936  0.1569 -1.9783 -2.1046
 4493SOL     OW15078   5.528   4.691   3.993 -0.1965  0.2122  0.1256
 4493SOL    HW115079   5.622   4.658   3.983 -0.2090  0.4077 -0.7315
 4493SOL    HW215080   5.524   4.787   3.966 -0.6598  0.1713  0.0435
 4494SOL     OW15081   4.415   6.712   4.657  0.0592 -0.3956  0.1412
 4494SOL    HW115082   4.391   6.806   4.635 -1.0926 -0.2458  1.8359
 4494SOL    HW215083   4.409   6.656   4.574 -1.1795  0.6508 -0.5258
 4495SOL     OW15084   4.711   0.089   5.122  0.4731 -0.3077  0.4079
 4495SOL    HW115085   4.644   0.021   5.092 -0.7424  0.7126  0.7390
 4495SOL    HW215086   4.713   0.165   5.057 -0.0214  0.5090  1.3145
 4496SOL     OW15087   3.759   5.105   3.174 -0.1851  0.5122  0.5430
 4496SOL    HW115088   3.806   5.105   3.262 -0.1138  0.5945  0.5050
 4496SOL    HW215089   3.662   5.125   3.188 -0.2904 -0.0819  0.6639
 4497SOL     OW15090   5.472   6.962   1.023  0.0926  0.1783 -0.1612
 4497SOL    HW115091   5.557   6.980   1.072  0.2025  0.6388 -0.5044
 4497SOL    HW215092   5.458   7.034   0.954 -0.7091  0.2533  0.0710
 4498SOL     OW15093   3.163   4.913   1.774 -0.4663  0.6101 -0.4633
 4498SOL    HW115094   3.088   4.858   1.737 -0.0997 -0.2186 -0.0035
 4498SOL    HW215095   3.129   5.004   1.797 -1.4463  0.1009  0.1599
 4499SOL     OW15096   1.905   5.635   3.294  0.0995  0.9077  0.0198
 4499SOL    HW115097   1.884   5.564   3.228  1.7772 -0.5717  0.9669
 4499SOL    HW215098   1.860   5.720   3.268 -2.0481 -0.4899 -1.1106
 4500SOL     OW15099   0.027   3.956   2.522  0.6460 -0.5035  0.0533
 4500SOL    HW115100  -0.018   3.869   2.539  0.5098 -0.5942 -0.7506
 4500SOL    HW215101   0.104   3.943   2.459 -1.3805  0.4158 -2.8275
 4501SOL     OW15102   2.034   4.308   0.750  0.4360  0.3936 -0.0758
 4501SOL    HW115103   2.075   4.390   0.709 -0.0751  0.2702 -0.8649
 4501SOL    HW215104   2.007   4.328   0.844  1.4891  0.7365  0.1704
 4502SOL     OW15105   0.136   5.553   0.167  0.0386  0.7024  0.2604
 4502SOL    HW115106   0.195   5.619   0.214  0.1636 -0.6524  2.1315
 4502SOL    HW215107   0.043   5.561   0.203 -0.2103  0.6718 -0.3786
 4503SOL     OW15108   6.678   5.437   6.107 -1.0033 -0.9795  0.1678
 4503SOL    HW115109   6.676   5.503   6.182 -1.0193 -1.5461  0.6770
 4503SOL    HW215110   6.597   5.448   6.050 -0.5774  0.0179 -0.2684
 4504SOL     OW15111   1.171   6.350   3.867  0.1662  0.1214  0.2861
 4504SOL    HW115112   1.267   6.342   3.897 -0.1508 -2.0508  0.8930
 4504SOL    HW215113   1.113   6.362   3.947 -0.1371  1.1099 -0.0618
 4505SOL     OW15114   0.712   5.954   2.720 -0.2965  0.1557  0.2968
 4505SOL    HW115115   0.661   5.929   2.637 -2.2706  0.3041  1.3870
 4505SOL    HW215116   0.681   6.043   2.753  1.2545  0.6062  0.6185
 4506SOL     OW15117   0.748   1.902   0.651  0.0679 -0.1267  0.6538
 4506SOL    HW115118   0.711   1.980   0.599 -1.2440 -0.6552  0.7567
 4506SOL    HW215119   0.829   1.867   0.604  1.0207  1.6180  0.8900
 4507SOL     OW15120   2.039   0.212   4.054  0.7101 -0.1948 -0.1789
 4507SOL    HW115121   1.987   0.140   4.009  1.4657 -0.4827 -0.6127
 4507SOL    HW215122   2.111   0.172   4.110  0.0481  0.1793  0.9718
 4508SOL     OW15123   1.408   4.464   0.596 -0.0452 -0.0970  0.4923
 4508SOL    HW115124   1.444   4.374   0.572  0.2772  0.2725 -0.4467
 4508SOL    HW215125   1.388   4.466   0.694 -0.2481 -1.2494  0.4930
 4509SOL     OW15126   2.979   1.678   5.343 -0.0286  0.0411  0.3867
 4509SOL    HW115127   3.016   1.670   5.436  0.0726 -0.6713  0.2890
 4509SOL    HW215128   3.052   1.666   5.277  0.3066  2.6231  0.1947
 4510SOL     OW15129   5.668   2.098   3.917 -0.2084  0.1754 -0.9252
 4510SOL    HW115130   5.714   2.047   3.844  0.2744 -2.8284  1.2682
 4510SOL    HW215131   5.581   2.053   3.939 -0.0418  0.6131  0.7505
 4511SOL     OW15132   2.212   6.264   1.844 -0.1709 -0.0307  0.1203
 4511SOL    HW115133   2.139   6.287   1.779 -2.3962 -0.3603  2.3852
 4511SOL    HW215134   2.236   6.168   1.834 -0.1656  0.0290 -0.5036
 4512SOL     OW15135   6.435   0.457   3.746  0.5317  0.4727 -0.1851
 4512SOL    HW115136   6.384   0.542   3.759  1.8014  1.3479 -0.7862
 4512SOL    HW215137   6.488   0.437   3.828  0.0000  0.0918  0.0692
 4513SOL     OW15138   4.222   0.747   4.598 -0.3085 -0.3148  0.1668
 4513SOL    HW115139   4.222   0.689   4.681 -2.1519  0.6740  0.9037
 4513SOL    HW215140   4.304   0.803   4.598  1.5985 -2.8988 -0.6100
 4514SOL     OW15141   3.496   5.510   1.604 -0.0412 -0.7737 -0.1788
 4514SOL    HW115142   3.584   5.465   1.590  0.1056 -0.4202 -0.3941
 4514SOL    HW215143   3.464   5.493   1.697  0.5828 -0.3294  0.1200
 4515SOL     OW15144   0.607   0.504   1.732 -0.0133  0.2555 -0.4825
 4515SOL    HW115145   0.618   0.433   1.801  1.7637  0.3710 -0.6072
 4515SOL    HW215146   0.661   0.480   1.651 -1.0554  0.7452 -1.3544
 4516SOL     OW15147   0.760   0.573   6.771  0.6926  0.2062  0.3891
 4516SOL    HW115148   0.768   0.479   6.738 -1.8582 -0.4064  1.2533
 4516SOL    HW215149   0.804   0.635   6.706 -1.9561 -1.1553 -3.0195
 4517SOL     OW15150   2.870   5.917   5.647 -0.0174 -0.5132  0.3077
 4517SOL    HW115151   2.906   5.827   5.672 -2.2756 -1.8162 -0.7725
 4517SOL    HW215152   2.820   5.910   5.561 -0.5431  1.7297  0.3694
 4518SOL     OW15153   5.116   4.171   4.895  0.8210 -0.3423 -0.0591
 4518SOL    HW115154   5.085   4.229   4.971  0.9923  0.3618 -0.5242
 4518SOL    HW215155   5.121   4.225   4.811 -1.4011 -1.5849 -1.0685
 4519SOL     OW15156   3.040   7.019   2.926 -0.5119 -0.1594  0.3088
 4519SOL    HW115157   3.009   7.019   3.021 -0.2328 -2.0033  0.4491
 4519SOL    HW215158   3.001   6.940   2.879  0.9243 -0.3870 -0.5487
 4520SOL     OW15159   3.365   6.884   2.574  0.5539 -0.2823  0.0289
 4520SOL    HW115160   3.371   6.908   2.477 -1.1948 -1.6265 -0.4692
 4520SOL    HW215161   3.333   6.964   2.626  1.6535  0.4909 -0.4504
 4521SOL     OW15162   2.553   5.975   3.292 -0.1655  0.1997 -0.3245
 4521SOL    HW115163   2.606   6.035   3.353 -1.9088  1.1290  0.3457
 4521SOL    HW215164   2.522   5.895   3.343 -2.2627  1.3435  0.3024
 4522SOL     OW15165   4.082   1.190   6.695 -0.3782 -0.1740  0.1423
 4522SOL    HW115166   4.138   1.159   6.618 -1.3855 -0.5178 -0.4588
 4522SOL    HW215167   4.087   1.123   6.768 -0.9730 -0.8036 -0.3873
 4523SOL     OW15168   2.869   5.866   6.828 -0.0352  0.0360  0.3603
 4523SOL    HW115169   2.842   5.962   6.826 -0.4389  0.0006  2.3968
 4523SOL    HW215170   2.848   5.824   6.739 -1.4299  1.4054  0.0020
 4524SOL     OW15171   5.698   6.096   4.014  0.3365  0.3524  0.3871
 4524SOL    HW115172   5.761   6.165   4.048  2.1891 -0.4781 -1.1775
 4524SOL    HW215173   5.740   6.006   4.021 -0.1018 -0.0876 -1.8651
 4525SOL     OW15174   5.986   2.134   6.349 -0.5971  0.1605 -0.7700
 4525SOL    HW115175   5.927   2.147   6.269 -0.5487  0.6097 -0.7398
 4525SOL    HW215176   6.050   2.211   6.356 -0.3088 -0.0964 -0.5472
 4526SOL     OW15177   1.806   1.681   4.179 -0.1352  0.0721 -0.0814
 4526SOL    HW115178   1.711   1.708   4.163 -1.0765 -3.0002 -0.3507
 4526SOL    HW215179   1.865   1.762   4.173 -2.7684  2.2243  0.9304
 4527SOL     OW15180   3.575   1.489   4.381  0.1287  0.2338 -0.5933
 4527SOL    HW115181   3.516   1.443   4.448  0.3219  1.5589  0.5181
 4527SOL    HW215182   3.525   1.499   4.294 -0.8831  0.3610 -0.0082
 4528SOL     OW15183   2.120   2.105   1.439 -0.1902  0.3388  0.6433
 4528SOL    HW115184   2.072   2.134   1.356  3.8277  1.0045 -1.7041
 4528SOL    HW215185   2.121   2.181   1.504 -0.7219  0.9292 -0.0091
 4529SOL     OW15186   6.602   2.053   4.018 -0.3549  0.3927  0.3763
 4529SOL    HW115187   6.586   2.149   3.994 -3.4261 -0.3370 -0.9701
 4529SOL    HW215188   6.643   2.048   4.109 -0.4784  2.9638  0.6540
 4530SOL     OW15189   6.796   2.835   6.658 -0.3487  0.2749 -0.1571
 4530SOL    HW115190   6.739   2.912   6.628  1.9272  1.4171 -1.8494
 4530SOL    HW215191   6.758   2.796   6.742 -3.5152  0.9971 -1.1106
 4531SOL     OW15192   5.876   5.784   2.026 -0.4481 -0.3767  1.0359
 4531SOL    HW115193   5.975   5.783   2.021 -0.0749 -0.4456  5.0687
 4531SOL    HW215194   5.840   5.857   1.967  1.9220 -0.2951 -0.4358
 4532SOL     OW15195   3.618   4.839   2.390  0.3262  0.1373 -0.8876
 4532SOL    HW115196   3.534   4.828   2.443  0.9296 -0.2269  0.0149
 4532SOL    HW215197   3.667   4.921   2.420  2.0354 -1.4924  1.1132
 4533SOL     OW15198   6.077   3.370   6.380  0.2799  0.1034 -0.4738
 4533SOL    HW115199   5.994   3.361   6.326 -0.0395  1.4236 -0.2542
 4533SOL    HW215200   6.134   3.443   6.340 -1.2950  3.2271  2.5000
 4534SOL     OW15201   3.214   3.825   4.926 -0.2666 -0.0580 -0.1924
 4534SOL    HW115202   3.216   3.806   5.025  0.8027 -1.2809 -0.4202
 4534SOL    HW215203   3.307   3.825   4.891 -0.6023  0.9495 -1.1148
 4535SOL     OW15204   0.455   5.674   3.632 -0.1427 -0.3740  0.1454
 4535SOL    HW115205   0.409   5.761   3.651 -0.7699 -0.2903 -1.5750
 4535SOL    HW215206   0.505   5.644   3.713  1.1153  2.2099  0.3959
 4536SOL     OW15207   1.477   2.629   2.588 -0.2980  0.5775 -0.3551
 4536SOL    HW115208   1.494   2.702   2.654  0.2368  1.6379 -1.6194
 4536SOL    HW215209   1.521   2.652   2.501  1.1901 -1.9750 -0.3676
 4537SOL     OW15210   3.145   0.904   2.477 -0.1676 -0.0551 -0.2739
 4537SOL    HW115211   3.135   0.966   2.555  2.1602 -0.7503  0.6691
 4537SOL    HW215212   3.064   0.846   2.470 -0.5968  0.2911  1.4022
 4538SOL     OW15213   4.501   1.698   0.061 -0.1728  0.3053  0.5874
 4538SOL    HW115214   4.447   1.619   0.091 -0.2308 -0.2257 -0.8403
 4538SOL    HW215215   4.479   1.719  -0.034  2.8140 -0.5453 -0.3853
 4539SOL     OW15216   5.673   0.717   3.414  0.0134 -0.4665  0.0816
 4539SOL    HW115217   5.695   0.619   3.408  2.0656  0.0167 -0.9059
 4539SOL    HW215218   5.636   0.748   3.326  2.6199  0.3335 -0.8146
 4540SOL     OW15219   5.652   7.011   6.127 -0.0546 -0.1032  0.1417
 4540SOL    HW115220   5.692   7.031   6.037 -0.1198 -0.4122  0.0426
 4540SOL    HW215221   5.591   6.933   6.119 -0.9647  0.5912  0.2200
 4541SOL     OW15222   2.763   0.257   3.123  0.2964  1.0609  0.1933
 4541SOL    HW115223   2.787   0.350   3.150  1.5546  0.7270  0.2562
 4541SOL    HW215224   2.679   0.260   3.068 -0.4204  2.0807  1.2831
 4542SOL     OW15225   5.492   4.616   5.990  0.3424 -0.1430 -0.5645
 4542SOL    HW115226   5.427   4.546   6.022  1.5095 -0.9523  0.1019
 4542SOL    HW215227   5.511   4.601   5.894  0.6806 -0.8384 -0.3988
 4543SOL     OW15228   4.153   1.667   0.512 -0.3763  0.4308  0.3746
 4543SOL    HW115229   4.201   1.753   0.532  0.1302 -0.1105  1.6313
 4543SOL    HW215230   4.071   1.661   0.568  0.3509 -0.5192  1.3994
 4544SOL     OW15231   2.474   1.314   4.570  0.0389 -0.0698 -0.2768
 4544SOL    HW115232   2.451   1.277   4.479  0.4646  0.3433 -0.5530
 4544SOL    HW215233   2.417   1.393   4.589 -0.9442 -0.9023  0.3592
 4545SOL     OW15234   5.799   2.065   6.808 -0.2240 -0.6158 -0.2534
 4545SOL    HW115235   5.710   2.078   6.851 -0.1207 -2.0161  0.4402
 4545SOL    HW215236   5.849   1.992   6.855  1.3826  0.2893 -0.4965
 4546SOL     OW15237   5.509   5.598   5.331 -0.0643 -0.0755  0.0732
 4546SOL    HW115238   5.465   5.549   5.407  0.5144  0.1344  0.5556
 4546SOL    HW215239   5.555   5.680   5.367  0.7790 -0.3321 -0.3963
 4547SOL     OW15240   2.270   1.446   6.865 -0.1735 -0.2682 -0.3711
 4547SOL    HW115241   2.340   1.392   6.912 -0.7877  0.0832  1.0095
 4547SOL    HW215242   2.312   1.497   6.790  1.4616  1.3706  1.5477
 4548SOL     OW15243   6.370   4.315   4.262 -0.0292 -0.3170  0.2725
 4548SOL    HW115244   6.393   4.220   4.242  0.1736 -0.4244  0.9757
 4548SOL    HW215245   6.446   4.359   4.310  0.3395  0.5471 -1.0624
 4549SOL     OW15246   2.620   0.307   7.019 -0.0128 -0.4887 -0.2570
 4549SOL    HW115247   2.672   0.276   7.098  1.2660  1.6466 -0.1729
 4549SOL    HW215248   2.532   0.343   7.049  0.5288  0.4527  0.2442
 4550SOL     OW15249   4.409   3.063   1.920  0.0209  0.4536  0.1941
 4550SOL    HW115250   4.457   3.113   1.848 -0.9980  1.2292  0.0270
 4550SOL    HW215251   4.396   3.124   1.999  1.2147 -0.4156  1.0889
 4551SOL     OW15252   3.817   5.452   6.547  0.3130 -0.4639 -0.0223
 4551SOL    HW115253   3.854   5.363   6.576 -0.3837 -0.6211  0.4207
 4551SOL    HW215254   3.892   5.512   6.521  1.1059 -0.0571  2.7986
 4552SOL     OW15255   6.330   6.917   2.026 -0.1347  0.0601 -0.2258
 4552SOL    HW115256   6.278   6.922   2.111 -0.4839  0.7450 -0.4709
 4552SOL    HW215257   6.417   6.965   2.037  0.0843 -0.3642 -0.0762
 4553SOL     OW15258   0.935   6.169   4.123  0.0340  0.2871 -0.5593
 4553SOL    HW115259   1.001   6.112   4.074  0.2806 -0.1755  0.2729
 4553SOL    HW215260   0.953   6.265   4.103  2.7795  0.3954  1.6917
 4554SOL     OW15261   6.177   1.069   1.876  0.0786 -0.3189  0.2274
 4554SOL    HW115262   6.082   1.066   1.909 -0.3010  1.8466 -0.5419
 4554SOL    HW215263   6.201   0.979   1.838 -1.3839 -1.1402  1.1334
 4555SOL     OW15264   0.279   3.962   3.723  0.0096 -0.5704 -0.6137
 4555SOL    HW115265   0.331   3.954   3.638  1.0510  0.7230 -0.1284
 4555SOL    HW215266   0.268   4.058   3.747  0.3872 -0.9178  1.1020
 4556SOL     OW15267   6.516   2.562   3.416 -0.3995 -0.6569 -0.2623
 4556SOL    HW115268   6.499   2.577   3.513  0.4938 -1.7167  0.0785
 4556SOL    HW215269   6.543   2.649   3.373  0.3629 -0.3958  0.6965
 4557SOL     OW15270   5.537   5.961   0.159  0.3356 -0.6133  0.1026
 4557SOL    HW115271   5.508   5.872   0.195 -2.1639  0.2661  0.4918
 4557SOL    HW215272   5.566   6.020   0.235  2.2109 -1.1209 -0.1765
 4558SOL     OW15273   1.810   2.324   1.041  0.2472  0.2585  0.3302
 4558SOL    HW115274   1.823   2.303   0.944 -0.9428  1.0620 -0.0194
 4558SOL    HW215275   1.733   2.272   1.077 -0.0065  0.7870  0.5604
 4559SOL     OW15276   5.746   2.405   6.553 -0.2596 -0.5012 -0.2574
 4559SOL    HW115277   5.681   2.347   6.502  1.3896 -1.7913 -0.9960
 4559SOL    HW215278   5.796   2.463   6.489 -0.6508  0.4846  0.3072
 4560SOL     OW15279   4.432   6.029   4.121 -0.3853  0.1572  0.5010
 4560SOL    HW115280   4.477   6.108   4.078 -0.0018  0.9833  2.3000
 4560SOL    HW215281   4.387   6.059   4.205 -1.7996 -1.2328  0.2743
 4561SOL     OW15282   2.236   0.129   2.050  0.1749 -0.3262 -0.3287
 4561SOL    HW115283   2.145   0.111   2.087  0.9867  0.9184  2.5570
 4561SOL    HW215284   2.229   0.156   1.954 -2.5308  0.2688 -0.0343
 4562SOL     OW15285   0.951   2.304   0.130  0.0278  0.4947 -0.1624
 4562SOL    HW115286   1.036   2.354   0.110  0.3290  0.2571  0.5065
 4562SOL    HW215287   0.952   2.273   0.225 -0.5237 -0.0758 -0.3361
 4563SOL     OW15288   2.692   1.423   0.345  0.0165  0.4878 -0.4430
 4563SOL    HW115289   2.722   1.476   0.266 -1.3391  0.1195 -1.2409
 4563SOL    HW215290   2.751   1.344   0.357  0.8899  1.1322 -0.4119
 4564SOL     OW15291   5.531   3.153   6.597  0.1956 -0.2282 -0.3432
 4564SOL    HW115292   5.585   3.069   6.586 -0.6474 -0.8609  0.2089
 4564SOL    HW215293   5.589   3.224   6.638  0.5688 -0.9568  0.4463
 4565SOL     OW15294   5.523   1.547   4.891 -0.3834 -0.7167 -0.0632
 4565SOL    HW115295   5.576   1.471   4.930  1.9961  0.9202  0.0905
 4565SOL    HW215296   5.529   1.543   4.791  1.7522  0.5146 -0.0390
 4566SOL     OW15297   1.551   4.544   2.628 -0.0638 -0.6771 -0.4324
 4566SOL    HW115298   1.475   4.559   2.692 -0.6706 -0.6568 -1.1371
 4566SOL    HW215299   1.584   4.632   2.595  1.0625 -0.6302  0.7611
 4567SOL     OW15300   1.247   3.897   1.417  0.0737 -0.4695 -0.7113
 4567SOL    HW115301   1.168   3.839   1.438  0.0897 -0.4319 -0.5445
 4567SOL    HW215302   1.229   3.949   1.334  0.0086 -0.6212 -0.7919
 4568SOL     OW15303   4.261   0.539   0.976 -0.0736 -0.2161  0.3519
 4568SOL    HW115304   4.249   0.509   0.881 -0.8626  0.6213  0.1625
 4568SOL    HW215305   4.185   0.599   1.001  0.2121 -0.3027  1.4702
 4569SOL     OW15306   7.018   6.078   6.663 -0.1770 -0.2315  0.1306
 4569SOL    HW115307   7.102   6.026   6.654  0.6783  0.3758  3.5058
 4569SOL    HW215308   6.946   6.020   6.701 -0.2163  0.1705  0.6755
 4570SOL     OW15309   2.521   6.063   4.541  0.3805  0.3346  0.4822
 4570SOL    HW115310   2.434   6.078   4.588 -0.5324 -1.2960 -0.5937
 4570SOL    HW215311   2.586   6.021   4.604 -0.5930 -1.1641  0.5354
 4571SOL     OW15312   1.315   0.433   5.602 -0.4117  0.4918 -0.0800
 4571SOL    HW115313   1.249   0.496   5.643 -0.4776  0.9157 -0.8310
 4571SOL    HW215314   1.335   0.461   5.508  0.0809 -0.2098 -0.1943
 4572SOL     OW15315   2.472   0.827   5.631 -0.0009 -0.2476  0.0666
 4572SOL    HW115316   2.545   0.890   5.657 -0.5571  1.0148 -1.3207
 4572SOL    HW215317   2.417   0.867   5.558 -2.5812 -0.8409  1.5566
 4573SOL     OW15318   1.933   3.564   5.052 -0.3769 -0.1665  0.8111
 4573SOL    HW115319   1.899   3.642   5.105 -0.5436 -0.2862  0.8815
 4573SOL    HW215320   1.980   3.501   5.113 -0.6766 -0.3652  0.8378
 4574SOL     OW15321   4.690   2.350   5.793  0.4592  0.3880 -0.2199
 4574SOL    HW115322   4.606   2.404   5.783  0.4579  0.3910 -0.1937
 4574SOL    HW215323   4.736   2.374   5.878  1.1196  1.2634 -0.8076
 4575SOL     OW15324   1.557   0.464   2.427 -0.0033 -0.4145 -0.3623
 4575SOL    HW115325   1.574   0.391   2.362  0.8195 -0.7454  0.2000
 4575SOL    HW215326   1.528   0.547   2.379  1.7453 -0.2889 -1.2814
 4576SOL     OW15327   5.312   6.239   3.999 -0.1819 -0.0946  0.0751
 4576SOL    HW115328   5.361   6.168   3.949  0.7593  0.9437 -0.5441
 4576SOL    HW215329   5.350   6.248   4.091 -0.0356 -0.1236  0.0175
 4577SOL     OW15330   6.650   0.287   5.500  0.0586 -0.1077 -0.5294
 4577SOL    HW115331   6.619   0.368   5.549 -1.8869 -1.3330  0.4077
 4577SOL    HW215332   6.698   0.314   5.417 -1.5599  1.9932 -0.8493
 4578SOL     OW15333   6.868   1.346   0.863 -0.3442  0.1914 -0.6505
 4578SOL    HW115334   6.946   1.351   0.926 -0.1534 -0.3972 -0.8377
 4578SOL    HW215335   6.806   1.274   0.891 -0.3872  0.0942 -0.9851
 4579SOL     OW15336   4.687   2.855   0.556  0.2608 -0.5629 -0.2047
 4579SOL    HW115337   4.674   2.939   0.607 -2.6573 -0.1518 -1.3984
 4579SOL    HW215338   4.701   2.876   0.459 -0.4770 -1.3974 -0.5135
 4580SOL     OW15339   3.253   6.515   1.950 -0.6751 -0.1078  0.1449
 4580SOL    HW115340   3.183   6.519   1.879 -1.8856 -3.0243  1.0228
 4580SOL    HW215341   3.343   6.498   1.908 -0.8503  1.2307 -0.8278
 4581SOL     OW15342   3.705   2.435   6.251  0.0245 -0.1206 -0.0139
 4581SOL    HW115343   3.788   2.403   6.207  0.6151  0.9691  0.2789
 4581SOL    HW215344   3.626   2.407   6.197  0.7642  2.1501 -2.4514
 4582SOL     OW15345   4.660   0.591   2.007  0.7627 -0.6681  0.6632
 4582SOL    HW115346   4.646   0.521   1.937  0.9201 -0.4464  0.4082
 4582SOL    HW215347   4.611   0.564   2.091 -0.6434 -0.2473  0.0163
 4583SOL     OW15348   4.333   0.225   2.580 -0.2425  0.0718  0.2549
 4583SOL    HW115349   4.385   0.163   2.521  0.2679  1.9431 -1.3865
 4583SOL    HW215350   4.246   0.246   2.537  0.3570  1.8694 -0.1574
 4584SOL     OW15351   3.502   3.288   6.742  0.6352 -0.1944 -0.6148
 4584SOL    HW115352   3.500   3.188   6.741 -2.4748 -0.2137 -1.7867
 4584SOL    HW215353   3.450   3.323   6.664  0.9290  2.3586  0.2528
 4585SOL     OW15354   3.240   2.833   5.945 -0.0063  0.0703  0.0853
 4585SOL    HW115355   3.159   2.872   5.989  0.1191 -1.9179  2.2819
 4585SOL    HW215356   3.321   2.882   5.977 -0.2629  2.0706 -2.1257
 4586SOL     OW15357   2.615   1.895   4.380 -0.2785  0.3595  0.5443
 4586SOL    HW115358   2.615   1.796   4.368  0.7918  0.2933  0.9702
 4586SOL    HW215359   2.521   1.930   4.375 -0.6765 -0.6906  0.5488
 4587SOL     OW15360   2.935   5.592   6.913  0.3865  0.4883 -0.2878
 4587SOL    HW115361   2.904   5.679   6.873 -0.5121 -0.0395 -0.7777
 4587SOL    HW215362   2.883   5.572   6.995  0.2688  0.1915 -0.4322
 4588SOL     OW15363   2.953   0.730   2.002  0.5106  0.1130  0.0948
 4588SOL    HW115364   2.936   0.641   2.043 -0.3292  0.5290  0.6624
 4588SOL    HW215365   3.050   0.737   1.977  0.5013 -1.1035 -0.3348
 4589SOL     OW15366   3.335   4.999   0.981  0.4352 -0.3841  0.2562
 4589SOL    HW115367   3.238   4.975   0.980 -0.0725  1.3614  1.7728
 4589SOL    HW215368   3.345   5.097   0.998  2.4812 -0.4608 -0.2180
 4590SOL     OW15369   6.011   2.423   2.666  0.4837 -0.1694 -1.0367
 4590SOL    HW115370   6.101   2.458   2.691  0.7968 -0.8274 -1.2395
 4590SOL    HW215371   5.972   2.374   2.745 -1.1741  2.9522  0.2737
 4591SOL     OW15372   5.737   1.036   1.433 -0.0972 -0.0435 -0.0720
 4591SOL    HW115373   5.835   1.042   1.416  0.0153  1.0244  0.8467
 4591SOL    HW215374   5.687   1.076   1.355  0.1356 -1.3891 -0.9485
 4592SOL     OW15375   5.925   5.963   5.490 -0.4015 -0.6119  0.2517
 4592SOL    HW115376   5.898   5.897   5.560  2.6033 -1.3326  0.8899
 4592SOL    HW215377   5.997   6.022   5.526  0.5155 -0.3200 -1.8798
 4593SOL     OW15378   6.161   0.563   4.683  0.0640 -0.4545  0.2756
 4593SOL    HW115379   6.163   0.502   4.604 -0.1201 -1.1352  0.7938
 4593SOL    HW215380   6.225   0.639   4.668 -1.4937  0.5925 -1.4440
 4594SOL     OW15381   5.410   6.361   6.126 -0.3472 -0.0790 -0.3222
 4594SOL    HW115382   5.444   6.350   6.033  3.4663 -1.1449  1.0243
 4594SOL    HW215383   5.327   6.307   6.138  0.0058 -1.2673 -2.6571
 4595SOL     OW15384   0.892   3.483   0.645  0.2077 -0.0222 -0.0023
 4595SOL    HW115385   0.958   3.504   0.573 -0.3264  1.1455 -0.1866
 4595SOL    HW215386   0.799   3.501   0.611  0.0503  3.1637  1.7445
 4596SOL     OW15387   1.835   5.631   1.129 -0.6238  0.0944 -0.5840
 4596SOL    HW115388   1.921   5.637   1.078 -0.5795  2.7741 -0.3104
 4596SOL    HW215389   1.806   5.535   1.132  1.7877 -0.7644 -1.5578
 4597SOL     OW15390   0.176   6.569   0.684 -0.1031 -0.0746 -0.0449
 4597SOL    HW115391   0.247   6.615   0.736  0.1387 -2.5004  1.9352
 4597SOL    HW215392   0.216   6.527   0.603  0.2132  0.6153 -0.2576
 4598SOL     OW15393   2.498   5.870   6.869  0.4933  0.3233 -0.1754
 4598SOL    HW115394   2.419   5.811   6.857  0.2393  0.3332  1.3358
 4598SOL    HW215395   2.569   5.844   6.804 -0.9255  0.6926 -1.9630
 4599SOL     OW15396   0.549   0.224   1.130 -0.2194  0.3234  0.4036
 4599SOL    HW115397   0.520   0.241   1.036 -0.1591 -0.4807  0.2311
 4599SOL    HW215398   0.633   0.169   1.130 -0.7402 -0.4979  0.9228
 4600SOL     OW15399   6.802   3.159   3.248 -0.1019 -0.4817 -0.0287
 4600SOL    HW115400   6.725   3.117   3.199  0.2858 -2.1603  0.7339
 4600SOL    HW215401   6.794   3.139   3.345  1.6864 -1.3723 -0.0193
 4601SOL     OW15402   0.345   0.343   0.160  0.7371 -0.0012 -0.3030
 4601SOL    HW115403   0.410   0.390   0.220  1.2492 -0.3439 -0.5828
 4601SOL    HW215404   0.395   0.296   0.087  0.6326 -4.0990  1.9632
 4602SOL     OW15405   0.375   4.876   0.763 -0.3294 -0.1469 -0.0779
 4602SOL    HW115406   0.405   4.858   0.856  0.4676 -0.2899 -0.3523
 4602SOL    HW215407   0.429   4.820   0.699 -0.0904  0.7796 -0.7046
 4603SOL     OW15408   6.788   2.783   5.789  0.1797  0.0165  0.0150
 4603SOL    HW115409   6.836   2.695   5.799  1.0807  0.5096  0.1774
 4603SOL    HW215410   6.825   2.832   5.710 -1.1253 -0.2306 -0.7897
 4604SOL     OW15411   4.893   2.871   6.243  0.1582  0.0121 -0.0525
 4604SOL    HW115412   4.844   2.845   6.160  0.4217 -0.7556  0.0171
 4604SOL    HW215413   4.921   2.967   6.238 -0.1653  0.0736 -0.6786
 4605SOL     OW15414   6.648   0.993   2.264  0.1576  0.0039  0.2984
 4605SOL    HW115415   6.557   1.002   2.223  0.2742 -0.2397 -0.0164
 4605SOL    HW215416   6.705   0.936   2.206  1.1683  1.8466 -0.5754
 4606SOL     OW15417   4.361   0.142   5.558 -0.6030  0.0687 -0.2659
 4606SOL    HW115418   4.357   0.092   5.471 -1.0287  2.0716 -1.4554
 4606SOL    HW215419   4.393   0.080   5.630 -1.7057 -2.0783 -1.4966
 4607SOL     OW15420   4.565   5.345   6.092  0.0512 -0.1680 -0.1656
 4607SOL    HW115421   4.560   5.438   6.058 -2.8354 -0.1426  0.0945
 4607SOL    HW215422   4.630   5.341   6.168 -2.0412  2.4434  1.9772
 4608SOL     OW15423   4.662   5.208   1.492  0.2808  0.1078 -0.3568
 4608SOL    HW115424   4.698   5.258   1.571  1.0452 -1.1732  0.1347
 4608SOL    HW215425   4.573   5.169   1.515  0.7923 -0.8047  0.1049
 4609SOL     OW15426   1.963   1.658   3.454 -0.3270  0.2634 -0.1286
 4609SOL    HW115427   1.994   1.648   3.549  0.6714 -0.4946 -0.5162
 4609SOL    HW215428   1.972   1.754   3.426  2.7923 -0.0494 -0.5479
 4610SOL     OW15429   3.427   4.132   0.816 -0.1583  0.1796  0.6305
 4610SOL    HW115430   3.425   4.039   0.852  0.1791 -0.0762  0.0063
 4610SOL    HW215431   3.520   4.154   0.786 -0.3267  0.5606  0.3800
 4611SOL     OW15432   5.153   0.214   1.414  0.1238  0.0198  0.2382
 4611SOL    HW115433   5.131   0.156   1.336  1.0377 -0.6979  0.4941
 4611SOL    HW215434   5.113   0.304   1.401 -1.9607 -0.8668  0.1745
 4612SOL     OW15435   5.602   6.181   1.947  0.0660  0.1995 -0.7536
 4612SOL    HW115436   5.611   6.108   1.880 -0.1318  0.5031 -1.1169
 4612SOL    HW215437   5.653   6.157   2.030 -0.3916 -0.5677 -0.6814
 4613SOL     OW15438   0.358   3.683   1.214  0.3158 -0.0531  0.1300
 4613SOL    HW115439   0.404   3.599   1.243  1.8051  1.2288  1.7286
 4613SOL    HW215440   0.259   3.672   1.223  0.5740 -0.6820  3.3787
 4614SOL     OW15441   3.702   4.254   5.167 -0.2856  0.2760 -0.4379
 4614SOL    HW115442   3.633   4.211   5.225 -1.1392  1.1062 -0.8070
 4614SOL    HW215443   3.752   4.322   5.220 -0.0377 -0.0205 -0.2866
 4615SOL     OW15444   5.871   1.718   6.432  0.2490 -0.7993 -0.0533
 4615SOL    HW115445   5.855   1.800   6.487 -0.9527 -0.3066 -1.0921
 4615SOL    HW215446   5.783   1.681   6.402  0.8441 -1.7218 -0.6905
 4616SOL     OW15447   0.790   0.949   4.520  0.0697  0.3783 -0.0189
 4616SOL    HW115448   0.705   0.933   4.468  0.6653  0.1482 -0.9464
 4616SOL    HW215449   0.855   0.876   4.501  0.7001  0.8637  0.2240
 4617SOL     OW15450   1.261   2.168   1.297  0.1951  0.4235  0.3874
 4617SOL    HW115451   1.224   2.076   1.287  2.1756 -0.2732 -1.1852
 4617SOL    HW215452   1.240   2.202   1.389 -1.4761 -1.1390  0.6538
 4618SOL     OW15453   0.836   5.188   3.221 -0.0332 -0.1814  0.2732
 4618SOL    HW115454   0.839   5.278   3.178  0.6833  0.0850  0.8447
 4618SOL    HW215455   0.924   5.169   3.265 -0.1933 -1.1369  0.2174
 4619SOL     OW15456   3.651   4.641   6.026  0.5736 -0.3568 -0.0982
 4619SOL    HW115457   3.632   4.544   6.037 -0.3663 -0.6960 -3.5709
 4619SOL    HW215458   3.565   4.692   6.019  1.0467  0.8307  1.8127
 4620SOL     OW15459   6.837   0.611   2.921  0.4524  0.2883  0.0365
 4620SOL    HW115460   6.825   0.710   2.908  0.5196  0.3327  0.3125
 4620SOL    HW215461   6.893   0.575   2.846 -2.3070 -0.1460 -1.9770
 4621SOL     OW15462   3.988   1.540   5.841  0.0989  0.3953  0.0065
 4621SOL    HW115463   3.987   1.489   5.755  1.1419  2.8626 -1.5798
 4621SOL    HW215464   3.979   1.476   5.918  0.2834 -2.0094 -1.8533
 4622SOL     OW15465   4.958   3.395   3.951 -0.5191 -0.0424  0.4740
 4622SOL    HW115466   5.048   3.435   3.934 -1.2778  2.1403  1.2440
 4622SOL    HW215467   4.887   3.462   3.929 -1.8606 -0.6636  2.6087
 4623SOL     OW15468   4.134   0.845   2.495  0.2049  0.3363  0.1134
 4623SOL    HW115469   4.207   0.910   2.475  0.7649 -0.5705 -0.8563
 4623SOL    HW215470   4.163   0.752   2.470 -1.2132 -0.0699 -0.1199
 4624SOL     OW15471   1.730   6.496   4.387  0.3350  0.0052  0.4250
 4624SOL    HW115472   1.694   6.521   4.477 -0.1114 -0.4274  0.3676
 4624SOL    HW215473   1.669   6.431   4.343  0.0274  0.9740 -0.6164
 4625SOL     OW15474   5.699   0.264   3.095 -0.1180 -0.1092 -0.2178
 4625SOL    HW115475   5.668   0.174   3.063  0.9125 -0.7245  0.4642
 4625SOL    HW215476   5.708   0.325   3.016 -2.9428  0.1078 -0.4805
 4626SOL     OW15477   6.041   0.459   2.426  0.4716 -0.0904 -0.3486
 4626SOL    HW115478   6.025   0.371   2.381  1.9105 -0.5251 -0.0556
 4626SOL    HW215479   5.998   0.532   2.374  0.4663 -0.8043 -1.3619
 4627SOL     OW15480   3.825   1.931   6.824  0.1891  0.2563 -0.2771
 4627SOL    HW115481   3.817   1.857   6.758 -0.2192 -1.5193  1.6560
 4627SOL    HW215482   3.915   1.927   6.868  0.5320  1.5301 -0.8158
 4628SOL     OW15483   0.377   2.058   5.319 -0.0947  0.7366 -0.2359
 4628SOL    HW115484   0.393   2.038   5.416 -0.6965  1.4331  0.0220
 4628SOL    HW215485   0.368   1.973   5.268 -2.0434  0.2962  0.7340
 4629SOL     OW15486   0.249   2.484   5.444  0.2066 -0.1172 -0.6885
 4629SOL    HW115487   0.317   2.445   5.506 -1.8160  0.8953  2.4412
 4629SOL    HW215488   0.203   2.410   5.394  1.1246 -1.1090 -0.1023
 4630SOL     OW15489   2.890   3.029   3.190 -0.6581 -0.4660 -0.3816
 4630SOL    HW115490   2.797   2.994   3.177 -0.5232 -0.7054 -0.7209
 4630SOL    HW215491   2.891   3.128   3.173 -0.6199 -0.6578 -1.5646
 4631SOL     OW15492   4.860   0.933   1.000 -1.0330 -0.0540  0.2377
 4631SOL    HW115493   4.787   0.865   1.008 -0.1854 -1.3996 -2.4598
 4631SOL    HW215494   4.882   0.948   0.904  2.1941  0.3338  0.9239
 4632SOL     OW15495   3.262   0.198   1.435 -0.2669 -0.1421  0.1578
 4632SOL    HW115496   3.270   0.281   1.490 -0.0837  0.6999 -1.0847
 4632SOL    HW215497   3.173   0.198   1.388  0.2444 -0.0097 -0.8317
 4633SOL     OW15498   4.422   3.707   4.996  0.1513  0.5880 -0.2007
 4633SOL    HW115499   4.411   3.614   4.961 -0.9364 -0.7802  3.3356
 4633SOL    HW215500   4.332   3.747   5.012  0.6172  1.9350 -0.8739
 4634SOL     OW15501   0.916   6.628   4.698  0.3163  0.7913 -0.1154
 4634SOL    HW115502   0.950   6.559   4.762  0.5362  0.5723 -0.4619
 4634SOL    HW215503   0.993   6.675   4.655  0.2001  0.3116 -0.8839
 4635SOL     OW15504   4.239   2.428   0.382 -0.3149 -0.2592 -0.1731
 4635SOL    HW115505   4.310   2.499   0.384  0.2290 -0.7609 -0.9948
 4635SOL    HW215506   4.233   2.390   0.290 -0.0544 -1.8166  0.4215
 4636SOL     OW15507   1.926   1.105   1.737  0.4406 -0.4175  0.0402
 4636SOL    HW115508   1.878   1.126   1.823 -0.8038  0.3737 -0.8248
 4636SOL    HW215509   2.011   1.156   1.733 -0.2891  0.8274  0.0855
 4637SOL     OW15510   3.456   3.357   5.821  0.3817  0.2850 -0.1284
 4637SOL    HW115511   3.399   3.276   5.838  1.8787 -1.0745 -1.3291
 4637SOL    HW215512   3.422   3.406   5.741  1.7286 -1.4173 -1.8266
 4638SOL     OW15513   0.404   5.141   3.246 -0.2392  0.3203  0.6688
 4638SOL    HW115514   0.454   5.182   3.323 -1.8602  1.3947  1.2084
 4638SOL    HW215515   0.341   5.072   3.281  1.0066 -1.2188 -0.0346
 4639SOL     OW15516   1.016   5.212   2.487  0.2212  0.3363  0.3845
 4639SOL    HW115517   1.051   5.122   2.462  2.3056  1.5582 -1.4617
 4639SOL    HW215518   1.005   5.268   2.405  1.2533  2.5192  1.6225
 4640SOL     OW15519   1.641   4.940   6.389  0.2280  0.3893 -0.2267
 4640SOL    HW115520   1.613   5.032   6.416  0.6802  0.2256  0.8574
 4640SOL    HW215521   1.624   4.877   6.464 -2.3367 -0.9206 -1.7474
 4641SOL     OW15522   6.786   3.134   0.931 -0.0440  0.3038  1.2184
 4641SOL    HW115523   6.699   3.131   0.981 -0.5609 -2.6146  0.3042
 4641SOL    HW215524   6.785   3.065   0.858  1.1016  3.4926 -2.1665
 4642SOL     OW15525   6.270   5.510   5.473  0.2159  0.3368  0.4448
 4642SOL    HW115526   6.249   5.598   5.515 -1.1998  0.6282 -0.7706
 4642SOL    HW215527   6.197   5.445   5.494  0.7581 -0.2549  0.5191
 4643SOL     OW15528   5.678   6.481   3.610 -0.8586 -0.4327 -0.4157
 4643SOL    HW115529   5.694   6.414   3.682 -1.0637  0.5396  0.5591
 4643SOL    HW215530   5.711   6.445   3.523  1.7970 -0.6358  0.5897
 4644SOL     OW15531   4.266   5.288   2.090 -0.4979 -0.0588 -0.6458
 4644SOL    HW115532   4.359   5.255   2.074  0.1166  0.3348  1.6960
 4644SOL    HW215533   4.207   5.261   2.014  2.4199  3.6258 -4.7177
 4645SOL     OW15534   2.222   4.488   1.217 -0.0185  0.4354 -0.4731
 4645SOL    HW115535   2.174   4.576   1.215 -0.0532  0.4314  0.1503
 4645SOL    HW215536   2.157   4.414   1.199 -0.3795  0.3777  0.9829
 4646SOL     OW15537   4.770   6.660   5.187 -0.4708  0.6606  0.5485
 4646SOL    HW115538   4.794   6.737   5.247  0.5661  0.1852  0.7776
 4646SOL    HW215539   4.700   6.689   5.122 -1.1453  1.3812  1.5552
 4647SOL     OW15540   4.954   2.906   5.826  0.3859  0.4649  0.3195
 4647SOL    HW115541   4.914   2.838   5.764 -2.0342  0.9000  1.2898
 4647SOL    HW215542   5.016   2.860   5.889 -0.8707 -0.8356  0.6804
 4648SOL     OW15543   5.740   2.353   6.834  0.0956 -0.3357 -0.2112
 4648SOL    HW115544   5.671   2.281   6.839  1.1201 -1.2637  1.4848
 4648SOL    HW215545   5.767   2.366   6.739 -2.7986  0.5088 -1.0436
 4649SOL     OW15546   6.240   3.691   6.568  0.5661 -0.3578  0.1927
 4649SOL    HW115547   6.332   3.658   6.589  1.5440  2.0883  0.1093
 4649SOL    HW215548   6.241   3.740   6.481 -0.8716 -0.4420  0.1052
 4650SOL     OW15549   6.444   6.168   3.542 -0.6150 -0.1241 -0.1587
 4650SOL    HW115550   6.371   6.104   3.567 -0.6452  0.0871  0.3115
 4650SOL    HW215551   6.519   6.160   3.607 -0.4016 -0.0447 -0.3972
 4651SOL     OW15552   3.355   3.437   4.151  0.2740  0.8480 -0.1285
 4651SOL    HW115553   3.382   3.408   4.060 -0.5111 -1.0511  0.1969
 4651SOL    HW215554   3.436   3.442   4.210  0.5167 -0.0321 -0.3789
 4652SOL     OW15555   5.137   3.279   5.929  0.1389  0.4108  0.0939
 4652SOL    HW115556   5.163   3.187   5.958 -0.9161  0.5171  1.4552
 4652SOL    HW215557   5.197   3.346   5.973  0.9201  0.4076 -0.9129
 4653SOL     OW15558   4.753   2.926   0.047 -0.0785  0.1874  0.1182
 4653SOL    HW115559   4.753   2.970  -0.042  1.3585  0.0185  0.0100
 4653SOL    HW215560   4.839   2.875   0.059 -1.0361 -1.3268  0.8466
 4654SOL     OW15561   5.489   6.630   1.773 -0.3460  0.4421  0.1265
 4654SOL    HW115562   5.462   6.534   1.766 -2.8261  1.1664 -1.4249
 4654SOL    HW215563   5.552   6.652   1.699  0.4338 -0.0090  0.6361
 4655SOL     OW15564   6.794   6.167   2.457  0.1586 -0.0086 -0.2295
 4655SOL    HW115565   6.889   6.141   2.438  0.2607 -0.3156  0.6837
 4655SOL    HW215566   6.783   6.265   2.445  0.4956 -0.0269 -0.7173
 4656SOL     OW15567   6.048   3.532   2.757  0.1763  0.4813  0.2737
 4656SOL    HW115568   6.146   3.524   2.744 -0.0616  0.2154 -1.6481
 4656SOL    HW215569   6.013   3.609   2.704 -0.5160  1.3768  1.9330
 4657SOL     OW15570   5.429   0.133   5.171  0.0877  0.6229 -0.3742
 4657SOL    HW115571   5.375   0.194   5.113  1.7594  1.9198 -0.6244
 4657SOL    HW215572   5.431   0.168   5.264 -0.3250  0.0239 -0.1350
 4658SOL     OW15573   4.718   6.627   1.085 -0.1096 -0.5838  0.3188
 4658SOL    HW115574   4.736   6.566   1.162  0.8482  1.3140  1.6800
 4658SOL    HW215575   4.620   6.629   1.066 -0.4322 -0.7389  1.8423
 4659SOL     OW15576   2.488   3.313   0.296  0.0668  0.0869  0.2489
 4659SOL    HW115577   2.567   3.263   0.261 -1.2867 -1.6492 -0.4457
 4659SOL    HW215578   2.507   3.344   0.389  0.7141 -2.3996  1.0187
 4660SOL     OW15579   4.518   0.083   1.346  0.5239 -0.4078  0.5125
 4660SOL    HW115580   4.613   0.055   1.331  0.6602  0.2124  0.2080
 4660SOL    HW215581   4.476   0.022   1.413  1.2227 -0.5155  0.8608
 4661SOL     OW15582   6.485   5.800   1.231  0.3404  0.3478  0.0432
 4661SOL    HW115583   6.533   5.776   1.147 -1.6530 -1.0752 -0.7741
 4661SOL    HW215584   6.454   5.895   1.226 -0.8289 -0.0761 -1.4360
 4662SOL     OW15585   3.096   4.075   4.842  0.1775  0.6096  0.2360
 4662SOL    HW115586   3.135   3.989   4.874 -1.1470  0.1989  0.8295
 4662SOL    HW215587   3.021   4.102   4.903 -1.6529  0.4388 -1.8290
 4663SOL     OW15588   0.884   1.829   4.062 -0.4873  0.0619  0.4529
 4663SOL    HW115589   0.795   1.833   4.017 -2.1482 -4.0080  2.8259
 4663SOL    HW215590   0.947   1.775   4.007 -0.5623  0.1365  0.2934
 4664SOL     OW15591   1.468   5.386   5.053 -0.4321  0.2373  0.0243
 4664SOL    HW115592   1.452   5.312   5.119  1.7126  1.1336  1.6585
 4664SOL    HW215593   1.474   5.348   4.961 -0.2953 -1.4967  0.7124
 4665SOL     OW15594   0.298   6.054   5.539 -0.6432 -0.2089 -0.3095
 4665SOL    HW115595   0.282   6.111   5.620  1.0307 -2.8852  2.1058
 4665SOL    HW215596   0.381   6.084   5.493 -0.1770 -0.2193  0.5103
 4666SOL     OW15597   1.932   1.954   5.570  0.2353 -0.1070  0.4275
 4666SOL    HW115598   1.948   2.011   5.651 -0.9380 -1.2190  1.4947
 4666SOL    HW215599   1.837   1.924   5.570 -0.0021  0.4650 -1.7939
 4667SOL     OW15600   2.927   4.084   5.075  0.1963  0.1710  0.1792
 4667SOL    HW115601   2.898   3.994   5.107 -0.8259  0.2676 -0.4249
 4667SOL    HW215602   2.957   4.139   5.153  3.4956 -1.5728  0.2864
 4668SOL     OW15603   1.331   1.819   4.669  0.7265  0.5961  0.3731
 4668SOL    HW115604   1.297   1.865   4.750 -0.5498  1.8710 -0.8425
 4668SOL    HW215605   1.424   1.850   4.649  0.7229  0.9134  0.8378
 4669SOL     OW15606   0.350   5.497   1.379 -0.0157  0.2061  0.2512
 4669SOL    HW115607   0.336   5.424   1.312  3.3426 -0.3178 -0.0429
 4669SOL    HW215608   0.414   5.466   1.449 -0.4239  2.0867  1.5234
 4670SOL     OW15609   5.582   2.687   5.856  0.1674 -0.2237 -0.0163
 4670SOL    HW115610   5.654   2.683   5.925  1.6116 -1.1405 -1.5107
 4670SOL    HW215611   5.569   2.781   5.826  1.9601 -0.2305 -0.9146
 4671SOL     OW15612   2.959   4.054   3.694 -0.1679  0.5786 -0.6565
 4671SOL    HW115613   2.912   4.104   3.621  1.3484  0.8756 -1.4902
 4671SOL    HW215614   3.055   4.084   3.698  0.4590 -1.3165 -0.2976
 4672SOL     OW15615   1.097   3.011   0.412  0.0230  0.3749  0.4946
 4672SOL    HW115616   1.149   3.050   0.488 -0.8000 -2.3379  2.6140
 4672SOL    HW215617   1.001   3.037   0.421 -0.1399 -0.2587  0.6143
 4673SOL     OW15618   0.620   1.914   4.054  0.7116 -0.0215 -0.1270
 4673SOL    HW115619   0.637   1.986   3.987  1.3509  0.6358  0.7262
 4673SOL    HW215620   0.638   1.949   4.146  0.8816 -1.2272  0.3113
 4674SOL     OW15621   2.670   5.828   0.095  0.1970 -0.0442 -0.1453
 4674SOL    HW115622   2.767   5.825   0.070  0.5346 -0.8835  1.1777
 4674SOL    HW215623   2.617   5.861   0.017  1.5619  0.6667 -0.8173
 4675SOL     OW15624   2.503   2.203   5.479  0.1470  0.2319 -0.1901
 4675SOL    HW115625   2.495   2.194   5.578 -1.0298  1.4823 -0.1447
 4675SOL    HW215626   2.593   2.171   5.449  0.1243 -1.1956  1.1315
 4676SOL     OW15627   4.550   3.553   5.317  0.0953 -0.4847 -0.2851
 4676SOL    HW115628   4.587   3.542   5.225 -0.6366 -0.4324 -0.5934
 4676SOL    HW215629   4.545   3.650   5.339 -0.0667 -0.4826 -0.3310
 4677SOL     OW15630   5.910   3.090   6.965  0.1675  0.0378  0.8122
 4677SOL    HW115631   5.875   3.108   6.873  0.6991 -0.5476  0.4941
 4677SOL    HW215632   5.856   3.017   7.007  0.0930  0.1237  0.8663
 4678SOL     OW15633   0.672   5.530   2.109 -0.6442 -0.2218  0.2225
 4678SOL    HW115634   0.673   5.454   2.174  0.9681 -0.3924  0.0488
 4678SOL    HW215635   0.690   5.616   2.157 -0.3658 -0.2278  0.1291
 4679SOL     OW15636   3.321   2.341   0.315  0.1341 -0.0557  0.2764
 4679SOL    HW115637   3.284   2.427   0.279 -0.1028 -1.3708 -2.9426
 4679SOL    HW215638   3.421   2.345   0.315  0.1957  1.2279  3.1125
 4680SOL     OW15639   3.579   5.847   2.716  0.5915  0.6246  0.0479
 4680SOL    HW115640   3.622   5.784   2.651  1.4640  1.4803 -0.2264
 4680SOL    HW215641   3.491   5.809   2.746  0.9056 -0.5223 -0.4187
 4681SOL     OW15642   4.167   6.042   3.987  0.2179  0.2425 -0.2890
 4681SOL    HW115643   4.238   6.095   4.034  0.3878 -0.3232  0.0978
 4681SOL    HW215644   4.113   6.103   3.929 -1.7601  1.5292  2.6436
 4682SOL     OW15645   5.592   4.401   6.727  0.2212 -0.1282  0.1042
 4682SOL    HW115646   5.513   4.370   6.781  0.0964 -0.0881 -0.0560
 4682SOL    HW215647   5.650   4.322   6.706  1.2637  0.0959  1.8806
 4683SOL     OW15648   1.262   5.388   0.891  0.0400  0.0133  0.0339
 4683SOL    HW115649   1.336   5.411   0.954  0.7761 -2.7855  0.3218
 4683SOL    HW215650   1.240   5.468   0.835  4.0229  0.7252 -0.8116
 4684SOL     OW15651   3.568   0.740   4.571 -0.4562  0.0189 -0.1234
 4684SOL    HW115652   3.615   0.811   4.518  0.2365  0.3896  0.9518
 4684SOL    HW215653   3.501   0.783   4.632 -0.5299 -0.3178  0.0353
 4685SOL     OW15654   0.868   6.901   6.258  0.3095  0.4383 -0.2334
 4685SOL    HW115655   0.812   6.894   6.175  2.1394 -1.5870 -1.4001
 4685SOL    HW215656   0.849   6.988   6.304 -1.2642  1.3119 -2.3726
 4686SOL     OW15657   5.659   4.504   2.878 -0.0320  0.0008 -0.5202
 4686SOL    HW115658   5.573   4.493   2.927  1.3841 -1.4206  1.8313
 4686SOL    HW215659   5.683   4.418   2.833 -0.4428  0.7777 -2.3113
 4687SOL     OW15660   6.754   3.487   3.558  0.4675  0.0710  0.3393
 4687SOL    HW115661   6.755   3.550   3.636  1.6389 -0.0345  0.4322
 4687SOL    HW215662   6.705   3.529   3.482  1.8143  1.4312  0.1584
 4688SOL     OW15663   4.727   2.306   1.295  0.0920 -0.2369 -0.2434
 4688SOL    HW115664   4.815   2.259   1.293 -0.2185 -0.8672  0.5252
 4688SOL    HW215665   4.721   2.367   1.216  0.6186 -1.2683 -1.1156
 4689SOL     OW15666   1.566   2.232   0.011  0.0557 -0.6552  0.1953
 4689SOL    HW115667   1.525   2.309   0.060 -0.2482  0.7510 -2.1263
 4689SOL    HW215668   1.523   2.223  -0.079  0.3759 -3.3215  0.2169
 4690SOL     OW15669   4.431   3.352   4.086 -0.6408  0.6256  0.0336
 4690SOL    HW115670   4.337   3.367   4.055 -1.1502  0.2928  1.3568
 4690SOL    HW215671   4.447   3.255   4.100 -0.0637  0.6733 -0.2663
 4691SOL     OW15672   1.739   6.276   3.992  0.4222  0.0448 -0.1700
 4691SOL    HW115673   1.826   6.288   3.944  1.3761 -0.6507  1.3080
 4691SOL    HW215674   1.687   6.361   3.987  2.3688  1.4261  1.1568
 4692SOL     OW15675   2.640   1.718   1.697  0.0439  0.4577 -0.0271
 4692SOL    HW115676   2.702   1.679   1.630  0.2719  0.6354  0.0816
 4692SOL    HW215677   2.688   1.731   1.783 -0.3874 -0.2708  0.3381
 4693SOL     OW15678   2.167   4.205   5.913 -0.2643 -0.4312 -0.0742
 4693SOL    HW115679   2.167   4.283   5.850  0.8356 -0.3687 -0.0122
 4693SOL    HW215680   2.261   4.173   5.927 -0.4033 -0.1009  1.9624
 4694SOL     OW15681   0.827   5.014   3.792  0.0986  0.2587  0.0362
 4694SOL    HW115682   0.915   5.060   3.802  1.5492 -2.4455  0.6415
 4694SOL    HW215683   0.812   4.992   3.695  1.3478 -1.4604  0.1935
 4695SOL     OW15684   0.104   0.878   5.920  0.4162 -0.2939 -0.8560
 4695SOL    HW115685   0.087   0.844   5.827 -1.7340 -1.6774 -0.0341
 4695SOL    HW215686   0.024   0.929   5.952  1.7212  1.4739 -0.2674
 4696SOL     OW15687   0.161   4.630   3.201  0.0879  0.4930 -0.2195
 4696SOL    HW115688   0.129   4.626   3.106 -2.6683  1.1380  0.5904
 4696SOL    HW215689   0.092   4.675   3.257  1.3407 -0.4984  2.2522
 4697SOL     OW15690   3.077   0.825   1.299 -0.0630 -0.7790  0.2488
 4697SOL    HW115691   3.123   0.913   1.289 -1.0867 -0.3564 -1.0650
 4697SOL    HW215692   3.066   0.804   1.396 -1.7416  1.6200  0.6879
 4698SOL     OW15693   6.059   5.140   0.994 -0.5785 -0.0061  0.4459
 4698SOL    HW115694   6.107   5.174   1.074  0.0387 -0.5006  0.2979
 4698SOL    HW215695   5.962   5.130   1.015 -0.6170  0.9650  0.7643
 4699SOL     OW15696   6.200   2.568   2.848 -0.2994  0.5076  0.2305
 4699SOL    HW115697   6.226   2.489   2.905  0.5553  0.6514  0.0520
 4699SOL    HW215698   6.273   2.587   2.783 -0.8119  1.0163 -0.2007
 4700SOL     OW15699   6.657   0.740   3.919  0.3744 -0.0708  0.1873
 4700SOL    HW115700   6.730   0.784   3.867 -0.4467  0.2651 -0.7106
 4700SOL    HW215701   6.573   0.740   3.865  0.1321 -2.0086  0.4935
 4701SOL     OW15702   1.801   3.881   2.741 -0.1087  0.6795 -0.3567
 4701SOL    HW115703   1.844   3.845   2.659 -0.5335 -0.5739 -0.0396
 4701SOL    HW215704   1.721   3.935   2.716  1.7541  3.4048 -0.9911
 4702SOL     OW15705   5.442   2.337   0.464 -0.0770  0.1748  0.4442
 4702SOL    HW115706   5.418   2.288   0.380  0.9139 -0.6997  0.6411
 4702SOL    HW215707   5.382   2.307   0.538 -0.5066  0.4404  0.2068
 4703SOL     OW15708   5.271   6.334   0.978 -0.1787  0.3200 -0.9571
 4703SOL    HW115709   5.275   6.406   0.908  0.1063 -0.3465 -1.6485
 4703SOL    HW215710   5.361   6.323   1.019 -0.8099  2.2346  1.1493
 4704SOL     OW15711   6.640   1.604   3.496 -0.2561  0.2859  0.6603
 4704SOL    HW115712   6.677   1.573   3.408 -0.9492  0.0304  0.4529
 4704SOL    HW215713   6.616   1.525   3.552  1.1614  0.4246  1.5271
 4705SOL     OW15714   6.683   1.171   5.634 -0.2767  0.2593 -0.2178
 4705SOL    HW115715   6.635   1.127   5.710 -0.6096  0.0624 -0.5410
 4705SOL    HW215716   6.675   1.271   5.644 -0.8603  0.2272 -0.3367
 4706SOL     OW15717   3.310   3.151   1.430  0.1335 -0.4839  0.6521
 4706SOL    HW115718   3.353   3.178   1.344  1.8925  1.1576  1.9667
 4706SOL    HW215719   3.224   3.102   1.410  0.4402 -0.1156 -1.9877
 4707SOL     OW15720   3.364   3.034   6.754  0.4083  0.5882 -0.0234
 4707SOL    HW115721   3.296   3.096   6.713 -2.0517 -0.0249  2.7737
 4707SOL    HW215722   3.349   2.942   6.719  0.1918  0.5625  0.1329
 4708SOL     OW15723   3.533   5.364   6.984  0.0407 -0.1304  0.5226
 4708SOL    HW115724   3.435   5.349   6.970 -0.1104  1.0040  0.1831
 4708SOL    HW215725   3.578   5.373   6.895  0.7326 -2.0660  0.6252
 4709SOL     OW15726   6.397   6.899   6.610  0.3327 -0.1514 -0.8060
 4709SOL    HW115727   6.343   6.855   6.682  2.7907 -2.4157 -0.1689
 4709SOL    HW215728   6.387   6.846   6.525 -2.7600  2.6428 -2.4146
 4710SOL     OW15729   3.072   4.777   5.623  0.5769  0.4172  0.0157
 4710SOL    HW115730   2.984   4.813   5.593 -0.0980  0.1537  1.6049
 4710SOL    HW215731   3.058   4.695   5.679  1.4658  2.5869  3.7238
 4711SOL     OW15732   0.897   6.885   3.557 -0.1578  0.4305 -0.2748
 4711SOL    HW115733   0.889   6.810   3.623 -0.4285  0.0480 -0.7432
 4711SOL    HW215734   0.970   6.947   3.587 -0.6975  0.6057  0.7236
 4712SOL     OW15735   3.051   4.978   4.583  0.3580  0.5272  0.3330
 4712SOL    HW115736   3.022   4.887   4.611 -0.8138  0.9604  0.5866
 4712SOL    HW215737   3.143   4.973   4.545  0.2325 -0.7936  0.1399
 4713SOL     OW15738   2.655   5.770   4.701  0.2756  0.2495 -0.4358
 4713SOL    HW115739   2.738   5.722   4.730  0.5907  1.7475  1.3446
 4713SOL    HW215740   2.645   5.764   4.602  1.1037 -2.1178 -0.4327
 4714SOL     OW15741   6.934   4.585   0.746  0.2333  0.4890 -0.1058
 4714SOL    HW115742   6.961   4.527   0.823  0.2458  1.9686  1.0402
 4714SOL    HW215743   7.006   4.652   0.728 -0.4749  1.1931 -0.3537
 4715SOL     OW15744   5.517   0.196   2.791 -0.2069  0.4104 -0.4122
 4715SOL    HW115745   5.591   0.251   2.752 -1.5404  3.3346  0.9521
 4715SOL    HW215746   5.432   0.215   2.742 -0.5095 -1.5464 -0.7698
 4716SOL     OW15747   6.621   5.805   0.418 -0.5651  0.5628 -0.1894
 4716SOL    HW115748   6.546   5.777   0.477 -0.3298  0.5478  0.1036
 4716SOL    HW215749   6.656   5.894   0.447 -1.2080  1.1026 -1.0265
 4717SOL     OW15750   5.111   1.006   5.373 -0.4113  0.3269 -0.1223
 4717SOL    HW115751   5.114   1.055   5.460  1.5719 -1.7254  1.0700
 4717SOL    HW215752   5.046   0.930   5.380  1.0714 -0.9697  0.3052
 4718SOL     OW15753   4.500   1.667   3.729  0.0667  0.1151 -0.1161
 4718SOL    HW115754   4.475   1.745   3.788 -0.9825 -0.7318  0.6055
 4718SOL    HW215755   4.537   1.701   3.643 -0.9361  1.4427 -0.0624
 4719SOL     OW15756   5.100   5.895   4.245  0.8177 -0.9800 -0.8284
 4719SOL    HW115757   5.061   5.972   4.196  0.1861  0.6755  2.0422
 4719SOL    HW215758   5.027   5.846   4.293  1.4514 -2.2955 -1.1542
 4720SOL     OW15759   3.145   3.396   0.486  0.7408 -0.5816 -0.3724
 4720SOL    HW115760   3.245   3.388   0.490  0.9500  1.6648  0.1675
 4720SOL    HW215761   3.104   3.333   0.553  1.7656 -1.6058 -0.6814
 4721SOL     OW15762   1.858   5.542   0.403  0.0330 -0.1681 -0.0318
 4721SOL    HW115763   1.864   5.442   0.411  0.9925 -0.1302 -0.2467
 4721SOL    HW215764   1.778   5.565   0.346 -1.6286 -0.7050  1.9573
 4722SOL     OW15765   3.222   1.164   3.689 -0.3453 -0.3064 -0.4571
 4722SOL    HW115766   3.131   1.174   3.647 -1.8044 -1.3240  2.1758
 4722SOL    HW215767   3.244   1.246   3.741  0.2524 -0.0475 -1.1241
 4723SOL     OW15768   0.991   4.700   4.605  0.1230 -0.1455  0.0971
 4723SOL    HW115769   0.947   4.743   4.684  0.8317  0.6181  0.0938
 4723SOL    HW215770   1.089   4.690   4.623  0.4771  0.9888 -1.0752
 4724SOL     OW15771   4.785   4.819   2.768  0.0158  0.2929  0.1727
 4724SOL    HW115772   4.695   4.855   2.747  0.2664 -0.0950 -1.7695
 4724SOL    HW215773   4.791   4.799   2.866 -1.3643  1.9799  0.6488
 4725SOL     OW15774   4.698   1.951   2.008 -0.7782 -0.8497 -0.7322
 4725SOL    HW115775   4.600   1.934   2.006 -0.7850 -1.0612  0.5623
 4725SOL    HW215776   4.716   2.046   2.031 -0.6759 -0.5778 -1.8846
 4726SOL     OW15777   1.470   5.804   3.497 -0.2588  0.2769 -0.6456
 4726SOL    HW115778   1.417   5.870   3.445 -0.8210  0.6581  0.3725
 4726SOL    HW215779   1.565   5.835   3.504 -0.1571  0.1729 -1.5027
 4727SOL     OW15780   6.662   2.764   1.004 -0.0218  0.3606  0.0010
 4727SOL    HW115781   6.566   2.790   1.003  0.0606  0.7166 -2.0873
 4727SOL    HW215782   6.710   2.806   0.927  1.3073 -1.5903 -0.3306
 4728SOL     OW15783   4.099   4.598   1.773  0.3793  0.1375 -0.0973
 4728SOL    HW115784   4.094   4.681   1.828 -1.7332 -1.0570  1.7339
 4728SOL    HW215785   4.062   4.615   1.682 -1.6250  0.8772  0.8026
 4729SOL     OW15786   3.196   5.345   5.122 -0.2030  0.2395  0.0619
 4729SOL    HW115787   3.280   5.397   5.106 -0.3096 -0.2516 -2.4681
 4729SOL    HW215788   3.209   5.250   5.096 -1.0525 -0.2802  1.3727
 4730SOL     OW15789   0.225   6.379   2.450  0.3855  0.2982 -0.4913
 4730SOL    HW115790   0.269   6.467   2.433  2.2252 -0.7100 -1.2191
 4730SOL    HW215791   0.146   6.370   2.390 -0.4314  1.8243  0.2839
 4731SOL     OW15792   6.338   1.862   6.926 -0.7528  0.5198 -0.9086
 4731SOL    HW115793   6.286   1.828   7.005 -0.7742  2.5022 -0.0173
 4731SOL    HW215794   6.284   1.849   6.843 -2.0114  1.0555 -0.2017
 4732SOL     OW15795   1.525   6.510   6.897 -0.4781 -0.0145 -0.1384
 4732SOL    HW115796   1.505   6.543   6.988 -2.0079 -0.2887 -0.3535
 4732SOL    HW215797   1.505   6.412   6.892 -0.1246 -0.0635 -0.6842
 4733SOL     OW15798   1.976   3.002   5.250  0.4788  0.3018 -0.3267
 4733SOL    HW115799   1.929   2.991   5.338 -1.9036  0.6866 -1.4593
 4733SOL    HW215800   2.038   2.925   5.236 -1.1463 -1.2363  0.5109
 4734SOL     OW15801   4.420   5.644   3.462  0.2942 -0.2541 -0.6551
 4734SOL    HW115802   4.325   5.671   3.474 -0.2395 -2.6439  1.1959
 4734SOL    HW215803   4.429   5.583   3.384  0.2477 -0.2530 -0.6607
 4735SOL     OW15804   0.509   4.166   0.201 -0.1603 -0.2025  0.4839
 4735SOL    HW115805   0.419   4.209   0.199 -0.9672 -1.7824  1.1107
 4735SOL    HW215806   0.559   4.191   0.118 -0.5932  1.8166  0.7628
 4736SOL     OW15807   6.832   0.327   6.696 -0.1142 -0.3783 -0.4125
 4736SOL    HW115808   6.800   0.232   6.692  2.7765 -1.5736  1.4276
 4736SOL    HW215809   6.849   0.360   6.603 -5.1529  0.0259 -1.4470
 4737SOL     OW15810   2.830   2.264   2.853  0.4888  0.7725  0.4050
 4737SOL    HW115811   2.817   2.223   2.762 -0.6814 -0.9468  1.2966
 4737SOL    HW215812   2.762   2.336   2.867 -0.2210  0.1042  0.4277
 4738SOL     OW15813   0.491   5.651   0.819  0.3546 -0.4699  0.1279
 4738SOL    HW115814   0.475   5.698   0.732 -1.0047 -1.0785  0.0267
 4738SOL    HW215815   0.506   5.554   0.801 -0.7658 -0.7407  0.6323
 4739SOL     OW15816   2.052   3.874   7.017  0.0589  0.3390 -0.4385
 4739SOL    HW115817   1.983   3.903   7.083 -0.2481 -1.1683 -0.0660
 4739SOL    HW215818   2.139   3.920   7.037 -0.2907  0.6634  0.3711
 4740SOL     OW15819   2.242   2.014   2.316  0.5400  0.6614 -0.2005
 4740SOL    HW115820   2.179   2.062   2.377 -1.1372 -0.2677 -1.1463
 4740SOL    HW215821   2.282   1.935   2.364 -0.0902  0.4510 -0.0174
 4741SOL     OW15822   6.922   2.512   4.230  0.5306 -0.3140 -0.5538
 4741SOL    HW115823   7.002   2.452   4.237  0.1466 -0.9994 -1.8351
 4741SOL    HW215824   6.870   2.508   4.315 -0.4928 -3.2560 -1.2148
 4742SOL     OW15825   0.468   2.724   1.877 -0.1110 -0.1071  0.0154
 4742SOL    HW115826   0.511   2.789   1.815  0.5692 -1.9211 -1.5323
 4742SOL    HW215827   0.375   2.755   1.899  0.0763  1.2134 -0.9123
 4743SOL     OW15828   0.758   1.292   5.248 -0.0555  0.3053 -0.4555
 4743SOL    HW115829   0.669   1.315   5.288  0.4841 -1.2363  1.8557
 4743SOL    HW215830   0.795   1.373   5.201 -2.3383  1.1678 -0.8827
 4744SOL     OW15831   4.923   0.814   5.356  0.3843  0.5456  0.2239
 4744SOL    HW115832   4.879   0.755   5.424 -1.1607  0.2574 -0.9639
 4744SOL    HW215833   4.941   0.761   5.273  0.0692  1.4531 -0.4343
 4745SOL     OW15834   1.573   0.785   6.277 -0.5872 -0.2490 -0.1847
 4745SOL    HW115835   1.506   0.722   6.237  0.4023 -0.9611 -0.7834
 4745SOL    HW215836   1.650   0.795   6.214 -0.3587  0.9490  0.2656
 4746SOL     OW15837   4.465   3.382   2.898  0.2233  0.3651 -0.4935
 4746SOL    HW115838   4.549   3.355   2.946  0.8132  1.9808 -0.5661
 4746SOL    HW215839   4.460   3.482   2.893 -2.9310  0.4516  1.6967
 4747SOL     OW15840   3.028   0.788   4.989 -0.1277  0.3530 -0.7824
 4747SOL    HW115841   2.933   0.820   4.988 -0.0007  0.7405 -1.4870
 4747SOL    HW215842   3.040   0.721   5.061 -0.9125  0.3886 -0.6105
 4748SOL     OW15843   6.038   2.392   2.385  0.1858  0.1093  0.1785
 4748SOL    HW115844   6.005   2.393   2.479  0.7424 -0.8076  0.3941
 4748SOL    HW215845   6.033   2.484   2.347  1.2122  0.7527  1.5347
 4749SOL     OW15846   3.809   1.306   1.648  0.0133 -0.0796  0.6591
 4749SOL    HW115847   3.746   1.250   1.702 -2.2546  0.0497 -1.6615
 4749SOL    HW215848   3.866   1.247   1.591 -0.0742 -0.0924  0.5869
 4750SOL     OW15849   2.621   6.196   2.245 -0.3036 -0.3189 -0.5507
 4750SOL    HW115850   2.546   6.261   2.232 -0.0746  0.1606  0.4485
 4750SOL    HW215851   2.699   6.223   2.189 -0.5455 -0.2739 -0.8643
 4751SOL     OW15852   1.027   6.645   2.848 -0.2250 -0.0734  0.4077
 4751SOL    HW115853   1.050   6.660   2.944 -0.6101  0.6495  0.3962
 4751SOL    HW215854   1.060   6.722   2.793 -0.2467 -0.3504 -0.0012
 4752SOL     OW15855   0.928   4.784   1.590 -0.3404 -0.2668  0.3031
 4752SOL    HW115856   0.966   4.778   1.497 -0.7047 -1.1416  0.2013
 4752SOL    HW215857   0.876   4.868   1.598 -3.9810 -2.0895 -1.7466
 4753SOL     OW15858   2.907   4.828   4.047  0.5504  0.6892  0.5789
 4753SOL    HW115859   2.952   4.852   4.133  1.0800  0.5574  0.3436
 4753SOL    HW215860   2.842   4.753   4.062 -0.3045  1.5120  1.1061
 4754SOL     OW15861   2.296   0.593   1.031 -0.1117 -0.0879 -0.0462
 4754SOL    HW115862   2.346   0.514   0.996 -0.5676 -0.3061 -0.2092
 4754SOL    HW215863   2.303   0.668   0.966 -1.9844 -0.8743 -1.2687
 4755SOL     OW15864   1.423   3.932   3.464 -0.2121  0.2100  0.1818
 4755SOL    HW115865   1.347   3.994   3.445 -1.8336 -1.6445  0.2273
 4755SOL    HW215866   1.431   3.917   3.562  0.2639  0.4518  0.1826
 4756SOL     OW15867   2.669   4.179   1.669  0.1530 -0.5159  0.2728
 4756SOL    HW115868   2.747   4.171   1.608  1.1004  0.7356  1.2770
 4756SOL    HW215869   2.700   4.202   1.761 -1.4779  3.9061 -0.0388
 4757SOL     OW15870   3.694   4.504   4.814 -0.2498  0.1226  0.0073
 4757SOL    HW115871   3.713   4.409   4.791 -1.8475  0.0939 -1.3714
 4757SOL    HW215872   3.640   4.507   4.899  1.2324 -0.0653  0.9966
 4758SOL     OW15873   2.438   0.952   4.839 -0.6525 -0.1405  0.1057
 4758SOL    HW115874   2.484   0.867   4.863 -0.1612 -0.5010 -1.9347
 4758SOL    HW215875   2.428   1.009   4.921  0.5134 -1.4276  1.1876
 4759SOL     OW15876   4.794   5.138   3.064  0.2897 -0.7189 -0.2505
 4759SOL    HW115877   4.798   5.045   3.101 -1.7062 -1.2476 -1.2347
 4759SOL    HW215878   4.815   5.136   2.966 -0.1511 -0.1965 -0.3590
 4760SOL     OW15879   5.915   2.598   6.437  0.9238  0.1844  0.5292
 4760SOL    HW115880   5.846   2.659   6.398  0.2853 -0.3691  0.7760
 4760SOL    HW215881   6.006   2.630   6.410  0.5314  0.1334 -0.9677
 4761SOL     OW15882   1.971   3.956   3.746  0.1484  0.0329 -0.0218
 4761SOL    HW115883   2.048   3.892   3.749  1.0682  1.1199 -0.1494
 4761SOL    HW215884   1.944   3.979   3.839 -1.3544 -1.8776  0.0769
 4762SOL     OW15885   3.653   6.944   5.914  0.4281 -0.1902 -0.4868
 4762SOL    HW115886   3.736   6.940   5.970  0.8237 -1.0102 -1.1114
 4762SOL    HW215887   3.651   6.867   5.851 -1.2636 -0.6992  0.1265
 4763SOL     OW15888   0.194   1.045   3.549 -0.1887 -0.3879 -0.1461
 4763SOL    HW115889   0.156   0.961   3.511 -0.0447 -0.6754  0.3298
 4763SOL    HW215890   0.283   1.025   3.592  0.8704  0.4012 -1.8707
 4764SOL     OW15891   1.450   1.294   4.576 -0.0760 -0.0608  0.4270
 4764SOL    HW115892   1.488   1.349   4.502  0.7583  0.3590  1.1506
 4764SOL    HW215893   1.487   1.326   4.664 -0.2484 -1.2123  0.9381
 4765SOL     OW15894   5.839   6.176   0.944  0.1743 -0.3499  0.5501
 4765SOL    HW115895   5.785   6.121   0.881 -0.0865 -1.4322  1.6543
 4765SOL    HW215896   5.798   6.173   1.035  0.9032  0.5990  0.9348
 4766SOL     OW15897   6.403   2.793   1.267 -0.0493 -0.9424 -0.1857
 4766SOL    HW115898   6.341   2.867   1.293  1.4966 -0.1262  1.3812
 4766SOL    HW215899   6.402   2.782   1.168  0.2326  1.7206 -0.5498
 4767SOL     OW15900   3.028   4.874   3.581 -0.3541 -0.0546 -0.2988
 4767SOL    HW115901   2.933   4.859   3.607 -0.3275  0.6204  0.2186
 4767SOL    HW215902   3.038   4.863   3.482 -1.1646  0.8179 -0.4925
 4768SOL     OW15903   0.511   4.417   3.425  0.0002  0.0940 -0.2950
 4768SOL    HW115904   0.573   4.405   3.347  0.3539 -0.3072  0.0473
 4768SOL    HW215905   0.554   4.476   3.493  0.1283 -0.4208  0.0739
 4769SOL     OW15906   6.497   6.874   0.710  0.3418 -0.1296  0.0259
 4769SOL    HW115907   6.521   6.778   0.726 -0.9043 -0.6365 -0.9271
 4769SOL    HW215908   6.473   6.886   0.614 -0.5397  0.9007  0.3535
 4770SOL     OW15909   5.788   4.759   6.223 -0.0004 -0.2058 -0.3062
 4770SOL    HW115910   5.838   4.752   6.310 -2.0974 -0.5529  0.9462
 4770SOL    HW215911   5.705   4.813   6.237  0.1460  0.6231 -2.3815
 4771SOL     OW15912   0.226   2.211   4.054 -0.4536 -0.6407 -0.6946
 4771SOL    HW115913   0.168   2.254   4.123  0.3207 -0.5415 -0.0871
 4771SOL    HW215914   0.228   2.113   4.068 -0.5990 -0.6626 -0.8195
 4772SOL     OW15915   4.767   4.893   0.446 -0.1984  0.6784  0.3365
 4772SOL    HW115916   4.692   4.879   0.382  0.9411  0.6444 -1.0484
 4772SOL    HW215917   4.827   4.813   0.445  0.6542  1.2993  0.2802
 4773SOL     OW15918   5.478   3.393   1.366 -0.4995 -0.1332 -0.1335
 4773SOL    HW115919   5.410   3.403   1.293 -2.9386  1.4429  2.1765
 4773SOL    HW215920   5.535   3.475   1.369  0.0798 -0.5052 -0.6689
 4774SOL     OW15921   5.190   4.808   4.322  0.0217  0.6127 -0.5208
 4774SOL    HW115922   5.217   4.763   4.237 -0.9950 -0.8731 -0.0940
 4774SOL    HW215923   5.091   4.805   4.332  0.1835 -0.2631  1.2466
 4775SOL     OW15924   3.768   5.634   4.836  0.0614 -0.4004  0.1333
 4775SOL    HW115925   3.845   5.641   4.899 -0.1314 -0.3595  0.3696
 4775SOL    HW215926   3.791   5.677   4.749  0.6416 -1.2292 -0.1261
 4776SOL     OW15927   5.269   0.904   0.199 -0.0268  0.5173 -0.0188
 4776SOL    HW115928   5.362   0.919   0.164  0.0736 -2.8560 -1.6428
 4776SOL    HW215929   5.260   0.945   0.289  3.5306 -0.1598  0.8101
 4777SOL     OW15930   2.384   4.622   0.509  0.6468  0.5214 -0.3605
 4777SOL    HW115931   2.369   4.566   0.590  2.0827  1.8542  0.8957
 4777SOL    HW215932   2.417   4.565   0.434  0.2761 -0.5771  0.2929
 4778SOL     OW15933   4.559   3.436   3.298  0.1223 -0.2905 -0.2278
 4778SOL    HW115934   4.472   3.464   3.258 -0.0069 -0.1364  0.1642
 4778SOL    HW215935   4.545   3.362   3.363  0.3379 -0.5620 -0.4881
 4779SOL     OW15936   2.807   6.925   5.984 -1.0462 -0.2824 -0.4773
 4779SOL    HW115937   2.899   6.893   5.961 -1.4664 -1.1446 -1.0107
 4779SOL    HW215938   2.809   6.973   6.072  0.1666  0.9912 -1.1671
 4780SOL     OW15939   3.479   0.262   0.503  0.7058  0.1340  0.0854
 4780SOL    HW115940   3.431   0.286   0.419 -0.1448 -2.1977 -0.1640
 4780SOL    HW215941   3.494   0.163   0.506  1.3607  0.2446  2.3566
 4781SOL     OW15942   5.843   5.705   0.454 -0.5378 -0.4195 -0.1198
 4781SOL    HW115943   5.890   5.788   0.425  0.3215 -1.8078 -3.2506
 4781SOL    HW215944   5.884   5.670   0.538 -0.0309  1.5496  0.5026
 4782SOL     OW15945   5.243   5.211   4.049 -0.0388  0.4414 -0.0402
 4782SOL    HW115946   5.314   5.272   4.013  0.8639 -0.4820  0.1313
 4782SOL    HW215947   5.235   5.226   4.148  0.2889  0.1871  0.0275
 4783SOL     OW15948   2.669   4.178   1.307 -0.0023  0.5662 -0.6559
 4783SOL    HW115949   2.614   4.251   1.268  1.4726  1.7774 -0.5221
 4783SOL    HW215950   2.766   4.198   1.295  0.4819 -2.0723 -1.9134
 4784SOL     OW15951   0.946   4.278   5.496  0.6608  0.0246  0.1398
 4784SOL    HW115952   1.014   4.205   5.507 -0.5756 -1.1984 -0.0617
 4784SOL    HW215953   0.865   4.256   5.549 -0.0065  0.9314 -0.4694
 4785SOL     OW15954   2.956   6.493   4.873 -0.2353  0.1492 -0.5800
 4785SOL    HW115955   3.019   6.550   4.819  0.2273 -0.2727 -0.4951
 4785SOL    HW215956   2.947   6.531   4.965 -0.1957  0.2725 -0.6260
 4786SOL     OW15957   5.693   4.329   3.634 -0.6520 -1.0426  0.3721
 4786SOL    HW115958   5.656   4.413   3.595 -1.4891 -1.1538  0.8787
 4786SOL    HW215959   5.623   4.286   3.692  0.7649 -0.4936  2.6128
 4787SOL     OW15960   0.956   1.806   0.493 -0.1252 -1.0513  0.4261
 4787SOL    HW115961   1.052   1.825   0.475 -0.1743  0.4001  1.5259
 4787SOL    HW215962   0.901   1.842   0.417  0.1465 -1.3213  0.0975
 4788SOL     OW15963   1.805   1.540   1.855 -0.3743 -0.1423  0.0790
 4788SOL    HW115964   1.727   1.559   1.796  0.4338  1.5905 -0.4908
 4788SOL    HW215965   1.835   1.625   1.899  0.8909 -0.8715  0.6792
 4789SOL     OW15966   3.580   6.761   4.361 -0.1793  0.1735  0.3457
 4789SOL    HW115967   3.582   6.836   4.427  1.7477  0.1309  0.3946
 4789SOL    HW215968   3.631   6.788   4.279 -0.8263 -0.5146 -0.2911
 4790SOL     OW15969   5.183   0.090   6.164 -0.0206  0.2066 -0.2122
 4790SOL    HW115970   5.240   0.074   6.245 -0.1908  1.2815  0.1344
 4790SOL    HW215971   5.137   0.178   6.173 -0.5867  0.0176 -1.1700
 4791SOL     OW15972   3.959   6.073   6.269  0.2426 -0.4169 -0.3160
 4791SOL    HW115973   3.996   6.162   6.239 -0.1031  0.3281  1.3840
 4791SOL    HW215974   3.942   6.016   6.188  0.0003  1.2376 -1.4899
 4792SOL     OW15975   1.209   1.460   5.443  0.2555 -0.2433  0.2506
 4792SOL    HW115976   1.224   1.478   5.346 -2.6226  1.4024  0.0004
 4792SOL    HW215977   1.123   1.410   5.455  0.4396 -0.2116  1.9616
 4793SOL     OW15978   5.738   1.224   0.139 -0.6571 -0.0961 -0.5130
 4793SOL    HW115979   5.730   1.278   0.055  0.9977  0.8771 -0.0714
 4793SOL    HW215980   5.834   1.203   0.157 -0.9233  0.1291  1.3890
 4794SOL     OW15981   1.074   5.156   3.354  0.8106 -0.0119 -0.5925
 4794SOL    HW115982   1.079   5.238   3.411 -0.5301  0.2957 -0.8756
 4794SOL    HW215983   1.143   5.162   3.281  1.2046  0.5148 -0.1824
 4795SOL     OW15984   6.154   6.839   0.218  0.2116  0.1343 -0.1890
 4795SOL    HW115985   6.128   6.933   0.242  0.0974 -0.2733  1.4108
 4795SOL    HW215986   6.253   6.832   0.214  0.2153  0.7021 -2.0698
 4796SOL     OW15987   0.902   0.678   0.919 -0.1730  0.2510  0.0840
 4796SOL    HW115988   0.917   0.768   0.879  0.4647 -0.0424 -0.3679
 4796SOL    HW215989   0.978   0.617   0.893 -2.1006 -1.3559 -2.3779
 4797SOL     OW15990   3.498   4.643   2.618  0.3478  0.1275  0.0344
 4797SOL    HW115991   3.550   4.652   2.703  0.2995  0.7129  0.0061
 4797SOL    HW215992   3.479   4.734   2.581  3.2539 -0.1076 -2.3963
 4798SOL     OW15993   0.850   5.555   1.639  0.2562  0.1426  0.3145
 4798SOL    HW115994   0.938   5.597   1.617 -0.7089  1.1284 -2.0978
 4798SOL    HW215995   0.851   5.519   1.732  2.8300  1.0515  0.6947
 4799SOL     OW15996   0.342   1.729   4.963 -0.5142 -0.2068  0.3228
 4799SOL    HW115997   0.267   1.729   4.897 -0.6391  0.4111  0.4525
 4799SOL    HW215998   0.396   1.646   4.953 -1.3429 -0.7555  0.3745
 4800SOL     OW15999   4.078   2.814   5.901 -0.0773 -0.1533  0.1694
 4800SOL    HW116000   4.166   2.806   5.946 -0.7087  0.5096  1.5630
 4800SOL    HW216001   4.007   2.775   5.959 -0.7824 -0.2406 -0.7201
 4801SOL     OW16002   5.118   3.620   4.139 -0.5594  0.0107 -0.3884
 4801SOL    HW116003   5.149   3.642   4.047  0.1049 -1.4840 -0.5451
 4801SOL    HW216004   5.034   3.671   4.159 -0.0636  1.2602 -1.3448
 4802SOL     OW16005   4.783   5.729   6.770 -0.2069  0.8495  0.2286
 4802SOL    HW116006   4.717   5.688   6.706  1.2106  0.5861 -1.1429
 4802SOL    HW216007   4.755   5.711   6.864 -2.4120  1.2973 -0.2868
 4803SOL     OW16008   5.721   3.553   2.274 -0.0305 -0.2409  0.2640
 4803SOL    HW116009   5.751   3.625   2.211 -0.9277  2.0339  2.2534
 4803SOL    HW216010   5.622   3.561   2.288  0.2073 -0.3814  2.2513
 4804SOL     OW16011   6.052   2.068   1.940 -0.4254 -0.2619  0.0230
 4804SOL    HW116012   6.073   2.075   1.842 -0.3656 -0.9826 -0.0161
 4804SOL    HW216013   5.956   2.040   1.952 -0.7960  0.9988  0.1882
 4805SOL     OW16014   0.399   0.369   2.617 -0.0283  0.2801  0.5516
 4805SOL    HW116015   0.418   0.290   2.560  0.4100 -0.2929  1.4619
 4805SOL    HW216016   0.485   0.414   2.643 -0.0786 -0.4401  2.0790
 4806SOL     OW16017   4.616   6.253   2.556 -0.3639  0.0086  0.1806
 4806SOL    HW116018   4.558   6.176   2.530  0.1719 -0.3476  0.0261
 4806SOL    HW216019   4.648   6.240   2.650 -2.8933  1.6499  1.3784
 4807SOL     OW16020   6.206   4.738   4.362  0.2099  0.0934  0.0926
 4807SOL    HW116021   6.255   4.817   4.400  0.0267  0.0686  0.3822
 4807SOL    HW216022   6.239   4.720   4.270  1.4293 -0.4897  0.6076
 4808SOL     OW16023   4.273   0.718   3.533 -0.5998 -0.4699 -0.3346
 4808SOL    HW116024   4.205   0.780   3.572 -1.0796 -1.5574  0.6263
 4808SOL    HW216025   4.271   0.724   3.434  0.6665  2.3986 -0.2882
 4809SOL     OW16026   0.851   3.880   4.320 -0.1288 -0.1742  1.0025
 4809SOL    HW116027   0.900   3.825   4.252 -3.2513 -0.2306 -1.4491
 4809SOL    HW216028   0.843   3.974   4.286 -0.4021  0.1982  2.0697
 4810SOL     OW16029   6.074   6.816   6.315  0.0951 -0.7388 -0.5060
 4810SOL    HW116030   6.170   6.823   6.339 -0.0824 -1.3047  0.4234
 4810SOL    HW216031   6.061   6.744   6.246  0.9308  2.4771 -4.3936
 4811SOL     OW16032   6.406   5.738   0.579  0.6613  0.2597  0.1014
 4811SOL    HW116033   6.322   5.777   0.541  0.6078 -1.6718 -1.9743
 4811SOL    HW216034   6.389   5.644   0.607  2.0092  0.0004  0.1160
 4812SOL     OW16035   3.807   6.645   1.451 -0.5535 -0.2668 -0.8234
 4812SOL    HW116036   3.755   6.730   1.443 -1.3678 -0.7614 -0.9241
 4812SOL    HW216037   3.743   6.567   1.452  0.0904 -0.8138  0.5369
 4813SOL     OW16038   6.811   3.939   1.048 -0.1560 -0.2633 -0.5860
 4813SOL    HW116039   6.730   3.992   1.021 -0.1974  0.0629  0.1556
 4813SOL    HW216040   6.782   3.862   1.105  0.0627 -0.0457 -0.1732
 4814SOL     OW16041   5.669   0.296   5.140 -0.0038  0.3498  0.4063
 4814SOL    HW116042   5.711   0.309   5.050  0.9839 -1.5897  0.5396
 4814SOL    HW216043   5.605   0.219   5.137  2.6032 -2.0893  2.0475
 4815SOL     OW16044   6.289   3.867   1.129  0.0412  0.4879 -0.2436
 4815SOL    HW116045   6.220   3.842   1.062 -1.4224  2.3000  0.4997
 4815SOL    HW216046   6.320   3.960   1.112  2.2340 -0.2204 -0.4512
 4816SOL     OW16047   7.015   0.580   4.376 -0.6048 -0.2220  0.0094
 4816SOL    HW116048   6.972   0.514   4.438 -0.1840 -1.0105 -0.5239
 4816SOL    HW216049   7.096   0.619   4.420 -0.6114 -0.3771  0.1635
 4817SOL     OW16050   0.851   4.124   0.719  0.7547  0.0180  0.1439
 4817SOL    HW116051   0.801   4.184   0.656 -2.5139 -1.8407  0.7263
 4817SOL    HW216052   0.901   4.056   0.666  0.5895  0.3556 -0.4650
 4818SOL     OW16053   2.914   2.724   6.911  0.1610 -0.4468  0.1925
 4818SOL    HW116054   2.896   2.629   6.936 -2.1488 -0.1717 -0.2201
 4818SOL    HW216055   2.926   2.779   6.994 -0.1676 -0.8146  0.4861
 4819SOL     OW16056   4.475   6.925   6.049 -0.3259 -0.1872  0.1445
 4819SOL    HW116057   4.563   6.882   6.071  0.7676  0.8216 -1.9177
 4819SOL    HW216058   4.432   6.877   5.973 -0.6694  0.3872 -0.0370
 4820SOL     OW16059   6.935   2.139   5.052 -0.4122  0.3242  0.2335
 4820SOL    HW116060   6.925   2.092   4.964  1.3290 -0.7457  0.5700
 4820SOL    HW216061   6.902   2.080   5.126  0.3273  0.2626  0.5175
 4821SOL     OW16062   4.470   2.223   4.644  0.3325 -0.7640  0.0498
 4821SOL    HW116063   4.505   2.252   4.733 -1.4311  2.0175 -0.0357
 4821SOL    HW216064   4.373   2.197   4.653  0.1054 -0.3413 -1.0545
 4822SOL     OW16065   3.240   0.119   4.458 -0.3475  1.0099  0.5763
 4822SOL    HW116066   3.143   0.133   4.440 -0.9378 -1.0499  1.7950
 4822SOL    HW216067   3.255   0.110   4.557  0.8444  0.0074  0.3413
 4823SOL     OW16068   5.718   3.348   2.465  0.0649  0.2853  0.2351
 4823SOL    HW116069   5.778   3.376   2.540 -0.3638  1.1206  0.2773
 4823SOL    HW216070   5.733   3.409   2.386 -1.0681  0.8264  0.4148
 4824SOL     OW16071   1.154   0.642   2.847  0.7285  0.3557 -0.0338
 4824SOL    HW116072   1.080   0.708   2.857  0.1262 -0.0544 -1.4813
 4824SOL    HW216073   1.147   0.598   2.757  1.3073 -1.4441  0.7671
 4825SOL     OW16074   4.368   6.076   6.099 -0.0572 -0.0096 -0.1916
 4825SOL    HW116075   4.339   6.154   6.044 -0.1221 -0.5037 -0.8724
 4825SOL    HW216076   4.442   6.105   6.161 -0.5261  0.7362  0.0305
 4826SOL     OW16077   1.906   1.597   0.220 -0.1427  0.1464  0.1000
 4826SOL    HW116078   1.827   1.600   0.159 -0.2174  0.7950  0.2282
 4826SOL    HW216079   1.983   1.552   0.174 -1.0405 -1.9545  0.4967
 4827SOL     OW16080   4.471   4.584   6.968 -0.2688  0.3688  0.3465
 4827SOL    HW116081   4.458   4.501   6.915 -0.5699 -0.2687  1.3915
 4827SOL    HW216082   4.423   4.576   7.056 -2.4490  2.6264 -0.5161
 4828SOL     OW16083   4.879   2.739   1.580 -0.0035  0.4714 -0.2552
 4828SOL    HW116084   4.780   2.734   1.590  0.1619  1.1603  2.9067
 4828SOL    HW216085   4.903   2.766   1.487 -2.8321  1.7599 -0.6847
 4829SOL     OW16086   0.712   0.603   0.599  0.8635  0.4448 -0.5760
 4829SOL    HW116087   0.793   0.547   0.617  1.3210  0.6818 -1.8276
 4829SOL    HW216088   0.634   0.543   0.583  1.3789  0.1333 -2.0537
 4830SOL     OW16089   3.243   0.600   0.013 -0.1210  0.3851  0.4564
 4830SOL    HW116090   3.183   0.622  -0.065 -0.0414  1.1102  0.5975
 4830SOL    HW216091   3.335   0.579  -0.020 -0.4593 -0.8082  0.2308
 4831SOL     OW16092   2.497   0.842   2.516  0.3738  0.4224 -0.2569
 4831SOL    HW116093   2.540   0.925   2.549 -0.2410  0.5638  0.1995
 4831SOL    HW216094   2.563   0.790   2.461  0.3660  1.8727 -1.7286
 4832SOL     OW16095   4.230   1.198   1.478  0.6381  0.9402  0.5103
 4832SOL    HW116096   4.327   1.190   1.501  0.6512  0.2547  0.2687
 4832SOL    HW216097   4.215   1.158   1.387 -0.2683 -1.3068  1.5734
 4833SOL     OW16098   5.828   5.687   3.411 -0.7348  0.0887 -0.4767
 4833SOL    HW116099   5.753   5.690   3.345 -1.2417 -1.0126  0.0216
 4833SOL    HW216100   5.850   5.592   3.431  0.9350  0.3887 -0.7541
 4834SOL     OW16101   4.310   6.380   6.112  0.7711 -0.7011 -0.4855
 4834SOL    HW116102   4.330   6.374   6.210  0.8762  1.7676 -0.2757
 4834SOL    HW216103   4.359   6.459   6.073 -1.7791  0.3472 -1.8167
 4835SOL     OW16104   4.784   6.652   0.816 -0.0586 -0.6328  0.1846
 4835SOL    HW116105   4.714   6.675   0.748  1.1281 -0.3866 -0.9995
 4835SOL    HW216106   4.744   6.654   0.908 -1.2659  0.8718 -0.3378
 4836SOL     OW16107   1.323   4.374   1.945  0.3815  0.0917  0.2167
 4836SOL    HW116108   1.324   4.442   2.018  0.5650  1.4899 -1.0246
 4836SOL    HW216109   1.352   4.417   1.859  1.5127 -1.8259 -0.4189
 4837SOL     OW16110   1.629   3.106   3.859  0.2247  0.2491 -0.1383
 4837SOL    HW116111   1.555   3.172   3.858 -0.5792 -0.6273 -0.0003
 4837SOL    HW216112   1.636   3.065   3.950  0.4013 -0.1894 -0.3445
 4838SOL     OW16113   6.340   6.492   4.553  0.0690 -0.3610 -0.4734
 4838SOL    HW116114   6.378   6.546   4.478 -2.2093  0.8428 -0.8656
 4838SOL    HW216115   6.333   6.396   4.525 -0.8933  0.0960 -1.9010
 4839SOL     OW16116   3.052   1.223   1.115  0.2536  0.6615  0.4842
 4839SOL    HW116117   3.082   1.209   1.021  0.6575 -0.7125  0.7922
 4839SOL    HW216118   2.956   1.254   1.115 -0.0928 -0.3560 -0.3589
 4840SOL     OW16119   3.223   4.764   6.177  0.3323 -0.2715  0.3556
 4840SOL    HW116120   3.193   4.856   6.201 -1.1376 -0.2767 -1.2687
 4840SOL    HW216121   3.261   4.719   6.258 -0.7472  1.0682  1.6598
 4841SOL     OW16122   4.791   6.147   3.171 -0.7737 -0.3869  0.0766
 4841SOL    HW116123   4.820   6.233   3.128 -1.9513  0.1536  0.3320
 4841SOL    HW216124   4.706   6.116   3.128 -0.3648 -1.4295 -0.0035
 4842SOL     OW16125   2.552   4.882   5.946 -0.1269  0.0433  0.5120
 4842SOL    HW116126   2.617   4.883   6.022 -0.8194  2.3091  1.1420
 4842SOL    HW216127   2.464   4.846   5.979 -0.7490  2.0249  1.1339
 4843SOL     OW16128   3.856   4.810   2.597 -0.3527  0.1988 -0.2040
 4843SOL    HW116129   3.839   4.733   2.537  0.5730  0.1278 -0.3925
 4843SOL    HW216130   3.828   4.895   2.552 -1.8649 -0.0536  0.2114
 4844SOL     OW16131   6.745   0.398   3.084  0.3019  0.1016 -0.1872
 4844SOL    HW116132   6.824   0.372   3.029 -0.8268  0.9311 -2.3206
 4844SOL    HW216133   6.733   0.498   3.081 -0.0604  0.1256  1.2269
 4845SOL     OW16134   1.185   4.527   0.206 -0.1140  0.0087  0.9046
 4845SOL    HW116135   1.267   4.470   0.203 -0.2770 -0.3475  2.4101
 4845SOL    HW216136   1.164   4.560   0.114  1.2354 -0.5655  0.3634
 4846SOL     OW16137   6.176   5.943   0.843  0.3742  0.6455  0.1786
 4846SOL    HW116138   6.175   5.994   0.929  2.6047  1.4111 -0.1803
 4846SOL    HW216139   6.182   5.845   0.863  0.7006  0.8038  0.9217
 4847SOL     OW16140   1.394   4.273   2.984  0.3657 -0.2038  0.6046
 4847SOL    HW116141   1.360   4.202   3.046 -0.4611 -0.8763 -0.5839
 4847SOL    HW216142   1.492   4.261   2.971  0.2781 -0.9847  0.6137
 4848SOL     OW16143   1.338   0.088   1.648  0.0738  0.1409  0.0841
 4848SOL    HW116144   1.385   0.036   1.577  0.7727  0.4958  0.2713
 4848SOL    HW216145   1.245   0.110   1.618 -0.5196 -1.8545  0.3114
 4849SOL     OW16146   1.869   3.153   6.548  0.4714  0.5405  0.7462
 4849SOL    HW116147   1.847   3.075   6.606  0.2705  1.5439  2.0584
 4849SOL    HW216148   1.842   3.133   6.454  0.5003 -0.9909  1.0378
 4850SOL     OW16149   5.900   6.537   0.138  0.2819  0.0340 -0.3954
 4850SOL    HW116150   5.843   6.514   0.217  0.6577  0.9036  0.1425
 4850SOL    HW216151   5.843   6.544   0.057 -0.1357 -0.6912 -0.1761
 4851SOL     OW16152   2.879   1.088   3.490 -0.0506  0.1834  0.2566
 4851SOL    HW116153   2.798   1.077   3.549 -0.4416  0.9280 -0.1281
 4851SOL    HW216154   2.878   1.180   3.450  1.1827  0.3318  0.5328
 4852SOL     OW16155   0.632   2.197   0.168 -0.2273  0.1669  0.5677
 4852SOL    HW116156   0.697   2.269   0.145  0.2574 -1.2497 -3.2552
 4852SOL    HW216157   0.545   2.216   0.123 -0.0263 -1.6356 -0.6755
 4853SOL     OW16158   3.767   2.480   2.209 -0.2356  0.2454 -0.1672
 4853SOL    HW116159   3.779   2.385   2.238  0.3033  0.2339 -0.4118
 4853SOL    HW216160   3.798   2.491   2.115  0.6121  0.8537  0.1637
 4854SOL     OW16161   1.752   0.313   3.845  0.3450 -0.2978  0.0641
 4854SOL    HW116162   1.714   0.242   3.786  0.1887  0.5177 -0.8489
 4854SOL    HW216163   1.731   0.293   3.940 -0.5062 -0.9732 -0.2585
 4855SOL     OW16164   1.648   4.789   2.551  0.0962  0.0418  0.3725
 4855SOL    HW116165   1.747   4.792   2.558  0.0240  0.2961  1.4113
 4855SOL    HW216166   1.608   4.848   2.621 -0.8416 -1.8805  1.5069
 4856SOL     OW16167   0.939   6.533   3.333 -0.0363  0.8472  0.0447
 4856SOL    HW116168   0.915   6.604   3.266 -1.7873 -0.3039 -0.6284
 4856SOL    HW216169   0.855   6.500   3.377  0.5174 -1.8595 -0.7857
 4857SOL     OW16170   4.083   5.216   5.418  0.4109  0.2555  0.0459
 4857SOL    HW116171   4.053   5.120   5.415  2.2229 -0.3038 -1.4958
 4857SOL    HW216172   4.023   5.267   5.481 -1.6584 -1.4843 -0.3789
 4858SOL     OW16173   0.991   4.983   3.009  0.5324 -0.2720 -0.3535
 4858SOL    HW116174   0.989   5.054   3.079 -0.9387  0.4937 -1.1255
 4858SOL    HW216175   0.993   5.025   2.919  0.0593 -1.2146 -0.8141
 4859SOL     OW16176   2.958   0.235   0.770  0.2007 -0.4178 -0.0057
 4859SOL    HW116177   3.039   0.210   0.718 -0.6639 -1.4486 -0.8971
 4859SOL    HW216178   2.901   0.296   0.715  1.1681  1.7583  1.2762
 4860SOL     OW16179   3.272   6.473   0.657 -0.2592  0.6214 -0.2053
 4860SOL    HW116180   3.198   6.515   0.710 -0.1033  0.3916  0.2042
 4860SOL    HW216181   3.359   6.488   0.705 -0.3603 -1.3394  0.6826
 4861SOL     OW16182   2.083   4.733   0.460 -0.7862  0.0076  0.0383
 4861SOL    HW116183   2.033   4.815   0.489 -0.4069 -0.7160  3.1816
 4861SOL    HW216184   2.018   4.666   0.423 -1.8018  0.1050  1.5363
 4862SOL     OW16185   6.655   5.756   3.115 -0.1420 -0.0812 -0.1200
 4862SOL    HW116186   6.716   5.828   3.080 -1.7107  0.7799 -1.1612
 4862SOL    HW216187   6.601   5.718   3.041 -1.4031 -0.3220  0.8859
 4863SOL     OW16188   0.129   6.247   5.179 -0.0782  0.1907 -0.4149
 4863SOL    HW116189   0.178   6.161   5.189 -1.6238 -0.7179 -0.3290
 4863SOL    HW216190   0.193   6.319   5.152  1.5777 -0.5265  1.4039
 4864SOL     OW16191   5.870   6.948   3.394  0.6527 -0.5010  0.7581
 4864SOL    HW116192   5.914   6.907   3.314 -0.9853 -1.9528  0.5517
 4864SOL    HW216193   5.930   6.938   3.473  1.5048 -0.7046  0.1111
 4865SOL     OW16194   0.009   0.893   2.601  0.2459 -0.0375  0.4147
 4865SOL    HW116195  -0.089   0.913   2.611  0.2445  0.2071 -0.0707
 4865SOL    HW216196   0.047   0.870   2.691  0.3485  2.6360  1.1484
 4866SOL     OW16197   3.702   5.778   3.469 -0.4627  0.1177 -0.0897
 4866SOL    HW116198   3.776   5.805   3.529  0.0704  2.0220 -1.5220
 4866SOL    HW216199   3.614   5.807   3.508 -0.3395 -0.7371  0.8481
 4867SOL     OW16200   3.100   1.824   2.628  0.1981 -0.5088  0.3963
 4867SOL    HW116201   3.090   1.725   2.638  0.9729 -0.6867 -0.4190
 4867SOL    HW216202   3.114   1.866   2.717  0.9927 -1.2711  0.6410
 4868SOL     OW16203   0.339   5.729   1.221  0.2764  0.0466 -0.4275
 4868SOL    HW116204   0.344   5.644   1.274  2.2095 -0.2048 -0.9201
 4868SOL    HW216205   0.359   5.807   1.281 -2.2430  0.2963  0.1949
 4869SOL     OW16206   3.354   4.426   1.025  0.5885  0.1347  0.1649
 4869SOL    HW116207   3.279   4.409   0.961  0.1173  0.2994  0.6623
 4869SOL    HW216208   3.334   4.507   1.079  1.3246  0.4148  0.0243
 4870SOL     OW16209   3.783   2.284   4.152 -0.2591  0.0684  0.2341
 4870SOL    HW116210   3.723   2.249   4.080  1.4016 -3.6941  0.4527
 4870SOL    HW216211   3.736   2.278   4.240  0.4145 -3.3957  0.4892
 4871SOL     OW16212   5.136   3.161   1.167 -0.1245 -0.1885 -0.4280
 4871SOL    HW116213   5.207   3.105   1.124 -0.6409 -0.3634 -1.0691
 4871SOL    HW216214   5.063   3.178   1.102 -0.5866  0.1528  0.1683
 4872SOL     OW16215   0.285   2.966   4.591 -0.0066  0.2452  0.3427
 4872SOL    HW116216   0.229   2.995   4.668  0.3321 -0.3691  0.8363
 4872SOL    HW216217   0.376   2.939   4.624  0.2353  0.2429 -0.3063
 4873SOL     OW16218   3.933   6.438   2.638 -0.0559  0.1451 -0.2331
 4873SOL    HW116219   3.954   6.342   2.654  0.9662  0.2815 -0.6442
 4873SOL    HW216220   3.993   6.473   2.566 -1.4793  0.6901 -1.1874
 4874SOL     OW16221   3.281   5.969   6.498 -0.0870  0.3791  0.1085
 4874SOL    HW116222   3.235   5.888   6.461 -0.4684  0.3371  0.6582
 4874SOL    HW216223   3.356   5.940   6.557 -0.7006  0.4036  0.9143
 4875SOL     OW16224   3.068   6.741   2.809 -0.1211  0.0638  0.2382
 4875SOL    HW116225   2.995   6.727   2.743 -0.6613 -1.1760  1.0822
 4875SOL    HW216226   3.100   6.653   2.843  0.7347  0.6583  1.0067
 4876SOL     OW16227   6.843   6.740   3.178 -0.5040 -0.1961  0.0204
 4876SOL    HW116228   6.822   6.707   3.270 -3.0913  2.7814  0.6765
 4876SOL    HW216229   6.915   6.809   3.182  0.5632 -1.2393 -0.4885
 4877SOL     OW16230   0.844   1.424   5.735 -0.4536 -0.6606  0.1954
 4877SOL    HW116231   0.887   1.370   5.807  0.7984  0.1854  0.1058
 4877SOL    HW216232   0.861   1.521   5.751 -0.6704 -0.4250 -0.9254
 4878SOL     OW16233   4.185   3.003   1.496  0.0359 -0.1137 -0.1769
 4878SOL    HW116234   4.134   3.046   1.421  0.4302  0.5508 -0.0676
 4878SOL    HW216235   4.198   3.069   1.570  0.4793 -0.4824  0.0773
 4879SOL     OW16236   2.028   4.303   1.353 -1.0046  0.0647 -0.1464
 4879SOL    HW116237   1.984   4.245   1.422  0.1695 -1.3767 -0.5505
 4879SOL    HW216238   2.092   4.247   1.298 -0.4956  1.5691 -1.1498
 4880SOL     OW16239   3.008   4.267   6.654  0.4837 -0.1895  0.3039
 4880SOL    HW116240   2.952   4.338   6.695 -0.1756 -0.7300  0.3567
 4880SOL    HW216241   2.959   4.180   6.657  0.2654 -0.2034 -1.8706
 4881SOL     OW16242   3.826   2.074   3.822  0.4251  0.0420  0.0851
 4881SOL    HW116243   3.736   2.112   3.839  0.5736  0.3912  0.1020
 4881SOL    HW216244   3.884   2.087   3.902  0.1819 -1.1138  0.4617
 4882SOL     OW16245   2.585   0.607   5.688 -0.1832 -0.1331  0.2812
 4882SOL    HW116246   2.660   0.641   5.744 -2.5019  1.6577  2.5769
 4882SOL    HW216247   2.516   0.679   5.678 -3.3502 -2.6919  1.6137
 4883SOL     OW16248   0.048   5.290   3.306 -0.0323 -0.2276 -0.2551
 4883SOL    HW116249   0.103   5.370   3.330 -0.3623  0.6681 -2.2332
 4883SOL    HW216250  -0.025   5.318   3.244 -0.5581 -1.9753 -0.4729
 4884SOL     OW16251   1.503   5.567   5.955  0.0031  0.4234 -0.4465
 4884SOL    HW116252   1.575   5.635   5.943 -0.4774  1.1234  0.4892
 4884SOL    HW216253   1.414   5.613   5.962 -0.2024 -0.1615  1.4970
 4885SOL     OW16254   4.167   6.994   6.003 -0.1516 -0.2117  0.5097
 4885SOL    HW116255   4.230   6.926   5.965  0.4595  0.1522  0.8457
 4885SOL    HW216256   4.139   7.057   5.930 -0.5921 -0.7198  0.2341
 4886SOL     OW16257   3.072   5.084   1.523 -0.1025  0.2831 -0.4233
 4886SOL    HW116258   3.102   4.989   1.527  1.7570  0.7248 -2.2153
 4886SOL    HW216259   2.999   5.093   1.456 -1.5302 -0.1147  1.0107
 4887SOL     OW16260   2.760   6.999   4.028  0.5176  0.3525  0.2570
 4887SOL    HW116261   2.777   6.902   4.045 -0.3944  0.3013  0.9512
 4887SOL    HW216262   2.784   7.021   3.934  0.0875 -0.6990 -0.1109
 4888SOL     OW16263   6.299   1.591   4.817  0.6177 -0.6069  0.5846
 4888SOL    HW116264   6.376   1.527   4.822 -0.3662 -1.7739  1.9144
 4888SOL    HW216265   6.222   1.547   4.771  0.6083  0.4107 -0.4049
 4889SOL     OW16266   6.185   3.268   2.525 -0.4572 -0.2797 -0.1173
 4889SOL    HW116267   6.174   3.249   2.427  0.3872  0.8231 -0.4508
 4889SOL    HW216268   6.169   3.366   2.541  1.5902  0.0044  0.4638
 4890SOL     OW16269   0.835   2.411   5.043  0.2332  0.3831  0.7255
 4890SOL    HW116270   0.741   2.377   5.048  0.0523  0.8163  0.3701
 4890SOL    HW216271   0.849   2.482   5.112  0.9725 -1.2296  2.2956
 4891SOL     OW16272   4.832   2.316   1.023 -0.1867  0.0140 -0.0445
 4891SOL    HW116273   4.849   2.391   0.959  0.1446 -0.5785 -0.6526
 4891SOL    HW216274   4.895   2.324   1.100  1.0609 -0.6163 -0.9615
 4892SOL     OW16275   5.256   5.470   0.524  0.7689  0.3428  0.2239
 4892SOL    HW116276   5.259   5.456   0.623 -3.2336 -0.0911  0.4556
 4892SOL    HW216277   5.227   5.564   0.505 -1.7768 -0.4597 -0.2995
 4893SOL     OW16278   6.168   4.140   5.579 -0.9078  0.0094 -0.3115
 4893SOL    HW116279   6.247   4.079   5.569 -2.2862 -1.7235 -1.2019
 4893SOL    HW216280   6.143   4.146   5.676 -0.3660 -0.3521 -0.1427
 4894SOL     OW16281   1.038   4.598   0.438  0.0412  0.8713  0.7196
 4894SOL    HW116282   0.939   4.596   0.423  0.3577  0.1896 -1.7308
 4894SOL    HW216283   1.083   4.546   0.367  2.1405  0.1250  2.4805
 4895SOL     OW16284   4.189   3.898   0.903 -0.4152  0.6908  0.2136
 4895SOL    HW116285   4.118   3.830   0.920 -1.3626  1.4632 -0.5240
 4895SOL    HW216286   4.244   3.911   0.986 -0.5012 -0.6214  0.4957
 4896SOL     OW16287   0.272   1.572   4.004 -0.8979  0.1809 -0.0833
 4896SOL    HW116288   0.295   1.609   4.093  1.5074  1.2342 -1.0549
 4896SOL    HW216289   0.262   1.646   3.938  1.2734 -0.6658 -1.4840
 4897SOL     OW16290   4.657   4.920   5.639 -0.1178  0.1505  0.1942
 4897SOL    HW116291   4.657   5.010   5.596  0.2725  0.3196  0.5415
 4897SOL    HW216292   4.619   4.927   5.731 -0.1264 -0.0482  0.2060
 4898SOL     OW16293   3.386   5.335   3.393  0.0406  0.1336  0.0878
 4898SOL    HW116294   3.399   5.322   3.491  1.0354 -0.5965 -0.1305
 4898SOL    HW216295   3.412   5.252   3.344  0.0870  0.6804 -0.8400
 4899SOL     OW16296   0.305   1.269   5.872  0.3609 -0.3195 -0.0212
 4899SOL    HW116297   0.231   1.259   5.806  1.9825  1.5242 -2.3197
 4899SOL    HW216298   0.326   1.181   5.913 -1.5568 -1.3051 -1.0239
 4900SOL     OW16299   3.271   5.263   6.658 -0.5614  0.3861 -0.1329
 4900SOL    HW116300   3.329   5.341   6.633 -1.4874  1.3429  0.6499
 4900SOL    HW216301   3.220   5.233   6.577 -0.9868  1.2839 -0.2123
 4901SOL     OW16302   6.753   1.737   2.096  0.1933  0.0228 -0.1374
 4901SOL    HW116303   6.700   1.661   2.058 -2.3619  1.0831  1.0554
 4901SOL    HW216304   6.809   1.778   2.024  1.4718 -2.7676 -0.8597
 4902SOL     OW16305   2.763   7.007   2.037 -0.1847  0.0026 -0.3485
 4902SOL    HW116306   2.825   6.943   1.992  1.1255  0.3777  0.8744
 4902SOL    HW216307   2.783   7.100   2.007 -0.2579  0.1136 -0.0532
 4903SOL     OW16308   2.749   5.513   5.705  0.1683  0.1958  0.2113
 4903SOL    HW116309   2.819   5.577   5.672 -0.4264  0.6633 -0.1621
 4903SOL    HW216310   2.673   5.511   5.640  0.0153 -0.6198  0.4083
 4904SOL     OW16311   6.575   6.429   4.746  0.2213 -0.0740  0.9112
 4904SOL    HW116312   6.479   6.408   4.730  0.2235  0.2421  0.4856
 4904SOL    HW216313   6.626   6.428   4.660 -0.0154  2.8621  0.6288
 4905SOL     OW16314   1.860   0.090   1.864  0.3022 -0.3613 -0.6566
 4905SOL    HW116315   1.896   0.052   1.948 -0.3048  2.0309  0.7803
 4905SOL    HW216316   1.760   0.091   1.867  0.2109 -1.5027 -2.0391
 4906SOL     OW16317   6.447   3.200   2.577  0.7386 -0.0581  0.5041
 4906SOL    HW116318   6.364   3.255   2.563  1.4342  0.8952 -0.0124
 4906SOL    HW216319   6.511   3.251   2.634  2.3950  0.7806 -1.9282
 4907SOL     OW16320   2.326   0.708   1.506 -0.4289 -0.3712 -0.3501
 4907SOL    HW116321   2.410   0.761   1.500 -1.4599  1.4917  0.6530
 4907SOL    HW216322   2.336   0.623   1.455  1.4268  0.6174 -1.7431
 4908SOL     OW16323   1.740   1.614   1.018  0.3618  0.6715 -0.3467
 4908SOL    HW116324   1.776   1.523   1.041  0.7858  0.5545 -1.4172
 4908SOL    HW216325   1.765   1.637   0.924 -1.6050  0.9683 -0.8516
 4909SOL     OW16326   4.593   6.483   0.058  0.7655  0.6673  0.1001
 4909SOL    HW116327   4.671   6.499  -0.002  0.1308 -0.4155 -1.0689
 4909SOL    HW216328   4.536   6.409   0.021 -0.7869  1.3698  0.9512
 4910SOL     OW16329   3.202   1.792   1.355 -0.7268 -0.4931  0.0270
 4910SOL    HW116330   3.111   1.828   1.374 -0.1213  0.8575  0.4743
 4910SOL    HW216331   3.252   1.856   1.297  0.3037 -0.6980  0.6562
 4911SOL     OW16332   2.872   0.025   3.206 -0.4357 -0.1976 -0.2115
 4911SOL    HW116333   2.826   0.108   3.176  0.0085 -0.4758 -1.7857
 4911SOL    HW216334   2.813  -0.054   3.191 -0.1342 -0.3617 -0.5744
 4912SOL     OW16335   1.985   2.280   2.789  1.0032 -0.4869 -0.2796
 4912SOL    HW116336   2.080   2.287   2.820  0.9356  0.0790 -0.1953
 4912SOL    HW216337   1.924   2.271   2.868  0.8434  0.8205 -0.2257
 4913SOL     OW16338   5.074   1.464   4.216  0.1813 -0.0751  0.3680
 4913SOL    HW116339   5.090   1.542   4.277 -0.4744  0.2350  0.1551
 4913SOL    HW216340   5.161   1.421   4.193  0.4241 -0.2834  1.6400
 4914SOL     OW16341   6.339   6.717   4.742  0.0856 -0.4435  0.3677
 4914SOL    HW116342   6.434   6.724   4.773  0.2571  0.6519 -0.3394
 4914SOL    HW216343   6.336   6.668   4.655 -0.0779 -1.0830  0.7324
 4915SOL     OW16344   2.777   1.826   2.946 -0.2721  0.0295 -0.2197
 4915SOL    HW116345   2.846   1.899   2.944  1.7690 -1.7807  0.0972
 4915SOL    HW216346   2.759   1.795   2.853 -1.1999  0.9384 -0.3619
 4916SOL     OW16347   4.256   0.475   3.848 -0.0912 -0.1566 -0.6686
 4916SOL    HW116348   4.337   0.484   3.791  1.2255 -1.8394  0.7877
 4916SOL    HW216349   4.192   0.411   3.805  1.0288 -1.6601 -0.1888
 4917SOL     OW16350   4.035   3.291   5.410 -0.0005 -0.6521 -0.5314
 4917SOL    HW116351   4.094   3.357   5.364  0.3264 -0.4479  0.1780
 4917SOL    HW216352   3.945   3.331   5.423  0.3304 -0.1622  0.3178
 4918SOL     OW16353   1.587   2.880   2.652 -0.5354 -0.0080  0.0750
 4918SOL    HW116354   1.658   2.859   2.719 -0.0683  0.6918 -0.1888
 4918SOL    HW216355   1.604   2.829   2.568 -0.5959 -0.1802  0.1678
 4919SOL     OW16356   1.555   2.949   0.433  0.4137 -0.0878 -0.3394
 4919SOL    HW116357   1.504   2.948   0.347 -1.3024 -0.0774  0.6113
 4919SOL    HW216358   1.522   3.026   0.489  0.3968 -0.9880  0.9170
 4920SOL     OW16359   0.731   0.083   0.914  0.6973 -0.0248 -0.2243
 4920SOL    HW116360   0.665   0.083   0.840  0.9482 -0.5951 -0.4589
 4920SOL    HW216361   0.796   0.008   0.901  0.9268  0.0515  0.4093
 4921SOL     OW16362   6.861   6.962   4.896 -0.9062  0.0995 -0.5706
 4921SOL    HW116363   6.930   6.897   4.863 -0.2337 -0.2855  1.4286
 4921SOL    HW216364   6.798   6.915   4.958 -0.8530  1.1924  0.3346
 4922SOL     OW16365   0.176   6.216   4.687 -0.3372 -0.2518 -0.0311
 4922SOL    HW116366   0.254   6.162   4.719  0.1722  0.9939  0.9217
 4922SOL    HW216367   0.095   6.191   4.739 -0.4349 -1.0625 -0.5514
 4923SOL     OW16368   4.021   3.575   5.661 -0.6937 -0.0240 -0.5430
 4923SOL    HW116369   4.032   3.476   5.654  1.6794  0.0415  1.2432
 4923SOL    HW216370   3.944   3.604   5.604 -0.9171 -2.7643 -1.7755
 4924SOL     OW16371   1.571   3.375   1.355 -0.1325 -0.1121  0.2857
 4924SOL    HW116372   1.634   3.350   1.282  0.0836 -3.8365  1.5195
 4924SOL    HW216373   1.487   3.322   1.345 -1.2555  1.4250  1.2024
 4925SOL     OW16374   4.336   4.141   3.448 -0.1446 -0.1561  0.0484
 4925SOL    HW116375   4.307   4.092   3.530 -0.1460  0.3660  0.3699
 4925SOL    HW216376   4.260   4.143   3.383 -0.0465 -0.8285 -0.0942
 4926SOL     OW16377   5.265   3.787   5.416 -0.3681  0.1363 -0.4214
 4926SOL    HW116378   5.289   3.728   5.494  0.6893  0.5860 -0.3829
 4926SOL    HW216379   5.331   3.773   5.342 -0.1429  1.2097 -0.4445
 4927SOL     OW16380   6.439   4.956   2.530  0.3491 -0.0243  0.4359
 4927SOL    HW116381   6.406   4.985   2.441 -0.0334  1.5816  1.0573
 4927SOL    HW216382   6.530   4.994   2.546 -0.5070  1.6880  1.6165
 4928SOL     OW16383   6.661   3.467   5.844  0.4871 -0.2626 -0.1975
 4928SOL    HW116384   6.727   3.520   5.897 -0.5868  2.5948 -1.5267
 4928SOL    HW216385   6.607   3.409   5.905  0.4953  1.5650  1.6243
 4929SOL     OW16386   4.069   1.728   1.012 -0.3493  0.6982 -0.3551
 4929SOL    HW116387   4.134   1.662   1.048 -1.1885  1.4566  2.8741
 4929SOL    HW216388   3.984   1.681   0.987 -0.5385  0.3547  0.8482
 4930SOL     OW16389   0.224   0.673   4.478 -0.2537 -0.0304  0.2333
 4930SOL    HW116390   0.323   0.679   4.467 -0.2477 -0.5938 -0.0707
 4930SOL    HW216391   0.198   0.713   4.566  0.4626 -1.4987  1.1616
 4931SOL     OW16392   1.612   1.344   6.241  0.5269 -0.5414  0.2641
 4931SOL    HW116393   1.556   1.289   6.179  0.4820 -0.8742  0.5958
 4931SOL    HW216394   1.705   1.307   6.242  0.3717 -0.9292  0.8744
 4932SOL     OW16395   3.521   6.207   5.945  0.2732 -0.1495  0.1039
 4932SOL    HW116396   3.449   6.275   5.959  0.9246  0.3791  1.0434
 4932SOL    HW216397   3.597   6.226   6.008  0.1492 -2.2024  0.9400
 4933SOL     OW16398   2.875   4.798   1.094  0.8296  0.0529  0.0739
 4933SOL    HW116399   2.904   4.875   1.038  2.1512 -1.2190 -1.0600
 4933SOL    HW216400   2.861   4.717   1.036  0.2653 -0.7914  1.3266
 4934SOL     OW16401   4.555   4.201   3.604 -0.2926 -0.5268  0.6050
 4934SOL    HW116402   4.500   4.188   3.522  2.8956  1.2312 -2.0975
 4934SOL    HW216403   4.546   4.296   3.635  2.4939  0.4729 -1.2012
 4935SOL     OW16404   1.747   5.215   4.962  0.2218  0.2840 -0.3529
 4935SOL    HW116405   1.681   5.213   4.887  1.1794  0.0468 -1.2168
 4935SOL    HW216406   1.732   5.137   5.022  0.1022 -0.1026 -0.8826
 4936SOL     OW16407   6.685   6.588   3.717  0.6381  0.3383 -0.0192
 4936SOL    HW116408   6.591   6.604   3.744  0.2081 -2.6951  0.6801
 4936SOL    HW216409   6.741   6.575   3.799  1.5969  1.6621 -0.4380
 4937SOL     OW16410   1.123   1.403   2.813 -0.0292  0.2535  0.4666
 4937SOL    HW116411   1.110   1.485   2.757 -0.0914 -1.8935 -2.9459
 4937SOL    HW216412   1.035   1.358   2.827  0.3976 -0.9451 -0.5825
 4938SOL     OW16413   5.638   3.859   0.601  0.0093  0.8151  0.6766
 4938SOL    HW116414   5.706   3.788   0.621 -0.5558  0.3372  0.9351
 4938SOL    HW216415   5.563   3.819   0.549  0.3730  1.5519 -0.4572
 4939SOL     OW16416   1.105   3.743   4.707 -0.1470  0.4103  0.4617
 4939SOL    HW116417   1.048   3.810   4.659 -0.5277 -0.7394 -0.7630
 4939SOL    HW216418   1.080   3.741   4.803  0.2484  2.3888  0.6443
 4940SOL     OW16419   0.248   4.725   1.086  0.4210 -0.8461  0.4431
 4940SOL    HW116420   0.337   4.760   1.059 -0.7364  2.5778  0.6814
 4940SOL    HW216421   0.258   4.669   1.169  2.5341 -2.4230 -0.7709
 4941SOL     OW16422   3.191   3.286   0.783 -0.0375 -0.0613  0.3599
 4941SOL    HW116423   3.291   3.277   0.782  0.0714  0.6124 -2.2297
 4941SOL    HW216424   3.164   3.341   0.862  1.6292 -0.2703  1.1266
 4942SOL     OW16425   2.550   5.475   0.863  0.2284  0.1627  0.1341
 4942SOL    HW116426   2.534   5.563   0.908 -0.2138  0.7645 -1.1843
 4942SOL    HW216427   2.605   5.417   0.924 -0.4859  0.8901  1.5130
 4943SOL     OW16428   1.740   1.731   6.153  0.2637 -0.5865 -0.2044
 4943SOL    HW116429   1.809   1.672   6.194 -0.0454 -1.7797 -1.3220
 4943SOL    HW216430   1.652   1.684   6.152 -0.8857  1.3026  2.1630
 4944SOL     OW16431   6.696   1.367   6.839 -1.1705  0.5412 -0.4234
 4944SOL    HW116432   6.795   1.367   6.826 -0.9280 -0.5268  1.1971
 4944SOL    HW216433   6.653   1.303   6.775 -0.9540  1.6949 -1.7794
 4945SOL     OW16434   5.333   3.191   0.180  0.1262  0.0785 -0.1358
 4945SOL    HW116435   5.368   3.228   0.094 -0.7692  1.0133 -0.1066
 4945SOL    HW216436   5.348   3.257   0.254  0.3502 -0.4697  0.3211
 4946SOL     OW16437   3.660   4.076   6.702  0.4685 -0.2387  0.3922
 4946SOL    HW116438   3.739   4.042   6.752  0.7552 -3.3318 -1.8768
 4946SOL    HW216439   3.590   4.005   6.697 -0.4649  0.7432 -1.5877
 4947SOL     OW16440   6.277   6.201   5.068 -0.8120  0.8634 -0.2241
 4947SOL    HW116441   6.236   6.293   5.068 -1.2492  0.6730 -0.1744
 4947SOL    HW216442   6.375   6.208   5.048 -0.7045  1.3952  0.4761
 4948SOL     OW16443   4.434   4.241   0.412 -0.5675 -0.0368 -0.2349
 4948SOL    HW116444   4.448   4.239   0.511 -0.1518 -1.8013 -0.3021
 4948SOL    HW216445   4.523   4.249   0.366 -0.5694 -1.3752 -0.4926
 4949SOL     OW16446   2.640   5.645   3.289  0.2516 -0.6734 -0.3857
 4949SOL    HW116447   2.667   5.557   3.248  0.6322 -0.5767 -0.3467
 4949SOL    HW216448   2.640   5.637   3.388  0.3589 -0.6099 -0.3801
 4950SOL     OW16449   0.371   3.705   6.885  0.0168  0.3338 -0.3318
 4950SOL    HW116450   0.450   3.646   6.868  1.0457  1.2614  0.9505
 4950SOL    HW216451   0.362   3.719   6.984 -2.4607 -0.6408 -0.3543
 4951SOL     OW16452   6.862   4.402   3.066 -0.0965  0.4435  0.5530
 4951SOL    HW116453   6.851   4.359   3.156  0.7410  3.2347  2.1350
 4951SOL    HW216454   6.946   4.367   3.023 -0.9750 -1.5890  0.3584
 4952SOL     OW16455   6.181   6.615   1.280 -0.1580  0.4652 -0.3950
 4952SOL    HW116456   6.240   6.534   1.281  0.8118  1.1618 -0.1067
 4952SOL    HW216457   6.144   6.630   1.372 -1.9765 -0.7949 -0.8687
 4953SOL     OW16458   6.279   6.993   4.612 -0.1826  0.1323 -0.2624
 4953SOL    HW116459   6.213   6.940   4.667  0.0106 -0.0739 -0.2287
 4953SOL    HW216460   6.372   6.965   4.635 -0.0859  0.3395 -0.3977
 4954SOL     OW16461   6.762   0.427   0.916 -0.2115  0.3803  0.4124
 4954SOL    HW116462   6.800   0.357   0.857 -0.3702  1.6862 -1.3135
 4954SOL    HW216463   6.665   0.409   0.933 -0.6935  1.0359 -1.4355
 4955SOL     OW16464   3.052   3.347   6.224 -0.0096  0.2150 -0.3627
 4955SOL    HW116465   3.046   3.433   6.174  0.4715  0.2387 -0.3923
 4955SOL    HW216466   2.971   3.334   6.280  0.2091  1.0079  0.1534
 4956SOL     OW16467   4.524   0.476   0.877 -0.1436 -0.3391 -0.4231
 4956SOL    HW116468   4.607   0.469   0.932 -0.0258  0.8474 -0.4311
 4956SOL    HW216469   4.449   0.510   0.934  0.2747  2.1061 -1.2191
 4957SOL     OW16470   6.915   6.835   6.724 -0.2185  0.4793  0.1052
 4957SOL    HW116471   6.954   6.792   6.805 -1.4246 -0.3142  0.2927
 4957SOL    HW216472   6.847   6.775   6.683 -1.0363  1.6809 -0.3820
 4958SOL     OW16473   2.599   5.602   2.393  0.1260  0.3002 -0.4709
 4958SOL    HW116474   2.528   5.629   2.458  1.7510  1.9597  0.7177
 4958SOL    HW216475   2.583   5.649   2.306  0.4849  1.7743  0.2200
 4959SOL     OW16476   4.628   3.340   6.439 -0.1591  0.5508 -0.4373
 4959SOL    HW116477   4.674   3.263   6.394 -0.1211  1.1807 -1.5051
 4959SOL    HW216478   4.672   3.357   6.527  0.2819 -0.2063 -0.5000
 4960SOL     OW16479   1.217   2.533   5.443  0.0143 -0.2150  0.0331
 4960SOL    HW116480   1.317   2.527   5.454  0.0338 -0.5019 -0.2987
 4960SOL    HW216481   1.195   2.617   5.392  0.0994 -0.2447 -0.0541
 4961SOL     OW16482   5.486   5.429   2.173  0.2873 -0.5225 -0.2271
 4961SOL    HW116483   5.462   5.339   2.211 -0.4355 -0.3591 -0.2771
 4961SOL    HW216484   5.433   5.444   2.089  1.3439 -0.5789 -0.9171
 4962SOL     OW16485   0.785   6.520   3.094  0.1166 -0.3576 -0.3832
 4962SOL    HW116486   0.800   6.541   2.997  1.2099  1.0567  0.0631
 4962SOL    HW216487   0.693   6.482   3.106 -0.3949  0.3507 -1.8521
 4963SOL     OW16488   0.065   5.275   4.456  0.0396  0.2274 -0.1016
 4963SOL    HW116489   0.067   5.356   4.514  2.8932  0.2823 -0.1501
 4963SOL    HW216490   0.128   5.206   4.492 -1.4915 -1.5632 -0.6799
 4964SOL     OW16491   1.918   4.787   2.612 -0.3089  0.2809  0.3388
 4964SOL    HW116492   1.983   4.723   2.573  0.3989  0.5401  1.0768
 4964SOL    HW216493   1.961   4.837   2.688 -0.9243  1.4412 -0.0593
 4965SOL     OW16494   2.727   4.531   5.742  0.5822  0.2665 -0.2898
 4965SOL    HW116495   2.699   4.512   5.836 -1.2040  2.1496 -0.3568
 4965SOL    HW216496   2.699   4.456   5.683 -0.5188  0.1621  0.3413
 4966SOL     OW16497   4.926   2.048   6.677 -0.0432 -0.3160  0.4011
 4966SOL    HW116498   4.857   2.105   6.723  0.5205  0.8249 -0.1323
 4966SOL    HW216499   4.968   1.986   6.744 -1.8614 -1.3556  0.6552
 4967SOL     OW16500   0.603   2.647   5.392  0.3860  0.4691 -0.3795
 4967SOL    HW116501   0.556   2.677   5.309  0.6807  0.2461 -0.6251
 4967SOL    HW216502   0.561   2.692   5.471  0.2330  0.8342 -0.6637
 4968SOL     OW16503   1.544   1.135   5.393  0.8737  0.2245  0.1710
 4968SOL    HW116504   1.447   1.126   5.412  0.6037  0.5338 -0.9518
 4968SOL    HW216505   1.597   1.105   5.472 -0.1320  0.2237  0.8601
 4969SOL     OW16506   2.858   3.584   3.899  0.2442  0.5172 -0.0677
 4969SOL    HW116507   2.943   3.629   3.925 -0.3743  0.8128  1.5746
 4969SOL    HW216508   2.818   3.630   3.819  1.7462  0.1769 -1.0539
 4970SOL     OW16509   1.641   0.156   0.603  0.4528  0.2764 -0.8231
 4970SOL    HW116510   1.576   0.191   0.671  1.8352  2.7984 -0.6643
 4970SOL    HW216511   1.633   0.209   0.519  1.4968 -0.1256 -1.1952
 4971SOL     OW16512   5.684   5.155   0.073 -0.3123  0.3555 -0.2277
 4971SOL    HW116513   5.722   5.214   0.002  1.2152 -0.4507 -0.1208
 4971SOL    HW216514   5.641   5.211   0.144 -0.9006  1.2118 -1.2330
 4972SOL     OW16515   3.055   2.926   0.076  0.2852 -0.4244  0.2654
 4972SOL    HW116516   3.094   2.995   0.016  0.8855  1.2434  2.4529
 4972SOL    HW216517   3.069   2.952   0.171 -2.9395 -1.6068  1.2059
 4973SOL     OW16518   3.727   4.983   5.832  0.3508  0.5633 -0.0765
 4973SOL    HW116519   3.660   4.934   5.777  1.1506  0.8252 -1.3188
 4973SOL    HW216520   3.769   4.921   5.898 -0.0404  0.0447 -0.3155
 4974SOL     OW16521   4.722   6.613   5.618 -0.1844 -0.0539 -0.9327
 4974SOL    HW116522   4.687   6.523   5.594 -0.3226 -0.6562  1.2472
 4974SOL    HW216523   4.822   6.610   5.619 -0.1951 -0.3685 -0.2997
 4975SOL     OW16524   4.026   1.341   4.972  0.1950 -0.5881  0.2795
 4975SOL    HW116525   4.070   1.259   5.010  2.6336 -0.1328 -1.2781
 4975SOL    HW216526   3.979   1.316   4.887 -1.5689 -0.8289  1.2756
 4976SOL     OW16527   4.162   5.911   2.128  0.0801 -0.3393 -0.0262
 4976SOL    HW116528   4.248   5.918   2.179 -0.3977  0.7700  0.6730
 4976SOL    HW216529   4.175   5.947   2.036  0.9680 -2.4151 -0.7576
 4977SOL     OW16530   5.784   1.940   1.343 -0.1678 -0.2065  0.3219
 4977SOL    HW116531   5.767   2.013   1.409  0.4332 -0.8755  1.2516
 4977SOL    HW216532   5.830   1.864   1.390  1.9157  0.0122 -1.2444
 4978SOL     OW16533   1.555   2.707   6.122  0.1925  0.1217 -0.2988
 4978SOL    HW116534   1.605   2.710   6.036 -0.8243  0.2639 -0.9033
 4978SOL    HW216535   1.613   2.668   6.193  1.2664  0.6005 -0.8908
 4979SOL     OW16536   4.883   0.505   4.411 -0.3550  0.2330 -0.0217
 4979SOL    HW116537   4.906   0.600   4.389 -0.4174  0.3483  0.4036
 4979SOL    HW216538   4.832   0.464   4.335  0.5942  0.2075 -0.6609
 4980SOL     OW16539   2.412   5.712   5.516  0.3385 -0.4177  0.0927
 4980SOL    HW116540   2.354   5.694   5.596  0.4735 -2.2405 -0.1725
 4980SOL    HW216541   2.439   5.625   5.475 -1.2730  0.4329 -3.1000
 4981SOL     OW16542   4.846   5.763   5.416  0.2426  0.2012 -0.0055
 4981SOL    HW116543   4.883   5.685   5.367 -0.6293  0.0222 -0.3950
 4981SOL    HW216544   4.846   5.744   5.514  1.2973  0.2711  0.0274
 4982SOL     OW16545   1.802   4.872   6.178 -0.1475 -0.4229  0.1711
 4982SOL    HW116546   1.759   4.823   6.104 -0.2430  0.7204 -0.5566
 4982SOL    HW216547   1.738   4.881   6.255 -1.3067  1.3618 -0.9371
 4983SOL     OW16548   2.137   1.406   3.595 -0.0036  0.8858  0.8567
 4983SOL    HW116549   2.095   1.493   3.620 -1.6511  0.8271 -1.3305
 4983SOL    HW216550   2.067   1.334   3.595  0.8535  0.0287  0.4690
 4984SOL     OW16551   0.729   5.027   4.089  0.5410  0.0896 -0.2435
 4984SOL    HW116552   0.726   5.031   3.989 -0.5678 -0.4955 -0.2532
 4984SOL    HW216553   0.636   5.014   4.125  0.4400  3.2328  1.0231
 4985SOL     OW16554   3.864   0.917   1.138  0.0597 -0.5314  0.5487
 4985SOL    HW116555   3.812   0.892   1.056  0.1792 -1.4449  0.7432
 4985SOL    HW216556   3.828   1.003   1.175 -3.6010 -2.7142  2.5866
 4986SOL     OW16557   5.585   2.514   2.500  0.3214 -0.3250  0.2713
 4986SOL    HW116558   5.531   2.482   2.421 -3.3855  0.5175  2.2249
 4986SOL    HW216559   5.560   2.460   2.581  1.1094  1.3003  1.6494
 4987SOL     OW16560   1.676   5.773   0.944  0.1934 -0.3452 -0.7611
 4987SOL    HW116561   1.582   5.774   0.978  0.3780 -0.3782 -0.2458
 4987SOL    HW216562   1.732   5.714   1.001  0.3830 -0.8673 -1.4730
 4988SOL     OW16563   0.450   5.546   6.430 -0.0230 -0.1134 -0.0874
 4988SOL    HW116564   0.389   5.537   6.351 -0.0051 -0.5170 -0.0530
 4988SOL    HW216565   0.405   5.508   6.511  0.9333 -1.9590 -0.3875
 4989SOL     OW16566   5.852   6.815   4.091  0.5185 -0.0858  0.3924
 4989SOL    HW116567   5.898   6.904   4.090 -0.8658  0.6683  0.6368
 4989SOL    HW216568   5.862   6.773   4.181 -1.0876  1.0977  1.1723
 4990SOL     OW16569   1.116   1.075   2.916 -0.0092  0.0135  0.7440
 4990SOL    HW116570   1.038   1.135   2.931  0.5302  0.7025  0.8052
 4990SOL    HW216571   1.089   1.001   2.853 -0.6332  0.3791  0.5722
 4991SOL     OW16572   0.106   5.090   6.081  0.0472 -0.1188 -0.0090
 4991SOL    HW116573   0.042   5.163   6.059 -0.1101  0.1551  1.2836
 4991SOL    HW216574   0.199   5.124   6.073  0.0727 -0.5688 -2.0735
 4992SOL     OW16575   3.607   0.971   6.226 -0.6472 -0.4684  0.0819
 4992SOL    HW116576   3.600   0.926   6.315 -1.9945  0.3478  0.4202
 4992SOL    HW216577   3.598   0.903   6.153 -4.0085 -0.7082  0.5618
 4993SOL     OW16578   2.157   3.988   2.085  0.0853 -0.0846  0.5798
 4993SOL    HW116579   2.220   4.058   2.050  0.1528  0.6721  2.1313
 4993SOL    HW216580   2.120   4.018   2.173 -1.8179 -0.8913  0.1017
 4994SOL     OW16581   6.315   4.546   0.865  0.2131 -0.1801  0.1521
 4994SOL    HW116582   6.299   4.543   0.964 -1.8245 -0.2915 -0.1274
 4994SOL    HW216583   6.410   4.570   0.847  1.1669 -2.0496  2.1383
 4995SOL     OW16584   1.930   0.469   1.341  0.5253 -0.1185 -0.5994
 4995SOL    HW116585   1.999   0.431   1.402 -1.4515  0.5821  2.2663
 4995SOL    HW216586   1.896   0.555   1.378 -0.5211  0.5692 -2.9450
 4996SOL     OW16587   5.233   0.531   6.664  0.0381  0.1307 -0.1271
 4996SOL    HW116588   5.217   0.504   6.760 -1.0743 -0.4437 -0.4546
 4996SOL    HW216589   5.147   0.527   6.614  0.6487  0.2480 -1.2090
 4997SOL     OW16590   6.120   4.277   2.616  0.1640  0.2246 -0.0601
 4997SOL    HW116591   6.087   4.183   2.615  0.8696 -0.0500  0.8955
 4997SOL    HW216592   6.049   4.337   2.654  0.5926 -0.3110  1.6765
 4998SOL     OW16593   5.468   0.967   6.856  0.9261  0.2639 -0.7951
 4998SOL    HW116594   5.402   1.040   6.836  0.3581  0.8842  2.7346
 4998SOL    HW216595   5.443   0.885   6.805 -1.0939  1.2222 -1.4611
 4999SOL     OW16596   4.843   2.825   4.968  0.2712  0.2482 -0.1043
 4999SOL    HW116597   4.833   2.783   4.878  0.3669 -0.7805  0.3509
 4999SOL    HW216598   4.783   2.905   4.974  1.4449  1.3291 -1.6378
 5000SOL     OW16599   0.150   6.948   0.003 -0.3813  0.1470 -0.6974
 5000SOL    HW116600   0.211   6.968  -0.074 -0.5535  0.5262 -0.7363
 5000SOL    HW216601   0.074   7.013   0.003 -0.4191  0.1050 -0.2472
 5001SOL     OW16602   4.190   4.481   5.439  0.6288 -0.1723 -0.1348
 5001SOL    HW116603   4.172   4.576   5.465 -1.1604 -0.3664 -0.5443
 5001SOL    HW216604   4.274   4.477   5.385  1.3637  0.9950  0.8591
 5002SOL     OW16605   7.028   3.659   2.094  0.4300 -0.2139  0.3569
 5002SOL    HW116606   7.060   3.654   2.188  0.7215  0.3330  0.2920
 5002SOL    HW216607   7.011   3.567   2.059 -1.0138 -0.3709  1.3875
 5003SOL     OW16608   1.042   1.136   1.069 -0.3716  0.2480 -0.6689
 5003SOL    HW116609   1.093   1.201   1.013  0.3870 -0.8100 -1.2389
 5003SOL    HW216610   1.018   1.178   1.156  1.5974  0.7366 -0.3255
 5004SOL     OW16611   0.938   1.696   4.658 -0.0958  0.3006  0.1081
 5004SOL    HW116612   0.949   1.704   4.757 -0.1953  0.1485  0.1325
 5004SOL    HW216613   0.880   1.770   4.624 -2.3932 -1.1755  0.5598
 5005SOL     OW16614   0.015   2.995   1.051 -0.0870  0.4928 -0.0759
 5005SOL    HW116615   0.035   2.954   0.962  0.5402 -0.7124  0.5944
 5005SOL    HW216616  -0.068   3.050   1.044  0.1033  0.6470 -1.4631
 5006SOL     OW16617   4.089   2.973   3.259  0.2057 -0.3505 -0.4135
 5006SOL    HW116618   4.105   2.964   3.357 -0.7273  1.4169 -0.0559
 5006SOL    HW216619   3.998   3.011   3.243  0.0250 -1.3173 -2.0216
 5007SOL     OW16620   4.792   3.619   3.316 -0.6842  0.1550 -0.0218
 5007SOL    HW116621   4.796   3.660   3.225  0.8744  0.5778  0.1963
 5007SOL    HW216622   4.741   3.533   3.312 -1.7433  0.8122 -1.0140
 5008SOL     OW16623   1.165   5.300   6.035 -0.4417  0.3026 -0.6012
 5008SOL    HW116624   1.242   5.321   6.095 -1.0715 -1.0417  0.7783
 5008SOL    HW216625   1.198   5.270   5.946  0.5164  3.0636 -1.2564
 5009SOL     OW16626   2.569   4.076   3.595 -0.6734  0.0647 -0.0393
 5009SOL    HW116627   2.495   4.010   3.580 -0.4354 -0.0147 -0.9368
 5009SOL    HW216628   2.618   4.090   3.509 -0.4650  1.1065  0.2395
 5010SOL     OW16629   5.555   4.444   0.399 -0.5597 -0.6115 -0.1187
 5010SOL    HW116630   5.624   4.414   0.464  0.9398 -2.5962 -2.4489
 5010SOL    HW216631   5.596   4.509   0.335 -1.8872  0.9804  0.5813
 5011SOL     OW16632   4.357   1.220   4.321 -0.5575  0.1611  0.0192
 5011SOL    HW116633   4.342   1.127   4.288  1.0213  0.2215 -0.9840
 5011SOL    HW216634   4.300   1.237   4.401  0.9419 -2.5509  1.8131
 5012SOL     OW16635   3.018   4.513   6.218 -0.4358  0.3133  0.1810
 5012SOL    HW116636   3.093   4.562   6.175  0.6884  0.4562  2.1735
 5012SOL    HW216637   2.952   4.578   6.254 -3.2043  0.2174 -4.0611
 5013SOL     OW16638   6.958   2.923   0.444  0.0029 -0.0608  0.1910
 5013SOL    HW116639   6.930   3.019   0.444 -1.8551 -0.5532  0.7113
 5013SOL    HW216640   7.018   2.905   0.366  2.0086  1.9148  1.1606
 5014SOL     OW16641   4.739   6.065   0.315 -0.3408 -0.1043  0.4058
 5014SOL    HW116642   4.715   6.155   0.277  0.1745  0.3703  1.1776
 5014SOL    HW216643   4.828   6.071   0.360  0.0415 -1.1923 -0.1691
 5015SOL     OW16644   0.542   6.560   6.522 -0.2389 -0.1817  0.3809
 5015SOL    HW116645   0.566   6.655   6.544  0.7495 -0.7651  1.9678
 5015SOL    HW216646   0.499   6.518   6.602  2.1311 -1.9535  0.8151
 5016SOL     OW16647   5.524   2.048   2.075  0.3708 -0.2811  0.2800
 5016SOL    HW116648   5.476   2.111   2.015  0.1627 -1.2159 -0.5696
 5016SOL    HW216649   5.478   2.044   2.164  0.0345  0.3021  0.1334
 5017SOL     OW16650   1.383   4.878   6.981 -0.5069  0.1005 -0.1524
 5017SOL    HW116651   1.443   4.940   7.031 -0.2998  0.5327 -0.9373
 5017SOL    HW216652   1.288   4.909   6.989 -0.5947 -0.3599  0.7510
 5018SOL     OW16653   3.203   3.241   6.616  0.1802 -0.0451 -0.0166
 5018SOL    HW116654   3.173   3.329   6.653 -1.5462 -0.3966 -0.4974
 5018SOL    HW216655   3.228   3.251   6.520 -3.6113 -0.6687 -1.2274
 5019SOL     OW16656   1.344   0.214   3.939 -0.9921  0.5926 -0.0836
 5019SOL    HW116657   1.313   0.220   4.034  1.5899 -0.1447  0.8802
 5019SOL    HW216658   1.372   0.305   3.908 -0.6086  0.6188  0.3253
 5020SOL     OW16659   2.284   2.474   5.818 -0.1764  0.3153  0.2818
 5020SOL    HW116660   2.202   2.520   5.785 -0.6999 -1.1223 -0.5108
 5020SOL    HW216661   2.324   2.420   5.744  0.4891 -0.3887  1.1410
 5021SOL     OW16662   4.318   2.205   5.470 -0.0574  0.0440  0.9324
 5021SOL    HW116663   4.239   2.208   5.531 -1.2868  0.1536 -0.5865
 5021SOL    HW216664   4.356   2.297   5.462  0.5267 -0.0897  2.0179
 5022SOL     OW16665   2.656   4.016   6.797 -0.5580 -0.4345 -0.2424
 5022SOL    HW116666   2.608   3.928   6.799 -0.9683 -0.2094  1.4201
 5022SOL    HW216667   2.595   4.086   6.760 -1.2592 -0.3279  1.0291
 5023SOL     OW16668   0.212   2.917   1.258  0.0758  1.1419  0.4997
 5023SOL    HW116669   0.200   2.899   1.356 -0.3905  2.4524  0.7060
 5023SOL    HW216670   0.123   2.912   1.212  0.0552  2.0046  0.4222
 5024SOL     OW16671   0.851   1.082   1.739 -0.0066  0.2627 -0.5045
 5024SOL    HW116672   0.811   1.135   1.664 -0.2734 -0.9316 -1.2381
 5024SOL    HW216673   0.920   1.019   1.702 -0.1226 -0.3193  0.2466
 5025SOL     OW16674   3.592   6.315   1.219  0.0123  0.1059 -0.0616
 5025SOL    HW116675   3.547   6.226   1.213  1.2129 -0.4550 -1.4248
 5025SOL    HW216676   3.660   6.313   1.292 -0.8255  0.3283  0.7346
 5026SOL     OW16677   2.376   2.994   1.551 -0.1973 -0.8193  0.0052
 5026SOL    HW116678   2.313   2.919   1.529  0.7672 -1.9238  0.9162
 5026SOL    HW216679   2.352   3.074   1.495 -0.5749 -2.1167 -1.7901
 5027SOL     OW16680   4.024   3.732   1.780  0.0907  0.5190  0.2273
 5027SOL    HW116681   4.001   3.675   1.859 -0.4352  0.7259  0.2262
 5027SOL    HW216682   4.095   3.798   1.806  0.8074 -0.2175  0.1934
 5028SOL     OW16683   4.183   1.386   0.428  0.6929 -0.0228 -0.5034
 5028SOL    HW116684   4.141   1.319   0.490  0.5476  0.9217  0.4530
 5028SOL    HW216685   4.174   1.477   0.467  2.4893  0.3574 -0.8960
 5029SOL     OW16686   0.853   0.126   2.362 -0.0205 -0.2468 -0.1025
 5029SOL    HW116687   0.861   0.042   2.308  0.2558  0.6601 -1.5252
 5029SOL    HW216688   0.813   0.104   2.451 -1.3146 -1.6697 -0.9795
 5030SOL     OW16689   4.746   5.702   0.012 -0.1295  0.1021  0.2621
 5030SOL    HW116690   4.828   5.727   0.064 -0.1309 -0.0047  0.3167
 5030SOL    HW216691   4.705   5.621   0.052 -0.7149  0.6172  0.7159
 5031SOL     OW16692   6.465   4.711   3.335 -0.4563 -0.2744  0.1038
 5031SOL    HW116693   6.472   4.647   3.258 -0.0318  0.2776 -0.3273
 5031SOL    HW216694   6.373   4.706   3.374 -0.4489 -1.0963  0.0388
 5032SOL     OW16695   1.204   5.947   1.368  0.1111  0.1057 -0.3059
 5032SOL    HW116696   1.242   5.995   1.289 -0.4401 -0.6546 -1.0537
 5032SOL    HW216697   1.277   5.898   1.415  0.4414  0.5516 -0.3397
 5033SOL     OW16698   5.624   1.102   4.089 -0.5369  0.4959 -0.2035
 5033SOL    HW116699   5.585   1.166   4.155 -1.3433 -0.5472  0.3429
 5033SOL    HW216700   5.675   1.031   4.137  0.5301  0.8276 -0.8190
 5034SOL     OW16701   0.410   5.405   4.166  0.2512  0.0591  0.2557
 5034SOL    HW116702   0.484   5.370   4.109 -0.2151 -0.7807  0.1535
 5034SOL    HW216703   0.343   5.333   4.181  0.4930  0.1654  2.1042
 5035SOL     OW16704   6.312   4.525   2.803  0.1761  0.2768  0.7199
 5035SOL    HW116705   6.395   4.485   2.841  0.4351  1.2461  1.1999
 5035SOL    HW216706   6.334   4.608   2.752 -0.6678  1.6504  2.4858
 5036SOL     OW16707   5.682   3.531   3.521  0.2908  0.1473 -0.0536
 5036SOL    HW116708   5.702   3.439   3.486 -0.2950  0.2896 -0.8120
 5036SOL    HW216709   5.682   3.596   3.445  0.1746  0.6843  0.3999
 5037SOL     OW16710   6.310   1.191   5.228 -0.4258 -0.1039  0.0363
 5037SOL    HW116711   6.402   1.164   5.257  0.1276 -1.6241 -2.6940
 5037SOL    HW216712   6.265   1.113   5.184 -2.0546  1.2768 -0.8864
 5038SOL     OW16713   6.603   7.016   5.829 -0.0324  0.2743  0.2661
 5038SOL    HW116714   6.654   6.947   5.880 -0.4484 -0.6477 -0.5406
 5038SOL    HW216715   6.566   7.084   5.892 -0.3657 -0.7313  1.1786
 5039SOL     OW16716   5.549   3.813   0.886 -0.2583  0.2613 -0.0805
 5039SOL    HW116717   5.514   3.731   0.839 -1.1747 -0.4694  1.7854
 5039SOL    HW216718   5.642   3.832   0.854 -0.7431 -0.3271 -1.9869
 5040SOL     OW16719   4.503   1.028   3.958 -0.7738  0.4793 -0.4503
 5040SOL    HW116720   4.439   1.023   4.035 -0.7245 -0.7158 -0.4620
 5040SOL    HW216721   4.451   1.032   3.872 -0.8520 -0.3028 -0.4503
 5041SOL     OW16722   0.023   6.066   3.165  0.0600 -0.2052 -0.0632
 5041SOL    HW116723   0.036   6.160   3.132  0.2611  0.2007  1.1222
 5041SOL    HW216724   0.044   6.062   3.262 -1.1801 -1.2256  0.1866
 5042SOL     OW16725   3.534   6.697   6.873 -0.3226 -0.0691 -0.2668
 5042SOL    HW116726   3.478   6.732   6.798 -1.3911  3.0106  1.7528
 5042SOL    HW216727   3.506   6.603   6.894  0.2554 -1.1559 -3.7908
 5043SOL     OW16728   3.987   1.498   1.770 -0.0574  0.1830  0.0210
 5043SOL    HW116729   3.931   1.428   1.726 -0.1741 -0.4456  1.1232
 5043SOL    HW216730   4.048   1.539   1.703 -1.0370  0.0808 -0.9653
 5044SOL     OW16731   2.733   1.306   3.364  0.2728 -0.0054 -0.1121
 5044SOL    HW116732   2.751   1.380   3.299  0.0627  0.8885  0.8162
 5044SOL    HW216733   2.635   1.284   3.362  0.1111  0.6233  0.5064
 5045SOL     OW16734   3.131   2.069   2.327  0.7207  0.2386 -0.2587
 5045SOL    HW116735   3.050   2.073   2.268  0.6522  0.8608 -0.1299
 5045SOL    HW216736   3.177   2.158   2.327  1.3572 -0.0819 -0.2558
 5046SOL     OW16737   5.362   6.922   6.624  0.5161 -0.1215 -0.3290
 5046SOL    HW116738   5.289   6.947   6.687  0.8389  0.3687 -0.1513
 5046SOL    HW216739   5.357   6.824   6.605  0.1787 -0.1977  0.1452
 5047SOL     OW16740   0.236   4.597   0.410 -0.1267  0.2539 -0.4820
 5047SOL    HW116741   0.311   4.559   0.356 -1.3906 -1.9582 -0.7972
 5047SOL    HW216742   0.164   4.629   0.348  0.0503  1.3156 -0.1550
 5048SOL     OW16743   1.818   0.520   2.777 -0.2491  0.1550  0.6314
 5048SOL    HW116744   1.725   0.488   2.759 -0.3629  0.0720  1.3541
 5048SOL    HW216745   1.828   0.614   2.744  0.2935 -0.7776 -2.1609
 5049SOL     OW16746   2.340   3.192   1.368 -0.0561 -0.2618 -0.3832
 5049SOL    HW116747   2.284   3.213   1.287 -0.7138 -2.4108 -0.5530
 5049SOL    HW216748   2.393   3.273   1.394 -0.6327  0.8013 -2.3156
 5050SOL     OW16749   6.338   2.362   5.221 -0.4536 -0.0377 -0.6578
 5050SOL    HW116750   6.248   2.328   5.248 -0.6435  0.3784 -0.7622
 5050SOL    HW216751   6.409   2.310   5.268 -0.7133 -1.1217 -1.4264
 5051SOL     OW16752   0.009   2.881   0.747 -0.6180 -0.1794  0.1090
 5051SOL    HW116753   0.030   2.787   0.771 -0.3432  0.4745  2.6525
 5051SOL    HW216754   0.040   2.899   0.653  1.3987 -1.9452  0.3677
 5052SOL     OW16755   0.440   1.947   4.867  0.1298  0.1533  0.0780
 5052SOL    HW116756   0.414   1.874   4.930  0.2342  0.4040  0.4146
 5052SOL    HW216757   0.371   2.019   4.869  1.0213  1.0113  1.2779
 5053SOL     OW16758   4.177   4.046   5.442 -0.4995  0.0706 -0.0775
 5053SOL    HW116759   4.193   4.052   5.344 -1.0534  1.7895 -0.0900
 5053SOL    HW216760   4.264   4.054   5.491 -0.2825 -0.2711 -0.4054
 5054SOL     OW16761   6.564   3.779   1.429 -0.1305  0.2415 -0.1348
 5054SOL    HW116762   6.590   3.745   1.519  0.6351 -1.0432 -0.8062
 5054SOL    HW216763   6.566   3.879   1.429 -0.8962  0.2864  1.4739
 5055SOL     OW16764   6.789   4.654   1.971 -0.0321  0.3219 -0.1231
 5055SOL    HW116765   6.822   4.633   2.063 -1.3005 -1.1324  0.0577
 5055SOL    HW216766   6.809   4.578   1.910 -2.2013 -0.2890 -0.1849
 5056SOL     OW16767   4.850   1.980   0.196 -0.5030 -0.1111 -0.2321
 5056SOL    HW116768   4.911   1.926   0.253 -0.7499 -0.9566 -0.7608
 5056SOL    HW216769   4.804   1.921   0.130 -0.8441  0.7277 -0.7658
 5057SOL     OW16770   6.720   0.607   5.131  0.8276  0.4692 -0.1362
 5057SOL    HW116771   6.801   0.549   5.135  0.9649  0.4529 -2.2334
 5057SOL    HW216772   6.638   0.549   5.126  0.6919  0.4909  1.3205
 5058SOL     OW16773   1.889   4.050   3.987  0.6615  0.3747  0.0919
 5058SOL    HW116774   1.975   4.038   4.037  1.0536  0.7194 -0.5037
 5058SOL    HW216775   1.814   4.061   4.053  0.4767 -3.4633  0.7620
 5059SOL     OW16776   0.055   4.755   4.680  0.5777 -0.4497 -0.4342
 5059SOL    HW116777   0.031   4.712   4.767  1.3663 -0.0409  0.0020
 5059SOL    HW216778   0.064   4.854   4.694  1.4810 -0.4738 -0.8068
 5060SOL     OW16779   5.420   6.182   4.884 -1.1142  0.0803  0.1877
 5060SOL    HW116780   5.357   6.110   4.856 -0.9241  0.2074 -0.5850
 5060SOL    HW216781   5.460   6.225   4.803 -0.4458  0.3637  0.6602
 5061SOL     OW16782   2.956   5.885   2.919 -0.3354  0.3524  0.1262
 5061SOL    HW116783   2.927   5.876   3.014  0.3668  1.4340  0.4576
 5061SOL    HW216784   2.916   5.811   2.865  0.5390 -1.2218  1.5511
 5062SOL     OW16785   5.790   6.684   5.880 -0.2335 -0.1096  0.3615
 5062SOL    HW116786   5.764   6.719   5.790 -0.2647 -1.9068 -0.3632
 5062SOL    HW216787   5.874   6.631   5.872 -1.8024 -2.8713  0.7389
 5063SOL     OW16788   0.166   6.512   1.087 -0.5739 -0.1539  0.3693
 5063SOL    HW116789   0.254   6.514   1.133 -0.2382  0.0020 -0.2737
 5063SOL    HW216790   0.154   6.596   1.034 -1.7356  0.5046  1.5954
 5064SOL     OW16791   3.214   3.000   3.880 -0.7772  0.1511 -0.1409
 5064SOL    HW116792   3.248   2.949   3.802  0.1584  0.3772  0.1028
 5064SOL    HW216793   3.114   3.003   3.878 -0.7682 -0.0469 -1.1882
 5065SOL     OW16794   0.629   6.215   5.090 -0.1721 -0.1938 -0.3019
 5065SOL    HW116795   0.559   6.278   5.123 -0.1329  0.0343 -0.6504
 5065SOL    HW216796   0.712   6.265   5.068  1.2063 -0.7971  3.0013
 5066SOL     OW16797   1.824   1.450   3.859 -0.2920  0.0976  0.2737
 5066SOL    HW116798   1.812   1.549   3.848  2.0680  0.4510  0.4491
 5066SOL    HW216799   1.804   1.404   3.773 -1.2062  0.7286  0.1347
 5067SOL     OW16800   2.196   1.301   2.711  0.0744 -0.0328 -0.6422
 5067SOL    HW116801   2.178   1.206   2.689  1.6419 -0.2918 -0.9717
 5067SOL    HW216802   2.286   1.327   2.674 -0.4717  1.6702 -0.8690
 5068SOL     OW16803   4.405   4.080   6.769  0.2913  0.3694  0.0491
 5068SOL    HW116804   4.409   4.040   6.677 -0.1330 -1.7409  0.8968
 5068SOL    HW216805   4.313   4.068   6.806  0.9380 -0.5191  1.4531
 5069SOL     OW16806   4.484   6.996   3.805 -0.2701 -0.6812 -0.1453
 5069SOL    HW116807   4.481   6.952   3.895  0.9946 -1.6862 -0.5703
 5069SOL    HW216808   4.404   7.055   3.794 -0.0530  0.0676  1.9422
 5070SOL     OW16809   6.344   0.514   5.745  0.2835  0.1117  0.0563
 5070SOL    HW116810   6.417   0.456   5.782 -0.6098 -0.3340  1.2021
 5070SOL    HW216811   6.270   0.455   5.711 -0.5513  0.5423  1.0585
 5071SOL     OW16812   5.497   2.774   4.338 -0.1061 -0.0886  0.1909
 5071SOL    HW116813   5.517   2.718   4.258 -0.5872  1.6997 -1.2178
 5071SOL    HW216814   5.582   2.794   4.387  0.1921 -1.1561  0.1421
 5072SOL     OW16815   0.652   6.724   3.210  0.9810  0.0835  0.2885
 5072SOL    HW116816   0.691   6.632   3.212  0.4410 -0.1384  1.5270
 5072SOL    HW216817   0.569   6.726   3.265  0.8547  1.2589  0.0789
 5073SOL     OW16818   6.766   3.674   6.186  0.7923  0.4715  0.3849
 5073SOL    HW116819   6.802   3.684   6.094  1.9558 -0.5208  0.7066
 5073SOL    HW216820   6.842   3.673   6.252  0.0367  0.3839  1.2748
 5074SOL     OW16821   4.841   1.690   5.249  0.2221  0.7215 -0.7380
 5074SOL    HW116822   4.830   1.661   5.344 -1.8152 -2.2542 -1.7281
 5074SOL    HW216823   4.935   1.672   5.219  0.2378 -0.6355  0.0559
 5075SOL     OW16824   3.325   4.593   1.810 -0.1249 -0.2161  0.3203
 5075SOL    HW116825   3.415   4.607   1.854  1.1004  1.0049 -2.3723
 5075SOL    HW216826   3.264   4.669   1.834 -0.1308 -0.5447  1.3877
 5076SOL     OW16827   6.568   6.199   6.700 -0.3165 -0.1289 -0.2673
 5076SOL    HW116828   6.634   6.125   6.695  0.4141  0.5106 -0.2450
 5076SOL    HW216829   6.582   6.251   6.784 -0.1719  0.6321 -0.7476
 5077SOL     OW16830   1.909   6.454   2.322  0.5743 -0.2206  0.0622
 5077SOL    HW116831   1.981   6.387   2.307  0.8709 -0.4093  2.1371
 5077SOL    HW216832   1.942   6.525   2.385 -0.1503  1.2176 -1.1106
 5078SOL     OW16833   5.783   2.073   1.879  0.1240 -0.8898  0.2598
 5078SOL    HW116834   5.739   2.141   1.821  0.7047 -0.7086  0.0164
 5078SOL    HW216835   5.721   1.996   1.894  0.0294 -1.0299 -0.7593
 5079SOL     OW16836   1.613   3.366   6.437  0.1228 -0.3027 -0.4978
 5079SOL    HW116837   1.557   3.415   6.371  0.9725 -0.0547 -1.0518
 5079SOL    HW216838   1.641   3.277   6.400 -1.8865 -1.5288  0.7220
 5080SOL     OW16839   3.928   5.365   2.771 -0.2655 -0.1691  0.1199
 5080SOL    HW116840   3.936   5.454   2.817  1.1281 -0.5275  0.6416
 5080SOL    HW216841   4.016   5.341   2.730 -0.9127 -0.8490 -0.9003
 5081SOL     OW16842   4.042   6.775   0.931  0.6286  0.2262  0.5016
 5081SOL    HW116843   4.022   6.868   0.900  1.2378 -0.2411 -1.4019
 5081SOL    HW216844   4.115   6.778   0.999 -0.8822  1.2953  2.1812
 5082SOL     OW16845   6.093   3.042   2.598  0.3052  0.1708  0.1892
 5082SOL    HW116846   6.142   3.120   2.557  0.5317 -0.5476 -0.9436
 5082SOL    HW216847   6.010   3.024   2.546 -0.6795  0.7558  1.5218
 5083SOL     OW16848   3.310   3.426   6.364  1.0562 -0.1740  0.3275
 5083SOL    HW116849   3.242   3.389   6.300  0.0826 -0.2929  1.3877
 5083SOL    HW216850   3.334   3.519   6.337  0.8538 -0.3187 -0.3598
 5084SOL     OW16851   3.885   3.993   3.091 -0.1390 -0.0288 -0.2200
 5084SOL    HW116852   3.839   3.948   3.014 -1.2577  0.3849  0.1926
 5084SOL    HW216853   3.818   4.016   3.161  0.9828 -1.3744  1.3944
 5085SOL     OW16854   4.200   6.353   3.117  0.1163  0.1714 -0.8195
 5085SOL    HW116855   4.196   6.264   3.163 -0.3720  0.3180 -0.5650
 5085SOL    HW216856   4.143   6.418   3.167  1.1111  0.8476 -0.5330
 5086SOL     OW16857   2.529   0.221   2.648  0.1362  0.5166 -0.2572
 5086SOL    HW116858   2.500   0.275   2.569  5.0863  1.6819 -1.5751
 5086SOL    HW216859   2.485   0.131   2.643  0.1239  0.5421 -4.3593
 5087SOL     OW16860   6.957   5.472   4.211 -0.3078  0.6846  0.3365
 5087SOL    HW116861   7.009   5.427   4.138 -2.0209 -0.2912 -0.3520
 5087SOL    HW216862   6.918   5.403   4.272 -1.7225  1.2854  0.1591
 5088SOL     OW16863   4.400   6.888   5.703  0.3149 -0.1412 -0.1134
 5088SOL    HW116864   4.357   6.851   5.786  3.5298 -1.1743  1.2526
 5088SOL    HW216865   4.469   6.955   5.729  1.3257 -0.4096 -1.9851
 5089SOL     OW16866   5.152   2.444   4.994 -0.1198 -0.0561  0.3953
 5089SOL    HW116867   5.053   2.449   4.989 -0.2141  1.6108  2.4138
 5089SOL    HW216868   5.182   2.462   5.088  2.0956 -0.3081 -0.1942
 5090SOL     OW16869   2.932   5.884   1.225  0.7193  0.3408  0.2926
 5090SOL    HW116870   3.027   5.889   1.255  0.4164 -2.4420  2.0644
 5090SOL    HW216871   2.898   5.791   1.238 -2.8354  1.6556  1.5089
 5091SOL     OW16872   1.617   5.457   2.138  0.2629  0.3194 -0.1045
 5091SOL    HW116873   1.658   5.404   2.064  0.8748 -0.1606  0.5569
 5091SOL    HW216874   1.519   5.465   2.125  0.0437 -1.6275  0.1638
 5092SOL     OW16875   2.757   4.766   6.560 -0.0929  0.0249  0.5157
 5092SOL    HW116876   2.789   4.680   6.599  1.1092 -0.8469 -2.1009
 5092SOL    HW216877   2.659   4.760   6.540  0.4282 -1.8227 -1.9574
 5093SOL     OW16878   5.910   4.874   0.673 -0.1387 -0.3484 -0.5939
 5093SOL    HW116879   6.007   4.894   0.681 -0.0963 -0.1357 -1.5900
 5093SOL    HW216880   5.857   4.956   0.696 -0.0981 -0.5021  0.0809
 5094SOL     OW16881   6.696   2.964   1.496  0.1930 -0.0171 -0.2801
 5094SOL    HW116882   6.740   2.962   1.586  0.9377 -1.4906 -0.6496
 5094SOL    HW216883   6.598   2.948   1.507  0.3822 -0.9128  0.2322
 5095SOL     OW16884   1.669   1.751   5.033  0.2569 -0.4090 -0.3086
 5095SOL    HW116885   1.741   1.814   5.063 -0.9267  0.4371  0.8897
 5095SOL    HW216886   1.622   1.714   5.113 -2.3829  1.1577 -1.0154
 5096SOL     OW16887   5.601   0.377   3.968 -0.1742  0.2498 -0.3172
 5096SOL    HW116888   5.562   0.307   3.908 -2.0100  1.0995 -0.1775
 5096SOL    HW216889   5.665   0.434   3.916  1.3994 -1.4986 -0.4190
 5097SOL     OW16890   2.181   0.533   2.817  0.6303 -0.0750  0.4074
 5097SOL    HW116891   2.216   0.576   2.734 -1.4902  0.4692 -0.2681
 5097SOL    HW216892   2.132   0.449   2.793 -0.4109  0.3363  1.0336
 5098SOL     OW16893   0.960   2.451   2.183  0.1829 -0.0624  0.0343
 5098SOL    HW116894   0.952   2.458   2.084 -1.5370 -0.7979  0.0819
 5098SOL    HW216895   0.880   2.495   2.225  0.4694 -0.4982  1.0512
 5099SOL     OW16896   4.050   6.280   6.101  0.2582 -0.1681  0.4910
 5099SOL    HW116897   4.050   6.269   6.001  1.9001 -1.1031  0.5667
 5099SOL    HW216898   4.140   6.311   6.131  0.0452 -0.7421  1.7720
 5100SOL     OW16899   2.514   5.604   2.665 -0.3714  0.6231  0.0461
 5100SOL    HW116900   2.590   5.665   2.684  0.8520 -0.1963 -1.9208
 5100SOL    HW216901   2.440   5.621   2.731  1.2748  1.7871  1.6743
 5101SOL     OW16902   1.355   2.344   2.669  0.3663 -0.1538  0.1472
 5101SOL    HW116903   1.349   2.291   2.585  1.3673 -0.1570  0.0673
 5101SOL    HW216904   1.431   2.409   2.663  0.6012 -0.3163  1.1324
 5102SOL     OW16905   4.717   3.645   6.359  0.1110 -0.2687  0.3330
 5102SOL    HW116906   4.748   3.554   6.334 -0.0022 -0.7128  1.7135
 5102SOL    HW216907   4.789   3.692   6.411 -0.0659  0.1923  0.1672
 5103SOL     OW16908   6.356   3.967   5.415 -0.5734 -0.3536 -0.2694
 5103SOL    HW116909   6.455   3.982   5.417 -0.9117  2.1187  0.8856
 5103SOL    HW216910   6.320   3.997   5.327 -0.2670 -1.7966 -0.9174
 5104SOL     OW16911   3.502   6.742   1.353  0.6019 -0.0916 -0.5242
 5104SOL    HW116912   3.431   6.672   1.362  0.8256 -0.7693 -3.1826
 5104SOL    HW216913   3.478   6.820   1.410 -1.4196 -0.9661 -0.0600
 5105SOL     OW16914   0.160   2.582   6.519 -0.0422 -0.1166  0.2986
 5105SOL    HW116915   0.122   2.538   6.600 -1.2085  0.9684  0.3814
 5105SOL    HW216916   0.149   2.681   6.527  0.1746  0.0354 -1.0124
 5106SOL     OW16917   4.232   0.372   3.028 -0.1764  0.3901 -0.1933
 5106SOL    HW116918   4.149   0.385   3.081  0.5781  0.4319  1.0013
 5106SOL    HW216919   4.220   0.293   2.967 -0.1275 -1.4475  2.0267
 5107SOL     OW16920   6.048   6.071   3.202 -0.1479  0.1396  0.0830
 5107SOL    HW116921   6.068   6.141   3.134 -0.5249  0.3720  0.2051
 5107SOL    HW216922   5.981   6.007   3.166  0.0170 -0.0187  0.0585
 5108SOL     OW16923   6.762   1.911   3.863  0.2772 -0.2421  0.1716
 5108SOL    HW116924   6.707   1.979   3.911  0.9225 -0.0711  0.6831
 5108SOL    HW216925   6.711   1.876   3.784 -0.4654  0.0755  0.5066
 5109SOL     OW16926   0.945   1.994   3.824  0.1648 -0.6567 -0.2323
 5109SOL    HW116927   0.936   2.007   3.923 -1.2835 -1.4761 -0.2339
 5109SOL    HW216928   0.889   1.917   3.795  0.0255  0.0024 -1.8011
 5110SOL     OW16929   2.409   1.744   5.616 -0.3467 -0.2222 -0.4194
 5110SOL    HW116930   2.359   1.791   5.543 -0.0666 -0.6468 -0.8980
 5110SOL    HW216931   2.365   1.762   5.704 -0.9986 -0.1176 -0.7599
 5111SOL     OW16932   6.022   5.871   4.858  0.0774 -0.5305 -0.5658
 5111SOL    HW116933   6.121   5.868   4.840 -0.0139 -0.1049 -1.1882
 5111SOL    HW216934   5.973   5.834   4.779 -0.3529  1.5594 -1.3422
 5112SOL     OW16935   4.279   1.601   1.151 -0.0975 -0.4002 -0.2813
 5112SOL    HW116936   4.247   1.562   1.237 -0.8730  2.9002  1.0868
 5112SOL    HW216937   4.369   1.564   1.129  0.7010 -0.4453  2.6666
 5113SOL     OW16938   4.986   0.235   1.777 -0.4135 -0.3312 -0.1877
 5113SOL    HW116939   4.942   0.298   1.713  1.1420 -1.1292 -2.1034
 5113SOL    HW216940   5.073   0.204   1.740 -1.3480 -4.0734  0.4070
 5114SOL     OW16941   3.016   2.858   6.386 -0.3612  0.2486  0.1590
 5114SOL    HW116942   3.096   2.805   6.414 -0.0440  0.1870 -0.8035
 5114SOL    HW216943   3.018   2.947   6.432  0.8192  0.6364 -0.5749
 5115SOL     OW16944   3.062   1.173   0.315 -0.3576 -0.3966  0.4043
 5115SOL    HW116945   3.060   1.248   0.380  0.4096 -0.4820  0.5327
 5115SOL    HW216946   3.104   1.203   0.229 -0.1060 -0.6559  0.4331
 5116SOL     OW16947   2.303   0.639   2.602 -0.2933 -0.1313  0.1156
 5116SOL    HW116948   2.371   0.711   2.598  0.3428 -0.7434 -0.3797
 5116SOL    HW216949   2.339   0.556   2.558 -0.9757 -0.7724  0.7331
 5117SOL     OW16950   6.098   6.229   2.531 -0.0073 -0.4680  0.5669
 5117SOL    HW116951   6.023   6.290   2.503 -1.0817 -1.7004  0.6534
 5117SOL    HW216952   6.170   6.283   2.575 -1.0401  0.7067  0.8866
 5118SOL     OW16953   3.096   1.042   6.695 -0.0489 -0.3646 -0.2705
 5118SOL    HW116954   3.165   0.969   6.701  0.4068  0.0710 -0.2012
 5118SOL    HW216955   3.141   1.131   6.689 -0.6052 -0.0758 -0.2469
 5119SOL     OW16956   4.056   6.003   1.550  0.1069 -0.0440  0.2805
 5119SOL    HW116957   3.977   5.942   1.555 -1.6096  2.0680  0.2654
 5119SOL    HW216958   4.071   6.029   1.454  1.1856 -0.8376  0.2187
 5120SOL     OW16959   6.045   2.469   5.491  0.1728  0.9457 -0.1150
 5120SOL    HW116960   6.047   2.376   5.528 -0.4962  1.0157  0.1064
 5120SOL    HW216961   5.978   2.474   5.417  0.3866  1.1951 -0.2946
 5121SOL     OW16962   6.893   6.889   0.407 -0.4483  0.2217 -1.0232
 5121SOL    HW116963   6.893   6.984   0.437  2.1517  0.4899 -1.5705
 5121SOL    HW216964   6.949   6.880   0.324 -0.2651 -1.8467 -0.7442
 5122SOL     OW16965   0.133   5.766   4.520 -0.2501  0.0032 -0.5542
 5122SOL    HW116966   0.147   5.763   4.619 -1.7826 -0.4257 -0.3255
 5122SOL    HW216967   0.221   5.775   4.474  0.7065 -2.0313  0.7485
 5123SOL     OW16968   0.493   4.488   1.039  0.2454 -0.0332  0.3769
 5123SOL    HW116969   0.472   4.575   0.994 -0.8179 -0.1134  0.6901
 5123SOL    HW216970   0.544   4.430   0.975 -0.5042  0.1716 -0.4319
 5124SOL     OW16971   4.076   6.554   2.443  0.4285 -0.6979 -0.0153
 5124SOL    HW116972   4.054   6.561   2.346  0.4089 -1.0565 -0.0393
 5124SOL    HW216973   4.153   6.491   2.456 -0.5800 -1.9190  0.3216
 5125SOL     OW16974   1.509   2.656   3.105  0.0951 -0.4617 -0.3650
 5125SOL    HW116975   1.446   2.721   3.147 -0.0169 -1.0962  0.4771
 5125SOL    HW216976   1.458   2.589   3.052  0.3376  1.5644 -3.4184
 5126SOL     OW16977   3.358   6.258   0.468  0.1065  0.4533  0.8703
 5126SOL    HW116978   3.295   6.266   0.391  1.7758 -0.2605 -0.6312
 5126SOL    HW216979   3.344   6.335   0.530 -1.5690  0.8184  0.0958
 5127SOL     OW16980   6.545   4.731   3.047 -0.1713 -0.2936  0.1553
 5127SOL    HW116981   6.639   4.708   3.071  0.0900 -0.2705 -0.8282
 5127SOL    HW216982   6.539   4.828   3.026 -0.2395 -0.4624 -0.6127
 5128SOL     OW16983   0.769   4.558   3.506  0.2003  0.0837  0.3986
 5128SOL    HW116984   0.849   4.613   3.481  1.4047 -1.4584  0.7105
 5128SOL    HW216985   0.776   4.531   3.602 -0.4086 -0.5190  0.2775
 5129SOL     OW16986   6.421   0.443   6.588  0.7839  0.4270 -0.2132
 5129SOL    HW116987   6.497   0.439   6.523  1.7089  0.9776  0.8011
 5129SOL    HW216988   6.336   0.460   6.539  1.3124 -0.1539 -1.3734
 5130SOL     OW16989   1.433   3.754   0.425 -0.0581  0.1358  0.4392
 5130SOL    HW116990   1.457   3.762   0.521 -2.0599  0.1067  0.9764
 5130SOL    HW216991   1.337   3.726   0.416  0.2973 -0.6216 -1.5594
 5131SOL     OW16992   5.669   0.626   1.252  0.1631 -0.3322  0.1649
 5131SOL    HW116993   5.673   0.628   1.352  5.0498  2.5384  0.2515
 5131SOL    HW216994   5.673   0.531   1.221 -1.8634 -1.3185  2.5690
 5132SOL     OW16995   5.705   2.447   0.125  0.4093  0.0200  0.3601
 5132SOL    HW116996   5.711   2.437   0.026  0.6276 -1.9221  0.5417
 5132SOL    HW216997   5.624   2.502   0.149  0.2021  0.2628 -0.8627
 5133SOL     OW16998   3.169   4.460   4.661  0.0652 -0.0147 -0.3808
 5133SOL    HW116999   3.224   4.455   4.745 -0.6031 -1.7146 -0.0010
 5133SOL    HW217000   3.223   4.503   4.588  0.8994  0.8685  0.7093
 5134SOL     OW17001   4.229   3.655   5.814  0.4579 -0.6459 -0.1203
 5134SOL    HW117002   4.307   3.618   5.765 -0.2547 -0.1555 -1.6939
 5134SOL    HW217003   4.145   3.632   5.766 -0.2596  0.1056  0.7227
 5135SOL     OW17004   4.225   4.405   6.987  0.7714  0.2820  0.1291
 5135SOL    HW117005   4.239   4.482   7.049  1.3397 -0.6242  1.1470
 5135SOL    HW217006   4.209   4.440   6.894  3.0729  1.5987  0.1557
 5136SOL     OW17007   6.305   3.396   5.059  0.0022  0.3255  0.0399
 5136SOL    HW117008   6.331   3.302   5.039 -1.2927 -0.1361  0.4059
 5136SOL    HW217009   6.308   3.450   4.974  1.1975  0.0833 -0.0836
 5137SOL     OW17010   1.048   5.417   3.883  0.0898  0.1013 -0.3106
 5137SOL    HW117011   1.080   5.493   3.827 -1.2427 -0.6935 -2.2665
 5137SOL    HW217012   1.022   5.451   3.973  0.0180  1.8883 -0.9531
 5138SOL     OW17013   4.039   4.790   0.326 -0.4434  0.3832  0.0176
 5138SOL    HW117014   4.030   4.876   0.275 -1.2825  0.6857  0.6465
 5138SOL    HW217015   4.040   4.713   0.262 -0.7677  0.7966 -0.4920
 5139SOL     OW17016   2.952   6.065   4.739  0.1327 -0.0757  0.1117
 5139SOL    HW117017   2.890   6.133   4.777  1.7468  1.7522 -0.3812
 5139SOL    HW217018   2.963   5.990   4.804 -1.4268  0.2634  0.8128
 5140SOL     OW17019   5.966   5.383   3.475 -0.3658 -0.8562  0.0328
 5140SOL    HW117020   5.884   5.393   3.419  0.4924  1.5897 -0.9365
 5140SOL    HW217021   5.942   5.395   3.572 -1.1013  0.6208 -0.2964
 5141SOL     OW17022   4.567   6.932   4.944 -0.2771 -0.1564  0.2518
 5141SOL    HW117023   4.489   6.988   4.914  0.3441  0.9331  0.6052
 5141SOL    HW217024   4.534   6.843   4.975 -1.2945 -0.0123 -0.3492
 5142SOL     OW17025   0.159   4.784   4.425  0.4176  0.3184  0.0150
 5142SOL    HW117026   0.130   4.765   4.519 -1.4707  1.1173 -0.3621
 5142SOL    HW217027   0.244   4.734   4.406 -0.6403 -2.1698  1.2440
 5143SOL     OW17028   4.385   5.229   3.553  0.1265  0.0275  0.0434
 5143SOL    HW117029   4.382   5.209   3.455  2.2835 -0.6501  0.0533
 5143SOL    HW217030   4.472   5.274   3.574  0.3411 -1.1434  1.8640
 5144SOL     OW17031   6.323   5.255   2.678  0.0993  0.1574  0.0263
 5144SOL    HW117032   6.395   5.275   2.613  0.6193  0.5062  0.7020
 5144SOL    HW217033   6.236   5.289   2.643  0.5711  1.4391  0.0557
 5145SOL     OW17034   1.733   3.100   1.531  0.1159  0.9354 -0.1998
 5145SOL    HW117035   1.781   3.100   1.443 -0.7020  2.2541 -0.6872
 5145SOL    HW217036   1.712   3.195   1.556  0.9060  0.6244  1.7447
 5146SOL     OW17037   5.847   2.024   4.691 -0.0102 -0.7402  0.2124
 5146SOL    HW117038   5.892   2.014   4.780  0.8703 -1.9177 -0.3355
 5146SOL    HW217039   5.869   2.114   4.653  0.0313 -0.4322  0.9565
 5147SOL     OW17040   0.469   6.079   0.491 -0.4423 -0.1158 -0.4091
 5147SOL    HW117041   0.460   6.052   0.394 -1.5502 -0.3932 -0.2513
 5147SOL    HW217042   0.389   6.046   0.541  1.1182 -1.8658  1.0523
 5148SOL     OW17043   6.604   2.112   5.066 -0.5236  0.3829  0.0785
 5148SOL    HW117044   6.596   2.013   5.054  0.7118  0.3848 -0.8729
 5148SOL    HW217045   6.628   2.155   4.979  1.0895  1.2777  0.9226
 5149SOL     OW17046   0.902   6.914   2.242  0.2248  0.0052 -0.8085
 5149SOL    HW117047   0.933   6.844   2.307 -0.8216  0.0712 -0.2141
 5149SOL    HW217048   0.899   6.875   2.150 -0.6822 -0.8655 -0.4304
 5150SOL     OW17049   4.255   5.157   3.275  0.1064 -0.5483  0.6723
 5150SOL    HW117050   4.213   5.087   3.334  0.2938 -0.1617  1.2668
 5150SOL    HW217051   4.226   5.142   3.180 -1.8223  0.0105  1.1266
 5151SOL     OW17052   3.783   2.836   6.181 -0.4170  0.2417  0.2478
 5151SOL    HW117053   3.802   2.777   6.103 -0.6261  0.8206 -0.2499
 5151SOL    HW217054   3.744   2.923   6.149 -1.7639 -0.0268  1.0692
 5152SOL     OW17055   5.768   3.835   2.189 -0.1290  0.0895 -0.0276
 5152SOL    HW117056   5.745   3.928   2.218 -0.9920 -0.0033 -0.3756
 5152SOL    HW217057   5.722   3.816   2.102  0.5238 -0.4586 -0.2562
 5153SOL     OW17058   4.786   5.837   1.003 -0.0011  0.0815 -0.0472
 5153SOL    HW117059   4.688   5.839   0.984 -0.2022 -1.4879  0.6341
 5153SOL    HW217060   4.805   5.766   1.071  1.9049 -1.4468 -2.0388
 5154SOL     OW17061   5.023   6.197   4.161  0.6657  0.2388  0.1023
 5154SOL    HW117062   5.027   6.188   4.062 -0.8150 -0.5590  0.0849
 5154SOL    HW217063   5.087   6.268   4.191  0.0185  1.5712 -1.5498
 5155SOL     OW17064   1.061   3.288   6.871 -0.0470  0.0215 -0.1879
 5155SOL    HW117065   1.155   3.321   6.880 -0.2018  0.9976 -1.8028
 5155SOL    HW217066   0.998   3.363   6.890 -0.4094  0.5601 -3.0947
 5156SOL     OW17067   0.309   3.097   0.674  0.1219 -0.0329 -0.1763
 5156SOL    HW117068   0.343   3.043   0.597  0.3361 -1.2475  0.7383
 5156SOL    HW217069   0.268   3.036   0.743  1.3593  0.8282  1.4004
 5157SOL     OW17070   2.322   6.291   1.426 -0.7050 -0.2274  0.5950
 5157SOL    HW117071   2.326   6.366   1.492 -1.1642  2.7344 -2.4495
 5157SOL    HW217072   2.406   6.287   1.373 -1.2846 -0.8347 -0.3293
 5158SOL     OW17073   4.135   1.241   1.026  0.2888  0.1107  0.6817
 5158SOL    HW117074   4.095   1.286   1.106 -2.6336 -1.4683  0.2593
 5158SOL    HW217075   4.070   1.244   0.950  1.8624 -0.8297 -0.7812
 5159SOL     OW17076   3.515   3.597   0.092  0.3017 -0.9209  0.0303
 5159SOL    HW117077   3.458   3.593   0.174  0.8293 -0.6850  0.4215
 5159SOL    HW217078   3.545   3.505   0.067  1.0168 -0.8986  0.7495
 5160SOL     OW17079   2.467   1.243   6.554 -0.3193 -0.5875 -0.0859
 5160SOL    HW117080   2.539   1.224   6.487  0.4732 -0.9013  0.8252
 5160SOL    HW217081   2.420   1.158   6.577 -0.6541 -0.4641 -0.3112
 5161SOL     OW17082   1.284   4.297   5.942  0.1284 -0.5925 -0.2376
 5161SOL    HW117083   1.382   4.274   5.937  0.3831 -0.5410  2.7031
 5161SOL    HW217084   1.245   4.256   6.024 -2.1145  0.2034 -0.8518
 5162SOL     OW17085   3.838   2.656   6.351  0.1359  0.8298  0.3056
 5162SOL    HW117086   3.808   2.724   6.284 -0.9254  0.8862  0.8140
 5162SOL    HW217087   3.799   2.567   6.327 -1.7578  1.1997  1.8092
 5163SOL     OW17088   1.676   2.634   4.457  0.1755  0.2590  0.4061
 5163SOL    HW117089   1.679   2.612   4.554  1.0763 -0.1593  0.2987
 5163SOL    HW217090   1.686   2.551   4.403 -0.8404  0.4258 -0.0605
 5164SOL     OW17091   2.514   6.289   2.709  0.7347  0.1431  0.4510
 5164SOL    HW117092   2.434   6.229   2.708 -0.3066  1.4406  1.8473
 5164SOL    HW217093   2.552   6.295   2.617 -1.9865  1.0370 -0.7192
 5165SOL     OW17094   2.678   5.379   3.192  0.0351  0.3954  0.6570
 5165SOL    HW117095   2.724   5.405   3.107  1.3591  1.8654  1.7610
 5165SOL    HW217096   2.705   5.286   3.218  0.3201  0.2731 -0.0581
 5166SOL     OW17097   5.460   3.178   1.941 -0.5074 -0.4908 -0.1264
 5166SOL    HW117098   5.477   3.235   1.861  0.4934  1.1994  1.2267
 5166SOL    HW217099   5.542   3.125   1.962 -0.4789 -0.2971  0.2567
 5167SOL     OW17100   6.003   2.508   5.907 -0.0024 -0.7444 -0.6014
 5167SOL    HW117101   5.979   2.412   5.916 -0.1803 -0.6200  0.3923
 5167SOL    HW217102   5.968   2.544   5.820 -1.4761 -1.1395 -0.2008
 5168SOL     OW17103   2.040   1.781   2.302 -0.0185 -0.1505 -0.4961
 5168SOL    HW117104   2.140   1.785   2.303 -0.0126 -0.0733 -0.9258
 5168SOL    HW217105   2.010   1.694   2.264 -0.1339 -1.5104  2.4809
 5169SOL     OW17106   3.669   5.455   6.305  0.3497 -0.2887 -0.2135
 5169SOL    HW117107   3.716   5.529   6.257 -0.6888  0.1307 -0.6163
 5169SOL    HW217108   3.716   5.436   6.392  1.3639 -0.0353 -0.6913
 5170SOL     OW17109   3.684   1.054   5.482  0.2734 -0.0157 -0.6553
 5170SOL    HW117110   3.590   1.043   5.449 -0.2784 -0.4459  0.9252
 5170SOL    HW217111   3.732   0.967   5.475 -0.4881 -0.6804  1.3929
 5171SOL     OW17112   4.957   0.018   3.285  0.0105 -0.3683 -0.6085
 5171SOL    HW117113   4.982   0.016   3.188  0.3698 -2.8493 -0.5471
 5171SOL    HW217114   5.007  -0.054   3.333 -1.7442 -0.5822  0.9999
 5172SOL     OW17115   2.412   0.513   4.397 -0.2348 -0.2301  0.0029
 5172SOL    HW117116   2.500   0.467   4.385  0.3817  0.1905  2.3658
 5172SOL    HW217117   2.338   0.446   4.389  0.1998 -0.5108 -2.4706
 5173SOL     OW17118   2.015   1.873   2.868  0.3711 -0.1467 -0.4694
 5173SOL    HW117119   2.087   1.846   2.931  1.5368  0.9545 -1.2915
 5173SOL    HW217120   2.053   1.889   2.777 -0.3444  3.2537 -0.2870
 5174SOL     OW17121   5.660   1.369   6.961  0.2835 -1.1052 -0.4943
 5174SOL    HW117122   5.719   1.410   6.891 -0.5890 -0.1110 -0.6643
 5174SOL    HW217123   5.565   1.373   6.931 -0.1374 -0.3821  0.8650
 5175SOL     OW17124   2.695   5.779   0.404 -0.3934  0.0470 -0.2680
 5175SOL    HW117125   2.671   5.840   0.329  1.7098  0.2385 -0.8610
 5175SOL    HW217126   2.648   5.691   0.393 -0.0766  0.0564 -1.8399
 5176SOL     OW17127   6.863   5.017   0.577 -0.3953 -0.4298  0.3818
 5176SOL    HW117128   6.917   4.937   0.550 -0.3093  0.0214 -0.8386
 5176SOL    HW217129   6.780   4.986   0.624  0.5730 -1.1465  1.6897
 5177SOL     OW17130   2.769   5.927   2.078 -0.0723  0.1229 -0.1974
 5177SOL    HW117131   2.744   6.009   2.026  1.6929  0.9448  0.1566
 5177SOL    HW217132   2.822   5.954   2.158  0.0933 -1.3406  0.2055
 5178SOL     OW17133   0.467   3.821   3.864  0.7044 -0.0307  0.7506
 5178SOL    HW117134   0.555   3.855   3.832  0.1351  1.2792  0.5200
 5178SOL    HW217135   0.393   3.870   3.818 -0.1454 -0.1527  1.9361
 5179SOL     OW17136   2.584   0.416   6.782  0.1349  0.4245  0.4259
 5179SOL    HW117137   2.579   0.516   6.790 -1.3570  0.3388  0.7816
 5179SOL    HW217138   2.603   0.376   6.871 -0.8539  0.3057  0.5833
 5180SOL     OW17139   2.533   2.707   0.560 -0.3199  0.2050  1.0104
 5180SOL    HW117140   2.588   2.625   0.574  0.0416  0.3941  0.7327
 5180SOL    HW217141   2.440   2.681   0.535 -0.4175 -0.1204  1.6939
 5181SOL     OW17142   0.791   5.504   4.093  0.3920 -0.1496  0.4369
 5181SOL    HW117143   0.746   5.573   4.037 -0.2813 -1.2215 -0.3813
 5181SOL    HW217144   0.878   5.541   4.127  0.6837  0.6563 -1.0654
 5182SOL     OW17145   2.564   2.474   5.506 -0.3701  0.2922  0.2984
 5182SOL    HW117146   2.544   2.376   5.512  1.8675 -0.1226  2.4381
 5182SOL    HW217147   2.492   2.525   5.553 -0.8937 -0.4210  0.2886
 5183SOL     OW17148   4.144   3.400   6.853 -0.1984  0.9849  0.1176
 5183SOL    HW117149   4.236   3.368   6.874 -0.4754 -0.9128 -1.2071
 5183SOL    HW217150   4.148   3.472   6.784  0.2960  0.7450 -0.1101
 5184SOL     OW17151   2.773   6.381   1.836  0.0500  0.2797 -0.3466
 5184SOL    HW117152   2.805   6.420   1.750 -0.5004 -0.7786 -1.0670
 5184SOL    HW217153   2.675   6.363   1.830 -0.0452  0.4359  0.6028
 5185SOL     OW17154   2.828   3.191   0.005  0.5654  0.0321  0.0585
 5185SOL    HW117155   2.808   3.093   0.008  0.1517  0.1197  0.1079
 5185SOL    HW217156   2.927   3.204  -0.008  0.5268 -0.4023 -0.7603
 5186SOL     OW17157   4.905   4.062   6.758  0.2429  0.0338  0.2387
 5186SOL    HW117158   4.947   4.074   6.669  0.2296  3.1340  0.5621
 5186SOL    HW217159   4.974   4.028   6.823  0.4538 -1.4204 -0.6991
 5187SOL     OW17160   0.349   5.157   0.780  0.0269  0.1917  0.5444
 5187SOL    HW117161   0.305   5.179   0.867 -0.1592  0.6732  0.3314
 5187SOL    HW217162   0.348   5.058   0.766 -2.4599  0.2509 -0.2167
 5188SOL     OW17163   0.135   2.636   5.662 -0.0801 -0.3248 -0.1107
 5188SOL    HW117164   0.182   2.586   5.589  0.4400  0.1111 -0.0850
 5188SOL    HW217165   0.114   2.728   5.630  2.6430  0.8650  1.1495
 5189SOL     OW17166   1.313   0.767   5.487  0.4683  0.0576  0.1877
 5189SOL    HW117167   1.301   0.866   5.488 -0.3360 -0.0272  0.0314
 5189SOL    HW217168   1.285   0.730   5.576  0.9512 -0.0064  0.3109
 5190SOL     OW17169   6.104   0.208   7.002  0.2624  0.3411 -0.0232
 5190SOL    HW117170   6.016   0.235   6.963  1.2840  1.9846 -1.3087
 5190SOL    HW217171   6.155   0.153   6.936  1.1787  1.4225 -0.2308
 5191SOL     OW17172   6.516   0.470   2.933  0.0799 -0.0578  0.1941
 5191SOL    HW117173   6.613   0.456   2.957  0.2270 -0.9459 -0.8136
 5191SOL    HW217174   6.459   0.424   3.001  0.2640  2.0622  1.8678
 5192SOL     OW17175   2.658   6.961   4.444 -0.0712  0.2686  0.1251
 5192SOL    HW117176   2.695   7.010   4.523  0.1830 -0.8914  0.7443
 5192SOL    HW217177   2.568   6.924   4.466  0.3251 -0.7127  0.1539
 5193SOL     OW17178   1.787   1.222   7.006 -0.2505 -0.2516  0.3509
 5193SOL    HW117179   1.728   1.219   7.087  0.9780  0.3319  1.3280
 5193SOL    HW217180   1.804   1.318   6.981 -0.2235 -0.4236 -0.2872
 5194SOL     OW17181   0.081   1.457   1.406 -0.4060 -0.0979 -0.4513
 5194SOL    HW117182   0.167   1.495   1.372 -0.4857  0.2535 -0.2615
 5194SOL    HW217183   0.086   1.357   1.405  1.2671 -0.1479  2.6404
 5195SOL     OW17184   1.435   0.762   1.079 -0.4473  0.7619 -0.2109
 5195SOL    HW117185   1.524   0.806   1.070 -0.2062  0.4268  0.4094
 5195SOL    HW217186   1.365   0.831   1.094 -0.4115  1.0826 -1.4322
 5196SOL     OW17187   5.676   2.505   0.558 -0.6385 -0.1919  0.3689
 5196SOL    HW117188   5.742   2.447   0.511  0.6781 -0.0497  1.9556
 5196SOL    HW217189   5.584   2.472   0.540 -0.0956 -0.9625 -1.1436
 5197SOL     OW17190   4.775   4.301   2.081  0.1333 -0.2666  0.3568
 5197SOL    HW117191   4.873   4.313   2.063 -0.0308 -0.6261 -0.8796
 5197SOL    HW217192   4.727   4.385   2.055 -0.1911 -1.0307 -1.7094
 5198SOL     OW17193   3.493   0.389   0.763 -0.1283  0.2499  0.2794
 5198SOL    HW117194   3.485   0.303   0.713 -0.5061  0.5203 -0.1368
 5198SOL    HW217195   3.404   0.436   0.761  0.3070  1.0696 -0.2700
 5199SOL     OW17196   5.695   3.040   1.430 -0.3635 -0.2706  0.3848
 5199SOL    HW117197   5.604   3.013   1.460 -0.2622 -1.4314 -0.3045
 5199SOL    HW217198   5.737   2.965   1.379  1.4998 -0.2930  1.8214
 5200SOL     OW17199   6.965   3.071   1.848 -0.0129  0.2155  0.1473
 5200SOL    HW117200   6.936   3.167   1.856 -0.5324  0.1709 -0.9791
 5200SOL    HW217201   6.887   3.015   1.822  0.4921 -0.3638 -0.1347
 5201SOL     OW17202   0.102   2.283   0.591  0.1384  0.6434 -0.6430
 5201SOL    HW117203   0.004   2.266   0.585  0.3425 -0.3094 -1.6181
 5201SOL    HW217204   0.118   2.380   0.610 -0.9833  1.0032 -1.4160
 5202SOL     OW17205   1.016   6.669   6.263 -0.2286  0.7327  0.4093
 5202SOL    HW117206   0.945   6.603   6.236 -0.6431  0.7105  1.4637
 5202SOL    HW217207   0.977   6.761   6.263  0.0947  0.8732 -0.1824
 5203SOL     OW17208   4.342   4.793   4.726 -0.3924  0.3389 -0.1600
 5203SOL    HW117209   4.294   4.747   4.800 -0.1221  1.1220  0.5181
 5203SOL    HW217210   4.276   4.840   4.668 -0.4367  2.1797  1.2949
 5204SOL     OW17211   6.220   6.050   6.319  0.2289 -0.6033  0.3870
 5204SOL    HW117212   6.265   6.072   6.232 -1.1017  1.2403  0.1116
 5204SOL    HW217213   6.288   6.020   6.385  1.7249  0.9982 -0.3514
 5205SOL     OW17214   2.466   4.676   5.123  0.2334 -0.1614 -0.3543
 5205SOL    HW117215   2.383   4.628   5.095  0.3842  0.0008 -1.0992
 5205SOL    HW217216   2.458   4.773   5.100  1.0489 -0.3317 -1.4134
 5206SOL     OW17217   5.335   3.292   4.363  0.2565  0.2060  0.1481
 5206SOL    HW117218   5.240   3.295   4.332 -0.3369 -2.1591  1.5023
 5206SOL    HW217219   5.355   3.203   4.403  2.9424  0.8011  0.3541
 5207SOL     OW17220   3.882   0.623   2.422  0.2907 -0.1302  0.1865
 5207SOL    HW117221   3.875   0.699   2.486 -0.5284 -0.0096 -0.0307
 5207SOL    HW217222   3.971   0.578   2.432  1.2709  1.5501 -0.4743
 5208SOL     OW17223   1.001   0.793   4.460  0.4765 -0.1256 -0.1285
 5208SOL    HW117224   1.073   0.738   4.502  1.5768 -0.9688 -2.8779
 5208SOL    HW217225   1.042   0.866   4.405 -0.8682  0.9343  0.2258
 5209SOL     OW17226   3.617   5.847   1.645 -0.6627  0.0737  0.0317
 5209SOL    HW117227   3.595   5.752   1.666 -0.2880 -0.1572 -0.5896
 5209SOL    HW217228   3.602   5.903   1.726  1.6771 -0.9266  1.2791
 5210SOL     OW17229   4.420   4.210   2.112 -0.6763 -0.2637 -0.3747
 5210SOL    HW117230   4.495   4.238   2.173 -0.0334  0.2603 -1.3889
 5210SOL    HW217231   4.448   4.128   2.062 -1.1911 -0.6697 -0.0083
 5211SOL     OW17232   2.995   6.000   4.489  0.2181 -0.1178  0.4417
 5211SOL    HW117233   3.091   6.030   4.483 -0.2272  1.1282 -1.5824
 5211SOL    HW217234   2.961   6.017   4.581  1.8281 -0.2342  1.1032
 5212SOL     OW17235   5.166   0.055   1.988 -0.5094  0.0203 -0.0769
 5212SOL    HW117236   5.104  -0.022   2.004  1.2776 -1.5374 -0.2414
 5212SOL    HW217237   5.229   0.033   1.913  3.4095 -0.6835  3.0242
 5213SOL     OW17238   4.475   1.493   0.500  0.4275 -0.3562 -0.0837
 5213SOL    HW117239   4.458   1.592   0.496  0.2719 -0.3203  1.1440
 5213SOL    HW217240   4.389   1.444   0.491  0.1831 -0.2948  1.5337
 5214SOL     OW17241   3.090   4.989   2.814 -0.2706  0.2796  0.4513
 5214SOL    HW117242   3.157   4.915   2.827  0.2600  0.8708  1.1499
 5214SOL    HW217243   3.011   4.973   2.873 -0.8556 -0.5156 -0.5068
 5215SOL     OW17244   0.068   4.195   3.059 -0.1433 -0.0825  0.1809
 5215SOL    HW117245   0.168   4.188   3.055  0.0573  0.5263  2.5352
 5215SOL    HW217246   0.035   4.147   3.140 -1.7381  0.0745 -0.3517
 5216SOL     OW17247   5.057   1.731   0.858  0.2576  0.6287 -1.1212
 5216SOL    HW117248   5.004   1.745   0.942 -0.1509 -1.0611 -1.0473
 5216SOL    HW217249   5.104   1.816   0.833  1.2212  0.9204  1.3698
 5217SOL     OW17250   3.771   6.358   6.483 -0.0951 -0.1498  0.1656
 5217SOL    HW117251   3.857   6.405   6.463 -0.4459  1.5028  2.1403
 5217SOL    HW217252   3.695   6.405   6.438 -0.1835 -0.4180  0.0293
 5218SOL     OW17253   3.896   6.546   1.727  0.2514  0.3095  0.8676
 5218SOL    HW117254   3.903   6.450   1.701 -0.4671  0.1291  1.3056
 5218SOL    HW217255   3.927   6.604   1.652  1.5223 -0.2835  0.9135
 5219SOL     OW17256   0.298   6.742   6.856  0.2316  0.0345  0.1594
 5219SOL    HW117257   0.237   6.676   6.899 -0.9052  0.9981  0.0678
 5219SOL    HW217258   0.254   6.780   6.774  1.5343 -0.2874 -0.7261
 5220SOL     OW17259   6.307   0.479   2.421  0.1514 -0.3766  0.3259
 5220SOL    HW117260   6.208   0.495   2.426  0.3948  1.5076 -0.1824
 5220SOL    HW217261   6.349   0.502   2.509  0.3683  0.7529 -0.0631
 5221SOL     OW17262   0.041   6.096   2.412 -0.3549  0.1692 -0.0669
 5221SOL    HW117263   0.073   6.111   2.319 -0.6408 -1.2607 -0.4106
 5221SOL    HW217264   0.103   6.034   2.460  0.6517  2.0534  1.2420
 5222SOL     OW17265   1.214   0.946   1.174 -0.4483 -0.4242 -0.2390
 5222SOL    HW117266   1.164   1.016   1.124 -0.3463 -0.3881 -0.2911
 5222SOL    HW217267   1.162   0.860   1.172 -0.6216 -0.3242 -0.0868
 5223SOL     OW17268   3.935   2.474   0.067  0.3691 -0.1368 -0.3114
 5223SOL    HW117269   3.882   2.464   0.151 -0.9895 -1.0220 -1.2470
 5223SOL    HW217270   3.874   2.488  -0.010  1.5497 -0.3121 -1.3156
 5224SOL     OW17271   3.234   0.907   0.619 -0.5483  0.1463 -0.2039
 5224SOL    HW117272   3.259   0.904   0.716 -0.8658 -1.9470 -0.1376
 5224SOL    HW217273   3.135   0.899   0.609 -0.3809 -2.0494 -0.7043
 5225SOL     OW17274   2.983   1.885   3.140 -0.1382 -0.4538 -0.4223
 5225SOL    HW117275   2.902   1.943   3.143 -1.7652 -2.5132 -1.7906
 5225SOL    HW217276   2.984   1.825   3.220  0.5464  0.1606  0.0446
 5226SOL     OW17277   3.913   2.609   5.116  0.7120  0.3832 -0.0467
 5226SOL    HW117278   3.933   2.557   5.033 -0.0806 -1.3696  0.8254
 5226SOL    HW217279   3.973   2.580   5.190 -0.6606 -0.3128  0.8299
 5227SOL     OW17280   3.105   4.251   2.241 -0.2224 -0.2880 -0.0002
 5227SOL    HW117281   3.182   4.223   2.184  0.0018 -0.4589  0.3801
 5227SOL    HW217282   3.026   4.192   2.223  0.2233 -1.1273  0.7389
 5228SOL     OW17283   5.735   0.013   1.126  0.1534 -0.3729  0.1603
 5228SOL    HW117284   5.745  -0.085   1.109  2.2612  0.0306 -1.4425
 5228SOL    HW217285   5.809   0.045   1.185 -0.3757  0.2840  0.4804
 5229SOL     OW17286   5.072   5.108   3.824 -0.5425  0.0515 -0.2905
 5229SOL    HW117287   5.129   5.077   3.748 -2.5512 -2.7007 -0.8389
 5229SOL    HW217288   5.129   5.155   3.891  1.4769  1.6574 -2.9357
 5230SOL     OW17289   3.989   5.852   6.444 -0.7542 -0.2154 -0.0460
 5230SOL    HW117290   3.976   5.855   6.544  1.5967  0.2929  0.2891
 5230SOL    HW217291   3.981   5.945   6.407 -0.4279 -0.2329 -0.1605
 5231SOL     OW17292   3.443   3.886   5.192 -0.2094 -0.4080  0.0395
 5231SOL    HW117293   3.396   3.942   5.124 -0.5543  0.0159  0.6170
 5231SOL    HW217294   3.541   3.883   5.170 -0.4151 -0.8754 -0.8798
 5232SOL     OW17295   4.397   0.458   3.592  0.3673 -0.1482 -0.2491
 5232SOL    HW117296   4.344   0.543   3.589 -1.7367 -1.3603  0.2157
 5232SOL    HW217297   4.373   0.401   3.514  1.1080 -0.6779 -0.1027
 5233SOL     OW17298   1.257   4.447   4.228 -0.0076  0.2931 -0.3157
 5233SOL    HW117299   1.199   4.473   4.152  0.5068  1.1086 -0.4460
 5233SOL    HW217300   1.204   4.446   4.313 -0.0073  2.0324 -0.2729
 5234SOL     OW17301   2.285   1.846   5.407 -0.6020 -0.0547  0.0900
 5234SOL    HW117302   2.255   1.764   5.359 -1.5973  0.2589  0.1488
 5234SOL    HW217303   2.274   1.925   5.347 -1.0276  0.2216  0.5243
 5235SOL     OW17304   3.432   0.461   6.704 -0.0958 -0.0165 -0.0961
 5235SOL    HW117305   3.527   0.476   6.729  0.1618 -0.8710 -0.5306
 5235SOL    HW217306   3.405   0.369   6.730 -0.2189 -0.4541 -1.7115
 5236SOL     OW17307   2.189   3.899   5.078 -0.5646  0.1147  0.0240
 5236SOL    HW117308   2.248   3.980   5.066 -0.7071  0.1058 -0.8335
 5236SOL    HW217309   2.100   3.917   5.036 -1.2209  0.1601  1.3912
 5237SOL     OW17310   5.936   5.004   2.545  0.3733  0.1600  0.1345
 5237SOL    HW117311   5.895   5.036   2.460  2.0174  0.6591 -0.5114
 5237SOL    HW217312   5.992   5.077   2.585  0.0945 -0.2610  1.3324
 5238SOL     OW17313   1.184   6.336   0.673 -0.5995 -0.1683 -0.0457
 5238SOL    HW117314   1.118   6.273   0.632  0.1273 -1.6068  0.9303
 5238SOL    HW217315   1.275   6.295   0.672 -0.2677  0.4685  1.4450
 5239SOL     OW17316   0.005   1.071   1.742  0.7465  0.1109 -0.5190
 5239SOL    HW117317  -0.066   1.125   1.696  1.3214  0.7129 -0.7321
 5239SOL    HW217318   0.095   1.105   1.714  1.1230 -0.9448 -0.6110
 5240SOL     OW17319   1.137   3.874   2.946 -0.3888  0.7358  0.6921
 5240SOL    HW117320   1.167   3.939   2.877 -0.4813 -0.2692 -0.3123
 5240SOL    HW217321   1.217   3.838   2.995 -0.2684  0.9482  0.6516
 5241SOL     OW17322   2.644   2.015   6.509  0.1594 -0.3168  0.4353
 5241SOL    HW117323   2.637   2.113   6.493 -0.4659 -0.2280  1.1860
 5241SOL    HW217324   2.685   1.999   6.599  1.0970 -0.7623 -0.0591
 5242SOL     OW17325   4.951   3.893   2.136  0.0593 -0.0848  0.1130
 5242SOL    HW117326   4.977   3.822   2.070 -0.5095  0.3027 -0.5449
 5242SOL    HW217327   5.033   3.940   2.168  0.6039 -1.9793  1.6861
 5243SOL     OW17328   0.022   3.961   6.304  0.4104 -0.5035  0.1386
 5243SOL    HW117329   0.020   4.001   6.396  0.0044  0.2529 -0.1970
 5243SOL    HW217330  -0.008   3.865   6.310 -1.2569  0.0125  0.5750
 5244SOL     OW17331   3.541   3.816   6.688 -0.0110 -0.0149 -0.2538
 5244SOL    HW117332   3.490   3.813   6.602  0.7351  2.0108 -0.8205
 5244SOL    HW217333   3.520   3.734   6.741 -0.5302 -1.3013 -2.3166
 5245SOL     OW17334   2.236   0.354   3.511  0.8582  0.0381  0.4414
 5245SOL    HW117335   2.223   0.310   3.422 -2.9008  1.1386  0.2850
 5245SOL    HW217336   2.225   0.287   3.584  2.2403 -0.5424  0.1384
 5246SOL     OW17337   6.755   6.410   2.304  0.1347 -0.3453  0.4471
 5246SOL    HW117338   6.793   6.403   2.212  0.9092 -0.4891  0.7702
 5246SOL    HW217339   6.768   6.503   2.339  1.4532 -0.7542  1.0858
 5247SOL     OW17340   5.763   5.313   1.323  0.0437 -0.1267  0.0031
 5247SOL    HW117341   5.718   5.355   1.402  0.6308 -0.7202  0.6656
 5247SOL    HW217342   5.726   5.222   1.308  0.1393 -0.1282 -0.2191
 5248SOL     OW17343   2.591   5.641   6.648 -0.0368 -0.5159 -0.0175
 5248SOL    HW117344   2.570   5.549   6.614  0.3710  0.3293 -2.8224
 5248SOL    HW217345   2.517   5.703   6.623 -0.3659 -0.0500  1.9638
 5249SOL     OW17346   0.135   0.901   2.154 -0.4226 -0.4962 -0.1874
 5249SOL    HW117347   0.171   0.994   2.163  0.2465 -0.7114 -0.5214
 5249SOL    HW217348   0.144   0.853   2.241 -1.2481 -0.0881  0.1291
 5250SOL     OW17349   2.008   0.302   2.800  0.3826  0.3458 -0.3722
 5250SOL    HW117350   1.944   0.225   2.792  1.6050 -0.5429 -2.4949
 5250SOL    HW217351   1.958   0.385   2.822 -1.1906 -0.7264  0.2922
 5251SOL     OW17352   0.707   4.020   6.264 -0.0350 -0.1948  0.0102
 5251SOL    HW117353   0.685   4.064   6.352 -0.2538  0.9755 -0.6047
 5251SOL    HW217354   0.622   4.000   6.216  0.0355 -1.9335  0.5608
 5252SOL     OW17355   0.196   6.822   3.104  0.1588 -0.0117 -0.2144
 5252SOL    HW117356   0.269   6.757   3.081  1.1615  1.4891 -1.5506
 5252SOL    HW217357   0.183   6.885   3.027 -1.8327  0.4380  0.4341
 5253SOL     OW17358   0.759   3.687   2.134 -0.5250 -0.4927  0.0434
 5253SOL    HW117359   0.720   3.601   2.167 -0.6155 -0.4312  0.0957
 5253SOL    HW217360   0.843   3.667   2.083 -0.9277 -0.6791 -0.5719
 5254SOL     OW17361   6.083   1.385   4.757  0.3484  0.4413  0.7881
 5254SOL    HW117362   6.103   1.321   4.831  2.9227  0.4266  0.1704
 5254SOL    HW217363   6.096   1.338   4.669  0.4577  1.3144  0.3309
 5255SOL     OW17364   3.133   3.978   3.928 -0.5069 -0.5373  0.1067
 5255SOL    HW117365   3.049   4.026   3.903 -0.4701 -0.6466 -0.2312
 5255SOL    HW217366   3.110   3.884   3.956 -0.2366 -1.5803 -2.8866
 5256SOL     OW17367   2.485   3.204   3.248 -0.2320  0.3315 -0.0951
 5256SOL    HW117368   2.568   3.244   3.287 -0.0822 -1.5420  1.7145
 5256SOL    HW217369   2.405   3.254   3.281  0.1006  1.4528 -0.9451
 5257SOL     OW17370   6.242   1.274   0.568 -0.3178  0.0200  0.1273
 5257SOL    HW117371   6.257   1.233   0.658 -0.6192  0.9832  0.6380
 5257SOL    HW217372   6.329   1.282   0.520  0.1797  1.3638  1.1862
 5258SOL     OW17373   1.002   0.614   1.947  0.0702 -0.0459 -0.0890
 5258SOL    HW117374   0.930   0.599   1.879 -0.6234  2.1239  0.0996
 5258SOL    HW217375   1.084   0.649   1.902 -0.6743  2.2473  0.1791
 5259SOL     OW17376   6.297   3.543   5.476 -0.0794  0.0398 -0.2118
 5259SOL    HW117377   6.351   3.564   5.558  0.7772  1.1071 -1.0249
 5259SOL    HW217378   6.356   3.544   5.396 -0.3451 -3.5882 -0.6213
 5260SOL     OW17379   1.033   1.844   0.052 -0.1766 -0.0556  0.1556
 5260SOL    HW117380   0.969   1.776   0.089  0.9909 -0.4375  1.5504
 5260SOL    HW217381   0.984   1.930   0.036 -0.6619  0.4211  3.4438
 5261SOL     OW17382   0.070   6.173   2.161 -0.2032 -0.2158  0.1708
 5261SOL    HW117383   0.088   6.272   2.166 -0.0012 -0.2180 -0.3727
 5261SOL    HW217384  -0.023   6.158   2.129 -0.5697 -0.2034  1.2244
 5262SOL     OW17385   5.162   0.253   5.384  0.3783  0.0980  0.0127
 5262SOL    HW117386   5.103   0.247   5.464  1.6006 -0.4628  0.9022
 5262SOL    HW217387   5.255   0.223   5.408  0.7420 -0.2251 -1.6369
 5263SOL     OW17388   1.830   0.616   5.914  0.3845 -0.1397 -0.2365
 5263SOL    HW117389   1.827   0.702   5.863 -1.8225 -0.6226 -1.0391
 5263SOL    HW217390   1.869   0.544   5.856  3.8507  0.5527  0.9931
 5264SOL     OW17391   5.471   4.704   0.977 -0.5854 -0.2934  0.6896
 5264SOL    HW117392   5.521   4.620   0.958  3.5355  1.2351  3.2036
 5264SOL    HW217393   5.491   4.772   0.906  2.2248  0.6696  2.2318
 5265SOL     OW17394   3.566   0.828   6.460 -0.0284 -0.0338  0.1156
 5265SOL    HW117395   3.579   0.869   6.550 -0.0970  0.2377  0.0011
 5265SOL    HW217396   3.554   0.729   6.470  1.2540 -0.1964  0.3042
 5266SOL     OW17397   0.608   7.000   2.998 -0.1737 -0.2748  0.5494
 5266SOL    HW117398   0.683   6.969   3.058  0.2170 -0.0470  0.1868
 5266SOL    HW217399   0.559   6.920   2.964 -1.0289 -0.3811  1.9460
 5267SOL     OW17400   3.471   5.196   2.308  0.0727 -0.5179 -0.6231
 5267SOL    HW117401   3.446   5.178   2.403 -0.7793  0.9059 -0.5536
 5267SOL    HW217402   3.570   5.208   2.302  0.1215 -0.5222  0.0900
 5268SOL     OW17403   3.355   4.856   4.785  0.0263 -0.0005  0.8138
 5268SOL    HW117404   3.451   4.830   4.775  0.2217  1.1888 -0.7063
 5268SOL    HW217405   3.308   4.844   4.698 -1.1631 -0.3903  1.5013
 5269SOL     OW17406   2.315   1.720   2.318  0.0820  0.0157  0.1350
 5269SOL    HW117407   2.357   1.742   2.230 -0.3489 -0.2584 -0.1414
 5269SOL    HW217408   2.387   1.695   2.384  0.5789  1.9176  0.3912
 5270SOL     OW17409   2.983   4.674   4.319 -0.3173  0.0805 -0.0160
 5270SOL    HW117410   2.888   4.657   4.291 -1.0211  0.9816  1.7050
 5270SOL    HW217411   2.989   4.675   4.418  2.0989 -3.1042  0.0586
 5271SOL     OW17412   2.469   1.924   1.681  0.0950 -0.7237 -0.0268
 5271SOL    HW117413   2.412   1.870   1.619  2.1004 -1.3733 -1.4100
 5271SOL    HW217414   2.551   1.872   1.704  1.1271  0.9553  0.2250
 5272SOL     OW17415   2.584   0.021   6.624  0.1293  0.5063 -0.3673
 5272SOL    HW117416   2.583   0.108   6.574  0.0938  0.3576 -0.6284
 5272SOL    HW217417   2.519  -0.042   6.581  0.1627  0.3476 -0.1838
 5273SOL     OW17418   1.949   4.730   5.667  0.1791 -0.6503 -0.8855
 5273SOL    HW117419   1.970   4.645   5.619 -0.3482 -0.1375 -2.0852
 5273SOL    HW217420   1.974   4.808   5.609 -0.6068 -0.0105 -0.3924
 5274SOL     OW17421   0.510   1.219   6.109 -0.1326  0.2374 -0.0002
 5274SOL    HW117422   0.470   1.153   6.045 -0.7544 -0.8628  1.4858
 5274SOL    HW217423   0.605   1.194   6.128 -1.2300 -2.2830  3.0324
 5275SOL     OW17424   6.146   2.308   0.732 -0.1380  0.6524  0.2347
 5275SOL    HW117425   6.124   2.377   0.802 -1.2625 -0.9213  1.5318
 5275SOL    HW217426   6.105   2.335   0.645  1.0022  2.4955  0.1985
 5276SOL     OW17427   3.652   6.859   1.144  0.0335  0.6442 -0.2439
 5276SOL    HW117428   3.614   6.813   1.224 -0.7589  1.6104 -0.0360
 5276SOL    HW217429   3.696   6.945   1.173 -0.9724  1.4106 -0.9216
 5277SOL     OW17430   1.546   6.318   4.245  0.3148  0.3556  0.2790
 5277SOL    HW117431   1.451   6.291   4.264  1.0180 -0.5179  2.9663
 5277SOL    HW217432   1.602   6.236   4.236  1.2626  0.8378  1.4691
 5278SOL     OW17433   2.803   6.074   6.389  0.0908  0.1831  0.4960
 5278SOL    HW117434   2.807   6.027   6.301 -0.0497 -2.7301  1.9579
 5278SOL    HW217435   2.894   6.109   6.412  0.9116 -1.8683  0.5895
 5279SOL     OW17436   5.835   6.591   6.885 -0.2447  0.0463  0.0780
 5279SOL    HW117437   5.905   6.527   6.853  0.9934  0.9884  0.8246
 5279SOL    HW217438   5.760   6.594   6.820  1.0885  0.1102 -1.5024
 5280SOL     OW17439   1.871   5.973   1.923 -1.0007 -0.3931  0.5715
 5280SOL    HW117440   1.872   6.068   1.953  0.0533 -1.2370  3.4764
 5280SOL    HW217441   1.935   5.961   1.847 -1.4903  1.2522 -0.1452
 5281SOL     OW17442   6.697   1.578   5.084  0.5751 -0.5209  0.3412
 5281SOL    HW117443   6.729   1.490   5.049  0.4405 -0.7832  0.8648
 5281SOL    HW217444   6.599   1.586   5.066  0.4319 -0.8125  0.9641
 5282SOL     OW17445   4.178   0.715   3.240 -0.2497 -0.0789 -0.8292
 5282SOL    HW117446   4.137   0.804   3.221 -0.8762 -0.2462 -0.2809
 5282SOL    HW217447   4.274   0.716   3.210  0.0394  1.1057  0.0330
 5283SOL     OW17448   2.808   3.652   1.771 -0.0060 -0.3288  0.2245
 5283SOL    HW117449   2.740   3.587   1.805  0.2735 -0.7432 -0.0142
 5283SOL    HW217450   2.887   3.652   1.832  0.5156 -1.1057 -0.4341
 5284SOL     OW17451   2.932   3.547   6.653  0.3481  0.0608 -0.3187
 5284SOL    HW117452   3.027   3.569   6.632  0.1478 -0.5039 -1.9609
 5284SOL    HW217453   2.911   3.575   6.747  2.2045 -0.0769  0.1743
 5285SOL     OW17454   1.551   2.066   5.848  0.1491  0.7925  0.0242
 5285SOL    HW117455   1.603   2.005   5.790 -2.1974 -1.1111 -0.2062
 5285SOL    HW217456   1.597   2.074   5.937  1.0600 -0.4413 -0.3076
 5286SOL     OW17457   0.325   5.719   0.265 -0.1957  0.0160  0.4226
 5286SOL    HW117458   0.414   5.745   0.228 -0.2331 -0.6084 -0.1187
 5286SOL    HW217459   0.331   5.712   0.365  0.8998 -1.9280  0.2733
 5287SOL     OW17460   5.335   2.382   5.636  0.3183  0.5613  0.4630
 5287SOL    HW117461   5.273   2.432   5.696 -0.9678 -0.7706  0.2964
 5287SOL    HW217462   5.325   2.284   5.652  2.5162  0.3129  0.5323
 5288SOL     OW17463   2.487   4.978   2.054  0.7467 -0.0233  0.2427
 5288SOL    HW117464   2.583   4.986   2.028  0.9470  0.5613  1.1185
 5288SOL    HW217465   2.480   4.960   2.152 -0.0445  0.4775  0.2922
 5289SOL     OW17466   5.695   5.027   5.550  0.0164 -0.2965  0.8787
 5289SOL    HW117467   5.704   5.115   5.503  1.5038  0.9014  3.1993
 5289SOL    HW217468   5.785   4.998   5.583 -0.4945 -2.5875  0.4350
 5290SOL     OW17469   0.332   4.319   6.646 -0.0151 -0.3239 -0.2074
 5290SOL    HW117470   0.344   4.259   6.725 -0.9141 -0.0099  0.1905
 5290SOL    HW217471   0.324   4.414   6.678  1.7287  0.0610 -0.8505
 5291SOL     OW17472   2.513   3.894   1.855 -0.0639 -0.0195  0.0447
 5291SOL    HW117473   2.611   3.914   1.843  0.3983 -2.5124 -1.0152
 5291SOL    HW217474   2.489   3.906   1.951  1.0272  1.5739  0.1623
 5292SOL     OW17475   1.758   2.255   3.387  0.2498 -0.2710  0.0285
 5292SOL    HW117476   1.714   2.345   3.390 -0.4770 -0.6489  1.3411
 5292SOL    HW217477   1.747   2.216   3.295 -0.5725  0.4333 -0.1835
 5293SOL     OW17478   0.846   3.264   4.260  0.4442  0.0381  0.1264
 5293SOL    HW117479   0.855   3.198   4.335  0.9195 -1.6801 -1.3643
 5293SOL    HW217480   0.796   3.222   4.185  2.0757  0.8318 -1.4819
 5294SOL     OW17481   0.287   3.858   4.685  0.0983  0.3685  0.5333
 5294SOL    HW117482   0.218   3.895   4.623  0.1570 -0.9405 -0.3619
 5294SOL    HW217483   0.339   3.933   4.726  0.6255  1.2958 -1.6691
 5295SOL     OW17484   3.112   6.949   3.907 -0.7137 -0.1737  0.2092
 5295SOL    HW117485   3.188   6.884   3.902 -0.9968 -0.7178  2.0400
 5295SOL    HW217486   3.026   6.901   3.886 -0.8907 -0.3767  1.3037
 5296SOL     OW17487   0.552   4.656   6.766 -0.6276 -0.1108  0.5052
 5296SOL    HW117488   0.617   4.686   6.836 -0.2844 -0.5032  0.3563
 5296SOL    HW217489   0.602   4.625   6.685 -1.0238  0.5224  0.0039
 5297SOL     OW17490   3.869   1.368   5.228  0.2225 -0.2342 -0.2784
 5297SOL    HW117491   3.828   1.448   5.184  0.0675 -1.2801 -2.1686
 5297SOL    HW217492   3.942   1.333   5.169  0.2937 -1.4726  0.5287
 5298SOL     OW17493   1.270   0.962   4.060  0.3190 -0.0883 -0.1714
 5298SOL    HW117494   1.255   0.950   4.158 -2.4424 -1.7174 -0.7017
 5298SOL    HW217495   1.357   0.920   4.035  0.3608 -0.9837  1.3436
 5299SOL     OW17496   1.500   3.187   2.237  0.4960  0.5313 -0.2939
 5299SOL    HW117497   1.578   3.244   2.262  1.4070 -0.6086 -0.4587
 5299SOL    HW217498   1.530   3.116   2.173 -0.9183  0.7929 -1.2945
 5300SOL     OW17499   6.285   0.805   1.770  0.2325  0.3557  0.1662
 5300SOL    HW117500   6.375   0.794   1.813  0.9519 -0.6562 -1.4866
 5300SOL    HW217501   6.252   0.715   1.740 -0.1780  1.0149 -1.4337
 5301SOL     OW17502   2.499   3.426   1.404 -0.1500  0.4358 -0.5023
 5301SOL    HW117503   2.582   3.440   1.457 -1.3084  1.4283  1.1537
 5301SOL    HW217504   2.521   3.424   1.307  1.6079  2.7688 -0.2476
 5302SOL     OW17505   2.330   2.912   3.789 -0.0843 -0.4575 -0.0556
 5302SOL    HW117506   2.384   2.829   3.800 -0.7015 -0.8740 -0.0859
 5302SOL    HW217507   2.310   2.926   3.692 -3.0648 -2.3439  0.1418
 5303SOL     OW17508   5.138   1.120   4.031 -0.8042  0.6773 -0.2685
 5303SOL    HW117509   5.072   1.171   3.976 -0.0500  1.8310 -0.1460
 5303SOL    HW217510   5.217   1.095   3.975 -0.0700  1.7883  0.2293
 5304SOL     OW17511   6.026   1.436   3.312 -0.0043  0.2552 -0.4257
 5304SOL    HW117512   6.088   1.424   3.234  1.4843  0.2089  0.7202
 5304SOL    HW217513   6.000   1.532   3.320  2.0025  0.7665  0.5554
 5305SOL     OW17514   4.265   6.050   6.777 -0.1681  0.3806 -0.1708
 5305SOL    HW117515   4.293   5.968   6.727 -0.6907  1.2955 -2.0663
 5305SOL    HW217516   4.293   6.042   6.872 -0.2640 -2.0168 -0.2867
 5306SOL     OW17517   5.056   5.565   1.084 -0.0435 -0.0875  0.2668
 5306SOL    HW117518   4.982   5.570   1.151  0.8377  1.1842  1.1995
 5306SOL    HW217519   5.142   5.545   1.131  0.3440 -0.7732 -0.7040
 5307SOL     OW17520   6.426   2.434   6.377 -0.4789 -0.1311 -0.1476
 5307SOL    HW117521   6.364   2.361   6.349 -1.5493  0.3590  0.8655
 5307SOL    HW217522   6.514   2.395   6.402 -0.7910 -0.9940 -0.3473
 5308SOL     OW17523   1.668   1.432   2.210  0.5509  0.3768 -0.2969
 5308SOL    HW117524   1.656   1.501   2.281 -3.1579 -0.0261 -0.3133
 5308SOL    HW217525   1.747   1.455   2.153  1.4072  2.7283  1.6808
 5309SOL     OW17526   2.280   2.092   6.478 -0.0793 -0.4529 -0.0998
 5309SOL    HW117527   2.352   2.161   6.471 -1.8287  1.4654 -0.0147
 5309SOL    HW217528   2.211   2.109   6.408 -1.0401 -1.5608  0.5418
 5310SOL     OW17529   0.451   5.561   4.694  0.1544 -0.2763  0.3448
 5310SOL    HW117530   0.362   5.561   4.738  1.0991 -1.6037  2.4400
 5310SOL    HW217531   0.440   5.560   4.595 -2.1229  0.0302  0.5517
 5311SOL     OW17532   0.771   4.480   4.196  0.0417 -0.4569  0.4296
 5311SOL    HW117533   0.813   4.406   4.142  0.9771  0.0127  0.4969
 5311SOL    HW217534   0.841   4.525   4.251 -0.0956  1.7607 -1.0812
 5312SOL     OW17535   5.773   0.380   2.861  0.0937 -0.1933  0.3135
 5312SOL    HW117536   5.745   0.397   2.767 -1.1407 -1.0230  0.5071
 5312SOL    HW217537   5.833   0.300   2.864  0.4187  0.0447  0.1948
 5313SOL     OW17538   6.875   2.746   4.442 -0.2960  0.5856 -0.2109
 5313SOL    HW117539   6.928   2.745   4.357  0.4113 -1.7951  0.1910
 5313SOL    HW217540   6.897   2.829   4.494 -0.4976  1.9266 -2.1454
 5314SOL     OW17541   1.966   0.541   5.616 -0.8840 -0.2114 -0.3453
 5314SOL    HW117542   1.918   0.629   5.622 -0.3857  0.0877 -0.6884
 5314SOL    HW217543   2.007   0.520   5.705 -2.2770 -0.8441  0.1797
 5315SOL     OW17544   5.998   1.500   0.590 -0.1674  0.7563 -0.3150
 5315SOL    HW117545   6.029   1.406   0.603  2.4784  1.2055 -2.6152
 5315SOL    HW217546   5.993   1.545   0.679  2.2537 -0.4960  0.5483
 5316SOL     OW17547   4.828   2.455   6.557  0.5846 -0.0737  0.4167
 5316SOL    HW117548   4.784   2.406   6.482  2.5037 -1.1812 -0.0666
 5316SOL    HW217549   4.837   2.552   6.534  1.5757 -0.4840 -1.0166
 5317SOL     OW17550   2.250   1.748   0.159  0.4925 -0.0315 -0.4615
 5317SOL    HW117551   2.286   1.812   0.227 -0.8682  0.0177  0.2600
 5317SOL    HW217552   2.309   1.747   0.079  1.7329  0.4631  0.4253
 5318SOL     OW17553   1.771   1.451   4.974 -0.1974 -0.0057 -0.7111
 5318SOL    HW117554   1.751   1.500   4.890 -1.7478  0.3770 -0.1524
 5318SOL    HW217555   1.803   1.359   4.952  1.6748  0.8317 -1.7403
 5319SOL     OW17556   6.203   1.248   1.145 -1.1659 -0.3933  0.6112
 5319SOL    HW117557   6.116   1.250   1.097 -0.4467 -2.7035 -0.9449
 5319SOL    HW217558   6.268   1.309   1.100 -1.0190 -1.2030 -0.2913
 5320SOL     OW17559   0.862   5.626   6.904 -0.0374 -0.3528  0.2762
 5320SOL    HW117560   0.879   5.723   6.889  0.7362 -0.2647  1.6080
 5320SOL    HW217561   0.857   5.607   7.002 -0.4623 -1.6100  0.0320
 5321SOL     OW17562   2.267   2.396   2.432 -0.4434  0.2483  0.3848
 5321SOL    HW117563   2.315   2.475   2.394  1.0869 -1.1148 -0.6684
 5321SOL    HW217564   2.298   2.380   2.526  0.9499 -0.3955 -0.1582
 5322SOL     OW17565   2.967   1.925   1.415 -0.1670  0.5666  0.4039
 5322SOL    HW117566   2.975   1.938   1.514  1.0962  0.2453  0.3672
 5322SOL    HW217567   2.897   1.985   1.378 -0.7800  0.5503  1.5258
 5323SOL     OW17568   1.292   3.305   3.364  0.2559 -0.6661  0.4672
 5323SOL    HW117569   1.302   3.388   3.310  0.4901 -0.3431  1.0072
 5323SOL    HW217570   1.264   3.230   3.303  0.0714 -0.2091 -0.0256
 5324SOL     OW17571   1.146   3.516   0.867  0.4877  0.2099 -0.0956
 5324SOL    HW117572   1.182   3.430   0.904 -1.1755 -0.6873 -0.4517
 5324SOL    HW217573   1.049   3.505   0.847 -0.1214  2.6424  1.2148
 5325SOL     OW17574   1.667   5.257   3.969 -0.3580  0.8674  0.3369
 5325SOL    HW117575   1.608   5.179   3.950 -2.6641  2.6942 -0.4156
 5325SOL    HW217576   1.742   5.258   3.903 -1.2190  0.1662 -0.6879
 5326SOL     OW17577   1.061   1.572   3.409  0.1378 -0.3961  0.7191
 5326SOL    HW117578   1.005   1.653   3.427 -2.6155 -2.6819  3.6643
 5326SOL    HW217579   1.134   1.566   3.477 -1.5937 -1.8387  2.5664
 5327SOL     OW17580   3.367   0.693   5.578  0.3459  0.6338  0.2232
 5327SOL    HW117581   3.327   0.769   5.526 -0.6470 -0.2901 -0.3999
 5327SOL    HW217582   3.466   0.705   5.581  0.2914  1.4920 -0.6336
 5328SOL     OW17583   4.658   2.169   0.705  0.2145  0.0660 -0.3408
 5328SOL    HW117584   4.703   2.242   0.654  0.9280 -0.9669 -1.2690
 5328SOL    HW217585   4.638   2.199   0.798  1.2022  1.1658 -0.4656
 5329SOL     OW17586   6.928   4.146   6.164 -0.1825  0.0593  0.3491
 5329SOL    HW117587   6.943   4.190   6.075 -0.9145  1.9042  1.0702
 5329SOL    HW217588   7.007   4.090   6.188  1.6925  2.4724  0.1750
 5330SOL     OW17589   6.910   5.297   6.046 -0.3119  0.2853  0.3193
 5330SOL    HW117590   6.842   5.369   6.058 -0.7653 -0.2019  0.7657
 5330SOL    HW217591   6.952   5.305   5.955 -0.4229  1.0432  0.3300
 5331SOL     OW17592   6.413   4.524   2.466  0.0375  0.3143 -0.5223
 5331SOL    HW117593   6.409   4.605   2.525 -1.2168 -0.0136 -0.1293
 5331SOL    HW217594   6.505   4.516   2.427  1.2459  0.0201  2.1386
 5332SOL     OW17595   6.127   6.591   2.819  0.2483  0.2956  0.2155
 5332SOL    HW117596   6.057   6.617   2.887 -0.1928  0.2909 -0.2299
 5332SOL    HW217597   6.189   6.668   2.805 -1.6022  1.5560 -1.7899
 5333SOL     OW17598   1.052   3.877   6.774  0.3675  0.3684 -0.6268
 5333SOL    HW117599   1.077   3.956   6.718  3.1411 -0.1585 -0.2572
 5333SOL    HW217600   1.121   3.863   6.845 -1.7893 -0.4499  1.4435
 5334SOL     OW17601   3.489   1.300   6.537  0.2441 -0.0522 -0.2103
 5334SOL    HW117602   3.570   1.251   6.505 -0.1077 -0.7728 -0.0063
 5334SOL    HW217603   3.516   1.367   6.606  0.6318 -0.4991  0.0762
 5335SOL     OW17604   2.936   0.656   5.619  0.7940 -0.0075 -0.0926
 5335SOL    HW117605   2.884   0.570   5.614 -2.0188  1.5763  0.0194
 5335SOL    HW217606   2.952   0.680   5.715 -0.3831  0.6553 -0.0456
 5336SOL     OW17607   5.125   7.019   2.425 -0.2779  0.1812 -0.1274
 5336SOL    HW117608   5.149   6.932   2.382 -0.6880  0.8464 -1.7869
 5336SOL    HW217609   5.206   7.059   2.466  0.0803 -0.6099 -0.0485
 5337SOL     OW17610   0.054   3.842   3.111 -0.1071  0.2901  0.0779
 5337SOL    HW117611   0.081   3.746   3.111 -1.5193 -0.2078 -2.4918
 5337SOL    HW217612   0.026   3.869   3.018  1.8599  3.6847  0.3053
 5338SOL     OW17613   4.960   0.238   5.568 -0.3264 -0.6899 -0.1458
 5338SOL    HW117614   4.880   0.199   5.523 -0.4883 -0.0436 -0.4248
 5338SOL    HW217615   4.983   0.183   5.649 -2.5658  0.5114  1.4217
 5339SOL     OW17616   1.312   1.065   0.301 -0.3293  0.4264  0.4537
 5339SOL    HW117617   1.337   1.155   0.265 -1.2128 -1.0684 -4.7229
 5339SOL    HW217618   1.392   1.023   0.344  1.4289  1.9484 -1.1733
 5340SOL     OW17619   1.724   6.846   1.200  0.7379  0.5236 -0.1890
 5340SOL    HW117620   1.742   6.759   1.246  0.2249  0.8617  0.6803
 5340SOL    HW217621   1.809   6.897   1.190  1.3291 -0.7320 -2.1344
 5341SOL     OW17622   0.551   5.793   6.394  0.0332 -0.2395  0.2038
 5341SOL    HW117623   0.513   5.702   6.404 -1.2516  0.0248 -1.6914
 5341SOL    HW217624   0.600   5.800   6.306  0.5978  0.7397  0.5686
 5342SOL     OW17625   0.664   2.588   2.020 -0.0945 -0.2790  0.5683
 5342SOL    HW117626   0.759   2.620   2.013 -0.8721  2.2303  0.3998
 5342SOL    HW217627   0.604   2.652   1.972 -1.9904 -1.2440  1.5499
 5343SOL     OW17628   5.134   0.488   5.130 -1.0840  0.2246 -0.0908
 5343SOL    HW117629   5.193   0.499   5.210 -1.2676  0.8751 -0.0404
 5343SOL    HW217630   5.087   0.574   5.112 -3.5446 -0.7993  1.0568
 5344SOL     OW17631   4.643   2.606   1.055  0.3104 -0.0233  0.4689
 5344SOL    HW117632   4.710   2.574   0.988  0.1658  1.7787 -0.6081
 5344SOL    HW217633   4.679   2.685   1.103 -0.2647 -0.2742  1.3309
 5345SOL     OW17634   1.445   2.890   0.189 -0.1716 -0.6161 -0.6257
 5345SOL    HW117635   1.485   2.826   0.124  0.2175 -1.6053  0.5575
 5345SOL    HW217636   1.365   2.849   0.233  0.3445 -0.5042  0.4737
 5346SOL     OW17637   6.186   5.277   1.648 -0.0506  0.1982  0.1550
 5346SOL    HW117638   6.219   5.299   1.556  1.5222  1.8707  1.0526
 5346SOL    HW217639   6.258   5.228   1.698 -0.5363  0.1249  0.7974
 5347SOL     OW17640   3.225   1.301   1.509 -0.3731  0.3117 -0.0295
 5347SOL    HW117641   3.171   1.382   1.531 -0.9033 -0.1851  0.5320
 5347SOL    HW217642   3.266   1.265   1.592 -0.0297  0.0778 -0.2988
 5348SOL     OW17643   2.160   6.626   2.358  0.4887 -0.6853 -0.3593
 5348SOL    HW117644   2.238   6.581   2.402  2.7026  1.4422 -1.8446
 5348SOL    HW217645   2.101   6.665   2.428  0.5650 -2.5635  0.8196
 5349SOL     OW17646   4.735   0.837   6.927  0.1046 -0.5728 -0.2698
 5349SOL    HW117647   4.809   0.792   6.975  1.5967 -1.5974 -3.3014
 5349SOL    HW217648   4.668   0.769   6.896  0.5216 -0.3432 -1.7822
 5350SOL     OW17649   6.314   5.676   4.355 -0.0632  0.0110 -0.3636
 5350SOL    HW117650   6.359   5.589   4.375  2.1746  1.1937  0.0925
 5350SOL    HW217651   6.340   5.708   4.264 -0.0710  0.6758 -0.1388
 5351SOL     OW17652   3.647   1.971   5.648 -0.2043  0.5508 -0.5398
 5351SOL    HW117653   3.691   1.915   5.717 -1.1320  1.0527  0.4954
 5351SOL    HW217654   3.563   1.925   5.616 -0.6753  1.0824 -0.0865
 5352SOL     OW17655   0.478   6.342   4.588  0.2539 -0.4711  0.2951
 5352SOL    HW117656   0.458   6.342   4.686 -1.4532 -0.5121 -0.0171
 5352SOL    HW217657   0.420   6.275   4.543 -1.4386  1.7876 -1.1517
 5353SOL     OW17658   2.956   0.785   0.277 -0.7717  0.0190 -0.3392
 5353SOL    HW117659   2.935   0.812   0.372  1.3623 -1.3592  0.5979
 5353SOL    HW217660   2.954   0.685   0.270 -0.4392  0.0948 -1.6377
 5354SOL     OW17661   6.740   1.239   2.268 -0.0122  0.0478 -0.4787
 5354SOL    HW117662   6.697   1.149   2.275  1.1169 -0.3944  0.9654
 5354SOL    HW217663   6.838   1.229   2.251  0.3760  0.9610  1.0562
 5355SOL     OW17664   2.832   6.860   5.455 -0.2523 -0.6941  0.1777
 5355SOL    HW117665   2.741   6.819   5.444 -1.1766  0.2228  3.4055
 5355SOL    HW217666   2.847   6.927   5.382 -1.0503 -2.6080 -1.8678
 5356SOL     OW17667   2.154   2.241   0.485 -0.0198 -0.1214  0.0099
 5356SOL    HW117668   2.201   2.306   0.544  0.8384 -0.3907 -0.3594
 5356SOL    HW217669   2.055   2.252   0.495  0.0229  2.7389 -1.6012
 5357SOL     OW17670   4.514   5.726   1.871 -0.6639 -0.4070  0.1647
 5357SOL    HW117671   4.583   5.795   1.850  1.4577 -1.8107  2.0686
 5357SOL    HW217672   4.493   5.729   1.969 -1.7843 -1.3904 -0.0202
 5358SOL     OW17673   2.887   6.813   4.970 -0.0457  0.1834  0.4529
 5358SOL    HW117674   2.874   6.903   5.011  0.9474  1.9360 -2.7138
 5358SOL    HW217675   2.909   6.746   5.041 -2.1481  2.0883  3.0681
 5359SOL     OW17676   6.088   0.097   5.291  0.4171 -0.4436  0.0436
 5359SOL    HW117677   5.992   0.071   5.280  0.5235  0.1526 -3.2772
 5359SOL    HW217678   6.138   0.022   5.335 -0.9480 -2.1921 -1.2633
 5360SOL     OW17679   0.081   3.606   3.934  0.5588  0.0304  0.3166
 5360SOL    HW117680   0.168   3.558   3.950 -0.3653 -2.0955 -0.6027
 5360SOL    HW217681   0.021   3.547   3.880 -1.6068  1.3089  1.2372
 5361SOL     OW17682   6.636   6.022   3.693 -0.2944  0.4270  0.3100
 5361SOL    HW117683   6.665   6.059   3.781  0.5970  0.1489  0.1484
 5361SOL    HW217684   6.578   5.942   3.708 -0.6423  0.7365  0.6421
 5362SOL     OW17685   4.721   3.157   5.595 -0.6388 -0.5305  0.3935
 5362SOL    HW117686   4.769   3.129   5.512 -1.5179 -0.2361 -0.2258
 5362SOL    HW217687   4.645   3.094   5.613 -0.9331 -0.1401  0.5311
 5363SOL     OW17688   1.372   2.848   3.211 -0.2676 -0.1875  0.5632
 5363SOL    HW117689   1.276   2.874   3.220 -0.3844 -0.1751 -0.5897
 5363SOL    HW217690   1.419   2.913   3.152  0.0949 -1.0260 -0.0885
 5364SOL     OW17691   0.013   5.841   0.564  0.6789 -0.3840 -0.1787
 5364SOL    HW117692  -0.019   5.926   0.521 -1.7131 -1.6628 -1.0867
 5364SOL    HW217693  -0.043   5.822   0.644  2.1327 -0.4095  0.8560
 5365SOL     OW17694   4.167   2.129   6.483 -0.2457 -0.2335  0.6198
 5365SOL    HW117695   4.074   2.145   6.452  0.2820  1.0777 -0.3863
 5365SOL    HW217696   4.166   2.096   6.578 -1.8928 -4.2409 -0.6045
 5366SOL     OW17697   0.291   3.101   3.477  0.3756  0.3002  0.2214
 5366SOL    HW117698   0.313   3.178   3.418  0.4258 -0.3626 -0.6378
 5366SOL    HW217699   0.208   3.122   3.529 -0.5110  0.3325 -1.1564
 5367SOL     OW17700   5.706   4.834   0.478  0.1740 -0.1231  0.5214
 5367SOL    HW117701   5.771   4.816   0.552  1.2306 -0.0559 -0.3672
 5367SOL    HW217702   5.724   4.772   0.401  0.2382  0.9719 -0.3732
 5368SOL     OW17703   0.575   4.019   1.791 -0.6897  0.0272  0.4695
 5368SOL    HW117704   0.637   4.097   1.781 -2.1077  1.2474  0.7851
 5368SOL    HW217705   0.575   3.965   1.707  1.3753 -0.4913  0.7399
 5369SOL     OW17706   4.011   5.578   1.632  0.4239  0.3361  0.0220
 5369SOL    HW117707   4.098   5.596   1.678 -0.7645  0.1383  2.5094
 5369SOL    HW217708   3.963   5.504   1.678 -1.1725  0.5698 -1.1652
 5370SOL     OW17709   5.723   6.796   6.394  0.0049  0.4354  0.2322
 5370SOL    HW117710   5.720   6.788   6.294  0.3450  0.4907  0.2180
 5370SOL    HW217711   5.683   6.883   6.422 -2.4993 -0.6315  0.3065
 5371SOL     OW17712   4.704   1.133   2.332 -0.2163 -0.1540  0.0232
 5371SOL    HW117713   4.779   1.120   2.266  0.1523  0.3566  0.3318
 5371SOL    HW217714   4.685   1.231   2.341 -0.4581 -0.2405  0.4629
 5372SOL     OW17715   4.885   5.019   2.169 -0.2125  0.0542  0.5546
 5372SOL    HW117716   4.816   5.080   2.132 -1.3694  0.3237  2.9693
 5372SOL    HW217717   4.970   5.069   2.185 -0.8182  0.8049  1.5105
 5373SOL     OW17718   1.140   4.435   4.807  0.0680 -1.1659  0.1043
 5373SOL    HW117719   1.181   4.346   4.786 -1.2060 -2.1223  1.4856
 5373SOL    HW217720   1.063   4.422   4.868 -0.3698  0.8877  0.0403
 5374SOL     OW17721   1.322   5.438   2.097  0.1983  0.7839 -0.5224
 5374SOL    HW117722   1.264   5.504   2.145  1.0050  1.3988 -0.3917
 5374SOL    HW217723   1.314   5.349   2.142 -0.0213  1.0581 -0.0093
 5375SOL     OW17724   5.993   4.076   0.221  0.0082 -0.3373 -0.2017
 5375SOL    HW117725   5.996   4.067   0.321  0.7711 -0.4875 -0.2293
 5375SOL    HW217726   5.898   4.078   0.190 -0.2297 -0.7023  0.4929
 5376SOL     OW17727   1.756   3.827   1.411 -0.2717 -0.1748  0.1506
 5376SOL    HW117728   1.761   3.742   1.463  0.3623 -0.3066 -0.1227
 5376SOL    HW217729   1.751   3.807   1.313  0.3717  0.1035  0.0532
 5377SOL     OW17730   5.287   2.345   6.788  0.6504 -0.1306  0.4295
 5377SOL    HW117731   5.344   2.414   6.743  0.4483  0.1524  0.6017
 5377SOL    HW217732   5.194   2.381   6.797  0.8097  0.0187  1.5269
 5378SOL     OW17733   5.281   6.412   2.419 -0.5689 -0.2162  0.1050
 5378SOL    HW117734   5.282   6.390   2.322  0.9861  0.1718  0.0063
 5378SOL    HW217735   5.189   6.440   2.446 -1.0636 -0.5148 -1.2053
 5379SOL     OW17736   2.039   6.329   2.884 -0.2504  0.5572  0.1682
 5379SOL    HW117737   2.083   6.380   2.958 -1.0405 -0.1994  1.1821
 5379SOL    HW217738   2.017   6.392   2.809 -1.1652  1.7273  1.3615
 5380SOL     OW17739   6.745   1.422   0.132  0.7535  0.4199 -0.0962
 5380SOL    HW117740   6.659   1.372   0.136  1.2699 -0.4680  0.3406
 5380SOL    HW217741   6.815   1.365   0.089  0.8334  1.6041 -1.6215
 5381SOL     OW17742   4.790   0.171   1.517  0.3133 -0.0201  0.3076
 5381SOL    HW117743   4.797   0.112   1.598  0.9463 -0.7371 -0.2487
 5381SOL    HW217744   4.802   0.266   1.545 -0.8679 -0.1267  1.2406
 5382SOL     OW17745   5.918   3.194   3.196 -1.0590 -0.1176 -0.5697
 5382SOL    HW117746   5.879   3.113   3.151 -0.8000 -1.2794  1.2204
 5382SOL    HW217747   6.014   3.203   3.171 -0.2307 -2.1959  1.5563
 5383SOL     OW17748   4.625   1.602   2.118  0.1753 -0.0648 -0.3846
 5383SOL    HW117749   4.561   1.637   2.048 -1.4998 -1.1417  0.5425
 5383SOL    HW217750   4.583   1.609   2.208  1.4902 -0.6043  0.2965
 5384SOL     OW17751   2.186   0.276   6.631 -0.2243  0.4291 -0.2908
 5384SOL    HW117752   2.098   0.321   6.622 -0.7552 -0.6448 -0.6937
 5384SOL    HW217753   2.209   0.265   6.728  0.4098  2.4493 -0.1772
 5385SOL     OW17754   3.630   1.976   0.947  0.1572  0.2426 -0.5511
 5385SOL    HW117755   3.575   1.960   1.028 -0.7672  1.1309 -0.9781
 5385SOL    HW217756   3.716   2.020   0.972 -0.7734  1.9286 -0.1611
 5386SOL     OW17757   1.368   0.002   0.889  0.2491  0.1095 -0.6743
 5386SOL    HW117758   1.389  -0.079   0.835 -1.3402 -0.6669 -0.1822
 5386SOL    HW217759   1.453   0.046   0.919  1.1277 -0.9481 -1.5479
 5387SOL     OW17760   0.952   3.341   0.335  0.1019 -0.5569  0.8436
 5387SOL    HW117761   1.050   3.337   0.313  0.1451  0.3512  0.8312
 5387SOL    HW217762   0.922   3.436   0.333 -1.0712 -0.9190 -0.4128
 5388SOL     OW17763   2.546   5.373   6.559  0.1689  0.3158  0.4659
 5388SOL    HW117764   2.548   5.296   6.496 -3.9776 -0.4497  1.0187
 5388SOL    HW217765   2.536   5.340   6.653 -0.5082  1.4839  0.8345
 5389SOL     OW17766   4.378   5.784   0.567 -0.1133  0.2906 -0.1393
 5389SOL    HW117767   4.434   5.768   0.648 -0.1132 -0.5689 -0.3062
 5389SOL    HW217768   4.421   5.855   0.510 -0.4269  1.3537  0.8999
 5390SOL     OW17769   6.183   1.102   6.572  0.1604 -1.1223 -0.0799
 5390SOL    HW117770   6.137   1.177   6.525  2.7858  1.2088  0.8176
 5390SOL    HW217771   6.232   1.045   6.505  0.1944 -0.5327 -0.5579
 5391SOL     OW17772   6.454   0.117   1.693 -0.5894 -0.1755 -0.2115
 5391SOL    HW117773   6.446   0.182   1.618  0.7171 -0.5281 -0.6749
 5391SOL    HW217774   6.526   0.050   1.673 -0.8473 -0.8329  0.9412
 5392SOL     OW17775   3.863   2.249   6.531  0.0548 -0.0906 -0.3810
 5392SOL    HW117776   3.793   2.260   6.460  1.0512 -2.7127 -1.9530
 5392SOL    HW217777   3.822   2.209   6.613 -0.7665  1.1416 -0.1658
 5393SOL     OW17778   4.605   2.430   1.527 -0.3915 -0.6921 -0.0587
 5393SOL    HW117779   4.609   2.347   1.582 -1.8046 -0.8709 -0.1854
 5393SOL    HW217780   4.643   2.412   1.437  2.2487 -0.3089  0.8874
 5394SOL     OW17781   6.888   6.094   5.296 -0.2985 -0.0998 -0.0827
 5394SOL    HW117782   6.855   6.053   5.211 -1.9199 -0.7647  0.8295
 5394SOL    HW217783   6.987   6.082   5.302  0.3085  2.1313 -3.0042
 5395SOL     OW17784   5.754   5.423   3.288  0.9560 -0.5459 -0.0134
 5395SOL    HW117785   5.714   5.419   3.197  0.0565  0.1794  0.3401
 5395SOL    HW217786   5.701   5.485   3.346  2.9938  1.0508  0.2821
 5396SOL     OW17787   3.514   1.263   3.604 -0.1275  0.1787  0.3642
 5396SOL    HW117788   3.467   1.336   3.655  1.4507  2.5955 -1.4055
 5396SOL    HW217789   3.534   1.187   3.666 -1.9585  1.1449  2.2926
 5397SOL     OW17790   1.415   0.207   0.381  0.3092 -0.3647  0.2010
 5397SOL    HW117791   1.375   0.125   0.339  2.3010 -0.4930 -1.6130
 5397SOL    HW217792   1.426   0.278   0.311  2.2844  0.0060  0.8172
 5398SOL     OW17793   0.929   6.360   3.660  0.1724  0.9864  0.2389
 5398SOL    HW117794   0.866   6.325   3.591 -1.1753  3.1090  0.2994
 5398SOL    HW217795   0.910   6.316   3.748 -0.2944  0.5982 -0.0531
 5399SOL     OW17796   1.904   3.176   1.328  0.5909  0.1861  0.2614
 5399SOL    HW117797   1.923   3.245   1.399  1.1814  0.0935  0.2004
 5399SOL    HW217798   1.829   3.208   1.270  1.8873  1.5496 -0.7539
 5400SOL     OW17799   4.115   5.497   4.703 -0.3111 -0.0947  0.1060
 5400SOL    HW117800   4.213   5.485   4.685 -0.6468 -0.3835 -1.6758
 5400SOL    HW217801   4.092   5.594   4.695 -0.8448 -0.3869 -3.6136
 5401SOL     OW17802   4.421   6.678   6.664 -0.2418  0.1787 -0.2389
 5401SOL    HW117803   4.445   6.724   6.579 -2.5891  1.1111 -0.4520
 5401SOL    HW217804   4.441   6.580   6.656  2.0149  0.6353 -0.8549
 5402SOL     OW17805   1.026   3.532   1.293  0.1484 -0.1311  0.1665
 5402SOL    HW117806   1.066   3.568   1.377 -3.0036  0.6120  1.5076
 5402SOL    HW217807   1.037   3.599   1.219  1.4981 -0.0600  0.4239
 5403SOL     OW17808   4.812   4.393   5.919 -0.8509  0.2252 -0.1544
 5403SOL    HW117809   4.834   4.315   5.977 -0.3468  1.2469  1.0636
 5403SOL    HW217810   4.874   4.394   5.841 -1.1576 -0.8289 -0.4375
 5404SOL     OW17811   1.188   0.994   3.187 -0.0588 -0.0072 -0.0811
 5404SOL    HW117812   1.180   1.052   3.106 -0.6579  0.5375  0.3619
 5404SOL    HW217813   1.100   0.952   3.207  0.6073 -2.0133 -1.0569
 5405SOL     OW17814   6.900   3.355   4.656 -0.6333  0.1109 -0.0503
 5405SOL    HW117815   6.919   3.265   4.619 -0.1065 -0.0842  0.6771
 5405SOL    HW217816   6.887   3.420   4.581  2.6345  0.2186 -0.6445
 5406SOL     OW17817   0.022   1.158   3.934 -0.0565 -0.1113 -0.0700
 5406SOL    HW117818   0.069   1.245   3.917 -2.0445  0.8427 -1.0091
 5406SOL    HW217819   0.028   1.135   4.032  2.1427  0.0448 -0.1285
 5407SOL     OW17820   4.497   3.953   1.306 -0.6153  0.7952 -0.5922
 5407SOL    HW117821   4.535   3.928   1.395  0.3560  1.5326 -0.7865
 5407SOL    HW217822   4.399   3.933   1.305 -0.4381 -0.2574  0.2533
 5408SOL     OW17823   2.379   5.608   3.187  0.2745  0.3064 -0.2969
 5408SOL    HW117824   2.468   5.653   3.198  0.2933 -0.0026  1.0626
 5408SOL    HW217825   2.364   5.587   3.091  1.4358  0.8429 -0.6178
 5409SOL     OW17826   5.234   4.289   5.587  0.2318 -0.4321  0.0650
 5409SOL    HW117827   5.292   4.311   5.666 -1.4881  1.2557  0.9628
 5409SOL    HW217828   5.286   4.235   5.521  3.7431  3.1694 -0.4834
 5410SOL     OW17829   4.060   6.179   0.530  0.2881 -0.0733 -0.4142
 5410SOL    HW117830   4.025   6.114   0.463 -1.0770  1.0483 -0.8365
 5410SOL    HW217831   3.983   6.217   0.583  1.3270 -1.0389  1.9224
 5411SOL     OW17832   1.527   5.170   1.540 -0.4465  0.0401 -0.2993
 5411SOL    HW117833   1.612   5.134   1.501  1.0179  1.5931  1.2419
 5411SOL    HW217834   1.516   5.266   1.515 -1.2158  0.1358  0.3456
 5412SOL     OW17835   1.582   1.533   6.944  0.2913 -0.5273 -0.4199
 5412SOL    HW117836   1.492   1.490   6.949  0.2700 -0.3602  2.2784
 5412SOL    HW217837   1.583   1.616   7.000  2.0905 -0.4719 -0.4591
 5413SOL     OW17838   3.875   4.368   5.356  0.6003 -0.6340  0.2717
 5413SOL    HW117839   3.882   4.446   5.418 -1.7662 -1.1026  1.2397
 5413SOL    HW217840   3.924   4.290   5.396  0.0516 -0.6031  1.0392
 5414SOL     OW17841   2.413   5.396   0.122 -1.1549  0.2158  0.3685
 5414SOL    HW117842   2.467   5.345   0.189 -0.3383  1.0485  0.3756
 5414SOL    HW217843   2.455   5.486   0.108 -1.9970  0.5041 -0.3726
 5415SOL     OW17844   3.434   3.078   3.987 -0.0829 -0.3707 -0.2074
 5415SOL    HW117845   3.342   3.058   3.954 -0.6700 -1.9700  2.1322
 5415SOL    HW217846   3.488   2.993   3.988  1.2332  0.4185 -0.8893
 5416SOL     OW17847   5.001   5.743   2.476 -0.1022 -0.3341 -0.6519
 5416SOL    HW117848   5.060   5.715   2.400 -0.5715 -1.3741 -0.6498
 5416SOL    HW217849   4.910   5.703   2.464 -0.0981 -0.7642  0.6089
 5417SOL     OW17850   2.005   2.447   6.321  0.1767  0.0885 -0.4000
 5417SOL    HW117851   1.992   2.541   6.351 -0.7659 -0.3979  0.8341
 5417SOL    HW217852   1.990   2.441   6.223  1.5231  1.4278 -0.7142
 5418SOL     OW17853   4.281   0.879   1.600 -0.7129 -0.5217  0.3534
 5418SOL    HW117854   4.358   0.899   1.539 -2.1302 -0.7471 -1.6363
 5418SOL    HW217855   4.224   0.960   1.610 -3.0633 -1.6086 -2.6388
 5419SOL     OW17856   3.936   0.256   6.989 -0.7346 -0.2050 -0.0319
 5419SOL    HW117857   3.958   0.173   7.040 -1.9956  0.2397  1.2938
 5419SOL    HW217858   3.855   0.300   7.029  0.9019  2.6150  0.4177
 5420SOL     OW17859   4.886   5.386   4.130  0.3205 -0.0694 -0.2374
 5420SOL    HW117860   4.860   5.339   4.215  2.9656  0.5899  1.0266
 5420SOL    HW217861   4.976   5.428   4.141  1.4962 -1.2788 -3.8957
 5421SOL     OW17862   2.129   6.530   4.752 -0.2723 -0.2665  0.4251
 5421SOL    HW117863   2.123   6.480   4.665  2.2202  1.4909 -0.8655
 5421SOL    HW217864   2.036   6.544   4.788 -1.4788 -0.2891 -2.3995
 5422SOL     OW17865   0.510   4.920   4.305 -0.2182  0.0233  0.5064
 5422SOL    HW117866   0.486   4.824   4.317 -1.4792  0.3872  1.0277
 5422SOL    HW217867   0.429   4.973   4.281  0.7343  0.7217 -1.4469
 5423SOL     OW17868   0.232   2.777   3.640  0.1758 -0.3520 -0.2772
 5423SOL    HW117869   0.292   2.822   3.574  1.2027  0.2094  1.0183
 5423SOL    HW217870   0.240   2.678   3.628  1.4007 -0.2920 -0.1025
 5424SOL     OW17871   0.236   1.294   0.361 -0.3851  0.6520  0.0547
 5424SOL    HW117872   0.162   1.345   0.317 -0.8646  0.5097  0.6821
 5424SOL    HW217873   0.198   1.213   0.405 -0.0360  1.2266  1.4405
 5425SOL     OW17874   1.850   3.179   5.073  0.1877 -0.3715  0.0272
 5425SOL    HW117875   1.896   3.121   5.140 -0.1690  0.0775  0.6731
 5425SOL    HW217876   1.756   3.146   5.060 -0.2062  0.3981  0.8373
 5426SOL     OW17877   2.354   2.577   5.272  0.1207 -0.5352 -0.2807
 5426SOL    HW117878   2.435   2.561   5.328 -0.2750 -2.0830 -0.0954
 5426SOL    HW217879   2.324   2.491   5.231 -0.9046  0.1690 -1.0847
 5427SOL     OW17880   4.278   4.815   5.152  0.7515 -0.7585 -0.2544
 5427SOL    HW117881   4.350   4.883   5.135  0.8053 -0.8482 -0.3870
 5427SOL    HW217882   4.198   4.861   5.191  2.0494 -1.0842  3.1810
 5428SOL     OW17883   1.062   2.079   6.201 -0.1682  1.0175 -0.3434
 5428SOL    HW117884   1.102   1.995   6.164  1.4834  1.4921  0.2689
 5428SOL    HW217885   1.103   2.099   6.290 -0.6156  2.4170 -0.4243
 5429SOL     OW17886   4.358   1.681   6.546  0.1613 -0.3351 -0.1391
 5429SOL    HW117887   4.417   1.673   6.466  1.1180  0.3471  0.4848
 5429SOL    HW217888   4.267   1.712   6.518  0.2797 -0.7758 -1.0332
 5430SOL     OW17889   0.848   1.842   2.884 -0.2366 -0.0649  0.4575
 5430SOL    HW117890   0.919   1.879   2.944 -1.3297 -0.8234  2.3175
 5430SOL    HW217891   0.797   1.918   2.842 -0.0035  0.5079  1.1922
 5431SOL     OW17892   4.170   3.396   3.943 -0.2585 -0.2339 -0.4088
 5431SOL    HW117893   4.143   3.451   4.022  0.2874 -0.5484  0.0131
 5431SOL    HW217894   4.093   3.340   3.913 -0.5529  0.1015 -0.2808
 5432SOL     OW17895   3.774   6.239   4.579  0.2552 -0.6734  0.0888
 5432SOL    HW117896   3.701   6.173   4.597  0.4678 -1.0799 -0.5177
 5432SOL    HW217897   3.734   6.326   4.550  0.0050 -0.8550 -0.1152
 5433SOL     OW17898   5.286   4.875   6.070  0.1092 -0.1382  0.2413
 5433SOL    HW117899   5.344   4.800   6.103  1.6488  1.4952  1.4386
 5433SOL    HW217900   5.302   4.956   6.127  0.6103  1.9645 -2.6799
 5434SOL     OW17901   2.703   0.522   0.316 -0.1537  0.6410  0.0755
 5434SOL    HW117902   2.763   0.442   0.317  0.8010  1.3361 -0.5780
 5434SOL    HW217903   2.647   0.522   0.399  0.8302  0.0394  0.7619
 5435SOL     OW17904   5.657   3.267   3.400 -0.3842  0.3370 -0.3511
 5435SOL    HW117905   5.725   3.195   3.413 -1.9899 -1.0224  0.9159
 5435SOL    HW217906   5.644   3.282   3.302  1.8788  0.8300 -0.6292
 5436SOL     OW17907   4.409   6.019   2.526  0.1962  0.6437 -0.2103
 5436SOL    HW117908   4.442   5.952   2.592 -0.5659 -0.5638 -1.0153
 5436SOL    HW217909   4.371   6.098   2.575  0.0881 -0.0108  0.7813
 5437SOL     OW17910   6.432   3.068   0.414  0.4891 -0.2803  0.0743
 5437SOL    HW117911   6.521   3.055   0.460 -0.1657 -0.0663  1.4508
 5437SOL    HW217912   6.404   3.163   0.423 -0.8163 -0.7567  1.4539
 5438SOL     OW17913   5.203   4.302   4.652  0.4081 -0.3211 -0.3176
 5438SOL    HW117914   5.196   4.382   4.592  1.0959 -0.5125 -0.6662
 5438SOL    HW217915   5.248   4.227   4.603  1.1813 -0.4080  0.4909
 5439SOL     OW17916   3.789   5.968   1.319  0.4608  0.1345 -0.2175
 5439SOL    HW117917   3.860   5.932   1.259  0.8912 -2.2793  1.6312
 5439SOL    HW217918   3.797   5.927   1.409 -1.3698  2.2013  0.9827
 5440SOL     OW17919   6.168   3.779   6.268 -0.7087  0.1138  0.6583
 5440SOL    HW117920   6.189   3.686   6.237  0.8530 -0.1682  2.4034
 5440SOL    HW217921   6.242   3.840   6.241 -1.7865  0.9300 -0.5867
 5441SOL     OW17922   0.291   6.396   3.928 -0.0379 -0.0712  0.6225
 5441SOL    HW117923   0.261   6.379   4.022 -0.4193 -0.6628  0.4028
 5441SOL    HW217924   0.255   6.485   3.898  0.3339  0.2578  1.1298
 5442SOL     OW17925   2.980   1.560   4.939  0.1018 -0.2556  0.1653
 5442SOL    HW117926   2.932   1.546   4.852 -1.6513  0.9016  0.8988
 5442SOL    HW217927   3.075   1.585   4.920 -0.0252 -0.8222 -1.3872
 5443SOL     OW17928   3.076   3.478   6.975  0.4208  0.2862  0.3481
 5443SOL    HW117929   3.143   3.516   6.911  0.0623 -0.1956 -0.3191
 5443SOL    HW217930   3.112   3.486   7.069 -1.0744  5.6524  0.8105
 5444SOL     OW17931   2.283   5.588   1.191  0.0209  0.4151  0.0331
 5444SOL    HW117932   2.288   5.505   1.246  1.8629 -0.9937 -2.1056
 5444SOL    HW217933   2.375   5.627   1.180 -0.1642  0.3725 -2.3064
 5445SOL     OW17934   2.643   0.438   4.620 -0.0214  0.1309 -0.0636
 5445SOL    HW117935   2.629   0.537   4.617 -1.9699 -0.0102  1.9386
 5445SOL    HW217936   2.616   0.399   4.532 -1.3706  1.1982 -0.1745
 5446SOL     OW17937   2.324   0.476   6.426  0.3398 -0.0060  0.3010
 5446SOL    HW117938   2.274   0.532   6.492 -0.4821 -0.3574 -0.0006
 5446SOL    HW217939   2.345   0.387   6.467 -3.7098 -1.8432 -1.0508
 5447SOL     OW17940   1.699   2.350   1.563  0.4135  0.0791 -0.6138
 5447SOL    HW117941   1.775   2.398   1.607 -0.4332  1.1827 -0.3085
 5447SOL    HW217942   1.641   2.308   1.633  1.3504 -1.7355 -0.8971
 5448SOL     OW17943   4.808   1.935   3.072 -0.5846  0.2355  0.3421
 5448SOL    HW117944   4.859   1.855   3.102 -0.1723  0.1482 -0.5929
 5448SOL    HW217945   4.716   1.908   3.045  0.6179 -0.5679 -3.4018
 5449SOL     OW17946   4.896   3.955   3.819  0.2334  0.6153  0.7317
 5449SOL    HW117947   4.986   3.928   3.785 -0.6834 -0.8945 -0.6463
 5449SOL    HW217948   4.853   4.017   3.753 -1.3651 -1.9612 -0.8285
 5450SOL     OW17949   1.727   6.644   0.988  0.1175 -0.2558 -0.2611
 5450SOL    HW117950   1.681   6.560   1.016  0.0001 -0.6420 -1.5432
 5450SOL    HW217951   1.753   6.697   1.069 -2.4723 -0.0619  0.5230
 5451SOL     OW17952   0.889   1.308   4.321 -0.1495 -0.4314 -0.4847
 5451SOL    HW117953   0.971   1.365   4.310 -0.6839  0.2533 -1.0204
 5451SOL    HW217954   0.828   1.322   4.243 -1.8051  0.8020  0.9410
 5452SOL     OW17955   3.854   3.662   5.259 -0.4667  0.0007  0.0178
 5452SOL    HW117956   3.827   3.570   5.288 -1.2948  0.9971  2.7683
 5452SOL    HW217957   3.943   3.685   5.298  0.9277 -0.4080 -2.6493
 5453SOL     OW17958   1.226   0.530   3.312  0.4326 -0.1148  0.4457
 5453SOL    HW117959   1.262   0.536   3.219  2.6659 -0.4794  1.2181
 5453SOL    HW217960   1.192   0.437   3.328  0.8517 -0.3082  0.2512
 5454SOL     OW17961   4.132   3.853   3.386  0.4556 -0.3651  0.2275
 5454SOL    HW117962   4.229   3.829   3.394  0.1224 -1.2968  1.6831
 5454SOL    HW217963   4.077   3.771   3.395 -0.5709  0.4490  1.7285
 5455SOL     OW17964   4.144   2.968   1.992  0.0044 -0.0919  0.0572
 5455SOL    HW117965   4.241   2.974   1.969 -0.1465 -2.7954 -1.7397
 5455SOL    HW217966   4.094   3.039   1.942  0.9350  0.8767  0.4487
 5456SOL     OW17967   4.364   1.385   4.123  0.2438 -0.2305 -0.3132
 5456SOL    HW117968   4.463   1.398   4.118  0.3695 -1.4902 -2.2480
 5456SOL    HW217969   4.342   1.321   4.197  0.9662 -0.5286 -0.3521
 5457SOL     OW17970   6.723   6.955   5.335  0.3633  0.1065 -0.0342
 5457SOL    HW117971   6.729   6.856   5.350 -0.7450 -0.0146 -0.3356
 5457SOL    HW217972   6.725   7.001   5.424 -0.3054 -0.2615  0.1804
 5458SOL     OW17973   5.378   5.772   3.806  0.2794  0.3146 -0.0640
 5458SOL    HW117974   5.427   5.710   3.868  0.6454  0.9970  0.3409
 5458SOL    HW217975   5.373   5.730   3.715  2.3634  0.5703 -0.3467
 5459SOL     OW17976   5.506   5.714   0.263  0.2240  0.6056 -0.1185
 5459SOL    HW117977   5.500   5.650   0.187 -0.9726 -0.9020  1.1587
 5459SOL    HW217978   5.561   5.673   0.336  0.3375  1.4990  0.3083
 5460SOL     OW17979   5.527   4.403   5.512  0.2422 -0.0630 -0.2479
 5460SOL    HW117980   5.477   4.321   5.485 -0.3381 -0.0550  0.7390
 5460SOL    HW217981   5.612   4.409   5.461  1.7261 -2.8179  1.6277
 5461SOL     OW17982   5.002   3.502   6.871 -0.2815 -0.0599  0.0194
 5461SOL    HW117983   5.064   3.424   6.873 -2.4257 -1.8591  2.5292
 5461SOL    HW217984   5.051   3.584   6.903  1.0573 -1.1800  0.9343
 5462SOL     OW17985   6.531   0.351   5.871 -0.1954  0.1147 -0.1099
 5462SOL    HW117986   6.624   0.356   5.907  0.2090  0.2586 -1.1500
 5462SOL    HW217987   6.488   0.266   5.903 -0.2082  0.6853  1.4914
 5463SOL     OW17988   6.308   0.946   3.321 -0.2013  0.6892  0.6698
 5463SOL    HW117989   6.213   0.962   3.349 -0.3302  1.4543 -0.1454
 5463SOL    HW217990   6.325   0.992   3.234  0.1736 -1.6525 -0.5458
 5464SOL     OW17991   6.453   1.367   0.421 -0.5939 -0.0447 -0.2303
 5464SOL    HW117992   6.514   1.289   0.434 -0.7757 -0.4717 -1.6782
 5464SOL    HW217993   6.471   1.409   0.332  1.4719  3.4073  1.5955
 5465SOL     OW17994   6.622   1.202   2.521  0.2625  0.6843  0.0648
 5465SOL    HW117995   6.645   1.229   2.427 -0.3552  0.1271 -0.2504
 5465SOL    HW217996   6.541   1.144   2.520  1.5562 -1.2387  0.7196
 5466SOL     OW17997   4.230   6.193   4.589  0.4143 -0.0231  0.1577
 5466SOL    HW117998   4.302   6.205   4.657  0.3452  0.8658  0.0760
 5466SOL    HW217999   4.140   6.199   4.632  0.3417  1.9092 -0.2033
 5467SOL     OW18000   5.189   2.874   3.891 -0.2574 -0.8002 -0.1025
 5467SOL    HW118001   5.135   2.959   3.893 -1.1937 -1.3194 -1.6274
 5467SOL    HW218002   5.127   2.796   3.886  0.6221 -1.5374  0.2373
 5468SOL     OW18003   1.748   6.658   6.148  0.6933 -0.8836  0.2341
 5468SOL    HW118004   1.753   6.559   6.133  2.7139 -0.7127 -0.5770
 5468SOL    HW218005   1.812   6.685   6.219  1.2403 -0.0016 -0.5643
 5469SOL     OW18006   6.777   2.594   6.866  0.5276 -0.3159  0.1775
 5469SOL    HW118007   6.800   2.561   6.775 -1.5018 -0.3394 -0.3559
 5469SOL    HW218008   6.752   2.516   6.924  1.5736 -0.2751  0.7183
 5470SOL     OW18009   6.051   3.300   0.140  0.3694  0.4642  0.2715
 5470SOL    HW118010   6.086   3.376   0.085  0.4926 -0.7320 -1.3972
 5470SOL    HW218011   6.004   3.235   0.080  0.3829 -0.8442  1.6233
 5471SOL     OW18012   6.340   3.660   2.571  0.7855  0.1559 -0.3255
 5471SOL    HW118013   6.371   3.594   2.640  1.8273  0.0313 -0.8936
 5471SOL    HW218014   6.396   3.651   2.489 -0.2129  0.5427 -1.0711
 5472SOL     OW18015   2.063   4.865   6.283 -0.1371  0.3619  0.1699
 5472SOL    HW118016   2.118   4.943   6.253 -0.3580  0.5424  0.2311
 5472SOL    HW218017   1.966   4.884   6.265 -0.2290  0.2783  0.5749
 5473SOL     OW18018   3.752   1.418   1.222 -0.1269 -0.6242  0.5081
 5473SOL    HW118019   3.701   1.340   1.187  0.2245 -0.9468  0.7122
 5473SOL    HW218020   3.706   1.454   1.304 -1.0998  0.3031 -0.4211
 5474SOL     OW18021   0.660   2.979   2.155 -0.0952 -0.3518 -0.3361
 5474SOL    HW118022   0.632   2.998   2.061 -0.3014 -1.3374 -0.4835
 5474SOL    HW218023   0.622   2.891   2.184 -0.9423  0.4324  1.0441
 5475SOL     OW18024   4.673   3.059   3.805 -0.4307  0.0034  0.5350
 5475SOL    HW118025   4.668   2.985   3.738 -1.3158 -1.3890  2.0569
 5475SOL    HW218026   4.761   3.106   3.797  0.0076 -0.9871 -0.6974
 5476SOL     OW18027   3.419   2.163   6.649 -0.0373  0.1472 -0.4470
 5476SOL    HW118028   3.382   2.101   6.718  0.0286  1.3414  0.7021
 5476SOL    HW218029   3.516   2.179   6.668 -0.0966  0.7301 -0.6268
 5477SOL     OW18030   4.365   2.358   1.693  0.0102 -0.5063 -0.8830
 5477SOL    HW118031   4.410   2.442   1.664 -0.3292 -0.1211 -0.3302
 5477SOL    HW218032   4.433   2.293   1.726  0.1518  0.2572  0.4112
 5478SOL     OW18033   4.212   1.648   5.185 -0.1621 -0.3024  0.0529
 5478SOL    HW118034   4.245   1.607   5.270  0.5762  1.2763  0.5800
 5478SOL    HW218035   4.225   1.584   5.109  0.6113 -1.1546  0.8806
 5479SOL     OW18036   6.664   4.263   0.734 -0.2904  0.0829 -0.2693
 5479SOL    HW118037   6.719   4.200   0.679 -0.0061  0.3889 -0.3438
 5479SOL    HW218038   6.669   4.355   0.694 -1.9146 -0.1302 -1.0225
 5480SOL     OW18039   6.572   5.700   4.816  0.2843 -0.1382 -0.9691
 5480SOL    HW118040   6.515   5.631   4.771 -0.9640  1.5453 -2.1213
 5480SOL    HW218041   6.560   5.694   4.915 -0.2773 -1.1685 -1.0844
 5481SOL     OW18042   3.506   1.545   4.091 -0.3259  0.3356  0.4321
 5481SOL    HW118043   3.455   1.459   4.090  0.6843 -0.2850 -0.3197
 5481SOL    HW218044   3.562   1.551   4.009 -0.8890  2.0512  0.1490
 5482SOL     OW18045   3.964   3.995   5.080  0.5211 -0.4224  0.9182
 5482SOL    HW118046   4.043   4.034   5.128 -1.8459  1.7681  3.3478
 5482SOL    HW218047   3.918   4.067   5.028 -1.0100 -1.1593  1.2064
 5483SOL     OW18048   6.122   3.509   3.448  0.5280  0.8509 -0.0557
 5483SOL    HW118049   6.105   3.557   3.534  0.6807  1.0121 -0.1149
 5483SOL    HW218050   6.054   3.536   3.380 -0.3871 -0.2412  0.3883
 5484SOL     OW18051   5.573   5.440   4.025 -0.2608  0.0289 -0.0827
 5484SOL    HW118052   5.486   5.412   3.985 -0.4023  0.0139  0.2324
 5484SOL    HW218053   5.561   5.525   4.076  0.2825  0.9707 -1.4840
 5485SOL     OW18054   1.206   2.085   0.008  0.3108 -0.4341 -0.2511
 5485SOL    HW118055   1.288   2.042  -0.030 -0.0464 -0.6029 -0.8504
 5485SOL    HW218056   1.179   2.037   0.092  0.7514 -0.4584 -0.1236
 5486SOL     OW18057   6.338   2.615   5.118 -0.0814  0.4727 -0.1712
 5486SOL    HW118058   6.412   2.670   5.079 -1.7924  0.6212 -3.5012
 5486SOL    HW218059   6.371   2.522   5.134  0.8629  0.5521 -1.5278
 5487SOL     OW18060   6.976   2.801   6.449  0.1698  0.0734 -0.1081
 5487SOL    HW118061   6.968   2.710   6.411  0.0840 -0.7798  1.8219
 5487SOL    HW218062   6.906   2.814   6.520  0.2864  1.5853 -0.2296
 5488SOL     OW18063   5.284   4.078   3.715  0.7575  0.3203  0.5151
 5488SOL    HW118064   5.341   4.157   3.692  0.6863  0.2503  0.0851
 5488SOL    HW218065   5.206   4.074   3.652  0.5728  0.1063  0.7559
 5489SOL     OW18066   1.222   5.562   5.650  0.2666  0.3833 -0.1199
 5489SOL    HW118067   1.219   5.630   5.722 -0.1006  0.6107 -0.3453
 5489SOL    HW218068   1.131   5.524   5.636  0.5673 -0.5480  0.3728
 5490SOL     OW18069   4.722   5.525   1.910  0.3556 -0.2082 -0.8359
 5490SOL    HW118070   4.649   5.593   1.898  2.0949  1.7768 -0.8025
 5490SOL    HW218071   4.769   5.542   1.997  1.7090 -0.5536 -1.4753
 5491SOL     OW18072   2.037   2.581   5.742  0.3818 -0.2655  0.1451
 5491SOL    HW118073   1.997   2.490   5.724  2.0284 -0.6994 -1.6753
 5491SOL    HW218074   2.041   2.632   5.656 -0.4373  1.5551  1.1310
 5492SOL     OW18075   1.176   6.736   2.114  0.1169 -0.4593 -0.4543
 5492SOL    HW118076   1.126   6.723   2.029 -0.8914  0.4941 -0.0307
 5492SOL    HW218077   1.197   6.647   2.155 -0.0886 -0.8971 -1.2876
 5493SOL     OW18078   5.294   6.367   2.131  0.0196 -0.4684 -0.0904
 5493SOL    HW118079   5.200   6.381   2.098 -0.2805  2.6218  1.7690
 5493SOL    HW218080   5.358   6.412   2.069  0.2325 -1.5748 -0.7121
 5494SOL     OW18081   2.507   4.548   0.265  0.0724  0.2209  0.2482
 5494SOL    HW118082   2.552   4.637   0.270 -1.8165  1.1720  1.1621
 5494SOL    HW218083   2.435   4.551   0.195 -0.3082 -0.4313  0.6045
 5495SOL     OW18084   4.077   2.467   6.561  0.5695 -0.3931  0.0926
 5495SOL    HW118085   4.092   2.492   6.656 -2.4247  0.7497  0.3916
 5495SOL    HW218086   4.019   2.386   6.556  0.2834 -0.1567 -0.7330
 5496SOL     OW18087   5.427   6.368   1.886  0.0526  0.3147 -0.3783
 5496SOL    HW118088   5.340   6.321   1.873 -0.5685  1.0798  0.7853
 5496SOL    HW218089   5.492   6.305   1.928 -0.8436  0.4949  1.3877
 5497SOL     OW18090   3.000   5.522   1.465  0.3286  0.4470 -0.2829
 5497SOL    HW118091   3.094   5.511   1.497  0.1976 -0.1949 -0.1009
 5497SOL    HW218092   2.946   5.442   1.491 -0.0928  0.4793 -1.0271
 5498SOL     OW18093   0.107   6.533   6.648  0.3446 -0.0359  0.4967
 5498SOL    HW118094   0.120   6.632   6.642  1.2525 -0.0279  2.1206
 5498SOL    HW218095   0.167   6.487   6.582  0.6639  0.4581  0.4380
 5499SOL     OW18096   6.178   1.617   3.691 -0.1267  0.0434  0.7784
 5499SOL    HW118097   6.248   1.613   3.763  0.3893 -1.7412  0.2399
 5499SOL    HW218098   6.153   1.524   3.664 -0.1369  0.6377 -1.4962
 5500SOL     OW18099   4.991   6.638   0.037 -0.1559  0.1706  0.0922
 5500SOL    HW118100   4.947   6.605   0.121 -1.0504 -1.3157 -0.9320
 5500SOL    HW218101   4.923   6.681  -0.021  0.1661 -0.1852 -0.5527
 5501SOL     OW18102   4.571   4.690   1.147  0.1876 -0.2162  0.3238
 5501SOL    HW118103   4.603   4.632   1.073 -0.9744 -1.1375  0.5081
 5501SOL    HW218104   4.590   4.786   1.125 -0.2584 -0.4546 -1.2419
 5502SOL     OW18105   6.525   0.782   4.326 -0.0096  0.3897  0.2442
 5502SOL    HW118106   6.622   0.802   4.340  0.4090 -1.0126 -0.4857
 5502SOL    HW218107   6.506   0.688   4.356 -0.4523 -0.4425 -2.3524
 5503SOL     OW18108   6.118   6.471   4.774 -0.3040 -0.1106  0.4257
 5503SOL    HW118109   6.211   6.502   4.792 -0.0061 -1.1374  0.6942
 5503SOL    HW218110   6.106   6.457   4.675 -0.1205 -0.1285  0.4048
 5504SOL     OW18111   1.086   5.749   1.634  0.3650 -0.2477 -0.4270
 5504SOL    HW118112   1.135   5.772   1.718  1.5824 -0.0468 -1.1799
 5504SOL    HW218113   1.026   5.825   1.609 -0.9556 -0.7864  0.8925
 5505SOL     OW18114   3.130   0.286   2.392  0.0790  0.2029  0.1876
 5505SOL    HW118115   3.191   0.340   2.334  1.1988 -0.1370  1.0169
 5505SOL    HW218116   3.063   0.346   2.436 -1.6812  0.3287 -2.4347
 5506SOL     OW18117   1.483   0.901   5.118  0.3524 -0.5944  0.8077
 5506SOL    HW118118   1.521   0.840   5.047 -0.3380 -0.2181  0.1058
 5506SOL    HW218119   1.470   0.992   5.080  0.5495 -0.2275  1.6073
 5507SOL     OW18120   6.657   0.706   4.887  0.4477 -0.2389  0.0385
 5507SOL    HW118121   6.672   0.661   4.974  0.2104 -2.1719 -0.8760
 5507SOL    HW218122   6.621   0.641   4.820 -1.4294  1.6484 -0.9470
 5508SOL     OW18123   5.296   2.424   2.939  0.2188  0.2319 -0.4642
 5508SOL    HW118124   5.364   2.352   2.947  1.1701  0.9341 -1.8228
 5508SOL    HW218125   5.284   2.448   2.842 -1.3250  0.7258 -0.1810
 5509SOL     OW18126   6.900   2.955   0.099 -0.2066  0.1153  0.1627
 5509SOL    HW118127   6.925   2.873   0.047  0.9203 -0.2663  1.2592
 5509SOL    HW218128   6.814   2.992   0.063 -0.7012 -1.4892 -0.4094
 5510SOL     OW18129   1.702   0.504   7.010 -0.3868  0.3633  0.2877
 5510SOL    HW118130   1.617   0.524   6.963 -0.2951  1.0543  0.4063
 5510SOL    HW218131   1.711   0.405   7.022  0.1854  0.0423 -2.2607
 5511SOL     OW18132   3.531   1.739   4.948  0.4377  0.0329 -0.1628
 5511SOL    HW118133   3.601   1.683   4.905  2.0802 -0.3855  2.7827
 5511SOL    HW218134   3.556   1.835   4.940  1.5857 -0.1280  1.1240
 5512SOL     OW18135   5.484   4.582   5.721 -0.3432  0.4655 -0.1399
 5512SOL    HW118136   5.480   4.520   5.642 -1.1326  0.0245  0.2349
 5512SOL    HW218137   5.463   4.675   5.691 -0.1081  0.3934 -0.5408
 5513SOL     OW18138   6.989   0.501   2.728 -0.0214 -0.0913 -0.1606
 5513SOL    HW118139   7.064   0.496   2.662 -0.5089  0.7151 -0.7942
 5513SOL    HW218140   6.902   0.496   2.680 -0.4085  1.9056  0.2473
 5514SOL     OW18141   0.636   4.087   6.527 -0.0077  0.2054 -0.2662
 5514SOL    HW118142   0.557   4.046   6.573 -0.8071  0.5361 -1.2934
 5514SOL    HW218143   0.716   4.082   6.586 -0.8977  0.2483  0.9701
 5515SOL     OW18144   5.027   3.491   3.130  0.8991  0.7510  0.0440
 5515SOL    HW118145   5.064   3.430   3.059 -2.3425 -1.4272  0.0256
 5515SOL    HW218146   5.017   3.440   3.215 -1.5631  1.3039  0.1508
 5516SOL     OW18147   0.637   2.309   6.203 -0.0915  0.6421  0.4532
 5516SOL    HW118148   0.607   2.333   6.295 -2.0615  2.9963 -0.6998
 5516SOL    HW218149   0.611   2.214   6.183 -0.7253  0.4874  1.8802
 5517SOL     OW18150   6.653   2.165   5.895  0.0240  0.4407 -0.0052
 5517SOL    HW118151   6.742   2.153   5.852 -1.0375 -1.7782 -1.8205
 5517SOL    HW218152   6.609   2.247   5.857  0.3755  0.2663 -0.8066
 5518SOL     OW18153   2.671   6.086   3.075 -0.1326  0.0585  0.0194
 5518SOL    HW118154   2.624   6.022   3.137  1.6618  0.6626  2.1055
 5518SOL    HW218155   2.718   6.034   3.003 -3.0619 -0.6027 -1.5936
 5519SOL     OW18156   3.078   5.205   6.843 -0.7564 -0.1420 -0.5029
 5519SOL    HW118157   3.160   5.204   6.786 -1.0863 -1.3820 -0.9828
 5519SOL    HW218158   3.064   5.115   6.883 -1.9436  0.0241 -0.5107
 5520SOL     OW18159   6.448   2.436   4.802 -0.3357  0.3904 -0.1654
 5520SOL    HW118160   6.413   2.442   4.708  0.5756  1.0125 -0.4886
 5520SOL    HW218161   6.400   2.364   4.851 -1.0911  0.3076 -0.9993
 5521SOL     OW18162   4.012   4.815   2.117  0.2103 -0.3600  0.3538
 5521SOL    HW118163   3.931   4.766   2.150 -0.3266 -0.3813 -0.9159
 5521SOL    HW218164   4.081   4.818   2.189 -0.1826 -2.0019  0.8436
 5522SOL     OW18165   3.485   0.854   0.124 -0.0796  0.1785  0.9827
 5522SOL    HW118166   3.387   0.834   0.138 -0.0647  0.4157  1.4576
 5522SOL    HW218167   3.536   0.825   0.205 -0.2804  3.7012  2.5491
 5523SOL     OW18168   5.048   4.149   6.541  0.0435  0.1458 -0.1646
 5523SOL    HW118169   5.127   4.196   6.579  0.5437  1.2228 -2.3511
 5523SOL    HW218170   4.977   4.216   6.517  0.3817 -0.2131 -2.4488
 5524SOL     OW18171   4.414   0.945   4.569 -0.1068 -0.0949 -0.0579
 5524SOL    HW118172   4.501   0.899   4.589 -1.1056 -0.7132  3.6741
 5524SOL    HW218173   4.432   1.039   4.539  1.8226 -0.5355 -0.4305
 5525SOL     OW18174   0.587   3.216   2.561 -0.0872  0.0724  0.1141
 5525SOL    HW118175   0.534   3.212   2.645  1.7700  0.5585  1.3781
 5525SOL    HW218176   0.594   3.310   2.529  0.0714  0.0226 -0.0045
 5526SOL     OW18177   0.346   4.873   6.316 -0.0337 -0.0409 -0.0793
 5526SOL    HW118178   0.352   4.835   6.223  2.2450  0.6679 -0.2949
 5526SOL    HW218179   0.257   4.915   6.329 -0.1047  0.6277 -2.2757
 5527SOL     OW18180   3.713   0.355   6.757 -0.4045 -0.2668  0.3379
 5527SOL    HW118181   3.808   0.362   6.787  0.7643 -1.9143 -2.5645
 5527SOL    HW218182   3.681   0.260   6.768 -0.5401 -0.5029 -1.6314
 5528SOL     OW18183   2.288   6.091   4.696 -0.1737 -0.4993 -0.4935
 5528SOL    HW118184   2.192   6.101   4.723 -0.2084 -2.1815  0.1031
 5528SOL    HW218185   2.324   6.181   4.670 -1.5119  0.4059  0.5769
 5529SOL     OW18186   2.938   2.013   6.186  0.1101 -0.4865  0.0939
 5529SOL    HW118187   2.910   2.017   6.282 -0.4787 -1.4672 -0.0192
 5529SOL    HW218188   2.862   1.977   6.131  0.2620  0.5218 -0.8236
 5530SOL     OW18189   6.636   5.946   6.134  0.0121  0.1145 -0.3597
 5530SOL    HW118190   6.570   5.881   6.172  0.4452  0.1948  0.5664
 5530SOL    HW218191   6.662   6.012   6.205  3.0785 -1.4913  0.1446
 5531SOL     OW18192   2.137   4.038   0.240 -0.6067 -0.9165 -0.5228
 5531SOL    HW118193   2.166   4.038   0.144 -0.9415  0.5435 -0.6341
 5531SOL    HW218194   2.073   3.963   0.255 -0.7873 -0.9760 -1.5140
 5532SOL     OW18195   1.888   4.556   1.416  0.0673  0.1666  0.1183
 5532SOL    HW118196   1.948   4.481   1.391 -0.1639 -0.5125  1.5082
 5532SOL    HW218197   1.937   4.620   1.475 -0.3132  0.0605  0.5549
 5533SOL     OW18198   6.672   3.361   5.354 -0.4417  0.0422  0.0042
 5533SOL    HW118199   6.636   3.453   5.370 -0.5572 -0.2422  1.5685
 5533SOL    HW218200   6.601   3.294   5.378  0.8470 -0.5183  2.5162
 5534SOL     OW18201   0.135   6.544   5.580 -0.3616  0.1780 -0.2810
 5534SOL    HW118202   0.222   6.576   5.543 -0.0745  0.6227  0.7536
 5534SOL    HW218203   0.107   6.461   5.532  0.9140 -0.2915 -0.2307
 5535SOL     OW18204   0.524   4.864   1.331 -0.8097  0.1296 -0.1454
 5535SOL    HW118205   0.513   4.889   1.428  0.2040  0.6925 -0.1612
 5535SOL    HW218206   0.492   4.940   1.274 -1.0118 -0.0359 -0.2552
 5536SOL     OW18207   5.143   5.123   6.179  0.0316 -0.1819 -0.0782
 5536SOL    HW118208   5.192   5.089   6.259  0.4501  2.9466  1.1223
 5536SOL    HW218209   5.051   5.084   6.177  0.7365 -1.9862  0.6602
 5537SOL     OW18210   5.554   1.434   4.630  0.4422 -0.3795 -0.4475
 5537SOL    HW118211   5.476   1.430   4.567 -0.6607  1.1594  0.7351
 5537SOL    HW218212   5.606   1.348   4.625 -0.6915 -1.0081 -2.0616
 5538SOL     OW18213   2.904   0.872   0.006 -0.0092  0.3614  0.4564
 5538SOL    HW118214   2.987   0.925  -0.009  1.7823 -1.5035  2.9722
 5538SOL    HW218215   2.909   0.826   0.094 -2.2106 -2.5578 -0.7732
 5539SOL     OW18216   1.993   3.200   1.997 -0.5579  0.0159 -0.2162
 5539SOL    HW118217   2.038   3.127   2.047 -2.1849 -0.3317  0.8121
 5539SOL    HW218218   1.912   3.231   2.047 -0.9264  1.2831 -1.5059
 5540SOL     OW18219   2.852   1.229   0.649 -1.2367  0.5099  0.1579
 5540SOL    HW118220   2.803   1.154   0.693 -0.6970  0.2933  0.3996
 5540SOL    HW218221   2.837   1.225   0.550 -1.9357  0.6196  0.2516
 5541SOL     OW18222   4.410   5.936   2.240 -0.4334  0.2877 -0.2717
 5541SOL    HW118223   4.461   5.850   2.240 -0.8128 -0.0713 -3.5204
 5541SOL    HW218224   4.414   5.977   2.331  0.3546 -2.7744  1.2252
 5542SOL     OW18225   0.423   1.145   5.564  0.2843  0.0995 -0.1444
 5542SOL    HW118226   0.468   1.226   5.527 -1.3068 -0.0882 -2.6869
 5542SOL    HW218227   0.384   1.166   5.654  0.4628  1.9445 -0.4724
 5543SOL     OW18228   5.743   6.377   6.163  0.2575 -0.1686  0.2698
 5543SOL    HW118229   5.806   6.391   6.239 -1.0470  2.7315  0.9249
 5543SOL    HW218230   5.683   6.299   6.184  2.0792 -1.5657  0.5996
 5544SOL     OW18231   1.144   1.149   5.077 -0.4005  0.2508  0.0925
 5544SOL    HW118232   1.157   1.071   5.139 -1.9483  1.2057  1.7218
 5544SOL    HW218233   1.056   1.140   5.030  0.4260 -0.0838 -1.4835
 5545SOL     OW18234   4.492   1.744   4.148 -0.3761  0.0892 -0.2369
 5545SOL    HW118235   4.473   1.766   4.052  0.4091  1.3459 -0.1282
 5545SOL    HW218236   4.407   1.718   4.193 -0.7311 -0.6887 -1.3054
 5546SOL     OW18237   1.578   3.147   5.825 -0.2583  0.0577 -0.0685
 5546SOL    HW118238   1.523   3.153   5.741 -0.3222  1.3195  0.0334
 5546SOL    HW218239   1.517   3.148   5.904 -0.1217  2.0052  0.0626
 5547SOL     OW18240   2.945   3.881   0.804 -0.0642 -0.1010 -0.6187
 5547SOL    HW118241   3.044   3.864   0.803 -0.1759 -0.7935  0.1889
 5547SOL    HW218242   2.903   3.835   0.726  0.1172 -0.6374 -0.4040
 5548SOL     OW18243   2.271   1.495   4.578  0.1863 -0.1849  0.0706
 5548SOL    HW118244   2.271   1.581   4.629  1.2331  0.2671 -0.6385
 5548SOL    HW218245   2.280   1.515   4.480 -2.2677 -1.0115 -0.3761
 5549SOL     OW18246   5.948   3.746   0.344  0.1718 -0.2685  0.0262
 5549SOL    HW118247   5.930   3.662   0.396  1.0419 -0.2284  0.4032
 5549SOL    HW218248   6.041   3.744   0.308 -0.1417  0.0952 -0.8102
 5550SOL     OW18249   2.579   6.711   0.222 -0.6040  0.9030  0.4639
 5550SOL    HW118250   2.584   6.693   0.124  0.8306 -1.0604  0.8487
 5550SOL    HW218251   2.502   6.660   0.261  1.0181 -1.3679  0.8886
 5551SOL     OW18252   4.388   3.769   3.371  0.1059 -0.6241  0.2102
 5551SOL    HW118253   4.366   3.706   3.297 -1.0249  0.3798 -0.3519
 5551SOL    HW218254   4.456   3.728   3.431  1.0779 -1.4627 -1.3918
 5552SOL     OW18255   0.387   3.175   1.283  0.5322  0.1902  0.2512
 5552SOL    HW118256   0.295   3.203   1.254  1.3574  1.2814 -1.4743
 5552SOL    HW218257   0.382   3.136   1.375 -1.5080  1.1141  0.6014
 5553SOL     OW18258   0.305   0.237   2.823 -0.0838  0.2605  0.5474
 5553SOL    HW118259   0.324   0.261   2.728  0.4596  0.1590  0.6316
 5553SOL    HW218260   0.253   0.311   2.866  0.0683  0.5109  0.3015
 5554SOL     OW18261   0.702   4.137   1.091 -0.1681 -0.0274 -0.0747
 5554SOL    HW118262   0.642   4.057   1.092 -0.7527  0.4046 -0.1814
 5554SOL    HW218263   0.676   4.199   1.165 -0.5410  0.6558 -0.7625
 5555SOL     OW18264   1.764   2.926   7.007 -0.2567  0.1102  0.1652
 5555SOL    HW118265   1.826   2.957   7.079 -1.2698  0.4698  0.9060
 5555SOL    HW218266   1.692   2.995   6.994 -1.9421 -1.4079  1.0925
 5556SOL     OW18267   1.326   1.685   1.770 -0.1347  0.3468  0.3414
 5556SOL    HW118268   1.390   1.610   1.785 -0.0349  0.4237  0.3008
 5556SOL    HW218269   1.241   1.666   1.819 -0.2121  0.0756  0.0997
 5557SOL     OW18270   3.732   0.104   1.019 -0.4319  0.8705  0.1066
 5557SOL    HW118271   3.663   0.051   0.971 -0.1107  0.0778  0.4928
 5557SOL    HW218272   3.816   0.108   0.965  0.2417 -0.8157  0.9734
 5558SOL     OW18273   0.580   0.428   6.161  0.3243 -0.4309 -0.2143
 5558SOL    HW118274   0.608   0.349   6.216  0.5392  0.9266  1.7268
 5558SOL    HW218275   0.662   0.477   6.130  0.1833 -0.2383 -0.2861
 5559SOL     OW18276   3.415   2.980   1.600 -0.0536 -0.0947 -0.6126
 5559SOL    HW118277   3.378   3.058   1.550 -0.3337  0.1413 -0.0551
 5559SOL    HW218278   3.352   2.904   1.596  0.5812 -0.5781 -1.8338
 5560SOL     OW18279   1.529   3.360   6.703  0.2282  0.3319  0.2394
 5560SOL    HW118280   1.573   3.362   6.613 -0.8713 -0.0771 -0.3243
 5560SOL    HW218281   1.554   3.276   6.751  0.9595  0.6342  0.3987
 5561SOL     OW18282   0.405   3.441   3.481 -0.6677  0.2544 -0.3565
 5561SOL    HW118283   0.493   3.469   3.441 -0.6598  1.4143  0.4221
 5561SOL    HW218284   0.406   3.460   3.579 -2.0896  1.0982 -0.4731
 5562SOL     OW18285   2.032   1.112   6.049 -0.7483  0.1237  0.2154
 5562SOL    HW118286   2.030   1.037   6.115  2.2986 -1.1862 -1.0016
 5562SOL    HW218287   2.066   1.079   5.961 -0.2081  2.7560 -0.6631
 5563SOL     OW18288   3.968   1.921   5.003 -0.7339  0.4985 -0.2883
 5563SOL    HW118289   3.940   2.009   5.041 -3.2776  0.1887 -1.1864
 5563SOL    HW218290   3.944   1.848   5.067  0.0298  0.3436 -0.1705
 5564SOL     OW18291   2.623   1.199   1.523  0.5326  0.7798 -0.5193
 5564SOL    HW118292   2.643   1.186   1.426  0.0247 -1.1205 -0.4041
 5564SOL    HW218293   2.541   1.255   1.534 -0.0008  0.1321 -1.2060
 5565SOL     OW18294   6.700   5.407   3.665  0.1977 -0.3032 -0.3648
 5565SOL    HW118295   6.704   5.314   3.702  0.7463 -0.0308  0.2770
 5565SOL    HW218296   6.792   5.446   3.664 -0.3599  1.3591  2.2885
 5566SOL     OW18297   0.528   6.204   1.872 -0.2096  0.5004  0.2230
 5566SOL    HW118298   0.531   6.116   1.920 -1.0736  0.4876  0.2647
 5566SOL    HW218299   0.621   6.231   1.847  0.0242 -0.6505 -0.2187
 5567SOL     OW18300   2.225   3.180   0.284 -0.2679  0.0045 -0.1984
 5567SOL    HW118301   2.325   3.188   0.284  0.0085 -2.5354  0.5060
 5567SOL    HW218302   2.186   3.252   0.227  1.7483  2.8098  1.7073
 5568SOL     OW18303   4.253   1.245   4.569  0.0480 -0.3076  0.8736
 5568SOL    HW118304   4.212   1.315   4.628  0.2343 -0.3753  1.0848
 5568SOL    HW218305   4.183   1.180   4.541 -0.3425  0.5133 -0.1259
 5569SOL     OW18306   0.774   4.709   0.737  0.2582  0.0147 -0.4814
 5569SOL    HW118307   0.869   4.715   0.705  0.5751  0.3121  0.4842
 5569SOL    HW218308   0.763   4.766   0.818 -0.4883 -0.8054  0.0054
 5570SOL     OW18309   5.739   0.463   0.614  0.3917 -0.1226 -0.2543
 5570SOL    HW118310   5.769   0.454   0.710 -0.5503  2.2111  0.3263
 5570SOL    HW218311   5.643   0.439   0.607  0.1318  0.8958 -0.3457
 5571SOL     OW18312   4.608   6.735   5.866  0.0296 -0.2366 -0.0662
 5571SOL    HW118313   4.668   6.807   5.901 -1.9967  2.1329 -1.1600
 5571SOL    HW218314   4.647   6.696   5.783  1.5079 -0.9867  0.9431
 5572SOL     OW18315   0.220   6.786   1.798 -0.5443  0.1599  0.7147
 5572SOL    HW118316   0.285   6.799   1.724 -0.3142  0.5629  0.9864
 5572SOL    HW218317   0.246   6.705   1.851 -0.4683  0.1172  0.6132
 5573SOL     OW18318   4.753   4.296   6.832  0.5021 -0.0206  0.1379
 5573SOL    HW118319   4.797   4.295   6.922 -1.0544 -1.8373  0.9467
 5573SOL    HW218320   4.799   4.232   6.772  0.3451 -0.2638  0.2746
 5574SOL     OW18321   3.698   3.811   2.968  0.1829 -0.2115  0.8545
 5574SOL    HW118322   3.685   3.761   3.053 -1.0076 -1.5859 -0.0784
 5574SOL    HW218323   3.618   3.870   2.952 -1.1353 -2.2681 -0.7386
 5575SOL     OW18324   0.686   6.437   5.908  0.5240  0.3530  0.5951
 5575SOL    HW118325   0.609   6.396   5.858  0.8815 -0.6796  0.8509
 5575SOL    HW218326   0.758   6.463   5.844  0.0537  1.1279  0.3741
 5576SOL     OW18327   4.707   4.975   5.160 -0.2874 -0.3713  0.2524
 5576SOL    HW118328   4.763   5.014   5.233 -1.7152  1.1713  0.5743
 5576SOL    HW218329   4.764   4.961   5.079  0.6771  0.7365  0.7044
 5577SOL     OW18330   6.608   6.222   1.661  0.7599 -0.2248 -0.0931
 5577SOL    HW118331   6.611   6.193   1.566 -2.0677 -0.0138 -0.3227
 5577SOL    HW218332   6.570   6.314   1.667  0.3915 -0.4409  1.2693
 5578SOL     OW18333   4.844   0.446   6.299 -0.1833 -0.4799  0.3649
 5578SOL    HW118334   4.782   0.508   6.347  0.7703  0.8491 -0.0538
 5578SOL    HW218335   4.804   0.354   6.297 -1.9251  0.2231  0.4907
 5579SOL     OW18336   0.521   6.052   1.271 -0.6295 -0.0006 -0.3025
 5579SOL    HW118337   0.443   6.011   1.317  0.9445  0.1707  2.7497
 5579SOL    HW218338   0.550   5.993   1.196 -2.4494 -1.0427 -0.2452
 5580SOL     OW18339   1.705   4.350   0.876  0.1449 -0.2280 -0.3296
 5580SOL    HW118340   1.734   4.316   0.966 -0.9615 -0.6598 -0.1222
 5580SOL    HW218341   1.609   4.329   0.862  0.1079  0.5184 -1.3070
 5581SOL     OW18342   5.290   0.884   3.210  0.2820 -0.1580  0.7514
 5581SOL    HW118343   5.265   0.788   3.194  0.0830 -0.5345  3.0127
 5581SOL    HW218344   5.215   0.943   3.181  0.5197 -0.6319 -0.9326
 5582SOL     OW18345   1.636   2.471   0.600  0.0555  0.2659  0.5376
 5582SOL    HW118346   1.649   2.441   0.506 -2.7640 -0.9435  0.4417
 5582SOL    HW218347   1.594   2.562   0.601  0.7284  0.5795  0.6547
 5583SOL     OW18348   2.816   0.765   1.513 -0.1384  0.4357  0.0408
 5583SOL    HW118349   2.909   0.802   1.520 -0.1996  0.5209  0.4206
 5583SOL    HW218350   2.755   0.835   1.476  0.5387 -0.5741 -3.3586
 5584SOL     OW18351   5.723   0.867   1.868  0.2042 -0.3137 -0.3547
 5584SOL    HW118352   5.758   0.836   1.780 -1.0646 -0.6498 -0.7706
 5584SOL    HW218353   5.723   0.790   1.933  0.1643 -0.3346 -0.3793
 5585SOL     OW18354   6.595   1.446   4.298  0.1434  0.2149 -0.6196
 5585SOL    HW118355   6.538   1.377   4.253  0.6802 -1.0208  0.5222
 5585SOL    HW218356   6.689   1.436   4.267  0.4772 -0.4970  0.5308
 5586SOL     OW18357   0.236   3.217   0.130 -0.4733  0.4559 -0.0334
 5586SOL    HW118358   0.231   3.140   0.066  1.9694 -2.2331  2.6614
 5586SOL    HW218359   0.150   3.223   0.180 -0.3632 -1.3809  0.4726
 5587SOL     OW18360   6.342   4.997   6.136 -0.2773 -0.3071  0.5437
 5587SOL    HW118361   6.423   5.055   6.127 -0.6707  0.1929  0.2052
 5587SOL    HW218362   6.370   4.901   6.133  0.3410 -0.1408  0.7655
 5588SOL     OW18363   3.203   0.460   2.660 -0.3115 -0.3808 -0.1954
 5588SOL    HW118364   3.284   0.509   2.628  0.5194 -1.3229  0.4234
 5588SOL    HW218365   3.225   0.409   2.743 -2.0817  0.9957  1.1976
 5589SOL     OW18366   1.295   2.461   6.840  0.2362 -0.0397 -0.1677
 5589SOL    HW118367   1.267   2.539   6.784  1.4899  1.3518  1.0498
 5589SOL    HW218368   1.343   2.394   6.784 -2.5536 -0.9927 -1.6623
 5590SOL     OW18369   1.218   1.869   6.096 -0.5244 -0.5397 -0.4269
 5590SOL    HW118370   1.226   1.931   6.018 -0.0249 -1.4476 -1.1193
 5590SOL    HW218371   1.302   1.873   6.151 -1.0908  0.5056  0.3934
 5591SOL     OW18372   0.845   3.890   2.314 -0.3045 -0.3230  0.6189
 5591SOL    HW118373   0.807   3.827   2.247  0.3162 -1.1568  1.0294
 5591SOL    HW218374   0.779   3.906   2.387 -0.9335  0.4885 -0.1153
 5592SOL     OW18375   4.638   2.853   5.381  0.0293 -0.1272 -0.1193
 5592SOL    HW118376   4.609   2.887   5.471  0.8982  0.5461 -0.0796
 5592SOL    HW218377   4.558   2.834   5.325 -0.5497 -1.0407  0.9702
 5593SOL     OW18378   4.051   2.509   4.475 -0.0524  0.0078 -0.1532
 5593SOL    HW118379   4.147   2.520   4.448 -0.2802  0.3653 -0.8573
 5593SOL    HW218380   4.012   2.598   4.498 -0.1648 -0.1614  0.3276
 5594SOL     OW18381   5.295   1.168   6.747 -0.4407 -0.2340 -0.0165
 5594SOL    HW118382   5.215   1.111   6.760 -0.2903 -0.1847  1.1803
 5594SOL    HW218383   5.268   1.264   6.740 -0.3350  0.0654  2.8508
 5595SOL     OW18384   5.082   5.023   3.293  0.3843  0.3467 -0.3684
 5595SOL    HW118385   5.048   5.095   3.354  2.8891  0.8827  0.5244
 5595SOL    HW218386   5.021   5.014   3.215 -1.7945  1.1126  1.1480
 5596SOL     OW18387   0.003   1.861   3.809 -0.2920  0.3246  0.4320
 5596SOL    HW118388  -0.078   1.912   3.839 -1.7428 -1.4606 -0.2174
 5596SOL    HW218389   0.070   1.924   3.770 -2.0522  1.7256 -0.5034
 5597SOL     OW18390   0.025   4.368   0.118 -0.7640 -0.2850 -0.2973
 5597SOL    HW118391   0.076   4.407   0.041 -2.4445  0.8708 -0.8882
 5597SOL    HW218392   0.013   4.438   0.189  0.7840 -1.3416  1.0943
 5598SOL     OW18393   3.414   5.705   0.855  0.4683 -0.2950 -0.2239
 5598SOL    HW118394   3.371   5.708   0.765 -0.1350  1.2497  0.0846
 5598SOL    HW218395   3.503   5.750   0.851 -0.5797  1.9949  0.4165
 5599SOL     OW18396   4.605   0.942   5.121  0.5058  0.1578  0.9414
 5599SOL    HW118397   4.683   0.962   5.062 -0.5724  0.2368 -0.5153
 5599SOL    HW218398   4.599   1.011   5.193  1.7049  0.2023  1.0252
 5600SOL     OW18399   0.354   6.585   3.010  0.0682  0.1194  0.5986
 5600SOL    HW118400   0.427   6.629   2.958  0.0534  0.9890  1.2979
 5600SOL    HW218401   0.281   6.558   2.947 -0.7107  2.6542  0.2983
 5601SOL     OW18402   0.788   3.909   6.808 -0.0601  0.0288 -0.4030
 5601SOL    HW118403   0.885   3.886   6.795  0.0831  0.3541  0.0644
 5601SOL    HW218404   0.771   4.001   6.772  0.1418  0.5752  0.8380
 5602SOL     OW18405   5.545   4.172   2.435  0.5242 -0.2878 -0.0787
 5602SOL    HW118406   5.639   4.201   2.450  0.6361 -0.2448 -0.7972
 5602SOL    HW218407   5.492   4.249   2.400  0.6424 -0.7291 -1.2842
 5603SOL     OW18408   4.286   1.565   5.778 -0.3756  0.1716  0.1628
 5603SOL    HW118409   4.293   1.474   5.737 -1.3887  0.1483  0.0179
 5603SOL    HW218410   4.205   1.570   5.835  0.4292  0.5599  1.3075
 5604SOL     OW18411   4.211   6.059   3.684  0.1301 -0.7219  0.7892
 5604SOL    HW118412   4.292   6.060   3.743  0.8343 -0.2165 -0.1754
 5604SOL    HW218413   4.192   5.964   3.657 -0.7790 -1.0940  2.5765
 5605SOL     OW18414   1.905   2.507   0.318 -0.1609  0.2712 -0.3096
 5605SOL    HW118415   1.897   2.407   0.319  0.3671  0.2283  0.1046
 5605SOL    HW218416   1.871   2.542   0.231  1.4949 -0.4300 -1.2811
 5606SOL     OW18417   3.761   4.495   2.099 -0.4883  0.8097 -0.7721
 5606SOL    HW118418   3.849   4.486   2.052  0.3866  0.0940  0.8999
 5606SOL    HW218419   3.765   4.573   2.161  0.1309 -0.9759  1.5713
 5607SOL     OW18420   2.956   1.472   2.326 -0.0466  0.2184  0.4305
 5607SOL    HW118421   2.873   1.416   2.330 -0.4012  0.6209 -0.7047
 5607SOL    HW218422   3.036   1.414   2.343 -0.4477 -0.5253 -0.1259
 5608SOL     OW18423   1.374   4.732   1.904  0.3987  0.6668  0.5825
 5608SOL    HW118424   1.395   4.731   2.002  1.1815 -0.8114  0.4284
 5608SOL    HW218425   1.381   4.639   1.867 -0.6692  1.0657 -0.7276
 5609SOL     OW18426   2.102   2.035   6.738  0.1358 -0.3347  0.0499
 5609SOL    HW118427   2.123   1.954   6.794  0.1880  0.3045  0.9725
 5609SOL    HW218428   2.179   2.054   6.678 -0.2897 -1.5805 -0.9375
 5610SOL     OW18429   6.134   0.555   6.868 -0.3312  0.0680  0.3205
 5610SOL    HW118430   6.220   0.505   6.877  0.4866  1.4049  0.1071
 5610SOL    HW218431   6.136   0.637   6.925  1.1198  3.4959 -4.0209
 5611SOL     OW18432   5.518   5.067   0.489 -0.0763  0.4248  0.2430
 5611SOL    HW118433   5.601   5.013   0.481 -0.1937  0.4120 -1.1902
 5611SOL    HW218434   5.515   5.112   0.579  0.9882 -0.3372  0.6736
 5612SOL     OW18435   6.604   2.893   2.272  1.1083 -0.1239  0.2593
 5612SOL    HW118436   6.618   2.904   2.371  1.3129  0.1551  0.1998
 5612SOL    HW218437   6.554   2.973   2.237  1.5999  0.0822  0.0239
 5613SOL     OW18438   3.332   5.720   0.602 -0.2012 -0.1235  0.1694
 5613SOL    HW118439   3.274   5.643   0.629  0.6062 -0.6854  0.3179
 5613SOL    HW218440   3.376   5.699   0.515 -2.9062  1.7206 -1.8233
 5614SOL     OW18441   4.710   5.459   1.650  0.3633 -0.3030  0.1591
 5614SOL    HW118442   4.694   5.530   1.719 -0.0928 -0.0778 -0.1726
 5614SOL    HW218443   4.754   5.380   1.693  0.2785 -0.0808  0.6632
 5615SOL     OW18444   2.933   4.550   5.258  0.2090 -0.0167 -0.0225
 5615SOL    HW118445   2.930   4.646   5.230 -0.4508 -0.5109 -1.7977
 5615SOL    HW218446   2.846   4.523   5.298  0.6196  0.2788  1.0982
 5616SOL     OW18447   0.437   2.165   2.600  1.0998 -0.0420  0.1955
 5616SOL    HW118448   0.483   2.082   2.631  0.1824 -1.7399 -2.5494
 5616SOL    HW218449   0.486   2.203   2.521 -0.7600 -0.5026 -1.2515
 5617SOL     OW18450   4.992   0.904   2.319  0.0249 -0.3786 -0.1414
 5617SOL    HW118451   4.907   0.861   2.349  1.0849 -0.3297  3.3304
 5617SOL    HW218452   5.069   0.861   2.364  1.6116  1.5522 -0.8482
 5618SOL     OW18453   4.817   5.748   5.701  0.1253  0.3360 -0.5122
 5618SOL    HW118454   4.720   5.734   5.683 -0.0323  0.0450  0.5103
 5618SOL    HW218455   4.862   5.660   5.717  0.5644  0.4659 -0.9932
 5619SOL     OW18456   2.041   3.461   0.462 -0.6001 -0.0462  0.3041
 5619SOL    HW118457   2.040   3.364   0.487 -1.4638 -0.0055  0.4804
 5619SOL    HW218458   2.126   3.503   0.494  0.3470 -1.0069 -0.8758
 5620SOL     OW18459   2.973   5.719   3.730 -0.1038 -0.3987 -0.3917
 5620SOL    HW118460   2.956   5.811   3.695 -0.2297  0.5528  2.0168
 5620SOL    HW218461   3.006   5.661   3.655 -0.3551  1.4803 -2.0418
 5621SOL     OW18462   4.507   4.392   0.974 -0.4709 -0.1245 -0.2351
 5621SOL    HW118463   4.577   4.331   1.012 -0.6488  0.5282  1.2171
 5621SOL    HW218464   4.418   4.346   0.976 -0.6764  0.2877  1.2342
 5622SOL     OW18465   5.888   6.297   5.531 -0.0598  0.1072 -0.4125
 5622SOL    HW118466   5.881   6.397   5.529 -3.8143 -0.0046 -2.1535
 5622SOL    HW218467   5.835   6.259   5.455  0.9290 -3.2614  0.4216
 5623SOL     OW18468   5.294   1.705   1.428 -0.1409  0.3782  0.2787
 5623SOL    HW118469   5.265   1.627   1.484 -2.5933  0.3545 -0.8942
 5623SOL    HW218470   5.325   1.672   1.338 -1.5480  0.7353 -0.3597
 5624SOL     OW18471   5.363   5.564   6.756  0.4717 -0.4929  0.1673
 5624SOL    HW118472   5.384   5.478   6.802 -0.8981 -0.0154  1.8008
 5624SOL    HW218473   5.268   5.588   6.773  0.6267  0.9741 -0.8800
 5625SOL     OW18474   5.658   0.741   3.133 -0.6580  0.7791  0.0397
 5625SOL    HW118475   5.638   0.670   3.065  1.0269 -0.2599  0.5798
 5625SOL    HW218476   5.654   0.830   3.089  3.1368  0.0177 -2.2801
 5626SOL     OW18477   5.044   3.106   3.984 -0.2427 -0.1345 -0.1553
 5626SOL    HW118478   5.016   3.078   4.076  2.3368 -2.4968  0.0430
 5626SOL    HW218479   5.137   3.143   3.987  0.0099 -0.5419 -1.8402
 5627SOL     OW18480   3.105   5.800   2.363 -0.4419 -0.6926 -0.1992
 5627SOL    HW118481   3.150   5.743   2.294  1.0197 -0.3495  0.4282
 5627SOL    HW218482   3.072   5.884   2.320 -0.7181 -1.0662 -0.7291
 5628SOL     OW18483   3.596   4.353   6.067 -0.4120 -0.1823 -0.2594
 5628SOL    HW118484   3.503   4.345   6.034 -0.5452  0.2028  0.0190
 5628SOL    HW218485   3.655   4.291   6.015 -0.9464 -0.9664  0.0470
 5629SOL     OW18486   4.552   5.667   4.711 -0.1723  0.2947 -0.9095
 5629SOL    HW118487   4.517   5.760   4.700 -0.5960  0.0990 -1.2542
 5629SOL    HW218488   4.649   5.671   4.735 -0.6684  0.8870  1.2471
 5630SOL     OW18489   3.072   1.517   1.683 -0.0039  0.2573  0.5038
 5630SOL    HW118490   3.075   1.509   1.782  1.4775  1.9934  0.6501
 5630SOL    HW218491   3.129   1.594   1.654  0.2640 -0.7144 -1.7547
 5631SOL     OW18492   1.260   4.583   5.521 -0.2651 -0.3383 -0.5207
 5631SOL    HW118493   1.171   4.555   5.484 -0.4542 -2.1958  1.1321
 5631SOL    HW218494   1.257   4.679   5.546 -2.2678 -0.6356  0.6311
 5632SOL     OW18495   0.760   0.130   5.476  0.1846 -0.4523  0.4948
 5632SOL    HW118496   0.670   0.154   5.439  0.1116 -1.4583 -0.0486
 5632SOL    HW218497   0.830   0.190   5.437 -0.3969  1.2976  2.0352
 5633SOL     OW18498   4.358   5.751   6.715  0.6106 -0.6172  0.0342
 5633SOL    HW118499   4.435   5.688   6.718  1.1747  0.0463 -0.4411
 5633SOL    HW218500   4.368   5.813   6.637 -0.4318 -0.5627 -0.0717
 5634SOL     OW18501   0.729   1.740   1.457  0.3075  0.3465  0.0725
 5634SOL    HW118502   0.727   1.801   1.377  1.4483  0.9201  0.4541
 5634SOL    HW218503   0.670   1.661   1.440  1.1392  0.0535 -1.6597
 5635SOL     OW18504   1.234   5.197   3.139 -0.3544 -0.1844  0.5126
 5635SOL    HW118505   1.298   5.130   3.101 -0.8038 -0.0237 -0.5596
 5635SOL    HW218506   1.252   5.286   3.097 -2.5287 -0.5252 -1.3354
 5636SOL     OW18507   0.262   0.070   3.496 -0.4675 -0.4623 -0.2573
 5636SOL    HW118508   0.238   0.090   3.401 -1.2799  0.3064  0.1031
 5636SOL    HW218509   0.360   0.087   3.509 -0.8772  2.2533 -0.2706
 5637SOL     OW18510   3.471   0.769   2.876  0.1581  0.1157 -0.0629
 5637SOL    HW118511   3.483   0.687   2.932  0.6421  1.6187  2.1801
 5637SOL    HW218512   3.384   0.764   2.828  0.2388 -1.7412 -0.0869
 5638SOL     OW18513   6.596   4.116   0.113  0.0184 -0.1805  0.1752
 5638SOL    HW118514   6.695   4.127   0.118  0.3578 -1.4449 -2.1839
 5638SOL    HW218515   6.571   4.023   0.138 -0.0729 -1.0300 -2.6625
 5639SOL     OW18516   4.486   4.006   3.269  0.0216  0.3169 -0.1911
 5639SOL    HW118517   4.446   4.088   3.310  0.9932  1.0192 -0.6110
 5639SOL    HW218518   4.448   3.924   3.312 -1.5404  0.9621 -0.2934
 5640SOL     OW18519   6.973   5.327   2.073 -0.6302 -0.3308  0.4865
 5640SOL    HW118520   6.909   5.370   2.010  0.9449  1.8719  0.2665
 5640SOL    HW218521   7.047   5.391   2.093  1.7813 -2.8811  0.3217
 5641SOL     OW18522   4.082   5.174   1.929  0.0001  0.1285  0.1053
 5641SOL    HW118523   4.009   5.190   1.862  0.3825 -1.2313 -0.6786
 5641SOL    HW218524   4.042   5.152   2.018 -0.6044 -1.3940 -0.4983
 5642SOL     OW18525   6.217   2.970   3.510 -0.1127  0.3080 -0.2378
 5642SOL    HW118526   6.292   3.000   3.569 -0.6648  1.4591 -0.1016
 5642SOL    HW218527   6.175   3.049   3.467 -0.0506 -0.4698 -1.7988
 5643SOL     OW18528   1.869   2.120   6.841  0.3503  0.3267  0.2174
 5643SOL    HW118529   1.964   2.105   6.814  0.7440  1.2296  1.0564
 5643SOL    HW218530   1.863   2.203   6.897 -0.8834  0.1083  0.4260
 5644SOL     OW18531   5.180   2.887   1.511  0.5443 -0.3285  0.1397
 5644SOL    HW118532   5.160   2.980   1.542  0.5084  0.0107 -0.8590
 5644SOL    HW218533   5.208   2.831   1.589 -0.0500  0.3471  0.8576
 5645SOL     OW18534   0.422   4.844   1.832  0.0833  0.1092  0.1182
 5645SOL    HW118535   0.487   4.837   1.908 -0.4059 -0.3370  0.5022
 5645SOL    HW218536   0.335   4.878   1.865  0.2170  1.0586 -0.4638
 5646SOL     OW18537   1.341   1.135   0.856 -0.3326 -0.2364 -0.0478
 5646SOL    HW118538   1.419   1.110   0.914  0.2785 -1.9434 -1.4883
 5646SOL    HW218539   1.286   1.053   0.839 -0.9114  0.3822 -1.2226
 5647SOL     OW18540   6.045   1.177   2.263  0.0535  0.2336  0.1127
 5647SOL    HW118541   5.955   1.220   2.267 -0.5111 -0.7790 -0.8701
 5647SOL    HW218542   6.082   1.168   2.355 -1.2111 -0.0309  0.6229
 5648SOL     OW18543   0.572   2.673   4.395 -0.2554 -0.5442  0.7142
 5648SOL    HW118544   0.651   2.625   4.357 -0.6182 -1.0966  0.6630
 5648SOL    HW218545   0.604   2.738   4.464  0.2877 -0.4364  0.3767
 5649SOL     OW18546   5.459   2.021   4.698 -0.2007 -0.0663  0.1450
 5649SOL    HW118547   5.462   2.061   4.606  0.1902 -0.5355 -0.0513
 5649SOL    HW218548   5.366   1.993   4.719 -0.4366  0.7445  0.1961
 5650SOL     OW18549   4.874   4.923   0.828 -0.0009  0.1320  0.0854
 5650SOL    HW118550   4.780   4.952   0.814 -0.2804 -0.5106  0.5433
 5650SOL    HW218551   4.909   4.964   0.912  0.1125  0.3378 -0.0627
 5651SOL     OW18552   1.486   6.913   2.412 -0.2869 -0.3042 -0.2536
 5651SOL    HW118553   1.480   6.981   2.485 -1.6609 -1.0046  0.3184
 5651SOL    HW218554   1.400   6.912   2.361 -0.3430 -1.6909 -0.1612
 5652SOL     OW18555   5.255   1.779   3.528  0.2243 -0.5979  0.6311
 5652SOL    HW118556   5.194   1.812   3.600 -2.0928  1.5155 -2.0553
 5652SOL    HW218557   5.295   1.858   3.480  1.3974 -1.9137 -0.6405
 5653SOL     OW18558   4.223   3.170   1.723  0.3438  0.1453  0.5529
 5653SOL    HW118559   4.182   3.225   1.796  0.7876  2.9709 -1.1492
 5653SOL    HW218560   4.320   3.194   1.714  0.7314 -1.4947  0.1908
 5654SOL     OW18561   3.369   4.979   6.855  0.0051  0.1670 -0.1554
 5654SOL    HW118562   3.375   5.040   6.934 -0.5372  0.3464 -0.2489
 5654SOL    HW218563   3.405   5.025   6.774  0.4359  0.0323 -0.0412
 5655SOL     OW18564   5.457   2.542   0.153 -0.1338 -0.8719  0.0338
 5655SOL    HW118565   5.432   2.594   0.071 -0.9494 -0.5694  0.4586
 5655SOL    HW218566   5.390   2.561   0.225  1.9391  0.8715  1.6256
 5656SOL     OW18567   6.699   0.948   6.351 -0.6761 -0.2665 -0.0933
 5656SOL    HW118568   6.692   1.029   6.293  0.4541  1.0377  1.5094
 5656SOL    HW218569   6.792   0.911   6.346 -1.5176 -2.4227 -1.9186
 5657SOL     OW18570   5.771   4.893   4.127 -0.2547 -0.0257  0.4046
 5657SOL    HW118571   5.731   4.931   4.044  0.0999  0.5130  0.4723
 5657SOL    HW218572   5.701   4.888   4.198 -0.5904 -0.6163  0.0349
 5658SOL     OW18573   2.306   0.000   5.059  0.2555 -0.1016  0.2216
 5658SOL    HW118574   2.244  -0.055   5.115 -0.9123  1.3401  0.4326
 5658SOL    HW218575   2.398  -0.038   5.063 -0.6983 -2.7249 -0.6388
 5659SOL     OW18576   6.422   6.169   1.336  0.6851  0.7969 -0.3165
 5659SOL    HW118577   6.367   6.111   1.276 -0.0055  1.7656 -0.6542
 5659SOL    HW218578   6.509   6.124   1.356  1.1870  0.6625 -2.5227
 5660SOL     OW18579   6.832   6.900   6.256  0.7880  0.5908 -0.1470
 5660SOL    HW118580   6.777   6.959   6.315 -0.8506 -0.0040 -1.0053
 5660SOL    HW218581   6.924   6.938   6.247 -0.0742  2.7756 -0.3346
 5661SOL     OW18582   1.168   2.994   4.016 -0.2193 -0.6047  0.3980
 5661SOL    HW118583   1.074   2.994   3.982 -0.7008  0.3225  1.6299
 5661SOL    HW218584   1.169   3.025   4.112  1.3515 -0.5123  0.3855
 5662SOL     OW18585   6.586   4.855   6.382 -0.0470  0.1444 -0.3674
 5662SOL    HW118586   6.579   4.773   6.439  1.2533  0.1537 -0.1625
 5662SOL    HW218587   6.504   4.911   6.395  0.3236  0.2950  1.7588
 5663SOL     OW18588   3.624   0.142   0.172 -0.1648 -0.0791 -0.3776
 5663SOL    HW118589   3.665   0.060   0.213  0.6401 -0.0582 -1.1273
 5663SOL    HW218590   3.528   0.122   0.150  0.2715 -1.1553 -1.4326
 5664SOL     OW18591   4.967   0.931   6.045 -0.1119  0.2356 -0.4529
 5664SOL    HW118592   4.923   0.978   6.122  0.2575  0.2383 -0.2406
 5664SOL    HW218593   4.899   0.911   5.974 -1.1563 -2.4358  1.1280
 5665SOL     OW18594   3.578   3.547   0.679 -0.1376 -0.4914 -0.6687
 5665SOL    HW118595   3.651   3.582   0.621 -0.3761  0.8392 -0.1987
 5665SOL    HW218596   3.619   3.495   0.755  0.2960 -0.2194 -0.7114
 5666SOL     OW18597   6.356   4.898   5.797 -0.1971  0.1088 -0.6822
 5666SOL    HW118598   6.371   4.893   5.895  1.1236  2.2990 -0.7067
 5666SOL    HW218599   6.258   4.892   5.778 -0.4291 -0.8896  0.6910
 5667SOL     OW18600   6.545   5.476   0.555 -0.2209  0.4223  0.0962
 5667SOL    HW118601   6.478   5.423   0.503 -0.3328  1.2056 -0.5961
 5667SOL    HW218602   6.627   5.489   0.499  1.0936 -1.6464  1.4166
 5668SOL     OW18603   1.299   7.004   5.195 -0.4428 -0.5451 -0.5645
 5668SOL    HW118604   1.270   7.076   5.131  1.4229 -0.3803 -1.2709
 5668SOL    HW218605   1.343   6.930   5.144  1.4788 -0.2171  0.5482
 5669SOL     OW18606   4.921   6.721   2.660 -0.0117 -0.1264 -0.1919
 5669SOL    HW118607   4.972   6.636   2.651 -0.8335 -0.6019 -0.4316
 5669SOL    HW218608   4.836   6.715   2.607 -0.6694  0.3813  0.7726
 5670SOL     OW18609   6.651   2.587   4.425  0.1056  0.0756 -0.6516
 5670SOL    HW118610   6.727   2.629   4.474 -0.5175  1.0998 -0.5330
 5670SOL    HW218611   6.577   2.654   4.416 -0.4637 -0.6538 -1.4639
 5671SOL     OW18612   3.325   5.217   5.966 -0.0108 -0.1762  0.2095
 5671SOL    HW118613   3.384   5.283   5.919  0.8278 -0.0400  1.4137
 5671SOL    HW218614   3.350   5.124   5.940 -0.8152 -0.0651 -1.0484
 5672SOL     OW18615   1.446   4.778   3.050 -0.5929  0.3591 -0.3822
 5672SOL    HW118616   1.350   4.753   3.056 -0.6541  0.2670 -1.5840
 5672SOL    HW218617   1.502   4.696   3.038 -0.3659  0.4256  0.1623
 5673SOL     OW18618   3.744   1.122   0.517 -0.3993  0.0747  0.0473
 5673SOL    HW118619   3.781   1.045   0.464 -1.1918 -0.6187  0.4713
 5673SOL    HW218620   3.644   1.116   0.519 -0.4419  0.8321  0.5224
 5674SOL     OW18621   4.544   0.851   1.542  0.2049 -0.2805 -0.3789
 5674SOL    HW118622   4.617   0.896   1.490  1.7623 -1.7807  0.3987
 5674SOL    HW218623   4.556   0.873   1.639 -1.0928  0.3703 -0.3496
 5675SOL     OW18624   5.327   1.346   0.900  0.5227 -0.3941 -0.2431
 5675SOL    HW118625   5.389   1.279   0.861 -3.5518 -3.3367 -2.4856
 5675SOL    HW218626   5.307   1.322   0.995  3.3881  1.2368  0.8771
 5676SOL     OW18627   5.075   5.100   1.599  0.4608  0.0317  0.0721
 5676SOL    HW118628   5.137   5.022   1.597 -1.4671 -1.6225  1.5220
 5676SOL    HW218629   5.009   5.092   1.524 -0.4922 -0.4116  0.9408
 5677SOL     OW18630   0.513   1.536   1.816  0.3599 -0.5250 -0.0845
 5677SOL    HW118631   0.595   1.575   1.859  1.1341 -1.7278 -0.4132
 5677SOL    HW218632   0.474   1.466   1.875  0.2480 -0.7747 -0.4520
 5678SOL     OW18633   5.425   3.279   3.609  0.3795  0.2602  0.6176
 5678SOL    HW118634   5.480   3.280   3.525  1.7122 -1.9122  1.3787
 5678SOL    HW218635   5.478   3.235   3.683 -1.8771 -0.6822  1.7709
 5679SOL     OW18636   6.517   3.732   4.081  0.0255 -0.2903 -0.1827
 5679SOL    HW118637   6.605   3.690   4.105  0.1152  1.0146  2.1350
 5679SOL    HW218638   6.467   3.752   4.165 -0.9770  2.1399 -1.2808
 5680SOL     OW18639   4.701   0.741   4.082  0.2389  0.1076  0.6816
 5680SOL    HW118640   4.704   0.803   4.004  2.0832  0.0231  0.6501
 5680SOL    HW218641   4.659   0.654   4.054  1.3272 -0.1040 -0.3691
 5681SOL     OW18642   0.326   5.941   1.406 -0.3426  0.6118 -0.5318
 5681SOL    HW118643   0.370   5.950   1.496  0.2476 -0.6369 -0.6886
 5681SOL    HW218644   0.230   5.967   1.415 -0.2216  0.8082  0.3909
 5682SOL     OW18645   3.551   2.242   5.731 -0.7097  0.3429 -0.0927
 5682SOL    HW118646   3.584   2.149   5.715  0.6618  0.9374 -0.9509
 5682SOL    HW218647   3.604   2.283   5.805 -0.7830  0.6874 -0.2310
 5683SOL     OW18648   0.303   5.164   1.361  0.4934  0.8050 -0.0553
 5683SOL    HW118649   0.336   5.115   1.442  2.3037 -0.6387 -1.5567
 5683SOL    HW218650   0.208   5.140   1.344  0.3686  0.3964  1.1159
 5684SOL     OW18651   6.703   4.020   3.992  0.2234  0.0540  0.1377
 5684SOL    HW118652   6.749   4.001   3.906  0.1007 -2.3808  0.5573
 5684SOL    HW218653   6.764   3.998   4.068 -0.3547  0.2936  0.6843
 5685SOL     OW18654   1.184   6.057   0.060  0.0739  0.1256 -0.5729
 5685SOL    HW118655   1.211   6.141   0.014  0.1526  1.1214  1.1875
 5685SOL    HW218656   1.186   5.981  -0.005  3.1759  0.8602 -1.5277
 5686SOL     OW18657   0.793   2.532   4.149  0.1551 -0.3286  0.0835
 5686SOL    HW118658   0.877   2.566   4.106 -0.9599  1.9587 -0.4731
 5686SOL    HW218659   0.715   2.549   4.089 -0.8849 -1.2995  1.0900
 5687SOL     OW18660   1.847   3.616   1.554 -0.1251 -0.6044  0.1801
 5687SOL    HW118661   1.905   3.634   1.634  1.2277 -0.3505 -0.8140
 5687SOL    HW218662   1.882   3.537   1.504 -1.3632 -1.1845  0.1899
 5688SOL     OW18663   6.278   5.113   3.133 -0.3374 -0.4930  0.4223
 5688SOL    HW118664   6.198   5.078   3.181 -1.8780  0.5901 -1.2332
 5688SOL    HW218665   6.249   5.158   3.048  1.9700  0.6064  0.1441
 5689SOL     OW18666   2.725   4.118   0.593  0.3364  0.1942  0.3056
 5689SOL    HW118667   2.642   4.081   0.634  0.0923  0.4675  0.0631
 5689SOL    HW218668   2.727   4.096   0.495  0.0306  1.0933  0.0939
 5690SOL     OW18669   5.744   4.181   6.677 -0.4144 -0.1375  0.8728
 5690SOL    HW118670   5.739   4.127   6.592 -1.5844  0.8762  0.2698
 5690SOL    HW218671   5.732   4.120   6.755 -0.2331 -0.9657  0.2728
 5691SOL     OW18672   2.147   4.408   5.716  0.1417  0.1266  0.4801
 5691SOL    HW118673   2.236   4.377   5.681  1.0129  1.3994  1.4759
 5691SOL    HW218674   2.093   4.445   5.641  0.3888 -0.7547 -0.1577
 5692SOL     OW18675   3.082   2.882   3.511  0.0124 -0.0260  0.4676
 5692SOL    HW118676   3.111   2.905   3.418  1.0600 -0.9124  0.5574
 5692SOL    HW218677   3.160   2.847   3.563 -0.7373 -0.2978  1.4440
 5693SOL     OW18678   1.470   0.733   5.840  0.0506 -0.1172 -0.7825
 5693SOL    HW118679   1.517   0.645   5.839 -1.2575 -0.8470 -0.3972
 5693SOL    HW218680   1.396   0.730   5.907  1.2485  1.9688  0.7603
 5694SOL     OW18681   1.534   4.542   5.524  0.5983 -0.3315  0.8529
 5694SOL    HW118682   1.530   4.463   5.585  0.5447 -1.6004 -0.7325
 5694SOL    HW218683   1.442   4.581   5.514  0.4696 -0.5988  0.9828
 5695SOL     OW18684   6.882   1.989   6.878 -0.1989 -0.2210 -0.4715
 5695SOL    HW118685   6.959   2.025   6.930  0.1699  0.7812 -1.6618
 5695SOL    HW218686   6.856   2.054   6.807 -2.4005 -0.3607  0.1260
 5696SOL     OW18687   2.325   5.651   0.745  0.5640 -0.1058  0.3386
 5696SOL    HW118688   2.283   5.573   0.792 -0.2867  0.4039  0.4568
 5696SOL    HW218689   2.424   5.644   0.750  0.5056 -1.3488  0.0592
 5697SOL     OW18690   0.301   1.741   5.267  0.2930  0.1260  0.0763
 5697SOL    HW118691   0.277   1.654   5.309  2.4263 -0.9063 -0.6389
 5697SOL    HW218692   0.321   1.726   5.170  0.9786  1.3369  0.0066
 5698SOL     OW18693   2.543   1.448   2.084  1.1387 -0.7690 -0.0322
 5698SOL    HW118694   2.585   1.401   2.006  0.5701 -2.7093  0.7809
 5698SOL    HW218695   2.579   1.411   2.169 -0.6007 -0.9939  0.6547
 5699SOL     OW18696   5.809   4.177   1.022 -0.2728 -0.2792 -0.2932
 5699SOL    HW118697   5.736   4.175   0.954  0.8183  2.1725 -1.6871
 5699SOL    HW218698   5.886   4.229   0.985  2.1750 -2.6503  1.1584
 5700SOL     OW18699   1.823   1.251   4.323 -0.1085  0.3828 -0.8656
 5700SOL    HW118700   1.813   1.342   4.282 -2.2633  0.0486 -1.1830
 5700SOL    HW218701   1.879   1.259   4.406  1.2888  1.6567 -1.8605
 5701SOL     OW18702   6.756   6.963   2.661  0.0377 -0.3412  0.1854
 5701SOL    HW118703   6.833   7.027   2.649  0.4932 -1.0719 -0.9004
 5701SOL    HW218704   6.674   7.015   2.685  1.1098  0.3513  2.6238
 5702SOL     OW18705   6.676   5.385   2.136  0.5951  0.8513  0.1390
 5702SOL    HW118706   6.658   5.287   2.131 -0.0290  0.9947 -0.5383
 5702SOL    HW218707   6.612   5.434   2.078  1.4107  1.5989 -0.1563
 5703SOL     OW18708   6.137   3.204   5.627  0.5762 -0.0032 -0.2022
 5703SOL    HW118709   6.208   3.135   5.637 -0.6815 -1.2476  0.4768
 5703SOL    HW218710   6.063   3.186   5.692 -1.0255  0.3939 -1.8218
 5704SOL     OW18711   4.760   1.623   6.775 -0.2627 -0.6895  0.3069
 5704SOL    HW118712   4.781   1.698   6.712 -2.1019  0.1633  0.6674
 5704SOL    HW218713   4.825   1.625   6.851 -0.9297  1.2661  0.8866
 5705SOL     OW18714   5.350   4.099   4.517 -0.0397 -0.1775  0.4443
 5705SOL    HW118715   5.378   4.161   4.444  0.2406 -0.0107  0.6954
 5705SOL    HW218716   5.380   4.006   4.494  0.2717 -0.0839  0.4680
 5706SOL     OW18717   0.938   0.622   2.304  0.2343 -0.1881 -0.5448
 5706SOL    HW118718   1.004   0.694   2.281 -0.5415  0.8597  0.4184
 5706SOL    HW218719   0.972   0.568   2.381  0.7877 -0.8346 -1.2275
 5707SOL     OW18720   6.141   4.454   5.164 -0.3180 -0.2283  0.0170
 5707SOL    HW118721   6.096   4.406   5.089  0.3253 -0.5010 -0.1943
 5707SOL    HW218722   6.093   4.432   5.250 -0.1326 -1.1277 -0.0969
 5708SOL     OW18723   0.673   6.821   1.480  0.0646 -0.8866  0.4862
 5708SOL    HW118724   0.705   6.727   1.492 -0.0093 -0.8502  0.9643
 5708SOL    HW218725   0.702   6.877   1.557  0.4140 -0.4274  0.0303
 5709SOL     OW18726   0.355   2.362   1.665  0.8142 -0.3252 -0.4331
 5709SOL    HW118727   0.416   2.381   1.742 -3.5299 -0.6545  3.5545
 5709SOL    HW218728   0.348   2.444   1.607  2.0485  1.0301  1.2176
 5710SOL     OW18729   5.633   3.014   3.099 -0.5839  0.7967 -0.1897
 5710SOL    HW118730   5.700   3.008   3.024 -1.0712  0.7079 -0.6221
 5710SOL    HW218731   5.654   2.945   3.167 -1.0951 -0.2150 -1.0291
 5711SOL     OW18732   2.032   6.277   1.375 -0.4163  0.0389 -0.0085
 5711SOL    HW118733   2.006   6.181   1.368  0.4398 -0.4444  2.4925
 5711SOL    HW218734   2.131   6.286   1.364 -0.6803  0.9228 -2.1109
 5712SOL     OW18735   6.702   1.783   4.546  0.1163 -0.1767  0.9685
 5712SOL    HW118736   6.694   1.685   4.566  1.5578 -0.6355 -0.4702
 5712SOL    HW218737   6.664   1.836   4.621 -2.0943 -1.8439  1.1115
 5713SOL     OW18738   5.899   5.482   5.774 -0.5372  0.1138  0.3541
 5713SOL    HW118739   5.904   5.463   5.872  1.0054  0.7197  0.4240
 5713SOL    HW218740   5.958   5.418   5.724 -0.7148  0.2933 -0.0920
 5714SOL     OW18741   3.861   5.685   3.278  0.1480 -0.1067  0.2656
 5714SOL    HW118742   3.796   5.719   3.345  0.4986 -1.2915  1.2482
 5714SOL    HW218743   3.871   5.586   3.289  1.4066 -0.0841 -0.4874
 5715SOL     OW18744   3.786   4.931   4.617 -0.3592 -0.5467 -0.6036
 5715SOL    HW118745   3.822   4.984   4.540  0.2152  0.4245  0.3181
 5715SOL    HW218746   3.856   4.867   4.649 -0.3566 -0.4662 -0.4490
 5716SOL     OW18747   1.448   6.976   5.880 -0.1149 -0.1649  0.1499
 5716SOL    HW118748   1.449   6.983   5.780 -0.2978  0.2702  0.1792
 5716SOL    HW218749   1.394   7.050   5.919  0.6288  0.1462  0.6192
 5717SOL     OW18750   4.542   5.638   5.647 -0.1674 -0.5843 -0.0297
 5717SOL    HW118751   4.574   5.543   5.649  1.4254 -0.0640  0.4904
 5717SOL    HW218752   4.463   5.648   5.707 -0.3096 -1.5583 -0.0396
 5718SOL     OW18753   5.929   0.448   0.155  0.0937 -0.5307 -0.0234
 5718SOL    HW118754   5.841   0.495   0.147  0.1778 -0.4165 -0.3047
 5718SOL    HW218755   5.944   0.420   0.250 -0.9502 -1.9079 -0.2248
 5719SOL     OW18756   2.601   3.292   4.067 -0.0941  0.2681  0.1255
 5719SOL    HW118757   2.595   3.382   4.110 -0.6106  0.6792 -0.7917
 5719SOL    HW218758   2.510   3.253   4.058  0.1773 -0.6257  1.0646
 5720SOL     OW18759   6.511   1.061   1.461 -0.2926 -0.1699  0.1595
 5720SOL    HW118760   6.413   1.077   1.472 -0.4661 -1.2109  0.2248
 5720SOL    HW218761   6.526   0.966   1.435  0.7080 -0.0266  0.1891
 5721SOL     OW18762   2.087   6.071   5.501  0.6636  0.1984  0.3367
 5721SOL    HW118763   1.999   6.105   5.467 -0.8266 -2.3814  1.3779
 5721SOL    HW218764   2.080   5.974   5.524  3.7529 -0.0598  0.7026
 5722SOL     OW18765   2.222   1.468   0.344 -0.1549  0.2587  0.2523
 5722SOL    HW118766   2.193   1.459   0.248  1.5847 -1.5430 -0.1860
 5722SOL    HW218767   2.266   1.557   0.357  2.3942 -0.6102 -1.5343
 5723SOL     OW18768   6.227   4.885   3.930  0.0564  0.2260 -0.4957
 5723SOL    HW118769   6.143   4.939   3.926 -1.3214 -1.8626 -1.7637
 5723SOL    HW218770   6.218   4.814   3.999  0.5472 -0.3545 -1.0123
 5724SOL     OW18771   3.235   1.067   5.264  0.3634  0.5307  0.4914
 5724SOL    HW118772   3.203   1.146   5.212  0.0005 -0.1297 -0.3013
 5724SOL    HW218773   3.333   1.053   5.248  0.6523  1.3972  1.4082
 5725SOL     OW18774   3.716   4.217   0.048 -0.2566 -0.2446  0.3805
 5725SOL    HW118775   3.686   4.139  -0.007 -3.1112 -0.4922  2.0911
 5725SOL    HW218776   3.740   4.187   0.140 -1.4161  0.8625  1.0719
 5726SOL     OW18777   0.948   0.259   0.924  0.5941  0.3459 -0.5473
 5726SOL    HW118778   0.864   0.205   0.926  2.4283 -2.7837 -0.1371
 5726SOL    HW218779   0.961   0.303   1.013 -1.1054  1.8143 -0.9848
 5727SOL     OW18780   6.092   5.293   2.498 -0.2018 -0.3962  0.2812
 5727SOL    HW118781   6.187   5.289   2.466  0.4901 -0.9514  2.2407
 5727SOL    HW218782   6.031   5.263   2.425  0.9105  1.8989 -1.7135
 5728SOL     OW18783   5.762   4.385   1.946 -0.0743  0.4332 -0.0602
 5728SOL    HW118784   5.757   4.354   1.851 -0.9302  3.1300 -0.9958
 5728SOL    HW218785   5.858   4.388   1.975  0.1320 -1.3946 -0.4401
 5729SOL     OW18786   5.812   5.916   2.389  0.4110 -0.3312 -0.6667
 5729SOL    HW118787   5.766   5.907   2.477  4.2747  0.5264  1.6985
 5729SOL    HW218788   5.857   5.830   2.367 -0.9571 -0.7021 -2.1607
 5730SOL     OW18789   2.303   3.783   6.342  0.0911 -0.2712 -0.0037
 5730SOL    HW118790   2.382   3.811   6.287 -0.1176  0.1639 -0.0828
 5730SOL    HW218791   2.331   3.711   6.405  0.8220  0.6685  0.7700
 5731SOL     OW18792   1.993   2.054   5.820  0.0012 -0.1208  0.0612
 5731SOL    HW118793   2.091   2.041   5.837 -0.5781 -3.3071  1.8190
 5731SOL    HW218794   1.954   2.108   5.895 -0.1882 -2.3281  1.6401
 5732SOL     OW18795   0.878   3.581   3.407 -0.0401  0.5401 -0.2093
 5732SOL    HW118796   0.916   3.536   3.488 -0.0430  2.6457  1.0239
 5732SOL    HW218797   0.953   3.602   3.343  0.3204  1.1089  0.3931
 5733SOL     OW18798   1.289   5.022   2.656  0.6223 -0.1230 -0.2920
 5733SOL    HW118799   1.245   5.086   2.719  1.6176  0.4979 -0.2017
 5733SOL    HW218800   1.359   4.969   2.704 -0.5390 -1.6691 -0.2528
 5734SOL     OW18801   5.766   2.846   0.023 -0.0438  0.2692 -0.4505
 5734SOL    HW118802   5.674   2.885   0.028 -0.2829 -0.3527  0.3224
 5734SOL    HW218803   5.768   2.774  -0.047 -0.6292 -0.8995  0.6984
 5735SOL     OW18804   3.467   5.897   6.664  0.1853 -0.6934  0.2818
 5735SOL    HW118805   3.439   5.952   6.743  0.3052  1.3858 -1.0737
 5735SOL    HW218806   3.550   5.846   6.688  1.2342  1.2280  1.0071
 5736SOL     OW18807   5.990   4.774   3.366 -0.2474  0.6944 -0.1399
 5736SOL    HW118808   5.976   4.834   3.445 -0.7013 -1.0958  1.2177
 5736SOL    HW218809   5.906   4.723   3.348  0.0263  0.6712 -1.4704
 5737SOL     OW18810   4.195   1.066   1.243 -0.3423  0.0040 -0.4582
 5737SOL    HW118811   4.150   0.979   1.225  0.8409 -0.9220  0.8684
 5737SOL    HW218812   4.175   1.130   1.168 -0.8859 -1.5225 -1.6626
 5738SOL     OW18813   5.948   1.563   4.927  0.1259  0.0045  0.1692
 5738SOL    HW118814   5.889   1.631   4.882  1.4600  1.1019 -0.0002
 5738SOL    HW218815   5.985   1.501   4.858  0.9171  0.7118 -0.0686
 5739SOL     OW18816   0.233   4.694   3.964 -0.3411 -0.3562  0.5067
 5739SOL    HW118817   0.251   4.637   4.044 -1.2376  1.8751  2.4213
 5739SOL    HW218818   0.139   4.677   3.932 -0.7385  0.2452  1.3064
 5740SOL     OW18819   3.975   6.715   5.105  0.1219  0.6560 -0.1048
 5740SOL    HW118820   3.955   6.807   5.072 -0.4292  0.5224 -0.1492
 5740SOL    HW218821   4.067   6.688   5.076 -0.0276  0.8696 -0.7926
 5741SOL     OW18822   3.885   6.481   4.422 -0.1259  0.3335 -0.3491
 5741SOL    HW118823   3.908   6.386   4.443 -1.8884 -0.2572 -0.8982
 5741SOL    HW218824   3.796   6.503   4.462 -0.5294  1.2131 -1.6630
 5742SOL     OW18825   1.571   2.966   6.252 -0.3198  0.0991 -0.0695
 5742SOL    HW118826   1.572   2.888   6.189 -0.3156 -0.5329  0.7023
 5742SOL    HW218827   1.508   3.036   6.217 -0.4581 -0.3221 -0.6811
 5743SOL     OW18828   5.716   4.286   4.527  0.1002  0.7805 -0.0129
 5743SOL    HW118829   5.768   4.343   4.590 -1.0780  0.1941  1.5375
 5743SOL    HW218830   5.768   4.275   4.442  1.1738  2.5783  0.3668
 5744SOL     OW18831   3.320   3.365   2.953 -0.3273  0.6296 -0.3037
 5744SOL    HW118832   3.294   3.296   3.021 -1.1191 -0.0110 -1.2253
 5744SOL    HW218833   3.263   3.447   2.965  0.9262  1.3449  1.0885
 5745SOL     OW18834   2.583   5.804   3.818 -0.1428 -0.1131 -0.0957
 5745SOL    HW118835   2.500   5.829   3.769 -0.5579 -0.1644  0.5738
 5745SOL    HW218836   2.641   5.885   3.829 -1.5791  0.6944  2.2613
 5746SOL     OW18837   0.774   4.919   5.824  0.1148 -0.1630  0.0403
 5746SOL    HW118838   0.848   4.891   5.886  0.6882  0.4476 -0.3546
 5746SOL    HW218839   0.696   4.951   5.877  0.7696  0.7792  0.4473
 5747SOL     OW18840   5.038   6.603   0.716 -0.5778  0.0875 -0.1972
 5747SOL    HW118841   4.962   6.652   0.757  0.0460 -0.3249  1.5244
 5747SOL    HW218842   5.010   6.565   0.628 -1.5349  2.1774 -0.8565
 5748SOL     OW18843   3.035   3.397   1.007  0.0093 -0.1626  0.0409
 5748SOL    HW118844   3.064   3.450   1.086 -2.6695  0.9669  0.3873
 5748SOL    HW218845   2.972   3.451   0.951 -1.4826 -2.3497 -0.5468
 5749SOL     OW18846   1.370   6.092   0.747  0.0503 -0.2641  0.2113
 5749SOL    HW118847   1.377   6.181   0.793 -0.8147 -0.6374  1.1359
 5749SOL    HW218848   1.454   6.040   0.761 -0.2146 -0.3993  1.5126
 5750SOL     OW18849   1.211   5.220   6.604  0.5796  0.0743 -0.0474
 5750SOL    HW118850   1.303   5.194   6.633  1.2023  1.3661 -0.7765
 5750SOL    HW218851   1.212   5.314   6.569 -0.7844 -0.2955 -1.1745
 5751SOL     OW18852   3.268   3.242   3.177 -0.3048 -0.2120  0.3058
 5751SOL    HW118853   3.354   3.206   3.214 -1.7287 -1.2720  2.8093
 5751SOL    HW218854   3.258   3.338   3.205  0.3321  0.1036 -0.5238
 5752SOL     OW18855   5.521   5.663   1.123 -0.3149 -0.3161 -0.1278
 5752SOL    HW118856   5.591   5.733   1.136 -0.0558 -0.5391 -0.2844
 5752SOL    HW218857   5.465   5.686   1.043 -1.1145  0.4168  0.6340
 5753SOL     OW18858   1.446   2.722   3.440  0.2714  0.3262 -0.0330
 5753SOL    HW118859   1.425   2.784   3.516  0.0895  1.3428 -0.8924
 5753SOL    HW218860   1.424   2.767   3.353 -0.9754 -1.3580 -0.6559
 5754SOL     OW18861   0.592   1.006   3.988  0.3789 -0.5927  0.3533
 5754SOL    HW118862   0.686   1.035   3.971  1.0586 -1.6262  2.1158
 5754SOL    HW218863   0.542   1.078   4.036 -0.4516  0.8393 -2.4421
 5755SOL     OW18864   0.087   2.691   4.109  0.5784  0.0177 -0.3516
 5755SOL    HW118865   0.106   2.741   4.194 -0.1434  0.8726 -0.6788
 5755SOL    HW218866   0.012   2.627   4.124  1.6990 -1.2191  0.1485
 5756SOL     OW18867   2.414   1.822   2.860 -0.3473  0.4785 -0.2179
 5756SOL    HW118868   2.403   1.799   2.763  0.2700 -1.0757  0.0501
 5756SOL    HW218869   2.453   1.914   2.868 -0.1032  0.5042 -1.4476
 5757SOL     OW18870   1.893   3.299   5.427 -0.0242 -0.1146  0.0931
 5757SOL    HW118871   1.963   3.234   5.455  1.7344  1.2171 -1.0108
 5757SOL    HW218872   1.852   3.342   5.507 -2.6877 -3.8676  1.0131
 5758SOL     OW18873   3.860   0.564   6.462 -0.1261  0.0998 -0.1667
 5758SOL    HW118874   3.861   0.465   6.457 -0.6371  0.1527 -2.9257
 5758SOL    HW218875   3.807   0.601   6.385 -0.3771  2.5061  1.0505
 5759SOL     OW18876   5.995   4.762   6.485 -0.3763  0.2456  0.4720
 5759SOL    HW118877   6.019   4.827   6.412 -0.0101 -0.2531  0.1459
 5759SOL    HW218878   6.047   4.783   6.567 -0.7729  0.7973  0.5875
 5760SOL     OW18879   3.285   4.678   1.202 -0.4333 -0.0264 -0.1699
 5760SOL    HW118880   3.356   4.739   1.165 -0.2517 -0.5313 -0.6723
 5760SOL    HW218881   3.280   4.689   1.301  0.1777  0.1968 -0.1576
 5761SOL     OW18882   6.634   2.307   6.519 -0.4234 -0.7654  0.7266
 5761SOL    HW118883   6.577   2.234   6.556 -4.1718  2.3718  1.7726
 5761SOL    HW218884   6.671   2.362   6.594  1.0850 -0.6351 -0.0680
 5762SOL     OW18885   2.180   0.516   4.174  0.1500 -0.1426 -0.2187
 5762SOL    HW118886   2.158   0.448   4.244 -1.5297 -0.3714 -0.9030
 5762SOL    HW218887   2.182   0.607   4.215  3.6905 -0.6045  0.9714
 5763SOL     OW18888   1.870   6.174   3.228 -0.2085 -0.0876  0.2552
 5763SOL    HW118889   1.958   6.131   3.209 -0.5134 -0.9510  0.7672
 5763SOL    HW218890   1.804   6.149   3.157  0.3006  1.6530 -0.8852
 5764SOL     OW18891   1.083   2.750   6.017  0.0757  0.0404  0.2752
 5764SOL    HW118892   1.111   2.667   5.970  1.5388  1.2612 -1.1194
 5764SOL    HW218893   1.016   2.727   6.088  2.2677 -2.6536  1.6879
 5765SOL     OW18894   1.686   3.987   6.655 -0.2541  0.2643 -0.3486
 5765SOL    HW118895   1.697   4.041   6.738  0.0449 -0.5736  0.1713
 5765SOL    HW218896   1.757   4.012   6.589  1.8652 -1.6208  1.0694
 5766SOL     OW18897   1.224   2.598   0.492 -0.6894  0.4534 -0.1450
 5766SOL    HW118898   1.158   2.629   0.561 -1.8254  1.2793 -1.5465
 5766SOL    HW218899   1.221   2.498   0.485 -0.9739  0.4035  0.5899
 5767SOL     OW18900   1.583   1.619   5.318  0.5911 -0.1244  0.3325
 5767SOL    HW118901   1.569   1.533   5.270  2.1059 -0.8103  1.0630
 5767SOL    HW218902   1.500   1.644   5.368  0.1764 -1.2139  0.2004
 5768SOL     OW18903   3.594   0.824   1.242  0.7906  0.0971  0.4884
 5768SOL    HW118904   3.642   0.898   1.289  0.9978  0.2546  0.0373
 5768SOL    HW218905   3.628   0.817   1.148  0.0326  0.1128  0.2105
 5769SOL     OW18906   4.644   6.868   0.463  0.5558  0.0887 -0.8643
 5769SOL    HW118907   4.567   6.901   0.407 -0.9745 -0.9105  0.5654
 5769SOL    HW218908   4.634   6.771   0.481  0.0168  0.6265  2.4964
 5770SOL     OW18909   0.065   0.075   6.752 -0.3959  0.2227 -0.3236
 5770SOL    HW118910   0.022   0.053   6.664 -0.2196  0.7354 -0.5434
 5770SOL    HW218911  -0.003   0.066   6.825 -0.0522 -2.1257 -0.2400
 5771SOL     OW18912   3.991   1.374   5.643  0.2239 -0.4810 -0.1802
 5771SOL    HW118913   3.906   1.320   5.638 -0.0140 -0.0643 -0.7458
 5771SOL    HW218914   4.068   1.317   5.615  0.0338 -0.6554 -0.3549
 5772SOL     OW18915   0.566   1.821   5.262 -0.0245  0.1108  0.2110
 5772SOL    HW118916   0.476   1.777   5.254  0.8453 -1.5236 -1.2205
 5772SOL    HW218917   0.591   1.828   5.358 -1.3560 -0.0991  0.5976
 5773SOL     OW18918   0.749   6.163   0.264  0.3927 -0.9682 -0.0763
 5773SOL    HW118919   0.795   6.164   0.175 -1.7327  0.7698 -1.2637
 5773SOL    HW218920   0.700   6.076   0.274 -0.5667 -0.6177 -1.3421
 5774SOL     OW18921   3.945   6.295   1.627 -0.1107  0.4900  0.1898
 5774SOL    HW118922   4.045   6.291   1.624 -0.1528 -0.6315 -1.5351
 5774SOL    HW218923   3.909   6.278   1.535 -1.8994  0.9694  0.7645
 5775SOL     OW18924   5.550   3.503   2.866  0.4680 -0.4329  0.3324
 5775SOL    HW118925   5.537   3.440   2.943  1.8376 -0.4780  0.5444
 5775SOL    HW218926   5.465   3.507   2.813 -0.1437 -1.2561  1.1957
 5776SOL     OW18927   2.666   2.066   3.595 -0.1051 -0.4429 -0.3055
 5776SOL    HW118928   2.682   1.978   3.639  0.6507  0.4163  1.2694
 5776SOL    HW218929   2.750   2.121   3.599 -0.9397  0.8647  0.0335
 5777SOL     OW18930   5.659   4.346   2.200  0.1821  0.2535  0.2192
 5777SOL    HW118931   5.682   4.436   2.236  1.9676  0.0273 -0.2737
 5777SOL    HW218932   5.688   4.339   2.105 -0.4085 -0.6725  0.0871
 5778SOL     OW18933   2.309   0.967   6.414 -0.0558 -0.2171  0.3196
 5778SOL    HW118934   2.340   0.964   6.510  0.7947  0.6792  0.0908
 5778SOL    HW218935   2.388   0.986   6.355 -0.8134  0.6826 -0.4295
 5779SOL     OW18936   0.301   5.507   6.206 -0.0083 -0.0005  0.0283
 5779SOL    HW118937   0.228   5.462   6.258  1.3233 -2.2777  0.0570
 5779SOL    HW218938   0.261   5.555   6.128 -1.5534 -1.3674 -0.0788
 5780SOL     OW18939   1.073   3.932   2.589  0.6037 -0.1999 -0.3170
 5780SOL    HW118940   1.091   3.844   2.544  0.9320  1.0054 -2.7115
 5780SOL    HW218941   1.126   4.003   2.544  0.1502  1.2924  1.4180
 5781SOL     OW18942   3.493   2.424   5.118  0.2555  0.0697 -0.2655
 5781SOL    HW118943   3.558   2.349   5.102  0.2283  0.1410 -0.7232
 5781SOL    HW218944   3.443   2.443   5.033 -2.2610 -1.7588  0.6798
 5782SOL     OW18945   3.808   6.893   2.108  0.4756 -0.7523  0.2394
 5782SOL    HW118946   3.823   6.858   2.200  1.6826 -1.2378 -0.1167
 5782SOL    HW218947   3.888   6.872   2.051  0.3770  0.8290 -0.5341
 5783SOL     OW18948   6.938   6.675   5.526 -0.2368  0.0161  0.8059
 5783SOL    HW118949   6.870   6.623   5.578  0.6441 -0.4974  1.4549
 5783SOL    HW218950   7.030   6.650   5.555  0.2204  2.2924  1.5064
 5784SOL     OW18951   0.255   3.348   0.628  0.5783  0.0603  0.3751
 5784SOL    HW118952   0.325   3.389   0.686  0.7206 -1.6373  1.4878
 5784SOL    HW218953   0.257   3.248   0.639 -2.2079 -0.0535  0.7094
 5785SOL     OW18954   6.800   0.255   4.983 -0.6887  0.7901 -0.6497
 5785SOL    HW118955   6.836   0.165   4.957 -1.6087  0.5961 -1.2689
 5785SOL    HW218956   6.708   0.244   5.021 -0.3968  1.3650  0.2445
 5786SOL     OW18957   0.697   4.238   1.593 -0.8506  0.1167  0.2206
 5786SOL    HW118958   0.732   4.223   1.685 -1.5172 -2.1417  0.1603
 5786SOL    HW218959   0.758   4.301   1.544  0.4252  0.0485  1.6461
 5787SOL     OW18960   1.857   6.164   5.389  0.5693 -0.2024  0.0082
 5787SOL    HW118961   1.782   6.111   5.348  1.2999 -1.4770  0.2580
 5787SOL    HW218962   1.907   6.212   5.317  0.3348 -0.4314 -0.3145
 5788SOL     OW18963   3.556   6.441   3.225  0.1303  0.1594 -0.0404
 5788SOL    HW118964   3.610   6.453   3.142  1.3212 -1.0534  0.5297
 5788SOL    HW218965   3.500   6.523   3.240 -0.8361  0.0456 -2.5230
 5789SOL     OW18966   4.321   6.961   4.072  0.1297 -0.0496 -0.1195
 5789SOL    HW118967   4.383   7.030   4.109  1.5550 -0.8252 -0.9526
 5789SOL    HW218968   4.344   6.871   4.111  0.6674 -0.6198 -1.6651
 5790SOL     OW18969   0.095   1.465   2.905 -0.1970 -0.0351 -0.1739
 5790SOL    HW118970   0.103   1.376   2.951 -0.3714  0.6118  1.1405
 5790SOL    HW218971   0.029   1.457   2.830  0.3527 -1.1973 -0.5652
 5791SOL     OW18972   4.222   2.376   2.140  0.2969  0.0029 -0.0457
 5791SOL    HW118973   4.158   2.366   2.216  0.2418  2.4143  0.3197
 5791SOL    HW218974   4.230   2.473   2.117  1.9682 -0.4812 -1.7106
 5792SOL     OW18975   2.053   3.684   6.840  0.2640  0.4086 -0.1693
 5792SOL    HW118976   2.052   3.764   6.900  0.5620  0.7389 -0.6017
 5792SOL    HW218977   1.995   3.613   6.879 -0.5582  1.0912 -0.1321
 5793SOL     OW18978   3.349   0.220   6.876  0.1778  0.1693 -0.8824
 5793SOL    HW118979   3.286   0.165   6.822 -1.3701  2.5269 -1.6372
 5793SOL    HW218980   3.320   0.221   6.972  1.5352 -2.0524 -0.3718
 5794SOL     OW18981   0.906   3.071   3.943 -0.0695 -0.3032  0.2616
 5794SOL    HW118982   0.931   3.077   3.846 -1.2338 -0.6510 -0.0769
 5794SOL    HW218983   0.849   3.149   3.968 -0.0023 -0.3580  0.5974
 5795SOL     OW18984   5.548   6.199   4.619 -0.1482 -0.2196  0.2083
 5795SOL    HW118985   5.625   6.261   4.608  0.5971 -1.0130  0.7436
 5795SOL    HW218986   5.580   6.105   4.607 -1.7538 -0.4732 -3.4670
 5796SOL     OW18987   0.063   5.006   0.777 -0.7330 -0.1038  0.3248
 5796SOL    HW118988  -0.024   4.994   0.730 -0.4447  1.8737 -0.8112
 5796SOL    HW218989   0.134   5.027   0.710  0.3277 -0.2213  1.3840
 5797SOL     OW18990   1.889   1.945   1.102 -0.2319 -0.0485  0.7231
 5797SOL    HW118991   1.804   1.987   1.070 -1.9451 -3.5319  0.2321
 5797SOL    HW218992   1.942   1.911   1.024  0.2144 -0.3609  1.1547
 5798SOL     OW18993   3.398   2.759   0.442  0.3083  0.8183 -0.1730
 5798SOL    HW118994   3.422   2.678   0.495 -1.2427 -1.0947 -2.2180
 5798SOL    HW218995   3.452   2.761   0.358 -0.8265  0.9511 -0.9246
 5799SOL     OW18996   3.757   2.927   6.722  0.6606 -0.2392  0.0442
 5799SOL    HW118997   3.711   2.889   6.643  1.9698  3.3483 -2.7080
 5799SOL    HW218998   3.825   2.861   6.756 -0.2278 -2.0458 -1.5129
 5800SOL     OW18999   4.359   1.492   5.383 -0.2113 -0.4636  0.2183
 5800SOL    HW119000   4.322   1.479   5.476 -0.4065 -1.8559 -0.0189
 5800SOL    HW219001   4.421   1.570   5.382 -1.1941  0.3552  1.2244
 5801SOL     OW19002   3.359   2.175   1.884 -0.2950 -0.3715  0.2885
 5801SOL    HW119003   3.447   2.214   1.858 -0.1073 -0.5559  0.6353
 5801SOL    HW219004   3.306   2.153   1.802 -0.5769  0.9979  0.0772
 5802SOL     OW19005   3.339   2.213   0.045  0.5584 -0.1321 -0.3618
 5802SOL    HW119006   3.336   2.231   0.144  1.4372 -0.7422 -0.2245
 5802SOL    HW219007   3.429   2.236   0.009 -0.1888  1.5157 -1.3167
 5803SOL     OW19008   1.650   6.512   5.383 -0.1016  0.2789 -0.1300
 5803SOL    HW119009   1.629   6.508   5.480  2.2103 -0.2695  0.4165
 5803SOL    HW219010   1.577   6.467   5.331 -0.8868 -0.3053  1.4286
 5804SOL     OW19011   6.303   1.717   3.019 -0.3503  0.5670 -0.6458
 5804SOL    HW119012   6.320   1.752   3.111  0.0864  0.6765 -0.7666
 5804SOL    HW219013   6.305   1.617   3.020 -1.2788  0.5419 -0.3620
 5805SOL     OW19014   4.725   5.335   2.292  0.6464 -0.0941 -0.4973
 5805SOL    HW119015   4.661   5.285   2.234  0.4973 -0.2653 -0.1879
 5805SOL    HW219016   4.676   5.377   2.368  0.9727 -0.6838  0.0540
 5806SOL     OW19017   0.837   5.621   0.178  0.1759 -0.0950  0.5475
 5806SOL    HW119018   0.902   5.629   0.254 -0.1487  0.8363  0.7442
 5806SOL    HW219019   0.772   5.697   0.182 -0.0402 -0.2129 -0.4816
 5807SOL     OW19020   1.186   4.836   6.648 -0.6241  0.5230  0.0685
 5807SOL    HW119021   1.183   4.857   6.550  0.1135  3.2580  0.5353
 5807SOL    HW219022   1.115   4.889   6.695 -0.9712 -0.7573  1.0571
 5808SOL     OW19023   0.382   2.157   7.016  0.7692 -0.2151 -0.2777
 5808SOL    HW119024   0.434   2.125   6.937  0.3799 -0.3766 -0.4688
 5808SOL    HW219025   0.337   2.079   7.060  1.6952 -0.2684  0.6366
 5809SOL     OW19026   3.766   5.133   4.830 -0.4467  0.5898  0.0219
 5809SOL    HW119027   3.751   5.088   4.742  0.7676  2.0949 -1.0096
 5809SOL    HW219028   3.708   5.214   4.836  0.8373  1.5487 -0.2320
 5810SOL     OW19029   0.095   2.862   5.229 -0.2393  0.0386 -0.0932
 5810SOL    HW119030   0.176   2.807   5.247 -0.6950 -0.5085  0.3103
 5810SOL    HW219031   0.103   2.951   5.274 -0.5634 -0.6237  1.3095
 5811SOL     OW19032   6.296   5.457   0.107 -0.1710  0.0539  0.5248
 5811SOL    HW119033   6.198   5.454   0.123 -0.1170 -0.6872  0.7746
 5811SOL    HW219034   6.316   5.517   0.030 -0.8616 -0.1835  0.1525
 5812SOL     OW19035   2.842   5.160   5.249 -0.4102  0.6220  0.4016
 5812SOL    HW119036   2.828   5.124   5.157  0.7924 -0.1448  0.4926
 5812SOL    HW219037   2.822   5.258   5.250 -0.8155  0.5592 -0.5776
 5813SOL     OW19038   0.009   1.237   3.481 -0.2397 -0.1382 -0.8658
 5813SOL    HW119039   0.001   1.241   3.381  2.8444  2.5083 -1.1598
 5813SOL    HW219040   0.075   1.166   3.505  0.8262  0.8088 -0.9276
 5814SOL     OW19041   0.100   4.191   6.514 -0.3308 -0.6430  0.1754
 5814SOL    HW119042   0.051   4.132   6.579  0.3173 -2.2354 -0.7183
 5814SOL    HW219043   0.176   4.235   6.560 -1.9045  1.0123  1.3184
 5815SOL     OW19044   5.734   1.224   4.637  0.4242 -0.4496  0.1182
 5815SOL    HW119045   5.748   1.129   4.665  0.6974 -0.0304  1.4578
 5815SOL    HW219046   5.811   1.253   4.579  1.5136 -0.3868  1.5267
 5816SOL     OW19047   4.885   5.769   4.044 -0.3246  0.1160 -0.3398
 5816SOL    HW119048   4.864   5.863   4.071  1.5976 -0.1774  2.7798
 5816SOL    HW219049   4.974   5.766   3.999 -0.5070 -0.1959 -0.6884
 5817SOL     OW19050   6.133   2.898   0.223 -0.1829  0.0362  0.3157
 5817SOL    HW119051   6.151   2.900   0.321  1.5223 -0.2294  0.0352
 5817SOL    HW219052   6.040   2.929   0.206  0.0123  1.6422  1.8937
 5818SOL     OW19053   3.598   4.504   0.013  0.1853  0.0379 -0.0007
 5818SOL    HW119054   3.673   4.442  -0.010 -0.4721 -0.2430 -1.5169
 5818SOL    HW219055   3.559   4.541  -0.071 -0.9051  0.7548  0.7993
 5819SOL     OW19056   1.984   6.418   4.507  0.1521  0.4184  0.1405
 5819SOL    HW119057   2.020   6.325   4.516  1.7713  0.9339 -0.5770
 5819SOL    HW219058   1.887   6.414   4.482 -0.1761 -1.0425  1.5301
 5820SOL     OW19059   6.206   2.013   4.941  0.2543  0.5259 -0.5994
 5820SOL    HW119060   6.110   1.992   4.920  0.0534  0.5951  0.2194
 5820SOL    HW219061   6.264   1.938   4.911 -0.2728 -0.4481  0.7047
 5821SOL     OW19062   5.145   0.507   1.060  0.0845 -0.0924  0.0291
 5821SOL    HW119063   5.228   0.525   1.006  1.5619  0.7451  2.3920
 5821SOL    HW219064   5.086   0.443   1.011  1.4274  0.4275 -2.4026
 5822SOL     OW19065   6.947   3.431   5.451  0.4215 -0.0287  0.3163
 5822SOL    HW119066   7.008   3.428   5.372  0.9154 -1.4895  0.7281
 5822SOL    HW219067   6.857   3.397   5.425  0.8386 -1.3805  0.5719
 5823SOL     OW19068   2.650   6.987   5.773  0.2955 -0.1531  0.1904
 5823SOL    HW119069   2.711   6.964   5.849 -0.2397 -1.7464  0.1680
 5823SOL    HW219070   2.615   6.903   5.732  0.7877  0.6577 -2.0182
 5824SOL     OW19071   4.266   1.973   4.231 -0.3179  0.2241 -0.3016
 5824SOL    HW119072   4.302   2.058   4.269  1.4418 -1.6754  2.7501
 5824SOL    HW219073   4.295   1.964   4.136 -0.5603  2.9854 -0.6946
 5825SOL     OW19074   2.501   5.575   0.405  0.4730 -0.3712  0.1612
 5825SOL    HW119075   2.468   5.669   0.394 -0.7835 -0.7024  0.9733
 5825SOL    HW219076   2.424   5.512   0.404  1.2108 -1.3056  0.6676
 5826SOL     OW19077   5.208   0.355   4.520  0.5651  0.2510 -0.0297
 5826SOL    HW119078   5.274   0.292   4.479 -0.1679 -1.5956  1.5170
 5826SOL    HW219079   5.121   0.309   4.533  0.2862  1.2684  2.0512
 5827SOL     OW19080   2.594   6.726   5.471 -0.3247 -0.2278 -0.2500
 5827SOL    HW119081   2.505   6.753   5.434 -0.9851 -1.3915  0.4637
 5827SOL    HW219082   2.595   6.628   5.490  1.2867 -0.3429 -0.7061
 5828SOL     OW19083   0.757   2.070   1.365  0.1472 -0.1528 -0.1891
 5828SOL    HW119084   0.672   2.097   1.320  0.2576  0.6114  0.0469
 5828SOL    HW219085   0.789   2.145   1.423 -0.5713 -1.4981  2.0452
 5829SOL     OW19086   4.355   0.198   6.478 -0.3821  0.1910  0.3341
 5829SOL    HW119087   4.280   0.252   6.443 -0.5782  1.5670  2.7006
 5829SOL    HW219088   4.319   0.117   6.525 -0.3501  0.5733  1.0141
 5830SOL     OW19089   5.007   5.119   0.514  0.3382  0.3080 -0.1481
 5830SOL    HW119090   5.056   5.124   0.601 -1.7072 -0.6274  1.1313
 5830SOL    HW219091   4.974   5.026   0.500  0.4196  0.5002 -1.8457
 5831SOL     OW19092   0.396   1.769   5.769  0.1688 -0.6377 -0.0138
 5831SOL    HW119093   0.440   1.713   5.839 -1.3311  0.2982  1.7767
 5831SOL    HW219094   0.422   1.865   5.782  1.8441 -0.6925 -2.3577
 5832SOL     OW19095   0.999   0.455   3.626 -0.5594 -0.1013  0.1438
 5832SOL    HW119096   0.899   0.456   3.634 -0.5354  1.0574  0.4455
 5832SOL    HW219097   1.029   0.534   3.574  0.2220 -0.3177  0.2575
 5833SOL     OW19098   4.770   0.356   3.089  0.3852  0.1951  0.2132
 5833SOL    HW119099   4.720   0.280   3.048 -2.0641  1.5311  0.5309
 5833SOL    HW219100   4.771   0.433   3.026  0.7131  0.7027  0.8293
 5834SOL     OW19101   4.750   2.006   1.394  0.2084 -0.8920  0.1952
 5834SOL    HW119102   4.808   2.045   1.466 -0.2151 -0.8271  0.5045
 5834SOL    HW219103   4.752   2.066   1.314 -0.0754 -0.4607  0.5040
 5835SOL     OW19104   6.719   3.639   5.463 -0.5697 -0.6090 -0.5134
 5835SOL    HW119105   6.664   3.602   5.537  1.4823 -0.5093  1.1370
 5835SOL    HW219106   6.808   3.594   5.461 -0.3406 -0.2045 -2.5868
 5836SOL     OW19107   6.950   6.354   6.134 -0.0572  0.4629  0.1650
 5836SOL    HW119108   6.992   6.443   6.112  0.5162  0.0448 -0.4850
 5836SOL    HW219109   7.001   6.282   6.087  0.4671 -0.3775  1.9601
 5837SOL     OW19110   0.895   5.679   0.681  0.2986  0.4509 -0.4810
 5837SOL    HW119111   0.968   5.624   0.720 -1.7185 -1.1688  1.2886
 5837SOL    HW219112   0.819   5.620   0.655 -1.6021  2.2556  0.6276
 5838SOL     OW19113   0.429   3.880   0.896 -0.0950 -0.4905 -0.2539
 5838SOL    HW119114   0.453   3.913   0.987 -1.1751  1.1631 -0.5149
 5838SOL    HW219115   0.501   3.904   0.831  0.2585 -0.8660 -0.0057
 5839SOL     OW19116   4.651   0.485   3.697 -0.1221 -0.0051 -0.3769
 5839SOL    HW119117   4.555   0.469   3.676 -0.0708 -0.0314 -0.5972
 5839SOL    HW219118   4.684   0.413   3.758 -0.1671 -0.1566 -0.5296
 5840SOL     OW19119   4.537   6.784   5.504 -0.1129 -0.2187  0.4469
 5840SOL    HW119120   4.618   6.746   5.547  0.6018  0.6177 -0.1315
 5840SOL    HW219121   4.476   6.820   5.575 -0.2873 -1.4154  0.9210
 5841SOL     OW19122   1.402   2.758   6.820  0.1194 -0.5047 -0.2422
 5841SOL    HW119123   1.321   2.722   6.773 -0.5939  1.8006 -0.9190
 5841SOL    HW219124   1.469   2.789   6.753  0.6748 -0.4876  0.3051
 5842SOL     OW19125   6.049   5.254   7.024 -0.2907  0.7033  0.3534
 5842SOL    HW119126   6.043   5.323   7.096 -2.2896 -0.3021  1.2185
 5842SOL    HW219127   6.056   5.163   7.065 -0.3893  0.1901 -0.7342
 5843SOL     OW19128   1.010   0.369   1.192 -0.6166 -0.0427 -0.2716
 5843SOL    HW119129   1.072   0.447   1.205 -0.5914 -0.1105  0.0299
 5843SOL    HW219130   0.916   0.402   1.191 -0.7415 -0.1768  1.6784
 5844SOL     OW19131   2.727   1.086   7.013 -0.0123  0.0078  0.2414
 5844SOL    HW119132   2.786   1.011   7.044  0.5761  0.2256 -0.3349
 5844SOL    HW219133   2.693   1.136   7.092  0.6960 -0.0329  0.5762
 5845SOL     OW19134   6.102   1.614   2.288  0.2573  0.1360  0.0813
 5845SOL    HW119135   6.198   1.593   2.306 -0.0844 -0.2380  1.6473
 5845SOL    HW219136   6.093   1.712   2.268  0.5957  1.0150  3.5579
 5846SOL     OW19137   3.906   6.147   4.195 -0.3031  0.2926 -0.2642
 5846SOL    HW119138   4.000   6.170   4.170 -0.0767 -0.5064 -0.1573
 5846SOL    HW219139   3.843   6.199   4.137  0.1963  0.9492 -0.2283
 5847SOL     OW19140   6.453   5.361   5.333  0.2658 -0.0235 -0.1450
 5847SOL    HW119141   6.403   5.437   5.374 -0.2213 -0.6804  0.5017
 5847SOL    HW219142   6.412   5.337   5.245  1.1048  1.1685 -0.8908
 5848SOL     OW19143   1.198   2.063   1.928  0.0297 -0.1592  0.3433
 5848SOL    HW119144   1.261   2.112   1.989  0.2429  0.5909 -0.4587
 5848SOL    HW219145   1.131   2.012   1.983  0.9137 -0.4327  1.2074
 5849SOL     OW19146   4.239   6.939   4.583  0.3003 -0.4449  0.0911
 5849SOL    HW119147   4.155   6.971   4.538  0.3497 -0.9888 -0.4048
 5849SOL    HW219148   4.317   6.992   4.549 -0.1206  2.0110  2.5798
 5850SOL     OW19149   0.272   4.835   0.129 -0.6218 -0.0261  0.1716
 5850SOL    HW119150   0.199   4.856   0.194  0.1071  0.8959  0.7076
 5850SOL    HW219151   0.269   4.899   0.052 -0.7179 -0.3449 -0.0964
 5851SOL     OW19152   2.165   0.454   0.070  0.2683  0.0907 -0.5542
 5851SOL    HW119153   2.198   0.503  -0.010 -1.6277  0.6991 -1.0275
 5851SOL    HW219154   2.105   0.379   0.041  0.7073 -0.5868  0.2574
 5852SOL     OW19155   5.457   6.304   0.276  0.2790 -0.0047  0.1091
 5852SOL    HW119156   5.455   6.222   0.332 -0.7297  0.9719  1.5755
 5852SOL    HW219157   5.463   6.278   0.179  3.4898 -1.7033  0.6274
 5853SOL     OW19158   4.216   6.435   2.863  0.2088 -0.0427  0.2865
 5853SOL    HW119159   4.222   6.356   2.802  3.1452 -0.3499  0.7866
 5853SOL    HW219160   4.199   6.404   2.957  1.1135 -0.0899  0.4435
 5854SOL     OW19161   5.850   3.514   1.193 -0.6496  0.3169  0.2492
 5854SOL    HW119162   5.869   3.455   1.272  1.0100 -0.0495 -0.3970
 5854SOL    HW219163   5.751   3.526   1.185 -0.8532  1.9478  3.5070
 5855SOL     OW19164   6.930   1.098   4.708  0.3995  0.0745 -0.2283
 5855SOL    HW119165   6.879   1.021   4.669 -2.1645  1.6824 -0.2609
 5855SOL    HW219166   6.926   1.094   4.808 -0.6196  0.6774 -0.2329
 5856SOL     OW19167   0.548   6.457   4.041  1.2014 -0.1298 -0.1119
 5856SOL    HW119168   0.569   6.365   4.075  2.9403  0.7079  1.2567
 5856SOL    HW219169   0.462   6.454   3.990  0.9687 -2.4142  0.2650
 5857SOL     OW19170   6.141   2.418   3.942 -0.0938 -0.2750  0.3713
 5857SOL    HW119171   6.214   2.365   3.986 -0.7711 -1.9482 -0.4532
 5857SOL    HW219172   6.056   2.409   3.994 -0.3381 -0.4050 -0.0446
 5858SOL     OW19173   1.216   4.721   5.896 -0.1182  0.3933  0.6621
 5858SOL    HW119174   1.174   4.634   5.870 -1.2987  1.1220  0.0643
 5858SOL    HW219175   1.173   4.756   5.979  0.2060  0.5133  0.7828
 5859SOL     OW19176   3.601   5.605   5.273  0.1975  0.6533 -0.2105
 5859SOL    HW119177   3.553   5.533   5.224  1.7283  0.6537 -1.8253
 5859SOL    HW219178   3.611   5.685   5.214  1.3183  0.9856  0.3910
 5860SOL     OW19179   4.477   1.145   1.788  0.1693  0.2122  0.2311
 5860SOL    HW119180   4.546   1.178   1.853  0.7214  2.1490 -1.2605
 5860SOL    HW219181   4.390   1.192   1.806 -0.2733 -0.8142  0.8764
 5861SOL     OW19182   3.938   3.105   6.223  0.0333 -0.2614 -0.8316
 5861SOL    HW119183   3.946   3.129   6.319 -0.2401  0.4589 -0.9825
 5861SOL    HW219184   3.970   3.011   6.209  0.4738 -0.2226 -0.1153
 5862SOL     OW19185   6.741   5.425   5.616  0.1974  0.2201  0.0395
 5862SOL    HW119186   6.643   5.423   5.636  0.4926 -0.0540  1.5420
 5862SOL    HW219187   6.793   5.431   5.701  1.5249 -0.8912 -0.6445
 5863SOL     OW19188   3.333   6.476   2.872  0.0407 -1.1036  0.3108
 5863SOL    HW119189   3.391   6.396   2.859 -1.4752 -2.2703  0.4284
 5863SOL    HW219190   3.336   6.533   2.789  1.7751 -0.7939  0.5404
 5864SOL     OW19191   4.923   6.001   2.809 -0.5397  0.3497 -1.0634
 5864SOL    HW119192   4.999   5.997   2.874 -0.8095 -0.1248 -0.7650
 5864SOL    HW219193   4.957   5.990   2.716 -0.0935  1.5155 -1.0446
 5865SOL     OW19194   3.677   0.160   2.479 -0.1428  0.2593  0.3611
 5865SOL    HW119195   3.675   0.197   2.572 -4.8098 -0.2717  0.6698
 5865SOL    HW219196   3.725   0.072   2.480  0.7742  0.7181  2.0136
 5866SOL     OW19197   6.298   1.897   5.209 -0.1068 -0.1498 -0.3175
 5866SOL    HW119198   6.357   1.822   5.180  1.2091  0.7160  0.0449
 5866SOL    HW219199   6.264   1.947   5.129 -0.0278 -0.4097 -0.5130
 5867SOL     OW19200   5.663   2.510   1.837  0.5342 -0.4800 -0.1828
 5867SOL    HW119201   5.612   2.523   1.752 -0.5791 -0.6786  0.4364
 5867SOL    HW219202   5.758   2.487   1.815  0.2908 -0.4502 -1.3631
 5868SOL     OW19203   6.172   0.255   0.228  0.4598  0.1523  0.0752
 5868SOL    HW119204   6.089   0.225   0.275  0.9545 -0.6116  0.4858
 5868SOL    HW219205   6.159   0.246   0.129 -0.6963  2.0514  0.0039
 5869SOL     OW19206   3.790   0.226   5.877  0.0922  0.5583 -0.6202
 5869SOL    HW119207   3.857   0.232   5.802 -1.6363  1.8493 -2.1627
 5869SOL    HW219208   3.741   0.140   5.870  0.9886 -0.0106 -0.0101
 5870SOL     OW19209   3.541   2.543   1.773  0.1029  0.7646 -0.1869
 5870SOL    HW119210   3.516   2.556   1.869  0.3141 -0.5882  0.0730
 5870SOL    HW219211   3.459   2.532   1.718  0.0118 -0.1047  0.1083
 5871SOL     OW19212   5.403   5.430   6.197  0.2320  0.0806 -0.0139
 5871SOL    HW119213   5.502   5.435   6.187  0.1188  0.4950 -1.1242
 5871SOL    HW219214   5.379   5.368   6.271  1.3375  0.8649  1.0240
 5872SOL     OW19215   0.859   6.869   3.963 -0.2275 -0.4586  0.4017
 5872SOL    HW119216   0.953   6.889   3.988  0.4250 -0.7026 -1.6707
 5872SOL    HW219217   0.810   6.955   3.948  0.6904 -0.2713 -1.9130
 5873SOL     OW19218   2.486   1.944   0.495 -0.8329  0.1558 -0.0824
 5873SOL    HW119219   2.542   2.026   0.484  0.0187 -0.3801  0.1361
 5873SOL    HW219220   2.413   1.962   0.561  1.0277 -0.0447  2.1776
 5874SOL     OW19221   3.735   0.460   5.518  0.1849 -0.1322  0.2336
 5874SOL    HW119222   3.787   0.404   5.582 -1.3055  0.3309  1.9410
 5874SOL    HW219223   3.658   0.407   5.482  0.3723 -0.0384 -0.3099
 5875SOL     OW19224   6.403   1.856   4.011  0.2462  0.0149  0.3084
 5875SOL    HW119225   6.335   1.905   4.065 -1.0956 -1.4206 -0.0309
 5875SOL    HW219226   6.474   1.920   3.981 -1.3380  1.7114  0.0185
 5876SOL     OW19227   3.267   4.758   2.811 -0.0598 -0.0048  0.0828
 5876SOL    HW119228   3.356   4.712   2.805  0.1200  0.3712 -0.1796
 5876SOL    HW219229   3.197   4.700   2.769  0.3140  0.3325 -1.0419
 5877SOL     OW19230   2.981   4.673   4.595 -0.0636  0.4949 -0.5256
 5877SOL    HW119231   3.043   4.602   4.627 -0.7202  0.6129  1.0863
 5877SOL    HW219232   2.888   4.654   4.626 -0.6264  0.9919 -1.8191
 5878SOL     OW19233   0.246   4.257   4.276  0.4062 -0.5527 -0.2681
 5878SOL    HW119234   0.188   4.188   4.234  1.0987 -1.4859  0.2668
 5878SOL    HW219235   0.338   4.252   4.238  0.4677  0.0850 -0.2273
 5879SOL     OW19236   6.957   6.761   2.839 -0.5422 -0.1615  0.0622
 5879SOL    HW119237   6.977   6.849   2.882  0.9176 -0.1184 -0.6637
 5879SOL    HW219238   6.882   6.717   2.888 -0.7049  1.0791  0.9811
 5880SOL     OW19239   4.078   0.311   2.484  0.4723 -0.3556 -0.1446
 5880SOL    HW119240   4.019   0.345   2.557  1.1761 -2.2956  1.4461
 5880SOL    HW219241   4.023   0.258   2.419 -0.0382  0.7349 -0.6245
 5881SOL     OW19242   4.707   1.721   0.946 -0.9815 -0.1041 -0.0584
 5881SOL    HW119243   4.764   1.646   0.978 -0.7791  0.3890  0.7681
 5881SOL    HW219244   4.611   1.703   0.969 -1.3709 -1.4313 -2.3659
 5882SOL     OW19245   5.819   3.421   4.199 -0.1219  0.2280  0.0446
 5882SOL    HW119246   5.821   3.520   4.217 -0.4780 -0.1052  2.1355
 5882SOL    HW219247   5.765   3.404   4.116 -1.0354  1.7198  0.2857
 5883SOL     OW19248   2.940   6.967   6.308 -0.1955 -0.1584  0.4764
 5883SOL    HW119249   2.962   6.981   6.405 -1.8073 -0.4319  0.9168
 5883SOL    HW219250   2.841   6.975   6.295 -0.2011 -1.7617 -0.8487
 5884SOL     OW19251   5.497   2.299   6.460  0.2476 -0.1580 -0.0646
 5884SOL    HW119252   5.493   2.330   6.365  0.7266  0.1604  0.0172
 5884SOL    HW219253   5.434   2.222   6.473 -0.9886  0.7798 -0.2640
 5885SOL     OW19254   4.599   1.767   3.497  0.5767 -0.7834 -0.1408
 5885SOL    HW119255   4.629   1.718   3.416  2.8048 -0.5117  0.4451
 5885SOL    HW219256   4.597   1.865   3.478  0.8444 -0.7392  0.0540
 5886SOL     OW19257   2.010   6.143   4.704 -0.4515 -0.0996  0.1550
 5886SOL    HW119258   1.983   6.047   4.707 -2.1314  0.3469  0.3124
 5886SOL    HW219259   2.006   6.182   4.796  0.3664  0.0932  0.1144
 5887SOL     OW19260   0.170   1.375   3.853 -0.4031  0.2879  0.6893
 5887SOL    HW119261   0.151   1.413   3.762 -0.5431  1.5964  1.2406
 5887SOL    HW219262   0.200   1.448   3.914 -0.5204 -0.5319  1.7596
 5888SOL     OW19263   3.208   3.753   5.203  0.6674 -0.1956 -0.4354
 5888SOL    HW119264   3.284   3.809   5.237  0.6883 -0.2140 -0.4514
 5888SOL    HW219265   3.232   3.656   5.212 -0.1680 -0.2587  1.4541
 5889SOL     OW19266   4.268   6.101   4.314 -0.2330 -0.1603  0.0708
 5889SOL    HW119267   4.272   6.132   4.409  0.8456  0.3776 -0.1340
 5889SOL    HW219268   4.209   6.162   4.261 -0.2490 -0.0287  0.2392
 5890SOL     OW19269   1.714   2.769   5.928 -0.3091 -0.2969 -0.3693
 5890SOL    HW119270   1.736   2.859   5.891 -0.9044 -0.8165 -2.0843
 5890SOL    HW219271   1.714   2.702   5.854  0.4165 -1.7811  0.9229
 5891SOL     OW19272   4.525   1.970   4.589 -0.2836  0.0200 -0.0609
 5891SOL    HW119273   4.440   1.917   4.587 -0.3691  0.1327  0.5374
 5891SOL    HW219274   4.505   2.067   4.576 -0.0602 -0.1490 -1.9081
 5892SOL     OW19275   1.770   1.267   0.466  0.0508 -0.4511  0.1777
 5892SOL    HW119276   1.704   1.317   0.521  0.9644  0.1428  0.7687
 5892SOL    HW219277   1.777   1.310   0.375 -0.3002 -0.4498  0.1525
 5893SOL     OW19278   6.733   1.508   6.454 -0.2515  0.0396  0.1563
 5893SOL    HW119279   6.735   1.530   6.356 -0.2490  0.7982  0.3214
 5893SOL    HW219280   6.738   1.592   6.507 -1.4535 -0.2901  0.8126
 5894SOL     OW19281   2.304   6.963   4.774 -0.5102 -0.2880 -0.0003
 5894SOL    HW119282   2.401   6.939   4.782  0.5180  2.0937 -2.8713
 5894SOL    HW219283   2.278   7.024   4.848  0.2770 -0.7070  0.6302
 5895SOL     OW19284   5.754   2.892   1.017  0.0236  0.2465  0.0846
 5895SOL    HW119285   5.756   2.866   1.114 -0.7697 -1.0742 -0.2346
 5895SOL    HW219286   5.824   2.840   0.967 -1.6180 -1.4336 -0.5711
 5896SOL     OW19287   1.908   2.251   6.500 -0.0565  0.4398 -0.2138
 5896SOL    HW119288   1.823   2.232   6.452  0.2760  1.4585 -1.2535
 5896SOL    HW219289   1.951   2.333   6.461  1.0834  0.3079  0.7031
 5897SOL     OW19290   1.431   6.373   2.697 -0.0923 -0.1336 -0.3382
 5897SOL    HW119291   1.455   6.407   2.606  0.9338 -1.2268 -0.4978
 5897SOL    HW219292   1.332   6.376   2.708 -0.2718 -0.4638 -1.6818
 5898SOL     OW19293   4.204   6.672   1.509 -0.3525  0.7436 -0.4340
 5898SOL    HW119294   4.138   6.672   1.434 -0.5757 -1.0422 -0.2870
 5898SOL    HW219295   4.296   6.659   1.472 -0.5881 -1.5180 -0.3905
 5899SOL     OW19296   2.734   3.874   2.964 -0.7306  0.3733  0.1336
 5899SOL    HW119297   2.670   3.842   3.034  0.0059 -0.8996  0.2484
 5899SOL    HW219298   2.699   3.958   2.923 -2.2868 -0.0842  0.4574
 5900SOL     OW19299   3.999   4.503   5.964  0.0666 -0.6050  0.2114
 5900SOL    HW119300   4.027   4.417   5.922 -0.7889 -0.8733  0.1546
 5900SOL    HW219301   4.043   4.579   5.917 -0.3809 -0.9359 -0.7780
 5901SOL     OW19302   2.804   4.660   0.444  0.3264  0.1811 -0.1478
 5901SOL    HW119303   2.844   4.696   0.528  2.4436 -0.8764 -0.6433
 5901SOL    HW219304   2.822   4.562   0.438 -0.8659  0.0059 -1.2671
 5902SOL     OW19305   3.489   5.385   5.141 -0.7237  0.0720  0.1329
 5902SOL    HW119306   3.507   5.439   5.059 -0.6400 -0.0506  0.0706
 5902SOL    HW219307   3.495   5.288   5.120  0.3581  0.0380  0.5080
 5903SOL     OW19308   0.962   1.319   3.431 -0.1159 -0.0487  0.5497
 5903SOL    HW119309   1.005   1.406   3.405  0.3991 -0.7877 -1.2041
 5903SOL    HW219310   0.868   1.336   3.461  0.1569  1.1620  0.7918
 5904SOL     OW19311   4.552   1.821   1.474  0.2111 -0.0401 -0.0422
 5904SOL    HW119312   4.592   1.750   1.415  0.5826 -0.2288  0.4348
 5904SOL    HW219313   4.615   1.898   1.480  0.5017 -0.3234  0.6816
 5905SOL     OW19314   5.890   4.439   4.682 -0.3402  0.4922  0.1263
 5905SOL    HW119315   5.968   4.501   4.673 -0.2938  0.4421  0.1833
 5905SOL    HW219316   5.901   4.384   4.764  0.6651 -1.0637 -1.0128
 5906SOL     OW19317   6.293   4.563   2.020  0.6353  0.0727 -0.1542
 5906SOL    HW119318   6.370   4.543   2.081  1.2658 -1.6304 -1.4353
 5906SOL    HW219319   6.216   4.504   2.042  0.5679  0.0517 -0.4371
 5907SOL     OW19320   2.905   1.647   4.131 -0.1695  0.1101  0.1971
 5907SOL    HW119321   2.820   1.691   4.102  1.0178  0.9419 -2.2833
 5907SOL    HW219322   2.979   1.673   4.069  1.0935 -3.6244 -0.1000
 5908SOL     OW19323   2.323   7.007   3.178  0.2177 -0.3723  0.2282
 5908SOL    HW119324   2.227   7.031   3.163 -0.6849 -1.2604  3.5867
 5908SOL    HW219325   2.357   6.954   3.101 -2.2616 -0.7468 -0.7097
 5909SOL     OW19326   5.372   5.481   4.607 -0.6113  0.6607  0.5771
 5909SOL    HW119327   5.326   5.443   4.687 -0.2395  1.7357  1.3248
 5909SOL    HW219328   5.392   5.408   4.542  0.3731 -0.4687  2.1013
 5910SOL     OW19329   4.986   0.316   3.244  0.3528 -0.1751 -0.7870
 5910SOL    HW119330   4.918   0.363   3.187 -0.1124 -0.4851 -0.4868
 5910SOL    HW219331   4.962   0.219   3.252 -0.3749  0.1372  1.1070
 5911SOL     OW19332   2.237   5.306   3.697  0.2680  0.3639  0.2804
 5911SOL    HW119333   2.259   5.210   3.679  0.5177  0.4074  0.3446
 5911SOL    HW219334   2.198   5.347   3.615  0.3169  0.2514  0.1999
 5912SOL     OW19335   5.461   0.994   3.428  0.2566 -0.0352  0.1191
 5912SOL    HW119336   5.420   0.916   3.381  1.1340 -0.7612  0.5370
 5912SOL    HW219337   5.395   1.032   3.493 -0.0219 -0.6933  0.2261
 5913SOL     OW19338   4.975   0.557   6.561  0.3564 -0.1326 -0.3803
 5913SOL    HW119339   4.893   0.536   6.614  0.1690  0.8335 -0.2548
 5913SOL    HW219340   4.948   0.586   6.469  0.6221 -0.7836 -0.6691
 5914SOL     OW19341   6.187   0.259   0.669 -0.2561 -0.6096 -0.1714
 5914SOL    HW119342   6.269   0.232   0.719 -0.4236 -0.3583  0.2394
 5914SOL    HW219343   6.118   0.294   0.733  0.2929  1.6891 -0.7470
 5915SOL     OW19344   1.216   3.856   1.745  0.1339  0.1317  0.8647
 5915SOL    HW119345   1.273   3.789   1.696  0.8232  1.7744 -0.6824
 5915SOL    HW219346   1.274   3.909   1.807  0.5226  2.2366 -1.1760
 5916SOL     OW19347   0.961   5.655   4.524 -0.0978 -0.3859  0.0797
 5916SOL    HW119348   0.981   5.681   4.429 -1.9078  0.0464 -0.2215
 5916SOL    HW219349   1.017   5.710   4.585  1.6990 -1.2337 -0.7179
 5917SOL     OW19350   1.524   6.537   2.911 -0.0147  0.2031  0.0312
 5917SOL    HW119351   1.518   6.478   2.830  0.8376 -0.9911  0.8018
 5917SOL    HW219352   1.558   6.483   2.988  1.2277  1.8265  0.6631
 5918SOL     OW19353   4.926   4.457   4.825 -0.1867  0.2949  0.3997
 5918SOL    HW119354   4.840   4.409   4.839 -0.9925  1.8323  1.0069
 5918SOL    HW219355   4.980   4.456   4.910  0.4783 -0.7747 -0.0152
 5919SOL     OW19356   1.453   2.570   4.954  0.1346 -0.0106  0.2099
 5919SOL    HW119357   1.505   2.517   5.020 -1.3454 -1.7573  0.0440
 5919SOL    HW219358   1.416   2.652   4.998  0.9270 -0.0373  0.9564
 5920SOL     OW19359   2.761   4.376   5.099  0.1218  0.0768 -0.2617
 5920SOL    HW119360   2.722   4.420   5.018 -0.8473  2.6956  1.4985
 5920SOL    HW219361   2.845   4.425   5.126 -0.0997 -0.1403  0.8579
 5921SOL     OW19362   2.337   5.618   2.922  0.7330 -0.3522 -0.8458
 5921SOL    HW119363   2.250   5.597   2.877  0.6842 -2.5631  0.1114
 5921SOL    HW219364   2.354   5.716   2.919 -2.1604  0.2600 -0.4388
 5922SOL     OW19365   6.880   5.034   4.113 -0.1528 -0.2850 -0.4882
 5922SOL    HW119366   6.909   4.966   4.181 -1.8641 -0.6927 -0.1409
 5922SOL    HW219367   6.924   5.015   4.026  0.8882 -0.6633  0.0960
 5923SOL     OW19368   5.402   4.305   6.897  0.2482  0.0819  0.2722
 5923SOL    HW119369   5.313   4.342   6.923  0.7511  0.4671  1.5162
 5923SOL    HW219370   5.418   4.218   6.944 -0.0255 -0.6751 -0.9931
 5924SOL     OW19371   0.491   0.707   1.090 -0.1464  0.4837  0.0014
 5924SOL    HW119372   0.528   0.627   1.042 -1.5220  0.0253 -0.3371
 5924SOL    HW219373   0.470   0.778   1.023  3.5629  2.2711  0.5034
 5925SOL     OW19374   3.079   2.884   6.738  0.3227 -0.1244  0.1371
 5925SOL    HW119375   3.022   2.966   6.735  0.9881  0.3568  0.4944
 5925SOL    HW219376   3.048   2.823   6.811 -0.2604 -0.2580 -0.2215
 5926SOL     OW19377   3.133   6.164   6.105 -0.4719  0.5996 -0.0641
 5926SOL    HW119378   3.113   6.076   6.062  0.5400  0.3107  0.0503
 5926SOL    HW219379   3.113   6.159   6.203  2.8342 -0.6554  0.6829
 5927SOL     OW19380   4.227   6.675   3.174  0.0113 -0.2662  0.0334
 5927SOL    HW119381   4.302   6.669   3.239 -0.2738 -0.6738  0.3235
 5927SOL    HW219382   4.262   6.705   3.085  0.5102 -0.4301  0.1758
 5928SOL     OW19383   4.338   0.007   4.851  0.8873  0.1611 -0.1242
 5928SOL    HW119384   4.294  -0.044   4.777 -0.4853  0.6914  0.3017
 5928SOL    HW219385   4.279   0.082   4.880  2.2128  1.0868  0.2858
 5929SOL     OW19386   2.935   3.765   3.632  0.4177  0.1527 -0.4148
 5929SOL    HW119387   2.961   3.861   3.641 -0.3495  0.1670  2.2341
 5929SOL    HW219388   3.015   3.707   3.647  0.1133  0.3238  2.1423
 5930SOL     OW19389   5.375   4.231   0.839 -0.5152  0.3550  0.5483
 5930SOL    HW119390   5.313   4.309   0.834 -1.0488 -0.1011 -0.1757
 5930SOL    HW219391   5.353   4.166   0.766  0.5908  0.0198  0.4908
 5931SOL     OW19392   6.381   1.793   4.506 -0.7316 -0.2144  0.4593
 5931SOL    HW119393   6.375   1.891   4.489 -0.4821 -0.4716 -1.3160
 5931SOL    HW219394   6.385   1.744   4.419 -0.5504 -1.7898  1.3088
 5932SOL     OW19395   4.742   6.984   1.229  0.3871 -0.6130  0.1760
 5932SOL    HW119396   4.729   7.010   1.133  2.4223  1.4576  0.3773
 5932SOL    HW219397   4.813   6.914   1.235 -0.1591 -1.1827  0.1672
 5933SOL     OW19398   6.574   1.603   1.911  0.0296 -0.2986  0.0496
 5933SOL    HW119399   6.476   1.622   1.908  0.0907 -0.0494 -0.5064
 5933SOL    HW219400   6.589   1.504   1.900 -0.1076 -0.1996 -1.1582
 5934SOL     OW19401   2.268   3.254   1.700 -0.2440 -0.3235 -0.4031
 5934SOL    HW119402   2.261   3.262   1.600 -0.1373  1.8710 -0.2906
 5934SOL    HW219403   2.185   3.290   1.742  0.7893  1.3722  0.3157
 5935SOL     OW19404   1.699   2.744   2.885  0.0768  0.4323  0.0159
 5935SOL    HW119405   1.620   2.745   2.947 -1.0276  0.1205 -1.3237
 5935SOL    HW219406   1.706   2.654   2.841 -0.3312  1.1779 -1.6799
 5936SOL     OW19407   0.654   6.602   4.805  0.0836 -0.1187  1.3666
 5936SOL    HW119408   0.613   6.656   4.731 -0.6070 -0.0919  1.7635
 5936SOL    HW219409   0.743   6.566   4.774 -0.2983 -0.3099  0.4375
 5937SOL     OW19410   2.142   2.059   3.164 -0.1329  0.8446 -0.1067
 5937SOL    HW119411   2.228   2.109   3.148  1.2619 -0.8770  1.5464
 5937SOL    HW219412   2.152   1.965   3.130 -0.0746 -0.3780  2.9412
 5938SOL     OW19413   1.514   2.494   3.883  0.1135 -0.3522 -0.5676
 5938SOL    HW119414   1.528   2.469   3.787 -0.8284 -0.7203 -0.6187
 5938SOL    HW219415   1.595   2.543   3.917  1.5888 -2.4743 -0.8047
 5939SOL     OW19416   0.833   0.333   6.605 -0.2403 -0.5722 -0.2918
 5939SOL    HW119417   0.912   0.381   6.642 -0.8280  0.2223 -0.0298
 5939SOL    HW219418   0.813   0.252   6.660  0.3915 -0.7824 -0.3701
 5940SOL     OW19419   5.128   0.409   4.808  0.0236 -0.2296  0.5794
 5940SOL    HW119420   5.073   0.466   4.747 -0.7849 -2.2159 -0.6394
 5940SOL    HW219421   5.217   0.452   4.823 -1.0459  2.0177  0.8951
 5941SOL     OW19422   2.896   0.336   4.621  0.4876 -0.2509  0.0372
 5941SOL    HW119423   2.805   0.363   4.654  0.7804 -1.1361  1.6755
 5941SOL    HW219424   2.886   0.281   4.539 -0.3412  1.1613 -0.8513
 5942SOL     OW19425   0.949   0.967   5.877 -0.2385  0.0954  1.2447
 5942SOL    HW119426   0.999   1.008   5.801  0.0565 -2.2355  0.0788
 5942SOL    HW219427   1.010   0.959   5.956  0.1390  0.5044  1.0017
 5943SOL     OW19428   2.331   2.662   4.928 -0.5549  0.2904  0.0616
 5943SOL    HW119429   2.286   2.751   4.931 -0.5376  0.2911  2.5276
 5943SOL    HW219430   2.322   2.623   4.837 -1.8005  2.1778 -0.6814
 5944SOL     OW19431   4.569   3.972   0.386 -0.1485  0.1377  0.0611
 5944SOL    HW119432   4.496   4.040   0.378  1.6823  1.9811 -3.0597
 5944SOL    HW219433   4.529   3.880   0.388 -2.5872  1.1387  1.5010
 5945SOL     OW19434   3.974   0.313   1.656 -0.2688  0.5885  0.1725
 5945SOL    HW119435   3.911   0.260   1.599 -1.6729  0.9469  1.3311
 5945SOL    HW219436   3.978   0.407   1.621 -0.0940  0.4797 -0.1082
 5946SOL     OW19437   6.608   5.429   2.823  0.0600 -0.5376 -0.0574
 5946SOL    HW119438   6.624   5.438   2.922 -0.1470 -1.2385  0.0469
 5946SOL    HW219439   6.603   5.332   2.799 -0.1338 -0.3676 -0.7182
 5947SOL     OW19440   0.397   1.471   2.917  0.0833 -0.5868 -0.5674
 5947SOL    HW119441   0.332   1.455   2.843  0.8585  0.3864 -1.4883
 5947SOL    HW219442   0.446   1.386   2.937 -0.2924 -0.9125 -0.9955
 5948SOL     OW19443   2.255   6.470   5.872  0.2195 -0.8130 -0.1269
 5948SOL    HW119444   2.343   6.501   5.909 -0.2671 -0.5959  0.8737
 5948SOL    HW219445   2.242   6.509   5.781  0.1404  1.0564  0.6423
 5949SOL     OW19446   3.819   1.656   6.303 -0.3016  0.0646  0.1141
 5949SOL    HW119447   3.860   1.592   6.368  2.9656  0.0220 -1.7283
 5949SOL    HW219448   3.803   1.608   6.216 -1.8879  0.7636 -0.0027
 5950SOL     OW19449   5.792   3.634   0.627 -0.1651 -0.0811  0.6492
 5950SOL    HW119450   5.809   3.542   0.591  0.5920  0.0139  0.7435
 5950SOL    HW219451   5.776   3.628   0.726 -0.9862 -0.1982  0.5224
 5951SOL     OW19452   6.215   3.522   6.160 -0.3563 -0.4922  0.2484
 5951SOL    HW119453   6.309   3.495   6.183  0.0845 -0.2190 -1.1321
 5951SOL    HW219454   6.169   3.446   6.115 -0.0628  0.0463 -1.0236
 5952SOL     OW19455   3.277   4.462   4.913 -0.2092  0.2464 -0.1427
 5952SOL    HW119456   3.224   4.547   4.914 -0.6769 -0.0374  0.3991
 5952SOL    HW219457   3.289   4.430   5.007  1.9388  0.9112 -0.1410
 5953SOL     OW19458   5.845   2.080   3.692  0.1168  0.0062  1.1729
 5953SOL    HW119459   5.929   2.134   3.692 -0.8245  1.6929 -1.3612
 5953SOL    HW219460   5.855   2.005   3.627 -0.6052  0.8224  0.0732
 5954SOL     OW19461   5.392   4.044   1.791  0.2304 -0.2871 -0.2257
 5954SOL    HW119462   5.324   4.007   1.854  0.6432  0.3058  0.5924
 5954SOL    HW219463   5.480   4.052   1.837  0.2607  1.2865 -0.4695
 5955SOL     OW19464   2.118   5.355   3.445 -0.3681  0.1786 -0.4940
 5955SOL    HW119465   2.111   5.275   3.385  1.4976 -0.1232 -0.3682
 5955SOL    HW219466   2.030   5.370   3.491 -0.9723 -1.3498 -1.0896
 5956SOL     OW19467   2.413   1.761   3.541 -0.0370  0.0049 -0.8464
 5956SOL    HW119468   2.513   1.754   3.542  0.0975  1.3839 -1.7919
 5956SOL    HW219469   2.385   1.837   3.482 -1.6420 -0.0931 -0.2757
 5957SOL     OW19470   2.075   3.654   1.792 -0.0287  0.1880 -0.5881
 5957SOL    HW119471   2.050   3.751   1.790 -0.5220  0.0660 -0.4692
 5957SOL    HW219472   2.167   3.643   1.756  0.1698  0.7422 -0.2626
 5958SOL     OW19473   6.692   4.070   1.467 -0.2942  0.5106 -0.1781
 5958SOL    HW119474   6.763   4.126   1.424  0.3615  1.2197  1.7109
 5958SOL    HW219475   6.606   4.122   1.468 -0.0543  0.9112  0.2584
 5959SOL     OW19476   5.721   3.504   1.593 -0.1652  0.3572  0.5079
 5959SOL    HW119477   5.697   3.540   1.503  0.1125  0.3266  0.4231
 5959SOL    HW219478   5.715   3.578   1.660  0.9673  0.7143  0.2405
 5960SOL     OW19479   4.068   1.369   0.144  0.1362  0.3056  0.4733
 5960SOL    HW119480   4.072   1.469   0.134 -1.7387  0.3456 -0.3343
 5960SOL    HW219481   4.062   1.346   0.242  1.7411  0.8906  0.7393
 5961SOL     OW19482   3.847   0.083   1.521  0.1711 -0.2870  0.1060
 5961SOL    HW119483   3.806   0.009   1.574 -0.3423  0.0009  0.1226
 5961SOL    HW219484   3.776   0.128   1.467  0.6838 -0.5493 -0.8044
 5962SOL     OW19485   5.975   4.644   1.960  0.0709 -0.2620 -0.3132
 5962SOL    HW119486   6.008   4.565   1.910 -1.4842 -0.2621 -1.3931
 5962SOL    HW219487   5.904   4.690   1.907  0.7801  1.7374  0.3875
 5963SOL     OW19488   0.524   6.715   4.212 -0.4933  0.2309 -0.2979
 5963SOL    HW119489   0.561   6.679   4.297  0.0907  0.5580 -0.4121
 5963SOL    HW219490   0.477   6.642   4.162 -0.9373  0.0681  0.3542
 5964SOL     OW19491   5.370   6.391   5.064  0.1278  0.5647 -0.3804
 5964SOL    HW119492   5.377   6.322   4.991  1.9802  1.6060 -1.2724
 5964SOL    HW219493   5.394   6.349   5.151  1.1562  0.0207 -0.9034
 5965SOL     OW19494   7.015   6.944   5.539  0.2287 -0.3282  0.3126
 5965SOL    HW119495   6.972   6.855   5.527  0.1819 -0.6516  2.4748
 5965SOL    HW219496   6.949   7.009   5.575 -0.2860  1.2286 -3.0728
 5966SOL     OW19497   0.376   0.914   4.626 -0.4228 -0.7210  0.0610
 5966SOL    HW119498   0.304   0.968   4.669 -1.1191 -1.9614  0.4967
 5966SOL    HW219499   0.424   0.861   4.695  0.9402  0.0786 -0.2246
 5967SOL     OW19500   5.510   5.190   1.139  0.0063  0.0833 -0.1265
 5967SOL    HW119501   5.460   5.275   1.149  1.3357  0.8403  0.3263
 5967SOL    HW219502   5.517   5.166   1.042 -1.2624 -0.0884 -0.1927
 5968SOL     OW19503   6.019   1.106   4.917 -0.2238 -0.5894  0.4792
 5968SOL    HW119504   6.016   1.010   4.888 -0.7709 -0.2508 -0.6508
 5968SOL    HW219505   6.113   1.138   4.918 -0.1375 -0.7820 -0.4181
 5969SOL     OW19506   6.709   5.195   4.002  0.7797 -0.4215  0.0456
 5969SOL    HW119507   6.692   5.293   4.016 -1.6116 -0.9744  1.5187
 5969SOL    HW219508   6.786   5.166   4.060  2.2838  0.7311 -1.2604
 5970SOL     OW19509   6.180   2.809   3.268 -0.2131 -0.0405  0.2995
 5970SOL    HW119510   6.142   2.719   3.291 -1.0768 -0.5298 -2.5804
 5970SOL    HW219511   6.152   2.876   3.337 -1.6014 -1.5084  1.2371
 5971SOL     OW19512   0.224   3.836   1.866 -0.4361  0.4631  0.7439
 5971SOL    HW119513   0.282   3.803   1.941 -1.9520 -0.8274  1.4005
 5971SOL    HW219514   0.150   3.892   1.904 -0.5763  0.7347  0.0790
 5972SOL     OW19515   0.896   3.839   5.717 -0.2092 -0.1496  0.1496
 5972SOL    HW119516   0.809   3.825   5.764 -0.4271 -0.6162 -0.3870
 5972SOL    HW219517   0.937   3.925   5.748 -1.0780  0.3060  0.0679
 5973SOL     OW19518   5.768   2.732   2.185 -0.4975 -0.0352 -0.4033
 5973SOL    HW119519   5.713   2.688   2.256  1.2747 -0.8225  0.5447
 5973SOL    HW219520   5.712   2.747   2.104 -1.1334 -4.7288 -1.1149
 5974SOL     OW19521   3.021   4.793   1.602 -0.0621 -0.6832  0.0124
 5974SOL    HW119522   3.025   4.720   1.534  0.1094 -1.2257  0.5913
 5974SOL    HW219523   2.935   4.843   1.593  0.2005 -0.3915 -0.9573
 5975SOL     OW19524   1.559   5.554   5.336 -0.0859 -0.6124  0.5276
 5975SOL    HW119525   1.575   5.508   5.249 -0.2590 -0.6729  0.5262
 5975SOL    HW219526   1.598   5.499   5.411  0.4085 -0.3641  0.4524
 5976SOL     OW19527   0.114   3.277   6.764  0.6503  0.0025  0.1156
 5976SOL    HW119528   0.076   3.187   6.785  0.3425  0.2942  0.8268
 5976SOL    HW219529   0.214   3.271   6.764  0.6327 -0.3327  0.1989
 5977SOL     OW19530   2.159   4.546   0.687  0.0498 -0.1296  0.4890
 5977SOL    HW119531   2.155   4.604   0.768  1.6348  0.9222 -0.1275
 5977SOL    HW219532   2.151   4.602   0.604  0.2000 -0.9571 -0.1054
 5978SOL     OW19533   1.081   1.519   4.514 -0.3296 -0.4269  0.0717
 5978SOL    HW119534   1.009   1.562   4.568 -0.3943 -1.4100  0.7825
 5978SOL    HW219535   1.061   1.531   4.416 -1.2932 -0.4252  0.2645
 5979SOL     OW19536   1.566   4.041   2.514 -0.5365 -0.2051 -0.6628
 5979SOL    HW119537   1.528   3.979   2.445 -1.1548 -0.3817 -0.1639
 5979SOL    HW219538   1.498   4.060   2.584  0.4537 -0.9924  0.5612
 5980SOL     OW19539   1.659   5.517   0.226  0.6224  0.2022 -0.3416
 5980SOL    HW119540   1.580   5.474   0.182  1.0463 -0.3984 -0.5269
 5980SOL    HW219541   1.718   5.556   0.155  1.5164 -1.1235 -0.3687
 5981SOL     OW19542   0.733   0.413   1.207 -0.3862 -0.2466  0.0219
 5981SOL    HW119543   0.643   0.383   1.239 -0.7086 -0.0964 -0.7277
 5981SOL    HW219544   0.725   0.450   1.115  0.2355  0.9192  0.4213
 5982SOL     OW19545   1.237   4.594   4.612  0.5711 -0.0706 -0.6772
 5982SOL    HW119546   1.211   4.537   4.690  1.1910  0.1344 -0.3172
 5982SOL    HW219547   1.311   4.549   4.561 -0.3708 -0.5884 -1.6219
 5983SOL     OW19548   4.401   1.632   4.417 -0.2239  0.4176  0.0518
 5983SOL    HW119549   4.484   1.579   4.439  1.8607  1.7478 -3.7421
 5983SOL    HW219550   4.404   1.720   4.465  1.8548  1.3959 -1.6999
 5984SOL     OW19551   0.100   6.455   1.559 -0.4327  0.5875 -0.1735
 5984SOL    HW119552   0.136   6.542   1.526 -0.4227  0.7062  0.1517
 5984SOL    HW219553   0.175   6.397   1.589 -0.5477  1.0920  1.1352
 5985SOL     OW19554   0.006   5.255   3.774  0.1448  0.2425 -0.5483
 5985SOL    HW119555   0.065   5.212   3.705 -0.7026 -0.1920 -1.0169
 5985SOL    HW219556  -0.030   5.341   3.737  0.5508  0.5523 -0.2281
 5986SOL     OW19557   2.236   5.045   4.209  0.3375  0.7430  0.0186
 5986SOL    HW119558   2.225   4.961   4.156  2.3591  0.0038  0.6531
 5986SOL    HW219559   2.188   5.120   4.164  0.2169 -0.3131 -1.6850
 5987SOL     OW19560   2.979   2.613   6.619 -0.1031  0.0840  0.1094
 5987SOL    HW119561   3.059   2.582   6.568  0.5504  1.2307  0.4035
 5987SOL    HW219562   2.994   2.707   6.651 -1.3107  0.0925  0.7073
 5988SOL     OW19563   6.050   6.822   2.229 -0.1196 -0.8376  0.7860
 5988SOL    HW119564   6.140   6.788   2.259  0.2869  0.1127  0.6826
 5988SOL    HW219565   5.979   6.759   2.259  0.6936 -2.3418 -0.3249
 5989SOL     OW19566   3.147   2.987   3.256  0.0510  0.0347  0.0654
 5989SOL    HW119567   3.058   2.992   3.210  1.5172 -1.1028 -3.2018
 5989SOL    HW219568   3.203   3.066   3.229 -0.6309  2.2091  4.1254
 5990SOL     OW19569   4.481   0.865   1.277 -0.2982  0.9871  0.4905
 5990SOL    HW119570   4.475   0.815   1.364 -2.6920 -2.2313 -1.3257
 5990SOL    HW219571   4.392   0.908   1.258  0.5476  2.6556  0.1000
 5991SOL     OW19572   0.182   6.610   3.814 -0.5448 -0.1809  0.1933
 5991SOL    HW119573   0.100   6.615   3.872  0.4676  0.1834  1.6339
 5991SOL    HW219574   0.195   6.697   3.767  0.4838  0.7252  2.0672
 5992SOL     OW19575   6.928   2.074   0.306 -0.0488 -0.1556 -0.1575
 5992SOL    HW119576   6.930   1.985   0.261  0.1843  0.3501 -1.1573
 5992SOL    HW219577   6.867   2.069   0.386 -1.9288 -0.5919 -1.5463
 5993SOL     OW19578   5.690   6.900   2.814 -0.4923 -0.1257 -0.1437
 5993SOL    HW119579   5.746   6.948   2.747 -0.8790  0.2973 -0.1741
 5993SOL    HW219580   5.667   6.963   2.889  1.1310 -0.9830  1.1329
 5994SOL     OW19581   5.760   6.963   1.481  0.1995  1.0063 -0.3027
 5994SOL    HW119582   5.811   6.915   1.553 -0.8059 -0.8906 -0.7844
 5994SOL    HW219583   5.823   6.991   1.409  0.7074 -0.6379 -0.5461
 5995SOL     OW19584   3.084   0.978   4.781 -0.0608 -0.3214  0.2296
 5995SOL    HW119585   3.087   0.924   4.865  1.0809 -0.1487  0.3174
 5995SOL    HW219586   2.995   1.021   4.772 -0.3254 -0.6651  1.1499
 5996SOL     OW19587   0.539   4.027   2.490  0.4678  0.4353  0.0011
 5996SOL    HW119588   0.574   4.050   2.399  2.5194 -0.6660  0.4796
 5996SOL    HW219589   0.587   3.948   2.526 -0.7608  0.4557  1.8071
 5997SOL     OW19590   1.716   3.326   1.138  0.3309 -0.3971 -0.0182
 5997SOL    HW119591   1.680   3.240   1.099  0.4213 -1.2519  1.7060
 5997SOL    HW219592   1.784   3.364   1.075  0.5033 -1.7515 -0.7057
 5998SOL     OW19593   4.081   2.337   1.221  0.1820 -0.0113  0.8343
 5998SOL    HW119594   4.120   2.300   1.136  1.3717  0.9618  0.9347
 5998SOL    HW219595   4.146   2.324   1.296 -0.4053  0.1161  1.3779
 5999SOL     OW19596   5.443   2.040   1.318  0.9110  0.5326  0.1098
 5999SOL    HW119597   5.533   2.076   1.292  1.6970  0.0008  1.9688
 5999SOL    HW219598   5.451   1.985   1.401 -1.1677  0.5921  0.4068
 6000SOL     OW19599   6.760   4.655   0.374  0.0557  0.1898 -0.2443
 6000SOL    HW119600   6.686   4.604   0.330 -0.1491  0.5405 -0.3116
 6000SOL    HW219601   6.771   4.744   0.329  1.2668 -0.3016 -0.9573
 6001SOL     OW19602   6.049   6.438   0.615  0.4436 -0.3241 -0.1014
 6001SOL    HW119603   6.044   6.403   0.521 -0.5047 -1.1105  0.2205
 6001SOL    HW219604   6.100   6.373   0.672 -0.4197 -0.6845  0.2750
 6002SOL     OW19605   6.369   2.130   7.004 -0.1284  0.2602  0.4021
 6002SOL    HW119606   6.310   2.052   6.984 -0.2726  0.6728 -0.9179
 6002SOL    HW219607   6.464   2.104   6.991 -0.1019  0.0054  1.0669
 6003SOL     OW19608   6.149   3.548   4.313 -0.8157  0.2625  0.3281
 6003SOL    HW119609   6.065   3.597   4.289 -0.0699  1.9131  0.9487
 6003SOL    HW219610   6.225   3.613   4.317  0.4965 -1.1934 -0.1950
 6004SOL     OW19611   1.207   0.412   2.366  0.1034  0.1012  0.0564
 6004SOL    HW119612   1.231   0.450   2.276  2.1879  1.8206  1.2439
 6004SOL    HW219613   1.147   0.334   2.354  0.2620  0.3185 -2.8342
 6005SOL     OW19614   5.716   6.309   3.390  0.8727 -0.4677 -0.0463
 6005SOL    HW119615   5.709   6.230   3.451  1.1065  0.8614  1.7541
 6005SOL    HW219616   5.633   6.314   3.333  0.4030 -1.4161  0.5259
 6006SOL     OW19617   2.104   6.288   2.308 -0.2847 -0.4043  0.9186
 6006SOL    HW119618   2.185   6.252   2.261  0.4394  0.2783  1.6086
 6006SOL    HW219619   2.094   6.244   2.397  1.2805  1.7703  2.2873
 6007SOL     OW19620   5.235   2.507   2.691  0.0866  0.1361 -0.2500
 6007SOL    HW119621   5.270   2.600   2.704  1.1923 -0.0925 -1.3807
 6007SOL    HW219622   5.178   2.504   2.609 -1.4411  0.1794  0.7715
 6008SOL     OW19623   3.166   1.332   0.098 -0.2711  0.3080 -0.2348
 6008SOL    HW119624   3.081   1.357   0.051  0.6521  0.3964 -1.9121
 6008SOL    HW219625   3.204   1.413   0.144 -0.9080  0.3410  0.2503
 6009SOL     OW19626   3.151   1.708   4.291 -0.0391  0.1004 -0.2643
 6009SOL    HW119627   3.135   1.784   4.355 -0.3772 -0.1208 -0.0839
 6009SOL    HW219628   3.069   1.693   4.236 -0.4075 -0.9259  0.5357
 6010SOL     OW19629   5.704   5.959   1.475  0.4556  0.0869  0.0539
 6010SOL    HW119630   5.767   5.892   1.436  0.0368 -0.5982  0.5342
 6010SOL    HW219631   5.615   5.916   1.491  0.4618  0.5009  1.2626
 6011SOL     OW19632   6.108   2.377   4.809  0.1100  0.1666  0.5870
 6011SOL    HW119633   6.193   2.362   4.859  0.8181  0.0933 -0.5901
 6011SOL    HW219634   6.094   2.475   4.794 -0.7356  0.2800  1.9468
 6012SOL     OW19635   3.426   2.691   1.129  0.1291 -0.2959  0.0126
 6012SOL    HW119636   3.493   2.735   1.189  1.4475 -3.0138  0.6698
 6012SOL    HW219637   3.335   2.724   1.150  1.0489  2.5213  0.0186
 6013SOL     OW19638   5.339   5.111   3.193 -0.9215  0.2106 -0.2161
 6013SOL    HW119639   5.240   5.096   3.200 -0.9701  1.1021  1.5895
 6013SOL    HW219640   5.387   5.050   3.256 -0.2613 -0.4092 -1.2736
 6014SOL     OW19641   4.909   1.735   2.819 -0.1851 -0.4083 -0.5412
 6014SOL    HW119642   4.834   1.778   2.769 -0.4978 -0.6673 -0.2972
 6014SOL    HW219643   4.967   1.806   2.858 -0.7119 -0.2027 -0.1201
 6015SOL     OW19644   0.119   5.521   2.104  0.8457 -0.3590  0.2594
 6015SOL    HW119645   0.174   5.536   2.022  0.4692  1.8539  0.3315
 6015SOL    HW219646   0.153   5.579   2.178 -1.3824  0.9368  0.3603
 6016SOL     OW19647   1.221   4.022   1.132 -0.1114  0.3651 -0.6649
 6016SOL    HW119648   1.174   4.049   1.048 -0.3539  0.6791 -0.4311
 6016SOL    HW219649   1.299   3.963   1.110 -0.6236 -0.1712 -1.0522
 6017SOL     OW19650   2.287   0.972   1.828 -0.1139  0.6193 -0.4696
 6017SOL    HW119651   2.329   0.964   1.918 -0.3865 -0.7642 -0.4466
 6017SOL    HW219652   2.213   0.906   1.819  0.0951  0.5356 -1.8172
 6018SOL     OW19653   3.869   3.440   6.925  0.0421  0.8508 -0.1256
 6018SOL    HW119654   3.845   3.488   6.840 -2.7557  1.6081  0.9543
 6018SOL    HW219655   3.960   3.469   6.955 -0.4194  3.4885 -0.9633
 6019SOL     OW19656   0.985   2.618   3.336 -0.3535 -0.3661  0.1715
 6019SOL    HW119657   1.073   2.596   3.293 -0.1968 -0.1212  0.3634
 6019SOL    HW219658   0.911   2.579   3.282 -0.1535 -0.1804 -0.2406
 6020SOL     OW19659   1.007   0.309   3.990 -0.9980  0.0485 -0.5012
 6020SOL    HW119660   0.921   0.344   4.028  0.1992  3.9035 -0.9786
 6020SOL    HW219661   0.996   0.294   3.892 -0.9831  1.1460 -0.6783
 6021SOL     OW19662   5.947   4.721   4.205  0.7462 -0.0606 -0.1418
 6021SOL    HW119663   6.009   4.762   4.271 -0.3065  0.8247  0.3234
 6021SOL    HW219664   5.880   4.788   4.176 -0.5500 -1.2414  0.0279
 6022SOL     OW19665   6.298   2.215   6.306 -0.0890  0.2578  0.3802
 6022SOL    HW119666   6.313   2.126   6.350 -1.8363  0.7531  2.0861
 6022SOL    HW219667   6.232   2.204   6.231 -0.2159  0.0894  0.5146
 6023SOL     OW19668   5.273   6.663   2.100  0.0986 -0.4074 -0.0669
 6023SOL    HW119669   5.274   6.711   2.188 -1.0779 -2.0845  0.9088
 6023SOL    HW219670   5.200   6.699   2.043  0.9811  0.8124 -0.4610
 6024SOL     OW19671   2.508   4.362   6.360 -0.1950 -0.9197  0.3011
 6024SOL    HW119672   2.445   4.438   6.350  1.3288  0.2960 -0.4261
 6024SOL    HW219673   2.457   4.280   6.385 -2.2614 -0.3426 -1.6258
 6025SOL     OW19674   6.663   1.508   5.960  0.0761  0.0598  0.1822
 6025SOL    HW119675   6.615   1.499   6.047  1.9333 -1.9955  1.0954
 6025SOL    HW219676   6.761   1.511   5.976  0.6062 -2.4464 -1.8667
 6026SOL     OW19677   0.232   5.677   0.511  0.7753  0.4370  0.7444
 6026SOL    HW119678   0.168   5.752   0.500 -0.0197 -0.2378  0.6710
 6026SOL    HW219679   0.185   5.597   0.547  1.0949 -0.7173 -1.2106
 6027SOL     OW19680   3.949   1.718   5.239  0.9080  0.9970 -0.2324
 6027SOL    HW119681   3.944   1.766   5.327  1.3248 -0.1439  0.4384
 6027SOL    HW219682   4.043   1.689   5.222  0.7384  0.7866 -0.8327
 6028SOL     OW19683   0.336   0.249   4.612 -0.2401  0.2378  0.3612
 6028SOL    HW119684   0.390   0.231   4.530 -0.4498 -0.0145  0.2808
 6028SOL    HW219685   0.338   0.347   4.632  1.3947  0.0885  1.1317
 6029SOL     OW19686   1.370   5.727   5.071  0.2368  0.7146  0.1123
 6029SOL    HW119687   1.436   5.710   5.145  0.7135  2.4518  0.1187
 6029SOL    HW219688   1.294   5.782   5.106  0.0049  0.7926 -0.4996
 6030SOL     OW19689   4.704   1.976   6.208 -0.4855 -0.5409  0.0119
 6030SOL    HW119690   4.728   2.024   6.124  0.3743 -0.7580  0.1266
 6030SOL    HW219691   4.773   1.995   6.278 -0.9097 -0.7900  0.5021
 6031SOL     OW19692   6.859   5.101   2.195 -0.3253  0.3302 -0.2878
 6031SOL    HW119693   6.912   5.176   2.156 -0.2057  0.4189  0.0419
 6031SOL    HW219694   6.887   5.087   2.290  0.4869 -0.8997 -0.6923
 6032SOL     OW19695   0.965   5.482   5.550  0.2416 -0.2994  0.3807
 6032SOL    HW119696   0.911   5.503   5.631 -0.3863  0.1976 -0.1579
 6032SOL    HW219697   0.972   5.383   5.539 -1.1333 -0.3771  0.0925
 6033SOL     OW19698   0.524   5.377   1.924  0.0101  1.0994  0.5412
 6033SOL    HW119699   0.541   5.291   1.971 -0.9730 -0.6254 -2.0214
 6033SOL    HW219700   0.558   5.453   1.980  2.0749 -0.9809  2.3270
 6034SOL     OW19701   5.494   3.947   6.054  0.3270 -0.5997  0.4864
 6034SOL    HW119702   5.541   4.002   5.985  0.3618 -1.1346  0.0829
 6034SOL    HW219703   5.457   4.008   6.125  0.7067 -0.0889  0.2543
 6035SOL     OW19704   2.212   1.646   5.229 -0.3274  0.3463 -0.2210
 6035SOL    HW119705   2.280   1.588   5.184 -0.9169  0.1952 -0.9201
 6035SOL    HW219706   2.122   1.627   5.191 -0.6801  0.9599  0.3039
 6036SOL     OW19707   5.622   2.802   1.925 -0.4542 -0.0750 -0.3857
 6036SOL    HW119708   5.524   2.818   1.938 -0.4297  0.1457 -0.4708
 6036SOL    HW219709   5.635   2.721   1.867 -0.5771 -0.4158  0.0589
 6037SOL     OW19710   4.257   1.279   5.628  0.0535  0.4238  0.2151
 6037SOL    HW119711   4.351   1.260   5.656  0.1587 -0.7802 -0.8160
 6037SOL    HW219712   4.241   1.236   5.538 -1.4104  0.7907  0.2869
 6038SOL     OW19713   5.804   5.247   3.953  0.1239  0.1800  0.0149
 6038SOL    HW119714   5.840   5.284   4.039  1.9485 -1.6657  0.1231
 6038SOL    HW219715   5.721   5.195   3.971  0.6467 -0.4350  0.7411
 6039SOL     OW19716   4.451   6.683   3.394 -0.0758  0.3691 -0.2347
 6039SOL    HW119717   4.511   6.695   3.314  1.5844  1.1284  1.0658
 6039SOL    HW219718   4.468   6.756   3.460 -0.0750 -1.2380  1.6276
 6040SOL     OW19719   6.719   4.511   0.614 -0.0735 -0.0883  0.1910
 6040SOL    HW119720   6.807   4.530   0.656 -0.3066  0.2175  0.5478
 6040SOL    HW219721   6.728   4.514   0.514  0.1508  0.7274  0.2326
 6041SOL     OW19722   6.264   1.919   1.548 -0.6027 -0.2929  0.2191
 6041SOL    HW119723   6.223   1.842   1.598  2.0452 -2.7256 -1.0921
 6041SOL    HW219724   6.319   1.974   1.610  1.1764 -2.2193  0.4685
 6042SOL     OW19725   1.416   4.915   6.204 -0.0477 -0.0546 -0.0434
 6042SOL    HW119726   1.480   4.909   6.281  0.8349  0.7259 -0.6804
 6042SOL    HW219727   1.405   4.825   6.163  1.2498 -0.0822 -0.3797
 6043SOL     OW19728   2.842   1.950   2.253  0.4300  1.0250  0.5972
 6043SOL    HW119729   2.845   2.008   2.171 -2.3119 -1.2106 -1.2556
 6043SOL    HW219730   2.749   1.948   2.289  0.9947 -0.3332  2.0941
 6044SOL     OW19731   2.807   3.316   5.948  0.3161  0.1585  0.5618
 6044SOL    HW119732   2.725   3.326   5.891  0.9399  1.8335 -0.1098
 6044SOL    HW219733   2.833   3.219   5.954  0.3871 -0.0589 -2.2559
 6045SOL     OW19734   1.512   4.920   5.863  0.2607 -0.3296  0.3330
 6045SOL    HW119735   1.427   4.936   5.914 -0.2055 -2.2967  0.2420
 6045SOL    HW219736   1.572   4.999   5.874 -1.6074  1.1754  0.3029
 6046SOL     OW19737   5.538   3.884   3.753  0.4428 -0.1911 -0.2206
 6046SOL    HW119738   5.487   3.808   3.713  1.4368 -1.7147  1.2620
 6046SOL    HW219739   5.474   3.949   3.795 -0.3583 -1.6638  0.9317
 6047SOL     OW19740   4.695   6.440   2.835 -0.2494  0.0441 -0.3246
 6047SOL    HW119741   4.702   6.340   2.836  2.0292 -0.0066  4.2035
 6047SOL    HW219742   4.780   6.479   2.800 -0.2539  0.3550  0.0047
 6048SOL     OW19743   6.909   5.673   2.018  0.7441 -0.2916 -0.3239
 6048SOL    HW119744   6.980   5.603   2.032  0.1162 -0.8767  0.0027
 6048SOL    HW219745   6.918   5.742   2.089  0.1164 -1.1128  0.5799
 6049SOL     OW19746   6.101   4.359   3.917  0.2314 -0.2215 -0.0745
 6049SOL    HW119747   6.189   4.338   3.875 -0.9104 -3.6504 -1.1086
 6049SOL    HW219748   6.110   4.358   4.016  0.9793 -3.1881 -0.0766
 6050SOL     OW19749   1.376   4.395   5.041 -0.1951  0.4000 -0.5831
 6050SOL    HW119750   1.343   4.411   4.948 -2.4162 -1.1211 -0.1355
 6050SOL    HW219751   1.307   4.343   5.092  2.8610 -3.0573  0.4835
 6051SOL     OW19752   1.042   5.176   3.768  0.1863 -0.3524 -0.4440
 6051SOL    HW119753   1.038   5.270   3.801 -0.4914 -0.0858 -1.2358
 6051SOL    HW219754   1.097   5.173   3.684 -0.3143 -0.5380 -0.7733
 6052SOL     OW19755   3.980   1.270   4.046  0.1825  0.3869  0.0227
 6052SOL    HW119756   3.996   1.182   4.090 -1.1266  0.2504  0.2742
 6052SOL    HW219757   4.009   1.266   3.950 -1.0148 -0.7322 -0.3194
 6053SOL     OW19758   0.526   2.476   3.609  0.3658  0.2574  0.7270
 6053SOL    HW119759   0.573   2.534   3.543  1.2145 -0.9620  0.2255
 6053SOL    HW219760   0.430   2.466   3.582  0.7543 -0.4027 -0.4661
 6054SOL     OW19761   4.226   1.168   5.988  0.0784 -0.1480  0.2230
 6054SOL    HW119762   4.227   1.144   6.086  1.8413 -1.0348  0.0302
 6054SOL    HW219763   4.317   1.199   5.961  0.3119 -2.3004 -1.6868
 6055SOL     OW19764   0.425   4.282   2.562 -0.0405  0.5784 -0.5460
 6055SOL    HW119765   0.462   4.206   2.509 -0.3027 -0.3874  0.6021
 6055SOL    HW219766   0.333   4.260   2.594  0.4511  0.7010  1.0887
 6056SOL     OW19767   5.418   6.188   0.007 -0.0677  0.2383 -0.1637
 6056SOL    HW119768   5.460   6.097   0.015 -0.8287  0.0180  1.9636
 6056SOL    HW219769   5.323   6.183   0.039 -0.1482  1.7577 -0.1204
 6057SOL     OW19770   4.613   2.404   4.488  0.6034 -0.0165 -0.2055
 6057SOL    HW119771   4.674   2.370   4.416  0.6313 -2.0266  0.7067
 6057SOL    HW219772   4.584   2.328   4.546  0.2624  1.4794  1.6841
 6058SOL     OW19773   6.280   4.526   1.581  0.1127  0.0437 -0.8446
 6058SOL    HW119774   6.316   4.572   1.663  1.0188  1.5215 -2.0170
 6058SOL    HW219775   6.194   4.570   1.554 -0.3016 -0.5895 -0.5772
 6059SOL     OW19776   1.016   1.078   5.589 -0.0272  0.0300  0.5404
 6059SOL    HW119777   1.003   0.999   5.529  2.0134  0.4608 -0.5298
 6059SOL    HW219778   1.018   1.162   5.535  3.1020  0.3206  0.9504
 6060SOL     OW19779   3.237   2.949   5.496  0.8211 -0.0906  0.0637
 6060SOL    HW119780   3.213   3.039   5.532  1.7775  0.1588  0.1264
 6060SOL    HW219781   3.176   2.880   5.534  0.2519  0.4992  0.2303
 6061SOL     OW19782   1.895   0.905   1.551  0.1187 -0.3628  0.8892
 6061SOL    HW119783   1.957   0.827   1.561  0.9999  0.1797 -0.1424
 6061SOL    HW219784   1.890   0.956   1.637 -0.9734 -1.8900  1.7797
 6062SOL     OW19785   4.867   0.786   0.511  0.1195  0.4275 -0.0120
 6062SOL    HW119786   4.770   0.784   0.539 -0.3114 -1.8980 -1.3537
 6062SOL    HW219787   4.873   0.788   0.412  1.5006  1.6670  0.0700
 6063SOL     OW19788   5.395   6.672   3.057 -0.0597  0.2027 -0.7580
 6063SOL    HW119789   5.343   6.629   2.984 -0.1362  0.3729 -0.8033
 6063SOL    HW219790   5.343   6.666   3.143  0.1477 -0.2381 -0.6558
 6064SOL     OW19791   3.593   0.846   0.730 -0.3061 -0.2499  0.0477
 6064SOL    HW119792   3.556   0.772   0.674 -1.7839 -1.1416  2.0678
 6064SOL    HW219793   3.534   0.927   0.722 -1.0288 -0.6701  0.9404
 6065SOL     OW19794   5.035   6.209   3.860  0.3209 -0.0094 -0.3040
 6065SOL    HW119795   5.133   6.222   3.875  0.4303 -1.0899 -0.0287
 6065SOL    HW219796   5.019   6.171   3.769  0.1332  0.2917 -0.4026
 6066SOL     OW19797   2.850   4.707   2.776  0.1835  0.1913  0.7336
 6066SOL    HW119798   2.805   4.779   2.723  1.6086  1.0064  0.5914
 6066SOL    HW219799   2.878   4.743   2.865  1.1852 -0.0961  0.5423
 6067SOL     OW19800   3.413   1.588   0.797 -0.2822 -0.6741 -0.8150
 6067SOL    HW119801   3.371   1.505   0.833 -0.3688 -0.1734  0.2910
 6067SOL    HW219802   3.371   1.668   0.840 -1.1479  0.0406 -2.8394
 6068SOL     OW19803   3.325   4.890   5.541 -0.2536 -0.4323 -0.3246
 6068SOL    HW119804   3.234   4.862   5.571 -0.2953  1.1291  1.1169
 6068SOL    HW219805   3.321   4.981   5.501  0.7054 -0.3025 -0.1419
 6069SOL     OW19806   3.402   5.285   0.740  0.2996  0.5363  0.2175
 6069SOL    HW119807   3.397   5.301   0.839  1.9413  1.0980  0.2368
 6069SOL    HW219808   3.486   5.236   0.718  0.4153  1.2485 -0.9930
 6070SOL     OW19809   3.835   0.817   5.106  0.1719 -0.5021 -0.4037
 6070SOL    HW119810   3.738   0.805   5.084  0.4224 -1.9304 -0.8688
 6070SOL    HW219811   3.888   0.819   5.021  0.5635  0.1334 -0.1488
 6071SOL     OW19812   6.201   6.338   4.027 -0.5049 -0.2765  0.0720
 6071SOL    HW119813   6.231   6.245   4.049  1.8055 -0.1843 -2.1850
 6071SOL    HW219814   6.186   6.346   3.929 -0.3921  1.7887  0.1760
 6072SOL     OW19815   5.058   5.603   6.470  0.6551  0.2011 -0.3955
 6072SOL    HW119816   5.092   5.552   6.391  2.0529  0.7685 -0.1875
 6072SOL    HW219817   5.019   5.689   6.440 -1.4249 -0.7998 -0.7173
 6073SOL     OW19818   6.471   0.563   6.044 -0.3894 -0.0453  0.1860
 6073SOL    HW119819   6.485   0.491   5.975  0.4466  0.9444 -0.7309
 6073SOL    HW219820   6.550   0.625   6.043 -0.7901  0.5141  1.4208
 6074SOL     OW19821   3.102   6.406   2.503 -0.6545  0.0364  0.6812
 6074SOL    HW119822   3.199   6.411   2.478 -0.4536  1.6709  1.6658
 6074SOL    HW219823   3.048   6.451   2.431 -0.2590  2.8404  1.9906
 6075SOL     OW19824   1.903   4.057   5.280  0.2067 -0.5610  0.0055
 6075SOL    HW119825   1.813   4.076   5.319  0.2149  0.5761 -0.4913
 6075SOL    HW219826   1.892   4.016   5.189  0.1570  0.9803 -0.7146
 6076SOL     OW19827   6.859   2.800   2.362 -0.8542  0.0240 -0.2389
 6076SOL    HW119828   6.770   2.815   2.320 -0.3893 -0.1629 -1.3267
 6076SOL    HW219829   6.917   2.747   2.300  0.3748  1.0459 -0.0142
 6077SOL     OW19830   1.017   5.619   0.415 -0.3360 -0.4020  0.4085
 6077SOL    HW119831   1.087   5.552   0.441  0.8372  0.7579  0.3192
 6077SOL    HW219832   0.984   5.666   0.496 -1.1740 -1.0836  0.4731
 6078SOL     OW19833   0.738   0.619   2.934 -0.1988  0.2018  0.3333
 6078SOL    HW119834   0.773   0.531   2.903 -2.2909 -0.2480 -0.9626
 6078SOL    HW219835   0.727   0.617   3.034 -0.7756 -1.2572  0.2681
 6079SOL     OW19836   3.417   4.276   5.705  0.1038 -0.0604 -0.0695
 6079SOL    HW119837   3.385   4.369   5.724 -0.4406 -0.4694  1.0572
 6079SOL    HW219838   3.478   4.278   5.626  0.2985  1.2960  0.0911
 6080SOL     OW19839   0.118   3.174   5.762  0.0292 -0.1897 -0.4455
 6080SOL    HW119840   0.082   3.252   5.710  0.0650 -1.0791 -1.8714
 6080SOL    HW219841   0.204   3.200   5.805  0.0388  0.5733 -0.8922
 6081SOL     OW19842   4.606   1.111   6.380  0.2907 -0.7635  0.1566
 6081SOL    HW119843   4.530   1.079   6.324  0.5857 -0.0033 -0.7272
 6081SOL    HW219844   4.623   1.208   6.360  2.2457 -1.2014 -0.5922
 6082SOL     OW19845   2.510   6.381   1.795  0.2832  0.2502 -0.0966
 6082SOL    HW119846   2.441   6.451   1.814  0.9472  0.9158 -0.1215
 6082SOL    HW219847   2.493   6.301   1.852  0.6829  1.1892  1.3813
 6083SOL     OW19848   6.042   0.336   6.752  0.2029 -0.0230 -0.5490
 6083SOL    HW119849   6.054   0.433   6.775  0.8304  0.0365 -1.1075
 6083SOL    HW219850   5.953   0.305   6.787  0.9142  0.1611  1.5945
 6084SOL     OW19851   4.805   2.644   2.125  0.3908  0.6450 -0.1420
 6084SOL    HW119852   4.844   2.556   2.152  2.0002  1.1635 -0.6213
 6084SOL    HW219853   4.864   2.686   2.055 -0.6353  1.8622 -0.3130
 6085SOL     OW19854   1.736   0.485   2.092  0.3839 -0.3148 -0.3702
 6085SOL    HW119855   1.728   0.561   2.157  0.7118 -0.3633 -0.2706
 6085SOL    HW219856   1.678   0.410   2.122 -0.7995  0.3055 -1.0677
 6086SOL     OW19857   0.015   6.334   5.448 -0.1722 -0.6563  0.3068
 6086SOL    HW119858  -0.027   6.380   5.369  0.5885 -0.9504 -0.2825
 6086SOL    HW219859   0.066   6.254   5.416  0.6800 -0.4072  1.0326
 6087SOL     OW19860   1.797   3.107   5.670  0.6123  0.5350 -0.2938
 6087SOL    HW119861   1.714   3.088   5.721  1.3873 -1.4605  0.3316
 6087SOL    HW219862   1.801   3.204   5.646 -0.3765  1.3041  2.3575
 6088SOL     OW19863   4.945   4.323   0.059  0.1939 -0.0164 -0.3792
 6088SOL    HW119864   4.982   4.232   0.077 -1.6960 -1.0121 -1.2336
 6088SOL    HW219865   4.943   4.376   0.144  1.4118 -0.7178  0.1046
 6089SOL     OW19866   4.241   5.904   1.078 -0.1633 -0.0595  0.5060
 6089SOL    HW119867   4.209   5.845   1.004 -0.7209  0.9195 -0.0456
 6089SOL    HW219868   4.331   5.871   1.109 -1.7494 -3.1185  2.3973
 6090SOL     OW19869   5.298   0.940   3.774 -0.5271  0.0036 -0.6790
 6090SOL    HW119870   5.331   0.847   3.785 -0.6291 -0.0069 -0.4499
 6090SOL    HW219871   5.367   1.005   3.807 -1.2226 -0.0607  1.0087
 6091SOL     OW19872   6.178   1.994   3.807 -0.2075  0.0594  0.0485
 6091SOL    HW119873   6.112   1.918   3.813  0.9918 -1.1331 -1.1930
 6091SOL    HW219874   6.271   1.957   3.809  0.4286  1.6224  0.5410
 6092SOL     OW19875   6.059   4.664   4.592 -0.1843  0.2158 -0.5269
 6092SOL    HW119876   5.973   4.715   4.591 -1.2619 -1.5447 -0.9620
 6092SOL    HW219877   6.111   4.685   4.510 -0.8037  0.2939 -0.9035
 6093SOL     OW19878   5.745   6.460   0.375  0.1091 -0.1242  0.0342
 6093SOL    HW119879   5.666   6.412   0.335  0.4877 -0.2175 -0.6050
 6093SOL    HW219880   5.718   6.553   0.398  0.1886  0.3240 -1.5438
 6094SOL     OW19881   1.689   6.015   1.268  0.4559  0.0902  0.8344
 6094SOL    HW119882   1.749   5.944   1.306 -1.3704 -0.8468  2.0900
 6094SOL    HW219883   1.625   6.045   1.337 -0.8121  0.7679 -0.5834
 6095SOL     OW19884   4.164   6.695   2.813  0.2527 -0.0800 -0.1592
 6095SOL    HW119885   4.184   6.598   2.823  1.5835 -0.1442 -2.7971
 6095SOL    HW219886   4.227   6.748   2.870  1.0916 -0.6692 -0.5268
 6096SOL     OW19887   6.517   4.571   0.278  0.2166  0.6274 -0.1860
 6096SOL    HW119888   6.473   4.587   0.190  1.6749  2.6503 -0.6286
 6096SOL    HW219889   6.531   4.473   0.291 -2.0359  0.1315 -1.1447
 6097SOL     OW19890   2.296   4.646   4.725  0.0487  0.4284 -0.3042
 6097SOL    HW119891   2.304   4.610   4.632  0.8982  1.2658 -0.5695
 6097SOL    HW219892   2.302   4.746   4.723 -1.5642  0.5831  0.4917
 6098SOL     OW19893   2.378   1.241   5.531 -0.4010 -0.1729 -0.1204
 6098SOL    HW119894   2.421   1.327   5.506  0.2466 -0.6156 -0.5790
 6098SOL    HW219895   2.336   1.249   5.621 -1.2958  0.9413 -0.6116
 6099SOL     OW19896   2.856   0.394   5.626  0.3639 -0.3484  0.0992
 6099SOL    HW119897   2.850   0.306   5.580  1.1502 -0.6763  0.5922
 6099SOL    HW219898   2.850   0.381   5.725 -0.5536  0.2671  0.1377
 6100SOL     OW19899   0.000   4.190   6.836  0.7361 -0.1864 -0.0141
 6100SOL    HW119900  -0.025   4.162   6.744 -1.6886 -1.0767  0.8399
 6100SOL    HW219901   0.033   4.110   6.887  1.4999  0.1839  0.0859
 6101SOL     OW19902   4.730   0.027   3.741  0.4235  0.0521 -0.6716
 6101SOL    HW119903   4.640  -0.011   3.721  0.5781 -0.0176 -1.2652
 6101SOL    HW219904   4.772   0.058   3.655  0.3957  1.3512 -0.2454
 6102SOL     OW19905   2.860   5.630   2.103 -0.4700 -0.5075  0.1571
 6102SOL    HW119906   2.859   5.724   2.136 -0.0914 -0.2584 -0.5217
 6102SOL    HW219907   2.937   5.618   2.040 -0.1062 -1.4478  0.7512
 6103SOL     OW19908   5.237   1.513   1.719 -0.1237  0.7951  0.5905
 6103SOL    HW119909   5.208   1.441   1.782  0.5549  0.9364  1.0742
 6103SOL    HW219910   5.238   1.477   1.626 -2.8133  1.0417  0.3661
 6104SOL     OW19911   6.228   6.352   0.955 -0.3244 -0.2812 -0.3907
 6104SOL    HW119912   6.293   6.425   0.977  0.2998 -0.8253 -0.4297
 6104SOL    HW219913   6.230   6.334   0.856 -1.2677  0.3915 -0.5428
 6105SOL     OW19914   0.733   1.662   3.319 -0.2520 -0.3098 -0.0620
 6105SOL    HW119915   0.820   1.618   3.343 -0.1551  0.4234  0.9882
 6105SOL    HW219916   0.708   1.637   3.225  1.6996  0.4203 -0.8242
 6106SOL     OW19917   2.070   0.904   3.987 -0.0853  0.2179  0.1441
 6106SOL    HW119918   2.079   0.862   4.077 -0.1352  0.2867  0.1812
 6106SOL    HW219919   1.985   0.957   3.983 -0.3294 -0.1850 -0.1051
 6107SOL     OW19920   1.355   0.517   5.064  0.4420  0.1601  0.5619
 6107SOL    HW119921   1.452   0.537   5.051  0.2835  1.3335  1.1039
 6107SOL    HW219922   1.300   0.582   5.012 -0.0657 -0.3383  0.4637
 6108SOL     OW19923   5.606   5.629   1.382  0.0385  1.1083  0.1765
 6108SOL    HW119924   5.699   5.663   1.395  0.7497 -0.6213 -0.0645
 6108SOL    HW219925   5.574   5.653   1.290  1.4126 -0.7139 -0.8497
 6109SOL     OW19926   0.699   4.829   5.339 -0.2974 -0.1427  0.1824
 6109SOL    HW119927   0.762   4.882   5.282 -1.3327  1.2465  0.2852
 6109SOL    HW219928   0.738   4.739   5.357  0.5013 -0.2463 -1.8676
 6110SOL     OW19929   3.336   4.167   1.439 -0.6746  0.6633 -0.0122
 6110SOL    HW119930   3.405   4.230   1.476 -1.4562  1.5024  0.0430
 6110SOL    HW219931   3.245   4.206   1.450 -1.1491 -0.2908 -0.3793
 6111SOL     OW19932   3.132   0.536   4.651 -0.3354 -1.0351  0.0487
 6111SOL    HW119933   3.186   0.524   4.734  0.7242 -0.6780 -0.5622
 6111SOL    HW219934   3.084   0.451   4.629 -2.4786 -0.4789  2.2467
 6112SOL     OW19935   3.152   4.441   0.370 -0.4943  0.0054 -0.0650
 6112SOL    HW119936   3.206   4.509   0.421 -1.1561  1.1787 -0.8730
 6112SOL    HW219937   3.190   4.431   0.278 -0.4646 -0.6698  0.0155
 6113SOL     OW19938   1.849   2.942   0.492  0.5837  0.3764 -0.2988
 6113SOL    HW119939   1.850   2.984   0.583  0.2001 -0.0216 -0.1085
 6113SOL    HW219940   1.757   2.907   0.473  0.7896  0.0201 -0.6374
 6114SOL     OW19941   6.507   0.779   1.407 -0.3246 -0.3813  0.2944
 6114SOL    HW119942   6.426   0.727   1.435 -0.0664 -1.3847 -0.6954
 6114SOL    HW219943   6.588   0.720   1.414  0.2382  0.4272  0.7266
 6115SOL     OW19944   4.803   4.826   6.830 -0.1218 -0.1880  0.4613
 6115SOL    HW119945   4.821   4.729   6.813  0.9022  0.2345 -1.0498
 6115SOL    HW219946   4.887   4.870   6.863 -0.6288  0.1617  1.3081
 6116SOL     OW19947   5.692   3.238   5.167 -0.3444 -0.2442 -0.4075
 6116SOL    HW119948   5.655   3.233   5.260 -0.4597 -3.1692 -0.5159
 6116SOL    HW219949   5.792   3.228   5.172 -0.1206  1.6347 -0.5146
 6117SOL     OW19950   4.678   4.252   1.433 -0.3455  0.0464  0.5434
 6117SOL    HW119951   4.704   4.167   1.388 -2.3790 -0.4325  0.1829
 6117SOL    HW219952   4.710   4.251   1.528  0.5417 -0.6551  0.2460
 6118SOL     OW19953   5.079   1.927   2.842 -0.5345 -0.2664  0.1186
 6118SOL    HW119954   5.176   1.922   2.817 -0.7395 -1.1276 -0.5576
 6118SOL    HW219955   5.059   2.017   2.879 -0.0191  0.8485 -2.1286
 6119SOL     OW19956   6.552   2.928   2.575  0.2116 -0.1155  0.0597
 6119SOL    HW119957   6.544   2.859   2.647  1.0521  0.8090  1.0887
 6119SOL    HW219958   6.510   3.013   2.606 -0.0173  0.1022 -0.8304
 6120SOL     OW19959   0.266   0.012   1.336  0.0130  0.2433 -0.4602
 6120SOL    HW119960   0.280   0.108   1.359  0.9801 -0.1155  0.5644
 6120SOL    HW219961   0.250   0.003   1.238  2.0916  1.2557 -0.9477
 6121SOL     OW19962   5.492   6.477   3.877 -0.2501 -0.2498 -0.3167
 6121SOL    HW119963   5.581   6.501   3.916 -0.3348 -0.0521 -0.2452
 6121SOL    HW219964   5.421   6.492   3.946 -0.3371 -0.4225 -0.3682
 6122SOL     OW19965   3.135   6.357   5.309 -0.0845 -0.4694 -0.2715
 6122SOL    HW119966   3.035   6.365   5.311 -0.1187 -0.9594 -0.0929
 6122SOL    HW219967   3.170   6.410   5.232 -0.3174  1.3747  0.8216
 6123SOL     OW19968   4.137   0.372   6.848  0.3025  0.5233  0.3862
 6123SOL    HW119969   4.060   0.328   6.894 -0.1535  1.2539  0.3444
 6123SOL    HW219970   4.216   0.310   6.847 -0.5400 -0.5857 -0.3461
 6124SOL     OW19971   0.961   1.148   6.429  0.4876 -0.2877  0.3038
 6124SOL    HW119972   0.986   1.064   6.380  0.4538 -0.2047  0.1444
 6124SOL    HW219973   1.016   1.224   6.394 -1.8853  0.4940 -2.0386
 6125SOL     OW19974   1.037   6.528   0.527 -0.2879 -0.3281  0.0419
 6125SOL    HW119975   1.022   6.471   0.445  0.0822 -1.4337  0.7166
 6125SOL    HW219976   1.082   6.473   0.597 -1.1830  0.4261  1.2294
 6126SOL     OW19977   6.489   2.021   0.774 -0.7655  0.0110  0.3807
 6126SOL    HW119978   6.569   1.970   0.806 -0.3161  0.9157  0.7290
 6126SOL    HW219979   6.414   2.010   0.839 -0.3268  0.6497  0.9980
 6127SOL     OW19980   2.171   2.363   0.245  0.4025 -0.5964 -0.0781
 6127SOL    HW119981   2.137   2.313   0.166  0.6387  1.1184 -1.3370
 6127SOL    HW219982   2.118   2.339   0.326 -1.3250 -0.7774 -1.2095
 6128SOL     OW19983   3.922   1.626   0.668  0.8887 -0.5577  0.1903
 6128SOL    HW119984   3.894   1.720   0.646  0.1228 -0.2617  2.2091
 6128SOL    HW219985   3.855   1.584   0.728  1.5066 -2.2339 -0.2359
 6129SOL     OW19986   2.536   0.304   1.603  0.8525 -0.1246 -0.0978
 6129SOL    HW119987   2.585   0.382   1.565  1.3042 -0.0186  0.6714
 6129SOL    HW219988   2.598   0.227   1.613  1.2209  0.3559  1.9407
 6130SOL     OW19989   5.140   6.237   3.020 -0.3226  0.4020  0.0066
 6130SOL    HW119990   5.111   6.279   3.106 -0.0544  0.2582  0.1695
 6130SOL    HW219991   5.123   6.138   3.025  1.0160  0.1738  0.4566
 6131SOL     OW19992   1.267   1.547   3.619 -0.2957 -0.2215  0.2308
 6131SOL    HW119993   1.356   1.572   3.657  0.1886 -0.9343 -0.4058
 6131SOL    HW219994   1.207   1.515   3.692 -0.4169  1.3219  0.8285
 6132SOL     OW19995   5.812   2.679   6.023 -0.2177 -0.2804 -0.4067
 6132SOL    HW119996   5.826   2.738   6.103  2.7357  0.0613 -1.0357
 6132SOL    HW219997   5.901   2.659   5.981 -1.3646 -3.0643 -1.7806
 6133SOL     OW19998   0.581   1.786   6.954 -0.6079 -1.0210 -0.0616
 6133SOL    HW119999   0.658   1.847   6.972 -1.9229  0.8069 -0.3561
 6133SOL    HW220000   0.542   1.807   6.864 -2.0161 -1.2602  0.4705
 6134SOL     OW20001   2.508   5.803   4.926 -0.4531  0.4127  0.0944
 6134SOL    HW120002   2.412   5.803   4.896 -0.2967 -0.2947 -0.4215
 6134SOL    HW220003   2.568   5.798   4.846  0.0587  1.9927  0.3441
 6135SOL     OW20004   4.193   1.273   1.810  0.2596  0.3799  0.1205
 6135SOL    HW120005   4.141   1.204   1.759 -0.5370  0.0180  1.3594
 6135SOL    HW220006   4.164   1.272   1.906  3.1427 -0.4211  1.0925
 6136SOL     OW20007   1.700   2.480   5.105  0.7881 -0.7949 -0.1910
 6136SOL    HW120008   1.704   2.400   5.164  0.8581 -0.7001 -0.0664
 6136SOL    HW220009   1.768   2.471   5.032 -0.1980 -1.5355 -1.0523
 6137SOL     OW20010   2.815   1.132   3.806  0.2061 -0.0338  0.8008
 6137SOL    HW120011   2.722   1.097   3.798 -0.6004  2.3223 -2.6084
 6137SOL    HW220012   2.880   1.060   3.781 -1.0325 -0.6308 -0.9080
 6138SOL     OW20013   4.168   1.962   1.672 -0.1567 -0.3425  0.0396
 6138SOL    HW120014   4.155   1.992   1.767  0.5172 -0.5376  0.2021
 6138SOL    HW220015   4.170   1.862   1.669  1.0469 -0.3256  0.0016
 6139SOL     OW20016   5.875   5.639   2.366  0.0791 -0.5663 -0.1464
 6139SOL    HW120017   5.849   5.588   2.283  0.7246 -2.0931  0.5570
 6139SOL    HW220018   5.962   5.685   2.350 -0.3151  0.0114 -0.6623
 6140SOL     OW20019   3.354   1.992   6.853  0.0944 -0.0936  0.4595
 6140SOL    HW120020   3.442   1.975   6.896  0.7297  2.1114  0.1904
 6140SOL    HW220021   3.281   1.953   6.909  1.1738 -1.0963  1.2096
 6141SOL     OW20022   1.099   3.238   1.778 -1.2630  0.1481 -0.3528
 6141SOL    HW120023   1.047   3.187   1.847 -0.5702 -0.5186 -0.3046
 6141SOL    HW220024   1.066   3.332   1.774  0.0529  0.8312  2.4200
 6142SOL     OW20025   4.905   0.772   6.340 -0.3204  0.2188 -0.1567
 6142SOL    HW120026   4.873   0.864   6.319 -2.2926 -0.4770 -0.4315
 6142SOL    HW220027   4.971   0.743   6.271  0.6397  1.5658  0.1706
 6143SOL     OW20028   0.653   1.285   6.381 -0.5942  0.2112 -0.0476
 6143SOL    HW120029   0.576   1.256   6.439 -0.0161 -1.2363  0.0484
 6143SOL    HW220030   0.685   1.206   6.328  1.3242  0.5891  0.4974
 6144SOL     OW20031   3.834   6.544   0.143 -0.1713  0.3192  0.0770
 6144SOL    HW120032   3.930   6.536   0.170  0.0983 -1.0676 -1.1494
 6144SOL    HW220033   3.829   6.589   0.053 -0.4459 -1.7242 -0.9774
 6145SOL     OW20034   6.815   6.296   0.348  0.0448 -0.0077  0.2179
 6145SOL    HW120035   6.765   6.216   0.314 -0.5545 -0.4081  1.9299
 6145SOL    HW220036   6.906   6.298   0.308  0.3127 -1.9503  0.6578
 6146SOL     OW20037   3.038   1.610   0.902  0.4031 -0.2914 -0.2521
 6146SOL    HW120038   3.097   1.634   0.825  0.8450 -0.7632 -0.0655
 6146SOL    HW220039   2.993   1.523   0.884  1.0881 -0.7782  0.3396
 6147SOL     OW20040   6.170   5.853   1.462 -0.0364  0.1521  0.0522
 6147SOL    HW120041   6.243   5.883   1.400  0.2835  0.7475  0.7053
 6147SOL    HW220042   6.204   5.777   1.518  0.0823  0.4289  0.3559
 6148SOL     OW20043   5.270   2.713   5.628  0.4669 -0.1876 -0.3568
 6148SOL    HW120044   5.218   2.744   5.549  0.8537 -0.6360 -0.7896
 6148SOL    HW220045   5.367   2.734   5.615  0.5067 -0.0766  0.0904
 6149SOL     OW20046   3.641   4.692   0.661  0.5132 -0.0166  0.1323
 6149SOL    HW120047   3.700   4.715   0.584  0.3401 -2.0451 -0.6793
 6149SOL    HW220048   3.553   4.658   0.627 -0.3035  0.8775  1.2818
 6150SOL     OW20049   4.856   5.190   4.694 -0.4301 -0.4110 -0.0221
 6150SOL    HW120050   4.799   5.221   4.770 -0.2071 -1.0792  0.4242
 6150SOL    HW220051   4.798   5.165   4.616 -0.6999 -0.3696  0.1650
 6151SOL     OW20052   1.379   1.071   6.506  0.0320  0.2639  1.1593
 6151SOL    HW120053   1.335   1.073   6.596  2.2325  0.1685  2.3009
 6151SOL    HW220054   1.457   1.134   6.506  1.6456 -1.6353  0.2182
 6152SOL     OW20055   0.097   4.472   4.882 -0.1898 -0.0099  0.2357
 6152SOL    HW120056   0.114   4.529   4.963 -0.8982 -0.2391  0.5503
 6152SOL    HW220057   0.025   4.406   4.902  0.3227 -0.7416 -0.2696
 6153SOL     OW20058   2.749   0.827   3.070 -0.3748  0.2084  0.0879
 6153SOL    HW120059   2.831   0.788   3.112 -0.1623  0.4605 -0.0885
 6153SOL    HW220060   2.696   0.874   3.140 -0.7098 -0.5209  0.3302
 6154SOL     OW20061   6.702   5.695   6.329  0.2173  0.0116  0.3132
 6154SOL    HW120062   6.613   5.700   6.284  0.3131  1.2023  0.2339
 6154SOL    HW220063   6.775   5.699   6.261  0.3611  1.7142  0.5184
 6155SOL     OW20064   5.792   2.877   3.285 -0.5324 -0.5273  0.0788
 6155SOL    HW120065   5.879   2.844   3.246 -1.4018 -1.6844 -0.9891
 6155SOL    HW220066   5.809   2.917   3.375  0.8795 -2.3589  0.6985
 6156SOL     OW20067   3.290   3.478   5.224 -0.0912 -0.0180  0.1930
 6156SOL    HW120068   3.216   3.426   5.266 -0.4052  0.7119  0.5668
 6156SOL    HW220069   3.288   3.466   5.125 -1.2920  0.7092  0.1081
 6157SOL     OW20070   4.279   4.877   2.576 -0.5100  0.0697  0.2180
 6157SOL    HW120071   4.336   4.958   2.566  0.0300 -0.2657  0.5637
 6157SOL    HW220072   4.335   4.795   2.568 -0.6977 -0.2568  1.9205
 6158SOL     OW20073   2.238   0.644   5.573  0.5083  0.0782 -0.5956
 6158SOL    HW120074   2.202   0.567   5.626  2.0519 -0.3484 -0.0884
 6158SOL    HW220075   2.290   0.704   5.634 -0.9554  1.7330 -0.9238
 6159SOL     OW20076   6.709   4.236   4.643 -0.2335 -0.0290  0.3038
 6159SOL    HW120077   6.696   4.204   4.737 -1.1612  0.7851  0.4616
 6159SOL    HW220078   6.777   4.310   4.642 -1.3612  1.0330  0.5673
 6160SOL     OW20079   6.530   2.778   0.363  0.1663  0.1573 -0.0681
 6160SOL    HW120080   6.454   2.832   0.398 -1.0846 -0.0612 -2.2630
 6160SOL    HW220081   6.616   2.813   0.400 -0.9540  0.3152  2.6050
 6161SOL     OW20082   4.616   6.160   1.688  0.2795  0.3851 -0.4431
 6161SOL    HW120083   4.664   6.197   1.608 -1.8012  2.1976 -0.9383
 6161SOL    HW220084   4.544   6.097   1.659 -2.3975  3.1914 -0.3611
 6162SOL     OW20085   0.724   6.937   4.844  0.6932  0.1199  0.3538
 6162SOL    HW120086   0.771   6.854   4.813  1.7568  0.8310  0.0108
 6162SOL    HW220087   0.779   6.984   4.912 -0.6523 -0.2842  1.7796
 6163SOL     OW20088   3.276   6.934   6.874 -0.3830  0.0277 -0.1589
 6163SOL    HW120089   3.272   6.914   6.776 -1.5894  2.2575 -0.6365
 6163SOL    HW220090   3.266   6.849   6.926 -3.5888 -0.8926 -1.9685
 6164SOL     OW20091   5.419   4.282   5.807  0.2933  1.0091 -0.1247
 6164SOL    HW120092   5.473   4.199   5.797  0.0666  1.1291 -3.1803
 6164SOL    HW220093   5.480   4.360   5.820  0.6277  0.7093  0.1557
 6165SOL     OW20094   6.852   2.213   0.651 -0.3964  0.6354 -0.2134
 6165SOL    HW120095   6.779   2.257   0.704  0.1070 -1.1659  2.1371
 6165SOL    HW220096   6.813   2.142   0.593 -0.6288  0.3011  0.3438
 6166SOL     OW20097   3.226   5.317   1.498  0.4390 -0.0035  0.3153
 6166SOL    HW120098   3.320   5.306   1.531  0.4744 -0.4873  0.0524
 6166SOL    HW220099   3.180   5.228   1.497  0.1233  0.1628  0.0000
 6167SOL     OW20100   1.947   1.615   5.124 -0.0197 -0.7003 -0.9856
 6167SOL    HW120101   1.891   1.548   5.075  2.0071 -2.5581 -0.9217
 6167SOL    HW220102   1.944   1.703   5.075 -1.4573 -1.2538 -1.9882
 6168SOL     OW20103   3.233   2.865   5.221  0.5998  0.6961  1.2933
 6168SOL    HW120104   3.231   2.862   5.321  0.2522  2.0923  1.3529
 6168SOL    HW220105   3.326   2.845   5.189  0.7618  0.4428  1.9004
 6169SOL     OW20106   3.467   1.001   2.316 -0.1458 -0.0893  0.3637
 6169SOL    HW120107   3.418   0.920   2.285 -1.6346  0.2077  1.7827
 6169SOL    HW220108   3.425   1.035   2.401  1.0171  1.6243  0.3050
 6170SOL     OW20109   3.718   3.211   3.496 -0.0549  0.3509  0.3741
 6170SOL    HW120110   3.744   3.239   3.403 -2.6640 -1.9480 -1.1984
 6170SOL    HW220111   3.742   3.115   3.509 -0.0085  0.5612  2.0088
 6171SOL     OW20112   0.463   3.334   5.345 -0.2283  0.4190 -0.9353
 6171SOL    HW120113   0.463   3.403   5.272 -1.6664  0.7947 -0.6130
 6171SOL    HW220114   0.441   3.379   5.432 -0.3069 -0.3099 -0.5759
 6172SOL     OW20115   0.196   0.834   4.950  0.1183 -0.7437 -0.2467
 6172SOL    HW120116   0.199   0.915   5.009 -0.4976 -1.2078  0.4392
 6172SOL    HW220117   0.101   0.808   4.935  0.1683  0.1944 -2.6264
 6173SOL     OW20118   4.123   4.019   6.193 -0.0623 -0.3645 -0.2931
 6173SOL    HW120119   4.139   3.924   6.167 -0.4168 -0.5481  0.1455
 6173SOL    HW220120   4.129   4.077   6.111  1.6632 -0.5499 -0.3426
 6174SOL     OW20121   3.221   0.773   2.740  0.1239 -0.3052  0.0821
 6174SOL    HW120122   3.216   0.811   2.648  1.4191 -1.2219 -0.4044
 6174SOL    HW220123   3.129   0.764   2.778 -0.3271  1.6593 -0.4299
 6175SOL     OW20124   2.477   4.294   1.498 -0.0272  0.0751 -0.0163
 6175SOL    HW120125   2.559   4.263   1.546  0.5388  0.3076 -0.8058
 6175SOL    HW220126   2.496   4.298   1.400 -1.7038 -2.1101 -0.5004
 6176SOL     OW20127   0.179   6.330   3.335  0.1699  0.6658 -0.4095
 6176SOL    HW120128   0.223   6.384   3.407  0.9976 -2.3440  1.5624
 6176SOL    HW220129   0.245   6.266   3.296 -1.4620 -1.3923 -0.0248
 6177SOL     OW20130   4.841   1.848   1.778  0.1840  0.1770 -0.7197
 6177SOL    HW120131   4.796   1.910   1.842  1.6997  1.6585 -1.0293
 6177SOL    HW220132   4.894   1.780   1.828  0.2824  0.4929 -0.3975
 6178SOL     OW20133   5.515   4.495   6.487  0.0658 -0.1685  0.2003
 6178SOL    HW120134   5.552   4.454   6.571  0.0221 -0.7622 -0.0693
 6178SOL    HW220135   5.582   4.487   6.414 -1.3457 -3.2637 -0.9169
 6179SOL     OW20136   2.010   3.744   5.443  0.5856 -0.1697  0.1942
 6179SOL    HW120137   2.023   3.707   5.535  1.2931  0.6297  0.4326
 6179SOL    HW220138   2.034   3.841   5.443 -4.8689  1.5469  0.5539
 6180SOL     OW20139   0.438   5.822   2.147  0.3939 -0.0753  0.1148
 6180SOL    HW120140   0.404   5.902   2.097  0.0373  1.5412  2.7261
 6180SOL    HW220141   0.364   5.782   2.201  0.9537 -1.1677  0.0942
 6181SOL     OW20142   1.141   6.747   0.135  0.6685 -0.3137  0.1662
 6181SOL    HW120143   1.051   6.752   0.179  0.3424 -3.5963  0.1625
 6181SOL    HW220144   1.183   6.837   0.134 -1.5571  0.8777  2.4044
 6182SOL     OW20145   3.925   1.300   4.717 -0.0691  0.5456 -0.0874
 6182SOL    HW120146   3.867   1.251   4.652 -0.1207  2.0961 -1.2654
 6182SOL    HW220147   4.004   1.339   4.669  0.9041  0.1540  1.1352
 6183SOL     OW20148   3.083   6.904   0.201  0.2985  0.4747  0.6444
 6183SOL    HW120149   3.082   6.900   0.301  0.0647  0.1702  0.6318
 6183SOL    HW220150   3.020   6.975   0.169  2.3015  2.4353  0.7834
 6184SOL     OW20151   5.540   3.867   3.094 -0.2039  1.0085 -0.0598
 6184SOL    HW120152   5.632   3.844   3.062 -0.3395  0.1832  0.1297
 6184SOL    HW220153   5.548   3.921   3.178  0.1125  1.5885 -0.4518
 6185SOL     OW20154   5.035   4.668   2.267  0.1005 -0.0969 -0.1108
 6185SOL    HW120155   5.010   4.668   2.170  0.9656 -1.0832 -0.3357
 6185SOL    HW220156   5.000   4.586   2.310 -0.0075  0.1902  0.3509
 6186SOL     OW20157   4.095   3.378   3.217  0.0976 -0.2546 -0.0459
 6186SOL    HW120158   4.003   3.416   3.230  0.2996  0.7183 -1.2231
 6186SOL    HW220159   4.100   3.333   3.128  0.1425 -2.3006  0.9472
 6187SOL     OW20160   5.567   6.093   5.108  0.0768  0.3740  0.1827
 6187SOL    HW120161   5.535   6.139   5.026  0.9599 -0.1533 -0.4685
 6187SOL    HW220162   5.648   6.038   5.087 -1.4137 -2.2026  0.7114
 6188SOL     OW20163   5.288   6.999   0.732  0.4028 -0.2585 -0.0079
 6188SOL    HW120164   5.251   7.082   0.692  0.6089 -0.8676 -1.5168
 6188SOL    HW220165   5.215   6.932   0.746  0.3926 -0.1876  0.2877
 6189SOL     OW20166   2.881   0.487   4.954  0.6123  0.4087 -0.6716
 6189SOL    HW120167   2.878   0.539   4.868  2.3006  0.1338 -0.9364
 6189SOL    HW220168   2.965   0.432   4.956 -1.4495 -3.1009 -0.8578
 6190SOL     OW20169   4.533   2.451   6.858  0.0610  0.3105  0.5460
 6190SOL    HW120170   4.524   2.538   6.810 -0.6240  0.1920  0.4383
 6190SOL    HW220171   4.446   2.429   6.903 -0.3301 -1.0909 -0.7830
 6191SOL     OW20172   0.009   3.104   3.897  0.7537 -0.0547  0.2601
 6191SOL    HW120173   0.025   3.006   3.892  1.3423  0.0712 -0.6498
 6191SOL    HW220174   0.082   3.147   3.950  0.3011 -0.1440  0.9648
 6192SOL     OW20175   1.810   0.749   5.617  0.3087  0.0073  0.0882
 6192SOL    HW120176   1.820   0.837   5.569 -0.0651 -0.2981 -0.5644
 6192SOL    HW220177   1.715   0.719   5.610  0.4207 -0.4119  0.3824
 6193SOL     OW20178   1.806   3.227   6.842 -0.3887  0.0376 -0.3544
 6193SOL    HW120179   1.881   3.265   6.789 -1.3539  2.3554 -0.1844
 6193SOL    HW220180   1.830   3.229   6.939 -0.4011  0.1266 -0.3530
 6194SOL     OW20181   4.611   5.006   4.324 -0.2029 -0.1328  0.3060
 6194SOL    HW120182   4.546   5.000   4.248 -0.3175  0.1668  0.3757
 6194SOL    HW220183   4.569   5.059   4.398 -0.1393 -0.5358  0.6276
 6195SOL     OW20184   5.501   6.318   2.588  0.1453  0.1880 -0.3923
 6195SOL    HW120185   5.581   6.275   2.547 -1.5877 -0.5468 -3.3209
 6195SOL    HW220186   5.447   6.364   2.517 -0.6716  3.0446  1.8762
 6196SOL     OW20187   3.244   0.422   3.158  0.1945  0.0382 -0.3063
 6196SOL    HW120188   3.151   0.389   3.140 -0.2486  1.9192 -1.8964
 6196SOL    HW220189   3.289   0.362   3.224 -1.7078 -1.6266 -0.4249
 6197SOL     OW20190   4.436   4.883   6.217 -0.2199  0.0744 -0.3454
 6197SOL    HW120191   4.357   4.822   6.225  0.3958 -0.7089 -0.1454
 6197SOL    HW220192   4.405   4.974   6.189 -1.3341  0.1474  1.0479
 6198SOL     OW20193   4.488   6.249   6.957 -0.5721  0.5279 -0.6830
 6198SOL    HW120194   4.445   6.178   7.012  0.4824  0.6370  0.3090
 6198SOL    HW220195   4.510   6.213   6.866  0.4004 -0.5887 -0.0305
 6199SOL     OW20196   1.745   5.558   3.819 -0.0140  0.0636 -0.3051
 6199SOL    HW120197   1.810   5.588   3.749  0.4491  0.7202  0.3902
 6199SOL    HW220198   1.791   5.551   3.907 -0.1914 -2.3577 -0.3285
 6200SOL     OW20199   5.659   6.123   6.382 -0.1539  0.2711  0.9347
 6200SOL    HW120200   5.634   6.108   6.286  1.6148 -0.8633  0.6084
 6200SOL    HW220201   5.605   6.198   6.419 -1.1287  0.4938 -0.8480
 6201SOL     OW20202   1.818   3.494   4.811  0.1421 -0.0726  0.8954
 6201SOL    HW120203   1.767   3.408   4.804 -0.9932  0.6640 -0.4147
 6201SOL    HW220204   1.860   3.500   4.901  0.3375 -2.0381  0.9901
 6202SOL     OW20205   1.638   4.292   1.553  0.0445 -0.1614 -0.8190
 6202SOL    HW120206   1.552   4.273   1.506 -0.3272  0.3435 -0.3582
 6202SOL    HW220207   1.643   4.389   1.578  0.7503 -0.1798 -0.8427
 6203SOL     OW20208   3.255   3.821   0.531  0.2007 -0.0738 -0.3442
 6203SOL    HW120209   3.354   3.832   0.529  0.0984  1.9418  1.6200
 6203SOL    HW220210   3.211   3.908   0.509 -1.0874 -0.4984  0.4198
 6204SOL     OW20211   5.586   1.427   3.072  0.0743 -0.4104  0.0121
 6204SOL    HW120212   5.533   1.438   2.988 -1.0402 -1.2243  0.5815
 6204SOL    HW220213   5.549   1.350   3.124  0.3391  0.4820  1.5582
 6205SOL     OW20214   6.549   6.084   3.062 -0.3254 -0.0195 -0.2428
 6205SOL    HW120215   6.540   5.990   3.093  1.7111 -0.2651 -0.2875
 6205SOL    HW220216   6.534   6.146   3.140  0.2533 -0.4650  0.2337
 6206SOL     OW20217   5.467   6.362   6.829  0.2862  0.6763 -0.4372
 6206SOL    HW120218   5.380   6.409   6.847 -0.4399 -0.3834 -1.0556
 6206SOL    HW220219   5.470   6.277   6.882  1.1787  0.9557 -0.0327
 6207SOL     OW20220   1.477   0.416   1.135  0.0874  0.6263  0.5008
 6207SOL    HW120221   1.536   0.493   1.159  1.3938 -0.4516  0.8872
 6207SOL    HW220222   1.492   0.392   1.039 -1.0065  1.4016  0.1095
 6208SOL     OW20223   4.037   5.949   0.708 -0.5169 -0.0314 -0.8514
 6208SOL    HW120224   4.004   6.000   0.787  0.5427 -0.5454 -0.0520
 6208SOL    HW220225   4.066   6.013   0.636  0.5379  0.5146  0.0274
 6209SOL     OW20226   4.456   3.990   3.826  0.1887  0.1807 -0.1188
 6209SOL    HW120227   4.429   4.019   3.734 -0.9903 -2.1098 -0.5608
 6209SOL    HW220228   4.379   4.001   3.888  0.8656  1.3613  0.5403
 6210SOL     OW20229   3.844   3.059   3.233  0.0520 -0.2262  0.2587
 6210SOL    HW120230   3.766   3.011   3.274  0.5045  1.0755  2.8883
 6210SOL    HW220231   3.811   3.125   3.165 -1.1699  0.2929  1.3162
 6211SOL     OW20232   3.605   2.268   6.997 -0.2669  0.3861  0.1441
 6211SOL    HW120233   3.641   2.205   7.066 -1.2073  0.3850  0.6508
 6211SOL    HW220234   3.610   2.361   7.032  0.8265  0.5772 -0.4785
 6212SOL     OW20235   4.442   5.069   1.595 -0.2004  0.2673 -0.0841
 6212SOL    HW120236   4.373   5.136   1.621  0.1919  1.0108 -0.9075
 6212SOL    HW220237   4.402   5.001   1.534 -0.3578  0.3254 -0.0454
 6213SOL     OW20238   4.143   2.881   1.165  0.0667 -0.4034  0.3589
 6213SOL    HW120239   4.137   2.822   1.245  0.6035 -1.0523 -0.0734
 6213SOL    HW220240   4.216   2.849   1.104  0.5770  0.8744  0.2592
 6214SOL     OW20241   0.045   0.284   3.289  0.0393 -0.0949  0.0253
 6214SOL    HW120242  -0.054   0.272   3.297  0.2073 -1.1736  0.8806
 6214SOL    HW220243   0.085   0.200   3.254  0.5155  0.9007 -1.9316
 6215SOL     OW20244   4.319   1.430   3.258 -0.2454  0.1488  0.4366
 6215SOL    HW120245   4.325   1.490   3.177  1.7401  1.4027  1.4237
 6215SOL    HW220246   4.352   1.480   3.338 -0.1391 -1.7585  1.6282
 6216SOL     OW20247   2.237   5.764   0.536  0.0492  0.2225  0.2557
 6216SOL    HW120248   2.207   5.856   0.560  0.4934  0.3758  0.2274
 6216SOL    HW220249   2.268   5.717   0.619  0.1560  0.2196  0.2134
 6217SOL     OW20250   5.372   1.749   1.816  0.0155 -0.1855  0.0318
 6217SOL    HW120251   5.333   1.666   1.776  1.5669 -1.5075  1.1677
 6217SOL    HW220252   5.299   1.802   1.859 -0.9025 -1.3029 -0.0879
 6218SOL     OW20253   0.342   6.534   1.951  0.2306  0.3342  0.2096
 6218SOL    HW120254   0.395   6.589   2.017  1.8972 -0.6405 -0.2582
 6218SOL    HW220255   0.403   6.471   1.904 -0.7263  1.5115 -2.8723
 6219SOL     OW20256   2.003   5.437   1.408 -0.5512  0.6161  0.2240
 6219SOL    HW120257   2.029   5.448   1.504  2.6857  0.2688 -0.4992
 6219SOL    HW220258   2.017   5.342   1.380 -0.8138  0.8591 -0.7838
 6220SOL     OW20259   5.016   5.218   3.493  0.3558  0.1823  0.1597
 6220SOL    HW120260   4.992   5.304   3.449 -1.0725 -0.8499 -1.1721
 6220SOL    HW220261   4.961   5.206   3.575  0.1022  0.2449 -0.0004
 6221SOL     OW20262   5.992   2.693   0.485 -0.3714  0.0269  0.2218
 6221SOL    HW120263   5.957   2.708   0.392 -1.0959 -2.0049  0.1161
 6221SOL    HW220264   5.940   2.748   0.549  0.0663  1.3827 -0.5463
 6222SOL     OW20265   2.709   3.185   0.248  0.1519 -0.1849  0.2411
 6222SOL    HW120266   2.780   3.243   0.289 -0.9688  1.0766  0.4699
 6222SOL    HW220267   2.722   3.182   0.149 -0.5865  1.6677  0.0499
 6223SOL     OW20268   5.650   5.534   0.409 -0.1077  0.5495 -0.5834
 6223SOL    HW120269   5.713   5.611   0.422 -0.1396  0.5947 -0.6940
 6223SOL    HW220270   5.603   5.515   0.495 -0.2736  0.8084 -0.6153
 6224SOL     OW20271   3.663   5.541   3.658  0.1058 -0.0972  0.4041
 6224SOL    HW120272   3.713   5.624   3.632  0.4873 -0.1726  0.8914
 6224SOL    HW220273   3.724   5.462   3.649 -0.7073 -0.5395 -1.5749
 6225SOL     OW20274   1.826   0.259   1.150  0.1337  0.3234  0.0515
 6225SOL    HW120275   1.738   0.296   1.119 -0.9760 -0.9694  1.5282
 6225SOL    HW220276   1.853   0.303   1.236  1.0167  0.7819 -0.4383
 6226SOL     OW20277   5.256   2.939   5.294  0.0921  0.3364  0.4965
 6226SOL    HW120278   5.352   2.912   5.301  0.2739  0.8819  0.0964
 6226SOL    HW220279   5.236   2.969   5.201 -1.0033 -1.7945 -0.0120
 6227SOL     OW20280   1.143   3.056   5.921  0.0228 -0.2438  0.1486
 6227SOL    HW120281   1.129   3.087   5.827  2.6334 -0.5009 -0.3829
 6227SOL    HW220282   1.220   2.992   5.924 -0.5584 -0.9263  2.3538
 6228SOL     OW20283   5.327   1.631   2.572  0.2040 -0.1227  0.0563
 6228SOL    HW120284   5.380   1.715   2.558 -1.1247  0.8424  0.5901
 6228SOL    HW220285   5.386   1.560   2.610  1.5340  0.3132 -1.1152
 6229SOL     OW20286   2.129   5.727   3.196 -0.4961 -0.3390 -0.0824
 6229SOL    HW120287   2.059   5.672   3.240 -0.0329 -0.1588  0.9039
 6229SOL    HW220288   2.212   5.672   3.184 -0.4596 -0.2400 -0.2905
 6230SOL     OW20289   5.175   6.936   3.693 -0.3905  0.0641 -0.5830
 6230SOL    HW120290   5.140   7.028   3.712  1.0082  1.0094 -2.2122
 6230SOL    HW220291   5.109   6.885   3.639 -0.4508  0.7797 -1.1992
 6231SOL     OW20292   1.935   2.227   3.068 -0.2364  0.0133  0.4774
 6231SOL    HW120293   2.010   2.162   3.073  0.2861  0.5368 -0.2887
 6231SOL    HW220294   1.953   2.304   3.129  0.2758  0.5500 -0.3334
 6232SOL     OW20295   6.047   3.121   4.015 -0.1918 -0.2734  0.7289
 6232SOL    HW120296   5.961   3.105   3.967 -0.3874  0.5608  0.7820
 6232SOL    HW220297   6.103   3.038   4.012 -0.6215 -0.5457 -0.0733
 6233SOL     OW20298   1.451   2.868   3.983 -0.4031  0.3479 -0.5322
 6233SOL    HW120299   1.383   2.941   3.978 -0.8286 -0.0975 -1.7671
 6233SOL    HW220300   1.449   2.815   3.898  0.4927 -0.5681 -0.0085
 6234SOL     OW20301   6.106   2.974   5.209 -0.2949  0.4141  0.1534
 6234SOL    HW120302   6.105   2.890   5.153 -0.0109 -0.0161  0.7807
 6234SOL    HW220303   6.122   2.950   5.305 -3.2194  0.8898  0.8638
 6235SOL     OW20304   5.759   1.917   4.141  0.1698 -0.4363 -0.4202
 6235SOL    HW120305   5.704   1.906   4.059  0.1867 -0.3941 -0.4369
 6235SOL    HW220306   5.814   2.000   4.134 -0.5922  0.1273  0.0679
 6236SOL     OW20307   5.339   1.396   0.441  0.2878 -0.3017  0.3694
 6236SOL    HW120308   5.366   1.331   0.370 -0.8871  0.2296 -0.5874
 6236SOL    HW220309   5.250   1.434   0.420 -0.4208 -0.6175  2.4849
 6237SOL     OW20310   6.894   5.691   5.273  0.3104  0.3700 -0.2935
 6237SOL    HW120311   6.851   5.660   5.188 -0.1582  1.5270 -0.5077
 6237SOL    HW220312   6.950   5.771   5.253  0.6220  0.3246  0.4034
 6238SOL     OW20313   6.380   1.927   0.304  0.3806 -0.5207 -0.0305
 6238SOL    HW120314   6.432   1.962   0.225  0.7273  0.1031  0.4626
 6238SOL    HW220315   6.440   1.870   0.360  0.6795  0.5353  0.7633
 6239SOL     OW20316   1.176   1.544   0.159 -0.1496 -0.7109 -0.9960
 6239SOL    HW120317   1.080   1.538   0.132 -1.5869  2.2302  2.5447
 6239SOL    HW220318   1.224   1.609   0.099 -1.1210 -0.1311 -1.1639
 6240SOL     OW20319   0.166   2.208   0.828 -0.0479  0.1478 -0.2559
 6240SOL    HW120320   0.169   2.250   0.737 -1.9659  0.0633 -0.3958
 6240SOL    HW220321   0.220   2.124   0.827 -1.0620 -0.5435 -1.7189
 6241SOL     OW20322   6.520   4.631   5.208  0.0413 -0.1971 -0.2874
 6241SOL    HW120323   6.585   4.707   5.216 -1.5502  1.1503  0.5721
 6241SOL    HW220324   6.426   4.667   5.212 -0.7944 -2.3286  1.5054
 6242SOL     OW20325   1.569   5.381   3.681  0.2070  0.0174  0.4420
 6242SOL    HW120326   1.637   5.418   3.744  2.1782 -2.0644 -0.3355
 6242SOL    HW220327   1.615   5.343   3.600 -2.1219  1.2897 -1.6299
 6243SOL     OW20328   6.372   6.580   0.928 -0.3731  0.0640 -0.2383
 6243SOL    HW120329   6.456   6.559   0.977  0.2866 -1.2781 -1.8497
 6243SOL    HW220330   6.390   6.581   0.830 -2.2512 -0.2690 -0.6270
 6244SOL     OW20331   6.088   0.211   1.942  0.2434  0.0836 -0.0869
 6244SOL    HW120332   6.153   0.136   1.931 -0.5839 -0.9024  1.3891
 6244SOL    HW220333   6.003   0.176   1.982  0.3589  1.9935  2.0402
 6245SOL     OW20334   4.411   6.123   4.797 -0.7202 -0.0740 -0.3267
 6245SOL    HW120335   4.424   6.055   4.869 -0.8289 -1.0551 -1.1926
 6245SOL    HW220336   4.452   6.210   4.824 -1.1482 -0.2881  1.0831
 6246SOL     OW20337   6.892   4.040   5.028  0.0119  0.8597 -0.2102
 6246SOL    HW120338   6.937   4.030   5.116 -0.5395  0.4509  0.0290
 6246SOL    HW220339   6.841   3.957   5.006 -0.0572  1.0490 -0.8004
 6247SOL     OW20340   2.527   7.000   1.051 -0.1895 -0.4271 -0.3273
 6247SOL    HW120341   2.492   7.021   1.143 -0.8344 -0.1456 -0.6319
 6247SOL    HW220342   2.530   6.900   1.040 -0.7821 -0.4604 -0.2461
 6248SOL     OW20343   0.526   4.137   5.044  0.1914 -0.0123 -0.3684
 6248SOL    HW120344   0.589   4.085   5.102  0.2021 -2.3519 -2.2777
 6248SOL    HW220345   0.432   4.113   5.066  0.2025 -1.1532 -1.4186
 6249SOL     OW20346   0.382   4.534   5.236  0.4656  0.0218 -0.0117
 6249SOL    HW120347   0.412   4.630   5.237 -1.8043  0.7875  0.5196
 6249SOL    HW220348   0.447   4.480   5.183  1.7039  1.8887 -0.5117
 6250SOL     OW20349   0.086   3.692   4.712  0.0916 -0.2220 -0.3071
 6250SOL    HW120350   0.167   3.752   4.708  2.1074 -2.7778 -4.2565
 6250SOL    HW220351   0.073   3.660   4.806  4.9681 -1.1763  0.3045
 6251SOL     OW20352   2.430   0.736   4.231 -0.4238 -0.9011 -0.4527
 6251SOL    HW120353   2.431   0.651   4.283 -1.8914 -0.7243 -0.1106
 6251SOL    HW220354   2.415   0.716   4.135  3.8164 -1.3697 -1.2322
 6252SOL     OW20355   3.516   4.376   1.303  0.4088  0.7613  0.0474
 6252SOL    HW120356   3.525   4.278   1.286 -1.9163  0.8135 -2.0006
 6252SOL    HW220357   3.485   4.422   1.220  2.3393  3.4493  0.6667
 6253SOL     OW20358   1.215   1.228   3.318 -0.0483  0.1682  0.0070
 6253SOL    HW120359   1.140   1.241   3.383  0.4001 -1.1312  0.8252
 6253SOL    HW220360   1.214   1.133   3.285  1.8309 -0.1713  0.8256
 6254SOL     OW20361   2.141   6.033   0.529  0.1685 -0.4022  0.2113
 6254SOL    HW120362   2.117   6.093   0.606 -0.1092 -0.9633  0.5719
 6254SOL    HW220363   2.084   6.054   0.450  0.2213 -0.0510  0.2649
 6255SOL     OW20364   6.154   0.579   2.971 -0.9000  0.6554 -0.4737
 6255SOL    HW120365   6.083   0.574   3.041 -0.6575 -3.2029 -0.2946
 6255SOL    HW220366   6.113   0.562   2.881 -0.4514  0.2271 -0.5968
 6256SOL     OW20367   2.794   0.356   2.664 -0.8382  0.5234  0.0920
 6256SOL    HW120368   2.728   0.282   2.654 -0.5402  0.4405 -1.5456
 6256SOL    HW220369   2.753   0.429   2.719 -1.2844 -0.6393  1.3816
 6257SOL     OW20370   2.740   1.405   4.108  0.1024 -0.2727  0.5430
 6257SOL    HW120371   2.809   1.476   4.123 -0.6894  0.3814  1.2115
 6257SOL    HW220372   2.689   1.426   4.025  0.3203 -0.4380  0.3665
 6258SOL     OW20373   6.318   5.524   6.461 -0.5973 -0.1878 -0.0667
 6258SOL    HW120374   6.404   5.478   6.485  0.0862  1.0433 -0.0642
 6258SOL    HW220375   6.325   5.621   6.482 -2.1299 -0.1129  0.2579
 6259SOL     OW20376   6.047   1.333   6.438 -0.2993 -0.2989 -0.1291
 6259SOL    HW120377   6.133   1.349   6.390 -0.2354  3.4099  0.8708
 6259SOL    HW220378   5.973   1.382   6.391 -1.0999 -0.2855  1.0981
 6260SOL     OW20379   6.729   6.628   4.310 -0.1300 -0.4336 -0.2414
 6260SOL    HW120380   6.815   6.680   4.305  0.1828 -0.8811  0.2930
 6260SOL    HW220381   6.706   6.593   4.219 -0.1090  0.2585 -0.5189
 6261SOL     OW20382   4.088   6.662   6.167  0.3934  0.4922 -0.1992
 6261SOL    HW120383   4.058   6.638   6.075 -1.0211  0.3063  0.2848
 6261SOL    HW220384   4.049   6.597   6.232  1.3687  0.6284  0.5436
 6262SOL     OW20385   3.105   6.825   2.161 -0.5015  0.4713  0.3052
 6262SOL    HW120386   3.073   6.898   2.221 -0.9948  0.4745  0.0448
 6262SOL    HW220387   3.149   6.753   2.215 -0.2661  0.8247  0.5907
 6263SOL     OW20388   5.368   4.163   5.364  0.1316  0.4480  0.1376
 6263SOL    HW120389   5.296   4.113   5.314 -0.9050  1.6749  0.3570
 6263SOL    HW220390   5.442   4.186   5.301 -0.1387  0.0742 -0.3312
 6264SOL     OW20391   0.256   1.519   6.611  0.2713 -0.0216  0.1859
 6264SOL    HW120392   0.164   1.497   6.643 -0.5209  0.6755 -1.4744
 6264SOL    HW220393   0.253   1.541   6.513  2.3748 -0.9367 -0.1418
 6265SOL     OW20394   0.368   6.433   0.465  0.4870 -0.2216  0.4496
 6265SOL    HW120395   0.363   6.369   0.388 -0.9724 -0.0355  0.3447
 6265SOL    HW220396   0.462   6.439   0.499  0.9371 -1.1713 -0.5843
 6266SOL     OW20397   5.471   6.251   5.298 -0.1605  0.1005  0.5064
 6266SOL    HW120398   5.477   6.230   5.396  0.1191  2.3624  1.0253
 6266SOL    HW220399   5.506   6.174   5.246  1.5700 -0.3822  2.2593
 6267SOL     OW20400   2.578   5.309   5.275 -0.0091  0.4149  0.4383
 6267SOL    HW120401   2.664   5.361   5.266  0.7550 -0.7615  0.7381
 6267SOL    HW220402   2.523   5.322   5.193  1.2867 -0.2565 -0.5841
 6268SOL     OW20403   4.872   2.760   6.548  0.3506 -0.0523  0.8869
 6268SOL    HW120404   4.866   2.853   6.513 -1.9088 -0.1934  0.7245
 6268SOL    HW220405   4.957   2.748   6.599  1.4734  1.5675 -0.5267
 6269SOL     OW20406   6.680   5.359   4.824  0.0248  0.4178 -0.8230
 6269SOL    HW120407   6.753   5.414   4.783  0.1776 -0.5544 -1.9188
 6269SOL    HW220408   6.600   5.416   4.839  0.6065  1.2273 -0.7267
 6270SOL     OW20409   0.195   0.231   3.714 -0.0710  0.4458 -0.3724
 6270SOL    HW120410   0.256   0.211   3.791  0.1992  3.0360  0.1835
 6270SOL    HW220411   0.210   0.164   3.642  2.0225 -0.1680  0.5371
 6271SOL     OW20412   5.445   2.178   4.145  0.4216  0.2251 -0.5549
 6271SOL    HW120413   5.390   2.228   4.078 -0.1752 -1.5162 -1.4292
 6271SOL    HW220414   5.433   2.080   4.131  2.8397 -0.2177 -0.0046
 6272SOL     OW20415   5.978   5.011   4.825 -0.2182  0.0022 -0.2007
 6272SOL    HW120416   6.013   4.919   4.841 -1.0037  0.0426  2.0082
 6272SOL    HW220417   5.880   5.013   4.841 -0.1358  1.3245  0.2632
 6273SOL     OW20418   1.553   0.267   2.221 -0.4213 -0.2601  0.8419
 6273SOL    HW120419   1.491   0.234   2.150 -0.8667  1.1161  0.5593
 6273SOL    HW220420   1.520   0.237   2.311 -1.1018 -0.1487  0.6348
 6274SOL     OW20421   1.161   5.663   0.167  0.1151 -0.0026 -0.1248
 6274SOL    HW120422   1.120   5.639   0.255 -1.1245 -0.9612 -0.9254
 6274SOL    HW220423   1.160   5.583   0.107  1.2700  0.5370 -0.9012
 6275SOL     OW20424   0.041   3.881   3.840 -0.0587  0.1706 -0.2488
 6275SOL    HW120425   0.122   3.915   3.792 -0.4307  0.5685 -0.6131
 6275SOL    HW220426   0.065   3.801   3.894  0.6783  0.5635  0.0226
 6276SOL     OW20427   5.765   0.641   4.155 -0.3679  0.0404  0.1339
 6276SOL    HW120428   5.765   0.608   4.061 -0.6650  0.9156 -0.1863
 6276SOL    HW220429   5.856   0.628   4.194 -0.7434 -2.1410  0.4079
 6277SOL     OW20430   6.454   4.940   4.459 -0.1379  0.3606  0.0328
 6277SOL    HW120431   6.448   4.877   4.537  0.9223 -0.7200 -0.7044
 6277SOL    HW220432   6.539   4.993   4.467 -0.3711  0.7374 -0.0295
 6278SOL     OW20433   2.403   0.267   0.505  0.4698 -0.3870  0.1937
 6278SOL    HW120434   2.336   0.245   0.434  0.1618 -1.2415  0.7456
 6278SOL    HW220435   2.356   0.297   0.587  0.8449  1.1953 -0.1329
 6279SOL     OW20436   1.923   6.696   4.559 -0.3384 -0.1816  0.1596
 6279SOL    HW120437   1.950   6.610   4.515  0.4205 -0.5716  1.3477
 6279SOL    HW220438   1.991   6.722   4.627 -0.6811  1.2569 -0.0176
 6280SOL     OW20439   0.855   2.908   5.905  0.3931  0.2461 -0.6761
 6280SOL    HW120440   0.952   2.898   5.928  0.2454 -1.2047 -0.5591
 6280SOL    HW220441   0.837   2.864   5.817 -0.3203 -0.3868 -0.2316
 6281SOL     OW20442   4.585   3.739   3.597 -0.1108 -0.0835  0.4691
 6281SOL    HW120443   4.548   3.786   3.677  1.3557  0.2402  0.9959
 6281SOL    HW220444   4.683   3.759   3.589  0.3100 -2.1227  0.0279
 6282SOL     OW20445   1.077   4.725   3.747 -0.3369  0.2736 -0.0450
 6282SOL    HW120446   0.983   4.738   3.777 -0.1638 -0.7336  1.0140
 6282SOL    HW220447   1.119   4.814   3.728 -0.9293  0.8690  1.3039
 6283SOL     OW20448   4.973   3.984   5.014  0.0643  0.5063 -0.1002
 6283SOL    HW120449   5.041   4.029   4.956  0.1758  1.1273  0.4997
 6283SOL    HW220450   4.991   4.006   5.110 -0.7098  0.2923  0.1014
 6284SOL     OW20451   0.418   4.706   2.902 -0.6536  0.1603 -0.2614
 6284SOL    HW120452   0.374   4.631   2.853  0.1919 -0.8417  0.4740
 6284SOL    HW220453   0.426   4.683   2.999 -1.8232  1.8871  0.3102
 6285SOL     OW20454   3.393   2.540   2.060  0.4604 -0.6826  0.6445
 6285SOL    HW120455   3.294   2.527   2.068  0.2720  0.2247 -0.0990
 6285SOL    HW220456   3.440   2.474   2.118 -0.5939 -0.8442  1.3320
 6286SOL     OW20457   1.923   0.229   0.660  0.0217 -0.3814 -0.5587
 6286SOL    HW120458   1.935   0.280   0.575 -1.6559 -0.0220 -0.6146
 6286SOL    HW220459   1.829   0.198   0.667  0.7011 -2.4373  0.0725
 6287SOL     OW20460   3.640   5.147   0.713 -0.3317 -0.8045  0.8608
 6287SOL    HW120461   3.658   5.237   0.674 -1.3804 -0.2268  1.6688
 6287SOL    HW220462   3.716   5.120   0.772 -0.7795  0.3399  1.9993
 6288SOL     OW20463   2.384   1.719   2.068 -0.3102 -0.3440  0.2070
 6288SOL    HW120464   2.438   1.797   2.036  0.5723 -0.9645  0.1433
 6288SOL    HW220465   2.426   1.634   2.036 -0.6012 -0.8982  1.2430
 6289SOL     OW20466   3.166   2.340   6.287  0.1470  0.7503 -0.0013
 6289SOL    HW120467   3.135   2.260   6.236  0.2865 -0.6482  2.0026
 6289SOL    HW220468   3.177   2.418   6.224  0.8137 -0.9885 -2.1561
 6290SOL     OW20469   0.157   0.469   2.511 -0.0727  0.2384 -0.8163
 6290SOL    HW120470   0.137   0.379   2.474  0.7167 -0.3617  0.1813
 6290SOL    HW220471   0.247   0.469   2.555 -1.2322  0.6932  1.7488
 6291SOL     OW20472   2.965   4.386   0.144 -0.0497  0.5104 -0.7062
 6291SOL    HW120473   2.866   4.388   0.131 -0.3270 -1.5260  0.5722
 6291SOL    HW220474   2.986   4.416   0.238  0.1438 -2.3481  0.2680
 6292SOL     OW20475   3.359   6.898   2.047 -0.4975  0.1966  0.0637
 6292SOL    HW120476   3.283   6.834   2.059 -0.2318 -0.2794 -0.6962
 6292SOL    HW220477   3.343   6.953   1.965  0.1210 -0.1343 -0.2902
 6293SOL     OW20478   0.346   3.287   3.276  0.0127  0.6055  0.3214
 6293SOL    HW120479   0.305   3.347   3.207  3.6501  0.6066 -2.0859
 6293SOL    HW220480   0.402   3.342   3.339 -0.3094  0.1773  1.0000
 6294SOL     OW20481   4.708   4.593   0.926  0.8581 -0.4463 -0.1520
 6294SOL    HW120482   4.661   4.507   0.905 -1.1206  0.9615 -1.9037
 6294SOL    HW220483   4.733   4.639   0.841 -1.4556  2.3849  0.5558
 6295SOL     OW20484   5.260   3.775   3.443  0.7376 -0.5234  0.3113
 6295SOL    HW120485   5.297   3.695   3.491 -1.8041 -1.5203  0.7983
 6295SOL    HW220486   5.272   3.764   3.345 -3.4165 -3.9221 -0.1248
 6296SOL     OW20487   4.685   5.490   1.393  0.0639 -0.0118 -0.0307
 6296SOL    HW120488   4.588   5.478   1.373 -0.0551 -1.3548  1.1633
 6296SOL    HW220489   4.701   5.473   1.490  1.4187  0.7126 -0.1098
 6297SOL     OW20490   0.742   5.762   6.148  0.0017 -0.3939  0.4348
 6297SOL    HW120491   0.677   5.790   6.077 -0.2034 -0.0917  0.7448
 6297SOL    HW220492   0.761   5.664   6.138 -0.3769 -0.4487  0.2453
 6298SOL     OW20493   3.210   0.756   1.966 -0.1819 -0.1707  0.0626
 6298SOL    HW120494   3.205   0.814   2.047 -1.0892 -0.2988  0.1040
 6298SOL    HW220495   3.224   0.813   1.885 -1.8044  0.1939  0.0102
 6299SOL     OW20496   1.593   4.409   2.220 -0.1504  0.7479 -0.1101
 6299SOL    HW120497   1.594   4.369   2.128 -3.1301  0.1692 -0.0121
 6299SOL    HW220498   1.651   4.354   2.281 -1.1606 -1.2456 -0.8419
 6300SOL     OW20499   3.277   2.528   5.322 -0.2349  0.0035  0.1529
 6300SOL    HW120500   3.354   2.516   5.260  0.4554  1.3322  0.7139
 6300SOL    HW220501   3.310   2.547   5.414 -1.2470 -0.0671  0.5515
 6301SOL     OW20502   6.062   3.191   3.424  0.3290 -0.3658 -0.4622
 6301SOL    HW120503   6.111   3.278   3.423  0.0442 -0.1925  0.1722
 6301SOL    HW220504   5.986   3.194   3.359  0.7361 -0.3865 -0.9379
 6302SOL     OW20505   3.133   5.622   6.096 -0.0071  0.5864 -0.5053
 6302SOL    HW120506   3.081   5.647   6.015 -2.3639 -1.0266  0.3866
 6302SOL    HW220507   3.211   5.684   6.107 -1.2796  2.6489 -2.3463
 6303SOL     OW20508   6.947   0.603   1.017  0.2030 -0.3292  0.4716
 6303SOL    HW120509   7.025   0.602   0.954  0.1436 -0.9118  0.4067
 6303SOL    HW220510   6.877   0.539   0.985 -0.4699  0.4609  0.3189
 6304SOL     OW20511   6.351   6.919   0.468 -0.5013 -0.0151 -0.3102
 6304SOL    HW120512   6.276   6.935   0.533  0.8572  0.6074  1.1729
 6304SOL    HW220513   6.369   7.003   0.417 -0.0968  0.1787  0.1409
 6305SOL     OW20514   4.123   1.792   1.976 -0.2517 -0.3369 -0.4492
 6305SOL    HW120515   4.063   1.727   1.929 -1.0792  2.0130 -2.8975
 6305SOL    HW220516   4.093   1.885   1.958  2.6448  0.8926  0.3867
 6306SOL     OW20517   5.243   1.296   4.928 -0.2865 -1.0785  0.1579
 6306SOL    HW120518   5.240   1.391   4.896 -1.8138 -0.9518  0.5654
 6306SOL    HW220519   5.338   1.267   4.937  0.2198  0.4229  0.0503
 6307SOL     OW20520   6.483   1.222   6.068 -0.1823  0.0703  0.3742
 6307SOL    HW120521   6.429   1.306   6.067 -1.1832 -0.5437 -0.0762
 6307SOL    HW220522   6.453   1.164   6.144  0.2236 -0.0469  0.4461
 6308SOL     OW20523   3.341   4.370   5.152  0.1602 -0.4651  0.2188
 6308SOL    HW120524   3.320   4.280   5.190  0.4930 -0.2453  0.9337
 6308SOL    HW220525   3.297   4.441   5.207  0.2754 -0.1633 -0.0742
 6309SOL     OW20526   1.076   3.033   5.335 -0.2530 -0.5538  1.2969
 6309SOL    HW120527   1.086   3.034   5.235 -0.0822  1.5491  1.2915
 6309SOL    HW220528   1.111   2.946   5.371 -2.2472 -2.2918 -0.6079
 6310SOL     OW20529   4.874   0.051   2.279 -0.0737 -0.5349  0.5069
 6310SOL    HW120530   4.949   0.023   2.340  0.2930  1.3184  0.9649
 6310SOL    HW220531   4.806   0.101   2.332 -0.8719 -0.8470 -0.2172
 6311SOL     OW20532   5.985   2.396   0.526  0.2238  0.1138  0.3749
 6311SOL    HW120533   5.965   2.491   0.552 -0.8902 -0.4378  1.6692
 6311SOL    HW220534   6.039   2.395   0.442  0.4020  1.8956  0.4318
 6312SOL     OW20535   3.877   0.953   3.121 -0.3370 -0.1187 -0.5086
 6312SOL    HW120536   3.906   1.028   3.062 -0.5547 -0.2730 -0.8183
 6312SOL    HW220537   3.941   0.943   3.197 -0.0184  0.0422 -0.7541
 6313SOL     OW20538   2.010   2.373   6.743  0.1880  0.2622  0.1432
 6313SOL    HW120539   1.988   2.313   6.666 -1.1013  1.4248 -0.4492
 6313SOL    HW220540   2.094   2.343   6.787  0.7606 -0.6363 -1.5100
 6314SOL     OW20541   1.842   1.980   0.600 -0.9182 -0.3634 -0.5589
 6314SOL    HW120542   1.875   2.038   0.526  1.6211 -2.6439 -1.4106
 6314SOL    HW220543   1.777   1.913   0.564 -2.0675  0.4344 -0.0383
 6315SOL     OW20544   4.108   0.187   3.994  0.3538  0.1808  0.3111
 6315SOL    HW120545   4.184   0.132   3.958  0.4623  0.8578 -0.5084
 6315SOL    HW220546   4.128   0.213   4.089  0.4545 -0.8973  0.6028
 6316SOL     OW20547   6.991   1.133   0.628  0.3992 -0.0006  0.6959
 6316SOL    HW120548   7.045   1.126   0.545  0.3054  0.8468  0.5511
 6316SOL    HW220549   7.051   1.157   0.705  0.6129 -1.5560  1.0468
 6317SOL     OW20550   3.975   3.887   5.488 -0.3281  0.1820 -0.2905
 6317SOL    HW120551   4.023   3.804   5.459  1.0740  0.4033  1.2544
 6317SOL    HW220552   4.032   3.967   5.471 -1.6281  0.8556 -1.6627
 6318SOL     OW20553   0.156   6.394   6.862  0.0734 -0.3247 -0.0600
 6318SOL    HW120554   0.122   6.449   6.786 -0.6489 -2.5931 -1.4969
 6318SOL    HW220555   0.090   6.395   6.937  0.1137  0.7625 -0.0231
 6319SOL     OW20556   4.090   5.172   1.015  0.5659 -0.2680 -0.2259
 6319SOL    HW120557   4.183   5.148   0.987  0.3546 -0.2856 -0.9379
 6319SOL    HW220558   4.032   5.179   0.934  0.1806  0.7554  0.1205
 6320SOL     OW20559   4.015   0.452   5.780  0.6643  0.2044 -0.5736
 6320SOL    HW120560   3.951   0.529   5.788  0.8830  0.4452 -1.0860
 6320SOL    HW220561   4.084   0.473   5.711  1.3221 -0.0376 -0.0092
 6321SOL     OW20562   0.005   4.961   3.927 -0.1288 -0.4364 -0.0304
 6321SOL    HW120563   0.026   4.972   3.830  0.6544  0.6252  0.2436
 6321SOL    HW220564   0.008   4.864   3.951  2.1963 -0.5399 -0.5320
 6322SOL     OW20565   1.156   3.032   0.058 -0.1700 -0.5257 -0.5052
 6322SOL    HW120566   1.088   3.104   0.062  0.4395  0.0293  0.2775
 6322SOL    HW220567   1.171   2.995   0.150  1.5053  0.2622 -0.4241
 6323SOL     OW20568   1.743   5.308   3.326  0.0928 -0.3620 -0.0079
 6323SOL    HW120569   1.743   5.212   3.353 -2.4467 -0.5444 -0.4870
 6323SOL    HW220570   1.788   5.318   3.237  0.5105 -1.0585  0.1144
 6324SOL     OW20571   4.192   2.762   2.372  0.1319 -0.6929 -0.3692
 6324SOL    HW120572   4.261   2.721   2.432  0.7863  0.7606 -0.0999
 6324SOL    HW220573   4.103   2.722   2.393  0.6428 -1.5356  0.2944
 6325SOL     OW20574   5.713   3.321   0.074 -0.1904  0.2149  0.5507
 6325SOL    HW120575   5.711   3.396   0.140  1.8973 -0.1359  1.0784
 6325SOL    HW220576   5.673   3.239   0.115  1.5137 -0.1371  1.6345
 6326SOL     OW20577   2.150   5.842   1.184  0.9949 -0.8220  0.0535
 6326SOL    HW120578   2.193   5.753   1.201  2.0071 -0.5677 -0.9640
 6326SOL    HW220579   2.151   5.860   1.085 -0.0868 -0.1048  0.1597
 6327SOL     OW20580   4.095   0.937   3.556 -0.2262 -0.6075 -0.3652
 6327SOL    HW120581   4.164   1.004   3.527  0.0680 -1.2953 -1.3115
 6327SOL    HW220582   4.025   0.983   3.610  0.8769  0.1499  0.4958
 6328SOL     OW20583   6.055   3.654   3.905 -0.6414  0.4171  0.1624
 6328SOL    HW120584   6.114   3.728   3.938  0.8986 -0.8025  0.2892
 6328SOL    HW220585   5.996   3.623   3.979  2.3696 -1.9009  1.8481
 6329SOL     OW20586   0.621   2.648   3.434  0.0477 -0.0828  0.2657
 6329SOL    HW120587   0.700   2.675   3.489  0.3974  3.4640 -1.6541
 6329SOL    HW220588   0.609   2.713   3.359 -3.5076 -1.6804 -0.7752
 6330SOL     OW20589   2.186   3.312   6.455 -0.0730 -0.0311 -0.2092
 6330SOL    HW120590   2.177   3.220   6.492 -0.5784  0.0301 -0.1679
 6330SOL    HW220591   2.279   3.345   6.470  0.3630 -0.8517 -0.9810
 6331SOL     OW20592   5.769   3.729   3.032 -0.3187 -0.0785  0.1983
 6331SOL    HW120593   5.713   3.654   3.068 -1.0402  0.0819 -0.5589
 6331SOL    HW220594   5.769   3.726   2.933  0.1516  0.5600  0.1718
 6332SOL     OW20595   2.039   1.055   4.295 -0.8807 -0.3558 -0.1816
 6332SOL    HW120596   2.110   1.119   4.323  0.6369 -0.3561 -3.4987
 6332SOL    HW220597   1.957   1.105   4.270 -1.4948 -0.2112  1.9303
 6333SOL     OW20598   0.111   6.885   2.633  0.6153  0.1979 -0.5233
 6333SOL    HW120599   0.015   6.856   2.630  1.3125 -3.2335  2.7946
 6333SOL    HW220600   0.118   6.971   2.683 -0.7435  1.1301 -1.8300
 6334SOL     OW20601   5.192   5.260   2.519  0.2263  0.2468  0.8043
 6334SOL    HW120602   5.241   5.215   2.594 -1.0994 -0.9009  1.0165
 6334SOL    HW220603   5.097   5.275   2.546 -0.0191  0.6992 -0.2931
 6335SOL     OW20604   0.187   2.554   0.624 -0.7743  0.7685 -0.0731
 6335SOL    HW120605   0.192   2.600   0.536  0.9547  1.0587  0.1346
 6335SOL    HW220606   0.247   2.601   0.689 -0.1965 -0.8206  0.5975
 6336SOL     OW20607   5.001   1.247   0.092  0.2953  0.2315 -0.2117
 6336SOL    HW120608   4.944   1.242   0.174 -0.4118  0.0433 -0.7029
 6336SOL    HW220609   5.028   1.155   0.064  0.0432  0.2470 -0.5184
 6337SOL     OW20610   2.964   5.613   3.121 -0.3419 -0.1826 -0.1714
 6337SOL    HW120611   3.003   5.683   3.181 -2.3527  0.4018  0.5168
 6337SOL    HW220612   2.973   5.523   3.165  1.1452 -0.2290 -0.5139
 6338SOL     OW20613   3.058   3.873   2.957 -0.4912 -0.3235 -0.3083
 6338SOL    HW120614   2.985   3.829   2.905  0.1712 -1.1899 -0.5327
 6338SOL    HW220615   3.019   3.939   3.021 -1.5995 -1.8105  0.6021
 6339SOL     OW20616   6.319   3.053   5.948 -0.2949 -0.4822 -0.7087
 6339SOL    HW120617   6.324   3.043   5.848  2.4232  0.1951 -0.7069
 6339SOL    HW220618   6.322   2.962   5.990 -0.8038 -0.7430 -1.2196
 6340SOL     OW20619   4.373   3.801   2.091 -0.1757  0.3959 -0.8035
 6340SOL    HW120620   4.416   3.810   2.180 -0.0947  2.0640 -0.9881
 6340SOL    HW220621   4.345   3.705   2.077  0.9819 -0.1500  0.4375
 6341SOL     OW20622   5.309   4.847   4.558 -0.5440 -0.2675 -0.1633
 6341SOL    HW120623   5.267   4.835   4.468 -0.9160 -0.2152  0.0008
 6341SOL    HW220624   5.274   4.931   4.600 -0.3715 -0.2905  0.0293
 6342SOL     OW20625   5.217   5.676   2.674  0.4997 -0.1203 -0.4310
 6342SOL    HW120626   5.136   5.675   2.614  1.1109 -0.5259 -1.2687
 6342SOL    HW220627   5.284   5.741   2.638  0.7234 -0.1081  0.0122
 6343SOL     OW20628   0.925   3.197   0.106  0.3655  0.4546  0.1418
 6343SOL    HW120629   0.933   3.258   0.027  0.8781  0.4672  0.2019
 6343SOL    HW220630   0.937   3.249   0.190 -2.4137  0.8739  0.3589
 6344SOL     OW20631   1.271   2.319   3.229  0.5359 -0.2149 -0.1133
 6344SOL    HW120632   1.301   2.347   3.320  1.1275  0.9017 -0.6331
 6344SOL    HW220633   1.237   2.399   3.179 -0.6870 -0.9793 -0.5424
 6345SOL     OW20634   5.970   2.761   3.773 -0.3337  0.3487  0.2804
 6345SOL    HW120635   5.952   2.859   3.762  0.4013  0.4996  0.3630
 6345SOL    HW220636   5.963   2.737   3.870  1.4390  0.7459  0.5501
 6346SOL     OW20637   0.156   7.012   2.885 -0.2578  0.1556  0.1087
 6346SOL    HW120638   0.229   7.080   2.880 -0.6077  0.4566 -1.2545
 6346SOL    HW220639   0.071   7.056   2.913 -0.4709  0.2883 -0.7168
 6347SOL     OW20640   6.609   0.889   2.833  0.2520 -0.1031  0.4690
 6347SOL    HW120641   6.691   0.853   2.878 -1.1332 -3.7706  0.3748
 6347SOL    HW220642   6.530   0.876   2.893 -0.6135  1.4278 -0.2875
 6348SOL     OW20643   0.787   3.645   0.889  0.8486 -0.2902  0.6454
 6348SOL    HW120644   0.762   3.662   0.794  1.8027  0.2089  0.4746
 6348SOL    HW220645   0.720   3.689   0.949  1.6552  1.6405  0.1945
 6349SOL     OW20646   3.594   1.228   2.439 -0.3410 -0.0409 -0.0020
 6349SOL    HW120647   3.661   1.203   2.509  0.6547  0.2522 -0.8228
 6349SOL    HW220648   3.567   1.147   2.388  0.7096  0.0788 -0.7858
 6350SOL     OW20649   2.596   2.921   3.575 -0.1444  0.6567 -0.6510
 6350SOL    HW120650   2.668   2.872   3.525 -0.1020  0.2030 -0.1457
 6350SOL    HW220651   2.631   2.949   3.665  0.5759  3.5042 -1.6905
 6351SOL     OW20652   6.097   2.328   6.507  0.1969 -0.3715 -0.6213
 6351SOL    HW120653   6.026   2.322   6.576 -0.4830  1.5339 -1.1024
 6351SOL    HW220654   6.168   2.259   6.526 -1.0475 -1.3493  0.6679
 6352SOL     OW20655   4.012   2.343   4.254 -1.1877  0.2294  0.5226
 6352SOL    HW120656   4.009   2.404   4.333 -2.2212 -1.4682  1.8737
 6352SOL    HW220657   3.928   2.351   4.201 -1.2985  0.0211  0.6667
 6353SOL     OW20658   5.184   0.995   4.597  0.1315 -0.2134 -0.2396
 6353SOL    HW120659   5.099   0.960   4.637 -0.3959  1.0343 -0.2097
 6353SOL    HW220660   5.179   0.989   4.497 -0.3624  0.6100 -0.2786
 6354SOL     OW20661   6.589   1.924   0.106 -1.2190  0.0464  0.1124
 6354SOL    HW120662   6.671   1.902   0.157 -0.4511  1.4454 -0.4564
 6354SOL    HW220663   6.561   1.846   0.051  0.5904  0.0053 -0.8105
 6355SOL     OW20664   2.767   6.908   0.088  0.1967  0.6115 -0.2375
 6355SOL    HW120665   2.692   6.891   0.151  1.7681  1.0476  1.8656
 6355SOL    HW220666   2.739   6.974   0.018 -1.4200  0.5573  0.3310
 6356SOL     OW20667   1.008   0.004   6.628  0.5345  0.6434 -0.8191
 6356SOL    HW120668   1.014   0.022   6.726 -1.2656 -1.0461 -0.3358
 6356SOL    HW220669   0.920   0.036   6.593  0.9591  0.7939 -1.7898
 6357SOL     OW20670   1.538   1.017   1.261  0.4001  0.1769 -0.0377
 6357SOL    HW120671   1.442   1.003   1.284  0.6808 -0.7483  0.6657
 6357SOL    HW220672   1.588   1.047   1.343  1.0530 -1.1961  0.0913
 6358SOL     OW20673   5.711   2.582   1.356  0.1508 -0.1105  0.2672
 6358SOL    HW120674   5.735   2.485   1.356  0.3924 -0.0986 -1.9353
 6358SOL    HW220675   5.622   2.595   1.312 -0.8026  0.5380  2.2208
 6359SOL     OW20676   5.802   6.658   0.819  0.0376  0.2629 -0.2827
 6359SOL    HW120677   5.852   6.585   0.865 -0.3877 -0.6697 -1.2851
 6359SOL    HW220678   5.751   6.711   0.887 -0.9595 -1.3757  0.2960
 6360SOL     OW20679   6.432   5.179   1.748 -0.3264  0.5114  0.0109
 6360SOL    HW120680   6.483   5.108   1.797  1.0586  1.6177  0.2260
 6360SOL    HW220681   6.494   5.251   1.719 -1.6747  1.5889 -0.3152
 6361SOL     OW20682   4.241   1.010   0.855  0.1950 -0.1039 -0.5756
 6361SOL    HW120683   4.241   1.066   0.938  1.9654 -0.8924  0.0238
 6361SOL    HW220684   4.211   1.064   0.777 -0.3271  1.0052  0.3702
 6362SOL     OW20685   4.094   4.448   2.273 -0.3482  0.6700  0.3202
 6362SOL    HW120686   4.045   4.369   2.307 -0.5332  0.7236  0.1828
 6362SOL    HW220687   4.056   4.475   2.184  0.7392 -0.0536 -0.3867
 6363SOL     OW20688   5.158   2.287   5.391 -0.1375 -0.4821 -0.1593
 6363SOL    HW120689   5.203   2.198   5.399  0.4324 -0.0890  1.1810
 6363SOL    HW220690   5.132   2.320   5.481 -1.5311  0.1355 -0.7472
 6364SOL     OW20691   5.584   1.699   4.220  0.1883 -0.3229 -0.4063
 6364SOL    HW120692   5.579   1.659   4.312 -2.9077 -0.0171 -0.3521
 6364SOL    HW220693   5.648   1.776   4.221  1.0663 -1.0229  1.1900
 6365SOL     OW20694   3.639   4.950   4.991 -0.4555  0.0555  0.0348
 6365SOL    HW120695   3.704   5.022   4.964  0.4810 -0.8153 -0.0828
 6365SOL    HW220696   3.604   4.905   4.910 -1.6140  0.8361  0.0695
 6366SOL     OW20697   5.503   1.633   6.964  0.3122  0.0894 -0.1658
 6366SOL    HW120698   5.547   1.543   6.966  1.8284  0.7948  0.8161
 6366SOL    HW220699   5.553   1.692   6.901 -2.0677 -0.3562 -2.6191
 6367SOL     OW20700   6.354   0.210   3.827 -0.3401 -0.0113 -0.0016
 6367SOL    HW120701   6.432   0.255   3.782 -0.4117 -0.5614 -0.6929
 6367SOL    HW220702   6.348   0.115   3.796 -1.4352  0.0923 -0.1417
 6368SOL     OW20703   4.396   5.506   0.814 -0.1442 -0.2717  0.0737
 6368SOL    HW120704   4.389   5.522   0.913 -0.8409  0.8929 -0.1402
 6368SOL    HW220705   4.304   5.499   0.775  0.0756 -4.0128 -0.0515
 6369SOL     OW20706   6.199   6.047   5.848 -0.0108 -0.9031 -0.5688
 6369SOL    HW120707   6.156   6.101   5.776 -1.0119 -0.2414  0.4995
 6369SOL    HW220708   6.246   5.969   5.807 -0.8598 -0.7434 -1.9032
 6370SOL     OW20709   1.348   6.713   2.980 -0.1178 -0.0903 -0.0889
 6370SOL    HW120710   1.306   6.751   2.898 -2.6981  0.0140  1.1784
 6370SOL    HW220711   1.405   6.634   2.956  2.6824  2.3737 -2.3868
 6371SOL     OW20712   3.669   4.713   2.801  0.0701  0.1184  0.0739
 6371SOL    HW120713   3.754   4.742   2.755 -0.5253 -0.7455 -1.6739
 6371SOL    HW220714   3.662   4.760   2.889  2.0025  0.7563 -0.0441
 6372SOL     OW20715   2.798   6.105   5.230 -0.3240  0.0937  0.3855
 6372SOL    HW120716   2.711   6.072   5.193 -0.8005  0.3436  1.2473
 6372SOL    HW220717   2.873   6.051   5.192 -0.8810 -0.3429 -0.1168
 6373SOL     OW20718   2.807   1.146   0.376  0.0074  0.4067 -0.1531
 6373SOL    HW120719   2.781   1.051   0.360  1.5849 -0.4968  2.1432
 6373SOL    HW220720   2.900   1.161   0.345  0.1250  0.9234  0.4299
 6374SOL     OW20721   2.323   5.059   3.607  0.1370 -0.2505 -0.6577
 6374SOL    HW120722   2.332   5.030   3.512 -2.1574 -0.3383 -0.9200
 6374SOL    HW220723   2.326   4.979   3.667  1.6141 -0.1924 -0.6258
 6375SOL     OW20724   0.127   5.820   3.019  0.0805 -0.3654  0.0801
 6375SOL    HW120725   0.219   5.785   3.036  0.5136  1.3449  1.5037
 6375SOL    HW220726   0.114   5.907   3.068 -2.2225 -0.4539 -0.2573
 6376SOL     OW20727   0.944   6.098   6.695 -0.0662  0.2303 -0.0280
 6376SOL    HW120728   0.918   6.049   6.612  0.5088  0.0521 -0.1073
 6376SOL    HW220729   0.914   6.193   6.689 -0.3968  0.1127 -0.2557
 6377SOL     OW20730   4.533   0.354   5.453 -0.1386 -0.8492 -0.5702
 6377SOL    HW120731   4.561   0.416   5.527  0.3355 -0.4095 -1.1105
 6377SOL    HW220732   4.483   0.277   5.492 -1.6789  0.4031  0.0163
 6378SOL     OW20733   6.247   4.129   6.116 -0.0810  0.1222 -0.7246
 6378SOL    HW120734   6.180   4.203   6.114 -0.8582 -0.3544  2.4612
 6378SOL    HW220735   6.333   4.163   6.154 -0.2411 -0.4126  0.1564
 6379SOL     OW20736   2.883   3.571   0.858  0.0808  0.5392  0.0854
 6379SOL    HW120737   2.860   3.538   0.766 -1.1110  0.1840  0.4936
 6379SOL    HW220738   2.925   3.662   0.851 -1.5025  1.2480 -0.7208
 6380SOL     OW20739   6.069   4.269   6.960 -0.3815  0.8252  0.2354
 6380SOL    HW120740   6.032   4.178   6.942 -0.5810  1.1116 -0.9249
 6380SOL    HW220741   6.086   4.280   7.058 -0.3128 -0.4649  0.3814
 6381SOL     OW20742   0.820   2.766   1.086 -0.8852 -0.2974 -0.1541
 6381SOL    HW120743   0.748   2.763   1.155  0.5266 -0.6511  1.3947
 6381SOL    HW220744   0.819   2.681   1.033  0.0325 -1.5566  1.7023
 6382SOL     OW20745   0.493   0.637   4.468 -0.0549  0.0363 -0.1782
 6382SOL    HW120746   0.539   0.586   4.541 -0.0079  0.9803  0.4607
 6382SOL    HW220747   0.542   0.623   4.382 -0.5639 -1.7283 -0.2290
 6383SOL     OW20748   0.988   1.439   1.166 -0.1496  0.5583 -0.1404
 6383SOL    HW120749   1.088   1.445   1.157 -0.0873 -0.3674 -0.1924
 6383SOL    HW220750   0.965   1.375   1.239 -0.7019  0.4327 -0.4156
 6384SOL     OW20751   5.666   1.908   2.714  0.2050  0.0917 -0.4159
 6384SOL    HW120752   5.647   1.824   2.765 -0.0677 -1.1157 -2.3874
 6384SOL    HW220753   5.764   1.915   2.697  0.3058  0.5368  0.3120
 6385SOL     OW20754   0.797   1.415   2.094  0.3542 -0.3312  0.0832
 6385SOL    HW120755   0.803   1.456   2.003 -0.2894  1.1332  0.6719
 6385SOL    HW220756   0.746   1.475   2.155  0.4887 -1.4358  1.3438
 6386SOL     OW20757   4.288   4.398   1.299  0.1623  0.9339  0.4832
 6386SOL    HW120758   4.329   4.481   1.336 -0.6330  1.1874  0.8384
 6386SOL    HW220759   4.317   4.320   1.354 -0.3806  1.2047  1.1797
 6387SOL     OW20760   1.157   4.799   6.336  0.2682 -0.0510 -0.2202
 6387SOL    HW120761   1.115   4.751   6.259 -0.4090  1.1141 -0.5893
 6387SOL    HW220762   1.157   4.897   6.318  0.4441  0.2011  1.1052
 6388SOL     OW20763   5.309   4.306   3.464  0.2066 -0.1613  0.4178
 6388SOL    HW120764   5.225   4.266   3.502  0.3986  0.2871  1.3620
 6388SOL    HW220765   5.354   4.240   3.404  0.3190 -1.2477  1.6402
 6389SOL     OW20766   2.487   3.808   5.893  0.2265 -0.5523  0.3267
 6389SOL    HW120767   2.455   3.898   5.925 -0.5524 -0.6882 -0.0345
 6389SOL    HW220768   2.561   3.776   5.952  0.1699  0.1001  0.7678
 6390SOL     OW20769   5.385   0.503   4.856 -0.2452  0.2187 -0.5987
 6390SOL    HW120770   5.401   0.586   4.802 -2.5992  0.8690 -0.3960
 6390SOL    HW220771   5.413   0.519   4.950 -0.8595  0.8766 -0.5185
 6391SOL     OW20772   1.085   4.694   0.716 -0.7407  0.2073  0.6718
 6391SOL    HW120773   1.075   4.633   0.795 -2.1330  0.8465  1.0117
 6391SOL    HW220774   1.096   4.639   0.633  0.5093 -0.4765  1.2540
 6392SOL     OW20775   2.837   0.090   2.510  0.7529 -0.9916  0.5862
 6392SOL    HW120776   2.761   0.060   2.568  0.3087 -1.4424 -0.2100
 6392SOL    HW220777   2.909   0.129   2.567  0.1759 -1.1000  1.4066
 6393SOL     OW20778   3.183   6.189   0.764  0.0025 -0.3754 -0.3572
 6393SOL    HW120779   3.219   6.267   0.712 -2.3706 -0.6889 -2.6692
 6393SOL    HW220780   3.233   6.106   0.740  0.2445 -0.1714 -0.5585
 6394SOL     OW20781   0.089   3.267   6.235  0.2971  0.7131  0.8562
 6394SOL    HW120782   0.082   3.181   6.286 -0.8272  1.4929  2.0801
 6394SOL    HW220783   0.013   3.274   6.170  0.5101  0.6948  0.6025
 6395SOL     OW20784   5.997   5.941   6.153  0.0771 -1.0364 -0.4943
 6395SOL    HW120785   6.082   5.970   6.198  0.3922 -3.2400  0.4768
 6395SOL    HW220786   5.974   6.005   6.081  0.7672  1.4688  1.3707
 6396SOL     OW20787   5.138   4.011   5.280  0.3805 -0.2854 -0.1761
 6396SOL    HW120788   5.183   4.032   5.194  1.7814  1.5024  0.9371
 6396SOL    HW220789   5.181   3.931   5.323  0.3641 -0.5293 -0.6123
 6397SOL     OW20790   1.313   6.119   5.486 -0.4133  0.1542 -0.6238
 6397SOL    HW120791   1.218   6.108   5.516 -0.7201  0.2588 -1.5345
 6397SOL    HW220792   1.360   6.182   5.548 -1.0537  0.4162 -0.3962
 6398SOL     OW20793   2.768   5.140   1.355 -0.5474  0.2201 -0.4250
 6398SOL    HW120794   2.766   5.046   1.322  1.0855 -0.0053  0.0583
 6398SOL    HW220795   2.796   5.201   1.281 -0.2072  0.1433 -0.3599
 6399SOL     OW20796   5.060   2.092   0.402 -0.0584  0.5256  0.3151
 6399SOL    HW120797   4.967   2.121   0.382 -0.1624  1.0186  1.4311
 6399SOL    HW220798   5.125   2.158   0.364 -0.0674 -0.5163 -1.6667
 6400SOL     OW20799   1.152   6.296   6.522  0.1099  0.5327 -0.1527
 6400SOL    HW120800   1.245   6.263   6.540 -0.6010 -1.1008  0.6893
 6400SOL    HW220801   1.139   6.384   6.568  0.9456  0.3521  0.4620
 6401SOL     OW20802   1.212   0.109   2.768  0.1645  0.4227  0.3399
 6401SOL    HW120803   1.296   0.162   2.782 -0.5161  1.7645 -0.4417
 6401SOL    HW220804   1.141   0.144   2.829 -0.1492  0.0585  0.1858
 6402SOL     OW20805   0.401   2.065   5.616 -0.2796  0.3843 -0.0650
 6402SOL    HW120806   0.313   2.109   5.601 -0.0889  0.7347 -0.1970
 6402SOL    HW220807   0.430   2.079   5.711 -1.3213 -1.5257  0.5686
 6403SOL     OW20808   2.046   1.345   5.180 -0.0913 -0.4227  0.0014
 6403SOL    HW120809   2.116   1.372   5.114  0.6601 -1.0735  0.5166
 6403SOL    HW220810   1.964   1.402   5.167  0.8761  1.0360  0.0382
 6404SOL     OW20811   6.901   1.813   2.831 -0.4083  0.5564  0.5632
 6404SOL    HW120812   6.991   1.807   2.789 -0.3052 -0.3262  0.9011
 6404SOL    HW220813   6.832   1.830   2.760 -0.1177  0.0481  0.1556
 6405SOL     OW20814   1.720   6.100   4.203 -0.6807  0.3212 -0.2470
 6405SOL    HW120815   1.741   6.173   4.138 -1.5447  0.2145 -0.6683
 6405SOL    HW220816   1.768   6.116   4.289 -2.1266  2.3320  0.2676
 6406SOL     OW20817   5.075   6.513   6.669 -0.2083 -0.3060  0.3336
 6406SOL    HW120818   5.122   6.457   6.736 -1.2697  1.3553  2.6048
 6406SOL    HW220819   5.067   6.607   6.703 -1.8359  0.3420 -1.5909
 6407SOL     OW20820   6.726   0.576   0.035  0.3677  0.3164 -0.2773
 6407SOL    HW120821   6.749   0.594   0.131  0.3591  0.3529 -0.2823
 6407SOL    HW220822   6.643   0.521   0.031  0.3338  0.3663 -0.2652
 6408SOL     OW20823   4.622   0.929   5.502  0.4951 -0.6169  0.6086
 6408SOL    HW120824   4.587   0.992   5.432 -2.2680 -2.2759  0.3409
 6408SOL    HW220825   4.674   0.856   5.457  1.0662 -0.2168  0.6056
 6409SOL     OW20826   4.073   6.615   4.294 -0.1387  0.1982 -0.1405
 6409SOL    HW120827   3.998   6.595   4.356  0.8797  1.8153  1.7333
 6409SOL    HW220828   4.059   6.705   4.253  1.2721  1.0467  1.1326
 6410SOL     OW20829   5.979   6.907   1.733  0.2106 -0.4626 -1.1041
 6410SOL    HW120830   6.065   6.949   1.761  0.5935 -0.8397 -1.6916
 6410SOL    HW220831   5.952   6.838   1.800 -0.7676  1.1436  0.2255
 6411SOL     OW20832   5.719   6.118   2.202  0.2069 -0.2725 -0.0220
 6411SOL    HW120833   5.758   6.056   2.271 -0.4708  1.4504  2.0184
 6411SOL    HW220834   5.717   6.211   2.239 -0.0878  0.7451 -2.4736
 6412SOL     OW20835   5.063   1.862   3.740  0.0444  0.2451  0.5053
 6412SOL    HW120836   4.990   1.794   3.750 -0.6162  1.0291  1.2905
 6412SOL    HW220837   5.022   1.950   3.718  0.9153  0.3372 -0.8123
 6413SOL     OW20838   2.556   2.421   6.972 -0.6911 -0.3776  0.2991
 6413SOL    HW120839   2.577   2.516   6.948  0.4430 -0.6734  0.0585
 6413SOL    HW220840   2.463   2.416   7.009 -0.5544  0.9175  0.8830
 6414SOL     OW20841   2.236   3.512   1.480 -0.5746  0.1053  0.1462
 6414SOL    HW120842   2.335   3.501   1.477 -0.2437  2.5946  0.1758
 6414SOL    HW220843   2.207   3.576   1.410 -2.4186 -1.7963 -0.9507
 6415SOL     OW20844   4.560   0.326   0.669  0.1146 -0.1049  0.2841
 6415SOL    HW120845   4.530   0.367   0.755 -1.2693 -0.4634 -0.0052
 6415SOL    HW220846   4.559   0.395   0.596  1.7358  0.3131  0.6312
 6416SOL     OW20847   1.092   0.936   1.849  0.0679  0.1895 -0.1027
 6416SOL    HW120848   1.155   0.997   1.895  0.5822 -1.0434  0.9056
 6416SOL    HW220849   1.013   0.918   1.908  0.5947 -1.1828  0.2265
 6417SOL     OW20850   2.624   5.234   0.357  0.1965 -0.1174  0.1327
 6417SOL    HW120851   2.655   5.286   0.437  1.3122  0.5607 -0.7124
 6417SOL    HW220852   2.677   5.262   0.277 -1.4135 -0.2311 -1.0149
 6418SOL     OW20853   4.572   0.790   0.492 -0.5587  0.4937  0.1609
 6418SOL    HW120854   4.553   0.878   0.450 -0.0871  0.9367  0.8528
 6418SOL    HW220855   4.492   0.758   0.543 -1.0590  0.0536 -0.8840
 6419SOL     OW20856   1.032   5.083   4.177 -0.0503  0.1812  0.1289
 6419SOL    HW120857   1.077   5.148   4.239  0.0445  0.6313 -0.4000
 6419SOL    HW220858   0.948   5.124   4.142  1.1730  1.0244 -2.0461
 6420SOL     OW20859   6.195   6.920   3.943  0.0823  0.3113 -0.9765
 6420SOL    HW120860   6.210   6.965   3.855 -0.9968 -0.5935 -1.6605
 6420SOL    HW220861   6.120   6.965   3.992 -0.8356 -0.5466 -1.5537
 6421SOL     OW20862   5.021   2.438   6.770 -0.3067  0.5558  0.1474
 6421SOL    HW120863   4.979   2.420   6.681  0.2846  0.1271 -0.0526
 6421SOL    HW220864   4.950   2.440   6.840 -0.5256 -2.0722  0.1055
 6422SOL     OW20865   5.123   1.076   1.990  0.3963 -0.5806 -0.2228
 6422SOL    HW120866   5.219   1.096   2.007  0.3045  0.4160 -0.7735
 6422SOL    HW220867   5.113   1.038   1.898  0.3314 -1.3003  0.0756
 6423SOL     OW20868   2.447   6.828   4.251 -0.1394  0.0014  0.6033
 6423SOL    HW120869   2.392   6.832   4.167 -0.9987  1.2071  1.2015
 6423SOL    HW220870   2.526   6.890   4.242 -0.4454  0.4277  0.8241
 6424SOL     OW20871   0.129   2.187   1.706 -0.4356 -0.1519 -0.1837
 6424SOL    HW120872   0.200   2.257   1.706 -1.0147  0.4550 -0.2271
 6424SOL    HW220873   0.039   2.231   1.699 -0.9835 -0.7279  2.2955
 6425SOL     OW20874   3.630   1.983   6.151  1.1084  0.2985  0.2920
 6425SOL    HW120875   3.652   1.886   6.141 -1.6903 -0.5019  1.1668
 6425SOL    HW220876   3.627   2.007   6.248  0.0034  0.8043  0.1419
 6426SOL     OW20877   0.316   4.772   3.498  0.3576  0.5882  0.1912
 6426SOL    HW120878   0.414   4.761   3.478  0.5872  1.1814  0.9345
 6426SOL    HW220879   0.271   4.683   3.495  1.1402  0.1529  0.8969
 6427SOL     OW20880   1.258   3.860   6.015 -0.3808  0.6372 -0.2437
 6427SOL    HW120881   1.182   3.847   6.079 -0.3380  0.4935 -0.2221
 6427SOL    HW220882   1.344   3.863   6.065 -0.2319 -0.6830 -0.3989
 6428SOL     OW20883   1.345   0.495   5.320  0.3811 -0.3142  0.1228
 6428SOL    HW120884   1.386   0.575   5.363 -2.5462  0.9015  0.9434
 6428SOL    HW220885   1.348   0.505   5.221  1.2600  0.1144  0.1811
 6429SOL     OW20886   4.113   4.867   1.869 -0.2525  0.2095 -0.3421
 6429SOL    HW120887   4.038   4.928   1.844  1.0552  2.1166  0.1488
 6429SOL    HW220888   4.096   4.829   1.960  0.5171  2.7640  0.9904
 6430SOL     OW20889   6.358   0.760   4.666 -0.6808  0.2533  0.4924
 6430SOL    HW120890   6.319   0.745   4.575 -0.7015 -1.0119  0.6824
 6430SOL    HW220891   6.390   0.854   4.674  0.0012  0.1881 -1.0849
 6431SOL     OW20892   5.691   5.918   0.720  0.2956  0.2524  0.4231
 6431SOL    HW120893   5.689   5.822   0.748 -1.5194  0.3678  0.7992
 6431SOL    HW220894   5.777   5.937   0.672 -0.0572 -2.0276 -1.2899
 6432SOL     OW20895   1.819   3.209   0.412  0.4398 -0.4520 -1.0528
 6432SOL    HW120896   1.729   3.250   0.430  0.4406 -0.9695  0.2627
 6432SOL    HW220897   1.829   3.127   0.468  1.9294 -0.1117 -0.7926
 6433SOL     OW20898   1.017   3.090   3.659  0.2030 -0.3499  0.2878
 6433SOL    HW120899   0.998   2.992   3.652  0.0595 -0.2329 -1.8421
 6433SOL    HW220900   1.113   3.105   3.681  1.2955 -1.0809 -3.2900
 6434SOL     OW20901   2.859   2.076   5.162 -0.3703 -0.0415  0.1647
 6434SOL    HW120902   2.804   2.012   5.216  0.0786 -0.6876 -0.1234
 6434SOL    HW220903   2.912   2.134   5.223 -0.3796 -0.3025  0.4237
 6435SOL     OW20904   2.634   1.794   4.692 -0.3287 -0.0310 -0.2382
 6435SOL    HW120905   2.595   1.711   4.732 -0.1156  1.0148  2.3638
 6435SOL    HW220906   2.669   1.774   4.601 -0.2354 -2.8036  0.3130
 6436SOL     OW20907   5.909   0.279   4.060  0.1255  0.0599  0.3441
 6436SOL    HW120908   5.915   0.239   3.968 -1.5478 -0.0396  0.2430
 6436SOL    HW220909   5.814   0.277   4.091 -0.0118  3.5558  0.5312
 6437SOL     OW20910   1.020   4.334   3.463 -0.6054 -0.0390  0.2210
 6437SOL    HW120911   1.066   4.266   3.406 -0.7108  1.0452 -1.2461
 6437SOL    HW220912   0.958   4.288   3.527  1.2408 -1.4176  1.0914
 6438SOL     OW20913   5.802   7.016   5.543 -0.3141  0.3240 -0.2908
 6438SOL    HW120914   5.885   6.960   5.545 -1.0108 -0.8776 -2.1145
 6438SOL    HW220915   5.827   7.112   5.551  1.3906  0.0694 -1.7820
 6439SOL     OW20916   3.381   1.418   4.592 -0.0399 -0.2193 -0.5904
 6439SOL    HW120917   3.319   1.368   4.532 -0.1553  0.2164 -0.8376
 6439SOL    HW220918   3.341   1.506   4.617 -0.1806 -0.5722  0.4784
 6440SOL     OW20919   2.832   0.879   1.780  0.6539  0.2714 -0.6795
 6440SOL    HW120920   2.872   0.843   1.865  0.0255  0.7710 -0.1595
 6440SOL    HW220921   2.809   0.804   1.719  0.6245 -0.1244 -0.1867
 6441SOL     OW20922   3.155   0.468   5.547 -0.0827 -0.7842 -0.5675
 6441SOL    HW120923   3.224   0.540   5.558 -0.0795 -0.8110 -0.4118
 6441SOL    HW220924   3.070   0.495   5.592  0.2123 -1.2806  0.3257
 6442SOL     OW20925   4.215   5.255   0.239  0.5090 -0.1473 -0.3945
 6442SOL    HW120926   4.259   5.340   0.210  0.6152  0.1079  0.4894
 6442SOL    HW220927   4.280   5.202   0.294  0.0870 -0.2986 -0.0407
 6443SOL     OW20928   6.543   2.617   6.175  0.1567 -0.1648  0.5769
 6443SOL    HW120929   6.485   2.546   6.213  0.5711 -0.4107  0.7545
 6443SOL    HW220930   6.594   2.662   6.248  0.0503  0.1812  0.4455
 6444SOL     OW20931   4.872   0.773   4.307 -0.6380 -0.1411 -0.2835
 6444SOL    HW120932   4.791   0.763   4.250  0.1816  2.8472 -2.1945
 6444SOL    HW220933   4.954   0.767   4.249  0.3621  0.2694  1.0343
 6445SOL     OW20934   6.548   3.339   2.264 -0.3554 -0.1869  0.6799
 6445SOL    HW120935   6.590   3.357   2.175 -1.5817 -0.0735  0.0905
 6445SOL    HW220936   6.614   3.357   2.337 -0.4004  3.5301  0.0133
 6446SOL     OW20937   3.544   3.368   6.490 -0.4991 -0.1249  0.5358
 6446SOL    HW120938   3.455   3.387   6.448 -0.7559  1.7883  1.7924
 6446SOL    HW220939   3.611   3.435   6.458  1.0636 -2.6045 -1.7890
 6447SOL     OW20940   4.336   4.896   1.373  0.0266 -0.1008  0.3618
 6447SOL    HW120941   4.242   4.909   1.406 -0.0191 -0.7919  0.5066
 6447SOL    HW220942   4.357   4.799   1.369  1.0539  0.0794  1.2053
 6448SOL     OW20943   4.089   1.676   6.126  0.6023  0.3428 -0.6029
 6448SOL    HW120944   4.091   1.766   6.084  0.4492  0.8782  0.5038
 6448SOL    HW220945   4.166   1.622   6.092  1.1936  1.1908 -0.6495
 6449SOL     OW20946   2.759   0.512   1.953 -0.5434 -0.5413 -0.5496
 6449SOL    HW120947   2.663   0.532   1.973 -1.4386 -1.6214 -3.2258
 6449SOL    HW220948   2.800   0.590   1.907 -0.4775 -0.4898 -0.4030
 6450SOL     OW20949   0.464   0.884   0.692  0.0032  0.1476  0.0455
 6450SOL    HW120950   0.511   0.808   0.737  0.6355  1.0917  1.0530
 6450SOL    HW220951   0.385   0.911   0.748 -0.3889  0.0491 -0.4579
 6451SOL     OW20952   0.185   2.910   0.176  0.9977 -0.1370 -0.1939
 6451SOL    HW120953   0.094   2.883   0.143  1.3434 -1.1718 -0.3365
 6451SOL    HW220954   0.247   2.917   0.098  1.0858  0.3873 -0.0767
 6452SOL     OW20955   2.480   6.452   1.221 -0.3791  0.0185  0.1789
 6452SOL    HW120956   2.533   6.377   1.181  0.3001  1.0797 -0.9672
 6452SOL    HW220957   2.413   6.485   1.155 -1.0486  0.0853  0.8742
 6453SOL     OW20958   0.345   6.374   0.875 -0.1637 -0.3856 -0.6240
 6453SOL    HW120959   0.270   6.430   0.841 -0.7879 -2.5942 -3.2124
 6453SOL    HW220960   0.320   6.333   0.962 -0.6799  1.3030  0.0512
 6454SOL     OW20961   6.968   0.677   3.555 -0.2577 -0.0645  0.0487
 6454SOL    HW120962   7.041   0.705   3.617 -0.0588  1.6278 -0.8961
 6454SOL    HW220963   6.880   0.689   3.601 -0.0476 -0.2131  0.5004
 6455SOL     OW20964   4.186   2.052   6.726  0.7939 -0.1543 -0.4190
 6455SOL    HW120965   4.124   1.984   6.766  1.1541 -0.6754 -0.7360
 6455SOL    HW220966   4.224   2.109   6.798  0.4885 -0.2878 -0.1496
 6456SOL     OW20967   1.911   0.121   5.371  0.0485  0.2441  0.0979
 6456SOL    HW120968   1.819   0.100   5.340  1.0242  0.7437 -3.5865
 6456SOL    HW220969   1.923   0.220   5.375  0.8048  0.2138 -0.9437
 6457SOL     OW20970   2.240   3.452   3.099 -0.2076  0.0801  0.5762
 6457SOL    HW120971   2.186   3.406   3.170  0.8745  1.9411  2.7380
 6457SOL    HW220972   2.224   3.551   3.105 -2.5925  0.2179 -3.9979
 6458SOL     OW20973   4.129   3.331   5.677  0.1222  1.1974 -0.2501
 6458SOL    HW120974   4.224   3.316   5.702  1.1729  4.1778 -1.9724
 6458SOL    HW220975   4.114   3.300   5.582  0.3322  3.5849 -1.1339
 6459SOL     OW20976   3.177   3.794   0.812  0.8779  0.1438  0.4643
 6459SOL    HW120977   3.255   3.795   0.875  2.1769  0.2516 -1.0714
 6459SOL    HW220978   3.211   3.791   0.718 -0.9294  2.6204 -0.3633
 6460SOL     OW20979   1.697   4.431   6.600  0.3622  0.4246  0.3964
 6460SOL    HW120980   1.795   4.450   6.602  0.9249 -1.9012 -0.9612
 6460SOL    HW220981   1.674   4.383   6.515 -1.8342  0.2995  0.9983
 6461SOL     OW20982   2.637   2.533   2.622 -0.8357 -0.0641 -0.4840
 6461SOL    HW120983   2.726   2.564   2.655 -0.6288 -1.9176  0.8641
 6461SOL    HW220984   2.590   2.608   2.577  0.0444  1.9064  1.6740
 6462SOL     OW20985   6.137   4.291   1.164 -0.0284 -0.6957  0.0239
 6462SOL    HW120986   6.122   4.241   1.079 -1.0072 -0.3737 -0.0087
 6462SOL    HW220987   6.213   4.355   1.153 -1.5146  0.9555 -1.3623
 6463SOL     OW20988   5.897   2.035   4.400  0.0642  0.0371  0.4522
 6463SOL    HW120989   5.971   1.980   4.362  0.6951  2.6302 -2.5105
 6463SOL    HW220990   5.931   2.087   4.479 -0.0021 -2.1297  2.0062
 6464SOL     OW20991   5.947   1.297   4.412 -0.0643  0.3154  0.6018
 6464SOL    HW120992   5.945   1.197   4.417  1.1596  0.3023  1.3494
 6464SOL    HW220993   5.971   1.326   4.320 -1.8946 -0.0242 -0.0153
 6465SOL     OW20994   3.585   3.065   0.268 -0.4041 -0.2299 -0.3589
 6465SOL    HW120995   3.582   3.105   0.176  1.8587 -0.0020 -0.3961
 6465SOL    HW220996   3.644   3.121   0.327 -0.7673 -1.0958  0.8695
 6466SOL     OW20997   2.771   1.486   5.419  0.4244  0.3532  0.1870
 6466SOL    HW120998   2.781   1.409   5.356 -0.7823 -0.4453  0.9232
 6466SOL    HW220999   2.858   1.535   5.427  1.0878 -0.6647 -0.6431
 6467SOL     OW21000   1.996   5.515   6.303  0.2246 -0.5737 -0.0635
 6467SOL    HW121001   1.928   5.462   6.353 -0.3103 -0.2297 -0.4122
 6467SOL    HW221002   1.952   5.559   6.225  0.5606  0.7432  0.4676
 6468SOL     OW21003   2.370   5.473   3.437 -0.6058 -0.3557 -0.1424
 6468SOL    HW121004   2.287   5.419   3.453 -0.6298 -0.8574 -1.8029
 6468SOL    HW221005   2.374   5.500   3.341  1.0335 -0.1135 -0.0245
 6469SOL     OW21006   2.911   3.000   5.510  0.2632  0.1372 -0.2827
 6469SOL    HW121007   2.925   3.094   5.479 -0.8489  0.8666  1.2643
 6469SOL    HW221008   2.908   2.938   5.431 -0.4778  1.5997 -1.4543
 6470SOL     OW21009   6.922   6.211   0.685  0.2612  0.0503 -0.0340
 6470SOL    HW121010   6.864   6.290   0.703 -0.1918 -0.4713  0.8642
 6470SOL    HW221011   6.999   6.238   0.627 -0.0763  1.0680 -0.0191
 6471SOL     OW21012   0.358   0.725   4.117  0.0036 -1.0292  0.2475
 6471SOL    HW121013   0.432   0.663   4.144 -0.9869 -2.2424  0.2528
 6471SOL    HW221014   0.342   0.791   4.191 -1.4221 -3.1373  1.9436
 6472SOL     OW21015   3.816   1.934   1.531  0.3634 -0.1062  0.2798
 6472SOL    HW121016   3.793   1.871   1.606 -0.7168  1.9820  1.7983
 6472SOL    HW221017   3.849   1.881   1.453 -0.7468 -2.5783  1.3574
 6473SOL     OW21018   3.779   3.675   0.165  0.0350 -0.0265 -0.2281
 6473SOL    HW121019   3.810   3.584   0.193 -0.6727  0.9070  4.5032
 6473SOL    HW221020   3.681   3.672   0.144  0.2556 -0.5315 -1.2052
 6474SOL     OW21021   1.573   2.660   5.302  0.1341  0.6842  0.6630
 6474SOL    HW121022   1.649   2.620   5.250  0.4705  0.4356  1.3351
 6474SOL    HW221023   1.610   2.721   5.372 -0.3181  1.0636  0.5765
 6475SOL     OW21024   6.586   2.661   4.913 -0.0167 -0.1723  0.6961
 6475SOL    HW121025   6.532   2.585   4.879  0.3634 -1.8961  3.5954
 6475SOL    HW221026   6.670   2.627   4.955  1.7712  2.1653 -0.7114
 6476SOL     OW21027   1.452   5.619   6.262 -0.3769 -0.2871  0.3723
 6476SOL    HW121028   1.486   5.638   6.170  0.3675 -1.1438  0.4572
 6476SOL    HW221029   1.524   5.637   6.329 -0.3941 -1.1826  0.6460
 6477SOL     OW21030   1.829   1.982   3.070 -0.4673  0.4246  0.7067
 6477SOL    HW121031   1.881   1.917   3.014  1.1391 -0.6563  3.3052
 6477SOL    HW221032   1.858   2.075   3.048  0.1832  0.0350 -0.1605
 6478SOL     OW21033   3.334   5.739   3.602  0.5624 -0.3427 -0.6080
 6478SOL    HW121034   3.250   5.709   3.647  0.9302 -0.4476  0.0155
 6478SOL    HW221035   3.340   5.695   3.512 -2.0858  2.7532 -2.5252
 6479SOL     OW21036   3.212   3.734   6.055 -0.0491 -0.4386 -0.5147
 6479SOL    HW121037   3.191   3.659   5.994 -0.5187  0.4100 -1.4160
 6479SOL    HW221038   3.145   3.738   6.129  0.0186 -0.9417 -0.4279
 6480SOL     OW21039   5.292   3.577   1.485  0.4562  0.0576 -0.3311
 6480SOL    HW121040   5.389   3.574   1.509  0.0322  3.0790  2.5236
 6480SOL    HW221041   5.241   3.512   1.540  0.7744 -1.6855 -1.9833
 6481SOL     OW21042   3.003   0.539   6.515 -0.6451  0.1173  0.3273
 6481SOL    HW121043   2.932   0.506   6.577 -0.1135 -0.4070  0.6597
 6481SOL    HW221044   3.086   0.485   6.527 -0.7631 -0.5067 -1.3834
 6482SOL     OW21045   1.409   2.437   4.110 -0.3951 -0.3301 -0.7069
 6482SOL    HW121046   1.426   2.459   4.014 -1.6304  0.5603 -0.7365
 6482SOL    HW221047   1.472   2.364   4.139  0.2806 -0.3091 -2.0571
 6483SOL     OW21048   1.575   0.519   4.398  0.2499 -0.2964  0.8314
 6483SOL    HW121049   1.517   0.490   4.474  0.9551 -1.2771  1.0172
 6483SOL    HW221050   1.556   0.614   4.376  0.7176  0.3186  2.8826
 6484SOL     OW21051   6.531   6.264   5.007  0.1760 -0.3496  0.3362
 6484SOL    HW121052   6.580   6.294   5.089  0.7562 -1.3556  0.3641
 6484SOL    HW221053   6.526   6.341   4.943  2.4810 -0.3914  0.0021
 6485SOL     OW21054   0.440   0.100   6.648 -0.0309  0.4204 -0.0075
 6485SOL    HW121055   0.538   0.099   6.668 -0.2151  1.2484  1.0275
 6485SOL    HW221056   0.396   0.173   6.700 -1.3010 -0.3356  0.0284
 6486SOL     OW21057   4.974   4.530   1.692  0.2935 -0.5735 -0.4480
 6486SOL    HW121058   4.991   4.444   1.644 -0.7802 -0.3050 -1.3781
 6486SOL    HW221059   4.890   4.522   1.745  0.9728 -0.5554  0.6519
 6487SOL     OW21060   6.638   3.365   2.678 -0.0251  0.4371 -0.0050
 6487SOL    HW121061   6.698   3.320   2.744 -0.3336 -0.1377 -0.1092
 6487SOL    HW221062   6.685   3.374   2.590 -0.3803 -0.8156 -0.3475
 6488SOL     OW21063   5.361   4.349   2.847  1.4980  0.2202  0.3289
 6488SOL    HW121064   5.386   4.329   2.942  1.3449  1.8141  0.7420
 6488SOL    HW221065   5.359   4.264   2.794  1.1510 -0.7679  1.8497
 6489SOL     OW21066   6.051   3.888   3.068  0.0484  0.5727  0.2429
 6489SOL    HW121067   6.006   3.960   3.014  1.9571  1.0614 -0.8334
 6489SOL    HW221068   6.143   3.872   3.030  0.8341 -0.2724  2.3634
 6490SOL     OW21069   0.750   0.479   4.558  0.1522 -0.0916 -0.1726
 6490SOL    HW121070   0.757   0.430   4.471 -0.3883  0.6571 -0.6446
 6490SOL    HW221071   0.726   0.415   4.631  1.5254 -0.9019 -0.3823
 6491SOL     OW21072   0.831   2.604   1.747 -0.3520 -0.0871 -0.0598
 6491SOL    HW121073   0.767   2.527   1.757 -0.6930  0.2369  0.2820
 6491SOL    HW221074   0.823   2.641   1.655 -2.1538  1.2398  0.5731
 6492SOL     OW21075   6.374   3.359   0.422 -0.3710 -0.1012  0.2778
 6492SOL    HW121076   6.332   3.415   0.494 -1.0069 -0.2140  0.0038
 6492SOL    HW221077   6.351   3.399   0.332  0.4843  0.0899  0.1317
 6493SOL     OW21078   4.451   3.041   0.323  0.2617 -0.3386 -0.1226
 6493SOL    HW121079   4.473   2.956   0.275 -0.9697  0.0840 -1.5069
 6493SOL    HW221080   4.411   3.107   0.259 -1.0193  0.4336  1.3868
 6494SOL     OW21081   3.967   2.486   5.802  0.3668  0.2739  0.7898
 6494SOL    HW121082   3.952   2.581   5.773  1.0517  0.0502 -0.3426
 6494SOL    HW221083   4.056   2.478   5.846  1.6375 -0.3764 -1.7551
 6495SOL     OW21084   5.534   0.296   1.903 -0.3031  0.2111 -0.0038
 6495SOL    HW121085   5.516   0.393   1.889 -1.2762 -0.0617 -0.7385
 6495SOL    HW221086   5.457   0.254   1.950  0.6039  0.0066  1.3261
 6496SOL     OW21087   5.580   0.526   2.979  0.3898 -0.0047  0.1460
 6496SOL    HW121088   5.536   0.545   2.892  0.2575  2.9519  0.7657
 6496SOL    HW221089   5.673   0.492   2.963  0.0908 -0.2521 -1.1334
 6497SOL     OW21090   5.671   6.819   5.674 -0.2613 -0.3517  0.3215
 6497SOL    HW121091   5.573   6.824   5.655 -0.4984 -1.0965  1.2624
 6497SOL    HW221092   5.720   6.882   5.615 -1.3896  0.6258  0.4058
 6498SOL     OW21093   4.237   0.925   5.826  0.0792 -0.0751  0.3789
 6498SOL    HW121094   4.335   0.910   5.811  0.6502  0.6844  2.8601
 6498SOL    HW221095   4.222   1.019   5.856 -1.5242  0.0068 -0.5611
 6499SOL     OW21096   0.640   3.517   3.059 -0.0463 -0.2238  0.0663
 6499SOL    HW121097   0.709   3.446   3.042 -0.3683 -0.3393 -0.8189
 6499SOL    HW221098   0.658   3.596   3.001 -0.8659 -0.4131 -0.4829
 6500SOL     OW21099   3.725   4.144   3.283  0.5590  0.4003 -0.0714
 6500SOL    HW121100   3.777   4.219   3.322  0.0775  1.4920 -1.4581
 6500SOL    HW221101   3.629   4.153   3.309  0.1530  1.3806 -1.7601
 6501SOL     OW21102   5.537   2.737   5.519  0.2769  0.0226 -0.0747
 6501SOL    HW121103   5.606   2.675   5.557  0.6360  0.3263 -0.2199
 6501SOL    HW221104   5.509   2.705   5.429  0.9747  0.4388 -0.4529
 6502SOL     OW21105   0.891   5.112   2.197  0.1406  0.0060  0.0089
 6502SOL    HW121106   0.885   5.054   2.115  2.1137 -1.9016  1.1236
 6502SOL    HW221107   0.863   5.060   2.277  1.7211  0.6337  1.0213
 6503SOL     OW21108   6.678   5.141   3.731 -0.0154 -0.0587  0.4897
 6503SOL    HW121109   6.702   5.044   3.724  0.8001 -0.0017  2.0287
 6503SOL    HW221110   6.664   5.165   3.826 -0.2697  1.3342  0.1223
 6504SOL     OW21111   1.364   6.622   1.789 -0.6013 -0.1504 -0.2168
 6504SOL    HW121112   1.399   6.548   1.847 -1.0948 -0.0729  0.1910
 6504SOL    HW221113   1.392   6.710   1.828  2.4454 -0.0847 -2.2208
 6505SOL     OW21114   0.629   5.883   0.894  0.0666 -0.4226 -0.2073
 6505SOL    HW121115   0.658   5.855   0.985 -0.9133 -0.3829  0.1326
 6505SOL    HW221116   0.579   5.807   0.850 -1.4669  0.3041  0.2069
 6506SOL     OW21117   2.972   3.200   3.657 -0.4368  0.0079 -0.6471
 6506SOL    HW121118   2.960   3.122   3.596 -0.4977  1.9742 -3.3019
 6506SOL    HW221119   2.917   3.277   3.625 -0.0498  1.3354  1.6253
 6507SOL     OW21120   6.516   2.384   5.541  0.1493 -0.6250  0.3813
 6507SOL    HW121121   6.466   2.301   5.514 -1.2246  0.0193  0.8360
 6507SOL    HW221122   6.578   2.411   5.467 -0.5303 -1.1824 -0.4182
 6508SOL     OW21123   6.224   2.121   6.606 -0.4115  0.0208 -0.5649
 6508SOL    HW121124   6.224   2.023   6.590 -1.5670  0.1414 -1.3899
 6508SOL    HW221125   6.137   2.148   6.649  0.2233  0.5715  0.4102
 6509SOL     OW21126   1.243   6.421   3.029  0.3202 -0.5440 -0.4066
 6509SOL    HW121127   1.257   6.517   3.054  0.3747 -1.1402  2.0568
 6509SOL    HW221128   1.157   6.413   2.978  0.1951  0.7675 -0.4475
 6510SOL     OW21129   1.271   6.005   3.413 -0.3036  0.1209  0.2775
 6510SOL    HW121130   1.246   6.068   3.487  1.2574  0.7358  0.3231
 6510SOL    HW221131   1.216   6.026   3.332 -0.2744  1.1137  0.5009
 6511SOL     OW21132   0.830   6.559   4.378 -0.0442  0.1240  0.1243
 6511SOL    HW121133   0.821   6.604   4.289 -2.2895  0.1024  0.2728
 6511SOL    HW221134   0.852   6.627   4.448 -0.7768  0.5737 -0.0728
 6512SOL     OW21135   4.393   6.357   4.045 -0.4784  0.0153  0.0375
 6512SOL    HW121136   4.485   6.339   4.079 -0.8896 -0.5510  0.8976
 6512SOL    HW221137   4.396   6.431   3.978  0.5969 -0.0050  0.0474
 6513SOL     OW21138   2.301   5.406   5.117  0.0323 -0.2141 -0.1016
 6513SOL    HW121139   2.205   5.435   5.128 -0.2519 -1.4928  1.0213
 6513SOL    HW221140   2.319   5.389   5.020 -1.2278 -1.0351 -0.2233
 6514SOL     OW21141   1.908   5.233   0.096  0.3684  0.1038  0.3092
 6514SOL    HW121142   1.988   5.272   0.049 -0.1943  0.0775 -0.6975
 6514SOL    HW221143   1.902   5.136   0.075 -0.4505  0.2967 -0.3779
 6515SOL     OW21144   1.906   6.932   0.344  0.4727 -0.7497  0.0773
 6515SOL    HW121145   1.844   6.959   0.270  1.4646  1.3555 -0.0748
 6515SOL    HW221146   2.000   6.927   0.308  0.8975 -0.1478  1.0651
 6516SOL     OW21147   1.808   2.907   6.740  0.1748 -0.1492 -0.4474
 6516SOL    HW121148   1.735   2.862   6.690  1.7991 -2.3561 -1.0178
 6516SOL    HW221149   1.791   2.898   6.839 -0.4159 -0.4718 -0.5725
 6517SOL     OW21150   5.616   0.382   2.203  0.1366  0.1367 -0.2254
 6517SOL    HW121151   5.558   0.403   2.125 -2.2711 -1.2295  1.0636
 6517SOL    HW221152   5.604   0.452   2.274 -0.8906 -0.7338  0.4938
 6518SOL     OW21153   3.923   5.937   1.809  0.0125 -0.4590  0.1291
 6518SOL    HW121154   3.985   5.925   1.732  0.3379 -1.4127  0.5305
 6518SOL    HW221155   3.864   6.016   1.791  0.7103 -0.0973 -0.6665
 6519SOL     OW21156   5.623   1.622   6.384 -0.0705  0.1276 -0.3337
 6519SOL    HW121157   5.538   1.665   6.414 -0.3461  0.9435 -2.1289
 6519SOL    HW221158   5.618   1.604   6.286  1.7513  0.0116 -0.4386
 6520SOL     OW21159   0.633   6.422   0.553 -0.2176 -0.1187  0.5233
 6520SOL    HW121160   0.637   6.420   0.653 -0.3485 -1.0317  0.5174
 6520SOL    HW221161   0.641   6.329   0.518 -2.2858 -0.0560 -0.2315
 6521SOL     OW21162   2.341   6.213   2.098  0.1115  0.2824 -0.3473
 6521SOL    HW121163   2.294   6.251   2.017 -0.8594 -2.0802 -0.9613
 6521SOL    HW221164   2.391   6.131   2.072  1.6290  0.7145  1.0621
 6522SOL     OW21165   2.644   2.969   1.578 -0.1456  0.2261 -0.4345
 6522SOL    HW121166   2.693   2.937   1.497 -0.7887 -1.8760 -0.0464
 6522SOL    HW221167   2.546   2.959   1.564 -0.3421  1.3295  0.0404
 6523SOL     OW21168   0.893   0.676   5.884 -0.0169  0.5758  0.3650
 6523SOL    HW121169   0.817   0.662   5.822  1.0905  0.7540 -1.0739
 6523SOL    HW221170   0.908   0.774   5.897  1.1366  0.5796 -0.8686
 6524SOL     OW21171   0.084   6.267   4.099 -0.1872  0.2306  0.1313
 6524SOL    HW121172   0.018   6.300   4.031 -1.0789 -0.3246  0.7088
 6524SOL    HW221173   0.067   6.171   4.118  1.9509 -0.4533 -1.0174
 6525SOL     OW21174   3.116   6.507   0.336 -0.2126  0.3412 -0.3563
 6525SOL    HW121175   3.110   6.449   0.417  1.8264  1.1094  0.4031
 6525SOL    HW221176   3.097   6.452   0.254 -1.8209 -0.5482  0.5706
 6526SOL     OW21177   0.070   0.844   4.084  0.2221  0.2582 -0.0067
 6526SOL    HW121178   0.120   0.838   4.171  1.1719 -1.7345 -0.6243
 6526SOL    HW221179   0.135   0.857   4.009 -0.4302  0.2297 -0.5913
 6527SOL     OW21180   2.334   4.478   6.608  0.2971 -0.3534 -0.1318
 6527SOL    HW121181   2.308   4.414   6.536  0.0548  0.3226 -0.6480
 6527SOL    HW221182   2.417   4.527   6.581  0.6907 -0.6862  0.4203
 6528SOL     OW21183   2.144   4.354   6.996 -0.1104  0.1809 -0.6039
 6528SOL    HW121184   2.158   4.259   6.968 -0.1221  0.3164 -1.0755
 6528SOL    HW221185   2.097   4.356   7.084 -0.2386 -0.2514 -0.6609
 6529SOL     OW21186   6.434   6.208   3.265 -0.7694  0.0355 -0.7281
 6529SOL    HW121187   6.340   6.241   3.255 -1.0757 -0.0781  1.2769
 6529SOL    HW221188   6.446   6.170   3.357  1.3312  0.3428 -0.8308
 6530SOL     OW21189   1.330   1.892   2.344  0.3715  0.3781 -0.3855
 6530SOL    HW121190   1.336   1.820   2.276  1.0854  0.2632 -0.2076
 6530SOL    HW221191   1.418   1.901   2.392  0.1128  0.9628 -0.0015
 6531SOL     OW21192   5.980   1.685   3.210  0.4816 -0.4695 -0.2892
 6531SOL    HW121193   6.031   1.636   3.140 -1.3344 -0.6532 -1.5636
 6531SOL    HW221194   6.019   1.776   3.223  1.5029 -0.8286 -0.7429
 6532SOL     OW21195   5.608   6.589   1.271 -0.2682  0.2195  0.2623
 6532SOL    HW121196   5.554   6.522   1.219  0.0633  0.1399  0.0186
 6532SOL    HW221197   5.705   6.567   1.263 -0.2011  0.3379  0.7391
 6533SOL     OW21198   1.126   6.243   6.878  0.6742  0.1298 -0.4791
 6533SOL    HW121199   1.083   6.207   6.796  1.0142  0.8509 -0.9854
 6533SOL    HW221200   1.187   6.319   6.854  1.0310  0.1426  0.3971
 6534SOL     OW21201   5.325   3.419   1.148 -0.1757  0.0410 -0.6194
 6534SOL    HW121202   5.278   3.480   1.085 -0.7537  0.3636  0.1057
 6534SOL    HW221203   5.285   3.327   1.141 -0.4156  0.1376 -0.5367
 6535SOL     OW21204   5.419   5.940   0.704 -0.1909  0.1698  0.1954
 6535SOL    HW121205   5.388   5.927   0.610 -0.1087  0.4505  0.1275
 6535SOL    HW221206   5.516   5.961   0.705 -0.6335  2.5106  0.1406
 6536SOL     OW21207   3.116   3.189   6.987  0.0436  0.1602 -0.0191
 6536SOL    HW121208   3.194   3.173   7.046  0.0090 -0.7916 -0.2150
 6536SOL    HW221209   3.106   3.288   6.970  0.7187  0.3470  0.6368
 6537SOL     OW21210   3.139   5.904   5.909  0.2449 -0.1969 -0.0205
 6537SOL    HW121211   3.238   5.896   5.897  0.1898 -0.6947 -0.1732
 6537SOL    HW221212   3.097   5.814   5.899 -0.2408  0.0343 -0.1032
 6538SOL     OW21213   5.261   2.187   3.383  0.4812  0.3404  0.1820
 6538SOL    HW121214   5.328   2.117   3.405 -0.8991 -0.5877  1.6292
 6538SOL    HW221215   5.173   2.143   3.362 -0.3697  1.6135  0.9753
 6539SOL     OW21216   2.419   6.661   0.678  0.2469 -0.5315  0.0943
 6539SOL    HW121217   2.410   6.706   0.767  0.1587  0.4602 -0.4047
 6539SOL    HW221218   2.348   6.591   0.669 -1.7988  1.4950 -0.4381
 6540SOL     OW21219   2.022   6.739   3.194  0.1529 -0.4251 -0.4455
 6540SOL    HW121220   2.048   6.734   3.290 -1.0395 -1.2637 -0.1312
 6540SOL    HW221221   1.957   6.814   3.180 -1.1685 -1.4946 -0.1908
 6541SOL     OW21222   4.765   0.644   0.105 -0.3799  0.3472 -0.4728
 6541SOL    HW121223   4.700   0.613   0.036 -0.2775  1.7747 -1.2588
 6541SOL    HW221224   4.829   0.571   0.127 -1.0136 -0.4292 -1.1739
 6542SOL     OW21225   3.466   3.013   1.865  0.1790  0.3643 -0.2910
 6542SOL    HW121226   3.427   2.933   1.911 -1.2639  0.8135 -0.6602
 6542SOL    HW221227   3.472   2.995   1.767  1.5332  0.0772 -0.1747
 6543SOL     OW21228   5.869   5.806   2.791  0.3899 -0.3911  0.1806
 6543SOL    HW121229   5.792   5.828   2.731 -0.7218  0.2601  1.8001
 6543SOL    HW221230   5.921   5.731   2.751 -0.1047  0.2221 -1.7595
 6544SOL     OW21231   1.803   1.565   2.997 -0.1793 -0.0007  0.1874
 6544SOL    HW121232   1.767   1.638   2.939  1.9555  0.8831 -0.1020
 6544SOL    HW221233   1.831   1.488   2.940 -0.6576 -0.2798  0.3221
 6545SOL     OW21234   5.026   4.819   5.949 -0.2479  0.0143  0.0802
 6545SOL    HW121235   4.994   4.823   5.854 -0.9588  3.1744  0.3356
 6545SOL    HW221236   5.116   4.863   5.955 -0.9518  1.3964  1.0560
 6546SOL     OW21237   4.737   3.762   3.078  0.0643 -0.6278 -0.1174
 6546SOL    HW121238   4.643   3.795   3.070  0.9157  1.6725 -2.0339
 6546SOL    HW221239   4.758   3.703   2.999  0.4132 -0.6411 -0.0167
 6547SOL     OW21240   0.290   5.269   5.071  0.0705  0.0193  1.0467
 6547SOL    HW121241   0.198   5.228   5.071 -0.3769  0.9837  0.7835
 6547SOL    HW221242   0.332   5.256   4.981  1.1793 -2.4866  1.8472
 6548SOL     OW21243   2.589   2.764   1.737  0.2452  0.1551 -0.0868
 6548SOL    HW121244   2.519   2.805   1.796  1.6502  0.5833  1.3426
 6548SOL    HW221245   2.614   2.829   1.665  0.4049  0.6771  0.4379
 6549SOL     OW21246   6.340   0.482   0.549  0.2846 -0.2612  0.2987
 6549SOL    HW121247   6.306   0.491   0.455 -2.7155  0.2270  1.3169
 6549SOL    HW221248   6.275   0.428   0.603  0.3795  1.9003  2.7941
 6550SOL     OW21249   6.820   1.587   2.512 -0.2550  0.4111  0.4257
 6550SOL    HW121250   6.869   1.584   2.425  1.8400 -0.2512  1.5520
 6550SOL    HW221251   6.740   1.646   2.503  0.4821  1.1917 -1.6399
 6551SOL     OW21252   2.041   4.911   1.013 -0.1782 -0.0926 -0.3186
 6551SOL    HW121253   2.038   5.010   1.023  0.3766 -0.1341  0.3055
 6551SOL    HW221254   1.947   4.876   1.005 -0.5457  0.2730  1.7180
 6552SOL     OW21255   4.123   2.482   6.839  0.1188 -0.1447 -0.3417
 6552SOL    HW121256   4.031   2.462   6.874  0.4259  1.7106  1.7660
 6552SOL    HW221257   4.188   2.415   6.875  0.0338  0.3032  0.6787
 6553SOL     OW21258   1.958   4.546   6.598 -0.1093 -0.2687 -0.3027
 6553SOL    HW121259   2.032   4.526   6.661 -0.5249  0.1309  0.3208
 6553SOL    HW221260   1.988   4.614   6.531  0.0274  0.0465  0.0760
 6554SOL     OW21261   6.994   3.026   4.596 -0.2862  0.3150  0.3794
 6554SOL    HW121262   7.061   3.081   4.546  0.5604 -1.4644 -0.5246
 6554SOL    HW221263   7.031   3.000   4.685  0.4370 -1.0193 -0.2895
 6555SOL     OW21264   2.975   0.479   2.522 -0.0855  0.0814  0.2909
 6555SOL    HW121265   2.901   0.421   2.558  0.1276 -0.4396 -0.1091
 6555SOL    HW221266   3.051   0.481   2.587 -0.4596  0.6601  0.7286
 6556SOL     OW21267   1.600   5.335   1.866  0.0633 -0.2664  0.4552
 6556SOL    HW121268   1.695   5.315   1.845  0.4181 -0.4814  2.1786
 6556SOL    HW221269   1.553   5.252   1.896 -0.3016  0.1036  0.9311
 6557SOL     OW21270   3.056   1.619   5.606  0.5103 -0.0991 -0.5902
 6557SOL    HW121271   3.024   1.606   5.700 -2.3244 -0.9334 -1.5730
 6557SOL    HW221272   3.109   1.538   5.578 -1.7593 -1.6215 -0.8047
 6558SOL     OW21273   5.976   4.635   6.861 -0.0511 -0.0452 -0.0159
 6558SOL    HW121274   5.894   4.689   6.843  0.2838  0.8218  0.9726
 6558SOL    HW221275   5.971   4.548   6.811 -0.9058  0.6065 -1.0969
 6559SOL     OW21276   1.230   5.138   2.015 -0.4599 -0.6500 -0.2397
 6559SOL    HW121277   1.146   5.185   1.986 -1.0705 -1.4146  0.2551
 6559SOL    HW221278   1.287   5.121   1.935 -0.9620 -0.4842 -0.6428
 6560SOL     OW21279   2.196   1.073   4.604  0.5145  0.0217  0.5212
 6560SOL    HW121280   2.208   0.974   4.597 -0.2425 -0.0599  0.2771
 6560SOL    HW221281   2.275   1.119   4.564  1.5152 -0.4728  1.8451
 6561SOL     OW21282   0.717   6.233   2.852  0.4832  0.1720 -0.1089
 6561SOL    HW121283   0.754   6.315   2.810 -0.6578  1.1504  0.7086
 6561SOL    HW221284   0.622   6.220   2.824  0.3870 -0.3889  0.4307
 6562SOL     OW21285   4.964   3.403   1.986 -0.4313 -0.3907 -0.6033
 6562SOL    HW121286   4.919   3.336   2.045  0.8811 -0.5314  0.2852
 6562SOL    HW221287   4.980   3.488   2.037  1.9565 -0.9786 -0.2260
 6563SOL     OW21288   2.320   5.664   4.084 -0.2104 -0.0211  0.0960
 6563SOL    HW121289   2.413   5.636   4.063 -0.5800 -0.1220 -1.5799
 6563SOL    HW221290   2.320   5.759   4.115  0.5730 -0.4449  1.4713
 6564SOL     OW21291   2.961   6.550   1.516 -0.7174  0.1116 -0.1440
 6564SOL    HW121292   2.862   6.537   1.511 -1.0185  1.4933  1.2860
 6564SOL    HW221293   3.005   6.495   1.446 -2.5716  0.3204 -1.5628
 6565SOL     OW21294   3.923   0.174   5.632  0.3050 -0.1520 -0.4834
 6565SOL    HW121295   3.851   0.137   5.573  0.0036  0.5758 -0.5919
 6565SOL    HW221296   3.986   0.229   5.578  1.1895 -1.1204 -0.4551
 6566SOL     OW21297   2.336   0.615   3.469  0.4081 -0.6005 -0.2017
 6566SOL    HW121298   2.297   0.528   3.499  0.1685 -0.0053  1.2747
 6566SOL    HW221299   2.262   0.680   3.450  0.5965 -0.6095 -1.0191
 6567SOL     OW21300   2.579   1.191   4.192  0.6365 -0.7695  0.2676
 6567SOL    HW121301   2.649   1.146   4.247  1.7662 -0.1834 -0.6439
 6567SOL    HW221302   2.608   1.284   4.171 -0.5042 -0.4561  0.0115
 6568SOL     OW21303   0.263   6.184   6.577 -0.7206  0.4546  0.5414
 6568SOL    HW121304   0.195   6.235   6.524 -0.2315  0.9548  0.3866
 6568SOL    HW221305   0.306   6.244   6.643 -1.2000 -0.1247  1.4092
 6569SOL     OW21306   0.682   2.538   6.779  0.5287 -0.2898  0.1148
 6569SOL    HW121307   0.703   2.625   6.823 -0.2737 -0.0913  0.1190
 6569SOL    HW221308   0.593   2.505   6.810 -0.6853  0.4826 -2.2581
 6570SOL     OW21309   3.733   5.154   1.291  0.6045 -0.0232 -0.3872
 6570SOL    HW121310   3.637   5.181   1.286  0.3448 -0.9296 -0.4108
 6570SOL    HW221311   3.757   5.102   1.210  0.9209 -0.4169 -0.0426
 6571SOL     OW21312   6.105   1.089   3.887  0.0543 -0.0662  0.2146
 6571SOL    HW121313   6.127   1.032   3.967  0.2658 -1.6904 -0.9482
 6571SOL    HW221314   6.006   1.094   3.876 -0.0447 -3.4529 -1.7718
 6572SOL     OW21315   3.223   6.494   3.798 -0.5416 -0.2192  0.8085
 6572SOL    HW121316   3.232   6.396   3.815 -1.0531 -0.0525  2.2075
 6572SOL    HW221317   3.292   6.523   3.731  0.0336 -1.4197  0.8591
 6573SOL     OW21318   1.435   2.653   4.273 -0.6658 -0.1010  0.4026
 6573SOL    HW121319   1.494   2.633   4.351 -0.1216 -1.1064 -0.2410
 6573SOL    HW221320   1.423   2.570   4.219 -0.9898  0.5892 -0.6113
 6574SOL     OW21321   3.065   4.044   0.030 -0.2226  0.3950  0.3254
 6574SOL    HW121322   3.097   4.054   0.124  1.3471  1.1510 -0.2600
 6574SOL    HW221323   3.140   4.012  -0.028 -1.1413  0.0194 -0.6969
 6575SOL     OW21324   6.014   0.043   2.513 -0.1610 -0.1018 -0.3389
 6575SOL    HW121325   5.975  -0.048   2.527 -1.3789 -0.0587 -2.7867
 6575SOL    HW221326   6.035   0.055   2.416  0.9585  1.8792  0.0962
 6576SOL     OW21327   2.595   0.985   4.627  0.5171 -0.1831 -0.7034
 6576SOL    HW121328   2.543   1.003   4.543  2.0368  1.1980 -1.4004
 6576SOL    HW221329   2.531   0.974   4.703 -0.8145  1.0629 -1.5797
 6577SOL     OW21330   0.536   5.824   4.787 -0.2521 -0.2588  0.0614
 6577SOL    HW121331   0.508   5.735   4.749  1.0159 -1.4501  1.7535
 6577SOL    HW221332   0.624   5.850   4.748  0.6396 -1.0679  1.4436
 6578SOL     OW21333   0.943   4.325   4.392  0.8443  0.1944  0.0325
 6578SOL    HW121334   0.949   4.323   4.492  1.2703 -1.0553 -0.0066
 6578SOL    HW221335   0.951   4.420   4.361  2.3690  0.4621  1.1071
 6579SOL     OW21336   6.228   0.572   6.415 -0.1049  0.5010  0.0095
 6579SOL    HW121337   6.275   0.582   6.327 -2.0557  1.9286 -0.9377
 6579SOL    HW221338   6.131   0.556   6.400 -0.2942 -0.4625  1.9290
 6580SOL     OW21339   2.267   2.788   6.265 -0.6014  0.2318 -0.3790
 6580SOL    HW121340   2.256   2.750   6.173 -1.3191 -1.0085  0.2024
 6580SOL    HW221341   2.180   2.784   6.314 -0.0829  0.3302  0.5722
 6581SOL     OW21342   3.563   4.448   2.412 -1.1250  0.2765  0.3786
 6581SOL    HW121343   3.659   4.458   2.384 -0.9086 -3.1299 -0.6264
 6581SOL    HW221344   3.540   4.518   2.480  1.5673  2.1772 -0.4991
 6582SOL     OW21345   4.722   5.170   1.999 -0.1021  0.4306  0.2213
 6582SOL    HW121346   4.714   5.121   1.913  1.9003 -2.0718  1.3158
 6582SOL    HW221347   4.787   5.246   1.990  2.4248 -1.5942  0.0801
 6583SOL     OW21348   2.442   3.141   1.852 -0.1826 -0.2924 -1.0366
 6583SOL    HW121349   2.529   3.155   1.804  0.5026  2.5712  0.7941
 6583SOL    HW221350   2.367   3.173   1.794  0.4614  1.4374 -0.9639
 6584SOL     OW21351   5.697   0.831   2.299 -0.0581 -0.0791 -0.4835
 6584SOL    HW121352   5.772   0.884   2.340 -1.6913  1.2058  1.0120
 6584SOL    HW221353   5.675   0.868   2.209  1.2621 -0.6686 -1.0764
 6585SOL     OW21354   6.573   2.329   3.933 -0.2426 -0.1962  0.3265
 6585SOL    HW121355   6.526   2.385   3.865  0.6102  0.3450  0.1706
 6585SOL    HW221356   6.669   2.354   3.937 -0.1552 -0.6091  1.3361
 6586SOL     OW21357   1.471   2.221   6.790 -0.2163  0.1165 -0.2046
 6586SOL    HW121358   1.455   2.169   6.706 -1.3496  2.2776 -1.3858
 6586SOL    HW221359   1.545   2.287   6.775 -1.4316  1.5619 -0.0269
 6587SOL     OW21360   1.882   2.374   5.982 -0.9028 -0.0016  0.3251
 6587SOL    HW121361   1.913   2.374   5.887 -0.1782  0.4262  0.5497
 6587SOL    HW221362   1.854   2.467   6.008  0.1266  0.1592  0.9064
 6588SOL     OW21363   6.366   2.574   4.177  0.5562  0.5400 -0.1654
 6588SOL    HW121364   6.423   2.656   4.184  1.0040  0.2087  0.1343
 6588SOL    HW221365   6.420   2.494   4.203  0.0307  0.1864 -0.1510
 6589SOL     OW21366   5.689   2.755   6.352 -0.0850  0.2764  0.5134
 6589SOL    HW121367   5.704   2.824   6.281  1.3425  0.1112  0.6115
 6589SOL    HW221368   5.600   2.712   6.339 -0.7381  1.7094  0.0873
 6590SOL     OW21369   4.519   6.547   1.630  0.0992  0.8587 -0.0692
 6590SOL    HW121370   4.446   6.488   1.664  1.2604 -0.3180  0.4973
 6590SOL    HW221371   4.552   6.511   1.542  1.5732 -0.0603  0.8170
 6591SOL     OW21372   2.519   0.051   3.392  0.2242  0.4903 -0.6600
 6591SOL    HW121373   2.456   0.072   3.317  0.1563 -1.9614 -1.3496
 6591SOL    HW221374   2.467   0.042   3.477 -0.1129  0.2448 -0.8911
 6592SOL     OW21375   4.677   2.127   3.992  0.5093 -0.0199  0.0028
 6592SOL    HW121376   4.711   2.128   3.898 -0.4178 -1.8278 -0.3962
 6592SOL    HW221377   4.720   2.201   4.044  0.4000  1.5729 -2.0538
 6593SOL     OW21378   2.406   1.316   4.863  0.2294 -0.1812  0.3502
 6593SOL    HW121379   2.400   1.244   4.932  0.5633 -1.3445 -0.7974
 6593SOL    HW221380   2.435   1.277   4.776  0.3595  1.3427 -0.3277
 6594SOL     OW21381   6.869   2.594   5.538  0.0364 -0.2386  0.1854
 6594SOL    HW121382   6.837   2.507   5.575  0.8276 -0.1964  1.0027
 6594SOL    HW221383   6.791   2.656   5.527 -0.1141  0.2167  3.0957
 6595SOL     OW21384   1.074   0.206   2.244  0.5472  0.0946 -0.2796
 6595SOL    HW121385   0.979   0.195   2.274  0.6941 -0.5427 -0.0322
 6595SOL    HW221386   1.077   0.269   2.166  0.1818  1.9756  1.1519
 6596SOL     OW21387   3.304   5.734   5.068 -0.1121  0.0190 -0.0129
 6596SOL    HW121388   3.327   5.712   5.163 -1.9953  1.1656  0.7721
 6596SOL    HW221389   3.308   5.833   5.056  1.3161 -0.1762 -1.5162
 6597SOL     OW21390   4.835   2.531   0.860 -0.6502 -0.2426 -0.7268
 6597SOL    HW121391   4.759   2.564   0.805 -1.6436  0.7976  1.1630
 6597SOL    HW221392   4.903   2.604   0.870 -0.2998 -0.5456 -0.8902
 6598SOL     OW21393   4.423   4.077   5.589  1.3904 -0.1329 -0.1104
 6598SOL    HW121394   4.366   4.065   5.670 -0.5784  2.8273 -0.8579
 6598SOL    HW221395   4.517   4.053   5.610  1.1650  1.3983  3.3869
 6599SOL     OW21396   6.715   3.690   1.111 -0.0464 -0.0690 -0.1781
 6599SOL    HW121397   6.627   3.674   1.155 -1.8705  2.5263 -2.5272
 6599SOL    HW221398   6.707   3.675   1.013  2.4621 -0.7403 -0.3530
 6600SOL     OW21399   4.612   3.535   4.183  0.1353 -0.0625 -0.2442
 6600SOL    HW121400   4.530   3.487   4.152  0.2860 -1.1692  1.0108
 6600SOL    HW221401   4.644   3.496   4.269  1.6408  0.7519 -0.3939
 6601SOL     OW21402   6.285   5.833   4.827 -0.7189 -0.3099 -0.2543
 6601SOL    HW121403   6.359   5.839   4.893 -1.5281 -0.2564  0.6621
 6601SOL    HW221404   6.323   5.811   4.737  0.3053 -1.3425  0.4040
 6602SOL     OW21405   5.697   4.332   3.277 -0.0987  0.0123 -0.3746
 6602SOL    HW121406   5.735   4.266   3.341 -0.9747  1.9305  2.2826
 6602SOL    HW221407   5.754   4.414   3.276 -0.3976  0.2270 -1.6932
 6603SOL     OW21408   6.434   5.156   5.627  0.2260  0.1645 -0.1162
 6603SOL    HW121409   6.410   5.064   5.658  0.6716  0.2401  0.4892
 6603SOL    HW221410   6.508   5.151   5.560  1.5390  0.1449  1.2584
 6604SOL     OW21411   4.556   5.512   3.695  0.2463  0.4344  0.8074
 6604SOL    HW121412   4.524   5.550   3.608  1.2247  0.1147  0.2975
 6604SOL    HW221413   4.546   5.581   3.767 -0.7247  0.6466  0.4865
 6605SOL     OW21414   1.046   0.414   6.761  0.6350 -0.3058 -0.4003
 6605SOL    HW121415   1.116   0.454   6.820 -0.0521  0.1856  0.1139
 6605SOL    HW221416   1.088   0.353   6.695  1.5303 -0.0976 -0.0362
 6606SOL     OW21417   1.638   1.502   3.205  0.3056 -0.0144 -0.0955
 6606SOL    HW121418   1.696   1.528   3.127 -0.0140 -0.6352 -0.5482
 6606SOL    HW221419   1.545   1.536   3.191  0.7888  2.0374  1.1965
 6607SOL     OW21420   5.266   2.070   5.207  0.7186  0.0736  0.1009
 6607SOL    HW121421   5.273   1.978   5.243  0.7451 -0.3645 -0.9710
 6607SOL    HW221422   5.346   2.124   5.235 -1.1502  1.1075  4.1954
 6608SOL     OW21423   4.418   3.080   0.767 -0.0563 -0.6869 -0.3140
 6608SOL    HW121424   4.378   3.064   0.677  1.6954  1.7788 -1.6661
 6608SOL    HW221425   4.518   3.081   0.760  0.1162  0.5848  1.4058
 6609SOL     OW21426   0.559   6.567   4.459  0.2377 -0.1067  0.1251
 6609SOL    HW121427   0.512   6.491   4.503  2.1480  0.0891  2.6871
 6609SOL    HW221428   0.651   6.540   4.433  0.0598  0.6079 -1.3881
 6610SOL     OW21429   0.969   1.543   0.480  0.1844  0.1959 -0.4635
 6610SOL    HW121430   0.938   1.631   0.518 -1.8210 -1.3544  1.7936
 6610SOL    HW221431   0.902   1.511   0.413  0.3758 -0.1002 -0.5128
 6611SOL     OW21432   5.464   6.721   4.552  0.3337  0.4882 -0.3283
 6611SOL    HW121433   5.446   6.816   4.578 -1.5890  0.0491  0.0542
 6611SOL    HW221434   5.462   6.713   4.452 -2.6264  0.3463 -0.3320
 6612SOL     OW21435   5.826   6.150   0.328  0.0593  0.3788  0.5413
 6612SOL    HW121436   5.864   6.212   0.397  0.8859 -1.4007  1.7595
 6612SOL    HW221437   5.746   6.104   0.367 -1.2512  1.4427 -0.7553
 6613SOL     OW21438   2.882   6.190   0.291  0.0263 -0.4106  0.3593
 6613SOL    HW121439   2.893   6.095   0.322  3.2013 -0.5754 -0.9780
 6613SOL    HW221440   2.825   6.239   0.357 -0.9942 -2.9810  1.5588
 6614SOL     OW21441   2.392   6.045   0.021 -0.4422  0.1432  0.5718
 6614SOL    HW121442   2.466   6.104   0.053 -0.3937  1.3108 -1.5223
 6614SOL    HW221443   2.429   5.976  -0.042 -1.0296  0.4348 -0.1151
 6615SOL     OW21444   0.173   6.412   5.829 -0.1201  0.0585  0.1961
 6615SOL    HW121445   0.088   6.375   5.790  0.2224 -0.8070  0.2524
 6615SOL    HW221446   0.163   6.511   5.843 -1.2550 -0.0927  0.5542
 6616SOL     OW21447   2.627   0.928   5.853 -0.5568  0.0465 -0.9857
 6616SOL    HW121448   2.551   0.975   5.898 -0.6246 -1.4921  0.6031
 6616SOL    HW221449   2.690   0.996   5.815 -2.0550  1.3625 -1.2202
 6617SOL     OW21450   6.251   1.253   4.941 -0.2196  0.0495 -0.2349
 6617SOL    HW121451   6.343   1.261   4.902  0.3489 -0.5410  0.9359
 6617SOL    HW221452   6.252   1.288   5.035 -0.7962 -1.3833  0.3375
 6618SOL     OW21453   2.074   5.609   4.495  0.6461 -0.1288  0.5669
 6618SOL    HW121454   2.158   5.589   4.546  1.7547  0.9112 -0.7871
 6618SOL    HW221455   2.080   5.568   4.404 -1.1757 -1.6920  1.0679
 6619SOL     OW21456   2.227   3.700   5.256  0.1528 -0.0676  0.8235
 6619SOL    HW121457   2.198   3.773   5.195  0.4623 -0.5785  0.0497
 6619SOL    HW221458   2.167   3.698   5.336 -0.1594  0.7117  0.6210
 6620SOL     OW21459   3.415   5.300   1.024  0.6893 -0.3098  0.1708
 6620SOL    HW121460   3.442   5.279   1.118  0.0681  0.7949  0.6213
 6620SOL    HW221461   3.472   5.375   0.989  0.6376 -0.4329 -0.1778
 6621SOL     OW21462   5.062   3.772   6.194  0.1625  0.7561  0.0010
 6621SOL    HW121463   5.086   3.835   6.268 -0.3025  0.3042  0.5423
 6621SOL    HW221464   5.046   3.824   6.110  0.3740  1.3033  0.2934
 6622SOL     OW21465   7.008   0.347   2.975  0.0022 -0.1839 -0.1518
 6622SOL    HW121466   6.985   0.382   2.884 -2.5063  0.6376  0.7326
 6622SOL    HW221467   7.034   0.423   3.034 -0.7280 -0.4071  0.4624
 6623SOL     OW21468   6.864   3.440   4.172  0.3512  0.3951 -0.0437
 6623SOL    HW121469   6.962   3.424   4.183 -0.0391 -1.5447  1.1430
 6623SOL    HW221470   6.830   3.385   4.096 -0.2315 -1.0156  1.1948
 6624SOL     OW21471   2.090   0.253   1.077  0.0631  0.9791  0.4351
 6624SOL    HW121472   1.992   0.251   1.097 -0.4630  0.3679 -1.8709
 6624SOL    HW221473   2.122   0.162   1.053  1.0194  1.3179  0.3485
 6625SOL     OW21474   3.758   0.724   0.102  0.0557  0.4870 -0.0026
 6625SOL    HW121475   3.718   0.724   0.194 -0.2625 -1.8244 -0.0867
 6625SOL    HW221476   3.711   0.793   0.046 -0.1793  1.4850  1.3570
 6626SOL     OW21477   4.374   1.800   0.979  0.1730 -0.6041 -0.0685
 6626SOL    HW121478   4.356   1.896   1.002  1.3932 -0.3066 -0.3184
 6626SOL    HW221479   4.314   1.741   1.034  0.6520  0.2236  1.4029
 6627SOL     OW21480   1.370   1.950   1.716  0.6604  0.3416  0.1551
 6627SOL    HW121481   1.361   1.850   1.714 -3.8328  0.5726 -0.4989
 6627SOL    HW221482   1.313   1.987   1.789  3.2575  2.5118  1.2712
 6628SOL     OW21483   2.502   3.434   1.137 -0.0339 -0.8352 -0.3172
 6628SOL    HW121484   2.409   3.437   1.101  0.2351 -1.6867 -1.1078
 6628SOL    HW221485   2.564   3.478   1.072  0.3719 -1.8651 -0.6415
 6629SOL     OW21486   4.603   6.326   2.138  0.0333 -0.0428  0.2675
 6629SOL    HW121487   4.605   6.357   2.043 -0.8228 -1.0941 -0.1167
 6629SOL    HW221488   4.616   6.227   2.141 -1.7005 -0.2898  1.0893
 6630SOL     OW21489   4.956   1.646   6.976  0.2871 -0.2565 -0.0497
 6630SOL    HW121490   4.946   1.647   7.076 -2.1141 -0.6808 -0.2243
 6630SOL    HW221491   4.979   1.738   6.945 -1.2560  0.4593  0.7690
 6631SOL     OW21492   2.000   0.257   3.716  0.0777 -0.1814  0.2276
 6631SOL    HW121493   1.963   0.200   3.642  0.1285 -0.5924  0.5126
 6631SOL    HW221494   1.926   0.304   3.763 -0.0417 -0.6207  0.4843
 6632SOL     OW21495   5.570   0.659   6.467  0.0882 -0.4848  0.2133
 6632SOL    HW121496   5.576   0.561   6.449  2.0477 -0.4048  0.2180
 6632SOL    HW221497   5.565   0.709   6.380  0.8706 -0.5211  0.1385
 6633SOL     OW21498   1.218   2.459   6.465 -0.0919  0.5930  0.1468
 6633SOL    HW121499   1.152   2.424   6.532 -0.7060 -3.0540 -2.1003
 6633SOL    HW221500   1.173   2.472   6.377  1.8845 -1.2522 -1.2550
 6634SOL     OW21501   6.639   3.049   6.624  0.2647 -0.2119  0.1369
 6634SOL    HW121502   6.675   3.107   6.697  0.1286 -0.6174  0.5337
 6634SOL    HW221503   6.539   3.045   6.631  0.3542 -1.5495  0.9388
 6635SOL     OW21504   4.603   1.581   5.716 -0.2968  0.1362 -0.1803
 6635SOL    HW121505   4.513   1.618   5.692  0.9421  2.6614 -1.3642
 6635SOL    HW221506   4.663   1.656   5.742  1.4217 -1.5294  0.8839
 6636SOL     OW21507   5.975   5.103   6.522 -0.0486 -0.0980  0.1228
 6636SOL    HW121508   5.923   5.088   6.606  1.8663 -1.4767  1.1417
 6636SOL    HW221509   6.026   5.188   6.529  0.8778 -0.7000  0.7943
 6637SOL     OW21510   4.846   1.079   6.862  0.9746  0.5478 -0.5409
 6637SOL    HW121511   4.762   1.036   6.895  0.7614  0.1977 -1.5035
 6637SOL    HW221512   4.914   1.008   6.841  0.7373  0.6787 -1.8219
 6638SOL     OW21513   6.738   5.886   2.752  0.7035 -0.7584 -0.6422
 6638SOL    HW121514   6.689   5.973   2.760 -0.8898 -1.6166 -0.6696
 6638SOL    HW221515   6.794   5.871   2.833  1.9184  0.8050 -1.1382
 6639SOL     OW21516   2.036   3.791   1.311 -0.0210 -0.3331  0.4968
 6639SOL    HW121517   1.947   3.797   1.355  0.4301  0.8313  1.2965
 6639SOL    HW221518   2.053   3.696   1.283 -1.3722 -0.6163  0.5793
 6640SOL     OW21519   5.111   6.444   3.547 -0.1372 -0.9323  0.4136
 6640SOL    HW121520   5.166   6.361   3.559  0.7949 -0.2777  0.8486
 6640SOL    HW221521   5.066   6.466   3.634 -0.2928 -0.9169  0.3288
 6641SOL     OW21522   0.110   1.597   3.139  0.0202  0.5342 -0.3641
 6641SOL    HW121523   0.105   1.568   3.043 -1.4228 -0.3015 -0.0573
 6641SOL    HW221524   0.020   1.591   3.180  1.0465 -1.7546  1.8212
 6642SOL     OW21525   3.298   5.545   6.571  0.1122 -0.0099  0.1527
 6642SOL    HW121526   3.316   5.478   6.499 -3.0107  0.6225 -1.3863
 6642SOL    HW221527   3.210   5.589   6.554 -0.2151  1.0315  3.7654
 6643SOL     OW21528   2.702   3.811   0.337 -0.2496  0.1510 -0.0652
 6643SOL    HW121529   2.740   3.763   0.258  1.5795 -0.8121  1.3428
 6643SOL    HW221530   2.700   3.909   0.318 -0.4010 -0.1122 -1.5196
 6644SOL     OW21531   1.060   2.815   3.777  0.1487 -0.1979  0.3330
 6644SOL    HW121532   1.155   2.812   3.747 -0.5444 -1.7200 -2.0029
 6644SOL    HW221533   1.047   2.751   3.853  0.6900 -1.1371 -0.3503
 6645SOL     OW21534   6.493   0.277   1.937  0.1680  0.3831 -0.0832
 6645SOL    HW121535   6.514   0.254   1.842  1.0823  3.0702 -0.6269
 6645SOL    HW221536   6.411   0.335   1.940 -1.7447 -2.1973  1.1494
 6646SOL     OW21537   0.987   1.447   6.602  0.3492 -0.1626 -0.4271
 6646SOL    HW121538   1.067   1.408   6.557  0.4807  0.1777 -0.4865
 6646SOL    HW221539   0.968   1.397   6.686  0.3036 -0.5888 -0.6862
 6647SOL     OW21540   4.606   3.913   1.568  0.6026  0.1927  0.1260
 6647SOL    HW121541   4.657   3.827   1.562  0.5986  0.2167 -0.2274
 6647SOL    HW221542   4.659   3.980   1.621  0.4849 -0.1158  0.6416
 6648SOL     OW21543   4.880   0.562   2.182  0.5304  0.2955  0.3530
 6648SOL    HW121544   4.809   0.539   2.115  0.8240 -1.6938  0.6618
 6648SOL    HW221545   4.951   0.617   2.138 -0.2261  0.6618 -0.4470
 6649SOL     OW21546   3.066   1.177   1.796 -0.3723 -0.7073  0.6362
 6649SOL    HW121547   3.091   1.261   1.749  2.0621 -1.8023 -0.1578
 6649SOL    HW221548   2.967   1.162   1.786 -0.8069  1.7985  0.4750
 6650SOL     OW21549   2.249   5.895   6.268  0.0273  0.1765 -0.5148
 6650SOL    HW121550   2.242   5.796   6.253  0.6422  0.1104 -0.4075
 6650SOL    HW221551   2.330   5.930   6.221 -1.5101  1.0673 -2.6167
 6651SOL     OW21552   5.289   0.459   6.402  0.5011  0.2191 -0.5868
 6651SOL    HW121553   5.313   0.556   6.403  3.5986 -0.4525  0.2628
 6651SOL    HW221554   5.243   0.436   6.488 -0.4821  0.9284 -0.8957
 6652SOL     OW21555   2.746   0.554   1.151  0.0011 -0.3314 -0.0683
 6652SOL    HW121556   2.774   0.528   1.059 -0.6423 -0.9085 -0.1145
 6652SOL    HW221557   2.723   0.472   1.203  1.0909 -0.0709  0.8645
 6653SOL     OW21558   5.174   5.351   4.848 -0.0555  0.4212  0.2108
 6653SOL    HW121559   5.180   5.444   4.885  0.5444 -0.2319  1.8335
 6653SOL    HW221560   5.147   5.288   4.921 -1.3399 -0.5739 -1.0745
 6654SOL     OW21561   1.862   3.521   0.255  0.2953 -0.7743  0.2481
 6654SOL    HW121562   1.786   3.581   0.281 -0.3668 -2.0160  1.3229
 6654SOL    HW221563   1.917   3.499   0.336  1.0837 -0.8606 -0.3010
 6655SOL     OW21564   1.975   0.921   6.239 -0.6489 -0.1728 -0.2676
 6655SOL    HW121565   2.008   0.853   6.304 -0.0690 -0.9187 -1.3075
 6655SOL    HW221566   1.891   0.963   6.274 -1.0453 -1.4577  0.3860
 6656SOL     OW21567   5.641   6.668   4.971 -0.0826 -0.6456 -0.1471
 6656SOL    HW121568   5.553   6.623   4.952 -0.0171 -1.2835  0.9488
 6656SOL    HW221569   5.623   6.757   5.014 -0.2411  0.9751 -3.2554
 6657SOL     OW21570   6.032   6.059   5.130 -0.9130 -0.8956  0.3566
 6657SOL    HW121571   6.069   5.967   5.123 -0.0151 -0.5287  0.0853
 6657SOL    HW221572   6.105   6.126   5.117 -1.4686 -0.1385  0.9671
 6658SOL     OW21573   0.338   1.460   3.605 -0.5351  0.6001  0.1717
 6658SOL    HW121574   0.241   1.483   3.598 -0.2394  1.7770 -0.2033
 6658SOL    HW221575   0.355   1.373   3.558 -1.4683  0.1819  0.5912
 6659SOL     OW21576   4.030   4.464   1.420  0.1762 -0.3192  0.0293
 6659SOL    HW121577   3.957   4.453   1.352 -0.5153  1.1423  0.4759
 6659SOL    HW221578   4.119   4.459   1.375 -0.2489 -0.4884 -0.8102
 6660SOL     OW21579   2.283   2.025   0.308 -0.0472  0.1413  0.6199
 6660SOL    HW121580   2.372   1.997   0.344  0.0322  0.3729  0.6041
 6660SOL    HW221581   2.248   2.103   0.360 -0.3245 -0.0627  0.7403
 6661SOL     OW21582   1.046   4.075   3.751 -0.0952  0.0349  0.1103
 6661SOL    HW121583   1.087   3.989   3.783  0.0898  0.1013  0.0505
 6661SOL    HW221584   1.118   4.142   3.733 -0.1529 -0.2244 -1.1183
 6662SOL     OW21585   2.118   3.557   1.223  0.0202  0.1174 -0.3316
 6662SOL    HW121586   2.111   3.458   1.216  1.9483 -0.0117 -0.9481
 6662SOL    HW221587   2.177   3.591   1.150  0.1319  1.6228  0.4297
 6663SOL     OW21588   3.297   6.067   3.994 -0.0093  0.0414  0.1127
 6663SOL    HW121589   3.343   5.982   4.018 -1.5297 -1.0377 -0.6155
 6663SOL    HW221590   3.273   6.117   4.077  3.4134  1.2579  0.5225
 6664SOL     OW21591   4.495   2.608   0.325 -0.3299  0.7576  0.1709
 6664SOL    HW121592   4.505   2.687   0.265 -0.0758  1.2105  0.7951
 6664SOL    HW221593   4.560   2.615   0.401 -0.9151  0.4055  0.7218
 6665SOL     OW21594   1.464   4.021   4.432 -0.5019 -0.3520 -0.4873
 6665SOL    HW121595   1.503   4.106   4.396  0.3220  0.5743  2.3674
 6665SOL    HW221596   1.372   4.038   4.467 -0.4400 -0.7104 -0.1402
 6666SOL     OW21597   5.350   0.554   2.752 -0.3702 -0.4421 -0.3993
 6666SOL    HW121598   5.335   0.517   2.660 -0.4240  1.2117 -1.0812
 6666SOL    HW221599   5.427   0.617   2.751 -0.8473  0.1740  0.5255
 6667SOL     OW21600   1.020   5.699   5.120  0.8015  0.1667 -0.3542
 6667SOL    HW121601   1.088   5.630   5.098  1.5018  1.2325 -1.6495
 6667SOL    HW221602   0.928   5.662   5.106  1.1477 -0.7081 -0.3514
 6668SOL     OW21603   1.327   3.646   0.722  0.0551 -0.2071 -0.4616
 6668SOL    HW121604   1.302   3.605   0.635  0.6483 -1.9310  0.1339
 6668SOL    HW221605   1.274   3.603   0.795  1.9273 -1.2244  0.3811
 6669SOL     OW21606   1.944   2.883   0.218 -0.0854  0.1608 -0.9015
 6669SOL    HW121607   1.913   2.903   0.311 -0.2648  0.8857 -1.1137
 6669SOL    HW221608   1.899   2.800   0.185 -0.9556  0.5831 -0.7946
 6670SOL     OW21609   2.184   0.235   5.072  0.1872  0.1723  0.0151
 6670SOL    HW121610   2.279   0.265   5.061  0.5036 -1.1309 -0.9759
 6670SOL    HW221611   2.176   0.138   5.049 -1.0698 -0.1938  1.7813
 6671SOL     OW21612   1.415   0.317   5.852 -0.2862 -0.0146  0.3253
 6671SOL    HW121613   1.509   0.298   5.824 -0.2312  0.3029  0.2947
 6671SOL    HW221614   1.361   0.344   5.772  0.2570  2.4849  0.7215
 6672SOL     OW21615   6.134   0.351   3.698 -0.7992  0.4223 -0.5244
 6672SOL    HW121616   6.146   0.445   3.729 -1.3290  0.1500  0.5804
 6672SOL    HW221617   6.194   0.291   3.750 -0.8850  0.0808 -0.8136
 6673SOL     OW21618   0.629   0.373   2.003  0.3376  0.2297  0.4680
 6673SOL    HW121619   0.687   0.358   2.083  1.3330  0.0432 -0.2796
 6673SOL    HW221620   0.600   0.469   2.001  1.0786  0.4582  0.5457
 6674SOL     OW21621   2.797   5.512   4.672 -0.1879 -0.0724  0.2059
 6674SOL    HW121622   2.871   5.446   4.691  0.9001  1.2693  0.8275
 6674SOL    HW221623   2.713   5.481   4.716  0.0870 -1.4326 -0.1677
 6675SOL     OW21624   6.834   0.314   1.378  0.6145  0.5200 -0.3395
 6675SOL    HW121625   6.923   0.358   1.393  0.6624 -0.0014  1.0691
 6675SOL    HW221626   6.837   0.258   1.295  1.5298  0.6795 -0.4175
 6676SOL     OW21627   2.412   2.237   0.816  0.2254  0.0867 -0.3756
 6676SOL    HW121628   2.460   2.191   0.892  0.8394 -0.6491 -1.1827
 6676SOL    HW221629   2.317   2.206   0.813  0.4954 -0.7651 -0.5866
 6677SOL     OW21630   1.105   2.536   1.128  0.6121  0.1575  0.5096
 6677SOL    HW121631   1.046   2.501   1.055 -1.0993  1.6612  1.0941
 6677SOL    HW221632   1.099   2.475   1.207  1.0662 -0.5082  0.0479
 6678SOL     OW21633   4.753   0.023   3.998  0.5387  0.5753 -0.7035
 6678SOL    HW121634   4.739   0.033   3.900  0.4354 -0.1727 -0.7744
 6678SOL    HW221635   4.732  -0.071   4.025 -1.8209  1.3502  0.4314
 6679SOL     OW21636   4.214   0.172   2.833  0.1963  0.2946 -0.0587
 6679SOL    HW121637   4.118   0.170   2.805  0.2569 -0.5174 -0.2207
 6679SOL    HW221638   4.273   0.149   2.755  0.4846  0.1982  0.1847
 6680SOL     OW21639   3.685   3.584   1.407  0.2447 -0.0776  0.4117
 6680SOL    HW121640   3.675   3.526   1.488 -1.2728 -0.6500 -0.1340
 6680SOL    HW221641   3.737   3.534   1.337 -1.1173 -0.8711 -0.0829
 6681SOL     OW21642   0.336   4.281   1.200  0.0868 -0.9114 -0.0342
 6681SOL    HW121643   0.363   4.291   1.104  0.4813 -0.4318  0.1232
 6681SOL    HW221644   0.393   4.211   1.243 -1.1319 -2.2937 -0.5353
 6682SOL     OW21645   0.620   6.026   3.360 -0.1865 -0.2468 -0.2389
 6682SOL    HW121646   0.659   6.095   3.298  1.1601 -0.7502  0.0048
 6682SOL    HW221647   0.574   5.956   3.306  1.8394 -1.2215 -0.8376
 6683SOL     OW21648   1.446   1.972   6.920  0.9446  0.4088 -0.0088
 6683SOL    HW121649   1.472   1.903   6.852  1.1300  1.4924 -1.0657
 6683SOL    HW221650   1.455   2.063   6.880  0.9550  1.0707  1.4522
 6684SOL     OW21651   0.816   4.315   3.983  0.2135 -0.2677  0.6958
 6684SOL    HW121652   0.803   4.403   3.938  2.5393 -0.1148  0.1852
 6684SOL    HW221653   0.742   4.252   3.957 -2.1649  1.8045  1.9944
 6685SOL     OW21654   2.054   3.917   1.826 -0.0179 -0.0968  0.0015
 6685SOL    HW121655   2.104   3.910   1.913  1.6158 -1.1910 -0.9810
 6685SOL    HW221656   2.095   3.989   1.770 -1.9232  1.5770  0.5993
 6686SOL     OW21657   1.629   4.704   4.767 -0.6360 -0.3950  0.1896
 6686SOL    HW121658   1.540   4.736   4.800  0.5362  1.3223  1.8742
 6686SOL    HW221659   1.702   4.756   4.811  1.2545 -2.0281 -0.8417
 6687SOL     OW21660   0.718   4.461   0.032 -0.6243  0.1247 -0.1663
 6687SOL    HW121661   0.685   4.436   0.123 -1.9938  0.1141 -0.6500
 6687SOL    HW221662   0.765   4.549   0.037 -1.5738  0.6132  0.3795
 6688SOL     OW21663   5.413   3.556   3.942 -0.0316  0.3944 -0.9493
 6688SOL    HW121664   5.453   3.638   3.984  0.3299 -0.2612  0.0281
 6688SOL    HW221665   5.318   3.574   3.917 -1.0129  0.1987  2.1813
 6689SOL     OW21666   5.800   3.167   1.222  0.3876  0.2998 -0.2512
 6689SOL    HW121667   5.748   3.115   1.290  0.8533  1.7882  1.3155
 6689SOL    HW221668   5.842   3.246   1.266  1.1134  1.0584 -2.2091
 6690SOL     OW21669   4.032   6.861   4.199  0.3867 -0.8191  0.3990
 6690SOL    HW121670   4.016   6.875   4.101 -1.1005 -1.2765  0.5535
 6690SOL    HW221671   4.122   6.896   4.223  0.3719  0.2276 -0.9455
 6691SOL     OW21672   5.459   3.999   5.572 -0.6780 -0.1727  0.6025
 6691SOL    HW121673   5.431   4.029   5.481  0.3315  1.8776  0.8846
 6691SOL    HW221674   5.394   3.932   5.607 -0.5828 -1.7624 -1.9747
 6692SOL     OW21675   6.630   1.828   1.783 -0.0556 -0.2583  0.2837
 6692SOL    HW121676   6.718   1.848   1.740 -0.5722 -0.6265 -0.9749
 6692SOL    HW221677   6.634   1.738   1.827 -0.4921 -1.3391 -1.7852
 6693SOL     OW21678   1.180   1.945   0.797 -0.0633 -0.0345 -0.2873
 6693SOL    HW121679   1.268   1.992   0.804 -0.2330  0.5683 -1.8893
 6693SOL    HW221680   1.145   1.927   0.889  1.2097  0.6929  0.3707
 6694SOL     OW21681   3.734   3.648   3.868  0.1219 -0.0117  0.8329
 6694SOL    HW121682   3.766   3.615   3.956 -0.7086 -0.5464  0.9459
 6694SOL    HW221683   3.700   3.571   3.814  2.1548  0.0440 -0.6417
 6695SOL     OW21684   4.598   5.005   1.814 -0.5423 -0.0680 -0.2998
 6695SOL    HW121685   4.532   4.977   1.883 -2.1691 -0.1161 -1.7954
 6695SOL    HW221686   4.550   5.045   1.736  1.0087 -1.8344 -2.2925
 6696SOL     OW21687   5.290   4.044   5.069 -0.1544 -0.2045 -0.0634
 6696SOL    HW121688   5.216   4.053   5.002  0.5602  0.5243 -0.7727
 6696SOL    HW221689   5.378   4.059   5.024  0.5095 -1.9137  0.5904
 6697SOL     OW21690   6.803   6.864   4.001  0.3144 -0.3360 -0.4819
 6697SOL    HW121691   6.768   6.868   3.907  1.7229  2.0317 -0.9965
 6697SOL    HW221692   6.739   6.911   4.062 -0.4192 -1.5512 -0.2838
 6698SOL     OW21693   4.350   5.082   1.066 -0.5523 -0.0400 -0.2651
 6698SOL    HW121694   4.409   5.059   0.989 -0.5330  1.0000 -0.5748
 6698SOL    HW221695   4.327   4.999   1.117 -1.8326 -0.9962 -2.2892
 6699SOL     OW21696   6.382   3.868   6.891  0.1763 -0.2023 -0.5221
 6699SOL    HW121697   6.452   3.797   6.887  0.5558  0.1062  0.4855
 6699SOL    HW221698   6.409   3.945   6.833  2.0166  1.0658  1.8494
 6700SOL     OW21699   7.006   1.249   2.252 -0.0338  0.1273 -0.0723
 6700SOL    HW121700   7.054   1.286   2.331 -0.7106 -0.4702  0.6311
 6700SOL    HW221701   7.031   1.153   2.240  0.4095  0.3273 -0.8703
 6701SOL     OW21702   0.461   1.077   2.803 -0.5029 -0.3028  0.1693
 6701SOL    HW121703   0.474   0.981   2.778 -0.3959 -0.0281 -0.8987
 6701SOL    HW221704   0.545   1.129   2.785 -0.5037 -0.0335  0.8979
 6702SOL     OW21705   2.815   2.534   5.434 -0.4430 -0.1788 -0.4567
 6702SOL    HW121706   2.795   2.582   5.349  1.0316  0.0144 -0.7075
 6702SOL    HW221707   2.729   2.517   5.483 -1.1998  0.7012 -1.4317
 6703SOL     OW21708   5.900   0.964   2.393  0.0454  0.1641  0.5156
 6703SOL    HW121709   5.986   0.928   2.355 -0.3368 -0.0798 -0.1473
 6703SOL    HW221710   5.910   0.976   2.491  0.5553 -0.6951  0.5850
 6704SOL     OW21711   2.823   5.779   4.224  0.2879 -0.4361 -0.2867
 6704SOL    HW121712   2.888   5.795   4.150 -0.5805 -1.1707 -1.2376
 6704SOL    HW221713   2.844   5.693   4.269  1.9881  0.8961  1.6336
 6705SOL     OW21714   2.830   2.355   0.432 -0.4288  0.7018  0.5681
 6705SOL    HW121715   2.791   2.316   0.348  2.5233 -2.2899  0.3716
 6705SOL    HW221716   2.795   2.305   0.511 -0.4045  1.0165  0.7779
 6706SOL     OW21717   2.924   1.824   3.430  0.2123 -0.0289  0.1135
 6706SOL    HW121718   2.913   1.727   3.411  2.1171 -0.4118  0.7642
 6706SOL    HW221719   2.857   1.876   3.377 -1.6200 -1.7445  0.6471
 6707SOL     OW21720   2.053   1.580   1.378 -0.3486  0.0099 -0.1981
 6707SOL    HW121721   1.984   1.536   1.435  0.3160 -0.3201  0.3685
 6707SOL    HW221722   2.026   1.675   1.360 -2.1592 -0.7607 -2.0205
 6708SOL     OW21723   5.016   0.064   5.764 -0.2966  0.0555  0.5396
 6708SOL    HW121724   5.056   0.004   5.833  0.1283 -1.3593 -0.8890
 6708SOL    HW221725   4.971   0.009   5.694  0.6213  1.3693 -1.1441
 6709SOL     OW21726   1.929   6.397   1.147  0.3963 -0.9108  0.5791
 6709SOL    HW121727   1.875   6.315   1.164  0.0639 -1.0443 -0.9907
 6709SOL    HW221728   1.911   6.464   1.219 -3.5656 -0.0993 -0.8982
 6710SOL     OW21729   1.083   1.164   4.779 -0.1660  0.3239 -0.0487
 6710SOL    HW121730   1.021   1.112   4.838 -0.2421  0.4691  0.0009
 6710SOL    HW221731   1.050   1.160   4.685  0.6255 -0.9316 -0.2955
 6711SOL     OW21732   6.793   1.014   2.632 -0.3404  0.0582  0.4836
 6711SOL    HW121733   6.724   1.082   2.604 -0.0898  1.5154  3.0658
 6711SOL    HW221734   6.758   0.962   2.709  0.9963  0.0333  1.0941
 6712SOL     OW21735   6.945   3.534   1.018  0.4074  0.2493 -0.2480
 6712SOL    HW121736   6.990   3.577   0.940 -0.5619 -0.2367 -1.0988
 6712SOL    HW221737   6.871   3.593   1.050 -0.2746 -0.3016 -0.7769
 6713SOL     OW21738   2.911   1.054   0.916  0.3111 -0.1988  0.1144
 6713SOL    HW121739   2.812   1.049   0.918  0.3545 -2.2751 -0.5334
 6713SOL    HW221740   2.950   0.977   0.967  1.5949  0.4886  0.2253
 6714SOL     OW21741   5.580   5.848   5.584  0.0611 -0.4654  0.2633
 6714SOL    HW121742   5.634   5.769   5.614 -0.1797  0.0754  2.2641
 6714SOL    HW221743   5.605   5.872   5.490  2.0477 -1.2889  0.5322
 6715SOL     OW21744   6.077   6.710   4.320 -0.6867  0.8204  0.1930
 6715SOL    HW121745   6.161   6.764   4.318  0.0183 -0.2347  0.5775
 6715SOL    HW221746   6.000   6.770   4.343 -0.3598  2.1620 -1.9280
 6716SOL     OW21747   5.674   6.623   2.864  0.2392  0.0350 -0.2100
 6716SOL    HW121748   5.693   6.721   2.875  1.4097 -0.1949 -0.0591
 6716SOL    HW221749   5.587   6.601   2.909 -0.4189  1.1401 -0.9025
 6717SOL     OW21750   2.084   0.789   5.787 -0.2820  0.1498 -0.1550
 6717SOL    HW121751   2.017   0.802   5.714  1.0461  1.2520 -1.2232
 6717SOL    HW221752   2.142   0.870   5.794  1.5364 -1.1381  0.1243
 6718SOL     OW21753   2.346   3.829   3.486  0.0784 -0.1315 -0.3126
 6718SOL    HW121754   2.302   3.757   3.431  0.3510  0.3005 -1.1212
 6718SOL    HW221755   2.313   3.824   3.580 -1.1456 -0.2708 -0.7299
 6719SOL     OW21756   1.192   2.294   5.340  0.1384  0.4312 -0.3003
 6719SOL    HW121757   1.190   2.387   5.376  0.1859  0.0928  0.5960
 6719SOL    HW221758   1.267   2.285   5.275  1.3018  0.5454  0.9681
 6720SOL     OW21759   0.559   3.034   0.080  0.4754 -0.0897  0.1748
 6720SOL    HW121760   0.480   3.089   0.107  1.3602  1.2348  0.2039
 6720SOL    HW221761   0.528   2.945   0.046 -1.1176  0.8207 -0.9277
 6721SOL     OW21762   4.823   4.518   5.429  0.4804  0.0413  0.0664
 6721SOL    HW121763   4.743   4.536   5.486 -0.1686 -0.8786 -0.5362
 6721SOL    HW221764   4.903   4.563   5.469  0.1629 -1.0313  2.0166
 6722SOL     OW21765   5.732   2.827   4.151  0.0735  0.4993  0.2265
 6722SOL    HW121766   5.727   2.923   4.124  0.8989  1.0756  1.9684
 6722SOL    HW221767   5.790   2.777   4.087 -0.2460  1.1797 -0.6150
 6723SOL     OW21768   6.178   6.236   1.464  0.2172 -0.0938  0.8163
 6723SOL    HW121769   6.176   6.330   1.496  0.5496  0.0576  0.4043
 6723SOL    HW221770   6.268   6.216   1.424 -0.8639  0.4782 -2.2012
 6724SOL     OW21771   5.714   5.332   2.406 -0.1149 -0.4830  0.2192
 6724SOL    HW121772   5.737   5.425   2.434  1.3147 -0.8447  0.3813
 6724SOL    HW221773   5.648   5.293   2.470  2.1421 -0.8583  2.4826
 6725SOL     OW21774   4.165   1.117   0.597  0.7427 -0.2195 -0.0323
 6725SOL    HW121775   4.139   1.053   0.524  0.7017  0.5815 -0.7317
 6725SOL    HW221776   4.086   1.172   0.623  0.7895 -0.4147  0.5383
 6726SOL     OW21777   6.814   0.685   0.278  0.0185 -0.7248 -0.0082
 6726SOL    HW121778   6.733   0.697   0.335  0.7919  0.2047  0.9500
 6726SOL    HW221779   6.850   0.775   0.252 -1.2325 -1.0599 -3.4072
 6727SOL     OW21780   3.139   0.673   4.186  0.3181  0.2701 -0.2372
 6727SOL    HW121781   3.118   0.710   4.276  0.1259 -0.4405  0.0171
 6727SOL    HW221782   3.210   0.603   4.194  0.8103  0.7092 -0.7305
 6728SOL     OW21783   0.076   4.930   6.303  0.0148  0.1346 -0.3124
 6728SOL    HW121784   0.070   4.986   6.220  0.0843 -0.3113 -0.6254
 6728SOL    HW221785   0.041   4.981   6.381  2.3678  1.5625 -0.1017
 6729SOL     OW21786   4.024   1.188   3.055  0.5721  0.3935  0.7569
 6729SOL    HW121787   4.044   1.142   3.141 -0.0378 -0.1068  0.6355
 6729SOL    HW221788   4.107   1.194   3.000  0.4663 -1.5241  0.3169
 6730SOL     OW21789   5.732   4.087   6.397 -0.5020  0.3731  0.4846
 6730SOL    HW121790   5.782   4.166   6.363 -0.7076  0.3378  0.0913
 6730SOL    HW221791   5.757   4.006   6.344  0.8146 -0.1441  1.8145
 6731SOL     OW21792   1.984   6.904   5.264  0.5874 -1.1884  0.1338
 6731SOL    HW121793   1.963   6.988   5.313  0.4526 -0.4916 -1.0806
 6731SOL    HW221794   1.958   6.825   5.320 -0.9581 -0.4005  0.5787
 6732SOL     OW21795   6.071   3.408   3.796 -0.1955 -0.2978  0.2193
 6732SOL    HW121796   6.077   3.501   3.832 -0.2042 -0.5554  0.9121
 6732SOL    HW221797   6.156   3.359   3.817 -0.6125 -0.7739  0.8185
 6733SOL     OW21798   3.940   1.511   2.042 -0.0131  0.0473  0.3159
 6733SOL    HW121799   4.022   1.494   2.097 -0.1607  2.7322  1.5023
 6733SOL    HW221800   3.966   1.515   1.946  1.3430  1.0723  0.6820
 6734SOL     OW21801   5.625   2.439   2.103  0.0485  0.1872  0.6341
 6734SOL    HW121802   5.634   2.463   2.006  1.7052  0.6187  0.8476
 6734SOL    HW221803   5.678   2.357   2.122 -2.0906 -1.2269  0.7757
 6735SOL     OW21804   2.530   1.186   2.339 -0.2260  0.7072 -0.6067
 6735SOL    HW121805   2.566   1.130   2.414 -0.2999  1.4254 -0.0201
 6735SOL    HW221806   2.430   1.185   2.342 -0.2604 -0.3026 -1.4946
 6736SOL     OW21807   1.342   6.984   3.962 -0.9878  0.0821  0.1248
 6736SOL    HW121808   1.349   7.083   3.963 -1.9539  0.2171  3.1147
 6736SOL    HW221809   1.371   6.949   3.873  1.3377  2.8594 -0.3349
 6737SOL     OW21810   4.278   2.877   5.692  0.0867 -0.0011  0.5824
 6737SOL    HW121811   4.237   2.889   5.783 -0.7706  1.6822  0.0167
 6737SOL    HW221812   4.294   2.780   5.675  1.1869 -0.3077  2.9194
 6738SOL     OW21813   4.241   3.223   2.968 -0.1801 -0.4218  0.1452
 6738SOL    HW121814   4.269   3.130   2.944 -0.2223 -0.2831 -0.4584
 6738SOL    HW221815   4.311   3.287   2.936 -0.0918 -0.2551  0.6717
 6739SOL     OW21816   5.857   4.114   6.015 -0.3385 -0.4678  0.4292
 6739SOL    HW121817   5.868   4.034   6.074 -0.7915  0.0686  1.2569
 6739SOL    HW221818   5.832   4.193   6.070  3.3854  1.1129  0.1176
 6740SOL     OW21819   5.284   6.026   6.387  0.1031  0.2149 -0.2281
 6740SOL    HW121820   5.311   5.984   6.301  0.1568  0.8963 -0.5533
 6740SOL    HW221821   5.348   5.998   6.459 -1.1466 -2.0610  0.0964
 6741SOL     OW21822   0.307   3.782   5.436  0.1752  0.1846 -0.2491
 6741SOL    HW121823   0.350   3.751   5.521 -1.2278 -0.4301  0.2624
 6741SOL    HW221824   0.208   3.769   5.442  0.0670 -0.0973 -2.0663
 6742SOL     OW21825   3.437   5.794   2.452  0.0976 -0.6960 -0.1628
 6742SOL    HW121826   3.473   5.701   2.464 -0.9360 -1.0237  0.6056
 6742SOL    HW221827   3.348   5.801   2.497  0.8523  1.1212  1.1708
 6743SOL     OW21828   3.694   5.485   6.783  0.5614  0.1580  0.0367
 6743SOL    HW121829   3.681   5.581   6.809 -1.0293 -0.1302  0.3862
 6743SOL    HW221830   3.726   5.480   6.688 -0.7666  1.0009 -0.4817
 6744SOL     OW21831   5.302   3.329   5.078  0.5097 -0.6170  0.1567
 6744SOL    HW121832   5.371   3.384   5.126 -0.1551 -0.5744  1.0926
 6744SOL    HW221833   5.347   3.257   5.027  1.3435  0.2815 -0.4060
 6745SOL     OW21834   4.843   3.641   0.261  0.1911  0.3112  0.2387
 6745SOL    HW121835   4.917   3.655   0.196  0.5489  0.3654  0.6526
 6745SOL    HW221836   4.860   3.694   0.344  2.5736 -3.7261  2.6471
 6746SOL     OW21837   6.727   2.218   1.024 -0.8339 -0.1258  0.0641
 6746SOL    HW121838   6.796   2.146   1.012 -0.5169  0.2504 -0.4094
 6746SOL    HW221839   6.686   2.239   0.935  1.3055  2.4892 -0.4127
 6747SOL     OW21840   1.007   3.485   5.663 -0.0963  0.3933 -0.1255
 6747SOL    HW121841   1.035   3.449   5.574 -0.2953  0.8393 -0.3745
 6747SOL    HW221842   1.070   3.454   5.733  0.0696  0.0441 -0.4253
 6748SOL     OW21843   5.467   4.378   5.167  0.5261  0.3169 -0.5896
 6748SOL    HW121844   5.401   4.348   5.098 -0.8451  0.3272  0.6808
 6748SOL    HW221845   5.485   4.475   5.155  0.1556  0.3614 -0.8139
 6749SOL     OW21846   5.368   4.861   0.289  0.0018 -0.3378 -0.7465
 6749SOL    HW121847   5.417   4.937   0.331 -0.7541 -0.5379  0.5223
 6749SOL    HW221848   5.349   4.791   0.357 -1.7652 -0.4100 -1.2539
 6750SOL     OW21849   6.419   2.913   3.912  0.0410 -0.2992  1.0025
 6750SOL    HW121850   6.342   2.849   3.908  0.5628 -0.8695 -0.6329
 6750SOL    HW221851   6.412   2.978   3.837  0.4447  0.5055  1.6434
 6751SOL     OW21852   7.000   2.541   5.297 -0.3823  0.4762 -0.1894
 6751SOL    HW121853   7.040   2.630   5.276  1.3344 -0.2630 -0.2401
 6751SOL    HW221854   6.941   2.549   5.377 -1.3659  1.9153 -1.0099
 6752SOL     OW21855   3.491   0.416   3.377 -0.4077 -0.5357  0.3153
 6752SOL    HW121856   3.449   0.481   3.441  0.2001 -0.0309  0.2140
 6752SOL    HW221857   3.559   0.361   3.425  1.0181  0.7463 -0.1232
 6753SOL     OW21858   2.961   4.043   6.336  0.1054 -0.1817 -0.4439
 6753SOL    HW121859   2.952   4.141   6.319  2.0324 -0.5150 -4.4690
 6753SOL    HW221860   2.872   4.000   6.324 -0.4105  0.8730 -0.5608
 6754SOL     OW21861   0.439   5.983   1.638 -0.3922 -0.2537 -0.0483
 6754SOL    HW121862   0.379   6.047   1.686 -0.1486  0.2768 -0.4536
 6754SOL    HW221863   0.524   6.029   1.613  1.2481 -1.5908  2.6238
 6755SOL     OW21864   3.854   5.020   5.470  0.1208  0.2700  0.4164
 6755SOL    HW121865   3.840   5.119   5.464 -0.9019  0.1699  0.8949
 6755SOL    HW221866   3.842   4.991   5.565  0.1037 -0.3625  0.2212
 6756SOL     OW21867   1.621   5.972   4.674  0.1683  0.1447 -0.1182
 6756SOL    HW121868   1.528   5.967   4.637  0.7200  0.4078 -1.6355
 6756SOL    HW221869   1.664   5.882   4.671  1.1127  0.5852 -2.7296
 6757SOL     OW21870   1.932   4.869   4.340 -0.3018 -0.4042  0.0516
 6757SOL    HW121871   1.856   4.821   4.298 -0.3778 -0.2170 -0.0258
 6757SOL    HW221872   1.898   4.927   4.414 -0.1935 -0.5792  0.2391
 6758SOL     OW21873   3.093   1.282   2.954 -0.2452  0.3952 -0.7939
 6758SOL    HW121874   3.181   1.263   2.997 -0.3800  2.3358  0.4579
 6758SOL    HW221875   3.046   1.196   2.934  1.8727 -0.6865 -1.4423
 6759SOL     OW21876   3.578   1.831   5.911  0.0469 -0.2897  0.8046
 6759SOL    HW121877   3.535   1.756   5.962  2.7465 -3.3980 -1.1262
 6759SOL    HW221878   3.641   1.880   5.971 -2.4965  1.2932  2.3716
 6760SOL     OW21879   5.817   1.505   1.749  0.1384  0.7698 -0.4253
 6760SOL    HW121880   5.779   1.429   1.802  0.3227  0.8115 -0.2328
 6760SOL    HW221881   5.911   1.484   1.724  0.2293  0.9894 -0.2659
 6761SOL     OW21882   0.267   2.352   0.160 -0.3912 -0.6800 -0.2855
 6761SOL    HW121883   0.310   2.290   0.093  3.1982 -0.2369  1.3707
 6761SOL    HW221884   0.241   2.299   0.241  1.4730 -0.3531  0.5917
 6762SOL     OW21885   5.026   4.858   4.650 -0.0586 -0.1925 -0.1038
 6762SOL    HW121886   4.972   4.872   4.568 -0.6567  1.1150  0.4878
 6762SOL    HW221887   5.066   4.945   4.679 -0.4169 -0.4964  1.3717
 6763SOL     OW21888   6.188   6.165   6.759 -0.0604 -0.2141  0.3520
 6763SOL    HW121889   6.124   6.128   6.826  0.0616 -2.3894 -0.6679
 6763SOL    HW221890   6.278   6.125   6.773  0.8996  2.0135  1.0868
 6764SOL     OW21891   1.163   0.267   3.359  0.4519  0.0685 -0.4837
 6764SOL    HW121892   1.066   0.277   3.380  0.7001  0.9690  0.3291
 6764SOL    HW221893   1.177   0.185   3.304 -0.6169 -0.7986  0.4718
 6765SOL     OW21894   1.365   0.048   3.132 -0.1046 -0.0828  0.6663
 6765SOL    HW121895   1.419  -0.035   3.138 -0.7844 -0.7794 -1.8207
 6765SOL    HW221896   1.274   0.031   3.171 -0.1684 -0.4498  0.3630
 6766SOL     OW21897   1.208   1.536   1.480  0.1893 -0.2847 -0.2923
 6766SOL    HW121898   1.301   1.569   1.498 -0.1844  1.9352 -2.0269
 6766SOL    HW221899   1.209   1.475   1.402  0.1994 -0.2918 -0.2867
 6767SOL     OW21900   1.782   5.747   5.335 -0.1471 -0.0528  0.1884
 6767SOL    HW121901   1.718   5.675   5.307 -0.7745  1.2406 -2.0431
 6767SOL    HW221902   1.875   5.712   5.332 -0.5818 -1.4539  1.6765
 6768SOL     OW21903   3.918   0.781   2.648 -0.3143 -0.2127 -0.7090
 6768SOL    HW121904   4.005   0.812   2.610 -0.5087  1.0353 -0.1712
 6768SOL    HW221905   3.936   0.723   2.728  0.0406  2.0003  0.9005
 6769SOL     OW21906   1.521   4.894   2.162  0.2146 -0.0092  0.2000
 6769SOL    HW121907   1.563   4.819   2.213  1.4282  1.1577  0.9832
 6769SOL    HW221908   1.424   4.899   2.186  0.4805 -0.2856  1.4532
 6770SOL     OW21909   1.917   5.060   1.731  0.3887  0.7099 -0.4042
 6770SOL    HW121910   1.915   4.990   1.659 -1.2031 -0.8278  1.0582
 6770SOL    HW221911   2.004   5.054   1.780  1.4825  1.7512 -2.0997
 6771SOL     OW21912   6.660   6.077   1.386  0.2426 -0.2878  0.6766
 6771SOL    HW121913   6.710   6.150   1.339 -0.3078  0.3313  1.0412
 6771SOL    HW221914   6.714   6.045   1.464  0.4299 -0.1839  0.5910
 6772SOL     OW21915   0.929   0.409   2.125  0.2652 -0.4976  0.7610
 6772SOL    HW121916   0.892   0.437   2.214  0.8575 -0.1436  0.9064
 6772SOL    HW221917   0.957   0.490   2.074  2.4105 -0.7930  1.3606
 6773SOL     OW21918   1.015   6.093   3.173 -0.2226 -0.3002  0.4877
 6773SOL    HW121919   1.072   6.168   3.209 -0.3158 -0.8315  1.7797
 6773SOL    HW221920   1.049   6.067   3.083  0.7940  0.2571  0.6865
 6774SOL     OW21921   2.582   4.790   4.030 -0.0757  0.0894 -0.1542
 6774SOL    HW121922   2.584   4.878   4.078 -0.8036  0.4114 -0.6948
 6774SOL    HW221923   2.623   4.720   4.088 -0.4266  0.5798  0.7143
 6775SOL     OW21924   0.239   0.878   6.538  0.7496 -0.0151  0.0599
 6775SOL    HW121925   0.233   0.973   6.567  0.3391  0.2803 -0.9668
 6775SOL    HW221926   0.148   0.838   6.534  0.7852 -0.0228 -0.8890
 6776SOL     OW21927   0.862   5.958   3.502  0.1685  0.2705  0.9560
 6776SOL    HW121928   0.936   6.011   3.542  1.1882 -0.1289 -0.3408
 6776SOL    HW221929   0.812   6.015   3.436  0.7614 -0.1163  0.1565
 6777SOL     OW21930   5.404   0.159   0.151 -0.0509  0.7702 -0.1433
 6777SOL    HW121931   5.388   0.072   0.198  1.4724  0.7925  0.4616
 6777SOL    HW221932   5.488   0.152   0.097 -0.0451  1.7941 -0.2773
 6778SOL     OW21933   0.395   6.874   2.595  0.0835 -0.5710  0.2389
 6778SOL    HW121934   0.394   6.783   2.553 -1.1249 -0.2526 -0.4807
 6778SOL    HW221935   0.301   6.906   2.607  0.5012  1.4379 -1.4107
 6779SOL     OW21936   5.686   3.734   2.773  0.4261 -0.1695  0.4644
 6779SOL    HW121937   5.652   3.641   2.759  0.4154 -0.1928  0.6349
 6779SOL    HW221938   5.608   3.797   2.777  0.5246  0.2437 -2.3183
 6780SOL     OW21939   5.206   3.068   5.025 -0.3007 -0.6583  0.3865
 6780SOL    HW121940   5.182   3.004   4.952  1.2582 -2.7083  1.5242
 6780SOL    HW221941   5.136   3.138   5.034 -1.7788 -1.8326 -1.3782
 6781SOL     OW21942   0.982   4.527   5.386 -0.7084  0.3954 -0.2571
 6781SOL    HW121943   0.898   4.572   5.414 -0.5468  0.2092  0.5359
 6781SOL    HW221944   0.985   4.435   5.425 -0.7365 -0.0809 -1.3325
 6782SOL     OW21945   6.254   1.070   0.294  0.3092  0.0695  0.2872
 6782SOL    HW121946   6.319   1.013   0.244  1.2440  1.3366 -0.0102
 6782SOL    HW221947   6.236   1.031   0.384  1.6059 -0.2382  0.4321
 6783SOL     OW21948   6.339   2.707   2.019 -0.2849 -0.0760 -0.3570
 6783SOL    HW121949   6.275   2.632   2.033  1.5301 -1.4644  0.9316
 6783SOL    HW221950   6.297   2.793   2.049 -1.5639 -0.9152  0.3486
 6784SOL     OW21951   6.432   5.157   0.811 -0.5109 -0.0527  0.1325
 6784SOL    HW121952   6.409   5.123   0.720  1.1687 -0.5731 -0.1328
 6784SOL    HW221953   6.486   5.241   0.803 -0.6039  0.0600  0.6540
 6785SOL     OW21954   6.949   5.465   3.622 -0.8710  0.2045  0.3581
 6785SOL    HW121955   6.976   5.461   3.526 -0.3978 -3.0924  0.4960
 6785SOL    HW221956   6.975   5.553   3.661  1.1648  0.7063 -1.9098
 6786SOL     OW21957   2.844   1.700   4.444 -0.3001 -0.0515 -0.0849
 6786SOL    HW121958   2.913   1.769   4.467 -0.9614  0.2661  1.0484
 6786SOL    HW221959   2.853   1.674   4.348  1.7144 -0.3971  0.1678
 6787SOL     OW21960   2.147   6.737   1.920  0.4082  0.1265  0.2993
 6787SOL    HW121961   2.120   6.692   1.835 -1.8590  0.0966  0.9594
 6787SOL    HW221962   2.223   6.800   1.902  0.0948 -0.0065 -1.7054
 6788SOL     OW21963   2.320   4.950   4.671  0.4922 -0.0488 -0.4093
 6788SOL    HW121964   2.303   4.977   4.766 -0.2647 -1.9377  0.0271
 6788SOL    HW221965   2.254   4.995   4.611  0.7351  0.8574 -0.0203
 6789SOL     OW21966   3.937   5.087   4.438  0.2002 -0.4608  0.3029
 6789SOL    HW121967   3.947   5.159   4.506 -0.0808  0.8573 -1.0021
 6789SOL    HW221968   3.920   5.128   4.348  0.1287 -2.1576 -0.4956
 6790SOL     OW21969   5.001   5.969   0.062 -0.0680 -0.6502  0.5273
 6790SOL    HW121970   5.072   6.038   0.043 -0.6344 -0.0790  0.4514
 6790SOL    HW221971   4.919   5.990   0.009 -0.5380 -0.8984  1.1409
 6791SOL     OW21972   6.583   1.998   4.646 -0.6456 -0.7782  0.1614
 6791SOL    HW121973   6.542   2.023   4.558 -0.4983 -0.9022  0.0571
 6791SOL    HW221974   6.616   2.081   4.692 -1.7675 -0.5750  0.6329
 6792SOL     OW21975   2.641   4.428   5.475  0.4158 -0.0525 -0.4819
 6792SOL    HW121976   2.614   4.521   5.451 -0.3313 -0.1874 -0.2035
 6792SOL    HW221977   2.640   4.370   5.393  4.2711  0.9081 -1.3845
 6793SOL     OW21978   6.184   1.337   3.722 -0.1051 -0.6023  0.0482
 6793SOL    HW121979   6.270   1.332   3.673 -0.2010  0.0379 -0.1946
 6793SOL    HW221980   6.175   1.258   3.783  0.2441 -1.1386 -0.5827
 6794SOL     OW21981   2.886   3.065   5.937  0.1670  0.2658  0.3552
 6794SOL    HW121982   2.942   3.016   5.871  0.2905  0.5438  0.2498
 6794SOL    HW221983   2.800   3.017   5.951  0.6709 -0.4853  0.9640
 6795SOL     OW21984   5.346   5.248   6.375 -0.1484 -0.6181 -1.1865
 6795SOL    HW121985   5.377   5.267   6.468 -1.2758  0.0960 -0.9373
 6795SOL    HW221986   5.330   5.150   6.365 -1.2483 -0.5577 -0.2156
 6796SOL     OW21987   5.862   6.226   0.606 -0.1975 -0.3617 -0.3118
 6796SOL    HW121988   5.894   6.321   0.606 -0.4563 -0.2691  0.6901
 6796SOL    HW221989   5.776   6.219   0.655 -1.0133 -0.8586 -1.7569
 6797SOL     OW21990   1.199   6.338   5.068  0.3177  0.6761 -0.1118
 6797SOL    HW121991   1.266   6.273   5.034  1.5941  2.5531 -1.4152
 6797SOL    HW221992   1.210   6.349   5.167  1.5886  0.5606 -0.2289
 6798SOL     OW21993   6.808   4.361   4.058  0.9805 -0.3394  0.3494
 6798SOL    HW121994   6.837   4.423   4.131  1.3377 -0.3987  0.2573
 6798SOL    HW221995   6.759   4.412   3.988 -0.3306 -0.4462  1.1517
 6799SOL     OW21996   4.493   6.085   5.541 -0.6236  0.3541  0.0406
 6799SOL    HW121997   4.472   6.012   5.607 -0.9173 -0.7126 -1.1971
 6799SOL    HW221998   4.433   6.163   5.558 -1.2486 -0.2164  0.5483
 6800SOL     OW21999   5.600   3.129   1.023 -0.3796 -0.1238  0.1784
 6800SOL    HW122000   5.657   3.050   1.001  1.1233  0.6131  1.2274
 6800SOL    HW222001   5.643   3.181   1.098 -0.2976  2.7303 -1.6809
 6801SOL     OW22002   5.955   6.027   3.851 -0.4634 -0.1380  0.2474
 6801SOL    HW122003   5.882   6.054   3.913 -2.1484 -1.8373 -0.8947
 6801SOL    HW222004   5.918   6.013   3.759  1.0519 -2.1787 -0.1309
 6802SOL     OW22005   2.186   6.743   2.790 -0.1353 -0.0591  0.0580
 6802SOL    HW122006   2.253   6.725   2.861 -0.4235 -4.0815 -0.4709
 6802SOL    HW222007   2.094   6.725   2.825 -0.5854  1.0962 -0.4657
 6803SOL     OW22008   1.250   3.449   6.354  0.4803  0.3876  1.3565
 6803SOL    HW122009   1.261   3.380   6.426  1.1772 -0.3831  0.5234
 6803SOL    HW222010   1.286   3.414   6.268 -1.1175  0.9809  0.4118
 6804SOL     OW22011   0.829   1.853   2.360  0.7673 -0.1314  0.0106
 6804SOL    HW122012   0.856   1.829   2.453 -0.4908  0.3644  0.5204
 6804SOL    HW222013   0.777   1.939   2.362  0.4450 -0.2941 -1.1136
 6805SOL     OW22014   2.062   2.266   0.010 -0.0395 -0.0254 -0.1663
 6805SOL    HW122015   1.971   2.308   0.002 -0.2986 -0.6328 -0.4913
 6805SOL    HW222016   2.120   2.300  -0.064  0.1669  0.7584  0.3429
 6806SOL     OW22017   1.160   2.091   5.611 -0.0753 -0.2720  0.3499
 6806SOL    HW122018   1.064   2.071   5.595  0.0370  0.3389 -1.2601
 6806SOL    HW222019   1.171   2.189   5.628  0.3162 -0.2746  0.1192
 6807SOL     OW22020   5.426   2.456   2.279 -0.3856  0.1058  0.1112
 6807SOL    HW122021   5.361   2.512   2.228 -1.1156  0.8160  1.7498
 6807SOL    HW222022   5.507   2.440   2.223 -0.9553  1.2139 -1.0862
 6808SOL     OW22023   2.601   3.568   2.146 -0.0208  0.1235 -0.2760
 6808SOL    HW122024   2.686   3.619   2.158 -0.8852  2.2009 -2.2468
 6808SOL    HW222025   2.607   3.512   2.064 -1.0045  1.3874 -1.2434
 6809SOL     OW22026   0.090   3.165   2.072 -0.1910  0.2356 -0.5508
 6809SOL    HW122027   0.051   3.095   2.012  2.1358 -1.3124 -0.3831
 6809SOL    HW222028   0.187   3.147   2.085 -0.0535  2.0860  1.5471
 6810SOL     OW22029   4.111   5.099   5.922  0.1109  0.2027 -0.2273
 6810SOL    HW122030   4.123   5.195   5.946  0.1712 -0.0768  0.9138
 6810SOL    HW222031   4.098   5.045   6.005 -2.8105 -0.4067 -0.9803
 6811SOL     OW22032   6.697   5.190   0.131  0.5157 -0.4225 -0.3026
 6811SOL    HW122033   6.787   5.187   0.175  0.6109  0.5091 -0.3971
 6811SOL    HW222034   6.638   5.255   0.180  0.1094 -0.5457 -0.6214
 6812SOL     OW22035   6.165   3.662   3.665 -0.0977 -0.0349  0.4955
 6812SOL    HW122036   6.261   3.642   3.687 -0.0440  0.5280  0.7786
 6812SOL    HW222037   6.113   3.672   3.749 -0.4573 -0.5507  0.3403
 6813SOL     OW22038   1.464   6.747   1.145 -0.3599  0.0813  0.1515
 6813SOL    HW122039   1.552   6.794   1.145  0.9790 -2.2464  1.0769
 6813SOL    HW222040   1.441   6.720   1.052  0.7426 -0.6851  0.0792
 6814SOL     OW22041   0.342   4.177   3.078  0.0462 -0.4536 -0.4922
 6814SOL    HW122042   0.311   4.260   3.124 -0.7931 -1.0561  0.0588
 6814SOL    HW222043   0.427   4.196   3.028 -0.9694  1.1224 -1.7051
 6815SOL     OW22044   4.312   4.378   5.817 -0.4574 -0.7808  0.0628
 6815SOL    HW122045   4.405   4.342   5.816 -0.2165 -0.1772 -0.0027
 6815SOL    HW222046   4.312   4.470   5.856 -1.0457 -0.8263  0.1813
 6816SOL     OW22047   6.947   0.835   1.634  0.7448  0.0697 -0.6890
 6816SOL    HW122048   7.023   0.773   1.654  1.8855  1.7213  0.3619
 6816SOL    HW222049   6.973   0.928   1.658 -0.8471  1.0227 -2.3788
 6817SOL     OW22050   5.027   0.447   3.478 -0.1876 -0.0006 -0.0622
 6817SOL    HW122051   5.122   0.472   3.461  0.3845 -1.0893  1.3431
 6817SOL    HW222052   4.991   0.397   3.400  0.4484  0.2266 -0.5089
 6818SOL     OW22053   4.818   3.329   5.786  0.2378 -0.5673  0.0972
 6818SOL    HW122054   4.914   3.302   5.782  0.5029  0.2811  0.5020
 6818SOL    HW222055   4.763   3.267   5.729  0.9400 -1.3841  0.2853
 6819SOL     OW22056   3.572   6.530   2.702 -0.0318  0.2290  0.4082
 6819SOL    HW122057   3.483   6.573   2.687 -0.4370 -0.6670  0.1665
 6819SOL    HW222058   3.573   6.440   2.659  1.3239  0.6072 -0.4128
 6820SOL     OW22059   2.718   0.228   3.456  0.4079 -0.5479 -0.8131
 6820SOL    HW122060   2.709   0.302   3.389  2.0465 -1.0406 -1.6493
 6820SOL    HW222061   2.673   0.146   3.421 -2.7355  0.3610  0.7772
 6821SOL     OW22062   4.797   5.591   2.187  0.1462  0.1872  0.1344
 6821SOL    HW122063   4.893   5.610   2.166  0.3030 -2.4894 -2.3554
 6821SOL    HW222064   4.791   5.505   2.238 -0.9410  0.6258  0.7770
 6822SOL     OW22065   6.653   3.962   1.870 -0.7470 -0.3010  0.2410
 6822SOL    HW122066   6.648   4.059   1.848  0.5337  0.2482  2.1925
 6822SOL    HW222067   6.660   3.909   1.785 -1.6030  1.2581 -0.8556
 6823SOL     OW22068   2.818   1.383   1.229  0.1947  0.2343  0.0041
 6823SOL    HW122069   2.780   1.313   1.289 -0.7546  0.5676 -0.1823
 6823SOL    HW222070   2.907   1.412   1.264 -0.6228  0.9222  1.6837
 6824SOL     OW22071   3.841   2.111   1.055  0.8657  0.4603 -0.3175
 6824SOL    HW122072   3.836   2.191   1.114  1.1490  0.5989 -0.4770
 6824SOL    HW222073   3.921   2.056   1.079  0.0851 -0.3579  0.5085
 6825SOL     OW22074   0.844   6.576   2.363  0.0853  0.3035 -0.1825
 6825SOL    HW122075   0.799   6.655   2.321 -1.1768  0.2743  1.0577
 6825SOL    HW222076   0.939   6.572   2.332 -0.1896  1.5476 -1.2784
 6826SOL     OW22077   3.160   0.735   3.514 -0.5375  0.2378 -0.1536
 6826SOL    HW122078   3.250   0.697   3.537 -1.0243 -1.1324 -0.4236
 6826SOL    HW222079   3.090   0.664   3.527 -1.7063  1.5195  0.8744
 6827SOL     OW22080   2.719   6.008   3.933 -0.5091 -0.2086  0.0125
 6827SOL    HW122081   2.720   6.073   4.009 -0.9095 -0.0908 -0.0821
 6827SOL    HW222082   2.813   5.994   3.900 -0.0600 -1.7023  1.7423
 6828SOL     OW22083   1.165   4.776   3.103 -0.6426 -0.0064  0.1949
 6828SOL    HW122084   1.081   4.814   3.065 -1.1131 -1.5357 -0.3840
 6828SOL    HW222085   1.157   4.677   3.108  0.8078 -0.1127  0.9608
 6829SOL     OW22086   3.872   2.129   5.558  0.0793  0.2176 -0.1734
 6829SOL    HW122087   3.793   2.098   5.611  1.1807 -1.4482  0.5726
 6829SOL    HW222088   3.912   2.052   5.509  0.5541  1.2763 -1.4971
 6830SOL     OW22089   2.679   2.735   0.249 -0.0314  0.3221  0.5141
 6830SOL    HW122090   2.663   2.817   0.304  1.9173 -0.8103  2.9633
 6830SOL    HW222091   2.636   2.656   0.293  1.5144 -0.6138  0.4325
 6831SOL     OW22092   6.700   3.334   3.986 -0.5600  0.7694  0.1566
 6831SOL    HW122093   6.634   3.328   4.061 -1.6537  2.2872 -0.6304
 6831SOL    HW222094   6.688   3.256   3.925 -1.1950  0.6874  0.3763
 6832SOL     OW22095   4.049   0.323   5.452  0.3748 -0.2525  0.0327
 6832SOL    HW122096   4.132   0.285   5.412  1.0079  1.8182 -0.7451
 6832SOL    HW222097   4.012   0.395   5.393 -2.3396 -1.4812  0.0653
 6833SOL     OW22098   3.846   0.682   3.988  0.4282 -0.2952  0.4959
 6833SOL    HW122099   3.871   0.623   3.911 -0.3614 -1.5479  1.1536
 6833SOL    HW222100   3.753   0.660   4.017  0.9901 -0.4376  2.3174
 6834SOL     OW22101   5.914   2.178   0.221  0.2984  0.1762  0.4122
 6834SOL    HW122102   5.850   2.231   0.277 -0.6761 -2.5238  2.0310
 6834SOL    HW222103   6.002   2.172   0.268  0.4432  0.4405  0.1768
 6835SOL     OW22104   2.371   0.911   1.229  0.1430  0.4481  0.1857
 6835SOL    HW122105   2.342   0.943   1.139  0.0836  1.8416  0.6689
 6835SOL    HW222106   2.431   0.832   1.219  0.0687  0.5317 -1.0707
 6836SOL     OW22107   3.633   4.613   1.415  0.0982 -0.2720  0.8329
 6836SOL    HW122108   3.703   4.636   1.348 -1.2296  0.5815 -0.3259
 6836SOL    HW222109   3.575   4.540   1.379 -1.5185  1.1755  0.3407
 6837SOL     OW22110   0.589   5.151   5.686 -0.0538 -0.1037 -0.5522
 6837SOL    HW122111   0.580   5.102   5.599  0.6507 -1.6223  0.1956
 6837SOL    HW222112   0.524   5.114   5.752 -0.3858  0.8481 -0.3364
 6838SOL     OW22113   1.434   5.742   0.186  0.1306 -0.3070 -0.0525
 6838SOL    HW122114   1.346   5.696   0.198  0.1630 -0.3446  0.0405
 6838SOL    HW222115   1.455   5.798   0.266  0.9714 -1.6105  0.6863
 6839SOL     OW22116   4.744   1.818   6.568  0.3480 -0.4346  0.2721
 6839SOL    HW122117   4.650   1.848   6.547  0.5608  0.1127  0.0918
 6839SOL    HW222118   4.802   1.898   6.580  0.9536 -0.7772 -0.3437
 6840SOL     OW22119   5.315   4.399   6.056 -0.2448  0.8140 -0.3726
 6840SOL    HW122120   5.232   4.389   6.111 -0.7144  2.5645 -0.7097
 6840SOL    HW222121   5.306   4.345   5.972 -0.5250  0.0463  0.1413
 6841SOL     OW22122   6.576   4.639   6.560 -0.1544  0.8557  0.4933
 6841SOL    HW122123   6.482   4.604   6.568 -0.0684  0.8687  1.9466
 6841SOL    HW222124   6.638   4.562   6.545 -0.6146  1.0673 -3.7211
 6842SOL     OW22125   6.970   5.010   0.002  0.2129  0.6463 -0.0289
 6842SOL    HW122126   7.052   4.991  -0.052 -0.0838  2.2802 -1.1238
 6842SOL    HW222127   6.899   4.943  -0.020  0.1469  1.1910 -1.6209
 6843SOL     OW22128   6.069   3.366   2.284  0.3138 -0.1403  0.2512
 6843SOL    HW122129   6.125   3.355   2.202 -1.1014 -0.5484 -0.6927
 6843SOL    HW222130   6.098   3.449   2.333  0.5206  0.6885 -1.2104
 6844SOL     OW22131   0.563   3.209   0.640 -0.0087  0.1888  0.2924
 6844SOL    HW122132   0.555   3.306   0.662 -0.6219 -0.0951  1.4337
 6844SOL    HW222133   0.472   3.171   0.624  0.2426 -0.1637 -0.3040
 6845SOL     OW22134   0.440   6.391   5.777  0.1685 -0.2586  0.4080
 6845SOL    HW122135   0.467   6.420   5.686  0.0113  0.7116  0.6581
 6845SOL    HW222136   0.345   6.417   5.794 -0.6263 -2.6410 -0.0510
 6846SOL     OW22137   3.950   5.254   4.649  0.0902  0.0318  0.0258
 6846SOL    HW122138   4.013   5.331   4.663  0.7826 -0.7193  1.2867
 6846SOL    HW222139   3.914   5.225   4.738 -0.3324 -0.9451 -0.4574
 6847SOL     OW22140   1.897   0.428   4.160 -0.1526  0.2389 -0.5083
 6847SOL    HW122141   1.962   0.370   4.112 -0.8979 -0.0821 -1.1530
 6847SOL    HW222142   1.923   0.436   4.257  0.0469 -1.0395 -0.4455
 6848SOL     OW22143   2.584   2.788   5.105  0.0899  0.1317  0.3427
 6848SOL    HW122144   2.555   2.856   5.172 -1.4005  0.9799 -1.0938
 6848SOL    HW222145   2.504   2.746   5.062  0.9901 -0.5466 -0.7572
 6849SOL     OW22146   1.940   4.246   2.077  0.2328 -0.1565 -0.6068
 6849SOL    HW122147   1.880   4.297   2.016 -0.6323 -1.3245 -0.7622
 6849SOL    HW222148   2.001   4.187   2.023  0.6083  0.0393 -0.4009
 6850SOL     OW22149   1.403   2.782   5.135  0.1787  0.0223  0.0264
 6850SOL    HW122150   1.454   2.861   5.101 -0.4038 -0.3034 -1.6663
 6850SOL    HW222151   1.461   2.728   5.195  1.2285  0.6424 -0.4141
 6851SOL     OW22152   5.963   1.717   1.589 -0.0732  0.2629 -0.2141
 6851SOL    HW122153   6.023   1.761   1.657  0.0313 -1.0887  0.6195
 6851SOL    HW222154   5.886   1.674   1.636  0.0590 -0.7886 -0.9310
 6852SOL     OW22155   4.057   2.375   2.366  0.2238 -0.1510 -0.8905
 6852SOL    HW122156   4.044   2.315   2.445 -1.8987 -0.8109 -1.6778
 6852SOL    HW222157   4.011   2.463   2.382  1.4735  0.4838 -0.6272
 6853SOL     OW22158   0.045   4.920   3.659 -0.0946 -0.1682  0.1596
 6853SOL    HW122159   0.078   5.006   3.619 -1.3801  0.6125  0.7255
 6853SOL    HW222160   0.122   4.857   3.670  0.8727  0.9073 -0.2550
 6854SOL     OW22161   4.802   0.350   3.885 -0.1568  0.1642 -0.2394
 6854SOL    HW122162   4.753   0.408   3.950 -1.3424 -0.5912 -0.4389
 6854SOL    HW222163   4.809   0.258   3.922  2.9473  0.6556  0.7189
 6855SOL     OW22164   1.311   5.727   1.497 -0.1218  0.8331  0.3997
 6855SOL    HW122165   1.225   5.752   1.540  0.1079  1.5361  0.4603
 6855SOL    HW222166   1.387   5.748   1.558  0.0572 -0.6038  0.7125
 6856SOL     OW22167   0.125   0.755   6.181  0.0288  0.4680 -0.3074
 6856SOL    HW122168   0.185   0.811   6.239  0.5567 -0.0425 -0.3461
 6856SOL    HW222169   0.127   0.789   6.087  0.8635 -0.0051 -0.4688
 6857SOL     OW22170   2.847   0.428   6.691  0.4808 -0.1864  0.8124
 6857SOL    HW122171   2.748   0.435   6.704  0.6836  0.9995  2.0100
 6857SOL    HW222172   2.889   0.389   6.774  1.2415  1.8556  1.4664
 6858SOL     OW22173   3.755   3.634   0.474  0.6302 -0.3525  0.0745
 6858SOL    HW122174   3.845   3.660   0.507  1.1591 -1.4014 -0.4660
 6858SOL    HW222175   3.732   3.687   0.392  1.5125 -1.2337 -0.7758
 6859SOL     OW22176   6.590   4.800   6.770  0.3202  0.8632  0.2989
 6859SOL    HW122177   6.563   4.731   6.703  1.8384 -1.5069  1.9732
 6859SOL    HW222178   6.675   4.844   6.741  0.2860  0.7697  0.0573
 6860SOL     OW22179   1.496   5.425   2.872 -0.2387  0.1110  0.1045
 6860SOL    HW122180   1.493   5.450   2.775 -1.8409  1.8281  0.5707
 6860SOL    HW222181   1.565   5.480   2.918  0.1704 -0.3551  0.0645
 6861SOL     OW22182   0.343   2.536   6.875  0.1435 -0.4410  0.0517
 6861SOL    HW122183   0.336   2.622   6.823  1.0949  0.1156  0.8043
 6861SOL    HW222184   0.349   2.459   6.812 -0.9364  0.0101 -0.6377
 6862SOL     OW22185   5.191   2.810   2.353 -0.0742  0.1135 -0.1735
 6862SOL    HW122186   5.278   2.763   2.360  0.4046  0.8661 -0.8708
 6862SOL    HW222187   5.203   2.906   2.379 -1.0941 -0.1766  1.5487
 6863SOL     OW22188   1.566   6.092   0.457  0.3895  0.5018 -0.9547
 6863SOL    HW122189   1.665   6.107   0.460  0.6522 -0.9937 -1.4385
 6863SOL    HW222190   1.532   6.077   0.550  1.1700 -2.0638 -1.0061
 6864SOL     OW22191   2.939   6.726   4.517  0.2439 -0.1074  0.6792
 6864SOL    HW122192   2.855   6.730   4.462 -0.5680 -1.1985  1.7712
 6864SOL    HW222193   3.004   6.665   4.473  0.1280  0.0515  0.2753
 6865SOL     OW22194   3.713   5.785   6.790  0.0091  0.2778 -0.2318
 6865SOL    HW122195   3.720   5.816   6.885  1.1169 -0.8184  0.0703
 6865SOL    HW222196   3.787   5.825   6.736 -0.6714  0.9703 -0.6649
 6866SOL     OW22197   3.132   5.656   2.744 -0.0753 -0.0596 -0.1419
 6866SOL    HW122198   3.088   5.683   2.830  0.2715  0.2231 -0.0490
 6866SOL    HW222199   3.067   5.665   2.669 -0.0955  0.6437 -0.0479
 6867SOL     OW22200   0.338   4.278   3.864  0.0669 -0.0290 -0.0596
 6867SOL    HW122201   0.290   4.291   3.951  1.8726  2.1836  0.7229
 6867SOL    HW222202   0.274   4.247   3.794 -1.7605 -0.3323  1.6629
 6868SOL     OW22203   5.106   2.128   4.964 -0.3536 -0.0487  0.1781
 6868SOL    HW122204   5.177   2.122   5.034 -0.6265 -0.6721  0.4077
 6868SOL    HW222205   5.019   2.153   5.007 -0.5245 -0.4437  0.0688
 6869SOL     OW22206   2.671   0.548   1.577 -0.4886 -0.1630 -0.8431
 6869SOL    HW122207   2.728   0.617   1.533  3.3414 -1.9979  0.8648
 6869SOL    HW222208   2.626   0.589   1.657  1.2159  0.5686 -0.2100
 6870SOL     OW22209   4.754   1.923   4.757  0.3011 -0.3676 -0.2165
 6870SOL    HW122210   4.687   1.932   4.684 -0.7978 -0.5211  0.7512
 6870SOL    HW222211   4.773   1.826   4.774 -0.5248 -0.3943  0.6381
 6871SOL     OW22212   6.694   5.766   6.587  0.3798  0.3991 -0.1918
 6871SOL    HW122213   6.683   5.749   6.489 -0.7023  1.3216 -0.2491
 6871SOL    HW222214   6.650   5.693   6.639  0.6205  0.1089 -0.3907
 6872SOL     OW22215   6.490   2.306   2.962  0.1523 -0.2244 -0.2113
 6872SOL    HW122216   6.430   2.310   2.883 -1.1870 -0.1377  0.7704
 6872SOL    HW222217   6.463   2.230   3.021  1.9404 -1.0970 -0.4257
 6873SOL     OW22218   4.401   4.366   4.940  0.3668  0.5804  0.1821
 6873SOL    HW122219   4.409   4.276   4.896 -0.9394  0.5250  0.0311
 6873SOL    HW222220   4.392   4.353   5.039  4.4013  0.7381  0.7601
 6874SOL     OW22221   1.394   4.500   1.385 -0.3204 -0.3139  0.3576
 6874SOL    HW122222   1.353   4.572   1.442 -1.6570 -1.1709  0.5202
 6874SOL    HW222223   1.479   4.534   1.346 -1.6357  1.9096 -0.7759
 6875SOL     OW22224   3.309   0.888   4.671 -0.3835 -0.3803  0.0536
 6875SOL    HW122225   3.327   0.933   4.584 -0.3083 -2.2681 -0.9723
 6875SOL    HW222226   3.240   0.940   4.722  2.2114  2.8032  0.6284
 6876SOL     OW22227   0.761   2.167   2.867  0.1815  0.2600 -0.3526
 6876SOL    HW122228   0.784   2.264   2.859  1.8045  0.1455  1.8133
 6876SOL    HW222229   0.715   2.151   2.954 -2.1367 -0.6312 -1.6668
 6877SOL     OW22230   6.938   3.103   4.920 -0.2878 -0.4008 -0.5519
 6877SOL    HW122231   6.846   3.084   4.884 -0.9282  1.4397 -0.0140
 6877SOL    HW222232   6.931   3.171   4.993  1.5160 -0.2242 -0.5091
 6878SOL     OW22233   4.348   3.782   1.592  0.0304  0.0322  0.1607
 6878SOL    HW122234   4.431   3.837   1.582  0.9117 -1.2165  0.3833
 6878SOL    HW222235   4.361   3.694   1.547 -1.4952  0.1120 -0.5131
 6879SOL     OW22236   3.828   6.559   2.863 -0.7623  0.1061 -0.0062
 6879SOL    HW122237   3.762   6.627   2.832  2.8391  3.7370 -0.4415
 6879SOL    HW222238   3.872   6.516   2.784  0.2876  0.7989  0.1876
 6880SOL     OW22239   6.039   4.017   3.300  0.0206  0.1557  0.2929
 6880SOL    HW122240   6.049   3.981   3.207  2.2105  1.0930  0.0977
 6880SOL    HW222241   5.967   3.967   3.348 -1.0327 -0.4891 -1.8185
 6881SOL     OW22242   5.726   3.071   1.929  0.5340 -0.5687 -0.3866
 6881SOL    HW122243   5.796   3.126   1.974 -1.4084  0.5137  1.5435
 6881SOL    HW222244   5.712   2.987   1.981  0.0487 -0.5244 -0.4423
 6882SOL     OW22245   2.962   3.260   5.485  0.0404 -0.0336  0.2081
 6882SOL    HW122246   3.045   3.270   5.540  1.5583 -0.2901 -1.8893
 6882SOL    HW222247   2.896   3.331   5.509  0.6984 -0.0221  2.1524
 6883SOL     OW22248   0.357   0.947   0.264  0.0403  0.2295  0.0664
 6883SOL    HW122249   0.324   0.960   0.170 -1.4292 -0.5397  0.4378
 6883SOL    HW222250   0.453   0.974   0.270 -0.1255  1.2745 -1.4165
 6884SOL     OW22251   6.342   6.634   0.413 -0.6285 -0.2503  0.2863
 6884SOL    HW122252   6.334   6.732   0.426 -1.0364 -0.4706  1.9948
 6884SOL    HW222253   6.251   6.596   0.392 -0.3019 -0.1608 -1.4321
 6885SOL     OW22254   3.990   5.334   0.439 -0.7237 -0.1895 -0.0311
 6885SOL    HW122255   4.063   5.326   0.371 -1.3050  0.6814 -0.7766
 6885SOL    HW222256   4.008   5.270   0.514  0.3884 -0.5451 -0.5717
 6886SOL     OW22257   6.025   2.398   3.523 -0.1443  0.0721 -0.1032
 6886SOL    HW122258   6.062   2.491   3.526  1.0502 -0.3321 -1.2375
 6886SOL    HW222259   6.060   2.346   3.601  0.1878  0.2292 -0.1461
 6887SOL     OW22260   3.269   3.114   0.160  0.4735  0.1188 -0.9442
 6887SOL    HW122261   3.291   3.064   0.244  2.3719  2.5924  0.1565
 6887SOL    HW222262   3.352   3.129   0.107 -0.5489 -0.5213 -2.8242
 6888SOL     OW22263   4.233   5.639   1.374  0.0359 -0.4332 -0.3965
 6888SOL    HW122264   4.233   5.545   1.407  0.1470  0.1334  1.2922
 6888SOL    HW222265   4.189   5.699   1.441  1.2238  0.9275 -0.7699
 6889SOL     OW22266   3.788   4.460   0.393 -0.0152 -0.2045 -0.1150
 6889SOL    HW122267   3.885   4.468   0.416  0.1329  0.4426 -0.9273
 6889SOL    HW222268   3.743   4.402   0.461  0.5951  0.8186  1.2184
 6890SOL     OW22269   4.366   3.581   1.353 -0.6404 -0.0164 -0.8862
 6890SOL    HW122270   4.313   3.504   1.387  0.6745 -0.8198 -0.5930
 6890SOL    HW222271   4.448   3.548   1.307  0.2906  1.2212 -0.1820
 6891SOL     OW22272   1.992   5.860   4.746  0.4264 -0.6762  0.6026
 6891SOL    HW122273   2.081   5.837   4.785  0.4477 -3.2810 -0.7414
 6891SOL    HW222274   1.999   5.863   4.646 -0.9020 -0.3791  0.4970
 6892SOL     OW22275   5.331   5.220   0.834  0.3762 -0.2309  0.7420
 6892SOL    HW122276   5.256   5.161   0.804  0.9965 -0.5041 -0.2860
 6892SOL    HW222277   5.293   5.307   0.867 -0.2702  0.9056 -2.6615
 6893SOL     OW22278   0.566   1.483   5.298 -0.0650 -0.2155  0.3991
 6893SOL    HW122279   0.628   1.557   5.273  0.2880 -0.7684 -0.4060
 6893SOL    HW222280   0.509   1.458   5.220 -1.1215  0.0951  1.0488
 6894SOL     OW22281   4.887   4.578   2.627 -0.1537  0.0386 -0.5328
 6894SOL    HW122282   4.853   4.670   2.646  0.5692  0.1826  0.1506
 6894SOL    HW222283   4.858   4.549   2.536 -1.1985  0.5552 -0.3832
 6895SOL     OW22284   0.704   1.144   2.360 -0.2739 -0.2225 -0.3859
 6895SOL    HW122285   0.677   1.072   2.295 -1.3948  0.4219 -0.6669
 6895SOL    HW222286   0.652   1.227   2.341  0.8319  0.6088  0.0821
 6896SOL     OW22287   6.656   2.357   3.239 -0.1247  0.0866  0.3693
 6896SOL    HW122288   6.602   2.400   3.311  0.7418  1.1879  0.3910
 6896SOL    HW222289   6.600   2.345   3.157 -0.3489  1.4201  0.3115
 6897SOL     OW22290   5.484   1.840   0.993  0.1905 -0.0837 -0.5022
 6897SOL    HW122291   5.454   1.809   0.903  0.4385  2.0963 -1.4214
 6897SOL    HW222292   5.435   1.923   1.018 -0.4411 -1.0637  1.7847
 6898SOL     OW22293   0.976   1.675   5.730 -0.1271 -0.0369  0.4396
 6898SOL    HW122294   0.991   1.692   5.828  0.1682  1.1117  0.2126
 6898SOL    HW222295   1.057   1.704   5.679 -1.3549  2.1744 -0.4113
 6899SOL     OW22296   5.098   5.613   5.282 -0.0362  0.1202 -0.2242
 6899SOL    HW122297   5.093   5.601   5.183 -0.0906 -0.2122 -0.1824
 6899SOL    HW222298   5.165   5.684   5.304  3.5422 -2.9094 -0.3477
 6900SOL     OW22299   0.827   1.792   4.908 -0.1506  0.0083  0.3383
 6900SOL    HW122300   0.835   1.793   5.008 -2.0336  0.8276  0.5220
 6900SOL    HW222301   0.792   1.881   4.877  1.4162  0.1425 -1.1720
 6901SOL     OW22302   0.570   0.126   1.966  0.6518 -0.1364 -0.2409
 6901SOL    HW122303   0.644   0.097   1.907  0.2344  0.3270 -1.0027
 6901SOL    HW222304   0.586   0.221   1.996  1.7734 -0.9236  1.8589
 6902SOL     OW22305   6.962   2.623   2.203 -0.2436 -0.2614 -0.2835
 6902SOL    HW122306   7.038   2.592   2.260 -0.2700 -1.2957 -0.7936
 6902SOL    HW222307   6.915   2.544   2.164  0.8957  0.4011 -3.2544
 6903SOL     OW22308   5.475   4.694   1.998 -0.0508  0.5784 -0.2981
 6903SOL    HW122309   5.530   4.655   1.925 -0.5356  0.8446 -0.8097
 6903SOL    HW222310   5.452   4.789   1.976 -1.6897  0.1218 -0.6490
 6904SOL     OW22311   1.132   6.026   0.349 -0.3427 -0.0349 -0.4937
 6904SOL    HW122312   1.071   5.948   0.366  0.1568 -0.2249  0.5030
 6904SOL    HW222313   1.130   6.048   0.251 -0.6072 -1.1998 -0.7781
 6905SOL     OW22314   0.859   5.014   5.182 -0.6039 -0.4874  0.4157
 6905SOL    HW122315   0.839   4.959   5.101  1.1797 -0.5058 -0.0585
 6905SOL    HW222316   0.788   5.083   5.194 -1.2932 -0.9793 -0.7145
 6906SOL     OW22317   5.847   2.513   3.724  0.1875  0.2292 -0.0504
 6906SOL    HW122318   5.910   2.457   3.669  1.0056  1.0356  0.0347
 6906SOL    HW222319   5.876   2.609   3.719 -1.1973  0.6528 -0.2098
 6907SOL     OW22320   5.843   5.501   4.510 -0.3836 -0.2453 -0.5023
 6907SOL    HW122321   5.934   5.541   4.504  0.1819 -1.4725 -0.3652
 6907SOL    HW222322   5.786   5.538   4.436 -0.1944  1.5139  0.1904
 6908SOL     OW22323   4.243   4.691   6.183 -0.3722  0.0474 -0.0808
 6908SOL    HW122324   4.228   4.642   6.097 -4.3987 -2.0903  1.5796
 6908SOL    HW222325   4.268   4.626   6.255 -1.4191  1.0899  1.2815
 6909SOL     OW22326   3.878   1.737   6.613  0.2168  0.4875 -0.1092
 6909SOL    HW122327   3.842   1.645   6.599  1.8768 -0.6359  2.2868
 6909SOL    HW222328   3.966   1.746   6.565  1.9603 -0.6187  2.6426
 6910SOL     OW22329   5.848   6.334   6.627  0.1756  0.1523 -0.7205
 6910SOL    HW122330   5.866   6.329   6.725 -1.8536  0.0557 -0.3108
 6910SOL    HW222331   5.850   6.430   6.597 -1.5237  0.4107 -0.0772
 6911SOL     OW22332   6.684   6.415   6.041  0.6019  1.0429 -0.4602
 6911SOL    HW122333   6.756   6.433   6.107  0.5982 -0.5345  0.0118
 6911SOL    HW222334   6.673   6.316   6.029 -0.3093  1.2748 -1.8188
 6912SOL     OW22335   6.118   1.004   6.813 -0.3473  0.3061 -0.3006
 6912SOL    HW122336   6.151   1.033   6.723  2.0022 -0.6228  0.1940
 6912SOL    HW222337   6.056   0.927   6.802 -0.3737  0.4289 -1.1338
 6913SOL     OW22338   3.536   1.797   1.192  0.6753  0.2218  0.2342
 6913SOL    HW122339   3.460   1.857   1.215 -0.9579 -2.1252  1.3504
 6913SOL    HW222340   3.503   1.703   1.184  3.4939 -0.9143  0.9004
 6914SOL     OW22341   0.643   5.806   5.884  0.5277 -0.0467  0.1528
 6914SOL    HW122342   0.737   5.797   5.852 -0.0252  0.2716 -1.6512
 6914SOL    HW222343   0.611   5.899   5.868 -0.6835 -0.6305 -1.0033
 6915SOL     OW22344   4.805   0.725   5.741 -0.7418 -0.2038  0.4257
 6915SOL    HW122345   4.903   0.739   5.729 -1.0027 -0.3849 -3.5440
 6915SOL    HW222346   4.764   0.804   5.786  0.9845  0.6565  0.5509
 6916SOL     OW22347   5.443   3.817   4.064  0.3995 -0.4609 -0.2891
 6916SOL    HW122348   5.365   3.847   4.119 -1.2205 -1.5463 -1.8742
 6916SOL    HW222349   5.502   3.896   4.045 -1.0841  0.7150 -0.2551
 6917SOL     OW22350   4.889   1.651   4.857 -0.5162 -0.1624 -0.6265
 6917SOL    HW122351   4.950   1.694   4.924 -0.6060  0.2185 -0.7861
 6917SOL    HW222352   4.901   1.551   4.861  1.4809 -0.0343 -1.9037
 6918SOL     OW22353   4.059   4.677   0.713  0.2627 -0.1214 -0.4093
 6918SOL    HW122354   4.036   4.626   0.631  1.6566  0.8707 -1.4697
 6918SOL    HW222355   4.098   4.615   0.781 -0.8817 -0.9462 -0.4682
 6919SOL     OW22356   3.243   6.913   4.236 -0.2083  0.1179 -0.1592
 6919SOL    HW122357   3.164   6.878   4.186 -0.2026  0.0173 -0.0990
 6919SOL    HW222358   3.211   6.964   4.317 -0.1999 -0.6107  0.3144
 6920SOL     OW22359   6.800   5.090   4.843 -0.5330  0.4087 -0.4597
 6920SOL    HW122360   6.822   5.088   4.941  1.0347  1.1948 -0.7610
 6920SOL    HW222361   6.758   5.178   4.821  0.9725  1.0528 -0.8350
 6921SOL     OW22362   0.304   5.883   3.669 -0.4876  0.4288 -1.0420
 6921SOL    HW122363   0.257   5.862   3.755  1.7707 -0.5861  0.0075
 6921SOL    HW222364   0.321   5.981   3.664 -0.7247  0.5089 -0.3977
 6922SOL     OW22365   4.897   2.374   4.895  0.0997  0.0413  0.2688
 6922SOL    HW122366   4.967   2.363   4.825  0.4949 -0.7707  0.7852
 6922SOL    HW222367   4.808   2.351   4.857 -0.0514  1.9859 -0.6627
 6923SOL     OW22368   2.625   1.681   5.014 -0.1184 -0.0227 -0.6423
 6923SOL    HW122369   2.617   1.596   5.066 -0.3493 -0.3639 -1.2207
 6923SOL    HW222370   2.643   1.757   5.076  0.0256 -0.4837 -0.1112
 6924SOL     OW22371   3.330   3.465   5.579  0.0984 -0.0932  0.0093
 6924SOL    HW122372   3.249   3.484   5.523 -1.1477 -1.1239  1.3777
 6924SOL    HW222373   3.412   3.489   5.527 -1.0754  2.0339 -1.0395
 6925SOL     OW22374   4.798   2.983   0.302  0.3139 -0.5490  0.1581
 6925SOL    HW122375   4.895   2.986   0.323  0.0657  2.5642  1.4804
 6925SOL    HW222376   4.784   2.961   0.206  2.2312 -1.9155  0.1510
 6926SOL     OW22377   3.684   1.674   2.887 -0.2609  0.2237 -0.1642
 6926SOL    HW122378   3.761   1.685   2.824 -0.0793 -0.5797 -0.0864
 6926SOL    HW222379   3.616   1.745   2.869  0.9994  1.6501  0.5186
 6927SOL     OW22380   5.839   1.865   3.502 -0.3571  0.1991 -0.1893
 6927SOL    HW122381   5.798   1.775   3.514  0.4384 -0.3703 -1.4497
 6927SOL    HW222382   5.811   1.902   3.413 -0.4976  1.1047  0.2239
 6928SOL     OW22383   1.917   1.974   2.166  0.0627 -0.0429  0.2611
 6928SOL    HW122384   1.963   1.896   2.208  2.0747  1.4350  0.9767
 6928SOL    HW222385   1.909   2.048   2.233  3.9357  2.6546 -1.7995
 6929SOL     OW22386   4.921   6.556   6.249  0.4282 -0.2056  0.1649
 6929SOL    HW122387   4.928   6.534   6.152  0.6724  1.1727 -0.1480
 6929SOL    HW222388   5.001   6.519   6.297  0.3427 -0.8306 -0.1657
 6930SOL     OW22389   2.951   2.856   5.252 -0.6681  0.1799 -0.1199
 6930SOL    HW122390   2.911   2.765   5.259  1.6068 -0.8941 -0.0142
 6930SOL    HW222391   3.048   2.848   5.227 -0.5837  2.6192 -0.8262
 6931SOL     OW22392   2.888   4.008   6.656 -0.5911 -0.1157 -0.3322
 6931SOL    HW122393   2.947   3.936   6.694 -1.2527 -1.9506 -2.5250
 6931SOL    HW222394   2.806   4.018   6.713 -1.2002 -2.2380 -0.7288
 6932SOL     OW22395   6.847   1.154   1.515 -0.0408  0.2697  0.7330
 6932SOL    HW122396   6.865   1.252   1.525 -0.1351  0.8989 -3.4537
 6932SOL    HW222397   6.750   1.136   1.533  0.1918  0.6560  2.6236
 6933SOL     OW22398   4.561   5.460   2.465 -0.1391 -0.3262 -0.2595
 6933SOL    HW122399   4.507   5.490   2.386  0.5096  2.8210  0.3915
 6933SOL    HW222400   4.503   5.457   2.546  0.4679  2.7978  0.3857
 6934SOL     OW22401   1.892   2.156   0.387 -0.3290  0.6421 -0.1446
 6934SOL    HW122402   1.914   2.072   0.337 -0.7016  1.5876 -1.9744
 6934SOL    HW222403   1.797   2.182   0.367 -0.3673  1.2705  0.7900
 6935SOL     OW22404   1.809   2.814   2.045 -0.4025  0.3759 -0.1474
 6935SOL    HW122405   1.799   2.846   1.951  0.6356  1.3908  0.0641
 6935SOL    HW222406   1.864   2.731   2.046 -1.0712 -0.0795 -0.4935
 6936SOL     OW22407   1.550   1.008   2.999  0.1464 -0.2592 -0.1968
 6936SOL    HW122408   1.477   1.076   2.989 -0.0993 -0.0295  2.3175
 6936SOL    HW222409   1.634   1.053   3.028  1.0866 -0.6404 -2.1853
 6937SOL     OW22410   0.542   5.067   3.828  0.2033  0.3592 -0.8040
 6937SOL    HW122411   0.633   5.042   3.797  0.1632 -0.6749 -0.1334
 6937SOL    HW222412   0.499   4.989   3.874 -0.5377  1.1953 -0.0192
 6938SOL     OW22413   1.315   4.208   6.761 -0.5177  0.0041 -0.1724
 6938SOL    HW122414   1.407   4.225   6.796 -0.0550 -0.6212 -1.0325
 6938SOL    HW222415   1.249   4.217   6.835  0.4521 -1.6733  0.9559
 6939SOL     OW22416   4.749   6.870   0.151  0.0530  0.2770 -0.4513
 6939SOL    HW122417   4.787   6.834   0.065 -0.1727 -0.0720 -0.4099
 6939SOL    HW222418   4.650   6.854   0.152 -0.3714  2.4777 -1.2133
 6940SOL     OW22419   1.236   3.661   5.303  0.0320 -0.3510  0.5547
 6940SOL    HW122420   1.294   3.742   5.308 -0.8065  0.1926  2.4952
 6940SOL    HW222421   1.269   3.592   5.368  0.9008 -1.7514 -1.2560
 6941SOL     OW22422   6.068   5.014   3.250 -0.3514 -0.1605  0.2270
 6941SOL    HW122423   6.076   4.917   3.271 -1.3518 -0.2810  0.0963
 6941SOL    HW222424   6.005   5.027   3.173 -0.8640  0.6333  0.7604
 6942SOL     OW22425   3.676   2.149   6.733 -0.5468 -0.4090  0.1262
 6942SOL    HW122426   3.729   2.071   6.767 -1.9560 -1.3564  0.2790
 6942SOL    HW222427   3.636   2.198   6.810 -0.6806 -0.2855 -0.0213
 6943SOL     OW22428   1.404   0.857   2.508 -0.3998 -0.9419  0.1064
 6943SOL    HW122429   1.398   0.810   2.596 -1.0388 -1.5272 -0.2396
 6943SOL    HW222430   1.345   0.937   2.508 -0.1043 -0.7247  0.3440
 6944SOL     OW22431   6.601   1.360   1.823  0.0350  0.0769  0.5536
 6944SOL    HW122432   6.694   1.338   1.794  0.2247  0.4077  0.9019
 6944SOL    HW222433   6.544   1.376   1.743  0.2942 -0.0671  0.3394
 6945SOL     OW22434   4.347   4.553   6.373  0.0541  0.0950 -0.4507
 6945SOL    HW122435   4.347   4.457   6.398 -1.0583 -0.0572 -0.9874
 6945SOL    HW222436   4.397   4.606   6.442  0.9687 -0.8949 -0.3369
 6946SOL     OW22437   3.971   5.427   0.034  0.1424 -0.6334 -0.7347
 6946SOL    HW122438   3.905   5.382  -0.026 -0.2088  1.5422 -2.0842
 6946SOL    HW222439   3.930   5.442   0.124 -0.2419 -1.6734 -0.7308
 6947SOL     OW22440   6.647   4.725   5.952 -0.6971 -0.1357  0.0578
 6947SOL    HW122441   6.649   4.824   5.935 -1.4064 -0.1578 -0.1942
 6947SOL    HW222442   6.740   4.690   5.958 -0.4295  0.3411 -1.1059
 6948SOL     OW22443   4.888   4.794   2.024 -0.1082  0.0649 -0.0781
 6948SOL    HW122444   4.946   4.796   1.943  0.3931 -0.2693  0.2722
 6948SOL    HW222445   4.910   4.872   2.083  0.5960 -0.5299  0.4691
 6949SOL     OW22446   0.918   6.908   5.254  0.3036 -0.4479 -0.4862
 6949SOL    HW122447   0.965   6.973   5.315  2.2108 -0.0511 -2.2716
 6949SOL    HW222448   0.928   6.815   5.290 -0.2185 -0.0589  0.7346
 6950SOL     OW22449   4.246   3.439   5.338 -0.3031 -0.0393 -0.1382
 6950SOL    HW122450   4.342   3.462   5.348 -0.3247 -0.4366  1.1599
 6950SOL    HW222451   4.191   3.523   5.336  0.1280  0.2489 -2.0441
 6951SOL     OW22452   6.908   1.605   6.961 -0.3976 -0.2322  0.1379
 6951SOL    HW122453   6.896   1.662   6.880 -0.4997  1.3057  1.1950
 6951SOL    HW222454   6.820   1.594   7.008  0.0652  0.9143  1.3235
 6952SOL     OW22455   6.988   1.425   2.656  0.8487 -0.7238  0.1502
 6952SOL    HW122456   6.920   1.491   2.625  1.2451 -0.6859 -0.6634
 6952SOL    HW222457   7.053   1.407   2.582  0.4233 -2.4471  0.1560
 6953SOL     OW22458   6.299   2.469   4.566 -0.0085  0.0732  0.2942
 6953SOL    HW122459   6.274   2.406   4.492  1.1061 -0.2372  0.1597
 6953SOL    HW222460   6.255   2.558   4.551  0.6999  0.2115 -1.0853
 6954SOL     OW22461   0.560   2.708   2.505  0.2313 -0.0725  0.0356
 6954SOL    HW122462   0.504   2.631   2.534  0.0019 -0.2903 -0.9509
 6954SOL    HW222463   0.634   2.722   2.571 -0.1739 -0.6395  0.6254
 6955SOL     OW22464   2.434   4.150   0.934  0.1055 -0.2497  0.3208
 6955SOL    HW122465   2.439   4.150   0.834 -0.1970 -0.0001  0.3063
 6955SOL    HW222466   2.461   4.239   0.969  1.2091 -0.6424  0.5161
 6956SOL     OW22467   0.768   4.118   2.190 -0.0388 -0.5965 -0.0488
 6956SOL    HW122468   0.794   4.029   2.228 -1.9789 -0.9335  0.6379
 6956SOL    HW222469   0.848   4.178   2.186  0.5894 -1.0648  3.1599
 6957SOL     OW22470   1.703   5.653   6.377  0.1028 -0.6140  0.4130
 6957SOL    HW122471   1.662   5.609   6.456 -1.1709  1.2142  0.8364
 6957SOL    HW222472   1.715   5.751   6.395  1.8456 -0.5304 -0.8571
 6958SOL     OW22473   1.281   4.224   3.703 -0.1704  0.4222  0.4987
 6958SOL    HW122474   1.291   4.323   3.695  0.2306  0.2551 -1.5990
 6958SOL    HW222475   1.361   4.185   3.748 -0.5117  1.0644  1.7019
 6959SOL     OW22476   0.887   1.240   2.877 -0.0880  1.0779 -0.8937
 6959SOL    HW122477   0.854   1.212   2.967 -0.6867  1.7766 -0.8899
 6959SOL    HW222478   0.809   1.250   2.815  0.4570 -1.2645 -2.0406
 6960SOL     OW22479   4.715   3.631   1.310 -0.1195  0.0820  0.0796
 6960SOL    HW122480   4.815   3.629   1.297 -0.1440 -1.0080 -0.0458
 6960SOL    HW222481   4.670   3.628   1.221 -0.2567 -1.2823  0.1690
 6961SOL     OW22482   1.030   5.765   3.411 -0.3578 -0.4901  1.1989
 6961SOL    HW122483   0.992   5.858   3.408 -0.5004 -0.5691 -0.1960
 6961SOL    HW222484   1.087   5.755   3.492  0.1911  1.0346  1.0281
 6962SOL     OW22485   6.263   1.252   2.448  0.7850  0.1857  0.4434
 6962SOL    HW122486   6.264   1.273   2.350  0.0361  0.3547  0.4621
 6962SOL    HW222487   6.290   1.332   2.500 -0.0574  0.4915  0.4241
 6963SOL     OW22488   4.868   0.595   2.935  0.0815 -0.5837 -0.3070
 6963SOL    HW122489   4.954   0.545   2.949  0.2664  0.2811  2.1791
 6963SOL    HW222490   4.854   0.610   2.837  1.9251 -2.1545 -0.8774
 6964SOL     OW22491   5.109   1.189   3.033  0.0756  0.0827  0.3991
 6964SOL    HW122492   5.050   1.118   3.070  1.0705 -0.4713  0.9443
 6964SOL    HW222493   5.074   1.217   2.943 -0.7790 -0.5123  0.5332
 6965SOL     OW22494   3.593   5.824   0.166  0.3758 -0.1599  0.0707
 6965SOL    HW122495   3.654   5.879   0.108 -0.1452  0.1256 -0.2083
 6965SOL    HW222496   3.536   5.766   0.109  0.0653 -0.0937  0.3131
 6966SOL     OW22497   6.942   0.141   2.643  0.0394 -0.4804  0.2133
 6966SOL    HW122498   6.873   0.201   2.603 -0.0776  0.6076  1.9483
 6966SOL    HW222499   7.032   0.164   2.607 -0.3319 -1.0695 -1.1240
 6967SOL     OW22500   4.796   6.799   6.915 -0.2752  0.4286  0.9748
 6967SOL    HW122501   4.762   6.766   6.828  3.4585  0.9752 -0.9288
 6967SOL    HW222502   4.816   6.897   6.908  0.0391  0.4922  2.4357
 6968SOL     OW22503   4.273   4.392   6.146 -0.2216  0.2671 -0.3909
 6968SOL    HW122504   4.207   4.345   6.088  0.5238 -0.6788 -0.4983
 6968SOL    HW222505   4.228   4.423   6.229 -1.2167  1.2969 -1.2773
 6969SOL     OW22506   5.070   3.236   0.574  0.3161  0.3807 -0.9228
 6969SOL    HW122507   5.041   3.254   0.668 -1.6749  0.5103 -1.5352
 6969SOL    HW222508   5.014   3.289   0.510  1.5814  0.2371 -2.2193
 6970SOL     OW22509   4.502   4.483   0.264  0.2152 -0.2462 -0.3717
 6970SOL    HW122510   4.410   4.455   0.292 -0.3872 -1.0950 -2.8857
 6970SOL    HW222511   4.562   4.403   0.261  0.0877 -0.3131 -1.9349
 6971SOL     OW22512   3.270   2.005   4.589 -0.0768  0.0387  0.7288
 6971SOL    HW122513   3.248   2.012   4.687  0.8616 -0.8935  1.0316
 6971SOL    HW222514   3.334   1.929   4.575 -1.0234 -0.5350 -0.7554
 6972SOL     OW22515   6.644   6.495   2.575  1.2500  0.2232 -0.2763
 6972SOL    HW122516   6.567   6.446   2.616  1.9614 -2.7157 -2.1174
 6972SOL    HW222517   6.628   6.506   2.477  2.6893  0.6020 -0.4946
 6973SOL     OW22518   0.389   0.750   3.525 -0.4139 -0.0688 -0.5943
 6973SOL    HW122519   0.373   0.669   3.582 -1.8706  0.1458 -0.6614
 6973SOL    HW222520   0.414   0.827   3.583 -0.2677 -0.2555 -0.4084
 6974SOL     OW22521   1.304   2.470   2.928 -0.1282  0.1420 -0.4712
 6974SOL    HW122522   1.293   2.432   2.836 -1.0332  1.1461 -0.8026
 6974SOL    HW222523   1.335   2.399   2.990 -0.4962 -0.8062 -1.3389
 6975SOL     OW22524   4.570   2.630   6.665  0.2638 -0.2668 -0.0473
 6975SOL    HW122525   4.667   2.651   6.652 -0.0520  0.3026 -1.6040
 6975SOL    HW222526   4.515   2.682   6.600 -1.1492 -0.1810  1.1544
 6976SOL     OW22527   2.423   6.734   6.373  0.1103 -0.1489 -0.1628
 6976SOL    HW122528   2.385   6.783   6.452 -1.3100 -0.9928 -0.2804
 6976SOL    HW222529   2.429   6.797   6.296 -2.9114 -0.3221 -0.6873
 6977SOL     OW22530   5.611   5.255   2.757  0.4546 -0.4107 -0.0774
 6977SOL    HW122531   5.552   5.329   2.724  1.3413  0.0938 -0.5804
 6977SOL    HW222532   5.580   5.224   2.847 -0.9055 -0.5451 -0.5627
 6978SOL     OW22533   6.926   1.831   3.548  0.1564 -0.0053  0.4039
 6978SOL    HW122534   6.838   1.786   3.564 -1.5029  2.6622 -0.6104
 6978SOL    HW222535   6.963   1.865   3.634  1.0617 -2.4503  1.0715
 6979SOL     OW22536   3.836   5.258   6.888  0.2421 -0.5241 -0.2939
 6979SOL    HW122537   3.889   5.228   6.808  0.0555  1.6208 -1.2849
 6979SOL    HW222538   3.776   5.333   6.862 -0.0736  0.0167  1.8241
 6980SOL     OW22539   1.047   6.785   1.516  0.1595  0.1853  0.0859
 6980SOL    HW122540   1.019   6.691   1.495  2.2002 -0.6236  0.6975
 6980SOL    HW222541   1.127   6.809   1.461  0.3327  1.1545  0.7376
 6981SOL     OW22542   1.430   6.757   5.154 -0.5265 -0.3129  0.3413
 6981SOL    HW122543   1.433   6.659   5.138  0.3736 -0.2989  0.3657
 6981SOL    HW222544   1.459   6.777   5.248  1.4778  0.1053 -0.3165
 6982SOL     OW22545   7.024   4.292   4.412  0.0332  0.3133 -0.1310
 6982SOL    HW122546   7.121   4.289   4.387 -0.0675 -1.0134 -0.4249
 6982SOL    HW222547   7.014   4.333   4.502  1.0369 -0.9906  0.6049
 6983SOL     OW22548   1.627   0.051   0.232 -0.5163  0.7513  0.4186
 6983SOL    HW122549   1.629  -0.046   0.205  0.4401  1.2436 -1.4542
 6983SOL    HW222550   1.570   0.061   0.313  0.7114 -1.6157  1.6871
 6984SOL     OW22551   2.672   5.425   0.567 -0.4697  0.1302 -0.3160
 6984SOL    HW122552   2.635   5.431   0.660 -0.2550 -1.0312 -0.1338
 6984SOL    HW222553   2.618   5.483   0.506 -1.2527  0.1222  0.3475
 6985SOL     OW22554   3.588   5.409   3.949  0.1344 -0.4277 -0.2373
 6985SOL    HW122555   3.574   5.312   3.931  1.4259 -1.0852  1.8971
 6985SOL    HW222556   3.524   5.439   4.020 -0.6489  0.4676 -1.2862
 6986SOL     OW22557   3.637   1.817   0.249 -0.3366 -0.9294  0.4922
 6986SOL    HW122558   3.707   1.767   0.301 -1.7000 -2.0943  1.2961
 6986SOL    HW222559   3.593   1.754   0.184  0.7034  0.2792 -1.4884
 6987SOL     OW22560   0.492   1.392   4.037  0.0646  0.2980 -0.3726
 6987SOL    HW122561   0.416   1.457   4.039 -0.2779 -0.1123  0.9819
 6987SOL    HW222562   0.460   1.301   4.065  0.6944 -0.2938 -1.4953
 6988SOL     OW22563   1.386   6.484   1.212  0.0758  0.2382 -0.3611
 6988SOL    HW122564   1.385   6.442   1.303  1.4071 -0.5736 -0.6854
 6988SOL    HW222565   1.404   6.582   1.221  0.2006  0.1652  0.2540
 6989SOL     OW22566   1.519   0.282   3.329  0.2903  0.3672 -0.0145
 6989SOL    HW122567   1.457   0.296   3.252 -1.3803  0.5541  1.2943
 6989SOL    HW222568   1.465   0.267   3.413  2.0267  0.4083  1.1613
 6990SOL     OW22569   2.836   5.520   4.393 -0.0984 -0.0370  0.6114
 6990SOL    HW122570   2.800   5.519   4.486 -1.8866 -2.5213  0.0232
 6990SOL    HW222571   2.926   5.478   4.391 -0.2158 -0.3235  1.1923
 6991SOL     OW22572   6.386   0.499   2.696 -0.8952 -0.4537  0.0331
 6991SOL    HW122573   6.291   0.489   2.725 -0.8710 -2.3464 -0.3683
 6991SOL    HW222574   6.445   0.501   2.776 -1.2469  0.6827  0.2831
 6992SOL     OW22575   1.997   5.717   1.460 -0.0044 -0.2079 -0.2824
 6992SOL    HW122576   1.901   5.729   1.434 -0.5789 -0.5227  1.4928
 6992SOL    HW222577   2.025   5.623   1.440 -0.6773 -0.6812  0.8558
 6993SOL     OW22578   0.704   4.079   3.476 -0.1498 -0.4000 -0.3525
 6993SOL    HW122579   0.717   4.106   3.380  0.3793 -0.3596 -0.2720
 6993SOL    HW222580   0.607   4.087   3.499  0.0559  2.4548 -0.0377
 6994SOL     OW22581   3.552   5.446   4.845  0.1846 -0.5969 -0.5674
 6994SOL    HW122582   3.522   5.419   4.753 -1.3576  1.0594 -0.6009
 6994SOL    HW222583   3.639   5.495   4.838 -0.1809 -0.0221 -1.2149
 6995SOL     OW22584   0.560   5.773   5.447  0.5811 -0.0093 -0.0879
 6995SOL    HW122585   0.593   5.793   5.355  0.9932 -0.9687 -0.1653
 6995SOL    HW222586   0.634   5.783   5.512 -0.3338  3.5529  0.6395
 6996SOL     OW22587   4.715   6.731   6.664 -0.1701 -0.0744 -0.4375
 6996SOL    HW122588   4.745   6.636   6.673 -1.3720 -0.5605 -1.2807
 6996SOL    HW222589   4.644   6.737   6.593  0.0551  1.4930 -0.5671
 6997SOL     OW22590   4.034   1.367   2.795 -0.4224  0.2655 -0.4096
 6997SOL    HW122591   4.107   1.304   2.824  1.3712  0.4024 -4.0394
 6997SOL    HW222592   3.948   1.317   2.788  0.2111 -0.9312  0.0682
 6998SOL     OW22593   5.168   0.073   0.432  0.8349  0.3539  0.6108
 6998SOL    HW122594   5.090   0.077   0.495  0.7686  2.6313  0.4331
 6998SOL    HW222595   5.223   0.156   0.440  1.9220 -0.1562 -0.9794
 6999SOL     OW22596   2.850   4.174   3.467  0.0034 -0.4398 -0.3984
 6999SOL    HW122597   2.944   4.168   3.433  0.8974  2.2782  1.2578
 6999SOL    HW222598   2.786   4.164   3.391  1.7083  0.2265 -1.9910
 7000SOL     OW22599   2.036   3.692   6.246 -0.1861 -0.1341  1.3423
 7000SOL    HW122600   2.131   3.723   6.234  0.1665 -1.8476 -1.1278
 7000SOL    HW222601   2.035   3.611   6.304  0.5011 -2.4323 -1.5970
 7001SOL     OW22602   0.325   0.541   2.064 -0.2664 -0.3720 -0.4282
 7001SOL    HW122603   0.232   0.509   2.051 -2.4367  3.9759  2.2530
 7001SOL    HW222604   0.342   0.621   2.006  1.6861 -0.7936 -0.5265
 7002SOL     OW22605   3.863   0.864   4.239  0.4315 -0.1494 -0.3018
 7002SOL    HW122606   3.778   0.882   4.288  0.1114  0.2860 -0.9937
 7002SOL    HW222607   3.842   0.821   4.151  0.6802  2.5500 -1.7814
 7003SOL     OW22608   6.967   6.132   4.803 -0.0695  0.0032 -0.5459
 7003SOL    HW122609   6.921   6.194   4.866  1.4735 -0.8614  1.5473
 7003SOL    HW222610   6.901   6.066   4.766 -0.8824 -0.0034  0.8564
 7004SOL     OW22611   5.962   0.598   5.763 -0.2115  0.1044 -0.0047
 7004SOL    HW122612   5.947   0.642   5.851  0.0642 -0.7989  0.5108
 7004SOL    HW222613   5.961   0.666   5.690  1.0425  1.0695  0.8488
 7005SOL     OW22614   0.516   4.788   1.051 -0.5762  0.6738 -0.1731
 7005SOL    HW122615   0.522   4.777   1.150  0.3293  0.8680 -0.1990
 7005SOL    HW222616   0.605   4.816   1.015  0.0973 -2.5958 -1.4378
 7006SOL     OW22617   6.236   5.509   3.451  0.2256 -0.5922  0.1061
 7006SOL    HW122618   6.147   5.474   3.478 -0.0536 -0.3016 -0.4243
 7006SOL    HW222619   6.306   5.476   3.515 -0.1169 -1.5909 -0.0304
 7007SOL     OW22620   0.215   2.176   4.856  0.0156 -0.3530 -0.2844
 7007SOL    HW122621   0.148   2.242   4.891 -1.9363 -2.2878 -0.1521
 7007SOL    HW222622   0.256   2.212   4.772 -1.0629  0.9875 -0.2863
 7008SOL     OW22623   2.686   0.707   4.608  0.4310 -0.2336 -0.3095
 7008SOL    HW122624   2.772   0.678   4.651 -0.7051 -0.3494  2.0453
 7008SOL    HW222625   2.667   0.802   4.631 -1.0247 -0.7813  0.9404
 7009SOL     OW22626   3.321   0.932   3.107  0.0302 -0.0200 -0.4634
 7009SOL    HW122627   3.389   0.886   3.049  1.1367 -0.2619  0.9773
 7009SOL    HW222628   3.240   0.875   3.116  0.7995 -1.0440  0.1273
 7010SOL     OW22629   6.044   1.022   3.106 -0.1286 -0.1958  0.0705
 7010SOL    HW122630   6.024   1.011   3.203  0.7900 -1.7334  0.1200
 7010SOL    HW222631   6.142   1.038   3.094 -0.5353  2.1870 -0.4840
 7011SOL     OW22632   4.229   4.056   5.184  0.2214  1.2439  0.3197
 7011SOL    HW122633   4.281   4.024   5.105  0.7404  1.4831  0.5654
 7011SOL    HW222634   4.226   4.156   5.184  0.9933  1.2692  1.1018
 7012SOL     OW22635   2.998   6.846   1.913 -0.7910 -0.1530 -0.2757
 7012SOL    HW122636   2.917   6.791   1.891 -1.4143  0.7916 -0.3799
 7012SOL    HW222637   3.030   6.823   2.005 -1.0356 -0.6889 -0.3178
 7013SOL     OW22638   4.361   3.918   6.532  0.4656  0.5496  0.1619
 7013SOL    HW122639   4.366   3.937   6.434 -2.6144 -0.8926 -0.3915
 7013SOL    HW222640   4.344   3.821   6.546 -0.1610  0.8937  2.0760
 7014SOL     OW22641   2.455   3.835   0.438 -0.4291 -0.2738  0.2108
 7014SOL    HW122642   2.551   3.827   0.414 -0.5388  0.7585 -0.6290
 7014SOL    HW222643   2.409   3.748   0.421 -0.4943  0.3139 -3.4402
 7015SOL     OW22644   1.236   5.613   2.313 -0.3149 -0.5740  0.0622
 7015SOL    HW122645   1.265   5.706   2.337 -2.0329  0.3527 -1.1912
 7015SOL    HW222646   1.208   5.564   2.396  2.6530 -0.8028  1.0326
 7016SOL     OW22647   5.486   0.102   4.144 -0.7798  0.9822  0.1747
 7016SOL    HW122648   5.529   0.020   4.106  1.1165  1.1670  1.7491
 7016SOL    HW222649   5.481   0.173   4.074  0.7596  0.6633 -0.2878
 7017SOL     OW22650   2.505   3.638   4.088 -0.5075 -0.2720 -0.1926
 7017SOL    HW122651   2.432   3.690   4.132 -0.5768 -0.9120  0.4730
 7017SOL    HW222652   2.573   3.612   4.156  0.1782  0.0373 -0.7495
 7018SOL     OW22653   0.398   1.013   5.935 -0.4325 -0.2393  0.0231
 7018SOL    HW122654   0.316   0.958   5.950 -1.5451  1.0160 -1.0569
 7018SOL    HW222655   0.474   0.954   5.907 -1.4368 -1.2703 -0.6020
 7019SOL     OW22656   3.608   4.255   1.610 -0.2898  0.5462  0.0587
 7019SOL    HW122657   3.671   4.179   1.630  0.1067 -0.3604 -3.8095
 7019SOL    HW222658   3.581   4.299   1.695  0.7735 -2.8640  2.3718
 7020SOL     OW22659   5.146   5.046   0.746 -0.0982  0.0898  0.4947
 7020SOL    HW122660   5.097   5.002   0.821  0.5838 -0.4709  0.6121
 7020SOL    HW222661   5.207   4.981   0.702  0.2868  0.6891  0.1212
 7021SOL     OW22662   5.810   5.980   6.798 -0.1133  0.0072  0.0935
 7021SOL    HW122663   5.798   6.066   6.847  2.9722  0.9111 -0.5774
 7021SOL    HW222664   5.841   5.998   6.705  0.0098 -1.8215 -0.2563
 7022SOL     OW22665   6.050   5.646   6.869  0.0018 -0.4457  0.0896
 7022SOL    HW122666   6.145   5.614   6.863  0.3055  0.4912 -0.4776
 7022SOL    HW222667   6.026   5.694   6.784 -0.6567  0.1751  0.6095
 7023SOL     OW22668   2.969   6.627   5.502 -0.0336 -0.4026 -0.1830
 7023SOL    HW122669   3.060   6.669   5.495 -0.1685  0.1452  1.0538
 7023SOL    HW222670   2.899   6.697   5.488 -0.2719  0.0310  2.5117
 7024SOL     OW22671   5.793   1.211   1.171  0.1293 -0.5156  0.8564
 7024SOL    HW122672   5.824   1.154   1.095 -0.4331 -0.2288  0.4018
 7024SOL    HW222673   5.823   1.305   1.157 -0.3520 -0.3729  0.7552
 7025SOL     OW22674   6.790   5.410   6.830  0.8152  0.3872 -0.5309
 7025SOL    HW122675   6.691   5.411   6.845  0.7552  2.5166 -0.7615
 7025SOL    HW222676   6.834   5.478   6.888  2.1607 -0.4724 -0.4936
 7026SOL     OW22677   0.526   1.312   0.143  0.2136  0.0036  0.2188
 7026SOL    HW122678   0.525   1.330   0.242 -2.4552 -1.8774  0.6349
 7026SOL    HW222679   0.500   1.395   0.094  0.7107  0.7241  1.1231
 7027SOL     OW22680   4.716   4.637   5.089  0.0851 -0.2627 -0.2256
 7027SOL    HW122681   4.665   4.663   5.171  2.0755  1.2728  0.6132
 7027SOL    HW222682   4.654   4.632   5.011 -1.2645  2.2197  0.5794
 7028SOL     OW22683   0.951   2.742   0.235  0.7784  0.0021 -0.3265
 7028SOL    HW122684   0.911   2.826   0.199  0.9027  2.0635  3.7484
 7028SOL    HW222685   1.038   2.763   0.280  0.4247 -2.0879  1.5273
 7029SOL     OW22686   3.446   0.616   5.269  0.8725  0.3456  0.3219
 7029SOL    HW122687   3.390   0.683   5.317  3.7564  1.9942  1.6744
 7029SOL    HW222688   3.453   0.533   5.324 -0.9382 -0.2842 -0.3298
 7030SOL     OW22689   0.567   4.340   6.508  0.6663  0.1549 -0.1447
 7030SOL    HW122690   0.618   4.254   6.513  0.5265  0.1062  0.5523
 7030SOL    HW222691   0.476   4.327   6.548  0.7659  0.7082  0.2770
 7031SOL     OW22692   6.536   1.474   2.234 -0.5824 -0.7356  0.0964
 7031SOL    HW122693   6.462   1.407   2.225 -0.5430 -1.0072  1.6537
 7031SOL    HW222694   6.620   1.435   2.197 -1.0189 -0.7043 -0.9941
 7032SOL     OW22695   1.448   4.943   5.581  0.5459 -0.4536  0.2261
 7032SOL    HW122696   1.455   4.931   5.680 -0.7455  1.0758  0.5390
 7032SOL    HW222697   1.538   4.967   5.545  0.7778  0.3037  1.2455
 7033SOL     OW22698   1.921   6.475   5.576 -0.0427  0.5272 -0.1680
 7033SOL    HW122699   1.912   6.398   5.638 -2.0238  2.0367  1.5726
 7033SOL    HW222700   1.900   6.446   5.483 -0.0267 -1.1592  0.3241
 7034SOL     OW22701   2.196   4.078   3.152  0.3641 -0.3501 -0.0694
 7034SOL    HW122702   2.134   4.021   3.098  0.7147 -0.4666 -0.3525
 7034SOL    HW222703   2.154   4.167   3.168 -0.7745 -1.1343  1.5541
 7035SOL     OW22704   5.252   4.513   2.097 -0.8364 -0.0803 -0.3107
 7035SOL    HW122705   5.298   4.602   2.097 -0.5668 -0.1683 -2.1011
 7035SOL    HW222706   5.219   4.493   2.004  0.5750 -2.5568 -0.3668
 7036SOL     OW22707   3.160   6.257   6.707 -0.0202  0.6657 -0.2544
 7036SOL    HW122708   3.123   6.331   6.651  2.4007  1.2056 -1.2567
 7036SOL    HW222709   3.088   6.221   6.767 -2.6237  0.4500 -3.2478
 7037SOL     OW22710   0.475   1.917   3.245 -0.0219  0.3931 -0.0071
 7037SOL    HW122711   0.418   1.874   3.315  1.6779 -2.8103 -0.3716
 7037SOL    HW222712   0.454   1.878   3.155  1.6246  0.2322 -0.3636
 7038SOL     OW22713   4.200   1.900   5.286 -0.1768  0.8628  0.1856
 7038SOL    HW122714   4.247   1.974   5.237  1.0501  0.2760  0.4215
 7038SOL    HW222715   4.219   1.813   5.240 -1.2173  0.6315  0.1792
 7039SOL     OW22716   4.699   5.585   4.069  0.4947 -0.4511  0.3443
 7039SOL    HW122717   4.753   5.513   4.112  0.5187 -0.1246  0.8731
 7039SOL    HW222718   4.760   5.656   4.035  0.3762  0.3506  1.7323
 7040SOL     OW22719   4.098   3.557   4.146  0.0998 -0.0420 -0.8748
 7040SOL    HW122720   4.055   3.561   4.236 -2.1527  0.1363 -1.9056
 7040SOL    HW222721   4.124   3.649   4.118  2.5898 -0.2898  0.3337
 7041SOL     OW22722   1.380   5.877   2.699  0.4464  0.3064  0.0853
 7041SOL    HW122723   1.324   5.821   2.760 -0.6880 -0.4608 -1.5890
 7041SOL    HW222724   1.457   5.823   2.665 -0.5193 -0.2351 -1.3486
 7042SOL     OW22725   1.130   5.878   6.274 -0.1055  0.8306  0.3234
 7042SOL    HW122726   1.037   5.906   6.251  0.1677  0.2417 -1.6835
 7042SOL    HW222727   1.127   5.809   6.346 -1.1702  1.1913  0.6521
 7043SOL     OW22728   0.524   2.913   4.705  0.2701 -0.0085 -0.5503
 7043SOL    HW122729   0.574   2.992   4.669  0.5263  1.4689  2.6763
 7043SOL    HW222730   0.588   2.845   4.740  0.0550 -0.0286 -0.1848
 7044SOL     OW22731   0.983   3.546   6.870  0.4628 -0.5732  0.2939
 7044SOL    HW122732   1.029   3.631   6.896 -1.4834  0.4802  0.4976
 7044SOL    HW222733   0.939   3.559   6.781 -1.4951 -0.6626  1.2032
 7045SOL     OW22734   0.071   0.831   4.684  0.3860  0.0052  0.4890
 7045SOL    HW122735   0.036   0.768   4.753  0.8483 -0.3180  0.4345
 7045SOL    HW222736   0.108   0.912   4.728  0.0274  0.1236  0.5755
 7046SOL     OW22737   0.874   7.011   2.836 -0.3827  1.0964 -0.1625
 7046SOL    HW122738   0.844   6.943   2.903 -1.6482  1.5592 -0.2402
 7046SOL    HW222739   0.919   7.087   2.883  1.1245  0.2032 -0.0804
 7047SOL     OW22740   0.942   6.339   4.495 -0.5059  0.1942 -0.1592
 7047SOL    HW122741   1.016   6.377   4.550 -0.0731 -0.1185 -0.5145
 7047SOL    HW222742   0.891   6.413   4.451 -0.3818  0.4100  0.0599
 7048SOL     OW22743   6.860   3.174   6.854 -0.1276 -0.4524  0.1019
 7048SOL    HW122744   6.939   3.114   6.850  0.4051  0.2162  0.5654
 7048SOL    HW222745   6.784   3.126   6.899  0.7116 -0.3072  1.7004
 7049SOL     OW22746   5.643   2.352   2.783  0.1412 -0.0795  0.1396
 7049SOL    HW122747   5.622   2.254   2.785  0.0936 -0.0655  0.4080
 7049SOL    HW222748   5.654   2.382   2.688  1.0894 -0.5391  0.0968
 7050SOL     OW22749   1.123   0.011   3.226 -0.2595 -0.2255  0.1331
 7050SOL    HW122750   1.126  -0.088   3.240 -0.6538 -0.4113 -0.9914
 7050SOL    HW222751   1.031   0.045   3.247  0.0429  0.0223  1.1372
 7051SOL     OW22752   1.887   4.973   0.031 -0.3028  0.2774  0.4967
 7051SOL    HW122753   1.933   4.923  -0.043 -0.5315 -0.6634  0.9818
 7051SOL    HW222754   1.918   4.939   0.119 -2.6202 -1.1071  0.8597
 7052SOL     OW22755   3.022   0.511   3.452 -0.0101  0.4938  0.4491
 7052SOL    HW122756   2.982   0.574   3.385  1.6693 -0.0760 -1.1605
 7052SOL    HW222757   2.949   0.471   3.507 -1.4047  1.3132 -0.7293
 7053SOL     OW22758   1.967   4.480   5.537 -0.0233 -0.7710 -0.5673
 7053SOL    HW122759   1.909   4.429   5.601 -2.1512  1.6916 -0.3959
 7053SOL    HW222760   1.916   4.498   5.453  0.5071  1.3426 -0.4843
 7054SOL     OW22761   6.796   5.760   0.745 -0.0031 -0.6407 -0.5476
 7054SOL    HW122762   6.718   5.752   0.806 -0.5189  1.3808 -0.8690
 7054SOL    HW222763   6.881   5.756   0.798 -0.2534 -2.9479 -0.2079
 7055SOL     OW22764   1.158   1.128   0.539 -0.1609  0.1948  0.5346
 7055SOL    HW122765   1.182   1.218   0.577 -2.2949  1.6325 -1.2599
 7055SOL    HW222766   1.190   1.122   0.445 -2.2960  0.1894 -0.2389
 7056SOL     OW22767   5.401   3.182   1.528  0.2079 -0.4313  0.4696
 7056SOL    HW122768   5.424   3.256   1.465  0.4560  0.0475  1.1154
 7056SOL    HW222769   5.305   3.158   1.518  0.2871 -0.4751 -0.2092
 7057SOL     OW22770   3.102   2.102   6.688 -0.1268 -0.6139 -0.3424
 7057SOL    HW122771   3.126   2.012   6.724 -2.0851 -0.4562  1.5365
 7057SOL    HW222772   3.172   2.168   6.713  0.5903 -1.3192 -0.4569
 7058SOL     OW22773   6.125   6.857   5.027 -0.9476 -0.0461  0.3512
 7058SOL    HW122774   6.195   6.928   5.024 -1.5311  0.5245 -1.9976
 7058SOL    HW222775   6.120   6.812   4.938 -4.1890  0.5986  0.0980
 7059SOL     OW22776   0.450   5.968   6.585 -0.8586 -0.6767 -0.3352
 7059SOL    HW122777   0.397   6.018   6.517  0.0209 -0.7211 -1.0673
 7059SOL    HW222778   0.502   5.895   6.540  2.0477  1.1382 -0.1330
 7060SOL     OW22779   6.569   3.890   2.842 -0.0851  0.0302  0.4547
 7060SOL    HW122780   6.637   3.909   2.912  0.8416 -0.5135 -0.2829
 7060SOL    HW222781   6.564   3.791   2.825 -0.9590  0.0692  0.3949
 7061SOL     OW22782   4.802   1.422   3.287  0.1096  0.4389 -0.3126
 7061SOL    HW122783   4.867   1.420   3.363 -0.5948  0.7114  0.3058
 7061SOL    HW222784   4.784   1.517   3.261  0.7585  0.3374 -1.1931
 7062SOL     OW22785   4.035   4.268   5.822  0.0172 -0.0817  0.3465
 7062SOL    HW122786   4.120   4.227   5.852  0.5445  0.6453 -0.1061
 7062SOL    HW222787   4.045   4.301   5.727  0.2887  2.7833  1.2618
 7063SOL     OW22788   4.099   0.550   6.609 -0.1231 -0.4755 -0.8413
 7063SOL    HW122789   4.087   0.471   6.670  0.5096  0.8597  1.1157
 7063SOL    HW222790   4.013   0.570   6.562 -1.1728 -0.5257  0.9553
 7064SOL     OW22791   2.184   2.282   5.988  0.3381  0.0380 -0.2299
 7064SOL    HW122792   2.201   2.379   5.971 -0.9975  0.4780  0.7773
 7064SOL    HW222793   2.205   2.229   5.905  1.5947  1.0942 -0.6240
 7065SOL     OW22794   4.271   6.183   2.750  0.4380  0.1339  0.4559
 7065SOL    HW122795   4.175   6.183   2.721 -0.3711  1.9002  2.8535
 7065SOL    HW222796   4.284   6.116   2.823  1.5476 -1.5156 -1.1812
 7066SOL     OW22797   0.648   4.424   3.182  0.1090  0.0796  0.5976
 7066SOL    HW122798   0.574   4.491   3.192  0.7292  0.7801  0.6224
 7066SOL    HW222799   0.735   4.469   3.198  0.4597 -1.1612  2.6961
 7067SOL     OW22800   5.949   2.874   1.875  0.1995  0.6874  0.1396
 7067SOL    HW122801   5.972   2.960   1.922  0.4801  0.4167  0.5094
 7067SOL    HW222802   5.919   2.807   1.943  2.2802 -0.2824  0.2046
 7068SOL     OW22803   0.241   5.948   6.764  0.4582 -0.4177  0.2427
 7068SOL    HW122804   0.252   6.022   6.830 -0.5975 -0.0891  0.0744
 7068SOL    HW222805   0.300   5.963   6.685 -0.4801  0.8066 -0.2581
 7069SOL     OW22806   2.001   6.402   5.282  0.1904 -0.2990  0.4316
 7069SOL    HW122807   2.039   6.436   5.196 -0.1281  0.9634  0.7648
 7069SOL    HW222808   2.074   6.362   5.338  1.2236  2.5508  1.2934
 7070SOL     OW22809   4.882   3.922   5.432 -0.2113  0.2233  0.4251
 7070SOL    HW122810   4.805   3.949   5.374 -0.2022  0.6550  0.6110
 7070SOL    HW222811   4.968   3.938   5.383 -0.1793  1.1091  0.7618
 7071SOL     OW22812   5.926   4.384   6.761 -0.0871  0.1794  0.4027
 7071SOL    HW122813   5.975   4.359   6.845 -1.3478  0.3026  1.2003
 7071SOL    HW222814   5.889   4.301   6.719  1.1222  0.0375 -0.4291
 7072SOL     OW22815   1.218   5.490   6.532  0.1118 -0.1369  0.1709
 7072SOL    HW122816   1.258   5.561   6.590 -1.0419  0.7734 -0.1049
 7072SOL    HW222817   1.153   5.532   6.468 -1.8116 -1.5909  1.0668
 7073SOL     OW22818   5.551   0.865   4.847 -0.2939  0.0871 -0.2818
 7073SOL    HW122819   5.490   0.848   4.770 -0.0533 -0.4916 -0.3555
 7073SOL    HW222820   5.505   0.837   4.932 -0.5391  0.6751 -0.2198
 7074SOL     OW22821   5.043   6.125   6.640  0.5171  0.3246 -0.2483
 7074SOL    HW122822   5.102   6.054   6.679  0.7286 -0.1465 -1.3938
 7074SOL    HW222823   5.049   6.123   6.540  0.1264  1.6214 -0.3212
 7075SOL     OW22824   4.007   6.645   5.856 -0.2286  0.3319  0.8377
 7075SOL    HW122825   3.948   6.724   5.872  1.0464  1.1314  1.7974
 7075SOL    HW222826   4.049   6.652   5.766  0.6802  1.3167  1.3166
 7076SOL     OW22827   2.036   3.393   2.925  0.4968 -0.5564  0.0358
 7076SOL    HW122828   2.043   3.303   2.881  0.2113  0.4487 -2.1567
 7076SOL    HW222829   2.127   3.425   2.950  0.5380 -1.8188  1.7336
 7077SOL     OW22830   1.229   6.212   5.969  0.6503  0.1690 -0.3544
 7077SOL    HW122831   1.189   6.242   6.056 -0.7549 -0.0071 -0.9099
 7077SOL    HW222832   1.327   6.230   5.969  0.9963 -1.4088  1.9386
 7078SOL     OW22833   4.687   0.571   1.574 -0.6306 -0.2557 -0.3544
 7078SOL    HW122834   4.665   0.530   1.662 -0.3616  1.6054  0.6295
 7078SOL    HW222835   4.656   0.666   1.573 -0.8305 -0.3097 -2.3634
 7079SOL     OW22836   0.786   6.180   4.336 -0.7292 -0.2139 -0.3621
 7079SOL    HW122837   0.834   6.154   4.253 -2.2240  1.5113 -1.8603
 7079SOL    HW222838   0.846   6.233   4.395  1.2768 -3.8046  1.1551
 7080SOL     OW22839   1.901   5.879   2.191  0.0457  0.4845 -0.1400
 7080SOL    HW122840   1.855   5.790   2.194 -0.7015  0.8995  1.4311
 7080SOL    HW222841   1.912   5.907   2.096 -0.6501 -0.7928 -0.6279
 7081SOL     OW22842   6.672   1.094   7.006 -0.0998 -0.3462 -0.0435
 7081SOL    HW122843   6.769   1.081   7.024 -0.1695 -0.7085  0.0633
 7081SOL    HW222844   6.635   1.162   7.070  0.0809 -0.2148 -0.0797
 7082SOL     OW22845   4.205   4.009   3.673 -0.2986  0.1020 -0.2434
 7082SOL    HW122846   4.179   4.018   3.769  1.5877 -2.1899  0.6017
 7082SOL    HW222847   4.207   3.912   3.648  1.7815  0.4709 -1.7841
 7083SOL     OW22848   1.471   0.251   2.741  0.0199  0.3101 -0.0839
 7083SOL    HW122849   1.507   0.343   2.725  1.1487 -0.1907 -0.5586
 7083SOL    HW222850   1.525   0.206   2.812  0.5627 -0.5739 -1.0352
 7084SOL     OW22851   1.115   0.216   3.684 -0.4220  0.0137 -0.7308
 7084SOL    HW122852   1.202   0.228   3.732  1.8125 -2.0075 -3.8453
 7084SOL    HW222853   1.087   0.303   3.644  0.1466  0.6971  0.3068
 7085SOL     OW22854   1.599   0.040   5.199 -0.3301 -0.1506 -0.0166
 7085SOL    HW122855   1.500   0.052   5.213 -0.4215 -0.3023 -0.4993
 7085SOL    HW222856   1.636   0.119   5.150 -0.1376  0.0826  0.5044
 7086SOL     OW22857   5.016   4.037   1.740  0.3438 -0.5757  0.0705
 7086SOL    HW122858   5.075   4.059   1.818  0.4076  1.6814 -0.5246
 7086SOL    HW222859   5.068   3.985   1.673  1.7334  1.2970 -0.4094
 7087SOL     OW22860   1.207   0.277   5.255 -0.4685 -0.0473  0.4679
 7087SOL    HW122861   1.267   0.355   5.273 -0.9720  0.6465 -0.7328
 7087SOL    HW222862   1.204   0.260   5.156 -1.0009 -1.0833  0.6510
 7088SOL     OW22863   6.439   0.103   3.045 -0.1661  0.0962  1.0142
 7088SOL    HW122864   6.518   0.088   3.105  0.1492 -0.8336  0.3775
 7088SOL    HW222865   6.405   0.197   3.058  1.8573  0.9787  0.3413
 7089SOL     OW22866   6.246   5.603   1.628  0.3228  0.2279  0.0603
 7089SOL    HW122867   6.322   5.644   1.577  1.8020 -1.8435  0.4911
 7089SOL    HW222868   6.265   5.506   1.644 -2.1140 -0.1811  0.8130
 7090SOL     OW22869   4.526   0.398   0.142 -0.2383 -0.2081  0.1064
 7090SOL    HW122870   4.434   0.414   0.104  0.1928  1.4637 -0.3380
 7090SOL    HW222871   4.555   0.480   0.192  1.0078 -0.7294  0.2542
 7091SOL     OW22872   5.360   0.522   3.940 -0.0814 -0.2330  0.2660
 7091SOL    HW122873   5.304   0.527   4.022  0.8877  0.4327  0.9113
 7091SOL    HW222874   5.451   0.488   3.964  0.4558  0.6890 -0.3864
 7092SOL     OW22875   5.561   0.032   3.013  0.1707 -0.3760  0.1018
 7092SOL    HW122876   5.477  -0.001   3.057  1.5024 -2.8144  1.0155
 7092SOL    HW222877   5.537   0.087   2.933 -2.2811  0.6425  1.4174
 7093SOL     OW22878   6.140   2.624   6.090  0.5674  0.1138  0.3379
 7093SOL    HW122879   6.099   2.571   6.015 -0.8494 -2.3952  2.7246
 7093SOL    HW222880   6.237   2.639   6.070  0.5320 -1.6074 -1.4218
 7094SOL     OW22881   6.521   4.996   3.002  0.0133 -0.2406 -0.0090
 7094SOL    HW122882   6.557   5.050   2.926 -0.3829  0.1266  0.0546
 7094SOL    HW222883   6.450   5.049   3.049  2.2443  0.7980  2.4683
 7095SOL     OW22884   0.245   5.993   0.600 -0.1436  0.0618  0.1386
 7095SOL    HW122885   0.170   5.933   0.575 -0.8690  0.7742  0.5477
 7095SOL    HW222886   0.210   6.070   0.654  0.7365  0.9276 -0.4838
 7096SOL     OW22887   1.768   3.721   1.146  0.9671  0.0707  0.5450
 7096SOL    HW122888   1.811   3.634   1.121 -0.8970 -1.0033  0.9423
 7096SOL    HW222889   1.799   3.792   1.083 -0.9919 -1.8391 -2.8903
 7097SOL     OW22890   4.376   3.172   5.409  0.1565  0.0890  0.0170
 7097SOL    HW122891   4.312   3.246   5.428 -0.0918  0.2041 -1.1941
 7097SOL    HW222892   4.443   3.203   5.342  1.3294 -0.1242  1.0446
 7098SOL     OW22893   5.752   3.539   1.918  0.2231 -0.0977  0.3602
 7098SOL    HW122894   5.804   3.624   1.908  0.0003  0.1624  1.2477
 7098SOL    HW222895   5.799   3.465   1.870  0.2526  0.5892 -0.6925
 7099SOL     OW22896   5.520   0.528   4.265  0.4790  0.6192 -0.2203
 7099SOL    HW122897   5.587   0.598   4.241 -0.5205  1.2572 -1.3207
 7099SOL    HW222898   5.522   0.456   4.196 -1.7046  1.9469 -1.8234
 7100SOL     OW22899   6.742   4.894   0.225 -0.2622 -0.5836 -0.1360
 7100SOL    HW122900   6.787   4.930   0.144 -0.5049 -0.7568 -0.3462
 7100SOL    HW222901   6.685   4.966   0.266 -0.8027 -0.7457 -0.5971
 7101SOL     OW22902   5.065   1.891   6.875 -0.0680 -0.3332 -0.1383
 7101SOL    HW122903   5.109   1.969   6.918  0.1690 -0.3947 -0.2695
 7101SOL    HW222904   5.128   1.814   6.873 -0.3125 -0.5409  0.0242
 7102SOL     OW22905   0.471   2.408   5.594 -0.3600  0.4564  0.2625
 7102SOL    HW122906   0.455   2.441   5.687 -1.5610 -2.6821  1.3248
 7102SOL    HW222907   0.545   2.341   5.594 -1.5730 -0.9639 -0.6262
 7103SOL     OW22908   4.665   6.741   4.382 -0.0835 -0.2340  0.1551
 7103SOL    HW122909   4.704   6.794   4.458 -0.2573  0.8799 -0.5011
 7103SOL    HW222910   4.729   6.670   4.354  0.6817  0.3756  0.3077
 7104SOL     OW22911   0.836   1.780   5.166  0.6637  0.1739 -0.4268
 7104SOL    HW122912   0.736   1.773   5.176  0.4423 -0.0834 -2.3603
 7104SOL    HW222913   0.880   1.733   5.243 -0.7178 -0.8490 -0.1963
 7105SOL     OW22914   1.831   2.891   6.325  0.2006  0.6300 -0.8660
 7105SOL    HW122915   1.880   2.918   6.242 -0.3552 -0.1687 -1.4656
 7105SOL    HW222916   1.734   2.911   6.315 -0.0954 -0.7937 -0.9987
 7106SOL     OW22917   0.753   3.358   4.528 -0.0162  0.1071  0.4589
 7106SOL    HW122918   0.735   3.318   4.439  0.1026 -0.4100  0.6643
 7106SOL    HW222919   0.842   3.403   4.527  1.6568 -2.9254  1.3025
 7107SOL     OW22920   6.032   2.242   4.542 -0.5760  0.0186 -0.1564
 7107SOL    HW122921   6.075   2.265   4.629  0.0459 -0.8004 -0.2313
 7107SOL    HW222922   6.082   2.285   4.467 -0.1666 -0.5334 -0.2086
 7108SOL     OW22923   2.328   3.477   2.077 -0.0632 -0.2249 -0.3290
 7108SOL    HW122924   2.333   3.501   1.981 -2.9113  1.3215 -0.1939
 7108SOL    HW222925   2.404   3.519   2.126  0.1642  0.8445 -1.5582
 7109SOL     OW22926   6.634   5.395   1.667 -0.3040  0.5152 -0.0418
 7109SOL    HW122927   6.689   5.314   1.686 -0.0581  1.2664  2.9925
 7109SOL    HW222928   6.657   5.467   1.732 -3.4891  1.5466  0.1110
 7110SOL     OW22929   6.214   1.054   1.336 -0.0588 -0.2479 -0.3425
 7110SOL    HW122930   6.217   1.119   1.261  0.6102  1.7562  1.3253
 7110SOL    HW222931   6.155   1.089   1.409  1.0869 -1.0147  1.0196
 7111SOL     OW22932   6.241   5.497   3.849  0.2067 -0.2293 -0.0124
 7111SOL    HW122933   6.294   5.501   3.764 -0.4865  0.7289 -0.4093
 7111SOL    HW222934   6.150   5.536   3.834 -0.0271 -0.3154  1.0998
 7112SOL     OW22935   0.660   0.687   5.730  0.2196  0.6484 -0.5229
 7112SOL    HW122936   0.643   0.774   5.775 -1.1733  0.4431 -0.6230
 7112SOL    HW222937   0.574   0.644   5.705  0.7441 -1.6955  1.3058
 7113SOL     OW22938   0.772   1.285   4.854 -0.5248  0.2196  0.4545
 7113SOL    HW122939   0.863   1.310   4.886  0.3823 -2.2161 -0.0136
 7113SOL    HW222940   0.776   1.261   4.757 -1.4103 -1.0214  0.6982
 7114SOL     OW22941   0.489   6.366   1.448 -0.6281  0.5208  0.0011
 7114SOL    HW122942   0.572   6.320   1.478 -0.9730 -0.9066 -1.1117
 7114SOL    HW222943   0.409   6.321   1.488 -1.0652 -1.0833 -2.4503
 7115SOL     OW22944   1.407   0.383   0.152  0.5258 -0.1443  0.3846
 7115SOL    HW122945   1.486   0.359   0.095  1.5528  2.1101  0.7770
 7115SOL    HW222946   1.415   0.478   0.181 -1.9950 -0.0918  1.0508
 7116SOL     OW22947   0.988   4.113   3.142  0.1017 -0.1855  0.2984
 7116SOL    HW122948   1.053   4.041   3.118  2.9939  2.1118  0.5958
 7116SOL    HW222949   1.003   4.193   3.084 -0.8088  1.2944  1.9646
 7117SOL     OW22950   0.151   3.270   4.497 -0.2869 -0.0377 -0.0637
 7117SOL    HW122951   0.251   3.271   4.507 -0.1737 -0.8263 -0.9942
 7117SOL    HW222952   0.111   3.330   4.566  0.7674 -0.5138  1.0081
 7118SOL     OW22953   0.643   0.530   2.639 -0.7756 -0.4879 -0.1649
 7118SOL    HW122954   0.643   0.572   2.730  1.6450 -1.6502  0.4496
 7118SOL    HW222955   0.646   0.601   2.569 -0.0982  0.4015  0.7481
 7119SOL     OW22956   3.954   2.189   1.539  0.8084 -0.4079  0.3252
 7119SOL    HW122957   4.024   2.176   1.468  0.8069  0.1237  0.2233
 7119SOL    HW222958   3.902   2.104   1.550  0.4718 -0.3414 -0.6760
 7120SOL     OW22959   6.646   6.938   3.754  0.2697 -0.1684  0.1387
 7120SOL    HW122960   6.617   6.984   3.670  0.4866  0.8089  0.5810
 7120SOL    HW222961   6.568   6.893   3.796 -0.2466  0.9514  0.3994
 7121SOL     OW22962   5.264   0.326   3.647 -0.2393 -0.2319  0.0649
 7121SOL    HW122963   5.346   0.356   3.598 -0.1437  0.2779  0.5192
 7121SOL    HW222964   5.227   0.403   3.699 -0.3128 -0.7662  0.8188
 7122SOL     OW22965   3.760   4.147   6.429 -0.0267  0.0202 -0.2156
 7122SOL    HW122966   3.726   4.125   6.520 -0.7787  0.8895 -0.2676
 7122SOL    HW222967   3.771   4.063   6.376 -0.9796 -0.3830  0.2003
 7123SOL     OW22968   5.338   6.090   3.641  0.3577 -0.1130 -0.1972
 7123SOL    HW122969   5.370   6.184   3.631  1.3889 -0.5164 -0.9141
 7123SOL    HW222970   5.375   6.050   3.724  0.0928  0.0432 -0.0026
 7124SOL     OW22971   1.258   6.756   6.367 -0.5988 -0.2077 -0.2687
 7124SOL    HW122972   1.175   6.701   6.356 -0.3738 -0.3660 -1.2200
 7124SOL    HW222973   1.233   6.852   6.375 -0.8940 -0.2826 -0.2475
 7125SOL     OW22974   6.958   3.389   3.181 -0.9382  0.6188  1.2981
 7125SOL    HW122975   6.901   3.310   3.200 -0.8358  0.7522  2.1752
 7125SOL    HW222976   6.982   3.436   3.266  3.3784 -1.4056  1.4785
 7126SOL     OW22977   0.033   2.366   4.913  0.0875 -0.1390  0.1657
 7126SOL    HW122978  -0.033   2.417   4.859  1.4534 -0.3857 -1.8593
 7126SOL    HW222979  -0.013   2.288   4.957 -0.9669 -0.3233 -1.2020
 7127SOL     OW22980   3.480   3.102   7.000  0.7275 -0.1882  0.3585
 7127SOL    HW122981   3.432   3.099   6.913 -0.1218  0.8123  0.7632
 7127SOL    HW222982   3.559   3.042   6.997  0.2486 -0.7912 -0.8170
 7128SOL     OW22983   5.026   4.853   1.800  0.6154  0.2414 -0.0343
 7128SOL    HW122984   5.093   4.793   1.758 -0.5718 -0.8846 -0.4036
 7128SOL    HW222985   4.939   4.844   1.752 -0.4571 -0.1413  1.8704
 7129SOL     OW22986   6.939   0.885   6.282 -0.2040  0.5873 -0.3487
 7129SOL    HW122987   7.000   0.808   6.267 -0.1515  0.7742 -1.1219
 7129SOL    HW222988   6.934   0.941   6.199 -2.2842 -0.0467 -0.7195
 7130SOL     OW22989   4.948   4.360   0.784 -0.1724 -0.3116 -0.6288
 7130SOL    HW122990   5.029   4.306   0.807 -0.4298  0.2003  1.6949
 7130SOL    HW222991   4.969   4.457   0.790 -0.9587 -0.1705  0.1094
 7131SOL     OW22992   6.936   4.433   4.647 -0.9978  0.6725  0.2858
 7131SOL    HW122993   7.008   4.495   4.678 -1.9262  1.3970  1.0521
 7131SOL    HW222994   6.847   4.470   4.672 -1.5491 -1.7940  2.3634
 7132SOL     OW22995   2.111   0.689   0.720 -0.1673 -0.4344 -0.1510
 7132SOL    HW122996   2.078   0.698   0.626  0.6573 -0.1684 -0.4241
 7132SOL    HW222997   2.123   0.593   0.742 -0.7066 -0.5159 -0.1897
 7133SOL     OW22998   3.276   6.271   0.201 -0.4317  0.2501  0.1936
 7133SOL    HW122999   3.207   6.288   0.131  0.5960 -0.0062 -0.9139
 7133SOL    HW223000   3.319   6.182   0.185  1.4105  1.1674 -0.2474
 7134SOL     OW23001   5.480   1.169   4.926 -0.5897  0.1846  0.1169
 7134SOL    HW123002   5.569   1.198   4.891  0.9052 -2.3269  1.5971
 7134SOL    HW223003   5.486   1.076   4.961 -2.9435  1.0961  3.3893
 7135SOL     OW23004   5.910   1.400   2.241 -0.2358  0.2914 -0.3358
 7135SOL    HW123005   5.978   1.471   2.260  1.8313 -1.3587 -1.1571
 7135SOL    HW223006   5.839   1.402   2.312  1.6022  0.9855  1.5840
 7136SOL     OW23007   2.341   2.945   0.878  0.0371 -0.0681  0.2738
 7136SOL    HW123008   2.319   2.854   0.916 -0.0860  0.1408  0.7116
 7136SOL    HW223009   2.271   2.972   0.813 -0.5513  0.2215  1.0206
 7137SOL     OW23010   0.152   0.824   3.416  0.9797 -0.2542 -0.7213
 7137SOL    HW123011   0.244   0.803   3.450  1.3710 -1.1635 -2.2684
 7137SOL    HW223012   0.102   0.739   3.401  1.6492 -0.1246 -4.5890
 7138SOL     OW23013   0.706   1.905   0.908 -0.4134 -0.2849  0.1406
 7138SOL    HW123014   0.733   1.903   0.812  0.9912  1.4783  0.4442
 7138SOL    HW223015   0.738   1.990   0.950 -1.5992 -0.6957  2.0117
 7139SOL     OW23016   6.808   5.899   1.915 -0.5709  0.4406  0.1297
 7139SOL    HW123017   6.805   5.814   1.968 -0.8964 -1.0844 -2.1835
 7139SOL    HW223018   6.719   5.915   1.872  0.6542 -0.5820 -3.0640
 7140SOL     OW23019   1.108   6.150   3.654 -0.4122 -0.4632  0.1339
 7140SOL    HW123020   1.044   6.222   3.680  1.3372  0.9542  0.6648
 7140SOL    HW223021   1.157   6.117   3.735  0.8339 -0.2160 -0.4908
 7141SOL     OW23022   1.793   5.856   3.186 -0.0517  0.2385 -0.3362
 7141SOL    HW123023   1.821   5.843   3.091  1.2353  1.7298 -0.2062
 7141SOL    HW223024   1.718   5.922   3.190 -0.6187 -0.4020 -0.3679
 7142SOL     OW23025   1.900   3.913   2.139  0.1035 -0.3441  0.6347
 7142SOL    HW123026   1.975   3.868   2.090  0.3169 -0.3507  0.9666
 7142SOL    HW223027   1.829   3.940   2.074  0.1875 -0.7430  0.3759
 7143SOL     OW23028   1.489   6.242   6.898  0.3736 -0.2958  0.1079
 7143SOL    HW123029   1.479   6.144   6.880  1.9729 -0.1182 -2.0977
 7143SOL    HW223030   1.529   6.255   6.989  1.4630 -1.7724 -0.1193
 7144SOL     OW23031   3.810   1.237   2.856  0.4037 -0.3004  0.7250
 7144SOL    HW123032   3.892   1.228   2.913  1.7268 -0.9005 -1.1703
 7144SOL    HW223033   3.757   1.153   2.860  0.6678 -0.4650  0.7878
 7145SOL     OW23034   2.354   0.960   0.520 -0.3982  0.2322  0.3855
 7145SOL    HW123035   2.286   0.949   0.448  1.4477  0.6114 -1.4956
 7145SOL    HW223036   2.321   1.026   0.587 -2.2165 -0.2309 -0.0147
 7146SOL     OW23037   2.927   5.612   2.547  0.6185  0.2058  0.2787
 7146SOL    HW123038   2.969   5.662   2.471  1.3998 -0.1807  0.4559
 7146SOL    HW223039   2.881   5.531   2.512 -1.9817  1.7749 -0.2293
 7147SOL     OW23040   4.631   5.291   6.981  0.1450  0.1872 -0.7120
 7147SOL    HW123041   4.581   5.211   7.014 -0.6860  0.4420 -1.3393
 7147SOL    HW223042   4.643   5.356   7.055 -2.4545  1.1489 -1.0381
 7148SOL     OW23043   1.370   5.641   6.774  0.1560 -1.1856  0.1513
 7148SOL    HW123044   1.331   5.713   6.831  1.3870  0.5556 -1.1088
 7148SOL    HW223045   1.456   5.609   6.814  1.1703  0.2418 -0.7977
 7149SOL     OW23046   6.540   6.669   6.750 -0.7494  0.7153  0.1617
 7149SOL    HW123047   6.517   6.746   6.690  0.1417  0.5410 -0.4172
 7149SOL    HW223048   6.635   6.642   6.735 -1.1446 -0.7340  0.0997
 7150SOL     OW23049   5.995   5.691   5.368 -0.1538 -0.0721 -0.0191
 7150SOL    HW123050   5.962   5.708   5.461  0.7826 -1.1695  0.5429
 7150SOL    HW223051   5.970   5.768   5.309 -2.3354 -0.1552  0.7055
 7151SOL     OW23052   6.468   1.522   4.549  0.3064  0.2241 -0.0754
 7151SOL    HW123053   6.464   1.620   4.566 -1.3244  0.2287 -0.3360
 7151SOL    HW223054   6.528   1.504   4.471  0.7985  0.9827  0.1200
 7152SOL     OW23055   3.748   3.209   6.677 -0.6958 -0.2288 -0.1270
 7152SOL    HW123056   3.653   3.238   6.668 -0.7078  0.5356  1.9261
 7152SOL    HW223057   3.751   3.111   6.694 -1.0514 -0.3803 -0.8806
 7153SOL     OW23058   3.760   4.075   3.738  0.1059  0.0104  0.0007
 7153SOL    HW123059   3.784   4.038   3.828  0.9992  0.5207 -0.0239
 7153SOL    HW223060   3.843   4.097   3.687 -0.3997  1.1175 -0.3747
 7154SOL     OW23061   4.422   6.007   0.800  0.8183  0.4216  0.1111
 7154SOL    HW123062   4.365   6.015   0.718 -1.1870  0.9033  1.5054
 7154SOL    HW223063   4.434   5.910   0.823 -0.9628  0.3389  0.7994
 7155SOL     OW23064   1.268   5.878   6.589  0.3503  0.4074 -0.4597
 7155SOL    HW123065   1.320   5.829   6.658  0.2082 -0.0494 -0.6722
 7155SOL    HW223066   1.171   5.855   6.597  0.4837 -0.6574 -1.6188
 7156SOL     OW23067   5.155   0.854   6.559 -0.1584 -0.7164 -0.5817
 7156SOL    HW123068   5.242   0.822   6.520 -0.3901  0.1748 -1.8920
 7156SOL    HW223069   5.079   0.804   6.516 -0.4990  1.1494 -2.3154
 7157SOL     OW23070   5.283   5.288   1.645  0.1331  0.4972 -0.0267
 7157SOL    HW123071   5.367   5.236   1.659 -0.0827  0.7108  2.3899
 7157SOL    HW223072   5.209   5.227   1.617  0.1934 -0.3474  1.5595
 7158SOL     OW23073   1.661   4.834   1.288  0.3986  0.7680  0.0647
 7158SOL    HW123074   1.576   4.864   1.243  0.2848 -0.6678 -0.7638
 7158SOL    HW223075   1.738   4.887   1.253 -0.0422  1.5294  0.2208
 7159SOL     OW23076   6.048   1.157   1.527 -0.4594 -0.3210 -0.3959
 7159SOL    HW123077   5.986   1.151   1.605 -1.8190  0.3937 -1.3744
 7159SOL    HW223078   6.108   1.236   1.537 -0.8537 -0.0433 -0.2454
 7160SOL     OW23079   6.022   2.598   6.726 -0.0507  0.1398  0.1257
 7160SOL    HW123080   6.081   2.518   6.731 -0.4324 -0.2930 -1.7382
 7160SOL    HW223081   6.003   2.621   6.631 -2.0263  0.9043  0.6373
 7161SOL     OW23082   4.063   6.779   6.849  0.0229 -0.1452  0.0597
 7161SOL    HW123083   3.970   6.747   6.862 -0.0530  0.0134 -0.0829
 7161SOL    HW223084   4.081   6.856   6.910  0.4230 -0.8786  0.8793
 7162SOL     OW23085   6.214   4.745   0.385  0.6535  0.1388  0.4852
 7162SOL    HW123086   6.313   4.759   0.385  0.5252  1.1742  0.7774
 7162SOL    HW223087   6.188   4.700   0.470  0.9916 -1.2297 -0.1100
 7163SOL     OW23088   3.329   1.984   1.225 -0.1361  0.0428  0.0254
 7163SOL    HW123089   3.315   2.024   1.135 -0.5863  0.4261  0.2604
 7163SOL    HW223090   3.337   2.057   1.293 -0.2203 -0.2488  0.3513
 7164SOL     OW23091   3.643   0.764   2.616 -0.4004  0.4010  0.3927
 7164SOL    HW123092   3.596   0.809   2.692  0.9995  1.5016  0.6546
 7164SOL    HW223093   3.741   0.758   2.637 -0.2174 -0.6352 -0.6917
 7165SOL     OW23094   1.065   7.003   4.743  0.6744 -0.0070  0.0846
 7165SOL    HW123095   1.145   7.062   4.752  0.7836  0.0419 -1.0748
 7165SOL    HW223096   1.085   6.914   4.785  0.9656  0.3292  0.6831
 7166SOL     OW23097   6.631   1.104   4.431  0.1705 -0.0986  0.5886
 7166SOL    HW123098   6.677   1.019   4.405  0.9141 -0.0979  1.8562
 7166SOL    HW223099   6.554   1.120   4.369  0.5799 -1.2088 -0.2382
 7167SOL     OW23100   5.246   1.141   1.555 -0.3604 -0.1751  0.1565
 7167SOL    HW123101   5.221   1.066   1.617  0.0215 -0.0217  0.4994
 7167SOL    HW223102   5.345   1.141   1.541 -0.2987  0.5695  0.5507
 7168SOL     OW23103   0.010   1.148   5.328 -0.2146  0.0534 -0.9175
 7168SOL    HW123104  -0.030   1.236   5.355  1.4127  0.7367 -0.5751
 7168SOL    HW223105  -0.046   1.073   5.363  0.8412  0.8923  3.0671
 7169SOL     OW23106   6.940   2.541   5.831  0.0913 -0.0537  0.4895
 7169SOL    HW123107   7.014   2.579   5.776  0.5352 -0.6534  0.6651
 7169SOL    HW223108   6.897   2.465   5.783  0.1406 -0.2455  0.7475
 7170SOL     OW23109   6.728   1.164   6.161  0.1687 -0.0746 -0.1603
 7170SOL    HW123110   6.794   1.238   6.170  1.4194 -1.0739 -0.6817
 7170SOL    HW223111   6.640   1.201   6.129  0.8037  1.1577 -0.5548
 7171SOL     OW23112   1.490   1.891   3.095 -0.1286  0.1567  0.0942
 7171SOL    HW123113   1.439   1.953   3.035  0.3990 -0.2479 -0.7759
 7171SOL    HW223114   1.428   1.854   3.164 -0.4761  1.6083  0.6180
 7172SOL     OW23115   3.207   1.587   0.194 -0.2185 -0.3767  0.2980
 7172SOL    HW123116   3.150   1.662   0.227 -2.1731 -1.4211 -0.4844
 7172SOL    HW223117   3.270   1.620   0.124  0.1053  0.8156  1.1388
 7173SOL     OW23118   2.608   0.758   3.468 -0.5205  0.0269  0.9353
 7173SOL    HW123119   2.677   0.686   3.473  0.1770  0.7139  1.4247
 7173SOL    HW223120   2.517   0.719   3.482 -0.1756 -0.7893  0.9358
 7174SOL     OW23121   6.486   5.912   0.961 -0.3983  0.0748  0.5177
 7174SOL    HW123122   6.524   5.820   0.956  0.6224  0.4067  1.7034
 7174SOL    HW223123   6.458   5.941   0.869  1.6972 -0.4153 -0.3241
 7175SOL     OW23124   0.406   3.011   0.972  0.6259 -0.0093 -0.0211
 7175SOL    HW123125   0.331   3.007   1.038  1.5236 -1.6141  0.9643
 7175SOL    HW223126   0.470   3.083   0.999  0.6170 -0.1760  0.4593
 7176SOL     OW23127   3.192   5.251   1.917  0.5238 -0.2061 -0.6074
 7176SOL    HW123128   3.107   5.223   1.872  0.1749  0.1483 -0.1766
 7176SOL    HW223129   3.188   5.227   2.014  0.8202  0.0268 -0.5371
 7177SOL     OW23130   2.205   6.075   5.902  0.1985  0.2777  0.1020
 7177SOL    HW123131   2.169   5.990   5.863  1.7485  0.1361 -1.1343
 7177SOL    HW223132   2.250   6.128   5.830  1.4931  0.9323  1.3491
 7178SOL     OW23133   1.327   6.531   2.205  0.8407 -0.3824  0.0425
 7178SOL    HW123134   1.385   6.607   2.177 -1.9409  1.5469 -0.8717
 7178SOL    HW223135   1.342   6.453   2.144  2.0642  0.2245 -0.4624
 7179SOL     OW23136   2.300   1.710   3.790  0.3488 -0.3983 -0.0949
 7179SOL    HW123137   2.315   1.688   3.693 -2.1278  0.1225 -0.6525
 7179SOL    HW223138   2.269   1.805   3.798 -0.1461 -0.6495  1.1387
 7180SOL     OW23139   6.307   1.431   3.388 -0.2830 -0.3425 -0.0644
 7180SOL    HW123140   6.216   1.391   3.381 -0.4177 -0.0897  0.2182
 7180SOL    HW223141   6.355   1.389   3.466 -1.1300  1.3921  1.4794
 7181SOL     OW23142   6.790   6.394   6.386 -0.4414 -0.7663  0.2471
 7181SOL    HW123143   6.814   6.491   6.380 -1.5903 -0.5141 -0.9314
 7181SOL    HW223144   6.829   6.346   6.308 -0.2343 -1.1663  0.5971
 7182SOL     OW23145   1.883   3.198   0.061 -0.0319  0.1419 -0.1378
 7182SOL    HW123146   1.978   3.174   0.041 -0.3627 -1.4060 -0.0364
 7182SOL    HW223147   1.864   3.176   0.157  0.0285  2.3057  0.4099
 7183SOL     OW23148   4.303   1.693   0.269 -0.1634 -0.1226 -0.1201
 7183SOL    HW123149   4.237   1.688   0.344  2.1472  0.6410  2.0919
 7183SOL    HW223150   4.389   1.731   0.303  1.1015 -0.0485 -3.1310
 7184SOL     OW23151   7.007   6.562   4.867  0.2950  0.1217  0.4177
 7184SOL    HW123152   6.928   6.510   4.899 -0.2306  0.4142 -0.3564
 7184SOL    HW223153   7.021   6.544   4.770 -1.3191  3.0717 -0.5136
 7185SOL     OW23154   5.975   1.972   0.938  0.5906  0.0819  0.5503
 7185SOL    HW123155   5.905   1.913   0.978  0.6760 -0.3216  0.1214
 7185SOL    HW223156   5.942   2.066   0.934 -0.0165 -0.1400  0.1591
 7186SOL     OW23157   6.215   3.541   0.617  0.0247  0.3404 -0.3678
 7186SOL    HW123158   6.199   3.635   0.644  0.7163  0.9221 -1.8667
 7186SOL    HW223159   6.275   3.496   0.683 -0.8204  0.7465  0.6861
 7187SOL     OW23160   2.134   1.670   1.681 -0.4605 -0.2521  0.1996
 7187SOL    HW123161   2.079   1.594   1.646 -0.6223 -0.3786  0.7192
 7187SOL    HW223162   2.140   1.664   1.781 -0.4893  0.4268  0.2511
 7188SOL     OW23163   0.670   6.544   1.024  0.2276 -0.1343 -0.3637
 7188SOL    HW123164   0.727   6.621   1.052  1.9359 -1.3156 -0.4901
 7188SOL    HW223165   0.622   6.508   1.104 -0.5767  1.0090 -0.2969
 7189SOL     OW23166   5.604   0.186   5.785 -0.3719  0.1806 -0.2007
 7189SOL    HW123167   5.568   0.126   5.714 -0.9413  0.6644 -0.3330
 7189SOL    HW223168   5.533   0.203   5.854 -0.1329  0.4764 -0.0217
 7190SOL     OW23169   4.718   3.645   1.586  0.2898  0.6488  0.3867
 7190SOL    HW123170   4.752   3.558   1.622  1.0477  0.8633  0.2098
 7190SOL    HW223171   4.723   3.644   1.486  1.2229  1.2538  0.4174
 7191SOL     OW23172   1.531   2.384   6.265  0.3098 -0.0187  0.3909
 7191SOL    HW123173   1.460   2.410   6.200 -0.2622 -0.3392  0.8789
 7191SOL    HW223174   1.592   2.462   6.281 -2.7542  1.9987  3.6672
 7192SOL     OW23175   3.497   5.130   3.217  0.2920  0.0852  0.0814
 7192SOL    HW123176   3.466   5.044   3.258 -0.3821  0.1366 -0.3039
 7192SOL    HW223177   3.463   5.135   3.123 -0.5783  1.2435  0.4363
 7193SOL     OW23178   1.685   1.303   2.870 -0.0882  0.3263  0.0828
 7193SOL    HW123179   1.604   1.326   2.924 -0.1902 -1.9563  1.0201
 7193SOL    HW223180   1.738   1.234   2.918  2.0093  1.1652 -0.9134
 7194SOL     OW23181   1.888   6.988   2.419 -0.2514 -0.9009  0.0939
 7194SOL    HW123182   1.961   7.008   2.484 -0.6938 -1.4785  0.7793
 7194SOL    HW223183   1.842   7.072   2.393  2.7291  0.0267 -2.9139
 7195SOL     OW23184   2.107   0.288   1.820 -0.0144  0.1540  0.5390
 7195SOL    HW123185   2.068   0.362   1.875 -0.6982 -0.9839  1.6322
 7195SOL    HW223186   2.052   0.205   1.832 -0.5798 -0.0054 -2.3686
 7196SOL     OW23187   6.794   4.936   6.231  0.0880 -0.1684  0.3302
 7196SOL    HW123188   6.714   4.894   6.274 -0.6177 -0.6218 -1.3653
 7196SOL    HW223189   6.814   5.023   6.277 -2.5029  0.8601 -0.2809
 7197SOL     OW23190   4.959   0.438   5.397  0.3730 -0.3448 -0.1503
 7197SOL    HW123191   5.033   0.428   5.330  0.6960  1.8869 -0.2199
 7197SOL    HW223192   4.964   0.365   5.464  0.8465 -1.9024 -1.8050
 7198SOL     OW23193   2.270   2.347   6.821  0.2524  0.4495 -0.2060
 7198SOL    HW123194   2.342   2.283   6.794  0.1021  0.5323 -0.8215
 7198SOL    HW223195   2.308   2.438   6.832  0.6568  0.0880  1.6312
 7199SOL     OW23196   4.730   0.486   6.651  0.1946 -0.1660  0.1054
 7199SOL    HW123197   4.698   0.475   6.745 -1.1611 -0.0298 -0.3224
 7199SOL    HW223198   4.681   0.422   6.591  0.2063  0.5429 -0.6846
 7200SOL     OW23199   3.035   7.018   2.337  0.4764 -0.1221  0.3088
 7200SOL    HW123200   2.977   7.024   2.418  2.8139  0.9181  2.0167
 7200SOL    HW223201   3.096   7.097   2.333  1.3682 -0.8420 -1.7301
 7201SOL     OW23202   6.887   0.686   4.156  0.1318 -0.0521 -0.5881
 7201SOL    HW123203   6.925   0.643   4.239 -0.9577 -0.5087 -0.3095
 7201SOL    HW223204   6.956   0.746   4.116  1.2471 -1.0701 -0.2582
 7202SOL     OW23205   0.474   5.500   4.412 -0.0303  0.3142  0.4562
 7202SOL    HW123206   0.574   5.505   4.419 -0.0720 -0.2966  2.0338
 7202SOL    HW223207   0.448   5.459   4.325  1.1224 -0.1347  0.3106
 7203SOL     OW23208   6.211   0.893   0.905 -0.3568 -0.5302 -0.2865
 7203SOL    HW123209   6.209   0.843   0.991  0.3848 -1.4232 -0.7690
 7203SOL    HW223210   6.119   0.926   0.883 -1.0247 -2.2774 -0.2784
 7204SOL     OW23211   5.827   5.878   5.099 -0.0665  0.3400 -0.0462
 7204SOL    HW123212   5.882   5.959   5.117  1.1964 -0.3847 -0.5045
 7204SOL    HW223213   5.791   5.882   5.006  0.2646  0.2394 -0.1823
 7205SOL     OW23214   4.182   1.562   4.294 -0.2166  0.1522 -0.3908
 7205SOL    HW123215   4.273   1.590   4.327 -0.1726 -0.0701 -0.3188
 7205SOL    HW223216   4.192   1.485   4.231 -0.4330 -0.6217  0.4912
 7206SOL     OW23217   0.819   2.330   4.317 -0.2673 -0.4886  1.1642
 7206SOL    HW123218   0.788   2.410   4.265  0.2779 -0.9936  0.0047
 7206SOL    HW223219   0.878   2.273   4.258 -1.0250 -1.9893  1.7989
 7207SOL     OW23220   1.596   4.565   2.993 -0.3282  0.7255 -0.2965
 7207SOL    HW123221   1.662   4.604   2.929 -0.6188 -1.4520 -2.0296
 7207SOL    HW223222   1.613   4.467   3.004 -3.0075  0.1560 -0.5301
 7208SOL     OW23223   5.721   1.688   3.081  0.5743 -0.5411 -0.0468
 7208SOL    HW123224   5.816   1.704   3.106  0.9660 -1.1269 -1.0930
 7208SOL    HW223225   5.701   1.590   3.087 -0.9394 -0.1652  3.3817
 7209SOL     OW23226   5.460   0.383   0.594  0.1205  0.1078 -0.2380
 7209SOL    HW123227   5.445   0.481   0.609  0.5699  0.2266 -0.5581
 7209SOL    HW223228   5.400   0.352   0.521  0.4972  0.3017 -0.6308
 7210SOL     OW23229   6.373   3.245   1.780 -0.1576 -0.2696 -0.2236
 7210SOL    HW123230   6.373   3.251   1.681  2.3683 -1.3485 -0.3766
 7210SOL    HW223231   6.405   3.154   1.808 -0.9176 -0.0306  1.5835
 7211SOL     OW23232   0.008   3.134   4.264  1.0295  0.1855  0.2111
 7211SOL    HW123233   0.014   3.054   4.203 -0.5249  0.2447 -0.0807
 7211SOL    HW223234   0.085   3.134   4.327  1.4204 -1.1846 -0.2254
 7212SOL     OW23235   0.961   3.088   4.811  0.3344 -0.1249 -0.9540
 7212SOL    HW123236   0.986   3.092   4.715  0.0640 -3.2199 -1.2542
 7212SOL    HW223237   0.871   3.129   4.824  1.4759  2.7795 -1.4504
 7213SOL     OW23238   3.642   6.794   2.873 -0.3505 -0.2932 -0.6852
 7213SOL    HW123239   3.580   6.716   2.875  0.8356 -1.2511  0.3091
 7213SOL    HW223240   3.592   6.877   2.897 -1.2293 -1.0695  0.2739
 7214SOL     OW23241   1.577   2.733   7.022  0.2326  0.0157  0.1533
 7214SOL    HW123242   1.509   2.735   6.949  0.0950  0.0591  0.2819
 7214SOL    HW223243   1.654   2.792   6.998  0.7599 -0.9169 -0.5108
 7215SOL     OW23244   5.981   5.029   3.977 -0.1022 -0.3597  0.4437
 7215SOL    HW123245   5.967   5.116   3.929  0.4804  0.7579  2.1782
 7215SOL    HW223246   5.894   4.999   4.016 -0.0344  0.2576  1.0962
 7216SOL     OW23247   6.817   5.848   4.809 -0.2067 -0.2409 -0.0584
 7216SOL    HW123248   6.726   5.813   4.832  0.8244 -2.2821  1.1341
 7216SOL    HW223249   6.842   5.819   4.717  0.1472 -1.7261  0.4764
 7217SOL     OW23250   5.099   5.188   2.921  0.1130  0.1612 -0.1385
 7217SOL    HW123251   5.017   5.144   2.886  0.8024 -0.7961 -0.5907
 7217SOL    HW223252   5.179   5.155   2.870  0.9375  0.0484  1.2016
 7218SOL     OW23253   2.692   1.145   1.261  0.7075 -0.3957  0.1419
 7218SOL    HW123254   2.670   1.155   1.164 -1.5840  0.2396  0.6525
 7218SOL    HW223255   2.740   1.059   1.275  1.6243 -0.2329 -1.5986
 7219SOL     OW23256   6.339   2.087   5.676 -0.0267  0.2992 -0.7539
 7219SOL    HW123257   6.425   2.036   5.669 -0.7586 -1.1850  0.6146
 7219SOL    HW223258   6.270   2.044   5.619 -0.4319  0.2656 -0.2372
 7220SOL     OW23259   2.338   4.101   5.432  0.2796 -0.0391  0.2098
 7220SOL    HW123260   2.345   4.141   5.341 -1.2136  2.1064  0.9664
 7220SOL    HW223261   2.427   4.065   5.460  1.5182  1.9857 -0.9072
 7221SOL     OW23262   6.521   5.391   6.870  0.4424 -0.2408  0.1448
 7221SOL    HW123263   6.426   5.415   6.891  0.7337  0.3620  0.8420
 7221SOL    HW223264   6.528   5.292   6.855 -0.5762 -0.0978 -1.5656
 7222SOL     OW23265   2.989   5.791   4.767 -0.0199 -0.9170 -0.3831
 7222SOL    HW123266   3.049   5.713   4.781  2.5066  0.5914 -2.0086
 7222SOL    HW223267   2.987   5.815   4.670 -2.3960 -0.1791 -0.2186
 7223SOL     OW23268   0.671   3.252   1.582 -0.2936  0.5330  0.3303
 7223SOL    HW123269   0.634   3.298   1.663 -0.9490  2.3076 -0.9140
 7223SOL    HW223270   0.598   3.202   1.536 -0.4354  1.2849 -0.2945
 7224SOL     OW23271   5.078   0.886   6.823 -0.1944  0.4135 -0.7823
 7224SOL    HW123272   5.084   0.862   6.726 -1.9503 -1.4302 -0.4953
 7224SOL    HW223273   5.067   0.804   6.878  1.5539  1.3568  1.1182
 7225SOL     OW23274   1.954   0.211   4.875 -0.1398  0.1702  0.4630
 7225SOL    HW123275   2.051   0.206   4.897 -0.2961  0.0295  1.1442
 7225SOL    HW223276   1.930   0.136   4.813  0.9073  2.2514 -2.6927
 7226SOL     OW23277   3.759   2.496   4.831  0.0977 -0.3269  0.2564
 7226SOL    HW123278   3.707   2.579   4.853  1.1604 -0.1283  2.2671
 7226SOL    HW223279   3.695   2.420   4.816 -0.8243  0.3672  0.5363
 7227SOL     OW23280   3.396   4.044   3.913  0.0794  0.4725 -0.0345
 7227SOL    HW123281   3.301   4.014   3.924  0.4200 -1.2165 -1.2077
 7227SOL    HW223282   3.453   4.000   3.983  0.0427  1.3745  0.5805
 7228SOL     OW23283   0.086   1.669   2.500  0.8092  0.4060 -0.1319
 7228SOL    HW123284   0.016   1.671   2.429  1.3490  0.7403 -0.6667
 7228SOL    HW223285   0.166   1.619   2.465  0.3778 -1.0924  0.9114
 7229SOL     OW23286   4.618   3.705   1.049  0.2414 -0.1397  0.5010
 7229SOL    HW123287   4.584   3.648   0.975  0.6175 -1.1695  1.1004
 7229SOL    HW223288   4.566   3.790   1.053 -1.4891 -1.1674  0.6555
 7230SOL     OW23289   5.979   5.541   6.095  0.3054 -0.7763  0.7533
 7230SOL    HW123290   5.921   5.468   6.131 -0.5182 -1.1420 -1.1606
 7230SOL    HW223291   5.924   5.625   6.086  0.2979 -0.8676 -0.1826
 7231SOL     OW23292   0.563   3.543   6.752  0.4017 -0.0963 -0.0355
 7231SOL    HW123293   0.616   3.596   6.685  1.2542 -0.1594  0.5617
 7231SOL    HW223294   0.626   3.495   6.813 -0.3279  0.7409  1.4342
 7232SOL     OW23295   3.042   4.482   6.940 -0.1539  0.5521  0.5238
 7232SOL    HW123296   3.123   4.433   6.906 -0.9702  1.0160 -2.3579
 7232SOL    HW223297   3.005   4.433   7.019  1.2501 -1.3082  0.1270
 7233SOL     OW23298   6.524   6.364   4.335 -0.1556 -0.9524  0.3395
 7233SOL    HW123299   6.492   6.450   4.296  0.2508 -0.2417  1.5263
 7233SOL    HW223300   6.590   6.383   4.408 -0.0611 -2.2684  0.6188
 7234SOL     OW23301   1.804   2.257   0.770 -0.2130  0.0895 -0.1461
 7234SOL    HW123302   1.740   2.319   0.724 -1.2999 -1.0788 -0.2675
 7234SOL    HW223303   1.808   2.171   0.719  0.6230 -0.2487  0.4887
 7235SOL     OW23304   2.416   6.765   2.558 -1.1414 -0.2779 -0.2121
 7235SOL    HW123305   2.387   6.673   2.586  0.0993 -0.9502 -1.0449
 7235SOL    HW223306   2.410   6.773   2.459  3.2988 -1.2210 -0.7695
 7236SOL     OW23307   4.930   6.917   5.246 -0.4351  0.0641 -0.0111
 7236SOL    HW123308   5.020   6.959   5.251 -0.4009 -0.0874  0.9122
 7236SOL    HW223309   4.861   6.988   5.233 -0.1812  0.1731 -0.7851
 7237SOL     OW23310   3.520   3.583   6.845  0.5123  0.6239  0.3288
 7237SOL    HW123311   3.538   3.487   6.824 -0.3265  0.5680 -0.1505
 7237SOL    HW223312   3.524   3.597   6.944 -0.2547 -0.0821  0.4641
 7238SOL     OW23313   5.542   1.888   6.437  0.2905  0.3548  0.5583
 7238SOL    HW123314   5.478   1.932   6.500  0.0582  2.2619 -0.9005
 7238SOL    HW223315   5.635   1.923   6.455  0.5977 -0.7604  1.2396
 7239SOL     OW23316   4.233   5.798   5.456 -0.1299  0.0649 -0.7031
 7239SOL    HW123317   4.182   5.855   5.520  1.0601  0.1166  0.2380
 7239SOL    HW223318   4.264   5.853   5.379  1.1090  0.7584  0.2553
 7240SOL     OW23319   1.740   4.258   6.301 -0.3864 -0.2484  0.0011
 7240SOL    HW123320   1.712   4.354   6.303 -1.2528 -0.5021  1.4654
 7240SOL    HW223321   1.726   4.220   6.209 -0.3753  0.9096 -0.4937
 7241SOL     OW23322   5.832   6.125   2.914  0.5279 -0.0682 -0.2850
 7241SOL    HW123323   5.903   6.167   2.970  1.1685 -0.7508 -0.5759
 7241SOL    HW223324   5.850   6.027   2.904 -1.1907 -0.5495  0.7831
 7242SOL     OW23325   2.300   6.252   3.498 -0.3865 -0.1245  0.0612
 7242SOL    HW123326   2.228   6.184   3.486 -0.8368  0.2639  0.5030
 7242SOL    HW223327   2.327   6.255   3.594 -0.2837  0.2335  0.0209
 7243SOL     OW23328   5.713   5.846   1.137  0.2268  0.1903  0.0091
 7243SOL    HW123329   5.787   5.852   1.069  2.3325  0.2723  2.1591
 7243SOL    HW223330   5.702   5.935   1.181  1.0395 -0.5419  1.8055
 7244SOL     OW23331   1.157   0.510   2.602 -0.4820  0.1039  0.2287
 7244SOL    HW123332   1.064   0.475   2.586 -0.6226 -0.0459  1.2636
 7244SOL    HW223333   1.212   0.499   2.519 -1.7296  1.3034 -0.8027
 7245SOL     OW23334   1.717   5.946   6.414 -0.2308 -0.0490 -0.2299
 7245SOL    HW123335   1.761   5.975   6.328 -1.6843  1.6028 -0.4693
 7245SOL    HW223336   1.634   6.000   6.429 -0.0887 -0.3939  2.1742
 7246SOL     OW23337   3.096   3.753   1.066 -0.4753  0.2601 -0.0603
 7246SOL    HW123338   3.115   3.792   0.976  2.1615  0.4085  0.4908
 7246SOL    HW223339   3.141   3.807   1.137  0.1231 -1.6013  1.0625
 7247SOL     OW23340   3.937   6.460   5.239 -0.1629  0.2875  0.4136
 7247SOL    HW123341   3.928   6.375   5.186  0.2164 -0.1401  1.0208
 7247SOL    HW223342   3.930   6.538   5.178 -1.0529 -0.1655 -0.0882
 7248SOL     OW23343   0.251   5.638   6.969 -0.0791 -0.8180 -0.1695
 7248SOL    HW123344   0.174   5.701   6.964 -0.2306 -1.0477 -0.8222
 7248SOL    HW223345   0.245   5.584   7.053 -1.1707 -1.5193 -0.6807
 7249SOL     OW23346   5.281   2.597   4.438  0.0206  0.3209  0.1539
 7249SOL    HW123347   5.239   2.619   4.525  1.5843 -0.9074  1.2852
 7249SOL    HW223348   5.329   2.677   4.403 -1.3485  1.0777 -0.0610
 7250SOL     OW23349   3.915   3.606   3.255 -0.3065 -0.1192 -0.2050
 7250SOL    HW123350   3.962   3.620   3.342 -0.9867  2.7751 -0.1832
 7250SOL    HW223351   3.825   3.649   3.259 -0.6508 -0.5890 -2.1109
 7251SOL     OW23352   2.883   2.309   5.966 -0.4614  0.2944  0.4681
 7251SOL    HW123353   2.808   2.373   5.948 -1.1805 -0.7267 -0.2685
 7251SOL    HW223354   2.865   2.260   6.052 -0.2972  0.5194  0.6327
 7252SOL     OW23355   5.132   6.225   1.347  0.4320 -0.9744  0.0404
 7252SOL    HW123356   5.129   6.318   1.382  1.0871 -0.4594 -1.2096
 7252SOL    HW223357   5.212   6.214   1.288 -0.0769 -2.0943 -0.4780
 7253SOL     OW23358   2.964   2.031   6.450  0.1351 -0.0288  0.2475
 7253SOL    HW123359   2.906   1.973   6.507  0.5882  0.3592  1.1308
 7253SOL    HW223360   3.007   2.101   6.507  0.8644  0.1683 -0.5210
 7254SOL     OW23361   4.657   0.156   6.576 -0.1479  0.4453  0.0398
 7254SOL    HW123362   4.667   0.217   6.497  0.7349  0.0802 -0.1401
 7254SOL    HW223363   4.560   0.140   6.593 -0.3559  0.6643 -0.8709
 7255SOL     OW23364   5.700   0.562   0.085 -0.3220  0.0048  0.0648
 7255SOL    HW123365   5.676   0.529  -0.007  0.4052 -1.5213  0.3903
 7255SOL    HW223366   5.616   0.569   0.140 -0.6334 -0.1688 -0.3761
 7256SOL     OW23367   6.872   0.314   0.108  0.5216 -0.2298 -0.1893
 7256SOL    HW123368   6.855   0.402   0.152 -2.0641 -1.6095  1.8761
 7256SOL    HW223369   6.795   0.291   0.048  0.1314 -1.9277  0.8910
 7257SOL     OW23370   4.329   5.696   4.870 -0.3685 -0.5107  0.2750
 7257SOL    HW123371   4.245   5.718   4.820  0.5053  0.7725 -0.7102
 7257SOL    HW223372   4.401   5.674   4.805 -0.3515 -3.3769  1.1597
 7258SOL     OW23373   2.288   3.653   1.059 -0.4327 -0.5536  0.1177
 7258SOL    HW123374   2.373   3.621   1.100 -0.5069 -0.6236  0.2176
 7258SOL    HW223375   2.282   3.753   1.068 -0.6296 -0.6068  0.6276
 7259SOL     OW23376   0.611   0.298   7.001 -0.4594  0.5319 -0.0344
 7259SOL    HW123377   0.706   0.318   7.025 -0.1966  1.3467 -1.5921
 7259SOL    HW223378   0.564   0.383   6.976 -1.1663 -0.0446 -0.7159
 7260SOL     OW23379   5.415   0.733   6.696 -0.4369  0.0696 -0.6895
 7260SOL    HW123380   5.335   0.673   6.697  0.3862 -1.0701  0.3633
 7260SOL    HW223381   5.462   0.725   6.607 -0.7142 -0.3360 -0.8019
 7261SOL     OW23382   4.360   2.088   1.025 -0.4700  0.3079  0.1000
 7261SOL    HW123383   4.454   2.110   0.999 -0.3297 -0.1154  0.2337
 7261SOL    HW223384   4.298   2.158   0.990 -0.1459  0.3933 -0.3074
 7262SOL     OW23385   6.193   3.782   5.540 -0.5192 -0.2297  0.3759
 7262SOL    HW123386   6.214   3.691   5.503 -1.8626 -0.7440  0.8248
 7262SOL    HW223387   6.241   3.852   5.486  1.3158 -1.2320  0.6164
 7263SOL     OW23388   0.233   4.176   5.807  0.7515  0.2356 -0.1673
 7263SOL    HW123389   0.234   4.195   5.906  1.2930 -3.3241  0.6550
 7263SOL    HW223390   0.292   4.242   5.760  0.5436  1.9844  1.8733
 7264SOL     OW23391   3.484   6.423   6.897 -0.1759 -0.5099 -0.3554
 7264SOL    HW123392   3.473   6.387   6.804  1.2403 -2.4687  0.1610
 7264SOL    HW223393   3.545   6.363   6.948 -0.1414  1.0716  1.5643
 7265SOL     OW23394   3.556   2.294   4.772  0.0174  0.0473 -0.2577
 7265SOL    HW123395   3.567   2.246   4.685  1.1964 -0.0523 -0.0775
 7265SOL    HW223396   3.561   2.228   4.847 -2.3193 -0.0512 -0.1276
 7266SOL     OW23397   0.113   6.987   0.273 -0.5624 -0.8875 -0.1563
 7266SOL    HW123398   0.130   6.948   0.183 -0.7217 -1.0197 -0.1291
 7266SOL    HW223399   0.090   7.084   0.264 -0.9850 -0.9991 -0.2909
 7267SOL     OW23400   5.809   4.298   2.515 -0.6416 -0.1565 -0.4519
 7267SOL    HW123401   5.777   4.294   2.610  0.3505  0.0118 -0.0994
 7267SOL    HW223402   5.866   4.379   2.503 -0.0257 -0.6534 -0.9514
 7268SOL     OW23403   5.592   2.659   3.288 -0.2572 -0.1174  0.5987
 7268SOL    HW123404   5.664   2.727   3.278 -1.5629  1.6407  2.2733
 7268SOL    HW223405   5.523   2.673   3.217  0.3025 -0.8541 -0.1096
 7269SOL     OW23406   6.369   4.675   1.775 -0.1353 -0.6293 -0.1892
 7269SOL    HW123407   6.328   4.673   1.866 -1.0094 -0.3893 -0.5678
 7269SOL    HW223408   6.356   4.765   1.734  1.8722 -0.1280  0.1539
 7270SOL     OW23409   3.579   1.477   6.728  0.7927 -0.6498  0.5203
 7270SOL    HW123410   3.577   1.450   6.824  0.2429 -0.6856  0.4977
 7270SOL    HW223411   3.559   1.575   6.721 -0.0985 -0.8343  0.3721
 7271SOL     OW23412   5.712   5.871   4.386 -0.0405  0.0695  0.5020
 7271SOL    HW123413   5.700   5.953   4.331 -1.5235 -0.0134  0.6732
 7271SOL    HW223414   5.677   5.887   4.478 -0.3857 -0.7610  0.5262
 7272SOL     OW23415   1.432   4.876   5.220  0.3269  0.5425  0.7242
 7272SOL    HW123416   1.446   4.797   5.161  1.6239  0.7705  0.6982
 7272SOL    HW223417   1.335   4.899   5.223 -0.6845 -3.0912  3.3730
 7273SOL     OW23418   0.781   4.008   1.408 -0.0340  0.6285 -0.2770
 7273SOL    HW123419   0.835   4.092   1.409  0.0786  0.5529  0.1339
 7273SOL    HW223420   0.819   3.945   1.340 -0.0714  0.8760 -0.5284
 7274SOL     OW23421   2.902   3.262   4.074  0.0993  0.0497  0.6601
 7274SOL    HW123422   2.895   3.171   4.115  0.0449 -0.6058 -0.7440
 7274SOL    HW223423   2.811   3.294   4.047  0.3264 -0.4374 -0.7898
 7275SOL     OW23424   3.849   5.283   3.646  0.4086  0.2524  0.1167
 7275SOL    HW123425   3.849   5.327   3.735  2.4487 -0.4984  0.5508
 7275SOL    HW223426   3.907   5.201   3.650  0.3371  0.0694 -1.8328
 7276SOL     OW23427   4.790   0.179   6.255  0.3397 -0.1172 -0.2157
 7276SOL    HW123428   4.840   0.144   6.176 -0.6471 -1.7835 -0.1702
 7276SOL    HW223429   4.694   0.152   6.248 -0.7212  3.2459 -0.4580
 7277SOL     OW23430   6.728   6.526   5.050  0.0191 -0.1719  0.1050
 7277SOL    HW123431   6.761   6.523   5.145  1.2296  0.2042 -0.2786
 7277SOL    HW223432   6.750   6.439   5.005  0.7581  0.1720 -0.2242
 7278SOL     OW23433   0.157   4.884   5.192 -0.1487 -0.4710 -0.3901
 7278SOL    HW123434   0.153   4.838   5.103  0.5328 -0.2723 -0.5283
 7278SOL    HW223435   0.248   4.922   5.206  0.6891 -2.8695  1.5707
 7279SOL     OW23436   4.948   4.895   5.700  0.4322 -0.0041 -0.4758
 7279SOL    HW123437   4.981   4.988   5.685  0.3089 -0.0761 -1.2234
 7279SOL    HW223438   4.853   4.888   5.672  0.2828 -0.2278  0.0735
 7280SOL     OW23439   1.373   0.317   3.123  0.0273  0.0164  0.2475
 7280SOL    HW123440   1.373   0.218   3.109 -2.0490  0.0945 -0.6770
 7280SOL    HW223441   1.294   0.358   3.076  1.9743  2.3925 -1.1905
 7281SOL     OW23442   5.284   4.100   4.014  0.0329 -0.0730 -0.3214
 7281SOL    HW123443   5.285   4.128   3.918  0.1914  0.2873 -0.2143
 7281SOL    HW223444   5.202   4.046   4.032 -1.0544  1.5739 -0.1730
 7282SOL     OW23445   3.450   1.062   5.740 -0.1850 -0.7997 -0.5400
 7282SOL    HW123446   3.405   1.074   5.828 -0.6896 -1.8457 -0.6352
 7282SOL    HW223447   3.534   1.009   5.753  1.2445  1.3934 -0.3183
 7283SOL     OW23448   1.595   4.430   6.005 -0.0401 -0.2035  0.1321
 7283SOL    HW123449   1.653   4.497   6.052  2.2013 -0.5792 -1.9664
 7283SOL    HW223450   1.548   4.475   5.929 -1.6523 -0.1797  1.1016
 7284SOL     OW23451   5.124   0.330   2.050  0.1043  0.1403 -0.2998
 7284SOL    HW123452   5.178   0.246   2.060  0.3734  0.4414  0.9269
 7284SOL    HW223453   5.066   0.323   1.968 -0.8407 -1.7738  0.4688
 7285SOL     OW23454   1.066   5.321   1.882 -0.3381 -0.6719 -0.6345
 7285SOL    HW123455   1.148   5.375   1.863 -0.7707  0.3289  0.2703
 7285SOL    HW223456   0.987   5.382   1.888 -1.1715 -1.6279 -1.5537
 7286SOL     OW23457   4.819   1.423   5.647  0.4329  0.2181 -0.1908
 7286SOL    HW123458   4.732   1.470   5.663 -0.5978 -0.9646 -1.9793
 7286SOL    HW223459   4.813   1.329   5.682  0.7170 -0.0965 -0.9582
 7287SOL     OW23460   0.545   0.919   5.357 -0.0663  0.7472  0.1501
 7287SOL    HW123461   0.565   0.821   5.354  0.4066  0.8650 -2.0134
 7287SOL    HW223462   0.552   0.951   5.452  0.3616 -1.1649  0.8180
 7288SOL     OW23463   6.320   6.742   3.264 -0.3993 -0.3567  0.0167
 7288SOL    HW123464   6.346   6.691   3.182 -2.5059  0.7234 -1.3935
 7288SOL    HW223465   6.398   6.796   3.296  0.1309  0.1731 -2.0279
 7289SOL     OW23466   0.298   1.524   2.370 -0.1256  0.4241  0.4539
 7289SOL    HW123467   0.299   1.573   2.283  0.7676 -1.4604 -0.6281
 7289SOL    HW223468   0.357   1.572   2.436 -1.0190  2.0052  0.1645
 7290SOL     OW23469   3.378   4.909   3.825  0.1035 -0.0372  0.0937
 7290SOL    HW123470   3.280   4.917   3.803  0.2244 -0.0561 -0.4588
 7290SOL    HW223471   3.398   4.814   3.850  0.2245 -0.3381 -1.0599
 7291SOL     OW23472   4.622   2.741   1.587 -0.2289  0.3590  0.5061
 7291SOL    HW123473   4.574   2.663   1.545  0.6212 -1.6416  3.0217
 7291SOL    HW223474   4.577   2.765   1.673  0.2160  1.9710  0.3241
 7292SOL     OW23475   4.578   4.807   5.337  0.1439 -0.0351 -0.3065
 7292SOL    HW123476   4.619   4.859   5.262  0.2598  0.7115  0.2619
 7292SOL    HW223477   4.585   4.859   5.422  0.7314 -1.1912  0.3899
 7293SOL     OW23478   3.017   6.311   0.082 -0.2279 -0.5874  0.0174
 7293SOL    HW123479   2.928   6.346   0.051 -1.0082 -1.3025  1.3679
 7293SOL    HW223480   3.006   6.262   0.168  1.6071 -0.1201  0.5617
 7294SOL     OW23481   2.481   2.536   6.555  0.3592 -0.5652 -0.4019
 7294SOL    HW123482   2.536   2.473   6.610  0.6446 -0.7152 -0.8492
 7294SOL    HW223483   2.419   2.483   6.497 -1.6415 -0.3746  1.4579
 7295SOL     OW23484   4.478   0.421   3.108 -0.2064  0.3321  0.2801
 7295SOL    HW123485   4.387   0.403   3.071 -0.8081  0.5783  1.5532
 7295SOL    HW223486   4.532   0.337   3.106 -0.8249 -0.0798  0.4606
 7296SOL     OW23487   4.048   0.484   4.204  0.2023  0.3513 -0.7829
 7296SOL    HW123488   4.073   0.390   4.226  0.3802  0.4004 -0.7811
 7296SOL    HW223489   3.975   0.484   4.135  0.1345  0.2109 -0.7107
 7297SOL     OW23490   0.390   3.835   3.504 -0.2529 -0.1013 -0.0142
 7297SOL    HW123491   0.477   3.799   3.537  0.0721  1.6817  1.2178
 7297SOL    HW223492   0.407   3.907   3.438 -0.8020  0.1142  0.0753
 7298SOL     OW23493   3.446   5.194   1.275 -0.1894  0.5446 -0.2415
 7298SOL    HW123494   3.418   5.099   1.292 -0.4279  0.4094 -1.3098
 7298SOL    HW223495   3.393   5.255   1.334  0.6313 -0.0345  1.1432
 7299SOL     OW23496   1.939   2.964   5.843  0.1737 -0.3763 -0.2410
 7299SOL    HW123497   2.036   2.950   5.822  0.0920 -1.1251 -0.1198
 7299SOL    HW223498   1.903   3.037   5.784  1.0177  0.5068  0.3125
 7300SOL     OW23499   5.960   1.168   2.879  0.3293  0.3458 -0.1944
 7300SOL    HW123500   5.975   1.120   2.965 -1.2558 -2.1189 -1.1652
 7300SOL    HW223501   5.883   1.230   2.887 -0.2240 -0.3593  0.0245
 7301SOL     OW23502   6.851   3.976   3.751  0.4439 -0.4133  0.0509
 7301SOL    HW123503   6.843   3.948   3.656 -0.0682  0.4609 -0.1767
 7301SOL    HW223504   6.930   3.932   3.793 -0.1202 -1.9055 -0.3762
 7302SOL     OW23505   1.922   6.056   5.121 -0.0521 -0.1898  0.4025
 7302SOL    HW123506   1.829   6.024   5.135  0.0068 -1.3426 -1.4922
 7302SOL    HW223507   1.923   6.125   5.049  0.3225  1.4467  1.9028
 7303SOL     OW23508   6.897   4.262   1.351  0.1065 -0.2712  0.4131
 7303SOL    HW123509   6.932   4.285   1.442  1.0061 -1.1646  0.3102
 7303SOL    HW223510   6.967   4.212   1.301  0.0012  1.0574 -1.1458
 7304SOL     OW23511   0.730   0.635   4.854 -0.6500 -0.2086  0.5816
 7304SOL    HW123512   0.665   0.608   4.925 -1.3410  1.5617  0.6513
 7304SOL    HW223513   0.707   0.587   4.769 -0.5296 -1.4504  1.2213
 7305SOL     OW23514   4.847   0.078   1.968 -0.7199 -1.0080 -0.0697
 7305SOL    HW123515   4.900   0.134   1.904  0.6272 -1.0684  0.9640
 7305SOL    HW223516   4.866   0.106   2.062 -2.7928 -0.8166  0.3486
 7306SOL     OW23517   7.022   3.424   0.616 -0.2411 -0.1112 -0.0162
 7306SOL    HW123518   7.119   3.398   0.618 -0.1290  0.0923 -1.3690
 7306SOL    HW223519   7.001   3.481   0.695  1.1381  1.1083 -0.4789
 7307SOL     OW23520   1.702   5.103   1.351 -0.1679  0.1589  0.0621
 7307SOL    HW123521   1.716   5.202   1.348 -0.6266  0.1977 -1.1512
 7307SOL    HW223522   1.689   5.068   1.258 -1.2671 -0.8646  0.5820
 7308SOL     OW23523   1.500   5.677   1.308 -0.3740  0.3101 -0.0927
 7308SOL    HW123524   1.422   5.705   1.364 -1.4446  0.2276 -1.4848
 7308SOL    HW223525   1.469   5.653   1.216  1.1905 -0.5556 -0.4445
 7309SOL     OW23526   0.690   3.709   6.289  0.2993 -0.7174 -0.2517
 7309SOL    HW123527   0.773   3.676   6.245 -0.5187 -1.7613 -1.0739
 7309SOL    HW223528   0.684   3.808   6.279  0.3507 -0.8648 -2.1918
 7310SOL     OW23529   0.104   4.146   1.265  0.1525  0.2681 -0.2707
 7310SOL    HW123530   0.119   4.062   1.318 -2.4135 -0.0083  0.1685
 7310SOL    HW223531   0.177   4.211   1.284  0.5663 -0.7116  1.7981
 7311SOL     OW23532   2.426   0.027   3.656  0.1585  0.6714  0.7294
 7311SOL    HW123533   2.356   0.085   3.698  0.0995  0.5094  0.8559
 7311SOL    HW223534   2.480  -0.018   3.727  1.5343  2.1321  0.6720
 7312SOL     OW23535   1.373   1.157   4.931 -0.0532 -0.7913  0.0191
 7312SOL    HW123536   1.282   1.156   4.973 -0.5250  1.0758 -0.8297
 7312SOL    HW223537   1.374   1.223   4.856  1.9528 -0.9564 -0.1585
 7313SOL     OW23538   5.621   4.859   4.360 -0.3924 -0.4132  0.3699
 7313SOL    HW123539   5.611   4.780   4.421  1.1034 -0.4404  0.6277
 7313SOL    HW223540   5.532   4.884   4.322 -0.7551 -2.8956 -0.5865
 7314SOL     OW23541   1.686   0.078   3.418 -0.5448 -1.0741 -0.5821
 7314SOL    HW123542   1.630   0.154   3.384  0.6492  1.3629  2.4129
 7314SOL    HW223543   1.783   0.098   3.403 -0.2252 -2.6459 -0.8238
 7315SOL     OW23544   5.853   1.536   4.566  0.2658 -0.3741  0.5547
 7315SOL    HW123545   5.886   1.454   4.518  0.9924 -0.0091  0.4125
 7315SOL    HW223546   5.771   1.514   4.617  0.8885 -1.3970  1.1505
 7316SOL     OW23547   4.124   1.823   6.460  0.6647  0.0985 -0.3969
 7316SOL    HW123548   4.054   1.863   6.401  1.0664  0.6132 -0.5320
 7316SOL    HW223549   4.189   1.894   6.488  1.0342 -0.3371 -0.1340
 7317SOL     OW23550   5.825   6.302   4.882  1.0008 -0.3076 -0.4586
 7317SOL    HW123551   5.780   6.315   4.970  2.6021 -0.8375  0.4950
 7317SOL    HW223552   5.789   6.367   4.815  0.1713  0.5017  0.7474
 7318SOL     OW23553   5.890   5.911   4.120 -0.0123 -0.0503 -0.0363
 7318SOL    HW123554   5.938   5.839   4.070  0.0986 -0.9117  1.2538
 7318SOL    HW223555   5.955   5.961   4.178  0.1249  1.8909 -1.7519
 7319SOL     OW23556   1.778   0.812   4.180  0.5365 -0.4063 -0.3077
 7319SOL    HW123557   1.768   0.740   4.111 -1.5407  0.7103 -1.2535
 7319SOL    HW223558   1.865   0.800   4.228  0.6134 -3.0657 -0.9527
 7320SOL     OW23559   6.307   0.221   6.743 -0.6457 -0.9210  0.6792
 7320SOL    HW123560   6.222   0.264   6.774 -1.5944 -1.8912 -0.4555
 7320SOL    HW223561   6.359   0.286   6.687 -1.2640 -0.7136  0.3323
 7321SOL     OW23562   4.257   5.789   6.981  0.4863  0.1301  0.2959
 7321SOL    HW123563   4.305   5.759   6.898  0.4273  1.2989 -0.1811
 7321SOL    HW223564   4.223   5.709   7.030  1.5196 -0.6428 -0.1992
 7322SOL     OW23565   2.980   1.640   6.163  0.2930 -0.1075  0.3651
 7322SOL    HW123566   3.039   1.563   6.185 -0.1920 -0.2034  1.3933
 7322SOL    HW223567   2.971   1.699   6.243  1.4657  1.5899 -0.6749
 7323SOL     OW23568   5.529   5.756   6.713 -0.4859  1.0729  0.3546
 7323SOL    HW123569   5.611   5.724   6.762 -0.8336  1.0116  0.9104
 7323SOL    HW223570   5.464   5.681   6.705  0.9629  0.0247 -3.3572
 7324SOL     OW23571   6.449   0.447   1.716  0.5936 -0.6708 -0.7639
 7324SOL    HW123572   6.375   0.491   1.665  1.3233  1.8149  0.2188
 7324SOL    HW223573   6.534   0.450   1.662  1.2443  1.5021  0.3071
 7325SOL     OW23574   1.444   2.217   0.747  0.3996 -0.9749  0.1021
 7325SOL    HW123575   1.420   2.262   0.661 -0.5044 -0.6353  0.5185
 7325SOL    HW223576   1.471   2.286   0.814  1.1066 -1.2398  0.0951
 7326SOL     OW23577   0.439   0.090   0.331 -0.2539  0.5220 -0.0048
 7326SOL    HW123578   0.425  -0.008   0.318  0.4033  0.5660 -1.2004
 7326SOL    HW223579   0.361   0.129   0.381 -0.4843 -0.6059  0.5398
 7327SOL     OW23580   6.821   4.955   1.967  0.0390  0.6657  0.7432
 7327SOL    HW123581   6.825   4.856   1.979 -1.1589  0.5745  0.5203
 7327SOL    HW223582   6.838   5.000   2.054 -1.9766  0.1716  1.4650
 7328SOL     OW23583   4.280   6.237   5.875 -0.2363  0.1760 -0.2305
 7328SOL    HW123584   4.319   6.321   5.913  2.1052 -0.0879 -1.8185
 7328SOL    HW223585   4.253   6.253   5.779 -2.1833 -0.2439  0.2078
 7329SOL     OW23586   1.477   6.122   2.830  0.2503  0.4600 -0.4911
 7329SOL    HW123587   1.498   6.208   2.783  0.3302  0.3943 -0.5765
 7329SOL    HW223588   1.472   6.048   2.762 -0.1350  0.4521 -0.4596
 7330SOL     OW23589   6.484   1.013   3.512  0.4799  0.0774 -0.0178
 7330SOL    HW123590   6.405   1.004   3.450  0.2877  1.6544 -0.0358
 7330SOL    HW223591   6.455   0.994   3.605  0.7021 -2.0133 -0.3322
 7331SOL     OW23592   3.312   1.002   4.401  0.8270 -0.1509  0.4936
 7331SOL    HW123593   3.267   1.088   4.425  0.0441 -0.6812  0.9305
 7331SOL    HW223594   3.380   1.020   4.329 -1.1184  0.4313 -1.2963
 7332SOL     OW23595   4.437   6.341   1.255  0.0979 -0.5559  0.3867
 7332SOL    HW123596   4.424   6.305   1.163 -4.2460  1.9768 -0.2671
 7332SOL    HW223597   4.349   6.345   1.302  1.2302  3.1326  2.6311
 7333SOL     OW23598   0.815   3.376   5.407  0.3579 -0.4054 -0.3101
 7333SOL    HW123599   0.907   3.373   5.370  0.4914 -0.7815  0.0403
 7333SOL    HW223600   0.770   3.288   5.392  0.4584 -0.6053  0.5175
 7334SOL     OW23601   4.854   1.746   2.099 -0.2719  0.4284 -0.2656
 7334SOL    HW123602   4.812   1.657   2.119  0.2183  0.4780  1.0691
 7334SOL    HW223603   4.782   1.813   2.080 -0.7005  0.0544  0.0138
 7335SOL     OW23604   2.349   6.764   5.386  0.1448 -0.6628  0.3047
 7335SOL    HW123605   2.342   6.861   5.407 -0.3650 -0.8906  1.2294
 7335SOL    HW223606   2.291   6.712   5.448  0.4061 -1.5646 -0.1849
 7336SOL     OW23607   3.824   1.321   4.440 -0.0878  0.4234 -0.1043
 7336SOL    HW123608   3.775   1.333   4.354 -0.8596  1.3122  0.4324
 7336SOL    HW223609   3.798   1.395   4.503  1.2056  0.3559  0.5426
 7337SOL     OW23610   6.905   3.931   4.165 -0.2878  0.6170 -0.0163
 7337SOL    HW123611   6.886   3.990   4.244  0.8479  0.9446  0.0235
 7337SOL    HW223612   6.976   3.864   4.189 -1.7317 -0.9893  0.0296
 7338SOL     OW23613   0.703   1.557   0.338  0.3950  0.0087  0.3608
 7338SOL    HW123614   0.624   1.503   0.367 -0.7275  0.8055 -1.0630
 7338SOL    HW223615   0.697   1.649   0.378  1.2865 -0.3146  1.2577
 7339SOL     OW23616   3.641   3.412   6.042  0.5474  0.4123 -0.7041
 7339SOL    HW123617   3.565   3.379   5.985  0.2906  0.0628 -0.1726
 7339SOL    HW223618   3.720   3.352   6.029  0.3957  0.1591 -0.4816
 7340SOL     OW23619   4.697   3.017   1.537  0.3650 -0.4817 -0.3710
 7340SOL    HW123620   4.680   2.920   1.549 -0.8400 -0.2858 -0.3553
 7340SOL    HW223621   4.776   3.030   1.476  0.3709 -1.4596 -0.5858
 7341SOL     OW23622   6.524   6.333   6.466  0.1532  0.1959 -0.5427
 7341SOL    HW123623   6.525   6.273   6.546  0.1511  0.3503 -0.4259
 7341SOL    HW223624   6.618   6.361   6.444  0.1253  0.3989 -0.4072
 7342SOL     OW23625   5.521   4.236   3.826 -0.0296  0.6281 -0.0629
 7342SOL    HW123626   5.529   4.185   3.912 -2.1238  1.8342  0.9074
 7342SOL    HW223627   5.490   4.329   3.845  2.6856  2.0521 -1.8881
 7343SOL     OW23628   3.894   3.268   6.017  0.2583  0.0021  0.0056
 7343SOL    HW123629   3.982   3.314   6.021  1.2084 -1.7455  0.3520
 7343SOL    HW223630   3.891   3.196   6.087 -1.5794  0.2407  0.2242
 7344SOL     OW23631   0.796   6.530   2.808 -0.0324  0.1532  0.1618
 7344SOL    HW123632   0.796   6.514   2.710  0.7108  1.3479 -0.0449
 7344SOL    HW223633   0.886   6.562   2.837 -1.1933  3.3385  0.6120
 7345SOL     OW23634   4.458   6.641   0.975 -0.1966  0.3621 -0.1460
 7345SOL    HW123635   4.390   6.669   1.043  0.1723  0.3929  0.2136
 7345SOL    HW223636   4.421   6.656   0.883 -0.7434  0.2135  0.0413
 7346SOL     OW23637   1.672   2.540   3.342  0.2923 -0.7234 -0.5494
 7346SOL    HW123638   1.736   2.612   3.315 -0.3657 -0.4693 -1.4941
 7346SOL    HW223639   1.579   2.567   3.316 -0.2770 -0.8689  1.2334
 7347SOL     OW23640   5.989   0.018   6.701  0.2233  0.2777 -0.1926
 7347SOL    HW123641   5.942   0.097   6.661  2.3042  2.9369  2.2010
 7347SOL    HW223642   6.087   0.028   6.689  0.7883 -0.0191  3.2610
 7348SOL     OW23643   4.956   5.924   5.883  0.3652 -0.0099 -0.4097
 7348SOL    HW123644   4.902   5.844   5.855  1.3825 -0.2751 -1.7344
 7348SOL    HW223645   4.916   5.965   5.964 -0.7760 -1.2609 -0.3142
 7349SOL     OW23646   6.877   3.759   5.944  0.3435 -0.4697  0.0448
 7349SOL    HW123647   6.937   3.681   5.924  1.0303 -0.0754  0.5557
 7349SOL    HW223648   6.932   3.837   5.971 -0.3337  0.2589 -0.6485
 7350SOL     OW23649   6.996   5.323   6.645 -0.4885  0.2712  0.2321
 7350SOL    HW123650   7.078   5.273   6.672 -0.4934  0.0044 -0.2291
 7350SOL    HW223651   6.963   5.377   6.722  0.4106  0.7764  0.2821
 7351SOL     OW23652   0.624   0.866   7.018  0.4890 -0.3361 -0.4328
 7351SOL    HW123653   0.642   0.939   6.952  2.2253 -0.7485 -0.4489
 7351SOL    HW223654   0.586   0.904   7.102  1.3784  0.5884 -0.4422
 7352SOL     OW23655   5.494   3.773   6.323 -0.2143 -0.2009  0.1528
 7352SOL    HW123656   5.464   3.766   6.418 -1.2377 -0.6840 -0.1954
 7352SOL    HW223657   5.465   3.861   6.285 -1.2469 -0.6797 -0.1925
 7353SOL     OW23658   6.148   1.816   3.506  0.0167 -0.0267  0.0246
 7353SOL    HW123659   6.164   1.747   3.577  0.9315 -0.2815 -0.4215
 7353SOL    HW223660   6.053   1.848   3.512 -0.1789 -0.7114  0.7694
 7354SOL     OW23661   6.288   4.072   2.124  0.0598  0.1599 -0.2622
 7354SOL    HW123662   6.370   4.130   2.122  1.5593 -1.8218  0.6515
 7354SOL    HW223663   6.220   4.110   2.062  1.9154  1.5195 -1.6110
 7355SOL     OW23664   0.021   1.933   4.323  0.6273  0.0132  0.0721
 7355SOL    HW123665   0.020   1.904   4.418  1.2607  1.6257  0.5883
 7355SOL    HW223666  -0.070   1.918   4.283  0.4069 -0.8442  0.8520
 7356SOL     OW23667   5.142   4.946   6.664 -0.6691 -0.0105 -0.1721
 7356SOL    HW123668   5.142   4.944   6.764 -1.5828  1.7488 -0.0848
 7356SOL    HW223669   5.064   5.000   6.633  1.5389  2.5412 -1.6985
 7357SOL     OW23670   4.130   6.418   0.976  0.5780 -0.2792 -0.0274
 7357SOL    HW123671   4.182   6.502   0.989 -1.4530  0.8387  1.3736
 7357SOL    HW223672   4.170   6.365   0.902  1.6061  2.1580 -1.3182
 7358SOL     OW23673   1.664   4.744   6.022 -0.0640 -0.1555  0.0726
 7358SOL    HW123674   1.608   4.812   5.975 -1.2795 -1.4715 -0.5029
 7358SOL    HW223675   1.699   4.678   5.955  0.1811 -0.6962  0.7176
 7359SOL     OW23676   1.880   5.499   4.643  0.0274 -0.1207  0.1875
 7359SOL    HW123677   1.954   5.557   4.610 -0.3504  0.2713  0.0109
 7359SOL    HW223678   1.917   5.426   4.700  0.6634 -0.6004 -0.7997
 7360SOL     OW23679   1.368   5.550   3.547 -0.6010  0.1428  0.2592
 7360SOL    HW123680   1.411   5.640   3.540  1.0464 -0.7678 -2.7479
 7360SOL    HW223681   1.426   5.489   3.601 -0.3605  0.1347 -0.0097
 7361SOL     OW23682   6.845   5.654   3.304  0.4776 -0.1899  0.1405
 7361SOL    HW123683   6.809   5.731   3.252  0.4435 -0.7486 -0.6870
 7361SOL    HW223684   6.933   5.625   3.265 -0.2231 -1.5235 -0.5275
 7362SOL     OW23685   6.289   4.599   4.133 -0.1774 -0.1914  0.0433
 7362SOL    HW123686   6.318   4.614   4.038  2.1001  1.9696  0.9886
 7362SOL    HW223687   6.324   4.512   4.165  2.1382  0.6540 -0.0540
 7363SOL     OW23688   2.346   2.610   6.817  0.3729  0.4882  0.1335
 7363SOL    HW123689   2.383   2.610   6.724  1.8651 -0.6982  0.6798
 7363SOL    HW223690   2.421   2.621   6.882 -0.2569 -1.5949  1.2944
 7364SOL     OW23691   5.633   2.780   3.610 -0.5147  0.6809  0.0085
 7364SOL    HW123692   5.635   2.700   3.551  1.5091  0.7548 -0.1014
 7364SOL    HW223693   5.628   2.751   3.706  0.9098  0.3709  0.0038
 7365SOL     OW23694   5.368   3.738   2.628  0.0915  0.1097  0.1406
 7365SOL    HW123695   5.370   3.796   2.710  1.1998  0.2371  0.0355
 7365SOL    HW223696   5.360   3.642   2.655  1.7434  0.0444  0.4735
 7366SOL     OW23697   6.879   4.517   6.248 -0.3839  0.3923  0.4605
 7366SOL    HW123698   6.851   4.427   6.281 -2.7037  0.9373  0.1306
 7366SOL    HW223699   6.961   4.546   6.297  0.6845 -2.0596  0.2710
 7367SOL     OW23700   3.997   0.785   5.779 -0.4173 -0.1564 -0.1322
 7367SOL    HW123701   4.023   0.728   5.701 -1.5259 -0.8377 -0.0151
 7367SOL    HW223702   4.078   0.835   5.811 -0.1341  0.9869 -2.3797
 7368SOL     OW23703   5.232   5.915   6.757  0.4606  0.3189  0.7912
 7368SOL    HW123704   5.209   5.818   6.765 -0.4941  0.4560  0.0174
 7368SOL    HW223705   5.319   5.925   6.709 -0.6348 -0.1445 -1.4409
 7369SOL     OW23706   6.257   0.368   1.115  0.0558  0.2531 -0.1514
 7369SOL    HW123707   6.293   0.274   1.115 -2.1684 -0.7173 -1.9153
 7369SOL    HW223708   6.332   0.433   1.124  1.8413 -1.6697 -0.4355
 7370SOL     OW23709   1.314   1.038   5.531  0.1570  0.4397 -0.2662
 7370SOL    HW123710   1.362   1.066   5.614  0.0167  2.3614 -0.7795
 7370SOL    HW223711   1.216   1.039   5.548  0.1626 -0.0463 -0.2050
 7371SOL     OW23712   5.644   6.451   0.647  0.1645 -0.2489  0.5478
 7371SOL    HW123713   5.695   6.434   0.563 -2.2998 -1.0515 -0.8960
 7371SOL    HW223714   5.651   6.548   0.672 -0.2209  0.3183 -1.4221
 7372SOL     OW23715   6.392   2.820   6.055 -0.7272 -0.8947 -0.2945
 7372SOL    HW123716   6.462   2.749   6.059 -0.5328 -0.7287 -0.7361
 7372SOL    HW223717   6.373   2.853   6.148 -0.8316 -1.5290 -0.0795
 7373SOL     OW23718   4.410   1.058   0.493 -0.0142 -0.2714  0.2020
 7373SOL    HW123719   4.413   1.109   0.407  1.0390 -0.9241 -0.1715
 7373SOL    HW223720   4.327   1.082   0.543 -1.3553 -0.9043 -1.6077
 7374SOL     OW23721   4.272   5.173   3.906  0.3961 -0.2537 -0.1979
 7374SOL    HW123722   4.356   5.220   3.880 -0.0843 -0.6838 -2.8680
 7374SOL    HW223723   4.197   5.203   3.846 -1.2333 -0.3222  1.7133
 7375SOL     OW23724   3.018   1.074   3.200  0.6597  0.3770 -0.0272
 7375SOL    HW123725   3.106   1.110   3.230 -0.0544  2.8235 -0.7072
 7375SOL    HW223726   2.947   1.099   3.266  0.3373 -1.0823  0.2185
 7376SOL     OW23727   0.174   2.816   2.377  0.2379 -0.3986  0.1176
 7376SOL    HW123728   0.124   2.732   2.358  0.4766 -0.8119  1.2827
 7376SOL    HW223729   0.113   2.894   2.364 -0.1452 -0.7764 -0.4065
 7377SOL     OW23730   5.222   4.463   0.881 -0.1555  0.0607  0.7100
 7377SOL    HW123731   5.197   4.427   0.971  0.8093  0.7342  1.2696
 7377SOL    HW223732   5.196   4.560   0.876  1.5214  0.5540  1.0046
 7378SOL     OW23733   5.408   0.788   5.080  0.0785  0.1167 -0.4826
 7378SOL    HW123734   5.467   0.707   5.085  0.4786  0.4173 -0.3101
 7378SOL    HW223735   5.400   0.830   5.171  1.2240  1.2196 -0.8594
 7379SOL     OW23736   0.309   4.143   1.860  0.0757 -0.2035  0.3857
 7379SOL    HW123737   0.338   4.216   1.797 -2.7016  0.2135 -0.5608
 7379SOL    HW223738   0.325   4.054   1.818  0.9967 -0.0416  0.3866
 7380SOL     OW23739   3.188   2.567   0.187  0.1674 -0.0644 -0.1659
 7380SOL    HW123740   3.126   2.554   0.110 -0.6747  0.7668  0.3558
 7380SOL    HW223741   3.229   2.658   0.183  1.8459 -0.8114 -0.8320
 7381SOL     OW23742   2.871   6.346   5.295 -0.4629 -0.4363  0.0943
 7381SOL    HW123743   2.784   6.389   5.322 -0.4737 -1.2114  1.3560
 7381SOL    HW223744   2.855   6.249   5.276  0.0774 -0.5043 -0.0107
 7382SOL     OW23745   3.890   3.733   3.652 -0.0256 -0.2425  0.4160
 7382SOL    HW123746   3.836   3.696   3.728  0.5629  1.3039  1.6493
 7382SOL    HW223747   3.845   3.814   3.615  1.8884  1.8335  2.2807
 7383SOL     OW23748   5.447   2.757   4.729  0.5532 -0.3481  0.4373
 7383SOL    HW123749   5.465   2.853   4.748  1.3252 -0.4443  0.2251
 7383SOL    HW223750   5.521   2.719   4.673  1.3230 -1.5812  2.1837
 7384SOL     OW23751   6.154   3.197   6.825 -0.4419  0.8104  0.1897
 7384SOL    HW123752   6.169   3.161   6.734 -2.0559 -0.1760  0.2778
 7384SOL    HW223753   6.125   3.123   6.887  0.9656  1.3810  1.6007
 7385SOL     OW23754   6.717   0.626   0.580  0.3933 -0.0686  0.1306
 7385SOL    HW123755   6.802   0.575   0.572  0.6254  0.0039  1.8679
 7385SOL    HW223756   6.726   0.696   0.651 -0.3741  1.4960 -1.2264
 7386SOL     OW23757   4.566   1.775   0.380  0.1437  0.4897 -0.1289
 7386SOL    HW123758   4.637   1.722   0.333  0.5987  1.7771 -0.9710
 7386SOL    HW223759   4.608   1.828   0.454 -0.1744  0.2416  0.2318
 7387SOL     OW23760   1.575   5.866   6.653 -0.4451 -0.0930  0.8775
 7387SOL    HW123761   1.657   5.900   6.608 -2.3088  2.1515 -1.0909
 7387SOL    HW223762   1.565   5.768   6.635 -0.3082  0.3871 -2.5094
 7388SOL     OW23763   0.657   5.382   4.753 -0.5563 -0.0228 -0.2379
 7388SOL    HW123764   0.682   5.322   4.677 -0.0771  0.1675 -0.2342
 7388SOL    HW223765   0.579   5.438   4.725 -1.6969 -1.3693  0.1281
 7389SOL     OW23766   5.322   5.838   4.983  0.2840 -0.1368  0.1378
 7389SOL    HW123767   5.284   5.896   4.911 -3.0485 -1.4819  0.6392
 7389SOL    HW223768   5.387   5.773   4.943  1.5220  1.6886 -0.9413
 7390SOL     OW23769   6.077   3.708   5.008  0.0212 -0.4044 -0.0052
 7390SOL    HW123770   6.064   3.656   5.092 -1.0078  0.7448  0.5834
 7390SOL    HW223771   5.997   3.766   4.992  1.1049  0.9658 -0.6520
 7391SOL     OW23772   5.044   6.582   3.031  0.0190  0.0518 -0.3690
 7391SOL    HW123773   5.080   6.590   3.124  1.1657  0.4171 -0.8207
 7391SOL    HW223774   4.962   6.524   3.032 -0.9731  1.3984  1.0946
 7392SOL     OW23775   5.626   5.099   5.827  0.1185  0.3992 -0.0945
 7392SOL    HW123776   5.623   5.034   5.903 -1.0242  1.1706  0.5761
 7392SOL    HW223777   5.640   5.051   5.741  2.4303 -0.4137  0.6758
 7393SOL     OW23778   2.050   6.293   0.391 -0.2267 -0.1720 -0.1916
 7393SOL    HW123779   2.095   6.377   0.361 -0.1735 -0.4779 -1.0019
 7393SOL    HW223780   2.016   6.244   0.311 -1.9077 -0.0062  0.3864
 7394SOL     OW23781   0.918   0.020   0.566 -0.5955  1.2227  0.2759
 7394SOL    HW123782   0.989   0.049   0.629 -0.2832  0.5383  0.2554
 7394SOL    HW223783   0.899  -0.078   0.580  0.3642  0.7323 -1.5091
 7395SOL     OW23784   2.645   1.082   2.572 -0.4127 -0.7615 -1.1699
 7395SOL    HW123785   2.646   1.124   2.663  1.3281 -1.8777 -0.6069
 7395SOL    HW223786   2.733   1.099   2.527 -1.6916  0.8531 -3.2270
 7396SOL     OW23787   1.993   4.897   5.945 -0.0748 -0.3500 -0.0816
 7396SOL    HW123788   1.946   4.883   5.859 -1.4645 -2.1496  0.8995
 7396SOL    HW223789   1.937   4.862   6.020  1.9916 -0.8257  1.3492
 7397SOL     OW23790   2.888   2.460   6.954 -0.1382 -0.0395 -0.2291
 7397SOL    HW123791   2.867   2.385   7.016  1.1259 -0.1381  0.0918
 7397SOL    HW223792   2.903   2.424   6.862 -0.5230 -0.0643 -0.2831
 7398SOL     OW23793   3.570   2.520   0.095 -0.1290 -0.1805 -0.0770
 7398SOL    HW123794   3.543   2.568   0.011 -1.5002 -0.0900  0.3932
 7398SOL    HW223795   3.528   2.565   0.174 -0.6796 -1.6042  0.4612
 7399SOL     OW23796   2.076   3.985   5.500  0.0272  0.1918  0.6282
 7399SOL    HW123797   2.025   4.026   5.425 -1.8288 -3.6765 -0.4641
 7399SOL    HW223798   2.167   4.025   5.504  0.7770 -0.2695 -4.6406
 7400SOL     OW23799   5.028   5.674   0.583 -0.8853 -0.1877 -0.3308
 7400SOL    HW123800   5.016   5.609   0.658  1.6888 -0.7434 -0.3130
 7400SOL    HW223801   5.054   5.764   0.621  0.5654 -0.5069 -0.4981
 7401SOL     OW23802   1.535   6.274   5.282  0.1086 -0.6762 -0.2865
 7401SOL    HW123803   1.443   6.246   5.309  0.0324 -1.1113 -0.9602
 7401SOL    HW223804   1.600   6.203   5.307  0.3237 -0.1890  0.5538
 7402SOL     OW23805   5.773   3.295   2.123  0.5262 -0.1293  0.1224
 7402SOL    HW123806   5.746   3.389   2.103 -1.0427 -0.4139  0.8328
 7402SOL    HW223807   5.845   3.295   2.192 -0.4865  0.5099  1.2014
 7403SOL     OW23808   6.438   5.520   4.688 -0.1348  0.7755  0.1294
 7403SOL    HW123809   6.503   5.472   4.628 -0.0710  4.0197 -2.7152
 7403SOL    HW223810   6.347   5.479   4.678 -0.0293  0.9084 -1.9596
 7404SOL     OW23811   2.233   1.765   3.298  0.2646  0.4294 -0.1205
 7404SOL    HW123812   2.171   1.836   3.331  1.9704  1.6430  0.6126
 7404SOL    HW223813   2.201   1.676   3.330 -2.1416  0.7465 -1.3829
 7405SOL     OW23814   6.302   4.557   6.649  0.3064 -0.7682  0.5404
 7405SOL    HW123815   6.245   4.496   6.594  3.0852 -2.3515 -0.8135
 7405SOL    HW223816   6.295   4.531   6.745 -0.8112 -1.2600  0.3464
 7406SOL     OW23817   4.771   0.150   5.387  0.2164 -0.2822  0.0123
 7406SOL    HW123818   4.685   0.181   5.428 -0.5030 -0.5565 -1.2387
 7406SOL    HW223819   4.759   0.141   5.288  1.7382 -0.1796 -0.1991
 7407SOL     OW23820   3.954   4.266   0.965  0.5974 -0.5183 -0.2126
 7407SOL    HW123821   3.897   4.333   0.917  1.4990  0.9010  0.6528
 7407SOL    HW223822   3.896   4.190   0.996 -0.6016  0.2643 -0.4563
 7408SOL     OW23823   4.648   0.392   6.911 -0.1040  0.0286  0.0058
 7408SOL    HW123824   4.690   0.311   6.872  0.7080  0.2511  0.3928
 7408SOL    HW223825   4.616   0.372   7.003 -0.2429  0.0381 -0.0410
 7409SOL     OW23826   6.163   6.670   7.026 -0.2909  0.3071  0.1087
 7409SOL    HW123827   6.139   6.746   7.087  0.2234 -1.5111  2.7298
 7409SOL    HW223828   6.091   6.601   7.029 -0.1264  0.0643 -1.1797
 7410SOL     OW23829   5.926   6.229   0.103 -0.0368  0.2964 -0.5356
 7410SOL    HW123830   5.977   6.307   0.139  1.3101 -0.1103 -1.5161
 7410SOL    HW223831   5.893   6.173   0.180  3.5800 -1.0717  0.2338
 7411SOL     OW23832   0.158   6.713   3.361 -0.1439 -0.3575 -0.1328
 7411SOL    HW123833   0.163   6.727   3.262 -2.2355 -2.2091 -0.5669
 7411SOL    HW223834   0.085   6.769   3.399  0.5409  0.2184  0.3720
 7412SOL     OW23835   6.178   0.174   2.699 -0.5073  0.0219 -0.1023
 7412SOL    HW123836   6.124   0.220   2.769 -1.3270 -0.8946 -0.1193
 7412SOL    HW223837   6.119   0.147   2.623  0.1807  0.0213 -0.6588
 7413SOL     OW23838   4.264   3.538   2.076  1.3028  0.5272 -0.8207
 7413SOL    HW123839   4.166   3.554   2.087  1.6161  1.4325  0.9882
 7413SOL    HW223840   4.284   3.524   1.979 -0.2470  3.0210 -1.6059
 7414SOL     OW23841   2.923   2.340   6.725 -0.0393 -0.2915  0.5425
 7414SOL    HW123842   2.954   2.415   6.667 -1.1262 -0.7681 -0.6956
 7414SOL    HW223843   2.978   2.258   6.708  0.4175 -0.0985  1.0717
 7415SOL     OW23844   4.905   0.841   0.235  0.5251 -0.3741  0.4851
 7415SOL    HW123845   4.874   0.753   0.197 -2.3228  0.1552  1.3607
 7415SOL    HW223846   4.936   0.900   0.160  1.3675 -1.6833 -0.2360
 7416SOL     OW23847   2.337   5.633   1.489  0.1177  0.0074  0.3328
 7416SOL    HW123848   2.333   5.681   1.402 -1.6327 -1.3728 -0.4123
 7416SOL    HW223849   2.258   5.660   1.545 -2.1508 -3.2837 -0.9232
 7417SOL     OW23850   1.521   1.664   4.088 -0.4128 -0.3911 -0.3700
 7417SOL    HW123851   1.453   1.733   4.062 -0.8290 -1.2024 -1.5230
 7417SOL    HW223852   1.512   1.585   4.028  0.7521 -1.0223  0.2608
 7418SOL     OW23853   3.876   6.094   2.528  0.0541 -0.2027 -0.0522
 7418SOL    HW123854   3.877   6.186   2.490  1.0939 -0.5741 -0.9858
 7418SOL    HW223855   3.922   6.031   2.465  2.4884 -0.7388  2.0925
 7419SOL     OW23856   1.624   2.959   5.130 -0.5848  0.2965  0.2705
 7419SOL    HW123857   1.594   2.932   5.039 -3.2616 -0.3097  1.2220
 7419SOL    HW223858   1.695   2.896   5.161  0.1588  0.3402 -1.2504
 7420SOL     OW23859   0.718   3.210   3.618  0.2026  0.5621  0.7812
 7420SOL    HW123860   0.701   3.138   3.551 -0.9999  2.0781 -0.6284
 7420SOL    HW223861   0.745   3.169   3.705  0.3559 -1.5285 -0.2017
 7421SOL     OW23862   6.958   0.729   4.896  0.3635 -0.1970  0.3955
 7421SOL    HW123863   6.963   0.643   4.946 -0.6948  0.6076  1.9843
 7421SOL    HW223864   6.863   0.758   4.887  0.6644  0.6034 -0.5020
 7422SOL     OW23865   0.382   5.680   4.999  0.4072 -0.5080  0.6543
 7422SOL    HW123866   0.327   5.643   4.923  0.3545  0.0205  0.4228
 7422SOL    HW223867   0.432   5.760   4.966  1.6181 -1.1962  0.7657
 7423SOL     OW23868   4.472   5.897   4.605  0.2163  0.3702  0.6890
 7423SOL    HW123869   4.439   5.979   4.651  1.0924  0.8317  0.5268
 7423SOL    HW223870   4.532   5.924   4.530 -1.3718 -0.3478 -0.9101
 7424SOL     OW23871   0.228   4.533   1.315 -0.4220 -0.0166 -0.0873
 7424SOL    HW123872   0.153   4.479   1.278 -1.2911  0.2357  1.2372
 7424SOL    HW223873   0.314   4.484   1.301 -0.8057 -0.3101 -1.6209
 7425SOL     OW23874   3.656   6.056   1.101 -0.1719  0.0673 -0.0288
 7425SOL    HW123875   3.697   6.020   1.185  0.7613 -1.9849 -1.2594
 7425SOL    HW223876   3.559   6.032   1.098  0.3345 -2.2025 -0.6164
 7426SOL     OW23877   0.991   5.984   1.537 -0.1671  0.0628  0.0570
 7426SOL    HW123878   0.916   5.996   1.471  0.0778  0.5251 -0.1426
 7426SOL    HW223879   1.078   5.985   1.489  0.0419  0.8757  0.4327
 7427SOL     OW23880   6.114   0.849   2.605 -0.1676  0.3027 -0.0150
 7427SOL    HW123881   6.134   0.939   2.644  0.4334 -0.0646  0.5413
 7427SOL    HW223882   6.124   0.854   2.505  3.3141  0.0947  0.1680
 7428SOL     OW23883   6.613   4.924   4.067  0.1011  0.2932  0.2772
 7428SOL    HW123884   6.548   4.976   4.011  0.8357  0.9252 -0.0122
 7428SOL    HW223885   6.690   4.983   4.092  0.2514 -0.2591  1.1602
 7429SOL     OW23886   4.658   1.352   6.765 -0.8641  0.1178  0.0472
 7429SOL    HW123887   4.712   1.434   6.785  0.7503 -1.2149  1.4013
 7429SOL    HW223888   4.576   1.378   6.713 -0.3737  2.5550  0.3849
 7430SOL     OW23889   3.892   1.773   2.227 -0.6162  0.5371  0.2157
 7430SOL    HW123890   3.961   1.839   2.257 -1.2694  1.1574  0.3935
 7430SOL    HW223891   3.915   1.740   2.135  0.0899  0.4866  0.4095
 7431SOL     OW23892   0.747   2.733   4.768 -0.6528  0.6402  1.0364
 7431SOL    HW123893   0.753   2.741   4.867 -0.5230 -1.3367  1.2424
 7431SOL    HW223894   0.700   2.647   4.745 -0.2739  0.8446 -0.6109
 7432SOL     OW23895   0.305   6.036   2.052  0.1050 -0.4849 -0.0594
 7432SOL    HW123896   0.226   6.062   2.108  0.6807  0.9513  0.1360
 7432SOL    HW223897   0.279   6.037   1.955  0.1450  1.1321 -0.0825
 7433SOL     OW23898   4.148   3.691   5.319  0.2200  0.0186  0.5138
 7433SOL    HW123899   4.184   3.706   5.228 -0.6969  0.7801  0.2665
 7433SOL    HW223900   4.205   3.739   5.386  1.1115 -0.8484  0.3966
 7434SOL     OW23901   1.234   2.000   5.352 -0.1727 -0.1129 -0.2557
 7434SOL    HW123902   1.194   2.008   5.444  0.4244  0.0070 -0.0018
 7434SOL    HW223903   1.235   2.090   5.308  0.9274  0.1155  0.2145
 7435SOL     OW23904   3.326   3.880   3.413  0.1527  0.2763  0.1247
 7435SOL    HW123905   3.341   3.847   3.506 -3.0286 -3.0081 -0.3072
 7435SOL    HW223906   3.385   3.829   3.350  0.2835  0.4794  0.0830
 7436SOL     OW23907   2.896   5.348   6.473 -0.3734 -0.0164  0.1240
 7436SOL    HW123908   2.799   5.340   6.450 -0.5293  0.1561  0.7054
 7436SOL    HW223909   2.906   5.356   6.572  0.2612 -0.4077  0.0967
 7437SOL     OW23910   5.373   6.705   1.057  0.1044 -0.1971  0.3869
 7437SOL    HW123911   5.405   6.641   0.986  0.7239 -0.4197  0.8516
 7437SOL    HW223912   5.405   6.797   1.035  1.1249 -0.4177  0.8509
 7438SOL     OW23913   0.582   0.103   0.619  0.1444 -0.6357  0.0755
 7438SOL    HW123914   0.676   0.070   0.609  0.4622  0.4885 -0.8447
 7438SOL    HW223915   0.528   0.072   0.541  0.0516 -0.3137  0.0101
 7439SOL     OW23916   1.761   1.578   0.708  0.1877 -0.1918 -0.5884
 7439SOL    HW123917   1.822   1.602   0.633  0.6449 -4.2398 -1.7850
 7439SOL    HW223918   1.670   1.557   0.671  0.1549 -1.3155  0.0676
 7440SOL     OW23919   3.661   5.524   2.811  0.2499 -0.4471  0.1871
 7440SOL    HW123920   3.668   5.604   2.871  1.6001 -0.3147 -0.1054
 7440SOL    HW223921   3.602   5.456   2.853 -0.1259  0.3045  0.9075
 7441SOL     OW23922   6.999   6.647   4.297 -0.0922 -0.3741  0.1318
 7441SOL    HW123923   7.081   6.615   4.344  1.4453 -0.7336 -2.5944
 7441SOL    HW223924   7.001   6.617   4.202 -1.2288  3.2185 -1.1912
 7442SOL     OW23925   5.547   2.992   1.708  0.3570 -0.2909  0.5176
 7442SOL    HW123926   5.523   3.070   1.649  0.8708 -0.9268 -0.5669
 7442SOL    HW223927   5.600   3.025   1.786 -1.5935  0.7704  1.4609
 7443SOL     OW23928   0.499   0.317   0.844  0.1556  0.6286 -0.0066
 7443SOL    HW123929   0.532   0.254   0.774 -1.0794 -0.1054  0.0309
 7443SOL    HW223930   0.431   0.378   0.805 -2.0805 -1.1268  0.9087
 7444SOL     OW23931   6.857   6.118   2.061 -0.0977 -0.4355  0.0802
 7444SOL    HW123932   6.840   6.038   2.004 -1.9218  1.0188 -1.5491
 7444SOL    HW223933   6.788   6.122   2.134  1.2799 -1.4338  1.5071
 7445SOL     OW23934   4.828   3.688   0.592  0.0627  0.2160  0.2208
 7445SOL    HW123935   4.803   3.756   0.661  1.7460  1.4780 -0.3363
 7445SOL    HW223936   4.746   3.639   0.563 -1.5468  3.0546 -0.4456
 7446SOL     OW23937   2.655   5.228   5.741  0.2027 -0.0211 -0.0672
 7446SOL    HW123938   2.556   5.226   5.756  0.0871 -1.4810 -0.8822
 7446SOL    HW223939   2.679   5.310   5.688 -0.7323 -0.2408 -0.8624
 7447SOL     OW23940   4.819   6.440   1.249 -0.5511  0.0858 -0.3970
 7447SOL    HW123941   4.795   6.357   1.199  0.6258 -0.1300 -0.6298
 7447SOL    HW223942   4.917   6.457   1.240 -0.9076  2.0253 -1.1583
 7448SOL     OW23943   3.620   4.998   6.673 -0.0247 -0.2543  0.1625
 7448SOL    HW123944   3.536   4.988   6.620 -0.2153  0.0362  0.4047
 7448SOL    HW223945   3.640   4.913   6.722  0.4512 -0.7120 -0.7972
 7449SOL     OW23946   6.118   3.762   0.739 -0.3412 -0.9112 -0.2226
 7449SOL    HW123947   6.027   3.777   0.700 -0.1286 -0.6606 -0.6270
 7449SOL    HW223948   6.109   3.742   0.837 -0.6731  1.7898  0.3838
 7450SOL     OW23949   5.633   5.365   5.765 -0.4229  0.1595  0.5608
 7450SOL    HW123950   5.623   5.275   5.807  0.0891 -0.5053 -0.6792
 7450SOL    HW223951   5.730   5.388   5.757 -0.4925  0.1704 -0.4191
 7451SOL     OW23952   1.546   1.985   2.517 -0.1255 -0.0932  0.4813
 7451SOL    HW123953   1.584   2.035   2.439 -0.8514  2.1625  1.4871
 7451SOL    HW223954   1.619   1.965   2.582  0.9628 -3.9764 -1.5772
 7452SOL     OW23955   1.431   4.669   3.714 -0.2737  0.4066 -0.3555
 7452SOL    HW123956   1.354   4.605   3.715  0.2413 -0.4373 -3.5999
 7452SOL    HW223957   1.400   4.758   3.684 -0.0780  0.1374 -1.3978
 7453SOL     OW23958   6.496   4.332   2.949  0.3331 -0.0186  0.2167
 7453SOL    HW123959   6.508   4.363   3.043  1.3486 -0.4066  0.2286
 7453SOL    HW223960   6.429   4.257   2.947  1.9736 -1.5805  0.9863
 7454SOL     OW23961   0.714   5.475   5.419 -0.7005 -0.1054  0.1411
 7454SOL    HW123962   0.800   5.522   5.438 -0.4309  0.5390 -2.3359
 7454SOL    HW223963   0.660   5.528   5.353 -1.7028 -1.8689 -0.5449
 7455SOL     OW23964   2.530   2.142   5.935 -0.3185  0.0473 -0.1425
 7455SOL    HW123965   2.604   2.161   5.871  0.5029 -2.5012 -0.0627
 7455SOL    HW223966   2.539   2.201   6.015  1.7769 -0.3355 -0.0471
 7456SOL     OW23967   5.847   4.818   4.571  0.0325  0.5646 -0.0309
 7456SOL    HW123968   5.763   4.766   4.557  0.0012  0.0703  1.7547
 7456SOL    HW223969   5.832   4.913   4.544 -0.8354  0.3038 -0.5183
 7457SOL     OW23970   5.492   4.515   3.502 -0.0702  0.3217  0.2099
 7457SOL    HW123971   5.437   4.574   3.562 -1.1478  0.7252 -1.1311
 7457SOL    HW223972   5.438   4.435   3.476  0.3131  0.2586 -0.4011
 7458SOL     OW23973   2.136   2.670   0.313  0.9458 -0.1943 -0.2361
 7458SOL    HW123974   2.096   2.759   0.336  2.4146  0.0487  1.5818
 7458SOL    HW223975   2.067   2.599   0.327  0.3090  0.4668  0.1044
 7459SOL     OW23976   6.517   4.382   4.480  0.6237  0.5305  0.2350
 7459SOL    HW123977   6.574   4.315   4.528 -1.3199 -1.4039  0.0000
 7459SOL    HW223978   6.449   4.419   4.544 -0.1061  0.1377 -0.3064
 7460SOL     OW23979   3.790   0.610   6.212  0.1129 -0.2160 -0.4950
 7460SOL    HW123980   3.724   0.671   6.169  0.1936 -0.1053 -0.4644
 7460SOL    HW223981   3.882   0.647   6.200  0.2891 -0.9535 -1.5390
 7461SOL     OW23982   4.682   0.922   5.953 -0.3394  0.2808  0.1086
 7461SOL    HW123983   4.704   0.836   6.000 -0.2185  0.7747  0.9849
 7461SOL    HW223984   4.586   0.923   5.929 -0.8878  0.8232  2.1303
 7462SOL     OW23985   6.949   6.470   3.394 -0.3196  0.1383  0.4987
 7462SOL    HW123986   6.872   6.407   3.381  1.0886 -1.8313  1.2162
 7462SOL    HW223987   7.032   6.429   3.356  0.6896  1.4870  1.1845
 7463SOL     OW23988   3.264   2.581   6.733  0.0443  0.2610  0.4445
 7463SOL    HW123989   3.358   2.593   6.766  0.5363 -1.1204 -0.3580
 7463SOL    HW223990   3.252   2.486   6.703 -1.3156  0.6784 -0.3976
 7464SOL     OW23991   1.066   5.246   5.099  0.3749  0.1552  0.4857
 7464SOL    HW123992   1.114   5.214   5.181 -0.6138  2.5385  2.0936
 7464SOL    HW223993   0.968   5.232   5.110  0.1881  0.9559 -0.0702
 7465SOL     OW23994   4.212   2.175   4.675  1.0485  0.1358  0.0315
 7465SOL    HW123995   4.120   2.164   4.635  1.0513 -0.3695  0.1560
 7465SOL    HW223996   4.205   2.223   4.762  1.0591  1.4094 -0.6438
 7466SOL     OW23997   0.831   2.774   6.164  0.0692  0.1705  0.3384
 7466SOL    HW123998   0.844   2.835   6.242 -1.2015 -0.2392  0.9057
 7466SOL    HW223999   0.814   2.828   6.082  3.3070  0.6698 -0.1131
 7467SOL     OW24000   5.745   0.089   0.743  0.3510  0.1326  0.1124
 7467SOL    HW124001   5.830   0.125   0.706  1.0029  0.4349  1.7797
 7467SOL    HW224002   5.717   0.009   0.690  0.2189  1.5545 -2.0890
 7468SOL     OW24003   5.893   2.512   1.641 -0.1649  0.1224 -0.3492
 7468SOL    HW124004   5.923   2.471   1.555  0.8355  1.4405 -0.6478
 7468SOL    HW224005   5.853   2.602   1.624  1.8259  1.2778  0.7019
 7469SOL     OW24006   5.409   2.156   0.237  0.2348  0.3590  0.1507
 7469SOL    HW124007   5.454   2.224   0.179  2.1096 -1.9244 -1.3295
 7469SOL    HW224008   5.385   2.076   0.181 -1.0108 -0.5975  1.9501
 7470SOL     OW24009   1.415   6.206   3.060  0.0792 -0.4345 -0.0190
 7470SOL    HW124010   1.447   6.171   2.972  0.8871 -1.2396  0.5853
 7470SOL    HW224011   1.366   6.292   3.045  2.4121  0.8183 -1.0178
 7471SOL     OW24012   0.548   0.580   5.080  0.2982  0.0135 -0.6397
 7471SOL    HW124013   0.528   0.628   5.165  0.9858  0.5814 -0.7885
 7471SOL    HW224014   0.546   0.481   5.095  0.0679  0.1056 -0.0564
 7472SOL     OW24015   1.609   5.521   6.584  0.0854  0.9001  0.2794
 7472SOL    HW124016   1.620   5.545   6.681 -0.9647 -0.0369  0.6555
 7472SOL    HW224017   1.655   5.434   6.566  0.5017  1.2002 -0.1398
 7473SOL     OW24018   0.765   1.593   1.119 -0.0294 -0.7455  0.3974
 7473SOL    HW124019   0.857   1.558   1.134  1.0824 -1.0579 -5.0863
 7473SOL    HW224020   0.765   1.693   1.130  1.1184 -0.6973  0.0783
 7474SOL     OW24021   3.663   5.240   2.672  0.4471 -0.0970 -0.3557
 7474SOL    HW124022   3.741   5.300   2.654 -0.9638  1.5940 -1.2115
 7474SOL    HW224023   3.657   5.221   2.770 -0.4598  3.3281  0.3863
 7475SOL     OW24024   3.385   2.195   1.379 -0.2254 -0.4114 -0.2276
 7475SOL    HW124025   3.483   2.196   1.400 -0.2340  1.3769 -0.0496
 7475SOL    HW224026   3.359   2.285   1.342 -1.6872 -1.0584 -0.8385
 7476SOL     OW24027   0.897   5.923   0.822 -0.3514  0.2058  0.0358
 7476SOL    HW124028   0.914   5.844   0.762  0.5825  0.0977  0.4172
 7476SOL    HW224029   0.801   5.926   0.847 -0.5220 -0.4387 -0.5071
 7477SOL     OW24030   2.831   6.110   2.522  0.0568  0.8698 -0.3996
 7477SOL    HW124031   2.919   6.155   2.541  1.5389 -2.0876  0.2118
 7477SOL    HW224032   2.789   6.082   2.608 -0.5658  0.5689 -0.7969
 7478SOL     OW24033   0.401   4.801   5.567  0.0595  0.2877 -0.5036
 7478SOL    HW124034   0.332   4.748   5.519  2.5946 -2.0744 -1.8566
 7478SOL    HW224035   0.442   4.868   5.505 -0.2535  0.9318 -0.0294
 7479SOL     OW24036   1.370   4.817   4.092 -0.1732 -0.0978  0.0440
 7479SOL    HW124037   1.404   4.893   4.037 -0.6758 -0.0184 -0.1590
 7479SOL    HW224038   1.285   4.782   4.053  0.8567 -1.8251 -0.8095
 7480SOL     OW24039   3.564   5.956   5.400  0.0512  0.0943 -0.4220
 7480SOL    HW124040   3.498   6.021   5.364 -0.0365  0.6971  0.7794
 7480SOL    HW224041   3.523   5.905   5.476  1.4920  1.7891  1.6118
 7481SOL     OW24042   1.482   1.010   3.678 -0.6916  0.1914  0.2704
 7481SOL    HW124043   1.524   0.968   3.758 -1.0474  0.0656  0.3939
 7481SOL    HW224044   1.511   0.961   3.596  1.1803  1.4674  0.1114
 7482SOL     OW24045   2.207   5.482   5.913  0.2967 -0.9517 -0.1576
 7482SOL    HW124046   2.235   5.460   6.007 -0.5273  1.2566  0.6728
 7482SOL    HW224047   2.110   5.460   5.901  0.5362 -1.7373 -0.6710
 7483SOL     OW24048   5.410   1.124   4.667 -0.6723 -0.0413 -0.0342
 7483SOL    HW124049   5.414   1.140   4.766 -0.0382 -1.2547  0.1491
 7483SOL    HW224050   5.324   1.078   4.645 -0.0227 -1.4116  0.2183
 7484SOL     OW24051   0.521   3.578   6.022 -0.0451  0.3509  0.0496
 7484SOL    HW124052   0.492   3.483   6.015 -2.8364  1.0699  0.8572
 7484SOL    HW224053   0.528   3.604   6.118  1.3668  0.8211 -0.1483
 7485SOL     OW24054   6.181   5.820   2.069  0.1037 -0.5619 -0.5203
 7485SOL    HW124055   6.174   5.826   2.168  4.5375  0.6088 -0.0501
 7485SOL    HW224056   6.202   5.726   2.043 -0.4093 -0.7384 -0.3194
 7486SOL     OW24057   3.533   1.301   4.803 -0.2391  0.3516  0.3449
 7486SOL    HW124058   3.467   1.328   4.733 -0.0499 -0.7485 -0.2665
 7486SOL    HW224059   3.593   1.379   4.824 -0.1821  0.6427 -0.8365
 7487SOL     OW24060   3.040   6.718   0.505 -0.4475 -0.1394 -0.0621
 7487SOL    HW124061   3.047   6.673   0.594 -0.3469  1.6650  0.9018
 7487SOL    HW224062   3.056   6.651   0.432 -0.9329 -1.7485  1.2394
 7488SOL     OW24063   1.336   1.862   4.048  0.2473 -0.3655  0.4888
 7488SOL    HW124064   1.309   1.939   4.106  1.0591  0.2273  0.1098
 7488SOL    HW224065   1.290   1.869   3.960  0.5692 -0.1290  0.3382
 7489SOL     OW24066   0.410   6.396   5.394  0.2326  0.1606 -0.2471
 7489SOL    HW124067   0.373   6.425   5.306 -1.6626  0.5003  0.5987
 7489SOL    HW224068   0.454   6.307   5.385  0.4540  0.3895 -1.6046
 7490SOL     OW24069   2.774   6.086   3.444  0.3621 -0.0534 -0.1041
 7490SOL    HW124070   2.736   6.169   3.483  1.2416  0.0835  0.4864
 7490SOL    HW224071   2.822   6.107   3.358  0.4741  0.0315 -0.0208
 7491SOL     OW24072   0.370   3.034   5.656  0.2530 -0.3341 -0.0434
 7491SOL    HW124073   0.339   3.077   5.741 -3.5665 -1.9676 -0.3722
 7491SOL    HW224074   0.390   2.938   5.673  2.5260  0.0049 -0.4942
 7492SOL     OW24075   3.368   5.705   0.301 -0.5375  0.0067 -0.1165
 7492SOL    HW124076   3.457   5.709   0.255 -0.3653 -1.0926  0.0992
 7492SOL    HW224077   3.310   5.778   0.266  0.1351  0.1722 -0.9266
 7493SOL     OW24078   2.539   2.483   0.273 -0.3398 -0.5592  0.3771
 7493SOL    HW124079   2.490   2.501   0.188 -0.4284 -0.9607  0.3433
 7493SOL    HW224080   2.473   2.480   0.349 -0.1872  0.5061  0.5738
 7494SOL     OW24081   5.365   3.524   1.828 -0.3195 -0.3381 -0.3495
 7494SOL    HW124082   5.452   3.480   1.806  1.2890  1.2263  2.3261
 7494SOL    HW224083   5.291   3.481   1.775  1.7579 -2.9760 -1.3256
 7495SOL     OW24084   2.653   1.296   5.211 -0.1786  0.3256  0.0623
 7495SOL    HW124085   2.721   1.275   5.141 -0.1305  2.4871 -0.6110
 7495SOL    HW224086   2.650   1.221   5.278  0.8314 -1.1042 -1.4022
 7496SOL     OW24087   0.703   6.288   1.132 -0.3104 -0.1774 -0.4589
 7496SOL    HW124088   0.614   6.244   1.122 -1.1302  1.8932 -3.7228
 7496SOL    HW224089   0.761   6.265   1.054  1.0406  0.6118  0.2700
 7497SOL     OW24090   5.686   6.679   6.137 -0.0102  0.1146 -0.2441
 7497SOL    HW124091   5.683   6.582   6.161 -0.7158  0.2113  0.1000
 7497SOL    HW224092   5.719   6.690   6.043  0.1309 -0.4501 -0.2626
 7498SOL     OW24093   1.981   0.251   6.989  0.1507  0.2640  0.6355
 7498SOL    HW124094   2.002   0.174   6.929 -0.0902  0.2587  0.5580
 7498SOL    HW224095   1.916   0.222   7.059  1.6417 -0.1722  1.8993
 7499SOL     OW24096   1.620   6.382   3.694 -0.0834 -0.9018 -0.8227
 7499SOL    HW124097   1.662   6.298   3.728 -0.7079 -0.9534 -0.1504
 7499SOL    HW224098   1.660   6.406   3.606  0.3228 -1.7339 -0.8753
 7500SOL     OW24099   4.844   6.238   6.168  0.4866 -0.0352 -0.4209
 7500SOL    HW124100   4.913   6.202   6.231  0.4049  0.5848  0.0303
 7500SOL    HW224101   4.884   6.313   6.115  0.3731 -0.1497 -0.6660
 7501SOL     OW24102   2.346   2.236   5.274  0.5503  0.0822  0.2474
 7501SOL    HW124103   2.385   2.277   5.191  1.1166  1.7725  1.3154
 7501SOL    HW224104   2.416   2.231   5.345  0.2862 -2.0648  0.4269
 7502SOL     OW24105   5.097   6.429   6.419 -0.3560  0.6549  0.4086
 7502SOL    HW124106   5.093   6.465   6.512  2.8161 -0.5789  1.1436
 7502SOL    HW224107   5.192   6.415   6.392 -1.2286 -0.7744 -2.3621
 7503SOL     OW24108   0.940   3.990   6.159  0.9789 -0.0671 -0.4551
 7503SOL    HW124109   0.847   4.009   6.192  0.8159 -0.0465 -0.9196
 7503SOL    HW224110   0.963   4.055   6.086  1.4571  0.0932 -0.1606
 7504SOL     OW24111   1.683   2.552   5.747  0.4240 -0.2847  0.2633
 7504SOL    HW124112   1.730   2.513   5.668 -0.1662 -1.2256  0.3628
 7504SOL    HW224113   1.603   2.496   5.769  0.0025  0.5519  0.8995
 7505SOL     OW24114   1.123   2.365   6.189  0.7646  0.1717 -0.0770
 7505SOL    HW124115   1.057   2.292   6.202  0.2291  0.3808 -1.4489
 7505SOL    HW224116   1.214   2.326   6.172  0.9765 -0.1148  1.5472
 7506SOL     OW24117   0.839   6.347   2.572 -0.0623  0.2734 -0.6609
 7506SOL    HW124118   0.769   6.276   2.581  0.5980 -0.1664  2.3104
 7506SOL    HW224119   0.809   6.416   2.506 -2.0899 -1.2255 -1.4053
 7507SOL     OW24120   4.160   3.450   0.953 -0.6017  0.2627 -0.0191
 7507SOL    HW124121   4.180   3.352   0.963  0.5960  0.3944 -0.8698
 7507SOL    HW224122   4.232   3.493   0.898 -1.3123  1.5550  0.0244
 7508SOL     OW24123   3.260   4.657   2.246 -0.0261 -0.4740  0.0059
 7508SOL    HW124124   3.308   4.582   2.294  0.2219 -0.7978 -0.7364
 7508SOL    HW224125   3.180   4.620   2.199 -0.0129 -0.2384 -0.2019
 7509SOL     OW24126   5.037   4.676   5.550  0.1489  0.3380  0.1504
 7509SOL    HW124127   5.118   4.626   5.579 -0.4663 -1.0193 -0.3695
 7509SOL    HW224128   5.028   4.760   5.604  1.1889 -0.1413  1.1006
 7510SOL     OW24129   5.062   6.920   4.748  0.1755 -1.1347 -0.3454
 7510SOL    HW124130   4.977   6.883   4.786  0.2530 -0.7840  0.1830
 7510SOL    HW224131   5.140   6.878   4.794  0.2604  1.3481  1.9674
 7511SOL     OW24132   1.049   3.525   3.031  0.3429 -0.0627 -1.0395
 7511SOL    HW124133   1.003   3.613   3.034  1.3858  0.4746  0.1975
 7511SOL    HW224134   1.111   3.522   2.953  1.5405  0.9780 -0.1624
 7512SOL     OW24135   0.826   5.847   4.026  0.5541 -0.6207  0.3354
 7512SOL    HW124136   0.768   5.913   4.074  0.3606 -1.6933  1.6375
 7512SOL    HW224137   0.916   5.844   4.069  0.8736 -0.5261 -0.3190
 7513SOL     OW24138   0.182   0.831   1.890 -0.0571  0.0672 -0.0068
 7513SOL    HW124139   0.159   0.858   1.984 -0.6538  1.2693 -0.4779
 7513SOL    HW224140   0.105   0.784   1.849  0.1503 -0.3233  0.0424
 7514SOL     OW24141   1.071   5.217   0.228 -0.0482  0.3189  0.4510
 7514SOL    HW124142   1.102   5.277   0.154  0.8206  0.2429  0.7384
 7514SOL    HW224143   1.025   5.271   0.298  1.2256  0.7612  0.9792
 7515SOL     OW24144   0.823   2.676   1.481  0.5710 -0.1457 -0.1712
 7515SOL    HW124145   0.866   2.765   1.465 -1.8024  1.1368  0.0425
 7515SOL    HW224146   0.795   2.636   1.393  1.5596 -0.6722 -0.2604
 7516SOL     OW24147   4.574   2.369   0.525 -0.0744  0.1142  0.1536
 7516SOL    HW124148   4.544   2.430   0.452 -0.8057  0.6293  0.8712
 7516SOL    HW224149   4.585   2.421   0.610  1.3667 -0.3521  0.2853
 7517SOL     OW24150   1.516   5.261   6.714 -0.1688  0.0320 -0.3761
 7517SOL    HW124151   1.597   5.212   6.746 -0.3596  0.2896  0.5390
 7517SOL    HW224152   1.509   5.348   6.762  0.1606  0.9825 -1.9583
 7518SOL     OW24153   2.325   1.208   0.263  0.1671 -0.8996 -0.0737
 7518SOL    HW124154   2.260   1.135   0.285 -0.2981 -1.0835 -1.9288
 7518SOL    HW224155   2.281   1.297   0.274 -0.1072 -0.9947 -0.3922
 7519SOL     OW24156   6.215   6.370   0.036  0.4645 -0.3139  0.4141
 7519SOL    HW124157   6.305   6.395  -0.000 -0.2205  0.2919 -0.9416
 7519SOL    HW224158   6.150   6.360  -0.040 -0.7153 -0.3425  1.4008
 7520SOL     OW24159   2.494   1.829   3.206  0.4526  0.3677 -0.5768
 7520SOL    HW124160   2.502   1.737   3.167 -0.0024  0.7174 -1.5214
 7520SOL    HW224161   2.414   1.835   3.265  0.7854  0.0145 -0.0821
 7521SOL     OW24162   0.872   6.834   3.075  0.2951 -0.3915  0.4179
 7521SOL    HW124163   0.959   6.791   3.095 -0.2601 -1.2689  1.0234
 7521SOL    HW224164   0.797   6.774   3.103 -0.5186  1.2319  1.9592
 7522SOL     OW24165   2.417   1.698   1.325  0.4529 -0.3643  0.0281
 7522SOL    HW124166   2.512   1.678   1.350  0.2109 -0.0203  1.3023
 7522SOL    HW224167   2.373   1.748   1.399 -0.4385  0.3781 -0.9780
 7523SOL     OW24168   1.426   1.217   6.096  0.4194 -0.6189 -0.8978
 7523SOL    HW124169   1.415   1.140   6.158  0.2107 -0.6147 -0.9281
 7523SOL    HW224170   1.340   1.234   6.048  0.6329 -0.7414 -1.3275
 7524SOL     OW24171   4.442   6.533   2.217 -0.3639  0.1270 -0.1052
 7524SOL    HW124172   4.453   6.530   2.316  1.4577  3.9149 -0.0058
 7524SOL    HW224173   4.481   6.450   2.177 -0.5385 -1.1900  2.2596
 7525SOL     OW24174   5.598   1.670   3.427 -0.6861 -0.2770  0.0736
 7525SOL    HW124175   5.534   1.746   3.424  0.4230  0.7159  0.8030
 7525SOL    HW224176   5.640   1.658   3.337 -0.8599 -0.0208 -0.0426
 7526SOL     OW24177   1.478   2.434   1.442 -0.2856 -0.0261 -0.1068
 7526SOL    HW124178   1.412   2.364   1.470  0.0093 -0.7907 -1.2880
 7526SOL    HW224179   1.567   2.414   1.482 -0.4482  0.2743  0.4158
 7527SOL     OW24180   1.907   3.489   0.986  0.0453  0.0359  0.1245
 7527SOL    HW124181   1.873   3.445   0.903 -1.7674  2.7145 -0.6944
 7527SOL    HW224182   2.001   3.519   0.971  0.8011 -2.1375  0.1958
 7528SOL     OW24183   7.002   0.023   4.476 -0.0673  0.2761 -0.4905
 7528SOL    HW124184   7.063   0.055   4.549  1.0918  0.2135 -1.4113
 7528SOL    HW224185   6.998  -0.077   4.477  0.5991  0.2365 -1.0094
 7529SOL     OW24186   2.182   1.174   2.377 -0.2175  0.2693  0.4895
 7529SOL    HW124187   2.137   1.158   2.289  0.3044  0.5634  0.1595
 7529SOL    HW224188   2.195   1.272   2.391  0.7109  0.1761  0.3651
 7530SOL     OW24189   4.711   3.345   0.123  0.2985 -0.1004 -0.1805
 7530SOL    HW124190   4.696   3.312   0.030  1.9638 -3.1167  0.4984
 7530SOL    HW224191   4.665   3.433   0.135 -1.0509 -0.2354 -3.4166
 7531SOL     OW24192   1.658   4.720   6.582  1.1153  0.0811 -0.1027
 7531SOL    HW124193   1.693   4.628   6.596  1.2393  0.1352 -0.0527
 7531SOL    HW224194   1.577   4.735   6.640  1.6817  0.3358  0.6366
 7532SOL     OW24195   4.372   0.007   0.092 -0.0081  0.2031 -0.4722
 7532SOL    HW124196   4.401  -0.040   0.008 -0.8058  0.3043 -0.8105
 7532SOL    HW224197   4.453   0.036   0.143  0.4896  0.1498 -1.2141
 7533SOL     OW24198   0.968   0.878   5.392  0.2772 -0.1543  0.0044
 7533SOL    HW124199   0.911   0.944   5.342  0.3908  0.1184  0.2313
 7533SOL    HW224200   0.913   0.799   5.419  0.0060  0.1057  0.2175
 7534SOL     OW24201   1.847   4.042   6.446  0.0184 -0.3972  0.3479
 7534SOL    HW124202   1.824   4.120   6.388 -1.3315 -0.4996  0.6938
 7534SOL    HW224203   1.945   4.025   6.442  0.2287  0.8199 -0.3505
 7535SOL     OW24204   2.007   6.305   1.670 -0.0564  0.5399 -0.7981
 7535SOL    HW124205   1.986   6.310   1.572 -1.1719  0.4399 -0.5868
 7535SOL    HW224206   1.928   6.266   1.718  0.3949  0.7942  0.1721
 7536SOL     OW24207   1.195   3.583   3.654  0.4083  0.1519 -0.0841
 7536SOL    HW124208   1.116   3.548   3.603  1.4992 -1.7852 -0.5098
 7536SOL    HW224209   1.276   3.531   3.629  1.0671 -0.7336  3.4412
 7537SOL     OW24210   4.919   6.045   3.369  0.4042 -0.9254  0.3025
 7537SOL    HW124211   4.853   5.988   3.419 -0.1546 -1.3551 -0.8574
 7537SOL    HW224212   4.872   6.090   3.293  1.2830 -0.5597 -0.0359
 7538SOL     OW24213   2.552   0.720   1.795  0.4735  0.1367  0.2867
 7538SOL    HW124214   2.581   0.785   1.865  0.2602  0.8804 -0.2984
 7538SOL    HW224215   2.505   0.769   1.721  0.9812 -0.5782 -0.5395
 7539SOL     OW24216   3.314   4.124   5.283  0.9113 -0.0791 -0.1562
 7539SOL    HW124217   3.401   4.168   5.307  0.6892 -0.7511  2.1357
 7539SOL    HW224218   3.317   4.028   5.311 -0.4727 -0.1838 -0.3333
 7540SOL     OW24219   4.961   2.902   3.514 -0.5625 -0.3711  0.6671
 7540SOL    HW124220   4.972   2.945   3.604 -1.3684 -1.0530  1.1050
 7540SOL    HW224221   5.015   2.818   3.510 -0.8916 -0.5834  0.6794
 7541SOL     OW24222   4.305   7.024   2.090  0.4018 -0.2655  0.4535
 7541SOL    HW124223   4.317   7.120   2.067  0.8777 -0.1128  1.3092
 7541SOL    HW224224   4.216   6.993   2.056  0.0712  0.5810  0.5114
 7542SOL     OW24225   2.678   0.723   2.378 -0.1434  0.3709 -0.3510
 7542SOL    HW124226   2.742   0.765   2.314  0.7643  0.3717  0.5334
 7542SOL    HW224227   2.644   0.637   2.340  2.4440 -1.0091  0.2193
 7543SOL     OW24228   1.172   3.375   0.205 -0.2407 -0.0055 -0.1620
 7543SOL    HW124229   1.196   3.357   0.110 -0.6227  0.8813 -0.4381
 7543SOL    HW224230   1.252   3.411   0.254 -0.1774  0.0181 -0.2835
 7544SOL     OW24231   5.452   1.594   3.633  0.3522  0.1944  0.3187
 7544SOL    HW124232   5.523   1.610   3.563 -1.9436 -0.5481 -2.3624
 7544SOL    HW224233   5.383   1.666   3.627 -2.7357 -2.6255 -2.1993
 7545SOL     OW24234   2.150   4.520   6.792  0.0885 -0.0963 -0.5665
 7545SOL    HW124235   2.226   4.489   6.735  0.2704 -1.1969  0.2456
 7545SOL    HW224236   2.140   4.459   6.870  0.2289  1.7208  0.9302
 7546SOL     OW24237   1.979   0.485   4.467 -0.2870 -0.0540  0.0787
 7546SOL    HW124238   1.994   0.571   4.516  0.1094  0.2900 -0.6381
 7546SOL    HW224239   1.882   0.459   4.474 -0.3277  0.2266  0.6428
 7547SOL     OW24240   3.116   0.484   1.882 -0.1519 -0.2209 -0.8521
 7547SOL    HW124241   3.162   0.560   1.928  0.4771 -1.0671 -0.0415
 7547SOL    HW224242   3.031   0.464   1.930  0.5648 -1.1849  0.0694
 7548SOL     OW24243   1.828   1.937   5.106 -0.0428  0.4356 -0.2866
 7548SOL    HW124244   1.858   1.986   5.188  0.5136 -1.3116  0.6061
 7548SOL    HW224245   1.907   1.901   5.057 -0.4637 -0.6422 -0.2066
 7549SOL     OW24246   2.586   6.012   5.087  0.3671  0.0260 -0.2124
 7549SOL    HW124247   2.569   5.975   5.179  1.2845  1.5318  0.6034
 7549SOL    HW224248   2.550   5.949   5.019 -0.4351 -1.0843  1.1801
 7550SOL     OW24249   0.563   2.790   0.909 -0.7778 -0.2844 -0.1424
 7550SOL    HW124250   0.588   2.770   1.004  1.0710  2.4054  0.0469
 7550SOL    HW224251   0.538   2.887   0.901  1.6890  0.2729 -2.8153
 7551SOL     OW24252   0.129   1.344   2.471  0.6066  0.1418  0.3790
 7551SOL    HW124253   0.170   1.264   2.516  0.4861 -0.8005 -1.0921
 7551SOL    HW224254   0.200   1.397   2.426  0.5890  0.3967  0.6499
 7552SOL     OW24255   5.983   3.265   4.973  0.2247  0.2740  0.1820
 7552SOL    HW124256   6.049   3.340   4.971 -1.8259  2.2134  1.1947
 7552SOL    HW224257   5.967   3.237   5.067 -0.0629 -0.4877 -0.0869
 7553SOL     OW24258   6.325   2.225   5.920 -0.6279  0.3457  0.0492
 7553SOL    HW124259   6.312   2.166   5.840 -0.0466 -0.0018  0.2087
 7553SOL    HW224260   6.399   2.289   5.902 -0.7871  0.5589  0.1490
 7554SOL     OW24261   1.618   4.246   5.073  0.1484 -0.1134 -0.9949
 7554SOL    HW124262   1.612   4.246   5.173  0.4909 -2.3657 -0.9342
 7554SOL    HW224263   1.567   4.324   5.037  0.8913  1.3483  0.9546
 7555SOL     OW24264   1.713   2.590   6.305  0.0161  0.8205 -0.0791
 7555SOL    HW124265   1.751   2.584   6.397 -0.2896 -0.7251 -0.0182
 7555SOL    HW224266   1.785   2.575   6.237  0.0964  1.1534 -0.0682
 7556SOL     OW24267   6.089   3.729   0.997  0.3598 -0.2113 -0.4556
 7556SOL    HW124268   6.107   3.645   1.049  1.1746 -0.3176 -0.9006
 7556SOL    HW224269   6.015   3.780   1.041  1.6435  0.1845  1.3722
 7557SOL     OW24270   4.728   2.269   6.362  0.0700  0.1560  0.6619
 7557SOL    HW124271   4.798   2.198   6.371 -1.2069 -1.2074  0.2291
 7557SOL    HW224272   4.641   2.235   6.398 -0.9731  0.8722 -1.0345
 7558SOL     OW24273   1.465   1.291   2.633  0.3187  0.1631  0.3369
 7558SOL    HW124274   1.525   1.295   2.712  0.6781  0.8437  0.0379
 7558SOL    HW224275   1.378   1.249   2.659  0.6792 -0.2402  0.9242
 7559SOL     OW24276   1.271   2.402   4.835 -0.0420  0.4987 -0.2784
 7559SOL    HW124277   1.336   2.465   4.878 -0.8184  0.6720  0.6746
 7559SOL    HW224278   1.191   2.453   4.804  1.1281  0.6278 -3.3477
 7560SOL     OW24279   6.490   3.388   4.560 -0.3787 -0.1271 -0.4800
 7560SOL    HW124280   6.391   3.386   4.546 -0.4537 -0.3143  0.0666
 7560SOL    HW224281   6.525   3.294   4.562 -0.4071 -0.1217  0.8050
 7561SOL     OW24282   5.190   6.860   3.359  0.1769 -0.5279 -0.7260
 7561SOL    HW124283   5.267   6.848   3.422  1.2310 -1.6073 -2.1636
 7561SOL    HW224284   5.219   6.914   3.281 -1.2450  1.1667 -0.1413
 7562SOL     OW24285   4.450   0.840   6.632 -0.0364  0.0620  0.0866
 7562SOL    HW124286   4.476   0.795   6.547 -0.1100  0.5756 -0.2131
 7562SOL    HW224287   4.487   0.933   6.633  0.5469 -0.1630  0.9153
 7563SOL     OW24288   5.600   6.588   6.760  0.1953 -0.2540  0.0110
 7563SOL    HW124289   5.529   6.530   6.799  0.2030 -1.0063 -1.0428
 7563SOL    HW224290   5.575   6.613   6.666  0.4049  1.1070  0.2874
 7564SOL     OW24291   0.978   1.110   2.279 -0.1756 -0.0059  0.7259
 7564SOL    HW124292   0.977   1.143   2.185 -0.2114  1.4964  1.2409
 7564SOL    HW224293   0.895   1.140   2.326 -0.1284 -0.6952  1.2629
 7565SOL     OW24294   6.968   0.473   4.959  0.0213  0.1671  0.4014
 7565SOL    HW124295   7.021   0.482   4.875  0.2680  0.1081  0.5490
 7565SOL    HW224296   6.905   0.395   4.951  0.5598 -0.2870  0.5440
 7566SOL     OW24297   3.249   1.834   2.403  0.0516  0.3315  0.2707
 7566SOL    HW124298   3.185   1.818   2.477  0.1264 -0.9004  0.0817
 7566SOL    HW224299   3.224   1.918   2.354 -2.0506 -0.6722 -0.4667
 7567SOL     OW24300   1.331   4.085   0.672  0.0018 -0.0355 -0.5284
 7567SOL    HW124301   1.379   3.998   0.685 -1.1034 -0.8698 -1.7353
 7567SOL    HW224302   1.386   4.146   0.616  0.4225 -0.2772 -0.3816
 7568SOL     OW24303   0.805   1.225   4.583  0.5649 -0.5312 -0.2924
 7568SOL    HW124304   0.826   1.251   4.489 -1.5486  0.7575 -0.4601
 7568SOL    HW224305   0.741   1.147   4.582 -0.4524  0.2805  0.0201
 7569SOL     OW24306   3.369   2.894   3.642 -0.4538  0.1605  0.0172
 7569SOL    HW124307   3.457   2.888   3.691 -0.0278 -0.7485 -0.8134
 7569SOL    HW224308   3.386   2.912   3.546 -1.1687 -0.1809 -0.1790
 7570SOL     OW24309   3.707   5.139   2.001 -0.5914 -0.3344 -0.4524
 7570SOL    HW124310   3.616   5.099   1.994 -0.7306  0.0756 -1.0766
 7570SOL    HW224311   3.775   5.073   1.971 -0.6723 -0.6801  0.1203
 7571SOL     OW24312   3.030   6.364   5.575 -0.4609  0.4408  0.0519
 7571SOL    HW124313   3.064   6.360   5.481  0.2844  0.1917  0.3242
 7571SOL    HW224314   2.997   6.456   5.595  0.6527  0.8824 -0.0356
 7572SOL     OW24315   3.217   0.793   5.362 -0.2060 -0.1473  0.5109
 7572SOL    HW124316   3.143   0.726   5.367  0.8843 -1.7632 -2.6517
 7572SOL    HW224317   3.194   0.863   5.294 -0.2666  1.3979  2.0441
 7573SOL     OW24318   4.774   5.992   6.063 -0.3996 -0.6831  0.0520
 7573SOL    HW124319   4.777   6.090   6.083  1.4111 -0.9066  1.1589
 7573SOL    HW224320   4.710   5.947   6.125 -2.3339 -0.0672 -1.3989
 7574SOL     OW24321   5.125   1.578   2.755 -0.0537 -0.2523 -0.0281
 7574SOL    HW124322   5.043   1.636   2.755 -0.5148 -0.8403  1.3631
 7574SOL    HW224323   5.185   1.604   2.680 -2.2013 -0.7772 -2.0586
 7575SOL     OW24324   2.429   4.880   6.264 -1.1027 -0.1297 -0.4232
 7575SOL    HW124325   2.467   4.957   6.315 -1.6617 -1.2229  1.7862
 7575SOL    HW224326   2.400   4.911   6.173 -0.3320  1.9914 -0.0056
 7576SOL     OW24327   5.098   6.225   4.757  0.5854 -0.2429  0.4820
 7576SOL    HW124328   5.145   6.287   4.694 -0.5863  0.5984  0.4201
 7576SOL    HW224329   5.023   6.180   4.709 -1.0309  1.2458  1.5191
 7577SOL     OW24330   2.422   3.529   3.369  0.2086  0.8037 -0.4470
 7577SOL    HW124331   2.339   3.564   3.324 -1.2538 -0.6194  1.0129
 7577SOL    HW224332   2.397   3.456   3.432  2.3563  1.6452  1.5215
 7578SOL     OW24333   6.316   0.563   1.485 -0.1265  0.8553 -0.1966
 7578SOL    HW124334   6.224   0.584   1.453 -0.1293 -0.1400 -0.8707
 7578SOL    HW224335   6.350   0.482   1.438  0.2417 -0.1078  1.6632
 7579SOL     OW24336   0.019   4.136   0.617 -0.3466  0.1997  0.1541
 7579SOL    HW124337  -0.052   4.069   0.635 -3.7083  3.3812  0.0477
 7579SOL    HW224338   0.048   4.179   0.703 -1.0165  1.1318 -0.0675
 7580SOL     OW24339   6.685   4.848   3.456 -0.0416 -0.0021  0.4246
 7580SOL    HW124340   6.608   4.799   3.416  1.6532 -0.7874 -2.1707
 7580SOL    HW224341   6.685   4.943   3.425 -0.0503  0.0214  0.4979
 7581SOL     OW24342   5.828   3.143   4.815  0.3014  0.3539 -0.5846
 7581SOL    HW124343   5.809   3.049   4.845 -1.0225  0.9427  0.5451
 7581SOL    HW224344   5.882   3.189   4.885  3.4944 -0.3555 -2.4004
 7582SOL     OW24345   1.517   2.581   1.182 -0.2211  0.2059  0.1437
 7582SOL    HW124346   1.499   2.540   1.271 -1.1301  1.2939  0.4883
 7582SOL    HW224347   1.616   2.589   1.169 -0.0232 -1.7731  0.1707
 7583SOL     OW24348   2.985   1.448   3.607  0.0495 -0.3853  0.1546
 7583SOL    HW124349   3.017   1.412   3.520 -0.9831 -0.0811 -0.3612
 7583SOL    HW224350   2.896   1.409   3.629  0.1347 -0.1841  0.9002
 7584SOL     OW24351   3.695   3.938   5.558 -0.1238 -0.1797  0.2650
 7584SOL    HW124352   3.777   3.944   5.501  0.4253 -0.3185  1.0345
 7584SOL    HW224353   3.667   4.029   5.586 -0.8094 -0.0407 -0.7784
 7585SOL     OW24354   5.027   2.004   3.358  0.1167 -0.2557  0.0388
 7585SOL    HW124355   5.007   1.909   3.334  0.8623 -0.0256 -1.6407
 7585SOL    HW224356   4.971   2.065   3.303  0.2634  0.2981  0.4973
 7586SOL     OW24357   5.828   5.390   5.025  0.4931 -0.2073  0.1719
 7586SOL    HW124358   5.832   5.291   5.036 -1.0689 -0.4616 -1.1252
 7586SOL    HW224359   5.919   5.426   5.006  0.8137 -1.6543 -1.1779
 7587SOL     OW24360   6.045   4.012   4.034  0.4511  0.3763 -0.0046
 7587SOL    HW124361   6.141   4.038   4.037  0.3637  0.8134 -0.7347
 7587SOL    HW224362   6.023   3.978   3.943  0.3177 -1.3495  0.6346
 7588SOL     OW24363   4.347   2.497   4.481 -0.6258 -0.0370 -0.1966
 7588SOL    HW124364   4.341   2.398   4.467 -1.1603  0.1193 -1.2312
 7588SOL    HW224365   4.442   2.526   4.476 -0.3487 -0.6341  1.2362
 7589SOL     OW24366   2.928   2.911   0.841 -0.0092  0.4715 -0.1301
 7589SOL    HW124367   2.877   2.869   0.765  0.1581  2.0145 -1.1266
 7589SOL    HW224368   2.886   2.998   0.865  1.3747  1.1407 -0.0729
 7590SOL     OW24369   2.240   1.983   0.621  0.1324 -0.1812  0.1932
 7590SOL    HW124370   2.207   1.888   0.625 -2.5808  0.6304 -0.8895
 7590SOL    HW224371   2.172   2.043   0.663  1.5542  1.3784  0.3293
 7591SOL     OW24372   1.215   3.280   6.590  0.2279  0.1704 -0.4190
 7591SOL    HW124373   1.120   3.256   6.573  0.4429 -0.1824 -1.2111
 7591SOL    HW224374   1.220   3.355   6.656 -0.5577 -0.3732  0.2661
 7592SOL     OW24375   2.699   0.065   6.900  0.0938 -0.3978  0.0792
 7592SOL    HW124376   2.649   0.047   6.816  0.8947 -1.6907 -0.1560
 7592SOL    HW224377   2.688   0.161   6.926 -1.5532 -0.3852 -0.5555
 7593SOL     OW24378   2.523   5.667   1.749  0.3925 -0.1008 -0.0468
 7593SOL    HW124379   2.598   5.701   1.807  1.0334  0.7708 -1.3336
 7593SOL    HW224380   2.489   5.742   1.692 -0.6614 -0.7822 -0.3357
 7594SOL     OW24381   3.464   6.966   4.087 -0.0878 -0.2407 -0.0708
 7594SOL    HW124382   3.547   6.948   4.140 -0.3828  2.6931  1.6697
 7594SOL    HW224383   3.384   6.956   4.146 -0.4340  3.1171  0.2554
 7595SOL     OW24384   3.938   5.400   3.353  0.2140  0.2772  0.1261
 7595SOL    HW124385   3.889   5.376   3.438  0.6101 -1.5013 -0.1074
 7595SOL    HW224386   4.036   5.405   3.372  0.4124 -1.1538 -0.3990
 7596SOL     OW24387   1.814   3.083   0.731 -0.1492 -0.0404 -0.4324
 7596SOL    HW124388   1.865   3.092   0.817  0.1285  2.1211 -0.7803
 7596SOL    HW224389   1.722   3.121   0.743 -0.9523 -1.8539 -0.4707
 7597SOL     OW24390   2.288   4.898   0.880  0.1672 -0.4526 -0.2328
 7597SOL    HW124391   2.269   4.896   0.781 -1.4935 -1.9341  0.0736
 7597SOL    HW224392   2.204   4.921   0.929  0.2721 -2.4241  0.9538
 7598SOL     OW24393   6.371   2.779   0.982 -0.9576 -0.3519  0.5903
 7598SOL    HW124394   6.293   2.839   0.995 -1.1041 -0.2680 -0.5847
 7598SOL    HW224395   6.400   2.782   0.887  1.7650  1.2049  1.3499
 7599SOL     OW24396   1.072   2.224   1.754 -0.4048 -0.3278 -0.4625
 7599SOL    HW124397   1.061   2.295   1.824  1.2653  0.0367 -0.5354
 7599SOL    HW224398   1.110   2.141   1.797 -1.0649 -0.7177 -0.6243
 7600SOL     OW24399   5.474   6.595   2.611  0.0850  0.1711 -0.2277
 7600SOL    HW124400   5.472   6.508   2.661 -2.2666  0.3631  0.1427
 7600SOL    HW224401   5.470   6.671   2.677  0.2455  0.5153 -0.6103
 7601SOL     OW24402   4.992   4.279   5.128 -0.2577 -0.2542  0.2864
 7601SOL    HW124403   4.994   4.377   5.109 -0.9445 -0.4216 -0.7398
 7601SOL    HW224404   4.973   4.264   5.225 -2.0895  0.6486  0.1161
 7602SOL     OW24405   2.464   4.042   0.672 -0.1802 -0.4725  0.2255
 7602SOL    HW124406   2.500   3.958   0.631  0.2388 -0.0851 -0.2238
 7602SOL    HW224407   2.383   4.071   0.622 -1.1116 -1.3231  1.2129
 7603SOL     OW24408   6.561   1.585   6.939 -0.2110 -0.3497 -0.0130
 7603SOL    HW124409   6.601   1.501   6.903 -1.1719 -0.6453 -0.3991
 7603SOL    HW224410   6.511   1.633   6.867 -1.6335 -0.6378  0.7507
 7604SOL     OW24411   5.271   3.277   4.035 -0.0354  0.0616 -0.6782
 7604SOL    HW124412   5.219   3.309   4.115  0.1368 -0.5518 -0.3071
 7604SOL    HW224413   5.366   3.308   4.042 -0.1820  0.5727 -0.9850
 7605SOL     OW24414   3.988   4.545   0.215 -0.5074  0.0089  0.0113
 7605SOL    HW124415   4.034   4.459   0.238  0.7898  0.7765  0.3690
 7605SOL    HW224416   3.907   4.555   0.272 -0.2257 -0.5979  0.5341
 7606SOL     OW24417   5.816   1.753   4.730  0.0018  0.9921 -0.3671
 7606SOL    HW124418   5.869   1.699   4.665  3.3805  1.6709  1.5386
 7606SOL    HW224419   5.812   1.848   4.699 -1.7909  0.6080 -1.4013
 7607SOL     OW24420   6.667   3.487   3.150 -0.2344  0.9479 -0.4063
 7607SOL    HW124421   6.766   3.480   3.141 -0.1297  1.3609  0.3309
 7607SOL    HW224422   6.628   3.398   3.174  0.3126  1.3813  2.3179
 7608SOL     OW24423   3.094   3.071   1.091 -0.0671 -0.1054 -0.2088
 7608SOL    HW124424   3.019   3.128   1.124  0.4326  1.4524 -1.6653
 7608SOL    HW224425   3.059   3.006   1.023 -0.1390  0.5251 -0.7822
 7609SOL     OW24426   3.241   6.796   3.512  0.1752  0.0650 -0.1724
 7609SOL    HW124427   3.154   6.843   3.498 -0.2810 -0.1955  1.5551
 7609SOL    HW224428   3.306   6.857   3.556  0.4959 -0.1006 -0.4029
 7610SOL     OW24429   1.727   4.560   3.982  0.1954 -0.3151  0.4967
 7610SOL    HW124430   1.781   4.578   4.065  1.3228 -3.8924  0.6896
 7610SOL    HW224431   1.644   4.511   4.007  0.5999 -1.5282 -0.4831
 7611SOL     OW24432   1.773   3.157   3.020 -0.0448 -0.1496 -0.1354
 7611SOL    HW124433   1.868   3.127   3.030 -0.2281 -1.1223 -1.1525
 7611SOL    HW224434   1.769   3.230   2.951 -0.1588 -0.8096 -0.8347
 7612SOL     OW24435   6.037   1.728   0.806  0.0232 -0.1270  0.6078
 7612SOL    HW124436   6.130   1.690   0.813  0.5098  0.6479 -1.0710
 7612SOL    HW224437   6.033   1.814   0.857  0.5326  0.3333 -0.1072
 7613SOL     OW24438   1.460   1.694   2.762  0.1363  0.0004  0.2381
 7613SOL    HW124439   1.433   1.636   2.685  1.4587 -1.1290  0.5864
 7613SOL    HW224440   1.485   1.637   2.840  0.1725  1.0886  1.0524
 7614SOL     OW24441   3.963   6.371   5.728  0.4606  0.2457  1.4490
 7614SOL    HW124442   4.053   6.333   5.706  0.5786  2.1173 -1.8269
 7614SOL    HW224443   3.973   6.467   5.754 -0.5146  0.1398  2.2855
 7615SOL     OW24444   6.251   4.486   6.912 -0.0561  0.0109  0.0470
 7615SOL    HW124445   6.181   4.524   6.971 -1.3117 -0.3431 -1.1564
 7615SOL    HW224446   6.241   4.386   6.908  0.1669  0.0092 -0.5706
 7616SOL     OW24447   4.976   4.541   5.084 -0.3838 -0.1806  0.1998
 7616SOL    HW124448   4.885   4.583   5.080 -0.6965 -0.8781 -0.3006
 7616SOL    HW224449   5.031   4.586   5.154 -1.2174  0.0606  0.7114
 7617SOL     OW24450   0.345   3.126   2.088  0.6431  0.1048 -0.6177
 7617SOL    HW124451   0.412   3.181   2.039  1.0353 -1.0136 -1.3937
 7617SOL    HW224452   0.381   3.103   2.178  0.8471  0.3933 -0.6247
 7618SOL     OW24453   0.742   6.350   1.732  0.1236 -0.0710  0.4811
 7618SOL    HW124454   0.704   6.417   1.796 -0.3323 -0.5506  0.7151
 7618SOL    HW224455   0.820   6.391   1.685 -0.5006  0.8276  0.1982
 7619SOL     OW24456   5.360   2.579   6.049 -0.1282 -0.8179 -0.4710
 7619SOL    HW124457   5.402   2.488   6.054  2.0964  0.2105  1.1159
 7619SOL    HW224458   5.419   2.640   5.998 -1.4188 -0.1147 -1.1754
 7620SOL     OW24459   3.446   3.660   3.212  0.4942 -0.1532 -0.6854
 7620SOL    HW124460   3.383   3.586   3.235  0.7079 -0.0955  0.1224
 7620SOL    HW224461   3.417   3.704   3.127 -1.2691  0.6520  0.2883
 7621SOL     OW24462   0.022   3.684   5.461  0.3211 -0.4300  0.4472
 7621SOL    HW124463   0.007   3.586   5.474  1.7289 -0.9832 -1.5969
 7621SOL    HW224464   0.020   3.706   5.364  2.6874  1.0771  0.6577
 7622SOL     OW24465   6.589   0.538   5.595  0.0854  0.1491 -0.3091
 7622SOL    HW124466   6.490   0.553   5.607  0.0562 -0.7452  0.7017
 7622SOL    HW224467   6.620   0.585   5.512 -1.5491 -1.0697 -1.6844
 7623SOL     OW24468   4.167   2.289   0.936  0.0549  0.2817  0.3687
 7623SOL    HW124469   4.131   2.286   0.843  0.4475  0.6098  0.2026
 7623SOL    HW224470   4.171   2.384   0.966  0.8388  0.2590  0.3599
 7624SOL     OW24471   3.750   1.800   3.848 -0.1680 -0.5122  0.1118
 7624SOL    HW124472   3.656   1.828   3.869 -0.5437 -0.6409 -1.2912
 7624SOL    HW224473   3.807   1.881   3.836 -0.1926 -0.4259  0.5866
 7625SOL     OW24474   3.376   1.486   3.734  0.0640 -0.1082 -0.6761
 7625SOL    HW124475   3.295   1.499   3.791  0.3886  0.4795 -0.3511
 7625SOL    HW224476   3.457   1.522   3.780  0.4833 -0.4945 -1.0928
 7626SOL     OW24477   4.174   3.614   2.970 -0.6621  0.1823 -0.4461
 7626SOL    HW124478   4.099   3.618   2.904 -0.2263  0.7822 -0.9354
 7626SOL    HW224479   4.163   3.686   3.038 -1.2881 -0.6501  0.3469
 7627SOL     OW24480   3.957   2.849   0.856 -0.3173 -0.9789  0.4032
 7627SOL    HW124481   3.975   2.942   0.824  0.1573 -1.1650  0.1217
 7627SOL    HW224482   4.041   2.795   0.851 -0.5703 -1.4000  0.6484
 7628SOL     OW24483   6.019   5.596   1.158 -0.0728 -0.3013 -0.6491
 7628SOL    HW124484   5.974   5.652   1.226 -1.0314 -0.7965 -0.8608
 7628SOL    HW224485   6.114   5.581   1.185  0.4805  2.1188 -1.0239
 7629SOL     OW24486   0.118   5.145   3.546  0.0451 -0.4786 -0.0017
 7629SOL    HW124487   0.213   5.124   3.524  0.4304  1.0514  0.0895
 7629SOL    HW224488   0.068   5.163   3.462  0.3241  0.5998  0.0499
 7630SOL     OW24489   1.057   0.607   6.324  0.0225 -0.0860 -0.6380
 7630SOL    HW124490   1.139   0.663   6.326 -0.1482  0.1621 -0.6076
 7630SOL    HW224491   0.998   0.629   6.401 -0.5185  0.4144 -1.1819
 7631SOL     OW24492   0.704   1.331   3.526 -0.0535 -0.2745 -0.0961
 7631SOL    HW124493   0.667   1.369   3.611 -2.0436 -1.2387 -0.4754
 7631SOL    HW224494   0.629   1.310   3.464  1.2219 -1.6360 -1.2342
 7632SOL     OW24495   3.006   6.144   3.792 -0.1121 -0.0261  0.0546
 7632SOL    HW124496   2.995   6.068   3.728  1.0567 -1.4115  1.4150
 7632SOL    HW224497   3.010   6.230   3.741  0.1912 -1.0145 -1.6779
 7633SOL     OW24498   4.804   6.869   4.578  0.0167 -0.6433 -0.0492
 7633SOL    HW124499   4.902   6.847   4.568  0.1541  0.1686 -0.4899
 7633SOL    HW224500   4.792   6.929   4.657  0.1997  1.3108 -1.4593
 7634SOL     OW24501   6.193   5.987   3.598 -0.0565 -0.3525 -0.3914
 7634SOL    HW124502   6.151   5.901   3.627  0.0225 -0.4002 -0.4186
 7634SOL    HW224503   6.125   6.043   3.551  0.2050 -0.9554 -1.5438
 7635SOL     OW24504   6.658   6.789   2.869 -0.4213  0.3334  0.2365
 7635SOL    HW124505   6.637   6.863   2.932 -1.5678  1.5804 -1.4975
 7635SOL    HW224506   6.695   6.827   2.784  1.2150 -1.2920  0.1577
 7636SOL     OW24507   2.435   2.874   1.937 -0.5304 -0.4205  0.4369
 7636SOL    HW124508   2.479   2.867   2.027  0.5730 -2.1383 -0.1847
 7636SOL    HW224509   2.441   2.968   1.904  0.7922 -0.1721  1.3228
 7637SOL     OW24510   3.771   4.976   1.558 -0.1726  0.1030 -1.0708
 7637SOL    HW124511   3.683   4.930   1.567  1.2716 -2.3725  2.6355
 7637SOL    HW224512   3.811   4.954   1.469 -1.8908 -1.4183 -1.5309
 7638SOL     OW24513   3.977   2.369   4.923 -0.3417  0.2568 -0.2644
 7638SOL    HW124514   3.954   2.303   4.995  0.0372  0.3307 -0.0760
 7638SOL    HW224515   3.892   2.400   4.879 -0.4793 -0.8991 -0.8543
 7639SOL     OW24516   4.038   6.980   0.412 -0.5014  0.0377  0.0976
 7639SOL    HW124517   4.083   6.935   0.490 -0.6889 -1.4976 -0.6274
 7639SOL    HW224518   3.996   7.065   0.442  0.4457  0.0785  1.4082
 7640SOL     OW24519   0.322   2.683   3.983 -0.1465 -0.5408 -0.1484
 7640SOL    HW124520   0.348   2.771   3.943 -0.7016 -0.0762  0.4853
 7640SOL    HW224521   0.236   2.694   4.032  0.7960 -0.9376  1.6711
 7641SOL     OW24522   3.313   6.987   1.143 -0.0153 -0.0890 -0.6329
 7641SOL    HW124523   3.363   6.962   1.060 -0.5043 -0.3394 -0.8619
 7641SOL    HW224524   3.320   6.913   1.209  3.1165  1.4038  0.8888
 7642SOL     OW24525   1.924   0.794   4.544  0.7802 -0.2857  0.1557
 7642SOL    HW124526   1.966   0.801   4.453 -0.9628 -0.1267 -0.6726
 7642SOL    HW224527   1.859   0.869   4.557  0.6340 -0.6013  1.3337
 7643SOL     OW24528   0.961   6.479   1.983 -0.1474  0.3288  0.0828
 7643SOL    HW124529   0.975   6.413   1.909 -0.4130 -0.3339  0.6133
 7643SOL    HW224530   0.977   6.434   2.071 -1.0119  0.7857  0.4871
 7644SOL     OW24531   2.594   6.217   1.111 -0.3251  0.1797  0.3083
 7644SOL    HW124532   2.624   6.132   1.156 -0.1428  0.6758  1.1402
 7644SOL    HW224533   2.655   6.236   1.034  0.3236  0.1361  0.7956
 7645SOL     OW24534   2.824   1.050   4.266  0.0298 -0.4910  0.1085
 7645SOL    HW124535   2.878   1.080   4.187  1.3397 -0.1775  1.0945
 7645SOL    HW224536   2.831   0.951   4.275  1.8448 -0.3012  1.1862
 7646SOL     OW24537   3.019   4.957   3.298  0.0021  0.3750  0.3174
 7646SOL    HW124538   3.095   4.943   3.235 -1.2884 -0.8890 -1.0179
 7646SOL    HW224539   3.044   5.027   3.365  0.9450  2.8509 -2.4000
 7647SOL     OW24540   3.628   1.427   5.764  0.4079 -0.1490  0.1533
 7647SOL    HW124541   3.533   1.433   5.735  0.3648 -0.5019  0.2248
 7647SOL    HW224542   3.682   1.497   5.716  0.3311 -0.6880 -0.7522
 7648SOL     OW24543   0.125   0.600   0.838 -0.0201  0.0823  0.0056
 7648SOL    HW124544   0.174   0.522   0.798  0.4204 -0.1194  0.9199
 7648SOL    HW224545   0.190   0.672   0.860 -0.5073  1.0111 -1.4676
 7649SOL     OW24546   1.931   3.297   4.153  0.4866  0.5349 -0.4330
 7649SOL    HW124547   1.863   3.316   4.082  0.1076 -2.1880 -0.9041
 7649SOL    HW224548   1.892   3.317   4.243 -0.5571  0.0482 -0.7630
 7650SOL     OW24549   5.781   2.162   6.157 -0.3368  0.8125  0.3465
 7650SOL    HW124550   5.690   2.121   6.163 -0.3476  1.0500  2.6615
 7650SOL    HW224551   5.773   2.262   6.156 -0.1310  0.8503 -1.3194
 7651SOL     OW24552   5.109   0.244   4.179 -0.5261  0.1378  0.1579
 7651SOL    HW124553   5.106   0.193   4.093 -1.8497 -0.9283  0.8025
 7651SOL    HW224554   5.191   0.217   4.230  0.4831  1.0625 -0.8860
 7652SOL     OW24555   0.464   2.939   3.939  0.2528  0.1934 -0.2457
 7652SOL    HW124556   0.471   2.957   3.841  0.1601  0.5027 -0.1972
 7652SOL    HW224557   0.555   2.931   3.978  0.2907 -1.0042 -0.5488
 7653SOL     OW24558   4.067   1.572   2.988  0.3396  0.1772 -0.6007
 7653SOL    HW124559   4.029   1.484   2.962 -0.1268  0.0819  0.3797
 7653SOL    HW224560   4.145   1.593   2.929 -0.8157  0.0807 -2.2174
 7654SOL     OW24561   4.171   5.747   0.890  0.9535 -0.1250 -0.1151
 7654SOL    HW124562   4.136   5.655   0.908 -1.7294  0.9982  1.0844
 7654SOL    HW224563   4.110   5.794   0.826  3.6864  0.0777 -2.7805
 7655SOL     OW24564   6.837   0.867   4.587 -0.0937 -0.1257  0.2393
 7655SOL    HW124565   6.931   0.853   4.618  0.0923  0.3529 -0.0986
 7655SOL    HW224566   6.789   0.779   4.585  0.3425 -0.3700  0.4194
 7656SOL     OW24567   5.911   5.512   2.632  0.5162  0.3259 -0.6633
 7656SOL    HW124568   5.884   5.549   2.543 -0.8965 -0.8324 -0.7450
 7656SOL    HW224569   5.922   5.413   2.625  2.3381  0.4461  0.0084
 7657SOL     OW24570   0.851   0.354   2.835 -0.1004  0.3579  0.0747
 7657SOL    HW124571   0.921   0.313   2.777  0.8185  2.0381 -0.0618
 7657SOL    HW224572   0.768   0.298   2.831  0.0195  0.2507 -2.6360
 7658SOL     OW24573   6.665   2.791   5.527  0.4311  0.6735 -0.2365
 7658SOL    HW124574   6.612   2.765   5.447 -1.4179  0.4072  1.0031
 7658SOL    HW224575   6.610   2.777   5.609  2.2598  0.9277  1.0988
 7659SOL     OW24576   0.334   3.518   4.714  0.1143  0.3036 -0.1266
 7659SOL    HW124577   0.384   3.582   4.655  0.2466 -1.3273 -1.9044
 7659SOL    HW224578   0.237   3.524   4.694  0.3257 -1.7634 -2.2502
 7660SOL     OW24579   6.672   3.247   0.297 -0.0620 -0.1873 -0.8439
 7660SOL    HW124580   6.658   3.283   0.389  0.8515 -0.0659 -0.7408
 7660SOL    HW224581   6.732   3.309   0.246  0.1322 -0.6856 -1.2306
 7661SOL     OW24582   5.621   0.197   0.972 -0.1458 -0.0877  0.0240
 7661SOL    HW124583   5.655   0.182   0.880 -1.3422 -0.3381 -0.3970
 7661SOL    HW224584   5.666   0.134   1.035  1.9115  1.2070 -0.0652
 7662SOL     OW24585   1.088   5.186   0.668  0.1790 -0.1414  0.5598
 7662SOL    HW124586   1.103   5.260   0.603  0.1599 -2.1135 -1.8502
 7662SOL    HW224587   1.118   5.100   0.628 -3.9136 -2.1628  1.3163
 7663SOL     OW24588   6.844   1.094   3.112  0.4242 -0.2441  0.0075
 7663SOL    HW124589   6.769   1.089   3.179  0.6884  0.3942  0.3606
 7663SOL    HW224590   6.852   1.188   3.078  0.5069 -0.4945 -0.6856
 7664SOL     OW24591   1.340   2.700   3.776 -0.0650 -0.2932  0.4802
 7664SOL    HW124592   1.378   2.608   3.788 -0.2338 -0.3706  0.4214
 7664SOL    HW224593   1.311   2.712   3.681 -1.3164 -0.6643  0.7977
 7665SOL     OW24594   6.874   1.632   0.230 -0.3063 -0.2184  0.5827
 7665SOL    HW124595   6.809   1.560   0.210 -2.6752  1.5592  1.3536
 7665SOL    HW224596   6.863   1.662   0.325  0.1586  1.5633  0.1204
 7666SOL     OW24597   0.699   3.679   6.564  0.0616 -0.2791 -0.2545
 7666SOL    HW124598   0.789   3.641   6.587 -0.0917 -0.5296 -0.0703
 7666SOL    HW224599   0.686   3.676   6.465 -0.6178 -2.2339 -0.1520
 7667SOL     OW24600   6.782   1.077   4.105 -0.3467 -0.5543 -0.5060
 7667SOL    HW124601   6.865   1.082   4.160 -0.9325  1.2215  0.2785
 7667SOL    HW224602   6.705   1.048   4.162 -0.7442  0.2641 -0.6050
 7668SOL     OW24603   2.165   1.273   4.079 -0.0809 -0.5871  0.1395
 7668SOL    HW124604   2.074   1.298   4.048  0.3900  0.4828 -0.4178
 7668SOL    HW224605   2.231   1.288   4.005  0.2616 -3.5613 -0.3132
 7669SOL     OW24606   1.326   0.120   4.461  0.3068 -0.5600 -0.2413
 7669SOL    HW124607   1.336   0.021   4.463 -0.8501 -0.7030 -1.0626
 7669SOL    HW224608   1.336   0.153   4.367 -0.9461 -0.0903 -0.2247
 7670SOL     OW24609   6.639   2.220   4.809 -0.1989  0.3739  0.3105
 7670SOL    HW124610   6.725   2.249   4.767 -0.0693 -1.8971 -1.1761
 7670SOL    HW224611   6.571   2.292   4.797  1.1389  1.7054  0.4122
 7671SOL     OW24612   1.781   4.626   5.059  0.1177  0.4002  0.1404
 7671SOL    HW124613   1.818   4.591   4.974  0.2787  0.0576  0.3499
 7671SOL    HW224614   1.814   4.720   5.074  1.2835 -0.0587  0.5458
 7672SOL     OW24615   5.137   1.431   3.187 -0.5985 -0.0833  0.0097
 7672SOL    HW124616   5.065   1.382   3.138 -0.1821  0.5789 -1.3072
 7672SOL    HW224617   5.143   1.396   3.281 -1.5122 -1.2838 -0.3517
 7673SOL     OW24618   0.244   3.982   2.347 -0.2901  0.3523  0.0021
 7673SOL    HW124619   0.222   4.044   2.272  0.2849  1.1344  0.4567
 7673SOL    HW224620   0.332   4.009   2.387 -1.0430  0.6000  1.6035
 7674SOL     OW24621   4.429   6.505   2.512 -0.6899 -0.8560  0.1549
 7674SOL    HW124622   4.486   6.449   2.573  1.8781 -1.5585 -2.6707
 7674SOL    HW224623   4.430   6.600   2.545  0.6899 -1.1833  1.1915
 7675SOL     OW24624   0.573   6.255   6.930  0.2724  0.2541 -0.6774
 7675SOL    HW124625   0.572   6.313   7.012  1.3712 -0.8509  0.1698
 7675SOL    HW224626   0.664   6.215   6.919 -0.5417 -1.6652 -0.9470
 7676SOL     OW24627   0.117   6.608   5.086  0.0613 -0.2689 -0.4438
 7676SOL    HW124628   0.059   6.589   5.007 -1.0066  0.8574  0.0339
 7676SOL    HW224629   0.126   6.707   5.098 -0.9570 -0.3591  1.6412
 7677SOL     OW24630   2.470   5.326   2.854 -0.4501  0.1937  0.0053
 7677SOL    HW124631   2.479   5.315   2.756 -1.7444 -1.3547  0.0266
 7677SOL    HW224632   2.419   5.410   2.874  0.5496  0.9673 -0.5730
 7678SOL     OW24633   6.810   3.805   0.818  0.0201 -0.6606  0.1497
 7678SOL    HW124634   6.731   3.745   0.832  1.2036 -2.3609 -0.0114
 7678SOL    HW224635   6.827   3.858   0.901 -0.6310 -1.1006  0.5739
 7679SOL     OW24636   4.575   3.392   5.546 -0.1135 -0.2256  0.1092
 7679SOL    HW124637   4.668   3.362   5.567 -0.3380  0.1182  1.6799
 7679SOL    HW224638   4.571   3.424   5.451  1.1261 -1.1458 -0.2760
 7680SOL     OW24639   2.143   3.562   0.845 -0.0313  0.3823 -0.4133
 7680SOL    HW124640   2.148   3.595   0.750 -0.1776 -2.4414 -1.4967
 7680SOL    HW224641   2.218   3.602   0.898  0.6015  1.3410 -1.9524
 7681SOL     OW24642   0.852   4.101   2.591 -0.5840 -0.0043  0.0856
 7681SOL    HW124643   0.931   4.040   2.600  2.1426  3.1288 -0.5380
 7681SOL    HW224644   0.829   4.139   2.680 -1.8167 -1.2981  0.3537
 7682SOL     OW24645   3.775   5.378   0.629 -0.1051 -0.5684  0.1787
 7682SOL    HW124646   3.721   5.461   0.616 -0.6390 -1.1587 -1.7546
 7682SOL    HW224647   3.844   5.371   0.557 -0.0583 -1.7903  0.3154
 7683SOL     OW24648   4.287   2.652   2.090 -0.5024  0.1366  0.2180
 7683SOL    HW124649   4.382   2.667   2.062 -0.5544  0.2403  0.0984
 7683SOL    HW224650   4.266   2.710   2.170 -0.6491  0.5729 -0.1329
 7684SOL     OW24651   0.615   5.361   2.305  0.0628 -0.2713 -0.1894
 7684SOL    HW124652   0.617   5.270   2.348 -0.3437 -0.7140 -1.0756
 7684SOL    HW224653   0.531   5.408   2.332  1.3083  0.8196  2.1396
 7685SOL     OW24654   1.519   1.313   0.578  0.2071 -0.0562 -0.4511
 7685SOL    HW124655   1.504   1.295   0.675  0.3046 -1.0612 -0.6149
 7685SOL    HW224656   1.481   1.403   0.555  1.6437  0.9433  0.8590
 7686SOL     OW24657   4.375   2.123   5.223 -0.2191  0.4669 -0.1790
 7686SOL    HW124658   4.367   2.155   5.318 -0.0654 -0.2066  0.0646
 7686SOL    HW224659   4.465   2.081   5.210  0.1379  1.4112 -0.8916
 7687SOL     OW24660   3.004   2.354   1.887 -0.1637  0.1517  0.2833
 7687SOL    HW124661   3.022   2.275   1.829 -0.4458 -0.7651  1.4066
 7687SOL    HW224662   2.908   2.354   1.914 -0.7301  2.1241 -1.4635
 7688SOL     OW24663   1.570   2.861   4.872  0.5909  0.6649 -0.2416
 7688SOL    HW124664   1.659   2.862   4.827  0.8565  0.6425  0.2816
 7688SOL    HW224665   1.501   2.828   4.807  1.0011  0.4392 -0.5705
 7689SOL     OW24666   3.725   0.368   1.490  0.0159 -0.4815  0.0649
 7689SOL    HW124667   3.722   0.407   1.398 -0.4565  0.6295  0.5275
 7689SOL    HW224668   3.631   0.354   1.523  0.1713 -0.0056  0.7224
 7690SOL     OW24669   5.267   0.211   3.212 -0.0681  0.7884 -0.0346
 7690SOL    HW124670   5.286   0.168   3.300 -2.1382 -0.2819 -0.0592
 7690SOL    HW224671   5.181   0.261   3.218 -0.9624 -0.4421 -1.7932
 7691SOL     OW24672   5.913   0.652   3.065  0.4969 -0.2153 -0.1512
 7691SOL    HW124673   5.937   0.733   3.012  1.1901 -0.5412 -0.3340
 7691SOL    HW224674   5.826   0.669   3.113  0.6504  0.6437 -0.1591
 7692SOL     OW24675   6.842   5.527   2.637  0.3372 -0.5195  0.6842
 7692SOL    HW124676   6.851   5.470   2.556  0.1225  0.0521  0.2540
 7692SOL    HW224677   6.790   5.478   2.707  0.3261 -0.9245  0.3922
 7693SOL     OW24678   3.808   1.601   2.430 -0.2238 -0.4661 -0.1116
 7693SOL    HW124679   3.889   1.544   2.447  0.3259  0.3634  0.1518
 7693SOL    HW224680   3.826   1.661   2.352 -0.2230  0.3698  0.5122
 7694SOL     OW24681   7.024   2.348   2.708  0.5892 -0.2937  0.6390
 7694SOL    HW124682   6.956   2.400   2.655  0.9953 -0.5840 -0.1895
 7694SOL    HW224683   7.086   2.412   2.753  0.1242 -0.0370  0.9333
 7695SOL     OW24684   3.326   4.001   2.218  0.1297 -0.1640  0.6129
 7695SOL    HW124685   3.322   4.066   2.294 -0.3884 -1.8621  2.1007
 7695SOL    HW224686   3.394   4.032   2.152  0.5048  1.4379  1.6803
 7696SOL     OW24687   4.567   3.795   6.185 -0.1631  0.0066 -0.0840
 7696SOL    HW124688   4.493   3.843   6.232 -0.2680 -0.6098  0.3942
 7696SOL    HW224689   4.617   3.739   6.250  0.9139  0.6263 -0.3520
 7697SOL     OW24690   1.848   5.761   4.230 -0.2675  0.2737 -0.6158
 7697SOL    HW124691   1.799   5.820   4.166 -0.5199 -0.4303 -1.0812
 7697SOL    HW224692   1.784   5.700   4.275 -0.1156  0.8493  0.4333
 7698SOL     OW24693   5.559   3.010   2.663 -0.4475  0.3471  0.6360
 7698SOL    HW124694   5.510   3.027   2.749 -1.4081 -2.4846  0.7466
 7698SOL    HW224695   5.653   3.043   2.671 -1.2019  2.3683  1.8328
 7699SOL     OW24696   0.779   4.197   2.858 -0.5083  0.0318  0.0056
 7699SOL    HW124697   0.684   4.222   2.874 -1.2737 -1.2531 -2.1249
 7699SOL    HW224698   0.812   4.139   2.932 -1.6300 -0.1518  0.3747
 7700SOL     OW24699   3.097   1.438   3.923 -0.4931 -0.2743 -0.0997
 7700SOL    HW124700   3.044   1.353   3.924  0.4714 -0.9312 -1.8760
 7700SOL    HW224701   3.037   1.514   3.896 -1.3828 -0.3065  1.5839
 7701SOL     OW24702   6.491   3.652   2.350 -0.3792 -0.0623  0.4019
 7701SOL    HW124703   6.540   3.565   2.344  1.3674  0.7469  1.6860
 7701SOL    HW224704   6.454   3.676   2.261 -1.1397 -2.2286  0.0802
 7702SOL     OW24705   6.809   4.792   6.951  0.1628 -0.3955  0.2039
 7702SOL    HW124706   6.717   4.808   6.916 -0.9005 -1.6301  2.2525
 7702SOL    HW224707   6.808   4.714   7.014  2.7025 -0.6861 -0.0230
 7703SOL     OW24708   6.679   1.816   4.949 -0.2046 -0.5535  0.3643
 7703SOL    HW124709   6.592   1.822   4.900  0.2976 -0.4327 -0.5270
 7703SOL    HW224710   6.673   1.744   5.018 -1.1170 -0.3264  0.5300
 7704SOL     OW24711   2.524   3.783   6.813 -0.4633 -0.9247 -0.0739
 7704SOL    HW124712   2.429   3.809   6.794 -0.7107 -0.1892  1.9425
 7704SOL    HW224713   2.528   3.728   6.896  1.0593  1.0488  1.2726
 7705SOL     OW24714   0.505   3.862   6.645  0.3530 -0.0636 -0.7850
 7705SOL    HW124715   0.456   3.839   6.729  0.6956 -0.5138 -0.7020
 7705SOL    HW224716   0.572   3.791   6.626  2.3866  1.4837  0.1908
 7706SOL     OW24717   1.503   2.472   0.107 -0.1173 -0.4323  0.2145
 7706SOL    HW124718   1.522   2.562   0.067 -0.0232 -0.0402  1.1121
 7706SOL    HW224719   1.405   2.453   0.100 -0.6053  0.9294  2.3283
 7707SOL     OW24720   4.456   3.209   3.487 -0.2844 -0.0481  0.0127
 7707SOL    HW124721   4.506   3.273   3.547 -1.4030  1.8475 -0.9753
 7707SOL    HW224722   4.521   3.155   3.435  0.7242  0.3666  0.7988
 7708SOL     OW24723   0.359   5.468   2.427 -0.3376 -0.0879 -0.6720
 7708SOL    HW124724   0.394   5.525   2.502 -1.5275  0.8199 -0.7710
 7708SOL    HW224725   0.308   5.392   2.465 -0.4024  0.0168 -0.5466
 7709SOL     OW24726   7.005   3.019   2.340  0.0551 -0.4195 -0.0254
 7709SOL    HW124727   7.007   3.056   2.247  1.7846 -1.3835 -0.4119
 7709SOL    HW224728   6.942   2.941   2.343  0.6231 -0.9129 -0.6134
 7710SOL     OW24729   1.160   4.208   2.569 -0.1665  0.0561  0.0434
 7710SOL    HW124730   1.198   4.234   2.480  0.0178 -0.3287  0.0057
 7710SOL    HW224731   1.064   4.234   2.573  0.5296  2.8296  0.8552
 7711SOL     OW24732   2.320   6.605   4.361 -0.0540 -0.2062  0.2379
 7711SOL    HW124733   2.367   6.519   4.379  1.1933  0.6033  1.0090
 7711SOL    HW224734   2.386   6.674   4.332 -0.4883  1.3518  2.7074
 7712SOL     OW24735   2.307   1.762   5.918  0.0889 -0.6647 -0.1538
 7712SOL    HW124736   2.383   1.706   5.950 -0.5152 -0.7720  1.1572
 7712SOL    HW224737   2.233   1.703   5.887  0.1063 -0.5727 -0.3710
 7713SOL     OW24738   6.680   2.456   5.334  0.3351 -0.1668  0.1729
 7713SOL    HW124739   6.761   2.421   5.288 -0.8997 -0.0359 -2.2608
 7713SOL    HW224740   6.645   2.535   5.285  0.3997  1.6765  2.9097
 7714SOL     OW24741   4.326   6.152   0.593  0.3094 -0.3833 -0.2701
 7714SOL    HW124742   4.366   6.243   0.605  0.0258 -0.3245  0.2822
 7714SOL    HW224743   4.229   6.160   0.571  0.4246 -0.5412 -0.8488
 7715SOL     OW24744   0.706   3.808   1.890  0.5655  0.3883 -0.2251
 7715SOL    HW124745   0.639   3.879   1.867  0.5112 -0.0125 -1.3412
 7715SOL    HW224746   0.712   3.800   1.989 -1.0057  0.4727 -0.0855
 7716SOL     OW24747   2.741   1.288   4.675 -0.4646 -0.2053  0.5584
 7716SOL    HW124748   2.645   1.298   4.647 -0.0963  0.4517 -0.5102
 7716SOL    HW224749   2.756   1.195   4.707 -0.9180 -1.0184 -1.4515
 7717SOL     OW24750   4.627   1.443   3.623  0.2842  0.3429  0.0799
 7717SOL    HW124751   4.591   1.522   3.672  0.5113  0.1625  0.5373
 7717SOL    HW224752   4.726   1.445   3.625  0.3861  1.4930 -2.1978
 7718SOL     OW24753   1.058   5.737   4.794 -0.0732  0.4054  0.4782
 7718SOL    HW124754   1.017   5.646   4.786  1.8669 -0.5153  0.4382
 7718SOL    HW224755   1.056   5.766   4.890  0.6010 -0.3468  0.7318
 7719SOL     OW24756   4.992   2.832   1.310  0.2581  0.2008  0.0351
 7719SOL    HW124757   5.071   2.838   1.372  0.3724  1.4161 -0.1931
 7719SOL    HW224758   5.016   2.775   1.231  0.8920  0.4752  0.0174
 7720SOL     OW24759   1.455   5.292   5.963 -0.1796  0.3413  0.1164
 7720SOL    HW124760   1.478   5.386   5.938  0.2899  0.0806 -0.4528
 7720SOL    HW224761   1.409   5.247   5.886 -0.6857  0.1965  0.4941
 7721SOL     OW24762   2.158   1.956   3.709 -0.2931  0.2367  0.0358
 7721SOL    HW124763   2.131   1.989   3.619  0.0677 -1.1371 -0.6016
 7721SOL    HW224764   2.079   1.955   3.769  0.0090  4.0823  0.7486
 7722SOL     OW24765   3.947   3.017   5.399  0.5361 -0.1850 -0.1837
 7722SOL    HW124766   3.887   3.072   5.340  2.2687  0.9459 -0.9850
 7722SOL    HW224767   4.022   3.075   5.432  1.7903 -1.7903 -0.1049
 7723SOL     OW24768   4.106   5.903   4.928 -0.2733 -0.1182 -0.0531
 7723SOL    HW124769   4.182   5.878   4.868  0.4529 -0.2594  0.8968
 7723SOL    HW224770   4.071   5.820   4.973  1.0140  0.2766  1.7995
 7724SOL     OW24771   0.165   6.027   4.957 -0.4372 -0.0826 -0.1666
 7724SOL    HW124772   0.250   6.057   4.913 -0.0975 -0.6690  0.0871
 7724SOL    HW224773   0.088   6.077   4.917 -0.1662 -0.7668 -1.6131
 7725SOL     OW24774   0.676   6.412   2.088  0.0721  0.2959  0.1704
 7725SOL    HW124775   0.607   6.484   2.095 -1.2995 -0.9581 -0.0483
 7725SOL    HW224776   0.766   6.451   2.108 -0.7953  1.7551  1.5305
 7726SOL     OW24777   1.274   3.117   3.783 -0.3875  0.3059  0.4873
 7726SOL    HW124778   1.343   3.177   3.821 -1.7114  1.1567  1.6258
 7726SOL    HW224779   1.226   3.070   3.857 -0.8293 -0.5051 -0.2913
 7727SOL     OW24780   3.910   2.186   5.112  0.0529 -0.4469 -0.7172
 7727SOL    HW124781   3.961   2.221   5.190 -1.1177 -0.1648 -0.0670
 7727SOL    HW224782   3.814   2.177   5.135 -0.2526 -0.7614 -2.0003
 7728SOL     OW24783   2.090   6.637   1.324 -0.0921  0.3772  0.3291
 7728SOL    HW124784   2.140   6.698   1.262 -0.6871 -0.0608 -0.6120
 7728SOL    HW224785   2.149   6.562   1.352  0.1938  0.5899  0.3000
 7729SOL     OW24786   5.417   4.965   4.210 -0.1959 -0.1579  0.5584
 7729SOL    HW124787   5.388   5.061   4.205 -1.3313 -0.4087  1.7109
 7729SOL    HW224788   5.336   4.907   4.217  0.5296 -1.0432  1.9753
 7730SOL     OW24789   6.988   2.728   6.943  0.6486 -0.3474 -0.4901
 7730SOL    HW124790   7.054   2.654   6.957 -1.3044 -1.9575  0.7481
 7730SOL    HW224791   6.903   2.690   6.906 -0.7011  1.1152  0.9897
 7731SOL     OW24792   6.070   4.123   6.351 -0.4357  0.5056 -0.0603
 7731SOL    HW124793   6.079   4.069   6.268 -0.3177 -0.6173  0.6514
 7731SOL    HW224794   6.070   4.062   6.430  0.5166  1.6110  0.8377
 7732SOL     OW24795   0.915   1.999   5.522  0.3029  0.0302  0.5477
 7732SOL    HW124796   0.876   1.908   5.512 -0.8930  0.5840 -0.0109
 7732SOL    HW224797   0.902   2.051   5.437 -0.4479  1.2326  1.3538
 7733SOL     OW24798   6.495   2.769   6.492 -0.5785  0.3114 -0.0785
 7733SOL    HW124799   6.572   2.782   6.428 -1.2153 -2.1321 -1.4767
 7733SOL    HW224800   6.516   2.693   6.553 -1.9027 -0.4709 -0.5636
 7734SOL     OW24801   6.622   1.674   1.530 -0.3360 -0.0100  0.1524
 7734SOL    HW124802   6.636   1.727   1.447 -0.1307  1.2656  0.9727
 7734SOL    HW224803   6.610   1.736   1.608  1.3796 -1.1529  1.4029
 7735SOL     OW24804   0.521   3.647   4.080 -0.4919  0.7121  0.2721
 7735SOL    HW124805   0.477   3.724   4.032 -1.6521 -0.6113 -0.8876
 7735SOL    HW224806   0.571   3.591   4.014 -0.3516  0.0174  0.9575
 7736SOL     OW24807   2.869   1.396   0.871  0.6415 -0.2496  0.6548
 7736SOL    HW124808   2.779   1.424   0.905  0.9955 -0.8301  2.0957
 7736SOL    HW224809   2.859   1.315   0.813  0.2904 -0.5527  1.1381
 7737SOL     OW24810   0.481   0.427   5.910  0.1721  0.2527  0.1683
 7737SOL    HW124811   0.509   0.428   6.006  1.8198  0.8857 -0.2898
 7737SOL    HW224812   0.562   0.421   5.851 -0.8238 -0.5208 -1.1926
 7738SOL     OW24813   3.219   1.896   0.630 -0.1951  0.3620  0.3161
 7738SOL    HW124814   3.251   1.850   0.548 -2.3693 -1.4527  0.3928
 7738SOL    HW224815   3.239   1.994   0.624  2.7831 -0.2172 -0.7549
 7739SOL     OW24816   1.060   4.628   6.153  0.1365 -0.7086  0.2983
 7739SOL    HW124817   0.963   4.630   6.175  0.4299 -0.7923  1.7087
 7739SOL    HW224818   1.074   4.587   6.063 -1.3179  1.6250 -1.1098
 7740SOL     OW24819   0.593   0.224   6.435 -0.0145  0.0098 -0.2510
 7740SOL    HW124820   0.595   0.319   6.466 -0.3735  0.7215 -2.2407
 7740SOL    HW224821   0.512   0.209   6.379  1.2410 -0.7775 -1.9507
 7741SOL     OW24822   3.431   5.938   2.201 -0.3004 -0.7474  0.0499
 7741SOL    HW124823   3.462   5.897   2.287 -0.2008 -1.5963 -0.3710
 7741SOL    HW224824   3.462   5.881   2.125  2.6343  1.7973 -0.8225
 7742SOL     OW24825   3.792   5.257   5.831 -0.0994  0.3637  0.5796
 7742SOL    HW124826   3.814   5.314   5.911  1.5457  0.2289  0.2672
 7742SOL    HW224827   3.772   5.164   5.861  2.2048 -0.1223  0.7650
 7743SOL     OW24828   3.147   6.286   2.085  0.2869 -0.0176 -0.2330
 7743SOL    HW124829   3.191   6.369   2.051 -0.8349  0.3888 -0.7365
 7743SOL    HW224830   3.203   6.246   2.158 -0.5257  2.7945  2.1015
 7744SOL     OW24831   5.235   4.974   6.397  0.5137  0.2016  0.1013
 7744SOL    HW124832   5.174   4.987   6.475 -1.6125  1.7533 -1.6934
 7744SOL    HW224833   5.232   4.878   6.369 -0.0527 -0.0245  0.8825
 7745SOL     OW24834   1.035   4.948   0.255  0.2103  0.0671  0.2676
 7745SOL    HW124835   1.063   4.892   0.334  0.6713 -0.1931 -0.0691
 7745SOL    HW224836   1.040   5.045   0.279 -2.6009 -0.0112  1.5359
 7746SOL     OW24837   4.699   6.758   1.444  0.6389  0.0743  0.0766
 7746SOL    HW124838   4.792   6.762   1.408  0.9121  0.8299  0.8200
 7746SOL    HW224839   4.656   6.848   1.438 -0.2156 -0.3635 -0.6583
 7747SOL     OW24840   1.033   2.793   5.048  0.0231 -0.2240  0.2162
 7747SOL    HW124841   0.969   2.773   4.973 -0.1485  0.1441  0.2662
 7747SOL    HW224842   1.083   2.877   5.028 -1.6119  1.1278  1.5267
 7748SOL     OW24843   1.315   3.542   3.889  0.1199 -0.7261 -0.2000
 7748SOL    HW124844   1.391   3.605   3.906 -0.2950 -0.9873  3.2094
 7748SOL    HW224845   1.257   3.579   3.816  0.3915  2.4366  1.0173
 7749SOL     OW24846   5.570   4.431   0.960 -0.2497 -0.6853 -0.4318
 7749SOL    HW124847   5.651   4.434   0.903 -1.0130  0.6983 -1.5102
 7749SOL    HW224848   5.498   4.380   0.913 -0.0717 -1.7784  0.4507
 7750SOL     OW24849   6.025   4.618   1.461 -0.1094 -0.1390  0.1699
 7750SOL    HW124850   5.997   4.707   1.496 -0.2757 -0.2987  0.4476
 7750SOL    HW224851   5.964   4.591   1.386 -1.1948 -0.8180  1.2505
 7751SOL     OW24852   4.497   4.684   0.620 -0.2542 -0.2422 -0.7557
 7751SOL    HW124853   4.445   4.690   0.705 -1.6882 -1.4440 -1.5170
 7751SOL    HW224854   4.572   4.619   0.630 -0.0683  0.0406 -0.2637
 7752SOL     OW24855   1.972   6.848   5.691  0.4652  0.5081 -0.2095
 7752SOL    HW124856   1.954   6.890   5.780 -0.3506  0.4559 -0.3405
 7752SOL    HW224857   2.047   6.896   5.646 -1.0232  2.4688 -0.7562
 7753SOL     OW24858   2.297   0.182   6.179 -0.3966  0.0137 -0.2463
 7753SOL    HW124859   2.203   0.155   6.201 -0.0782  0.6391  2.1368
 7753SOL    HW224860   2.299   0.281   6.161  0.1720  0.5736  2.5293
 7754SOL     OW24861   4.707   6.714   2.081 -0.2659 -0.1441  0.4944
 7754SOL    HW124862   4.728   6.695   1.985 -1.3831  1.2747 -0.0796
 7754SOL    HW224863   4.628   6.661   2.110 -1.0842  0.7849  0.0304
 7755SOL     OW24864   3.531   1.766   2.029 -0.0140  0.1374 -0.4882
 7755SOL    HW124865   3.572   1.679   2.002  0.3976  1.1957 -3.6846
 7755SOL    HW224866   3.432   1.758   2.030  0.0522 -0.7761  0.9668
 7756SOL     OW24867   5.634   0.615   1.514  0.0299 -0.0337 -0.4837
 7756SOL    HW124868   5.584   0.682   1.570 -0.8200 -1.2341  0.2371
 7756SOL    HW224869   5.574   0.539   1.491  1.5520 -1.6663  0.6237
 7757SOL     OW24870   1.106   4.594   4.029  0.3423 -0.1340 -0.2031
 7757SOL    HW124871   1.118   4.582   3.931  0.9160 -2.3841  0.0757
 7757SOL    HW224872   1.037   4.663   4.047 -0.6302 -0.5262 -2.2090
 7758SOL     OW24873   0.597   3.853   1.555 -0.0718 -0.3711  0.0270
 7758SOL    HW124874   0.604   3.925   1.486 -0.9594 -0.3415 -0.0364
 7758SOL    HW224875   0.621   3.765   1.514  2.5680  0.0400  0.4697
 7759SOL     OW24876   1.919   0.039   2.815 -0.3480 -0.3414  0.1445
 7759SOL    HW124877   1.973   0.024   2.732 -0.2606  2.1001 -0.3174
 7759SOL    HW224878   1.938  -0.034   2.881  2.0173 -0.6264 -0.7477
 7760SOL     OW24879   2.350   1.655   1.030 -0.2264  0.8748  0.0969
 7760SOL    HW124880   2.404   1.671   0.948  1.4981  0.7264  1.1651
 7760SOL    HW224881   2.410   1.628   1.106 -1.8841 -0.1965  1.1120
 7761SOL     OW24882   2.925   0.688   4.751 -0.4436  0.3795 -0.3098
 7761SOL    HW124883   2.961   0.735   4.832 -0.8188 -1.0591  0.7497
 7761SOL    HW224884   2.999   0.638   4.706 -0.5722 -0.3622  0.2777
 7762SOL     OW24885   6.949   1.635   2.250 -0.3676  0.0308  0.0194
 7762SOL    HW124886   6.877   1.682   2.198  0.3713 -0.0575 -1.1378
 7762SOL    HW224887   6.975   1.551   2.203  1.2833  0.6414 -0.2373
 7763SOL     OW24888   5.661   4.106   1.659 -0.0021  0.1993 -0.2766
 7763SOL    HW124889   5.744   4.155   1.685 -0.9971  1.2778  0.9664
 7763SOL    HW224890   5.588   4.171   1.639 -0.6848 -0.7371 -0.9611
 7764SOL     OW24891   4.338   5.494   0.503 -0.2377 -0.2655  0.1662
 7764SOL    HW124892   4.363   5.590   0.515 -0.0694 -0.3507  0.5334
 7764SOL    HW224893   4.285   5.463   0.582 -0.9334 -0.2761 -0.2926
 7765SOL     OW24894   1.991   2.963   0.903 -0.0241  0.0226  0.2892
 7765SOL    HW124895   2.045   2.894   0.952  0.0847 -1.0312 -1.2521
 7765SOL    HW224896   1.900   2.927   0.883 -0.0423  0.4046 -0.3420
 7766SOL     OW24897   0.575   3.214   1.097 -0.5848  0.2392 -0.3053
 7766SOL    HW124898   0.595   3.312   1.098 -1.2924  0.3979 -0.8727
 7766SOL    HW224899   0.522   3.190   1.178 -0.7343  0.3943 -0.3569
 7767SOL     OW24900   5.375   3.896   2.847 -0.2312  0.6176  0.6001
 7767SOL    HW124901   5.299   3.941   2.894  2.1379  3.5391  2.0275
 7767SOL    HW224902   5.444   3.869   2.914  0.2686 -1.5267 -0.6798
 7768SOL     OW24903   1.032   3.207   6.141  0.0186  0.1715 -0.0679
 7768SOL    HW124904   1.089   3.179   6.064 -0.1324 -0.2657 -0.0220
 7768SOL    HW224905   1.003   3.302   6.127  1.1294  0.5593  0.1400
 7769SOL     OW24906   3.114   5.491   0.990 -0.0255  0.0992  0.0532
 7769SOL    HW124907   3.032   5.498   0.934 -0.2734  0.1319  0.4203
 7769SOL    HW224908   3.192   5.470   0.932 -0.3689 -0.3681 -0.2393
 7770SOL     OW24909   0.319   2.053   6.297 -0.1386 -0.2344  0.3499
 7770SOL    HW124910   0.262   1.986   6.344 -0.0907 -0.6707 -0.1934
 7770SOL    HW224911   0.277   2.077   6.209 -0.4047  0.8305  0.7525
 7771SOL     OW24912   3.036   4.753   6.674 -0.5532  0.3295 -0.4803
 7771SOL    HW124913   3.028   4.755   6.774 -0.8342  0.6245 -0.5082
 7771SOL    HW224914   3.074   4.839   6.642  2.1862 -0.7483 -0.4065
 7772SOL     OW24915   4.381   6.682   0.722 -0.3158 -0.5140 -0.5541
 7772SOL    HW124916   4.442   6.675   0.643 -0.8770 -0.3267 -1.0074
 7772SOL    HW224917   4.286   6.676   0.691 -0.5483 -0.0169  0.0593
 7773SOL     OW24918   5.205   6.196   5.539 -0.1825 -0.2113  1.0430
 7773SOL    HW124919   5.193   6.286   5.497  0.1381 -0.3368  0.6695
 7773SOL    HW224920   5.142   6.131   5.497  1.3045 -0.7382 -0.5142
 7774SOL     OW24921   1.947   4.135   0.401  0.4108 -0.7050 -0.1496
 7774SOL    HW124922   2.039   4.123   0.364 -0.3314  0.6904 -2.6622
 7774SOL    HW224923   1.882   4.080   0.348 -0.6756  1.2404 -0.9335
 7775SOL     OW24924   3.034   6.687   3.175  0.0323 -0.0583 -0.0572
 7775SOL    HW124925   3.023   6.772   3.226  3.1285  0.2751  0.2091
 7775SOL    HW224926   2.986   6.613   3.222 -2.2194  1.3306  0.0167
 7776SOL     OW24927   1.860   4.607   1.854  0.6141  0.1251  0.2433
 7776SOL    HW124928   1.929   4.541   1.824  0.2458 -2.4231  4.2070
 7776SOL    HW224929   1.897   4.663   1.929  0.1014  2.8715 -1.4099
 7777SOL     OW24930   0.620   1.070   0.548 -0.8685  0.5605  0.3117
 7777SOL    HW124931   0.610   0.971   0.559 -1.5958  0.6364  0.4012
 7777SOL    HW224932   0.666   1.089   0.461 -1.8736  0.1713 -0.3328
 7778SOL     OW24933   0.428   3.322   1.929  0.8493 -0.0486  0.5181
 7778SOL    HW124934   0.412   3.383   2.006  1.9492  1.1729 -0.1956
 7778SOL    HW224935   0.501   3.358   1.872  0.0321 -0.9065 -1.1386
 7779SOL     OW24936   0.977   3.488   1.783  0.6760 -0.6761 -0.1841
 7779SOL    HW124937   1.000   3.530   1.871 -2.1970  1.2766 -0.2493
 7779SOL    HW224938   0.905   3.540   1.738 -0.8722 -3.8814 -1.8195
 7780SOL     OW24939   0.704   2.421   0.637 -0.7568  0.1389 -0.2071
 7780SOL    HW124940   0.741   2.505   0.677  3.0880 -1.2444 -0.4020
 7780SOL    HW224941   0.762   2.344   0.663 -2.6900 -2.0817 -2.0545
 7781SOL     OW24942   0.567   1.400   3.754 -0.0413 -0.1873  0.8280
 7781SOL    HW124943   0.480   1.445   3.733 -0.0576 -0.8796 -0.7131
 7781SOL    HW224944   0.583   1.404   3.853 -2.4339 -1.0757  1.3263
 7782SOL     OW24945   1.732   2.173   1.916  0.0134 -0.5495  0.6035
 7782SOL    HW124946   1.667   2.194   1.843 -1.6953  2.8899  2.8277
 7782SOL    HW224947   1.696   2.099   1.973 -1.4364  0.4538  1.0560
 7783SOL     OW24948   6.639   6.130   2.819 -0.2790  0.6607  0.4424
 7783SOL    HW124949   6.622   6.104   2.914 -0.1429  1.8679  0.8133
 7783SOL    HW224950   6.705   6.205   2.816 -1.1477  1.4096 -0.5467
 7784SOL     OW24951   5.659   1.533   4.027 -0.0614 -0.3977 -0.0115
 7784SOL    HW124952   5.588   1.465   4.008  1.2928 -1.7809 -0.3785
 7784SOL    HW224953   5.623   1.603   4.088 -1.9919 -0.5484 -0.9116
 7785SOL     OW24954   0.429   6.783   0.556  0.7404 -0.3250  0.0588
 7785SOL    HW124955   0.356   6.850   0.542  2.0406  1.3380  0.8984
 7785SOL    HW224956   0.414   6.735   0.643  0.9548  0.4295  0.5143
 7786SOL     OW24957   3.505   2.519   0.537  0.5011  0.2994 -0.6338
 7786SOL    HW124958   3.522   2.437   0.482  1.1078 -1.0965  1.5346
 7786SOL    HW224959   3.590   2.550   0.579  0.0344  1.2523 -0.3609
 7787SOL     OW24960   2.681   1.702   1.977  0.1031 -0.7160 -0.1672
 7787SOL    HW124961   2.674   1.616   1.927 -0.6399 -1.2304  0.7888
 7787SOL    HW224962   2.753   1.696   2.045 -2.1040 -1.8613  2.2298
 7788SOL     OW24963   0.682   0.543   3.622  0.8916  0.3623  0.0110
 7788SOL    HW124964   0.729   0.601   3.555  2.9338  1.1821  2.0126
 7788SOL    HW224965   0.630   0.601   3.685 -2.0583 -0.4760 -1.4912
 7789SOL     OW24966   4.245   2.240   4.384  0.4525  0.2083 -0.1711
 7789SOL    HW124967   4.213   2.192   4.466  0.2701  0.5018 -0.0700
 7789SOL    HW224968   4.167   2.275   4.333  0.4794 -1.2324 -1.2535
 7790SOL     OW24969   3.244   1.884   5.140  0.1040 -0.2749  0.4513
 7790SOL    HW124970   3.149   1.882   5.110 -0.1209  0.5587  1.0531
 7790SOL    HW224971   3.279   1.978   5.132  0.1985 -0.1236  2.1890
 7791SOL     OW24972   6.812   1.395   4.109 -0.4640  0.2295  0.0710
 7791SOL    HW124973   6.899   1.445   4.101  1.2225 -2.5008  0.2742
 7791SOL    HW224974   6.831   1.298   4.126 -3.5959 -0.4346  0.2217
 7792SOL     OW24975   3.358   0.597   5.846 -0.2774  0.2622  0.1983
 7792SOL    HW124976   3.335   0.629   5.754 -0.4206 -0.6022 -0.0739
 7792SOL    HW224977   3.432   0.530   5.840 -0.3799  0.1037  0.6971
 7793SOL     OW24978   3.322   4.797   5.199 -0.1305  0.3725 -0.4508
 7793SOL    HW124979   3.291   4.868   5.262 -1.5649 -1.0246  0.5056
 7793SOL    HW224980   3.421   4.790   5.202 -0.1680 -0.4505  2.6560
 7794SOL     OW24981   5.539   5.528   0.678  0.4004  0.5528 -0.2316
 7794SOL    HW124982   5.606   5.552   0.748  0.3955 -0.1067  0.0135
 7794SOL    HW224983   5.448   5.521   0.720  0.2954  0.7714 -0.4249
 7795SOL     OW24984   5.393   5.055   6.639 -0.1162  0.1275  0.1451
 7795SOL    HW124985   5.408   5.024   6.733  0.5263 -0.5270 -0.1683
 7795SOL    HW224986   5.313   5.008   6.600  0.4326 -0.6188 -0.0908
 7796SOL     OW24987   1.802   6.149   2.944  1.0705 -0.5220  0.0221
 7796SOL    HW124988   1.863   6.224   2.918  0.3799 -0.4327 -1.4074
 7796SOL    HW224989   1.829   6.065   2.896 -1.4735  0.1231 -2.8317
 7797SOL     OW24990   2.183   5.137   2.494 -0.2433  0.1416 -0.5534
 7797SOL    HW124991   2.122   5.092   2.429  0.2370  1.2321 -1.7845
 7797SOL    HW224992   2.190   5.081   2.576 -1.2651 -1.0137 -1.2200
 7798SOL     OW24993   3.432   3.864   6.420  0.0861  0.5613  0.7298
 7798SOL    HW124994   3.496   3.926   6.375 -0.8229  1.2954  0.4227
 7798SOL    HW224995   3.414   3.786   6.361 -2.2987  2.2628 -0.9839
 7799SOL     OW24996   5.385   5.917   1.882  0.3185  0.0070 -0.4440
 7799SOL    HW124997   5.463   5.887   1.938 -1.1314  0.3166  1.8507
 7799SOL    HW224998   5.316   5.845   1.880 -0.5971  0.8591  0.0357
 7800SOL     OW24999   6.186   5.602   5.748  0.1277  0.0547 -0.3494
 7800SOL    HW125000   6.107   5.645   5.793 -0.9017 -0.8661 -1.2140
 7800SOL    HW225001   6.182   5.503   5.764 -0.1941 -0.2839 -2.3233
 7801SOL     OW25002   5.063   5.654   6.755  0.4530 -0.4536 -0.4267
 7801SOL    HW125003   4.983   5.703   6.790  1.1735  0.3833  0.0842
 7801SOL    HW225004   5.045   5.624   6.661  0.1480  1.1982 -0.9209
 7802SOL     OW25005   3.484   6.171   4.405  0.2519  0.4732 -0.0154
 7802SOL    HW125006   3.551   6.143   4.337 -0.6306 -2.1667  0.0897
 7802SOL    HW225007   3.525   6.167   4.496  0.2435 -0.1993 -0.0363
 7803SOL     OW25008   0.887   2.399   5.853 -0.8825  0.1859  0.1510
 7803SOL    HW125009   0.824   2.458   5.904  0.2139  0.5071  1.1749
 7803SOL    HW225010   0.917   2.325   5.913  1.2239  1.1389  0.3438
 7804SOL     OW25011   0.703   5.278   0.900  0.5019  0.9574 -0.1977
 7804SOL    HW125012   0.761   5.277   0.981  0.6729  0.5252 -0.3241
 7804SOL    HW225013   0.739   5.215   0.832  0.1790  1.0793 -0.4858
 7805SOL     OW25014   1.689   6.130   3.705 -0.1630  0.5724  0.2181
 7805SOL    HW125015   1.732   6.104   3.791 -0.8287  0.4691  0.5261
 7805SOL    HW225016   1.735   6.085   3.629  0.0436  0.1797  0.5731
 7806SOL     OW25017   1.589   6.089   4.937  0.1589  0.2941  0.0620
 7806SOL    HW125018   1.565   6.036   4.855 -1.2183  0.7963  0.1164
 7806SOL    HW225019   1.607   6.184   4.911 -0.7146  0.5530  0.3932
 7807SOL     OW25020   5.576   1.439   1.249  0.0773  0.1749 -0.2490
 7807SOL    HW125021   5.531   1.361   1.292  0.0041 -0.2838 -1.1407
 7807SOL    HW225022   5.668   1.450   1.287  0.6364 -1.2317 -1.1219
 7808SOL     OW25023   2.334   2.074   4.291 -0.5152  0.0163 -0.4520
 7808SOL    HW125024   2.272   2.108   4.220 -1.2101 -1.1076 -0.4149
 7808SOL    HW225025   2.281   2.023   4.359 -0.1572  2.6346  1.9499
 7809SOL     OW25026   5.435   4.904   2.637  0.6716  0.1789  0.4529
 7809SOL    HW125027   5.464   4.899   2.732  1.9925  0.1435  0.0629
 7809SOL    HW225028   5.422   4.812   2.601 -0.0796  0.1962  0.6593
 7810SOL     OW25029   2.049   3.119   3.635 -0.1978 -0.8090  0.3471
 7810SOL    HW125030   1.953   3.099   3.615 -1.0975  1.0865  2.3443
 7810SOL    HW225031   2.078   3.068   3.715  0.3253 -1.0456  0.0065
 7811SOL     OW25032   5.037   0.736   3.879  0.1200 -0.2461  0.7385
 7811SOL    HW125033   5.104   0.796   3.835  1.1119 -1.9902 -0.2517
 7811SOL    HW225034   5.034   0.649   3.831  0.9935 -2.1787  3.8896
 7812SOL     OW25035   2.124   3.300   3.307  0.0204  0.0637  0.0538
 7812SOL    HW125036   2.065   3.284   3.228  0.4832  1.4561 -0.6125
 7812SOL    HW225037   2.091   3.248   3.385 -2.2932  1.0404 -0.1964
 7813SOL     OW25038   5.275   6.705   1.475 -0.3453 -0.0582 -0.1710
 7813SOL    HW125039   5.238   6.754   1.554 -1.0559 -0.9813  0.0677
 7813SOL    HW225040   5.366   6.743   1.453 -0.7827  1.2234  0.1320
 7814SOL     OW25041   2.626   4.557   0.789 -0.2870  0.5005  0.3598
 7814SOL    HW125042   2.590   4.631   0.732  0.2165  1.0823  0.8017
 7814SOL    HW225043   2.625   4.472   0.736  2.9796  1.5494 -1.6395
 7815SOL     OW25044   4.192   1.358   6.295 -0.0663 -0.1718  0.3252
 7815SOL    HW125045   4.103   1.353   6.250 -1.1579  1.3784  2.1395
 7815SOL    HW225046   4.253   1.415   6.241 -0.2718 -0.9392 -0.7504
 7816SOL     OW25047   0.293   6.974   2.173 -0.1987  0.3185 -0.1086
 7816SOL    HW125048   0.279   6.875   2.183  1.4045 -0.1126 -1.5608
 7816SOL    HW225049   0.207   7.018   2.149 -0.6514 -0.9704 -0.9607
 7817SOL     OW25050   3.109   2.545   1.604 -0.2985  0.2381  0.0764
 7817SOL    HW125051   3.072   2.515   1.516  1.7235  0.0495 -0.7688
 7817SOL    HW225052   3.052   2.510   1.678 -1.6800 -0.1432 -1.1320
 7818SOL     OW25053   0.430   0.181   1.590 -0.2451  0.0277 -0.0440
 7818SOL    HW125054   0.466   0.109   1.650 -0.9129 -0.4998 -0.2808
 7818SOL    HW225055   0.333   0.195   1.609 -0.5953 -0.5259 -1.3948
 7819SOL     OW25056   1.837   1.192   4.989  0.4704 -0.7232  0.6816
 7819SOL    HW125057   1.807   1.152   5.076 -0.2762 -2.0092 -0.1406
 7819SOL    HW225058   1.927   1.157   4.966  0.7988 -0.1489  1.0744
 7820SOL     OW25059   2.885   3.233   1.330 -0.3336  0.9870 -0.0625
 7820SOL    HW125060   2.926   3.318   1.297 -1.0287  1.3182 -0.0946
 7820SOL    HW225061   2.861   3.243   1.426 -3.2023  1.9667 -0.7669
 7821SOL     OW25062   2.452   2.935   2.217  0.0616 -0.2126 -0.0402
 7821SOL    HW125063   2.367   2.911   2.263  0.7320 -1.6628  0.5343
 7821SOL    HW225064   2.451   3.031   2.192 -1.6151 -0.1306  0.2118
 7822SOL     OW25065   0.840   6.809   6.618  0.3105  0.0541  0.2821
 7822SOL    HW125066   0.907   6.880   6.595 -0.2208  0.1800 -0.9976
 7822SOL    HW225067   0.752   6.833   6.577 -0.2728 -0.5744  1.1606
 7823SOL     OW25068   0.365   5.302   5.337  0.3321 -0.5014 -0.5497
 7823SOL    HW125069   0.328   5.280   5.246  3.4305 -0.7383 -1.8680
 7823SOL    HW225070   0.418   5.386   5.331 -0.2471  0.0323  1.3370
 7824SOL     OW25071   3.886   4.183   1.635  0.2095  0.5537 -0.1218
 7824SOL    HW125072   3.928   4.138   1.557 -0.4223 -0.0830 -0.1045
 7824SOL    HW225073   3.903   4.281   1.629 -0.3666  0.6033 -1.4096
 7825SOL     OW25074   1.232   0.805   6.449 -0.8504  0.3458  0.2379
 7825SOL    HW125075   1.308   0.860   6.416 -0.0041 -1.5557 -1.1294
 7825SOL    HW225076   1.255   0.763   6.537 -0.7030  0.5233  0.2826
 7826SOL     OW25077   5.210   5.692   5.748 -0.0641  0.0986 -0.4431
 7826SOL    HW125078   5.133   5.646   5.705  0.1555 -0.6137 -0.1049
 7826SOL    HW225079   5.255   5.753   5.683 -0.1704 -0.4167 -1.0026
 7827SOL     OW25080   1.099   0.881   2.561 -0.3384 -0.0018 -0.1862
 7827SOL    HW125081   1.096   0.856   2.464 -0.1878 -0.7389 -0.0096
 7827SOL    HW225082   1.006   0.900   2.593 -0.5703 -1.1351 -0.1373
 7828SOL     OW25083   1.786   1.126   0.957  0.3237  0.4541 -0.4457
 7828SOL    HW125084   1.850   1.161   1.026  0.1322 -1.3804  0.7183
 7828SOL    HW225085   1.795   1.180   0.873  3.5597  0.1224 -0.4167
 7829SOL     OW25086   2.641   0.233   2.319 -0.2911 -0.0221  0.0274
 7829SOL    HW125087   2.578   0.169   2.276  0.8571 -1.7946  0.8841
 7829SOL    HW225088   2.694   0.186   2.389  1.4313  1.5794 -0.1117
 7830SOL     OW25089   6.742   4.376   3.630  0.0008 -0.6338  0.5345
 7830SOL    HW125090   6.800   4.296   3.645  0.3394 -0.2892  1.1158
 7830SOL    HW225091   6.648   4.346   3.612  0.6983 -1.3141 -2.5706
 7831SOL     OW25092   0.013   3.009   6.799 -0.2983  0.5200 -0.1197
 7831SOL    HW125093   0.054   2.976   6.714 -1.3871 -0.0527 -0.4500
 7831SOL    HW225094  -0.001   2.932   6.861  0.7733  0.9864  0.7140
 7832SOL     OW25095   3.665   0.381   2.007 -0.5210 -0.1483  0.4708
 7832SOL    HW125096   3.687   0.418   2.097  0.6583  1.8611 -0.5706
 7832SOL    HW225097   3.726   0.421   1.939 -2.5427 -0.2361 -1.4928
 7833SOL     OW25098   4.089   3.290   1.920  0.2854 -0.4992 -0.2447
 7833SOL    HW125099   4.073   3.290   2.018  2.5056 -2.6362  0.2396
 7833SOL    HW225100   4.113   3.382   1.890 -0.3107  0.1656  1.2368
 7834SOL     OW25101   0.939   1.794   2.630 -0.4041 -0.2366  0.0039
 7834SOL    HW125102   0.894   1.796   2.719 -0.7310  0.8429 -0.1748
 7834SOL    HW225103   0.994   1.877   2.618  0.4209 -0.8290 -0.4040
 7835SOL     OW25104   6.287   4.821   2.948 -0.0880 -0.1275 -0.2277
 7835SOL    HW125105   6.312   4.913   2.979 -0.8848 -0.3027  0.9823
 7835SOL    HW225106   6.363   4.758   2.967  0.6405  0.3489 -1.4748
 7836SOL     OW25107   2.696   2.246   4.144  0.2579 -0.3718 -0.2603
 7836SOL    HW125108   2.672   2.200   4.058 -0.2024  0.2892 -0.4876
 7836SOL    HW225109   2.616   2.294   4.180  1.2164  2.0085 -1.1134
 7837SOL     OW25110   3.581   6.752   3.701 -0.0652  0.3492  0.2415
 7837SOL    HW125111   3.605   6.794   3.613  0.2707  0.3883  0.3498
 7837SOL    HW225112   3.663   6.744   3.757 -0.1423 -0.3731  0.2595
 7838SOL     OW25113   1.814   1.962   6.599  0.2657 -0.2601 -0.2955
 7838SOL    HW125114   1.773   1.999   6.516 -0.7048 -0.0421  0.2616
 7838SOL    HW225115   1.836   2.036   6.662 -1.2300 -0.5390  0.6182
 7839SOL     OW25116   2.040   1.848   4.957 -0.5085 -0.1604 -0.0461
 7839SOL    HW125117   2.039   1.894   4.868 -0.1073 -0.7416 -0.3581
 7839SOL    HW225118   2.130   1.858   4.998 -0.3722 -0.7956 -0.1864
 7840SOL     OW25119   6.911   1.838   1.897  0.3389 -0.2120  0.2482
 7840SOL    HW125120   6.895   1.870   1.803 -0.7938  1.0609  0.8529
 7840SOL    HW225121   7.009   1.840   1.916  0.5564 -0.1462 -0.7803
 7841SOL     OW25122   4.198   5.402   3.422 -0.0922 -0.2222  0.1351
 7841SOL    HW125123   4.257   5.335   3.378  0.5425  0.2562  0.2300
 7841SOL    HW225124   4.223   5.410   3.519 -0.3270 -0.0305  0.1823
 7842SOL     OW25125   6.712   6.739   6.083 -0.0743 -0.4069  0.5418
 7842SOL    HW125126   6.783   6.674   6.058  0.4392 -0.2776  1.6081
 7842SOL    HW225127   6.751   6.812   6.139 -0.6765  0.7302 -0.4685
 7843SOL     OW25128   5.209   3.427   0.048  0.0765 -0.2542  0.7491
 7843SOL    HW125129   5.168   3.345   0.089 -0.4854 -0.2356  0.2411
 7843SOL    HW225130   5.287   3.400  -0.009  0.1381 -0.3929  0.8960
 7844SOL     OW25131   3.491   0.922   3.326  0.6944  0.0271  0.1474
 7844SOL    HW125132   3.424   0.927   3.251 -1.3077 -0.2866  1.8166
 7844SOL    HW225133   3.527   1.013   3.346 -0.5219  0.4960  0.2893
 7845SOL     OW25134   1.491   6.966   5.613  0.0503 -0.1555  0.4539
 7845SOL    HW125135   1.399   7.004   5.607  0.9745  2.3069  0.9606
 7845SOL    HW225136   1.530   6.957   5.521  0.5152  2.0847  0.3764
 7846SOL     OW25137   1.318   5.169   1.700  0.0160 -0.4445 -0.0589
 7846SOL    HW125138   1.316   5.262   1.737 -1.6286 -0.9553  1.2876
 7846SOL    HW225139   1.391   5.161   1.632  0.3405  1.7469 -0.0265
 7847SOL     OW25140   1.971   3.793   6.595 -0.7553 -0.1414  0.7727
 7847SOL    HW125141   2.017   3.757   6.677  0.5708 -0.1573  0.0419
 7847SOL    HW225142   1.889   3.738   6.577 -1.9186  0.7505  2.8970
 7848SOL     OW25143   3.633   0.998   2.849 -0.2956 -0.1751  0.2170
 7848SOL    HW125144   3.538   1.022   2.832 -0.9787 -2.4821  0.3754
 7848SOL    HW225145   3.637   0.924   2.916  1.6501  0.1528  0.5297
 7849SOL     OW25146   2.269   5.575   6.354  0.7314  0.6972 -0.1591
 7849SOL    HW125147   2.173   5.549   6.345  1.1442 -0.2749 -2.6752
 7849SOL    HW225148   2.303   5.546   6.443 -0.5545 -1.7061 -0.3564
 7850SOL     OW25149   5.819   3.408   6.323  0.0830 -0.6506  0.1456
 7850SOL    HW125150   5.780   3.317   6.340 -0.1763 -0.6867 -0.6220
 7850SOL    HW225151   5.757   3.478   6.360 -0.2019 -0.7521 -0.1288
 7851SOL     OW25152   2.253   3.196   5.195  0.2510 -0.6011  0.2329
 7851SOL    HW125153   2.224   3.291   5.179  0.1512 -0.7605 -0.6056
 7851SOL    HW225154   2.181   3.147   5.244 -0.9768 -0.9880 -1.8057
 7852SOL     OW25155   2.211   5.763   2.687 -1.0257 -0.1893 -0.9687
 7852SOL    HW125156   2.116   5.751   2.658 -1.0488 -0.3732 -0.8134
 7852SOL    HW225157   2.215   5.830   2.761 -1.1025 -0.6281 -0.5623
 7853SOL     OW25158   6.715   6.452   4.523  0.3697 -0.6315 -0.0961
 7853SOL    HW125159   6.793   6.395   4.496  0.6344  0.0091 -0.7173
 7853SOL    HW225160   6.722   6.541   4.478  0.4646  0.2416  1.5911
 7854SOL     OW25161   3.405   6.978   1.504  0.1595 -0.3667 -0.2470
 7854SOL    HW125162   3.502   7.003   1.510  0.5537 -1.7429 -0.6397
 7854SOL    HW225163   3.349   7.059   1.523  1.3601  1.5303 -3.8191
 7855SOL     OW25164   5.744   2.724   1.601  0.5810 -0.4696  0.6235
 7855SOL    HW125165   5.707   2.816   1.609  2.4725  0.3247  0.7617
 7855SOL    HW225166   5.708   2.680   1.518  0.7627  0.9498 -0.2327
 7856SOL     OW25167   4.572   2.059   3.466  0.2640 -0.1679  0.4756
 7856SOL    HW125168   4.492   2.105   3.428  0.1462 -0.6086  0.1846
 7856SOL    HW225169   4.652   2.081   3.411  0.3482  0.2687  0.7636
 7857SOL     OW25170   2.719   2.234   6.182  0.6397  0.3208 -0.7919
 7857SOL    HW125171   2.691   2.194   6.269 -0.1990  0.7336 -0.8586
 7857SOL    HW225172   2.738   2.332   6.195  1.5133  0.1746 -0.8737
 7858SOL     OW25173   2.944   0.231   4.366 -0.2933 -0.6629 -0.2390
 7858SOL    HW125174   2.858   0.197   4.330  0.5404 -1.8522 -1.2058
 7858SOL    HW225175   2.977   0.306   4.309 -0.3173 -0.7226 -0.3324
 7859SOL     OW25176   0.555   3.056   4.372 -0.4258  0.3911 -0.2286
 7859SOL    HW125177   0.503   2.990   4.319  0.4633  0.9073 -1.7878
 7859SOL    HW225178   0.492   3.107   4.431 -1.4090 -0.3274 -0.6285
 7860SOL     OW25179   0.103   4.383   2.201 -0.6271 -0.4243  0.4951
 7860SOL    HW125180   0.155   4.427   2.128 -1.1486  0.5537  0.7046
 7860SOL    HW225181   0.119   4.284   2.198 -0.9345 -0.4532 -1.1800
 7861SOL     OW25182   3.348   0.011   3.202  0.3145 -0.2715 -0.2554
 7861SOL    HW125183   3.420   0.014   3.271 -1.1996 -0.2497  1.3677
 7861SOL    HW225184   3.262  -0.015   3.244 -0.8010  0.3718 -2.0297
 7862SOL     OW25185   0.708   7.003   7.012  0.8057  0.2540 -0.4472
 7862SOL    HW125186   0.630   6.943   7.027 -0.1273  1.1267 -1.5980
 7862SOL    HW225187   0.788   6.949   6.989  0.4242 -0.6339  0.2759
 7863SOL     OW25188   4.392   4.936   1.981 -0.4637 -0.5129 -0.2601
 7863SOL    HW125189   4.305   4.931   1.933 -0.8884 -0.7089  0.5304
 7863SOL    HW225190   4.398   4.863   2.049  0.5588 -0.8668 -0.6910
 7864SOL     OW25191   6.032   2.552   3.241  0.2781  0.3118  0.0023
 7864SOL    HW125192   5.954   2.493   3.259 -0.0247  0.8488  0.4651
 7864SOL    HW225193   6.013   2.610   3.162  0.2350  0.3949  0.0735
 7865SOL     OW25194   1.482   1.947   0.736  0.2580 -0.5419  0.3879
 7865SOL    HW125195   1.507   2.044   0.746 -0.5735 -0.3217  0.3680
 7865SOL    HW225196   1.493   1.901   0.824  0.8984 -0.4930  0.3396
 7866SOL     OW25197   0.118   5.838   3.888 -0.2415 -0.1119 -0.1853
 7866SOL    HW125198   0.139   5.744   3.864  0.2302 -0.0295 -0.1051
 7866SOL    HW225199   0.026   5.862   3.855 -0.5421 -0.7330  0.1865
 7867SOL     OW25200   2.147   6.502   3.093  0.2106 -0.1530 -0.6307
 7867SOL    HW125201   2.175   6.451   3.174  0.3112 -0.6296 -0.9604
 7867SOL    HW225202   2.088   6.578   3.120  0.2578 -0.2983 -0.1129
 7868SOL     OW25203   1.544   5.272   4.777 -0.6364  0.2048  0.3231
 7868SOL    HW125204   1.553   5.185   4.729  1.4423  0.8123 -0.4840
 7868SOL    HW225205   1.516   5.343   4.713 -0.0274  0.5874  0.4772
 7869SOL     OW25206   2.685   6.403   4.021  0.3186 -0.6647 -0.3911
 7869SOL    HW125207   2.616   6.363   4.081 -2.1256  4.0861  0.4172
 7869SOL    HW225208   2.641   6.440   3.939  2.2709  0.4862 -0.9953
 7870SOL     OW25209   5.227   1.406   1.457 -0.1831  0.6475 -0.0338
 7870SOL    HW125210   5.245   1.316   1.498  0.5863  1.0511  0.5328
 7870SOL    HW225211   5.158   1.396   1.385 -1.5457 -0.0833  1.3265
 7871SOL     OW25212   4.502   5.606   6.052 -0.1623 -0.2774 -0.0602
 7871SOL    HW125213   4.549   5.691   6.075 -0.9553  0.0160  0.5218
 7871SOL    HW225214   4.416   5.627   6.005  0.3467 -0.8097 -1.2798
 7872SOL     OW25215   1.686   3.752   0.394  0.4903  0.0755 -0.5629
 7872SOL    HW125216   1.696   3.713   0.485 -0.1318  0.1016 -0.4808
 7872SOL    HW225217   1.589   3.766   0.374  0.6897  1.4651 -0.6410
 7873SOL     OW25218   6.197   2.594   0.105 -0.0745 -0.3024 -0.0857
 7873SOL    HW125219   6.112   2.541   0.109  0.2465 -0.7357  2.0491
 7873SOL    HW225220   6.175   2.692   0.106 -0.5651 -0.4078  1.1803
 7874SOL     OW25221   5.465   6.475   4.210 -0.1348  0.1299  0.2865
 7874SOL    HW125222   5.548   6.420   4.225 -0.6144 -0.6233  0.2613
 7874SOL    HW225223   5.481   6.568   4.242  1.1788  0.3810 -0.9792
 7875SOL     OW25224   1.811   2.611   0.091  0.2301 -0.4347  0.4875
 7875SOL    HW125225   1.723   2.659   0.081 -1.0585 -2.7900 -0.4865
 7875SOL    HW225226   1.870   2.634   0.014  0.9964  2.0219  1.7085
 7876SOL     OW25227   1.635   3.621   3.139  0.1905  0.3181  0.0527
 7876SOL    HW125228   1.581   3.557   3.085 -0.1698 -0.0121  0.7831
 7876SOL    HW225229   1.594   3.631   3.230  1.4145 -0.0235  0.6639
 7877SOL     OW25230   3.713   5.967   2.935  0.0852  0.1801 -0.0621
 7877SOL    HW125231   3.658   5.925   2.862 -0.2406  0.2389  0.1446
 7877SOL    HW225232   3.691   6.065   2.940 -0.0414  0.1378  0.2434
 7878SOL     OW25233   2.335   6.087   3.123 -0.2598  0.4898  0.8594
 7878SOL    HW125234   2.324   6.184   3.140 -0.4065  0.5773  0.2988
 7878SOL    HW225235   2.415   6.052   3.172  1.4133  1.4622 -1.0040
 7879SOL     OW25236   4.272   0.360   1.557 -0.1001  0.2633  0.0525
 7879SOL    HW125237   4.284   0.458   1.572 -1.6787  0.5292 -0.2323
 7879SOL    HW225238   4.198   0.326   1.616  1.9985 -1.2903  1.9470
 7880SOL     OW25239   1.117   0.420   3.014  0.5400 -0.0448 -0.3098
 7880SOL    HW125240   1.045   0.455   3.075 -0.0447  0.8479 -1.4593
 7880SOL    HW225241   1.138   0.490   2.945  1.1447 -1.0476 -1.1642
 7881SOL     OW25242   1.452   2.622   6.485  0.7151  0.4971 -0.3826
 7881SOL    HW125243   1.505   2.621   6.400  1.1997 -1.3563 -0.0966
 7881SOL    HW225244   1.393   2.542   6.488 -0.9115  1.6506  0.0875
 7882SOL     OW25245   1.928   5.149   4.186  0.4428  0.1583  0.3766
 7882SOL    HW125246   1.828   5.158   4.188  0.5275  1.0233  1.6982
 7882SOL    HW225247   1.954   5.059   4.221  0.1250 -0.2536 -0.4099
 7883SOL     OW25248   4.403   2.411   5.776  0.2049 -0.2612 -0.0110
 7883SOL    HW125249   4.404   2.437   5.872 -2.7183  0.8821 -0.2086
 7883SOL    HW225250   4.357   2.322   5.765 -0.1042 -0.0604 -0.3977
 7884SOL     OW25251   5.250   4.826   3.370 -0.1213  0.4720  0.8392
 7884SOL    HW125252   5.342   4.850   3.337 -0.6239  2.1211  0.5199
 7884SOL    HW225253   5.186   4.898   3.343 -1.6191 -0.8857  0.6319
 7885SOL     OW25254   3.153   1.132   4.155  0.1264  0.6806 -0.3455
 7885SOL    HW125255   3.082   1.181   4.105  0.2792 -0.6577 -1.9760
 7885SOL    HW225256   3.120   1.041   4.178  0.9774  0.3838 -0.2848
 7886SOL     OW25257   1.643   2.785   2.380  0.5340 -0.2581  0.0790
 7886SOL    HW125258   1.709   2.850   2.343 -0.6371  0.2732 -1.1524
 7886SOL    HW225259   1.555   2.797   2.335  0.8128 -4.2734 -1.9958
 7887SOL     OW25260   6.497   6.430   0.308  0.5113 -0.5800  0.6889
 7887SOL    HW125261   6.437   6.505   0.334  0.2564 -0.3588 -0.4685
 7887SOL    HW225262   6.592   6.460   0.314  0.4050 -0.0810  0.0301
 7888SOL     OW25263   2.844   1.579   3.055  0.3195 -0.0796 -0.5211
 7888SOL    HW125264   2.856   1.520   2.975 -0.1330  1.1949 -1.5655
 7888SOL    HW225265   2.851   1.675   3.027 -0.9662  0.4281  0.7774
 7889SOL     OW25266   0.808   0.523   5.162  0.0556  0.9205  0.1847
 7889SOL    HW125267   0.833   0.617   5.188 -0.0902  0.9134  0.3480
 7889SOL    HW225268   0.727   0.526   5.104 -0.0730  0.8771  0.3654
 7890SOL     OW25269   5.490   5.586   2.395  0.3267 -0.1489  0.0473
 7890SOL    HW125270   5.565   5.653   2.389  0.3409 -0.2120 -0.6012
 7890SOL    HW225271   5.508   5.511   2.332 -0.4372 -0.0108 -0.3485
 7891SOL     OW25272   4.551   4.962   0.658  0.0573  0.0834 -0.5615
 7891SOL    HW125273   4.522   4.877   0.615 -2.8510  2.1098 -3.0011
 7891SOL    HW225274   4.624   5.003   0.603  0.9195 -0.3883  0.1932
 7892SOL     OW25275   1.179   1.239   4.522  0.0622  0.6579 -0.1915
 7892SOL    HW125276   1.268   1.234   4.568 -0.5262  0.1266  0.9495
 7892SOL    HW225277   1.140   1.330   4.535 -0.2346  0.4247  0.6806
 7893SOL     OW25278   0.151   1.042   0.432  0.4840  0.1386  0.3026
 7893SOL    HW125279   0.132   0.963   0.490 -0.5613  1.7630  2.3297
 7893SOL    HW225280   0.207   1.014   0.354  0.9061 -2.3967  1.4162
 7894SOL     OW25281   0.518   0.186   5.352 -0.5558 -0.1685 -0.7277
 7894SOL    HW125282   0.535   0.091   5.325 -1.4123 -0.8883  1.0368
 7894SOL    HW225283   0.420   0.199   5.368 -0.4213  0.9655 -0.7290
 7895SOL     OW25284   4.763   5.887   3.508  0.1294  0.1407 -0.1590
 7895SOL    HW125285   4.703   5.847   3.440 -0.2362  0.5651 -0.0900
 7895SOL    HW225286   4.713   5.955   3.561  0.8936  1.1230 -0.6677
 7896SOL     OW25287   1.693   3.888   4.399  0.6431  0.2257 -0.2655
 7896SOL    HW125288   1.711   3.812   4.461  0.2912 -1.0610 -1.6928
 7896SOL    HW225289   1.597   3.917   4.409  0.2550 -0.7482 -0.9893
 7897SOL     OW25290   1.463   1.385   2.007 -0.2371  0.5381 -0.0706
 7897SOL    HW125291   1.397   1.355   2.076 -1.1177  4.2240  0.8996
 7897SOL    HW225292   1.546   1.418   2.051  0.5980 -0.2305 -1.0295
 7898SOL     OW25293   6.648   0.226   4.092  0.4878 -0.1390 -0.2043
 7898SOL    HW125294   6.747   0.236   4.097  0.6394 -0.5410 -1.8202
 7898SOL    HW225295   6.609   0.305   4.046  0.2811 -0.7837 -1.1877
 7899SOL     OW25296   6.438   6.743   6.130 -0.1308  0.1898  0.0244
 7899SOL    HW125297   6.402   6.649   6.137 -0.1357  0.2125  0.3031
 7899SOL    HW225298   6.536   6.739   6.111  0.0594  0.1244  0.9866
 7900SOL     OW25299   4.208   0.649   4.044  0.6826 -0.6141 -0.0769
 7900SOL    HW125300   4.222   0.597   3.960 -1.7687  1.4127 -1.8729
 7900SOL    HW225301   4.130   0.612   4.094  0.7993 -0.4858  0.2049
 7901SOL     OW25302   1.072   5.574   4.162  0.1131  0.7285  0.4044
 7901SOL    HW125303   1.063   5.669   4.192  1.6393  1.4050 -1.1556
 7901SOL    HW225304   1.162   5.560   4.120 -0.6807 -1.0019 -0.8397
 7902SOL     OW25305   5.603   0.016   2.310  0.2519 -0.8678  0.2607
 7902SOL    HW125306   5.563   0.061   2.231  3.3243  2.0521  0.1372
 7902SOL    HW225307   5.657  -0.062   2.281  0.7874 -0.2374 -0.4526
 7903SOL     OW25308   1.408   6.341   2.020  0.2734 -0.1604 -0.0053
 7903SOL    HW125309   1.482   6.279   1.994  0.2379 -0.3865  0.4079
 7903SOL    HW225310   1.338   6.342   1.949  1.0312  0.6408 -0.7421
 7904SOL     OW25311   4.549   1.206   2.759 -1.0323 -0.4458 -0.5765
 7904SOL    HW125312   4.601   1.174   2.838  0.0197  0.8436 -0.7048
 7904SOL    HW225313   4.570   1.147   2.680  0.2750  0.0383 -0.6257
 7905SOL     OW25314   1.368   0.994   6.234  0.2969 -0.1353 -0.1041
 7905SOL    HW125315   1.358   1.011   6.332 -1.6085 -2.4270  0.1867
 7905SOL    HW225316   1.460   0.958   6.216  0.7813  0.6201  0.7712
 7906SOL     OW25317   0.280   4.444   4.677 -0.8050 -0.2321  0.7403
 7906SOL    HW125318   0.205   4.479   4.734 -0.7064 -0.2577  0.8859
 7906SOL    HW225319   0.263   4.348   4.656 -0.0415 -0.6960  2.0802
 7907SOL     OW25320   0.551   4.298   2.956 -0.7038  0.4151 -0.0462
 7907SOL    HW125321   0.603   4.350   3.024  0.5303  0.1744 -0.7794
 7907SOL    HW225322   0.495   4.360   2.902 -0.4923  0.7945  0.1692
 7908SOL     OW25323   0.675   5.699   5.196  0.4052  0.1212 -0.2068
 7908SOL    HW125324   0.701   5.628   5.130 -0.2668 -0.2383 -0.0943
 7908SOL    HW225325   0.637   5.777   5.148  1.3462  0.5069 -0.3473
 7909SOL     OW25326   6.056   2.098   1.681 -0.0574 -0.0514 -0.1722
 7909SOL    HW125327   5.963   2.121   1.653  1.0676  1.4670 -3.1164
 7909SOL    HW225328   6.105   2.056   1.605  2.3411  1.3805  0.4438
 7910SOL     OW25329   5.483   4.601   6.852 -0.1141 -0.0362 -0.2627
 7910SOL    HW125330   5.527   4.543   6.784  0.5307  0.2678 -0.1155
 7910SOL    HW225331   5.384   4.587   6.849 -0.0421 -0.4626 -0.8500
 7911SOL     OW25332   3.865   4.975   1.822  0.2495  0.0459  0.2404
 7911SOL    HW125333   3.846   4.989   1.724  0.9258 -1.2820 -0.1005
 7911SOL    HW225334   3.828   4.887   1.850 -1.1481  1.0067  1.5444
 7912SOL     OW25335   6.558   2.853   3.349 -0.2146 -0.2660 -0.1068
 7912SOL    HW125336   6.556   2.843   3.249  0.4058 -1.2437 -0.0268
 7912SOL    HW225337   6.528   2.945   3.373 -2.1292 -0.5876 -1.0961
 7913SOL     OW25338   6.672   4.502   2.395 -0.2675 -0.5324 -0.2209
 7913SOL    HW125339   6.724   4.458   2.468 -1.0527 -0.9637  0.0954
 7913SOL    HW225340   6.735   4.541   2.328  0.4580 -0.7782  0.3010
 7914SOL     OW25341   0.748   5.543   4.401  0.1923 -0.2549  0.1231
 7914SOL    HW125342   0.829   5.554   4.458  1.2870  0.7934 -1.5523
 7914SOL    HW225343   0.770   5.486   4.322 -1.2331 -1.5064  0.5752
 7915SOL     OW25344   0.590   2.036   6.113 -0.2549 -0.1091 -1.0280
 7915SOL    HW125345   0.527   1.982   6.169 -0.6866  1.0845 -0.3480
 7915SOL    HW225346   0.673   1.982   6.097 -0.8247 -1.1279 -0.6978
 7916SOL     OW25347   3.611   6.510   4.808 -0.4379 -0.1819  0.0538
 7916SOL    HW125348   3.709   6.526   4.823 -0.2890 -1.2138  0.2912
 7916SOL    HW225349   3.558   6.581   4.853  0.1911  0.1005  0.3625
 7917SOL     OW25350   6.361   2.567   2.280  0.2318 -0.3223 -0.3100
 7917SOL    HW125351   6.455   2.589   2.254 -0.2991  0.9497 -1.2729
 7917SOL    HW225352   6.300   2.639   2.247 -0.8703 -0.1604  1.8829
 7918SOL     OW25353   1.276   3.454   2.479  0.5199 -0.2548 -0.3557
 7918SOL    HW125354   1.315   3.546   2.481  1.2609 -0.5525 -0.7550
 7918SOL    HW225355   1.188   3.454   2.526  0.6626  0.5894 -0.0743
 7919SOL     OW25356   4.103   6.105   0.084  0.6381  0.2463 -0.7324
 7919SOL    HW125357   4.195   6.084   0.051  0.6381 -0.1035 -0.5156
 7919SOL    HW225358   4.064   6.179   0.030  0.6332 -0.3139 -1.5100
 7920SOL     OW25359   1.174   0.164   5.009 -0.7121  0.2261 -0.2090
 7920SOL    HW125360   1.075   0.156   5.000 -1.0029  2.8355 -0.1503
 7920SOL    HW225361   1.217   0.141   4.922 -1.4748  0.3783 -0.6381
 7921SOL     OW25362   3.362   1.200   5.002  0.0852 -0.6773  0.2923
 7921SOL    HW125363   3.424   1.242   4.936  0.6559 -1.9017  0.0151
 7921SOL    HW225364   3.334   1.110   4.969 -2.1151 -0.0572  0.2572
 7922SOL     OW25365   0.016   1.442   4.379  0.6136 -0.3590 -0.7103
 7922SOL    HW125366  -0.051   1.367   4.379 -2.4615  2.1607 -0.6941
 7922SOL    HW225367   0.034   1.470   4.474  0.8722 -0.3546 -0.7606
 7923SOL     OW25368   2.767   5.115   0.617 -0.1433  0.2605 -0.8143
 7923SOL    HW125369   2.745   5.113   0.520 -1.5483  3.3925 -0.6806
 7923SOL    HW225370   2.707   5.180   0.664  0.6589 -0.9457  2.1307
 7924SOL     OW25371   2.727   2.299   0.163  0.9318  0.1757  0.0291
 7924SOL    HW125372   2.701   2.290   0.067 -0.0428 -0.3165  0.3184
 7924SOL    HW225373   2.676   2.375   0.204  0.7815 -0.0971  0.3444
 7925SOL     OW25374   1.933   0.395   6.735 -0.0521  0.2760 -0.3573
 7925SOL    HW125375   1.943   0.495   6.728  1.9598  0.2236  0.8930
 7925SOL    HW225376   1.921   0.370   6.831 -1.4501 -0.6439 -0.7530
 7926SOL     OW25377   4.636   2.144   0.991  0.6029  0.1149  0.8514
 7926SOL    HW125378   4.696   2.218   1.019  1.0310  0.5661 -1.0912
 7926SOL    HW225379   4.681   2.056   1.007  1.6662  0.4320 -0.2327
 7927SOL     OW25380   5.799   0.796   7.020 -1.0896 -0.0733  0.0535
 7927SOL    HW125381   5.813   0.787   6.921 -1.9493  1.6640 -0.2616
 7927SOL    HW225382   5.772   0.708   7.058 -0.0667 -0.9347 -1.1308
 7928SOL     OW25383   5.126   3.448   1.680 -0.2963  0.0503  0.4194
 7928SOL    HW125384   5.120   3.351   1.703 -0.3799  0.0232  0.2839
 7928SOL    HW225385   5.040   3.494   1.702 -0.3229  0.0554  0.3064
 7929SOL     OW25386   6.649   4.158   0.986  0.1863  0.0797  0.7057
 7929SOL    HW125387   6.632   4.181   0.891  0.1255 -1.2396  0.3847
 7929SOL    HW225388   6.694   4.235   1.031  0.1762  0.7329 -0.3706
 7930SOL     OW25389   0.960   3.067   6.759 -0.0067 -0.4487 -0.5215
 7930SOL    HW125390   1.012   2.983   6.777  0.9877  0.2856  0.0995
 7930SOL    HW225391   1.005   3.145   6.802 -0.6108  0.5108 -1.5602
 7931SOL     OW25392   1.068   0.460   4.540  0.3632  0.7158  0.5107
 7931SOL    HW125393   0.996   0.503   4.595 -0.9466 -0.7529  0.0287
 7931SOL    HW225394   1.068   0.361   4.557  2.1611  0.6535  0.3339
 7932SOL     OW25395   4.433   2.769   1.807  0.5731  0.3009 -0.2005
 7932SOL    HW125396   4.338   2.785   1.778  0.1537  0.2570  1.0727
 7932SOL    HW225397   4.466   2.850   1.855  0.2688 -0.6157  1.6392
 7933SOL     OW25398   4.638   0.853   4.753  0.2532 -0.6256 -0.5703
 7933SOL    HW125399   4.716   0.821   4.806  0.5063  0.4480 -0.2557
 7933SOL    HW225400   4.664   0.862   4.657  0.5914 -0.0719 -0.4317
 7934SOL     OW25401   6.373   3.101   0.849 -0.5008  0.0755  0.1128
 7934SOL    HW125402   6.427   3.030   0.803  0.0809  0.8253 -0.3717
 7934SOL    HW225403   6.431   3.151   0.913 -1.0094 -0.1312  0.7561
 7935SOL     OW25404   3.193   2.526   2.509  0.3835  0.0490 -0.3068
 7935SOL    HW125405   3.261   2.512   2.581  0.4975  0.0005 -0.4243
 7935SOL    HW225406   3.220   2.476   2.427 -0.4441 -1.0530  0.0550
 7936SOL     OW25407   3.509   4.874   5.728 -0.0184  0.2028 -0.5100
 7936SOL    HW125408   3.456   4.833   5.801  0.6659  1.8258  0.9928
 7936SOL    HW225409   3.448   4.918   5.662 -0.6226  2.0197  1.1734
 7937SOL     OW25410   5.173   4.000   1.953  0.3383 -0.3487  0.1023
 7937SOL    HW125411   5.189   4.064   2.029  0.0790 -1.2037  0.9062
 7937SOL    HW225412   5.164   3.908   1.990 -1.9871 -0.5092 -0.7515
 7938SOL     OW25413   0.311   3.648   0.836 -0.1899 -0.2152 -0.2973
 7938SOL    HW125414   0.356   3.727   0.878 -1.9751 -0.2138  1.7863
 7938SOL    HW225415   0.301   3.575   0.904 -1.6041 -0.9290 -1.2232
 7939SOL     OW25416   0.935   4.738   3.405 -0.3422 -0.3887  0.2565
 7939SOL    HW125417   1.024   4.713   3.443  0.9520  2.6584 -0.4572
 7939SOL    HW225418   0.935   4.724   3.307 -0.0986  0.9038  0.0519
 7940SOL     OW25419   2.898   6.225   5.986  0.0665  0.2060  0.1697
 7940SOL    HW125420   2.989   6.205   6.021  1.3252  2.5007 -1.5246
 7940SOL    HW225421   2.897   6.217   5.886 -1.7259 -0.2145  0.1798
 7941SOL     OW25422   3.864   3.078   3.918 -0.1493  0.4877  0.0916
 7941SOL    HW125423   3.877   3.168   3.877 -1.0421  0.4368 -0.3263
 7941SOL    HW225424   3.953   3.038   3.940  0.2700  1.2765 -0.1314
 7942SOL     OW25425   6.084   4.980   6.311 -0.6680 -0.8094  0.0311
 7942SOL    HW125426   6.104   5.060   6.256 -0.0554 -1.1546 -0.2702
 7942SOL    HW225427   6.049   5.008   6.400 -0.5273 -0.2132 -0.0990
 7943SOL     OW25428   5.282   5.498   1.208 -0.3451 -0.2080 -0.3917
 7943SOL    HW125429   5.242   5.499   1.299 -0.0300 -0.7522 -0.2396
 7943SOL    HW225430   5.373   5.540   1.211 -1.2499  1.9178 -0.9240
 7944SOL     OW25431   6.419   6.740   1.340 -0.1972  0.0684  0.4872
 7944SOL    HW125432   6.472   6.664   1.378 -0.1076  0.3130  0.8549
 7944SOL    HW225433   6.323   6.711   1.330  0.1614 -0.6741 -1.0263
 7945SOL     OW25434   5.557   3.557   4.936  0.1661 -0.3873  0.2749
 7945SOL    HW125435   5.523   3.534   5.027 -1.0130 -0.1481 -0.0842
 7945SOL    HW225436   5.485   3.604   4.885  0.5283 -1.2212 -1.0595
 7946SOL     OW25437   3.373   1.053   2.808  0.6967  0.3955  0.3280
 7946SOL    HW125438   3.312   1.030   2.884 -0.5726 -0.3472 -0.8578
 7946SOL    HW225439   3.318   1.078   2.728  1.9746  0.3441 -0.6010
 7947SOL     OW25440   0.393   2.264   1.030  0.1255  0.2717 -0.4037
 7947SOL    HW125441   0.310   2.254   0.977  0.3592  2.1150 -1.2194
 7947SOL    HW225442   0.450   2.336   0.989  1.9764 -0.7253  0.3014
 7948SOL     OW25443   0.452   1.541   4.393  0.0999  0.2353 -0.2910
 7948SOL    HW125444   0.545   1.523   4.424  0.5478 -0.1207 -1.7571
 7948SOL    HW225445   0.387   1.521   4.467  1.1693  0.4829  0.7385
 7949SOL     OW25446   6.305   3.290   3.874  0.1982 -0.3066  0.6189
 7949SOL    HW125447   6.316   3.268   3.971  0.7771 -1.3927  0.3291
 7949SOL    HW225448   6.350   3.378   3.855  0.5359 -0.3369  1.2349
 7950SOL     OW25449   3.063   2.712   5.553 -0.3170  0.6952  0.3222
 7950SOL    HW125450   3.040   2.646   5.624 -1.5972 -0.5491 -1.1441
 7950SOL    HW225451   3.049   2.669   5.463 -2.0353  3.2075 -0.7219
 7951SOL     OW25452   1.021   3.394   3.567 -0.1288  0.0060 -0.0778
 7951SOL    HW125453   1.082   3.320   3.538 -1.3360 -0.7566 -0.7466
 7951SOL    HW225454   0.958   3.360   3.638 -0.1599  0.6279  0.2047
 7952SOL     OW25455   4.970   5.313   6.481 -0.1696 -0.4651  0.3615
 7952SOL    HW125456   5.052   5.357   6.444 -0.3230  0.2834  0.8742
 7952SOL    HW225457   4.958   5.341   6.577 -0.3730 -1.5122  0.6497
 7953SOL     OW25458   6.161   4.785   6.702  0.7839 -0.4983 -0.6818
 7953SOL    HW125459   6.077   4.759   6.749 -0.2277  1.2639 -1.4330
 7953SOL    HW225460   6.215   4.703   6.684 -1.8727 -2.0412 -2.3013
 7954SOL     OW25461   0.889   2.854   2.342  0.4678  0.4945  0.6410
 7954SOL    HW125462   0.907   2.947   2.310  0.1670  0.7975  1.3056
 7954SOL    HW225463   0.834   2.805   2.275  0.0048  1.0502  0.6032
 7955SOL     OW25464   6.897   0.043   1.838  0.5000 -0.1065 -0.2587
 7955SOL    HW125465   6.863   0.111   1.773 -1.4970 -0.8705 -0.0748
 7955SOL    HW225466   6.954  -0.023   1.791 -0.0219 -0.0199 -1.0314
 7956SOL     OW25467   6.390   3.830   0.713 -0.2917  0.6037  0.8315
 7956SOL    HW125468   6.298   3.810   0.748  0.3572 -0.4382  2.0730
 7956SOL    HW225469   6.405   3.929   0.714 -1.8889  0.9247 -0.8053
 7957SOL     OW25470   0.481   4.180   5.596  0.2779 -0.4667 -0.1386
 7957SOL    HW125471   0.461   4.268   5.553 -0.1913 -1.1842 -1.4268
 7957SOL    HW225472   0.564   4.188   5.651  0.2854  0.7572 -0.3089
 7958SOL     OW25473   0.115   0.403   1.947  0.6088 -0.1314  0.3282
 7958SOL    HW125474   0.025   0.380   1.985  0.0548  0.6603 -0.4866
 7958SOL    HW225475   0.181   0.334   1.976  0.1046  0.1398  2.2886
 7959SOL     OW25476   0.283   1.945   4.176 -0.0459 -0.5002 -0.2960
 7959SOL    HW125477   0.290   1.890   4.093 -0.7730 -0.1644 -0.5907
 7959SOL    HW225478   0.189   1.941   4.210 -0.1950  0.8236 -0.5171
 7960SOL     OW25479   1.809   6.654   5.132  0.1676  0.2392  0.1582
 7960SOL    HW125480   1.836   6.747   5.157 -0.8153  0.9480 -1.2953
 7960SOL    HW225481   1.785   6.602   5.214 -0.0970  1.5307  0.9155
 7961SOL     OW25482   3.210   0.173   3.664  0.2921  0.3378  0.2702
 7961SOL    HW125483   3.118   0.135   3.675  0.4377 -0.7394 -1.6541
 7961SOL    HW225484   3.218   0.258   3.716 -1.7968  0.4829  0.4529
 7962SOL     OW25485   2.319   5.378   4.842  0.2854  0.1732 -0.5508
 7962SOL    HW125486   2.251   5.311   4.812  1.0849 -0.0473 -1.9320
 7962SOL    HW225487   2.311   5.461   4.788 -1.8619  1.9859  2.2945
 7963SOL     OW25488   5.060   6.485   2.558  0.0186  0.0798  0.1865
 7963SOL    HW125489   5.015   6.398   2.576  0.7859 -0.1604  1.0562
 7963SOL    HW225490   5.019   6.528   2.478 -1.0783 -0.5795  0.3707
 7964SOL     OW25491   6.470   4.040   3.378  0.0024 -0.1340  0.2681
 7964SOL    HW125492   6.504   4.046   3.284 -0.8480  0.2498 -0.0223
 7964SOL    HW225493   6.429   3.950   3.393 -0.9286  0.2142 -0.1087
 7965SOL     OW25494   4.285   6.017   2.975  0.5265  0.8028  0.1191
 7965SOL    HW125495   4.250   5.936   2.927  2.5474  1.0673 -1.9562
 7965SOL    HW225496   4.236   6.028   3.062 -2.1970 -0.6294 -1.1165
 7966SOL     OW25497   1.324   5.438   4.338  0.0269 -0.0846 -0.6364
 7966SOL    HW125498   1.390   5.428   4.263  1.1625 -0.4157  0.3765
 7966SOL    HW225499   1.292   5.533   4.342 -0.9573 -0.3130 -2.2569
 7967SOL     OW25500   4.636   2.017   4.971 -0.1039 -0.3507  0.4675
 7967SOL    HW125501   4.540   1.990   4.979  0.1077 -0.8105  1.7187
 7967SOL    HW225502   4.673   1.983   4.884 -1.3092  0.6648 -0.4756
 7968SOL     OW25503   1.952   2.970   6.111 -0.4375  0.6332 -0.4798
 7968SOL    HW125504   2.032   3.030   6.118  1.1303 -1.4360  0.6967
 7968SOL    HW225505   1.934   2.949   6.015  1.3662  0.0376 -0.7315
 7969SOL     OW25506   2.836   6.564   2.936  0.1934  0.0360  0.3825
 7969SOL    HW125507   2.893   6.631   2.984 -0.6005  2.5751 -1.9511
 7969SOL    HW225508   2.873   6.548   2.844 -0.9357 -0.9459  0.0779
 7970SOL     OW25509   0.173   1.831   5.604 -0.3392 -0.1099 -0.0749
 7970SOL    HW125510   0.271   1.835   5.625 -0.4853 -1.1325  0.9381
 7970SOL    HW225511   0.152   1.890   5.526  1.2187 -0.5422 -0.8476
 7971SOL     OW25512   6.037   4.721   5.129 -0.1770  0.0785 -0.1294
 7971SOL    HW125513   6.095   4.640   5.123  1.4270  1.1574  0.2067
 7971SOL    HW225514   6.029   4.762   5.038 -1.5915 -0.8332 -0.4386
 7972SOL     OW25515   6.407   1.048   6.271  0.0310  0.4094 -0.1387
 7972SOL    HW125516   6.337   0.997   6.221  0.9499 -0.8071 -0.2295
 7972SOL    HW225517   6.455   0.986   6.333  1.0728  1.2088 -0.1288
 7973SOL     OW25518   6.549   1.714   0.394  0.2465 -0.3098  0.3377
 7973SOL    HW125519   6.526   1.651   0.320 -0.4432 -2.0647  1.9486
 7973SOL    HW225520   6.606   1.667   0.462  0.6758  1.1667  1.0470
 7974SOL     OW25521   6.569   3.508   1.428  0.4432 -0.0743  0.5978
 7974SOL    HW125522   6.567   3.607   1.440  0.2288 -0.0858  0.6601
 7974SOL    HW225523   6.662   3.475   1.441  0.5339  0.1318  0.4731
 7975SOL     OW25524   3.027   0.994   6.438 -0.7914 -0.2458 -0.3869
 7975SOL    HW125525   3.068   0.907   6.409  0.2699  0.6113 -1.5621
 7975SOL    HW225526   3.050   1.012   6.533  0.4141 -0.4564 -0.6230
 7976SOL     OW25527   0.131   3.967   4.490 -0.3628  0.0135 -0.2047
 7976SOL    HW125528   0.038   3.978   4.527 -0.2741 -0.9240  0.3457
 7976SOL    HW225529   0.131   3.989   4.393 -1.5297 -1.4535 -0.5855
 7977SOL     OW25530   6.766   0.733   6.776  0.3876  0.0428  0.6741
 7977SOL    HW125531   6.708   0.767   6.850  0.7139  0.7913  0.5930
 7977SOL    HW225532   6.846   0.688   6.815  0.9751  1.1571  0.7905
 7978SOL     OW25533   3.055   5.844   5.402  0.5612 -0.4945  0.3003
 7978SOL    HW125534   3.068   5.917   5.468  0.0560  0.4105 -0.5711
 7978SOL    HW225535   3.144   5.807   5.375  0.7832 -0.6536  1.2260
 7979SOL     OW25536   6.846   0.962   6.014 -0.6732 -0.0411 -0.0936
 7979SOL    HW125537   6.768   0.913   5.974 -0.9280 -0.8007  1.2714
 7979SOL    HW225538   6.813   1.044   6.062 -0.3902  0.7609 -1.2300
 7980SOL     OW25539   0.745   2.560   2.301  0.3626  0.1205  0.4943
 7980SOL    HW125540   0.701   2.616   2.371  0.5780  0.3001  0.4893
 7980SOL    HW225541   0.706   2.580   2.212 -1.8688 -2.0882  0.8771
 7981SOL     OW25542   4.615   4.955   1.210  0.0507  0.2815  0.6639
 7981SOL    HW125543   4.537   4.937   1.270  0.0003 -4.8112 -0.5195
 7981SOL    HW225544   4.700   4.943   1.261  0.0302 -0.2792  0.5656
 7982SOL     OW25545   2.510   4.279   6.789 -0.5533 -0.6292  0.5661
 7982SOL    HW125546   2.484   4.335   6.710  0.8762 -0.4221  0.2232
 7982SOL    HW225547   2.480   4.324   6.873 -1.9670 -0.7817  0.1820
 7983SOL     OW25548   5.019   2.280   2.262  0.1061  0.3390  0.5224
 7983SOL    HW125549   4.925   2.280   2.295 -0.2031 -1.8536 -0.1996
 7983SOL    HW225550   5.023   2.321   2.171  0.2205  2.2578  1.3505
 7984SOL     OW25551   0.672   3.779   5.858 -0.7253  0.0108 -0.2599
 7984SOL    HW125552   0.656   3.698   5.915 -2.4794 -0.7808 -1.7489
 7984SOL    HW225553   0.615   3.855   5.890 -0.7863 -0.0562 -0.2099
 7985SOL     OW25554   3.065   7.024   4.881 -1.0872  0.5949  0.1874
 7985SOL    HW125555   3.130   7.059   4.813 -2.2868 -0.5367 -1.6323
 7985SOL    HW225556   3.087   6.929   4.901 -0.5728  0.9978  1.6592
 7986SOL     OW25557   2.430   3.184   5.955  0.2472  0.3906 -0.8587
 7986SOL    HW125558   2.490   3.108   5.982  0.3297  0.8967  0.4637
 7986SOL    HW225559   2.479   3.243   5.890  1.7139  1.4694  1.1138
 7987SOL     OW25560   1.454   6.979   1.426 -0.3074  0.6260 -0.1803
 7987SOL    HW125561   1.394   6.914   1.380 -0.1084 -0.2362  0.7331
 7987SOL    HW225562   1.452   7.067   1.378 -0.6313 -0.0273 -1.4001
 7988SOL     OW25563   3.579   5.830   4.473 -0.5081 -0.9841  0.0870
 7988SOL    HW125564   3.551   5.911   4.524  1.6687 -0.5498  0.7273
 7988SOL    HW225565   3.618   5.858   4.385 -0.6115 -1.4152 -0.1016
 7989SOL     OW25566   4.197   6.336   1.388 -0.2369 -0.8604 -0.3244
 7989SOL    HW125567   4.210   6.376   1.479 -0.3921 -0.6558 -0.3921
 7989SOL    HW225568   4.111   6.368   1.349  0.6112  0.3948 -1.2373
 7990SOL     OW25569   5.221   4.492   4.428  0.7044  0.9201 -0.5501
 7990SOL    HW125570   5.311   4.519   4.392  0.5949 -0.1119 -1.6531
 7990SOL    HW225571   5.189   4.562   4.492  3.1231  0.4025  1.3665
 7991SOL     OW25572   4.287   5.484   6.389  0.2443 -0.0336 -0.3167
 7991SOL    HW125573   4.383   5.505   6.370  0.2897 -0.3506 -0.4403
 7991SOL    HW225574   4.281   5.417   6.463  0.1339 -0.2741 -0.5380
 7992SOL     OW25575   0.701   2.773   6.909 -0.0041  0.1008  0.5117
 7992SOL    HW125576   0.647   2.788   6.991 -1.2526 -0.6993 -0.1320
 7992SOL    HW225577   0.793   2.743   6.934 -0.7062 -1.2338  1.6425
 7993SOL     OW25578   1.794   2.439   4.205 -0.0251  0.1196 -0.3128
 7993SOL    HW125579   1.771   2.526   4.163 -0.8658  0.1987  0.2965
 7993SOL    HW225580   1.880   2.405   4.167  1.0110  1.8476  0.3629
 7994SOL     OW25581   6.557   1.772   6.276 -0.0723 -0.2426 -0.6954
 7994SOL    HW125582   6.556   1.831   6.356 -0.7649  0.8993 -1.5144
 7994SOL    HW225583   6.576   1.827   6.194 -0.5563 -1.1822 -1.4617
 7995SOL     OW25584   4.117   2.822   0.580  0.0626 -0.2243 -0.1996
 7995SOL    HW125585   4.153   2.747   0.634  0.7941 -0.5706 -1.1241
 7995SOL    HW225586   4.190   2.888   0.561 -0.1489 -0.1517 -0.8150
 7996SOL     OW25587   6.313   2.895   6.314 -0.1772 -0.5249  0.3050
 7996SOL    HW125588   6.375   2.844   6.374  0.1534 -0.1363  0.3068
 7996SOL    HW225589   6.278   2.975   6.364  2.3708  1.4884 -0.8409
 7997SOL     OW25590   4.275   3.524   1.808 -0.5563  0.1927 -0.6309
 7997SOL    HW125591   4.368   3.498   1.782 -1.2122 -1.2871 -1.6560
 7997SOL    HW225592   4.257   3.618   1.777  0.0921 -0.0487 -1.8103
 7998SOL     OW25593   1.207   4.830   5.638  0.0624 -0.0995  0.4089
 7998SOL    HW125594   1.277   4.896   5.611 -0.0501  0.1928  0.8236
 7998SOL    HW225595   1.223   4.801   5.732 -0.5529  0.2098  0.6136
 7999SOL     OW25596   5.014   6.248   5.290 -0.2816  0.1091  0.1777
 7999SOL    HW125597   5.037   6.271   5.196 -0.8860  2.1313  0.4748
 7999SOL    HW225598   5.045   6.155   5.310  0.7559  0.0018 -1.6851
 8000SOL     OW25599   5.157   4.432   6.943 -0.4994 -0.5872 -0.2335
 8000SOL    HW125600   5.090   4.386   7.002  0.0831 -0.2577  0.7213
 8000SOL    HW225601   5.120   4.442   6.851 -0.4094 -3.5162 -0.6656
 8001SOL     OW25602   6.396   4.733   6.060 -0.3328  0.0716 -0.0013
 8001SOL    HW125603   6.390   4.682   6.145 -1.5189 -0.3203 -0.3049
 8001SOL    HW225604   6.491   4.734   6.028  0.3865  1.3997  2.0190
 8002SOL     OW25605   3.596   4.289   2.167 -0.0252  0.0623 -0.6248
 8002SOL    HW125606   3.519   4.307   2.227  0.8658 -0.2892  0.6638
 8002SOL    HW225607   3.666   4.359   2.181  0.7570 -0.7801 -0.2439
 8003SOL     OW25608   6.684   6.312   5.248 -0.1579  0.0022  0.3107
 8003SOL    HW125609   6.759   6.251   5.275 -0.4576  0.6463  2.8208
 8003SOL    HW225610   6.644   6.354   5.329 -2.1631  0.9883 -1.1006
 8004SOL     OW25611   5.644   5.923   4.645 -0.0158  0.3970  0.4263
 8004SOL    HW125612   5.684   5.979   4.718 -2.7864  0.8646  1.7060
 8004SOL    HW225613   5.624   5.831   4.681 -2.0420  0.8428  0.5167
 8005SOL     OW25614   3.072   1.082   2.685 -0.7481  0.7504 -0.6434
 8005SOL    HW125615   3.069   1.182   2.689  0.6037  0.7964 -0.3158
 8005SOL    HW225616   3.049   1.044   2.775  1.9767  0.9163  0.2331
 8006SOL     OW25617   2.176   0.324   4.393 -1.0114  0.3609  0.4518
 8006SOL    HW125618   2.158   0.229   4.369 -3.3537  0.4417  1.5489
 8006SOL    HW225619   2.092   0.366   4.428  0.3232  2.4024  1.4368
 8007SOL     OW25620   6.470   4.461   1.388 -0.2938 -0.5684 -0.0282
 8007SOL    HW125621   6.564   4.493   1.404 -0.0300 -1.4501  0.2074
 8007SOL    HW225622   6.417   4.473   1.472 -0.4009 -0.0586 -0.1649
 8008SOL     OW25623   5.396   1.966   0.461  0.0837 -0.3316  0.0535
 8008SOL    HW125624   5.416   1.884   0.407 -3.5303 -1.8632  0.7589
 8008SOL    HW225625   5.368   2.040   0.401 -1.3130 -1.1931 -0.4059
 8009SOL     OW25626   5.977   4.890   3.603  0.2037  0.8479 -0.3055
 8009SOL    HW125627   5.923   4.970   3.628 -0.2231  0.8269 -1.1310
 8009SOL    HW225628   6.071   4.900   3.636  0.1910  1.7530 -0.5325
 8010SOL     OW25629   5.904   4.128   2.996  0.9848 -0.4316 -0.1318
 8010SOL    HW125630   5.948   4.211   2.961  0.1423  0.2884  0.4764
 8010SOL    HW225631   5.877   4.142   3.091  0.5721 -1.3146 -0.1079
 8011SOL     OW25632   0.366   6.043   4.785 -0.2463  0.0311  0.0749
 8011SOL    HW125633   0.440   6.107   4.765 -0.3366  0.0691 -0.1409
 8011SOL    HW225634   0.402   5.951   4.790 -0.3325 -0.0800 -1.0248
 8012SOL     OW25635   5.529   2.596   5.255  0.7626  0.2745  0.0903
 8012SOL    HW125636   5.471   2.523   5.219  1.1936  1.2989 -3.0307
 8012SOL    HW225637   5.626   2.570   5.245  0.9361  1.3405 -1.4928
 8013SOL     OW25638   1.182   2.648   6.691 -0.1597 -0.0777 -0.2225
 8013SOL    HW125639   1.154   2.710   6.618 -3.8215  0.3232  1.2643
 8013SOL    HW225640   1.131   2.562   6.683 -1.9371  0.5692  2.5979
 8014SOL     OW25641   2.407   0.387   0.925  0.4074 -0.2697 -0.0259
 8014SOL    HW125642   2.475   0.315   0.933  1.2885  0.6204  0.7677
 8014SOL    HW225643   2.353   0.373   0.842 -0.6500 -2.8480  0.9892
 8015SOL     OW25644   6.745   3.411   2.447 -0.9876  0.6090 -0.3074
 8015SOL    HW125645   6.754   3.469   2.366  0.3758 -1.1615 -1.5095
 8015SOL    HW225646   6.832   3.366   2.465 -0.8687  1.9265  3.0049
 8016SOL     OW25647   1.753   3.240   2.335  0.6018 -0.2770 -0.5448
 8016SOL    HW125648   1.769   3.142   2.321 -0.1793 -0.5984  0.6054
 8016SOL    HW225649   1.818   3.293   2.281  2.1606 -1.4527  0.0925
 8017SOL     OW25650   1.635   0.154   5.668  0.6850 -0.3918 -0.1476
 8017SOL    HW125651   1.608   0.243   5.631  2.6221 -0.2189 -1.2620
 8017SOL    HW225652   1.563   0.087   5.649 -0.0617  0.5575 -0.7878
 8018SOL     OW25653   1.858   5.455   4.040 -0.1521 -0.2642  0.5127
 8018SOL    HW125654   1.781   5.424   4.097  0.3603 -0.2191  1.2383
 8018SOL    HW225655   1.931   5.488   4.099 -0.6513  2.3343 -0.2135
 8019SOL     OW25656   6.734   6.244   4.199  0.3117  0.6426  0.1697
 8019SOL    HW125657   6.811   6.282   4.251 -0.4276  3.8656 -0.8447
 8019SOL    HW225658   6.648   6.273   4.241 -0.2902  1.9172 -1.7778
 8020SOL     OW25659   3.638   4.644   0.258 -0.4419  0.4269  0.5898
 8020SOL    HW125660   3.606   4.645   0.164  0.3472 -1.1113  0.2670
 8020SOL    HW225661   3.683   4.557   0.277 -0.7091  0.6463  2.4412
 8021SOL     OW25662   4.423   2.018   6.214 -0.3899  0.2140 -0.5227
 8021SOL    HW125663   4.521   2.000   6.226 -0.3868  0.1339 -0.6611
 8021SOL    HW225664   4.399   2.104   6.258 -0.4927 -0.3464  0.5674
 8022SOL     OW25665   3.436   4.915   3.372  0.2644 -0.3186  0.5015
 8022SOL    HW125666   3.512   4.853   3.392 -0.0245 -1.0180 -0.5081
 8022SOL    HW225667   3.381   4.928   3.455  2.1821  1.2286  1.6329
 8023SOL     OW25668   5.072   2.126   4.177  0.1644 -0.3245 -0.1776
 8023SOL    HW125669   5.072   2.214   4.225 -1.2983  0.5854 -1.7112
 8023SOL    HW225670   4.996   2.070   4.210 -0.2124 -0.1146 -0.6646
 8024SOL     OW25671   6.068   0.122   5.834  0.3576  0.3003 -0.2852
 8024SOL    HW125672   6.033   0.120   5.927  0.7527 -1.7886 -0.1287
 8024SOL    HW225673   6.115   0.036   5.814 -0.8632  0.1234 -2.8504
 8025SOL     OW25674   1.774   3.354   3.914  0.0078 -0.0096 -0.2320
 8025SOL    HW125675   1.762   3.259   3.886 -0.5595  0.2234 -0.8084
 8025SOL    HW225676   1.691   3.406   3.892 -0.0417  0.4246  0.9144
 8026SOL     OW25677   3.681   2.935   4.784 -0.2131  0.1528 -0.8003
 8026SOL    HW125678   3.633   2.992   4.850 -1.2180 -1.5758  0.0405
 8026SOL    HW225679   3.625   2.855   4.761  1.9102 -1.5657 -0.3543
 8027SOL     OW25680   6.139   3.000   0.753  0.2446  0.4986  0.2524
 8027SOL    HW125681   6.059   3.049   0.788 -0.4246 -0.2579 -0.1909
 8027SOL    HW225682   6.222   3.035   0.798  0.0551  3.3325 -1.3330
 8028SOL     OW25683   1.249   0.730   4.583 -0.1521  0.2369  0.2660
 8028SOL    HW125684   1.270   0.786   4.664  0.5277  0.4823 -0.0752
 8028SOL    HW225685   1.240   0.634   4.611 -1.7854  0.5366  0.9345
 8029SOL     OW25686   6.939   4.233   3.830 -0.4905 -0.1116  0.6431
 8029SOL    HW125687   6.886   4.271   3.906 -1.4782 -1.3340  0.6028
 8029SOL    HW225688   6.952   4.134   3.844 -0.5304 -0.3269 -0.6832
 8030SOL     OW25689   4.663   5.081   6.165 -0.0290  0.0151 -0.2473
 8030SOL    HW125690   4.610   5.029   6.232 -0.2239  0.1689 -0.2791
 8030SOL    HW225691   4.602   5.146   6.119  0.1532  0.0709 -0.4077
 8031SOL     OW25692   2.042   5.066   0.605 -0.0465 -0.0977 -0.0627
 8031SOL    HW125693   2.087   5.152   0.627  0.6019 -0.4933  0.1777
 8031SOL    HW225694   2.110   4.999   0.574  0.0075 -1.5870  2.8950
 8032SOL     OW25695   2.569   4.317   0.682 -0.8410  1.1388  0.5621
 8032SOL    HW125696   2.477   4.316   0.644 -1.2887 -0.7688  1.5426
 8032SOL    HW225697   2.627   4.255   0.629 -0.4711  1.3791  0.6852
 8033SOL     OW25698   5.683   4.072   0.424 -0.5662 -0.1935 -0.1033
 8033SOL    HW125699   5.610   4.078   0.356 -0.1102  0.1482 -0.5803
 8033SOL    HW225700   5.664   3.999   0.489 -1.6791  0.3558  0.2018
 8034SOL     OW25701   3.821   6.395   6.780 -0.6543  0.2956  0.4692
 8034SOL    HW125702   3.756   6.349   6.840  1.0147 -4.0777 -0.6681
 8034SOL    HW225703   3.805   6.366   6.685  1.3663  1.1275 -0.1772
 8035SOL     OW25704   3.018   1.536   6.670  0.5609 -0.0814 -0.8133
 8035SOL    HW125705   3.056   1.551   6.579  1.0698  2.0700 -0.2856
 8035SOL    HW225706   2.918   1.544   6.666  0.4920 -1.0980 -1.3591
 8036SOL     OW25707   2.567   3.986   1.493  0.4348 -0.0983  0.9168
 8036SOL    HW125708   2.558   4.032   1.581  2.3690  1.5921  0.3128
 8036SOL    HW225709   2.608   4.048   1.426  1.4596 -2.1380 -0.4744
 8037SOL     OW25710   5.137   4.528   6.434 -0.2744  0.4852  0.2712
 8037SOL    HW125711   5.192   4.588   6.376 -0.7947  1.9866  1.2577
 8037SOL    HW225712   5.046   4.568   6.447 -1.7157 -1.9634 -1.3685
 8038SOL     OW25713   3.684   3.374   0.380 -0.1709  0.1903  0.1846
 8038SOL    HW125714   3.694   3.463   0.424 -0.8173 -0.4235  1.6402
 8038SOL    HW225715   3.771   3.348   0.337  0.3711  0.9909  0.7670
 8039SOL     OW25716   6.986   1.389   6.769 -0.1158  0.2859 -0.4002
 8039SOL    HW125717   7.027   1.300   6.785  0.1008  0.4212 -0.1923
 8039SOL    HW225718   6.975   1.437   6.856 -0.7151  0.2520 -0.4554
 8040SOL     OW25719   6.602   5.758   6.973 -0.4360 -0.1563  0.3436
 8040SOL    HW125720   6.669   5.707   7.026 -2.3011 -0.5918  2.4417
 8040SOL    HW225721   6.525   5.784   7.032 -1.8999  0.7430 -1.8134
 8041SOL     OW25722   2.931   2.476   2.483  0.4324  0.4310  1.0735
 8041SOL    HW125723   2.892   2.563   2.455  2.2141  0.2710 -2.3976
 8041SOL    HW225724   3.031   2.483   2.484  0.5836 -1.2027  2.2498
 8042SOL     OW25725   3.548   5.618   1.171  0.5408 -0.3341  0.0847
 8042SOL    HW125726   3.508   5.665   1.092  0.7736 -0.6133 -0.2016
 8042SOL    HW225727   3.475   5.576   1.225  0.3902 -0.2604 -0.0583
 8043SOL     OW25728   0.030   0.269   6.060  0.1306 -0.0482  0.3953
 8043SOL    HW125729   0.109   0.275   5.998  1.7088 -0.2765  2.3032
 8043SOL    HW225730   0.011   0.360   6.098 -1.2179  0.2121 -0.8174
 8044SOL     OW25731   1.441   6.372   3.920 -0.2057  0.1220  0.3464
 8044SOL    HW125732   1.416   6.451   3.976  2.0493  0.0389  1.6020
 8044SOL    HW225733   1.514   6.398   3.856 -2.1349 -0.0184 -2.0519
 8045SOL     OW25734   0.912   4.202   4.682  0.2130  0.0137  0.0993
 8045SOL    HW125735   0.944   4.238   4.769  1.2408 -0.3952 -0.1048
 8045SOL    HW225736   0.817   4.231   4.667  0.6591  1.7132  0.4370
 8046SOL     OW25737   3.951   0.044   0.854 -0.1021 -0.0203  0.0918
 8046SOL    HW125738   3.902   0.071   0.771 -1.6522 -2.1827  0.2297
 8046SOL    HW225739   4.043   0.083   0.852 -0.5969  1.2046 -1.9109
 8047SOL     OW25740   4.822   1.078   4.944  0.2857  0.0162  0.8242
 8047SOL    HW125741   4.895   1.106   5.007  0.4379  0.8832  0.2829
 8047SOL    HW225742   4.776   1.160   4.908 -0.8027 -0.5167  0.9736
 8048SOL     OW25743   3.406   6.372   6.624 -0.2885  0.0754  0.0001
 8048SOL    HW125744   3.354   6.448   6.585  0.6904  0.6327 -0.2466
 8048SOL    HW225745   3.344   6.296   6.644 -1.2465  0.8441  0.0315
 8049SOL     OW25746   3.523   4.939   1.968 -0.2438  0.6793 -0.1019
 8049SOL    HW125747   3.449   4.932   1.901 -0.2355  1.0542 -0.1536
 8049SOL    HW225748   3.489   4.912   2.058  0.2749 -1.8513 -0.6084
 8050SOL     OW25749   0.432   5.044   6.620  0.3671  0.3419 -0.5124
 8050SOL    HW125750   0.473   4.954   6.609 -1.3799 -0.5255 -0.2144
 8050SOL    HW225751   0.461   5.103   6.545  1.9704 -0.2753 -0.4081
 8051SOL     OW25752   0.021   3.241   1.435 -0.3164  0.1890  0.3674
 8051SOL    HW125753   0.064   3.277   1.352 -0.2798  0.7812  0.6382
 8051SOL    HW225754   0.009   3.142   1.426  0.7533  0.0646  0.1350
 8052SOL     OW25755   2.587   4.780   0.590  0.0366  0.3158 -0.0145
 8052SOL    HW125756   2.659   4.752   0.527  1.0112 -0.4004  1.3646
 8052SOL    HW225757   2.498   4.772   0.545  0.3567 -3.6267 -0.2282
 8053SOL     OW25758   6.547   0.058   3.516 -0.1444  0.1355  0.2446
 8053SOL    HW125759   6.600   0.115   3.453 -0.5320 -0.2893 -0.4892
 8053SOL    HW225760   6.450   0.064   3.491 -0.2038 -0.7069  0.2652
 8054SOL     OW25761   6.242   3.332   2.010  0.9222  0.2820  0.4608
 8054SOL    HW125762   6.286   3.297   1.928 -0.6547  1.1343 -0.8036
 8054SOL    HW225763   6.255   3.431   2.015 -0.4971  0.5044  0.2367
 8055SOL     OW25764   1.352   2.307   6.024 -0.0616  0.3630 -0.1104
 8055SOL    HW125765   1.371   2.210   6.031 -0.7438  0.3084  1.2537
 8055SOL    HW225766   1.426   2.352   5.974 -0.1097 -0.9469 -1.4190
 8056SOL     OW25767   5.457   4.316   4.832 -0.0932  0.7947  0.3122
 8056SOL    HW125768   5.378   4.275   4.786 -0.4768 -1.0716  2.4308
 8056SOL    HW225769   5.533   4.251   4.831  0.7678  1.7754  0.0606
 8057SOL     OW25770   2.652   2.905   6.009  0.3263 -0.5798 -0.3836
 8057SOL    HW125771   2.693   2.826   5.964  0.2869 -0.0579 -1.3628
 8057SOL    HW225772   2.654   2.892   6.108 -1.8780 -2.9285 -0.5441
 8058SOL     OW25773   1.814   0.220   2.314  0.0977  0.5133  0.3063
 8058SOL    HW125774   1.837   0.286   2.386  1.9080  1.5887 -1.1551
 8058SOL    HW225775   1.729   0.248   2.270  0.1204  1.0836  0.6113
 8059SOL     OW25776   0.344   2.371   2.832  0.4807 -0.2829  0.0219
 8059SOL    HW125777   0.358   2.298   2.765 -1.2816 -1.0759  0.4618
 8059SOL    HW225778   0.324   2.330   2.921  2.0148  0.7552  0.8989
 8060SOL     OW25779   5.065   4.832   0.489  0.6572 -0.4443  0.5032
 8060SOL    HW125780   5.149   4.866   0.532  1.1481 -1.5107  0.4281
 8060SOL    HW225781   5.084   4.809   0.394  0.2569 -0.6162  0.4646
 8061SOL     OW25782   3.205   6.107   5.565 -0.4363 -0.5728 -0.3051
 8061SOL    HW125783   3.229   6.147   5.476 -0.5144  0.6886  0.2337
 8061SOL    HW225784   3.131   6.159   5.607  0.2546 -0.5556  0.9405
 8062SOL     OW25785   2.591   2.086   3.938 -0.4883  0.1263  0.5862
 8062SOL    HW125786   2.609   1.998   3.895 -1.6177  0.4983 -0.7296
 8062SOL    HW225787   2.493   2.096   3.954 -0.3585  1.0727  0.8945
 8063SOL     OW25788   5.881   1.840   6.967 -0.2513  0.1873 -0.1500
 8063SOL    HW125789   5.981   1.843   6.977 -0.1278 -0.9730 -0.9149
 8063SOL    HW225790   5.844   1.770   7.028 -0.3200 -1.1324 -1.6360
 8064SOL     OW25791   2.934   6.038   2.288 -0.7280 -0.1789  0.6728
 8064SOL    HW125792   2.884   6.035   2.375  0.8888  0.6127  1.6827
 8064SOL    HW225793   2.939   6.133   2.256  2.0258  0.1567  1.8228
 8065SOL     OW25794   4.770   6.405   5.331 -0.0584 -0.0437  0.0615
 8065SOL    HW125795   4.769   6.490   5.280 -0.6211 -0.7963 -1.2330
 8065SOL    HW225796   4.861   6.364   5.326  0.0340  0.1528  0.1280
 8066SOL     OW25797   4.610   4.592   5.596 -0.0481 -0.1939  0.5168
 8066SOL    HW125798   4.610   4.555   5.689  0.8846  0.5594  0.8272
 8066SOL    HW225799   4.616   4.691   5.599 -0.4590 -0.1335 -0.3504
 8067SOL     OW25800   0.769   0.890   4.781  0.2331  0.0494  0.0446
 8067SOL    HW125801   0.776   0.893   4.681 -4.6186 -0.9031 -0.5922
 8067SOL    HW225802   0.751   0.796   4.810  0.3278  0.5132  1.6805
 8068SOL     OW25803   5.395   6.014   2.944  0.1543 -0.0268  0.2640
 8068SOL    HW125804   5.410   6.111   2.926 -0.6636 -0.0130 -0.4200
 8068SOL    HW225805   5.452   5.959   2.883  0.1573  0.0248  0.2210
 8069SOL     OW25806   3.433   0.161   4.257 -0.0331 -0.0135  0.0149
 8069SOL    HW125807   3.403   0.110   4.176 -2.1377  0.6920  0.2901
 8069SOL    HW225808   3.366   0.149   4.330  1.2945  0.2402  1.3077
 8070SOL     OW25809   4.626   3.200   6.887 -0.1679  0.8396  0.0302
 8070SOL    HW125810   4.620   3.106   6.852 -0.0909  0.2333  1.5924
 8070SOL    HW225811   4.689   3.252   6.829  1.5096 -0.6906  0.3849
 8071SOL     OW25812   3.544   7.014   0.534 -0.0975  0.5274  0.2601
 8071SOL    HW125813   3.485   6.984   0.609 -1.0261 -0.5561 -0.8531
 8071SOL    HW225814   3.631   6.965   0.538 -0.0262  0.7009  0.8066
 8072SOL     OW25815   6.199   4.190   2.908 -0.1010 -0.1222  0.2160
 8072SOL    HW125816   6.202   4.267   2.845  1.6256  0.9175  1.4592
 8072SOL    HW225817   6.249   4.113   2.869  1.3521  0.6645  0.4302
 8073SOL     OW25818   5.599   5.555   5.943 -0.2972 -0.5604  0.0491
 8073SOL    HW125819   5.597   5.494   5.864 -0.2709 -0.2217 -0.2159
 8073SOL    HW225820   5.629   5.505   6.024  0.6274 -0.6891 -0.3566
 8074SOL     OW25821   5.779   6.040   4.874  0.6649 -0.0264 -0.8190
 8074SOL    HW125822   5.788   6.135   4.845 -1.6772  0.3602 -0.4966
 8074SOL    HW225823   5.866   5.992   4.862  1.8289  2.0871 -1.1839
 8075SOL     OW25824   3.610   2.336   0.353  0.4666  0.5135 -0.5807
 8075SOL    HW125825   3.683   2.397   0.323  1.8366 -1.1199 -0.7350
 8075SOL    HW225826   3.622   2.314   0.450 -0.9160  1.6518 -0.1118
 8076SOL     OW25827   6.632   3.883   5.337  0.2848 -0.0269 -0.3447
 8076SOL    HW125828   6.658   3.817   5.407  0.1616 -0.3340 -0.5851
 8076SOL    HW225829   6.689   3.964   5.345 -0.7199  0.5821  1.0718
 8077SOL     OW25830   5.626   1.516   0.938 -0.1404 -0.2699  0.1491
 8077SOL    HW125831   5.577   1.561   0.864 -1.0638 -1.0535  0.2683
 8077SOL    HW225832   5.561   1.486   1.008  0.6229 -0.3642  0.8380
 8078SOL     OW25833   3.870   6.631   4.802 -0.6016 -0.3239  0.4637
 8078SOL    HW125834   3.887   6.703   4.735  2.6858 -0.9085  0.4640
 8078SOL    HW225835   3.958   6.596   4.836 -2.0589 -0.5936  4.5411
 8079SOL     OW25836   3.531   2.822   6.584 -0.1986  0.2104  0.2084
 8079SOL    HW125837   3.527   2.912   6.542  0.2751  0.2837  0.3091
 8079SOL    HW225838   3.498   2.753   6.519  3.2135 -0.0623 -1.4814
 8080SOL     OW25839   0.842   0.098   5.873 -0.2466 -0.3226  0.0308
 8080SOL    HW125840   0.803   0.020   5.922 -0.2729 -0.0280  0.4768
 8080SOL    HW225841   0.941   0.097   5.882 -0.3470  0.6463  1.4755
 8081SOL     OW25842   2.764   5.475   0.078 -0.4627 -0.1910 -0.5427
 8081SOL    HW125843   2.674   5.515   0.062 -0.7185  0.1292  1.4587
 8081SOL    HW225844   2.762   5.378   0.054 -1.0386  0.0349 -1.4585
 8082SOL     OW25845   3.895   0.287   6.507  0.0427  0.3552  0.6207
 8082SOL    HW125846   3.839   0.257   6.430  0.1352 -0.9832  1.0439
 8082SOL    HW225847   3.871   0.234   6.588  1.3561  0.3061  1.0020
 8083SOL     OW25848   2.089   4.333   6.209 -0.1340 -0.1622 -0.0737
 8083SOL    HW125849   2.040   4.401   6.154  0.8586 -0.3330 -1.2174
 8083SOL    HW225850   2.103   4.250   6.155 -0.5417 -0.9575  1.0077
 8084SOL     OW25851   2.531   0.269   4.780  0.5470  0.1614 -0.2991
 8084SOL    HW125852   2.586   0.344   4.743  1.0058 -1.3783 -3.0128
 8084SOL    HW225853   2.460   0.245   4.714  0.2020 -1.5835  0.6478
 8085SOL     OW25854   2.643   1.822   6.343  0.2197  0.7822 -0.0842
 8085SOL    HW125855   2.646   1.902   6.403 -0.6681  0.5452  0.3086
 8085SOL    HW225856   2.618   1.742   6.397  0.3692  0.3809 -0.6036
 8086SOL     OW25857   4.938   1.776   1.294  0.0224 -0.1745  1.0928
 8086SOL    HW125858   4.875   1.842   1.335 -0.8749  0.0278 -0.5153
 8086SOL    HW225859   4.922   1.686   1.335 -1.0346 -0.0377  1.0201
 8087SOL     OW25860   4.731   0.484   5.244 -0.0555 -0.2189 -0.0703
 8087SOL    HW125861   4.659   0.443   5.300  0.9404  0.2701  1.6071
 8087SOL    HW225862   4.819   0.472   5.289  0.8982 -0.4457 -1.8970
 8088SOL     OW25863   3.626   1.770   0.731 -0.6250 -0.0697 -0.3216
 8088SOL    HW125864   3.578   1.693   0.773  1.8278 -0.9408  1.0654
 8088SOL    HW225865   3.648   1.839   0.800  0.9322 -0.1538 -0.6920
 8089SOL     OW25866   3.954   1.174   1.480 -0.1879  0.2978  0.0388
 8089SOL    HW125867   4.050   1.163   1.506  0.0563 -0.4172 -1.0755
 8089SOL    HW225868   3.948   1.216   1.389 -0.9353  0.5876  0.2133
 8090SOL     OW25869   2.177   2.208   4.091  0.2495 -0.3142 -0.1419
 8090SOL    HW125870   2.180   2.308   4.094 -4.7852  0.1817 -2.1464
 8090SOL    HW225871   2.083   2.178   4.102  1.5402 -4.9520  0.1264
 8091SOL     OW25872   1.160   6.411   2.685  0.2109  0.1448 -0.2131
 8091SOL    HW125873   1.095   6.430   2.759  0.4513 -1.6976  0.5481
 8091SOL    HW225874   1.134   6.325   2.640  0.8805  0.5181 -1.3677
 8092SOL     OW25875   2.577   0.105   5.133  0.0358  0.2405  0.0705
 8092SOL    HW125876   2.502   0.159   5.095  0.5132  1.4036  0.7215
 8092SOL    HW225877   2.664   0.152   5.114  0.5635 -0.8530 -0.2843
 8093SOL     OW25878   5.226   2.538   0.299  0.4630  0.6136 -0.1512
 8093SOL    HW125879   5.150   2.596   0.328  1.3841  1.9801 -0.3611
 8093SOL    HW225880   5.281   2.514   0.378  0.7166  0.9974 -0.2048
 8094SOL     OW25881   1.810   4.355   5.700  0.1880  0.0354 -0.5170
 8094SOL    HW125882   1.858   4.275   5.737  0.3073 -0.9029 -2.5712
 8094SOL    HW225883   1.725   4.326   5.657  0.2920  0.9999 -1.4056
 8095SOL     OW25884   0.107   5.449   6.408 -0.1627  0.1718  0.3108
 8095SOL    HW125885   0.090   5.521   6.476 -2.4411  0.4770 -0.4887
 8095SOL    HW225886   0.052   5.369   6.431 -0.4832  0.0524 -0.8403
 8096SOL     OW25887   2.956   4.797   3.017  0.5346  0.4888  0.1266
 8096SOL    HW125888   2.880   4.819   3.079  1.3729 -0.4248  1.5395
 8096SOL    HW225889   3.042   4.811   3.064  1.3002  1.8375 -1.5699
 8097SOL     OW25890   5.717   5.316   5.461  0.0490  0.3521 -0.0861
 8097SOL    HW125891   5.806   5.353   5.433 -0.3567  0.3806 -1.4116
 8097SOL    HW225892   5.664   5.388   5.506 -0.0523  0.9025 -1.0580
 8098SOL     OW25893   6.577   1.795   2.800  0.8772  0.1110 -0.1064
 8098SOL    HW125894   6.477   1.799   2.796  0.9127  0.4022 -1.2178
 8098SOL    HW225895   6.612   1.877   2.845  0.5731 -0.7621  1.8002
 8099SOL     OW25896   3.043   5.011   5.039  0.3985  0.0575  0.3883
 8099SOL    HW125897   3.029   5.004   5.138 -2.2214  0.5226  0.1199
 8099SOL    HW225898   3.007   4.929   4.995 -0.1334  0.6617 -0.3167
 8100SOL     OW25899   2.329   6.350   3.247  0.2409  0.3893 -0.3629
 8100SOL    HW125900   2.331   6.315   3.340  1.4367 -1.7151 -1.1241
 8100SOL    HW225901   2.421   6.376   3.219  0.3724 -1.3520 -1.7397
 8101SOL     OW25902   1.387   1.326   2.925 -0.0484 -0.3693 -0.2657
 8101SOL    HW125903   1.365   1.358   3.017 -0.0146  0.5812 -0.5725
 8101SOL    HW225904   1.306   1.336   2.867 -0.0175 -0.8000 -0.3806
 8102SOL     OW25905   2.634   6.351   2.471  0.1315 -0.0709  0.1213
 8102SOL    HW125906   2.644   6.278   2.404 -1.7698 -0.2816  0.0171
 8102SOL    HW225907   2.710   6.416   2.461  0.4835 -0.6823 -1.4851
 8103SOL     OW25908   1.842   4.998   4.571  0.1099 -0.1667 -0.2641
 8103SOL    HW125909   1.826   5.096   4.574  1.3124  0.0398 -0.3396
 8103SOL    HW225910   1.815   4.957   4.658 -0.9662  0.1209 -0.4458
 8104SOL     OW25911   0.222   3.194   2.582  0.1558 -0.5061  0.1648
 8104SOL    HW125912   0.252   3.207   2.677  2.7250  1.0310 -0.7542
 8104SOL    HW225913   0.249   3.104   2.550 -0.0800 -0.7532  0.6465
 8105SOL     OW25914   3.960   0.401   3.933  0.0208 -0.2509 -0.0077
 8105SOL    HW125915   3.959   0.429   3.837 -0.9131  0.7880  0.2803
 8105SOL    HW225916   4.024   0.326   3.945  0.9024  0.2654 -1.2548
 8106SOL     OW25917   0.696   6.891   6.047 -0.1344  0.0986 -0.2094
 8106SOL    HW125918   0.686   6.820   5.978 -0.2351 -0.6206  0.5244
 8106SOL    HW225919   0.654   6.860   6.133  0.1567  0.8887  0.2310
 8107SOL     OW25920   3.811   1.599   1.019  0.3797 -0.0487  0.0117
 8107SOL    HW125921   3.797   1.665   1.093  1.0823  0.5298 -0.3638
 8107SOL    HW225922   3.812   1.506   1.057 -1.1124  0.0901  0.4828
 8108SOL     OW25923   3.995   3.689   0.967  0.5392 -0.4773  0.7595
 8108SOL    HW125924   3.926   3.704   1.038  1.0576  0.4690  1.0776
 8108SOL    HW225925   4.043   3.602   0.986 -1.3558 -1.7918 -0.1619
 8109SOL     OW25926   6.608   5.858   1.660  0.2645 -0.2778 -0.1766
 8109SOL    HW125927   6.568   5.932   1.715 -1.5505 -0.3347 -1.3261
 8109SOL    HW225928   6.685   5.893   1.607  1.2250  0.0787  1.3935
 8110SOL     OW25929   1.092   4.944   2.477 -0.0281  0.3774  0.1835
 8110SOL    HW125930   1.007   4.899   2.502  0.1261  0.7690  1.4962
 8110SOL    HW225931   1.148   4.957   2.559  0.6016  1.5586 -0.4099
 8111SOL     OW25932   2.224   0.767   6.646 -0.1124  0.0491  0.3761
 8111SOL    HW125933   2.137   0.722   6.665 -1.1392  1.5832 -0.3988
 8111SOL    HW225934   2.222   0.803   6.552  0.4081  2.0980  1.0956
 8112SOL     OW25935   1.696   0.734   1.382 -0.2192 -0.1904 -0.1660
 8112SOL    HW125936   1.739   0.794   1.450 -0.4510  0.0809 -0.2551
 8112SOL    HW225937   1.601   0.718   1.406  0.0550 -1.2017  0.3002
 8113SOL     OW25938   4.981   5.689   0.145  0.1375  0.2939 -0.9918
 8113SOL    HW125939   5.057   5.624   0.145 -0.8452 -0.9803  1.4776
 8113SOL    HW225940   5.017   5.781   0.131  1.8843 -0.4676 -1.8419
 8114SOL     OW25941   2.685   3.611   3.354  0.3358  0.3354  0.5552
 8114SOL    HW125942   2.585   3.611   3.367  0.0932  1.3739 -1.0488
 8114SOL    HW225943   2.715   3.520   3.325 -0.5794  0.6796 -1.6617
 8115SOL     OW25944   1.540   1.806   6.746  0.1508  0.1002  0.9101
 8115SOL    HW125945   1.478   1.729   6.731 -0.1779  0.2945  1.2540
 8115SOL    HW225946   1.634   1.773   6.750  0.1826 -0.0624 -0.7402
 8116SOL     OW25947   6.239   2.689   3.950 -0.4626 -0.0082 -0.0469
 8116SOL    HW125948   6.162   2.628   3.928 -0.6662  0.7388 -1.6013
 8116SOL    HW225949   6.296   2.647   4.020 -0.9950 -1.6601 -0.5472
 8117SOL     OW25950   1.242   2.918   1.958  0.3359 -0.4729 -0.0905
 8117SOL    HW125951   1.282   2.955   1.874 -0.3245 -1.1600 -0.7242
 8117SOL    HW225952   1.308   2.856   2.002  0.2646 -0.9929 -0.7082
 8118SOL     OW25953   6.552   4.477   4.996 -0.0630  0.3421  0.4748
 8118SOL    HW125954   6.538   4.531   5.078 -1.3240  0.2611  0.3214
 8118SOL    HW225955   6.610   4.399   5.017 -0.0271  0.5558  1.1824
 8119SOL     OW25956   3.111   4.321   1.508  0.4535 -0.1736  0.3312
 8119SOL    HW125957   3.030   4.377   1.522  0.0719 -0.6689  0.1388
 8119SOL    HW225958   3.192   4.371   1.539  0.1225  0.4736  0.1713
 8120SOL     OW25959   2.362   0.548   0.281 -0.3832 -0.3930 -0.2079
 8120SOL    HW125960   2.305   0.541   0.199 -0.7329  1.0274 -0.1020
 8120SOL    HW225961   2.454   0.576   0.255 -0.7224  0.9034 -0.0526
 8121SOL     OW25962   6.745   5.986   6.738  0.3075  0.3608  0.0314
 8121SOL    HW125963   6.776   5.931   6.816 -0.4242 -0.1769 -0.0520
 8121SOL    HW225964   6.731   5.928   6.659  1.5373  0.9802 -0.6796
 8122SOL     OW25965   1.736   0.585   4.006  0.2182  0.0718 -0.3386
 8122SOL    HW125966   1.728   0.546   3.914 -0.3282 -0.8956  0.1017
 8122SOL    HW225967   1.796   0.527   4.061  0.1413  0.3714  0.0639
 8123SOL     OW25968   0.951   6.300   5.299  0.0998 -0.3847 -0.5934
 8123SOL    HW125969   0.904   6.215   5.320 -0.1339 -0.2029 -0.3658
 8123SOL    HW225970   0.937   6.323   5.203  0.0270 -0.5215 -0.6157
 8124SOL     OW25971   1.612   3.699   6.730 -0.1491 -0.1481 -0.2104
 8124SOL    HW125972   1.632   3.618   6.675 -0.3467  0.6634 -1.5432
 8124SOL    HW225973   1.676   3.772   6.706 -0.0152  0.1247  0.9226
 8125SOL     OW25974   1.859   6.396   6.785  0.3650 -0.0428  0.2532
 8125SOL    HW125975   1.784   6.452   6.821  0.7235 -0.0915  1.1141
 8125SOL    HW225976   1.905   6.445   6.711 -0.2637  0.1564 -0.0075
 8126SOL     OW25977   1.510   6.840   3.169 -0.1795 -0.0343 -0.3540
 8126SOL    HW125978   1.477   6.783   3.244  0.1314 -0.5750 -0.6208
 8126SOL    HW225979   1.455   6.823   3.087  0.5162 -0.6592 -0.6960
 8127SOL     OW25980   1.154   4.087   4.233 -0.7286  0.3235  0.8798
 8127SOL    HW125981   1.060   4.068   4.206 -0.6210  0.3175  0.5059
 8127SOL    HW225982   1.216   4.023   4.187 -0.3454  1.6402 -0.5286
 8128SOL     OW25983   5.582   3.434   6.879  0.7630  0.3036 -0.2892
 8128SOL    HW125984   5.635   3.483   6.809  2.1305  0.3258  0.7101
 8128SOL    HW225985   5.644   3.402   6.951 -0.5914  0.2140  0.8836
 8129SOL     OW25986   4.684   1.290   0.922  0.7541 -0.0563  0.4250
 8129SOL    HW125987   4.642   1.232   0.853  0.7915  0.9537 -0.4724
 8129SOL    HW225988   4.766   1.333   0.885 -0.1204  1.7918  0.4939
 8130SOL     OW25989   0.055   2.286   5.683  0.3637  0.3192  0.2301
 8130SOL    HW125990   0.087   2.358   5.745 -2.4502  0.2126  2.0091
 8130SOL    HW225991   0.011   2.328   5.604 -0.6760  0.6213  0.9375
 8131SOL     OW25992   1.116   0.534   0.283  0.3116  0.0150  0.2944
 8131SOL    HW125993   1.032   0.580   0.255  0.6877  0.5409  0.0206
 8131SOL    HW225994   1.124   0.448   0.233 -0.0261 -0.0039  0.2668
 8132SOL     OW25995   6.323   1.831   2.758  0.2139 -0.2821  0.2237
 8132SOL    HW125996   6.305   1.811   2.854 -1.7570  0.9312  0.1678
 8132SOL    HW225997   6.256   1.784   2.701  0.3356  0.3333 -0.4407
 8133SOL     OW25998   3.783   2.619   6.627 -0.1142  0.2502  0.5377
 8133SOL    HW125999   3.687   2.640   6.609 -0.6152 -2.2017  0.0104
 8133SOL    HW226000   3.837   2.630   6.544 -0.4909 -1.0608  0.1003
 8134SOL     OW26001   1.995   1.040   6.691  0.6974  0.0250  0.1997
 8134SOL    HW126002   2.050   1.124   6.688  1.0791 -0.2433 -0.2897
 8134SOL    HW226003   1.941   1.033   6.607 -0.0502  0.2583  0.6515
 8135SOL     OW26004   4.612   4.549   5.854  0.1588  0.4385 -0.0929
 8135SOL    HW126005   4.693   4.507   5.896 -0.0630  0.6297  0.5420
 8135SOL    HW226006   4.531   4.523   5.906  0.0694  2.0279  0.6135
 8136SOL     OW26007   5.590   3.650   4.253  0.0133  0.1841  0.3829
 8136SOL    HW126008   5.577   3.711   4.175 -0.0990 -0.3390 -0.0083
 8136SOL    HW226009   5.505   3.599   4.270  1.1242 -2.4739 -1.5116
 8137SOL     OW26010   4.763   4.648   1.331 -0.6067  0.0759 -0.6403
 8137SOL    HW126011   4.713   4.628   1.415  0.6239  0.9123  0.3332
 8137SOL    HW226012   4.699   4.655   1.255 -1.5127 -3.2556 -0.3184
 8138SOL     OW26013   0.453   4.041   2.764 -0.7837 -0.2970 -0.0147
 8138SOL    HW126014   0.373   4.095   2.792 -2.3101 -1.4721 -1.8214
 8138SOL    HW226015   0.467   4.052   2.666  2.3514  1.1261  0.4825
 8139SOL     OW26016   6.627   6.888   5.067  0.7571 -0.4497 -1.0145
 8139SOL    HW126017   6.553   6.823   5.051  0.0163  0.2629 -0.5767
 8139SOL    HW226018   6.650   6.890   5.165 -0.8348  1.5821 -0.6082
 8140SOL     OW26019   2.889   5.555   0.795  0.5005 -0.2772  0.2039
 8140SOL    HW126020   2.933   5.641   0.769  3.0104 -1.1310  1.2782
 8140SOL    HW226021   2.870   5.501   0.713  1.8582 -0.0215 -0.3067
 8141SOL     OW26022   0.423   3.266   4.591  0.0495 -0.0834  0.1680
 8141SOL    HW126023   0.416   3.358   4.631 -1.1639 -0.3731  0.6424
 8141SOL    HW226024   0.502   3.219   4.630  1.3864  1.1490 -0.9164
 8142SOL     OW26025   3.242   5.213   2.845 -0.0318  0.1588 -0.1538
 8142SOL    HW126026   3.193   5.263   2.916  0.1500  0.8430 -0.5099
 8142SOL    HW226027   3.189   5.131   2.820 -1.0774  0.9589 -0.6378
 8143SOL     OW26028   0.627   4.736   2.733 -0.1686 -0.0669  0.4381
 8143SOL    HW126029   0.551   4.773   2.786 -1.9753 -0.4309 -1.7132
 8143SOL    HW226030   0.593   4.664   2.672  1.2274  1.7613 -2.7955
 8144SOL     OW26031   5.412   2.540   6.645 -0.0316  0.0516  0.6585
 8144SOL    HW126032   5.467   2.479   6.588 -0.0636  0.7190 -0.1129
 8144SOL    HW226033   5.357   2.600   6.586 -2.7364 -1.5514  1.3815
 8145SOL     OW26034   4.538   4.751   0.341 -0.0021 -0.1783 -0.0952
 8145SOL    HW126035   4.521   4.758   0.439  0.4294  0.2805 -0.0511
 8145SOL    HW226036   4.505   4.662   0.308 -0.1036 -0.3541  0.4705
 8146SOL     OW26037   6.679   5.083   3.276  0.0565 -0.5378  0.1345
 8146SOL    HW126038   6.659   5.026   3.196 -2.7539 -2.7869  2.2394
 8146SOL    HW226039   6.611   5.156   3.283  0.9603  0.3412 -0.1030
 8147SOL     OW26040   2.107   0.502   2.320 -0.7922 -0.3267 -0.3612
 8147SOL    HW126041   2.036   0.515   2.389  1.2092 -0.4134  1.8349
 8147SOL    HW226042   2.133   0.405   2.318  1.2165  0.1252  1.0006
 8148SOL     OW26043   6.000   4.520   6.187  0.9035  0.5551  0.4566
 8148SOL    HW126044   5.940   4.589   6.145  1.0383  0.7369  0.5643
 8148SOL    HW226045   6.043   4.466   6.115 -0.8759 -0.8608  0.3754
 8149SOL     OW26046   1.176   6.594   6.079  0.2924  0.7075  0.2833
 8149SOL    HW126047   1.106   6.628   6.142  2.5479  3.6536  1.3773
 8149SOL    HW226048   1.250   6.552   6.131  0.6695  0.1338 -0.6921
 8150SOL     OW26049   4.793   2.478   0.217 -0.5482  0.3113  0.1649
 8150SOL    HW126050   4.730   2.401   0.213  0.0216 -0.1209 -1.1455
 8150SOL    HW226051   4.781   2.527   0.303  0.9881 -2.8914  2.3837
 8151SOL     OW26052   5.496   1.007   1.841 -0.8417  0.1814 -0.3109
 8151SOL    HW126053   5.501   1.039   1.746  1.7111  2.1537  0.4016
 8151SOL    HW226054   5.580   0.958   1.864 -1.6703 -0.7644  0.8353
 8152SOL     OW26055   6.340   4.950   1.945 -0.5387 -0.0774 -0.1907
 8152SOL    HW126056   6.328   5.043   1.980  1.1241 -0.3872  1.4031
 8152SOL    HW226057   6.273   4.889   1.988 -1.3271  0.2751 -0.8881
 8153SOL     OW26058   4.526   5.169   2.209  0.1003  0.2133 -0.5961
 8153SOL    HW126059   4.576   5.154   2.124 -0.0848  0.2066 -0.7036
 8153SOL    HW226060   4.544   5.094   2.272 -0.4207 -0.2026 -0.9423
 8154SOL     OW26061   2.994   5.660   5.583 -0.2532  0.1984 -0.1262
 8154SOL    HW126062   2.992   5.719   5.502  0.2055 -0.3996 -0.5817
 8154SOL    HW226063   3.085   5.621   5.593 -0.2325  0.4766  0.8397
 8155SOL     OW26064   3.222   1.436   2.072  0.1861  0.3394  0.1343
 8155SOL    HW126065   3.143   1.483   2.032 -1.4073 -2.4120 -0.2154
 8155SOL    HW226066   3.263   1.493   2.143 -2.2221  1.8159  0.4323
 8156SOL     OW26067   4.793   0.140   0.452  0.1767 -0.4162  0.2778
 8156SOL    HW126068   4.802   0.169   0.547  1.8771  0.0329  0.0120
 8156SOL    HW226069   4.841   0.053   0.438 -0.0332 -0.4650 -0.1872
 8157SOL     OW26070   3.221   5.602   2.154 -0.4812 -0.0233  0.1543
 8157SOL    HW126071   3.183   5.574   2.066 -0.6737  1.3725 -0.2324
 8157SOL    HW226072   3.300   5.544   2.176 -0.9977 -0.9856 -0.4830
 8158SOL     OW26073   6.607   4.652   0.832  0.4175 -0.2661  0.3905
 8158SOL    HW126074   6.641   4.745   0.824 -0.7168  0.1058 -0.3554
 8158SOL    HW226075   6.651   4.594   0.764  1.6001 -0.4468  1.2726
 8159SOL     OW26076   0.017   6.048   3.455  0.1606  0.7007 -0.0500
 8159SOL    HW126077  -0.083   6.039   3.453  0.0555  1.8048 -1.1479
 8159SOL    HW226078   0.042   6.128   3.510  0.4672  0.2301  0.5017
 8160SOL     OW26079   6.308   1.636   6.375  0.0256 -0.2914 -0.3599
 8160SOL    HW126080   6.337   1.714   6.321 -0.3508 -0.0409 -0.2021
 8160SOL    HW226081   6.230   1.661   6.433  1.4636 -0.0615  1.5778
 8161SOL     OW26082   0.295   0.218   2.020 -0.2621  0.2899 -0.6075
 8161SOL    HW126083   0.349   0.175   1.947 -0.8570  0.9366 -1.4398
 8161SOL    HW226084   0.356   0.242   2.096  0.7067  1.3583 -1.6824
 8162SOL     OW26085   4.818   2.381   6.048  0.2600 -0.2949  0.0485
 8162SOL    HW126086   4.784   2.340   6.132  1.3918 -1.1918  0.0949
 8162SOL    HW226087   4.914   2.406   6.060  0.3308 -0.1071 -0.8546
 8163SOL     OW26088   5.924   0.093   0.283 -0.2896 -0.3598 -0.0528
 8163SOL    HW126089   5.856   0.165   0.287  1.0083  0.8760  1.6859
 8163SOL    HW226090   5.880   0.004   0.296 -1.6456  0.3194  0.1346
 8164SOL     OW26091   0.246   4.368   3.258 -0.1802 -0.4144 -0.6083
 8164SOL    HW126092   0.335   4.379   3.302 -0.5638  0.1331  0.0416
 8164SOL    HW226093   0.208   4.458   3.237 -0.9574 -0.6198 -0.1113
 8165SOL     OW26094   1.817   5.184   3.575 -0.2638 -0.9828  0.7619
 8165SOL    HW126095   1.822   5.086   3.560  0.3832 -1.1275  1.8203
 8165SOL    HW226096   1.838   5.205   3.670  1.3331  0.3106  0.1916
 8166SOL     OW26097   2.096   5.189   1.381 -0.1259 -0.5088 -0.2383
 8166SOL    HW126098   2.181   5.210   1.332  1.4795  0.3647  2.6729
 8166SOL    HW226099   2.106   5.099   1.425 -0.6701 -0.3387  0.2308
 8167SOL     OW26100   4.032   6.473   6.346 -0.5183 -0.0730  0.1790
 8167SOL    HW126101   4.050   6.533   6.424  0.2060 -0.8255  0.5983
 8167SOL    HW226102   4.112   6.416   6.328  0.4221  1.9359 -2.8131
 8168SOL     OW26103   5.262   6.165   1.841  0.6921  0.2074  0.1322
 8168SOL    HW126104   5.162   6.158   1.853  0.5935  0.5651 -0.4822
 8168SOL    HW226105   5.303   6.075   1.858  0.2438  0.0023  0.1588
 8169SOL     OW26106   3.003   2.337   1.223 -0.0449 -0.2910 -0.2353
 8169SOL    HW126107   3.091   2.383   1.236 -0.7063  0.4405  2.0000
 8169SOL    HW226108   3.008   2.243   1.256  0.2567 -0.7036 -1.4003
 8170SOL     OW26109   1.681   5.313   0.668 -0.7768  0.0752  0.1478
 8170SOL    HW126110   1.658   5.410   0.673 -0.3408  0.1781  0.1912
 8170SOL    HW226111   1.609   5.260   0.712 -0.9712  0.3844  0.2079
 8171SOL     OW26112   2.530   1.390   0.802  0.2962  0.2787  0.4229
 8171SOL    HW126113   2.432   1.405   0.807 -0.0638 -1.7384  0.3078
 8171SOL    HW226114   2.568   1.389   0.895  0.1760  0.8306  0.4808
 8172SOL     OW26115   6.253   7.025   3.673 -0.5351 -0.0225  0.1555
 8172SOL    HW126116   6.316   6.949   3.691 -1.6867 -0.8172  1.0238
 8172SOL    HW226117   6.255   7.048   3.576  1.8832  0.7241  0.3376
 8173SOL     OW26118   3.936   5.946   6.735 -0.9497 -0.2375  0.1105
 8173SOL    HW126119   3.878   6.012   6.687  1.1121  0.8488 -1.0288
 8173SOL    HW226120   3.992   5.993   6.802  0.8958 -0.6766 -1.0420
 8174SOL     OW26121   5.904   2.361   2.905 -0.4419 -0.0617  0.0246
 8174SOL    HW126122   5.819   2.317   2.876 -0.1226 -0.4807 -0.2831
 8174SOL    HW226123   5.907   2.365   3.005  1.0014 -3.8090  0.2868
 8175SOL     OW26124   2.350   2.388   1.982  0.4401 -0.0065 -0.2469
 8175SOL    HW126125   2.297   2.371   1.899 -0.1862  0.8772 -0.0398
 8175SOL    HW226126   2.327   2.320   2.052  0.2910 -0.1977 -0.4828
 8176SOL     OW26127   3.518   6.352   6.361 -0.4561 -0.2828  0.0183
 8176SOL    HW126128   3.480   6.351   6.453  1.1922  2.1224  0.8271
 8176SOL    HW226129   3.491   6.437   6.315  2.0138  0.4740 -0.1687
 8177SOL     OW26130   5.103   0.972   1.721 -0.1794  0.5840  0.5464
 8177SOL    HW126131   5.165   0.894   1.733  0.1475  0.9166  1.0443
 8177SOL    HW226132   5.011   0.939   1.703  0.5477 -0.0040 -2.8991
 8178SOL     OW26133   6.769   5.577   5.074  0.5252  0.0797 -0.6658
 8178SOL    HW126134   6.777   5.492   5.126  1.2359  1.2357  1.2204
 8178SOL    HW226135   6.678   5.616   5.087  0.3765 -0.1175 -1.1001
 8179SOL     OW26136   6.893   2.647   1.137  0.3568 -0.3564  0.3532
 8179SOL    HW126137   6.854   2.555   1.137 -1.7747  0.4877 -0.5540
 8179SOL    HW226138   6.824   2.712   1.108  2.2902  1.3504 -0.6556
 8180SOL     OW26139   3.882   0.325   3.347 -0.0108  0.1837 -0.6813
 8180SOL    HW126140   3.949   0.372   3.290 -1.2723 -0.8395 -3.1641
 8180SOL    HW226141   3.900   0.227   3.348 -0.3170  0.1204  0.2922
 8181SOL     OW26142   2.916   4.404   0.456 -0.0604 -0.4722 -0.8006
 8181SOL    HW126143   2.923   4.379   0.553 -2.1517  0.3009 -0.4169
 8181SOL    HW226144   3.008   4.419   0.420  0.7712 -0.7767  1.0451
 8182SOL     OW26145   0.672   5.827   1.141  0.3415  0.0865  0.1684
 8182SOL    HW126146   0.767   5.857   1.148  0.4396 -0.2314  0.2394
 8182SOL    HW226147   0.654   5.756   1.210 -0.5318  1.5929  1.5515
 8183SOL     OW26148   4.236   3.342   1.415 -0.2330 -0.1134  0.2678
 8183SOL    HW126149   4.215   3.307   1.506 -0.4450 -2.2316 -0.5544
 8183SOL    HW226150   4.181   3.293   1.346 -0.1235  1.4676 -1.0199
 8184SOL     OW26151   5.512   1.057   0.530  0.0238  0.3433  0.4458
 8184SOL    HW126152   5.524   0.985   0.461  1.0229  0.2645  0.6992
 8184SOL    HW226153   5.452   1.128   0.492  0.2663  0.1249 -0.3764
 8185SOL     OW26154   2.029   4.354   0.236  0.8139  0.1452 -0.9269
 8185SOL    HW126155   1.985   4.287   0.297  0.5550  0.4644 -0.7627
 8185SOL    HW226156   1.990   4.444   0.251  2.0197  0.5821 -0.2577
 8186SOL     OW26157   5.716   0.464   0.903 -0.5236  0.3250 -0.0095
 8186SOL    HW126158   5.670   0.549   0.927 -0.5117  0.3859 -0.2007
 8186SOL    HW226159   5.657   0.387   0.927 -0.9144  0.4153 -0.6476
 8187SOL     OW26160   2.594   1.247   6.094 -0.6208 -0.0977 -0.2499
 8187SOL    HW126161   2.683   1.286   6.074  0.1412 -0.6097  1.9022
 8187SOL    HW226162   2.523   1.316   6.080  0.2948  0.8640 -0.2386
 8188SOL     OW26163   1.230   5.997   4.245 -0.4190  0.1894 -0.0930
 8188SOL    HW126164   1.262   5.909   4.278  1.4864  0.8124 -0.1963
 8188SOL    HW226165   1.228   6.062   4.322 -1.9151  0.0585  0.0068
 8189SOL     OW26166   0.041   1.729   5.115  0.1690  0.1399 -0.8364
 8189SOL    HW126167  -0.043   1.753   5.162  0.5473  2.3653 -1.1684
 8189SOL    HW226168   0.119   1.766   5.164  1.0877 -2.4479 -0.1718
 8190SOL     OW26169   4.048   1.884   5.505 -0.5305  0.0783  0.6486
 8190SOL    HW126170   4.106   1.915   5.429 -0.3078 -0.8761  0.4201
 8190SOL    HW226171   4.105   1.843   5.576 -0.4702  2.8604  2.3748
 8191SOL     OW26172   2.461   1.731   0.805 -0.6249  0.4578 -0.0603
 8191SOL    HW126173   2.411   1.715   0.720 -0.0787 -2.2010  0.0053
 8191SOL    HW226174   2.556   1.701   0.793 -0.0694  1.7349  0.9690
 8192SOL     OW26175   2.518   4.899   3.380  0.1319  0.1576 -0.2477
 8192SOL    HW126176   2.456   4.970   3.347  0.5177 -0.0137 -1.3827
 8192SOL    HW226177   2.587   4.940   3.440 -1.1396  0.3213  1.1646
 8193SOL     OW26178   3.415   3.330   3.918 -0.1861 -0.4886  1.1165
 8193SOL    HW126179   3.328   3.343   3.871  0.3085 -0.5999  0.1407
 8193SOL    HW226180   3.426   3.233   3.941  0.0232 -0.6055  0.5366
 8194SOL     OW26181   4.629   6.689   1.814 -0.0570 -0.2662 -0.6101
 8194SOL    HW126182   4.590   6.671   1.724 -0.2834 -0.9735 -0.3789
 8194SOL    HW226183   4.653   6.786   1.822  1.2571 -0.4671 -1.9178
 8195SOL     OW26184   0.430   4.141   3.490  0.4562  0.6274 -0.3107
 8195SOL    HW126185   0.334   4.140   3.465  1.0312  0.9764 -2.7564
 8195SOL    HW226186   0.468   4.232   3.476  0.9841  0.6990  1.4007
 8196SOL     OW26187   2.122   0.774   2.927  0.6711 -0.2293 -0.0809
 8196SOL    HW126188   2.141   0.682   2.892  1.5576 -0.5485  1.1749
 8196SOL    HW226189   2.194   0.837   2.898 -0.4489  0.3510 -1.7977
 8197SOL     OW26190   2.462   2.899   0.053  0.1708  0.5478  0.0396
 8197SOL    HW126191   2.363   2.915   0.054  0.0731  0.0448 -0.9800
 8197SOL    HW226192   2.496   2.902   0.147 -1.1075 -1.0157  0.5984
 8198SOL     OW26193   6.882   6.617   0.148 -0.6484  0.3891 -0.1430
 8198SOL    HW126194   6.792   6.658   0.137 -1.0566 -0.4788 -0.1001
 8198SOL    HW226195   6.887   6.571   0.237 -0.3581 -0.0499 -0.3873
 8199SOL     OW26196   2.747   6.784   0.827  0.0296 -0.2406 -0.1351
 8199SOL    HW126197   2.700   6.862   0.785 -1.9479  0.2149  2.6395
 8199SOL    HW226198   2.803   6.817   0.903  2.7173 -1.1393 -1.5870
 8200SOL     OW26199   1.653   4.038   3.380 -0.4184  0.4882 -0.0606
 8200SOL    HW126200   1.572   3.989   3.411 -0.6906  0.0708 -1.3382
 8200SOL    HW226201   1.626   4.126   3.342 -0.1582  0.7710  0.4100
 8201SOL     OW26202   2.850   5.145   4.532 -1.2582  0.3908 -0.1332
 8201SOL    HW126203   2.905   5.076   4.579 -2.4079  1.2847  2.6879
 8201SOL    HW226204   2.911   5.210   4.486 -0.0944 -0.7908 -0.3101
 8202SOL     OW26205   0.608   3.955   0.663  0.5179  0.7809  0.0418
 8202SOL    HW126206   0.697   3.998   0.676  0.6893  0.9124 -1.4350
 8202SOL    HW226207   0.551   4.013   0.604 -0.0858  0.0975 -0.0560
 8203SOL     OW26208   4.638   5.195   5.562  0.0130 -0.1444  0.1342
 8203SOL    HW126209   4.583   5.211   5.645 -0.5950 -0.8159 -0.1274
 8203SOL    HW226210   4.582   5.214   5.481  0.4486  0.0239 -0.1310
 8204SOL     OW26211   0.723   3.126   6.861  0.0255  0.3780  0.5233
 8204SOL    HW126212   0.682   3.087   6.944  0.1410 -1.2922 -0.1704
 8204SOL    HW226213   0.798   3.067   6.831 -0.8716  0.2235 -1.5232
 8205SOL     OW26214   5.039   0.374   0.556  0.0157  0.1174 -0.5910
 8205SOL    HW126215   5.053   0.472   0.566 -1.2314  0.3754 -1.3153
 8205SOL    HW226216   4.948   0.349   0.587 -0.0622 -0.6528 -1.3848
 8206SOL     OW26217   6.788   3.924   3.057 -0.5012 -0.3319  0.3587
 8206SOL    HW126218   6.796   3.867   3.139  0.4208 -0.5031  0.1519
 8206SOL    HW226219   6.866   3.908   2.997 -0.2741  1.0788  0.2424
 8207SOL     OW26220   0.851   0.037   1.888  0.6566 -0.7943  0.1230
 8207SOL    HW126221   0.909  -0.043   1.877  1.4516 -0.2164  0.0556
 8207SOL    HW226222   0.907   0.119   1.897 -0.1282  0.1083 -2.2918
 8208SOL     OW26223   2.120   3.956   6.432  1.0956 -0.2476  0.4866
 8208SOL    HW126224   2.185   3.896   6.385 -0.0424 -0.8973 -0.2966
 8208SOL    HW226225   2.065   3.903   6.496  0.9260  0.1922  0.7128
 8209SOL     OW26226   4.915   4.965   6.164 -0.1577  0.7265  0.0468
 8209SOL    HW126227   4.945   4.893   6.101  1.3243  0.6313  0.7996
 8209SOL    HW226228   4.818   4.982   6.152 -0.1621 -0.1504 -1.3891
 8210SOL     OW26229   6.941   1.367   4.762 -0.2215 -0.3460 -0.1464
 8210SOL    HW126230   7.034   1.399   4.781 -0.9168  1.5540  0.3305
 8210SOL    HW226231   6.944   1.279   4.716  1.8699  0.2013 -1.1686
 8211SOL     OW26232   1.205   2.868   2.746 -0.0703 -0.2390 -0.8600
 8211SOL    HW126233   1.158   2.902   2.828  0.8130  1.3265 -0.9580
 8211SOL    HW226234   1.289   2.921   2.732  1.0918 -2.1202 -1.3992
 8212SOL     OW26235   6.700   2.519   2.907 -0.3293  0.1571 -0.0200
 8212SOL    HW126236   6.651   2.455   2.966  1.5008 -0.9151  0.4095
 8212SOL    HW226237   6.774   2.562   2.959 -0.6068  1.5023 -0.7214
 8213SOL     OW26238   6.907   4.179   2.819  0.4740 -0.2545 -0.9482
 8213SOL    HW126239   6.981   4.213   2.877  0.2672 -0.5800 -0.4829
 8213SOL    HW226240   6.831   4.244   2.819  0.5266 -0.1933 -0.9576
 8214SOL     OW26241   4.735   2.243   2.036  0.3456  0.3728  0.7422
 8214SOL    HW126242   4.645   2.285   2.026 -0.8571 -2.4531 -1.9101
 8214SOL    HW226243   4.754   2.228   2.133 -1.5843  1.8709  1.4213
 8215SOL     OW26244   4.115   0.469   6.144 -0.2901  0.3749  0.4647
 8215SOL    HW126245   4.029   0.420   6.129  0.2488 -0.1777 -0.9960
 8215SOL    HW226246   4.148   0.505   6.056  0.1960  1.9197  1.2464
 8216SOL     OW26247   4.662   0.726   3.810  0.3003 -0.9751 -0.5632
 8216SOL    HW126248   4.583   0.764   3.762  1.7666  1.2241 -1.3687
 8216SOL    HW226249   4.683   0.635   3.773 -0.1582 -0.4146 -2.2939
 8217SOL     OW26250   2.959   4.733   0.665 -0.1160 -0.4889 -0.5570
 8217SOL    HW126251   3.050   4.700   0.641  0.7917  1.4489  0.0132
 8217SOL    HW226252   2.966   4.826   0.702 -2.0453 -1.1656  1.8079
 8218SOL     OW26253   4.278   5.676   1.717 -0.0250  0.2132 -0.5148
 8218SOL    HW126254   4.317   5.601   1.664  2.9213  0.1998  1.4634
 8218SOL    HW226255   4.345   5.709   1.783 -1.8602  3.4111 -0.0379
 8219SOL     OW26256   4.820   3.129   3.029 -0.0792  0.0700 -0.1791
 8219SOL    HW126257   4.772   3.072   2.962  0.8191  1.8714 -2.5047
 8219SOL    HW226258   4.870   3.071   3.093 -0.9216 -1.7404 -1.0973
 8220SOL     OW26259   6.421   4.657   0.008 -0.3263 -0.2223 -0.3105
 8220SOL    HW126260   6.361   4.587  -0.030 -0.8732  0.3324 -0.4803
 8220SOL    HW226261   6.407   4.744  -0.040  0.9211 -0.1794 -0.6424
 8221SOL     OW26262   6.235   0.274   5.673  0.2232 -0.0380 -0.4586
 8221SOL    HW126263   6.302   0.207   5.643  0.3088 -0.0061 -0.3388
 8221SOL    HW226264   6.180   0.235   5.747 -0.5263 -0.4110 -1.1994
 8222SOL     OW26265   4.799   0.047   6.826 -0.2804  0.2298  0.0394
 8222SOL    HW126266   4.881   0.097   6.850  0.1818 -0.2910 -0.4325
 8222SOL    HW226267   4.761   0.083   6.741 -0.7833  0.7400  0.4662
 8223SOL     OW26268   6.468   6.808   0.216 -0.2970 -0.1963  0.1776
 8223SOL    HW126269   6.523   6.782   0.137 -1.2793 -0.7314 -0.3601
 8223SOL    HW226270   6.514   6.779   0.300  0.9157  0.6681 -0.1713
 8224SOL     OW26271   2.477   6.258   0.816 -0.0668 -0.5350 -0.0868
 8224SOL    HW126272   2.576   6.270   0.823  0.0152 -0.5345 -1.1102
 8224SOL    HW226273   2.456   6.161   0.809 -0.2261 -0.6065  1.1522
 8225SOL     OW26274   6.081   1.633   6.577  0.5851  0.7313  1.0499
 8225SOL    HW126275   6.001   1.647   6.518 -0.0264  1.0499  1.9423
 8225SOL    HW226276   6.090   1.536   6.598  2.0803  0.2664 -1.2991
 8226SOL     OW26277   4.870   1.524   1.053 -0.1027 -0.6896  0.6300
 8226SOL    HW126278   4.931   1.520   1.133  0.7067  0.8121  0.1249
 8226SOL    HW226279   4.888   1.445   0.994  1.0625 -0.5077  0.7141
 8227SOL     OW26280   6.440   5.420   4.289  0.4042 -0.1107  0.0114
 8227SOL    HW126281   6.461   5.416   4.191  1.2095 -1.5865  0.2037
 8227SOL    HW226282   6.373   5.350   4.312  0.7291 -0.2324  0.6217
 8228SOL     OW26283   1.786   1.756   2.588 -0.5844 -0.6604 -0.1113
 8228SOL    HW126284   1.724   1.754   2.668 -2.9630  2.7940 -1.6185
 8228SOL    HW226285   1.874   1.795   2.615 -0.9570 -0.5795  1.0444
 8229SOL     OW26286   1.380   1.610   6.649 -0.2138  0.1681  0.2104
 8229SOL    HW126287   1.379   1.558   6.563  0.8709  0.7154 -0.1558
 8229SOL    HW226288   1.357   1.549   6.725  2.3258 -1.2421 -0.0325
 8230SOL     OW26289   5.014   3.314   0.846  0.3762 -0.0232 -0.1620
 8230SOL    HW126290   4.996   3.216   0.857 -0.5886  0.2204  0.5988
 8230SOL    HW226291   4.928   3.364   0.845  0.8340  0.7936 -0.9902
 8231SOL     OW26292   1.712   4.038   4.195 -0.0240 -0.2490 -0.0490
 8231SOL    HW126293   1.706   3.981   4.277 -1.7422 -2.4711 -1.5939
 8231SOL    HW226294   1.631   4.097   4.189 -0.3681 -0.7790 -0.6198
 8232SOL     OW26295   4.697   4.014   4.969 -0.3790 -0.5053  0.2627
 8232SOL    HW126296   4.652   3.925   4.970  1.0574 -1.2528  0.3761
 8232SOL    HW226297   4.795   4.002   4.955 -0.2875  1.1293 -0.7396
 8233SOL     OW26298   2.486   5.037   1.005 -0.4522  0.0824 -0.3201
 8233SOL    HW126299   2.551   4.987   0.947 -1.0469 -0.0207 -0.9161
 8233SOL    HW226300   2.393   5.008   0.983 -0.7559  0.8598 -0.0901
 8234SOL     OW26301   3.314   4.060   6.877 -0.1859 -1.1824  1.1685
 8234SOL    HW126302   3.353   3.986   6.931  0.0485 -0.3799  2.1151
 8234SOL    HW226303   3.388   4.115   6.837 -0.2959 -2.6443 -1.3035
 8235SOL     OW26304   2.534   2.252   2.507 -0.0488 -0.1522  0.1041
 8235SOL    HW126305   2.628   2.264   2.540  0.5639 -1.2837 -1.1372
 8235SOL    HW226306   2.477   2.326   2.542  1.3860  0.7772  0.5744
 8236SOL     OW26307   4.697   6.803   4.131 -0.1678 -0.2607 -0.5782
 8236SOL    HW126308   4.683   6.711   4.096  0.3638  0.1257 -1.8582
 8236SOL    HW226309   4.674   6.805   4.229  0.7178 -1.9508 -0.2995
 8237SOL     OW26310   5.577   2.532   4.180  0.2576 -0.2021 -0.3134
 8237SOL    HW126311   5.510   2.460   4.199  1.3608 -1.7069 -1.7444
 8237SOL    HW226312   5.643   2.537   4.255 -0.0668 -0.4018 -0.0112
 8238SOL     OW26313   3.502   2.602   0.882 -0.1491 -0.1780 -0.3489
 8238SOL    HW126314   3.465   2.634   0.970  1.5531  1.8498 -0.2868
 8238SOL    HW226315   3.456   2.649   0.807  1.5898  1.7411 -0.2995
 8239SOL     OW26316   0.668   3.762   1.110 -0.0889 -0.1079  0.3380
 8239SOL    HW126317   0.594   3.818   1.146  0.0798  0.4848 -0.2183
 8239SOL    HW226318   0.756   3.803   1.135  0.0430 -0.5877  0.6550
 8240SOL     OW26319   5.330   3.595   4.259  0.6285  0.7485 -0.3190
 8240SOL    HW126320   5.246   3.630   4.217 -0.5691  1.3471  2.3879
 8240SOL    HW226321   5.308   3.516   4.316  1.5423  1.9829  1.8506
 8241SOL     OW26322   1.685   4.153   3.788 -0.2449  0.0252  0.1029
 8241SOL    HW126323   1.722   4.164   3.696 -1.3104  0.0759 -0.3237
 8241SOL    HW226324   1.747   4.096   3.842  0.5366  0.2462 -0.5423
 8242SOL     OW26325   5.765   5.641   6.464 -0.2231  0.1962 -0.4177
 8242SOL    HW126326   5.773   5.544   6.442  1.8355  0.3684 -0.6623
 8242SOL    HW226327   5.720   5.652   6.552  0.6730 -1.0828  0.2305
 8243SOL     OW26328   4.432   0.041   2.420  0.7572  0.3625  0.4431
 8243SOL    HW126329   4.339   0.008   2.407  1.3625 -1.1650 -0.3857
 8243SOL    HW226330   4.494  -0.012   2.361  2.2197  0.9570  1.3878
 8244SOL     OW26331   0.979   2.437   4.830 -0.7534  0.1439 -0.3728
 8244SOL    HW126332   0.931   2.421   4.916 -0.7974  0.3527 -0.3604
 8244SOL    HW226333   0.918   2.417   4.754  0.2400 -3.4831 -0.4433
 8245SOL     OW26334   6.949   6.992   3.276  0.7623 -0.2185  0.0188
 8245SOL    HW126335   7.045   7.018   3.262  0.8616 -0.7110 -0.2246
 8245SOL    HW226336   6.933   6.978   3.374  0.6140  1.0928  0.2046
 8246SOL     OW26337   0.593   3.135   2.989 -0.3759  0.3886 -0.4355
 8246SOL    HW126338   0.654   3.196   3.039  0.3265 -0.3781 -0.3405
 8246SOL    HW226339   0.540   3.080   3.053  2.0459 -2.1329 -0.3987
 8247SOL     OW26340   2.469   1.917   4.977 -0.4179 -0.0243 -0.3136
 8247SOL    HW126341   2.532   1.851   4.935 -0.0037  0.4396 -0.4270
 8247SOL    HW226342   2.521   1.986   5.028 -0.9179 -1.1398  1.8536
 8248SOL     OW26343   0.254   0.522   3.614  0.1233 -0.2209  0.4704
 8248SOL    HW126344   0.189   0.545   3.687 -1.0413  0.9582 -0.8636
 8248SOL    HW226345   0.261   0.423   3.606 -1.0800 -0.3719  1.0310
 8249SOL     OW26346   4.843   5.520   4.550 -0.7565 -0.3047  0.1614
 8249SOL    HW126347   4.818   5.531   4.647 -2.2333 -0.4715 -0.1780
 8249SOL    HW226348   4.783   5.454   4.507 -0.7503  0.4783 -1.1109
 8250SOL     OW26349   6.081   0.092   2.240 -0.0075 -0.2452  0.1970
 8250SOL    HW126350   6.072  -0.006   2.219 -0.8395  0.0209 -0.7834
 8250SOL    HW226351   6.176   0.119   2.229 -0.1052 -0.4994 -1.7639
 8251SOL     OW26352   6.380   6.776   2.858  0.3883  0.2507  0.3376
 8251SOL    HW126353   6.476   6.765   2.888  0.1477 -0.9695  0.7269
 8251SOL    HW226354   6.336   6.846   2.914  1.0606  0.8502  0.1317
 8252SOL     OW26355   1.310   4.287   2.314  0.2193  0.1810  0.4276
 8252SOL    HW126356   1.317   4.374   2.363  0.4500  0.8125 -0.6885
 8252SOL    HW226357   1.402   4.250   2.298  0.0845 -1.3767  2.7382
 8253SOL     OW26358   6.498   6.780   3.977  0.9390  0.0959  0.3949
 8253SOL    HW126359   6.403   6.749   3.987  1.3618 -0.9993  1.0860
 8253SOL    HW226360   6.523   6.837   4.055  0.8661  0.3779  0.2163
 8254SOL     OW26361   4.805   6.013   6.686  0.0613 -0.2784 -0.1592
 8254SOL    HW126362   4.821   5.914   6.685 -1.6258 -0.6353  1.3825
 8254SOL    HW226363   4.892   6.062   6.679  0.8690 -1.8405 -1.7199
 8255SOL     OW26364   6.435   4.343   6.407  0.0120 -0.6496 -0.2022
 8255SOL    HW126365   6.416   4.364   6.311  2.2115 -3.4735 -1.4170
 8255SOL    HW226366   6.534   4.344   6.422 -0.2750 -0.7070  1.9378
 8256SOL     OW26367   4.524   0.645   6.910  0.0643 -0.9829 -0.2225
 8256SOL    HW126368   4.435   0.676   6.876  0.4391  0.6089  0.1792
 8256SOL    HW226369   4.534   0.547   6.893 -2.5224 -1.6005  1.3861
 8257SOL     OW26370   4.487   0.695   5.512 -0.0843  0.0938  0.4122
 8257SOL    HW126371   4.483   0.686   5.412  0.2352  2.2870  0.1648
 8257SOL    HW226372   4.486   0.792   5.537  2.4877 -0.2727  2.4108
 8258SOL     OW26373   4.031   4.713   1.524 -0.0311 -0.3061  0.1843
 8258SOL    HW126374   3.990   4.790   1.475 -0.3839 -0.9759 -0.6008
 8258SOL    HW226375   4.021   4.630   1.469  1.5999 -0.6568  0.3630
 8259SOL     OW26376   0.857   6.747   2.021  0.6461  0.2205 -0.1930
 8259SOL    HW126377   0.901   6.658   2.018 -0.5178 -0.3523 -0.9196
 8259SOL    HW226378   0.883   6.801   1.940 -1.6701 -1.0002 -1.8917
 8260SOL     OW26379   1.357   6.586   4.701 -0.8810 -0.1844  0.4393
 8260SOL    HW126380   1.456   6.581   4.709 -0.8749  1.0505  1.6110
 8260SOL    HW226381   1.332   6.629   4.614 -0.3784 -0.2592  0.2573
 8261SOL     OW26382   2.569   0.486   0.545  0.2367  0.5356 -0.0843
 8261SOL    HW126383   2.502   0.413   0.538 -0.0501  0.9078 -1.3773
 8261SOL    HW226384   2.536   0.556   0.609  0.2398 -0.1520  0.6854
 8262SOL     OW26385   2.207   0.037   6.490 -0.3792 -0.0245 -0.2442
 8262SOL    HW126386   2.167   0.043   6.399  2.2545 -0.4261 -1.5304
 8262SOL    HW226387   2.193   0.123   6.539 -0.0541  0.9671 -1.8365
 8263SOL     OW26388   2.330   7.011   5.451  0.4775  0.1115 -0.2125
 8263SOL    HW126389   2.264   7.045   5.519  0.8888  0.4057  0.0475
 8263SOL    HW226390   2.420   7.052   5.469  0.3230  1.2053 -1.7109
 8264SOL     OW26391   3.109   1.535   2.597 -0.8029  0.4365 -0.8847
 8264SOL    HW126392   3.109   1.557   2.499  1.0738  0.5477 -0.8998
 8264SOL    HW226393   3.202   1.545   2.633 -1.4198  0.1598  0.8679
 8265SOL     OW26394   1.490   4.266   4.289 -0.3213 -0.1656 -0.1331
 8265SOL    HW126395   1.395   4.272   4.259 -0.2616  0.2944 -0.2489
 8265SOL    HW226396   1.541   4.345   4.253 -0.4229  0.8495  1.8011
 8266SOL     OW26397   0.717   5.153   0.458 -0.1462 -0.2285  0.2450
 8266SOL    HW126398   0.764   5.219   0.399  0.3312  0.2387  1.1251
 8266SOL    HW226399   0.641   5.197   0.504  0.9127  0.0711  1.7780
 8267SOL     OW26400   1.349   2.653   5.751  0.3476  0.2754  0.0511
 8267SOL    HW126401   1.287   2.598   5.808 -0.0585  0.5225 -0.1474
 8267SOL    HW226402   1.440   2.612   5.752 -0.0395 -0.6208 -0.3981
 8268SOL     OW26403   4.120   5.406   1.157  0.1615 -0.0266  0.3114
 8268SOL    HW126404   4.107   5.316   1.116  0.7214 -0.1052  0.3086
 8268SOL    HW226405   4.068   5.411   1.242 -1.3836  0.2922 -0.5943
 8269SOL     OW26406   5.383   2.775   6.797  0.5741  0.6085  0.2312
 8269SOL    HW126407   5.403   2.682   6.764  0.3982  0.6804 -0.0902
 8269SOL    HW226408   5.468   2.825   6.811  0.7115  0.0980  1.3082
 8270SOL     OW26409   1.274   3.562   4.146  0.0030 -1.0499  0.0230
 8270SOL    HW126410   1.292   3.658   4.166 -1.1577 -1.0223  1.0424
 8270SOL    HW226411   1.265   3.550   4.047 -1.8399  0.3032 -0.0476
 8271SOL     OW26412   0.720   1.192   0.826 -0.0404 -0.4907  0.1187
 8271SOL    HW126413   0.717   1.144   0.738 -1.0820  0.5350 -0.4304
 8271SOL    HW226414   0.809   1.235   0.838  0.9372 -2.4930  0.6252
 8272SOL     OW26415   1.887   0.907   2.912 -0.4014  0.6299 -0.3393
 8272SOL    HW126416   1.977   0.868   2.929 -0.3070  1.4759  1.3106
 8272SOL    HW226417   1.845   0.861   2.834  1.0483 -0.4411 -0.5315
 8273SOL     OW26418   3.474   5.654   7.023  0.1609 -0.3996  0.0681
 8273SOL    HW126419   3.419   5.671   6.942 -0.5257  0.6954  0.7373
 8273SOL    HW226420   3.510   5.561   7.020  0.5159 -0.2411 -1.6845
 8274SOL     OW26421   6.913   6.759   4.527  0.1759  0.5560  0.4000
 8274SOL    HW126422   6.975   6.757   4.606  1.3801  0.1041 -0.5211
 8274SOL    HW226423   6.965   6.737   4.444 -1.4946 -1.2592 -0.2362
 8275SOL     OW26424   1.392   2.782   4.622  0.3880  0.8148  0.2324
 8275SOL    HW126425   1.322   2.811   4.688  0.6892  0.7651  0.5759
 8275SOL    HW226426   1.365   2.811   4.530 -0.7611 -0.3544  0.1526
 8276SOL     OW26427   0.156   2.915   1.530 -0.5718  0.1730 -0.2159
 8276SOL    HW126428   0.166   2.936   1.627 -3.9316 -0.1207  0.3072
 8276SOL    HW226429   0.059   2.916   1.505  0.0235 -1.6743 -3.1480
 8277SOL     OW26430   3.403   5.165   0.451  0.2856  0.1022  0.2806
 8277SOL    HW126431   3.469   5.236   0.429 -0.1856  0.8825  1.3388
 8277SOL    HW226432   3.370   5.177   0.544 -3.2577  1.2776 -0.9854
 8278SOL     OW26433   1.031   0.019   6.909 -0.4409  0.5956  0.5085
 8278SOL    HW126434   1.097   0.043   6.980 -0.9529  0.9488  0.8738
 8278SOL    HW226435   1.005  -0.077   6.919  0.8833  0.1212 -0.3584
 8279SOL     OW26436   0.811   1.023   5.239 -0.2630  0.2419  0.0877
 8279SOL    HW126437   0.812   1.123   5.246 -1.3886  0.4259 -1.8181
 8279SOL    HW226438   0.733   0.988   5.290  0.7894  0.1912  1.7467
 8280SOL     OW26439   5.868   1.291   6.712 -0.8020  0.1408  0.4131
 8280SOL    HW126440   5.941   1.311   6.647 -0.4448  1.1575  1.1056
 8280SOL    HW226441   5.906   1.244   6.791 -1.3012 -1.4694 -0.2521
 8281SOL     OW26442   1.597   0.028   1.931 -0.4824  0.4341 -0.2627
 8281SOL    HW126443   1.518  -0.032   1.913 -0.9152  1.5344 -2.3238
 8281SOL    HW226444   1.638   0.002   2.018 -1.5705 -1.8424 -0.3340
 8282SOL     OW26445   1.508   4.026   4.972 -0.0541  0.2546  0.2276
 8282SOL    HW126446   1.541   3.952   5.031 -0.0696  0.1801  0.1439
 8282SOL    HW226447   1.549   4.112   5.000 -0.2500  0.2586  0.4988
 8283SOL     OW26448   0.647   4.723   5.661 -0.1605  0.5696 -0.3303
 8283SOL    HW126449   0.555   4.753   5.638  0.4956  1.9892 -1.2046
 8283SOL    HW226450   0.687   4.785   5.729 -0.0149 -0.3259  0.4273
 8284SOL     OW26451   0.275   1.675   4.252 -0.1234  0.0737 -0.2421
 8284SOL    HW126452   0.350   1.633   4.303  0.1450  0.8109 -0.0217
 8284SOL    HW226453   0.280   1.774   4.260 -2.4199  0.1194  1.6774
 8285SOL     OW26454   6.957   0.473   0.622  0.0540 -0.2734 -0.0026
 8285SOL    HW126455   6.922   0.393   0.670 -0.8100  0.8984  1.4321
 8285SOL    HW226456   6.978   0.545   0.689  1.6083  0.4051 -1.1756
 8286SOL     OW26457   0.094   4.870   2.803  0.1370 -0.3762  0.2349
 8286SOL    HW126458   0.020   4.860   2.735  1.4868 -3.3705 -0.9521
 8286SOL    HW226459   0.172   4.916   2.760  0.1036 -0.0331  0.5396
 8287SOL     OW26460   6.925   5.118   2.477  0.0955  0.2552 -0.0429
 8287SOL    HW126461   6.887   5.043   2.532  1.4049  0.2640  0.9288
 8287SOL    HW226462   7.022   5.130   2.500  0.0529  1.8712 -0.6129
 8288SOL     OW26463   6.311   6.403   3.538 -0.0089 -0.1004 -0.1682
 8288SOL    HW126464   6.368   6.321   3.542 -1.0332 -0.9161 -1.6511
 8288SOL    HW226465   6.297   6.430   3.443 -2.2979 -0.1134  0.1004
 8289SOL     OW26466   1.619   6.040   5.947  0.3200  0.5713  1.0068
 8289SOL    HW126467   1.709   6.081   5.938  0.0425  1.4290  1.9972
 8289SOL    HW226468   1.556   6.104   5.992 -0.4129 -0.5166  1.6034
 8290SOL     OW26469   3.132   4.409   1.242  0.0255  0.3759 -0.2275
 8290SOL    HW126470   3.183   4.493   1.224 -1.1074  1.1390  0.0477
 8290SOL    HW226471   3.108   4.405   1.339 -2.4327  1.2207 -0.7357
 8291SOL     OW26472   4.980   2.403   2.021  0.2395  0.7167  0.0472
 8291SOL    HW126473   4.984   2.491   1.974  0.3656  0.0393 -1.2534
 8291SOL    HW226474   4.901   2.352   1.988 -0.3566  0.6723  1.4446
 8292SOL     OW26475   2.127   1.063   0.712 -0.0523  0.3934 -0.1156
 8292SOL    HW126476   2.063   1.064   0.635  0.5549 -0.5426 -0.6660
 8292SOL    HW226477   2.093   1.002   0.783 -0.8764  1.6701  0.6196
 8293SOL     OW26478   2.433   3.184   2.129  0.0010  0.1256 -0.2440
 8293SOL    HW126479   2.447   3.158   2.034  0.9064 -0.7827  0.1319
 8293SOL    HW226480   2.444   3.283   2.138  1.1723  0.0632 -0.8660
 8294SOL     OW26481   1.401   6.966   3.490 -0.2470 -0.2868 -0.0408
 8294SOL    HW126482   1.471   7.021   3.443 -1.3270  1.1193 -0.0461
 8294SOL    HW226483   1.404   6.872   3.454  2.0826 -0.4612  0.4554
 8295SOL     OW26484   5.720   6.397   2.235 -0.1183  0.4416  0.3494
 8295SOL    HW126485   5.634   6.439   2.265 -0.9953 -1.5919  0.8373
 8295SOL    HW226486   5.747   6.437   2.147 -1.8758  0.7466 -0.0979
 8296SOL     OW26487   3.525   6.994   6.498  0.2856  0.4932  0.7924
 8296SOL    HW126488   3.516   6.995   6.398 -0.5187  0.4384  0.8566
 8296SOL    HW226489   3.584   7.068   6.527 -0.2204  1.0849  0.3356
 8297SOL     OW26490   2.085   2.520   1.261 -0.1526  0.1607  0.0698
 8297SOL    HW126491   2.163   2.569   1.223 -0.4590 -0.1713 -1.0189
 8297SOL    HW226492   2.053   2.567   1.344  0.8880  0.5680  0.2594
 8298SOL     OW26493   1.007   5.025   6.573  0.4762 -0.2354 -0.1726
 8298SOL    HW126494   1.098   5.065   6.582 -0.0154  1.4033 -1.8769
 8298SOL    HW226495   0.942   5.096   6.545 -1.0501 -1.6657 -0.4193
 8299SOL     OW26496   1.930   6.691   2.496  0.3063  0.6604  0.2286
 8299SOL    HW126497   1.834   6.667   2.504  0.3062  0.9050  1.0842
 8299SOL    HW226498   1.938   6.783   2.459  0.2364  0.3319 -0.6119
 8300SOL     OW26499   4.516   6.884   3.564  0.4533  0.0503  0.0678
 8300SOL    HW126500   4.468   6.904   3.649  1.1292  0.1097  0.4344
 8300SOL    HW226501   4.527   6.968   3.511 -0.3387 -0.0554 -0.2785
 8301SOL     OW26502   4.358   5.496   2.670 -0.6703 -0.2249 -0.5112
 8301SOL    HW126503   4.298   5.417   2.688 -2.2970  0.6032 -2.0153
 8301SOL    HW226504   4.337   5.569   2.735  1.4973 -1.2716  1.5128
 8302SOL     OW26505   5.930   6.599   3.001  0.4331  0.2598  0.6300
 8302SOL    HW126506   5.836   6.611   2.969  0.9151  0.7562 -0.6561
 8302SOL    HW226507   5.933   6.524   3.068 -0.7477 -0.2667  0.1196
 8303SOL     OW26508   3.503   0.528   0.092 -0.0813  0.7442  0.7879
 8303SOL    HW126509   3.582   0.467   0.092 -0.4750  0.2098 -0.3236
 8303SOL    HW226510   3.532   0.621   0.072  0.0396  0.1618 -2.1519
 8304SOL     OW26511   3.707   2.504   0.994  0.7716 -0.1965 -0.1710
 8304SOL    HW126512   3.759   2.582   1.026  2.4174 -1.8638  1.4988
 8304SOL    HW226513   3.630   2.535   0.939  0.7826  2.6085  1.2302
 8305SOL     OW26514   0.510   2.122   1.228 -0.5225 -0.0664 -0.7859
 8305SOL    HW126515   0.458   2.107   1.311 -0.3246  1.9548 -0.2356
 8305SOL    HW226516   0.454   2.171   1.161 -0.4446 -1.0131 -1.5543
 8306SOL     OW26517   3.645   6.791   3.443  0.2015 -0.3499  0.0063
 8306SOL    HW126518   3.583   6.727   3.396 -1.2827 -0.2802  1.7960
 8306SOL    HW226519   3.624   6.884   3.416  0.4871 -0.4079 -0.4407
 8307SOL     OW26520   0.447   6.730   3.385 -0.0954  0.7337  0.5762
 8307SOL    HW126521   0.348   6.716   3.376 -0.2385  1.7812  0.4327
 8307SOL    HW226522   0.470   6.740   3.482  0.1512 -1.3053  0.7867
 8308SOL     OW26523   1.531   1.924   1.955  0.0339  0.1523 -0.6951
 8308SOL    HW126524   1.481   1.920   1.869 -2.0242  0.8452  0.3866
 8308SOL    HW226525   1.489   1.862   2.021  0.3133  1.0703  0.3832
 8309SOL     OW26526   2.125   1.051   3.657  0.2088  0.4166  0.1115
 8309SOL    HW126527   2.172   0.978   3.705  0.1848  1.5622  1.9920
 8309SOL    HW226528   2.031   1.058   3.691 -0.0302  0.8016 -0.6104
 8310SOL     OW26529   5.134   1.891   1.898 -0.3707  0.8134 -0.4909
 8310SOL    HW126530   5.105   1.824   1.966 -0.3849  0.7400 -0.5680
 8310SOL    HW226531   5.055   1.940   1.862 -0.2650  1.5930  0.3032
 8311SOL     OW26532   3.039   6.572   0.751 -0.3659  0.3940  0.0838
 8311SOL    HW126533   3.059   6.585   0.848 -1.4211  0.8814  0.2564
 8311SOL    HW226534   2.984   6.489   0.740 -3.3780  2.1961  0.4028
 8312SOL     OW26535   0.732   0.386   5.590 -0.3015  0.1362  0.6438
 8312SOL    HW126536   0.737   0.397   5.689 -2.5133 -1.0780  0.9577
 8312SOL    HW226537   0.740   0.289   5.567 -2.2092  0.1120 -0.0974
 8313SOL     OW26538   1.920   2.470   1.660 -0.3349  0.6766 -0.6317
 8313SOL    HW126539   2.019   2.453   1.662 -0.6155 -1.0843  0.3101
 8313SOL    HW226540   1.889   2.496   1.751 -0.9017  0.0926 -0.6502
 8314SOL     OW26541   5.801   5.321   6.932 -1.0464  0.3793  0.5116
 8314SOL    HW126542   5.888   5.312   6.979 -1.0103  0.5178  0.4718
 8314SOL    HW226543   5.802   5.265   6.849 -0.8392  0.7092  0.2892
 8315SOL     OW26544   7.010   3.296   2.472  0.2284  0.2288  0.1466
 8315SOL    HW126545   7.090   3.273   2.528 -0.1361 -0.6248  0.3420
 8315SOL    HW226546   6.974   3.212   2.430 -1.3043  0.3948  1.0670
 8316SOL     OW26547   3.785   2.950   3.501  0.4159  0.6055  0.0335
 8316SOL    HW126548   3.733   2.923   3.582 -0.9997  0.5190 -0.8645
 8316SOL    HW226549   3.868   2.895   3.495 -0.0854 -0.2567  0.7501
 8317SOL     OW26550   5.088   6.697   5.263 -0.7751  0.2976 -0.0852
 8317SOL    HW126551   5.165   6.706   5.200 -1.0797  0.9544 -0.3780
 8317SOL    HW226552   5.026   6.775   5.251 -0.7033  0.5827  1.2225
 8318SOL     OW26553   0.512   4.150   0.486 -0.1057 -0.1670  0.0077
 8318SOL    HW126554   0.487   4.128   0.392  0.9402  1.3066 -0.6561
 8318SOL    HW226555   0.429   4.168   0.539 -0.6757  2.2771 -1.5206
 8319SOL     OW26556   3.720   5.989   0.355 -0.4496  0.2355 -0.0269
 8319SOL    HW126557   3.819   5.976   0.357 -0.6336 -1.5825 -0.9790
 8319SOL    HW226558   3.678   5.921   0.295 -2.3202  0.7692  0.5968
 8320SOL     OW26559   3.186   1.071   7.024 -0.4308 -0.2977 -0.0105
 8320SOL    HW126560   3.244   1.038   6.950  0.1462 -0.0792  0.3409
 8320SOL    HW226561   3.219   1.160   7.056 -2.1454  0.8031 -1.1521
 8321SOL     OW26562   2.500   3.393   3.032  0.1131 -0.2334 -0.1422
 8321SOL    HW126563   2.402   3.410   3.031 -0.2298 -1.9803 -0.4460
 8321SOL    HW226564   2.526   3.356   3.121  0.8958  2.0967  0.6574
 8322SOL     OW26565   2.236   2.747   1.598  0.1137  0.1877 -0.7462
 8322SOL    HW126566   2.214   2.698   1.682 -0.8365 -0.7455 -1.5285
 8322SOL    HW226567   2.304   2.695   1.546 -1.9101 -1.0699 -2.2451
 8323SOL     OW26568   4.841   1.026   6.270  0.2489  0.5713 -0.1705
 8323SOL    HW126569   4.909   1.067   6.331 -0.5922  0.0101  1.2083
 8323SOL    HW226570   4.750   1.058   6.296 -0.3259 -1.2413  0.2155
 8324SOL     OW26571   1.263   3.171   3.141  0.2537  0.4393 -0.2862
 8324SOL    HW126572   1.264   3.085   3.091 -1.0737 -0.1116  0.5764
 8324SOL    HW226573   1.335   3.231   3.106  1.2875 -1.0574 -0.8180
 8325SOL     OW26574   1.515   4.898   2.791 -0.4308 -0.2122 -0.3598
 8325SOL    HW126575   1.548   4.986   2.825  2.1002 -0.9046 -0.8451
 8325SOL    HW226576   1.492   4.839   2.868  3.4339 -1.0959  0.3053
 8326SOL     OW26577   5.361   3.021   1.076  0.0271  0.5473  0.0469
 8326SOL    HW126578   5.453   3.053   1.052 -0.1454  0.9270 -0.1249
 8326SOL    HW226579   5.367   2.945   1.141  0.4388  1.1754  0.7580
 8327SOL     OW26580   2.440   2.089   3.469 -0.1771  0.2443  0.0423
 8327SOL    HW126581   2.377   2.139   3.528 -1.6032 -2.0010  0.5347
 8327SOL    HW226582   2.527   2.076   3.518  0.2143  2.0705 -0.0743
 8328SOL     OW26583   3.031   0.196   2.686  0.1349 -0.1333  0.2979
 8328SOL    HW126584   3.113   0.146   2.712  0.0531 -0.5123 -0.1471
 8328SOL    HW226585   3.056   0.271   2.624  0.1583 -0.1933  0.2339
 8329SOL     OW26586   5.939   6.411   2.417 -0.1221  0.1313  0.2874
 8329SOL    HW126587   5.893   6.426   2.505 -2.0272  1.8098 -0.9196
 8329SOL    HW226588   5.872   6.411   2.343  1.6100  0.7428 -1.3787
 8330SOL     OW26589   6.356   3.347   3.396 -0.1700  0.4755  0.3955
 8330SOL    HW126590   6.358   3.366   3.297  0.2750  0.2546  0.3598
 8330SOL    HW226591   6.292   3.410   3.440 -0.7438  0.2579 -0.0991
 8331SOL     OW26592   6.429   5.346   3.583  0.2159  0.2318  0.5263
 8331SOL    HW126593   6.477   5.283   3.643  1.6907 -0.1483 -1.0006
 8331SOL    HW226594   6.389   5.296   3.507 -1.5612  0.7228  1.0785
 8332SOL     OW26595   0.741   4.470   5.110 -0.3286  0.4475  0.6590
 8332SOL    HW126596   0.747   4.441   5.205 -0.1235  1.2214  0.8911
 8332SOL    HW226597   0.657   4.435   5.069 -0.4163  0.1148  1.1283
 8333SOL     OW26598   2.663   3.603   6.601  0.1213 -0.4021  0.0727
 8333SOL    HW126599   2.632   3.647   6.685 -0.8884 -1.4252  0.2599
 8333SOL    HW226600   2.759   3.575   6.611  0.7275  1.5062  0.0167
 8334SOL     OW26601   0.853   3.132   2.275 -0.3711 -0.0659 -0.4208
 8334SOL    HW126602   0.817   3.202   2.337 -0.1275  1.7863 -2.2574
 8334SOL    HW226603   0.777   3.079   2.237 -0.8007  0.8126 -0.8240
 8335SOL     OW26604   2.105   0.812   4.264  0.0468 -0.2072 -0.4329
 8335SOL    HW126605   2.152   0.763   4.338  0.2972  1.3466  0.4711
 8335SOL    HW226606   2.090   0.907   4.291  0.1875  0.4233 -2.4145
 8336SOL     OW26607   3.732   1.425   0.773  0.2520  0.2534  0.6718
 8336SOL    HW126608   3.725   1.331   0.808 -0.6643 -0.0510 -0.2853
 8336SOL    HW226609   3.644   1.471   0.783  0.8445  1.2249  1.6548
 8337SOL     OW26610   1.112   6.874   4.071  0.5535 -0.3366 -0.5406
 8337SOL    HW126611   1.112   6.787   4.021  0.8373 -0.1891 -0.7965
 8337SOL    HW226612   1.191   6.928   4.044  1.1314 -0.5631  0.6061
 8338SOL     OW26613   3.461   1.705   6.799  0.3490 -0.5961 -0.1906
 8338SOL    HW126614   3.510   1.758   6.867 -2.0698  1.2905  0.2189
 8338SOL    HW226615   3.363   1.705   6.820 -0.4052 -0.5886 -3.2004
 8339SOL     OW26616   2.752   2.433   1.694  0.0494  0.3995  0.0692
 8339SOL    HW126617   2.796   2.448   1.606  0.7721 -0.2237  0.3099
 8339SOL    HW226618   2.676   2.369   1.684 -2.0714  2.8514 -0.6866
 8340SOL     OW26619   0.666   3.576   5.254  0.1032  0.1609 -0.3491
 8340SOL    HW126620   0.689   3.531   5.340 -1.1379 -1.4484 -0.8031
 8340SOL    HW226621   0.664   3.508   5.180  1.3988  1.5353 -1.7360
 8341SOL     OW26622   6.869   4.150   0.178  0.5526 -0.7610 -1.0758
 8341SOL    HW126623   6.882   4.202   0.262 -2.2370 -1.6871  0.0273
 8341SOL    HW226624   6.937   4.179   0.110  1.2527  1.8268  0.5912
 8342SOL     OW26625   4.614   6.712   3.188  0.4787  0.1042  0.0196
 8342SOL    HW126626   4.636   6.809   3.182  0.7581  0.0637  0.3909
 8342SOL    HW226627   4.578   6.681   3.100 -1.9827  1.1233  0.5699
 8343SOL     OW26628   6.515   0.749   0.439  0.0329  0.3489  0.4410
 8343SOL    HW126629   6.578   0.689   0.489 -0.3905  0.1875  0.7816
 8343SOL    HW226630   6.433   0.763   0.493 -0.6158 -0.1778 -0.3898
 8344SOL     OW26631   1.535   3.574   1.162 -0.3409 -0.2487  0.0507
 8344SOL    HW126632   1.530   3.514   1.242  0.6298 -3.6309 -2.2044
 8344SOL    HW226633   1.626   3.614   1.156  0.1642 -1.3683 -0.1829
 8345SOL     OW26634   6.975   6.138   1.760 -0.2787  0.1484  0.1879
 8345SOL    HW126635   6.937   6.230   1.751 -0.6644 -0.0943 -0.8647
 8345SOL    HW226636   6.903   6.075   1.787  0.2201  0.3244  2.0367
 8346SOL     OW26637   0.896   5.441   3.151 -0.2772 -0.0834  0.1738
 8346SOL    HW126638   0.817   5.477   3.201  0.3078 -0.3776  1.3532
 8346SOL    HW226639   0.980   5.478   3.191  0.1837  0.6998 -1.4444
 8347SOL     OW26640   3.857   5.284   5.579  0.2069  0.5209  0.4377
 8347SOL    HW126641   3.818   5.376   5.573 -0.1588  0.4241  1.1773
 8347SOL    HW226642   3.844   5.249   5.672  0.2009 -0.3387  0.1216
 8348SOL     OW26643   2.136   5.224   0.974 -0.0484 -0.1662 -0.0028
 8348SOL    HW126644   2.211   5.284   0.946 -0.1859 -0.4810 -1.0649
 8348SOL    HW226645   2.048   5.266   0.949 -0.3530  0.9025  2.5334
 8349SOL     OW26646   3.921   3.814   5.925 -0.4463 -0.1817 -0.0701
 8349SOL    HW126647   3.973   3.863   5.855  0.5220  0.0689  0.8119
 8349SOL    HW226648   3.983   3.781   5.996 -1.2594 -1.5028  0.0623
 8350SOL     OW26649   0.797   3.906   5.120  0.1043 -0.1176 -0.6452
 8350SOL    HW126650   0.871   3.866   5.175  0.3264 -2.4657 -2.5022
 8350SOL    HW226651   0.709   3.873   5.154  0.0372  0.6381 -0.0418
 8351SOL     OW26652   0.893   6.906   0.858  0.6503  0.0998  0.1304
 8351SOL    HW126653   0.874   6.842   0.931 -0.3444 -0.2967 -0.4659
 8351SOL    HW226654   0.904   6.857   0.772  1.1488  0.6179 -0.1123
 8352SOL     OW26655   3.992   0.857   6.771  0.2325 -0.2355 -0.4976
 8352SOL    HW126656   4.061   0.899   6.831 -1.6540  1.9592  0.2883
 8352SOL    HW226657   4.037   0.792   6.709  3.4056  2.5230 -1.4402
 8353SOL     OW26658   3.300   2.791   1.954 -0.3896 -0.4450 -0.4563
 8353SOL    HW126659   3.346   2.702   1.959 -1.8666 -1.2105 -0.1789
 8353SOL    HW226660   3.208   2.780   1.918 -0.1962  1.1513 -1.5520
 8354SOL     OW26661   6.977   3.903   0.268 -0.3378  0.2010  0.3362
 8354SOL    HW126662   6.927   3.988   0.255 -0.1032  0.1873 -0.8553
 8354SOL    HW226663   7.072   3.924   0.291 -0.4003  0.2551  0.5454
 8355SOL     OW26664   2.726   2.390   5.027 -0.1670 -0.0337 -0.1072
 8355SOL    HW126665   2.753   2.299   4.998  0.1093  0.2375 -0.7166
 8355SOL    HW226666   2.731   2.453   4.950  0.2725  0.6373  0.4528
 8356SOL     OW26667   6.632   6.617   5.658 -0.1134 -0.4975  0.3089
 8356SOL    HW126668   6.553   6.675   5.675  1.1195  1.1028  0.8614
 8356SOL    HW226669   6.674   6.591   5.745  0.4036 -0.7134  0.0005
 8357SOL     OW26670   4.494   0.812   3.633 -0.2393  0.4845 -0.2061
 8357SOL    HW126671   4.536   0.856   3.554  0.9831 -1.7959 -0.9117
 8357SOL    HW226672   4.403   0.778   3.608  0.2198 -0.3994 -0.7244
 8358SOL     OW26673   6.806   4.863   3.697 -0.1287 -0.2508  0.1682
 8358SOL    HW126674   6.769   4.849   3.605  0.9798 -0.9433 -0.1937
 8358SOL    HW226675   6.904   4.885   3.691  0.1182 -0.9736  1.2085
 8359SOL     OW26676   5.898   4.115   3.587 -0.2149  0.0595 -0.0433
 8359SOL    HW126677   5.996   4.131   3.576 -0.0680 -0.5616  0.2656
 8359SOL    HW226678   5.853   4.199   3.614  0.2279  0.3615 -0.2263
 8360SOL     OW26679   3.471   4.286   6.697 -0.3652 -0.2160 -0.6479
 8360SOL    HW126680   3.559   4.239   6.685 -0.2363  0.0071 -0.5824
 8360SOL    HW226681   3.406   4.252   6.630 -0.3132 -0.5877 -0.5145
 8361SOL     OW26682   0.995   0.458   0.606 -0.1085 -0.2130  0.0253
 8361SOL    HW126683   1.035   0.447   0.697  0.8899 -1.5386 -0.5411
 8361SOL    HW226684   1.067   0.472   0.539 -0.6736 -1.2898 -0.8350
 8362SOL     OW26685   1.754   6.678   5.835  0.2082  0.1222 -0.5593
 8362SOL    HW126686   1.834   6.718   5.791 -0.3370  2.4033  0.4085
 8362SOL    HW226687   1.773   6.664   5.932 -0.2613 -0.2027 -0.5105
 8363SOL     OW26688   0.055   5.233   5.836  0.5037  0.1822 -1.0487
 8363SOL    HW126689   0.054   5.188   5.747  0.6229  0.9011 -1.4184
 8363SOL    HW226690   0.140   5.285   5.847  1.8293 -2.1367  0.6342
 8364SOL     OW26691   1.276   3.517   5.833 -0.1771  0.4274  0.0354
 8364SOL    HW126692   1.274   3.612   5.801  0.4482  0.3409 -0.2847
 8364SOL    HW226693   1.356   3.471   5.795 -0.1592 -0.0666  0.6567
 8365SOL     OW26694   1.223   2.301   1.524 -0.1796 -0.6373 -0.3165
 8365SOL    HW126695   1.175   2.385   1.500 -1.8579 -1.9910 -1.9998
 8365SOL    HW226696   1.187   2.265   1.610  0.4211  0.2298  0.3150
 8366SOL     OW26697   5.159   5.624   5.005  0.0238  0.2216 -0.5584
 8366SOL    HW126698   5.257   5.642   4.998  0.1888 -0.6861 -0.7937
 8366SOL    HW226699   5.110   5.710   5.018  0.8401  0.6954 -0.5225
 8367SOL     OW26700   4.599   6.164   6.280  0.3378  0.2434  0.3467
 8367SOL    HW126701   4.678   6.206   6.234  0.2181 -0.5613 -0.6300
 8367SOL    HW226702   4.627   6.128   6.369  0.8329  0.8531  0.4422
 8368SOL     OW26703   2.145   2.501   0.643  0.3675 -0.0128 -0.3883
 8368SOL    HW126704   2.052   2.530   0.618  0.3067 -0.3927 -0.6041
 8368SOL    HW226705   2.160   2.519   0.741  0.8762  2.2139 -0.8088
 8369SOL     OW26706   6.535   0.132   5.053 -0.4828  0.1118 -0.3415
 8369SOL    HW126707   6.569   0.039   5.062 -1.2978 -0.1334  0.3278
 8369SOL    HW226708   6.502   0.164   5.142  0.8343  1.4599 -0.2990
 8370SOL     OW26709   4.977   4.289   5.739 -0.6526  0.3456  0.6970
 8370SOL    HW126710   5.055   4.296   5.677 -0.0233  1.3712  1.5643
 8370SOL    HW226711   4.954   4.192   5.753  0.6268  0.0110  0.6253
 8371SOL     OW26712   4.995   3.469   3.547 -0.2980  0.0342  0.6008
 8371SOL    HW126713   4.938   3.546   3.519  1.9571  0.8065 -2.2562
 8371SOL    HW226714   4.981   3.392   3.485  1.1399 -0.0351  0.3287
 8372SOL     OW26715   2.212   5.513   0.955 -0.0670 -0.0174  0.1132
 8372SOL    HW126716   2.113   5.502   0.946 -0.3665 -0.5518  3.0752
 8372SOL    HW226717   2.233   5.558   1.042  2.3233 -0.6257 -0.0707
 8373SOL     OW26718   2.831   3.583   6.906 -0.4610 -0.1293 -0.8173
 8373SOL    HW126719   2.912   3.532   6.935  0.1004  1.0639 -0.2212
 8373SOL    HW226720   2.803   3.645   6.979 -1.9551 -0.5677 -1.0029
 8374SOL     OW26721   1.870   2.248   4.660  0.5789  0.5765  0.6432
 8374SOL    HW126722   1.886   2.314   4.587  0.3706  1.7693  1.6479
 8374SOL    HW226723   1.772   2.238   4.676  0.3615 -2.3967 -1.5984
 8375SOL     OW26724   1.812   2.845   4.769  0.5602 -0.4050 -0.1862
 8375SOL    HW126725   1.855   2.765   4.727  2.6384  0.6610 -0.2179
 8375SOL    HW226726   1.874   2.885   4.836 -0.2456  1.4069 -0.4444
 8376SOL     OW26727   4.464   6.475   5.570 -0.2421 -0.5606  0.1165
 8376SOL    HW126728   4.471   6.467   5.471 -0.9394 -0.3470  0.0432
 8376SOL    HW226729   4.400   6.548   5.593  1.7031  1.0188  0.7455
 8377SOL     OW26730   6.142   0.248   1.622 -0.0985  1.1616 -0.3044
 8377SOL    HW126731   6.064   0.296   1.582  0.1553  2.3873  0.6020
 8377SOL    HW226732   6.109   0.185   1.692 -0.2801  1.9371  0.3284
 8378SOL     OW26733   3.388   6.069   6.864  0.0660  0.4402  0.0216
 8378SOL    HW126734   3.291   6.051   6.848 -0.5689  2.6256  1.0777
 8378SOL    HW226735   3.411   6.045   6.959  0.7432 -0.6102 -0.3818
 8379SOL     OW26736   4.431   3.913   5.843  0.0678 -0.0019  0.1029
 8379SOL    HW126737   4.395   3.846   5.908 -1.5867  0.9060  0.1606
 8379SOL    HW226738   4.483   3.864   5.772 -0.7349 -1.3048  0.3705
 8380SOL     OW26739   1.893   0.671   0.956  0.2463  0.5110  0.1906
 8380SOL    HW126740   1.819   0.620   1.000  1.3360  0.0318  1.5493
 8380SOL    HW226741   1.952   0.608   0.906  2.4248  0.0754  3.0553
 8381SOL     OW26742   6.819   5.250   1.135 -0.1692 -0.3876 -0.6253
 8381SOL    HW126743   6.915   5.237   1.161 -0.6053 -1.7811  0.4335
 8381SOL    HW226744   6.812   5.256   1.035  0.9656 -0.8074 -0.7450
 8382SOL     OW26745   4.371   1.180   3.160  0.1379  0.1319 -0.3766
 8382SOL    HW126746   4.462   1.216   3.142 -0.4234  1.0461 -1.4613
 8382SOL    HW226747   4.312   1.253   3.196 -0.1845 -0.4435  0.2986
 8383SOL     OW26748   1.804   6.845   3.475 -0.1100 -0.0030 -0.0413
 8383SOL    HW126749   1.747   6.829   3.556 -0.7796 -0.8468 -0.6699
 8383SOL    HW226750   1.781   6.934   3.436 -0.5569 -0.0689  0.0670
 8384SOL     OW26751   6.970   7.027   2.356  0.7364  0.8159 -0.4647
 8384SOL    HW126752   6.880   7.001   2.321  0.9631 -0.5751 -0.0653
 8384SOL    HW226753   7.036   7.028   2.281  1.6749 -4.1242 -0.0658
 8385SOL     OW26754   4.833   0.130   2.787  0.0568  0.1284 -0.4911
 8385SOL    HW126755   4.853   0.050   2.731 -0.1324 -0.6220  0.4818
 8385SOL    HW226756   4.830   0.212   2.729  1.4319 -0.3797 -1.3312
 8386SOL     OW26757   1.432   3.118   6.081  0.1033 -0.5996 -0.2039
 8386SOL    HW126758   1.358   3.183   6.096 -0.6094 -1.6104  0.7515
 8386SOL    HW226759   1.394   3.026   6.069  1.1414 -0.9709 -0.8052
 8387SOL     OW26760   4.140   1.237   3.785 -0.2841  0.7945  0.6634
 8387SOL    HW126761   4.198   1.317   3.803 -1.3411  1.5770  0.6740
 8387SOL    HW226762   4.198   1.159   3.761  0.7319  1.7472 -0.0787
 8388SOL     OW26763   6.503   0.174   4.792 -0.5777 -0.5852  0.1117
 8388SOL    HW126764   6.513   0.196   4.889 -0.8990  0.6714 -0.1274
 8388SOL    HW226765   6.406   0.168   4.769 -0.5024 -1.0005 -0.1134
 8389SOL     OW26766   0.849   1.509   5.149 -0.5356 -0.7449  0.4403
 8389SOL    HW126767   0.943   1.480   5.132  0.8220  0.4674  4.6772
 8389SOL    HW226768   0.835   1.601   5.111  0.4851 -0.3506  0.9756
 8390SOL     OW26769   2.802   5.362   2.158  0.4563  0.2322  0.4976
 8390SOL    HW126770   2.813   5.462   2.160 -0.9410  0.4036  0.6560
 8390SOL    HW226771   2.764   5.335   2.070 -0.5945  0.0237  0.9968
 8391SOL     OW26772   2.537   2.985   0.315  0.4215  0.0207  0.5950
 8391SOL    HW126773   2.585   3.070   0.297 -3.3256  1.9048 -1.7804
 8391SOL    HW226774   2.504   2.984   0.410 -0.1225  1.6567  0.4466
 8392SOL     OW26775   2.041   4.939   6.549 -0.0348  0.1243  0.4966
 8392SOL    HW126776   2.062   4.903   6.458  0.4818  0.7981  0.3375
 8392SOL    HW226777   2.028   5.038   6.543  1.6945  0.4405  1.4093
 8393SOL     OW26778   4.760   1.128   3.846  0.2023  0.0259 -0.2307
 8393SOL    HW126779   4.829   1.071   3.891  0.2057 -1.9334 -2.4791
 8393SOL    HW226780   4.669   1.100   3.877  0.3092  1.0682  1.0729
 8394SOL     OW26781   1.058   3.811   3.334 -0.0796  0.0671  0.4790
 8394SOL    HW126782   0.978   3.851   3.289  1.4632  3.1254  0.1860
 8394SOL    HW226783   1.052   3.827   3.432 -0.2679 -0.5639  0.5721
 8395SOL     OW26784   6.676   0.700   5.401  0.3464 -0.3442 -0.2200
 8395SOL    HW126785   6.679   0.675   5.305  0.1805  1.1218 -0.6281
 8395SOL    HW226786   6.593   0.754   5.419  0.7520  0.0325  0.5711
 8396SOL     OW26787   5.393   3.435   4.610 -0.0059  0.0418 -0.6778
 8396SOL    HW126788   5.472   3.388   4.650 -0.4676 -0.2870 -0.1412
 8396SOL    HW226789   5.344   3.372   4.549 -0.8875 -0.3481  0.3916
 8397SOL     OW26790   3.922   4.616   4.901 -0.0707  0.6918  0.0065
 8397SOL    HW126791   3.962   4.598   4.991 -0.2939  1.9098  0.3704
 8397SOL    HW226792   3.848   4.551   4.883  0.2190  0.2072  0.5443
 8398SOL     OW26793   4.677   3.350   3.045  0.1863 -0.1225 -0.0384
 8398SOL    HW126794   4.653   3.383   3.137  0.8099 -0.3443  0.2125
 8398SOL    HW226795   4.738   3.271   3.053 -0.1112 -0.4155 -0.6472
 8399SOL     OW26796   1.677   4.843   0.324 -0.4261  0.1896  0.1151
 8399SOL    HW126797   1.670   4.774   0.396  0.4918  0.1524  0.1864
 8399SOL    HW226798   1.763   4.892   0.334 -0.0256 -0.1789 -1.2695
 8400SOL     OW26799   6.694   5.453   4.072  0.1253 -0.4482 -0.5192
 8400SOL    HW126800   6.782   5.487   4.104  0.1171  1.0805 -2.0144
 8400SOL    HW226801   6.656   5.515   4.004 -1.9224 -1.2996 -0.2444
 8401SOL     OW26802   0.742   5.262   5.199  0.1288 -0.7014 -0.2889
 8401SOL    HW126803   0.663   5.291   5.144  0.4496  0.9654  0.0569
 8401SOL    HW226804   0.750   5.322   5.279  1.5891 -1.0065 -0.1787
 8402SOL     OW26805   5.212   5.337   0.280  0.3236 -0.1035 -0.1061
 8402SOL    HW126806   5.171   5.345   0.371  0.5895  0.4038 -0.0276
 8402SOL    HW226807   5.311   5.334   0.289  0.3336 -0.6565 -0.3442
 8403SOL     OW26808   0.262   6.538   4.386 -0.0588 -0.6509  0.8549
 8403SOL    HW126809   0.305   6.481   4.316 -1.0081  0.9786 -1.1734
 8403SOL    HW226810   0.326   6.609   4.415 -1.3010  2.1043 -2.5506
 8404SOL     OW26811   1.893   7.000   6.425 -0.5238  0.4306  0.0789
 8404SOL    HW126812   1.804   6.967   6.395  0.8762 -1.7640 -2.0193
 8404SOL    HW226813   1.913   6.965   6.516 -1.1182 -0.4391 -0.1167
 8405SOL     OW26814   5.496   3.359   2.188 -0.4140  0.1084  0.0452
 8405SOL    HW126815   5.508   3.304   2.105 -2.3055 -2.3859  1.2899
 8405SOL    HW226816   5.574   3.343   2.249 -1.2313 -1.8889  0.6709
 8406SOL     OW26817   3.848   5.810   4.605 -0.8068  0.3468  0.1218
 8406SOL    HW126818   3.895   5.893   4.577  1.1375 -0.7399  0.0087
 8406SOL    HW226819   3.765   5.798   4.551  0.5067  0.6270 -2.0564
 8407SOL     OW26820   6.313   0.759   5.617  0.1764 -0.0286  0.4427
 8407SOL    HW126821   6.291   0.703   5.537  0.8021  0.3096  0.0276
 8407SOL    HW226822   6.323   0.700   5.697  1.4207 -0.5928 -0.1031
 8408SOL     OW26823   4.605   5.206   3.249 -0.0744  0.2078  0.2615
 8408SOL    HW126824   4.540   5.130   3.238  2.2916 -2.2135  1.8927
 8408SOL    HW226825   4.669   5.206   3.172 -1.2161  1.8724 -0.7492
 8409SOL     OW26826   5.622   0.906   2.558  0.1596 -0.5719  0.3185
 8409SOL    HW126827   5.630   0.900   2.458 -1.2235  1.1793  0.0416
 8409SOL    HW226828   5.703   0.951   2.595  0.3977 -0.6595 -0.0839
 8410SOL     OW26829   3.338   1.128   6.003  0.1693  0.6408  0.1304
 8410SOL    HW126830   3.416   1.164   6.052 -1.0389  0.7068  2.1063
 8410SOL    HW226831   3.294   1.202   5.951  0.4970  0.9481  0.2870
 8411SOL     OW26832   3.946   0.344   0.973 -0.1761 -0.1396  0.3577
 8411SOL    HW126833   4.041   0.351   0.943  0.3418 -3.0890  1.0287
 8411SOL    HW226834   3.943   0.321   1.070 -1.4435 -2.4089 -0.1589
 8412SOL     OW26835   5.202   1.405   2.188  0.1429 -0.6891 -0.2449
 8412SOL    HW126836   5.238   1.315   2.212  0.4267 -0.2512  1.1052
 8412SOL    HW226837   5.166   1.449   2.270 -0.5557  0.1864 -0.9978
 8413SOL     OW26838   5.728   2.885   4.414 -0.0804 -0.0485 -0.0760
 8413SOL    HW126839   5.736   2.983   4.428 -1.4269  0.2253 -1.0078
 8413SOL    HW226840   5.714   2.866   4.317  1.4868 -1.2868 -0.1016
 8414SOL     OW26841   3.731   0.480   2.245 -0.0992 -0.0403 -0.2973
 8414SOL    HW126842   3.783   0.544   2.301 -0.3032  1.0213 -1.3033
 8414SOL    HW226843   3.656   0.441   2.300  0.2921  0.2382  0.4434
 8415SOL     OW26844   0.328   5.770   5.608 -0.0029 -0.0922 -0.5156
 8415SOL    HW126845   0.304   5.864   5.580 -0.6931  0.0753  0.5826
 8415SOL    HW226846   0.420   5.748   5.575  0.4015  1.1868 -0.3072
 8416SOL     OW26847   2.329   4.146   6.448 -0.0490  0.0207 -0.1661
 8416SOL    HW126848   2.378   4.077   6.394 -0.8587 -0.1400 -0.7160
 8416SOL    HW226849   2.236   4.114   6.465 -0.4181  0.9555 -0.3785
 8417SOL     OW26850   2.202   3.503   3.809  0.0343 -0.1059  0.3368
 8417SOL    HW126851   2.293   3.542   3.791  0.2430 -0.3260  0.8712
 8417SOL    HW226852   2.173   3.449   3.730  0.9016 -1.0177  0.6209
 8418SOL     OW26853   4.596   4.872   3.125  0.2452  0.2230  0.0198
 8418SOL    HW126854   4.561   4.876   3.218  1.7550 -2.0414  0.7645
 8418SOL    HW226855   4.690   4.840   3.126  0.3414  0.2540 -2.2944
 8419SOL     OW26856   4.573   1.096   0.737  0.2155  0.1701  0.1296
 8419SOL    HW126857   4.651   1.043   0.705 -0.9441 -1.0365 -0.8568
 8419SOL    HW226858   4.499   1.089   0.670 -1.0635  0.5261  1.4549
 8420SOL     OW26859   0.866   6.642   3.755 -0.2338  0.0412 -0.2391
 8420SOL    HW126860   0.924   6.647   3.836  1.0147 -1.3049 -1.0234
 8420SOL    HW226861   0.889   6.561   3.701 -1.4784  0.5576 -1.6277
 8421SOL     OW26862   4.891   2.944   3.236 -0.2332 -0.8512  0.5829
 8421SOL    HW126863   4.983   2.909   3.220  0.7999  0.4235  3.1771
 8421SOL    HW226864   4.863   2.924   3.330 -1.3018  1.4809  0.8288
 8422SOL     OW26865   4.052   1.419   2.455  0.2963  0.1223  0.1466
 8422SOL    HW126866   4.020   1.356   2.384 -0.9203 -0.0555  0.8258
 8422SOL    HW226867   4.083   1.366   2.534 -2.4543  0.2914  1.4712
 8423SOL     OW26868   0.512   4.070   4.473 -0.2635 -0.1143 -0.2243
 8423SOL    HW126869   0.496   4.020   4.558 -0.1278 -0.7143 -0.5404
 8423SOL    HW226870   0.425   4.083   4.425 -0.3045 -0.0176 -0.1228
 8424SOL     OW26871   6.914   3.202   0.495  0.6636 -0.0829 -0.4092
 8424SOL    HW126872   6.915   3.224   0.398  0.7731  1.1028 -0.1551
 8424SOL    HW226873   6.951   3.279   0.548  1.3273 -1.0008  0.5228
 8425SOL     OW26874   6.155   1.093   2.670 -0.3487  0.1901 -0.0150
 8425SOL    HW126875   6.181   1.155   2.597  0.0627 -0.3179 -0.3070
 8425SOL    HW226876   6.079   1.132   2.722 -0.2480  0.8231 -0.3378
 8426SOL     OW26877   4.679   4.120   0.902 -0.1984  0.3065 -0.3505
 8426SOL    HW126878   4.708   4.175   0.824 -0.7799  0.2446 -0.6146
 8426SOL    HW226879   4.709   4.164   0.987  0.5663  0.2986 -0.6060
 8427SOL     OW26880   3.378   5.699   1.459 -0.6988 -0.1598  0.3014
 8427SOL    HW126881   3.359   5.660   1.369  2.0243  1.9204 -1.3488
 8427SOL    HW226882   3.437   5.637   1.511  0.9722  0.2596 -1.0081
 8428SOL     OW26883   2.921   4.073   1.568 -0.1196  0.9919  0.3120
 8428SOL    HW126884   2.908   3.987   1.519  0.3376  0.4857  1.0484
 8428SOL    HW226885   2.958   4.142   1.506 -1.5044  0.9968 -0.5627
 8429SOL     OW26886   5.194   2.423   6.338 -0.0988  0.2224  0.8880
 8429SOL    HW126887   5.128   2.443   6.265  1.4629  1.9302 -0.1481
 8429SOL    HW226888   5.216   2.508   6.386 -0.3896 -0.7293  2.7743
 8430SOL     OW26889   1.306   0.791   4.308  0.1182 -0.6089 -0.0697
 8430SOL    HW126890   1.279   0.785   4.404 -0.7215 -0.4028 -0.2859
 8430SOL    HW226891   1.406   0.800   4.302  0.0902  0.5243  0.8375
 8431SOL     OW26892   4.444   4.687   2.465  0.7204 -0.0185  0.2921
 8431SOL    HW126893   4.410   4.614   2.405  0.0559  0.9296 -0.5289
 8431SOL    HW226894   4.457   4.770   2.411 -0.2036  0.9638  1.5249
 8432SOL     OW26895   6.531   4.748   4.276  0.0738 -0.7099 -0.0461
 8432SOL    HW126896   6.545   4.782   4.183  2.9856  0.5434  0.7439
 8432SOL    HW226897   6.503   4.824   4.336 -1.0396 -1.3522  0.2811
 8433SOL     OW26898   0.060   4.930   0.257  0.4278 -0.4633  0.9142
 8433SOL    HW126899  -0.000   4.952   0.180  2.4441 -0.7594 -0.8308
 8433SOL    HW226900   0.007   4.882   0.327 -1.3430 -0.8178 -0.5751
 8434SOL     OW26901   5.065   2.328   0.217  0.0599  0.1285  0.0614
 8434SOL    HW126902   4.977   2.370   0.239  0.0293 -0.4235  1.0815
 8434SOL    HW226903   5.137   2.396   0.224 -0.1259  0.2808  0.6010
 8435SOL     OW26904   5.888   2.135   5.180  0.0735  0.3217 -0.0451
 8435SOL    HW126905   5.872   2.148   5.278 -0.4693 -0.3787 -0.0370
 8435SOL    HW226906   5.803   2.107   5.136  0.3573  0.4601 -0.6884
 8436SOL     OW26907   6.719   6.040   6.412 -0.2265  0.1167  1.6901
 8436SOL    HW126908   6.737   5.942   6.422  0.0300  0.1274  1.3473
 8436SOL    HW226909   6.806   6.088   6.403 -0.4086  0.0919 -0.7499
 8437SOL     OW26910   2.593   5.076   4.666  0.3555  0.8536 -0.5069
 8437SOL    HW126911   2.538   4.997   4.639 -2.0076  1.9431  0.8383
 8437SOL    HW226912   2.658   5.097   4.593 -0.0086 -1.3566 -1.5546
 8438SOL     OW26913   5.919   4.499   1.265  0.2636 -0.1731 -0.2428
 8438SOL    HW126914   5.986   4.426   1.255  0.7188  0.1839  0.1164
 8438SOL    HW226915   5.835   4.463   1.306  0.8619 -0.3076  0.8990
 8439SOL     OW26916   6.080   6.602   5.931  0.1242 -0.3800  0.5766
 8439SOL    HW126917   6.068   6.523   5.871 -0.1099 -1.2551  1.7265
 8439SOL    HW226918   6.078   6.571   6.026 -2.4201  1.3231  1.1539
 8440SOL     OW26919   6.927   6.304   5.698 -0.0808  0.2089  0.3471
 8440SOL    HW126920   6.969   6.305   5.607 -1.7723  2.0183 -0.4844
 8440SOL    HW226921   6.835   6.266   5.691 -0.3525  0.6876  1.2322
 8441SOL     OW26922   6.934   5.608   5.845 -0.0447 -0.1685 -0.3164
 8441SOL    HW126923   6.945   5.565   5.756 -0.6584  0.5112 -0.7305
 8441SOL    HW226924   6.887   5.696   5.835  0.0516  0.0127  0.6532
 8442SOL     OW26925   3.556   2.036   4.633  0.6493  0.0302  0.6080
 8442SOL    HW126926   3.503   1.956   4.607 -1.2731  0.8492  1.7720
 8442SOL    HW226927   3.596   2.077   4.551  0.4340 -1.2607 -0.1751
 8443SOL     OW26928   1.631   0.800   4.913 -0.3762 -0.8449  0.2506
 8443SOL    HW126929   1.624   0.892   4.873 -0.5360 -0.5513  0.9436
 8443SOL    HW226930   1.686   0.742   4.853 -1.6589 -0.7805 -1.0479
 8444SOL     OW26931   0.878   0.386   2.536 -0.4293  0.2711 -0.3508
 8444SOL    HW126932   0.799   0.404   2.594  0.2552 -2.8832  1.8335
 8444SOL    HW226933   0.896   0.287   2.535  1.9540  0.6219 -2.8821
 8445SOL     OW26934   6.105   6.231   6.502  0.7197  0.5786 -0.1941
 8445SOL    HW126935   6.125   6.205   6.596  0.6820  1.1036 -0.0391
 8445SOL    HW226936   6.114   6.151   6.443 -2.3205 -0.5309  0.6612
 8446SOL     OW26937   4.646   6.909   2.240 -0.4667  0.3034  0.0602
 8446SOL    HW126938   4.667   6.847   2.164  1.5776 -1.1133  1.6482
 8446SOL    HW226939   4.704   6.991   2.232  0.3932 -0.2419  0.5073
 8447SOL     OW26940   2.401   1.684   0.507  0.1266 -0.3325 -0.3686
 8447SOL    HW126941   2.448   1.773   0.512  1.9322 -1.3192  2.2664
 8447SOL    HW226942   2.468   1.611   0.515 -1.5547 -1.9285 -0.3263
 8448SOL     OW26943   0.506   1.337   2.307  0.3240  0.2963 -0.5574
 8448SOL    HW126944   0.424   1.307   2.259  1.4909 -0.8452 -1.9282
 8448SOL    HW226945   0.538   1.423   2.268  0.2426  0.3145 -0.5841
 8449SOL     OW26946   1.966   2.087   1.791 -0.8974  0.2968 -0.0117
 8449SOL    HW126947   1.887   2.109   1.848 -1.1208  1.3194 -0.6868
 8449SOL    HW226948   1.984   2.162   1.728 -1.0978 -1.0883 -1.7987
 8450SOL     OW26949   2.275   1.045   1.440 -0.3930  0.9620 -0.0560
 8450SOL    HW126950   2.278   1.014   1.345  0.3006  0.9026 -0.0212
 8450SOL    HW226951   2.208   0.992   1.491  1.1489 -0.8959  0.1431
 8451SOL     OW26952   2.820   0.403   0.615 -0.0997 -0.5743  0.1282
 8451SOL    HW126953   2.882   0.458   0.558  1.4598 -1.4258  0.9361
 8451SOL    HW226954   2.727   0.439   0.606  0.4930  0.7995 -1.0755
 8452SOL     OW26955   6.202   1.146   4.633  0.1234  0.0038  0.1888
 8452SOL    HW126956   6.231   1.214   4.565  1.0941 -0.6421 -0.0696
 8452SOL    HW226957   6.277   1.081   4.649 -0.4172 -0.3863  1.2096
 8453SOL     OW26958   2.333   2.050   2.611 -0.3084  0.0123 -0.2429
 8453SOL    HW126959   2.375   1.960   2.605 -0.8651 -0.2349 -0.5469
 8453SOL    HW226960   2.374   2.110   2.542 -0.5945 -0.2898 -0.6838
 8454SOL     OW26961   1.181   0.810   0.186  0.3256 -0.1122 -0.5723
 8454SOL    HW126962   1.100   0.768   0.227  0.0534  0.2642 -0.7203
 8454SOL    HW226963   1.204   0.894   0.234  1.7526 -1.1502  0.6806
 8455SOL     OW26964   0.962   6.276   1.548 -0.2934 -0.6640  0.2107
 8455SOL    HW126965   0.925   6.294   1.457  1.5072  0.7514 -0.3092
 8455SOL    HW226966   0.953   6.179   1.570 -2.5608 -0.6947 -0.6048
 8456SOL     OW26967   2.253   0.328   1.302 -0.4225  0.7437 -0.6398
 8456SOL    HW126968   2.342   0.373   1.311  0.3279 -0.5972 -1.0157
 8456SOL    HW226969   2.222   0.334   1.207  0.0429 -0.1549 -0.8581
 8457SOL     OW26970   0.911   4.354   1.163 -0.0565 -0.0158  0.0848
 8457SOL    HW126971   0.835   4.350   1.228  1.0594  2.0054  1.6323
 8457SOL    HW226972   0.997   4.355   1.213  0.8623  1.2820 -1.4354
 8458SOL     OW26973   6.397   2.179   1.972 -0.2422 -0.3562  0.7151
 8458SOL    HW126974   6.475   2.137   2.017 -0.3536  0.1813  1.4297
 8458SOL    HW226975   6.330   2.207   2.041 -0.6789 -0.0441  0.1745
 8459SOL     OW26976   2.939   0.152   6.543 -0.0803  0.5747 -0.2272
 8459SOL    HW126977   2.893   0.181   6.459 -1.0460  1.9764  0.7222
 8459SOL    HW226978   2.958   0.233   6.599  1.0383 -0.2801  0.6647
 8460SOL     OW26979   6.766   4.969   5.437  0.5872  0.1781 -0.0552
 8460SOL    HW126980   6.763   5.069   5.441  0.7996  0.1989 -0.3329
 8460SOL    HW226981   6.689   4.931   5.487  1.8241  0.4124  2.1436
 8461SOL     OW26982   2.380   6.650   2.960  0.1021  0.1322 -0.1473
 8461SOL    HW126983   2.299   6.611   3.004 -0.2103  1.9430  0.9622
 8461SOL    HW226984   2.448   6.578   2.947 -1.0766 -1.1080  0.3001
 8462SOL     OW26985   2.240   4.934   3.128  0.6700  0.4043 -0.0298
 8462SOL    HW126986   2.252   4.835   3.136  0.8234  0.3970 -0.3236
 8462SOL    HW226987   2.329   4.976   3.111  1.1434  0.9075  3.0436
 8463SOL     OW26988   3.271   4.707   1.472  0.0119  0.0733  0.3918
 8463SOL    HW126989   3.327   4.632   1.507 -0.8824 -0.4399  0.7597
 8463SOL    HW226990   3.252   4.771   1.546 -0.5330 -0.1653  0.4638
 8464SOL     OW26991   5.336   3.568   6.782 -0.3846 -0.2630 -0.3624
 8464SOL    HW126992   5.325   3.651   6.837  0.8377  0.0227 -0.5167
 8464SOL    HW226993   5.416   3.517   6.814 -1.0030 -1.2776 -0.4083
 8465SOL     OW26994   4.749   3.395   6.682  0.0235  0.6916 -0.8954
 8465SOL    HW126995   4.842   3.416   6.652  0.7465 -1.1962 -0.0982
 8465SOL    HW226996   4.724   3.455   6.759  1.1564  0.2339 -0.1529
 8466SOL     OW26997   1.625   3.344   0.170 -0.1647 -0.2050 -0.0051
 8466SOL    HW126998   1.722   3.346   0.197 -0.2042 -0.8762  0.1969
 8466SOL    HW226999   1.614   3.394   0.084  0.3051  0.1572  0.1346
 8467SOL     OW27000   3.369   4.099   4.788  0.4903  0.3099  0.3628
 8467SOL    HW127001   3.406   4.192   4.795 -0.8522  0.8178  1.0305
 8467SOL    HW227002   3.272   4.099   4.813  0.7019 -1.4404  1.3654
 8468SOL     OW27003   4.596   0.539   5.739 -0.3628 -0.0430 -0.3381
 8468SOL    HW127004   4.544   0.607   5.687 -1.1369 -1.6607 -1.7660
 8468SOL    HW227005   4.680   0.581   5.773 -1.0252  1.7454 -0.7732
 8469SOL     OW27006   1.757   2.828   0.919  0.1602  0.3541 -0.0907
 8469SOL    HW127007   1.687   2.796   0.855 -0.1697  0.5116  0.1876
 8469SOL    HW227008   1.766   2.763   0.994  1.4189 -0.4656 -0.9104
 8470SOL     OW27009   0.916   5.819   3.740  0.6163  0.6083  0.5161
 8470SOL    HW127010   0.920   5.863   3.830  1.2622  1.0093  0.2984
 8470SOL    HW227011   0.856   5.873   3.680  0.4184  0.5019  0.6169
 8471SOL     OW27012   5.436   5.174   2.211  0.7218  0.3534 -0.0091
 8471SOL    HW127013   5.493   5.155   2.292  0.4377  2.4883  0.7475
 8471SOL    HW227014   5.345   5.137   2.226  0.7707  0.4268  0.5244
 8472SOL     OW27015   1.309   0.681   6.686 -0.4415 -0.2543  1.0501
 8472SOL    HW127016   1.369   0.726   6.753 -1.1811 -0.4036  1.8222
 8472SOL    HW227017   1.338   0.586   6.674  0.1922 -0.0065  0.5385
 8473SOL     OW27018   2.742   6.133   0.043 -0.0572  0.1153  0.0440
 8473SOL    HW127019   2.728   6.195  -0.034 -1.5490 -0.0140  0.1716
 8473SOL    HW227020   2.753   6.187   0.127  2.3900  0.2806 -0.3312
 8474SOL     OW27021   4.124   0.300   6.346  0.3630  0.4306  0.5354
 8474SOL    HW127022   4.116   0.357   6.264 -0.6762 -1.7976 -1.0079
 8474SOL    HW227023   4.040   0.307   6.400  0.4576  0.7530  0.6452
 8475SOL     OW27024   6.866   5.214   4.346 -0.0474  0.2629 -0.0805
 8475SOL    HW127025   6.874   5.156   4.265 -0.0012  0.3523 -0.1401
 8475SOL    HW227026   6.953   5.215   4.395 -0.2716 -0.3470  0.3478
 8476SOL     OW27027   6.728   6.587   1.728 -0.4256  0.4973  0.0468
 8476SOL    HW127028   6.714   6.657   1.797 -1.1344  0.8863 -0.4719
 8476SOL    HW227029   6.649   6.525   1.727  0.0232 -0.0842  0.2449
 8477SOL     OW27030   5.817   2.164   1.536 -0.1085  0.3411 -0.1082
 8477SOL    HW127031   5.853   2.240   1.482 -1.6572  1.2608  0.0911
 8477SOL    HW227032   5.761   2.200   1.611 -0.8196 -0.9927  0.0338
 8478SOL     OW27033   1.032   4.336   3.000  0.2517 -0.3124 -0.0489
 8478SOL    HW127034   0.971   4.402   2.958  0.0711 -0.1348  0.4859
 8478SOL    HW227035   1.113   4.382   3.034  1.0277 -0.6481 -1.3847
 8479SOL     OW27036   0.901   5.710   5.844 -0.6382  0.1730 -0.5405
 8479SOL    HW127037   0.980   5.771   5.843 -0.5418  0.0550 -1.8016
 8479SOL    HW227038   0.932   5.615   5.840 -0.8375  0.1602 -2.6196
 8480SOL     OW27039   4.832   2.174   5.076  0.7265 -0.1759 -0.4296
 8480SOL    HW127040   4.848   2.260   5.027 -2.6988  0.9786  0.2102
 8480SOL    HW227041   4.761   2.121   5.029  0.9987 -1.4950  0.5678
 8481SOL     OW27042   4.535   0.114   6.211  0.0126  0.2516  0.0965
 8481SOL    HW127043   4.463   0.122   6.279  0.2733 -0.3085  0.4494
 8481SOL    HW227044   4.507   0.048   6.141  0.0925  0.1965  0.1165
 8482SOL     OW27045   4.020   5.541   2.992  0.1533 -0.4286  0.0807
 8482SOL    HW127046   3.941   5.504   3.041 -0.7712  0.9610 -0.3000
 8482SOL    HW227047   4.105   5.504   3.032 -0.6519 -3.5276 -0.7504
 8483SOL     OW27048   3.568   4.462   5.046  0.3645  0.2238 -0.5830
 8483SOL    HW127049   3.475   4.434   5.071  1.1888 -0.6563  1.7270
 8483SOL    HW227050   3.633   4.392   5.076  1.8139  0.8405 -2.1100
 8484SOL     OW27051   5.457   6.906   0.548 -0.1443 -0.0350  0.0707
 8484SOL    HW127052   5.548   6.934   0.579 -0.3337 -0.3999  0.9914
 8484SOL    HW227053   5.391   6.916   0.623 -0.3902 -2.0891  0.1889
 8485SOL     OW27054   0.082   5.802   5.093 -0.3473  0.0865  0.2035
 8485SOL    HW127055   0.122   5.868   5.030  0.8585 -0.1305  0.7164
 8485SOL    HW227056   0.125   5.713   5.080  0.3604  0.1740  1.7215
 8486SOL     OW27057   2.108   6.529   3.594 -0.4700 -0.6623  0.2842
 8486SOL    HW127058   2.179   6.483   3.647 -0.8546 -1.1592  0.3770
 8486SOL    HW227059   2.063   6.462   3.534 -0.4932 -0.2439 -0.1728
 8487SOL     OW27060   6.837   5.786   3.786  0.2737 -0.4326 -0.0180
 8487SOL    HW127061   6.814   5.704   3.735 -0.5877 -0.4307  0.3527
 8487SOL    HW227062   6.805   5.867   3.736 -1.6342 -0.4828  1.0308
 8488SOL     OW27063   5.906   5.549   0.665 -0.4065  0.1588 -0.1537
 8488SOL    HW127064   5.971   5.475   0.645 -0.0996  0.4237 -0.1408
 8488SOL    HW227065   5.868   5.534   0.757 -2.2805 -1.3970 -1.1167
 8489SOL     OW27066   0.797   6.647   5.078  0.6257 -0.0617 -0.2441
 8489SOL    HW127067   0.865   6.718   5.058 -2.6088  4.1974  2.1332
 8489SOL    HW227068   0.732   6.640   5.002  0.5400  0.0698 -0.1834
 8490SOL     OW27069   1.254   4.904   3.635 -0.4854  0.2732  0.3222
 8490SOL    HW127070   1.235   4.877   3.540 -0.3608 -0.7615  0.5816
 8490SOL    HW227071   1.287   4.999   3.636  1.3876 -0.2905 -0.8939
 8491SOL     OW27072   1.459   2.914   4.264  0.4016 -0.6045 -0.1220
 8491SOL    HW127073   1.485   2.819   4.282  1.2526 -0.4324 -0.3883
 8491SOL    HW227074   1.439   2.925   4.167  0.5090 -0.4657 -0.1281
 8492SOL     OW27075   4.335   5.675   5.839  0.1447 -0.5401  0.4735
 8492SOL    HW127076   4.295   5.764   5.816  1.0840 -0.3663 -0.5422
 8492SOL    HW227077   4.298   5.606   5.777  1.8190 -0.2676 -0.9203
 8493SOL     OW27078   6.420   3.791   2.094  0.2355 -0.3522 -0.4117
 8493SOL    HW127079   6.515   3.820   2.107  0.4180 -0.4225 -1.4979
 8493SOL    HW227080   6.359   3.867   2.115  0.6797  0.7066 -2.5896
 8494SOL     OW27081   4.009   1.010   1.720  0.1718 -0.2727 -0.2387
 8494SOL    HW127082   4.007   0.972   1.813 -1.2788 -0.1758 -0.2070
 8494SOL    HW227083   3.937   0.968   1.665 -0.8262  1.6730 -0.4893
 8495SOL     OW27084   0.665   6.761   2.385  0.5182  0.4919 -0.0392
 8495SOL    HW127085   0.681   6.809   2.471 -1.2820 -0.9890  1.2243
 8495SOL    HW227086   0.649   6.827   2.312  2.0135  1.7925  0.7570
 8496SOL     OW27087   3.298   4.980   3.566 -0.0626 -0.7997 -0.0289
 8496SOL    HW127088   3.258   5.071   3.556  1.0437 -0.4812 -1.8733
 8496SOL    HW227089   3.237   4.923   3.622 -0.7386  1.0622  1.2363
 8497SOL     OW27090   0.690   6.694   0.470  1.0006  0.6548  0.0455
 8497SOL    HW127091   0.684   6.606   0.517  2.8057  0.3111 -0.2999
 8497SOL    HW227092   0.601   6.740   0.476 -0.3030 -1.5902 -0.6186
 8498SOL     OW27093   1.489   4.561   3.434  0.6926 -0.1895 -0.0904
 8498SOL    HW127094   1.508   4.659   3.424 -1.6234  0.4522  0.8492
 8498SOL    HW227095   1.515   4.532   3.526 -0.8342  0.2008  0.4981
 8499SOL     OW27096   5.066   3.186   1.777 -0.8237  0.1939 -0.1669
 8499SOL    HW127097   5.101   3.103   1.819 -0.1261  1.4628  1.8992
 8499SOL    HW227098   4.981   3.213   1.821 -2.6833 -0.9283 -2.7933
 8500SOL     OW27099   4.779   3.569   2.873  1.0680 -0.0482  0.0814
 8500SOL    HW127100   4.722   3.587   2.793  0.4686  2.4727  0.9759
 8500SOL    HW227101   4.744   3.490   2.922 -0.9645  0.6815 -0.0789
 8501SOL     OW27102   3.439   5.147   2.580  0.4555  0.1500  0.1757
 8501SOL    HW127103   3.518   5.200   2.610  0.4646  0.7607 -0.8903
 8501SOL    HW227104   3.360   5.171   2.636  0.1870  2.1415 -0.9948
 8502SOL     OW27105   0.049   6.156   0.253 -0.4106 -0.5994 -0.4149
 8502SOL    HW127106   0.013   6.211   0.177 -0.8816  1.2191  1.0445
 8502SOL    HW227107   0.016   6.062   0.245 -0.0848 -0.5754 -2.6684
 8503SOL     OW27108   0.451   3.608   6.316 -0.3218 -0.3892  0.2426
 8503SOL    HW127109   0.445   3.568   6.408 -1.4478 -0.3656  0.1914
 8503SOL    HW227110   0.541   3.650   6.304  0.2927 -1.4729  0.8857
 8504SOL     OW27111   4.841   5.655   1.216  0.1479 -0.8765 -0.8948
 8504SOL    HW127112   4.773   5.612   1.276  1.1942 -1.4128 -0.0685
 8504SOL    HW227113   4.901   5.714   1.270  1.2446 -1.5370 -1.3671
 8505SOL     OW27114   4.625   5.472   0.163  0.2079 -0.4854 -0.2694
 8505SOL    HW127115   4.529   5.457   0.185  0.5212 -1.5178  0.4769
 8505SOL    HW227116   4.673   5.508   0.244  0.3441  0.5686 -0.8016
 8506SOL     OW27117   3.027   1.701   3.668 -0.6336 -0.3065 -0.5008
 8506SOL    HW127118   2.966   1.759   3.614  0.3910  0.8788 -0.4368
 8506SOL    HW227119   3.018   1.606   3.639 -1.1597  0.1098 -1.7469
 8507SOL     OW27120   6.658   0.340   6.910 -0.7936 -0.5328  0.1527
 8507SOL    HW127121   6.580   0.401   6.901 -1.1604 -0.9198  0.6895
 8507SOL    HW227122   6.730   0.369   6.847 -0.7860  0.7174  0.7117
 8508SOL     OW27123   2.854   6.210   5.709 -0.2465  0.5781 -0.1288
 8508SOL    HW127124   2.922   6.256   5.652  1.0904 -0.1903  0.7942
 8508SOL    HW227125   2.853   6.112   5.687  0.3519  0.2534  1.2000
 8509SOL     OW27126   2.417   2.660   5.682 -0.6691 -0.2685  0.2431
 8509SOL    HW127127   2.433   2.754   5.712  1.8098 -0.0051 -1.5716
 8509SOL    HW227128   2.391   2.603   5.761 -0.7520  1.6133  1.6343
 8510SOL     OW27129   3.403   0.725   4.859 -0.5402  0.4846  0.0748
 8510SOL    HW127130   3.385   0.790   4.785  0.4154 -1.0414 -1.5946
 8510SOL    HW227131   3.404   0.632   4.822 -0.1346 -0.3459  2.0474
 8511SOL     OW27132   1.242   0.027   0.051 -0.1082  0.0686 -0.2548
 8511SOL    HW127133   1.213   0.119   0.079  0.4585  0.8898 -2.1895
 8511SOL    HW227134   1.273  -0.024   0.132 -0.0809  1.6977  0.8182
 8512SOL     OW27135   3.433   6.688   3.296 -0.4407  0.5762 -0.7554
 8512SOL    HW127136   3.368   6.648   3.232 -0.3268 -0.5271 -0.2167
 8512SOL    HW227137   3.384   6.722   3.376 -0.2873 -1.6491  0.3611
 8513SOL     OW27138   3.197   0.345   6.596 -0.1864  1.0489  0.8406
 8513SOL    HW127139   3.213   0.247   6.583 -0.9990  1.0275 -0.0821
 8513SOL    HW227140   3.284   0.392   6.610  0.3754  0.4580 -0.5845
 8514SOL     OW27141   0.379   4.428   2.780  0.1741 -0.3637  0.4145
 8514SOL    HW127142   0.397   4.385   2.691 -0.9071 -0.5305  0.2639
 8514SOL    HW227143   0.282   4.421   2.801  0.1996  0.8574  1.0014
 8515SOL     OW27144   1.990   1.360   2.866  0.5634 -0.0190  0.1989
 8515SOL    HW127145   1.922   1.288   2.856 -0.5891  1.2352 -1.7579
 8515SOL    HW227146   2.051   1.360   2.787  0.1086  1.5406 -0.1957
 8516SOL     OW27147   2.673   2.276   6.467 -0.2781  0.6837 -0.2097
 8516SOL    HW127148   2.684   2.318   6.557  0.5989  0.4193 -0.1877
 8516SOL    HW227149   2.704   2.339   6.397 -0.2124  0.5842 -0.2699
 8517SOL     OW27150   2.680   4.841   1.300 -0.1733 -0.1787  0.6648
 8517SOL    HW127151   2.748   4.827   1.228  0.1482  0.4727  0.8328
 8517SOL    HW227152   2.692   4.772   1.372 -0.9638 -1.2842 -0.2408
 8518SOL     OW27153   3.215   5.822   4.318  0.5889  0.2156  0.2539
 8518SOL    HW127154   3.145   5.856   4.381  0.2739 -0.8710  0.5166
 8518SOL    HW227155   3.244   5.895   4.257 -1.6083  0.4347 -0.6107
 8519SOL     OW27156   3.915   0.738   3.534 -0.3855  0.1424  0.1671
 8519SOL    HW127157   3.959   0.827   3.531  1.1718 -0.6185 -0.5450
 8519SOL    HW227158   3.980   0.667   3.507 -1.9052 -1.0971 -0.4132
 8520SOL     OW27159   4.689   4.350   5.283  0.1754 -0.0197 -0.4849
 8520SOL    HW127160   4.758   4.417   5.309 -0.5561  0.3469  0.5813
 8520SOL    HW227161   4.619   4.344   5.354 -0.7590 -0.5763 -1.4097
 8521SOL     OW27162   0.136   3.198   1.170 -0.5598  0.3074 -0.1251
 8521SOL    HW127163   0.082   3.249   1.102 -0.7347 -0.0849 -0.2807
 8521SOL    HW227164   0.122   3.100   1.157 -1.1063  0.2350  0.8836
 8522SOL     OW27165   4.979   5.862   4.986 -1.0779 -0.5554  0.4467
 8522SOL    HW127166   5.061   5.891   4.936 -0.5009 -1.6902  0.6839
 8522SOL    HW227167   4.922   5.941   5.006 -0.3474  0.1775 -0.2719
 8523SOL     OW27168   1.884   0.008   4.652  0.0409  0.0551 -0.1611
 8523SOL    HW127169   1.877  -0.027   4.558 -0.2330  1.4946 -0.7102
 8523SOL    HW227170   1.794   0.037   4.683  0.3062  0.5687  0.1410
 8524SOL     OW27171   2.604   4.377   6.084 -0.5045  0.0708 -0.3534
 8524SOL    HW127172   2.639   4.470   6.072  1.4656 -0.7529 -1.4281
 8524SOL    HW227173   2.568   4.367   6.177 -0.4739  1.7906 -0.1192
 8525SOL     OW27174   6.853   4.816   4.879 -0.2302 -0.5693 -0.3231
 8525SOL    HW127175   6.805   4.902   4.859  0.0938 -0.6877 -1.7655
 8525SOL    HW227176   6.854   4.800   4.977  0.8674  1.7633  0.1215
 8526SOL     OW27177   1.826   2.919   5.486 -0.0505  0.2436 -0.6043
 8526SOL    HW127178   1.739   2.870   5.488  0.0421  0.0431 -1.2875
 8526SOL    HW227179   1.822   2.997   5.549 -0.0151 -0.9445  0.9237
 8527SOL     OW27180   5.187   2.774   0.688 -0.0335 -0.0229  0.2397
 8527SOL    HW127181   5.256   2.828   0.639  0.5877 -1.1270 -0.1372
 8527SOL    HW227182   5.137   2.718   0.622 -0.1361 -0.4840  0.7070
 8528SOL     OW27183   1.285   6.297   3.506 -0.1288  0.1012 -0.4620
 8528SOL    HW127184   1.228   6.266   3.582  0.4996 -1.8632 -0.7243
 8528SOL    HW227185   1.228   6.317   3.427 -0.7543  1.7950  0.3754
 8529SOL     OW27186   6.041   1.529   2.974 -0.1242 -0.8292  0.0349
 8529SOL    HW127187   6.050   1.551   2.877  0.7550 -0.5252  0.1782
 8529SOL    HW227188   6.101   1.452   2.996  0.4325 -0.2580  0.5440
 8530SOL     OW27189   1.609   2.307   0.319  0.4569  0.2101 -0.2656
 8530SOL    HW127190   1.535   2.243   0.340  0.7508  0.5147  1.8721
 8530SOL    HW227191   1.576   2.375   0.253 -0.5725 -0.7426 -0.7707
 8531SOL     OW27192   3.091   3.567   5.447  0.3189  0.2413 -0.3200
 8531SOL    HW127193   3.055   3.504   5.378  0.1676  1.3060 -1.2369
 8531SOL    HW227194   3.019   3.631   5.474  0.1997 -0.4907  1.2696
 8532SOL     OW27195   4.082   6.579   0.699  0.3773 -0.0560 -0.3697
 8532SOL    HW127196   4.000   6.530   0.668  1.1889 -2.5892  1.1691
 8532SOL    HW227197   4.060   6.633   0.779  0.4698 -2.1235  1.1325
 8533SOL     OW27198   0.456   3.935   1.176 -0.5043 -0.0868  0.2134
 8533SOL    HW127199   0.403   3.850   1.166 -2.2017  0.6640  2.1642
 8533SOL    HW227200   0.426   3.984   1.258  1.2952  1.8217 -0.1828
 8534SOL     OW27201   0.378   3.201   5.883  0.4089  0.0821  0.8788
 8534SOL    HW127202   0.460   3.240   5.842  0.1026 -0.3968 -0.2316
 8534SOL    HW227203   0.389   3.197   5.982  1.9604 -0.4755  0.7225
 8535SOL     OW27204   0.372   6.147   2.406 -0.3581  0.5392 -0.2992
 8535SOL    HW127205   0.338   6.241   2.406  0.6681  0.9311  0.1899
 8535SOL    HW227206   0.421   6.130   2.320  0.6401  0.9210  0.1759
 8536SOL     OW27207   2.416   1.929   6.661 -0.0517  0.2424 -0.2356
 8536SOL    HW127208   2.375   2.005   6.612  1.3022  0.5359 -0.9807
 8536SOL    HW227209   2.498   1.898   6.612  0.1542 -0.8452  0.7362
 8537SOL     OW27210   2.308   2.957   5.016  0.0037  0.1688  0.1521
 8537SOL    HW127211   2.295   2.909   5.102 -0.1195 -0.3175 -0.1388
 8537SOL    HW227212   2.249   3.038   5.014  0.6458  0.6785  0.8901
 8538SOL     OW27213   1.675   0.860   1.887  0.0711 -0.3739 -0.2275
 8538SOL    HW127214   1.625   0.871   1.801 -1.2334 -1.7058  0.3133
 8538SOL    HW227215   1.621   0.897   1.962  0.9288  0.2260  0.1051
 8539SOL     OW27216   2.991   0.030   5.606  0.1220  0.0527  0.1364
 8539SOL    HW127217   2.988   0.022   5.706  0.9264  1.3819  0.2852
 8539SOL    HW227218   2.941  -0.047   5.566  0.8856 -1.2326  1.5260
 8540SOL     OW27219   6.850   1.883   5.192 -0.1227  0.8147  0.2739
 8540SOL    HW127220   6.775   1.902   5.129 -0.4651  2.6844  1.1664
 8540SOL    HW227221   6.839   1.938   5.275 -0.4787 -2.5987  2.7085
 8541SOL     OW27222   3.462   6.522   3.650 -0.0538  0.1061 -0.5976
 8541SOL    HW127223   3.516   6.490   3.573 -1.2575  2.1426 -2.3859
 8541SOL    HW227224   3.496   6.611   3.680 -0.0469 -0.3419  0.8093
 8542SOL     OW27225   1.532   3.796   6.094 -0.1236  0.4744 -0.0252
 8542SOL    HW127226   1.583   3.833   6.016  1.0441 -0.5301  0.2307
 8542SOL    HW227227   1.539   3.858   6.171  1.7255 -0.1599  0.3679
 8543SOL     OW27228   0.789   3.977   4.835  0.5868 -0.0369  0.0567
 8543SOL    HW127229   0.824   3.955   4.926  3.5154  1.5324 -0.5696
 8543SOL    HW227230   0.861   4.018   4.780 -0.9513 -1.2453 -3.1703
 8544SOL     OW27231   2.961   3.525   5.993 -0.4262  0.0425 -0.1363
 8544SOL    HW127232   3.026   3.513   5.918  0.2100 -0.0526  0.4182
 8544SOL    HW227233   2.901   3.445   5.998  0.0460 -0.3167 -0.0583
 8545SOL     OW27234   1.209   3.581   2.826 -0.2253 -0.0481  0.3043
 8545SOL    HW127235   1.197   3.679   2.838  0.4600  0.0216  0.4947
 8545SOL    HW227236   1.171   3.552   2.738  0.7684  0.6276 -0.3684
 8546SOL     OW27237   6.791   5.030   5.128 -0.4306 -0.4727 -0.2680
 8546SOL    HW127238   6.698   4.998   5.114 -0.1212 -0.9034 -1.4041
 8546SOL    HW227239   6.827   4.992   5.213 -1.8561  1.0434  1.0857
 8547SOL     OW27240   6.018   0.380   3.431  0.0568  0.0175  0.2712
 8547SOL    HW127241   6.058   0.361   3.521 -0.3487  0.7574  0.6167
 8547SOL    HW227242   6.059   0.463   3.393  0.3131 -0.3597 -0.2867
 8548SOL     OW27243   6.798   5.458   6.481 -0.5116 -0.2449  0.9122
 8548SOL    HW127244   6.807   5.547   6.437 -0.6549 -0.4864  0.3943
 8548SOL    HW227245   6.867   5.450   6.554  0.7977 -0.4554 -0.2977
 8549SOL     OW27246   0.298   2.677   6.276 -0.3255 -1.0591 -0.0002
 8549SOL    HW127247   0.246   2.670   6.191  1.3444 -0.6833 -1.0910
 8549SOL    HW227248   0.246   2.633   6.350 -1.0306 -3.0415 -1.5617
 8550SOL     OW27249   6.397   0.189   0.450 -1.2509  0.1695  0.0474
 8550SOL    HW127250   6.346   0.263   0.494  1.6281  3.1373 -1.1798
 8550SOL    HW227251   6.403   0.207   0.352  1.3293 -0.4677  0.0223
 8551SOL     OW27252   2.012   3.870   3.101 -0.0450  0.6190 -0.2819
 8551SOL    HW127253   1.923   3.889   3.061 -0.4304 -2.0224 -0.8865
 8551SOL    HW227254   2.074   3.834   3.031  0.1650 -1.3857  0.8330
 8552SOL     OW27255   4.658   0.467   1.316  0.1824 -0.5902 -0.2084
 8552SOL    HW127256   4.565   0.432   1.317 -0.0049 -0.1870  1.8478
 8552SOL    HW227257   4.687   0.486   1.410  1.2237  2.1578 -0.9843
 8553SOL     OW27258   5.598   4.790   1.219 -0.1067 -0.3850  0.3911
 8553SOL    HW127259   5.697   4.780   1.210  0.2707  3.6847 -3.7233
 8553SOL    HW227260   5.553   4.753   1.137 -1.2032  3.1430 -0.7638
 8554SOL     OW27261   6.242   2.397   0.298 -0.0563  0.0739 -0.0432
 8554SOL    HW127262   6.225   2.466   0.227 -1.4261 -0.5872 -0.3720
 8554SOL    HW227263   6.308   2.434   0.364  1.5559  0.5712 -1.8294
 8555SOL     OW27264   4.802   0.015   4.837  0.2039 -0.0628 -0.3383
 8555SOL    HW127265   4.849   0.031   4.924 -2.2853  0.5450  0.9997
 8555SOL    HW227266   4.714  -0.028   4.855  0.0577 -0.8878 -2.6929
 8556SOL     OW27267   6.721   6.375   0.913 -0.7587 -0.0360  0.3831
 8556SOL    HW127268   6.640   6.368   0.970 -0.5513 -3.3874  0.4480
 8556SOL    HW227269   6.802   6.348   0.965  0.1354  1.2843 -0.2521
 8557SOL     OW27270   6.089   5.466   4.171 -0.3252  0.1433 -0.5304
 8557SOL    HW127271   6.178   5.435   4.139 -0.4260 -2.1307  1.1121
 8557SOL    HW227272   6.032   5.386   4.193 -1.9024  1.5359  0.7192
 8558SOL     OW27273   4.899   2.142   5.344  0.9831  0.4615  0.2143
 8558SOL    HW127274   4.971   2.209   5.363 -0.0402  2.0102 -1.2262
 8558SOL    HW227275   4.888   2.131   5.246  0.3417 -1.0142  0.4148
 8559SOL     OW27276   4.095   5.716   0.558 -0.0747  0.1919 -0.3533
 8559SOL    HW127277   4.191   5.741   0.567 -0.0107 -0.1327 -0.1169
 8559SOL    HW227278   4.041   5.763   0.628 -0.1947  0.9015 -0.9048
 8560SOL     OW27279   4.239   4.050   0.682 -0.3069 -0.3201 -0.4540
 8560SOL    HW127280   4.229   3.988   0.760 -1.8436  2.0766  1.4148
 8560SOL    HW227281   4.317   4.110   0.697 -0.6428  0.1885 -0.7107
 8561SOL     OW27282   2.436   2.497   0.897 -0.0297 -0.3568  0.3501
 8561SOL    HW127283   2.408   2.423   0.835 -1.5478  0.1766  0.3382
 8561SOL    HW227284   2.523   2.535   0.866 -1.1063  0.4273 -2.0022
 8562SOL     OW27285   0.428   1.153   0.957 -0.6708 -0.0544 -0.2322
 8562SOL    HW127286   0.375   1.224   1.003  0.8751 -0.9816  3.3447
 8562SOL    HW227287   0.471   1.191   0.875 -1.0414  2.7028  0.7551
 8563SOL     OW27288   4.527   4.837   6.934  0.0237  0.9097  0.0279
 8563SOL    HW127289   4.484   4.749   6.955 -1.0008  1.6211  1.0233
 8563SOL    HW227290   4.609   4.822   6.878 -1.1128 -0.5395 -1.3368
 8564SOL     OW27291   5.334   1.919   2.797 -0.0537  0.2461  0.6929
 8564SOL    HW127292   5.375   1.843   2.847 -0.7933 -0.6818 -0.0453
 8564SOL    HW227293   5.379   1.929   2.708 -0.2941  0.3432  0.5808
 8565SOL     OW27294   2.680   5.154   2.916 -0.2631 -0.3206  0.3081
 8565SOL    HW127295   2.630   5.211   2.851 -1.6662 -0.4557  1.2109
 8565SOL    HW227296   2.711   5.070   2.871  1.3715  0.8654 -0.8985
 8566SOL     OW27297   6.297   4.557   4.925 -0.3019 -0.4196  0.5845
 8566SOL    HW127298   6.386   4.527   4.960 -0.3110  0.9131  1.8657
 8566SOL    HW227299   6.224   4.515   4.979 -0.3806  0.0054  0.8143
 8567SOL     OW27300   2.866   5.637   1.741 -0.2292  0.7010  0.6067
 8567SOL    HW127301   2.910   5.589   1.816 -0.4611  0.1876  0.4201
 8567SOL    HW227302   2.891   5.594   1.654 -0.3865  0.9536  0.4357
 8568SOL     OW27303   3.916   3.324   3.859  0.4617  0.1624  0.0138
 8568SOL    HW127304   3.936   3.302   3.764  0.6627  0.1070  0.0686
 8568SOL    HW227305   3.832   3.379   3.864 -0.6729 -1.4889 -0.0562
 8569SOL     OW27306   2.257   5.173   5.498 -0.1236  0.7670  0.0868
 8569SOL    HW127307   2.247   5.160   5.399 -0.0457 -0.8562  0.2648
 8569SOL    HW227308   2.345   5.135   5.528 -0.8077 -0.1468  0.9934
 8570SOL     OW27309   5.860   3.885   5.117 -0.0918  0.2377 -0.0628
 8570SOL    HW127310   5.919   3.835   5.180 -0.9166  0.4584  0.9265
 8570SOL    HW227311   5.786   3.928   5.169 -0.1119  1.4381 -1.0398
 8571SOL     OW27312   6.123   1.614   2.672  0.2996  0.7339  0.0159
 8571SOL    HW127313   6.194   1.560   2.627 -1.0937  0.2689 -1.7484
 8571SOL    HW227314   6.035   1.598   2.627 -1.1739  0.5057  2.7234
 8572SOL     OW27315   2.575   0.703   6.828  0.2646  0.1020 -0.2627
 8572SOL    HW127316   2.617   0.730   6.742  1.0189  1.5183  0.5301
 8572SOL    HW227317   2.576   0.779   6.892  0.7202 -1.2365  1.3978
 8573SOL     OW27318   3.368   1.325   0.435 -0.0349  1.0049 -0.9109
 8573SOL    HW127319   3.394   1.422   0.433  1.3589  0.7021  0.5571
 8573SOL    HW227320   3.280   1.316   0.482 -0.8769  1.6550 -2.2888
 8574SOL     OW27321   2.514   0.698   4.907 -0.1911  0.2326  0.0775
 8574SOL    HW127322   2.512   0.674   5.004  0.3530 -0.9784 -0.1884
 8574SOL    HW227323   2.473   0.624   4.853  0.0592  0.6188 -0.6631
 8575SOL     OW27324   6.578   5.999   5.027  0.2375  0.3781  0.6684
 8575SOL    HW127325   6.673   5.990   5.057  0.7446  0.5756 -0.7986
 8575SOL    HW227326   6.562   6.093   4.996  0.7441 -0.5317 -2.7532
 8576SOL     OW27327   5.041   1.151   2.438 -0.0385  0.2585 -0.1850
 8576SOL    HW127328   5.134   1.150   2.402  0.4903 -1.4633  1.0816
 8576SOL    HW227329   4.997   1.063   2.420 -1.4142  1.0151 -0.6889
 8577SOL     OW27330   4.551   1.126   5.317  0.4953  0.7024  0.2291
 8577SOL    HW127331   4.637   1.178   5.313  1.0881 -0.2686 -2.4963
 8577SOL    HW227332   4.483   1.172   5.259  0.5707 -0.6920 -1.0238
 8578SOL     OW27333   5.860   1.839   0.462  0.3427 -0.0112 -0.1554
 8578SOL    HW127334   5.895   1.928   0.493  0.6759 -0.0848 -0.3149
 8578SOL    HW227335   5.932   1.791   0.411 -0.4334  0.4499 -1.7398
 8579SOL     OW27336   3.551   2.805   0.226  0.7671  0.0798  0.5286
 8579SOL    HW127337   3.574   2.900   0.250  1.2644  0.2128 -0.4525
 8579SOL    HW227338   3.471   2.804   0.166  0.1832 -0.1929  1.2893
 8580SOL     OW27339   3.900   4.437   6.986  0.8015 -0.5664  0.0838
 8580SOL    HW127340   3.925   4.482   7.072  1.7279 -0.1199 -0.3979
 8580SOL    HW227341   3.872   4.343   7.005  1.4412 -0.6249  0.8376
 8581SOL     OW27342   2.568   5.870   5.754 -0.3055  0.5483  0.1752
 8581SOL    HW127343   2.505   5.806   5.798 -1.0769 -0.4329 -2.2107
 8581SOL    HW227344   2.658   5.864   5.798 -0.5301 -1.7121  0.4315
 8582SOL     OW27345   5.165   0.929   0.464 -0.3019 -1.0040 -0.1804
 8582SOL    HW127346   5.070   0.907   0.486 -0.5490 -0.0988 -0.3081
 8582SOL    HW227347   5.187   1.022   0.496  1.1628 -1.9218  1.6966
 8583SOL     OW27348   4.007   4.663   6.396  0.2937 -0.4818 -0.2730
 8583SOL    HW127349   4.012   4.585   6.333  0.3620  0.6023 -1.6729
 8583SOL    HW227350   3.989   4.746   6.343 -3.9488 -0.0439  1.5037
 8584SOL     OW27351   2.232   4.775   2.242  0.4634 -0.3043  0.4659
 8584SOL    HW127352   2.263   4.714   2.315 -0.2083 -0.6283  0.4931
 8584SOL    HW227353   2.269   4.744   2.155 -1.0342 -1.6579  0.2625
 8585SOL     OW27354   2.132   1.433   5.489  0.4588  0.4230  0.8326
 8585SOL    HW127355   2.123   1.529   5.519  0.2423  0.3649  0.9587
 8585SOL    HW227356   2.180   1.430   5.401 -0.1189  0.7000  0.4989
 8586SOL     OW27357   5.881   6.591   5.414 -0.4659 -0.4587 -0.0691
 8586SOL    HW127358   5.791   6.606   5.457 -0.4043 -1.7297  0.5459
 8586SOL    HW227359   5.868   6.546   5.326 -0.4836  0.3290 -0.4718
 8587SOL     OW27360   1.738   4.186   6.049  0.2400 -0.2032  0.2775
 8587SOL    HW127361   1.681   4.263   6.022  2.3117  1.3730  0.2016
 8587SOL    HW227362   1.778   4.144   5.967  1.0263  0.1778  0.4634
 8588SOL     OW27363   0.223   4.389   1.937 -0.1556  0.7757 -0.5771
 8588SOL    HW127364   0.247   4.293   1.933 -1.0087  0.5584 -0.7369
 8588SOL    HW227365   0.171   4.414   1.855  1.3930  1.7672 -1.3094
 8589SOL     OW27366   6.301   5.771   6.625 -0.1079 -0.3245  0.1193
 8589SOL    HW127367   6.343   5.847   6.674  0.6510 -0.3521 -0.4700
 8589SOL    HW227368   6.204   5.788   6.613 -1.0277 -1.5749  4.1380
 8590SOL     OW27369   5.650   4.745   6.525  0.3594  0.0412  0.4484
 8590SOL    HW127370   5.710   4.665   6.524  0.9312  0.3966  2.3334
 8590SOL    HW227371   5.558   4.718   6.553  1.0508  0.2586  3.2534
 8591SOL     OW27372   4.498   3.387   6.164  0.0566 -0.6945  0.1707
 8591SOL    HW127373   4.527   3.343   6.249 -3.3631 -0.7913  1.4768
 8591SOL    HW227374   4.527   3.332   6.086 -1.8129 -4.0616  1.6137
 8592SOL     OW27375   1.529   0.867   3.999  0.0658 -0.1307  0.1766
 8592SOL    HW127376   1.511   0.770   4.014 -0.9166  0.1938  1.3700
 8592SOL    HW227377   1.620   0.890   4.033  0.1228 -0.5485  0.3092
 8593SOL     OW27378   0.679   0.119   6.774  1.1482  0.4449 -0.4557
 8593SOL    HW127379   0.674   0.029   6.817 -0.6946  0.3976 -0.7223
 8593SOL    HW227380   0.642   0.188   6.836  0.4108  0.6770 -1.1446
 8594SOL     OW27381   5.233   6.513   2.823 -0.0967  0.0599  0.0077
 8594SOL    HW127382   5.168   6.550   2.890  1.0365  1.6382  0.3139
 8594SOL    HW227383   5.187   6.499   2.735 -1.9293 -3.1903  1.3041
 8595SOL     OW27384   4.903   6.810   6.185 -0.0592  0.2058 -0.0570
 8595SOL    HW127385   4.943   6.871   6.253 -1.1109 -0.5378  1.2768
 8595SOL    HW227386   4.886   6.720   6.226 -2.0911  0.1777 -0.8106
 8596SOL     OW27387   6.182   5.515   0.466  0.0321 -0.0322 -0.5485
 8596SOL    HW127388   6.142   5.606   0.470 -1.0944 -0.4686 -1.2436
 8596SOL    HW227389   6.185   5.483   0.371  0.8820 -0.5266 -0.3728
 8597SOL     OW27390   2.852   1.189   2.125  0.5339 -0.0902 -0.2732
 8597SOL    HW127391   2.941   1.182   2.170 -0.2895  2.1738  1.9339
 8597SOL    HW227392   2.781   1.153   2.186 -0.0887 -2.5915 -2.3044
 8598SOL     OW27393   4.030   4.476   0.528 -0.4178 -0.1420 -0.6592
 8598SOL    HW127394   4.108   4.494   0.467 -0.2186 -0.3213 -0.4589
 8598SOL    HW227395   4.021   4.378   0.542 -1.0826 -0.1603 -1.1996
 8599SOL     OW27396   6.790   6.655   3.479  0.8994 -0.0748  0.6715
 8599SOL    HW127397   6.862   6.591   3.453  0.9146 -0.5208  1.7406
 8599SOL    HW227398   6.750   6.625   3.566  0.2939  0.8752  0.7251
 8600SOL     OW27399   0.512   2.779   5.722 -0.5986 -0.6180 -0.2492
 8600SOL    HW127400   0.500   2.694   5.773  0.2634  0.2434  1.4742
 8600SOL    HW227401   0.609   2.792   5.700 -0.6416  0.1536 -0.0386
 8601SOL     OW27402   1.278   3.181   2.067 -0.1066 -0.1496 -0.4289
 8601SOL    HW127403   1.363   3.196   2.118 -1.0840  1.5810  0.7623
 8601SOL    HW227404   1.268   3.083   2.048  1.1684 -0.6270  1.1377
 8602SOL     OW27405   4.949   1.333   0.857 -0.0937  0.2057  0.5509
 8602SOL    HW127406   5.009   1.253   0.852 -1.6131 -1.0464  1.8207
 8602SOL    HW227407   4.980   1.400   0.789  0.3493 -2.0199 -1.6131
 8603SOL     OW27408   6.798   4.527   7.026 -0.8738  0.0988  0.3286
 8603SOL    HW127409   6.881   4.496   6.978 -0.6690  0.1946  0.6184
 8603SOL    HW227410   6.719   4.478   6.990 -0.9574  1.2843 -1.2005
 8604SOL     OW27411   1.317   5.856   2.411  0.4314 -0.0834  0.0056
 8604SOL    HW127412   1.322   5.954   2.431  2.6453 -0.7140  3.2962
 8604SOL    HW227413   1.405   5.824   2.377 -0.3096 -0.9531 -1.1767
 8605SOL     OW27414   0.612   1.447   0.936 -0.0561  0.1202 -1.4741
 8605SOL    HW127415   0.667   1.374   0.894 -0.1839 -0.6910 -0.2885
 8605SOL    HW227416   0.666   1.491   1.008 -0.6083 -0.0215 -0.9715
 8606SOL     OW27417   1.372   6.520   3.624  0.1867  0.0241  0.2196
 8606SOL    HW127418   1.306   6.458   3.582 -0.1435  0.3056  0.3155
 8606SOL    HW227419   1.446   6.467   3.666 -0.0388 -0.2985  0.2141
 8607SOL     OW27420   1.797   1.135   1.418 -0.6589  0.2252  0.0827
 8607SOL    HW127421   1.814   1.068   1.491  0.4854  0.9889  0.5427
 8607SOL    HW227422   1.866   1.125   1.347 -0.7372  0.6376 -0.0512
 8608SOL     OW27423   3.488   5.959   3.551 -0.3336  0.0946 -0.8008
 8608SOL    HW127424   3.414   5.898   3.582 -0.0439  0.2090  0.1534
 8608SOL    HW227425   3.464   6.053   3.574  1.1641 -0.0617  1.8325
 8609SOL     OW27426   6.754   6.495   0.540  0.3041 -0.9529  0.2899
 8609SOL    HW127427   6.780   6.422   0.476  2.9629 -2.7589  3.1744
 8609SOL    HW227428   6.828   6.561   0.546 -1.0984  0.7627 -0.4785
 8610SOL     OW27429   4.254   4.635   0.133 -0.4302 -0.1429 -0.1867
 8610SOL    HW127430   4.245   4.729   0.101 -1.4587 -0.2097 -0.1508
 8610SOL    HW227431   4.271   4.635   0.232  2.9043  0.0682 -0.6593
 8611SOL     OW27432   3.388   5.664   1.910  0.0435  0.0034  0.0188
 8611SOL    HW127433   3.458   5.734   1.912 -0.4648  0.5311 -0.3304
 8611SOL    HW227434   3.397   5.605   1.991  0.2729  0.6665  0.4821
 8612SOL     OW27435   4.516   5.285   4.220  0.2950 -0.5413  0.3753
 8612SOL    HW127436   4.443   5.218   4.209  0.3990 -0.6223  0.1636
 8612SOL    HW227437   4.586   5.270   4.150  0.5144 -0.4645  0.5744
 8613SOL     OW27438   5.559   2.716   0.913  0.2512  0.4022 -0.5525
 8613SOL    HW127439   5.630   2.655   0.877  0.8925  0.4553  0.5764
 8613SOL    HW227440   5.601   2.801   0.946 -0.0557 -0.2885  1.8014
 8614SOL     OW27441   1.090   0.879   6.781  0.0968 -0.1662 -0.0799
 8614SOL    HW127442   1.061   0.867   6.875  1.3798 -1.6977  0.1640
 8614SOL    HW227443   1.142   0.799   6.751  0.4278  0.6386 -1.8251
 8615SOL     OW27444   2.237   0.120   0.344 -0.3653  0.3960 -0.3132
 8615SOL    HW127445   2.157   0.136   0.402  0.7584  2.2463  0.8347
 8615SOL    HW227446   2.287   0.040   0.377 -0.1035  1.0349  0.9008
 8616SOL     OW27447   6.460   1.530   0.183 -0.7005  0.4588  0.2416
 8616SOL    HW127448   6.492   1.559   0.093 -0.9700  3.9718  1.1418
 8616SOL    HW227449   6.380   1.470   0.172 -0.6583  0.7033 -1.8223
 8617SOL     OW27450   4.347   2.972   3.597  0.0909  0.0845  0.4444
 8617SOL    HW127451   4.354   3.054   3.541 -0.5594 -0.0394  0.1691
 8617SOL    HW227452   4.436   2.928   3.604  0.1027 -0.1703 -0.9273
 8618SOL     OW27453   2.843   1.793   0.153  0.1696  0.0631  0.2085
 8618SOL    HW127454   2.831   1.858   0.229 -1.2746 -1.1219  1.0483
 8618SOL    HW227455   2.893   1.838   0.079 -1.7241  2.5249  0.2838
 8619SOL     OW27456   3.008   3.454   1.534 -0.8524  0.4622  0.9126
 8619SOL    HW127457   3.041   3.398   1.610  0.9058  0.4916  0.2235
 8619SOL    HW227458   3.057   3.541   1.532 -1.1562  0.6264 -0.0169
 8620SOL     OW27459   0.205   1.015   2.448  0.1741  0.4203 -0.0143
 8620SOL    HW127460   0.253   1.081   2.506  1.5071 -0.6766  0.1927
 8620SOL    HW227461   0.124   0.981   2.496  1.5247 -0.8524  1.4884
 8621SOL     OW27462   5.274   4.602   2.871 -0.2712  0.1974 -0.5959
 8621SOL    HW127463   5.305   4.509   2.852  1.1816  0.7826 -1.2559
 8621SOL    HW227464   5.304   4.629   2.963 -0.0656  0.2519 -0.6772
 8622SOL     OW27465   6.159   4.170   1.405  0.1553  0.0978 -0.3879
 8622SOL    HW127466   6.154   4.221   1.320  0.1302  1.1217  0.2100
 8622SOL    HW227467   6.140   4.073   1.387 -3.0445  0.7276 -1.1248
 8623SOL     OW27468   6.192   2.598   6.464 -0.1218 -0.0065 -0.1632
 8623SOL    HW127469   6.288   2.622   6.447 -0.3604  0.1604 -1.4049
 8623SOL    HW227470   6.184   2.499   6.474 -0.0415 -0.2233 -1.9307
 8624SOL     OW27471   1.131   1.844   6.658 -0.2030  0.5230  0.3612
 8624SOL    HW127472   1.063   1.917   6.665 -0.4573  0.3892 -0.6040
 8624SOL    HW227473   1.193   1.864   6.582 -0.9238 -0.7760 -0.6132
 8625SOL     OW27474   5.644   4.808   1.551 -0.1980  0.5376 -0.0274
 8625SOL    HW127475   5.604   4.900   1.544  0.4880  0.8694  0.3427
 8625SOL    HW227476   5.573   4.740   1.534 -0.4143  1.1472 -1.8517
 8626SOL     OW27477   3.059   4.988   6.989  0.3698 -0.0900 -0.7458
 8626SOL    HW127478   3.115   4.905   6.989  1.5165  0.6451 -1.0123
 8626SOL    HW227479   3.058   5.029   7.080 -0.5441 -0.6123 -0.5152
 8627SOL     OW27480   3.419   5.336   6.397 -0.0791  0.3483  0.6696
 8627SOL    HW127481   3.347   5.347   6.328 -0.8335  0.1035  1.3980
 8627SOL    HW227482   3.506   5.369   6.360 -0.7735  1.6626  0.1509
 8628SOL     OW27483   4.493   1.500   1.000 -0.3479 -0.0883  0.1159
 8628SOL    HW127484   4.553   1.420   0.995  0.0717  0.2851 -0.8732
 8628SOL    HW227485   4.435   1.503   0.919 -1.7051 -0.4279  1.0350
 8629SOL     OW27486   6.105   6.290   5.971  0.5984  0.2972 -0.0228
 8629SOL    HW127487   6.095   6.194   5.944 -0.1801  0.6179 -0.8978
 8629SOL    HW227488   6.200   6.318   5.959  1.1398 -0.7114  1.4731
 8630SOL     OW27489   6.407   5.348   1.067 -1.0534  0.6189  0.0679
 8630SOL    HW127490   6.380   5.254   1.045 -1.7862  0.7232  0.4680
 8630SOL    HW227491   6.473   5.380   0.999  0.1633 -0.6018  0.6195
 8631SOL     OW27492   6.246   3.930   5.932 -0.4836 -0.1556  0.0633
 8631SOL    HW127493   6.181   3.858   5.958 -0.4562 -0.5522 -0.9129
 8631SOL    HW227494   6.252   3.997   6.005 -1.6921 -0.3307  0.3539
 8632SOL     OW27495   4.781   4.548   6.738 -0.2689  0.4981  0.1747
 8632SOL    HW127496   4.788   4.457   6.779 -0.1289  1.6895  3.0974
 8632SOL    HW227497   4.685   4.576   6.737 -0.1881  0.7868  0.4434
 8633SOL     OW27498   4.703   3.326   1.434 -0.2135 -0.0380  0.1740
 8633SOL    HW127499   4.698   3.421   1.406 -0.0356 -0.3688 -1.0156
 8633SOL    HW227500   4.750   3.272   1.364 -1.1397 -1.1611  0.3782
 8634SOL     OW27501   1.434   3.386   4.306 -0.5750 -0.0904  0.7644
 8634SOL    HW127502   1.389   3.423   4.225 -0.6519  0.0407  0.8657
 8634SOL    HW227503   1.390   3.422   4.388 -0.9818 -0.8234  0.8655
 8635SOL     OW27504   4.621   6.241   4.104  0.3858 -0.1272 -0.0171
 8635SOL    HW127505   4.673   6.307   4.049 -0.1449  0.7377  0.4837
 8635SOL    HW227506   4.587   6.286   4.187  1.0143 -1.3591  0.9375
 8636SOL     OW27507   3.140   5.008   6.656 -0.2557  0.5121  0.1357
 8636SOL    HW127508   3.201   4.991   6.579 -0.2677 -1.5471  0.5208
 8636SOL    HW227509   3.195   5.027   6.737 -0.1456  0.1191  0.1594
 8637SOL     OW27510   5.800   0.179   6.534  0.5266 -0.3022 -0.7218
 8637SOL    HW127511   5.823   0.128   6.451  0.6197  0.0026 -0.8869
 8637SOL    HW227512   5.721   0.137   6.579  0.6117 -0.5968 -0.8482
 8638SOL     OW27513   0.464   4.064   4.184  0.6520  0.3411  0.3108
 8638SOL    HW127514   0.496   4.104   4.099  0.4274  0.4869  0.2942
 8638SOL    HW227515   0.540   4.020   4.231  0.4847 -1.1247 -0.7307
 8639SOL     OW27516   5.631   2.920   6.132  0.2285 -0.2782 -0.3962
 8639SOL    HW127517   5.586   2.995   6.179 -2.9498 -1.4292 -1.3717
 8639SOL    HW227518   5.607   2.922   6.035 -0.6855 -2.9994 -0.2982
 8640SOL     OW27519   1.148   6.316   3.257 -0.4357  0.2054 -0.3538
 8640SOL    HW127520   1.080   6.390   3.260 -0.9150 -0.2573  1.1000
 8640SOL    HW227521   1.216   6.337   3.187  0.3958  2.8837  1.0833
 8641SOL     OW27522   6.482   6.443   2.086  0.1780 -1.2625  0.0251
 8641SOL    HW127523   6.546   6.376   2.047  0.7866 -1.9033  1.9562
 8641SOL    HW227524   6.526   6.533   2.090  1.5326 -1.9314  2.4099
 8642SOL     OW27525   4.171   3.097   3.798  0.4054 -0.3219  0.0611
 8642SOL    HW127526   4.096   3.116   3.734  0.3586 -2.1613 -0.4809
 8642SOL    HW227527   4.230   3.026   3.760  0.3705 -1.4896  2.0633
 8643SOL     OW27528   6.096   4.854   6.068 -0.2745  0.2326 -0.4484
 8643SOL    HW127529   6.178   4.907   6.048  0.8003 -1.6728 -1.3705
 8643SOL    HW227530   6.088   4.841   6.167 -0.5313  1.9892 -0.2084
 8644SOL     OW27531   1.272   1.275   2.190 -0.3412 -0.2759  0.4938
 8644SOL    HW127532   1.320   1.216   2.255  0.1979 -0.4319 -0.0392
 8644SOL    HW227533   1.211   1.220   2.134 -1.0973 -0.0892  1.1127
 8645SOL     OW27534   1.211   4.041   0.169  0.1726  0.0680  0.0804
 8645SOL    HW127535   1.268   4.109   0.123  0.6974  0.3183  1.0797
 8645SOL    HW227536   1.130   4.085   0.206 -0.6473 -0.2666 -1.2334
 8646SOL     OW27537   6.616   2.662   1.404 -0.1463 -0.2942  0.1062
 8646SOL    HW127538   6.687   2.620   1.347  0.8908  1.0623  0.3547
 8646SOL    HW227539   6.540   2.691   1.346 -0.4343 -1.5653 -0.1918
 8647SOL     OW27540   6.297   1.959   6.154 -0.6287 -0.3966  0.0465
 8647SOL    HW127541   6.252   2.043   6.126 -0.1256 -0.2848 -0.4326
 8647SOL    HW227542   6.237   1.908   6.215 -1.6511 -0.5238 -1.0365
 8648SOL     OW27543   0.755   3.148   0.409  0.1122 -0.2773 -0.0512
 8648SOL    HW127544   0.698   3.184   0.482  0.3492 -1.6778  0.8627
 8648SOL    HW227545   0.827   3.213   0.386  0.5861 -0.1922  1.5971
 8649SOL     OW27546   1.118   3.348   5.445 -0.9784  0.5526 -0.2776
 8649SOL    HW127547   1.133   3.262   5.397 -0.3162 -0.1054  1.0508
 8649SOL    HW227548   1.206   3.395   5.457 -1.2900  1.2423 -0.6918
 8650SOL     OW27549   2.476   5.693   6.189  0.4586  0.1164 -0.4546
 8650SOL    HW127550   2.564   5.722   6.228  0.9528  1.7429 -2.6011
 8650SOL    HW227551   2.415   5.665   6.263  2.5807 -0.6210  1.1558
 8651SOL     OW27552   6.300   4.153   4.608  0.4456 -0.6476  0.8278
 8651SOL    HW127553   6.319   4.222   4.538 -0.2278 -1.7789 -0.5150
 8651SOL    HW227554   6.260   4.072   4.565  0.8096 -1.7179  2.4247
 8652SOL     OW27555   0.750   3.214   1.987 -0.7431  0.4934 -0.4510
 8652SOL    HW127556   0.716   3.138   1.932 -0.4875  0.7837 -1.0168
 8652SOL    HW227557   0.850   3.210   1.991 -0.6901  1.1624 -1.0198
 8653SOL     OW27558   5.584   3.226   5.414  0.1594 -0.6319 -0.7401
 8653SOL    HW127559   5.630   3.139   5.428  0.5208 -0.1418  1.5653
 8653SOL    HW227560   5.485   3.211   5.408  0.2596 -1.2364 -0.9897
 8654SOL     OW27561   0.889   6.468   6.967  0.6713 -0.7392 -0.0430
 8654SOL    HW127562   0.882   6.424   6.878 -1.2316  0.0747 -0.3469
 8654SOL    HW227563   0.834   6.551   6.967  1.7551  0.0207  1.4706
 8655SOL     OW27564   4.495   5.665   3.910  0.2915 -0.4487 -0.0899
 8655SOL    HW127565   4.413   5.678   3.965 -0.1592  0.0237 -0.8531
 8655SOL    HW227566   4.571   5.638   3.969  0.1260  1.2197  0.9415
 8656SOL     OW27567   2.694   2.506   0.624  0.0207  0.5516 -0.2866
 8656SOL    HW127568   2.744   2.468   0.702 -0.1374  0.9597  0.0149
 8656SOL    HW227569   2.737   2.475   0.539 -0.8937 -1.4143 -0.0860
 8657SOL     OW27570   6.823   4.083   5.315  0.3640 -0.0226  0.1406
 8657SOL    HW127571   6.915   4.042   5.314 -0.6689 -2.5358 -1.5931
 8657SOL    HW227572   6.822   4.160   5.378  2.7330 -2.1604  3.1174
 8658SOL     OW27573   4.810   4.083   3.573 -0.6410  0.0964  0.0548
 8658SOL    HW127574   4.803   4.101   3.475 -0.5818 -0.5024 -0.0620
 8658SOL    HW227575   4.724   4.105   3.617 -0.8984 -0.3041 -0.2436
 8659SOL     OW27576   0.800   2.931   2.869 -0.1657  0.4908 -0.5844
 8659SOL    HW127577   0.787   2.921   2.770 -2.6373 -0.8729 -0.1904
 8659SOL    HW227578   0.750   3.012   2.901 -0.7475 -0.0063 -0.2247
 8660SOL     OW27579   5.548   7.016   6.924  0.2316  0.4537  0.3894
 8660SOL    HW127580   5.630   6.961   6.914 -1.2329 -1.8052 -0.0410
 8660SOL    HW227581   5.571   7.113   6.919  2.9015 -0.0891  0.8940
 8661SOL     OW27582   0.309   5.053   2.763 -0.3261 -0.0065  0.0754
 8661SOL    HW127583   0.312   5.004   2.850 -0.1051  0.0526  0.1021
 8661SOL    HW227584   0.380   5.123   2.762 -1.0734  0.7711  0.3093
 8662SOL     OW27585   1.488   1.680   1.406  0.5656 -0.0116 -0.3723
 8662SOL    HW127586   1.569   1.634   1.370  0.2590 -0.8233 -0.0298
 8662SOL    HW227587   1.514   1.733   1.487  0.8143 -0.0033 -0.4549
 8663SOL     OW27588   0.466   1.788   2.940  0.0701  0.2189  0.0896
 8663SOL    HW127589   0.384   1.844   2.928  0.4703  0.5574 -1.2534
 8663SOL    HW227590   0.445   1.693   2.916 -0.4686 -0.1382  1.8492
 8664SOL     OW27591   0.818   6.094   1.345  0.9720 -0.4861  0.0603
 8664SOL    HW127592   0.862   6.128   1.262  0.5586 -0.2740 -0.0805
 8664SOL    HW227593   0.732   6.049   1.321  1.1962 -1.0552  0.3124
 8665SOL     OW27594   6.069   3.214   6.102  0.2152 -0.4268  0.0859
 8665SOL    HW127595   6.020   3.136   6.142  1.2879 -1.4749 -0.5868
 8665SOL    HW227596   6.166   3.193   6.096  0.8458  1.7033  1.6025
 8666SOL     OW27597   3.863   2.464   0.339  0.2616 -0.0931 -0.1721
 8666SOL    HW127598   3.931   2.438   0.408 -0.9053 -0.8013  0.7509
 8666SOL    HW227599   3.837   2.559   0.353  0.3614 -0.1021  0.0757
 8667SOL     OW27600   0.920   4.472   3.240  0.1870  0.0834 -0.1187
 8667SOL    HW127601   0.970   4.412   3.177 -0.3304  0.2078 -0.6503
 8667SOL    HW227602   0.909   4.425   3.328  0.5792 -0.2422 -0.2412
 8668SOL     OW27603   0.457   4.823   5.268 -0.6264  0.1509  0.6754
 8668SOL    HW127604   0.457   4.897   5.201 -2.8564 -1.3143 -1.0555
 8668SOL    HW227605   0.550   4.812   5.305  0.2517  2.2577 -0.7181
 8669SOL     OW27606   2.138   4.941   1.873 -0.0723 -0.6876 -0.0814
 8669SOL    HW127607   2.149   4.997   1.955 -3.5370  1.4454 -0.8427
 8669SOL    HW227608   2.215   4.958   1.811  0.3576  1.1977  0.8798
 8670SOL     OW27609   4.425   0.051   4.431 -0.1063 -0.0235  0.4655
 8670SOL    HW127610   4.453   0.046   4.335 -1.0175 -1.2961  0.2353
 8670SOL    HW227611   4.491   0.106   4.482  0.1846  1.0008 -0.9503
 8671SOL     OW27612   5.022   4.151   1.280  0.2576 -0.3301  0.0331
 8671SOL    HW127613   4.934   4.105   1.268  0.7884 -0.8646 -2.4164
 8671SOL    HW227614   5.092   4.084   1.303  0.8324 -0.6979 -2.5151
 8672SOL     OW27615   4.467   0.411   4.353  0.2640 -0.2850  0.2296
 8672SOL    HW127616   4.517   0.343   4.406 -1.6232 -0.6974  1.5933
 8672SOL    HW227617   4.493   0.503   4.383  1.3535 -0.4386 -0.2167
 8673SOL     OW27618   5.324   2.400   3.959  0.4360 -0.3306 -0.1701
 8673SOL    HW127619   5.332   2.492   3.919 -0.7799 -0.4777 -0.8072
 8673SOL    HW227620   5.363   2.333   3.896  0.7038 -0.3236 -0.0133
 8674SOL     OW27621   6.543   3.136   4.532  0.4944 -0.2351 -0.1958
 8674SOL    HW127622   6.518   3.040   4.531  0.2968 -0.1898  0.2391
 8674SOL    HW227623   6.621   3.151   4.470  0.3361 -0.6154 -0.4915
 8675SOL     OW27624   4.477   1.724   5.342 -0.6978  0.1016  0.3306
 8675SOL    HW127625   4.495   1.724   5.243  0.3721  3.5121  0.4158
 8675SOL    HW227626   4.547   1.776   5.389 -1.1684 -1.4803  2.9894
 8676SOL     OW27627   2.254   1.213   3.006 -0.0446  0.6569 -0.0222
 8676SOL    HW127628   2.236   1.115   2.998 -0.4793  0.6215  1.1889
 8676SOL    HW227629   2.200   1.263   2.938 -0.2530  0.1057 -0.2668
 8677SOL     OW27630   4.674   5.357   6.723 -0.5734  0.0263 -0.2578
 8677SOL    HW127631   4.672   5.330   6.820 -0.2333 -0.9370 -0.5124
 8677SOL    HW227632   4.603   5.308   6.673 -1.0995  0.9190 -0.4099
 8678SOL     OW27633   6.547   1.181   3.033 -0.4582  0.2040 -0.2512
 8678SOL    HW127634   6.637   1.167   2.990 -1.1329 -0.7438 -1.4387
 8678SOL    HW227635   6.554   1.251   3.105  1.4234 -0.5770  0.3700
 8679SOL     OW27636   4.495   1.670   2.336  0.2221 -0.2744  0.4780
 8679SOL    HW127637   4.491   1.697   2.432  0.8224  1.4671  0.0465
 8679SOL    HW227638   4.412   1.701   2.289  0.4565 -0.0806  0.1865
 8680SOL     OW27639   6.589   4.495   1.735  0.3470  0.0737 -0.0708
 8680SOL    HW127640   6.521   4.564   1.761  1.5102  0.5403  1.9777
 8680SOL    HW227641   6.563   4.407   1.775  0.0967 -0.1512 -0.7106
 8681SOL     OW27642   4.371   0.717   2.094 -0.6151  0.0307 -0.0045
 8681SOL    HW127643   4.274   0.738   2.101 -0.3637  3.0744 -2.9368
 8681SOL    HW227644   4.418   0.793   2.048  2.8068 -2.1877 -0.5163
 8682SOL     OW27645   0.703   1.848   1.183  0.2960  0.2256 -0.0670
 8682SOL    HW127646   0.666   1.873   1.094 -0.2928 -0.8135 -0.1275
 8682SOL    HW227647   0.744   1.929   1.227 -2.7982  1.6573  0.4010
 8683SOL     OW27648   0.159   2.895   6.570  0.4899 -0.1075  0.1669
 8683SOL    HW127649   0.211   2.961   6.514  1.6535  0.7068  2.1103
 8683SOL    HW227650   0.079   2.865   6.519  0.7679  1.6164 -1.4112
 8684SOL     OW27651   3.377   0.945   3.744  0.2353 -0.4070  0.0241
 8684SOL    HW127652   3.470   0.982   3.734 -0.1619  0.9276  0.9831
 8684SOL    HW227653   3.312   1.011   3.706 -0.3507 -1.1992 -0.3633
 8685SOL     OW27654   1.859   6.088   3.495 -0.1433  0.4544 -0.5199
 8685SOL    HW127655   1.946   6.053   3.527  0.7492  1.9816 -1.1559
 8685SOL    HW227656   1.865   6.109   3.397 -2.3867 -2.8555 -1.5274
 8686SOL     OW27657   0.788   3.405   1.328  0.7805  0.2534  0.1281
 8686SOL    HW127658   0.874   3.454   1.313  0.3757  1.1446  0.6433
 8686SOL    HW227659   0.806   3.307   1.328  2.0613  0.4418  1.7911
 8687SOL     OW27660   0.253   6.522   3.560  0.8195 -0.1871 -0.1228
 8687SOL    HW127661   0.219   6.591   3.496 -1.3482 -0.4719  0.6044
 8687SOL    HW227662   0.211   6.536   3.650  0.6719 -2.1348  0.1751
 8688SOL     OW27663   5.731   2.624   6.842  0.4749  0.6662 -0.6177
 8688SOL    HW127664   5.816   2.644   6.793  0.5888  0.4112 -0.5269
 8688SOL    HW227665   5.716   2.525   6.843 -0.6984  0.7971 -2.0966
 8689SOL     OW27666   5.770   4.494   1.595  0.5850 -0.4465  0.1764
 8689SOL    HW127667   5.808   4.563   1.533  0.3346 -0.7667 -0.3486
 8689SOL    HW227668   5.703   4.438   1.545 -0.5646  0.0923  1.0747
 8690SOL     OW27669   3.363   1.932   5.417  0.0916  0.0372  0.4803
 8690SOL    HW127670   3.356   1.896   5.510  2.6179  0.5804  0.9534
 8690SOL    HW227671   3.272   1.935   5.375 -1.2037  0.4791  3.1594
 8691SOL     OW27672   3.466   1.053   3.996  0.2825  0.2219 -0.0750
 8691SOL    HW127673   3.539   1.017   3.937  1.2929  0.7128  0.8580
 8691SOL    HW227674   3.378   1.013   3.967  1.0679 -1.3503 -0.4227
 8692SOL     OW27675   6.801   2.554   3.950 -0.3276  0.0996 -0.0893
 8692SOL    HW127676   6.812   2.512   4.040 -0.6710 -0.6189 -0.3773
 8692SOL    HW227677   6.751   2.641   3.960 -0.2992  0.0617  0.4191
 8693SOL     OW27678   3.751   1.578   5.088  0.3022  0.2588  0.3175
 8693SOL    HW127679   3.818   1.638   5.133 -0.6905  2.0040 -0.4225
 8693SOL    HW227680   3.660   1.619   5.095 -0.4042 -1.1440 -0.3102
 8694SOL     OW27681   0.341   1.329   1.949 -0.0116 -0.2370 -0.2065
 8694SOL    HW127682   0.298   1.293   2.031  1.1601 -1.4151 -0.0882
 8694SOL    HW227683   0.369   1.254   1.889  1.8012  0.4554 -0.3043
 8695SOL     OW27684   1.367   5.898   4.642 -0.0317  0.0612  0.3733
 8695SOL    HW127685   1.313   5.971   4.684 -1.9759 -0.9726 -0.1731
 8695SOL    HW227686   1.379   5.823   4.707 -1.3967 -0.7273 -0.2357
 8696SOL     OW27687   6.232   1.831   6.689 -0.2925 -0.0819  0.6173
 8696SOL    HW127688   6.141   1.797   6.663 -0.5898  1.0304  0.1320
 8696SOL    HW227689   6.301   1.763   6.664 -1.0237 -1.1524  1.4363
 8697SOL     OW27690   2.929   1.194   4.496  0.2793 -0.2641 -0.0530
 8697SOL    HW127691   2.866   1.246   4.554 -0.2294  0.2464 -1.0408
 8697SOL    HW227692   2.877   1.128   4.442  0.7106 -0.5031 -0.1802
 8698SOL     OW27693   2.828   2.662   1.821  0.4110 -0.1794  0.1659
 8698SOL    HW127694   2.815   2.567   1.793 -0.6873 -0.7457  2.3444
 8698SOL    HW227695   2.748   2.716   1.794  1.2380  0.2961 -1.4929
 8699SOL     OW27696   6.842   5.273   3.183 -0.5752 -0.2473 -0.2675
 8699SOL    HW127697   6.784   5.195   3.204  0.0048 -0.2813  1.3467
 8699SOL    HW227698   6.793   5.336   3.123 -1.3728 -1.4115 -0.8822
 8700SOL     OW27699   2.382   3.742   5.661 -0.3831  0.1319  0.0984
 8700SOL    HW127700   2.407   3.804   5.587 -2.7362  0.0432 -0.8381
 8700SOL    HW227701   2.427   3.772   5.745  0.8357  1.3537 -0.9345
 8701SOL     OW27702   3.710   5.696   3.031  0.0500 -0.4807 -0.3984
 8701SOL    HW127703   3.710   5.792   3.004 -1.4214  0.0037  1.1400
 8701SOL    HW227704   3.771   5.683   3.110 -0.5720 -0.5910  0.0691
 8702SOL     OW27705   0.384   2.591   1.520  0.1575  0.5984 -0.0445
 8702SOL    HW127706   0.335   2.670   1.483 -1.7624 -1.7383 -2.9594
 8702SOL    HW227707   0.443   2.552   1.449  0.4366 -1.0540  1.0448
 8703SOL     OW27708   4.491   1.215   3.592  0.7625  0.7254 -0.5471
 8703SOL    HW127709   4.437   1.216   3.676 -0.5225  0.1065 -1.3285
 8703SOL    HW227710   4.543   1.300   3.585 -0.3132  1.4664  0.1165
 8704SOL     OW27711   6.216   6.521   2.144 -0.3421  0.0838 -0.0233
 8704SOL    HW127712   6.176   6.511   2.235  0.4510 -3.2323  0.0858
 8704SOL    HW227713   6.309   6.485   2.145 -0.5609 -0.6642 -2.2743
 8705SOL     OW27714   6.658   0.033   6.435 -0.6519 -0.5953 -0.1274
 8705SOL    HW127715   6.671   0.025   6.534 -0.3658  1.7999  0.0765
 8705SOL    HW227716   6.567   0.070   6.416 -0.9687 -1.6691 -0.8319
 8706SOL     OW27717   2.092   6.349   4.205  0.2823 -0.0968  0.8569
 8706SOL    HW127718   2.027   6.422   4.224  0.1651 -0.8369  3.7918
 8706SOL    HW227719   2.083   6.277   4.274  4.4239 -0.0778  1.7243
 8707SOL     OW27720   4.031   3.109   0.145  0.2884  0.2369  0.3126
 8707SOL    HW127721   4.019   3.019   0.187  0.3451  0.0746 -0.0072
 8707SOL    HW227722   3.971   3.115   0.064  0.9288  0.1508 -0.1758
 8708SOL     OW27723   5.782   6.885   0.532  0.0496 -0.6572  0.5971
 8708SOL    HW127724   5.861   6.839   0.574  1.7448 -0.4206 -2.0765
 8708SOL    HW227725   5.790   6.880   0.433 -3.5354 -0.8614  0.1836
 8709SOL     OW27726   1.653   3.535   3.743  0.0726  0.0776 -0.6048
 8709SOL    HW127727   1.715   3.602   3.701  0.1313 -0.1500 -0.8844
 8709SOL    HW227728   1.654   3.451   3.690 -0.6562  0.1468 -0.7402
 8710SOL     OW27729   1.642   1.172   2.415  0.0796 -0.4083  0.1426
 8710SOL    HW127730   1.633   1.225   2.331 -0.8388 -0.5468  0.1484
 8710SOL    HW227731   1.661   1.234   2.491  0.6838 -0.2610 -0.1202
 8711SOL     OW27732   0.142   1.705   2.792  0.4852  0.3373  0.4555
 8711SOL    HW127733   0.130   1.693   2.694  1.4298 -0.2452  0.4028
 8711SOL    HW227734   0.157   1.616   2.836  0.9806  0.6746  0.9947
 8712SOL     OW27735   0.563   4.585   1.389 -0.2683 -0.1087  0.0302
 8712SOL    HW127736   0.560   4.677   1.352  2.7010  0.1324  0.1379
 8712SOL    HW227737   0.552   4.588   1.489 -1.9852 -0.1160 -0.1287
 8713SOL     OW27738   3.202   0.573   6.047  0.1434 -0.1251 -0.3094
 8713SOL    HW127739   3.252   0.583   5.961  0.5848  1.7957  0.1238
 8713SOL    HW227740   3.266   0.580   6.124 -0.4760 -0.0748  0.2129
 8714SOL     OW27741   4.940   6.971   0.963 -0.0508  0.1190  0.1975
 8714SOL    HW127742   5.002   6.897   0.989 -1.2885 -0.8386  0.5327
 8714SOL    HW227743   4.855   6.932   0.929 -0.4659  1.4054 -0.2944
 8715SOL     OW27744   5.934   0.039   1.298  0.4136 -0.2714 -0.3718
 8715SOL    HW127745   6.016  -0.018   1.289  1.1857  0.7531 -0.0720
 8715SOL    HW227746   5.959   0.134   1.282 -0.4719  0.2080  0.9708
 8716SOL     OW27747   2.684   1.361   2.717  0.3395  0.1323 -0.0195
 8716SOL    HW127748   2.621   1.337   2.791 -0.5036 -0.1213 -0.8007
 8716SOL    HW227749   2.760   1.415   2.753  0.4973 -0.8630  1.2070
 8717SOL     OW27750   6.598   4.873   2.766 -0.1061 -0.2621  0.3147
 8717SOL    HW127751   6.509   4.872   2.719 -0.8042  0.3856  1.5761
 8717SOL    HW227752   6.589   4.829   2.855  0.9138 -0.3813  0.3715
 8718SOL     OW27753   3.210   5.444   6.940 -0.1280 -0.3833  0.1526
 8718SOL    HW127754   3.165   5.506   6.874  1.5377 -0.3776 -1.0478
 8718SOL    HW227755   3.187   5.350   6.917  0.2053 -0.3670 -0.2625
 8719SOL     OW27756   0.851   5.459   6.664  0.0474  0.2225 -0.1703
 8719SOL    HW127757   0.897   5.469   6.752 -1.1136  0.2981  0.4495
 8719SOL    HW227758   0.812   5.547   6.637  0.2707  0.1640 -0.6885
 8720SOL     OW27759   3.943   2.025   0.080  0.4290  0.2823  0.1525
 8720SOL    HW127760   3.869   2.087   0.104  0.9718  0.5198  1.2999
 8720SOL    HW227761   3.928   1.936   0.125  0.9000  0.3818  0.5212
 8721SOL     OW27762   5.690   2.942   6.563 -0.0587 -0.1423 -0.5457
 8721SOL    HW127763   5.786   2.967   6.573 -0.0099 -0.2318 -0.7728
 8721SOL    HW227764   5.684   2.859   6.507 -0.4458  2.0104 -4.0392
 8722SOL     OW27765   4.395   3.250   5.716  0.5681 -0.2635 -0.0393
 8722SOL    HW127766   4.425   3.159   5.687  2.5211  0.6337 -1.0248
 8722SOL    HW227767   4.460   3.319   5.683 -1.0866  1.5513  0.2992
 8723SOL     OW27768   1.982   6.996   1.339 -0.3128  0.1491 -0.1916
 8723SOL    HW127769   1.892   7.032   1.364  0.4083  1.1578  1.0753
 8723SOL    HW227770   2.044   7.005   1.416  0.4846 -1.9940 -0.5106
 8724SOL     OW27771   1.961   2.071   2.629  0.0806 -0.1337  0.3045
 8724SOL    HW127772   2.021   1.994   2.608 -0.7120 -0.3003 -1.4728
 8724SOL    HW227773   2.017   2.147   2.665  1.2443 -0.5583 -0.5465
 8725SOL     OW27774   2.140   3.181   5.492 -0.2184 -0.8413 -0.7752
 8725SOL    HW127775   2.222   3.136   5.528  0.6591  0.8037 -0.6199
 8725SOL    HW227776   2.163   3.275   5.466 -2.2393 -0.0748  0.0387
 8726SOL     OW27777   2.669   5.728   1.464 -0.0286 -0.0121 -0.0984
 8726SOL    HW127778   2.734   5.736   1.388 -0.4404 -0.2453 -0.4841
 8726SOL    HW227779   2.701   5.783   1.541  0.6449 -0.1561 -0.2644
 8727SOL     OW27780   2.969   6.599   5.121 -0.3101  0.1319 -0.5152
 8727SOL    HW127781   2.923   6.554   5.197 -1.0816  0.4708 -0.7665
 8727SOL    HW227782   3.065   6.573   5.120 -0.2030  0.4046  0.7841
 8728SOL     OW27783   2.606   5.880   0.634 -0.2659  0.2255 -0.4698
 8728SOL    HW127784   2.661   5.841   0.560  1.4259  2.4165 -0.4619
 8728SOL    HW227785   2.573   5.970   0.608 -0.6496  0.5401  0.9994
 8729SOL     OW27786   5.960   0.728   3.620 -0.1782  0.0651  0.3280
 8729SOL    HW127787   5.933   0.707   3.527 -0.8564  1.0901  0.2752
 8729SOL    HW227788   6.020   0.809   3.620  0.3502 -0.3161  0.7267
 8730SOL     OW27789   6.626   6.760   0.006 -0.4891  0.4904  0.1077
 8730SOL    HW127790   6.584   6.671  -0.015 -0.4769  0.0358  1.8553
 8730SOL    HW227791   6.617   6.820  -0.073  0.7009 -1.4875 -1.6475
 8731SOL     OW27792   5.099   5.573   4.474  0.0968  0.1268  0.9363
 8731SOL    HW127793   5.015   5.520   4.488  0.0055 -0.0190 -0.1344
 8731SOL    HW227794   5.105   5.604   4.379  1.8103 -0.8606  0.6718
 8732SOL     OW27795   2.501   0.717   3.931  0.1490 -0.3896 -0.1697
 8732SOL    HW127796   2.580   0.777   3.938 -0.6017  0.6973 -0.6343
 8732SOL    HW227797   2.531   0.622   3.923  1.3595 -0.1194  0.9007
 8733SOL     OW27798   4.420   6.602   1.322 -0.1402 -0.2666 -0.3339
 8733SOL    HW127799   4.449   6.508   1.303  1.5069  0.4136 -1.4480
 8733SOL    HW227800   4.500   6.663   1.317 -1.3887  1.3888 -1.0017
 8734SOL     OW27801   0.902   2.427   6.885  0.3443 -0.5356  0.1414
 8734SOL    HW127802   0.948   2.511   6.914  1.5176 -1.7543  2.0362
 8734SOL    HW227803   0.808   2.449   6.859  0.7921  1.4406 -0.0355
 8735SOL     OW27804   1.949   1.574   0.487  0.1899 -0.0607  0.2152
 8735SOL    HW127805   2.006   1.492   0.495 -0.5292 -0.5398  0.5428
 8735SOL    HW227806   1.932   1.592   0.390 -0.5248 -0.9265  0.1651
 8736SOL     OW27807   5.706   2.540   5.646 -0.6748 -0.7210 -0.1898
 8736SOL    HW127808   5.804   2.562   5.648 -0.2015 -2.6216  1.6948
 8736SOL    HW227809   5.660   2.585   5.723 -1.4823  0.7134 -1.4494
 8737SOL     OW27810   2.582   2.185   1.919  0.4222 -0.0879  0.8142
 8737SOL    HW127811   2.640   2.265   1.935 -2.1959  1.8800  1.0746
 8737SOL    HW227812   2.520   2.203   1.843 -0.4340 -1.7822  1.0682
 8738SOL     OW27813   0.370   1.484   1.019  0.2329  0.2598 -0.3724
 8738SOL    HW127814   0.467   1.465   1.004  0.7031  2.6937 -0.7826
 8738SOL    HW227815   0.346   1.571   0.976 -2.3947 -0.7514 -1.1145
 8739SOL     OW27816   2.423   3.192   0.953 -0.5392 -0.4087 -0.2586
 8739SOL    HW127817   2.412   3.093   0.944  0.0931 -0.5870  0.7687
 8739SOL    HW227818   2.520   3.215   0.950 -0.5763 -0.0006  1.0900
 8740SOL     OW27819   1.216   1.894   3.818 -0.0877  0.6479 -0.1934
 8740SOL    HW127820   1.124   1.925   3.793 -0.5109 -0.0665  0.4608
 8740SOL    HW227821   1.279   1.914   3.742 -1.0466 -0.0989 -1.2214
 8741SOL     OW27822   0.326   6.150   2.893 -0.1705  1.0422 -0.1198
 8741SOL    HW127823   0.317   6.082   2.821  0.0292  3.2425 -2.3901
 8741SOL    HW227824   0.240   6.200   2.904 -1.1688 -1.0497  3.3251
 8742SOL     OW27825   0.657   6.157   1.556 -0.5051 -0.3455 -0.1422
 8742SOL    HW127826   0.701   6.222   1.618  1.8111 -0.7416 -1.2507
 8742SOL    HW227827   0.719   6.136   1.480 -1.6810 -2.8264 -0.5328
 8743SOL     OW27828   3.290   1.628   1.163  0.6128 -0.0784  0.2023
 8743SOL    HW127829   3.220   1.652   1.096 -0.2237 -1.2804  0.6050
 8743SOL    HW227830   3.275   1.678   1.248  1.7104  1.4945 -0.4729
 8744SOL     OW27831   1.031   2.343   1.299 -0.1659  0.5230 -0.4433
 8744SOL    HW127832   1.002   2.325   1.393  0.3731  1.5314 -0.0663
 8744SOL    HW227833   1.110   2.286   1.277  0.0416  0.6784 -0.1011
 8745SOL     OW27834   6.272   3.030   1.328 -0.0084 -0.2498 -0.3002
 8745SOL    HW127835   6.238   3.085   1.251 -0.3605  0.1466  0.1329
 8745SOL    HW227836   6.215   3.047   1.408  1.1560  0.3558  0.4270
 8746SOL     OW27837   0.887   1.343   1.595 -0.1200  0.6246  0.0598
 8746SOL    HW127838   0.793   1.379   1.591 -0.7212 -0.8339  0.5014
 8746SOL    HW227839   0.944   1.406   1.646 -0.5496  2.1404 -1.2290
 8747SOL     OW27840   3.876   0.830   4.821 -0.1125 -0.2833 -0.2083
 8747SOL    HW127841   3.946   0.852   4.753 -0.8732  0.1692 -0.8526
 8747SOL    HW227842   3.804   0.898   4.818 -2.1264 -2.3111 -1.6636
 8748SOL     OW27843   2.230   2.263   2.199  0.3596  0.3284 -0.2790
 8748SOL    HW127844   2.252   2.312   2.283 -2.0246  0.0823  0.5465
 8748SOL    HW227845   2.232   2.164   2.216 -5.9500  0.0816  1.4506
 8749SOL     OW27846   6.836   2.347   4.637  0.3053  0.4638  0.1770
 8749SOL    HW127847   6.871   2.437   4.661  0.4183  0.8250 -1.2420
 8749SOL    HW227848   6.912   2.281   4.633  0.6412  0.8958 -1.3162
 8750SOL     OW27849   1.128   2.498   5.887  0.2578 -0.5606  0.4878
 8750SOL    HW127850   1.032   2.484   5.863  0.8039 -1.2554 -1.4811
 8750SOL    HW227851   1.151   2.444   5.968 -1.4667  1.1948  2.2395
 8751SOL     OW27852   6.174   6.735   1.046  0.4846  0.6492 -0.0281
 8751SOL    HW127853   6.172   6.687   1.134 -0.1080 -2.0262 -1.3873
 8751SOL    HW227854   6.220   6.677   0.978 -1.5147  1.3676 -2.1207
 8752SOL     OW27855   4.293   0.742   0.531 -0.2474  0.4288 -0.1868
 8752SOL    HW127856   4.234   0.768   0.607  2.8826  0.7177  2.3261
 8752SOL    HW227857   4.299   0.818   0.466 -1.1457  1.0676  0.4549
 8753SOL     OW27858   5.895   1.966   3.042 -0.0630  0.2931 -0.8112
 8753SOL    HW127859   5.966   1.978   3.111  0.4580  1.4689 -1.5251
 8753SOL    HW227860   5.937   1.938   2.956 -0.5135  0.5509 -1.1155
 8754SOL     OW27861   1.070   0.142   6.104  0.2012  0.1009  0.4068
 8754SOL    HW127862   1.041   0.061   6.155 -4.1399  2.0710  1.6113
 8754SOL    HW227863   1.098   0.116   6.012 -1.9791 -2.7216  0.4127
 8755SOL     OW27864   4.440   1.870   1.936 -0.0600 -0.4092 -0.2182
 8755SOL    HW127865   4.369   1.828   1.993 -0.0429 -0.2509 -0.0769
 8755SOL    HW227866   4.447   1.822   1.849 -0.1884 -0.5629 -0.1428
 8756SOL     OW27867   0.666   0.769   3.428 -0.4389 -0.1343  0.1041
 8756SOL    HW127868   0.566   0.776   3.428 -0.3624  1.7107  1.5872
 8756SOL    HW227869   0.706   0.860   3.418  1.1507 -0.9761 -1.8279
 8757SOL     OW27870   0.131   0.074   4.715  0.1267  0.5101  0.2681
 8757SOL    HW127871   0.172   0.146   4.659 -0.2607 -0.1412 -0.8986
 8757SOL    HW227872   0.122   0.106   4.809  0.5207  1.7572 -0.0938
 8758SOL     OW27873   0.496   0.094   2.480  0.4358 -0.4559  0.2575
 8758SOL    HW127874   0.511  -0.004   2.490  0.8258 -0.3790  0.4509
 8758SOL    HW227875   0.524   0.123   2.388 -0.9262 -0.7522 -0.2660
 8759SOL     OW27876   4.491   4.334   5.512  0.1702  0.6390 -0.4340
 8759SOL    HW127877   4.435   4.396   5.567  1.3712  0.9760  0.4735
 8759SOL    HW227878   4.497   4.245   5.557  0.3637  0.6133 -0.5068
 8760SOL     OW27879   2.370   6.869   6.589 -0.6140 -0.4533  0.1665
 8760SOL    HW127880   2.418   6.865   6.677 -2.2970 -0.8876  1.1004
 8760SOL    HW227881   2.305   6.945   6.590 -2.6381 -2.1016  0.4040
 8761SOL     OW27882   1.031   1.973   4.227  0.1037  0.6521  0.1832
 8761SOL    HW127883   1.041   1.937   4.320  0.9230  0.9020  0.2010
 8761SOL    HW227884   1.012   1.898   4.164  0.8132  0.3068  0.3656
 8762SOL     OW27885   2.542   2.212   0.406 -0.5404 -0.3350 -0.2810
 8762SOL    HW127886   2.574   2.225   0.500  1.5486  1.5087 -1.1788
 8762SOL    HW227887   2.472   2.280   0.384  0.0264  0.1855 -0.4970
 8763SOL     OW27888   5.725   3.592   6.731 -0.1869 -0.4966  0.3260
 8763SOL    HW127889   5.660   3.571   6.658  0.3935  1.1497 -0.6972
 8763SOL    HW227890   5.818   3.585   6.696  0.0979  0.4201  0.8813
 8764SOL     OW27891   4.303   2.977   2.221 -0.1019  0.0458 -0.2494
 8764SOL    HW127892   4.251   2.944   2.143  1.1471 -0.3690 -0.9310
 8764SOL    HW227893   4.286   2.918   2.300  1.0495 -1.4665 -1.0855
 8765SOL     OW27894   1.250   6.520   6.730  0.3742 -0.3317 -0.0184
 8765SOL    HW127895   1.331   6.524   6.673  0.0083 -0.2926 -0.5392
 8765SOL    HW227896   1.254   6.593   6.799  0.2609  0.3611 -0.7369
 8766SOL     OW27897   2.524   5.618   0.044  0.2246  0.1099  0.0209
 8766SOL    HW127898   2.433   5.651   0.019  0.0749 -0.1832  0.1814
 8766SOL    HW227899   2.572   5.688   0.096  0.2955  0.4764 -0.5304
 8767SOL     OW27900   1.527   3.658   3.385  0.1210  0.1137 -0.0562
 8767SOL    HW127901   1.471   3.589   3.429  1.0191 -0.6806 -0.1390
 8767SOL    HW227902   1.556   3.726   3.452 -3.0718  2.0801 -0.4398
 8768SOL     OW27903   3.135   3.289   1.739 -0.0124  0.5409  0.1622
 8768SOL    HW127904   3.229   3.323   1.745  0.5530 -0.7615 -0.7535
 8768SOL    HW227905   3.125   3.208   1.797 -0.1518 -0.1479 -0.7858
 8769SOL     OW27906   3.920   3.986   6.811  0.2735  0.5454  0.6513
 8769SOL    HW127907   3.941   4.074   6.769  0.9244  0.0396 -0.0965
 8769SOL    HW227908   3.884   4.001   6.903 -0.6446  1.6403  0.1405
 8770SOL     OW27909   3.562   0.779   5.096  0.6546 -0.1821  0.3337
 8770SOL    HW127910   3.540   0.711   5.166  0.2286 -0.1858  0.1991
 8770SOL    HW227911   3.508   0.761   5.014  0.6196  0.2534  0.2579
 8771SOL     OW27912   3.373   5.753   2.862 -0.3750  0.0163  0.2740
 8771SOL    HW127913   3.284   5.716   2.834  0.2146 -2.5150  1.4717
 8771SOL    HW227914   3.360   5.846   2.898 -2.1379  0.6081 -1.6763
 8772SOL     OW27915   0.501   3.144   6.547  0.4268  0.0621 -0.3521
 8772SOL    HW127916   0.567   3.070   6.557  0.6798  0.2670 -0.4933
 8772SOL    HW227917   0.427   3.114   6.486 -0.9008 -1.0411  1.6958
 8773SOL     OW27918   1.499   3.869   0.707  0.1371 -0.7869  0.1381
 8773SOL    HW127919   1.445   3.787   0.727 -0.2862 -0.7540 -0.8218
 8773SOL    HW227920   1.597   3.846   0.711  0.0311 -1.2011  0.4309
 8774SOL     OW27921   2.705   4.493   1.143  0.5569 -0.4677 -0.8129
 8774SOL    HW127922   2.665   4.578   1.110  0.4070 -0.6955 -1.2296
 8774SOL    HW227923   2.755   4.448   1.069  0.1284 -1.0405 -0.7634
 8775SOL     OW27924   6.215   5.132   1.260 -0.1029  0.1177 -0.0926
 8775SOL    HW127925   6.247   5.037   1.249  0.1280  0.1907 -0.0591
 8775SOL    HW227926   6.125   5.132   1.303 -1.7456 -0.2650 -3.2250
 8776SOL     OW27927   1.529   3.507   0.895 -0.2577  0.3723  0.1842
 8776SOL    HW127928   1.499   3.592   0.851 -0.7319  0.7332  1.1682
 8776SOL    HW227929   1.529   3.520   0.994  1.7782 -0.0740  0.2878
 8777SOL     OW27930   3.436   4.541   6.448  0.0943 -0.4956  0.0153
 8777SOL    HW127931   3.505   4.505   6.385 -0.6597  2.2956 -2.6170
 8777SOL    HW227932   3.481   4.580   6.529  1.2801 -1.8087  0.0296
 8778SOL     OW27933   2.161   0.676   1.255  0.3223  0.3244 -0.8716
 8778SOL    HW127934   2.128   0.587   1.288 -0.4221  0.3221 -1.5920
 8778SOL    HW227935   2.216   0.663   1.173  0.0456  0.5333 -1.0962
 8779SOL     OW27936   1.836   2.977   2.279  0.4617  0.2189 -0.1339
 8779SOL    HW127937   1.933   2.973   2.303  0.1836 -2.8426  0.9955
 8779SOL    HW227938   1.822   2.929   2.192 -0.0339  0.9514 -0.4695
 8780SOL     OW27939   5.281   0.184   5.654  0.7928  0.4113  0.1734
 8780SOL    HW127940   5.304   0.174   5.751  0.0258  0.9027  0.4110
 8780SOL    HW227941   5.256   0.094   5.616  3.0076 -0.1642 -0.1009
 8781SOL     OW27942   2.865   4.334   1.826  0.8727 -0.2290 -0.3858
 8781SOL    HW127943   2.931   4.269   1.864  0.5778 -0.7887 -0.8181
 8781SOL    HW227944   2.806   4.367   1.899  1.8469  0.5543  0.0752
 8782SOL     OW27945   3.066   6.172   2.630 -0.1971  0.2451 -0.0933
 8782SOL    HW127946   3.075   6.252   2.570 -0.2025 -0.7777 -1.4955
 8782SOL    HW227947   3.089   6.199   2.724 -1.1094  2.1179 -0.3453
 8783SOL     OW27948   4.000   6.405   1.207  0.9282  0.1330  0.7820
 8783SOL    HW127949   4.067   6.405   1.133  0.3715 -0.2928  0.2748
 8783SOL    HW227950   3.930   6.474   1.188  2.0367  1.7033  2.0796
 8784SOL     OW27951   4.946   4.435   2.367  0.0969  0.2649  0.3430
 8784SOL    HW127952   4.923   4.384   2.284  1.3381 -0.9163  0.6783
 8784SOL    HW227953   5.010   4.381   2.422  1.6614  2.2810  0.6161
 8785SOL     OW27954   6.288   4.926   1.640 -0.1472  0.2007 -0.7034
 8785SOL    HW127955   6.367   4.954   1.586  0.7584  1.6907  1.2633
 8785SOL    HW227956   6.293   4.968   1.731 -1.2965 -2.5958  0.7740
 8786SOL     OW27957   6.040   5.246   0.731 -0.0332 -0.7329  0.1494
 8786SOL    HW127958   6.080   5.165   0.690 -2.2288 -1.8017 -0.0601
 8786SOL    HW227959   6.035   5.235   0.830  0.3218 -0.5261  0.1924
 8787SOL     OW27960   1.610   4.403   3.650 -0.0337  0.0321  0.2565
 8787SOL    HW127961   1.662   4.409   3.735 -1.8036 -0.1310  1.4116
 8787SOL    HW227962   1.657   4.341   3.587  0.9756 -0.3829  1.3739
 8788SOL     OW27963   2.671   6.543   1.593  0.0525  0.2211  0.1733
 8788SOL    HW127964   2.619   6.479   1.649  0.7008 -0.3966  0.0983
 8788SOL    HW227965   2.609   6.599   1.539 -0.5481  0.0906  0.7191
 8789SOL     OW27966   0.528   6.223   2.622  0.5559  0.4125  0.4171
 8789SOL    HW127967   0.488   6.145   2.574 -0.1079  0.0856  1.4757
 8789SOL    HW227968   0.492   6.308   2.582  1.2157  0.1935 -0.6795
 8790SOL     OW27969   6.264   2.636   1.745 -0.4872 -0.2191 -0.1663
 8790SOL    HW127970   6.263   2.675   1.837  2.6137 -0.6484  0.1663
 8790SOL    HW227971   6.232   2.542   1.748  1.0894 -0.7472  0.8054
 8791SOL     OW27972   1.675   3.313   3.568  0.6684  0.7357 -0.6390
 8791SOL    HW127973   1.650   3.296   3.473 -2.9194  0.2374  0.2593
 8791SOL    HW227974   1.716   3.231   3.608 -2.0267 -0.7046 -0.6143
 8792SOL     OW27975   3.915   6.460   3.523  0.5158  0.2592 -0.4559
 8792SOL    HW127976   4.001   6.415   3.499  0.7301 -0.6539  1.7670
 8792SOL    HW227977   3.916   6.554   3.488  2.2445  0.1400 -0.8176
 8793SOL     OW27978   0.102   4.198   3.416  0.6905  0.2056  0.0804
 8793SOL    HW127979   0.151   4.252   3.348  0.8979 -1.8391 -1.4791
 8793SOL    HW227980   0.040   4.134   3.370  0.8822 -1.2950  1.8081
 8794SOL     OW27981   3.844   0.681   3.095  0.1205  0.0776 -0.0903
 8794SOL    HW127982   3.763   0.630   3.124  0.5273 -0.5030  0.0288
 8794SOL    HW227983   3.831   0.778   3.115 -0.1702 -0.1312  0.7660
 8795SOL     OW27984   6.550   4.501   6.193  0.3790  0.2456 -1.0051
 8795SOL    HW127985   6.513   4.480   6.103  2.3664 -0.2771 -1.7634
 8795SOL    HW227986   6.644   4.535   6.183  0.1869  1.4557  0.7874
 8796SOL     OW27987   0.210   2.512   3.631 -0.1293 -0.0507 -0.0237
 8796SOL    HW127988   0.178   2.422   3.604 -0.8874  0.1835  0.0732
 8796SOL    HW227989   0.171   2.536   3.720  1.6996 -0.4860  0.9517
 8797SOL     OW27990   3.713   1.068   1.378  0.3070 -0.4317  0.2696
 8797SOL    HW127991   3.651   1.143   1.357 -0.1615 -0.5732  1.1301
 8797SOL    HW227992   3.787   1.102   1.437 -0.8853 -0.9959  2.1733
 8798SOL     OW27993   2.219   2.285   4.830 -0.1608 -0.7979 -0.6763
 8798SOL    HW127994   2.152   2.250   4.896 -0.6498  0.4290 -0.4955
 8798SOL    HW227995   2.180   2.279   4.738 -0.4675 -0.2596 -0.5900
 8799SOL     OW27996   6.593   5.123   6.913 -0.5365  0.2480 -0.6230
 8799SOL    HW127997   6.550   5.033   6.907 -1.2098  0.5533 -0.3917
 8799SOL    HW227998   6.637   5.133   7.002 -1.1003  0.4312 -0.3639
 8800SOL     OW27999   6.817   4.311   3.316  0.3131  0.6881  0.2804
 8800SOL    HW128000   6.866   4.373   3.378 -0.9250  0.8819  1.1055
 8800SOL    HW228001   6.808   4.221   3.359 -1.3168  1.0649  0.8174
 8801SOL     OW28002   3.100   7.010   3.357 -0.2861 -0.5007  0.6741
 8801SOL    HW128003   3.029   7.038   3.293  1.1587  0.0666 -0.7814
 8801SOL    HW228004   3.132   7.090   3.408  2.9212  0.5851 -2.5415
 8802SOL     OW28005   5.926   3.525   6.086  0.1474  0.1728  0.0605
 8802SOL    HW128006   5.887   3.492   6.172  0.3228  0.5761  0.3030
 8802SOL    HW228007   5.963   3.448   6.034 -1.6298 -0.3206 -0.5358
 8803SOL     OW28008   5.602   2.387   3.917 -0.4298 -0.8649 -0.1293
 8803SOL    HW128009   5.530   2.396   3.986 -0.6231 -2.6196 -0.0573
 8803SOL    HW228010   5.618   2.290   3.898  2.4144 -0.5616  0.3574
 8804SOL     OW28011   1.241   3.481   4.512 -0.3360 -0.1427  0.2460
 8804SOL    HW128012   1.270   3.576   4.521  0.5346 -0.5590  2.0979
 8804SOL    HW228013   1.154   3.468   4.560  0.4104 -0.6490  1.4857
 8805SOL     OW28014   2.804   1.053   6.744  0.2310  0.3999 -0.6378
 8805SOL    HW128015   2.889   0.999   6.746 -0.2492 -0.4401 -1.7699
 8805SOL    HW228016   2.754   1.039   6.830  0.8645  0.2939 -0.2758
 8806SOL     OW28017   0.704   1.601   2.562  0.1489  0.3967 -0.6257
 8806SOL    HW128018   0.768   1.663   2.608 -0.7601 -0.4392  1.8955
 8806SOL    HW228019   0.754   1.546   2.495  2.3824 -1.0110  2.0136
 8807SOL     OW28020   2.386   0.457   5.397 -0.2358  0.0168 -0.4414
 8807SOL    HW128021   2.323   0.464   5.474  0.8401 -0.7877  0.5667
 8807SOL    HW228022   2.419   0.363   5.391  1.7983  0.6675 -0.1358
 8808SOL     OW28023   0.885   2.794   4.288  0.4226  0.4156  0.2599
 8808SOL    HW128024   0.978   2.757   4.291  0.5201  0.6922  0.8943
 8808SOL    HW228025   0.840   2.764   4.204  1.2424  0.6550 -0.2806
 8809SOL     OW28026   0.398   3.894   2.999 -0.3638 -0.8558 -0.2042
 8809SOL    HW128027   0.359   3.967   3.054  1.6089  0.1448 -0.0600
 8809SOL    HW228028   0.428   3.930   2.911  1.7385 -1.1714  0.3270
 8810SOL     OW28029   6.104   3.580   2.440 -0.4231  0.1325  0.4122
 8810SOL    HW128030   6.187   3.597   2.492 -0.6320  1.2903  0.4092
 8810SOL    HW228031   6.086   3.658   2.379 -0.9839 -0.5322 -0.3072
 8811SOL     OW28032   4.493   2.820   0.161  0.0818 -0.5018  0.6365
 8811SOL    HW128033   4.416   2.829   0.097  0.2803 -0.3480  0.4207
 8811SOL    HW228034   4.578   2.848   0.116  0.4545 -1.7982  0.4954
 8812SOL     OW28035   4.255   4.136   5.942  0.1941  0.2402  0.3932
 8812SOL    HW128036   4.303   4.219   5.912 -0.3873 -0.2614 -2.2241
 8812SOL    HW228037   4.294   4.057   5.896 -0.6943 -0.6576  1.1487
 8813SOL     OW28038   5.439   3.267   2.506  0.0723 -0.1396  0.2097
 8813SOL    HW128039   5.523   3.317   2.483  0.2958  0.3428  1.9557
 8813SOL    HW228040   5.462   3.181   2.551 -0.3680 -0.4528 -0.1549
 8814SOL     OW28041   2.769   4.113   2.292  0.6551  0.2070 -0.1452
 8814SOL    HW128042   2.682   4.076   2.260  0.8143 -0.1373 -0.1883
 8814SOL    HW228043   2.843   4.053   2.262  0.7614 -0.5552  1.5176
 8815SOL     OW28044   5.087   3.617   0.597 -0.2689 -0.0723  0.3477
 8815SOL    HW128045   4.997   3.659   0.604 -0.2964  0.0352 -0.5384
 8815SOL    HW228046   5.077   3.521   0.573 -0.1653  0.8338 -4.1969
 8816SOL     OW28047   5.434   5.444   5.568 -0.2069  0.6115  0.2073
 8816SOL    HW128048   5.340   5.447   5.533 -1.0781  0.0824  2.3470
 8816SOL    HW228049   5.433   5.409   5.661  2.2654 -0.5223 -0.1280
 8817SOL     OW28050   6.948   1.603   3.802  0.1242  0.3162 -0.2321
 8817SOL    HW128051   6.850   1.588   3.814  0.3438  0.4461  2.4092
 8817SOL    HW228052   6.968   1.701   3.812  0.5811  0.2431 -0.3972
 8818SOL     OW28053   6.957   2.865   1.355  0.0911  0.1388  0.6400
 8818SOL    HW128054   6.861   2.868   1.382 -0.5518  0.8005 -1.5229
 8818SOL    HW228055   6.967   2.813   1.271  1.6067  0.2408  0.7259
 8819SOL     OW28056   4.142   0.888   5.386 -0.4066 -0.2350  0.4860
 8819SOL    HW128057   4.193   0.875   5.472 -0.3748  0.0678  0.5121
 8819SOL    HW228058   4.130   0.985   5.369  0.1592 -0.2756 -0.1876
 8820SOL     OW28059   2.785   1.395   6.352 -0.3977  0.3656  0.0741
 8820SOL    HW128060   2.866   1.337   6.356  0.0364  0.9542 -0.1422
 8820SOL    HW228061   2.776   1.435   6.261 -1.4167 -0.3751 -0.1655
 8821SOL     OW28062   0.479   0.484   0.508  0.1757 -0.0510  0.1182
 8821SOL    HW128063   0.526   0.441   0.431  0.1587 -0.9701  0.6058
 8821SOL    HW228064   0.443   0.573   0.479  2.4365  0.8522 -0.2074
 8822SOL     OW28065   2.219   4.976   4.926  0.6161  0.3654  0.2865
 8822SOL    HW128066   2.295   5.000   4.986 -0.6094 -0.4741  2.2611
 8822SOL    HW228067   2.150   4.925   4.977 -0.2519 -0.9020 -1.9811
 8823SOL     OW28068   2.383   0.407   2.471 -0.3143 -0.2111 -0.5874
 8823SOL    HW128069   2.445   0.423   2.394  0.8913 -0.7561  0.2385
 8823SOL    HW228070   2.302   0.358   2.439 -0.0547 -0.0071 -1.5855
 8824SOL     OW28071   0.636   4.375   1.258  0.5147  0.0489 -0.5409
 8824SOL    HW128072   0.604   4.425   1.179 -1.1183  0.6940  0.4927
 8824SOL    HW228073   0.632   4.433   1.339  0.0278 -1.2520  0.4158
 8825SOL     OW28074   4.121   2.886   6.238 -0.1681 -0.0798  0.0122
 8825SOL    HW128075   4.175   2.964   6.272 -0.5476  0.6974 -1.1146
 8825SOL    HW228076   4.116   2.816   6.309 -2.6906  2.3137  2.4531
 8826SOL     OW28077   1.785   1.172   5.874 -0.1030 -0.8950 -0.3895
 8826SOL    HW128078   1.717   1.099   5.874  0.1589 -1.2025  1.9465
 8826SOL    HW228079   1.850   1.158   5.949 -0.1634  1.8338  0.2883
 8827SOL     OW28080   2.523   0.392   3.612  0.9730  0.2963 -0.2745
 8827SOL    HW128081   2.565   0.309   3.575 -0.0962  1.0306 -3.4990
 8827SOL    HW228082   2.424   0.387   3.603  0.7349  1.0415  1.5845
 8828SOL     OW28083   3.241   3.879   5.474 -0.1962 -0.4660 -0.0795
 8828SOL    HW128084   3.164   3.862   5.412  0.6504  0.4123 -1.4308
 8828SOL    HW228085   3.309   3.807   5.464 -0.5439 -0.9058  0.6525
 8829SOL     OW28086   0.603   6.819   1.881 -0.2379 -0.0696  0.2679
 8829SOL    HW128087   0.681   6.786   1.935 -0.3099 -0.4158  0.1626
 8829SOL    HW228088   0.519   6.802   1.932 -0.2263  0.5251  0.4873
 8830SOL     OW28089   5.622   7.010   3.307  0.7207  0.1996 -0.2380
 8830SOL    HW128090   5.614   7.090   3.247  2.1340  1.8877  1.6739
 8830SOL    HW228091   5.714   7.005   3.344  0.0727 -1.1076  1.3204
 8831SOL     OW28092   6.192   5.261   2.930 -0.5914  0.1349 -0.3582
 8831SOL    HW128093   6.246   5.282   2.849 -0.7943 -0.6130 -0.6927
 8831SOL    HW228094   6.098   5.292   2.916 -0.4983  0.5052 -0.1831
 8832SOL     OW28095   2.299   4.923   0.563  0.5232 -0.1629  0.5904
 8832SOL    HW128096   2.272   4.837   0.519 -0.0621  0.7647 -0.9718
 8832SOL    HW228097   2.362   4.973   0.503 -0.6300  1.3496  0.5684
 8833SOL     OW28098   5.792   1.298   3.264 -0.5645 -0.0243  0.2211
 8833SOL    HW128099   5.732   1.311   3.343 -2.3928  0.1043 -1.1295
 8833SOL    HW228100   5.877   1.349   3.278 -0.2158 -1.1419  2.6995
 8834SOL     OW28101   2.223   5.484   0.431  0.1656 -0.1771 -0.0738
 8834SOL    HW128102   2.218   5.571   0.479  1.6505 -0.7646  1.2655
 8834SOL    HW228103   2.176   5.490   0.344 -0.8959  1.5505  0.5875
 8835SOL     OW28104   6.125   5.765   2.366  0.4167  0.5704  0.2998
 8835SOL    HW128105   6.156   5.850   2.410 -0.7735  0.2801  1.7647
 8835SOL    HW228106   6.189   5.691   2.387  2.0496  1.2427 -1.8468
 8836SOL     OW28107   5.479   0.416   1.404  0.4943  0.4895 -0.2733
 8836SOL    HW128108   5.444   0.379   1.317 -1.3452 -0.4402  0.7908
 8836SOL    HW228109   5.548   0.354   1.441 -0.6033 -0.5374  0.1552
 8837SOL     OW28110   2.191   6.545   0.483 -0.2436  0.4005  0.6029
 8837SOL    HW128111   2.207   6.475   0.553  0.5197  0.7036  0.7448
 8837SOL    HW228112   2.094   6.564   0.476 -0.5718 -1.2925 -0.0327
 8838SOL     OW28113   2.571   0.650   0.134 -0.2030  0.1944 -0.5412
 8838SOL    HW128114   2.631   0.587   0.184 -1.0897  0.6222  1.1098
 8838SOL    HW228115   2.536   0.604   0.052 -0.1299 -1.1501  0.1526
 8839SOL     OW28116   1.771   4.004   1.922 -0.2867  0.4310  0.4852
 8839SOL    HW128117   1.691   4.042   1.875 -0.5946 -1.9165 -1.0536
 8839SOL    HW228118   1.852   4.016   1.866 -0.8760 -3.6035 -1.6216
 8840SOL     OW28119   6.565   4.300   0.300 -0.2900 -0.1368 -0.1082
 8840SOL    HW128120   6.556   4.216   0.248 -0.7066 -1.0097  1.3085
 8840SOL    HW228121   6.641   4.292   0.365 -1.0430  0.1222  0.8322
 8841SOL     OW28122   3.453   5.431   2.130  0.2654  0.0185 -0.1287
 8841SOL    HW128123   3.538   5.437   2.183  0.7271  0.3245 -0.8892
 8841SOL    HW228124   3.397   5.356   2.166  0.6561  0.0895  0.6540
 8842SOL     OW28125   6.958   4.231   5.929  0.2219  0.0173 -0.2978
 8842SOL    HW128126   6.999   4.319   5.902  0.9340 -0.3790 -0.5487
 8842SOL    HW228127   6.889   4.204   5.862 -1.2800  1.2136  0.6890
 8843SOL     OW28128   0.459   1.474   0.665 -0.1250 -0.1810 -0.8836
 8843SOL    HW128129   0.381   1.536   0.674 -0.3383 -0.1572 -2.4793
 8843SOL    HW228130   0.520   1.485   0.743  0.0820  2.3996 -1.3076
 8844SOL     OW28131   5.201   2.062   3.938  0.0701 -0.1850  0.3201
 8844SOL    HW128132   5.149   2.103   4.013 -2.5202  0.1253 -1.5341
 8844SOL    HW228133   5.152   1.983   3.902  0.7094  0.2630 -1.6880
 8845SOL     OW28134   5.013   5.262   2.244  0.1639  0.5892 -0.1938
 8845SOL    HW128135   4.942   5.296   2.306 -0.5949 -0.5346 -0.4226
 8845SOL    HW228136   5.075   5.202   2.295 -1.1731 -1.3222 -0.7428
 8846SOL     OW28137   3.464   4.126   1.986 -0.7337  0.2126 -0.4132
 8846SOL    HW128138   3.392   4.180   1.941 -2.1546 -1.4721 -0.2697
 8846SOL    HW228139   3.518   4.186   2.045 -2.5654  1.4223  0.1263
 8847SOL     OW28140   2.173   5.997   4.012 -0.1776  0.2172  0.0170
 8847SOL    HW128141   2.203   6.087   4.044 -0.0604 -0.5825  2.4043
 8847SOL    HW228142   2.180   5.931   4.087  0.9509 -2.1149 -1.9800
 8848SOL     OW28143   1.415   4.413   4.529  0.1448  0.2295  0.3949
 8848SOL    HW128144   1.421   4.366   4.440 -0.5632  0.9446 -0.0413
 8848SOL    HW228145   1.454   4.354   4.600  1.0333 -0.2252 -0.4329
 8849SOL     OW28146   4.205   0.266   0.525 -0.7181  0.4334  0.2218
 8849SOL    HW128147   4.243   0.337   0.467  1.6305 -1.1621 -0.3227
 8849SOL    HW228148   4.279   0.219   0.574 -2.2351 -1.1285  1.1357
 8850SOL     OW28149   1.659   4.564   1.284  0.0362 -0.3602 -0.1711
 8850SOL    HW128150   1.651   4.663   1.279 -0.3605 -0.3715  0.1914
 8850SOL    HW228151   1.739   4.540   1.340  0.7005 -0.2506 -1.0508
 8851SOL     OW28152   4.483   1.705   6.300 -0.6386 -0.6579  0.1113
 8851SOL    HW128153   4.448   1.754   6.220  0.7113  3.0971  1.6222
 8851SOL    HW228154   4.583   1.699   6.294 -0.3234  1.3399  2.2617
 8852SOL     OW28155   1.543   3.838   3.689  0.0452  0.3387  0.8526
 8852SOL    HW128156   1.610   3.908   3.714  1.9482 -1.2045  0.3465
 8852SOL    HW228157   1.518   3.784   3.769  1.6532 -0.8878  0.5728
 8853SOL     OW28158   6.085   3.997   6.918  0.4538  0.2860 -0.1688
 8853SOL    HW128159   6.082   3.910   6.967  1.8215  0.5141  0.3838
 8853SOL    HW228160   6.177   4.012   6.882  0.2299  1.4711 -0.3055
 8854SOL     OW28161   1.447   1.190   1.564  0.0949 -0.3765  0.2269
 8854SOL    HW128162   1.515   1.256   1.533  0.5865 -0.1889  1.6278
 8854SOL    HW228163   1.447   1.187   1.664 -2.5345  0.2236  0.3027
 8855SOL     OW28164   3.995   0.368   2.166  0.4543 -0.0585  0.1617
 8855SOL    HW128165   3.970   0.272   2.178  2.4435 -0.6442  0.0501
 8855SOL    HW228166   3.921   0.427   2.200 -1.3221 -1.5863 -0.8599
 8856SOL     OW28167   4.110   2.859   3.534  0.1044  0.5312  1.0113
 8856SOL    HW128168   4.145   2.775   3.493 -0.0303  1.9149 -2.2646
 8856SOL    HW228169   4.186   2.913   3.570  0.5150  0.2437  0.5883
 8857SOL     OW28170   1.441   6.170   1.394  0.6006  0.3254  0.6602
 8857SOL    HW128171   1.362   6.194   1.451 -0.9783 -0.5507 -1.0659
 8857SOL    HW228172   1.410   6.143   1.303  2.6043 -3.1871  0.8548
 8858SOL     OW28173   2.619   1.390   1.060  0.0912  0.1998 -0.3144
 8858SOL    HW128174   2.553   1.345   1.119  0.9489  1.2413  1.5323
 8858SOL    HW228175   2.702   1.411   1.112  1.5435 -0.2496 -2.3081
 8859SOL     OW28176   6.695   3.814   6.600 -0.1795  0.5014 -0.4548
 8859SOL    HW128177   6.761   3.793   6.672 -0.4930  2.1586  0.3751
 8859SOL    HW228178   6.631   3.737   6.591  0.9630 -0.5042 -0.2574
 8860SOL     OW28179   5.180   5.092   4.703 -0.2790  0.5810 -0.0187
 8860SOL    HW128180   5.237   5.142   4.767  0.3680  0.4915 -0.5061
 8860SOL    HW228181   5.149   5.154   4.630  0.0507  0.4013 -0.3132
 8861SOL     OW28182   0.002   5.174   1.615 -0.2935  0.0828 -0.0228
 8861SOL    HW128183   0.095   5.171   1.651 -0.0562 -1.7051 -0.6558
 8861SOL    HW228184   0.003   5.207   1.521 -0.2048 -0.4991 -0.2320
 8862SOL     OW28185   1.842   1.997   6.119  0.2343  0.0847 -0.3021
 8862SOL    HW128186   1.815   1.902   6.104 -0.4543  0.1308  0.5578
 8862SOL    HW228187   1.918   1.999   6.185 -0.6059  0.1859  0.6839
 8863SOL     OW28188   6.292   4.759   2.620 -0.2104 -0.6314 -0.5827
 8863SOL    HW128189   6.207   4.786   2.664  0.5064 -0.7427  0.9263
 8863SOL    HW228190   6.345   4.841   2.596  0.1055 -0.6009  0.2119
 8864SOL     OW28191   6.137   1.789   0.351  0.3259 -0.2273 -0.2535
 8864SOL    HW128192   6.168   1.694   0.346 -0.0996 -0.3581 -0.4466
 8864SOL    HW228193   6.211   1.850   0.322  0.3755 -0.5406 -0.7973
 8865SOL     OW28194   0.694   1.680   3.041  0.3575  0.0212  0.2645
 8865SOL    HW128195   0.772   1.719   2.993  0.6181  0.7343  1.2234
 8865SOL    HW228196   0.609   1.720   3.008  0.6129  1.3615  1.1504
 8866SOL     OW28197   6.692   0.649   4.516 -0.4102 -0.0365 -0.6766
 8866SOL    HW128198   6.634   0.603   4.583 -0.1923 -0.6968 -0.9342
 8866SOL    HW228199   6.715   0.586   4.442 -0.3138  0.5624 -1.1708
 8867SOL     OW28200   3.918   5.861   5.198 -0.2689  0.3027 -0.2278
 8867SOL    HW128201   3.881   5.858   5.291  2.1196 -2.1038  0.7774
 8867SOL    HW228202   3.976   5.942   5.188  1.1785 -0.5164  1.1685
 8868SOL     OW28203   1.547   1.983   0.210  0.2493  0.3035 -0.0331
 8868SOL    HW128204   1.467   1.980   0.270  1.5496  3.6385  2.1783
 8868SOL    HW228205   1.552   2.072   0.165  1.8080 -0.4955 -1.5873
 8869SOL     OW28206   1.734   0.081   1.407 -0.1800  0.6851  0.0707
 8869SOL    HW128207   1.658   0.146   1.395  0.3812  1.4503  0.5543
 8869SOL    HW228208   1.697  -0.006   1.440 -0.9957  0.5885 -1.0258
 8870SOL     OW28209   3.656   2.136   2.189  0.3613 -0.2737  0.7321
 8870SOL    HW128210   3.742   2.176   2.157  0.2053  0.8277  1.6298
 8870SOL    HW228211   3.673   2.043   2.220  1.1573 -0.2040  0.5462
 8871SOL     OW28212   6.774   4.121   2.208  0.5916 -0.1191 -0.6602
 8871SOL    HW128213   6.791   4.138   2.305  0.2870 -1.2735 -0.3959
 8871SOL    HW228214   6.833   4.180   2.153 -0.1217  1.4710  0.2078
 8872SOL     OW28215   5.709   1.265   0.594 -0.1243  0.1025  0.2535
 8872SOL    HW128216   5.659   1.178   0.583 -0.8453  0.2462  1.9974
 8872SOL    HW228217   5.806   1.251   0.573 -0.5153 -0.6929 -1.1519
 8873SOL     OW28218   6.730   4.540   4.796  0.6477 -0.0211  0.1608
 8873SOL    HW128219   6.762   4.631   4.822  1.1227 -0.0507 -0.3051
 8873SOL    HW228220   6.647   4.518   4.847 -0.4811  1.3787 -0.9914
 8874SOL     OW28221   2.693   5.900   0.887 -0.4141 -0.0482  0.3990
 8874SOL    HW128222   2.667   5.887   0.791 -0.8360 -1.6240  0.7128
 8874SOL    HW228223   2.793   5.900   0.894 -0.3174  1.7130 -0.2200
 8875SOL     OW28224   4.991   5.428   6.933  0.3392  0.2300 -0.2444
 8875SOL    HW128225   4.989   5.459   7.028  0.4995  1.3940 -0.6081
 8875SOL    HW228226   5.031   5.499   6.876  1.0156 -0.7977 -1.0698
 8876SOL     OW28227   3.573   3.380   2.893 -0.1612 -0.3437 -0.5592
 8876SOL    HW128228   3.591   3.427   2.807 -0.3322 -0.5344 -0.6997
 8876SOL    HW228229   3.476   3.390   2.917 -0.0433  0.0051 -0.2113
 8877SOL     OW28230   0.691   4.960   4.505 -0.0346 -0.0419  0.2427
 8877SOL    HW128231   0.629   4.943   4.428 -0.7094  0.0888  0.7420
 8877SOL    HW228232   0.725   4.873   4.539  0.1991 -0.1065 -0.1462
 8878SOL     OW28233   0.118   5.531   5.090  0.3306  0.5033  0.1339
 8878SOL    HW128234   0.054   5.475   5.143 -0.5367  0.9509 -0.4137
 8878SOL    HW228235   0.206   5.536   5.137  0.0626 -0.3836  0.7457
 8879SOL     OW28236   0.790   1.718   3.780  0.5396 -0.0521  0.3023
 8879SOL    HW128237   0.830   1.634   3.818  1.5940  0.2110 -0.1915
 8879SOL    HW228238   0.713   1.695   3.721  0.2601 -0.6119  0.8837
 8880SOL     OW28239   5.462   4.178   4.222  0.1900  0.0497  0.4311
 8880SOL    HW128240   5.397   4.159   4.148  1.0460 -1.9713  0.1333
 8880SOL    HW228241   5.549   4.134   4.202  0.5534 -0.2742  2.4727
 8881SOL     OW28242   2.850   5.100   3.942 -0.0626 -0.1644  0.0112
 8881SOL    HW128243   2.880   5.109   3.847 -1.5192 -2.4334 -0.7439
 8881SOL    HW228244   2.870   5.007   3.975 -1.0401  0.0661  1.3662
 8882SOL     OW28245   4.334   1.023   3.749 -0.1041 -0.8660 -0.4026
 8882SOL    HW128246   4.400   0.953   3.722  0.2862 -0.9725  0.7689
 8882SOL    HW228247   4.257   0.979   3.796 -0.4435 -0.6175 -0.7165
 8883SOL     OW28248   0.206   4.691   2.354 -0.0370  0.2134 -0.4386
 8883SOL    HW128249   0.160   4.609   2.388  0.8955  0.7081  2.2880
 8883SOL    HW228250   0.305   4.679   2.363  0.1517  1.1833 -1.1340
 8884SOL     OW28251   2.066   1.184   2.123  0.4353  0.3461  0.1849
 8884SOL    HW128252   1.995   1.171   2.054 -0.2718  1.9385  0.5518
 8884SOL    HW228253   2.135   1.247   2.088 -0.4065  1.9162  1.1773
 8885SOL     OW28254   0.124   5.287   0.414  0.7040  0.7656 -0.2631
 8885SOL    HW128255   0.150   5.209   0.471 -0.5417  0.6149  0.1256
 8885SOL    HW228256   0.192   5.300   0.342  0.8630 -0.7653 -0.4164
 8886SOL     OW28257   0.498   2.083   6.533 -0.1209  0.1236  0.4925
 8886SOL    HW128258   0.533   1.991   6.552 -2.5201 -0.5414  2.0431
 8886SOL    HW228259   0.444   2.081   6.449  1.2834  0.5826 -0.4686
 8887SOL     OW28260   3.379   4.933   1.617 -0.1402 -0.2020 -0.0443
 8887SOL    HW128261   3.434   4.862   1.661 -0.4687 -0.7212 -0.4596
 8887SOL    HW228262   3.294   4.946   1.668 -1.0386 -1.6023 -1.1224
 8888SOL     OW28263   6.621   5.473   3.382  0.0459 -0.0023  0.1097
 8888SOL    HW128264   6.619   5.451   3.479  0.6739 -0.8699 -0.0596
 8888SOL    HW228265   6.676   5.555   3.368  0.3258 -0.1310  0.4425
 8889SOL     OW28266   6.487   2.295   2.604 -0.0639  0.6581 -0.0071
 8889SOL    HW128267   6.432   2.212   2.606  0.8990 -0.0140 -0.6912
 8889SOL    HW228268   6.558   2.290   2.675  0.1624  0.7747 -0.2226
 8890SOL     OW28269   4.385   2.845   1.371  0.1878  0.0378  0.0220
 8890SOL    HW128270   4.377   2.752   1.407  0.5579  0.1977  0.5276
 8890SOL    HW228271   4.315   2.903   1.411  0.6035  0.2172  0.5005
 8891SOL     OW28272   4.494   5.948   3.842  0.4739  0.6279  0.2933
 8891SOL    HW128273   4.502   5.851   3.823 -0.3728  0.2407  1.7530
 8891SOL    HW228274   4.480   5.962   3.940 -1.4886  2.0824 -0.1243
 8892SOL     OW28275   5.116   2.917   6.434  0.2854  0.2536  0.2585
 8892SOL    HW128276   5.203   2.936   6.389  0.0528 -0.9756 -0.7770
 8892SOL    HW228277   5.041   2.960   6.383  0.0934 -0.5273 -0.1435
 8893SOL     OW28278   1.842   3.429   0.702 -0.5374  0.3139 -0.8183
 8893SOL    HW128279   1.887   3.458   0.618  0.6035 -1.6707 -0.9372
 8893SOL    HW228280   1.836   3.330   0.705 -0.4448  0.3085  1.4892
 8894SOL     OW28281   1.617   0.143   3.683  0.1119  0.5825 -0.2495
 8894SOL    HW128282   1.517   0.135   3.680 -0.0988  0.9857  2.5733
 8894SOL    HW228283   1.653   0.150   3.590 -2.5091  0.8306 -1.3341
 8895SOL     OW28284   1.537   1.408   5.143  0.0779  0.0297  0.3255
 8895SOL    HW128285   1.482   1.326   5.124 -0.1697 -0.0666  1.3748
 8895SOL    HW228286   1.617   1.410   5.083  0.2783 -1.1739  0.5320
 8896SOL     OW28287   0.928   6.797   6.879  0.4701  0.3231  0.1652
 8896SOL    HW128288   0.919   6.809   6.780  1.0173 -0.8513 -0.0443
 8896SOL    HW228289   0.942   6.700   6.900 -0.6986  0.4146  1.4849
 8897SOL     OW28290   2.012   1.088   0.071 -0.7999  0.2986 -0.3743
 8897SOL    HW128291   1.933   1.129   0.025  0.4627  2.8067 -0.4921
 8897SOL    HW228292   2.090   1.089   0.009  0.1239  0.8042  0.7711
 8898SOL     OW28293   2.249   0.214   2.906  0.1624 -0.1820 -0.4364
 8898SOL    HW128294   2.164   0.240   2.861 -0.7941 -0.1729  1.2775
 8898SOL    HW228295   2.264   0.116   2.895 -3.3185 -1.6048  4.0029
 8899SOL     OW28296   1.749   6.918   0.569  0.2763 -0.4362 -0.5980
 8899SOL    HW128297   1.825   6.927   0.505  2.1414 -0.0925  1.5787
 8899SOL    HW228298   1.704   7.006   0.579  0.2311 -0.3974 -1.0956
 8900SOL     OW28299   2.794   2.626   5.197  0.0977 -0.6240 -0.2515
 8900SOL    HW128300   2.726   2.687   5.156  1.4925  0.5945 -0.8468
 8900SOL    HW228301   2.782   2.533   5.161 -0.8050 -0.2689 -0.8773
 8901SOL     OW28302   4.690   4.045   5.645 -0.0133  0.2570 -0.1645
 8901SOL    HW128303   4.685   3.994   5.730 -0.0393  2.2790  1.0990
 8901SOL    HW228304   4.772   4.017   5.594  1.8268  1.2339  2.0756
 8902SOL     OW28305   6.302   1.476   5.226 -0.3019  0.1032  0.3605
 8902SOL    HW128306   6.313   1.378   5.210 -0.1761  0.2419 -0.4131
 8902SOL    HW228307   6.204   1.499   5.223 -0.4005 -0.1328  1.3867
 8903SOL     OW28308   2.411   0.190   4.503  0.0388  0.4362 -0.7034
 8903SOL    HW128309   2.317   0.207   4.473  0.0563 -1.3357 -1.9277
 8903SOL    HW228310   2.432   0.093   4.491  1.8311  0.6832  0.1529
 8904SOL     OW28311   3.099   4.934   3.829 -0.0334 -0.6989 -0.1332
 8904SOL    HW128312   3.064   4.926   3.735 -0.7659 -0.0786  0.0712
 8904SOL    HW228313   3.032   4.894   3.892 -0.8527  1.3241  0.3438
 8905SOL     OW28314   3.376   4.236   2.367  0.1937 -0.4791  0.0255
 8905SOL    HW128315   3.293   4.240   2.422  2.1343 -0.0347  3.2046
 8905SOL    HW228316   3.436   4.312   2.391  1.1624 -0.1848 -2.9169
 8906SOL     OW28317   6.666   5.443   3.100  0.3386 -0.1025  0.2069
 8906SOL    HW128318   6.592   5.393   3.146 -1.1437  0.0959 -1.8210
 8906SOL    HW228319   6.687   5.526   3.151 -1.0159 -0.0466  0.7292
 8907SOL     OW28320   5.359   4.029   6.654 -0.2583 -0.1844 -0.3213
 8907SOL    HW128321   5.410   3.970   6.716  2.9391  1.8110 -0.8354
 8907SOL    HW228322   5.288   4.078   6.704  0.0988 -1.0204  1.0334
 8908SOL     OW28323   6.781   2.897   0.774  0.1536 -0.4272  0.0332
 8908SOL    HW128324   6.746   2.823   0.716  0.4729  1.1286 -2.2743
 8908SOL    HW228325   6.880   2.898   0.772  0.2538 -1.2708  1.9231
 8909SOL     OW28326   6.352   3.071   5.090  0.1188  0.2664 -0.3505
 8909SOL    HW128327   6.425   3.006   5.114 -0.4340  0.3506  1.6892
 8909SOL    HW228328   6.271   3.051   5.144 -1.3242  0.3737 -2.3772
 8910SOL     OW28329   1.823   2.501   2.695 -0.9643  0.7303 -0.2871
 8910SOL    HW128330   1.734   2.459   2.678 -0.2819 -0.9187  0.0751
 8910SOL    HW228331   1.892   2.430   2.708  0.0887  1.9409  1.1791
 8911SOL     OW28332   0.618   2.467   4.806  0.0324  0.0850 -0.3537
 8911SOL    HW128333   0.536   2.524   4.813  0.8439  1.1238  1.1370
 8911SOL    HW228334   0.629   2.413   4.890 -0.4211 -1.9344 -1.5138
 8912SOL     OW28335   3.964   0.960   2.041 -0.5754  0.2775 -0.1707
 8912SOL    HW128336   3.940   0.885   2.103  1.1826  1.7336  2.4570
 8912SOL    HW228337   3.921   1.044   2.072  0.6783  1.1296 -0.6497
 8913SOL     OW28338   1.318   5.349   1.267  0.7939  0.3493  0.0367
 8913SOL    HW128339   1.218   5.346   1.275  0.8851 -0.1874  1.1468
 8913SOL    HW228340   1.358   5.281   1.327  1.8769  1.4332  0.5820
 8914SOL     OW28341   6.917   1.255   3.720 -0.2096 -0.6057  0.1480
 8914SOL    HW128342   6.958   1.225   3.634  0.3175  1.7511 -0.4889
 8914SOL    HW228343   6.975   1.225   3.796  3.2717  3.0184 -0.7340
 8915SOL     OW28344   1.218   1.544   4.799  0.6649  0.1652 -0.8330
 8915SOL    HW128345   1.161   1.491   4.736 -2.2234  1.8324  0.1833
 8915SOL    HW228346   1.260   1.621   4.751  2.0942 -1.0236 -1.5703
 8916SOL     OW28347   4.025   4.938   5.261  0.0510  0.5274  0.0158
 8916SOL    HW128348   3.993   4.952   5.167  0.1538 -0.2835 -0.1462
 8916SOL    HW228349   3.950   4.961   5.324  0.2006  1.7454 -0.2170
 8917SOL     OW28350   6.102   3.155   4.735 -0.2113  0.0711 -0.2658
 8917SOL    HW128351   6.079   3.111   4.648  0.4683 -3.1613  1.0336
 8917SOL    HW228352   6.025   3.144   4.799 -0.7231  2.4483 -0.3974
 8918SOL     OW28353   4.309   0.887   0.220  0.0820 -0.1984  0.3404
 8918SOL    HW128354   4.260   0.875   0.133 -0.6904  2.6981  0.2532
 8918SOL    HW228355   4.407   0.899   0.202 -0.3409  2.6922 -0.4815
 8919SOL     OW28356   6.178   5.431   4.688  0.2268  0.3616  0.6623
 8919SOL    HW128357   6.172   5.333   4.705  2.0963 -0.1677 -1.2795
 8919SOL    HW228358   6.122   5.455   4.609  1.3295  0.4517 -0.1148
 8920SOL     OW28359   3.858   6.365   2.370 -0.3832  0.0807 -0.2390
 8920SOL    HW128360   3.854   6.395   2.465  0.6414 -0.1679 -0.0990
 8920SOL    HW228361   3.831   6.440   2.310 -0.5627  0.3918  0.2238
 8921SOL     OW28362   6.787   4.910   6.591 -0.1221  0.2392 -0.3177
 8921SOL    HW128363   6.763   5.004   6.614  0.1148  0.0985  0.5367
 8921SOL    HW228364   6.753   4.889   6.499 -1.5439  0.6593  0.0865
 8922SOL     OW28365   6.603   5.100   1.290  0.7959 -0.3795 -0.1540
 8922SOL    HW128366   6.615   5.163   1.367  1.9835 -0.8271  0.0436
 8922SOL    HW228367   6.637   5.143   1.206 -2.1365  0.8284 -0.8303
 8923SOL     OW28368   2.687   1.625   1.331 -0.3515 -0.0917  0.2046
 8923SOL    HW128369   2.755   1.653   1.399  2.7782 -0.7946 -2.3954
 8923SOL    HW228370   2.718   1.541   1.286 -3.4779 -0.9712 -0.4896
 8924SOL     OW28371   0.033   5.840   6.354  0.4909  0.5443 -0.5566
 8924SOL    HW128372   0.017   5.812   6.449  1.5159  1.0071 -0.2339
 8924SOL    HW228373   0.020   5.938   6.345  0.9855  0.5930 -0.7660
 8925SOL     OW28374   5.794   5.514   2.127  0.2631  0.0084 -0.3863
 8925SOL    HW128375   5.784   5.612   2.110 -1.4788 -0.0082  0.3289
 8925SOL    HW228376   5.707   5.468   2.108  0.4584 -1.0921  1.1639
 8926SOL     OW28377   5.566   6.032   0.442 -0.6939  0.0301  0.2537
 8926SOL    HW128378   5.589   6.093   0.518 -0.4876  0.6749 -0.3199
 8926SOL    HW228379   5.492   5.970   0.470  1.3958 -1.8635  2.0453
 8927SOL     OW28380   5.694   0.342   5.405  0.6583 -0.3640 -0.0726
 8927SOL    HW128381   5.776   0.347   5.462  0.0086  1.6095  0.8003
 8927SOL    HW228382   5.720   0.348   5.309  1.7299 -3.1748 -0.0385
 8928SOL     OW28383   2.530   5.639   5.139 -0.1772 -0.0376 -0.6829
 8928SOL    HW128384   2.459   5.571   5.118 -0.2336  0.3629 -1.9050
 8928SOL    HW228385   2.542   5.699   5.060  0.6183  0.7148 -0.0074
 8929SOL     OW28386   2.949   2.145   2.110 -0.4847  0.1537  0.2934
 8929SOL    HW128387   2.897   2.224   2.077 -0.3145  0.2876  0.3447
 8929SOL    HW228388   2.997   2.103   2.033  0.5589  0.9468  0.4865
 8930SOL     OW28389   0.015   4.817   2.190  0.1867 -0.2128  0.0093
 8930SOL    HW128390   0.000   4.914   2.208 -2.2764 -0.6384  0.6079
 8930SOL    HW228391   0.083   4.781   2.254 -1.8004  0.2986  2.5602
 8931SOL     OW28392   0.401   1.859   0.927  0.6070  0.3103  0.2072
 8931SOL    HW128393   0.381   1.932   0.863 -0.1058  1.2416  1.4465
 8931SOL    HW228394   0.499   1.860   0.949  0.6521  0.7058 -0.0023
 8932SOL     OW28395   5.044   0.207   6.561 -0.1370  0.0515  0.0399
 8932SOL    HW128396   4.956   0.250   6.538  0.3365  0.5869 -0.8683
 8932SOL    HW228397   5.062   0.218   6.658 -0.5265  1.0280  0.0215
 8933SOL     OW28398   5.918   0.825   1.027  0.3962 -0.7637 -0.5507
 8933SOL    HW128399   5.892   0.828   1.124 -0.7866 -3.3122 -0.7016
 8933SOL    HW228400   5.915   0.917   0.989 -3.5206 -0.1458  0.7938
 8934SOL     OW28401   2.518   4.060   2.186  0.2144 -0.0097  0.0002
 8934SOL    HW128402   2.470   3.978   2.156 -1.4346  0.3456  1.5097
 8934SOL    HW228403   2.477   4.141   2.145 -0.1535  0.2601  0.8742
 8935SOL     OW28404   5.519   2.947   5.865  0.1378  0.2172  0.1262
 8935SOL    HW128405   5.591   3.011   5.836 -2.0803  2.7182 -0.2213
 8935SOL    HW228406   5.438   2.959   5.808 -1.2311 -1.2197  1.6432
 8936SOL     OW28407   4.547   4.100   1.863 -0.6082 -0.2545 -0.2017
 8936SOL    HW128408   4.518   4.023   1.807  0.5966  1.4542 -3.4604
 8936SOL    HW228409   4.608   4.068   1.936 -2.2020 -2.5808  0.2279
 8937SOL     OW28410   5.982   5.544   1.576 -0.1810  0.6758 -0.0556
 8937SOL    HW128411   5.985   5.444   1.574  0.1348  0.6257  1.5808
 8937SOL    HW228412   6.075   5.579   1.590 -0.5106  1.1054  1.1595
 8938SOL     OW28413   2.840   5.295   5.527  0.0861  0.1725 -0.6410
 8938SOL    HW128414   2.906   5.221   5.542 -0.2958  0.0695  0.6551
 8938SOL    HW228415   2.869   5.376   5.578 -0.4749  0.3152 -0.5474
 8939SOL     OW28416   3.087   2.352   4.517  0.3204  0.2046 -0.1912
 8939SOL    HW128417   3.069   2.298   4.599  4.8602 -1.2977  0.1001
 8939SOL    HW228418   3.018   2.332   4.448 -2.8821  0.4944  2.6399
 8940SOL     OW28419   6.431   4.080   3.869  0.1453 -0.4024 -1.1761
 8940SOL    HW128420   6.518   4.114   3.903 -1.2418  1.9662  0.3016
 8940SOL    HW228421   6.367   4.156   3.857 -3.0817 -2.2955  1.9078
 8941SOL     OW28422   4.562   6.881   2.885  0.2866 -0.0953  0.1696
 8941SOL    HW128423   4.596   6.916   2.797 -1.2847 -1.1039 -0.8865
 8941SOL    HW228424   4.532   6.787   2.873 -0.1373 -0.1824  1.7772
 8942SOL     OW28425   2.768   2.413   2.044 -0.0665 -0.1915 -0.0888
 8942SOL    HW128426   2.767   2.411   2.144 -0.8172  0.4932 -0.0748
 8942SOL    HW228427   2.717   2.493   2.012 -1.8381 -1.6668 -1.0626
 8943SOL     OW28428   5.663   6.362   5.121  0.2337  0.1593 -0.3886
 8943SOL    HW128429   5.633   6.305   5.197  0.0326  0.5601 -0.1627
 8943SOL    HW228430   5.587   6.419   5.090  0.9664  1.8051  0.7459
 8944SOL     OW28431   5.801   4.294   6.209  0.2287 -0.0636  0.5342
 8944SOL    HW128432   5.731   4.366   6.212  0.2997  0.0015  0.6242
 8944SOL    HW228433   5.890   4.334   6.226  0.3507 -0.0654 -0.0770
 8945SOL     OW28434   6.370   4.347   3.794  0.1770  0.7175 -0.1055
 8945SOL    HW128435   6.355   4.444   3.812 -0.8111  0.8332 -1.4571
 8945SOL    HW228436   6.410   4.335   3.703 -0.8127 -0.2022 -0.4372
 8946SOL     OW28437   6.746   6.717   2.482  0.0835 -0.2252  0.2001
 8946SOL    HW128438   6.725   6.659   2.560  0.4386 -0.5604  0.0513
 8946SOL    HW228439   6.762   6.811   2.514 -0.9366 -0.1066  0.3855
 8947SOL     OW28440   0.511   2.401   1.877  0.1715 -0.4127 -0.3506
 8947SOL    HW128441   0.573   2.463   1.925  1.4738 -0.4605 -1.9002
 8947SOL    HW228442   0.441   2.369   1.941  0.3806  1.4152  0.8763
 8948SOL     OW28443   0.485   1.899   3.708 -0.1980  0.3028 -0.3789
 8948SOL    HW128444   0.501   1.810   3.666  0.1684  0.0199  0.3448
 8948SOL    HW228445   0.565   1.958   3.693 -0.6985  0.7410 -1.4134
 8949SOL     OW28446   7.011   3.765   5.181 -0.3376  0.1215  0.0542
 8949SOL    HW128447   6.926   3.791   5.134 -1.0420 -1.4603  0.3795
 8949SOL    HW228448   7.042   3.677   5.146  1.4574  0.8881 -0.3817
 8950SOL     OW28449   0.711   1.520   4.481 -0.2537  0.2004 -0.1090
 8950SOL    HW128450   0.733   1.444   4.543  0.8271  0.6901  0.1415
 8950SOL    HW228451   0.769   1.514   4.400 -1.0044  0.0949 -0.6442
 8951SOL     OW28452   0.059   0.611   3.105  0.1645 -0.1002 -0.4476
 8951SOL    HW128453   0.009   0.629   3.020  1.1018 -1.4062 -1.3125
 8951SOL    HW228454  -0.007   0.598   3.179 -0.6508  1.7722 -0.7944
 8952SOL     OW28455   3.346   1.346   0.912  0.2100  0.2347 -0.1270
 8952SOL    HW128456   3.273   1.295   0.866  2.8898 -3.7571 -0.5166
 8952SOL    HW228457   3.351   1.318   1.008 -0.8826  3.2001  0.9043
 8953SOL     OW28458   5.833   2.840   0.671  0.4997  0.0614 -0.2884
 8953SOL    HW128459   5.840   2.940   0.673  1.9547 -0.0020 -1.1336
 8953SOL    HW228460   5.748   2.814   0.625 -0.8882  0.8804  1.6355
 8954SOL     OW28461   1.158   1.972   1.522 -0.4322 -0.1641  0.0188
 8954SOL    HW128462   1.079   1.943   1.574  0.0032 -1.3385  0.0551
 8954SOL    HW228463   1.241   1.961   1.577 -0.3013  2.0624  0.3825
 8955SOL     OW28464   0.020   3.317   1.696 -0.5242  0.0287  0.3012
 8955SOL    HW128465   0.108   3.301   1.741  0.7745  3.7029 -0.5052
 8955SOL    HW228466   0.024   3.282   1.602 -0.3429 -0.7886  0.6083
 8956SOL     OW28467   6.068   6.024   1.670  0.2370 -0.2306  0.0474
 8956SOL    HW128468   6.133   5.948   1.663  0.9707  0.4276 -0.4746
 8956SOL    HW228469   6.082   6.087   1.593 -1.1930 -0.2020 -0.2232
 8957SOL     OW28470   6.792   2.897   1.752  0.1156 -0.3150  0.2810
 8957SOL    HW128471   6.838   2.808   1.756 -0.3485 -0.5587  0.2606
 8957SOL    HW228472   6.698   2.887   1.786 -0.0587  0.0863 -0.0851
 8958SOL     OW28473   3.421   4.589   5.659 -0.0954 -0.1439  0.6416
 8958SOL    HW128474   3.481   4.580   5.580 -0.2178  0.5345  0.4601
 8958SOL    HW228475   3.440   4.675   5.706 -1.1497  0.2514  0.3805
 8959SOL     OW28476   3.378   5.448   5.857  0.4807  0.0071  0.1193
 8959SOL    HW128477   3.452   5.475   5.919  1.4078  0.5257 -1.1496
 8959SOL    HW228478   3.375   5.512   5.779  1.4484 -2.3486 -1.9960
 8960SOL     OW28479   4.848   5.893   1.696  0.1513 -0.3901 -0.3865
 8960SOL    HW128480   4.821   5.952   1.772 -1.8145  0.1284 -1.4116
 8960SOL    HW228481   4.860   5.800   1.729  0.6004  0.0611  0.7763
 8961SOL     OW28482   4.493   3.568   0.832 -0.8835 -0.0354 -0.9356
 8961SOL    HW128483   4.478   3.474   0.861 -1.8745  0.2756 -0.3689
 8961SOL    HW228484   4.445   3.585   0.746 -0.5315 -0.0995 -1.1473
 8962SOL     OW28485   6.287   5.904   3.214  0.1069 -0.1227 -0.1449
 8962SOL    HW128486   6.209   5.965   3.214 -0.5634 -0.9619  0.1355
 8962SOL    HW228487   6.294   5.858   3.125  0.1272 -0.2382 -0.0850
 8963SOL     OW28488   4.655   0.794   3.336  0.6051 -0.1035 -0.2356
 8963SOL    HW128489   4.686   0.730   3.406 -1.9116 -0.1524  0.9177
 8963SOL    HW228490   4.646   0.885   3.375 -0.0509  0.0367 -0.6967
 8964SOL     OW28491   3.067   4.044   6.004  0.2330  0.0115  0.2550
 8964SOL    HW128492   3.142   4.048   5.939 -0.9567 -1.2233 -1.2718
 8964SOL    HW228493   3.020   4.133   6.008 -2.0336 -0.8031 -3.5979
 8965SOL     OW28494   0.652   6.700   5.433 -0.0650 -0.3240  0.3385
 8965SOL    HW128495   0.742   6.671   5.400 -0.5252 -0.3337 -0.9879
 8965SOL    HW228496   0.608   6.757   5.363 -0.6085  0.6620  1.4537
 8966SOL     OW28497   0.984   4.254   6.027  0.1618  0.1726 -0.1875
 8966SOL    HW128498   0.901   4.308   6.041 -1.2585 -1.3804 -2.0605
 8966SOL    HW228499   1.060   4.298   6.074 -1.0419  3.3565 -0.9568
 8967SOL     OW28500   1.995   3.371   1.513 -0.4383 -0.1203 -0.7164
 8967SOL    HW128501   1.986   3.352   1.610 -4.4583 -0.8041 -1.0613
 8967SOL    HW228502   2.080   3.421   1.496  1.8773 -2.5459  2.6453
 8968SOL     OW28503   6.866   4.480   1.790 -0.5957  0.7046  0.0823
 8968SOL    HW128504   6.769   4.458   1.776 -0.6180 -0.1734  1.3931
 8968SOL    HW228505   6.922   4.428   1.726 -0.9007 -0.0717  0.4361
 8969SOL     OW28506   1.464   4.464   7.004 -0.2876  0.7542  0.4276
 8969SOL    HW128507   1.434   4.422   7.090 -0.6319 -0.0202 -0.0630
 8969SOL    HW228508   1.385   4.495   6.953 -0.1354  0.5110  0.0401
 8970SOL     OW28509   2.906   7.028   5.223  0.1031  0.3786  0.3880
 8970SOL    HW128510   2.884   7.126   5.217 -0.0915  0.2807 -0.7032
 8970SOL    HW228511   3.005   7.016   5.221  0.1154  0.4876 -1.1807
 8971SOL     OW28512   5.196   4.327   2.468  0.0453 -0.0865 -0.2077
 8971SOL    HW128513   5.187   4.395   2.541 -0.0439  0.7839 -1.0041
 8971SOL    HW228514   5.269   4.354   2.406 -2.2409  1.2326 -2.5263
 8972SOL     OW28515   4.147   6.295   4.167  0.2109 -0.6456 -0.0816
 8972SOL    HW128516   4.113   6.364   4.232  1.2846 -1.3365  1.2627
 8972SOL    HW228517   4.221   6.335   4.112  0.5539 -0.5884  0.4110
 8973SOL     OW28518   0.648   4.849   1.988 -0.4166 -0.4556  0.2164
 8973SOL    HW128519   0.634   4.756   2.019 -0.8238 -0.2365  0.7060
 8973SOL    HW228520   0.746   4.868   1.983 -0.3315 -0.9281  0.0396
 8974SOL     OW28521   0.028   0.736   6.635  0.0131 -0.0854 -0.2295
 8974SOL    HW128522  -0.050   0.791   6.666  0.4658  1.4742 -1.6961
 8974SOL    HW228523   0.057   0.674   6.708 -2.1277 -0.1895  0.5923
 8975SOL     OW28524   2.255   2.608   4.667 -0.0914 -0.1250  0.3122
 8975SOL    HW128525   2.320   2.535   4.691 -0.4738 -0.3896  0.5547
 8975SOL    HW228526   2.206   2.584   4.584 -1.6338 -1.0936  1.4382
 8976SOL     OW28527   1.874   0.438   2.479  0.4579  0.1333 -0.3477
 8976SOL    HW128528   1.828   0.517   2.439 -1.6910 -0.8311  0.0600
 8976SOL    HW228529   1.905   0.460   2.571 -2.9612 -0.2595  1.0737
 8977SOL     OW28530   0.590   5.538   2.849 -0.3250 -0.7595  0.3884
 8977SOL    HW128531   0.633   5.626   2.866 -0.4713 -0.1540 -1.9557
 8977SOL    HW228532   0.528   5.516   2.925 -0.6496  1.3849  0.8239
 8978SOL     OW28533   4.970   6.254   5.003  0.6045 -0.3026  0.4003
 8978SOL    HW128534   5.018   6.239   4.916  2.3374 -1.3893  1.5073
 8978SOL    HW228535   4.936   6.348   5.006  2.7913  0.5753 -0.3919
 8979SOL     OW28536   5.644   5.452   3.036  0.6792  0.7444 -0.2988
 8979SOL    HW128537   5.610   5.414   2.950 -0.2927  0.1727  0.3141
 8979SOL    HW228538   5.733   5.494   3.021  0.0923  1.5429 -1.8056
 8980SOL     OW28539   4.725   1.956   0.532  0.7479 -0.0953  0.6397
 8980SOL    HW128540   4.815   1.924   0.562  0.0041 -1.3201  1.6744
 8980SOL    HW228541   4.700   2.037   0.585  0.4522 -0.8757  1.7431
 8981SOL     OW28542   3.675   3.654   6.204 -0.3832 -0.0688 -0.2780
 8981SOL    HW128543   3.699   3.586   6.135 -0.2725 -1.6430  1.2544
 8981SOL    HW228544   3.711   3.627   6.292 -1.7837  1.1351  0.7281
 8982SOL     OW28545   5.065   6.324   3.272 -0.2308  0.1438 -1.2635
 8982SOL    HW128546   5.059   6.240   3.326  1.0628  1.3078  0.8236
 8982SOL    HW228547   4.988   6.384   3.296  0.5818  0.8429 -0.3113
 8983SOL     OW28548   3.529   0.415   2.441  0.2651  0.2411 -0.3501
 8983SOL    HW128549   3.492   0.443   2.529  1.1939 -0.0528  0.1476
 8983SOL    HW228550   3.568   0.323   2.450  3.7208  1.6172 -0.0604
 8984SOL     OW28551   0.917   4.185   5.215  0.2447  0.0019 -0.1690
 8984SOL    HW128552   0.879   4.233   5.294 -0.0680  0.6642 -0.7113
 8984SOL    HW228553   0.866   4.101   5.198  0.2282 -0.0736  0.2468
 8985SOL     OW28554   6.726   1.838   1.313  0.2270 -0.8086  0.5701
 8985SOL    HW128555   6.734   1.768   1.243 -0.0239 -0.3059  0.0284
 8985SOL    HW228556   6.817   1.856   1.352  0.9076  0.8673 -1.5941
 8986SOL     OW28557   0.561   5.373   5.014  0.2326 -0.1947  0.3373
 8986SOL    HW128558   0.471   5.415   5.023  0.0955 -0.6427  1.2214
 8986SOL    HW228559   0.586   5.367   4.917 -0.0424  1.2598  0.1549
 8987SOL     OW28560   4.550   5.247   5.844  0.5446  0.1344 -0.7547
 8987SOL    HW128561   4.532   5.303   5.925  2.2851  0.8330 -0.8138
 8987SOL    HW228562   4.487   5.169   5.843  0.6070 -0.0030  1.3812
 8988SOL     OW28563   1.461   4.048   0.334  0.1561 -0.1397 -0.1941
 8988SOL    HW128564   1.450   3.966   0.390  1.8188  0.3289  0.9027
 8988SOL    HW228565   1.373   4.073   0.294 -1.2388 -0.2631  2.5510
 8989SOL     OW28566   6.807   5.562   4.687  0.2144  0.4088  0.3576
 8989SOL    HW128567   6.781   5.562   4.590  0.9986 -0.5065  0.1220
 8989SOL    HW228568   6.745   5.620   4.739  0.6849  2.1420 -0.9387
 8990SOL     OW28569   4.084   3.984   5.738 -0.3618  0.0287 -0.1904
 8990SOL    HW128570   4.090   4.084   5.730 -0.8188  0.1348  0.6622
 8990SOL    HW228571   4.061   3.945   5.649  1.8831  0.4963 -1.0454
 8991SOL     OW28572   0.550   4.787   6.119 -0.0589  0.1691  0.1095
 8991SOL    HW128573   0.461   4.780   6.074  1.2641  0.0702 -2.7154
 8991SOL    HW228574   0.594   4.873   6.092  0.8100  0.1085  1.2794
 8992SOL     OW28575   5.234   5.584   0.137 -0.0426  0.4952  0.4416
 8992SOL    HW128576   5.331   5.583   0.115  0.5419  0.8612  2.7609
 8992SOL    HW228577   5.208   5.499   0.183 -0.7128  0.5950  0.2645
 8993SOL     OW28578   4.279   3.215   0.183 -0.4922  0.4672  0.1038
 8993SOL    HW128579   4.187   3.177   0.173 -0.3320  0.0783  0.1192
 8993SOL    HW228580   4.303   3.267   0.101  0.6384 -2.3427 -1.4598
 8994SOL     OW28581   1.122   6.983   1.050  0.2935 -0.0954  0.1759
 8994SOL    HW128582   1.213   6.978   1.007  0.0370  0.0613 -0.4007
 8994SOL    HW228583   1.053   6.960   0.982 -0.2995  2.2569 -0.1028
 8995SOL     OW28584   1.276   2.055   5.879  0.2113  0.1625  0.1453
 8995SOL    HW128585   1.375   2.049   5.880  0.1501 -1.4674  1.7433
 8995SOL    HW228586   1.244   2.062   5.784  1.8315  1.2484 -0.3631
 8996SOL     OW28587   4.997   6.825   6.617 -0.0802 -0.0299  0.1821
 8996SOL    HW128588   4.897   6.821   6.626 -0.1663  1.7210  0.2904
 8996SOL    HW228589   5.038   6.825   6.708 -0.0860  0.8458  0.1968
 8997SOL     OW28590   0.269   5.903   2.493  0.4921  0.2560 -0.7313
 8997SOL    HW128591   0.213   5.901   2.576 -2.5989 -0.1367 -2.6495
 8997SOL    HW228592   0.306   5.995   2.480 -1.1809  1.0443 -0.2271
 8998SOL     OW28593   4.617   2.004   5.503 -0.0016  0.0042  0.0538
 8998SOL    HW128594   4.634   1.982   5.407  0.4830  0.8821 -0.0658
 8998SOL    HW228595   4.672   2.083   5.530 -1.6759  1.0687  0.4753
 8999SOL     OW28596   4.841   3.297   6.078 -0.6958  0.1207  0.3240
 8999SOL    HW128597   4.885   3.373   6.126  1.9522 -1.2538  0.2741
 8999SOL    HW228598   4.845   3.313   5.979 -2.6001  1.1192  0.3706
 9000SOL     OW28599   5.172   1.443   3.477 -0.0922  0.9927  0.2952
 9000SOL    HW128600   5.087   1.414   3.520 -0.0199  0.7823  0.2953
 9000SOL    HW228601   5.212   1.518   3.531 -0.5267  1.4275  0.0223
 9001SOL     OW28602   1.584   0.827   4.354 -0.4902  0.1615  0.3827
 9001SOL    HW128603   1.655   0.837   4.285 -1.1477  0.6920 -0.2407
 9001SOL    HW228604   1.599   0.893   4.427 -0.4244  0.3759  0.1766
 9002SOL     OW28605   5.561   0.293   4.764  0.8109 -0.1170  0.7575
 9002SOL    HW128606   5.570   0.344   4.679 -0.6498 -1.7149 -0.4051
 9002SOL    HW228607   5.482   0.327   4.815 -0.0211 -1.0075  0.0942
 9003SOL     OW28608   0.373   2.313   5.218 -0.1769 -0.3763 -0.7445
 9003SOL    HW128609   0.415   2.373   5.286  0.0128  0.8052 -1.8430
 9003SOL    HW228610   0.404   2.219   5.231 -0.2150 -0.1899  0.8241
 9004SOL     OW28611   3.563   6.077   4.661 -0.8308 -0.5338  0.1338
 9004SOL    HW128612   3.551   6.139   4.739  1.0819  0.4591 -0.3290
 9004SOL    HW228613   3.584   5.985   4.696 -0.1165 -0.1300  0.8088
 9005SOL     OW28614   2.089   5.436   4.206 -0.1413  0.1587 -0.3173
 9005SOL    HW128615   2.125   5.393   4.124 -1.0491 -0.5412 -0.3486
 9005SOL    HW228616   2.061   5.366   4.272 -1.0529  0.6995 -0.1184
 9006SOL     OW28617   5.674   3.841   5.471  0.0744  0.7605 -0.1305
 9006SOL    HW128618   5.618   3.905   5.524 -1.1325 -2.0540  2.2480
 9006SOL    HW228619   5.770   3.868   5.478 -0.3711  2.2533  0.8343
 9007SOL     OW28620   6.892   4.045   6.664  0.1013 -0.2138  0.1064
 9007SOL    HW128621   6.848   3.972   6.611 -0.7476  2.0988 -2.6182
 9007SOL    HW228622   6.825   4.115   6.687  1.1490  0.3846  1.4975
 9008SOL     OW28623   2.076   0.071   4.309  0.2426 -0.9467 -0.3761
 9008SOL    HW128624   2.061   0.005   4.235  0.4677 -1.7744  0.3072
 9008SOL    HW228625   2.009   0.056   4.381 -0.0007 -0.1130 -0.4124
 9009SOL     OW28626   2.619   0.233   6.378  0.2450 -0.1975  0.2504
 9009SOL    HW128627   2.664   0.317   6.345 -0.0422  1.2836  3.2864
 9009SOL    HW228628   2.529   0.256   6.416  0.4783 -1.7156  1.8456
 9010SOL     OW28629   6.100   1.691   4.525  0.2017  0.1386  0.3574
 9010SOL    HW128630   6.163   1.716   4.598 -0.7498 -1.0338  1.6436
 9010SOL    HW228631   6.025   1.636   4.563 -0.0800 -0.9112 -1.5822
 9011SOL     OW28632   7.001   3.681   6.363  0.2926  0.3806 -0.3229
 9011SOL    HW128633   7.074   3.613   6.356  1.0529  0.6866  2.8603
 9011SOL    HW228634   6.973   3.689   6.459 -1.9722  2.3351 -1.0547
 9012SOL     OW28635   6.048   3.379   5.441  0.2003 -0.1746 -0.2669
 9012SOL    HW128636   6.065   3.323   5.522  0.3081 -0.1329 -0.2610
 9012SOL    HW228637   6.118   3.450   5.434 -1.2430  1.4542  1.0268
 9013SOL     OW28638   0.638   5.127   6.914 -0.0673 -0.2685 -0.0718
 9013SOL    HW128639   0.653   5.099   7.009  0.9271  0.4392 -0.0127
 9013SOL    HW228640   0.589   5.055   6.866  2.4171 -2.1679  0.0665
 9014SOL     OW28641   5.798   0.294   4.892  0.2106  0.3211 -0.4519
 9014SOL    HW128642   5.838   0.205   4.915  0.8410  0.9224  0.9206
 9014SOL    HW228643   5.712   0.280   4.844 -0.1854 -1.0443  0.5665
 9015SOL     OW28644   1.412   0.744   2.787  0.0515 -0.3014  0.1986
 9015SOL    HW128645   1.448   0.762   2.878 -0.8928  1.4550  0.2686
 9015SOL    HW228646   1.320   0.707   2.794  0.2976 -0.9684 -0.0375
 9016SOL     OW28647   6.779   3.111   3.849  0.0834  0.0161  0.5212
 9016SOL    HW128648   6.877   3.131   3.860  0.0416 -0.4118  1.8197
 9016SOL    HW228649   6.768   3.021   3.807  0.2273  0.5704 -0.7847
 9017SOL     OW28650   0.732   2.413   5.401 -0.5483 -0.4968 -0.0550
 9017SOL    HW128651   0.709   2.368   5.487 -0.9328  0.4807  0.3741
 9017SOL    HW228652   0.693   2.505   5.400  1.5274  0.4421 -0.2291
 9018SOL     OW28653   4.807   6.427   3.100 -0.5939 -0.2009 -0.1674
 9018SOL    HW128654   4.727   6.430   3.160 -1.9168  0.7806 -1.9021
 9018SOL    HW228655   4.785   6.467   3.012  1.4001 -1.2678 -1.2367
 9019SOL     OW28656   4.301   1.161   6.431 -0.2182  0.0915  0.4002
 9019SOL    HW128657   4.365   1.189   6.503  1.1825 -1.3945 -0.2234
 9019SOL    HW228658   4.264   1.243   6.386  0.2677  1.0011  1.5943
 9020SOL     OW28659   2.374   3.473   1.799  0.3362  0.1272 -0.1365
 9020SOL    HW128660   2.341   3.558   1.758  1.9055  1.1847  0.6735
 9020SOL    HW228661   2.329   3.395   1.756 -0.9246  1.3448 -1.1112
 9021SOL     OW28662   4.721   4.880   6.575  0.1627  0.2973 -0.7111
 9021SOL    HW128663   4.736   4.876   6.673  0.1237  0.4533 -0.6985
 9021SOL    HW228664   4.785   4.945   6.533 -2.8235  3.9601 -0.1657
 9022SOL     OW28665   5.102   5.390   6.259  0.4438 -0.1082  0.4116
 9022SOL    HW128666   5.163   5.316   6.231  1.1063  0.2326  0.9344
 9022SOL    HW228667   5.051   5.422   6.180  2.3618  0.9283 -0.4717
 9023SOL     OW28668   0.342   6.280   4.215 -0.1980 -0.5120 -0.1467
 9023SOL    HW128669   0.358   6.241   4.306 -1.7362  1.1683  0.8944
 9023SOL    HW228670   0.252   6.252   4.182 -1.3554  1.9841  0.6328
 9024SOL     OW28671   1.201   4.437   6.687  0.3010 -0.1515  0.2478
 9024SOL    HW128672   1.254   4.356   6.712 -1.1495 -1.5503 -1.0009
 9024SOL    HW228673   1.228   4.468   6.596  2.4401  2.2325  1.5634
 9025SOL     OW28674   0.858   5.062   1.594 -0.3768  0.5213  0.0696
 9025SOL    HW128675   0.949   5.038   1.560  0.0729  0.8389  1.0172
 9025SOL    HW228676   0.800   5.087   1.516 -0.1988 -1.3519 -0.7309
 9026SOL     OW28677   3.146   1.786   6.666  0.2176 -0.0197  0.6126
 9026SOL    HW128678   3.147   1.689   6.686 -0.4199 -0.4080 -1.0702
 9026SOL    HW228679   3.165   1.801   6.569 -1.6797  1.3752  0.3912
 9027SOL     OW28680   4.503   2.989   5.588  0.0795 -0.9636  0.0996
 9027SOL    HW128681   4.431   2.933   5.630 -0.9189 -0.6704 -1.1344
 9027SOL    HW228682   4.460   3.060   5.532  1.3420  0.2017  0.5682
 9028SOL     OW28683   4.759   4.031   3.224  0.3170  0.3128  0.4462
 9028SOL    HW128684   4.777   3.976   3.142  1.6075 -0.4363  1.2107
 9028SOL    HW228685   4.661   4.035   3.240  0.0437  0.3362 -1.0410
 9029SOL     OW28686   3.803   5.971   5.800 -0.7110  0.0980 -0.3223
 9029SOL    HW128687   3.901   5.972   5.783 -0.4456  0.2845  1.0777
 9029SOL    HW228688   3.761   6.052   5.759  0.2456  1.7037  1.6886
 9030SOL     OW28689   3.585   3.808   0.717 -0.1103 -0.1533 -0.0207
 9030SOL    HW128690   3.682   3.824   0.737  0.4019 -1.8868 -0.9196
 9030SOL    HW228691   3.568   3.709   0.713 -1.8926  0.1239 -0.0487
 9031SOL     OW28692   1.386   4.920   1.666 -0.3708 -0.5707  0.7407
 9031SOL    HW128693   1.363   5.014   1.689  1.3300  0.0633 -0.0024
 9031SOL    HW228694   1.402   4.868   1.751 -0.1583  0.1238  1.1356
 9032SOL     OW28695   6.428   1.694   4.270 -0.8947  0.3016 -0.4151
 9032SOL    HW128696   6.517   1.649   4.267  0.2197  2.0546  2.4820
 9032SOL    HW228697   6.369   1.654   4.199  0.8661 -3.5820  0.0102
 9033SOL     OW28698   1.629   4.345   5.331 -0.9017  0.3998  0.4528
 9033SOL    HW128699   1.717   4.387   5.311 -1.1796  0.3595 -0.9074
 9033SOL    HW228700   1.571   4.412   5.379 -0.1599  0.4295  1.3458
 9034SOL     OW28701   6.532   6.302   1.091 -0.9915  0.0077 -0.0155
 9034SOL    HW128702   6.493   6.223   1.138  0.1847 -0.7137 -0.2238
 9034SOL    HW228703   6.571   6.366   1.158 -0.8839 -0.1645  0.0852
 9035SOL     OW28704   2.743   0.881   1.224  0.3512  0.4220 -0.2450
 9035SOL    HW128705   2.822   0.826   1.200  0.3414 -0.4284  1.5454
 9035SOL    HW228706   2.662   0.849   1.174 -0.2007 -2.8648  2.4296
 9036SOL     OW28707   0.094   5.925   2.712 -0.4048  0.3501  0.3720
 9036SOL    HW128708   0.018   5.920   2.648  1.0858  2.3813 -1.7398
 9036SOL    HW228709   0.067   5.884   2.799 -2.8262 -1.7492 -1.2078
 9037SOL     OW28710   0.536   0.578   6.977  0.1920 -0.1200 -0.1143
 9037SOL    HW128711   0.603   0.576   6.903  1.2198 -0.1860  0.7867
 9037SOL    HW228712   0.511   0.673   6.996 -0.8311 -0.1519 -1.1774
 9038SOL     OW28713   3.527   5.303   2.951  0.3297 -0.1962 -0.3134
 9038SOL    HW128714   3.529   5.336   3.045 -0.5325  0.5804 -0.5515
 9038SOL    HW228715   3.433   5.276   2.927  0.4923 -0.1535 -1.0275
 9039SOL     OW28716   5.640   2.704   3.880  0.4215 -0.1496 -0.1510
 9039SOL    HW128717   5.638   2.749   3.970 -1.1395 -1.2544  0.4195
 9039SOL    HW228718   5.681   2.614   3.890 -0.2455 -0.4891 -0.4203
 9040SOL     OW28719   2.304   2.840   5.506 -0.5654 -0.3920  0.1784
 9040SOL    HW128720   2.360   2.878   5.432 -0.9550  0.4848  0.3182
 9040SOL    HW228721   2.357   2.773   5.557  0.0230 -0.3029 -0.3095
 9041SOL     OW28722   1.939   6.743   6.338  0.2644 -0.4673  0.0390
 9041SOL    HW128723   2.026   6.752   6.289  1.2832  0.2099  1.8709
 9041SOL    HW228724   1.893   6.831   6.343  0.6890 -0.2989  1.1845
 9042SOL     OW28725   2.692   6.323   3.577  0.8629  0.3294  0.6655
 9042SOL    HW128726   2.626   6.346   3.505  0.9222  0.9762  0.8170
 9042SOL    HW228727   2.706   6.402   3.636  1.5143  0.0846  0.8420
 9043SOL     OW28728   6.132   2.549   0.847  0.4896  0.1299 -0.2673
 9043SOL    HW128729   6.086   2.633   0.879  2.4494  0.4999  1.8359
 9043SOL    HW228730   6.179   2.568   0.761  0.7095  1.1543  0.0558
 9044SOL     OW28731   2.296   2.029   3.911  0.2909  0.1080  0.3123
 9044SOL    HW128732   2.246   2.006   3.828 -1.4703 -1.8071  1.7834
 9044SOL    HW228733   2.241   2.091   3.967  0.0912 -0.9843  1.3646
 9045SOL     OW28734   6.509   0.290   0.916  0.2369 -0.6016 -0.4102
 9045SOL    HW128735   6.447   0.220   0.881 -1.2421 -1.5572  3.5483
 9045SOL    HW228736   6.481   0.380   0.881 -1.2155 -1.4072 -1.4032
 9046SOL     OW28737   3.648   5.959   6.333  0.2209 -0.6579 -0.1190
 9046SOL    HW128738   3.576   6.022   6.305 -0.7195 -0.5277  2.3846
 9046SOL    HW228739   3.719   5.957   6.262 -0.9150  1.2710 -1.4149
 9047SOL     OW28740   0.300   4.591   6.677 -0.5304 -0.1645 -0.0297
 9047SOL    HW128741   0.236   4.627   6.745  0.5712  0.7955  0.5412
 9047SOL    HW228742   0.393   4.618   6.702 -0.1272  0.5371 -2.1154
 9048SOL     OW28743   4.229   4.025   1.708 -0.1660  0.7006 -0.5848
 9048SOL    HW128744   4.187   4.024   1.798 -0.3938  2.5438 -0.6292
 9048SOL    HW228745   4.242   3.931   1.676 -1.8658  0.0423  0.5151
 9049SOL     OW28746   3.728   3.207   3.012  0.2311  0.1757  0.0832
 9049SOL    HW128747   3.821   3.224   2.982  0.4608  2.1023  1.6752
 9049SOL    HW228748   3.666   3.273   2.969 -0.1453 -0.0269  0.3004
 9050SOL     OW28749   5.326   3.476   2.686 -0.1494  0.1675 -0.9804
 9050SOL    HW128750   5.259   3.421   2.736 -0.6460  1.7088  0.1243
 9050SOL    HW228751   5.377   3.418   2.623 -1.3273 -1.3545 -0.5768
 9051SOL     OW28752   7.023   0.641   5.273  0.3120  0.5239  0.1060
 9051SOL    HW128753   6.996   0.669   5.365 -0.4547 -0.9200  0.3580
 9051SOL    HW228754   7.004   0.544   5.261  3.5443 -0.1497 -0.4462
 9052SOL     OW28755   5.727   4.766   6.801 -0.4686 -0.2632 -1.0247
 9052SOL    HW128756   5.638   4.777   6.845 -0.4953 -1.8028 -0.6202
 9052SOL    HW228757   5.719   4.786   6.703 -0.9595  0.8011 -0.7851
 9053SOL     OW28758   6.706   3.247   5.658 -0.2755 -0.4692 -0.0800
 9053SOL    HW128759   6.607   3.235   5.658 -0.2990 -0.4301 -1.3821
 9053SOL    HW228760   6.729   3.333   5.704 -1.0823  0.9213 -2.1380
 9054SOL     OW28761   2.252   1.448   2.285 -0.3158 -0.5841 -0.3820
 9054SOL    HW128762   2.283   1.399   2.203 -0.0414 -1.0684  0.0035
 9054SOL    HW228763   2.268   1.546   2.273 -2.6560 -0.3061 -1.9767
 9055SOL     OW28764   6.693   5.647   2.247 -0.7664 -0.4424 -0.6370
 9055SOL    HW128765   6.755   5.725   2.245 -1.2364 -0.0662 -0.6273
 9055SOL    HW228766   6.738   5.568   2.204  0.3335 -0.6538  0.8151
 9056SOL     OW28767   0.131   3.880   0.903  0.2410 -0.3820  0.8608
 9056SOL    HW128768   0.231   3.879   0.897  0.3294 -1.0200  2.1287
 9056SOL    HW228769   0.100   3.971   0.931  0.4347 -0.0998  0.1801
 9057SOL     OW28770   6.618   3.969   6.040  0.5011 -0.1844 -0.6858
 9057SOL    HW128771   6.658   3.894   6.092 -0.0442 -1.1005 -1.5458
 9057SOL    HW228772   6.639   3.958   5.943  0.9802  1.1595 -0.7651
 9058SOL     OW28773   5.701   5.892   5.354 -0.5690  0.5494  0.0015
 9058SOL    HW128774   5.718   5.866   5.260  0.6706 -3.5152  1.1649
 9058SOL    HW228775   5.785   5.928   5.395  0.1473 -1.6993  0.6211
 9059SOL     OW28776   6.262   2.657   0.609 -0.5367  0.0677 -0.2321
 9059SOL    HW128777   6.339   2.627   0.554 -1.4548 -1.9417 -0.5148
 9059SOL    HW228778   6.181   2.666   0.551 -0.7293  1.2990  0.2076
 9060SOL     OW28779   5.600   4.732   3.140 -0.1750 -0.4701  0.0294
 9060SOL    HW128780   5.679   4.680   3.172 -0.0631  0.9846  2.3204
 9060SOL    HW228781   5.517   4.677   3.153 -0.1172 -0.0426  2.8388
 9061SOL     OW28782   1.838   1.147   3.015 -0.3756 -0.2363 -0.7086
 9061SOL    HW128783   1.857   1.059   2.971  1.5394  0.4854 -1.4687
 9061SOL    HW228784   1.886   1.151   3.102 -0.0891  0.2030 -0.8805
 9062SOL     OW28785   2.275   1.455   0.807 -0.4709 -0.1619  0.8540
 9062SOL    HW128786   2.195   1.436   0.751 -0.2833 -0.0219  0.5345
 9062SOL    HW228787   2.283   1.554   0.822 -0.8211 -0.2358  1.5822
 9063SOL     OW28788   0.379   5.928   4.350  0.3479 -0.3351 -0.4901
 9063SOL    HW128789   0.336   5.923   4.259 -0.6992 -1.5296  0.0381
 9063SOL    HW228790   0.463   5.873   4.350 -0.1432 -1.1058 -0.4976
 9064SOL     OW28791   3.305   7.007   4.700 -0.1241  0.2211 -0.5563
 9064SOL    HW128792   3.249   6.924   4.706 -0.1125 -0.0270 -3.0131
 9064SOL    HW228793   3.395   6.990   4.738 -0.9789  0.0080  1.5502
 9065SOL     OW28794   5.093   6.478   5.422 -0.3235  0.0035 -0.6130
 9065SOL    HW128795   5.057   6.398   5.375 -0.7703  0.9728 -1.9797
 9065SOL    HW228796   5.081   6.559   5.364 -1.0996  1.3041  1.2715
 9066SOL     OW28797   1.991   0.457   3.411 -0.7302  0.1338  0.7085
 9066SOL    HW128798   2.075   0.445   3.463 -0.1436  1.0340 -0.0026
 9066SOL    HW228799   2.002   0.533   3.347 -1.9692  0.0432  0.3640
 9067SOL     OW28800   1.261   5.960   5.261 -0.3312 -0.1625 -0.1129
 9067SOL    HW128801   1.170   5.923   5.283 -0.0865 -0.6062  0.1629
 9067SOL    HW228802   1.278   6.040   5.319 -0.3833 -0.3184  0.1191
 9068SOL     OW28803   5.143   4.542   2.636  0.0919 -0.6550 -0.1703
 9068SOL    HW128804   5.178   4.597   2.712 -0.0239  0.0272 -0.5927
 9068SOL    HW228805   5.045   4.559   2.625  0.6825  1.9899 -2.6030
 9069SOL     OW28806   6.420   2.062   1.727 -0.5528  0.2532  0.2259
 9069SOL    HW128807   6.389   2.084   1.819 -1.4040 -1.9772  0.5386
 9069SOL    HW228808   6.503   2.007   1.732 -0.4109  0.4060 -0.3683
 9070SOL     OW28809   1.051   0.162   2.981 -0.4729  0.1508 -0.0029
 9070SOL    HW128810   1.076   0.115   3.065 -2.1966  0.8763  0.9752
 9070SOL    HW228811   1.069   0.259   2.990  0.5171  0.0767 -0.9803
 9071SOL     OW28812   6.298   1.136   0.795 -0.2348 -0.2447 -0.3344
 9071SOL    HW128813   6.350   1.191   0.860 -1.6654 -0.0818  0.7323
 9071SOL    HW228814   6.287   1.044   0.832 -0.7609 -0.2563 -0.5188
 9072SOL     OW28815   0.656   7.009   1.682  0.0493  0.1749  0.4757
 9072SOL    HW128816   0.656   6.952   1.764  0.1578 -0.2465  0.1858
 9072SOL    HW228817   0.737   7.067   1.681  0.9732 -1.0774 -0.1899
 9073SOL     OW28818   3.189   2.807   1.245  0.3298  0.3003  0.2435
 9073SOL    HW128819   3.148   2.898   1.248 -0.5710 -0.0435 -0.8058
 9073SOL    HW228820   3.145   2.753   1.173  0.0103 -1.3712  1.6123
 9074SOL     OW28821   4.431   2.449   5.374 -0.1728 -0.7126 -0.1173
 9074SOL    HW128822   4.515   2.396   5.365  1.3623  1.5169  0.0907
 9074SOL    HW228823   4.424   2.513   5.298 -0.1287  1.1083  1.3258
 9075SOL     OW28824   4.146   3.732   5.031 -0.7668 -0.5200  0.0927
 9075SOL    HW128825   4.108   3.824   5.018  0.6332  0.0809  0.1273
 9075SOL    HW228826   4.080   3.664   4.998 -2.4447  0.4030  1.4138
 9076SOL     OW28827   5.098   1.775   2.172 -0.2297 -0.2618  0.0755
 9076SOL    HW128828   5.001   1.770   2.148 -0.1178  0.4215 -0.5328
 9076SOL    HW228829   5.114   1.855   2.230  0.1020  0.0883 -0.4900
 9077SOL     OW28830   5.000   5.807   3.193 -0.1494  0.1171 -0.0371
 9077SOL    HW128831   5.089   5.806   3.237 -0.9532 -2.4637  1.7896
 9077SOL    HW228832   4.941   5.873   3.240 -0.1479 -0.5881  1.0158
 9078SOL     OW28833   5.884   2.467   1.167  0.6938 -0.2695  0.6610
 9078SOL    HW128834   5.848   2.434   1.079 -0.0258  0.8194  0.5277
 9078SOL    HW228835   5.968   2.518   1.150  0.7190 -0.3182  0.6391
 9079SOL     OW28836   3.062   3.654   0.430  0.1176 -0.0758 -0.3461
 9079SOL    HW128837   3.137   3.708   0.467  0.1982 -1.7947  2.2402
 9079SOL    HW228838   3.071   3.558   0.459 -2.2452 -0.6512 -1.2196
 9080SOL     OW28839   2.111   5.433   1.679  0.2098 -0.6984  0.0423
 9080SOL    HW128840   2.134   5.503   1.746  0.4973 -2.2621  1.6427
 9080SOL    HW228841   2.194   5.402   1.632 -0.0424  0.7024 -1.4311
 9081SOL     OW28842   2.063   2.084   6.284 -0.9760  0.3923 -0.3449
 9081SOL    HW128843   2.011   2.120   6.362 -1.1014  0.8156 -0.6246
 9081SOL    HW228844   2.058   2.148   6.208  0.3392  0.6565 -0.2305
 9082SOL     OW28845   2.527   0.905   1.493  0.0778  0.2859  0.0558
 9082SOL    HW128846   2.583   0.986   1.510 -1.3800  1.7208 -1.5663
 9082SOL    HW228847   2.439   0.933   1.454  0.2688 -2.1610 -2.4710
 9083SOL     OW28848   4.971   0.422   5.958  0.1525 -0.0951  0.7494
 9083SOL    HW128849   4.874   0.414   5.983 -0.0309 -2.0776 -0.4017
 9083SOL    HW228850   5.026   0.372   6.024  0.2646 -0.0753  0.6705
 9084SOL     OW28851   2.174   2.044   1.980 -0.3605 -0.1971  0.2142
 9084SOL    HW128852   2.146   1.992   2.061  0.7330  0.1234  0.8288
 9084SOL    HW228853   2.097   2.054   1.918 -0.6402 -2.4315  0.1296
 9085SOL     OW28854   2.150   3.363   0.101 -0.0565 -0.1204 -0.6978
 9085SOL    HW128855   2.213   3.431   0.138 -0.4360 -0.3477  0.3932
 9085SOL    HW228856   2.071   3.410   0.060 -0.1216  0.1056 -0.3159
 9086SOL     OW28857   5.617   1.468   2.676  0.1347 -0.3599 -0.1478
 9086SOL    HW128858   5.552   1.394   2.695  0.9666 -1.1064 -0.1538
 9086SOL    HW228859   5.687   1.470   2.748  0.1926  0.3462 -0.2161
 9087SOL     OW28860   2.456   6.725   2.267 -0.1922 -0.0598  0.1324
 9087SOL    HW128861   2.399   6.659   2.219  1.4390  0.1161 -2.2074
 9087SOL    HW228862   2.457   6.812   2.217  2.9086 -0.3878 -0.5578
 9088SOL     OW28863   3.117   5.830   3.268  0.3780 -0.1574  0.0006
 9088SOL    HW128864   3.175   5.893   3.217  0.5519 -2.1419 -2.4377
 9088SOL    HW228865   3.172   5.783   3.338  1.3521 -0.7345 -1.1112
 9089SOL     OW28866   1.469   4.921   0.779  0.8485 -0.6111 -0.2153
 9089SOL    HW128867   1.429   4.907   0.688  1.0423  1.8947 -0.7438
 9089SOL    HW228868   1.399   4.902   0.848  0.0478 -0.5211 -0.9684
 9090SOL     OW28869   1.917   5.219   3.846 -0.1263 -0.1066 -0.4254
 9090SOL    HW128870   1.989   5.277   3.807  1.0913 -1.8884 -0.9920
 9090SOL    HW228871   1.944   5.190   3.938 -0.0346 -0.8758 -0.6846
 9091SOL     OW28872   6.914   6.301   4.389 -0.0210  0.0258  0.4637
 9091SOL    HW128873   6.930   6.214   4.436  0.6644 -0.4566 -0.6136
 9091SOL    HW228874   6.977   6.370   4.425  0.2323 -0.2352  0.5236
 9092SOL     OW28875   3.904   1.111   6.239  0.0043 -0.1216 -0.3494
 9092SOL    HW128876   3.848   1.095   6.321 -0.6030  1.4808 -0.4115
 9092SOL    HW228877   3.854   1.079   6.159  0.8908 -2.3361 -0.0776
 9093SOL     OW28878   5.012   3.721   2.926 -0.2075 -0.0171  0.5658
 9093SOL    HW128879   4.927   3.677   2.897 -0.3972  0.2218  0.7533
 9093SOL    HW228880   5.055   3.667   2.998  0.0934 -0.4364  0.0816
 9094SOL     OW28881   0.704   5.763   2.226  0.4742  0.5770 -0.0488
 9094SOL    HW128882   0.613   5.802   2.219  0.1924 -0.2588 -1.6953
 9094SOL    HW228883   0.767   5.832   2.263 -0.9667  0.8335  2.1027
 9095SOL     OW28884   2.021   5.589   5.369 -0.0905 -0.0945 -0.1618
 9095SOL    HW128885   2.053   5.553   5.282  0.8615  0.7527 -0.1680
 9095SOL    HW228886   2.057   5.532   5.443 -2.3931 -1.9692 -0.3274
 9096SOL     OW28887   1.153   4.447   6.391  0.1338  0.1474  0.1781
 9096SOL    HW128888   1.187   4.526   6.341 -1.0993  0.9874  0.6105
 9096SOL    HW228889   1.159   4.366   6.334  2.6594  0.2529  0.1765
 9097SOL     OW28890   4.654   1.017   2.567 -0.2132 -0.1726  0.4934
 9097SOL    HW128891   4.680   1.055   2.479  2.7467  1.5063  1.9529
 9097SOL    HW228892   4.643   0.918   2.559  1.9424 -0.3278 -1.3951
 9098SOL     OW28893   5.675   2.828   2.483 -0.0793  0.3824  0.1539
 9098SOL    HW128894   5.678   2.731   2.508  0.1867 -0.1580 -1.8546
 9098SOL    HW228895   5.623   2.878   2.552  0.2750 -1.0745  1.5321
 9099SOL     OW28896   2.099   1.328   0.614 -0.2749  0.9243 -0.0537
 9099SOL    HW128897   2.112   1.238   0.657 -4.0995 -0.7091 -1.7820
 9099SOL    HW228898   2.166   1.340   0.541  0.3579 -0.5318  0.2553
 9100SOL     OW28899   3.202   4.177   1.087  0.2695 -0.2696 -0.3073
 9100SOL    HW128900   3.200   4.189   0.987  4.3069  1.1904 -0.4227
 9100SOL    HW228901   3.205   4.267   1.130 -1.1735 -0.8986  1.2022
 9101SOL     OW28902   5.544   3.722   1.977  0.1469 -0.0655  0.0104
 9101SOL    HW128903   5.605   3.651   1.942  0.1134  0.0010 -0.1852
 9101SOL    HW228904   5.450   3.704   1.947  0.2866  0.5982 -0.8926
 9102SOL     OW28905   6.784   1.638   1.134 -0.0971 -0.9618  0.1399
 9102SOL    HW128906   6.799   1.543   1.160 -0.2445 -0.8170  0.7568
 9102SOL    HW228907   6.779   1.644   1.034 -0.6009 -1.6742  0.1140
 9103SOL     OW28908   4.909   3.562   1.768 -0.3618 -0.1463  0.7925
 9103SOL    HW128909   4.858   3.646   1.789 -0.2902 -0.1273  0.8949
 9103SOL    HW228910   4.925   3.511   1.853 -0.2513 -0.1755  0.7547
 9104SOL     OW28911   0.502   2.750   5.170 -0.0139  0.2958 -0.8340
 9104SOL    HW128912   0.416   2.700   5.171  0.7298 -1.0424 -1.4826
 9104SOL    HW228913   0.489   2.839   5.126 -0.4194 -1.1842 -3.9681
 9105SOL     OW28914   0.861   1.838   1.704  0.0675 -0.0762 -0.1997
 9105SOL    HW128915   0.806   1.827   1.621  1.0447  3.4195 -1.4897
 9105SOL    HW228916   0.811   1.894   1.770  0.2023 -0.9579  0.6724
 9106SOL     OW28917   1.154   1.823   2.903 -0.2963  0.1407  0.3801
 9106SOL    HW128918   1.137   1.740   2.957  1.9133  0.4457  1.6775
 9106SOL    HW228919   1.223   1.804   2.833  1.1821  1.1219  1.5095
 9107SOL     OW28920   1.107   6.792   3.406  0.6030 -0.5564  0.4251
 9107SOL    HW128921   1.019   6.753   3.435 -2.3448  2.0593 -3.7557
 9107SOL    HW228922   1.128   6.871   3.463  0.0944 -1.0078  1.2708
 9108SOL     OW28923   3.533   6.146   1.803 -0.5345  0.5013 -0.1443
 9108SOL    HW128924   3.627   6.173   1.824 -0.7760  0.8444  0.5346
 9108SOL    HW228925   3.474   6.227   1.804 -0.9693  0.1821  0.2085
 9109SOL     OW28926   2.334   5.056   1.694  0.5758 -0.1021 -0.3343
 9109SOL    HW128927   2.394   4.984   1.729  0.7655  0.0905 -0.2548
 9109SOL    HW228928   2.288   5.025   1.612  0.3713 -0.4480 -0.0893
 9110SOL     OW28929   0.357   6.323   0.187 -0.0606 -0.1511 -0.1923
 9110SOL    HW128930   0.309   6.353   0.104  1.3905  0.9709 -0.6698
 9110SOL    HW228931   0.427   6.255   0.162  1.0804  0.9490 -0.0654
 9111SOL     OW28932   2.486   6.340   4.172  0.1348 -0.1230  0.1175
 9111SOL    HW128933   2.523   6.407   4.237 -0.6816  0.5489 -0.0914
 9111SOL    HW228934   2.448   6.262   4.222  0.2125  0.0269  0.4116
 9112SOL     OW28935   3.192   5.326   4.084 -0.6219 -0.3296 -0.3227
 9112SOL    HW128936   3.277   5.275   4.097 -0.5467 -0.4344 -1.1738
 9112SOL    HW228937   3.118   5.281   4.135  0.0064  0.3130  1.2313
 9113SOL     OW28938   1.355   1.101   2.403 -0.2107  0.3213  0.4107
 9113SOL    HW128939   1.294   1.123   2.479 -0.4252 -0.8716  0.6045
 9113SOL    HW228940   1.448   1.133   2.425 -0.3097  0.1507  1.0985
 9114SOL     OW28941   0.479   1.786   0.230 -0.3779 -0.0146  0.2229
 9114SOL    HW128942   0.478   1.804   0.132  2.5217 -0.3801  0.0368
 9114SOL    HW228943   0.436   1.863   0.278  3.2753  3.2082 -1.0934
 9115SOL     OW28944   2.400   6.581   4.852 -1.1863 -0.1261  0.3924
 9115SOL    HW128945   2.306   6.582   4.819 -0.2766 -0.7276 -2.4649
 9115SOL    HW228946   2.441   6.672   4.840 -0.8419 -0.3541 -0.2042
 9116SOL     OW28947   1.739   3.180   6.267  0.3876 -0.9766  0.5258
 9116SOL    HW128948   1.767   3.185   6.171  1.9625 -2.1760  0.8794
 9116SOL    HW228949   1.687   3.096   6.282 -0.0056 -0.7048  0.6967
 9117SOL     OW28950   5.001   5.112   5.300 -0.1220 -0.2537 -0.0834
 9117SOL    HW128951   4.996   5.137   5.203 -0.9520 -0.4770 -0.1028
 9117SOL    HW228952   4.961   5.185   5.355  0.7185  0.0592  0.1327
 9118SOL     OW28953   2.619   1.547   3.214 -0.1175  0.1077  0.0899
 9118SOL    HW128954   2.690   1.552   3.143  0.6088 -2.5791  0.5483
 9118SOL    HW228955   2.544   1.489   3.182 -0.0558 -0.6598  1.2949
 9119SOL     OW28956   1.990   0.477   1.962  0.1288 -0.3442 -0.8537
 9119SOL    HW128957   2.060   0.532   2.007 -0.6996  2.5890 -2.8079
 9119SOL    HW228958   1.903   0.486   2.011 -0.1412  0.6342 -1.4849
 9120SOL     OW28959   4.990   2.095   3.622  0.5048 -0.2970  0.1114
 9120SOL    HW128960   4.996   2.052   3.532 -1.7773 -0.2391 -0.1335
 9120SOL    HW228961   5.035   2.185   3.619 -1.1804  0.5689 -1.6074
 9121SOL     OW28962   5.442   5.464   2.696 -0.2932  0.0569  0.4906
 9121SOL    HW128963   5.394   5.445   2.610 -0.3283 -0.0169  0.5263
 9121SOL    HW228964   5.376   5.465   2.771 -0.3821  0.8756  0.4194
 9122SOL     OW28965   2.907   6.929   0.435  0.7348  0.6874  0.6372
 9122SOL    HW128966   2.966   6.857   0.471 -0.0088  0.5882  1.6860
 9122SOL    HW228967   2.813   6.897   0.433  0.3434  1.7335  1.4151
 9123SOL     OW28968   1.900   4.594   0.305 -0.0167 -0.0089 -0.0698
 9123SOL    HW128969   1.865   4.644   0.225  1.3360  1.4597  0.2170
 9123SOL    HW228970   1.825   4.579   0.369 -0.7036  0.5977 -0.7012
 9124SOL     OW28971   2.303   0.959   2.859  0.0263 -0.1643  0.3633
 9124SOL    HW128972   2.253   0.994   2.780 -1.3085 -0.8343  0.8812
 9124SOL    HW228973   2.398   0.938   2.832 -0.5275 -0.8325 -1.1942
 9125SOL     OW28974   3.574   1.427   2.868  0.0928  0.0723  0.3124
 9125SOL    HW128975   3.646   1.357   2.870 -0.3823 -0.4378 -0.1481
 9125SOL    HW228976   3.616   1.517   2.874  0.8297 -0.1992 -0.4528
 9126SOL     OW28977   2.043   2.835   6.646  0.4640 -0.1265 -0.0903
 9126SOL    HW128978   2.110   2.826   6.720 -0.0546 -0.9470  0.3027
 9126SOL    HW228979   1.955   2.864   6.684  0.3696  0.1120 -0.4826
 9127SOL     OW28980   3.392   1.833   5.690  0.3637 -0.6204  0.0190
 9127SOL    HW128981   3.302   1.871   5.710  0.3627 -0.4132 -0.3783
 9127SOL    HW228982   3.447   1.833   5.774 -0.1813 -1.2467  0.3859
 9128SOL     OW28983   2.273   3.614   5.945 -0.2896 -0.3159  0.2292
 9128SOL    HW128984   2.286   3.547   6.017 -0.3997  0.6370  1.1628
 9128SOL    HW228985   2.361   3.657   5.923  0.4339 -2.9158 -2.6118
 9129SOL     OW28986   1.020   3.231   0.685 -0.5490 -0.1908 -0.2341
 9129SOL    HW128987   0.948   3.162   0.678 -0.2299 -0.4696 -0.8086
 9129SOL    HW228988   0.983   3.320   0.659 -0.2015 -0.6706 -2.5761
 9130SOL     OW28989   6.443   3.527   5.244 -0.5959  0.7462 -0.2582
 9130SOL    HW128990   6.523   3.571   5.204  0.0925 -1.3395 -1.3104
 9130SOL    HW228991   6.393   3.477   5.174 -1.6059  0.2234  0.7859
 9131SOL     OW28992   3.768   6.869   0.587  0.2260  0.0412  0.1080
 9131SOL    HW128993   3.767   6.769   0.589  1.0663 -0.0802 -2.2780
 9131SOL    HW228994   3.862   6.901   0.584 -0.0494  0.7939 -1.2139
 9132SOL     OW28995   2.994   1.052   5.945 -0.2144 -0.2081  0.6294
 9132SOL    HW128996   3.044   1.001   6.015  0.5510 -0.1878  0.1049
 9132SOL    HW228997   2.990   1.149   5.971  1.1144  0.0062  0.0682
 9133SOL     OW28998   0.271   5.462   2.926  0.4713 -0.7429  0.2673
 9133SOL    HW128999   0.247   5.439   2.832  2.0248  0.7831 -0.5543
 9133SOL    HW229000   0.188   5.461   2.983 -0.9796  0.8143 -1.6667
 9134SOL     OW29001   1.799   5.987   5.594 -0.0484 -0.5267 -0.2181
 9134SOL    HW129002   1.830   6.049   5.523  1.2837 -0.6254  0.2443
 9134SOL    HW229003   1.705   5.959   5.576  0.1534 -0.2811 -1.7307
 9135SOL     OW29004   2.142   6.907   0.172  0.2258 -0.2573  0.2320
 9135SOL    HW129005   2.105   6.959   0.095  0.9538 -0.1834 -0.0732
 9135SOL    HW229006   2.233   6.941   0.194  1.0108 -1.8703 -0.4310
 9136SOL     OW29007   3.421   4.925   1.314 -0.0604  0.0363 -0.5405
 9136SOL    HW129008   3.461   4.859   1.250  0.2207 -0.4314  0.1057
 9136SOL    HW229009   3.404   4.881   1.402 -1.6036  0.3412 -0.6485
 9137SOL     OW29010   1.092   4.873   1.790 -0.3160 -0.1532  0.1699
 9137SOL    HW129011   1.047   4.839   1.708 -0.7625  1.1242 -0.1281
 9137SOL    HW229012   1.174   4.924   1.765  0.4452 -1.1066  0.6258
 9138SOL     OW29013   4.559   2.636   2.033 -0.1001 -0.0431  0.4571
 9138SOL    HW129014   4.558   2.682   1.944 -1.4978 -2.7727 -1.0580
 9138SOL    HW229015   4.652   2.639   2.071 -0.1004  3.9411  0.5546
 9139SOL     OW29016   5.411   1.906   1.559  0.1859 -0.1484  0.5406
 9139SOL    HW129017   5.363   1.832   1.512  1.2643 -1.1194  0.8947
 9139SOL    HW229018   5.412   1.887   1.658  0.9793  0.0240  0.5732
 9140SOL     OW29019   4.307   0.385   5.727  0.4579  0.4441  0.3214
 9140SOL    HW129020   4.401   0.412   5.748  1.1725 -1.8091  0.2825
 9140SOL    HW229021   4.308   0.302   5.671 -1.5450  1.7351 -1.7688
 9141SOL     OW29022   2.631   4.586   4.924 -0.1596  0.8098  0.1915
 9141SOL    HW129023   2.598   4.496   4.896 -2.4551  2.3481 -2.4979
 9141SOL    HW229024   2.568   4.625   4.992 -0.0080  0.9897  0.2308
 9142SOL     OW29025   6.382   4.099   6.732 -0.5955  0.2699  0.0349
 9142SOL    HW129026   6.303   4.151   6.699 -1.3624  0.4852  2.0503
 9142SOL    HW229027   6.462   4.121   6.676 -1.0212  3.1720  0.3805
 9143SOL     OW29028   1.503   1.994   5.402 -0.9050  0.5922 -0.4575
 9143SOL    HW129029   1.406   2.000   5.422 -1.0389 -1.4436 -0.3228
 9143SOL    HW229030   1.517   1.989   5.303 -0.9316  0.9489 -0.4793
 9144SOL     OW29031   6.270   1.344   2.173 -0.2231 -0.1202 -0.6003
 9144SOL    HW129032   6.182   1.298   2.163 -1.2399  1.6191 -0.1754
 9144SOL    HW229033   6.294   1.390   2.087 -0.3373  0.3878 -0.3668
 9145SOL     OW29034   1.757   5.717   2.499 -0.2173  0.1074 -0.1042
 9145SOL    HW129035   1.793   5.642   2.443  1.0370 -0.0819  0.8849
 9145SOL    HW229036   1.684   5.682   2.558 -0.7942  0.0601 -0.8376
 9146SOL     OW29037   3.853   5.652   2.682 -0.2806 -0.2256 -0.0126
 9146SOL    HW129038   3.793   5.589   2.733 -2.8130  1.2791 -0.9289
 9146SOL    HW229039   3.903   5.710   2.747  0.3618 -1.6248  0.7863
 9147SOL     OW29040   5.423   0.759   4.645  0.5280  0.1066 -0.0860
 9147SOL    HW129041   5.412   0.839   4.587 -0.0993  0.6893  0.8200
 9147SOL    HW229042   5.342   0.701   4.638 -1.1272  1.8475  2.6846
 9148SOL     OW29043   6.681   1.394   3.725  0.4087  0.2648  0.5129
 9148SOL    HW129044   6.681   1.464   3.796  0.8457  1.1583 -0.3476
 9148SOL    HW229045   6.770   1.348   3.723  0.5756  0.5989  0.2022
 9149SOL     OW29046   2.635   6.118   1.520  0.4480  0.4828  0.2700
 9149SOL    HW129047   2.697   6.059   1.572  1.0131  1.5431  0.8328
 9149SOL    HW229048   2.582   6.174   1.583 -0.4994  0.1890 -0.2415
 9150SOL     OW29049   4.382   3.362   0.410 -0.3022 -0.1807 -0.1573
 9150SOL    HW129050   4.347   3.454   0.392  1.4310  0.2780 -1.4648
 9150SOL    HW229051   4.370   3.306   0.328  1.9003 -0.0068 -0.6554
 9151SOL     OW29052   2.716   6.662   2.283 -0.1742  0.1200 -0.0588
 9151SOL    HW129053   2.621   6.691   2.277  0.1301  0.9380 -1.3256
 9151SOL    HW229054   2.776   6.740   2.264  0.8335  0.1732  2.8093
 9152SOL     OW29055   6.446   1.270   3.590  0.1889  0.2671  0.3580
 9152SOL    HW129056   6.532   1.316   3.612  1.0573 -0.4486 -1.3720
 9152SOL    HW229057   6.464   1.173   3.572 -0.5015  0.6060 -2.5753
 9153SOL     OW29058   2.851   4.238   5.741 -0.2680  0.1063  0.1634
 9153SOL    HW129059   2.948   4.232   5.762  0.2333  0.1073 -2.0029
 9153SOL    HW229060   2.835   4.215   5.645 -2.0475  2.9365 -0.3390
 9154SOL     OW29061   3.959   4.941   1.323  0.2755 -0.5803  0.2362
 9154SOL    HW129062   3.949   4.921   1.225 -0.7160 -1.9684  0.5845
 9154SOL    HW229063   3.983   5.037   1.335  2.2725 -0.7930 -1.4422
 9155SOL     OW29064   2.001   5.773   2.951  0.2092 -0.1841  0.3988
 9155SOL    HW129065   2.072   5.786   3.020 -1.3322 -0.7744  2.1774
 9155SOL    HW229066   2.005   5.679   2.917 -0.8744 -0.8261  1.9309
 9156SOL     OW29067   0.060   2.469   6.745  0.0875 -0.0579  0.3680
 9156SOL    HW129068   0.075   2.490   6.841  0.4248 -0.5303  0.4249
 9156SOL    HW229069   0.052   2.369   6.734  1.2804 -0.1012 -0.2490
 9157SOL     OW29070   6.889   5.658   2.869  0.3672 -0.1153 -0.0064
 9157SOL    HW129071   6.905   5.632   2.774 -1.6894  0.1983 -0.4946
 9157SOL    HW229072   6.907   5.579   2.929 -0.3993 -0.9954 -0.8961
 9158SOL     OW29073   6.853   5.821   4.057 -0.2377  0.0724 -0.1336
 9158SOL    HW129074   6.840   5.810   3.959 -0.5396 -0.1645 -0.0676
 9158SOL    HW229075   6.917   5.896   4.074 -0.4946  0.3824 -0.5024
 9159SOL     OW29076   6.766   2.376   5.673  0.4337 -0.3570  0.1402
 9159SOL    HW129077   6.788   2.308   5.603 -0.9927  0.4906 -1.1895
 9159SOL    HW229078   6.670   2.402   5.665  0.9066  1.7207  0.6833
 9160SOL     OW29079   3.555   1.232   6.179 -0.5553 -0.2958  0.5455
 9160SOL    HW129080   3.625   1.241   6.108 -0.2170  0.8653  0.9940
 9160SOL    HW229081   3.563   1.142   6.222 -1.0479 -1.1932 -1.1535
 9161SOL     OW29082   1.832   0.647   4.761  0.1950 -0.4453  0.4296
 9161SOL    HW129083   1.856   0.680   4.670  0.4196  1.5907  1.1738
 9161SOL    HW229084   1.904   0.673   4.826 -2.0632  2.4613  2.0330
 9162SOL     OW29085   1.629   0.463   5.652  0.3731 -0.1316 -0.4581
 9162SOL    HW129086   1.690   0.438   5.577  0.0448 -2.3138 -0.0926
 9162SOL    HW229087   1.584   0.550   5.632  0.8157 -0.3133 -2.4488
 9163SOL     OW29088   1.116   3.070   5.045 -0.0962 -0.3307  0.6049
 9163SOL    HW129089   1.060   3.100   4.968  1.5897  2.7903  0.4009
 9163SOL    HW229090   1.208   3.109   5.036  1.1650 -2.6276  2.5278
 9164SOL     OW29091   5.057   1.804   5.031 -0.4542 -0.6096  0.8306
 9164SOL    HW129092   5.010   1.892   5.036  0.6217 -0.0232  0.8975
 9164SOL    HW229093   5.107   1.788   5.117  0.9450 -0.3529  0.0906
 9165SOL     OW29094   0.162   1.185   1.345  0.4272 -0.1112 -0.1171
 9165SOL    HW129095   0.234   1.127   1.384  0.6589 -0.1208 -0.5540
 9165SOL    HW229096   0.084   1.128   1.317 -0.3206  0.0303  1.5722
 9166SOL     OW29097   0.261   2.522   4.966 -0.0997  0.0293  0.0083
 9166SOL    HW129098   0.317   2.534   4.884  1.2062 -0.1881  0.8353
 9166SOL    HW229099   0.172   2.484   4.941 -0.0657  0.8075 -1.3969
 9167SOL     OW29100   2.491   4.383   5.815  0.3391  0.4225 -0.4485
 9167SOL    HW129101   2.500   4.320   5.738 -0.1288 -0.8061  0.4682
 9167SOL    HW229102   2.525   4.339   5.898 -1.3874  0.8076  0.4973
 9168SOL     OW29103   5.897   5.218   5.973 -0.2732 -0.0470 -0.5168
 9168SOL    HW129104   5.996   5.224   5.981 -0.2825 -1.0531  0.5814
 9168SOL    HW229105   5.869   5.123   5.964 -1.2998 -0.0950  2.2089
 9169SOL     OW29106   1.892   3.424   3.450 -0.3128  0.1190  0.0511
 9169SOL    HW129107   1.864   3.448   3.357 -1.3527  2.5713  0.9324
 9169SOL    HW229108   1.810   3.405   3.505  0.3074 -1.5897  0.4475
 9170SOL     OW29109   0.153   1.496   5.061  0.5496 -0.5989  0.1343
 9170SOL    HW129110   0.091   1.425   5.093 -0.9443  0.4070 -0.3970
 9170SOL    HW229111   0.116   1.586   5.085  2.5326  0.0359  1.0489
 9171SOL     OW29112   3.852   1.684   0.361 -0.8239 -0.2378  0.2647
 9171SOL    HW129113   3.936   1.654   0.314  0.3066  2.4367  0.4060
 9171SOL    HW229114   3.796   1.604   0.382  0.7973 -1.9608 -1.4959
 9172SOL     OW29115   3.220   5.263   4.680 -0.2427  0.0285  0.2051
 9172SOL    HW129116   3.262   5.187   4.729 -1.7039 -0.0751  1.3581
 9172SOL    HW229117   3.130   5.282   4.718 -0.2038  1.8935 -0.5166
 9173SOL     OW29118   4.046   5.688   4.114  0.1202 -0.2994  0.8791
 9173SOL    HW129119   4.096   5.743   4.182  0.2268 -1.6289  1.9202
 9173SOL    HW229120   4.081   5.594   4.114 -1.4895 -0.9400  0.7104
 9174SOL     OW29121   0.339   6.011   6.305  0.3652 -0.0513 -0.1897
 9174SOL    HW129122   0.240   6.008   6.319  0.0682  0.6956 -1.9081
 9174SOL    HW229123   0.376   5.918   6.306 -0.2550 -0.2978  1.0147
 9175SOL     OW29124   3.399   6.021   1.200 -0.0952  0.4844 -0.0961
 9175SOL    HW129125   3.428   5.975   1.285 -1.7638  0.2600  0.3749
 9175SOL    HW229126   3.333   5.964   1.152 -1.4799  1.9390  0.0048
 9176SOL     OW29127   6.623   0.475   3.528  0.1448 -0.2583 -0.0225
 9176SOL    HW129128   6.717   0.443   3.543  0.1600 -0.1690  0.0755
 9176SOL    HW229129   6.569   0.457   3.610  0.5563  1.4257  0.6562
 9177SOL     OW29130   0.582   5.759   0.105  0.0639 -0.1305 -0.0017
 9177SOL    HW129131   0.553   5.698   0.032  0.6973  0.1907 -0.5394
 9177SOL    HW229132   0.620   5.843   0.065  3.9541 -1.4530  0.4561
 9178SOL     OW29133   1.997   6.211   3.709  0.4535 -0.3365 -1.2671
 9178SOL    HW129134   1.978   6.202   3.612  1.6195  0.7009 -1.6282
 9178SOL    HW229135   2.096   6.203   3.724  0.3605  0.2144 -0.2710
 9179SOL     OW29136   4.400   0.916   3.007  0.2298 -0.2712  0.2605
 9179SOL    HW129137   4.462   0.987   3.040  0.6365 -0.3863 -0.2429
 9179SOL    HW229138   4.432   0.827   3.040 -1.2612 -0.1030  2.3926
 9180SOL     OW29139   3.230   1.260   6.653 -0.4688 -0.0176 -0.4797
 9180SOL    HW129140   3.210   1.350   6.616 -1.3869 -0.5391 -1.3122
 9180SOL    HW229141   3.326   1.238   6.638 -0.1617  0.9307  0.0128
 9181SOL     OW29142   3.842   4.052   0.346  0.7093 -0.0101 -0.3925
 9181SOL    HW129143   3.834   4.077   0.443  0.6969 -1.4274  0.0009
 9181SOL    HW229144   3.937   4.063   0.317  1.0069 -0.9007  0.1950
 9182SOL     OW29145   4.677   3.749   5.042 -0.3918  0.5119  0.1097
 9182SOL    HW129146   4.718   3.672   5.090  0.4007 -0.0462 -1.3670
 9182SOL    HW229147   4.579   3.733   5.028 -0.3390  0.0369  0.2953
 9183SOL     OW29148   6.580   0.784   1.744  0.1192 -0.6407 -0.4770
 9183SOL    HW129149   6.543   0.826   1.661  1.5798 -0.2851 -0.9717
 9183SOL    HW229150   6.656   0.724   1.720  0.5738 -0.5152  0.6065
 9184SOL     OW29151   1.176   3.495   5.082  0.3305  0.7292  0.3118
 9184SOL    HW129152   1.096   3.506   5.022 -1.8136 -0.9480  2.6454
 9184SOL    HW229153   1.162   3.545   5.167  1.8736  0.5320  0.7196
 9185SOL     OW29154   6.677   5.084   4.512  0.0072 -0.4301  0.4183
 9185SOL    HW129155   6.724   5.014   4.566 -1.2549 -2.0635 -0.5191
 9185SOL    HW229156   6.745   5.138   4.462  0.9700 -1.5962  0.4195
 9186SOL     OW29157   0.791   2.633   2.618 -0.8351 -0.0012  0.3769
 9186SOL    HW129158   0.827   2.555   2.567 -1.0922  0.7332 -0.9746
 9186SOL    HW229159   0.817   2.624   2.715 -0.6686 -1.6238  0.2154
 9187SOL     OW29160   2.376   6.533   0.298  0.4158  0.4230 -0.0837
 9187SOL    HW129161   2.426   6.448   0.311  0.7420  0.6380  0.0846
 9187SOL    HW229162   2.311   6.545   0.373  2.3707  1.7140  1.5192
 9188SOL     OW29163   3.612   2.116   3.954  0.1458 -0.0275  0.3558
 9188SOL    HW129164   3.596   2.042   4.020  0.3631 -1.3594 -1.0437
 9188SOL    HW229165   3.532   2.125   3.895  0.3345  0.5092  0.1788
 9189SOL     OW29166   6.100   4.811   0.063  0.1069 -0.1061  0.5259
 9189SOL    HW129167   6.014   4.859   0.074  0.3280  0.3626  0.2443
 9189SOL    HW229168   6.100   4.760  -0.024 -0.2560 -0.8932  0.9798
 9190SOL     OW29169   1.594   4.294   6.824 -0.1889  0.4284 -0.8209
 9190SOL    HW129170   1.629   4.350   6.749  1.8379  0.8245  0.3223
 9190SOL    HW229171   1.552   4.353   6.893  2.6847  0.8061  0.7779
 9191SOL     OW29172   3.609   0.476   0.402 -0.0406 -0.9293 -0.0903
 9191SOL    HW129173   3.678   0.451   0.335  2.0974 -2.5116  2.4903
 9191SOL    HW229174   3.578   0.394   0.450 -1.9722  0.0573  0.4558
 9192SOL     OW29175   0.726   4.466   3.781  0.3818 -0.3421  0.1691
 9192SOL    HW129176   0.643   4.495   3.734  0.5641 -0.4160 -0.1998
 9192SOL    HW229177   0.762   4.383   3.737 -0.1981 -1.2201  1.2724
 9193SOL     OW29178   6.892   0.333   6.394 -0.9074 -0.9107 -0.5311
 9193SOL    HW129179   6.914   0.383   6.310  0.4982 -1.2153 -0.3605
 9193SOL    HW229180   6.943   0.247   6.395 -0.0715 -0.4327  1.1221
 9194SOL     OW29181   1.159   1.954   3.542 -0.3185  0.8447  0.0063
 9194SOL    HW129182   1.119   2.046   3.534 -0.3475  0.8395  0.0919
 9194SOL    HW229183   1.086   1.886   3.533 -0.1874  0.8073 -0.8691
 9195SOL     OW29184   6.370   6.288   1.898 -0.2658  0.3732 -0.2044
 9195SOL    HW129185   6.285   6.236   1.903 -0.0741  0.1347  0.6451
 9195SOL    HW229186   6.383   6.339   1.983 -0.1276  1.3091 -0.7769
 9196SOL     OW29187   0.424   3.614   4.950  0.3209  0.0902 -0.5296
 9196SOL    HW129188   0.505   3.668   4.926  0.6917 -0.9872 -1.7980
 9196SOL    HW229189   0.370   3.597   4.868 -0.5402 -0.2787  0.1007
 9197SOL     OW29190   0.945   4.379   2.708  0.3611 -0.4781 -0.2613
 9197SOL    HW129191   0.888   4.379   2.626 -2.3764  2.0677  1.4391
 9197SOL    HW229192   0.908   4.312   2.773  1.3500 -1.1137 -0.3297
 9198SOL     OW29193   6.548   3.599   3.395  0.6630 -0.4207 -0.0027
 9198SOL    HW129194   6.501   3.687   3.387  0.2723 -0.6548 -0.3519
 9198SOL    HW229195   6.480   3.526   3.404  0.9971 -0.5880  1.3910
 9199SOL     OW29196   1.236   3.570   6.669  0.0990  0.5164  0.7307
 9199SOL    HW129197   1.265   3.643   6.606  0.1727 -0.1532 -0.0250
 9199SOL    HW229198   1.265   3.594   6.762  2.7356  0.1140  0.1008
 9200SOL     OW29199   0.435   0.950   4.366 -0.5619 -0.1867 -0.1174
 9200SOL    HW129200   0.524   0.920   4.332 -1.2648 -2.0782 -0.3941
 9200SOL    HW229201   0.427   0.929   4.463 -0.2073  1.2840  0.2639
 9201SOL     OW29202   5.767   6.252   6.893 -0.8332 -0.1942  0.1941
 9201SOL    HW129203   5.680   6.299   6.881  0.4602  2.5047  0.3719
 9201SOL    HW229204   5.807   6.278   6.981  1.0376  0.3435 -0.7392
 9202SOL     OW29205   4.430   2.591   5.141 -0.3248 -0.4330  0.2990
 9202SOL    HW129206   4.367   2.573   5.065  0.4625  0.5234 -0.6139
 9202SOL    HW229207   4.409   2.679   5.181  0.7169  0.1349 -0.3453
 9203SOL     OW29208   5.220   3.312   6.654 -0.5560  0.1706 -0.1498
 9203SOL    HW129209   5.276   3.382   6.698  0.0638 -0.0518 -0.5734
 9203SOL    HW229210   5.123   3.333   6.669 -0.3795 -0.0830  1.5995
 9204SOL     OW29211   4.754   5.780   2.810  0.1256  0.5048 -0.3596
 9204SOL    HW129212   4.811   5.697   2.811 -0.3969  0.1182 -1.1295
 9204SOL    HW229213   4.811   5.860   2.823  0.4140 -0.0731  2.4699
 9205SOL     OW29214   5.691   6.584   1.550  0.4084 -0.6556 -0.0122
 9205SOL    HW129215   5.644   6.552   1.468  2.1292  1.7112 -2.0752
 9205SOL    HW229216   5.753   6.513   1.583  2.4030 -0.5248 -3.0299
 9206SOL     OW29217   2.674   1.769   4.021  0.0453 -0.1676  0.4477
 9206SOL    HW129218   2.635   1.680   3.997  1.9481 -0.9297  0.0816
 9206SOL    HW229219   2.604   1.824   4.066 -0.8981 -2.1947  1.5891
 9207SOL     OW29220   4.325   3.976   4.930 -0.2103 -0.1436  0.0820
 9207SOL    HW129221   4.372   3.888   4.936 -0.8948 -0.5904 -0.8876
 9207SOL    HW229222   4.381   4.041   4.877  0.3369  0.0457  0.8775
 9208SOL     OW29223   6.229   5.985   2.464 -0.1181  0.5066  0.1281
 9208SOL    HW129224   6.279   5.981   2.551 -0.7031 -0.1327  0.4468
 9208SOL    HW229225   6.193   6.077   2.450  0.1110  0.6532  0.4847
 9209SOL     OW29226   4.879   3.756   4.167 -0.0372  0.1316  0.2963
 9209SOL    HW129227   4.850   3.792   4.256  0.4352  0.8985  0.1564
 9209SOL    HW229228   4.803   3.707   4.124  0.3800 -2.2588  2.0933
 9210SOL     OW29229   3.146   3.609   3.692  0.4192  0.4554  0.0261
 9210SOL    HW129230   3.234   3.655   3.706  0.8398 -0.0493 -0.9388
 9210SOL    HW229231   3.145   3.523   3.744 -0.2805  1.3887  1.6441
 9211SOL     OW29232   3.668   1.486   0.377  0.2290  0.1916 -0.3350
 9211SOL    HW129233   3.618   1.441   0.303 -0.9337  2.0164 -0.7158
 9211SOL    HW229234   3.604   1.510   0.450  1.1734 -0.5350  0.7745
 9212SOL     OW29235   3.145   0.908   2.189  0.4319 -1.6205 -0.5740
 9212SOL    HW129236   3.141   0.997   2.143  1.0483 -1.4786 -0.3557
 9212SOL    HW229237   3.169   0.921   2.285  1.1763 -2.0660 -0.6889
 9213SOL     OW29238   3.681   1.490   1.499  0.3638 -0.2765 -0.3701
 9213SOL    HW129239   3.703   1.417   1.564 -0.1757 -0.0988  0.0165
 9213SOL    HW229240   3.765   1.542   1.478  0.6901 -0.8106 -0.4169
 9214SOL     OW29241   5.568   5.690   1.916  0.3692 -0.0191  0.6196
 9214SOL    HW129242   5.519   5.635   1.849 -2.1894  0.1981  2.1978
 9214SOL    HW229243   5.665   5.694   1.891 -0.2448 -0.9589 -2.3261
 9215SOL     OW29244   7.021   2.426   6.065  0.0563  0.6543 -0.1312
 9215SOL    HW129245   7.007   2.460   5.972  0.0233  0.1973 -0.2936
 9215SOL    HW229246   6.940   2.375   6.094  0.6690 -0.5346 -0.4357
 9216SOL     OW29247   6.444   5.809   3.698  0.0836 -0.0742  0.3091
 9216SOL    HW129248   6.409   5.834   3.608  1.3774  2.9687  0.5225
 9216SOL    HW229249   6.381   5.842   3.768  0.7218  0.6260  0.5657
 9217SOL     OW29250   0.208   5.539   4.822  0.3675 -0.1015  0.2313
 9217SOL    HW129251   0.171   5.505   4.908  2.5496 -1.0595  0.8543
 9217SOL    HW229252   0.167   5.487   4.746 -3.1514  2.1103  0.3572
 9218SOL     OW29253   3.452   3.678   5.412 -0.2083 -0.2548 -0.1042
 9218SOL    HW129254   3.521   3.750   5.405  0.3557 -0.5717  1.6753
 9218SOL    HW229255   3.490   3.592   5.378 -0.4164 -0.0127 -0.9624
 9219SOL     OW29256   0.151   2.706   1.959 -0.3852 -0.0955  0.2530
 9219SOL    HW129257   0.070   2.688   1.903 -1.0278  0.6873  0.8969
 9219SOL    HW229258   0.171   2.626   2.015 -0.2227 -0.5870 -0.4864
 9220SOL     OW29259   6.332   2.941   2.819  0.4488 -0.0340 -0.5120
 9220SOL    HW129260   6.385   2.858   2.839 -1.4062 -1.0560  0.4251
 9220SOL    HW229261   6.264   2.921   2.748  0.1184  0.7447 -0.4231
 9221SOL     OW29262   6.942   0.188   4.230 -0.3203 -0.5557  0.7325
 9221SOL    HW129263   7.034   0.213   4.201 -0.2483 -0.3816  1.1027
 9221SOL    HW229264   6.947   0.131   4.312 -0.4343 -2.6618 -0.6365
 9222SOL     OW29265   5.111   5.702   6.017 -0.6703  0.1620 -0.1885
 9222SOL    HW129266   5.096   5.801   6.020  1.0429  0.4328  0.2969
 9222SOL    HW229267   5.146   5.676   5.927  0.6144  0.2821  0.2651
 9223SOL     OW29268   4.068   5.711   6.721 -0.0797  0.0842 -0.0654
 9223SOL    HW129269   4.168   5.720   6.725  0.0829 -1.0853 -0.8110
 9223SOL    HW229270   4.026   5.801   6.725  0.9561  0.5464  1.3360
 9224SOL     OW29271   3.489   3.238   3.338 -0.1310 -0.0662 -0.6065
 9224SOL    HW129272   3.560   3.290   3.290  0.4036  1.0427  1.2652
 9224SOL    HW229273   3.506   3.242   3.436  0.2913 -4.4215 -0.3453
 9225SOL     OW29274   5.837   0.222   2.085 -0.1618 -0.2126  0.2612
 9225SOL    HW129275   5.773   0.290   2.120  0.8180  1.4538 -1.0486
 9225SOL    HW229276   5.895   0.189   2.160  0.0213  1.1691  0.7525
 9226SOL     OW29277   0.702   0.349   2.298 -0.2878 -0.2193 -0.2943
 9226SOL    HW129278   0.715   0.415   2.373  1.1038  1.5677 -1.9909
 9226SOL    HW229279   0.763   0.271   2.313  2.7754  1.7949 -1.2462
 9227SOL     OW29280   2.401   3.320   3.514  1.2598 -0.0034 -0.2668
 9227SOL    HW129281   2.461   3.332   3.593  1.3482 -2.5759  0.1425
 9227SOL    HW229282   2.310   3.355   3.535  2.1688  2.6753 -0.4029
 9228SOL     OW29283   3.289   5.395   3.118 -0.3535  0.0406  0.3005
 9228SOL    HW129284   3.315   5.370   3.211 -1.2936  0.4490  0.6964
 9228SOL    HW229285   3.322   5.487   3.098 -2.5759  1.1509  1.3283
 9229SOL     OW29286   0.027   5.592   3.137  0.5985 -0.0845  0.1556
 9229SOL    HW129287   0.080   5.573   3.220  0.9159  0.0253 -0.0203
 9229SOL    HW229288   0.065   5.672   3.091  1.5032 -1.1486 -1.0173
 9230SOL     OW29289   3.710   4.764   6.777 -0.2103  0.0971  0.6363
 9230SOL    HW129290   3.807   4.773   6.802 -0.3052  0.0265  1.0483
 9230SOL    HW229291   3.684   4.668   6.783  0.0723 -0.0965 -0.9432
 9231SOL     OW29292   2.329   6.592   5.199  0.1916  0.5713  0.0483
 9231SOL    HW129293   2.347   6.660   5.270 -0.0139  1.5856 -0.8307
 9231SOL    HW229294   2.313   6.639   5.112  1.6340 -0.6679 -0.9477
 9232SOL     OW29295   6.076   4.377   0.395 -0.2263  0.4822 -0.2481
 9232SOL    HW129296   6.169   4.342   0.406 -0.1742  1.0307  1.1874
 9232SOL    HW229297   6.037   4.398   0.484 -1.8418  0.0141 -0.8164
 9233SOL     OW29298   0.589   4.991   4.776 -0.6063  0.2997 -0.1689
 9233SOL    HW129299   0.634   5.007   4.688  0.2591  2.2949  0.5798
 9233SOL    HW229300   0.657   4.963   4.844 -1.0321  0.2011  0.2183
 9234SOL     OW29301   1.751   5.813   4.887 -0.0377 -0.3824 -0.1145
 9234SOL    HW129302   1.717   5.904   4.913  0.6522 -0.2720  0.4520
 9234SOL    HW229303   1.835   5.823   4.833  1.0777 -0.6793  1.4777
 9235SOL     OW29304   3.003   0.497   2.177  0.1055  0.0763 -0.5068
 9235SOL    HW129305   3.101   0.498   2.198  0.6188 -3.7821 -1.9888
 9235SOL    HW229306   2.953   0.453   2.251 -0.1987 -0.0581 -0.7878
 9236SOL     OW29307   2.751   5.244   3.711  0.3289 -0.4827 -0.1918
 9236SOL    HW129308   2.786   5.337   3.718 -1.5789  0.1858  1.6106
 9236SOL    HW229309   2.671   5.244   3.650 -0.6328 -0.5919  1.0442
 9237SOL     OW29310   1.679   5.604   2.960  0.9145  0.1224  0.4234
 9237SOL    HW129311   1.667   5.702   2.974  0.7259  0.0755  0.5934
 9237SOL    HW229312   1.740   5.567   3.030  1.4178  0.2148  0.0375
 9238SOL     OW29313   3.104   5.184   3.456  0.0865  0.0323 -0.2667
 9238SOL    HW129314   3.096   5.231   3.543  1.5367 -1.7534  0.8923
 9238SOL    HW229315   3.135   5.249   3.386 -0.6766  1.3822  0.6030
 9239SOL     OW29316   5.527   1.395   1.702 -0.3454 -0.0157  0.3219
 9239SOL    HW129317   5.478   1.409   1.789  1.5710 -1.2555  1.6937
 9239SOL    HW229318   5.575   1.480   1.677 -0.3010  0.1369  0.9023
 9240SOL     OW29319   0.054   3.687   2.401 -0.1385  0.2851 -0.0056
 9240SOL    HW129320   0.135   3.663   2.455 -0.1396  3.4638  1.6344
 9240SOL    HW229321  -0.025   3.695   2.461 -1.3741 -1.1269 -1.3468
 9241SOL     OW29322   0.144   6.434   2.144  0.4750  0.0758 -0.1012
 9241SOL    HW129323   0.228   6.445   2.090 -0.1866 -1.3126 -1.4863
 9241SOL    HW229324   0.092   6.520   2.142  2.6790  1.5959  2.3518
 9242SOL     OW29325   5.663   5.890   2.626  0.1111 -0.0959  0.3670
 9242SOL    HW129326   5.579   5.845   2.598 -0.0052 -0.9448  1.9704
 9242SOL    HW229327   5.642   5.966   2.688  0.4124  1.1737 -1.0222
 9243SOL     OW29328   5.114   2.295   0.715 -0.4186  0.3785  0.0439
 9243SOL    HW129329   5.199   2.302   0.766 -0.1691 -0.4258 -0.2534
 9243SOL    HW229330   5.064   2.213   0.743 -1.6506  1.4312  1.0289
 9244SOL     OW29331   3.052   4.518   2.163  0.2319 -0.0307 -0.3646
 9244SOL    HW129332   2.955   4.540   2.155 -0.1899 -0.9797  1.4162
 9244SOL    HW229333   3.063   4.418   2.161  1.1731  0.0722 -0.6093
 9245SOL     OW29334   3.969   0.117   3.694 -0.3719  0.0018  0.3286
 9245SOL    HW129335   3.990   0.078   3.784  1.3822 -0.1852 -0.1328
 9245SOL    HW229336   3.877   0.156   3.696 -0.6659 -0.6749  1.9702
 9246SOL     OW29337   0.984   0.395   1.641  0.3562 -0.0175  0.6184
 9246SOL    HW129338   1.061   0.456   1.658  0.7872  0.2226 -1.8678
 9246SOL    HW229339   0.915   0.442   1.586  0.1104 -1.3419 -0.2614
 9247SOL     OW29340   3.950   6.994   1.260 -0.9617  0.4525  0.0175
 9247SOL    HW129341   3.931   7.051   1.180  0.6290  0.5027 -0.3489
 9247SOL    HW229342   3.885   7.016   1.333 -1.1505  1.8521 -0.5497
 9248SOL     OW29343   6.015   6.953   2.879  0.0728  0.6326 -0.3161
 9248SOL    HW129344   6.101   6.936   2.927 -1.0860  0.7847  1.9499
 9248SOL    HW229345   6.028   6.938   2.781  2.1094 -1.5350  0.1890
 9249SOL     OW29346   2.812   2.700   5.920 -0.2137 -0.0141 -0.3895
 9249SOL    HW129347   2.748   2.627   5.946 -0.5245  0.3655 -0.0740
 9249SOL    HW229348   2.900   2.660   5.896  0.2788 -0.3743  1.7874
 9250SOL     OW29349   4.502   6.417   5.299  0.5131  0.0219 -0.6053
 9250SOL    HW129350   4.483   6.322   5.271  0.8290  0.4462 -2.3600
 9250SOL    HW229351   4.601   6.432   5.302  0.4992  0.9474 -2.8582
 9251SOL     OW29352   0.979   6.143   0.571 -0.4320  0.0055 -0.8431
 9251SOL    HW129353   0.980   6.198   0.487  3.2164 -1.5225 -1.9908
 9251SOL    HW229354   0.970   6.046   0.549  1.5607 -0.5204  0.3705
 9252SOL     OW29355   4.311   4.678   2.133 -0.0253 -0.7461 -0.0201
 9252SOL    HW129356   4.314   4.600   2.196  0.4154  0.4270  1.4797
 9252SOL    HW229357   4.290   4.761   2.184  4.4394  1.0106 -0.5433
 9253SOL     OW29358   4.312   5.098   4.152  0.4890 -0.1208 -0.0199
 9253SOL    HW129359   4.281   5.119   4.059 -2.6586  0.3074  0.9838
 9253SOL    HW229360   4.308   4.999   4.167 -2.2337 -0.0252  0.5132
 9254SOL     OW29361   6.724   5.950   4.253 -0.3048 -0.4076  0.1923
 9254SOL    HW129362   6.766   6.037   4.228  1.0195 -0.5344  1.8414
 9254SOL    HW229363   6.749   5.880   4.186 -0.8326  0.3073 -0.7724
 9255SOL     OW29364   3.390   0.712   3.915 -0.3760  0.0352  0.1895
 9255SOL    HW129365   3.407   0.793   3.859  1.4834 -0.2363  0.3253
 9255SOL    HW229366   3.292   0.691   3.913 -0.4144 -0.0090 -3.0219
 9256SOL     OW29367   6.758   6.054   0.207 -0.0874  0.2370  0.4100
 9256SOL    HW129368   6.765   5.958   0.234  0.4656  0.3213  0.5763
 9256SOL    HW229369   6.662   6.078   0.191 -0.0895 -0.9140 -1.6973
 9257SOL     OW29370   6.910   0.684   5.518 -0.0518  0.0840 -0.0914
 9257SOL    HW129371   6.821   0.689   5.474  0.3703 -0.3348 -1.0111
 9257SOL    HW229372   6.898   0.664   5.615 -1.0438  2.0269  0.2283
 9258SOL     OW29373   6.678   6.950   4.457  0.0653 -0.3376 -0.5112
 9258SOL    HW129374   6.623   6.964   4.539  0.3268 -0.2533 -0.3505
 9258SOL    HW229375   6.738   6.871   4.471 -0.6053 -0.9587 -0.9960
 9259SOL     OW29376   5.703   6.767   1.059 -0.0645  0.0849 -0.4974
 9259SOL    HW129377   5.791   6.730   1.088  0.3195  0.6031 -0.9703
 9259SOL    HW229378   5.629   6.721   1.108  0.3490 -1.7346 -1.5028
 9260SOL     OW29379   2.959   4.069   3.152 -0.0916  0.1967 -0.4237
 9260SOL    HW129380   2.873   4.080   3.201  0.1183 -1.6698  0.4565
 9260SOL    HW229381   3.034   4.109   3.206 -0.2255  0.6968 -0.5996
 9261SOL     OW29382   6.597   1.882   6.801 -0.7215  0.1933 -0.0893
 9261SOL    HW129383   6.643   1.969   6.813 -1.0271  0.4626 -0.8031
 9261SOL    HW229384   6.521   1.875   6.866 -0.5376  0.3428  0.1442
 9262SOL     OW29385   5.108   0.485   2.973 -0.0537  0.0919 -0.7417
 9262SOL    HW129386   5.171   0.445   2.906  0.0670  0.4657 -0.8517
 9262SOL    HW229387   5.161   0.523   3.049 -0.2429 -1.9591  0.4912
 9263SOL     OW29388   5.469   6.747   4.271  0.0489 -0.1722 -0.2872
 9263SOL    HW129389   5.543   6.802   4.234  1.1825  0.9847  3.2300
 9263SOL    HW229390   5.385   6.802   4.276 -0.1175 -0.3483 -1.1422
 9264SOL     OW29391   1.823   5.370   5.206 -0.0053 -0.1218 -0.2186
 9264SOL    HW129392   1.868   5.459   5.210  0.7572 -0.2757 -3.1385
 9264SOL    HW229393   1.785   5.357   5.114 -0.2130 -2.7634  0.1836
 9265SOL     OW29394   0.574   0.138   3.515 -0.2307 -0.3399 -0.2126
 9265SOL    HW129395   0.599   0.056   3.463 -0.4428 -0.2749 -0.4182
 9265SOL    HW229396   0.560   0.214   3.452  0.6962  0.0500  0.0301
 9266SOL     OW29397   1.694   0.229   0.046  0.6970  0.0499 -0.3654
 9266SOL    HW129398   1.673   0.194  -0.045  0.9824  0.7767 -0.7170
 9266SOL    HW229399   1.647   0.173   0.114  1.3671 -1.1945 -0.8869
 9267SOL     OW29400   7.027   0.840   0.095 -0.2582  0.1934 -0.1845
 9267SOL    HW129401   7.004   0.795   0.008 -1.8520  0.2590  0.1729
 9267SOL    HW229402   7.104   0.793   0.137 -0.4579 -0.8080 -0.8951
 9268SOL     OW29403   1.968   3.828   0.285 -0.0598 -0.3658 -0.1045
 9268SOL    HW129404   1.973   3.734   0.251  1.0149 -0.6478  0.7738
 9268SOL    HW229405   1.887   3.838   0.343 -0.1993 -0.7277 -0.2321
 9269SOL     OW29406   3.853   0.826   0.503  0.3647 -0.5045 -0.2148
 9269SOL    HW129407   3.879   0.749   0.562 -0.6907 -0.6543  0.0794
 9269SOL    HW229408   3.935   0.864   0.459  1.0332 -1.0823  0.5024
 9270SOL     OW29409   4.351   4.329   5.205 -0.0592  0.1320 -0.4948
 9270SOL    HW129410   4.378   4.425   5.212  1.8384 -0.1854 -2.4525
 9270SOL    HW229411   4.402   4.275   5.273  0.3813  0.2479 -0.7304
 9271SOL     OW29412   6.604   0.917   1.038 -0.4276  0.5089 -0.0408
 9271SOL    HW129413   6.518   0.927   1.088 -1.5896  1.9328 -2.1536
 9271SOL    HW229414   6.665   0.856   1.088 -2.7402 -0.7468  1.4233
 9272SOL     OW29415   5.499   0.979   4.456  0.0736 -0.4070  0.3737
 9272SOL    HW129416   5.425   0.991   4.389 -0.0003 -0.1699  0.4973
 9272SOL    HW229417   5.493   1.050   4.526  1.9632  1.2333 -1.0215
 9273SOL     OW29418   0.417   2.565   0.227 -0.3080 -0.0570  0.3614
 9273SOL    HW129419   0.387   2.480   0.183 -1.3943  0.9118 -0.8344
 9273SOL    HW229420   0.469   2.542   0.309 -0.4984 -1.8827  0.0301
 9274SOL     OW29421   6.255   4.562   0.599  0.6657  0.3637 -0.4822
 9274SOL    HW129422   6.342   4.569   0.550  0.4243 -1.0408 -1.1664
 9274SOL    HW229423   6.273   4.550   0.697  1.2510  0.0328 -0.6233
 9275SOL     OW29424   4.748   1.575   6.054 -0.1683 -0.0448  0.3366
 9275SOL    HW129425   4.665   1.625   6.028 -0.9313 -1.1665  0.5212
 9275SOL    HW229426   4.789   1.618   6.134  0.0130  1.1307 -0.3675
 9276SOL     OW29427   4.384   5.517   2.257 -0.2735  0.3468 -0.8354
 9276SOL    HW129428   4.363   5.451   2.185  0.6753 -0.6952 -0.2007
 9276SOL    HW229429   4.299   5.552   2.296 -0.8915 -2.1140  0.2342
 9277SOL     OW29430   2.721   4.910   4.403  0.1848  0.0631 -0.1590
 9277SOL    HW129431   2.634   4.955   4.384 -0.4426 -0.1321  1.9654
 9277SOL    HW229432   2.791   4.978   4.425  0.6465  0.2258 -1.9574
 9278SOL     OW29433   4.766   2.591   6.310  0.6727 -0.0250  0.5123
 9278SOL    HW129434   4.812   2.654   6.373  2.0248 -0.5453  0.0825
 9278SOL    HW229435   4.817   2.587   6.224 -1.4593  1.1365 -0.8978
 9279SOL     OW29436   4.127   5.151   0.619 -0.7517 -0.0492 -0.1308
 9279SOL    HW129437   4.172   5.071   0.579  1.6256  2.2708 -2.4794
 9279SOL    HW229438   4.184   5.188   0.692 -0.6780  0.7978 -0.6099
 9280SOL     OW29439   1.727   0.895   0.579 -0.0959 -0.5508  0.4512
 9280SOL    HW129440   1.687   0.806   0.555  0.3823 -1.1654  1.8197
 9280SOL    HW229441   1.777   0.886   0.665  0.9982  0.7666 -0.0252
 9281SOL     OW29442   5.361   6.905   0.277  0.8138  0.0445  0.0706
 9281SOL    HW129443   5.266   6.935   0.283  0.7531 -0.2400  0.6343
 9281SOL    HW229444   5.398   6.895   0.369  0.7135 -1.9345 -0.0605
 9282SOL     OW29445   7.009   6.094   6.299 -0.1087 -0.1462 -0.0350
 9282SOL    HW129446   7.002   6.107   6.200 -1.0262  0.4049  0.0905
 9282SOL    HW229447   7.063   6.169   6.338 -0.6131  0.2129 -0.0062
 9283SOL     OW29448   3.413   5.941   5.909 -0.7165 -0.1137 -0.0570
 9283SOL    HW129449   3.433   5.889   5.992 -0.9256  0.9319  0.6625
 9283SOL    HW229450   3.456   6.031   5.915  0.4470 -0.5075 -1.6955
 9284SOL     OW29451   6.009   3.906   6.517  0.5022  0.0087 -1.3592
 9284SOL    HW129452   6.034   3.825   6.464 -1.1553 -1.7033  0.3525
 9284SOL    HW229453   5.957   3.879   6.598  0.4827  2.7548 -0.3509
 9285SOL     OW29454   2.326   4.323   0.603 -0.0468 -0.0839  0.1631
 9285SOL    HW129455   2.233   4.359   0.618 -0.6239 -0.7498 -1.5032
 9285SOL    HW229456   2.322   4.248   0.537  1.5593 -0.9248  0.9661
 9286SOL     OW29457   5.356   5.934   6.135  0.1920  0.0849 -0.2371
 9286SOL    HW129458   5.323   5.854   6.184  0.6577  0.1071  0.1077
 9286SOL    HW229459   5.437   5.910   6.082 -1.8038 -0.6757 -3.2245
 9287SOL     OW29460   3.507   0.277   1.324 -0.0976  0.1861  0.0025
 9287SOL    HW129461   3.420   0.241   1.356 -0.2144 -0.1261 -0.6332
 9287SOL    HW229462   3.491   0.349   1.256  0.0143 -2.3829 -2.9955
 9288SOL     OW29463   2.190   3.291   1.073 -0.1083 -0.2497 -0.4373
 9288SOL    HW129464   2.104   3.244   1.055 -1.2368  1.8104 -0.7246
 9288SOL    HW229465   2.263   3.247   1.021 -0.4774 -3.3495  1.3940
 9289SOL     OW29466   3.533   1.476   3.152  0.1278  0.5487  0.0209
 9289SOL    HW129467   3.534   1.450   3.056 -0.8052  1.3702 -0.2290
 9289SOL    HW229468   3.617   1.526   3.175  0.3917  0.2707 -0.3390
 9290SOL     OW29469   0.017   6.825   1.259  0.3953 -0.5322  0.0176
 9290SOL    HW129470   0.072   6.842   1.177 -0.3965  0.3740 -0.3381
 9290SOL    HW229471  -0.066   6.880   1.256  1.5721  1.6215  2.6636
 9291SOL     OW29472   6.434   6.487   5.216  0.4780 -0.1236  0.2551
 9291SOL    HW129473   6.525   6.468   5.252  0.1344  0.0515  1.2396
 9291SOL    HW229474   6.365   6.450   5.278 -0.1623  1.7488  0.7214
 9292SOL     OW29475   1.993   0.726   4.958 -0.0804  0.4283 -0.0652
 9292SOL    HW129476   1.980   0.636   4.999 -1.3316  0.0328 -1.2486
 9292SOL    HW229477   1.981   0.797   5.027 -0.1033 -0.2720  0.6637
 9293SOL     OW29478   6.274   0.719   4.954 -0.1217 -0.5425  0.2881
 9293SOL    HW129479   6.180   0.745   4.931  0.0426 -0.3198 -0.1448
 9293SOL    HW229480   6.329   0.719   4.871  0.2820 -0.5827  0.5564
 9294SOL     OW29481   3.480   5.216   4.211  0.3297 -0.1345  0.4098
 9294SOL    HW129482   3.445   5.126   4.183 -2.2509  0.7858  0.3298
 9294SOL    HW229483   3.455   5.233   4.306 -1.8886  1.5898 -0.3934
 9295SOL     OW29484   4.088   6.431   6.779  0.6533 -0.2659  0.6707
 9295SOL    HW129485   4.108   6.499   6.709  1.1685 -1.3365 -0.2533
 9295SOL    HW229486   3.988   6.420   6.787  0.4598  1.9316  2.2005
 9296SOL     OW29487   4.223   5.813   4.311  0.1064  0.1534  0.7818
 9296SOL    HW129488   4.316   5.783   4.287 -0.2494 -1.6547  1.4891
 9296SOL    HW229489   4.218   5.913   4.307  1.1378  0.1840 -2.5645
 9297SOL     OW29490   3.351   0.691   6.271  0.3026 -0.1031 -0.1255
 9297SOL    HW129491   3.424   0.750   6.234  1.2120 -0.0927  1.5785
 9297SOL    HW229492   3.390   0.631   6.341 -1.4018  0.1175  1.0469
 9298SOL     OW29493   4.129   2.630   0.779 -0.4025  0.3782  0.3250
 9298SOL    HW129494   4.133   2.594   0.872  1.3290  1.0997  0.5642
 9298SOL    HW229495   4.089   2.561   0.718 -1.8218  0.0057  1.6177
 9299SOL     OW29496   1.384   5.682   0.563  0.0260  0.5427  0.1627
 9299SOL    HW129497   1.472   5.662   0.607 -0.2094 -1.3785 -0.1385
 9299SOL    HW229498   1.379   5.780   0.542  0.8391  1.2650  2.8556
 9300SOL     OW29499   5.233   0.232   0.659  0.1653 -0.0775 -0.5177
 9300SOL    HW129500   5.168   0.301   0.628 -0.5061 -1.0867 -1.4033
 9300SOL    HW229501   5.317   0.277   0.690 -0.1882  1.1199 -1.2515
 9301SOL     OW29502   1.046   3.147   5.650  0.5360  0.0464  0.1805
 9301SOL    HW129503   0.956   3.162   5.692  0.5853  0.4033  0.1639
 9301SOL    HW229504   1.060   3.215   5.578  0.9024  0.1071  0.3121
 9302SOL     OW29505   2.906   0.732   2.521 -0.1231 -0.1610 -0.3843
 9302SOL    HW129506   2.938   0.638   2.510 -1.6252 -0.5687 -1.6292
 9302SOL    HW229507   2.812   0.739   2.488  0.0922  1.8808 -0.6883
 9303SOL     OW29508   1.592   3.658   1.874 -0.2242 -0.3133  0.2797
 9303SOL    HW129509   1.567   3.568   1.839  1.1144 -0.5901 -0.0298
 9303SOL    HW229510   1.571   3.727   1.805  1.2701 -0.7222 -0.6529
 9304SOL     OW29511   6.438   3.125   0.133  0.2140 -0.3351  0.1087
 9304SOL    HW129512   6.457   3.083   0.222 -1.9815 -2.0686 -0.1360
 9304SOL    HW229513   6.408   3.219   0.146  0.7664 -0.2853  1.1147
 9305SOL     OW29514   5.236   3.743   1.243  0.2789  0.1166  0.6338
 9305SOL    HW129515   5.253   3.677   1.317  0.3898  0.1450  0.6341
 9305SOL    HW229516   5.245   3.836   1.279  0.9288  0.1272  0.4446
 9306SOL     OW29517   0.976   2.976   1.031  0.0200  0.0656 -0.0177
 9306SOL    HW129518   0.894   2.919   1.024  0.2304 -0.3101  0.5543
 9306SOL    HW229519   1.037   2.938   1.100  0.9648 -0.0090 -0.8754
 9307SOL     OW29520   4.776   1.452   5.115  0.4226  0.5052 -0.1163
 9307SOL    HW129521   4.779   1.542   5.159 -0.4734  1.3361 -1.6398
 9307SOL    HW229522   4.682   1.419   5.112  0.2391  1.0283 -2.3317
 9308SOL     OW29523   4.369   5.217   5.407  0.0148  0.3705  0.0494
 9308SOL    HW129524   4.270   5.230   5.407 -0.1331 -0.6151 -0.9118
 9308SOL    HW229525   4.404   5.230   5.314  0.7987  0.7836  0.3946
 9309SOL     OW29526   6.446   3.576   2.964  0.1375 -0.2424 -0.0274
 9309SOL    HW129527   6.495   3.567   3.050  1.2134 -3.1137 -0.8311
 9309SOL    HW229528   6.506   3.619   2.896  0.0757 -0.0037  0.0684
 9310SOL     OW29529   4.573   2.295   0.192  0.2414 -0.0634  0.0170
 9310SOL    HW129530   4.554   2.209   0.144 -1.1281 -0.7260  1.6361
 9310SOL    HW229531   4.505   2.364   0.165  1.3705  0.5584 -1.3204
 9311SOL     OW29532   1.987   1.425   1.619  0.0307 -0.2454 -0.5204
 9311SOL    HW129533   1.906   1.433   1.677 -0.0713 -0.8849 -0.5660
 9311SOL    HW229534   2.048   1.355   1.655 -0.5649 -1.4570 -1.7783
 9312SOL     OW29535   1.607   0.964   5.902  0.0739 -0.1955  0.1013
 9312SOL    HW129536   1.657   0.936   5.984 -3.0046 -0.0209  2.2167
 9312SOL    HW229537   1.565   0.884   5.860  1.3165 -0.2282 -1.1432
 9313SOL     OW29538   3.595   4.540   5.452 -0.9904  0.3359 -0.1562
 9313SOL    HW129539   3.575   4.611   5.384 -0.0742  2.0909  1.3214
 9313SOL    HW229540   3.682   4.561   5.497 -0.3162 -2.1501 -0.1413
 9314SOL     OW29541   5.989   2.349   1.892 -0.3461  0.1711  0.5455
 9314SOL    HW129542   5.992   2.249   1.887 -1.4004  0.1069  0.8921
 9314SOL    HW229543   5.966   2.386   1.801  0.6245  0.1405  0.2791
 9315SOL     OW29544   5.031   6.162   6.362 -0.8636  0.1566  0.0798
 9315SOL    HW129545   5.051   6.260   6.359  0.0416  0.0088  0.8250
 9315SOL    HW229546   5.115   6.110   6.348 -1.4337 -0.5332 -0.9006
 9316SOL     OW29547   6.158   2.134   0.354 -0.3847 -0.3452  0.2376
 9316SOL    HW129548   6.219   2.213   0.349 -0.6417 -0.0025  1.9260
 9316SOL    HW229549   6.209   2.051   0.330  0.1526  0.1868 -0.5187
 9317SOL     OW29550   2.662   1.926   5.652  0.4175  0.1069  0.0219
 9317SOL    HW129551   2.587   1.884   5.601 -1.2618  2.0734  0.7046
 9317SOL    HW229552   2.685   1.869   5.730 -1.6514  0.2609  0.8160
 9318SOL     OW29553   1.574   5.883   2.991  0.3228  0.4636 -0.0510
 9318SOL    HW129554   1.562   5.979   2.965 -0.0190  0.2053 -0.8866
 9318SOL    HW229555   1.562   5.873   3.090 -0.5371  1.1535 -0.0702
 9319SOL     OW29556   5.914   0.445   1.850 -0.8696  0.1693  1.1352
 9319SOL    HW129557   5.855   0.392   1.789  0.8504  1.5930 -2.0164
 9319SOL    HW229558   5.968   0.382   1.907 -2.6919 -1.2170  1.4317
 9320SOL     OW29559   1.808   5.609   2.232  0.0827 -0.5487  0.2517
 9320SOL    HW129560   1.882   5.552   2.269  0.6785  0.7080  1.0628
 9320SOL    HW229561   1.742   5.551   2.185  1.6683 -1.7038 -0.6690
 9321SOL     OW29562   0.419   3.093   1.542 -0.1644 -0.2469  0.5629
 9321SOL    HW129563   0.364   3.139   1.612  0.4236 -0.9854  1.5320
 9321SOL    HW229564   0.393   2.996   1.537  1.9476 -0.9614  2.0434
 9322SOL     OW29565   3.523   0.195   2.249 -0.3269  0.1958 -0.0494
 9322SOL    HW129566   3.607   0.190   2.304  0.4474 -1.3911 -1.2993
 9322SOL    HW229567   3.483   0.286   2.258  2.0554  1.3182 -0.1633
 9323SOL     OW29568   0.992   3.465   4.651 -0.4592 -0.2890  0.1865
 9323SOL    HW129569   0.969   3.417   4.736  0.1998 -1.8182 -0.4531
 9323SOL    HW229570   0.983   3.564   4.665  0.0829 -0.4680  2.1564
 9324SOL     OW29571   3.695   6.269   6.160  0.1422  0.0167  0.5524
 9324SOL    HW129572   3.630   6.283   6.235  0.4223 -1.2276  1.0448
 9324SOL    HW229573   3.788   6.280   6.194  0.2426  1.9547 -0.1879
 9325SOL     OW29574   3.983   2.470   1.496 -0.3610  0.3543 -0.2769
 9325SOL    HW129575   4.061   2.492   1.554  0.8244 -0.0800 -1.6443
 9325SOL    HW229576   3.952   2.377   1.515 -1.8558  1.1826  1.6472
 9326SOL     OW29577   4.009   5.981   0.313  0.0858 -0.0546  0.0876
 9326SOL    HW129578   4.039   5.886   0.322  1.4461  0.3684  0.3431
 9326SOL    HW229579   4.025   6.013   0.220  1.2130  0.3909  0.4029
 9327SOL     OW29580   6.542   4.521   2.132 -0.1798  0.0192 -0.1133
 9327SOL    HW129581   6.573   4.475   2.215  0.5803 -1.3573 -1.1291
 9327SOL    HW229582   6.619   4.569   2.089 -0.4467  0.2789 -0.3082
 9328SOL     OW29583   2.604   1.547   0.565  0.1062 -0.2056 -0.2921
 9328SOL    HW129584   2.588   1.491   0.645 -2.1790  1.9140  0.8913
 9328SOL    HW229585   2.629   1.489   0.487  1.2613 -2.4166  1.6318
 9329SOL     OW29586   4.163   5.566   3.742  0.9453  0.0477 -0.1076
 9329SOL    HW129587   4.144   5.650   3.793  0.6140  1.1603 -1.9578
 9329SOL    HW229588   4.125   5.488   3.791  0.8282  1.0141  1.4161
 9330SOL     OW29589   2.610   5.613   4.082 -0.2312 -0.4110 -0.7747
 9330SOL    HW129590   2.671   5.625   4.004 -1.3074 -0.3752 -1.6214
 9330SOL    HW229591   2.664   5.610   4.166  0.8754  0.3562 -1.4387
 9331SOL     OW29592   2.200   2.665   6.025 -0.0184  0.2772 -0.4754
 9331SOL    HW129593   2.236   2.581   5.984 -1.1705 -2.0172  2.7384
 9331SOL    HW229594   2.168   2.727   5.954  0.1335 -2.3465 -2.9995
 9332SOL     OW29595   0.206   6.930   0.576  0.6957  0.3195 -0.5068
 9332SOL    HW129596   0.131   6.960   0.517  0.7205  0.5023 -0.4456
 9332SOL    HW229597   0.214   6.992   0.654 -1.3083 -1.6119  1.3579
 9333SOL     OW29598   3.634   6.058   3.326 -0.1012  0.3123 -0.1846
 9333SOL    HW129599   3.586   5.997   3.390 -1.6909  0.3005 -1.3213
 9333SOL    HW229600   3.733   6.047   3.337 -0.2772  0.6900  2.6134
 9334SOL     OW29601   3.901   5.283   1.738 -0.0949 -0.0265  0.7169
 9334SOL    HW129602   3.834   5.254   1.670 -0.1332  1.4345  0.0979
 9334SOL    HW229603   3.856   5.337   1.809  0.2155 -0.1476  1.0083
 9335SOL     OW29604   4.819   5.230   0.686 -0.0348  0.1100  0.1077
 9335SOL    HW129605   4.744   5.257   0.626 -0.3424 -0.8756  0.0234
 9335SOL    HW229606   4.897   5.202   0.631  1.0221  2.6781  0.1857
 9336SOL     OW29607   3.329   2.536   5.845  0.0802  1.2100 -0.0966
 9336SOL    HW129608   3.393   2.592   5.897 -0.0561  1.7935 -0.5533
 9336SOL    HW229609   3.343   2.440   5.869  0.0987  1.4489  0.9315
 9337SOL     OW29610   3.266   0.285   2.853 -0.8328  0.5695 -0.3881
 9337SOL    HW129611   3.202   0.289   2.930  0.4859 -0.9857  0.8723
 9337SOL    HW229612   3.276   0.189   2.824  2.8537  0.2679  1.2691
 9338SOL     OW29613   2.335   0.134   5.889 -0.3191  0.1498  0.0924
 9338SOL    HW129614   2.417   0.172   5.845 -0.8469  0.7918 -0.3526
 9338SOL    HW229615   2.337   0.157   5.986  0.1652 -0.0761  0.1407
 9339SOL     OW29616   4.434   0.687   3.160 -0.0288  0.0024 -0.1524
 9339SOL    HW129617   4.511   0.718   3.217  1.2084  0.0123 -1.7492
 9339SOL    HW229618   4.448   0.591   3.135 -1.7675 -0.7263  1.4237
 9340SOL     OW29619   6.565   4.841   1.537  0.3684 -0.0821 -0.1006
 9340SOL    HW129620   6.560   4.882   1.628 -0.2512 -0.3286 -0.0121
 9340SOL    HW229621   6.608   4.751   1.543 -1.6128 -1.0584  0.3307
 9341SOL     OW29622   1.324   2.878   6.023 -0.5098  0.4176  0.1490
 9341SOL    HW129623   1.393   2.811   6.051  0.4132  0.1647 -2.4589
 9341SOL    HW229624   1.235   2.834   6.019 -0.0646 -0.4387 -0.6692
 9342SOL     OW29625   6.569   1.203   2.047 -0.3878  0.0326 -0.7220
 9342SOL    HW129626   6.628   1.242   2.118 -1.8999  1.4589 -0.1912
 9342SOL    HW229627   6.586   1.250   1.961 -0.5449  0.2544 -0.6336
 9343SOL     OW29628   4.756   1.134   4.250 -0.0742 -0.4807 -0.6389
 9343SOL    HW129629   4.783   1.040   4.228  1.4861 -0.5781  1.3450
 9343SOL    HW229630   4.741   1.186   4.166  1.5621 -1.8392 -1.8300
 9344SOL     OW29631   2.726   4.120   4.877 -0.1078  0.3334 -0.0325
 9344SOL    HW129632   2.790   4.144   4.949 -0.4932  1.2522  0.0182
 9344SOL    HW229633   2.769   4.134   4.787 -0.2675  1.0584 -0.0006
 9345SOL     OW29634   3.554   1.805   5.270  0.3826  0.2513 -1.0271
 9345SOL    HW129635   3.500   1.857   5.336 -1.0866 -1.8063 -0.5374
 9345SOL    HW229636   3.499   1.787   5.189  0.7070 -0.8776 -1.0134
 9346SOL     OW29637   5.855   4.454   0.063 -0.6872 -0.1510  0.4472
 9346SOL    HW129638   5.861   4.479  -0.034  0.5251  0.5531  0.6744
 9346SOL    HW229639   5.934   4.492   0.111 -0.3923 -1.9070  1.4013
 9347SOL     OW29640   2.242   5.340   3.979  0.1762  0.0866  0.3684
 9347SOL    HW129641   2.258   5.325   3.882  0.5766  0.2005  0.4152
 9347SOL    HW229642   2.328   5.330   4.029  0.2621  1.5175  0.5327
 9348SOL     OW29643   5.570   3.966   5.207  0.0797 -0.6003 -0.1699
 9348SOL    HW129644   5.539   3.880   5.248 -0.9592  0.2748  0.9793
 9348SOL    HW229645   5.510   3.989   5.131 -0.8535  0.0227  0.7177
 9349SOL     OW29646   1.263   5.001   6.001  0.1844  0.1858 -0.7134
 9349SOL    HW129647   1.297   4.989   6.094 -1.5865 -0.3451 -0.0993
 9349SOL    HW229648   1.171   5.040   6.004 -0.5405 -1.3067 -2.1827
 9350SOL     OW29649   5.773   4.190   0.106  0.4403  0.5749 -0.0619
 9350SOL    HW129650   5.694   4.198   0.166 -0.0457  0.4703 -0.6801
 9350SOL    HW229651   5.799   4.281   0.073  1.0797  0.7061  0.7658
 9351SOL     OW29652   7.018   1.749   4.851 -0.6569 -0.3508  0.7043
 9351SOL    HW129653   6.936   1.691   4.850  0.0340 -1.3593  0.7620
 9351SOL    HW229654   7.046   1.767   4.945  0.2193 -1.5407  0.6920
 9352SOL     OW29655   5.955   1.016   2.041 -0.2201  0.0900 -0.1930
 9352SOL    HW129656   5.880   0.974   2.091  0.1083 -0.6739 -0.3271
 9352SOL    HW229657   5.998   1.086   2.098 -0.6682  0.1295  0.0974
 9353SOL     OW29658   0.283   1.497   5.343  0.1664  0.5179  0.6629
 9353SOL    HW129659   0.301   1.505   5.441  1.3427 -0.3910  0.5573
 9353SOL    HW229660   0.356   1.442   5.301 -2.2237 -2.3015 -0.0840
 9354SOL     OW29661   6.962   2.061   0.955 -0.1525 -0.5577  0.2702
 9354SOL    HW129662   7.008   1.978   0.923 -0.2347 -0.4450 -0.1466
 9354SOL    HW229663   7.008   2.141   0.917 -0.2215 -0.4197  0.4767
 9355SOL     OW29664   6.543   4.243   2.096  0.3727  0.0153 -0.3608
 9355SOL    HW129665   6.568   4.338   2.112 -1.3975  0.5084 -0.2939
 9355SOL    HW229666   6.622   4.184   2.112  1.4092  1.4353 -0.0864
 9356SOL     OW29667   5.719   4.753   3.688 -0.1471  0.1670 -0.0128
 9356SOL    HW129668   5.700   4.717   3.779 -1.1625 -0.5514 -0.4903
 9356SOL    HW229669   5.818   4.761   3.676 -0.0013  0.4337  1.2031
 9357SOL     OW29670   1.334   1.652   2.161 -0.0835  0.3104 -0.1733
 9357SOL    HW129671   1.296   1.683   2.073  0.2454  0.9845 -0.0889
 9357SOL    HW229672   1.432   1.640   2.152  0.1512  1.6095  0.4207
 9358SOL     OW29673   2.145   1.503   0.079 -0.0690  0.3747 -0.9079
 9358SOL    HW129674   2.157   1.469  -0.014 -2.4208  2.4845 -2.0875
 9358SOL    HW229675   2.169   1.600   0.083 -0.9201  0.5592  0.4437
 9359SOL     OW29676   3.616   6.429   1.500 -0.5583  0.0196 -0.8067
 9359SOL    HW129677   3.545   6.364   1.473  0.5143 -1.0556 -1.1675
 9359SOL    HW229678   3.706   6.386   1.490  0.1716  1.4342 -0.6369
 9360SOL     OW29679   1.246   2.908   5.665 -0.6162 -0.4253  0.7265
 9360SOL    HW129680   1.148   2.912   5.642 -0.1945 -0.7952 -1.3398
 9360SOL    HW229681   1.269   2.815   5.694 -0.5226 -0.9107 -0.7925
 9361SOL     OW29682   0.133   1.937   1.816 -0.2900  0.4796 -0.4849
 9361SOL    HW129683   0.133   2.023   1.766 -1.1302 -0.2363 -1.7784
 9361SOL    HW229684   0.186   1.869   1.765 -1.4980 -0.3778 -0.6370
 9362SOL     OW29685   3.290   0.199   1.029  0.8173  0.2648 -0.2540
 9362SOL    HW129686   3.298   0.115   1.084 -1.8486  0.3482  0.3839
 9362SOL    HW229687   3.302   0.279   1.088 -2.1879  0.3567  0.3524
 9363SOL     OW29688   1.051   4.290   2.168  0.4091  0.0329  0.1624
 9363SOL    HW129689   1.041   4.201   2.123  0.9790  0.7736 -1.5027
 9363SOL    HW229690   1.144   4.298   2.204  0.6392  0.2797 -0.4678
 9364SOL     OW29691   0.607   5.422   1.518  0.3363  0.8265 -0.3808
 9364SOL    HW129692   0.559   5.363   1.584  1.4756 -2.2395 -2.0998
 9364SOL    HW229693   0.696   5.449   1.556  0.5011  0.0549 -0.2025
 9365SOL     OW29694   1.516   1.912   6.254  0.4815 -0.9354 -0.3019
 9365SOL    HW129695   1.579   1.988   6.269  0.2902 -0.7782 -0.2857
 9365SOL    HW229696   1.563   1.839   6.204  0.4158 -0.4428 -1.0914
 9366SOL     OW29697   2.803   0.256   5.161 -0.4833 -0.8385  0.2302
 9366SOL    HW129698   2.762   0.346   5.176 -1.3281 -1.2752  0.6136
 9366SOL    HW229699   2.900   0.266   5.141  0.5188 -0.0092  4.4506
 9367SOL     OW29700   3.945   2.019   5.833 -0.6348  0.3210  0.2510
 9367SOL    HW129701   3.904   1.932   5.805  1.6888 -1.4116  1.8460
 9367SOL    HW229702   3.972   2.070   5.751 -0.0470 -1.5008 -0.7533
 9368SOL     OW29703   6.761   4.237   6.358  0.0733  0.3738  0.2466
 9368SOL    HW129704   6.708   4.158   6.391 -0.5258  0.5061 -0.3779
 9368SOL    HW229705   6.826   4.207   6.288 -0.5484  0.5118 -0.4011
 9369SOL     OW29706   2.543   6.128   3.752  0.7724  0.1034 -0.0892
 9369SOL    HW129707   2.608   6.189   3.707  0.1392 -0.0447 -1.2548
 9369SOL    HW229708   2.590   6.074   3.822  1.7827  0.3860 -0.5344
 9370SOL     OW29709   0.122   4.378   6.312 -0.2579  0.0449  0.1096
 9370SOL    HW129710   0.097   4.305   6.375  0.5206 -0.4017 -0.0809
 9370SOL    HW229711   0.179   4.445   6.360 -0.6127  0.3045  0.1718
 9371SOL     OW29712   1.957   0.031   2.131 -0.1665  0.0007 -0.3467
 9371SOL    HW129713   1.893   0.083   2.188 -0.4181  0.1681 -0.7806
 9371SOL    HW229714   2.004  -0.036   2.188 -0.4619  0.1214  0.0488
 9372SOL     OW29715   2.012   6.729   3.767  0.0061 -0.2866 -0.2891
 9372SOL    HW129716   2.069   6.667   3.713  0.7965  0.6380 -0.5299
 9372SOL    HW229717   2.062   6.813   3.786 -0.5909 -0.2310  1.1347
 9373SOL     OW29718   6.955   2.633   1.792  0.3727 -0.6043  0.2303
 9373SOL    HW129719   6.888   2.559   1.796  0.6536 -1.0845 -2.1195
 9373SOL    HW229720   7.031   2.605   1.732  0.4720  1.5801 -0.7487
 9374SOL     OW29721   3.019   1.551   1.943  0.3092  0.2714 -0.1511
 9374SOL    HW129722   3.005   1.605   2.026  0.5273 -1.7011  1.2351
 9374SOL    HW229723   2.939   1.493   1.928  1.6275 -1.8186  0.6225
 9375SOL     OW29724   1.261   5.769   1.883 -0.4834  0.4108  0.2470
 9375SOL    HW129725   1.246   5.863   1.853  2.5559  1.8721  2.7245
 9375SOL    HW229726   1.358   5.757   1.906 -1.3066 -2.4538  2.8170
 9376SOL     OW29727   0.264   6.100   1.028  0.6007  0.0498  0.5934
 9376SOL    HW129728   0.313   6.092   1.115  0.3419 -0.3021  0.7070
 9376SOL    HW229729   0.329   6.087   0.953  0.4436 -2.0954  0.7438
 9377SOL     OW29730   4.092   1.912   0.760 -0.0489  0.5379 -0.0795
 9377SOL    HW129731   4.102   1.861   0.845  0.1446  1.2037  0.3117
 9377SOL    HW229732   4.015   1.877   0.707  2.9143 -3.5546 -2.2736
 9378SOL     OW29733   2.935   4.221   1.247  0.3119  0.3928  0.1902
 9378SOL    HW129734   2.990   4.302   1.228 -1.0298  1.7589  1.9082
 9378SOL    HW229735   2.948   4.154   1.173  1.0066  2.3812 -1.5680
 9379SOL     OW29736   6.394   5.748   4.078 -0.5231  0.1519 -0.5647
 9379SOL    HW129737   6.323   5.768   4.011 -0.2800 -2.9724 -1.9296
 9379SOL    HW229738   6.466   5.693   4.035  0.6877 -0.2029  1.7628
 9380SOL     OW29739   0.490   0.640   5.346 -0.4436  0.6783 -0.3538
 9380SOL    HW129740   0.484   0.549   5.388  1.1334  0.2296 -1.0289
 9380SOL    HW229741   0.401   0.665   5.308 -1.5362  0.4529  1.8732
 9381SOL     OW29742   4.421   5.631   5.399 -0.0807 -0.2691  0.1123
 9381SOL    HW129743   4.341   5.689   5.418 -0.4875 -1.4147  2.1825
 9381SOL    HW229744   4.483   5.632   5.478  1.4646 -0.2191 -1.0570
 9382SOL     OW29745   6.112   0.673   0.160 -0.3114 -0.0115 -0.2442
 9382SOL    HW129746   6.053   0.750   0.185 -1.5843 -0.6964 -1.0071
 9382SOL    HW229747   6.056   0.592   0.144  1.1435 -1.9051  3.1812
 9383SOL     OW29748   3.251   1.638   5.288  0.1806 -0.4384  0.5802
 9383SOL    HW129749   3.255   1.573   5.212  0.1803  0.9510 -0.6777
 9383SOL    HW229750   3.257   1.731   5.251 -1.0044  0.3214  2.2032
 9384SOL     OW29751   1.462   1.183   5.750  0.0460 -1.0382 -0.3214
 9384SOL    HW129752   1.529   1.257   5.742 -0.0738 -0.9622 -0.6495
 9384SOL    HW229753   1.489   1.121   5.823  1.1644 -1.7115 -1.2756
 9385SOL     OW29754   6.123   2.920   1.064  0.0597  0.2558  0.4227
 9385SOL    HW129755   6.105   2.870   1.149 -3.8629 -2.3964 -1.6533
 9385SOL    HW229756   6.097   3.016   1.076 -4.3909 -0.8382  1.4020
 9386SOL     OW29757   2.715   1.984   3.301 -0.1862  0.2654 -0.2995
 9386SOL    HW129758   2.655   1.914   3.262 -1.0346  0.0689  1.3187
 9386SOL    HW229759   2.668   2.033   3.374  0.6130  2.1382 -0.9674
 9387SOL     OW29760   3.130   1.225   2.388 -0.0267  0.7097  0.0372
 9387SOL    HW129761   3.172   1.205   2.300 -0.9070  0.0447 -0.2547
 9387SOL    HW229762   3.200   1.252   2.454  0.9892 -1.1866 -0.1907
 9388SOL     OW29763   2.425   0.989   4.411  0.7292  0.6359 -0.4507
 9388SOL    HW129764   2.427   0.895   4.376  1.8654  0.7157 -0.6496
 9388SOL    HW229765   2.383   1.049   4.343 -0.3928  0.2066 -0.1430
 9389SOL     OW29766   6.083   5.470   4.955 -0.0281 -0.5755 -0.3938
 9389SOL    HW129767   6.153   5.403   4.980 -0.2606 -0.8929 -0.5883
 9389SOL    HW229768   6.095   5.496   4.859 -0.3368 -0.8283 -0.5019
 9390SOL     OW29769   4.799   5.638   4.804 -0.9245  0.2879  0.3266
 9390SOL    HW129770   4.790   5.564   4.871 -0.7548 -0.6147 -0.6215
 9390SOL    HW229771   4.863   5.707   4.839  0.5617 -1.0425  0.3591
 9391SOL     OW29772   2.847   2.258   5.487 -0.0199  0.3284 -0.5826
 9391SOL    HW129773   2.837   2.352   5.454  0.1939  0.5436 -0.0487
 9391SOL    HW229774   2.941   2.243   5.516 -0.4379  0.4972  0.9561
 9392SOL     OW29775   6.271   5.238   4.340 -0.2314  0.1131 -0.7516
 9392SOL    HW129776   6.180   5.225   4.300  0.5557 -0.5389 -2.4171
 9392SOL    HW229777   6.274   5.195   4.430 -1.7111  0.6083 -0.4315
 9393SOL     OW29778   6.837   2.314   1.372 -0.0295 -0.0515 -0.1251
 9393SOL    HW129779   6.766   2.358   1.316  0.0277  1.2386  0.7758
 9393SOL    HW229780   6.920   2.304   1.318 -0.0100  1.0643 -0.3403
 9394SOL     OW29781   4.586   4.999   2.423 -0.2315  0.1101  0.0323
 9394SOL    HW129782   4.582   4.969   2.518 -0.4346 -2.2781 -0.6818
 9394SOL    HW229783   4.644   4.937   2.370 -1.2060  0.5876 -1.6875
 9395SOL     OW29784   2.751   1.059   6.472 -0.8272 -0.4551  0.5274
 9395SOL    HW129785   2.770   1.081   6.567  0.2745 -0.0212  0.2199
 9395SOL    HW229786   2.833   1.021   6.429 -1.5203 -1.3452 -0.0580
 9396SOL     OW29787   3.085   0.569   5.153 -0.6123 -0.0313 -0.0263
 9396SOL    HW129788   3.079   0.470   5.165 -2.0839 -0.0439 -0.5914
 9396SOL    HW229789   3.027   0.615   5.221  0.7595  0.5092  0.8168
 9397SOL     OW29790   0.070   4.102   4.830  0.2501 -0.1978  0.9167
 9397SOL    HW129791   0.051   4.191   4.872  1.8832 -0.7294  2.9880
 9397SOL    HW229792  -0.006   4.040   4.847  0.1556  0.1067  1.6643
 9398SOL     OW29793   6.795   0.346   5.976  0.0316 -0.2533  0.3935
 9398SOL    HW129794   6.880   0.296   5.989  0.4133  0.6151  1.3933
 9398SOL    HW229795   6.804   0.438   6.014 -0.7829  0.4590 -1.0614
 9399SOL     OW29796   2.405   1.058   3.636 -0.0740  0.2541  0.2035
 9399SOL    HW129797   2.360   1.052   3.546  0.8356 -0.8512 -0.2066
 9399SOL    HW229798   2.335   1.063   3.707 -0.8170  1.0352 -0.5526
 9400SOL     OW29799   6.419   3.568   3.792 -0.5553 -0.6071 -0.4536
 9400SOL    HW129800   6.471   3.616   3.862 -1.3975 -1.9522  1.1804
 9400SOL    HW229801   6.471   3.565   3.707  1.3161 -0.5019  0.6428
 9401SOL     OW29802   3.893   1.038   5.886  0.1135 -0.5678 -0.5486
 9401SOL    HW129803   3.952   0.958   5.869  0.9484  0.1960 -1.3964
 9401SOL    HW229804   3.887   1.092   5.802  0.1782  0.6609  0.2247
 9402SOL     OW29805   4.991   6.697   1.835 -0.1465  0.0703  0.8255
 9402SOL    HW129806   4.955   6.662   1.749  0.2912 -0.6117  0.9115
 9402SOL    HW229807   5.066   6.761   1.816 -0.2524  0.1540  0.6905
 9403SOL     OW29808   5.650   0.211   0.031  0.0214 -0.0792  0.4013
 9403SOL    HW129809   5.668   0.250   0.122 -1.4836  1.2645  0.1785
 9403SOL    HW229810   5.726   0.233  -0.030  0.4795  0.0855  1.0175
 9404SOL     OW29811   5.336   6.930   3.116  0.1547  0.2345 -0.2105
 9404SOL    HW129812   5.372   6.842   3.084  0.8256  0.8601 -1.2573
 9404SOL    HW229813   5.300   6.982   3.038  1.0064  1.4335  0.1625
 9405SOL     OW29814   4.527   0.061   5.831 -1.0420  0.0531  0.2216
 9405SOL    HW129815   4.598   0.131   5.830 -1.5943  0.6276 -0.6167
 9405SOL    HW229816   4.516   0.025   5.924 -1.4412  1.7950  0.8890
 9406SOL     OW29817   5.203   5.195   6.895  0.0567 -0.4752 -0.2528
 9406SOL    HW129818   5.194   5.144   6.981 -0.8079  0.0539 -0.0073
 9406SOL    HW229819   5.126   5.173   6.835  0.0734 -0.0309 -0.4434
 9407SOL     OW29820   6.529   6.022   1.871  0.4435  0.3397  0.1846
 9407SOL    HW129821   6.492   6.115   1.877 -1.5607 -0.4423  0.3996
 9407SOL    HW229822   6.524   5.978   1.960 -4.1546 -1.9312 -0.9036
 9408SOL     OW29823   4.920   3.210   3.724  0.1076 -0.3712 -0.4981
 9408SOL    HW129824   4.936   3.296   3.676 -0.1154 -0.6118 -1.0056
 9408SOL    HW229825   4.960   3.215   3.816 -1.3818  0.9253  0.1403
 9409SOL     OW29826   2.892   6.397   6.833  0.4778 -0.4997 -0.2156
 9409SOL    HW129827   2.943   6.482   6.837  0.0406 -0.2093 -0.8091
 9409SOL    HW229828   2.808   6.406   6.887  1.0697 -1.0009  0.8221
 9410SOL     OW29829   0.484   4.123   6.789  0.4533 -0.0668  0.5033
 9410SOL    HW129830   0.424   4.113   6.868  0.5799 -0.1275  0.5902
 9410SOL    HW229831   0.535   4.039   6.774  1.8390  0.5614  1.4981
 9411SOL     OW29832   5.452   0.278   1.170 -0.1078 -0.2825  0.0599
 9411SOL    HW129833   5.508   0.243   1.095 -0.9888 -0.9403 -0.3014
 9411SOL    HW229834   5.364   0.230   1.172 -0.7923  0.9360  0.4203
 9412SOL     OW29835   2.510   5.338   4.085 -0.0892  0.5666  0.7001
 9412SOL    HW129836   2.524   5.346   4.183 -0.5978 -0.5155  0.8743
 9412SOL    HW229837   2.530   5.425   4.041  2.5992  0.4285  1.4633
 9413SOL     OW29838   6.042   1.245   3.486 -0.4441 -0.0760  0.4282
 9413SOL    HW129839   6.071   1.288   3.571 -0.6588  0.3243  0.3029
 9413SOL    HW229840   6.018   1.315   3.420  2.3447 -0.2793 -0.9369
 9414SOL     OW29841   3.185   4.554   0.664  0.5330  0.2035  0.0892
 9414SOL    HW129842   3.183   4.473   0.722  0.1366  0.2601  0.1633
 9414SOL    HW229843   3.245   4.623   0.705  1.7020 -0.4433 -0.5182
 9415SOL     OW29844   2.517   6.421   5.972  0.2281 -0.6488 -0.0020
 9415SOL    HW129845   2.606   6.412   6.016  0.9613  1.7324 -0.8218
 9415SOL    HW229846   2.445   6.397   6.036  1.2339  2.6851  2.6296
 9416SOL     OW29847   6.454   3.738   5.923 -0.8179 -0.3780 -1.1498
 9416SOL    HW129848   6.395   3.802   5.974  1.2001  0.2717  0.5523
 9416SOL    HW229849   6.504   3.789   5.853  1.0896  0.0928  0.4706
 9417SOL     OW29850   0.701   5.450   3.733  0.5215 -0.4509  0.2179
 9417SOL    HW129851   0.773   5.464   3.666  1.0130 -0.4986  0.7247
 9417SOL    HW229852   0.693   5.531   3.791 -0.2961 -0.1806 -0.2669
 9418SOL     OW29853   0.035   0.580   1.250  0.3993 -0.1184  0.2874
 9418SOL    HW129854  -0.024   0.593   1.171 -1.4246 -0.1010  1.6001
 9418SOL    HW229855   0.056   0.483   1.261 -1.8764 -0.5432  1.4693
 9419SOL     OW29856   4.151   1.679   2.472 -0.3371  0.0814  0.1551
 9419SOL    HW129857   4.149   1.699   2.374 -0.9718 -0.1772  0.1113
 9419SOL    HW229858   4.133   1.582   2.486 -1.6932  0.3797  0.5951
 9420SOL     OW29859   6.453   0.077   0.178  0.0832  0.4299  0.0800
 9420SOL    HW129860   6.418   0.099   0.087  0.8102  1.3842  0.0145
 9420SOL    HW229861   6.457  -0.023   0.189 -1.2163  0.3015 -0.4440
 9421SOL     OW29862   1.880   2.629   6.093  0.4406 -0.2119  0.1294
 9421SOL    HW129863   1.817   2.688   6.043  0.9228 -0.3635 -0.6707
 9421SOL    HW229864   1.972   2.668   6.092  0.4409 -0.1613  1.0000
 9422SOL     OW29865   5.187   5.964   4.778  0.7186 -0.2601  0.2875
 9422SOL    HW129866   5.161   5.898   4.708  0.9612 -0.4498  0.3730
 9422SOL    HW229867   5.145   6.052   4.759  1.9293  0.0900 -0.9066
 9423SOL     OW29868   2.610   6.122   6.566 -0.2142 -0.5053 -0.5073
 9423SOL    HW129869   2.513   6.098   6.558 -1.0740  2.8000 -1.4065
 9423SOL    HW229870   2.653   6.116   6.475 -0.2222  0.3484 -0.5753
 9424SOL     OW29871   2.414   1.111   5.048  0.1470 -0.4620 -1.0256
 9424SOL    HW129872   2.321   1.093   5.082  0.5379 -0.4618  0.0946
 9424SOL    HW229873   2.472   1.140   5.124  1.2762 -1.2460 -1.5527
 9425SOL     OW29874   0.981   3.165   6.513 -0.1668 -0.5613 -0.0498
 9425SOL    HW129875   0.957   3.128   6.603  1.5601  0.5602  0.9343
 9425SOL    HW229876   0.945   3.258   6.506  1.6266  0.2109  0.4496
 9426SOL     OW29877   3.315   2.245   5.969  0.5266  0.0405 -0.4159
 9426SOL    HW129878   3.296   2.185   6.047  0.0263  2.0427  1.0862
 9426SOL    HW229879   3.412   2.241   5.946  0.5732 -1.0016 -0.0953
 9427SOL     OW29880   4.611   1.292   4.678  0.8733  0.3943 -0.2653
 9427SOL    HW129881   4.530   1.289   4.737  0.3611  0.7404 -0.9425
 9427SOL    HW229882   4.594   1.239   4.595  1.3269  0.5159 -0.4413
 9428SOL     OW29883   3.779   0.373   0.709 -1.0054 -0.7481 -0.3332
 9428SOL    HW129884   3.817   0.341   0.796 -2.1526  0.6459  0.7459
 9428SOL    HW229885   3.686   0.406   0.724 -0.8929  0.3899 -1.8964
 9429SOL     OW29886   1.808   2.984   3.677  0.4559  0.2026  0.3242
 9429SOL    HW129887   1.839   2.913   3.740  0.2561 -1.1598 -1.0537
 9429SOL    HW229888   1.743   3.044   3.724  1.2736  0.0163  1.7559
 9430SOL     OW29889   5.571   2.318   5.087 -0.0634  0.2938 -0.8281
 9430SOL    HW129890   5.525   2.295   5.001 -0.5700  0.5952 -0.6404
 9430SOL    HW229891   5.636   2.392   5.070  0.8553 -0.5809 -1.2282
 9431SOL     OW29892   5.617   4.501   1.228 -0.1207 -0.6648 -0.1359
 9431SOL    HW129893   5.587   4.453   1.146  0.2204 -0.1662 -0.5597
 9431SOL    HW229894   5.595   4.599   1.219 -1.4222 -0.8180  0.9941
 9432SOL     OW29895   6.102   6.122   1.043  0.0197  0.2934 -0.5925
 9432SOL    HW129896   6.006   6.126   1.014 -1.6324  0.4253  4.0171
 9432SOL    HW229897   6.145   6.211   1.027 -1.2389  0.8554 -1.0143
 9433SOL     OW29898   2.756   6.001   6.124 -0.2713 -0.0459 -0.0981
 9433SOL    HW129899   2.804   6.061   6.060  0.8901 -1.4705 -0.6423
 9433SOL    HW229900   2.657   6.012   6.113 -0.1264  2.1687  0.2682
 9434SOL     OW29901   2.075   0.358   1.540 -0.7154 -0.5443  0.0422
 9434SOL    HW129902   2.128   0.310   1.469  1.0127 -0.7600  1.4235
 9434SOL    HW229903   2.079   0.306   1.625 -2.2348  0.0320  0.4917
 9435SOL     OW29904   0.571   0.033   5.762  0.3308  0.2660  0.3263
 9435SOL    HW129905   0.617   0.079   5.838  1.1040 -3.3938  2.3300
 9435SOL    HW229906   0.636  -0.027   5.715 -0.9943 -0.2227 -0.9647
 9436SOL     OW29907   3.586   4.545   6.710 -0.5261 -0.2614 -0.5749
 9436SOL    HW129908   3.567   4.447   6.703  1.9008 -1.0488  2.2469
 9436SOL    HW229909   3.656   4.570   6.643 -1.3564 -0.3447 -1.4978
 9437SOL     OW29910   3.523   0.572   4.329  0.5462  0.0160 -1.1288
 9437SOL    HW129911   3.577   0.489   4.340  0.9955  0.4107 -0.2421
 9437SOL    HW229912   3.524   0.624   4.414 -0.9915  0.1839 -1.1834
 9438SOL     OW29913   0.693   3.013   3.459  0.1438  0.1039  0.6352
 9438SOL    HW129914   0.746   2.950   3.516 -0.8483 -0.0600  1.4080
 9438SOL    HW229915   0.650   2.963   3.385  0.3464  0.0889  0.5263
 9439SOL     OW29916   5.458   1.909   4.001  0.6819  0.1537  0.5331
 9439SOL    HW129917   5.426   1.897   3.907  1.2436  0.2962  0.3211
 9439SOL    HW229918   5.381   1.899   4.064  0.3424 -0.1505  0.0719
 9440SOL     OW29919   4.720   5.249   1.215 -0.5404 -0.0719  0.0469
 9440SOL    HW129920   4.698   5.297   1.300 -0.2653  2.5893 -1.2991
 9440SOL    HW229921   4.666   5.165   1.209 -1.6471  0.4244  2.1436
 9441SOL     OW29922   3.489   1.157   4.244 -0.1767 -0.4136 -0.5795
 9441SOL    HW129923   3.435   1.240   4.235 -1.7733 -1.3973 -0.3102
 9441SOL    HW229924   3.488   1.106   4.158  0.5499 -0.3178 -0.6537
 9442SOL     OW29925   5.282   3.565   2.138 -0.4623  0.1970 -0.0562
 9442SOL    HW129926   5.338   3.538   2.059 -0.1754 -1.6606  0.7441
 9442SOL    HW229927   5.337   3.558   2.221 -0.4064  3.1978  0.2880
 9443SOL     OW29928   4.998   6.737   3.584  0.6142 -0.1929 -0.0711
 9443SOL    HW129929   5.072   6.673   3.603 -0.0631 -1.5574 -1.7804
 9443SOL    HW229930   4.962   6.721   3.492 -1.9699  0.2315  0.7703
 9444SOL     OW29931   2.169   2.312   1.588 -0.6260 -0.3173 -0.2968
 9444SOL    HW129932   2.253   2.272   1.624 -0.6221  0.4449  0.5741
 9444SOL    HW229933   2.192   2.387   1.526 -0.6517 -0.6096 -0.6582
 9445SOL     OW29934   0.569   6.152   2.192  0.0365 -0.1139  0.0135
 9445SOL    HW129935   0.575   6.243   2.153  1.3720 -0.1572  0.0921
 9445SOL    HW229936   0.593   6.084   2.123 -0.6624 -0.4050  0.0413
 9446SOL     OW29937   2.757   3.441   5.518 -0.2548  0.2667  0.4002
 9446SOL    HW129938   2.753   3.493   5.432  1.2996 -0.4393 -0.1376
 9446SOL    HW229939   2.667   3.442   5.562 -0.8525  1.3937 -0.7849
 9447SOL     OW29940   0.086   3.648   6.044  0.0729 -0.5633 -0.1587
 9447SOL    HW129941   0.071   3.645   6.142 -0.7701 -0.6467 -0.2809
 9447SOL    HW229942   0.178   3.615   6.023  0.2504 -0.5566  0.5964
 9448SOL     OW29943   4.240   5.454   5.664  0.2447  0.0069  0.1725
 9448SOL    HW129944   4.291   5.379   5.622 -0.7927 -1.3679  1.2724
 9448SOL    HW229945   4.181   5.497   5.597  0.3995 -0.5595 -0.3316
 9449SOL     OW29946   5.436   1.147   3.881 -0.6587 -0.0862  0.5927
 9449SOL    HW129947   5.457   1.233   3.835 -0.7395 -0.1917  0.3614
 9449SOL    HW229948   5.478   1.147   3.972 -1.1167  0.4211  0.8077
 9450SOL     OW29949   4.329   3.622   0.434 -0.4593  0.3862 -0.9296
 9450SOL    HW129950   4.268   3.701   0.429 -0.0859  0.7404 -0.0757
 9450SOL    HW229951   4.408   3.637   0.373 -0.7601  0.3370 -1.3341
 9451SOL     OW29952   5.584   6.196   0.685  0.1551 -0.5838 -0.1578
 9451SOL    HW129953   5.534   6.188   0.771  1.0337  0.3658  0.4578
 9451SOL    HW229954   5.595   6.293   0.662  0.5815 -0.8143 -0.9472
 9452SOL     OW29955   5.210   1.100   3.535  0.2750  0.3364 -0.0876
 9452SOL    HW129956   5.116   1.087   3.504  0.5428 -0.3336 -0.6429
 9452SOL    HW229957   5.219   1.067   3.628 -0.2612  1.3033  0.3314
 9453SOL     OW29958   2.584   6.453   4.415  0.3548 -0.4543 -0.2743
 9453SOL    HW129959   2.642   6.395   4.471  1.3541  0.1777 -0.6394
 9453SOL    HW229960   2.633   6.537   4.390 -1.0832  0.5992  0.3002
 9454SOL     OW29961   4.956   5.695   3.574 -0.6034  0.1285  0.6659
 9454SOL    HW129962   4.920   5.607   3.606 -0.1742 -0.4598 -0.4116
 9454SOL    HW229963   4.883   5.763   3.573 -1.0570 -0.3489  1.0424
 9455SOL     OW29964   1.511   6.137   2.222  0.5012 -0.3499 -0.5602
 9455SOL    HW129965   1.601   6.153   2.261  1.0151 -1.1916 -1.3384
 9455SOL    HW229966   1.441   6.145   2.293  1.2835 -0.6510  0.2573
 9456SOL     OW29967   3.984   4.186   2.352 -0.4847  0.7502 -0.2835
 9456SOL    HW129968   4.020   4.093   2.358 -1.0920  0.4744 -0.7646
 9456SOL    HW229969   3.889   4.183   2.321 -0.4560  1.5436 -0.4762
 9457SOL     OW29970   1.315   0.494   6.938  0.7249 -0.3442  0.3908
 9457SOL    HW129971   1.293   0.591   6.928  2.5656  0.3347  2.2321
 9457SOL    HW229972   1.306   0.466   7.033  1.9347 -1.5111  0.2036
 9458SOL     OW29973   5.003   4.306   5.397  0.3695 -0.3898  0.3806
 9458SOL    HW129974   5.088   4.305   5.450 -0.6828 -2.0787  2.2019
 9458SOL    HW229975   4.932   4.353   5.449 -0.0285  0.3415 -0.7882
 9459SOL     OW29976   5.283   6.390   5.773  0.5466  0.4992  0.2002
 9459SOL    HW129977   5.340   6.318   5.812 -1.7959 -1.2971  0.5475
 9459SOL    HW229978   5.204   6.348   5.728  0.5213  2.7623 -2.0825
 9460SOL     OW29979   5.612   3.630   1.387  0.1512  0.9498 -0.2118
 9460SOL    HW129980   5.599   3.655   1.291  0.1273  1.5375 -0.0605
 9460SOL    HW229981   5.594   3.710   1.444  0.8126  0.7872  0.2372
 9461SOL     OW29982   5.242   2.319   4.773 -0.5332 -0.3283  0.0611
 9461SOL    HW129983   5.338   2.294   4.785 -1.1636 -2.6853  0.6644
 9461SOL    HW229984   5.211   2.373   4.851  0.4480  1.1433 -0.5058
 9462SOL     OW29985   2.110   4.537   2.096 -0.4459  0.2535  0.0016
 9462SOL    HW129986   2.068   4.626   2.114  0.3040  0.7651 -0.7195
 9462SOL    HW229987   2.100   4.514   2.000  1.0694  0.4858 -0.2419
 9463SOL     OW29988   5.800   4.698   2.714 -0.5831 -0.2301 -0.0134
 9463SOL    HW129989   5.845   4.767   2.772 -0.9408  0.7723 -0.8997
 9463SOL    HW229990   5.717   4.666   2.759  0.4283 -1.3157  1.1548
 9464SOL     OW29991   3.379   3.818   5.854 -0.0231 -0.1859 -0.6069
 9464SOL    HW129992   3.310   3.806   5.925 -0.8356  1.4107 -1.0958
 9464SOL    HW229993   3.463   3.770   5.882 -0.2043  0.6291  1.5859
 9465SOL     OW29994   2.071   4.295   5.266 -0.7044 -0.1579  0.2320
 9465SOL    HW129995   2.162   4.259   5.243 -1.3794 -1.8005 -0.0235
 9465SOL    HW229996   2.008   4.219   5.280 -2.1129  0.9507  0.1431
 9466SOL     OW29997   1.934   3.957   5.011 -0.0604 -0.9300  0.1432
 9466SOL    HW129998   1.892   3.888   5.069  1.5046 -2.9144 -0.9839
 9466SOL    HW229999   1.937   3.924   4.916  2.5732 -0.2343 -0.0861
 9467SOL     OW30000   0.834   2.868   3.654 -0.3490  0.7795 -0.2526
 9467SOL    HW130001   0.765   2.803   3.688 -0.7925  0.1304 -2.2519
 9467SOL    HW230002   0.923   2.846   3.693 -0.9123  0.4330  0.8814
 9468SOL     OW30003   0.434   0.321   2.230 -0.0074 -0.6875  0.0191
 9468SOL    HW130004   0.530   0.322   2.258 -0.1817 -0.4411  0.6147
 9468SOL    HW230005   0.406   0.413   2.203 -0.5114 -0.4229  1.3731
 9469SOL     OW30006   3.540   0.118   1.826 -0.1740 -0.5740  0.2970
 9469SOL    HW130007   3.457   0.153   1.869  0.0740  0.5865 -0.1406
 9469SOL    HW230008   3.617   0.128   1.889  0.0399  0.3981 -0.1030
 9470SOL     OW30009   0.296   1.173   2.199  0.1304  0.6067  0.3965
 9470SOL    HW130010   0.377   1.124   2.167 -0.4226 -0.7450  0.9782
 9470SOL    HW230011   0.278   1.149   2.294 -1.9873 -0.5907 -0.2437
 9471SOL     OW30012   0.258   4.049   5.002  0.4262 -0.0737  0.0365
 9471SOL    HW130013   0.210   4.013   5.082 -1.3982  2.1974  0.0702
 9471SOL    HW230014   0.191   4.074   4.931  1.7671  0.6283 -1.0316
 9472SOL     OW30015   3.632   6.482   4.519 -0.7322  0.0039 -0.1834
 9472SOL    HW130016   3.563   6.531   4.466 -1.7786 -1.4092 -0.1678
 9472SOL    HW230017   3.619   6.502   4.616  0.1737  1.3199 -0.3100
 9473SOL     OW30018   1.713   5.606   5.059 -0.6272 -0.2792  0.7949
 9473SOL    HW130019   1.695   5.683   4.998 -0.7795 -1.1496 -0.3043
 9473SOL    HW230020   1.640   5.537   5.048 -0.4375 -0.6368  1.6669
 9474SOL     OW30021   2.795   5.280   2.682  0.0518  0.8252 -0.0737
 9474SOL    HW130022   2.761   5.349   2.745 -1.8875  0.5342 -0.7467
 9474SOL    HW230023   2.818   5.323   2.594 -1.9472  0.5754 -0.7766
 9475SOL     OW30024   2.217   5.161   6.528 -0.5463 -0.1110 -0.3745
 9475SOL    HW130025   2.237   5.150   6.431  0.7309  3.6998 -0.7132
 9475SOL    HW230026   2.301   5.145   6.581 -1.2198 -2.1001  0.1492
 9476SOL     OW30027   2.562   6.678   6.979  0.3062  0.1765 -0.1107
 9476SOL    HW130028   2.529   6.761   6.934 -0.5226  0.5809  1.1743
 9476SOL    HW230029   2.577   6.607   6.911 -1.5579  0.5452 -0.9742
 9477SOL     OW30030   5.442   6.837   6.193  0.3261  0.0370  0.1208
 9477SOL    HW130031   5.508   6.761   6.191  1.2225  0.7747  0.8884
 9477SOL    HW230032   5.391   6.839   6.107  2.3155  0.3166 -1.1152
 9478SOL     OW30033   2.961   5.967   3.616 -0.1663  0.1124 -0.3984
 9478SOL    HW130034   3.048   5.972   3.567 -0.4461  0.3829 -0.8736
 9478SOL    HW230035   2.889   6.008   3.560 -0.6855 -0.5039 -0.1913
 9479SOL     OW30036   4.066   5.712   0.296 -0.2537  0.3236  0.3760
 9479SOL    HW130037   4.076   5.731   0.393  0.6138 -0.6246  0.4818
 9479SOL    HW230038   3.991   5.648   0.282 -0.5257  0.6349  0.3909
 9480SOL     OW30039   3.286   4.505   2.519  0.2016  0.0800  0.0980
 9480SOL    HW130040   3.341   4.563   2.580  2.2043 -2.7249  1.1837
 9480SOL    HW230041   3.189   4.514   2.542  0.4773  2.4817  0.5759
 9481SOL     OW30042   2.839   6.493   0.939  0.5355 -0.2947  0.4088
 9481SOL    HW130043   2.820   6.578   0.890  1.0115 -0.3076  0.1968
 9481SOL    HW230044   2.916   6.506   1.001  0.8412 -0.6653  0.1136
 9482SOL     OW30045   4.813   1.662   1.564  0.1106  0.0560  0.0482
 9482SOL    HW130046   4.720   1.631   1.545 -0.6141  2.4272 -0.6972
 9482SOL    HW230047   4.810   1.736   1.632  1.5003 -0.0967  0.3170
 9483SOL     OW30048   5.288   3.916   4.736 -0.0215  0.7207  0.3284
 9483SOL    HW130049   5.353   3.940   4.808  1.4775 -2.1814  0.0903
 9483SOL    HW230050   5.294   3.983   4.662  1.4124  1.4968  1.1059
 9484SOL     OW30051   3.528   5.123   3.845  0.8096  0.3311  0.2967
 9484SOL    HW130052   3.454   5.055   3.844  0.7619  0.3762  0.6531
 9484SOL    HW230053   3.615   5.076   3.833  0.6972  0.3172 -0.5235
 9485SOL     OW30054   5.453   5.029   6.931  0.0675 -0.3177 -0.0138
 9485SOL    HW130055   5.526   5.064   6.989 -0.5723  0.3303  0.4184
 9485SOL    HW230056   5.378   5.096   6.928 -1.3038 -1.7173  1.0520
 9486SOL     OW30057   3.630   5.857   0.889  0.2301 -0.0141 -0.0386
 9486SOL    HW130058   3.624   5.949   0.928  1.8593 -0.1341  0.6058
 9486SOL    HW230059   3.696   5.803   0.943  1.2984 -0.7152 -1.9624
 9487SOL     OW30060   3.506   1.877   2.796  0.0023 -0.1972  0.0222
 9487SOL    HW130061   3.539   1.964   2.759  1.5891 -0.8721 -0.2217
 9487SOL    HW230062   3.430   1.895   2.860  0.7383  1.4260  0.5027
 9488SOL     OW30063   6.062   2.236   5.635  0.5733 -0.3520  0.0269
 9488SOL    HW130064   6.157   2.209   5.653  0.8086  0.6075  0.2516
 9488SOL    HW230065   6.016   2.257   5.722  0.6378  0.7627 -0.2016
 9489SOL     OW30066   4.422   6.778   2.598 -0.3730 -0.4277 -0.2365
 9489SOL    HW130067   4.487   6.854   2.607 -0.4804 -0.4909  1.6657
 9489SOL    HW230068   4.333   6.806   2.634 -0.7863 -1.0509 -0.7443
 9490SOL     OW30069   1.652   1.637   4.794  0.1339  0.0206 -0.1813
 9490SOL    HW130070   1.711   1.676   4.723 -1.2824 -0.7265 -1.8706
 9490SOL    HW230071   1.651   1.696   4.874 -0.8320  2.7696 -2.0617
 9491SOL     OW30072   0.164   1.834   6.357  0.6100 -0.4191  0.0711
 9491SOL    HW130073   0.097   1.889   6.307  1.3137 -0.9628 -1.5379
 9491SOL    HW230074   0.117   1.773   6.420 -0.2494  1.0381  0.8985
 9492SOL     OW30075   1.039   2.528   4.453 -0.1683 -0.0604 -0.1326
 9492SOL    HW130076   0.952   2.494   4.417 -1.0767  1.6322  0.3708
 9492SOL    HW230077   1.026   2.560   4.547  0.4849  2.0487 -0.7027
 9493SOL     OW30078   5.761   4.686   1.799 -0.2824 -0.3142 -0.6030
 9493SOL    HW130079   5.775   4.604   1.744 -0.2731 -0.7084 -0.0229
 9493SOL    HW230080   5.742   4.763   1.739  0.8689 -0.4920 -1.2179
 9494SOL     OW30081   2.164   3.299   4.021 -0.0457  0.4716 -0.2114
 9494SOL    HW130082   2.144   3.361   3.946  2.3391  1.1240 -0.3975
 9494SOL    HW230083   2.091   3.304   4.090 -1.9665  0.3218 -2.1308
 9495SOL     OW30084   6.366   1.986   3.563  0.2887 -0.1692  0.4792
 9495SOL    HW130085   6.284   1.931   3.547 -0.4141  0.9265  0.2084
 9495SOL    HW230086   6.354   2.040   3.647  0.7597 -0.0569  0.4768
 9496SOL     OW30087   4.711   1.019   1.395 -0.2471  0.3018  0.0942
 9496SOL    HW130088   4.689   0.970   1.310  0.1522 -0.9428  0.6922
 9496SOL    HW230089   4.791   1.077   1.379 -0.2074  0.1218 -0.3972
 9497SOL     OW30090   0.347   2.367   2.073  0.6824 -0.2373 -0.5671
 9497SOL    HW130091   0.390   2.425   2.142 -0.8692  0.5112 -0.1942
 9497SOL    HW230092   0.254   2.345   2.100  0.8107 -1.8862 -1.3265
 9498SOL     OW30093   0.993   1.233   2.561  0.2256 -0.6029  0.5110
 9498SOL    HW130094   1.056   1.224   2.484 -0.0774  0.9889  0.0372
 9498SOL    HW230095   1.046   1.246   2.645  0.5673 -2.7686  0.6918
 9499SOL     OW30096   4.043   5.409   6.285  0.2168  0.1645 -0.3373
 9499SOL    HW130097   4.011   5.477   6.219 -1.8574 -0.7665 -0.3389
 9499SOL    HW230098   4.123   5.446   6.333 -0.0557  2.0692 -1.2429
 9500SOL     OW30099   2.324   5.876   5.342  0.0909 -0.6170  0.5363
 9500SOL    HW130100   2.372   5.963   5.349 -0.7048 -0.2656  2.3490
 9500SOL    HW230101   2.376   5.804   5.389  0.3642 -0.9613 -0.2715
 9501SOL     OW30102   4.014   6.743   1.315  0.0163  0.1153 -0.3267
 9501SOL    HW130103   3.936   6.702   1.361  0.5281  0.0448  0.5138
 9501SOL    HW230104   3.991   6.835   1.284  0.5087  1.4619  2.8475
 9502SOL     OW30105   0.734   0.326   4.801  0.3528  0.2203 -0.4193
 9502SOL    HW130106   0.788   0.339   4.884  1.4177  3.0299 -1.4413
 9502SOL    HW230107   0.648   0.279   4.824  1.0305  0.0446  2.0601
 9503SOL     OW30108   2.363   5.705   2.433  0.0015 -0.3696  0.3057
 9503SOL    HW130109   2.410   5.767   2.496 -0.1009  0.9430 -0.8786
 9503SOL    HW230110   2.269   5.691   2.464 -0.3113  0.9545  0.0142
 9504SOL     OW30111   3.797   5.209   6.144 -0.0519  0.7477 -0.0383
 9504SOL    HW130112   3.891   5.173   6.147  0.9076  3.0957  0.8388
 9504SOL    HW230113   3.781   5.267   6.224 -1.5164  2.1076 -1.2392
 9505SOL     OW30114   3.203   5.920   2.993 -0.3056  0.1382  0.4796
 9505SOL    HW130115   3.113   5.889   2.961 -1.0708 -0.3959  2.9357
 9505SOL    HW230116   3.192   6.006   3.042  0.5432  0.0641  0.8044
 9506SOL     OW30117   0.748   0.905   6.315  0.3604 -0.4343 -0.2317
 9506SOL    HW130118   0.715   0.876   6.404 -0.2036 -0.1773 -0.3524
 9506SOL    HW230119   0.845   0.883   6.306 -0.0410 -2.2896 -0.3343
 9507SOL     OW30120   0.582   2.309   5.021  0.3868 -0.0258 -0.1606
 9507SOL    HW130121   0.614   2.215   5.014  2.7732  0.5942  1.2990
 9507SOL    HW230122   0.502   2.313   5.080  0.4767 -1.0877  0.0457
 9508SOL     OW30123   0.344   2.826   3.392  0.4044 -0.2441  0.4879
 9508SOL    HW130124   0.326   2.925   3.390  0.6823 -0.1732 -1.7567
 9508SOL    HW230125   0.434   2.808   3.352 -0.3333 -1.5107 -0.6786
 9509SOL     OW30126   1.515   0.131   6.660 -0.4974 -0.8794  0.1559
 9509SOL    HW130127   1.466   0.108   6.576 -1.1321 -0.3694  0.3781
 9509SOL    HW230128   1.605   0.168   6.637 -0.8259 -0.3604 -0.3151
 9510SOL     OW30129   6.338   3.113   2.300  0.4173 -0.5298 -0.1314
 9510SOL    HW130130   6.373   3.177   2.230 -1.2710 -0.3969 -0.8977
 9510SOL    HW230131   6.382   3.133   2.387  1.6842  0.1061 -0.8697
 9511SOL     OW30132   3.837   3.200   2.120 -0.2713  0.5066 -0.1892
 9511SOL    HW130133   3.809   3.155   2.035 -1.9799  1.4779 -0.1814
 9511SOL    HW230134   3.762   3.199   2.186  0.8142  0.3301  1.0999
 9512SOL     OW30135   2.736   4.932   3.624 -0.0002 -0.2608  0.4049
 9512SOL    HW130136   2.651   4.911   3.672 -0.2429  0.0742  0.1302
 9512SOL    HW230137   2.756   5.030   3.635  0.5215 -0.4025  0.7388
 9513SOL     OW30138   2.599   4.813   2.955 -0.1104 -0.4496  0.4258
 9513SOL    HW130139   2.635   4.770   3.037 -0.3022 -1.0659  0.1966
 9513SOL    HW230140   2.615   4.753   2.876  0.5942  0.3951 -0.0883
 9514SOL     OW30141   5.221   2.202   6.485 -0.1019 -0.5193  0.0273
 9514SOL    HW130142   5.217   2.289   6.434 -0.1441 -1.4423 -1.6046
 9514SOL    HW230143   5.173   2.212   6.571  0.3093  1.2288  0.0929
 9515SOL     OW30144   4.492   0.896   1.937 -0.3020  0.2919  0.5809
 9515SOL    HW130145   4.569   0.881   1.874 -0.5633  1.5194 -0.0468
 9515SOL    HW230146   4.422   0.951   1.892 -1.0252  0.1971  1.5633
 9516SOL     OW30147   1.934   2.622   6.881 -0.4480 -0.2156  0.5440
 9516SOL    HW130148   2.019   2.670   6.903 -0.0206 -0.8894  0.3883
 9516SOL    HW230149   1.955   2.533   6.839 -1.2273  0.0005 -0.3614
 9517SOL     OW30150   6.251   0.060   5.024  0.3298 -0.3071  0.5340
 9517SOL    HW130151   6.206   0.141   5.061  0.7891 -0.5701  1.7122
 9517SOL    HW230152   6.349   0.063   5.046  0.7002 -0.2967 -0.9967
 9518SOL     OW30153   2.408   1.762   2.573 -0.8860  0.4435  0.0879
 9518SOL    HW130154   2.496   1.774   2.527  0.2527  1.0785  2.2693
 9518SOL    HW230155   2.401   1.668   2.607  1.0825  1.4184  3.7356
 9519SOL     OW30156   5.489   5.213   4.916  0.1077 -0.9082 -0.2536
 9519SOL    HW130157   5.405   5.174   4.953  0.1751 -1.3381 -0.5514
 9519SOL    HW230158   5.505   5.303   4.958  0.2625 -1.4415  0.8751
 9520SOL     OW30159   3.687   1.684   4.545  0.4873 -0.0515  0.2026
 9520SOL    HW130160   3.597   1.722   4.568  0.4403 -0.6455  1.0538
 9520SOL    HW230161   3.677   1.608   4.482  0.5946  1.4179 -1.6652
 9521SOL     OW30162   2.434   4.161   0.166  0.3049 -0.5657  0.0411
 9521SOL    HW130163   2.431   4.261   0.167  1.1424 -0.5413 -0.0309
 9521SOL    HW230164   2.510   4.129   0.223  0.6530 -1.1399 -0.7387
 9522SOL     OW30165   5.108   1.695   3.303  0.0354  0.0052 -0.3017
 9522SOL    HW130166   5.170   1.732   3.371  1.3418  0.2505 -1.5650
 9522SOL    HW230167   5.130   1.599   3.287  0.3075  0.1648 -0.9471
 9523SOL     OW30168   0.750   4.779   3.022 -0.8305  0.9614 -0.0704
 9523SOL    HW130169   0.722   4.815   3.111 -0.3321 -0.4879  0.7069
 9523SOL    HW230170   0.799   4.850   2.971 -1.6741  2.0074  0.5306
 9524SOL     OW30171   5.920   0.568   4.837 -0.1524 -0.2722 -0.1617
 9524SOL    HW130172   5.856   0.492   4.830 -1.2853  0.3985  1.9080
 9524SOL    HW230173   5.985   0.565   4.761  0.7609 -4.1222  0.5492
 9525SOL     OW30174   6.545   1.352   3.258 -0.6142  0.1364  0.2073
 9525SOL    HW130175   6.455   1.391   3.280 -0.3552  0.8133  0.1016
 9525SOL    HW230176   6.616   1.421   3.274 -0.2881  0.2150 -1.3933
 9526SOL     OW30177   0.133   1.784   0.251  0.4150 -0.4187 -0.1073
 9526SOL    HW130178   0.052   1.731   0.227 -1.9081  0.1554  5.0776
 9526SOL    HW230179   0.202   1.724   0.290 -0.3911 -0.2563  1.6598
 9527SOL     OW30180   6.193   3.196   1.104  0.1116  0.0065 -0.0119
 9527SOL    HW130181   6.290   3.203   1.083 -0.5004 -0.2464 -3.3975
 9527SOL    HW230182   6.153   3.288   1.108  0.2690  0.0640  0.2652
 9528SOL     OW30183   5.221   5.836   2.167 -0.0976  0.4274 -0.0587
 9528SOL    HW130184   5.198   5.932   2.150 -1.1372 -0.1669 -2.2349
 9528SOL    HW230185   5.320   5.828   2.179 -0.0262  1.7970  0.4538
 9529SOL     OW30186   4.451   5.454   5.201  0.2202 -0.3027 -0.3380
 9529SOL    HW130187   4.358   5.416   5.194 -0.1465 -0.0930  2.3846
 9529SOL    HW230188   4.450   5.531   5.265  2.0832  0.5181 -1.2297
 9530SOL     OW30189   2.335   2.138   1.766 -0.0497 -0.5987  0.6215
 9530SOL    HW130190   2.282   2.108   1.845 -1.0831 -0.7150 -0.1013
 9530SOL    HW230191   2.385   2.061   1.728 -1.8617 -1.2598 -0.5848
 9531SOL     OW30192   5.852   6.596   6.529 -0.0665 -0.0832 -0.0420
 9531SOL    HW130193   5.925   6.643   6.579  1.3208 -0.6022 -1.5142
 9531SOL    HW230194   5.800   6.662   6.476 -0.2479  0.2003  0.4791
 9532SOL     OW30195   0.481   5.070   5.436 -0.5681 -0.2104  0.0584
 9532SOL    HW130196   0.542   5.019   5.376 -1.1822 -0.1093 -0.6597
 9532SOL    HW230197   0.440   5.146   5.385  0.9444  1.5350  1.2991
 9533SOL     OW30198   4.104   6.848   3.910  0.2377 -0.4876  0.2286
 9533SOL    HW130199   4.190   6.897   3.921  0.9016 -1.4107 -0.7021
 9533SOL    HW230200   4.106   6.795   3.826 -1.0788 -0.8753  0.4150
 9534SOL     OW30201   1.723   4.539   6.263 -0.3525  0.1453  0.7260
 9534SOL    HW130202   1.820   4.563   6.260 -0.1713  0.5469  4.8529
 9534SOL    HW230203   1.668   4.623   6.259 -0.3909  0.1439  1.2073
 9535SOL     OW30204   4.171   3.745   3.751 -0.8536 -0.4141 -0.3825
 9535SOL    HW130205   4.079   3.745   3.712  0.1920  0.1918 -3.1314
 9535SOL    HW230206   4.222   3.666   3.716  0.3616  0.5400 -0.8663
 9536SOL     OW30207   7.022   0.023   0.760 -0.2407 -0.5660 -0.7705
 9536SOL    HW130208   7.062   0.059   0.844 -0.3767  0.8224 -1.2668
 9536SOL    HW230209   6.929  -0.010   0.779 -0.3177 -0.1462 -0.3820
 9537SOL     OW30210   5.415   3.045   6.239  0.3428 -0.7928  0.3722
 9537SOL    HW130211   5.395   3.126   6.294  0.5222 -0.6145  0.1805
 9537SOL    HW230212   5.368   3.052   6.151  1.4302 -0.2457 -0.1862
 9538SOL     OW30213   0.915   6.822   0.278  0.1873 -0.0006 -0.2686
 9538SOL    HW130214   0.915   6.772   0.365  2.1585  0.2865 -0.0622
 9538SOL    HW230215   0.938   6.918   0.295 -3.6847  1.1399 -0.6488
 9539SOL     OW30216   5.220   2.379   1.006  0.3981 -0.0024  0.2873
 9539SOL    HW130217   5.280   2.310   0.967 -0.9339 -0.6819 -0.6543
 9539SOL    HW230218   5.242   2.469   0.968  1.9440  0.0709  1.2926
 9540SOL     OW30219   3.757   2.729   0.007 -0.0412  0.0537  0.4947
 9540SOL    HW130220   3.728   2.643   0.051 -0.3024 -0.8345 -1.3263
 9540SOL    HW230221   3.832   2.710  -0.057 -0.6887  1.0263 -0.5872
 9541SOL     OW30222   4.601   6.388   3.300 -0.5694 -0.4812 -0.1413
 9541SOL    HW130223   4.659   6.415   3.377  0.4591 -0.8050 -0.7864
 9541SOL    HW230224   4.553   6.468   3.265  1.6223  0.4129 -1.3499
 9542SOL     OW30225   1.463   3.846   2.035  0.5926 -0.1835  0.0634
 9542SOL    HW130226   1.412   3.903   1.971  0.4504 -0.3322  0.0430
 9542SOL    HW230227   1.525   3.787   1.984  0.9814  0.1861  0.1030
 9543SOL     OW30228   2.503   0.908   0.063  0.1453 -0.5762  0.1580
 9543SOL    HW130229   2.528   0.826   0.115 -0.6704  0.1924  1.8566
 9543SOL    HW230230   2.533   0.989   0.114  0.1545  0.2057 -1.0636
 9544SOL     OW30231   0.276   5.253   1.047 -0.0179 -0.2328  0.3464
 9544SOL    HW130232   0.224   5.171   1.071  0.6169 -0.6179  0.4475
 9544SOL    HW230233   0.215   5.331   1.039 -0.7223 -0.8489 -0.3923
 9545SOL     OW30234   5.962   3.208   4.340  0.9770  0.0463 -0.6099
 9545SOL    HW130235   5.884   3.157   4.377  1.7651  0.8614  2.4577
 9545SOL    HW230236   5.929   3.279   4.279 -0.4878 -0.9612 -1.0538
 9546SOL     OW30237   1.697   4.974   5.093  0.1386  0.4425  0.0439
 9546SOL    HW130238   1.735   4.936   5.177 -0.9495  1.7923  1.2102
 9546SOL    HW230239   1.597   4.981   5.102  0.1886  2.5922 -0.4735
 9547SOL     OW30240   0.099   2.029   3.432 -0.3044  0.5159  0.7804
 9547SOL    HW130241   0.114   2.041   3.334 -0.5582  0.7819  0.7735
 9547SOL    HW230242   0.030   1.958   3.447  1.2261 -1.0202  0.8221
 9548SOL     OW30243   3.448   1.314   5.376  0.5641  0.0404  0.1898
 9548SOL    HW130244   3.523   1.256   5.344  0.2835 -0.4187  0.3549
 9548SOL    HW230245   3.486   1.395   5.422  0.9633 -0.7502  1.2885
 9549SOL     OW30246   0.348   2.579   2.624  0.2196  0.6372  0.1471
 9549SOL    HW130247   0.374   2.544   2.714  3.2027 -0.9965 -1.1829
 9549SOL    HW230248   0.287   2.514   2.579  0.6258  0.2859  0.1024
 9550SOL     OW30249   5.064   1.311   1.257  0.5870  0.0878 -0.6231
 9550SOL    HW130250   4.993   1.259   1.210 -0.9690  0.2298  1.4102
 9550SOL    HW230251   5.064   1.406   1.225 -0.5318  0.2166 -0.2910
 9551SOL     OW30252   3.279   0.436   4.281  0.0190  0.6616  0.7198
 9551SOL    HW130253   3.375   0.462   4.285  0.3396  0.1076 -1.6784
 9551SOL    HW230254   3.249   0.406   4.371  2.4168 -0.2379  1.2955
 9552SOL     OW30255   4.422   2.548   0.879 -0.1085 -0.2958 -0.2558
 9552SOL    HW130256   4.339   2.601   0.866  0.2523  0.2995 -0.1958
 9552SOL    HW230257   4.420   2.504   0.969  1.4716  3.2253  1.7269
 9553SOL     OW30258   5.909   0.143   3.814 -0.2734 -1.0466 -0.0579
 9553SOL    HW130259   5.973   0.183   3.748 -1.6420 -0.8998 -1.3828
 9553SOL    HW230260   5.883   0.051   3.784 -1.1564 -0.8581  0.0944
 9554SOL     OW30261   6.715   2.284   2.763 -0.1121 -0.0432 -0.2794
 9554SOL    HW130262   6.712   2.373   2.809  0.9071 -1.4913  2.8575
 9554SOL    HW230263   6.805   2.273   2.719  1.0602 -0.6897  2.1093
 9555SOL     OW30264   0.643   4.469   5.810  0.0753  0.2497  0.0740
 9555SOL    HW130265   0.639   4.547   5.747  1.3848  0.6971  0.5127
 9555SOL    HW230266   0.551   4.450   5.846 -0.4483  0.8660 -0.8912
 9556SOL     OW30267   3.037   3.351   5.197 -0.0943  0.4206 -0.8612
 9556SOL    HW130268   2.954   3.317   5.241  1.4891 -1.0178  1.2229
 9556SOL    HW230269   3.043   3.314   5.105 -0.2097 -2.1768  0.0993
 9557SOL     OW30270   1.593   6.069   3.213  0.2558  0.4021  0.0351
 9557SOL    HW130271   1.609   6.112   3.302  1.3088 -0.1393  0.1161
 9557SOL    HW230272   1.524   6.122   3.163 -1.1287  0.1458  1.5658
 9558SOL     OW30273   2.928   0.191   1.651 -0.3596  0.3304 -0.0290
 9558SOL    HW130274   2.916   0.270   1.591  0.6416  0.9560  0.5521
 9558SOL    HW230275   3.025   0.182   1.674 -0.2751 -1.7177 -0.9308
 9559SOL     OW30276   5.179   2.513   5.255 -0.1260 -0.4668 -0.3389
 9559SOL    HW130277   5.130   2.579   5.313 -1.4301 -0.8435 -0.9827
 9559SOL    HW230278   5.181   2.425   5.301 -0.0182 -0.4369 -0.2874
 9560SOL     OW30279   2.189   1.235   1.770 -0.0365  0.3824  0.0687
 9560SOL    HW130280   2.264   1.290   1.733  0.1383 -0.2175 -0.4854
 9560SOL    HW230281   2.217   1.139   1.775 -0.4678  0.2804  0.6815
 9561SOL     OW30282   2.667   3.735   3.706 -0.1635  0.2322 -0.0421
 9561SOL    HW130283   2.589   3.778   3.662  0.1089 -0.2317 -1.0173
 9561SOL    HW230284   2.751   3.757   3.655  0.2368  0.1053  0.5468
 9562SOL     OW30285   5.816   6.957   5.244 -0.7727 -0.2587 -0.1448
 9562SOL    HW130286   5.768   7.002   5.320 -0.3508  0.6594 -0.4001
 9562SOL    HW230287   5.758   6.959   5.163 -0.3617  0.7778 -0.4318
 9563SOL     OW30288   2.225   0.381   0.686  0.4216 -0.0472 -0.3718
 9563SOL    HW130289   2.145   0.375   0.745  0.6803 -3.6919 -0.1440
 9563SOL    HW230290   2.203   0.435   0.605 -1.7994  0.2449  0.3767
 9564SOL     OW30291   6.350   5.004   3.509 -0.3733 -0.2182  0.4360
 9564SOL    HW130292   6.417   4.989   3.437 -0.2029 -0.9983  0.7459
 9564SOL    HW230293   6.270   5.052   3.471  0.1470  0.2899 -0.0351
 9565SOL     OW30294   5.245   4.304   6.596  1.3872 -0.4100 -0.1523
 9565SOL    HW130295   5.334   4.281   6.555  2.4676  1.5877  0.9124
 9565SOL    HW230296   5.211   4.389   6.557  1.9980  1.0485  2.2604
 9566SOL     OW30297   5.237   4.056   5.910  0.2689 -0.0481  0.5985
 9566SOL    HW130298   5.246   4.071   6.008  1.3809 -0.6926  0.6131
 9566SOL    HW230299   5.288   4.126   5.860  0.5559 -0.3112  0.5164
 9567SOL     OW30300   6.108   5.273   5.475  0.1600 -0.8841 -0.2093
 9567SOL    HW130301   6.047   5.332   5.423  0.4632  0.7268  1.1460
 9567SOL    HW230302   6.135   5.194   5.420 -1.1408 -0.3288 -1.6968
 9568SOL     OW30303   0.472   2.753   0.037  0.0546  0.0997  0.0264
 9568SOL    HW130304   0.452   2.691   0.113 -2.7077  0.2699 -0.4555
 9568SOL    HW230305   0.424   2.722  -0.045 -1.7467  2.9693 -0.1449
 9569SOL     OW30306   5.039   1.766   5.785 -0.1003  0.1524  0.4066
 9569SOL    HW130307   4.955   1.713   5.793 -1.1749  1.6203 -0.5545
 9569SOL    HW230308   5.036   1.822   5.702  1.3467  1.0638  0.9177
 9570SOL     OW30309   3.045   4.049   0.537  0.7556 -0.3536 -0.4431
 9570SOL    HW130310   2.992   4.127   0.502  2.5431  1.1331  0.0136
 9570SOL    HW230311   2.988   3.995   0.599  0.2659  2.2867  1.5666
 9571SOL     OW30312   3.029   2.955   5.752 -0.0580 -0.0579  0.2468
 9571SOL    HW130313   2.988   2.963   5.662  2.1052  0.4699 -0.7717
 9571SOL    HW230314   3.098   2.883   5.751  0.3891  0.3316  1.3045
 9572SOL     OW30315   1.218   4.912   3.333 -0.2615  0.2349  0.3927
 9572SOL    HW130316   1.162   4.992   3.356  1.0344  1.1422  0.5042
 9572SOL    HW230317   1.185   4.873   3.247 -1.8253 -0.0096  1.0577
 9573SOL     OW30318   6.859   0.333   2.289 -0.2870  0.6865  0.0133
 9573SOL    HW130319   6.883   0.246   2.247 -0.5979  0.1060  1.0173
 9573SOL    HW230320   6.797   0.383   2.228 -0.2962  0.1064 -0.4666
 9574SOL     OW30321   1.828   5.623   6.112  0.2099  0.4234  0.3101
 9574SOL    HW130322   1.800   5.687   6.040 -0.0078 -1.1405 -1.0377
 9574SOL    HW230323   1.754   5.611   6.177 -1.0225 -0.9455 -1.2637
 9575SOL     OW30324   4.800   0.349   2.641 -0.1420  0.2948  0.5906
 9575SOL    HW130325   4.777   0.446   2.651 -0.8806  0.2324 -0.3417
 9575SOL    HW230326   4.797   0.324   2.544  0.9943 -0.4435  0.7210
 9576SOL     OW30327   2.594   6.303   5.751  0.1661  0.4658  0.4316
 9576SOL    HW130328   2.557   6.339   5.837 -0.5055 -1.3257  0.9379
 9576SOL    HW230329   2.691   6.282   5.763  0.0676  0.1907  0.7927
 9577SOL     OW30330   1.847   1.520   6.987  0.5244  0.2158  0.5561
 9577SOL    HW130331   1.752   1.524   6.955 -0.0735 -2.7089  1.6714
 9577SOL    HW230332   1.898   1.597   6.948 -2.2308  1.8399 -0.1584
 9578SOL     OW30333   3.375   1.627   6.231  0.8064  0.1141  0.4014
 9578SOL    HW130334   3.456   1.662   6.278  2.5547 -0.8349 -1.7292
 9578SOL    HW230335   3.388   1.635   6.132 -2.1578  0.8149 -0.0229
 9579SOL     OW30336   5.029   5.983   5.448  0.0840 -0.2601 -0.6767
 9579SOL    HW130337   4.980   5.896   5.459  0.7921 -0.5641  0.2126
 9579SOL    HW230338   5.121   5.974   5.486 -0.5907  1.5466  1.6432
 9580SOL     OW30339   4.121   3.231   2.188 -0.1606 -0.6195  0.6248
 9580SOL    HW130340   4.145   3.138   2.161 -0.8870 -0.3742 -0.9834
 9580SOL    HW230341   4.022   3.239   2.195 -0.1451  0.2256 -0.0150
 9581SOL     OW30342   4.489   3.304   0.899 -1.3775  0.4160 -0.3345
 9581SOL    HW130343   4.448   3.247   0.828 -2.0617 -0.7719  0.9828
 9581SOL    HW230344   4.439   3.293   0.985 -0.0898  1.2074  0.5639
 9582SOL     OW30345   3.597   5.841   1.938 -0.1929  0.5747  0.4632
 9582SOL    HW130346   3.684   5.828   1.986 -0.7619  0.5788  1.5377
 9582SOL    HW230347   3.592   5.934   1.901  0.3683  0.4858  0.1537
 9583SOL     OW30348   2.653   5.867   5.474  0.0187 -0.1672 -0.1109
 9583SOL    HW130349   2.595   5.943   5.447 -0.2891 -0.0794  0.7664
 9583SOL    HW230350   2.608   5.814   5.545  1.4488  0.5487  1.4101
 9584SOL     OW30351   2.690   0.578   2.864  0.4852  0.2091  0.0994
 9584SOL    HW130352   2.675   0.655   2.925  1.3757 -0.0737  0.6992
 9584SOL    HW230353   2.658   0.494   2.907  0.2616  0.1352 -0.2096
 9585SOL     OW30354   2.806   5.758   6.597  0.1738 -0.0827  0.1230
 9585SOL    HW130355   2.732   5.696   6.622  0.4236 -1.3833 -2.0708
 9585SOL    HW230356   2.780   5.810   6.515  1.9505 -1.2227 -1.2467
 9586SOL     OW30357   6.437   0.220   5.290  0.1020  0.2456  0.1440
 9586SOL    HW130358   6.516   0.227   5.350  0.5787 -1.4219 -0.2584
 9586SOL    HW230359   6.354   0.214   5.346  0.5410 -1.3283  0.6700
 9587SOL     OW30360   3.063   4.126   1.798 -0.1209  0.1510  0.0426
 9587SOL    HW130361   3.012   4.140   1.713 -3.3049 -0.5957  1.6521
 9587SOL    HW230362   3.096   4.032   1.803  0.6462  0.3774 -0.6106
 9588SOL     OW30363   5.249   5.791   3.282 -0.4720 -0.3127 -0.0258
 9588SOL    HW130364   5.319   5.745   3.228 -0.5118 -2.0253  1.3227
 9588SOL    HW230365   5.281   5.883   3.307  1.2206 -0.9808  0.3970
 9589SOL     OW30366   6.242   3.862   4.637  0.0341 -0.5279  0.6225
 9589SOL    HW130367   6.298   3.856   4.554 -1.7428  1.6938 -0.8581
 9589SOL    HW230368   6.171   3.791   4.634  0.0328 -0.5142  0.2819
 9590SOL     OW30369   6.113   5.158   3.496 -0.5268 -0.0022 -0.4357
 9590SOL    HW130370   6.084   5.254   3.497 -0.0460  0.1513 -0.7831
 9590SOL    HW230371   6.070   5.111   3.419 -0.1643  0.1275 -0.7187
 9591SOL     OW30372   1.322   2.924   1.403  0.2524 -0.4606 -0.1856
 9591SOL    HW130373   1.409   2.876   1.391  0.9810  1.0173 -1.1654
 9591SOL    HW230374   1.254   2.885   1.341 -0.2567 -2.5497  1.5567
 9592SOL     OW30375   5.414   3.522   3.201  0.0198  0.0530  0.3950
 9592SOL    HW130376   5.371   3.612   3.192 -0.4323 -0.3136 -1.4463
 9592SOL    HW230377   5.388   3.482   3.289 -1.5941  0.7893  0.2947
 9593SOL     OW30378   2.064   1.826   2.572  0.2484 -0.1652  0.2674
 9593SOL    HW130379   2.060   1.818   2.472  0.6310 -0.0702  0.2419
 9593SOL    HW230380   2.105   1.743   2.610 -0.7300 -0.5943  0.4209
 9594SOL     OW30381   3.608   6.851   1.928  0.0767 -0.3204 -0.1551
 9594SOL    HW130382   3.520   6.884   1.964 -1.2281 -2.1266 -1.4830
 9594SOL    HW230383   3.676   6.849   2.001 -1.7972 -1.6446  1.6819
 9595SOL     OW30384   3.483   2.895   5.104  0.1788  0.6882 -0.6939
 9595SOL    HW130385   3.552   2.841   5.153 -0.3784  0.3789 -0.2452
 9595SOL    HW230386   3.529   2.964   5.048  0.8348  1.1079  0.3276
 9596SOL     OW30387   0.210   0.164   4.971 -0.1987 -0.0536 -0.1877
 9596SOL    HW130388   0.199   0.073   5.012 -2.1182  0.1880 -0.0364
 9596SOL    HW230389   0.192   0.234   5.040 -0.8012  0.3978 -0.7861
 9597SOL     OW30390   3.746   4.062   1.013  0.0326  0.1719  0.1114
 9597SOL    HW130391   3.715   4.043   1.107  0.7015  1.4138  0.6136
 9597SOL    HW230392   3.700   4.145   0.980 -0.1760 -0.2440 -0.6631
 9598SOL     OW30393   0.848   6.392   1.337  0.0573  0.2559  0.3613
 9598SOL    HW130394   0.932   6.403   1.285  0.6673  0.4923  1.3734
 9598SOL    HW230395   0.778   6.350   1.279  0.7727  0.3285 -0.5751
 9599SOL     OW30396   3.973   2.125   4.553 -0.5327 -0.5601  0.3374
 9599SOL    HW130397   3.903   2.185   4.514  0.7104  0.4267 -0.4986
 9599SOL    HW230398   3.953   2.030   4.529 -1.3211 -0.2470 -0.3035
 9600SOL     OW30399   4.511   1.276   0.292  0.5276 -0.7250 -0.3552
 9600SOL    HW130400   4.471   1.345   0.352  1.4285 -1.4474  1.1208
 9600SOL    HW230401   4.507   1.308   0.197 -1.1457  0.3353  0.0338
 9601SOL     OW30402   6.166   6.104   1.978  0.1317  0.1072 -0.5443
 9601SOL    HW130403   6.163   6.011   2.016 -0.2647  0.8194  1.2417
 9601SOL    HW230404   6.109   6.165   2.033  1.0148  1.5851 -1.2056
 9602SOL     OW30405   6.192   2.027   4.136  0.8958 -0.1907  0.1093
 9602SOL    HW130406   6.178   1.945   4.190 -0.6429 -1.2006 -1.7139
 9602SOL    HW230407   6.104   2.060   4.101  1.8210  0.2474 -1.9745
 9603SOL     OW30408   4.260   4.252   0.975 -0.1382  0.0048  0.3992
 9603SOL    HW130409   4.177   4.244   0.920 -0.3547  0.4109  0.6627
 9603SOL    HW230410   4.251   4.198   1.058 -0.2754  0.3265  0.5929
 9604SOL     OW30411   5.205   5.518   2.388 -0.2587  0.6467 -0.4365
 9604SOL    HW130412   5.182   5.454   2.461  1.2353  2.2765  1.5669
 9604SOL    HW230413   5.288   5.488   2.341  0.9227  1.4615  1.0534
 9605SOL     OW30414   0.509   6.855   4.985  0.8770 -0.1646 -0.1063
 9605SOL    HW130415   0.597   6.893   4.956  0.7360 -0.2013 -0.6058
 9605SOL    HW230416   0.455   6.832   4.904  0.3231  0.0518  0.1945
 9606SOL     OW30417   5.302   3.388   6.117 -0.1210  0.2177  0.7803
 9606SOL    HW130418   5.280   3.477   6.078 -1.6729  0.5550  2.3077
 9606SOL    HW230419   5.312   3.396   6.216 -1.2964 -1.4470  1.0788
 9607SOL     OW30420   6.915   3.596   4.528  0.0112 -0.0181 -0.1911
 9607SOL    HW130421   6.953   3.640   4.609 -1.0298  1.6132 -0.5419
 9607SOL    HW230422   6.829   3.641   4.503  0.4622 -0.2761 -2.3710
 9608SOL     OW30423   5.478   6.215   1.363  0.1200 -0.1148  0.0220
 9608SOL    HW130424   5.446   6.122   1.348  0.1171 -0.0525 -0.3756
 9608SOL    HW230425   5.435   6.252   1.445  0.1355 -0.4694  0.1910
 9609SOL     OW30426   1.795   1.760   4.592  0.3640  0.1839 -0.1315
 9609SOL    HW130427   1.850   1.828   4.639  1.7994 -0.8326 -0.2767
 9609SOL    HW230428   1.760   1.798   4.506 -0.4152  1.3127  0.6631
 9610SOL     OW30429   6.830   1.612   5.332 -0.4912 -0.2086 -0.3331
 9610SOL    HW130430   6.762   1.631   5.403 -0.2476 -0.6989  0.0356
 9610SOL    HW230431   6.787   1.616   5.242 -0.5253  1.7949 -0.2717
 9611SOL     OW30432   4.309   4.817   4.144 -0.4124  0.3620 -0.4956
 9611SOL    HW130433   4.282   4.735   4.193  0.2950  0.1504 -0.4381
 9611SOL    HW230434   4.406   4.810   4.119 -0.1004  1.5669  0.3045
 9612SOL     OW30435   2.708   0.016   6.252 -0.1657  0.0846 -0.2727
 9612SOL    HW130436   2.631  -0.044   6.229  0.0406 -1.1212  1.9079
 9612SOL    HW230437   2.675   0.092   6.307  0.1669 -0.4079  0.6237
 9613SOL     OW30438   0.831   0.112   6.392 -0.1457 -0.0054 -0.5935
 9613SOL    HW130439   0.736   0.140   6.409 -0.1253  1.0783 -2.0819
 9613SOL    HW230440   0.893   0.187   6.412  0.7352 -1.4231  2.7068
 9614SOL     OW30441   2.275   3.892   6.782 -0.0467  0.2424  0.7724
 9614SOL    HW130442   2.184   3.857   6.805  0.2516 -0.4449  0.9257
 9614SOL    HW230443   2.266   3.974   6.725 -0.7585 -1.2575 -1.3782
 9615SOL     OW30444   4.528   3.441   3.642 -0.9110  0.1257 -0.1141
 9615SOL    HW130445   4.574   3.421   3.729  1.9702  0.3774 -1.4559
 9615SOL    HW230446   4.558   3.530   3.608 -1.9440  0.0084 -1.4022
 9616SOL     OW30447   2.074   5.104   3.302  0.2049  0.3629 -0.4838
 9616SOL    HW130448   1.986   5.086   3.346  0.7395  2.1293  1.5037
 9616SOL    HW230449   2.090   5.038   3.229 -2.5064 -0.3167 -0.5404
 9617SOL     OW30450   5.944   5.852   4.520 -0.1895  0.3131 -0.3657
 9617SOL    HW130451   5.873   5.839   4.450  0.1506  0.1553 -0.6907
 9617SOL    HW230452   6.014   5.780   4.509 -0.9176 -0.6657  1.1356
 9618SOL     OW30453   3.040   1.895   4.489 -0.3702 -0.7162 -0.3020
 9618SOL    HW130454   3.114   1.958   4.513  0.7517 -0.3702 -4.0387
 9618SOL    HW230455   2.965   1.945   4.447 -1.9690 -1.3107  1.6984
 9619SOL     OW30456   1.473   6.414   5.064 -0.3405  1.0009 -0.6484
 9619SOL    HW130457   1.510   6.362   5.142 -0.7952  0.6919 -0.6393
 9619SOL    HW230458   1.376   6.431   5.079 -0.0941  2.3195 -0.3919
 9620SOL     OW30459   3.445   1.733   6.513 -0.6298 -0.1938 -0.4277
 9620SOL    HW130460   3.456   1.714   6.610  2.1706  0.0184 -0.5982
 9620SOL    HW230461   3.428   1.830   6.499  2.2895  0.4383 -0.1908
 9621SOL     OW30462   5.936   5.660   0.099  0.1779 -0.2616  0.1918
 9621SOL    HW130463   5.956   5.651   0.001 -2.0306 -2.2591 -0.1575
 9621SOL    HW230464   5.853   5.714   0.111  0.9798  0.8245  1.0664
 9622SOL     OW30465   3.302   4.399   6.893 -0.1914 -0.5792 -0.3185
 9622SOL    HW130466   3.307   4.499   6.894  0.9484 -0.5983 -1.0006
 9622SOL    HW230467   3.351   4.365   6.812  0.9769 -1.7490  0.8330
 9623SOL     OW30468   2.584   5.070   4.080 -0.1369  1.0871  0.3631
 9623SOL    HW130469   2.660   5.064   4.016  0.2821  1.0231  0.8623
 9623SOL    HW230470   2.546   5.163   4.077 -0.7307  0.8312 -0.6551
 9624SOL     OW30471   4.050   1.423   3.472  0.1911  0.3245  0.1626
 9624SOL    HW130472   3.964   1.404   3.426 -0.1371 -0.0767  0.9326
 9624SOL    HW230473   4.110   1.475   3.411 -0.1658 -0.3496 -0.7805
 9625SOL     OW30474   0.206   3.691   2.933 -0.1594  0.2051  0.3126
 9625SOL    HW130475   0.284   3.735   2.976 -0.0780 -0.9325  1.4031
 9625SOL    HW230476   0.205   3.712   2.835  1.3203  0.4925  0.3378
 9626SOL     OW30477   2.468   4.356   1.217 -0.3368 -0.6966 -0.2824
 9626SOL    HW130478   2.539   4.390   1.155 -0.0351  0.5237  0.6991
 9626SOL    HW230479   2.393   4.422   1.219 -1.4166 -1.8463 -1.1067
 9627SOL     OW30480   2.678   6.607   3.333 -0.7875 -0.3473  0.1508
 9627SOL    HW130481   2.612   6.541   3.299 -1.7299  1.0142 -0.7351
 9627SOL    HW230482   2.769   6.564   3.337 -1.6215 -2.1284  1.0609
 9628SOL     OW30483   5.944   0.596   2.194  0.2523 -0.5934 -0.0663
 9628SOL    HW130484   5.882   0.673   2.179  1.7360  0.8109  0.7085
 9628SOL    HW230485   6.030   0.611   2.146  1.2824 -0.8211  1.6252
 9629SOL     OW30486   3.861   6.326   3.231  0.8265 -0.7101 -0.2400
 9629SOL    HW130487   3.901   6.418   3.239  0.5732 -0.4056 -2.1178
 9629SOL    HW230488   3.821   6.315   3.140 -2.0114 -1.5708  1.0104
 9630SOL     OW30489   0.933   1.376   6.853 -0.7983  0.1212 -0.5141
 9630SOL    HW130490   0.954   1.332   6.941  1.0635 -1.5707 -1.7108
 9630SOL    HW230491   0.925   1.475   6.866  0.8120  0.0566  1.3568
 9631SOL     OW30492   2.042   1.300   4.568 -0.0849 -0.5646  0.2683
 9631SOL    HW130493   2.062   1.202   4.574  0.7758 -0.9663 -4.6866
 9631SOL    HW230494   2.124   1.352   4.591 -0.0852 -1.0408  1.4146
 9632SOL     OW30495   5.767   2.584   0.810  0.7038 -0.1144 -0.3198
 9632SOL    HW130496   5.855   2.629   0.797  1.2756 -1.3954 -1.0838
 9632SOL    HW230497   5.718   2.580   0.723 -0.1888  0.7128  0.1285
 9633SOL     OW30498   1.747   3.735   0.704  0.0080 -0.5082 -0.0570
 9633SOL    HW130499   1.838   3.767   0.677  0.4343 -2.2581 -0.8518
 9633SOL    HW230500   1.756   3.664   0.774 -0.9072  1.0960  1.7716
 9634SOL     OW30501   5.042   6.836   2.908  0.5834  0.1415  0.0716
 9634SOL    HW130502   5.025   6.763   2.975  1.4546  0.2080  0.3792
 9634SOL    HW230503   5.017   6.804   2.817  0.5300 -0.3850  0.2661
 9635SOL     OW30504   3.164   2.008   4.843  0.4012  0.0528 -0.1526
 9635SOL    HW130505   3.095   1.963   4.898  0.8343 -1.2595 -0.6384
 9635SOL    HW230506   3.233   2.049   4.903  0.1832 -0.2393  0.3043
 9636SOL     OW30507   4.747   6.522   4.067 -0.0242  0.1522 -0.4491
 9636SOL    HW130508   4.786   6.511   4.158 -0.6725  0.2713 -0.1473
 9636SOL    HW230509   4.816   6.502   3.998  0.0792 -1.4632  0.0700
 9637SOL     OW30510   3.614   4.774   4.774 -1.0247 -0.5075  0.3447
 9637SOL    HW130511   3.681   4.823   4.718 -2.8844 -0.4570 -1.9907
 9637SOL    HW230512   3.641   4.678   4.781  0.2050 -0.1337  0.9955
 9638SOL     OW30513   2.415   4.036   3.328 -0.3798  0.1348  0.2309
 9638SOL    HW130514   2.413   3.954   3.384 -0.3733  0.4166  0.6449
 9638SOL    HW230515   2.324   4.056   3.294 -0.3215 -0.2350 -0.1542
 9639SOL     OW30516   0.071   1.483   3.603 -0.0431 -0.4061 -1.0152
 9639SOL    HW130517   0.018   1.522   3.678 -0.0066  0.7587 -1.5816
 9639SOL    HW230518   0.018   1.411   3.559 -1.1986  0.7613 -1.5938
 9640SOL     OW30519   0.167   3.532   6.285  0.0769  0.0864  0.0857
 9640SOL    HW130520   0.136   3.437   6.289  2.1918 -0.7128 -1.1739
 9640SOL    HW230521   0.262   3.535   6.254 -1.3072  2.7593 -5.0392
 9641SOL     OW30522   4.106   5.449   0.700 -0.7928 -0.1049 -0.2145
 9641SOL    HW130523   4.078   5.506   0.622 -1.9779 -2.6395 -1.7812
 9641SOL    HW230524   4.051   5.473   0.780 -0.5027  1.6447 -0.4996
 9642SOL     OW30525   4.257   0.287   2.060  0.1448 -0.2598  0.1009
 9642SOL    HW130526   4.194   0.323   2.129 -0.2137 -1.9568  0.7270
 9642SOL    HW230527   4.298   0.362   2.009 -2.5961  0.9662 -0.5290
 9643SOL     OW30528   6.138   6.813   1.523 -0.0056 -0.2836 -0.4776
 9643SOL    HW130529   6.070   6.856   1.583 -0.0442 -1.0094  0.0174
 9643SOL    HW230530   6.160   6.722   1.559  0.3779 -0.5080 -1.2760
 9644SOL     OW30531   4.563   4.267   5.801 -0.0616 -0.3353 -0.0101
 9644SOL    HW130532   4.644   4.317   5.831 -0.8229  0.6779  0.4204
 9644SOL    HW230533   4.589   4.202   5.730  0.7937  1.6058 -1.5996
 9645SOL     OW30534   4.562   0.106   3.414 -0.0228  0.8533 -0.5134
 9645SOL    HW130535   4.617   0.190   3.420  1.0967  0.0960  0.2849
 9645SOL    HW230536   4.587   0.055   3.332 -0.6699  1.2618 -0.9737
 9646SOL     OW30537   1.170   5.892   0.812  0.5392  0.7628 -0.2756
 9646SOL    HW130538   1.225   5.946   0.748  1.3088  0.1083 -0.1786
 9646SOL    HW230539   1.076   5.924   0.809  1.0730  2.4930  0.1916
 9647SOL     OW30540   1.102   4.052   2.046 -0.2572  0.1034 -0.5591
 9647SOL    HW130541   1.074   4.019   1.955  2.0812  0.3570 -1.4343
 9647SOL    HW230542   1.200   4.072   2.046 -0.5797  2.1836  1.4153
 9648SOL     OW30543   3.363   0.338   0.253  0.0497  0.0477 -0.2064
 9648SOL    HW130544   3.290   0.297   0.199 -1.3523  4.3187 -1.9578
 9648SOL    HW230545   3.412   0.406   0.198  1.9636  1.0233  2.4650
 9649SOL     OW30546   5.588   3.344   4.784  0.6400  0.2027  0.8975
 9649SOL    HW130547   5.570   3.420   4.846  1.7594  0.8073  0.5053
 9649SOL    HW230548   5.666   3.292   4.816  0.7770  0.0872  0.3830
 9650SOL     OW30549   1.343   6.581   0.136 -0.0630  0.2855  0.2305
 9650SOL    HW130550   1.259   6.630   0.159 -0.1730  0.6794 -0.9784
 9650SOL    HW230551   1.402   6.576   0.217 -0.7435  1.0130  0.7814
 9651SOL     OW30552   4.247   1.545   2.771 -0.1133 -0.2654  0.1528
 9651SOL    HW130553   4.161   1.494   2.768  0.1408 -0.6766 -0.1779
 9651SOL    HW230554   4.311   1.507   2.704  0.3551 -0.0094  0.4491
 9652SOL     OW30555   1.549   2.858   5.490  0.2056 -0.1822 -0.1916
 9652SOL    HW130556   1.510   2.948   5.472 -1.0445 -0.6476  0.0331
 9652SOL    HW230557   1.477   2.798   5.526  1.4297 -0.7540  1.3936
 9653SOL     OW30558   0.161   2.826   5.922 -0.3398 -0.1392 -0.3416
 9653SOL    HW130559   0.153   2.838   5.823 -0.9710 -0.2996 -0.3090
 9653SOL    HW230560   0.115   2.901   5.969 -0.2652 -0.2033 -0.1650
 9654SOL     OW30561   5.173   6.888   4.051 -0.4055  0.7581 -0.6287
 9654SOL    HW130562   5.263   6.870   4.012 -0.7960 -1.8521 -0.4951
 9654SOL    HW230563   5.122   6.949   3.991  0.1558 -0.6291 -2.5812
 9655SOL     OW30564   5.151   6.681   5.870 -0.1523  0.4267 -0.5435
 9655SOL    HW130565   5.146   6.763   5.928 -0.9420  1.5722 -2.1733
 9655SOL    HW230566   5.243   6.642   5.876  0.5443  1.9969 -0.4693
 9656SOL     OW30567   0.024   4.642   2.960  0.5460 -0.4230 -0.3022
 9656SOL    HW130568   0.038   4.726   2.907  0.9518 -0.4585 -0.2491
 9656SOL    HW230569  -0.058   4.653   3.016  2.3331  1.2410  2.2133
 9657SOL     OW30570   3.241   6.580   6.455  0.5480  0.4334  0.4606
 9657SOL    HW130571   3.159   6.635   6.441  0.5943  0.2390 -0.6311
 9657SOL    HW230572   3.302   6.590   6.376  0.9051 -0.5756  0.5980
 9658SOL     OW30573   3.296   3.887   1.497  0.1868 -0.1477 -0.2872
 9658SOL    HW130574   3.326   3.975   1.460  0.5075 -0.1661 -0.0764
 9658SOL    HW230575   3.371   3.820   1.489 -0.2491 -0.5685 -0.9916
 9659SOL     OW30576   6.891   4.726   5.137 -0.0468 -0.3101 -0.0046
 9659SOL    HW130577   6.978   4.759   5.174  0.0835 -0.6902  0.0366
 9659SOL    HW230578   6.872   4.635   5.175 -0.4973 -0.1955  0.0422
 9660SOL     OW30579   4.813   0.384   0.340 -0.6405 -0.3323 -0.7875
 9660SOL    HW130580   4.826   0.291   0.373 -1.3536 -0.3577 -0.5547
 9660SOL    HW230581   4.737   0.427   0.389 -1.2162 -0.1043 -1.8341
 9661SOL     OW30582   5.649   0.396   6.394 -0.0177  0.3927  0.0565
 9661SOL    HW130583   5.612   0.326   6.333 -0.0008  0.1984  0.2683
 9661SOL    HW230584   5.721   0.356   6.451  0.4535  0.7404 -0.2783
 9662SOL     OW30585   3.360   3.077   6.186  0.1884  0.1807  0.4516
 9662SOL    HW130586   3.275   3.109   6.145  0.3816 -0.4497 -0.4821
 9662SOL    HW230587   3.352   2.980   6.208 -0.0657  0.5978  2.3842
 9663SOL     OW30588   2.534   1.862   0.143 -0.0449 -0.0168  0.5418
 9663SOL    HW130589   2.521   1.885   0.046  0.5648  1.0070  0.6935
 9663SOL    HW230590   2.598   1.786   0.150 -0.4032 -0.3672  0.1329
 9664SOL     OW30591   1.519   4.642   5.113 -0.1302 -0.0845  0.6827
 9664SOL    HW130592   1.460   4.563   5.124 -0.5738 -0.1271 -1.5453
 9664SOL    HW230593   1.615   4.614   5.119 -0.2883 -0.7601  0.1839
 9665SOL     OW30594   1.226   0.534   1.181  0.2906  0.0616 -0.6706
 9665SOL    HW130595   1.216   0.586   1.096  1.5404  1.0031 -0.2751
 9665SOL    HW230596   1.312   0.483   1.179  0.4521  0.2867  0.1116
 9666SOL     OW30597   0.351   1.883   1.532  0.4796  0.0842 -0.2136
 9666SOL    HW130598   0.329   1.906   1.437 -0.8731 -0.0361  0.0543
 9666SOL    HW230599   0.297   1.805   1.561  0.4783  0.4523  0.8345
 9667SOL     OW30600   1.049   1.521   4.236 -0.6176 -0.4803  0.2934
 9667SOL    HW130601   1.133   1.486   4.194  0.0827  0.5699  0.7806
 9667SOL    HW230602   0.999   1.575   4.169  0.5333  1.2534  0.7739
 9668SOL     OW30603   0.466   3.009   5.030  0.0831 -0.3345  0.0644
 9668SOL    HW130604   0.400   3.078   5.056 -2.0124 -1.9159 -0.7662
 9668SOL    HW230605   0.466   2.999   4.930  1.2454 -0.6902  0.0817
 9669SOL     OW30606   3.645   1.127   1.753 -0.1799  0.2002  0.2891
 9669SOL    HW130607   3.617   1.110   1.848  2.8212  0.0772  1.2600
 9669SOL    HW230608   3.669   1.041   1.709 -2.5720  0.1180 -1.0528
 9670SOL     OW30609   6.714   3.080   6.371 -0.7072  0.2874 -0.0635
 9670SOL    HW130610   6.770   3.162   6.386 -0.5966 -0.1324  2.2868
 9670SOL    HW230611   6.654   3.066   6.450 -1.3144 -1.4593 -0.7866
 9671SOL     OW30612   2.635   3.459   1.871 -0.2532  0.8604  0.2173
 9671SOL    HW130613   2.668   3.366   1.852 -0.1024  1.2809 -1.7110
 9671SOL    HW230614   2.539   3.466   1.844  0.2301  1.7402 -1.3883
 9672SOL     OW30615   3.597   5.001   0.124 -0.1534  0.0971  0.0906
 9672SOL    HW130616   3.509   5.019   0.080 -0.6787  0.8735  1.3986
 9672SOL    HW230617   3.670   5.041   0.069 -0.7108  0.3455 -0.4913
 9673SOL     OW30618   3.174   5.605   4.850 -0.1218  0.1782  0.1614
 9673SOL    HW130619   3.154   5.507   4.862 -1.0366  0.3625  0.2184
 9673SOL    HW230620   3.218   5.640   4.932 -1.5974  0.2425  0.9751
 9674SOL     OW30621   1.649   4.254   2.931 -0.2773  0.1845 -0.4342
 9674SOL    HW130622   1.676   4.286   2.840 -0.4384 -1.0385 -0.9287
 9674SOL    HW230623   1.717   4.189   2.965 -0.4650  0.2702  0.1100
 9675SOL     OW30624   1.616   2.170   6.089 -0.3924 -0.7234 -0.5097
 9675SOL    HW130625   1.700   2.123   6.115  1.4709  2.1669 -0.8009
 9675SOL    HW230626   1.589   2.232   6.163  0.6493  2.0050 -2.2707
 9676SOL     OW30627   1.356   2.664   1.546  0.3894  0.3964  0.1577
 9676SOL    HW130628   1.412   2.590   1.512  0.3608  0.1191  0.7086
 9676SOL    HW230629   1.259   2.644   1.529  0.4217  0.6562 -0.3629
 9677SOL     OW30630   4.869   0.694   4.824 -0.0937 -0.4076 -0.1511
 9677SOL    HW130631   4.935   0.763   4.795 -2.0690  0.8089 -2.0430
 9677SOL    HW230632   4.875   0.615   4.764 -0.8989  0.0563 -0.8525
 9678SOL     OW30633   0.127   1.228   5.678 -0.4422 -0.3860  0.3420
 9678SOL    HW130634   0.086   1.306   5.629  1.5292  0.1339 -0.5651
 9678SOL    HW230635   0.140   1.153   5.613 -0.7522 -0.8659  0.8333
 9679SOL     OW30636   0.643   3.449   3.305  0.6611  0.4318  0.0518
 9679SOL    HW130637   0.635   3.460   3.205 -1.4745  2.0020  0.3144
 9679SOL    HW230638   0.720   3.503   3.338  1.5340 -0.2894 -0.7669
 9680SOL     OW30639   2.270   4.040   7.020 -0.2334 -0.3952  0.0326
 9680SOL    HW130640   2.332   4.107   7.062  0.2093 -1.3880  1.0301
 9680SOL    HW230641   2.302   4.019   6.928  0.9756 -0.9372  0.5576
 9681SOL     OW30642   6.592   5.404   0.831 -0.0251  0.2263 -0.2826
 9681SOL    HW130643   6.691   5.392   0.842  0.0970  0.4400 -1.0968
 9681SOL    HW230644   6.570   5.415   0.734 -1.1912 -2.7695 -0.4657
 9682SOL     OW30645   3.069   3.685   1.414 -0.0552 -0.0744  0.0036
 9682SOL    HW130646   2.980   3.722   1.442  0.5062 -0.7076  2.9393
 9682SOL    HW230647   3.136   3.759   1.409 -0.4076  0.2000 -0.7889
 9683SOL     OW30648   3.802   0.609   5.925 -0.1712  0.0169  0.1057
 9683SOL    HW130649   3.846   0.696   5.900  0.5034 -0.4871 -0.4742
 9683SOL    HW230650   3.853   0.566   5.999  1.0583 -1.1383 -1.3452
 9684SOL     OW30651   0.277   0.104   0.868 -0.1588  0.1025 -0.3396
 9684SOL    HW130652   0.309   0.192   0.834 -1.0091  0.3328 -0.5560
 9684SOL    HW230653   0.353   0.056   0.912  0.2411  1.0663  0.0424
 9685SOL     OW30654   6.959   5.275   0.038 -0.3217  0.0004 -0.1948
 9685SOL    HW130655   6.931   5.316  -0.048 -0.9819  0.5453  0.2681
 9685SOL    HW230656   6.982   5.179   0.023  2.4514  0.7788 -1.5288
 9686SOL     OW30657   3.144   4.814   2.459 -0.0472 -0.6503  0.0301
 9686SOL    HW130658   3.156   4.753   2.382  0.5044  0.9979 -1.2541
 9686SOL    HW230659   3.087   4.892   2.431 -0.1706 -0.2233  1.3974
 9687SOL     OW30660   6.856   5.933   1.533  0.2026  0.0564  0.3199
 9687SOL    HW130661   6.891   5.937   1.439 -0.1469 -0.5731  0.1541
 9687SOL    HW230662   6.916   5.875   1.588 -0.7048 -1.2945 -0.0450
 9688SOL     OW30663   6.470   5.417   5.714  0.3042 -0.4443 -0.1279
 9688SOL    HW130664   6.403   5.480   5.673 -0.9239 -1.0126  0.9346
 9688SOL    HW230665   6.457   5.326   5.674 -0.6547 -0.9176  1.2034
 9689SOL     OW30666   4.976   3.032   6.682 -0.1624 -0.4672 -0.4342
 9689SOL    HW130667   5.055   2.970   6.685  0.6448  0.4846 -1.1896
 9689SOL    HW230668   4.973   3.085   6.767  0.0852 -0.4390 -0.4394
 9690SOL     OW30669   2.181   6.352   1.011  0.7131 -0.5021  0.1732
 9690SOL    HW130670   2.248   6.288   1.048  1.6307  0.9010  1.0382
 9690SOL    HW230671   2.098   6.349   1.066  0.9666 -0.5458  0.5576
 9691SOL     OW30672   5.353   6.062   3.217  0.5935  0.4454  0.5306
 9691SOL    HW130673   5.361   6.037   3.120  0.0162  1.1748  0.2855
 9691SOL    HW230674   5.402   6.148   3.233 -2.1392  2.1805  0.1220
 9692SOL     OW30675   2.448   5.210   0.727  0.5023 -0.3571 -0.3920
 9692SOL    HW130676   2.447   5.113   0.751  0.9431 -0.4128 -0.5685
 9692SOL    HW230677   2.460   5.265   0.810 -1.2630 -0.3593 -0.0995
 9693SOL     OW30678   6.315   1.000   5.731 -0.2611 -0.0019 -0.5053
 9693SOL    HW130679   6.296   0.926   5.666  0.1529 -0.7251  0.1856
 9693SOL    HW230680   6.230   1.048   5.751 -0.2914  0.6647 -2.0843
 9694SOL     OW30681   3.860   4.632   5.493  0.1207 -0.3014  0.3328
 9694SOL    HW130682   3.918   4.701   5.450 -1.4603  0.8326 -0.0584
 9694SOL    HW230683   3.880   4.628   5.591  0.1996  0.7829  0.3775
 9695SOL     OW30684   4.315   1.880   0.578 -0.1480  0.4838  0.7642
 9695SOL    HW130685   4.399   1.932   0.563 -0.7207  1.4247  0.7040
 9695SOL    HW230686   4.263   1.922   0.653 -0.2057 -0.5451  1.3268
 9696SOL     OW30687   4.086   0.984   0.367  0.0835  0.3793  0.3637
 9696SOL    HW130688   4.017   0.995   0.295 -0.3248 -0.3514  0.6274
 9696SOL    HW230689   4.174   0.959   0.325  0.1615  1.1928  0.0348
 9697SOL     OW30690   5.588   0.890   3.872 -0.2447 -0.3663 -0.3738
 9697SOL    HW130691   5.594   0.979   3.917  3.3153 -1.4935  1.7821
 9697SOL    HW230692   5.604   0.900   3.774  0.9944  1.2691 -0.0339
 9698SOL     OW30693   5.101   1.573   2.389 -0.3263 -0.1892  0.3112
 9698SOL    HW130694   5.165   1.602   2.460 -0.4695  0.0879  0.3285
 9698SOL    HW230695   5.102   1.639   2.314  2.1255 -2.0074 -1.4229
 9699SOL     OW30696   2.615   0.196   0.910 -0.1519  0.0064 -0.1324
 9699SOL    HW130697   2.618   0.162   0.816  1.1582  0.1575 -0.1670
 9699SOL    HW230698   2.599   0.120   0.973 -2.3501  0.0664 -0.5216
 9700SOL     OW30699   2.010   0.863   2.270  0.0900 -0.5835  0.1271
 9700SOL    HW130700   1.983   0.899   2.181  0.2942 -0.6706  0.0281
 9700SOL    HW230701   2.109   0.848   2.271  0.0497 -0.8446  0.2737
 9701SOL     OW30702   4.915   1.342   3.558 -0.0469 -0.1424 -0.2012
 9701SOL    HW130703   4.937   1.245   3.547  0.8189 -0.1788  1.4799
 9701SOL    HW230704   4.929   1.369   3.653 -0.7863  1.5231 -0.5216
 9702SOL     OW30705   2.972   3.076   0.411  0.5800 -0.1861  0.0014
 9702SOL    HW130706   2.964   2.990   0.360  0.0311 -0.5506  0.6913
 9702SOL    HW230707   3.040   3.066   0.483  0.3306 -0.1233  0.2468
 9703SOL     OW30708   6.178   1.443   6.778  0.2258  0.4025  0.2530
 9703SOL    HW130709   6.112   1.464   6.849 -0.1396 -0.6238  0.2400
 9703SOL    HW230710   6.217   1.352   6.795 -0.9204 -0.4885 -1.6232
 9704SOL     OW30711   3.833   1.447   6.577 -0.0448  0.5265 -0.0010
 9704SOL    HW130712   3.902   1.375   6.572 -0.8086 -0.2277  0.1991
 9704SOL    HW230713   3.756   1.417   6.633 -2.3950 -0.2467 -3.3325
 9705SOL     OW30714   5.059   2.727   0.432  0.1375  0.0307  0.9871
 9705SOL    HW130715   4.964   2.696   0.421  0.6525 -0.6815 -2.4954
 9705SOL    HW230716   5.065   2.825   0.414  0.3350 -0.3709 -1.4679
 9706SOL     OW30717   4.187   5.578   0.096  0.3866  0.0152 -0.1823
 9706SOL    HW130718   4.154   5.637   0.170  1.1270 -0.7827  0.8246
 9706SOL    HW230719   4.109   5.532   0.053  0.0116 -0.2819  0.7904
 9707SOL     OW30720   0.965   6.313   0.358 -0.1182  0.1236 -0.0852
 9707SOL    HW130721   1.001   6.339   0.269 -0.2401 -0.0948 -0.1988
 9707SOL    HW230722   0.868   6.291   0.351 -0.2137  0.4442  0.1699
 9708SOL     OW30723   0.871   0.944   1.398  0.4206  0.6239  0.1225
 9708SOL    HW130724   0.862   1.043   1.398 -1.2667  0.5029 -0.3513
 9708SOL    HW230725   0.932   0.916   1.472  0.6394  1.9784  0.4809
 9709SOL     OW30726   1.641   6.938   6.350  0.1601  0.1421  0.5346
 9709SOL    HW130727   1.558   6.979   6.387  0.6754  1.1203  0.6720
 9709SOL    HW230728   1.634   6.930   6.251 -0.0521  0.3388  0.5339
 9710SOL     OW30729   3.770   1.624   6.030 -0.4072  0.5590  0.1739
 9710SOL    HW130730   3.717   1.557   5.979 -0.3229  1.1561 -0.7168
 9710SOL    HW230731   3.865   1.622   5.999 -0.5040  1.4130 -0.2040
 9711SOL     OW30732   6.513   5.448   0.251 -0.2855  0.4093  0.1377
 9711SOL    HW130733   6.427   5.431   0.203 -0.4976 -1.1734  1.0085
 9711SOL    HW230734   6.553   5.533   0.218  0.1985 -1.1119 -3.7405
 9712SOL     OW30735   2.438   4.695   7.008  0.2962 -0.2163 -0.2315
 9712SOL    HW130736   2.382   4.761   6.957  1.9157  1.6549  0.2517
 9712SOL    HW230737   2.524   4.680   6.958  0.0814 -1.7681 -0.1720
 9713SOL     OW30738   3.338   4.556   4.461  0.1624  0.2674  0.5695
 9713SOL    HW130739   3.326   4.578   4.364  0.4737 -4.1580 -0.6852
 9713SOL    HW230740   3.436   4.541   4.479 -0.1268 -1.4467  0.8479
 9714SOL     OW30741   1.223   4.176   4.754 -0.1890 -0.3333 -0.4985
 9714SOL    HW130742   1.183   4.126   4.678  0.2045 -1.1026 -0.2069
 9714SOL    HW230743   1.321   4.187   4.740 -0.5750  2.3545 -1.6642
 9715SOL     OW30744   5.588   5.332   0.250 -0.2686  0.0958  0.5559
 9715SOL    HW130745   5.640   5.413   0.278 -1.0197  1.0572 -0.6858
 9715SOL    HW230746   5.597   5.260   0.319  2.2593  0.4050  0.6302
 9716SOL     OW30747   6.928   0.549   3.325 -0.2278 -0.0225  0.1447
 9716SOL    HW130748   6.934   0.593   3.415  0.9481 -1.7104  0.9342
 9716SOL    HW230749   6.900   0.454   3.336 -2.6303  0.4239 -1.5314
 9717SOL     OW30750   2.778   5.902   1.703 -0.1921  0.5111  0.2388
 9717SOL    HW130751   2.862   5.955   1.717 -0.1908  0.1228  1.9885
 9717SOL    HW230752   2.791   5.808   1.735 -0.6009 -0.2311 -1.6272
 9718SOL     OW30753   6.862   1.755   6.732  0.0325 -0.0098  0.0812
 9718SOL    HW130754   6.902   1.827   6.788 -0.3145  0.7294 -0.5997
 9718SOL    HW230755   6.763   1.767   6.727 -0.0059 -0.4139 -0.2116
 9719SOL     OW30756   6.615   1.668   5.520 -0.6043 -0.3734  0.0295
 9719SOL    HW130757   6.533   1.659   5.464 -0.2945 -1.2015 -0.2959
 9719SOL    HW230758   6.598   1.733   5.594 -1.8946 -1.3067  0.5761
 9720SOL     OW30759   2.999   1.626   6.950  0.2211  0.1314 -0.3753
 9720SOL    HW130760   3.021   1.577   6.865  2.4414 -0.4811  0.4705
 9720SOL    HW230761   2.902   1.648   6.952 -0.0438 -0.5984 -2.6766
 9721SOL     OW30762   5.025   6.956   1.524 -0.3988 -0.4978  0.3635
 9721SOL    HW130763   5.029   7.048   1.487 -0.2740 -1.1424 -1.3510
 9721SOL    HW230764   4.976   6.897   1.460 -0.6699 -1.5830  1.5255
 9722SOL     OW30765   6.270   1.350   4.438 -0.1534  0.3447 -0.4119
 9722SOL    HW130766   6.352   1.402   4.461 -0.0477  0.2055 -0.4749
 9722SOL    HW230767   6.205   1.409   4.391 -0.6575  0.8204  0.8274
 9723SOL     OW30768   3.234   3.536   6.747 -0.1931  0.6535  0.9339
 9723SOL    HW130769   3.322   3.563   6.787  0.3732 -0.2169  0.3313
 9723SOL    HW230770   3.235   3.556   6.649 -0.3355 -0.1201  0.7671
 9724SOL     OW30771   3.842   1.776   5.791 -0.2844  0.1293 -0.1007
 9724SOL    HW130772   3.780   1.753   5.867  1.2498  0.8878  1.4481
 9724SOL    HW230773   3.901   1.698   5.771 -0.1063  0.2142  0.0873
 9725SOL     OW30774   3.680   0.629   1.628  0.0290 -0.2410 -0.4410
 9725SOL    HW130775   3.695   0.545   1.576  0.9796 -0.6961  0.5191
 9725SOL    HW230776   3.597   0.622   1.682  1.8671 -2.1278  2.4468
 9726SOL     OW30777   0.776   2.412   3.274 -0.2044  0.3826 -0.6467
 9726SOL    HW130778   0.823   2.324   3.267  3.6564  2.2355 -0.8470
 9726SOL    HW230779   0.722   2.429   3.192  1.9212 -0.3375 -2.2716
 9727SOL     OW30780   4.632   3.124   5.245  0.0577 -0.2989 -0.4125
 9727SOL    HW130781   4.666   3.034   5.269  0.0645 -0.0059  0.7540
 9727SOL    HW230782   4.633   3.136   5.146  2.0763 -0.7838 -0.4787
 9728SOL     OW30783   2.843   0.325   3.919 -0.0326 -0.6097  0.0857
 9728SOL    HW130784   2.880   0.281   4.000  1.0886  1.2764  0.6561
 9728SOL    HW230785   2.834   0.258   3.845 -1.5690 -2.4828  1.8551
 9729SOL     OW30786   1.791   2.590   6.609 -0.1254 -0.3491 -0.7164
 9729SOL    HW130787   1.875   2.627   6.648  0.3013  1.2947 -3.0169
 9729SOL    HW230788   1.728   2.665   6.588 -0.7973 -1.2569 -2.0579
 9730SOL     OW30789   5.607   5.764   4.046  0.4333 -0.0739  0.6928
 9730SOL    HW130790   5.695   5.786   4.087  0.4130 -0.0438  0.7210
 9730SOL    HW230791   5.534   5.785   4.111  0.3112  1.1473  0.1991
 9731SOL     OW30792   0.454   4.522   0.274  0.4281 -0.2456  0.6279
 9731SOL    HW130793   0.541   4.541   0.320  0.6026  0.1780  0.1251
 9731SOL    HW230794   0.457   4.556   0.180 -0.4459  0.1763  0.7427
 9732SOL     OW30795   1.785   6.940   5.039 -0.5830 -0.8624 -0.2670
 9732SOL    HW130796   1.740   7.003   5.102 -0.5461 -2.3373  1.2895
 9732SOL    HW230797   1.882   6.931   5.065 -0.4536 -1.1355 -0.8326
 9733SOL     OW30798   3.674   1.452   2.101 -0.3880  0.1756 -0.3661
 9733SOL    HW130799   3.758   1.501   2.075  0.1735 -0.9449 -0.7448
 9733SOL    HW230800   3.659   1.462   2.199 -0.8437  1.9056 -0.5660
 9734SOL     OW30801   5.496   5.540   0.054 -0.0788  0.0162 -0.7027
 9734SOL    HW130802   5.532   5.546  -0.039  1.8950 -1.0781 -0.0646
 9734SOL    HW230803   5.532   5.458   0.099 -1.1903  0.3824  0.9639
 9735SOL     OW30804   4.777   3.866   0.774 -0.7143  0.1738  0.1089
 9735SOL    HW130805   4.707   3.910   0.830 -1.4132 -0.7797  0.0095
 9735SOL    HW230806   4.851   3.833   0.833 -2.5891 -3.0270  0.9095
 9736SOL     OW30807   0.575   7.006   4.207 -0.8602  0.1761  0.3265
 9736SOL    HW130808   0.591   6.918   4.252  1.4746  0.7274  0.6959
 9736SOL    HW230809   0.524   7.066   4.269  0.4129  0.1784  1.4251
 9737SOL     OW30810   2.085   1.726   5.597  0.0604  0.2977 -0.2257
 9737SOL    HW130811   2.147   1.763   5.527 -0.1820  0.1238 -0.5369
 9737SOL    HW230812   2.016   1.795   5.620 -0.5205 -0.0207 -0.9612
 9738SOL     OW30813   2.745   1.967   1.887  0.1747 -0.3170  0.2724
 9738SOL    HW130814   2.706   1.888   1.934 -2.3218 -0.5079 -1.9148
 9738SOL    HW230815   2.688   2.047   1.903  0.8645  0.2726 -0.1747
 9739SOL     OW30816   0.337   3.434   3.990 -0.3194  0.1321 -0.3302
 9739SOL    HW130817   0.278   3.401   4.064 -1.0999 -0.5710 -1.2333
 9739SOL    HW230818   0.431   3.442   4.024 -0.6814 -0.0429  0.7692
 9740SOL     OW30819   6.216   4.659   3.437  0.2590  0.0523 -0.1975
 9740SOL    HW130820   6.124   4.688   3.411  0.3865  0.7768  0.1269
 9740SOL    HW230821   6.235   4.689   3.531  0.1379 -1.7145  0.4342
 9741SOL     OW30822   3.790   6.591   0.511  0.2294 -0.3610 -0.0597
 9741SOL    HW130823   3.746   6.602   0.422  0.7444  1.7741 -0.0938
 9741SOL    HW230824   3.830   6.499   0.517 -1.2354 -1.1295 -1.3467
 9742SOL     OW30825   6.343   0.664   1.100 -0.0801 -0.0692 -0.2195
 9742SOL    HW130826   6.374   0.681   1.006  1.2435 -0.2618  0.1590
 9742SOL    HW230827   6.361   0.744   1.156  0.2358 -0.3846  0.1316
 9743SOL     OW30828   3.569   3.991   6.098 -0.4631 -0.0993  0.5392
 9743SOL    HW130829   3.489   4.045   6.071 -0.0252 -0.6190 -2.0053
 9743SOL    HW230830   3.621   3.965   6.017  1.8244 -0.5474  2.0508
 9744SOL     OW30831   4.711   4.512   0.647  0.0653 -0.1827 -0.4471
 9744SOL    HW130832   4.808   4.532   0.643  0.4436 -2.0654 -1.5970
 9744SOL    HW230833   4.694   4.418   0.616 -2.3222  0.7486 -2.3227
 9745SOL     OW30834   3.435   3.208   0.852  0.7583 -0.6586 -0.5384
 9745SOL    HW130835   3.513   3.270   0.866  1.0022 -1.0475 -0.1269
 9745SOL    HW230836   3.466   3.113   0.866  0.2132 -0.8156 -0.3881
 9746SOL     OW30837   0.184   4.022   0.424  0.2756  0.4239  0.2137
 9746SOL    HW130838   0.111   4.054   0.484 -1.1247 -1.5129 -0.3618
 9746SOL    HW230839   0.239   3.954   0.472  1.3455  1.3891  0.4148
 9747SOL     OW30840   3.085   6.565   1.056 -0.0380  0.2151 -0.1961
 9747SOL    HW130841   3.083   6.644   1.117  1.3461 -1.1904  1.7999
 9747SOL    HW230842   3.165   6.509   1.076 -0.5670 -1.3353 -2.0584
 9748SOL     OW30843   0.052   6.111   6.035 -0.2842  0.1479  0.1252
 9748SOL    HW130844   0.147   6.088   6.056 -0.1770  0.5231  0.0645
 9748SOL    HW230845   0.023   6.063   5.952 -0.4085 -0.6018  0.6024
 9749SOL     OW30846   6.173   2.986   0.475 -0.5559 -0.1439 -0.0361
 9749SOL    HW130847   6.154   2.963   0.570 -0.2862 -2.8203 -0.5556
 9749SOL    HW230848   6.270   3.010   0.465 -0.3962 -0.6412  0.2656
 9750SOL     OW30849   0.217   0.303   5.359  0.5373 -0.1297  0.4287
 9750SOL    HW130850   0.265   0.360   5.426 -0.8280  1.1519  0.3797
 9750SOL    HW230851   0.242   0.332   5.266  3.2589 -2.6054  0.2470
 9751SOL     OW30852   5.169   4.020   2.254  0.0463  0.7121  0.4902
 9751SOL    HW130853   5.131   4.017   2.346  0.0582 -2.9701  0.5348
 9751SOL    HW230854   5.269   4.016   2.258  0.0318  0.0117  0.3579
 9752SOL     OW30855   2.210   5.280   0.609  0.1255  0.2009  0.3086
 9752SOL    HW130856   2.299   5.274   0.653  0.9608 -0.0478 -1.3258
 9752SOL    HW230857   2.218   5.334   0.525 -0.9262 -0.9987 -0.6126
 9753SOL     OW30858   5.070   1.383   1.944 -0.2052  0.1744  0.0755
 9753SOL    HW130859   5.061   1.285   1.929  1.5305  0.2172 -1.7199
 9753SOL    HW230860   5.095   1.401   2.039  0.2576 -1.2016  0.2301
 9754SOL     OW30861   1.377   3.483   5.458  0.0298 -0.4270 -0.0873
 9754SOL    HW130862   1.441   3.424   5.408 -3.6885 -4.3886 -0.7101
 9754SOL    HW230863   1.391   3.470   5.556 -0.2222 -1.8083 -0.2140
 9755SOL     OW30864   3.856   2.481   1.913  0.0860  0.1301 -0.2600
 9755SOL    HW130865   3.927   2.551   1.912 -1.1703  1.4892  0.8604
 9755SOL    HW230866   3.766   2.523   1.902 -0.6170 -1.5083 -1.2759
 9756SOL     OW30867   1.180   0.581   3.951 -0.2762  0.2130  0.0625
 9756SOL    HW130868   1.269   0.576   3.997 -0.1004 -1.5735 -0.4339
 9756SOL    HW230869   1.125   0.501   3.974 -1.0035  0.3195 -1.2114
 9757SOL     OW30870   1.140   0.455   0.862  0.0471 -0.2184  0.0330
 9757SOL    HW130871   1.238   0.445   0.878  0.1391 -0.1845 -0.5120
 9757SOL    HW230872   1.092   0.377   0.903  0.1541  0.4762  1.5672
 9758SOL     OW30873   6.944   2.432   3.373 -0.2248 -0.1675 -0.5049
 9758SOL    HW130874   6.867   2.388   3.327  0.8528 -1.3483 -1.2248
 9758SOL    HW230875   6.992   2.492   3.308  0.9179 -1.3468 -0.7829
 9759SOL     OW30876   6.661   6.563   4.051 -0.2991  0.8935  0.0839
 9759SOL    HW130877   6.617   6.474   4.050  0.8866  0.2833 -2.0450
 9759SOL    HW230878   6.594   6.634   4.028 -0.3879  0.0292 -2.6831
 9760SOL     OW30879   4.926   6.247   0.750  0.3039  0.1025  0.6811
 9760SOL    HW130880   4.909   6.178   0.820  0.1816  0.0368  0.5864
 9760SOL    HW230881   5.003   6.305   0.779  3.0468 -2.4208 -0.9156
 9761SOL     OW30882   0.442   1.157   6.845  0.0698 -0.1410  0.5894
 9761SOL    HW130883   0.378   1.099   6.895  1.1508 -1.2928  0.6952
 9761SOL    HW230884   0.504   1.202   6.910 -0.0996  0.3232  0.4359
 9762SOL     OW30885   2.732   4.506   0.076 -0.2167  0.7552  0.2113
 9762SOL    HW130886   2.640   4.470   0.064 -0.4134  1.7003 -1.3008
 9762SOL    HW230887   2.730   4.587   0.135 -0.4663  1.2271 -0.4417
 9763SOL     OW30888   6.400   2.282   2.272 -0.0146 -0.5391 -0.8785
 9763SOL    HW130889   6.321   2.222   2.260  0.5122 -1.7709  1.2480
 9763SOL    HW230890   6.368   2.376   2.285 -1.0999 -0.9460 -0.4645
 9764SOL     OW30891   4.168   1.076   4.864 -0.1114 -0.2914  0.2438
 9764SOL    HW130892   4.244   1.012   4.872 -0.2840 -0.5938 -0.4893
 9764SOL    HW230893   4.115   1.056   4.782 -0.2081  0.7545  0.0337
 9765SOL     OW30894   1.657   2.297   2.677  0.0077  0.3669  0.2790
 9765SOL    HW130895   1.670   2.281   2.579  1.1726  0.3142  0.4371
 9765SOL    HW230896   1.672   2.212   2.727  0.7349  0.6958  0.6220
 9766SOL     OW30897   0.796   5.466   2.542 -0.3013 -0.1643  0.5715
 9766SOL    HW130898   0.856   5.456   2.462  1.4760 -2.3889  2.0439
 9766SOL    HW230899   0.727   5.393   2.541 -2.9419  2.1626 -0.9111
 9767SOL     OW30900   2.103   6.992   3.706  0.4529  0.2811  0.0537
 9767SOL    HW130901   2.125   7.077   3.754  2.4264 -0.1259 -0.0831
 9767SOL    HW230902   2.131   6.998   3.611  0.2660 -0.3956 -0.0512
 9768SOL     OW30903   1.082   6.909   4.346 -0.4562  0.2099  0.4914
 9768SOL    HW130904   1.073   7.006   4.371  0.8211  0.5628 -0.3317
 9768SOL    HW230905   1.088   6.901   4.246  0.4803 -0.6146  0.5974
 9769SOL     OW30906   0.746   1.840   5.754 -0.3667 -0.0136  0.5762
 9769SOL    HW130907   0.841   1.814   5.738  0.2888  2.6142 -0.3559
 9769SOL    HW230908   0.720   1.818   5.848  1.0682 -0.9854  0.7705
 9770SOL     OW30909   0.532   2.055   6.802  0.2058  0.0638 -0.0880
 9770SOL    HW130910   0.614   2.102   6.769  0.3263 -0.0733  0.0131
 9770SOL    HW230911   0.471   2.036   6.725  0.4486 -0.1820 -0.2211
 9771SOL     OW30912   5.013   3.268   5.427  0.0292  0.0521  0.5044
 9771SOL    HW130913   4.929   3.306   5.389  0.0540 -1.1487 -0.8490
 9771SOL    HW230914   5.092   3.319   5.391  0.1603 -2.0008 -2.4782
 9772SOL     OW30915   5.382   6.271   2.889  0.5425  0.3067  0.3496
 9772SOL    HW130916   5.292   6.276   2.931  1.0144  0.8423  1.3330
 9772SOL    HW230917   5.390   6.343   2.819  0.6191  1.0562  1.1103
 9773SOL     OW30918   1.597   6.394   1.023 -0.2067 -0.2176  0.2971
 9773SOL    HW130919   1.645   6.308   1.036  0.0689  0.0011  0.7472
 9773SOL    HW230920   1.526   6.403   1.093 -0.3562 -0.1635  0.1389
 9774SOL     OW30921   3.664   1.095   4.717  0.4132 -0.3434 -0.0749
 9774SOL    HW130922   3.690   1.066   4.809  1.0264 -0.2820 -0.2220
 9774SOL    HW230923   3.613   1.181   4.722  1.0787  0.0415  0.1561
 9775SOL     OW30924   4.848   3.783   3.536 -0.8173  0.0647  0.6274
 9775SOL    HW130925   4.859   3.882   3.525 -1.1905 -0.0002 -0.4795
 9775SOL    HW230926   4.835   3.741   3.446  2.4564 -1.3940  0.6689
 9776SOL     OW30927   5.735   6.655   4.552  0.4238 -0.7250  0.4689
 9776SOL    HW130928   5.778   6.659   4.643 -0.7168  1.5053  0.9761
 9776SOL    HW230929   5.640   6.685   4.559  0.4542 -0.0595 -1.5490
 9777SOL     OW30930   4.940   1.393   2.516  0.0929  0.4306  0.0677
 9777SOL    HW130931   5.008   1.455   2.475 -0.6624 -0.1153 -2.1807
 9777SOL    HW230932   4.958   1.300   2.484 -1.8483  0.3136 -0.8119
 9778SOL     OW30933   4.241   3.835   1.273 -0.6914 -0.0617 -0.7358
 9778SOL    HW130934   4.150   3.814   1.310 -1.0534  1.7786 -0.4529
 9778SOL    HW230935   4.301   3.757   1.285 -2.0209 -1.0435 -0.2094
 9779SOL     OW30936   5.734   2.165   5.712 -0.1895  0.3058 -0.1572
 9779SOL    HW130937   5.646   2.118   5.712 -0.7803  1.3686 -0.2566
 9779SOL    HW230938   5.764   2.179   5.617 -0.0573  0.1992 -0.1307
 9780SOL     OW30939   1.676   4.262   0.131 -0.1124  0.2007 -0.4794
 9780SOL    HW130940   1.738   4.312   0.071 -0.0205 -0.4196 -0.9105
 9780SOL    HW230941   1.729   4.200   0.189 -0.2694  0.2129 -0.3228
 9781SOL     OW30942   5.750   1.828   2.399  0.2646 -0.6749 -0.6258
 9781SOL    HW130943   5.719   1.915   2.436  0.4701  0.2495 -2.5016
 9781SOL    HW230944   5.821   1.844   2.331 -0.8081 -2.1539 -2.1876
 9782SOL     OW30945   6.946   3.758   0.033 -0.2086  0.0481 -0.8365
 9782SOL    HW130946   6.945   3.819   0.112 -0.1978 -0.1642 -0.6719
 9782SOL    HW230947   7.008   3.681   0.050 -1.6216 -1.0305 -0.2531
 9783SOL     OW30948   4.821   6.011   4.150  0.2422  0.5765 -0.4250
 9783SOL    HW130949   4.730   6.032   4.115 -0.3853 -0.5900  0.4244
 9783SOL    HW230950   4.877   6.094   4.149 -0.8568  1.3383 -0.8732
 9784SOL     OW30951   5.251   2.302   2.391  0.0975 -0.0605 -0.3219
 9784SOL    HW130952   5.322   2.359   2.350  0.6198 -0.9781 -0.7297
 9784SOL    HW230953   5.171   2.299   2.331 -0.0253  0.4256 -0.1863
 9785SOL     OW30954   1.265   1.447   3.156  0.5328  0.3944  0.4246
 9785SOL    HW130955   1.320   1.509   3.213 -0.9414  0.6306  1.6472
 9785SOL    HW230956   1.221   1.379   3.214  0.2052 -0.3186 -0.6341
 9786SOL     OW30957   0.602   1.073   4.890 -0.0490 -0.6489  0.3171
 9786SOL    HW130958   0.653   0.993   4.858 -1.4065 -2.3899  2.2279
 9786SOL    HW230959   0.663   1.152   4.894  1.3373 -1.5131 -1.6920
 9787SOL     OW30960   3.537   0.012   3.415 -0.0651  0.0193 -0.1749
 9787SOL    HW130961   3.553   0.108   3.439 -1.3770  0.5571 -1.2746
 9787SOL    HW230962   3.498  -0.036   3.493  2.1501 -0.0888  0.9329
 9788SOL     OW30963   3.253   2.975   0.402  0.0442 -0.0875 -0.4662
 9788SOL    HW130964   3.206   3.003   0.485 -1.0341 -0.2523 -0.9964
 9788SOL    HW230965   3.289   2.883   0.413 -1.1886 -0.6110 -0.5807
 9789SOL     OW30966   3.936   1.599   1.415  0.6324  0.1521 -1.0176
 9789SOL    HW130967   3.909   1.676   1.357 -0.1266 -1.3270 -2.7074
 9789SOL    HW230968   4.026   1.618   1.455 -0.2326  2.6211  0.0148
 9790SOL     OW30969   2.241   2.179   4.565 -0.6914 -0.1879  0.7433
 9790SOL    HW130970   2.174   2.106   4.575  0.7995 -2.4561 -3.3906
 9790SOL    HW230971   2.331   2.146   4.591 -0.2903  0.8739  0.7636
 9791SOL     OW30972   3.014   2.109   0.984  0.2760  0.3049  0.1799
 9791SOL    HW130973   2.934   2.168   0.990  0.1571  0.4265 -1.9213
 9791SOL    HW230974   2.988   2.014   1.002 -0.4819  0.2663 -1.0323
 9792SOL     OW30975   4.752   4.501   6.225  0.1679  0.3948 -0.4804
 9792SOL    HW130976   4.780   4.588   6.266  1.0502 -0.8955  1.8033
 9792SOL    HW230977   4.830   4.459   6.179 -0.2763  0.7813 -1.6477
 9793SOL     OW30978   6.285   0.496   0.282  0.2901  0.4417 -0.7582
 9793SOL    HW130979   6.255   0.404   0.259  1.1659 -0.2747  0.7972
 9793SOL    HW230980   6.215   0.562   0.254 -0.1461 -0.6217 -2.3120
 9794SOL     OW30981   2.437   5.699   5.920 -0.3699 -0.3347  0.6427
 9794SOL    HW130982   2.371   5.630   5.893  1.3132 -1.6958 -0.1742
 9794SOL    HW230983   2.471   5.678   6.012 -0.7788  0.1612  0.9157
 9795SOL     OW30984   3.326   2.801   0.054  0.2114 -0.0132  0.1560
 9795SOL    HW130985   3.369   2.795  -0.037  1.6570 -1.1108  0.8714
 9795SOL    HW230986   3.252   2.868   0.051  0.4683  0.2520 -1.7370
 9796SOL     OW30987   5.101   2.715   6.694  0.0862 -0.3341  0.1934
 9796SOL    HW130988   5.076   2.628   6.736  0.0123 -0.3301  0.1566
 9796SOL    HW230989   5.192   2.742   6.726  0.3003 -0.6490 -0.1440
 9797SOL     OW30990   4.868   2.435   4.616  0.0631 -0.3921  0.1957
 9797SOL    HW130991   4.875   2.338   4.596 -3.6882 -1.3288  2.5384
 9797SOL    HW230992   4.802   2.478   4.553  1.7286  0.7690 -0.8661
 9798SOL     OW30993   0.246   4.161   2.135 -0.3136  0.6239 -0.2760
 9798SOL    HW130994   0.324   4.220   2.158  1.2694 -1.6826  0.6272
 9798SOL    HW230995   0.237   4.155   2.036  0.1691  1.5078 -0.3863
 9799SOL     OW30996   0.603   3.333   5.759  0.0924  0.3906 -0.3657
 9799SOL    HW130997   0.672   3.286   5.813  1.0428 -0.0633 -1.9419
 9799SOL    HW230998   0.646   3.406   5.705 -0.8406  0.8361 -0.5338
 9800SOL     OW30999   6.804   1.443   1.507  0.1357 -0.4922  0.4091
 9800SOL    HW131000   6.903   1.461   1.510  0.2809 -1.1892  0.0429
 9800SOL    HW231001   6.755   1.529   1.520  0.8020  0.3217 -1.8783
 9801SOL     OW31002   1.937   5.209   6.549  0.0911  0.5619  0.3619
 9801SOL    HW131003   1.865   5.199   6.617 -0.7312  1.5679 -0.3172
 9801SOL    HW231004   2.027   5.210   6.594 -0.2193 -1.5870  1.1458
 9802SOL     OW31005   4.962   3.699   5.116 -0.2231 -0.1125 -0.2254
 9802SOL    HW131006   4.936   3.675   5.209  0.2007  0.5921  0.0788
 9802SOL    HW231007   4.895   3.762   5.077 -0.2813 -0.2319 -0.3196
 9803SOL     OW31008   0.066   0.086   2.115  0.3545 -0.4557 -0.2688
 9803SOL    HW131009   0.141   0.152   2.119 -0.2828  0.2158  0.9120
 9803SOL    HW231010   0.030   0.083   2.022  3.1798 -2.3553 -1.4402
 9804SOL     OW31011   4.029   3.714   0.611 -0.1967  0.5394  0.1390
 9804SOL    HW131012   4.078   3.761   0.538 -2.7622  1.7973 -0.8896
 9804SOL    HW231013   4.027   3.773   0.693  0.1004  0.4296  0.2269
 9805SOL     OW31014   0.630   6.401   0.128  0.1377  0.3407  0.4596
 9805SOL    HW131015   0.682   6.487   0.121 -0.2570  0.6530  1.2426
 9805SOL    HW231016   0.611   6.382   0.224 -1.1738  0.2226  0.1884
 9806SOL     OW31017   6.260   3.287   4.206  0.0158 -0.1370  0.2951
 9806SOL    HW131018   6.216   3.369   4.243  0.5192  0.4605 -0.4153
 9806SOL    HW231019   6.191   3.225   4.169 -0.2616  0.6924 -0.6114
 9807SOL     OW31020   3.137   1.214   0.806  0.1628 -0.4859  0.4359
 9807SOL    HW131021   3.066   1.145   0.820  0.2731 -0.6076  0.3967
 9807SOL    HW231022   3.134   1.246   0.711 -0.7781  0.5541  0.8051
 9808SOL     OW31023   0.642   4.984   3.195  0.2013 -0.3352 -0.2698
 9808SOL    HW131024   0.725   5.039   3.200 -0.0538 -0.0250  0.7812
 9808SOL    HW231025   0.565   5.043   3.170 -0.0026 -0.2821  0.4688
 9809SOL     OW31026   6.738   4.578   1.534  0.0641 -0.0318 -0.4675
 9809SOL    HW131027   6.832   4.581   1.568  0.9429 -3.6679 -2.0365
 9809SOL    HW231028   6.678   4.541   1.605  0.2902  0.0222 -0.2457
 9810SOL     OW31029   2.791   4.446   4.545 -0.0861 -0.5577 -0.0790
 9810SOL    HW131030   2.843   4.396   4.614  1.1335  0.4415 -0.2324
 9810SOL    HW231031   2.826   4.423   4.454 -0.0545 -0.0629 -0.1987
 9811SOL     OW31032   1.716   3.358   4.368  0.5121 -0.3831  0.3654
 9811SOL    HW131033   1.618   3.360   4.352  0.6516 -1.8899 -0.9050
 9811SOL    HW231034   1.755   3.447   4.347 -0.0884 -0.7676 -2.8998
 9812SOL     OW31035   5.327   5.130   2.719 -0.0761  0.4672 -0.6595
 9812SOL    HW131036   5.385   5.154   2.797 -1.5121 -0.2097  0.6648
 9812SOL    HW231037   5.360   5.045   2.679  0.9905  1.0920 -1.1661
 9813SOL     OW31038   5.066   4.962   2.625  0.5372  0.0366  0.1260
 9813SOL    HW131039   5.004   4.984   2.550  0.5279  2.2487  0.7167
 9813SOL    HW231040   5.134   4.895   2.593 -0.5190 -0.3943 -1.3124
 9814SOL     OW31041   6.487   3.609   5.676  0.0628  0.2935  0.0686
 9814SOL    HW131042   6.403   3.631   5.726 -0.1667 -1.8327  0.7433
 9814SOL    HW231043   6.557   3.579   5.741 -0.0707 -2.0218 -0.7673
 9815SOL     OW31044   5.395   2.190   3.786 -0.3021 -0.6029 -0.0243
 9815SOL    HW131045   5.455   2.121   3.744 -1.3782 -0.6534 -1.5432
 9815SOL    HW231046   5.318   2.145   3.831 -0.7267 -0.4272 -0.5651
 9816SOL     OW31047   0.773   2.342   3.740 -0.1198  0.0990 -0.0668
 9816SOL    HW131048   0.681   2.378   3.729  0.0837  0.6170 -0.0766
 9816SOL    HW231049   0.787   2.266   3.677  0.1947  1.4236 -1.6448
 9817SOL     OW31050   3.715   0.519   1.258  0.5189  0.4719  0.4108
 9817SOL    HW131051   3.667   0.606   1.268  0.7075  0.7844 -1.1525
 9817SOL    HW231052   3.685   0.473   1.174  2.0059  0.0822  0.0587
 9818SOL     OW31053   3.749   5.217   2.244  0.6825 -0.0525 -0.6201
 9818SOL    HW131054   3.716   5.174   2.160  1.0079 -0.9750 -0.2898
 9818SOL    HW231055   3.714   5.310   2.250  1.8264  0.5565 -2.5096
 9819SOL     OW31056   3.350   0.430   1.629  0.3915 -0.4951 -0.3442
 9819SOL    HW131057   3.388   0.489   1.700  0.8516 -1.1919  0.0029
 9819SOL    HW231058   3.285   0.366   1.670  0.0766 -0.3909 -0.6762
 9820SOL     OW31059   6.719   0.380   3.827  0.6973 -0.8367 -0.2054
 9820SOL    HW131060   6.812   0.344   3.821  0.0488 -2.8303  0.8959
 9820SOL    HW231061   6.713   0.441   3.907  0.8030 -1.5901  0.3902
 9821SOL     OW31062   5.020   0.063   3.960 -0.5909  0.3139 -0.1516
 9821SOL    HW131063   5.010   0.105   3.869 -1.8920  1.1768  0.3626
 9821SOL    HW231064   4.930   0.038   3.995 -0.1715  0.6215  1.1935
 9822SOL     OW31065   6.526   4.090   4.221  0.4411 -0.0832  0.5558
 9822SOL    HW131066   6.605   4.131   4.267  1.0436  0.5625 -1.0064
 9822SOL    HW231067   6.557   4.034   4.144 -0.5995 -0.3121  0.2857
 9823SOL     OW31068   0.265   1.656   0.629  0.3435  0.0804 -0.0348
 9823SOL    HW131069   0.271   1.674   0.530  0.2675  0.9896  0.1176
 9823SOL    HW231070   0.184   1.601   0.648 -0.2500  0.8153 -0.3692
 9824SOL     OW31071   3.894   3.149   5.718  0.2452  0.5828 -0.4422
 9824SOL    HW131072   3.966   3.193   5.663  0.3569  0.5304 -0.3388
 9824SOL    HW231073   3.932   3.123   5.807  0.5536 -0.9027 -0.9757
 9825SOL     OW31074   6.764   0.609   1.650  0.2058 -0.0849  0.3494
 9825SOL    HW131075   6.747   0.578   1.556  2.5059 -2.4557  0.6195
 9825SOL    HW231076   6.833   0.682   1.649  1.0014 -0.8279  0.2398
 9826SOL     OW31077   2.985   6.362   3.596 -0.6041  0.0717 -0.0394
 9826SOL    HW131078   2.908   6.334   3.539 -0.0049  2.5496 -2.2243
 9826SOL    HW231079   3.050   6.415   3.542  2.4138 -1.3751  1.8462
 9827SOL     OW31080   4.764   5.646   3.115  0.1718  0.2117 -0.3004
 9827SOL    HW131081   4.793   5.551   3.120  0.2352  0.0507 -2.7314
 9827SOL    HW231082   4.844   5.706   3.125  0.2945 -0.0206  0.1188
 9828SOL     OW31083   0.835   1.076   0.295 -0.9436  0.6384 -0.0819
 9828SOL    HW131084   0.876   1.151   0.347 -1.6353  1.1614 -0.2777
 9828SOL    HW231085   0.862   0.989   0.335  0.3669  0.9605 -0.2161
 9829SOL     OW31086   1.959   1.468   6.012  0.5826  0.2521  0.5669
 9829SOL    HW131087   1.889   1.418   6.062  0.1161 -0.2651 -0.5552
 9829SOL    HW231088   2.046   1.417   6.018  1.1515  1.3523  2.7165
 9830SOL     OW31089   1.303   3.371   6.924  0.3845 -0.1864  0.1017
 9830SOL    HW131090   1.374   3.319   6.877  2.4899  1.9269  0.7785
 9830SOL    HW231091   1.333   3.465   6.937 -1.4736  0.1550  2.7556
 9831SOL     OW31092   2.256   1.906   5.122  0.1456 -0.1341 -0.0714
 9831SOL    HW131093   2.250   1.818   5.168  0.6945 -0.8270 -1.2885
 9831SOL    HW231094   2.331   1.904   5.056 -0.0208  1.1520 -0.3219
 9832SOL     OW31095   2.906   5.370   6.726  0.5265 -0.2837  0.1282
 9832SOL    HW131096   2.977   5.306   6.754  0.3536 -0.8816 -0.7540
 9832SOL    HW231097   2.896   5.442   6.796  0.6893 -1.2321  1.1572
 9833SOL     OW31098   5.560   3.317   0.781  0.6635 -0.7471 -0.1821
 9833SOL    HW131099   5.630   3.294   0.713 -0.5569 -1.7272 -1.1409
 9833SOL    HW231100   5.589   3.284   0.870  3.2532  2.2952  0.3262
 9834SOL     OW31101   4.052   2.045   1.920 -0.7841 -0.1536 -0.1648
 9834SOL    HW131102   3.960   2.055   1.883 -0.7449  1.1179  0.0147
 9834SOL    HW231103   4.101   2.132   1.912  0.2529 -0.6864  0.1441
 9835SOL     OW31104   5.056   5.467   3.379 -0.5033  0.0410 -0.2560
 9835SOL    HW131105   5.061   5.551   3.434 -0.4237  0.1457 -0.4204
 9835SOL    HW231106   5.130   5.468   3.312  0.0551 -0.5853  0.3317
 9836SOL     OW31107   5.451   5.850   1.543  0.2304  0.2599  0.0045
 9836SOL    HW131108   5.464   5.756   1.572  2.0358  0.5275  0.1985
 9836SOL    HW231109   5.383   5.895   1.602 -0.7411 -0.9292 -0.1807
 9837SOL     OW31110   6.736   0.476   4.315  0.3997 -0.0658 -0.5971
 9837SOL    HW131111   6.713   0.393   4.367 -1.2034  0.5002 -0.3680
 9837SOL    HW231112   6.824   0.463   4.270  0.9850 -1.2477  0.8146
 9838SOL     OW31113   0.418   3.490   4.296 -0.1764  0.4468 -0.1798
 9838SOL    HW131114   0.368   3.560   4.347 -0.4091 -1.0115  1.7076
 9838SOL    HW231115   0.469   3.533   4.221  1.1843  2.9239  2.0168
 9839SOL     OW31116   3.128   3.687   6.546  0.3946  0.0564  0.2940
 9839SOL    HW131117   3.115   3.691   6.447  0.2603 -0.3753  0.2951
 9839SOL    HW231118   3.093   3.771   6.587 -0.8039 -0.3386  0.1133
 9840SOL     OW31119   6.798   0.825   0.765 -0.1173 -0.8115 -0.5996
 9840SOL    HW131120   6.752   0.904   0.723  0.6107  0.0120  0.1177
 9840SOL    HW231121   6.766   0.813   0.859 -0.2651 -1.4184 -0.7217
 9841SOL     OW31122   3.226   6.028   4.786 -0.4943  0.3046 -0.4498
 9841SOL    HW131123   3.129   6.044   4.770 -0.3479  1.3815 -0.3512
 9841SOL    HW231124   3.280   6.093   4.733  0.1371  0.5523  0.4743
 9842SOL     OW31125   3.285   1.479   6.487 -0.0689  0.7384 -0.3786
 9842SOL    HW131126   3.350   1.406   6.463  0.0897  0.5379  0.5957
 9842SOL    HW231127   3.322   1.567   6.458  1.8155  0.9150  2.1845
 9843SOL     OW31128   3.006   4.542   5.749 -0.1587 -0.4182 -0.5019
 9843SOL    HW131129   3.060   4.507   5.673  0.3686  0.2230 -0.4322
 9843SOL    HW231130   2.909   4.529   5.729  0.0078 -2.2821 -0.2932
 9844SOL     OW31131   5.298   0.624   5.962  0.3320  0.0046 -0.2122
 9844SOL    HW131132   5.323   0.558   6.033 -0.0092  1.6156  1.4735
 9844SOL    HW231133   5.318   0.716   5.994 -0.7317  0.8502 -1.8641
 9845SOL     OW31134   3.926   5.472   2.483  0.3962 -0.1930  0.3962
 9845SOL    HW131135   3.845   5.464   2.425  0.0694 -1.8255  1.0101
 9845SOL    HW231136   3.902   5.524   2.565  0.1988  0.0573  0.1825
 9846SOL     OW31137   1.904   6.222   2.027  0.6405 -0.3117  0.0252
 9846SOL    HW131138   1.856   6.306   2.050 -0.0618 -0.1249 -1.9573
 9846SOL    HW231139   1.992   6.220   2.076 -0.6008  0.0965  2.4415
 9847SOL     OW31140   6.962   4.942   1.732  0.0057 -0.3253 -0.1781
 9847SOL    HW131141   6.912   4.947   1.818  1.2621 -1.6003  0.6798
 9847SOL    HW231142   6.988   5.034   1.702  1.2590  0.0509  1.8787
 9848SOL     OW31143   4.960   6.020   1.278 -0.0467  0.2349  0.0531
 9848SOL    HW131144   5.001   6.107   1.307 -0.0283  0.1717  0.2193
 9848SOL    HW231145   4.917   6.032   1.189  0.5989  0.2213 -0.2629
 9849SOL     OW31146   6.573   6.031   2.444  0.1408 -0.2756 -0.3102
 9849SOL    HW131147   6.660   6.074   2.472 -0.3666  0.8516 -0.4161
 9849SOL    HW231148   6.502   6.054   2.511 -0.5371  0.4909 -1.2671
 9850SOL     OW31149   0.178   2.173   6.029  1.1701 -0.4293 -0.1497
 9850SOL    HW131150   0.177   2.271   6.012  1.3346 -0.6733 -1.7165
 9850SOL    HW231151   0.099   2.148   6.085 -0.1382  0.3072 -1.5797
 9851SOL     OW31152   6.487   2.635   0.113  0.1906 -0.2801  0.4247
 9851SOL    HW131153   6.391   2.631   0.085  0.2008  1.1159  0.1057
 9851SOL    HW231154   6.494   2.683   0.201  0.7244  1.3366 -0.4484
 9852SOL     OW31155   2.400   2.123   3.190  0.1811 -0.8649 -0.1457
 9852SOL    HW131156   2.455   2.040   3.180  2.2847  0.5076 -0.4650
 9852SOL    HW231157   2.388   2.144   3.287  0.3602 -1.0828 -0.0766
 9853SOL     OW31158   6.614   6.571   1.474 -0.3945 -0.0849  0.1346
 9853SOL    HW131159   6.663   6.575   1.561 -1.5231 -0.9864  0.8482
 9853SOL    HW231160   6.679   6.562   1.399  0.6330  1.4499  0.8081
 9854SOL     OW31161   1.602   0.795   6.820 -0.1051  0.7206  0.1912
 9854SOL    HW131162   1.660   0.877   6.820 -0.8390  1.2634  0.8968
 9854SOL    HW231163   1.608   0.749   6.732 -0.9890  2.5008 -0.8634
 9855SOL     OW31164   5.672   6.336   4.304  0.3515 -0.6405  0.0030
 9855SOL    HW131165   5.755   6.339   4.248 -0.2579 -0.3996 -0.9195
 9855SOL    HW231166   5.696   6.333   4.400  1.4309 -0.4867 -0.2545
 9856SOL     OW31167   5.275   4.159   1.520  0.1474 -0.1334 -0.1659
 9856SOL    HW131168   5.306   4.125   1.609 -0.7479 -0.9062 -0.1450
 9856SOL    HW231169   5.208   4.232   1.534  0.2724 -0.0106 -0.2071
 9857SOL     OW31170   5.576   3.574   5.427 -0.3525 -0.2031 -0.2726
 9857SOL    HW131171   5.543   3.511   5.498  0.6594 -0.3736  0.0563
 9857SOL    HW231172   5.619   3.653   5.470 -3.4441  1.8605 -0.5935
 9858SOL     OW31173   1.854   3.696   3.654  0.6133  0.1547  0.1469
 9858SOL    HW131174   1.880   3.657   3.566  0.7873 -0.4554  0.4657
 9858SOL    HW231175   1.865   3.795   3.651  0.1056  0.1954 -0.6952
 9859SOL     OW31176   4.850   5.793   4.358 -0.0983 -0.9290 -0.5100
 9859SOL    HW131177   4.771   5.750   4.400 -0.5137  0.4729  0.2122
 9859SOL    HW231178   4.821   5.876   4.309  0.9401 -0.2295  0.0203
 9860SOL     OW31179   4.362   5.117   6.705  0.3334 -0.3345  0.5134
 9860SOL    HW131180   4.369   5.040   6.641  0.9367 -1.1433  1.5107
 9860SOL    HW231181   4.345   5.081   6.797  0.4214  0.7524  0.9619
 9861SOL     OW31182   6.705   0.591   2.605  0.0299  0.0434 -0.3752
 9861SOL    HW131183   6.680   0.641   2.688  1.3124  2.4802 -1.3597
 9861SOL    HW231184   6.657   0.630   2.526  0.7482 -0.5805 -1.1432
 9862SOL     OW31185   0.992   0.269   1.898 -0.0215  0.9518 -0.0273
 9862SOL    HW131186   0.966   0.326   1.820  0.3793  0.4776 -0.5177
 9862SOL    HW231187   0.970   0.317   1.983  0.4464  1.9042 -0.4281
 9863SOL     OW31188   0.758   1.379   4.069  0.0466 -0.4499 -0.7745
 9863SOL    HW131189   0.658   1.374   4.067 -0.0008 -0.4619  0.7326
 9863SOL    HW231190   0.796   1.313   4.004 -0.9148 -0.7363 -1.0658
 9864SOL     OW31191   0.961   6.257   6.298  0.0069 -0.5796 -0.0264
 9864SOL    HW131192   1.048   6.270   6.346 -1.1115  0.2624  1.8697
 9864SOL    HW231193   0.951   6.161   6.275  0.9897 -0.8674  0.6448
 9865SOL     OW31194   0.011   3.477   2.664 -0.3474 -0.1500 -0.2407
 9865SOL    HW131195   0.032   3.433   2.751  3.2833 -1.2197 -1.4984
 9865SOL    HW231196  -0.024   3.409   2.600 -1.1830  0.2417 -0.2128
 9866SOL     OW31197   0.320   2.225   3.104 -0.1349  0.7181  0.3603
 9866SOL    HW131198   0.311   2.298   3.171 -2.1849  0.6254  0.2506
 9866SOL    HW231199   0.240   2.166   3.108  0.0499  0.2597 -1.6510
 9867SOL     OW31200   1.154   5.927   2.172 -0.2074  0.1515 -0.2577
 9867SOL    HW131201   1.204   5.858   2.225 -0.1789  1.4292  1.4465
 9867SOL    HW231202   1.208   5.953   2.092 -0.5651 -2.3364 -1.4147
 9868SOL     OW31203   2.804   2.228   2.559  0.0744 -0.0670 -0.8828
 9868SOL    HW131204   2.872   2.301   2.548  0.4399 -0.3048 -0.2826
 9868SOL    HW231205   2.847   2.140   2.541  1.4542 -0.7939  4.2267
 9869SOL     OW31206   3.040   2.435   5.261  0.1301  0.0619 -0.2396
 9869SOL    HW131207   3.128   2.473   5.288  0.2928  1.5139 -2.5579
 9869SOL    HW231208   2.968   2.503   5.272 -0.6312 -0.8805  0.9501
 9870SOL     OW31209   5.185   5.705   1.877 -0.5372 -0.0785 -0.0878
 9870SOL    HW131210   5.091   5.682   1.851 -1.4890  2.1216  1.1440
 9870SOL    HW231211   5.187   5.735   1.972  1.2714  0.7458 -0.3494
 9871SOL     OW31212   0.142   4.242   3.685  0.4569  0.5005 -0.2312
 9871SOL    HW131213   0.062   4.252   3.744  1.3103 -2.9814  1.7988
 9871SOL    HW231214   0.113   4.206   3.596 -0.2456 -1.9132  0.8929
 9872SOL     OW31215   1.100   6.047   2.927  0.2272  0.3575  0.6046
 9872SOL    HW131216   1.193   6.012   2.929  0.5125  1.1191  1.0132
 9872SOL    HW231217   1.050   6.005   2.852  0.7377 -0.4555  0.7115
 9873SOL     OW31218   5.149   3.786   0.377 -0.1118 -0.2022 -0.6912
 9873SOL    HW131219   5.127   3.880   0.405  1.0664  0.2217 -1.1192
 9873SOL    HW231220   5.115   3.723   0.446 -0.8276  0.5436 -0.3374
 9874SOL     OW31221   4.481   4.382   6.770 -0.4682  0.7401 -0.3561
 9874SOL    HW131222   4.567   4.336   6.791  0.4456  1.7312 -1.7132
 9874SOL    HW231223   4.417   4.317   6.730  0.7644  0.5472 -2.1741
 9875SOL     OW31224   5.863   0.945   2.684  0.2841  0.2931 -0.4134
 9875SOL    HW131225   5.875   1.000   2.767 -0.5047 -1.8795  1.2577
 9875SOL    HW231226   5.924   0.866   2.688 -2.7714 -2.1950  0.3248
 9876SOL     OW31227   0.447   0.765   6.710 -0.0130 -0.2488 -0.2177
 9876SOL    HW131228   0.387   0.687   6.729  0.1273 -0.7104 -1.5511
 9876SOL    HW231229   0.393   0.841   6.675 -0.1347  0.2444  0.9853
 9877SOL     OW31230   5.517   5.163   1.743 -0.4118  0.3022 -0.0728
 9877SOL    HW131231   5.564   5.241   1.784 -0.8621  0.5255  0.0300
 9877SOL    HW231232   5.485   5.101   1.815  1.0753 -0.6591 -0.1997
 9878SOL     OW31233   3.590   5.510   6.015  0.3095 -0.7433 -0.3652
 9878SOL    HW131234   3.678   5.552   5.993 -0.1698  2.7109  3.1021
 9878SOL    HW231235   3.604   5.436   6.081  0.7025  1.6526  2.4689
 9879SOL     OW31236   4.313   3.473   0.675 -0.0293  0.3195 -0.6546
 9879SOL    HW131237   4.330   3.394   0.616 -0.2302  0.4044 -0.8282
 9879SOL    HW231238   4.271   3.546   0.621  0.4034  0.6419 -0.5519
 9880SOL     OW31239   0.430   1.148   4.141 -0.9445  0.0761  0.2768
 9880SOL    HW131240   0.447   1.072   4.204 -1.1596  0.2907  0.5982
 9880SOL    HW231241   0.383   1.222   4.190  1.8067  1.6655  0.7864
 9881SOL     OW31242   5.341   3.191   0.601 -0.2575 -0.2681  0.2191
 9881SOL    HW131243   5.388   3.247   0.669 -1.0349  0.6866  0.0026
 9881SOL    HW231244   5.243   3.188   0.622 -0.4556 -0.2671 -0.6453
 9882SOL     OW31245   3.828   0.555   3.726 -0.1656 -0.3558  0.3445
 9882SOL    HW131246   3.847   0.619   3.651 -0.0759 -0.9111 -0.1070
 9882SOL    HW231247   3.729   0.547   3.739 -0.1980 -0.7800 -0.1647
 9883SOL     OW31248   0.771   0.909   2.568 -0.3786  0.1614  0.4966
 9883SOL    HW131249   0.726   0.970   2.503 -1.1383 -1.1538 -0.2430
 9883SOL    HW231250   0.780   0.818   2.529  2.1324  0.1125  0.9694
 9884SOL     OW31251   0.622   2.971   1.819  0.2121  0.1470 -0.2707
 9884SOL    HW131252   0.577   2.970   1.730 -1.4735 -1.0686  0.5445
 9884SOL    HW231253   0.720   2.960   1.807  0.0102 -0.0636 -1.9596
 9885SOL     OW31254   1.301   4.293   5.417 -0.0821 -0.3030  0.3810
 9885SOL    HW131255   1.273   4.268   5.324 -1.5407 -1.4595  1.0934
 9885SOL    HW231256   1.325   4.390   5.420  1.5363 -0.5773 -1.5328
 9886SOL     OW31257   2.946   0.305   6.919 -0.1112  0.2576 -0.4827
 9886SOL    HW131258   2.886   0.305   7.000  0.2092 -1.1467 -0.2321
 9886SOL    HW231259   2.972   0.212   6.896  2.2052  0.8234 -0.4204
 9887SOL     OW31260   0.433   3.206   2.788 -0.0294 -0.0099 -0.5753
 9887SOL    HW131261   0.504   3.168   2.849  0.5436  0.0256 -1.2077
 9887SOL    HW231262   0.402   3.294   2.824 -0.3701 -0.4181  0.1599
 9888SOL     OW31263   2.783   2.302   1.040 -0.1186 -0.5328  0.0003
 9888SOL    HW131264   2.830   2.320   1.126  0.1455 -0.3128 -0.1873
 9888SOL    HW231265   2.684   2.298   1.056  0.0208 -2.2780  0.6249
 9889SOL     OW31266   2.405   4.389   2.260  0.3274 -0.3009  0.4967
 9889SOL    HW131267   2.486   4.347   2.303  0.6525  1.9523  2.2499
 9889SOL    HW231268   2.327   4.382   2.322  0.0272  0.3907  0.2077
 9890SOL     OW31269   4.322   1.606   0.792 -0.1985  0.7195 -0.3741
 9890SOL    HW131270   4.299   1.653   0.706 -0.6294  1.7500  0.2809
 9890SOL    HW231271   4.350   1.674   0.860  1.7608 -0.2171 -0.1725
 9891SOL     OW31272   6.737   1.036   3.369  0.0852 -0.0014 -0.3685
 9891SOL    HW131273   6.647   1.031   3.413 -0.5365  1.3043 -1.4022
 9891SOL    HW231274   6.800   0.973   3.414 -0.6240  0.9214  2.0762
 9892SOL     OW31275   4.386   0.001   1.035 -0.2698 -0.1154 -0.5061
 9892SOL    HW131276   4.340   0.089   1.045 -0.6737 -0.1973 -1.5742
 9892SOL    HW231277   4.436  -0.019   1.119 -0.6887  0.8301 -0.0083
 9893SOL     OW31278   0.773   6.670   4.118 -0.6159 -0.5261 -0.1904
 9893SOL    HW131279   0.785   6.743   4.049 -1.5257  0.6084  0.8050
 9893SOL    HW231280   0.676   6.657   4.136 -0.3929 -0.7367  0.9470
 9894SOL     OW31281   5.326   4.886   0.611  0.5764  0.0831  0.5691
 9894SOL    HW131282   5.392   4.944   0.565  0.1082  1.1389  1.1964
 9894SOL    HW231283   5.351   4.790   0.597  0.4879  0.3366 -1.8292
 9895SOL     OW31284   1.414   4.814   1.155 -0.3097  0.2435 -0.3344
 9895SOL    HW131285   1.359   4.886   1.113 -0.3544  0.1104 -0.5056
 9895SOL    HW231286   1.409   4.732   1.099 -2.0385 -0.6123  0.9781
 9896SOL     OW31287   0.623   6.347   6.326 -0.5889  0.0494  0.6582
 9896SOL    HW131288   0.608   6.406   6.405  1.4907 -0.3643  1.4305
 9896SOL    HW231289   0.690   6.390   6.265  0.6415 -1.2550  1.0242
 9897SOL     OW31290   1.428   4.260   1.140  0.0931 -0.0227 -0.0869
 9897SOL    HW131291   1.351   4.267   1.204 -1.4921 -0.6351 -1.8313
 9897SOL    HW231292   1.502   4.207   1.182 -0.2458  0.9142  1.7789
 9898SOL     OW31293   6.076   0.468   5.562 -1.1886  0.1713 -0.0024
 9898SOL    HW131294   6.037   0.503   5.647  0.4372  1.3192  0.3263
 9898SOL    HW231295   6.129   0.385   5.581  0.3531  1.2099  0.4040
 9899SOL     OW31296   0.169   6.648   0.376  0.5929 -0.4837  0.0822
 9899SOL    HW131297   0.086   6.634   0.430  0.1277 -1.1039 -0.7692
 9899SOL    HW231298   0.235   6.575   0.396  0.5701 -0.5040  0.0829
 9900SOL     OW31299   0.303   3.460   1.007  0.1404 -0.1139  0.3582
 9900SOL    HW131300   0.225   3.401   1.029  1.3218 -2.5932 -1.5279
 9900SOL    HW231301   0.386   3.418   1.045  0.7738  1.6760  1.0276
 9901SOL     OW31302   4.077   3.980   3.924  0.1015 -0.7211  1.0288
 9901SOL    HW131303   3.977   3.983   3.923  0.0987  0.5264  1.9900
 9901SOL    HW231304   4.108   3.941   4.011  0.4443 -0.4378  1.0351
 9902SOL     OW31305   3.799   5.692   6.154  0.2925 -0.2786  0.0252
 9902SOL    HW131306   3.786   5.787   6.125  0.5731 -0.2689 -0.0695
 9902SOL    HW231307   3.896   5.671   6.158  0.3233  0.1058  2.1882
 9903SOL     OW31308   4.401   5.500   4.330  0.6674 -0.2989  0.3149
 9903SOL    HW131309   4.447   5.418   4.294  1.3124 -0.6754  1.9089
 9903SOL    HW231310   4.449   5.581   4.298  2.7593 -0.6948  2.2120
 9904SOL     OW31311   3.987   6.059   3.017  0.1630 -0.2442  0.4671
 9904SOL    HW131312   3.893   6.029   2.997  0.0657 -0.6336  1.4805
 9904SOL    HW231313   3.992   6.092   3.111  0.9337  0.2509  0.2586
 9905SOL     OW31314   3.804   5.399   1.972 -0.5945 -0.6157  0.2313
 9905SOL    HW131315   3.795   5.463   2.048 -0.2974 -2.0911  1.5623
 9905SOL    HW231316   3.779   5.307   2.002 -2.2405 -0.9775 -1.9668
 9906SOL     OW31317   1.864   1.648   5.384  0.4791 -0.4366  0.2278
 9906SOL    HW131318   1.770   1.683   5.377  1.2720  1.7636 -0.3033
 9906SOL    HW231319   1.909   1.655   5.295  0.8303 -2.5989  0.1797
 9907SOL     OW31320   2.626   1.598   6.912  0.1468 -0.2129  0.2000
 9907SOL    HW131321   2.597   1.518   6.859 -0.4331  0.1812 -0.0942
 9907SOL    HW231322   2.673   1.568   6.995 -1.5627 -0.9214  0.9645
 9908SOL     OW31323   3.207   6.736   0.021  0.4725  0.1256  0.1539
 9908SOL    HW131324   3.268   6.678   0.075  1.3090  1.5272  0.7765
 9908SOL    HW231325   3.166   6.805   0.080 -1.2179 -0.3522 -0.3995
 9909SOL     OW31326   3.597   0.910   6.741  0.1344 -0.6704  0.1997
 9909SOL    HW131327   3.625   0.817   6.766  2.1136 -0.0899  0.3376
 9909SOL    HW231328   3.602   0.969   6.821 -2.7537 -0.7375  0.5119
 9910SOL     OW31329   6.664   6.127   3.938 -0.1187  0.4179 -0.3627
 9910SOL    HW131330   6.709   6.145   4.026  0.6571  0.7252 -0.8116
 9910SOL    HW231331   6.570   6.160   3.942  0.0953  0.9919  0.1552
 9911SOL     OW31332   0.303   3.797   0.532 -0.0061 -0.5321  0.0833
 9911SOL    HW131333   0.263   3.720   0.482 -0.1975 -0.7371  0.5436
 9911SOL    HW231334   0.318   3.771   0.628  0.1028 -0.0590  0.2007
 9912SOL     OW31335   5.886   4.240   4.326  0.2109  0.3902  1.0535
 9912SOL    HW131336   5.842   4.209   4.241 -0.8490  0.8684  1.4051
 9912SOL    HW231337   5.960   4.303   4.304  0.8485 -0.5426  0.4390
 9913SOL     OW31338   2.547   4.703   1.031  0.7779  0.2244  0.4052
 9913SOL    HW131339   2.589   4.791   1.011  2.1535 -0.3223  0.7580
 9913SOL    HW231340   2.549   4.646   0.949  1.3429 -0.0374  0.5976
 9914SOL     OW31341   0.491   1.397   0.403 -0.1869  0.7773 -0.2275
 9914SOL    HW131342   0.506   1.413   0.501 -0.1655 -0.1053 -0.0835
 9914SOL    HW231343   0.412   1.336   0.391 -0.6900  1.5170 -0.7953
 9915SOL     OW31344   5.613   2.134   3.536  0.1933  0.3930 -0.7016
 9915SOL    HW131345   5.702   2.129   3.582  0.4252 -2.1078 -1.2500
 9915SOL    HW231346   5.606   2.221   3.486  1.2792  1.7076  1.3002
 9916SOL     OW31347   2.040   3.363   5.192  0.1430  0.1487  0.0512
 9916SOL    HW131348   2.003   3.341   5.282  0.8245  2.4592  0.9694
 9916SOL    HW231349   2.002   3.300   5.124 -1.4537 -0.7847  1.7187
 9917SOL     OW31350   3.811   2.278   0.838 -0.0999 -0.0496 -0.6808
 9917SOL    HW131351   3.796   2.360   0.894 -0.0558  1.2766 -2.5099
 9917SOL    HW231352   3.829   2.200   0.897  0.5858  1.4026  1.1171
 9918SOL     OW31353   2.802   4.868   0.041 -0.7015  0.2627  0.1085
 9918SOL    HW131354   2.784   4.807  -0.036  0.1346 -0.6807  0.6353
 9918SOL    HW231355   2.888   4.916   0.026  0.1320 -0.8994  1.0259
 9919SOL     OW31356   6.575   4.379   3.208  0.3457  0.0103  0.0575
 9919SOL    HW131357   6.525   4.359   3.292  1.7569  2.5863  1.6173
 9919SOL    HW231358   6.673   4.379   3.227  0.6252  2.8342 -0.9956
 9920SOL     OW31359   3.519   3.401   5.341  0.0449 -0.5637 -0.0600
 9920SOL    HW131360   3.429   3.418   5.301  0.0202  0.0725  0.2585
 9920SOL    HW231361   3.539   3.303   5.337 -1.9878 -1.2198  2.6340
 9921SOL     OW31362   1.839   1.277   3.609  0.1602  0.1017 -0.1987
 9921SOL    HW131363   1.850   1.180   3.632 -2.7109 -0.6227 -1.5175
 9921SOL    HW231364   1.811   1.286   3.514 -1.3058  2.1047  0.3745
 9922SOL     OW31365   6.465   3.920   6.305 -0.1013 -0.4862 -0.8157
 9922SOL    HW131366   6.469   3.827   6.269 -0.1584 -0.6335 -0.4470
 9922SOL    HW231367   6.527   3.979   6.253  2.6015 -1.4741  1.0965
 9923SOL     OW31368   5.425   3.746   5.199 -0.0174  0.7088 -0.3201
 9923SOL    HW131369   5.497   3.677   5.199 -0.5429  0.1518  0.3281
 9923SOL    HW231370   5.343   3.709   5.156  0.3078  1.6062 -1.7807
 9924SOL     OW31371   1.739   4.221   2.418 -0.1971 -0.2371 -0.4948
 9924SOL    HW131372   1.689   4.143   2.456  1.0274 -0.7770  0.0545
 9924SOL    HW231373   1.817   4.189   2.365  1.7517  0.5771  1.7092
 9925SOL     OW31374   6.312   5.337   2.303 -0.2455 -0.1710  0.0295
 9925SOL    HW131375   6.341   5.278   2.228 -1.4297 -1.1891  0.3428
 9925SOL    HW231376   6.346   5.430   2.287  0.3899 -0.5902 -1.2261
 9926SOL     OW31377   0.636   5.550   5.928  0.5277  0.4529  0.1894
 9926SOL    HW131378   0.654   5.489   5.850 -3.8736 -1.2786  0.2704
 9926SOL    HW231379   0.615   5.641   5.894 -0.6105 -0.1022 -0.6717
 9927SOL     OW31380   5.101   0.779   4.157 -0.2548  0.3687 -0.0480
 9927SOL    HW131381   5.059   0.781   4.067  2.4353  3.0397 -1.3994
 9927SOL    HW231382   5.141   0.689   4.174 -1.5146 -0.4204 -1.0867
 9928SOL     OW31383   1.764   3.786   4.051 -0.3770  0.6157  0.0897
 9928SOL    HW131384   1.859   3.779   4.022 -0.0227  1.5059  1.0012
 9928SOL    HW231385   1.754   3.859   4.119 -1.2911 -0.9955  1.7841
 9929SOL     OW31386   4.413   2.637   5.636 -0.0380  0.2981 -0.5170
 9929SOL    HW131387   4.403   2.625   5.538  1.6031  1.1941 -0.8226
 9929SOL    HW231388   4.434   2.549   5.678  3.1307  0.4281 -1.5506
 9930SOL     OW31389   3.803   1.565   3.122  0.4307  0.3424  0.7154
 9930SOL    HW131390   3.902   1.551   3.129  0.2290 -1.0939  1.0175
 9930SOL    HW231391   3.779   1.593   3.029  0.9606 -0.8209  0.2138
 9931SOL     OW31392   5.938   3.761   5.730 -0.0025  0.0725 -0.1084
 9931SOL    HW131393   5.944   3.808   5.642 -0.6758 -0.2537 -0.3387
 9931SOL    HW231394   5.856   3.703   5.731 -0.2235  0.3779  0.8814
 9932SOL     OW31395   3.942   1.267   0.621 -0.1660 -0.5880  0.2960
 9932SOL    HW131396   3.911   1.348   0.672 -0.4140 -0.1584 -0.5071
 9932SOL    HW231397   3.866   1.231   0.567  0.4503 -0.1438 -0.9047
 9933SOL     OW31398   0.035   6.800   4.776 -0.3766 -0.5803  0.0057
 9933SOL    HW131399   0.018   6.707   4.810 -0.4758 -0.4112  0.4289
 9933SOL    HW231400   0.133   6.812   4.760 -0.3896 -0.8300 -0.2677
 9934SOL     OW31401   0.402   4.436   6.034  0.3218 -0.2450  0.3519
 9934SOL    HW131402   0.360   4.346   6.044  0.7310 -0.2562  2.5188
 9934SOL    HW231403   0.454   4.458   6.117  1.7479  1.2286 -0.8549
 9935SOL     OW31404   6.113   4.774   4.829 -0.2064 -0.4907 -0.3639
 9935SOL    HW131405   6.095   4.737   4.738 -0.1493 -0.1530 -0.5150
 9935SOL    HW231406   6.206   4.750   4.857  0.4075  0.8841 -1.1369
 9936SOL     OW31407   0.169   0.902   4.329  0.5090  0.5026  0.2362
 9936SOL    HW131408   0.266   0.921   4.345  1.3305 -1.5959 -1.7327
 9936SOL    HW231409   0.142   0.822   4.383  0.4033 -0.0795 -0.6723
 9937SOL     OW31410   2.480   3.323   5.288  0.3654 -0.4638  0.0580
 9937SOL    HW131411   2.449   3.344   5.380  0.8616 -0.8189  0.3132
 9937SOL    HW231412   2.412   3.266   5.241  0.2110 -0.4614  0.2815
 9938SOL     OW31413   4.260   0.548   4.785  0.2468  0.5881 -0.0690
 9938SOL    HW131414   4.356   0.571   4.800  0.2004  0.2066  0.9309
 9938SOL    HW231415   4.228   0.491   4.861 -1.1853  1.9486  0.3838
 9939SOL     OW31416   1.067   4.505   5.893  0.3192  0.2029  0.4499
 9939SOL    HW131417   1.113   4.421   5.865 -0.6497  0.0711 -0.8308
 9939SOL    HW231418   0.970   4.486   5.909  0.0112  1.1489 -0.2342
 9940SOL     OW31419   5.551   2.001   6.163  0.0751  0.2316  0.2523
 9940SOL    HW131420   5.538   1.942   6.083  0.6200 -0.0114  0.3404
 9940SOL    HW231421   5.553   1.945   6.246 -0.5928  0.4929  0.4502
 9941SOL     OW31422   1.275   1.189   3.717 -0.0992 -0.8255 -0.5931
 9941SOL    HW131423   1.322   1.102   3.702  0.6341 -0.7238  0.9194
 9941SOL    HW231424   1.316   1.260   3.659 -0.3904 -1.3793 -1.4864
 9942SOL     OW31425   1.945   5.369   4.922 -0.7443 -0.8404  0.3255
 9942SOL    HW131426   1.869   5.313   4.955 -1.2880 -1.1628 -1.3906
 9942SOL    HW231427   2.009   5.311   4.872  0.0003 -0.3471  0.6967
 9943SOL     OW31428   6.450   1.022   2.646  0.1784 -0.5909 -0.3846
 9943SOL    HW131429   6.506   0.964   2.705 -1.8041 -1.9532  0.2585
 9943SOL    HW231430   6.364   1.043   2.692 -0.6512 -0.1536 -2.0591
 9944SOL     OW31431   5.223   5.106   4.998 -0.0657  0.1490  0.2535
 9944SOL    HW131432   5.131   5.141   5.010 -0.1259 -0.1423  0.6445
 9944SOL    HW231433   5.222   5.006   5.002  0.3029  0.1529  0.5105
 9945SOL     OW31434   4.342   2.595   1.489 -0.4360  0.7213  0.3639
 9945SOL    HW131435   4.323   2.503   1.453  1.8758 -0.4846  1.9829
 9945SOL    HW231436   4.274   2.617   1.560  0.2411 -0.7370  1.5290
 9946SOL     OW31437   2.023   2.525   5.300 -0.1359 -0.0903  0.1686
 9946SOL    HW131438   2.039   2.527   5.202 -1.5493 -0.6865 -0.0998
 9946SOL    HW231439   2.021   2.618   5.336 -1.8227  0.2810 -0.7788
 9947SOL     OW31440   3.012   5.071   1.046 -0.1787 -0.2015 -0.5877
 9947SOL    HW131441   2.958   5.150   1.076  0.0966  0.0243 -0.6784
 9947SOL    HW231442   3.067   5.037   1.123 -0.0223 -0.0778 -0.6452
 9948SOL     OW31443   6.521   3.614   6.589 -0.3314 -0.2695  0.8916
 9948SOL    HW131444   6.570   3.540   6.544 -0.8730 -0.1565  0.0985
 9948SOL    HW231445   6.535   3.608   6.688  1.3939 -0.1437  0.6756
 9949SOL     OW31446   6.673   6.180   5.706 -0.0971 -0.0682  0.2200
 9949SOL    HW131447   6.574   6.170   5.693 -0.0205 -1.9993  0.8240
 9949SOL    HW231448   6.721   6.127   5.635  0.4556 -0.8232  1.1320
 9950SOL     OW31449   3.370   4.706   6.837 -0.4793  0.5753  0.0149
 9950SOL    HW131450   3.453   4.678   6.790 -0.7627  0.1332 -0.2389
 9950SOL    HW231451   3.360   4.805   6.833 -0.7280  0.5213 -1.2773
 9951SOL     OW31452   5.761   5.041   2.765  0.4348  0.5870 -0.5256
 9951SOL    HW131453   5.802   5.010   2.679 -1.5600  0.9435 -1.6595
 9951SOL    HW231454   5.716   5.130   2.750 -1.3775 -0.1288  0.4200
 9952SOL     OW31455   4.990   1.907   5.481  0.0386  0.1447 -0.2285
 9952SOL    HW131456   5.088   1.927   5.491  0.3660  0.9118 -3.5344
 9952SOL    HW231457   4.946   1.981   5.431 -1.8948 -0.9647 -0.2821
 9953SOL     OW31458   6.913   5.508   0.232  0.3182  0.9600 -0.5650
 9953SOL    HW131459   6.894   5.496   0.329 -0.1688  1.9975 -0.5188
 9953SOL    HW231460   6.911   5.419   0.186 -0.6837  0.5904  0.1574
 9954SOL     OW31461   0.391   1.823   3.946 -0.8975  0.4262  0.1761
 9954SOL    HW131462   0.397   1.843   3.848  1.4156 -0.7397  0.0276
 9954SOL    HW231463   0.477   1.846   3.990 -2.4702  2.6907  2.3628
 9955SOL     OW31464   1.609   4.802   5.417  0.1879  0.5090 -0.2402
 9955SOL    HW131465   1.532   4.837   5.362 -0.7786 -0.7366  0.2537
 9955SOL    HW231466   1.595   4.704   5.433  1.3764  0.4852  0.7243
 9956SOL     OW31467   4.561   5.583   6.346  0.0936  0.3760 -0.1796
 9956SOL    HW131468   4.520   5.594   6.256 -1.8733 -1.0404  0.4775
 9956SOL    HW231469   4.655   5.550   6.336 -0.3563 -0.5495 -1.7205
 9957SOL     OW31470   2.475   6.107   5.410 -0.0218  0.3753  0.1700
 9957SOL    HW131471   2.445   6.123   5.504  0.1695 -0.5434  0.3972
 9957SOL    HW231472   2.477   6.194   5.360 -2.7316  0.5565  0.2216
 9958SOL     OW31473   6.556   5.522   6.607 -0.2999 -0.0767  0.4192
 9958SOL    HW131474   6.646   5.503   6.567 -0.4778 -0.1215  0.0423
 9958SOL    HW231475   6.558   5.498   6.704  0.5174  1.2147  0.7543
 9959SOL     OW31476   2.215   1.501   6.259  0.1687  0.5354 -0.7440
 9959SOL    HW131477   2.123   1.532   6.281  0.0737  1.1941 -1.9708
 9959SOL    HW231478   2.210   1.429   6.190  0.6300  2.3780 -2.7943
 9960SOL     OW31479   5.949   4.098   1.989  0.9343 -0.3916 -0.7961
 9960SOL    HW131480   5.898   4.030   1.936  0.1588  0.5197 -1.2456
 9960SOL    HW231481   5.917   4.096   2.083  1.0815 -0.8057 -0.7505
 9961SOL     OW31482   5.259   0.776   1.836  0.5877  0.2346  0.3494
 9961SOL    HW131483   5.277   0.692   1.785 -0.7508  1.2732 -1.9689
 9961SOL    HW231484   5.346   0.823   1.855  1.1806 -0.6689 -0.0691
 9962SOL     OW31485   4.085   4.720   5.777  0.4897  0.0752 -0.2154
 9962SOL    HW131486   4.089   4.753   5.682  0.8238 -2.6075 -1.2365
 9962SOL    HW231487   4.005   4.758   5.822 -1.2044 -0.5714 -2.4622
 9963SOL     OW31488   4.494   6.881   6.917 -0.1542  0.1322  0.6500
 9963SOL    HW131489   4.516   6.811   6.985  0.2693 -0.3005  0.0845
 9963SOL    HW231490   4.534   6.855   6.829 -2.0841 -0.1540 -0.1720
 9964SOL     OW31491   4.175   4.244   1.982 -0.3138 -0.0381  0.1024
 9964SOL    HW131492   4.260   4.229   2.032 -0.5794  0.3243  0.6677
 9964SOL    HW231493   4.193   4.237   1.884  0.2009 -0.7673  0.2430
 9965SOL     OW31494   5.523   6.102   4.224 -0.2890 -0.1300  0.3223
 9965SOL    HW131495   5.571   6.101   4.135 -2.6517 -0.8994 -1.0250
 9965SOL    HW231496   5.559   6.177   4.280  1.2385  0.4281 -1.2967
 9966SOL     OW31497   6.733   0.045   5.595 -0.0641  0.4061 -0.2045
 9966SOL    HW131498   6.678   0.010   5.671 -0.6129  0.5237 -0.5444
 9966SOL    HW231499   6.700   0.136   5.570  0.0616  0.3324 -0.6386
 9967SOL     OW31500   6.417   3.647   4.344 -0.3973  0.2244  0.4582
 9967SOL    HW131501   6.457   3.561   4.376 -0.2138  0.7187  1.6061
 9967SOL    HW231502   6.438   3.719   4.409 -2.1708  0.7527  0.4984
 9968SOL     OW31503   6.254   5.411   6.228 -0.0507  0.3719 -0.1117
 9968SOL    HW131504   6.208   5.478   6.170  0.8296  1.3135  0.2441
 9968SOL    HW231505   6.283   5.454   6.313  1.1373 -0.2618 -0.1642
 9969SOL     OW31506   5.032   1.204   4.756 -0.0917  0.3317  0.0852
 9969SOL    HW131507   5.018   1.106   4.746 -1.1825  0.4056  0.7275
 9969SOL    HW231508   5.114   1.220   4.811 -0.6473 -0.2674  1.1268
 9970SOL     OW31509   5.590   2.788   0.551 -0.2435 -0.2776 -0.0899
 9970SOL    HW131510   5.504   2.837   0.557 -0.5983 -1.0521  1.7094
 9970SOL    HW231511   5.573   2.690   0.551  0.5955 -0.4420 -0.9252
 9971SOL     OW31512   3.691   3.745   3.270  0.3038 -0.0819  0.4708
 9971SOL    HW131513   3.594   3.719   3.266  0.4253 -0.5029  0.2420
 9971SOL    HW231514   3.703   3.816   3.340 -0.5605  1.6501 -1.0424
 9972SOL     OW31515   3.169   1.847   6.992  0.1007 -0.7387 -0.1486
 9972SOL    HW131516   3.104   1.772   6.978  0.1963 -1.3034  2.1581
 9972SOL    HW231517   3.132   1.910   7.061  0.5933  0.6897 -1.1449
 9973SOL     OW31518   2.395   5.379   2.044 -0.1589 -0.3824  0.1908
 9973SOL    HW131519   2.342   5.440   1.984 -1.3790 -1.1105  0.5000
 9973SOL    HW231520   2.387   5.410   2.138 -0.0934 -0.5349  0.2458
 9974SOL     OW31521   5.028   2.176   2.951 -0.4619  0.0353 -0.9150
 9974SOL    HW131522   4.949   2.190   2.891 -0.7325 -0.0784 -0.5898
 9974SOL    HW231523   5.027   2.244   3.024  0.2637  0.6254 -1.4418
 9975SOL     OW31524   0.197   3.460   3.056  0.2067  0.6643  0.3424
 9975SOL    HW131525   0.114   3.464   3.111  0.1058  2.2258  0.1308
 9975SOL    HW231526   0.216   3.551   3.017  0.7396 -0.1813 -1.4941
 9976SOL     OW31527   1.197   4.546   3.392  0.5853 -0.4136  0.1885
 9976SOL    HW131528   1.293   4.526   3.408  0.2373  0.0091  3.3354
 9976SOL    HW231529   1.141   4.470   3.427 -0.2782 -0.4649 -1.2276
 9977SOL     OW31530   0.573   5.317   3.536 -0.2015 -0.0744 -0.2365
 9977SOL    HW131531   0.593   5.359   3.624 -0.3108 -0.9529  0.2178
 9977SOL    HW231532   0.615   5.371   3.463 -0.8757  1.1689  0.2703
 9978SOL     OW31533   2.857   6.261   2.070 -0.2248  0.5639  0.2011
 9978SOL    HW131534   2.828   6.318   1.993  1.2399  0.6999 -0.2916
 9978SOL    HW231535   2.954   6.238   2.059 -0.7452 -2.0117  0.3978
 9979SOL     OW31536   4.253   3.524   6.215 -0.0907 -0.8748  0.4637
 9979SOL    HW131537   4.200   3.507   6.298  0.6296 -2.9359  0.5512
 9979SOL    HW231538   4.348   3.495   6.229  0.3218 -0.1516 -0.7028
 9980SOL     OW31539   3.113   1.791   6.356 -0.0608  0.0798  0.3838
 9980SOL    HW131540   3.111   1.891   6.361  1.4948  0.0803  1.9988
 9980SOL    HW231541   3.204   1.760   6.331 -0.0409 -0.9462  1.6199
 9981SOL     OW31542   5.376   5.016   3.842 -0.5276 -0.2122 -0.3205
 9981SOL    HW131543   5.330   5.046   3.926  0.9820  0.0099  0.4761
 9981SOL    HW231544   5.345   5.071   3.765 -1.5641 -0.0700  0.1820
 9982SOL     OW31545   6.343   1.625   5.446  0.1142 -0.1368  0.3243
 9982SOL    HW131546   6.334   1.572   5.362 -0.3532  0.1483  0.1921
 9982SOL    HW231547   6.253   1.657   5.476  0.3578  0.3851  0.5247
 9983SOL     OW31548   1.608   1.658   2.400  0.1222 -0.1135 -0.4274
 9983SOL    HW131549   1.680   1.696   2.458  0.6291  1.2188 -1.8737
 9983SOL    HW231550   1.528   1.636   2.457  0.1364  2.2902  0.6552
 9984SOL     OW31551   4.837   5.468   3.678 -0.0202  0.2978 -0.6910
 9984SOL    HW131552   4.740   5.477   3.702  0.2706 -0.9085  1.1509
 9984SOL    HW231553   4.858   5.372   3.661  0.6235  0.6983 -2.2527
 9985SOL     OW31554   1.352   4.564   1.038  0.6090 -0.1512 -0.2988
 9985SOL    HW131555   1.354   4.560   0.938 -0.0123 -1.1211 -0.2868
 9985SOL    HW231556   1.367   4.473   1.075  2.7863  0.4826  0.5615
 9986SOL     OW31557   0.316   4.100   6.989 -0.6749  0.2862  0.4116
 9986SOL    HW131558   0.238   4.046   6.957 -0.0370 -0.3576 -0.0839
 9986SOL    HW231559   0.300   4.128   7.083 -2.0624  1.2237 -0.0788
 9987SOL     OW31560   5.447   0.032   2.066 -0.0678  0.7636 -0.0648
 9987SOL    HW131561   5.347   0.037   2.072 -0.1017 -0.8337  1.8781
 9987SOL    HW231562   5.474  -0.061   2.042  0.9382  0.2900  2.5426
 9988SOL     OW31563   5.444   2.533   4.907 -0.0923  0.2860  0.2731
 9988SOL    HW131564   5.432   2.615   4.851  0.2885  0.4746  0.4617
 9988SOL    HW231565   5.356   2.508   4.949 -0.4300  0.0046 -0.5886
 9989SOL     OW31566   6.357   5.027   2.294  0.0640  0.1940  0.2464
 9989SOL    HW131567   6.268   5.053   2.331 -0.2186 -1.6085  0.9283
 9989SOL    HW231568   6.372   5.075   2.207 -1.0853  1.3171  0.6255
 9990SOL     OW31569   6.470   5.557   5.981 -0.3714  0.3839  1.2272
 9990SOL    HW131570   6.436   5.488   5.918  0.8347  0.3694  0.5592
 9990SOL    HW231571   6.531   5.620   5.932  0.4618  0.4664  2.3286
 9991SOL     OW31572   0.595   6.075   5.885 -0.0352  0.3083  0.2871
 9991SOL    HW131573   0.579   6.080   5.984 -2.0717  0.5712 -0.0272
 9991SOL    HW231574   0.648   6.155   5.856  0.4359  0.3145  1.1177
 9992SOL     OW31575   1.887   2.379   4.921 -0.2318 -0.5177 -0.0648
 9992SOL    HW131576   1.899   2.289   4.964 -0.6515 -0.3039  0.5096
 9992SOL    HW231577   1.848   2.367   4.829  1.6965 -1.0461 -0.8705
 9993SOL     OW31578   6.930   1.092   0.037 -0.5725  0.6107  0.6169
 9993SOL    HW131579   7.006   1.147   0.004 -0.6238 -0.7524 -2.0225
 9993SOL    HW231580   6.965   1.004   0.069 -0.8134  0.9756  1.9565
 9994SOL     OW31581   6.237   0.757   4.392 -0.2288  0.1335 -0.1092
 9994SOL    HW131582   6.160   0.722   4.340 -0.5595 -1.6436  1.4497
 9994SOL    HW231583   6.320   0.754   4.336 -1.0092  0.6786 -1.3218
 9995SOL     OW31584   4.184   6.302   3.467  0.0700 -0.4937  0.0420
 9995SOL    HW131585   4.261   6.287   3.405  0.4057  0.6888  0.1545
 9995SOL    HW231586   4.181   6.228   3.535  0.5348 -1.0467 -0.5359
 9996SOL     OW31587   1.535   1.612   0.533  0.1641 -0.4294  0.2804
 9996SOL    HW131588   1.440   1.639   0.550 -0.7030 -1.7192 -2.0498
 9996SOL    HW231589   1.590   1.692   0.512 -1.2207  0.1019 -1.6141
 9997SOL     OW31590   2.843   2.950   3.455 -0.0022 -0.6877 -0.1374
 9997SOL    HW131591   2.847   2.978   3.359  0.1937  0.5147  0.2080
 9997SOL    HW231592   2.934   2.925   3.487 -0.0380 -0.9128 -0.2085
 9998SOL     OW31593   4.090   0.372   3.607  0.5760  0.2097 -0.3263
 9998SOL    HW131594   4.007   0.365   3.552  0.1705 -1.6997  0.4639
 9998SOL    HW231595   4.170   0.360   3.548  0.1982 -0.4436 -0.7223
 9999SOL     OW31596   3.404   0.628   3.568 -0.1774  0.6405 -0.2502
 9999SOL    HW131597   3.425   0.725   3.581 -2.2227  1.0294  0.4248
 9999SOL    HW231598   3.457   0.574   3.634  0.4449  1.3475 -0.1549
10000SOL     OW31599   1.308   6.212   4.450  0.0440  0.0252  0.4019
10000SOL    HW131600   1.406   6.230   4.456 -0.5313  5.4601 -0.9894
10000SOL    HW231601   1.268   6.216   4.541  0.7195  1.8074  0.6622
10001SOL     OW31602   0.187   4.200   2.654  0.2534 -0.0270  0.2999
10001SOL    HW131603   0.158   4.288   2.693  0.2175  0.2412 -0.3243
10001SOL    HW231604   0.112   4.135   2.660  0.3118 -0.0507  0.8564
10002SOL     OW31605   4.215   4.686   4.915  0.0795 -0.7235 -0.1959
10002SOL    HW131606   4.243   4.735   4.998  1.0281 -1.8048  0.1512
10002SOL    HW231607   4.123   4.649   4.927  0.8336 -2.2980  1.0671
10003SOL     OW31608   5.249   0.313   2.543  0.1552 -0.1825 -0.1761
10003SOL    HW131609   5.178   0.294   2.476 -1.1763  2.5926  0.3121
10003SOL    HW231610   5.213   0.296   2.635  0.0516  1.3487  0.0804
10004SOL     OW31611   6.946   5.255   2.892  0.4495  0.0991  0.3534
10004SOL    HW131612   6.983   5.323   2.829  0.0394  1.6974  1.7755
10004SOL    HW231613   7.015   5.232   2.961 -0.3091  1.2276  1.5355
10005SOL     OW31614   1.804   5.270   4.510 -0.3055 -0.2346  0.3720
10005SOL    HW131615   1.770   5.274   4.416 -0.1999 -1.1864  0.2872
10005SOL    HW231616   1.819   5.363   4.543 -1.8655  0.1882  0.0101
10006SOL     OW31617   4.606   3.072   2.227  0.3151 -0.3859 -0.0005
10006SOL    HW131618   4.544   3.127   2.171  1.1806 -0.8301 -1.4672
10006SOL    HW231619   4.557   3.035   2.306 -0.3720  2.1671  0.8441
10007SOL     OW31620   5.675   0.745   4.465  0.1627  0.0735  0.0133
10007SOL    HW131621   5.713   0.768   4.375  0.8407  1.2785  0.5841
10007SOL    HW231622   5.592   0.798   4.480 -0.1856 -0.4425 -0.0639
10008SOL     OW31623   2.685   3.207   1.712 -0.3436  0.3327 -0.1425
10008SOL    HW131624   2.659   3.131   1.652 -1.3611  0.7877 -0.2939
10008SOL    HW231625   2.739   3.171   1.788 -1.2775 -0.6439  0.0934
10009SOL     OW31626   3.405   2.169   5.312 -0.0789 -0.7558  0.2053
10009SOL    HW131627   3.389   2.093   5.374 -0.9050  0.1597  1.1611
10009SOL    HW231628   3.382   2.255   5.358 -0.3795 -0.0194 -1.2506
10010SOL     OW31629   2.585   5.405   1.673 -0.0076  0.4231 -0.1888
10010SOL    HW131630   2.571   5.489   1.725  0.1657  1.2624 -1.4694
10010SOL    HW231631   2.496   5.362   1.654 -0.0487 -0.1087  1.1126
10011SOL     OW31632   3.905   4.910   0.713  0.8249 -0.2741  0.0642
10011SOL    HW131633   3.821   4.893   0.661  1.6506  0.4279 -1.6135
10011SOL    HW231634   3.954   4.824   0.727  0.6617 -0.4602 -0.4807
10012SOL     OW31635   5.579   4.082   4.658  0.6363 -0.2070 -0.1154
10012SOL    HW131636   5.498   4.079   4.599 -0.5226 -2.7376  1.4729
10012SOL    HW231637   5.651   4.134   4.612 -1.7821  2.0379 -1.6525
10013SOL     OW31638   2.307   3.145   3.025  0.4816  0.1254 -0.0454
10013SOL    HW131639   2.345   3.186   3.108 -0.2600 -1.2309  1.0087
10013SOL    HW231640   2.378   3.093   2.978  0.2469 -1.5887  1.3911
10014SOL     OW31641   6.168   1.548   4.275 -0.4196  0.6544 -0.4175
10014SOL    HW131642   6.110   1.535   4.194 -0.9844 -0.2413  0.1163
10014SOL    HW231643   6.119   1.603   4.342 -0.0673  1.1399 -0.5520
10015SOL     OW31644   0.993   5.642   1.251 -0.3897 -0.1160 -0.1794
10015SOL    HW131645   1.005   5.739   1.272 -2.1986  0.3305 -1.0806
10015SOL    HW231646   0.955   5.595   1.331 -3.3135  0.7518 -0.9750
10016SOL     OW31647   2.322   2.149   1.227 -0.3638 -0.0902  0.2664
10016SOL    HW131648   2.291   2.071   1.173  0.7542 -0.7932  0.5925
10016SOL    HW231649   2.287   2.140   1.320 -1.2857  0.4815 -0.0143
10017SOL     OW31650   4.187   0.470   0.729 -0.1138 -0.1445 -0.2379
10017SOL    HW131651   4.171   0.391   0.670  0.7305  0.4769 -1.3325
10017SOL    HW231652   4.226   0.545   0.675  1.0744  0.3106  1.1849
10018SOL     OW31653   2.202   1.274   1.087  0.0884  0.5372  0.5767
10018SOL    HW131654   2.162   1.357   1.049  0.5007  1.2076  1.5819
10018SOL    HW231655   2.288   1.295   1.132  0.5408 -0.5532  0.2740
10019SOL     OW31656   3.772   2.731   0.382  0.2457 -0.3028  0.0181
10019SOL    HW131657   3.744   2.734   0.478  0.8269  1.2677  0.1823
10019SOL    HW231658   3.704   2.778   0.326 -0.3333 -1.6403 -0.4243
10020SOL     OW31659   6.349   2.200   1.158 -0.9745  0.3118 -0.0210
10020SOL    HW131660   6.286   2.163   1.089 -0.7015 -1.4835  0.6190
10020SOL    HW231661   6.430   2.142   1.162  1.5160  3.3957 -1.8609
10021SOL     OW31662   2.030   4.935   2.344 -0.1941  0.1901 -0.5057
10021SOL    HW131663   2.113   4.890   2.309  0.1717 -0.8423  1.5100
10021SOL    HW231664   1.994   4.882   2.420 -1.6636  1.6414 -0.1419
10022SOL     OW31665   2.680   0.180   5.630  0.1146 -0.0225 -0.1194
10022SOL    HW131666   2.630   0.245   5.688 -0.9549  0.1607 -1.1972
10022SOL    HW231667   2.687   0.092   5.676  0.9735  0.6383  1.0702
10023SOL     OW31668   5.301   6.804   4.879 -0.6301 -0.2133  0.3249
10023SOL    HW131669   5.372   6.829   4.813  0.0067 -0.7379  0.7990
10023SOL    HW231670   5.343   6.758   4.957 -1.7332 -2.9861 -0.5992
10024SOL     OW31671   5.656   3.208   5.850 -0.2881  0.2081  0.4522
10024SOL    HW131672   5.678   3.257   5.765 -1.6021 -1.8855 -1.2129
10024SOL    HW231673   5.581   3.255   5.897 -0.3671  0.7420 -0.1881
10025SOL     OW31674   3.253   1.299   5.817 -0.8173  0.7424  0.3508
10025SOL    HW131675   3.267   1.236   5.740 -2.4922  0.7809 -0.0307
10025SOL    HW231676   3.301   1.385   5.798  1.2212 -0.2527  0.7249
10026SOL     OW31677   0.769   3.630   1.682 -0.2625 -0.0457 -0.2828
10026SOL    HW131678   0.741   3.719   1.720 -2.0924 -0.3437 -0.8358
10026SOL    HW231679   0.697   3.596   1.622 -0.7665 -3.0487  1.8168
10027SOL     OW31680   1.436   3.163   4.166 -0.0479 -0.2697 -0.1335
10027SOL    HW131681   1.458   3.081   4.219 -0.1536 -0.3015 -0.1381
10027SOL    HW231682   1.448   3.244   4.224 -3.6428 -0.4663  1.1466
10028SOL     OW31683   1.557   2.064   4.538 -0.1615 -0.0953 -0.1637
10028SOL    HW131684   1.458   2.063   4.541 -0.1567 -1.1855  0.4682
10028SOL    HW231685   1.589   2.019   4.455 -0.1990 -0.5180  0.0483
10029SOL     OW31686   2.967   4.690   1.345 -0.1076 -0.1101  0.3519
10029SOL    HW131687   2.950   4.753   1.269 -2.0520  0.5566  1.2723
10029SOL    HW231688   2.903   4.613   1.339  0.9810 -1.0273  0.3032
10030SOL     OW31689   1.684   1.108   0.193 -0.0757  0.2199  0.3340
10030SOL    HW131690   1.624   1.116   0.273  0.2207  0.2202  0.5599
10030SOL    HW231691   1.769   1.062   0.220 -1.3061 -2.8335 -0.7042
10031SOL     OW31692   4.248   0.089   1.697  0.0711 -0.6857  0.2517
10031SOL    HW131693   4.187   0.075   1.775  1.4163 -1.3815  1.2073
10031SOL    HW231694   4.200   0.064   1.613 -0.5917 -2.3367  1.0808
10032SOL     OW31695   4.371   5.445   4.624  0.0368  0.1683  0.3049
10032SOL    HW131696   4.467   5.418   4.625 -0.0569 -0.2414  2.0008
10032SOL    HW231697   4.351   5.496   4.541  1.5535 -0.3245 -0.3886
10033SOL     OW31698   0.201   1.674   4.525 -0.4662 -0.8662  0.3119
10033SOL    HW131699   0.204   1.683   4.426  1.1743 -0.3386  0.3782
10033SOL    HW231700   0.142   1.745   4.564 -1.3283 -1.2422 -0.2865
10034SOL     OW31701   3.520   4.968   5.395 -0.7208  0.4898 -0.2894
10034SOL    HW131702   3.606   4.924   5.368 -1.1082 -0.4737  0.0016
10034SOL    HW231703   3.470   4.908   5.458 -2.2969  0.3724 -1.5820
10035SOL     OW31704   6.869   2.587   3.612 -0.0524 -0.0946 -0.2289
10035SOL    HW131705   6.917   2.577   3.699  0.3441 -2.1151 -0.6270
10035SOL    HW231706   6.912   2.528   3.544 -1.5303 -0.0062 -1.2856
10036SOL     OW31707   1.442   3.139   4.907  0.0388  0.8984  0.3526
10036SOL    HW131708   1.448   3.040   4.922 -0.6473  0.9976  1.3901
10036SOL    HW231709   1.409   3.157   4.814  0.0803  0.1493  0.1885
10037SOL     OW31710   2.392   1.413   3.140 -0.9281 -0.1765 -0.2115
10037SOL    HW131711   2.346   1.421   3.228  0.4408 -0.8391  0.5965
10037SOL    HW231712   2.337   1.357   3.079 -1.6568 -0.1259  0.3787
10038SOL     OW31713   5.868   0.848   3.862 -0.0858 -0.1223 -0.0505
10038SOL    HW131714   5.777   0.889   3.874  0.3008  0.3131  1.5941
10038SOL    HW231715   5.878   0.817   3.767 -1.8799 -0.0256 -0.3099
10039SOL     OW31716   5.865   3.115   0.710  0.7233 -0.5676 -0.3063
10039SOL    HW131717   5.867   3.180   0.787  1.7229 -0.7521 -0.1573
10039SOL    HW231718   5.836   3.163   0.627  1.0874 -0.0108 -0.1206
10040SOL     OW31719   5.066   5.507   3.861 -0.1518 -0.2435 -0.2041
10040SOL    HW131720   5.094   5.602   3.845 -1.3131  0.3368  1.0105
10040SOL    HW231721   4.982   5.488   3.811 -0.7572 -0.1386  0.7547
10041SOL     OW31722   3.152   0.945   6.124  0.1471  0.2320  0.0501
10041SOL    HW131723   3.145   0.941   6.223  2.0429  1.1677  0.2676
10041SOL    HW231724   3.233   0.997   6.098  0.2878 -0.8880 -1.9940
10042SOL     OW31725   4.498   6.393   0.774 -0.1488  0.1602 -0.0840
10042SOL    HW131726   4.493   6.492   0.775 -0.7776  0.1352 -0.4530
10042SOL    HW231727   4.553   6.363   0.696 -2.8933  0.1297 -2.1481
10043SOL     OW31728   2.758   4.848   3.240  0.6129  0.2382 -0.0901
10043SOL    HW131729   2.837   4.871   3.296 -0.2592  0.0876  1.2347
10043SOL    HW231730   2.675   4.854   3.295 -0.3144  0.4484 -1.4721
10044SOL     OW31731   3.078   3.479   4.143 -0.0917  0.4669  0.2327
10044SOL    HW131732   3.175   3.462   4.159 -0.0066 -0.0012 -0.6941
10044SOL    HW231733   3.031   3.392   4.131 -0.6297  0.6944  0.6596
10045SOL     OW31734   6.668   0.283   0.498 -0.5874  0.6486  0.6594
10045SOL    HW131735   6.662   0.371   0.450  0.5118  0.2000 -0.3620
10045SOL    HW231736   6.591   0.226   0.473 -0.9484  1.0700  0.7976
10046SOL     OW31737   5.312   3.936   0.740 -0.2172 -0.1621 -0.0158
10046SOL    HW131738   5.408   3.923   0.766  0.1420  0.0949 -1.1672
10046SOL    HW231739   5.253   3.887   0.804  0.7355 -1.3119  0.0024
10047SOL     OW31740   0.779   5.750   2.915 -0.3364  0.4626 -0.2991
10047SOL    HW131741   0.773   5.829   2.854  1.2140 -0.1164 -1.2868
10047SOL    HW231742   0.811   5.779   3.005 -0.2668  1.0338 -0.5027
10048SOL     OW31743   5.673   1.537   2.015  0.7815 -0.3260 -0.6949
10048SOL    HW131744   5.726   1.453   2.006  2.5996  0.8459 -1.6394
10048SOL    HW231745   5.704   1.588   2.095 -0.4219 -0.6096 -0.0323
10049SOL     OW31746   3.453   1.144   0.743  0.0893 -0.0553  0.0587
10049SOL    HW131747   3.442   1.151   0.644  0.8504 -1.0968 -0.1147
10049SOL    HW231748   3.440   1.234   0.784  0.2104  0.4802 -1.0319
10050SOL     OW31749   4.491   4.625   1.898 -0.5323 -0.0596  0.0687
10050SOL    HW131750   4.435   4.630   1.981 -0.2705  1.8327  0.1708
10050SOL    HW231751   4.467   4.542   1.847 -0.4250 -1.5010  2.1944
10051SOL     OW31752   2.168   3.178   4.899  0.3081  0.7977 -0.1701
10051SOL    HW131753   2.114   3.237   4.840  1.3357  0.6098 -1.3383
10051SOL    HW231754   2.261   3.169   4.862  0.3526 -1.0698  0.2929
10052SOL     OW31755   2.889   5.905   3.203  0.5039  0.1472  0.0479
10052SOL    HW131756   2.815   5.865   3.256  0.5580 -0.6330 -0.4516
10052SOL    HW231757   2.976   5.863   3.229  0.6433  0.3669 -0.0550
10053SOL     OW31758   3.077   5.581   3.521  0.3077 -0.6025 -0.2988
10053SOL    HW131759   2.980   5.567   3.501  0.4250 -1.0787 -0.5434
10053SOL    HW231760   3.118   5.494   3.547  0.6056 -0.3450  0.0973
10054SOL     OW31761   0.502   2.747   0.519 -0.0354 -0.6352 -0.4803
10054SOL    HW131762   0.457   2.825   0.476 -0.9237 -1.6827 -1.5282
10054SOL    HW231763   0.596   2.741   0.486  0.1826  0.2325 -0.0482
10055SOL     OW31764   2.764   0.052   0.674  0.1004 -0.5811 -0.2474
10055SOL    HW131765   2.800  -0.003   0.598  1.9949 -1.6912  1.3603
10055SOL    HW231766   2.832   0.120   0.701 -1.3389  1.1052 -0.7531
10056SOL     OW31767   3.072   1.737   3.939  0.2562  0.2099  0.1664
10056SOL    HW131768   3.051   1.737   3.841 -1.2582 -2.0083  0.4092
10056SOL    HW231769   3.168   1.761   3.953  1.5765 -2.9936 -2.1943
10057SOL     OW31770   6.129   6.610   5.511  0.0714  0.1307 -0.3160
10057SOL    HW131771   6.140   6.524   5.560 -0.5024  0.3558  0.2123
10057SOL    HW231772   6.036   6.615   5.473  0.3232  0.2145 -0.9347
10058SOL     OW31773   1.957   5.496   0.918  0.0428 -0.1972  0.2812
10058SOL    HW131774   1.887   5.442   0.967  0.2785  0.4959  1.4257
10058SOL    HW231775   1.912   5.554   0.850 -0.6945  1.1775  1.8581
10059SOL     OW31776   6.938   4.171   1.029 -0.2646  0.0374 -0.4002
10059SOL    HW131777   6.892   4.082   1.027 -0.5691  0.0915  1.6509
10059SOL    HW231778   7.008   4.170   1.101  0.7690  0.9906 -1.3539
10060SOL     OW31779   1.477   6.797   4.117  0.1853  0.2353  0.0961
10060SOL    HW131780   1.434   6.868   4.060  1.0503  0.7074  0.0180
10060SOL    HW231781   1.538   6.742   4.061 -0.2623 -0.4006  0.2221
10061SOL     OW31782   1.664   5.290   4.283 -0.0306  0.2377 -0.0708
10061SOL    HW131783   1.616   5.204   4.301  0.6609 -0.3925 -1.0975
10061SOL    HW231784   1.602   5.354   4.237 -0.3579  0.0400  0.0941
10062SOL     OW31785   4.744   4.301   5.022 -0.0562  0.5346  0.2012
10062SOL    HW131786   4.815   4.250   5.070 -1.8451 -2.5420 -0.1872
10062SOL    HW231787   4.698   4.362   5.086  2.2824  1.9958  0.6271
10063SOL     OW31788   0.188   1.048   5.137  0.5674 -0.0547  0.0354
10063SOL    HW131789   0.143   1.068   5.224 -0.7347 -1.5650 -0.2453
10063SOL    HW231790   0.283   1.079   5.141  0.5695 -0.1816  2.0116
10064SOL     OW31791   2.897   6.890   1.013  0.1613 -0.0625 -0.5799
10064SOL    HW131792   2.911   6.989   1.016 -0.4910  0.0190  2.1647
10064SOL    HW231793   2.935   6.848   1.096 -0.7391 -1.9623 -1.0632
10065SOL     OW31794   3.838   6.844   4.587  0.2452 -0.0330  0.0189
10065SOL    HW131795   3.903   6.912   4.553  0.0158 -0.5435 -1.5006
10065SOL    HW231796   3.746   6.867   4.557  0.1576 -0.9708 -0.4734
10066SOL     OW31797   4.973   7.016   0.174 -0.4502 -0.1148  0.0400
10066SOL    HW131798   5.008   7.018   0.267  1.7347  0.6543 -0.7190
10066SOL    HW231799   4.884   6.972   0.172 -1.0393  0.8008  2.6261
10067SOL     OW31800   6.843   2.894   3.026 -0.4483  0.1670  0.0104
10067SOL    HW131801   6.925   2.918   3.078 -1.4852  1.0602  1.2809
10067SOL    HW231802   6.858   2.914   2.929  0.2152  2.0159  0.4641
10068SOL     OW31803   0.536   0.328   3.334 -0.6381 -0.0035  0.0140
10068SOL    HW131804   0.586   0.383   3.267 -1.8108 -0.0443 -0.9354
10068SOL    HW231805   0.444   0.367   3.347 -0.6955 -0.4486  1.0281
10069SOL     OW31806   1.714   2.226   1.316  0.0352 -0.2017  0.4091
10069SOL    HW131807   1.810   2.223   1.285 -0.8778 -0.1410 -2.8162
10069SOL    HW231808   1.702   2.301   1.381  2.0670  0.1211  0.4748
10070SOL     OW31809   6.977   1.099   4.989  0.2354 -0.4767  0.5286
10070SOL    HW131810   6.899   1.056   5.035 -0.2608  0.0997  0.2343
10070SOL    HW231811   7.059   1.086   5.044 -0.1707 -0.6270  1.1073
10071SOL     OW31812   3.435   2.266   2.137  0.0601 -0.3352  0.2552
10071SOL    HW131813   3.399   2.232   2.050  2.5294  0.0127 -0.9931
10071SOL    HW231814   3.520   2.218   2.159  0.6414  1.1174  1.3429
10072SOL     OW31815   0.575   5.317   3.969 -0.3318 -0.3591  0.3592
10072SOL    HW131816   0.643   5.373   3.922 -0.6739  0.3802  0.7354
10072SOL    HW231817   0.556   5.235   3.914  0.3295 -0.2220 -0.0872
10073SOL     OW31818   4.296   6.505   1.889  0.0737  0.2517 -0.3103
10073SOL    HW131819   4.281   6.604   1.889  0.0897  0.3077  1.8290
10073SOL    HW231820   4.380   6.484   1.939 -0.9788 -0.9342  1.0619
10074SOL     OW31821   6.083   2.788   1.282 -0.1757  0.4060  0.0079
10074SOL    HW131822   6.061   2.789   1.380 -3.5272  2.5160 -0.6130
10074SOL    HW231823   6.070   2.695   1.246 -0.2274 -0.1007  1.2755
10075SOL     OW31824   5.133   1.525   5.388 -0.1207 -0.3324  0.7430
10075SOL    HW131825   5.191   1.452   5.425  0.6382 -0.2142 -0.1718
10075SOL    HW231826   5.088   1.493   5.304  1.7348  0.8183 -0.7690
10076SOL     OW31827   4.775   3.357   5.337 -0.1885 -0.0159 -0.0467
10076SOL    HW131828   4.711   3.281   5.341 -0.6685  0.3988  0.3568
10076SOL    HW231829   4.766   3.403   5.249 -0.3030 -0.0845 -0.0712
10077SOL     OW31830   5.709   4.819   5.946 -0.3875 -0.2966 -0.3334
10077SOL    HW131831   5.629   4.760   5.931  0.0175 -0.7744 -0.6880
10077SOL    HW231832   5.724   4.831   6.044 -2.1225  1.5149 -0.2386
10078SOL     OW31833   2.543   6.843   4.797  0.1632  0.3874 -0.8726
10078SOL    HW131834   2.628   6.873   4.753  0.0322  0.5431 -1.0236
10078SOL    HW231835   2.558   6.834   4.895  0.3839  0.3071 -0.9132
10079SOL     OW31836   2.239   6.227   6.837 -0.2225  0.3856  0.3374
10079SOL    HW131837   2.140   6.217   6.850 -0.2174 -2.7335 -1.1905
10079SOL    HW231838   2.284   6.224   6.926 -1.4567  1.6449  1.0395
10080SOL     OW31839   1.221   6.882   1.312  0.6256  0.1678 -0.2753
10080SOL    HW131840   1.162   6.935   1.251 -1.3151 -1.4363  0.1110
10080SOL    HW231841   1.283   6.826   1.257  2.7313  2.6764 -0.6950
10081SOL     OW31842   5.127   0.032   1.213  0.4605 -0.1149 -0.1420
10081SOL    HW131843   5.174  -0.056   1.211  0.7723  0.0529 -0.2558
10081SOL    HW231844   5.063   0.037   1.137 -1.4270 -1.2533  1.2657
10082SOL     OW31845   6.024   3.008   6.588 -0.1489 -0.0229 -0.2993
10082SOL    HW131846   6.085   2.960   6.651  0.0059 -1.2459 -1.3323
10082SOL    HW231847   6.077   3.046   6.513 -0.2157  2.2255  0.7364
10083SOL     OW31848   2.916   0.725   2.798  0.6591  0.3298 -0.1987
10083SOL    HW131849   2.870   0.647   2.841  1.2097  0.6885  1.1004
10083SOL    HW231850   2.907   0.718   2.699  0.7421 -1.4241 -0.1262
10084SOL     OW31851   0.051   0.497   4.724 -0.2014 -0.7085  0.1534
10084SOL    HW131852   0.010   0.435   4.658 -0.6463 -0.8090  0.5191
10084SOL    HW231853   0.149   0.506   4.705 -0.2139 -1.1907 -0.1619
10085SOL     OW31854   6.660   2.219   2.266 -0.0542 -0.1051  0.5607
10085SOL    HW131855   6.561   2.222   2.282 -0.1044  1.1682  0.1319
10085SOL    HW231856   6.692   2.125   2.274 -1.0177 -0.3151  2.3129
10086SOL     OW31857   6.598   2.626   3.679  0.1735 -0.1559 -0.6392
10086SOL    HW131858   6.671   2.575   3.633 -0.1763 -1.8292  0.5354
10086SOL    HW231859   6.638   2.698   3.735  0.7897  0.1112 -1.4098
10087SOL     OW31860   0.333   4.942   3.002  0.5823  0.7492 -0.1342
10087SOL    HW131861   0.344   4.846   2.977 -0.1300  0.0882  1.8782
10087SOL    HW231862   0.311   4.949   3.100  2.5981  3.0729  0.2607
10088SOL     OW31863   2.654   4.791   5.711  0.3482 -0.6785  0.4053
10088SOL    HW131864   2.615   4.819   5.798  0.8454 -0.7479  0.6505
10088SOL    HW231865   2.679   4.695   5.714 -0.9610 -1.0614 -0.2970
10089SOL     OW31866   5.189   4.748   0.893 -0.0155  0.4255  0.4099
10089SOL    HW131867   5.142   4.829   0.927  0.4517 -0.1816  2.6669
10089SOL    HW231868   5.280   4.742   0.934  0.1496 -0.9945 -0.0908
10090SOL     OW31869   3.948   0.161   0.550 -0.3782 -0.3998 -1.0494
10090SOL    HW131870   3.882   0.225   0.590  0.8035 -0.8515  1.8443
10090SOL    HW231871   4.037   0.205   0.545 -0.5478 -0.1664 -3.9315
10091SOL     OW31872   4.968   6.360   2.814 -0.1326  0.5695 -0.5473
10091SOL    HW131873   5.025   6.332   2.892 -0.1222  0.4601 -0.5944
10091SOL    HW231874   4.990   6.304   2.734 -0.8951 -0.0563 -0.3376
10092SOL     OW31875   0.452   5.238   0.531 -0.2773  0.1449  1.2107
10092SOL    HW131876   0.430   5.215   0.625 -0.6177 -0.3985  1.0002
10092SOL    HW231877   0.381   5.299   0.494 -0.4688 -0.1357  1.1129
10093SOL     OW31878   3.198   5.688   1.700  0.1697 -0.6283  0.4665
10093SOL    HW131879   3.262   5.707   1.625  1.3251  2.6857  2.0929
10093SOL    HW231880   3.247   5.688   1.787 -1.3545 -3.1105  1.4251
10094SOL     OW31881   2.612   2.751   2.386  0.1367  0.0430  0.1868
10094SOL    HW131882   2.574   2.820   2.324  0.8079  0.2584  0.0104
10094SOL    HW231883   2.703   2.724   2.355  0.5496  0.2773  1.1724
10095SOL     OW31884   1.909   1.428   4.101  0.3598  0.3479  0.1344
10095SOL    HW131885   1.868   1.508   4.145  0.9524  0.1294  1.1310
10095SOL    HW231886   1.889   1.429   4.004  1.5407  2.5069 -0.1537
10096SOL     OW31887   5.509   3.460   5.180 -1.3603  0.3432 -0.2485
10096SOL    HW131888   5.570   3.383   5.162 -2.0655 -0.2046 -0.3338
10096SOL    HW231889   5.526   3.494   5.273  0.2020  1.2588 -0.8255
10097SOL     OW31890   0.359   0.275   4.185  0.1914  0.0230 -0.3846
10097SOL    HW131891   0.269   0.313   4.206  1.1585  2.4964 -0.3863
10097SOL    HW231892   0.394   0.314   4.100  0.6884 -2.0392 -1.1968
10098SOL     OW31893   0.171   0.410   5.092 -0.2518 -0.1526 -0.3740
10098SOL    HW131894   0.094   0.452   5.043 -1.8821 -0.2554  1.9533
10098SOL    HW231895   0.237   0.480   5.118 -1.7825  0.6848  1.4228
10099SOL     OW31896   0.709   3.914   3.774 -0.2395 -0.2998  0.0053
10099SOL    HW131897   0.777   3.895   3.845 -0.1202 -0.8244 -0.2478
10099SOL    HW231898   0.717   3.847   3.701 -2.6049 -1.8478  1.0641
10100SOL     OW31899   5.352   3.805   0.216  0.4882  0.6298 -0.2522
10100SOL    HW131900   5.273   3.804   0.277  1.2548  3.7311  0.9664
10100SOL    HW231901   5.436   3.803   0.269  1.2055  0.5203 -1.3538
10101SOL     OW31902   6.776   6.302   1.307 -0.1401  0.1187 -0.5977
10101SOL    HW131903   6.801   6.337   1.217  0.5019  2.0196  0.2565
10101SOL    HW231904   6.859   6.286   1.360 -0.5487  0.9482  0.3164
10102SOL     OW31905   2.818   2.039   4.427 -0.8432  0.1311  0.0877
10102SOL    HW131906   2.748   1.977   4.391 -0.7332  1.1413 -2.0248
10102SOL    HW231907   2.819   2.124   4.373  0.2677  1.2243  1.7113
10103SOL     OW31908   4.461   5.767   1.233 -0.3370 -0.4083 -0.9337
10103SOL    HW131909   4.533   5.800   1.294  0.2019 -0.1279 -1.7195
10103SOL    HW231910   4.403   5.702   1.283  0.1604 -0.2735 -0.1590
10104SOL     OW31911   4.027   0.976   4.626 -0.1917 -0.3504 -0.3055
10104SOL    HW131912   4.093   0.909   4.593  0.7561 -0.1485  1.0982
10104SOL    HW231913   4.012   1.046   4.556  0.1352 -1.0624 -1.1037
10105SOL     OW31914   1.227   1.722   0.408  0.9514  0.1023 -0.2412
10105SOL    HW131915   1.248   1.693   0.501  0.0242 -1.1875 -0.4049
10105SOL    HW231916   1.191   1.645   0.356 -1.5532  1.5221 -0.7582
10106SOL     OW31917   5.147   1.476   0.747  0.7350  0.5262 -0.0795
10106SOL    HW131918   5.206   1.429   0.812 -0.3042  1.2091  1.4174
10106SOL    HW231919   5.152   1.575   0.763  1.3150  0.8102 -1.8087
10107SOL     OW31920   0.726   6.719   0.077 -0.7974 -0.1483  0.2821
10107SOL    HW131921   0.640   6.768   0.061  0.0916  1.1056 -1.0084
10107SOL    HW231922   0.764   6.746   0.165 -0.4281  1.4269 -0.3166
10108SOL     OW31923   5.501   4.656   5.135 -0.1950  0.3538 -0.3047
10108SOL    HW131924   5.543   4.681   5.048  2.5518  0.1346  0.8677
10108SOL    HW231925   5.485   4.739   5.189 -0.5800  0.3669 -0.4331
10109SOL     OW31926   4.990   6.526   2.062  0.2399 -0.1243  0.2515
10109SOL    HW131927   4.895   6.495   2.050  0.1892 -0.4470  1.3844
10109SOL    HW231928   5.017   6.581   1.983 -0.2039 -1.7284 -1.0844
10110SOL     OW31929   1.215   1.103   1.422  0.3273 -0.0001 -0.1383
10110SOL    HW131930   1.268   1.047   1.359  1.6658 -0.5675  1.4262
10110SOL    HW231931   1.276   1.162   1.475 -0.5052 -0.8426  1.8816
10111SOL     OW31932   2.685   0.769   6.578  0.2905  0.9601  0.4359
10111SOL    HW131933   2.703   0.754   6.481  0.3891  2.2519  0.2345
10111SOL    HW231934   2.770   0.796   6.624  1.1012 -3.1358  1.6831
10112SOL     OW31935   1.591   2.172   3.132  0.1857  0.0162 -0.6708
10112SOL    HW131936   1.558   2.189   3.039  1.0070  0.8974 -0.8167
10112SOL    HW231937   1.602   2.073   3.146 -0.3032 -0.1446 -1.3818
10113SOL     OW31938   3.217   4.253   0.085  0.2782 -0.0386 -0.9758
10113SOL    HW131939   3.150   4.185   0.056  1.1924 -1.2419 -0.3505
10113SOL    HW231940   3.252   4.303   0.005 -1.0920  0.3769 -1.3343
10114SOL     OW31941   4.036   5.817   2.889  0.0132 -0.6034 -0.0107
10114SOL    HW131942   4.025   5.733   2.942  2.8993 -2.7996 -2.5624
10114SOL    HW231943   4.024   5.896   2.950  0.0585 -2.8589  3.1743
10115SOL     OW31944   3.993   5.522   0.935 -0.0916 -0.3726  0.4328
10115SOL    HW131945   4.022   5.434   0.973 -2.5528 -0.6217  1.9888
10115SOL    HW231946   3.913   5.556   0.986 -1.1728  1.2436 -2.1021
10116SOL     OW31947   6.073   4.305   4.935  0.1444  0.8781  0.1509
10116SOL    HW131948   6.007   4.250   4.884 -0.4274  0.5717  1.1846
10116SOL    HW231949   6.163   4.262   4.929  0.3346  1.4508 -1.4951
10117SOL     OW31950   5.598   5.985   5.824 -0.0825 -0.4709 -0.2969
10117SOL    HW131951   5.571   5.936   5.742  0.3470 -0.7578 -0.2658
10117SOL    HW231952   5.596   5.923   5.903  0.6768 -0.4959 -0.2948
10118SOL     OW31953   1.268   1.422   6.833  0.6068 -0.1186  0.2184
10118SOL    HW131954   1.206   1.498   6.854  0.4995 -0.4240  1.0829
10118SOL    HW231955   1.218   1.336   6.838  0.6741 -0.2433 -0.9876
10119SOL     OW31956   5.070   1.511   0.484  0.4112  0.0661 -0.1971
10119SOL    HW131957   5.104   1.507   0.578  0.4733 -1.6080 -0.2508
10119SOL    HW231958   4.977   1.474   0.481 -0.1397  1.4316 -0.5882
10120SOL     OW31959   4.074   1.601   6.773 -0.6001 -0.2209  0.2562
10120SOL    HW131960   4.028   1.522   6.813  2.0664 -1.0962  1.9358
10120SOL    HW231961   4.072   1.595   6.673 -2.0007 -1.4165  0.3338
10121SOL     OW31962   5.616   3.778   0.326 -0.1524  0.0478  0.2368
10121SOL    HW131963   5.654   3.790   0.234  1.0873  0.5288  0.7804
10121SOL    HW231964   5.686   3.801   0.394 -0.5836 -1.6525  1.3219
10122SOL     OW31965   5.382   4.080   0.131 -0.1663  0.2699  0.2686
10122SOL    HW131966   5.391   4.143   0.209 -1.2144  0.5689  0.1604
10122SOL    HW231967   5.372   3.987   0.165 -3.0929  0.6326  0.6557
10123SOL     OW31968   4.379   6.818   1.862  0.1846 -0.1645 -0.0406
10123SOL    HW131969   4.382   6.914   1.887 -0.7106 -0.1694  0.1237
10123SOL    HW231970   4.469   6.777   1.874  1.0369  1.0790 -1.9057
10124SOL     OW31971   2.844   5.642   1.257 -0.1576 -0.0152 -0.2105
10124SOL    HW131972   2.817   5.580   1.183  0.6134  0.0171 -0.5242
10124SOL    HW231973   2.896   5.591   1.325  0.6385  0.3085 -0.5589
10125SOL     OW31974   6.577   5.127   6.082 -0.0505 -0.0443 -0.4762
10125SOL    HW131975   6.619   5.076   6.008 -0.3787 -1.0016 -0.0170
10125SOL    HW231976   6.639   5.200   6.112  1.2664 -1.3693  0.1401
10126SOL     OW31977   5.478   6.325   3.231  0.6405 -0.0996  0.5887
10126SOL    HW131978   5.397   6.381   3.245  0.2255 -0.7276  0.6966
10126SOL    HW231979   5.504   6.328   3.134  0.5287  0.1428  0.5652
10127SOL     OW31980   2.366   5.794   6.620  0.0576 -0.5249 -0.2671
10127SOL    HW131981   2.268   5.777   6.615  0.2392 -1.7135 -0.1561
10127SOL    HW231982   2.385   5.891   6.603 -1.0603 -0.4533 -1.1711
10128SOL     OW31983   5.392   5.674   3.077 -0.2947 -0.0233  0.1917
10128SOL    HW131984   5.342   5.605   3.026  0.6168  0.6501 -1.7010
10128SOL    HW231985   5.432   5.740   3.014 -0.9949  2.1730  1.9057
10129SOL     OW31986   1.668   2.430   2.216  0.7563  0.2477  0.1670
10129SOL    HW131987   1.755   2.388   2.191  1.2538  1.7067 -0.7084
10129SOL    HW231988   1.642   2.497   2.146 -1.1702 -0.2642  0.3250
10130SOL     OW31989   5.237   6.354   4.274  0.1409  0.1927  0.4590
10130SOL    HW131990   5.240   6.316   4.367 -0.1119 -0.1285  0.3398
10130SOL    HW231991   5.322   6.404   4.255 -0.3768  1.4461  1.3548
10131SOL     OW31992   2.908   6.189   3.219  0.5426 -0.2995  0.3054
10131SOL    HW131993   2.920   6.091   3.203  2.4782 -0.1169  0.4156
10131SOL    HW231994   2.887   6.235   3.133  3.7747 -0.3035 -0.6264
10132SOL     OW31995   5.504   2.868   5.244  0.3805 -0.4626 -0.0128
10132SOL    HW131996   5.600   2.896   5.235  0.0516  0.5438 -0.5906
10132SOL    HW231997   5.497   2.770   5.226  1.1654 -0.3478 -1.0954
10133SOL     OW31998   6.784   4.374   1.114 -0.3678 -0.2489 -0.1041
10133SOL    HW131999   6.802   4.353   1.211  0.1313  0.5307 -0.0228
10133SOL    HW232000   6.839   4.314   1.057  1.2453  0.9433  0.1310
10134SOL     OW32001   5.200   1.198   0.575 -0.1480 -0.3328  0.0221
10134SOL    HW132002   5.104   1.201   0.545  0.2580 -0.6227 -1.3851
10134SOL    HW232003   5.247   1.281   0.544  0.0274 -0.1314  0.8242
10135SOL     OW32004   5.894   7.000   4.635  0.1732  0.0297 -0.4482
10135SOL    HW132005   5.931   7.071   4.576 -0.8626  0.1691 -0.9618
10135SOL    HW232006   5.943   6.914   4.619  1.2184  0.5452 -0.0473
10136SOL     OW32007   4.131   0.151   5.794 -0.3553  0.2762  0.4080
10136SOL    HW132008   4.175   0.240   5.805  0.9963 -0.5683  2.4659
10136SOL    HW232009   4.055   0.159   5.730  0.1027  2.7600  0.0783
10137SOL     OW32010   2.661   6.861   3.215  0.0246 -0.2552  0.0503
10137SOL    HW132011   2.671   6.764   3.237  0.8017 -0.5025 -1.3020
10137SOL    HW232012   2.583   6.899   3.265 -0.4221 -1.6235  0.4155
10138SOL     OW32013   1.914   0.887   2.012 -0.9158 -0.0764  0.1800
10138SOL    HW132014   1.984   0.830   1.969 -0.9816 -0.1530  0.1748
10138SOL    HW232015   1.826   0.871   1.968 -0.9807 -0.1424  0.3327
10139SOL     OW32016   3.466   2.562   6.451  0.0951  0.1567 -0.1387
10139SOL    HW132017   3.390   2.500   6.430 -0.1651  0.6899 -0.8144
10139SOL    HW232018   3.546   2.537   6.397  0.8614 -1.2444  1.5479
10140SOL     OW32019   0.454   5.674   4.100  1.0543  0.1437  0.4697
10140SOL    HW132020   0.409   5.585   4.111  1.6906 -0.3722 -0.7893
10140SOL    HW232021   0.385   5.744   4.084  0.5320 -0.0865  1.6740
10141SOL     OW32022   0.751   2.297   2.372 -0.1609 -0.0006 -0.5020
10141SOL    HW132023   0.721   2.373   2.315  0.0962 -0.1757 -0.8827
10141SOL    HW232024   0.826   2.327   2.431  2.5646 -0.7590 -3.2358
10142SOL     OW32025   4.286   5.360   6.633  0.1099 -0.2210 -0.4837
10142SOL    HW132026   4.319   5.269   6.658 -1.2113 -0.7697 -0.6644
10142SOL    HW232027   4.225   5.394   6.704  1.4232  1.0139  0.1070
10143SOL     OW32028   6.249   4.806   3.674  0.2315 -0.0339  0.2962
10143SOL    HW132029   6.249   4.837   3.770  0.3132  1.1187 -0.0572
10143SOL    HW232030   6.294   4.875   3.617 -0.1090 -0.5557 -0.6213
10144SOL     OW32031   4.336   6.106   1.673  0.4526  0.0126 -0.4840
10144SOL    HW132032   4.345   6.070   1.580 -1.2632 -0.6262 -0.4509
10144SOL    HW232033   4.256   6.064   1.716 -0.9208  2.9312  0.0305
10145SOL     OW32034   0.575   1.867   5.531 -0.2847 -0.0997 -0.0604
10145SOL    HW132035   0.532   1.953   5.560 -0.8841 -1.1254  2.2719
10145SOL    HW232036   0.619   1.823   5.609  0.9671 -1.4208 -1.4359
10146SOL     OW32037   0.234   4.306   1.536  0.0743  0.3040 -0.2450
10146SOL    HW132038   0.235   4.401   1.504  0.8061  0.2664 -0.3424
10146SOL    HW232039   0.312   4.291   1.597 -1.5232  0.5133  2.0046
10147SOL     OW32040   2.421   6.931   6.902  0.1243 -0.4174 -0.1797
10147SOL    HW132041   2.326   6.897   6.898  0.4334 -1.4430  0.5450
10147SOL    HW232042   2.448   6.942   6.998  1.0765 -1.1869 -0.3365
10148SOL     OW32043   6.801   3.683   4.060 -0.0440 -0.1896  0.1289
10148SOL    HW132044   6.846   3.768   4.088  2.8710 -1.1543 -1.2582
10148SOL    HW232045   6.838   3.606   4.113 -0.7018 -0.9536 -0.4904
10149SOL     OW32046   5.038   0.179   4.657  0.8500 -0.2080  0.4436
10149SOL    HW132047   5.028   0.083   4.682 -0.1917  0.4205  2.7248
10149SOL    HW232048   5.074   0.230   4.736  0.7245  1.3739 -0.4857
10150SOL     OW32049   0.673   6.216   6.570  0.4238 -0.0743  0.0430
10150SOL    HW132050   0.602   6.145   6.568  2.8601 -2.7615  1.1371
10150SOL    HW232051   0.697   6.242   6.477 -0.3858 -0.8624 -0.4034
10151SOL     OW32052   1.705   2.922   4.527 -0.3017 -0.3266 -0.3394
10151SOL    HW132053   1.770   2.925   4.603  0.2093 -0.1324 -0.7785
10151SOL    HW232054   1.694   2.827   4.497  0.0294 -0.3262 -0.4711
10152SOL     OW32055   5.708   5.160   4.374 -0.1714  0.2401  0.7438
10152SOL    HW132056   5.673   5.070   4.348 -1.9202  1.2441 -0.5461
10152SOL    HW232057   5.676   5.182   4.466  0.7177 -0.6509  1.2891
10153SOL     OW32058   1.647   6.888   1.615 -0.4836 -0.0067  0.4956
10153SOL    HW132059   1.683   6.952   1.683 -0.3894 -1.7205  2.1262
10153SOL    HW232060   1.570   6.930   1.567 -0.6736  1.1863  1.7913
10154SOL     OW32061   4.133   5.423   4.388 -0.0173  0.0647  0.3228
10154SOL    HW132062   4.221   5.459   4.358 -0.5786  0.4038 -0.9446
10154SOL    HW232063   4.077   5.498   4.423  0.2892 -0.1966  1.4254
10155SOL     OW32064   0.395   5.210   6.061  0.1806 -0.1942 -0.3923
10155SOL    HW132065   0.463   5.266   6.108 -0.4870  0.9056 -0.7072
10155SOL    HW232066   0.359   5.259   5.982  1.1301 -1.9321 -1.9960
10156SOL     OW32067   1.733   4.367   2.668  0.0492 -0.7023  0.4824
10156SOL    HW132068   1.666   4.431   2.630  0.1187 -0.6250  0.4887
10156SOL    HW232069   1.752   4.295   2.601 -0.9051 -1.3820  0.9200
10157SOL     OW32070   2.926   1.326   6.974 -0.5200  0.0393 -0.6085
10157SOL    HW132071   2.986   1.280   6.909  0.9645  1.3109 -0.2298
10157SOL    HW232072   2.842   1.275   6.985  0.0109 -1.2128 -2.0582
10158SOL     OW32073   3.007   5.793   0.802  0.0492  0.6642  0.0714
10158SOL    HW132074   3.031   5.868   0.740 -1.1481  1.5092  0.6069
10158SOL    HW232075   3.076   5.786   0.874  0.7582  0.5062 -0.5998
10159SOL     OW32076   1.025   6.194   4.924  0.1034  0.4728  0.2308
10159SOL    HW132077   0.968   6.134   4.980 -0.7859 -1.0987 -2.2039
10159SOL    HW232078   1.096   6.235   4.982  0.0459 -1.9930  2.2733
10160SOL     OW32079   3.043   5.323   4.437 -0.2308  0.8515 -0.5424
10160SOL    HW132080   3.082   5.282   4.520 -1.3063  0.5234 -0.1753
10160SOL    HW232081   3.075   5.417   4.428 -0.0780  0.8851  0.2488
10161SOL     OW32082   5.095   6.621   4.787 -0.4172 -0.0702 -0.2191
10161SOL    HW132083   5.152   6.693   4.826  0.1335 -0.5449 -0.1314
10161SOL    HW232084   5.143   6.580   4.710 -1.6761  1.1671 -1.7335
10162SOL     OW32085   4.074   2.268   5.312 -0.3455  0.3157  0.1029
10162SOL    HW132086   4.143   2.227   5.371 -0.2697  0.9319  0.4454
10162SOL    HW232087   4.077   2.367   5.321 -0.1618  0.4393 -1.1152
10163SOL     OW32088   2.476   5.599   4.477 -0.7849 -0.1314 -0.0310
10163SOL    HW132089   2.538   5.528   4.443 -0.6014  0.4432 -0.9200
10163SOL    HW232090   2.508   5.689   4.446 -1.4342  0.2710  0.4545
10164SOL     OW32091   6.799   2.251   6.125  0.2114  0.1354  0.1954
10164SOL    HW132092   6.757   2.211   6.206 -1.2974  2.4941  0.7060
10164SOL    HW232093   6.753   2.217   6.043 -1.1675  0.9035  0.6234
10165SOL     OW32094   3.628   2.180   5.139 -0.2086 -0.3832  0.1844
10165SOL    HW132095   3.581   2.158   5.224 -0.3876  0.2515  0.2602
10165SOL    HW232096   3.604   2.113   5.068  1.2392 -1.8975  1.0659
10166SOL     OW32097   1.914   3.833   3.386 -0.4320 -0.1716 -0.1345
10166SOL    HW132098   1.935   3.855   3.290 -0.1075  1.1288  0.2077
10166SOL    HW232099   1.855   3.904   3.424  0.4259 -0.0159  0.9643
10167SOL     OW32100   0.520   3.476   0.715  0.1255 -0.7042 -0.2759
10167SOL    HW132101   0.459   3.511   0.786 -1.7905  2.1105 -3.0357
10167SOL    HW232102   0.570   3.552   0.674  1.2339 -2.2241 -1.8528
10168SOL     OW32103   4.913   5.127   0.055 -0.0810 -0.2926 -0.0727
10168SOL    HW132104   4.903   5.172   0.144  1.7651  0.0095  0.0251
10168SOL    HW232105   4.838   5.154  -0.005 -0.5265  0.6957  0.8957
10169SOL     OW32106   0.162   1.546   1.920  0.1000 -0.0940 -0.3881
10169SOL    HW132107   0.230   1.474   1.906 -0.7857 -1.3340  1.3109
10169SOL    HW232108   0.120   1.568   1.832  0.7727 -1.2756 -1.0407
10170SOL     OW32109   2.335   5.307   1.598  0.1976 -0.0796  0.3535
10170SOL    HW132110   2.324   5.223   1.652 -1.2454 -0.6696 -0.7909
10170SOL    HW232111   2.333   5.284   1.501 -4.1648  1.5424 -0.1694
10171SOL     OW32112   1.173   0.643   5.683  0.5859  0.5187  0.1650
10171SOL    HW132113   1.089   0.689   5.654  1.4136  1.0428 -1.5277
10171SOL    HW232114   1.182   0.648   5.783 -1.8341 -0.3574  0.5004
10172SOL     OW32115   0.179   0.931   3.861 -0.1339  0.5460  0.0995
10172SOL    HW132116   0.273   0.948   3.888 -0.1708  0.5415  0.2309
10172SOL    HW232117   0.122   1.008   3.889  0.0397  1.1098 -1.0554
10173SOL     OW32118   6.437   2.051   3.090 -0.4560  0.0326  0.6405
10173SOL    HW132119   6.376   2.074   3.166 -2.0516 -1.1149 -0.2257
10173SOL    HW232120   6.500   1.978   3.118 -1.5122 -0.8838  0.6771
10174SOL     OW32121   4.731   2.920   2.035 -0.5291  0.7604 -0.4390
10174SOL    HW132122   4.815   2.909   2.088 -1.8798  1.7104  2.0574
10174SOL    HW232123   4.652   2.925   2.097 -2.8292 -2.6997 -2.7260
10175SOL     OW32124   2.391   5.669   2.164  0.4855 -0.5359 -0.4643
10175SOL    HW132125   2.380   5.655   2.263 -0.4237  1.1777 -0.2877
10175SOL    HW232126   2.487   5.656   2.139  0.5427 -2.0982  0.4302
10176SOL     OW32127   4.498   6.607   2.899 -0.0773 -0.6068  0.3682
10176SOL    HW132128   4.410   6.560   2.896 -0.1413 -0.4407 -0.7977
10176SOL    HW232129   4.568   6.549   2.858  0.3993 -0.7846  1.3952
10177SOL     OW32130   4.310   5.977   5.811 -0.0815 -0.1486  0.0109
10177SOL    HW132131   4.280   6.066   5.847  2.3477  0.8001 -0.1218
10177SOL    HW232132   4.410   5.971   5.815  0.0829 -1.5373 -3.0335
10178SOL     OW32133   5.263   2.935   0.270  0.2292  0.5399  0.0283
10178SOL    HW132134   5.263   2.872   0.193 -0.2948 -1.2154  1.4188
10178SOL    HW232135   5.283   3.028   0.236 -0.0736 -0.1385 -2.2050
10179SOL     OW32136   5.964   1.205   6.946  0.2735  0.0808 -0.3984
10179SOL    HW132137   6.001   1.197   7.039  0.0787 -0.7027 -0.3795
10179SOL    HW232138   6.003   1.133   6.889 -0.3095 -0.0145 -0.6828
10180SOL     OW32139   3.318   3.787   2.953  0.2525  0.0694  0.1799
10180SOL    HW132140   3.227   3.829   2.963  0.2607  0.3122 -0.7113
10180SOL    HW232141   3.360   3.818   2.868  0.3767 -1.5377 -0.3831
10181SOL     OW32142   6.128   4.380   5.968  0.2819  0.6103 -0.0315
10181SOL    HW132143   6.103   4.307   5.905  1.2846  0.9267 -0.8231
10181SOL    HW232144   6.165   4.458   5.917 -1.8873  2.2074  0.6879
10182SOL     OW32145   1.087   4.008   0.563  0.2167 -0.4525 -0.3149
10182SOL    HW132146   1.096   4.057   0.476 -0.9795 -0.6067 -0.5348
10182SOL    HW232147   1.170   4.022   0.617  0.9695 -0.3287 -1.4599
10183SOL     OW32148   0.347   0.293   1.290  0.2694  0.6844 -0.2052
10183SOL    HW132149   0.424   0.293   1.226 -1.5784  1.3952 -2.5765
10183SOL    HW232150   0.369   0.351   1.368  1.1594  3.2457 -2.2023
10184SOL     OW32151   6.796   6.593   6.664  0.8152  0.2079  0.0837
10184SOL    HW132152   6.807   6.496   6.690 -0.7692  0.3771  1.5570
10184SOL    HW232153   6.807   6.602   6.565  4.4595 -0.9153  0.2289
10185SOL     OW32154   1.846   4.153   1.501 -0.6906 -0.7625 -0.1929
10185SOL    HW132155   1.765   4.212   1.499 -1.3759 -1.5572  1.7595
10185SOL    HW232156   1.820   4.060   1.477  0.0635 -0.6234 -1.6020
10186SOL     OW32157   4.563   4.309   6.129  0.1775 -0.2066 -0.0716
10186SOL    HW132158   4.468   4.340   6.129  0.1354 -0.3362 -0.7188
10186SOL    HW232159   4.622   4.385   6.157  0.2461  1.0498 -3.2440
10187SOL     OW32160   3.612   6.044   2.466 -0.1935  0.2739 -0.3586
10187SOL    HW132161   3.572   5.954   2.484  0.2223  0.0491 -0.5512
10187SOL    HW232162   3.690   6.059   2.527 -1.7648  1.5583  1.4640
10188SOL     OW32163   5.284   3.665   6.064  1.0544 -0.3890  0.2751
10188SOL    HW132164   5.353   3.722   6.108 -0.2034  1.9290 -0.5914
10188SOL    HW232165   5.194   3.686   6.102  0.3430 -0.5021 -1.2826
10189SOL     OW32166   3.267   6.525   4.833 -0.2423  0.1093 -0.0009
10189SOL    HW132167   3.239   6.448   4.776 -1.7196  0.2715  0.4694
10189SOL    HW232168   3.243   6.611   4.788 -2.1571  0.2325  1.1715
10190SOL     OW32169   6.355   0.763   2.969  0.3656 -0.0373 -0.0984
10190SOL    HW132170   6.382   0.730   3.059  4.8062 -1.2440 -1.6098
10190SOL    HW232171   6.290   0.699   2.928 -0.4156 -0.3539  1.5653
10191SOL     OW32172   3.075   4.621   2.658 -0.3643 -0.3914 -0.7357
10191SOL    HW132173   2.986   4.642   2.699 -0.8029 -1.1200 -1.2901
10191SOL    HW232174   3.097   4.690   2.589 -0.3089  0.0202 -0.3086
10192SOL     OW32175   1.156   2.702   4.274  0.6462  0.0824 -0.0818
10192SOL    HW132176   1.247   2.669   4.248  0.0053 -1.1110 -0.9203
10192SOL    HW232177   1.119   2.644   4.346 -0.1249 -0.5260 -0.9393
10193SOL     OW32178   5.099   2.376   4.322 -0.7412 -0.2238  0.1219
10193SOL    HW132179   5.130   2.413   4.234 -1.0060  0.4336  0.2962
10193SOL    HW232180   5.137   2.431   4.397 -1.6389  0.0982  0.3615
10194SOL     OW32181   5.488   2.929   4.005 -0.2210 -0.3107 -0.1207
10194SOL    HW132182   5.413   2.901   3.946 -1.2246 -2.3977  1.9878
10194SOL    HW232183   5.459   2.926   4.101  2.3658 -0.6228  0.7405
10195SOL     OW32184   0.712   0.112   0.225  0.0978  0.5350 -0.7902
10195SOL    HW132185   0.710   0.083   0.129  0.6897 -0.1358 -0.6050
10195SOL    HW232186   0.646   0.059   0.278 -1.1466  1.7731 -1.0460
10196SOL     OW32187   6.394   1.589   3.871  0.0941 -0.3891 -0.2206
10196SOL    HW132188   6.415   1.676   3.917 -0.5794  0.5681 -1.6498
10196SOL    HW232189   6.473   1.561   3.816 -0.5347  0.6503 -1.7176
10197SOL     OW32190   0.220   4.183   0.202 -0.4100 -0.7752  0.5707
10197SOL    HW132191   0.187   4.124   0.276 -0.5820 -0.4466  0.7596
10197SOL    HW232192   0.156   4.258   0.189  0.6549  0.3357  1.4964
10198SOL     OW32193   6.005   1.635   1.305  0.1025 -0.2047  0.0575
10198SOL    HW132194   6.021   1.646   1.403  0.1575  0.7696 -0.0539
10198SOL    HW232195   6.035   1.717   1.257  0.1346 -0.7020 -0.7876
10199SOL     OW32196   5.438   2.098   6.863 -0.1218  0.2563 -0.5196
10199SOL    HW132197   5.383   2.179   6.885  0.7483  0.7241  0.0118
10199SOL    HW232198   5.488   2.069   6.944 -0.9282 -1.2413 -0.5315
10200SOL     OW32199   0.528   6.419   3.159 -0.5253 -0.6343 -0.6543
10200SOL    HW132200   0.446   6.475   3.143 -0.2197  0.3255  0.9772
10200SOL    HW232201   0.501   6.324   3.171 -1.3226 -0.4392 -0.8123
10201SOL     OW32202   4.112   5.802   3.884 -0.2987  0.2948 -0.0502
10201SOL    HW132203   4.083   5.753   3.966  0.4911  0.6942  0.4828
10201SOL    HW232204   4.150   5.891   3.910  0.8817  0.0204 -0.7483
10202SOL     OW32205   6.237   0.940   4.070 -0.7981 -0.5099 -0.5961
10202SOL    HW132206   6.214   0.990   4.153 -0.3081 -2.7894  1.0223
10202SOL    HW232207   6.336   0.938   4.058 -0.8592 -0.3211 -1.1557
10203SOL     OW32208   3.698   3.960   7.020 -0.0361  0.5146  0.0964
10203SOL    HW132209   3.661   3.888   6.961  0.8250 -0.1002  0.2991
10203SOL    HW232210   3.724   3.921   7.108  1.1130  0.9258 -0.0456
10204SOL     OW32211   0.036   5.509   4.599 -0.3704 -0.2052  0.2879
10204SOL    HW132212   0.077   5.591   4.640 -1.2235  0.8354 -0.8497
10204SOL    HW232213  -0.061   5.505   4.621 -0.4928 -0.5034 -0.2729
10205SOL     OW32214   3.193   1.069   1.289 -0.3904 -0.3905 -0.5614
10205SOL    HW132215   3.210   1.139   1.358 -1.3083 -1.0217  0.3357
10205SOL    HW232216   3.140   1.107   1.214 -3.4326 -0.7456  1.2717
10206SOL     OW32217   6.357   2.403   6.909  0.4343  0.1256  0.0166
10206SOL    HW132218   6.366   2.304   6.920 -2.7359 -0.3743 -0.7207
10206SOL    HW232219   6.295   2.438   6.980 -0.0144  1.2119 -0.8803
10207SOL     OW32220   0.428   2.341   6.688  0.2874 -0.3784 -0.5282
10207SOL    HW132221   0.434   2.434   6.652 -1.3092  0.1858  0.5496
10207SOL    HW232222   0.445   2.275   6.615 -1.8775  0.7196 -2.1028
10208SOL     OW32223   2.756   5.582   3.815 -0.4701  0.0517  0.0663
10208SOL    HW132224   2.679   5.646   3.806  0.0863  0.7065 -0.1023
10208SOL    HW232225   2.841   5.628   3.790  0.2724 -0.0478  2.2584
10209SOL     OW32226   2.050   4.112   3.520  0.1585 -0.1934  0.3391
10209SOL    HW132227   2.056   4.078   3.614  2.5760 -0.1687  0.2410
10209SOL    HW232228   2.107   4.056   3.460 -0.3671  0.5611 -0.8996
10210SOL     OW32229   3.402   3.596   0.327 -0.2837 -0.0508 -0.2756
10210SOL    HW132230   3.402   3.515   0.385  2.8994 -1.1581 -1.5948
10210SOL    HW232231   3.409   3.678   0.385  0.9348 -1.0007  0.9906
10211SOL     OW32232   5.141   1.770   5.292 -0.1506 -0.1919  0.7282
10211SOL    HW132233   5.076   1.817   5.352 -0.6233  0.3800 -0.2123
10211SOL    HW232234   5.153   1.676   5.324  1.9145  0.8694  3.5088
10212SOL     OW32235   1.907   1.459   6.622  0.0775 -0.5289 -0.1874
10212SOL    HW132236   1.909   1.546   6.670  0.1372 -1.3704  1.4125
10212SOL    HW232237   1.821   1.412   6.643  0.0087 -0.8253 -1.0969
10213SOL     OW32238   6.939   6.338   6.679  0.7806 -0.4933  0.2477
10213SOL    HW132239   6.972   6.245   6.662  1.9978  0.0051 -0.3005
10213SOL    HW232240   7.015   6.403   6.665  0.4114  0.4515  2.2620
10214SOL     OW32241   3.187   5.907   2.589 -0.5798 -0.5022  0.1875
10214SOL    HW132242   3.147   5.882   2.501  2.3286  1.7095 -1.9426
10214SOL    HW232243   3.153   5.997   2.617 -0.4122 -0.5624  0.5988
10215SOL     OW32244   5.230   3.647   5.062 -0.0258  0.3020  0.4918
10215SOL    HW132245   5.139   3.689   5.070 -0.1470 -0.0861  1.1724
10215SOL    HW232246   5.245   3.619   4.967 -1.6458 -1.9147  0.8204
10216SOL     OW32247   5.806   3.378   2.725  0.4406  0.5968  0.2381
10216SOL    HW132248   5.737   3.402   2.792  2.4989 -0.3563  2.8895
10216SOL    HW232249   5.885   3.439   2.735  0.0652  1.6999 -2.7249
10217SOL     OW32250   6.056   1.895   1.216 -0.3736  0.6595 -0.2648
10217SOL    HW132251   6.153   1.895   1.240  0.2924 -0.9399 -2.6031
10217SOL    HW232252   6.038   1.968   1.150 -0.4999  0.2673 -0.6710
10218SOL     OW32253   1.377   3.896   5.361  0.3087  0.1174  0.0389
10218SOL    HW132254   1.290   3.934   5.330  1.0499  1.8765 -0.0118
10218SOL    HW232255   1.386   3.908   5.459  0.4424 -0.2067  0.0686
10219SOL     OW32256   0.701   4.664   4.922 -0.1725  0.2902 -0.1751
10219SOL    HW132257   0.648   4.604   4.862 -0.6377  0.5738 -0.0533
10219SOL    HW232258   0.747   4.609   4.993  2.1802 -0.3356 -2.0480
10220SOL     OW32259   0.918   5.913   2.315  0.0964  0.0007  0.2255
10220SOL    HW132260   0.979   5.900   2.237 -0.2306  0.3532 -0.0930
10220SOL    HW232261   0.955   5.865   2.395  0.4802 -0.2821 -0.1198
10221SOL     OW32262   6.141   5.101   5.253  0.2724  0.5668  0.3581
10221SOL    HW132263   6.167   5.008   5.280 -0.2705  0.3588  0.1786
10221SOL    HW232264   6.063   5.096   5.190  1.3151  1.0498 -1.0012
10222SOL     OW32265   2.062   0.063   3.091 -0.0099 -0.1380 -0.5820
10222SOL    HW132266   2.027   0.156   3.100  1.0349  0.1124  1.6280
10222SOL    HW232267   1.986  -0.002   3.096 -0.4900  0.4939  1.6026
10223SOL     OW32268   1.152   4.922   5.273  0.4722  0.0924 -0.0503
10223SOL    HW132269   1.164   4.964   5.362  0.7711  0.6825 -0.3656
10223SOL    HW232270   1.061   4.944   5.237  0.2969 -0.2660  0.1693
10224SOL     OW32271   5.374   2.535   1.359 -0.0193 -0.4404 -0.2758
10224SOL    HW132272   5.426   2.524   1.275 -0.7107  0.2722 -0.8101
10224SOL    HW232273   5.327   2.449   1.381 -0.1275 -0.5245 -0.8184
10225SOL     OW32274   6.315   5.766   3.463 -0.1005 -0.2787 -0.5838
10225SOL    HW132275   6.274   5.677   3.442  0.5552 -0.8774  0.5857
10225SOL    HW232276   6.288   5.832   3.393 -2.7964 -0.6979 -0.0528
10226SOL     OW32277   1.058   1.204   4.000 -0.3951 -0.5670 -0.1330
10226SOL    HW132278   1.146   1.157   3.995 -0.5154 -1.1981  2.4090
10226SOL    HW232279   1.060   1.271   4.074 -1.9282 -0.2494 -0.3438
10227SOL     OW32280   2.318   0.849   6.157  0.2041  0.2768  0.3851
10227SOL    HW132281   2.385   0.775   6.156 -0.5840 -0.4647  0.9343
10227SOL    HW232282   2.296   0.874   6.251  1.4969  2.2053  0.2191
10228SOL     OW32283   6.720   4.403   6.573  0.3742  0.2362  0.3899
10228SOL    HW132284   6.725   4.338   6.496 -2.4398  0.4845 -0.0826
10228SOL    HW232285   6.716   4.352   6.659  0.4365 -0.1261  0.1808
10229SOL     OW32286   2.501   5.069   4.337  0.1037 -0.5693 -0.1914
10229SOL    HW132287   2.531   5.086   4.243 -0.5253 -0.2834 -0.3420
10229SOL    HW232288   2.402   5.055   4.339 -0.1620  1.0904  0.6358
10230SOL     OW32289   4.680   4.037   0.146 -0.4141  0.2192 -0.5035
10230SOL    HW132290   4.661   4.057   0.050 -1.2031 -0.0433 -0.4064
10230SOL    HW232291   4.603   3.989   0.186  0.9220 -1.9634 -0.3971
10231SOL     OW32292   3.757   2.603   0.632 -0.4855 -0.0924  0.1742
10231SOL    HW132293   3.759   2.671   0.706 -0.7878 -0.5949  0.6588
10231SOL    HW232294   3.842   2.551   0.632 -0.8645 -0.7316  0.7953
10232SOL     OW32295   0.442   6.763   3.651 -0.3506  0.0365 -0.4742
10232SOL    HW132296   0.353   6.794   3.685  0.6346  2.2268  0.3103
10232SOL    HW232297   0.490   6.712   3.723 -0.0174  0.9490 -0.0341
10233SOL     OW32298   0.217   4.675   5.392 -0.0343 -0.0969  0.3628
10233SOL    HW132299   0.178   4.733   5.320  1.3093  0.4260  0.0138
10233SOL    HW232300   0.271   4.602   5.351  0.1241 -0.2469  0.8258
10234SOL     OW32301   2.914   6.471   2.302  0.0399  0.4740 -0.1425
10234SOL    HW132302   2.909   6.416   2.218 -0.4680  1.2348 -0.6191
10234SOL    HW232303   2.831   6.526   2.311 -0.3530 -0.3219  1.3833
10235SOL     OW32304   5.624   5.028   6.493 -0.2137 -0.0070  0.1795
10235SOL    HW132305   5.637   4.931   6.511 -0.1245  0.1375  0.9299
10235SOL    HW232306   5.534   5.057   6.526 -0.1133  0.2329  0.2467
10236SOL     OW32307   3.339   3.736   4.066 -0.0251 -0.5464 -0.0705
10236SOL    HW132308   3.256   3.786   4.045 -0.4912 -0.3822  1.9582
10236SOL    HW232309   3.317   3.640   4.082  0.4367 -0.8351 -1.0526
10237SOL     OW32310   6.570   5.344   4.516 -0.3636 -0.0397 -0.3614
10237SOL    HW132311   6.542   5.364   4.422 -2.0817 -1.4737 -0.2184
10237SOL    HW232312   6.591   5.247   4.525 -2.3975 -0.4294  1.1622
10238SOL     OW32313   4.690   1.939   5.222  0.0377 -0.7282  0.1168
10238SOL    HW132314   4.763   1.872   5.236  0.9346 -0.0148 -0.9828
10238SOL    HW232315   4.682   1.959   5.124 -1.3294 -0.4365  0.2703
10239SOL     OW32316   0.642   1.227   1.214 -0.1403 -0.4812 -0.3394
10239SOL    HW132317   0.593   1.313   1.229 -0.5225 -0.7200 -0.1992
10239SOL    HW232318   0.628   1.197   1.119  0.2972 -0.2008 -0.4939
10240SOL     OW32319   0.971   4.585   4.347  0.0567 -0.0939  0.0661
10240SOL    HW132320   0.975   4.660   4.282  2.4854 -0.4577 -0.3338
10240SOL    HW232321   0.998   4.617   4.438  0.8674 -0.3944 -0.0555
10241SOL     OW32322   5.211   4.796   2.435  0.3176  0.1880  0.1676
10241SOL    HW132323   5.290   4.734   2.433 -0.8364 -1.4961  2.1392
10241SOL    HW232324   5.136   4.756   2.380  0.0997  0.6696  0.1081
10242SOL     OW32325   6.891   4.331   2.048 -0.1203  0.1788  0.0984
10242SOL    HW132326   6.890   4.364   1.954  0.0457  0.4942  0.2056
10242SOL    HW232327   6.955   4.386   2.102  0.5094 -0.6060  0.1759
10243SOL     OW32328   0.574   6.583   1.705 -0.0494  0.5124  0.1446
10243SOL    HW132329   0.550   6.674   1.740 -0.2315  0.0331  1.3347
10243SOL    HW232330   0.502   6.551   1.643  0.0699  1.2182 -0.3664
10244SOL     OW32331   6.259   6.428   5.683  0.2316  0.0711 -0.7029
10244SOL    HW132332   6.296   6.517   5.659 -0.7494  0.5454 -0.5122
10244SOL    HW232333   6.294   6.400   5.773 -0.7733  1.0760  0.0430
10245SOL     OW32334   5.468   5.163   2.956 -0.0026 -0.2172  0.9259
10245SOL    HW132335   5.418   5.166   3.043 -1.6702  0.1841 -0.0023
10245SOL    HW232336   5.497   5.069   2.938 -2.6571 -1.0182  0.3359
10246SOL     OW32337   6.083   6.399   1.860 -0.5451  0.2950 -0.1792
10246SOL    HW132338   6.080   6.299   1.858 -0.1015  0.2840 -0.8223
10246SOL    HW232339   6.167   6.429   1.906 -1.1253  0.3873  0.8397
10247SOL     OW32340   0.292   4.731   6.087  0.2454 -0.6712 -0.6145
10247SOL    HW132341   0.274   4.634   6.076  0.6210 -0.6924 -1.1020
10247SOL    HW232342   0.235   4.783   6.024 -0.3098 -0.5394 -0.0118
10248SOL     OW32343   6.799   3.140   2.123  0.3249  0.3285  0.0858
10248SOL    HW132344   6.732   3.072   2.154  1.0667  0.2390  1.5979
10248SOL    HW232345   6.751   3.216   2.080 -0.7957  0.3963  1.3708
10249SOL     OW32346   2.704   3.695   6.049  0.1931  0.1236  0.0141
10249SOL    HW132347   2.735   3.787   6.073 -0.0008  0.1054  0.3448
10249SOL    HW232348   2.781   3.641   6.016  0.3363  0.3591 -0.0398
10250SOL     OW32349   4.286   5.553   3.104  0.4231  0.2893 -0.1870
10250SOL    HW132350   4.237   5.617   3.163 -1.0075 -0.1680 -0.8385
10250SOL    HW232351   4.371   5.525   3.148 -0.4709  0.1666  1.5448
10251SOL     OW32352   0.715   0.893   3.703  0.1533 -0.6985  0.3996
10251SOL    HW132353   0.779   0.915   3.630 -0.7437  0.3371 -0.1058
10251SOL    HW232354   0.750   0.928   3.790  0.1152  0.2114  0.0656
10252SOL     OW32355   1.393   6.685   5.698  0.0132  0.1514  0.3654
10252SOL    HW132356   1.419   6.775   5.664 -1.3566  0.2350 -0.5758
10252SOL    HW232357   1.474   6.634   5.725  0.9049  1.2136 -0.2508
10253SOL     OW32358   5.553   1.123   1.248  0.4580  0.0980  0.3627
10253SOL    HW132359   5.637   1.166   1.216  0.3985 -0.0510 -0.0027
10253SOL    HW232360   5.474   1.164   1.202  0.3369  0.1732  0.6333
10254SOL     OW32361   3.895   5.268   4.246 -0.3841 -0.0474  0.3420
10254SOL    HW132362   3.978   5.310   4.281  0.0988 -0.3892 -0.3867
10254SOL    HW232363   3.845   5.334   4.189 -0.7605  0.2444  0.9937
10255SOL     OW32364   0.803   6.582   1.562 -0.3115  0.1261  0.8545
10255SOL    HW132365   0.722   6.567   1.619 -0.7968 -1.7687 -0.2214
10255SOL    HW232366   0.805   6.513   1.489  1.0166  1.6026 -0.5870
10256SOL     OW32367   0.157   1.430   4.723 -0.0691 -0.5058  0.1970
10256SOL    HW132368   0.239   1.404   4.774  1.1727 -0.1788 -1.5396
10256SOL    HW232369   0.167   1.524   4.690 -0.5248 -0.9173 -1.1766
10257SOL     OW32370   5.591   6.115   2.791 -0.4962  0.3245 -0.4026
10257SOL    HW132371   5.688   6.118   2.815 -0.5580  1.1258 -0.2198
10257SOL    HW232372   5.544   6.193   2.834 -0.9359  0.8262 -1.7516
10258SOL     OW32373   2.692   4.678   4.267 -0.3934  0.1961 -0.3490
10258SOL    HW132374   2.727   4.755   4.320  1.1129 -0.8036  0.2061
10258SOL    HW232375   2.605   4.647   4.306 -0.4807  0.9508  0.0700
10259SOL     OW32376   3.606   4.895   0.914  0.2235 -0.0828 -0.5764
10259SOL    HW132377   3.518   4.939   0.893  0.3646  0.3346 -0.2899
10259SOL    HW232378   3.631   4.835   0.838 -1.0617 -1.4080  0.0063
10260SOL     OW32379   1.416   5.262   0.316  0.1001  0.1983 -0.1950
10260SOL    HW132380   1.342   5.200   0.341  0.6587 -0.8744 -1.1509
10260SOL    HW232381   1.497   5.210   0.291  0.9993  1.3449  0.2156
10261SOL     OW32382   4.168   1.808   4.858  0.0865  0.2341  0.4794
10261SOL    HW132383   4.097   1.847   4.917 -2.0096  1.0209 -2.3799
10261SOL    HW232384   4.254   1.857   4.873 -0.8689  1.6923  1.4632
10262SOL     OW32385   0.961   3.412   6.404  0.3198  0.2381  0.4946
10262SOL    HW132386   0.889   3.379   6.343  0.0720  2.6620 -0.6655
10262SOL    HW232387   1.045   3.427   6.353  0.3155  1.6420  0.8336
10263SOL     OW32388   1.412   1.323   3.483  0.4298  0.1217  0.4458
10263SOL    HW132389   1.351   1.282   3.415  0.1918  1.1050  0.0544
10263SOL    HW232390   1.380   1.415   3.506  2.1601  0.9683 -0.3245
10264SOL     OW32391   0.510   6.793   4.623  0.5988 -0.0093  0.1611
10264SOL    HW132392   0.575   6.868   4.613 -2.1160  2.4811  0.0659
10264SOL    HW232393   0.512   6.737   4.540  1.7469  0.7251 -0.3358
10265SOL     OW32394   5.376   4.364   2.261  0.1929 -0.3818 -0.7341
10265SOL    HW132395   5.323   4.427   2.204  0.3872  0.4411 -0.0217
10265SOL    HW232396   5.471   4.361   2.228  0.1911 -0.2678 -0.7528
10266SOL     OW32397   1.308   0.157   5.491 -0.1423 -0.3340  0.4102
10266SOL    HW132398   1.278   0.166   5.396  0.4888  0.3285  0.2680
10266SOL    HW232399   1.293   0.243   5.539 -0.4246 -0.6563  0.9026
10267SOL     OW32400   0.860   1.439   2.411 -0.2398  0.0062 -0.3480
10267SOL    HW132401   0.896   1.356   2.454  2.7166  0.9040 -0.8627
10267SOL    HW232402   0.870   1.431   2.311 -0.5666  0.7049 -0.4420
10268SOL     OW32403   1.837   1.413   5.522 -0.3316 -0.0441  0.1457
10268SOL    HW132404   1.804   1.488   5.464  0.9306  0.5979  0.2300
10268SOL    HW232405   1.937   1.413   5.523 -0.3250 -0.3859  1.8809
10269SOL     OW32406   0.418   2.647   0.753  0.1344 -0.0110 -1.0823
10269SOL    HW132407   0.472   2.679   0.831 -1.2415 -2.3928  0.9891
10269SOL    HW232408   0.463   2.675   0.668  2.9893  0.6853  0.5238
10270SOL     OW32409   6.002   2.299   3.139 -0.2016  0.6248  0.5476
10270SOL    HW132410   6.085   2.333   3.183 -0.5447  1.1505  0.7996
10270SOL    HW232411   5.944   2.253   3.207 -0.0689  0.1565  0.3503
10271SOL     OW32412   5.237   0.525   4.234  0.4539 -0.8977  0.8963
10271SOL    HW132413   5.333   0.538   4.257  0.9003 -1.9014 -0.3032
10271SOL    HW232414   5.201   0.447   4.285 -0.1658  0.3603  2.4633
10272SOL     OW32415   5.975   5.813   6.636  0.0057 -0.2709  0.2615
10272SOL    HW132416   5.950   5.902   6.598  0.5566 -0.4184 -0.4734
10272SOL    HW232417   5.927   5.741   6.585 -0.5132 -0.3988  0.9140
10273SOL     OW32418   5.371   1.681   2.117 -0.1857  0.2751  0.3103
10273SOL    HW132419   5.274   1.705   2.107  0.2153  1.2779 -1.7388
10273SOL    HW232420   5.423   1.722   2.042  1.4170 -2.5536 -0.2767
10274SOL     OW32421   5.778   3.941   4.863 -0.9733 -0.8235  0.6936
10274SOL    HW132422   5.825   3.875   4.804  2.1577  1.6826  0.1052
10274SOL    HW232423   5.794   3.918   4.959 -1.3812 -1.8221  0.5344
10275SOL     OW32424   1.616   6.649   6.704 -0.3961 -0.4354 -0.9523
10275SOL    HW132425   1.589   6.592   6.781 -0.2892  0.8706  0.0921
10275SOL    HW232426   1.601   6.600   6.618  0.1846 -2.2110 -0.0740
10276SOL     OW32427   1.322   3.171   2.420 -0.2912 -0.5504  0.2287
10276SOL    HW132428   1.398   3.158   2.356 -1.0249  0.0094 -0.7757
10276SOL    HW232429   1.297   3.268   2.423 -0.2664 -0.5564  1.3935
10277SOL     OW32430   0.590   0.922   2.230 -0.1718 -0.8508  0.2876
10277SOL    HW132431   0.611   0.876   2.143 -1.3560 -1.6937  0.4198
10277SOL    HW232432   0.515   0.874   2.275 -0.0379  0.0005  1.4533
10278SOL     OW32433   0.266   0.419   0.677 -0.2379  0.6239  0.3632
10278SOL    HW132434   0.213   0.336   0.662 -0.1745  0.7121 -0.3743
10278SOL    HW232435   0.345   0.420   0.615 -0.5022  1.4592  0.0310
10279SOL     OW32436   1.585   5.512   6.873 -0.1024 -0.0241 -0.3553
10279SOL    HW132437   1.527   5.482   6.949  1.1031  1.1633  1.0925
10279SOL    HW232438   1.681   5.496   6.895  0.2522 -0.2630 -1.9377
10280SOL     OW32439   1.299   5.674   4.033 -0.1589  0.4877 -0.0125
10280SOL    HW132440   1.242   5.652   3.954  0.2365  2.3324 -0.8467
10280SOL    HW232441   1.396   5.664   4.009 -0.0362 -1.5268  1.0641
10281SOL     OW32442   0.730   2.492   3.009 -0.2691  0.2800  0.1521
10281SOL    HW132443   0.679   2.573   2.980 -0.2393  0.4388  0.5317
10281SOL    HW232444   0.829   2.510   3.002 -0.2581 -0.0107 -0.5370
10282SOL     OW32445   2.939   5.927   0.073  0.1364 -0.4788 -0.1486
10282SOL    HW132446   2.940   5.917  -0.027  1.9612 -1.4972 -0.0609
10282SOL    HW232447   2.894   6.013   0.097  1.1829  0.6372 -1.9365
10283SOL     OW32448   3.230   2.738   6.477  0.2760 -0.0198 -0.2977
10283SOL    HW132449   3.203   2.761   6.570  0.4250  0.4884 -0.3772
10283SOL    HW232450   3.289   2.657   6.478  1.2562  0.6798  0.1712
10284SOL     OW32451   6.084   1.860   6.325  0.4889 -0.1612  0.0331
10284SOL    HW132452   6.056   1.956   6.331 -0.0017 -0.1499 -1.8307
10284SOL    HW232453   6.005   1.801   6.342  0.0970 -0.1672 -1.6143
10285SOL     OW32454   6.505   2.866   1.826 -0.4422  0.2511 -0.7581
10285SOL    HW132455   6.448   2.886   1.746 -2.3826  0.5968  0.6266
10285SOL    HW232456   6.471   2.784   1.871  1.7646 -1.0032 -1.2346
10286SOL     OW32457   4.380   5.334   1.317  0.1129 -0.6646  0.4254
10286SOL    HW132458   4.285   5.313   1.295  0.6361 -1.3470 -1.4245
10286SOL    HW232459   4.440   5.292   1.248  1.6308  1.6540  0.2099
10287SOL     OW32460   5.711   1.163   3.656 -0.3060  0.1394  0.1495
10287SOL    HW132461   5.679   1.072   3.629  0.3056 -0.1151  0.2489
10287SOL    HW232462   5.711   1.223   3.576  0.2209 -0.2304 -0.1367
10288SOL     OW32463   2.221   1.028   5.836 -0.5930  0.0801  0.5326
10288SOL    HW132464   2.246   1.083   5.756  1.4967 -0.5595  0.6718
10288SOL    HW232465   2.284   1.047   5.911 -0.7074 -1.4317  1.0548
10289SOL     OW32466   1.249   6.789   4.867  0.4474  0.8211  0.0131
10289SOL    HW132467   1.320   6.858   4.876  1.5094 -0.2552  0.0970
10289SOL    HW232468   1.285   6.709   4.819 -0.8607  0.4502 -0.4211
10290SOL     OW32469   2.367   5.907   2.909 -0.5319 -0.4087  0.6217
10290SOL    HW132470   2.443   5.934   2.849 -0.5839  0.0928  0.7764
10290SOL    HW232471   2.362   5.971   2.986 -0.3717 -1.1400  1.2420
10291SOL     OW32472   0.648   2.003   1.940  0.0530  0.4101  0.6154
10291SOL    HW132473   0.610   2.062   2.010 -1.6056  0.9644 -0.6746
10291SOL    HW232474   0.580   1.934   1.914  1.2540 -0.8670  0.7357
10292SOL     OW32475   4.526   0.918   2.250 -0.6901  0.0043 -0.5598
10292SOL    HW132476   4.562   1.011   2.255 -0.5030 -0.1088  0.3040
10292SOL    HW232477   4.552   0.877   2.162  0.8415  0.1096 -0.1697
10293SOL     OW32478   4.194   5.375   6.000  0.6157  0.8152 -0.4360
10293SOL    HW132479   4.180   5.453   6.061 -0.0630  0.2236  0.1908
10293SOL    HW232480   4.214   5.408   5.908  2.6606  1.7353  0.2768
10294SOL     OW32481   4.316   6.856   2.966  0.1846  0.1518  0.5651
10294SOL    HW132482   4.271   6.922   3.027  2.6812  1.6964  0.8954
10294SOL    HW232483   4.409   6.888   2.945  0.1405 -1.3410 -2.4766
10295SOL     OW32484   1.632   4.692   6.972 -0.2552 -0.1427 -0.0981
10295SOL    HW132485   1.584   4.777   6.951 -1.2083 -0.6072  0.1509
10295SOL    HW232486   1.571   4.631   7.023  0.4183 -0.9695 -0.2612
10296SOL     OW32487   6.313   4.506   4.659 -0.3487 -0.1680  0.3024
10296SOL    HW132488   6.313   4.527   4.757 -1.9287 -2.1529  0.7858
10296SOL    HW232489   6.252   4.570   4.612  2.0641  2.2055  0.1870
10297SOL     OW32490   0.810   4.202   1.828 -0.3035  0.2542  0.0521
10297SOL    HW132491   0.869   4.279   1.853 -1.0324  0.4763  1.1490
10297SOL    HW232492   0.867   4.121   1.811  0.3882  0.7234  0.0890
10298SOL     OW32493   3.689   0.662   6.842  0.2758  0.5741 -0.2296
10298SOL    HW132494   3.748   0.604   6.786  1.4678  0.9335  0.6328
10298SOL    HW232495   3.726   0.670   6.934 -0.4301  1.8509 -0.0307
10299SOL     OW32496   5.735   5.076   0.805  0.2634  0.1893 -0.2077
10299SOL    HW132497   5.667   5.140   0.769  0.4710  0.2189 -0.5529
10299SOL    HW232498   5.758   5.102   0.899  0.6756  0.8903 -0.4960
10300SOL     OW32499   6.872   0.998   5.471 -0.2342 -0.3786 -0.4223
10300SOL    HW132500   6.925   0.931   5.523  0.9448  1.3441  0.7272
10300SOL    HW232501   6.822   1.057   5.535 -1.0584 -0.0009 -1.3921
10301SOL     OW32502   5.159   6.185   0.105  0.1589  0.0757  0.1148
10301SOL    HW132503   5.178   6.151   0.197 -0.1392 -0.4597 -0.0206
10301SOL    HW232504   5.095   6.262   0.111 -1.0368 -0.8967  0.2648
10302SOL     OW32505   0.950   3.464   3.833 -0.0350  0.0215 -0.0902
10302SOL    HW132506   0.990   3.424   3.915 -0.5813  0.7107  0.5310
10302SOL    HW232507   1.011   3.535   3.797  0.4292 -0.6155 -0.5639
10303SOL     OW32508   6.843   4.263   0.435 -0.5448 -0.5789  0.6711
10303SOL    HW132509   6.869   4.181   0.486 -0.7440 -1.1116 -0.0695
10303SOL    HW232510   6.904   4.338   0.459  0.0011 -1.1026  0.9345
10304SOL     OW32511   3.590   1.926   4.136 -0.5818 -0.0844 -0.5466
10304SOL    HW132512   3.506   1.877   4.158  1.3541 -3.1076  0.8020
10304SOL    HW232513   3.668   1.863   4.144  1.8957  2.7157 -1.0682
10305SOL     OW32514   6.349   6.089   6.085 -0.2130 -0.2716 -0.8224
10305SOL    HW132515   6.439   6.126   6.062  0.6998 -2.7802 -1.5647
10305SOL    HW232516   6.294   6.079   6.002 -0.0403 -1.5312 -0.8010
10306SOL     OW32517   5.205   6.076   5.930 -0.2015 -0.3856 -0.1990
10306SOL    HW132518   5.276   6.010   5.956  0.1466  0.9370  2.4917
10306SOL    HW232519   5.137   6.030   5.873  0.9853 -2.5715  0.0287
10307SOL     OW32520   6.251   5.273   6.804  0.0185 -0.5713 -0.2473
10307SOL    HW132521   6.193   5.267   6.885  1.2071 -1.5589  0.5682
10307SOL    HW232522   6.250   5.185   6.756  0.3111 -0.3777 -0.6099
10308SOL     OW32523   2.847   0.810   0.560  0.0979 -0.4170 -0.0862
10308SOL    HW132524   2.864   0.778   0.653  1.6638  1.5329  0.3762
10308SOL    HW232525   2.749   0.826   0.547 -0.0307  0.3521  1.6328
10309SOL     OW32526   3.791   5.553   5.475 -0.2835  0.0078  0.2121
10309SOL    HW132527   3.733   5.549   5.394  0.5667  0.3123 -0.4266
10309SOL    HW232528   3.737   5.585   5.554 -0.6466  1.7408 -0.6848
10310SOL     OW32529   3.467   5.137   5.066  0.7330 -0.1033 -0.4209
10310SOL    HW132530   3.399   5.106   5.000  0.0244  1.0270 -0.2565
10310SOL    HW232531   3.532   5.063   5.085 -0.9370 -1.5149  0.0657
10311SOL     OW32532   3.827   2.126   1.778 -0.4480  0.3662 -0.6822
10311SOL    HW132533   3.746   2.185   1.783  0.4209  1.5071  0.5690
10311SOL    HW232534   3.894   2.165   1.715 -0.8348 -0.5821 -1.7231
10312SOL     OW32535   5.020   5.876   6.426 -0.7537  0.7475 -0.1911
10312SOL    HW132536   5.111   5.904   6.395 -0.0521 -1.6272 -0.4847
10312SOL    HW232537   4.953   5.944   6.399  0.9266  2.6384  0.1444
10313SOL     OW32538   6.889   4.573   2.200 -0.4712  0.3384  0.4974
10313SOL    HW132539   6.946   4.654   2.209  1.7121 -0.9096 -1.0713
10313SOL    HW232540   6.919   4.504   2.267  0.4575 -0.5943 -0.8187
10314SOL     OW32541   2.608   5.868   2.752  0.3953  0.2359  0.2126
10314SOL    HW132542   2.653   5.952   2.783  0.4490  0.5211 -0.6127
10314SOL    HW232543   2.660   5.789   2.783  1.9937  0.5722 -1.4778
10315SOL     OW32544   4.225   5.274   2.366  0.3710  0.4824 -0.1373
10315SOL    HW132545   4.259   5.277   2.272  1.6949 -0.1528  0.3047
10315SOL    HW232546   4.125   5.274   2.365  0.3661  0.8325 -1.5244
10316SOL     OW32547   2.623   0.855   2.021  0.1456 -1.1450  0.0472
10316SOL    HW132548   2.698   0.851   2.087  0.1580  1.0283  0.2277
10316SOL    HW232549   2.563   0.931   2.043 -0.0970 -0.6288 -2.1751
10317SOL     OW32550   4.524   1.483   1.522  0.1160  0.5347  0.0199
10317SOL    HW132551   4.543   1.391   1.488 -0.2837  0.6694 -0.5881
10317SOL    HW232552   4.541   1.550   1.450  2.9851  1.2377  1.2353
10318SOL     OW32553   2.472   1.585   4.823 -0.2869  0.0434 -0.2769
10318SOL    HW132554   2.443   1.489   4.833 -2.2012  0.6461  0.4623
10318SOL    HW232555   2.549   1.603   4.884  0.1583 -1.0380 -0.4938
10319SOL     OW32556   1.718   0.563   1.159 -0.2768 -0.0082 -0.0621
10319SOL    HW132557   1.809   0.521   1.162 -0.0111  0.6327  1.0978
10319SOL    HW232558   1.708   0.629   1.233 -1.5661  0.2073 -0.3941
10320SOL     OW32559   3.139   2.280   6.916  0.3557 -0.5686  0.1661
10320SOL    HW132560   3.112   2.372   6.942 -0.0036 -0.1972 -1.4219
10320SOL    HW232561   3.200   2.242   6.986  1.8667  1.5065  0.0743
10321SOL     OW32562   6.248   6.267   0.426  0.3646 -0.3305 -0.0440
10321SOL    HW132563   6.316   6.208   0.384 -1.1898 -1.5087 -1.0177
10321SOL    HW232564   6.244   6.354   0.378  0.2759 -0.7619 -0.8321
10322SOL     OW32565   3.368   6.207   2.256  0.5146 -0.2600 -0.2126
10322SOL    HW132566   3.361   6.107   2.263  0.8470 -0.1963  1.5349
10322SOL    HW232567   3.458   6.232   2.220  0.5782 -0.5757 -0.2756
10323SOL     OW32568   1.381   2.932   3.583  0.0213  0.4261 -0.6552
10323SOL    HW132569   1.362   2.997   3.657 -1.2774 -0.3638 -0.2766
10323SOL    HW232570   1.457   2.967   3.528 -0.0537  1.8207  0.0689
10324SOL     OW32571   2.468   4.703   6.465  0.1074 -0.6893 -0.0239
10324SOL    HW132572   2.469   4.756   6.380 -2.7788 -2.2062 -1.1470
10324SOL    HW232573   2.387   4.726   6.518  1.3805 -0.4624  1.9276
10325SOL     OW32574   6.351   5.712   5.328 -0.0667  0.0580  0.1281
10325SOL    HW132575   6.281   5.731   5.259 -0.7973  0.8629  1.0643
10325SOL    HW232576   6.339   5.621   5.365  1.4906 -1.1599 -2.1112
10326SOL     OW32577   3.232   5.857   0.112 -0.1033  0.0100 -0.4451
10326SOL    HW132578   3.270   5.799   0.041  0.6328  2.2551 -1.9998
10326SOL    HW232579   3.134   5.868   0.097 -0.0475  0.0441 -0.7809
10327SOL     OW32580   1.470   3.864   1.030 -0.4185 -0.1984  0.4184
10327SOL    HW132581   1.482   3.877   0.931  0.0921  0.7380  0.5927
10327SOL    HW232582   1.457   3.767   1.049 -1.2061 -0.3284 -0.6390
10328SOL     OW32583   3.452   1.015   0.497  0.4215 -0.1511 -0.5936
10328SOL    HW132584   3.376   0.963   0.537  0.5100 -0.1518 -0.4244
10328SOL    HW232585   3.446   1.013   0.398  1.0505 -1.4274 -0.6250
10329SOL     OW32586   0.022   2.785   2.612 -0.3651  0.3545  0.2715
10329SOL    HW132587   0.040   2.699   2.660 -0.9739 -0.2508 -0.5610
10329SOL    HW232588   0.104   2.813   2.563 -0.0040  0.5299  0.9623
10330SOL     OW32589   6.879   5.811   2.501 -0.1463 -0.2995  0.1702
10330SOL    HW132590   6.862   5.718   2.535  1.6629 -0.3947  0.9179
10330SOL    HW232591   6.810   5.873   2.538 -0.6201 -1.1287  0.7154
10331SOL     OW32592   5.616   0.172   1.484 -0.0534 -0.3622 -0.3182
10331SOL    HW132593   5.678   0.096   1.498  1.0782  0.5046 -0.4932
10331SOL    HW232594   5.531   0.139   1.441  0.0954 -1.6165  0.3297
10332SOL     OW32595   6.177   4.846   2.148 -0.2102  0.6896  0.4513
10332SOL    HW132596   6.155   4.769   2.089  1.5764  0.7426 -0.3589
10332SOL    HW232597   6.221   4.813   2.231  0.5779  0.8124  0.0929
10333SOL     OW32598   6.075   5.936   0.227 -0.4544 -0.5418  0.1794
10333SOL    HW132599   5.990   5.970   0.268  1.0986  1.3359  2.0373
10333SOL    HW232600   6.053   5.872   0.153 -3.4520 -0.3518  0.7939
10334SOL     OW32601   6.318   4.417   3.342 -0.2962 -0.1909 -0.1699
10334SOL    HW132602   6.260   4.363   3.280  0.2391 -0.4860 -0.4159
10334SOL    HW232603   6.271   4.502   3.365 -2.2908 -1.7775  2.1721
10335SOL     OW32604   4.778   1.345   7.023 -0.1740  0.9192 -0.2057
10335SOL    HW132605   4.869   1.307   7.036 -0.6165  0.1343  0.7485
10335SOL    HW232606   4.737   1.305   6.940  0.4805  1.5671 -0.8524
10336SOL     OW32607   3.887   2.700   1.072  0.6311 -0.0164  0.5560
10336SOL    HW132608   3.914   2.761   0.997 -0.3672 -1.2372 -0.8486
10336SOL    HW232609   3.947   2.716   1.151  2.3948  0.5877 -0.8379
10337SOL     OW32610   1.629   1.349   1.427 -0.3832 -0.9047  0.2208
10337SOL    HW132611   1.682   1.412   1.370  0.0362  0.4808  2.0498
10337SOL    HW232612   1.686   1.269   1.449 -0.2167 -0.9907 -0.5102
10338SOL     OW32613   1.050   1.955   1.028  0.1394  0.2144 -0.4554
10338SOL    HW132614   0.965   1.903   1.040  0.6912 -0.5624  0.1548
10338SOL    HW232615   1.100   1.956   1.114  0.4954  1.1373 -0.6684
10339SOL     OW32616   6.000   0.143   3.266  0.2551 -0.3212  0.3939
10339SOL    HW132617   6.013   0.219   3.330 -0.3751 -0.9804  1.3360
10339SOL    HW232618   5.960   0.065   3.315 -0.7141 -0.6756 -0.9087
10340SOL     OW32619   0.567   5.755   3.385 -0.1933 -0.0776  0.0229
10340SOL    HW132620   0.546   5.724   3.477  0.3684 -1.6911 -0.3585
10340SOL    HW232621   0.628   5.834   3.389 -0.0323 -0.2502  1.0197
10341SOL     OW32622   3.731   3.938   3.467  0.0552  0.2729  0.2613
10341SOL    HW132623   3.755   4.001   3.393 -0.8564  1.2517  0.7810
10341SOL    HW232624   3.697   3.989   3.545 -2.5243 -0.9399  0.0366
10342SOL     OW32625   0.454   2.892   6.255 -0.8935  0.3645 -0.0202
10342SOL    HW132626   0.500   2.887   6.167  0.3124 -0.0265  0.6042
10342SOL    HW232627   0.408   2.805   6.274 -1.0258  0.3960 -0.1948
10343SOL     OW32628   1.010   6.314   2.910 -0.9310  0.3800  0.0379
10343SOL    HW132629   0.916   6.328   2.941 -0.6971  2.4526 -0.0490
10343SOL    HW232630   1.027   6.216   2.898 -3.2545 -0.0196 -0.5218
10344SOL     OW32631   3.304   6.619   2.622  0.0416  0.1276  0.1401
10344SOL    HW132632   3.330   6.715   2.610  0.6527 -0.2195 -1.5720
10344SOL    HW232633   3.257   6.587   2.540 -0.0416 -1.0785  0.6423
10345SOL     OW32634   1.065   2.988   2.978  0.6581 -0.0073 -0.2299
10345SOL    HW132635   0.976   2.971   2.936  0.7164 -1.9437  0.3373
10345SOL    HW232636   1.055   2.986   3.078  1.0904  1.3461 -0.1338
10346SOL     OW32637   2.326   2.215   6.208 -0.3998  0.4066 -0.0975
10346SOL    HW132638   2.367   2.124   6.217  2.9172  1.6115 -1.4302
10346SOL    HW232639   2.282   2.222   6.119  0.4280  0.4383 -0.5191
10347SOL     OW32640   6.609   0.421   6.403  0.2044  0.5788 -0.4126
10347SOL    HW132641   6.624   0.518   6.381 -0.9461  0.7613 -0.4826
10347SOL    HW232642   6.697   0.375   6.412  0.7876  1.0593 -2.8799
10348SOL     OW32643   3.887   0.449   1.869  0.1788 -0.1921  0.1555
10348SOL    HW132644   3.903   0.376   1.804 -0.9516 -1.5800  1.3663
10348SOL    HW232645   3.944   0.435   1.950 -0.0527  0.2471  0.4005
10349SOL     OW32646   6.639   3.975   4.609 -0.0089  0.3254  0.3690
10349SOL    HW132647   6.579   3.942   4.682  1.6028  0.5556  1.8585
10349SOL    HW232648   6.656   4.072   4.620  0.0663  0.4241 -0.4943
10350SOL     OW32649   0.297   6.163   4.450  0.4588 -0.2786  0.2883
10350SOL    HW132650   0.246   6.181   4.534  2.1944  0.9577  1.1281
10350SOL    HW232651   0.323   6.066   4.448 -0.2104 -0.4810  0.8138
10351SOL     OW32652   6.364   0.066   0.812  0.2373  0.2588  0.1238
10351SOL    HW132653   6.414  -0.003   0.759 -0.5733  0.1814 -0.5490
10351SOL    HW232654   6.277   0.027   0.843 -0.1625  0.9327 -0.1440
10352SOL     OW32655   6.583   3.543   0.073 -0.4041 -0.5197  0.0979
10352SOL    HW132656   6.613   3.595   0.152 -1.7591 -2.4714  2.0140
10352SOL    HW232657   6.661   3.494   0.033  0.0871 -0.4448  0.9509
10353SOL     OW32658   0.538   2.424   0.866  0.0155 -0.2573  0.4621
10353SOL    HW132659   0.485   2.502   0.832 -2.9366 -1.6614  1.4841
10353SOL    HW232660   0.542   2.353   0.795 -0.5373 -0.6154  0.7796
10354SOL     OW32661   5.590   6.734   3.660  1.0579 -0.0981  0.1134
10354SOL    HW132662   5.600   6.635   3.668  4.9763 -0.0845 -1.9808
10354SOL    HW232663   5.670   6.779   3.700  0.3097  2.0914 -0.6894
10355SOL     OW32664   2.037   2.737   5.509 -0.5443 -0.6138  0.1594
10355SOL    HW132665   2.114   2.800   5.498 -0.8620 -0.2725 -0.1180
10355SOL    HW232666   1.951   2.785   5.492 -0.7385 -1.4259 -1.3712
10356SOL     OW32667   5.842   6.841   0.277  0.1597  0.1936 -0.5137
10356SOL    HW132668   5.924   6.799   0.238  0.1064 -1.5394  1.1382
10356SOL    HW232669   5.767   6.837   0.210  1.1926  1.1419 -1.7656
10357SOL     OW32670   5.822   4.642   5.511  0.2168  0.3175 -0.7305
10357SOL    HW132671   5.842   4.616   5.416  0.9309  0.5181 -0.6388
10357SOL    HW232672   5.726   4.620   5.531 -0.6582  2.4235 -2.2204
10358SOL     OW32673   3.796   6.555   2.188  0.6918 -0.2665  0.6174
10358SOL    HW132674   3.789   6.637   2.244  0.5178  0.7500 -0.8459
10358SOL    HW232675   3.867   6.568   2.119 -0.6591 -0.5590 -0.8841
10359SOL     OW32676   7.020   2.067   6.251  0.1977  0.0798  0.6944
10359SOL    HW132677   6.923   2.084   6.235  0.1321 -0.7220  0.2484
10359SOL    HW232678   7.061   2.149   6.292 -0.5114  0.6663  0.2548
10360SOL     OW32679   1.827   2.747   5.141 -0.1610 -0.2027 -0.2361
10360SOL    HW132680   1.911   2.794   5.114  0.9701 -0.8903  1.8926
10360SOL    HW232681   1.821   2.659   5.093  0.2263 -0.0646 -0.5442
10361SOL     OW32682   0.442   2.044   0.716  0.1072  0.0759  0.6829
10361SOL    HW132683   0.420   2.122   0.658 -0.8922 -1.7528 -1.5425
10361SOL    HW232684   0.515   1.991   0.675  0.7578 -0.2301  2.1530
10362SOL     OW32685   1.984   2.249   1.234 -0.5349 -0.2061  0.0523
10362SOL    HW132686   1.936   2.276   1.150  1.0300 -1.3294 -1.2679
10362SOL    HW232687   2.055   2.316   1.254 -0.3258 -0.4008 -0.0356
10363SOL     OW32688   6.744   4.083   3.442 -0.3882 -0.2907  0.2391
10363SOL    HW132689   6.651   4.053   3.423 -1.1407  1.5330  0.9241
10363SOL    HW232690   6.755   4.098   3.540 -0.4786  2.8444 -0.1372
10364SOL     OW32691   3.298   5.177   5.551  0.3539  0.3718 -0.3670
10364SOL    HW132692   3.215   5.186   5.607  0.5595  1.8126 -0.2625
10364SOL    HW232693   3.379   5.185   5.608  0.5702  2.0939 -0.8457
10365SOL     OW32694   3.820   3.917   3.945  0.4203  0.0226  0.3716
10365SOL    HW132695   3.747   3.924   4.013  0.2086 -1.5196  0.3483
10365SOL    HW232696   3.804   3.837   3.888  3.0610 -1.4818  1.5422
10366SOL     OW32697   1.657   3.913   5.718  0.4377  0.0351  0.0609
10366SOL    HW132698   1.687   3.929   5.811 -0.2033  0.4728  0.1991
10366SOL    HW232699   1.733   3.879   5.663  1.2217  1.2468  0.3649
10367SOL     OW32700   0.117   3.406   5.628 -0.5294 -0.5798 -1.6366
10367SOL    HW132701   0.048   3.399   5.556  0.1828 -1.5273 -2.2464
10367SOL    HW232702   0.207   3.389   5.590 -0.0402 -0.2292 -0.6725
10368SOL     OW32703   2.774   0.565   3.600  0.1128  0.0541 -0.4418
10368SOL    HW132704   2.829   0.567   3.683 -0.4166  0.8631 -0.1056
10368SOL    HW232705   2.695   0.504   3.613  0.1918 -0.0537 -0.4620
10369SOL     OW32706   6.468   2.078   4.415  0.0792 -0.7365  0.0737
10369SOL    HW132707   6.512   2.033   4.337 -2.6932 -2.7847 -0.4636
10369SOL    HW232708   6.470   2.177   4.401  1.5866 -0.9248 -1.4659
10370SOL     OW32709   1.369   3.809   6.528 -0.0301  0.0446  0.2639
10370SOL    HW132710   1.437   3.767   6.588  0.8539 -0.1030 -0.8030
10370SOL    HW232711   1.388   3.906   6.519  0.4610 -0.1204 -0.5645
10371SOL     OW32712   4.992   5.393   1.387  0.4801 -0.1279  0.0035
10371SOL    HW132713   5.010   5.322   1.319  3.2299  1.6656 -1.3442
10371SOL    HW232714   4.900   5.429   1.375  0.2086 -1.2148 -1.4440
10372SOL     OW32715   4.587   5.273   4.651 -0.1904  0.3380 -0.1283
10372SOL    HW132716   4.510   5.216   4.623  0.8965 -0.5747 -1.3719
10372SOL    HW232717   4.638   5.302   4.570  0.9347  0.7028  0.6864
10373SOL     OW32718   6.088   2.254   3.748  0.5108 -0.1024  0.2245
10373SOL    HW132719   6.103   2.317   3.824  1.7179 -0.6015  0.4275
10373SOL    HW232720   6.150   2.176   3.757 -0.3815 -0.9131 -0.4664
10374SOL     OW32721   4.801   0.740   2.404  0.1616 -0.0852  0.5697
10374SOL    HW132722   4.839   0.679   2.334 -1.4454 -0.1162 -0.3220
10374SOL    HW232723   4.704   0.720   2.416 -0.5844  2.6800 -0.2065
10375SOL     OW32724   2.180   4.927   1.514  0.1149 -0.3151 -0.5279
10375SOL    HW132725   2.194   4.882   1.426 -0.9269  1.5061 -1.6810
10375SOL    HW232726   2.106   4.882   1.563  0.5102 -1.1637 -0.6860
10376SOL     OW32727   6.127   4.000   4.857  0.0718 -0.4854 -0.0332
10376SOL    HW132728   6.144   3.942   4.777  0.2612  0.0130 -0.3631
10376SOL    HW232729   6.039   4.046   4.846 -1.4124 -2.7651  1.4917
10377SOL     OW32730   5.201   6.988   5.545  0.0221  0.4182  0.1742
10377SOL    HW132731   5.194   7.008   5.448 -0.1809 -1.9396 -0.3603
10377SOL    HW232732   5.117   6.942   5.576  0.3883  0.4571  1.2829
10378SOL     OW32733   2.523   1.216   2.871  0.1353  0.0675 -0.1757
10378SOL    HW132734   2.432   1.204   2.911  0.8208 -0.5713  1.2324
10378SOL    HW232735   2.585   1.146   2.906  1.2418  0.6121 -0.9719
10379SOL     OW32736   2.242   5.133   5.206 -0.7835 -0.0811 -0.1347
10379SOL    HW132737   2.147   5.113   5.182  0.0050 -0.5383 -3.2510
10379SOL    HW232738   2.280   5.198   5.141  1.3458 -0.7143  0.3904
10380SOL     OW32739   3.378   1.868   0.390 -0.3525 -0.0263 -0.2667
10380SOL    HW132740   3.293   1.864   0.338  0.1730  1.0482 -1.2454
10380SOL    HW232741   3.454   1.883   0.328  0.4374  0.0315  0.7015
10381SOL     OW32742   6.020   5.418   0.234  0.1147  0.0988  0.2999
10381SOL    HW132743   5.977   5.507   0.217 -1.1393 -0.3599  0.9183
10381SOL    HW232744   5.978   5.376   0.314 -1.8763 -2.6406 -2.0019
10382SOL     OW32745   0.055   6.325   6.422 -0.2693 -0.3389 -0.0243
10382SOL    HW132746  -0.017   6.358   6.483 -1.3709 -1.1079 -0.8571
10382SOL    HW232747   0.082   6.398   6.359  0.3608  0.2348  0.8909
10383SOL     OW32748   0.000   0.167   5.355  0.8687 -0.5187 -0.2414
10383SOL    HW132749   0.089   0.210   5.340  1.0493 -1.1930 -1.2293
10383SOL    HW232750   0.004   0.109   5.437  0.8238  0.7643  0.6967
10384SOL     OW32751   5.814   0.908   4.681  0.5837 -0.2818 -0.5051
10384SOL    HW132752   5.786   0.901   4.777 -0.0701  2.6294 -0.3960
10384SOL    HW232753   5.769   0.835   4.628 -0.4840 -0.8375  1.0889
10385SOL     OW32754   6.286   0.075   3.398 -0.9896 -0.4230  0.0741
10385SOL    HW132755   6.214   0.065   3.330 -1.8752  1.2207  0.7136
10385SOL    HW232756   6.336   0.160   3.381 -2.8037  1.3283  2.8005
10386SOL     OW32757   5.593   4.842   0.771 -0.1223 -0.2124  0.1046
10386SOL    HW132758   5.649   4.918   0.802 -1.2932  0.3285  0.9779
10386SOL    HW232759   5.598   4.835   0.671 -0.4524  1.3931 -0.0498
10387SOL     OW32760   3.727   4.235   5.617  0.4097  0.3879  0.2721
10387SOL    HW132761   3.824   4.256   5.610  1.1565 -2.5737  0.4724
10387SOL    HW232762   3.700   4.236   5.713  0.6612 -0.2842  0.3592
10388SOL     OW32763   3.646   0.907   5.846 -0.8247  0.1318  0.3377
10388SOL    HW132764   3.676   0.846   5.773 -1.1005 -1.9639  1.8987
10388SOL    HW232765   3.721   0.970   5.869  0.2084 -0.9685  0.0663
10389SOL     OW32766   3.339   2.067   1.612 -0.1168  0.4004 -0.0352
10389SOL    HW132767   3.339   1.969   1.631 -1.3393  0.5240  0.7150
10389SOL    HW232768   3.308   2.083   1.518  1.5722  0.0109 -0.6873
10390SOL     OW32769   5.249   4.404   0.603 -0.3872 -0.4748 -0.1194
10390SOL    HW132770   5.236   4.306   0.586 -0.3992 -0.6274  0.7042
10390SOL    HW232771   5.232   4.423   0.700 -2.2142  0.6488 -0.6214
10391SOL     OW32772   1.522   1.608   3.698  0.4260 -0.3406  1.0064
10391SOL    HW132773   1.587   1.622   3.623 -0.2866 -1.4563  0.1499
10391SOL    HW232774   1.571   1.607   3.785  1.2076  1.5434  0.6479
10392SOL     OW32775   4.327   0.507   1.915 -0.1855 -0.7927 -0.4676
10392SOL    HW132776   4.294   0.531   1.824 -0.7809 -0.0150 -0.0670
10392SOL    HW232777   4.356   0.590   1.963 -2.5225 -0.7487  1.0607
10393SOL     OW32778   2.231   5.824   3.779 -0.1379 -0.0978  0.1671
10393SOL    HW132779   2.231   5.893   3.852 -2.9205  0.7930 -0.5812
10393SOL    HW232780   2.174   5.747   3.807 -0.8832  0.0626 -0.8730
10394SOL     OW32781   2.692   3.184   3.470  0.0595  0.1428  0.1868
10394SOL    HW132782   2.604   3.203   3.514 -1.5632  0.8646 -3.0835
10394SOL    HW232783   2.721   3.091   3.492 -1.8761 -0.3562  0.7802
10395SOL     OW32784   6.750   2.307   0.241 -0.1489 -1.0801  0.5663
10395SOL    HW132785   6.826   2.243   0.247 -0.2267 -1.1744  0.5540
10395SOL    HW232786   6.674   2.274   0.297 -0.5082 -1.4430 -0.1232
10396SOL     OW32787   5.326   3.047   6.779  0.3207  0.8699 -0.1602
10396SOL    HW132788   5.317   2.949   6.764  0.9871  0.5517  1.3233
10396SOL    HW232789   5.387   3.086   6.709  1.6527 -0.1439  0.3962
10397SOL     OW32790   0.315   3.616   5.208 -0.2399  0.3719 -0.1772
10397SOL    HW132791   0.313   3.703   5.257 -1.4274  1.3556 -1.8492
10397SOL    HW232792   0.377   3.623   5.130 -0.6718 -0.1342 -0.5778
10398SOL     OW32793   0.681   4.202   6.999 -0.5136  0.5340  0.0607
10398SOL    HW132794   0.631   4.175   6.917 -1.5612 -0.5262  1.0036
10398SOL    HW232795   0.725   4.290   6.984 -2.0761  1.1654 -1.0791
10399SOL     OW32796   1.299   0.290   6.091 -0.7995  0.4325 -0.8177
10399SOL    HW132797   1.211   0.243   6.079 -0.3971 -0.1770 -1.4752
10399SOL    HW232798   1.338   0.311   6.001  0.8573 -1.4533 -0.6132
10400SOL     OW32799   3.211   3.549   5.832  0.6239  0.5381 -0.4807
10400SOL    HW132800   3.284   3.485   5.854  0.0038 -0.3498 -0.8999
10400SOL    HW232801   3.212   3.568   5.734 -1.1527 -1.4077 -0.9487
10401SOL     OW32802   3.953   4.924   4.960  0.0987 -0.3772 -0.3612
10401SOL    HW132803   3.896   5.001   4.932  1.2226 -0.1550 -2.2296
10401SOL    HW232804   3.917   4.839   4.922  0.9313 -0.2422 -1.5061
10402SOL     OW32805   3.611   0.640   4.079  0.3893 -0.3092  0.0544
10402SOL    HW132806   3.580   0.637   4.174  2.0376 -0.2352  0.6307
10402SOL    HW232807   3.534   0.619   4.018 -0.6485 -0.5732  1.3986
10403SOL     OW32808   2.025   5.050   5.619 -0.0798  0.0071  0.8790
10403SOL    HW132809   2.080   5.069   5.538 -0.7943 -0.5648  0.2424
10403SOL    HW232810   2.072   5.086   5.700  0.8424  0.2249  0.2711
10404SOL     OW32811   0.377   1.992   0.357 -0.2842  0.1230 -0.2955
10404SOL    HW132812   0.409   2.074   0.404 -1.2265  1.5572 -2.0505
10404SOL    HW232813   0.279   1.999   0.340 -0.1203 -0.6832 -1.7451
10405SOL     OW32814   3.740   4.204   1.337  0.3120  0.1430 -0.0036
10405SOL    HW132815   3.809   4.131   1.346 -1.3269 -1.4114  0.5983
10405SOL    HW232816   3.718   4.239   1.428  1.3012  1.6397 -0.3175
10406SOL     OW32817   5.055   3.159   6.903  0.7025 -0.2846  0.3838
10406SOL    HW132818   5.041   3.179   6.999  1.6784  2.2718  0.0596
10406SOL    HW232819   5.147   3.122   6.889  0.8401  0.0712  0.3459
10407SOL     OW32820   6.159   5.790   0.444 -0.1534 -0.0440 -0.0324
10407SOL    HW132821   6.104   5.852   0.500 -0.9253 -0.5539 -0.2086
10407SOL    HW232822   6.177   5.833   0.356 -0.1723  0.1732  0.0686
10408SOL     OW32823   1.808   1.125   5.252 -0.3469 -0.6429 -0.0009
10408SOL    HW132824   1.861   1.208   5.269 -0.0532 -0.5632 -1.2069
10408SOL    HW232825   1.717   1.134   5.294  0.3149 -0.4844  1.4517
10409SOL     OW32826   3.393   6.510   0.129 -1.1073 -0.0925 -0.4473
10409SOL    HW132827   3.442   6.491   0.043 -0.4383  0.9420 -0.3104
10409SOL    HW232828   3.379   6.424   0.178  0.7263 -0.4171 -0.4199
10410SOL     OW32829   4.038   2.090   6.093 -0.1753 -0.1099 -0.0341
10410SOL    HW132830   4.006   2.020   6.157 -0.8041 -0.0245 -0.2533
10410SOL    HW232831   4.038   2.052   6.000 -2.0966  0.6580 -0.3976
10411SOL     OW32832   1.029   0.150   4.398  0.0981 -0.0615  0.1927
10411SOL    HW132833   0.984   0.156   4.487  0.4174  0.2711  0.3328
10411SOL    HW232834   1.126   0.171   4.408  0.0432  0.4430 -0.3152
10412SOL     OW32835   5.195   3.538   0.935 -0.3736  0.6450 -0.0988
10412SOL    HW132836   5.174   3.634   0.917 -0.0788  0.5884 -0.7834
10412SOL    HW232837   5.127   3.481   0.890 -1.6008  0.5432  1.7652
10413SOL     OW32838   5.460   5.614   4.951 -0.0932 -0.5555  0.4177
10413SOL    HW132839   5.495   5.591   4.860 -1.0769 -1.2832  0.2034
10413SOL    HW232840   5.509   5.560   5.020 -0.8600 -1.6689  0.1093
10414SOL     OW32841   3.733   6.241   4.014  0.5530 -0.3748  0.0059
10414SOL    HW132842   3.660   6.307   3.999 -0.0511 -0.9314  0.4443
10414SOL    HW232843   3.711   6.155   3.967  0.2463 -1.0100  1.2591
10415SOL     OW32844   2.561   0.736   1.070  0.2211  0.2159 -0.3840
10415SOL    HW132845   2.490   0.684   1.023  0.2782 -0.1870 -0.0312
10415SOL    HW232846   2.627   0.673   1.111 -0.0084  0.5472  0.5139
10416SOL     OW32847   6.140   3.636   4.751 -0.1335  0.3637  0.5832
10416SOL    HW132848   6.120   3.643   4.849  0.7293  0.5636  0.7542
10416SOL    HW232849   6.180   3.546   4.732 -2.2911 -0.5499  0.0228
10417SOL     OW32850   2.267   2.030   5.813  0.3948  0.2258 -0.1610
10417SOL    HW132851   2.349   2.066   5.857  1.4726 -2.8925  0.6134
10417SOL    HW232852   2.269   1.930   5.816 -1.2693 -0.0881 -4.1165
10418SOL     OW32853   6.306   3.853   2.967  0.3507 -0.0105 -0.2241
10418SOL    HW132854   6.396   3.897   2.960  0.7277 -0.1561  2.5108
10418SOL    HW232855   6.315   3.755   2.955  0.4321  0.0513 -0.6751
10419SOL     OW32856   4.908   6.517   4.978  0.4176  0.9295  1.0900
10419SOL    HW132857   4.946   6.563   4.898 -3.2309  2.3885 -0.0156
10419SOL    HW232858   4.884   6.586   5.047 -1.7556  0.3717  0.9569
10420SOL     OW32859   5.318   3.168   5.460 -0.1569 -0.2016 -0.2122
10420SOL    HW132860   5.280   3.087   5.417 -0.5949 -0.3542  0.4331
10420SOL    HW232861   5.280   3.250   5.416 -0.4460 -0.3526 -0.2477
10421SOL     OW32862   3.055   2.514   0.439 -0.1636  0.0639 -0.1608
10421SOL    HW132863   2.972   2.458   0.434 -1.4670  1.9612 -1.0703
10421SOL    HW232864   3.097   2.520   0.348 -0.6187  1.3528 -0.3032
10422SOL     OW32865   2.408   2.398   2.685  0.4048 -1.2956 -0.2105
10422SOL    HW132866   2.392   2.345   2.768  0.3643  0.1794  0.7600
10422SOL    HW232867   2.493   2.450   2.695 -1.3139  1.6274  0.4482
10423SOL     OW32868   6.011   3.719   2.000 -0.1891 -0.3980 -0.1691
10423SOL    HW132869   6.103   3.681   1.997 -0.7665 -1.8368 -1.4200
10423SOL    HW232870   5.991   3.751   2.093  1.3380 -0.6214  0.2663
10424SOL     OW32871   2.444   3.829   4.850  0.0142 -0.2567  0.1665
10424SOL    HW132872   2.540   3.802   4.843  0.1139 -0.7050  2.5918
10424SOL    HW232873   2.386   3.748   4.841 -0.1865  0.0107 -1.2734
10425SOL     OW32874   0.207   4.802   1.456  0.1599  0.1768 -0.3800
10425SOL    HW132875   0.240   4.718   1.413  0.7738  0.5562 -0.6727
10425SOL    HW232876   0.108   4.797   1.467  0.0952 -0.2709 -1.0829
10426SOL     OW32877   5.119   5.779   3.835 -0.4665  0.3197 -0.7003
10426SOL    HW132878   5.083   5.847   3.772  1.7942  0.6203 -1.8011
10426SOL    HW232879   5.219   5.786   3.837 -0.1952 -2.5412 -0.3620
10427SOL     OW32880   2.817   5.456   5.955  0.0412 -0.2089  0.1409
10427SOL    HW132881   2.776   5.454   5.864 -2.0658 -1.1380  1.0386
10427SOL    HW232882   2.830   5.363   5.988  2.3931  0.0810  0.1567
10428SOL     OW32883   6.871   0.362   1.996 -0.2694 -0.0167 -0.6040
10428SOL    HW132884   6.778   0.383   2.027  0.1504 -1.4666  1.9444
10428SOL    HW232885   6.868   0.327   1.903 -2.2533  0.2425 -0.6729
10429SOL     OW32886   1.340   6.594   0.906 -0.9121 -0.3352 -0.0470
10429SOL    HW132887   1.249   6.574   0.943 -0.5633 -0.0111  1.0208
10429SOL    HW232888   1.371   6.517   0.851 -0.3911 -1.9730  2.4017
10430SOL     OW32889   0.133   2.555   1.641 -0.0619  0.0468 -0.1201
10430SOL    HW132890   0.147   2.471   1.693  0.5163  0.3690  0.2497
10430SOL    HW232891   0.219   2.584   1.600  0.3222  1.7513  1.7276
10431SOL     OW32892   0.419   0.727   0.435 -0.2655  0.4925  0.2857
10431SOL    HW132893   0.406   0.788   0.357  0.2967 -0.0812 -0.2749
10431SOL    HW232894   0.416   0.779   0.520 -1.3102  1.0624 -0.0957
10432SOL     OW32895   3.971   0.596   1.663 -0.3387 -0.2342  0.4802
10432SOL    HW132896   3.952   0.574   1.759  0.5916 -1.2167  0.4602
10432SOL    HW232897   3.893   0.646   1.624 -1.5961 -1.5818  1.1756
10433SOL     OW32898   1.720   5.337   5.460 -0.1757  0.1799 -0.2373
10433SOL    HW132899   1.756   5.322   5.368 -0.4949  0.8358 -0.4735
10433SOL    HW232900   1.716   5.249   5.509  1.0556 -0.0098 -0.4447
10434SOL     OW32901   6.203   2.916   2.156 -0.0486 -0.0129  0.1151
10434SOL    HW132902   6.104   2.922   2.143  0.0686 -0.5239 -1.1829
10434SOL    HW232903   6.233   2.984   2.223 -0.7697  2.8686 -2.2553
10435SOL     OW32904   1.611   5.952   0.720  0.1259 -0.3296  0.1687
10435SOL    HW132905   1.671   5.936   0.642 -0.7126 -0.1711 -0.5189
10435SOL    HW232906   1.636   5.889   0.794  1.2129 -0.1795 -0.0506
10436SOL     OW32907   5.528   6.297   5.878 -0.1166 -0.1329 -0.0324
10436SOL    HW132908   5.515   6.211   5.827 -0.5627  0.4239 -0.8872
10436SOL    HW232909   5.581   6.361   5.823  0.8057 -0.0875  0.8795
10437SOL     OW32910   0.697   0.689   2.413  0.1272 -0.3250 -0.0483
10437SOL    HW132911   0.774   0.694   2.350  1.7798  2.8252  1.9335
10437SOL    HW232912   0.612   0.706   2.364  1.4887  3.9940 -1.4163
10438SOL     OW32913   0.640   2.038   5.052  0.4875 -0.8398 -0.2086
10438SOL    HW132914   0.637   1.974   5.129 -0.6731  1.9169  2.2302
10438SOL    HW232915   0.594   1.997   4.973 -2.6678 -2.0820  2.0563
10439SOL     OW32916   1.818   6.679   4.176 -0.1158  0.2652 -0.0227
10439SOL    HW132917   1.786   6.608   4.238  0.6366  1.0341  1.2938
10439SOL    HW232918   1.914   6.699   4.194  0.1577  0.4458 -1.5230
10440SOL     OW32919   3.770   0.126   1.998 -0.7526  0.4091 -0.2747
10440SOL    HW132920   3.740   0.059   2.066 -0.7726  0.5287 -0.1645
10440SOL    HW232921   3.721   0.212   2.012 -1.2395  0.2299 -0.8653
10441SOL     OW32922   5.110   6.607   4.358  0.1366 -0.0287  0.6500
10441SOL    HW132923   5.171   6.529   4.340  0.6786  0.6724 -0.6928
10441SOL    HW232924   5.082   6.647   4.271 -1.1902  0.4834  1.2986
10442SOL     OW32925   3.715   0.803   0.958 -0.4865  0.6586 -0.0595
10442SOL    HW132926   3.660   0.831   0.879  1.7772  0.0983 -1.9884
10442SOL    HW232927   3.784   0.737   0.928 -0.7209 -1.0376  2.8214
10443SOL     OW32928   5.726   6.706   3.235  0.3886  0.0977  0.1180
10443SOL    HW132929   5.669   6.746   3.163  0.3087  1.3511  0.8410
10443SOL    HW232930   5.750   6.777   3.301  0.3803 -1.0360  1.3778
10444SOL     OW32931   6.771   5.604   4.391  0.3142  0.5305 -0.5638
10444SOL    HW132932   6.691   5.586   4.333 -0.8819 -2.2732  1.6756
10444SOL    HW232933   6.854   5.573   4.344 -0.8748 -4.1894 -0.0616
10445SOL     OW32934   3.519   0.074   0.860  0.3667 -0.1082 -0.2331
10445SOL    HW132935   3.481  -0.015   0.835 -0.2142 -0.8230  2.8002
10445SOL    HW232936   3.448   0.130   0.902  0.8376  1.7000 -1.6761
10446SOL     OW32937   6.353   4.598   3.878 -0.4260 -0.8111  0.0055
10446SOL    HW132938   6.441   4.647   3.876 -0.5883 -0.5100  0.2620
10446SOL    HW232939   6.290   4.642   3.814 -0.2185 -1.3560 -0.5816
10447SOL     OW32940   1.505   2.206   1.731 -0.3274  0.1038 -0.4156
10447SOL    HW132941   1.431   2.211   1.798 -0.4823  0.6841 -0.6283
10447SOL    HW232942   1.491   2.127   1.672 -0.3153 -0.2792  0.0815
10448SOL     OW32943   4.958   1.058   3.485 -0.4756  0.0654 -0.0977
10448SOL    HW132944   4.884   1.087   3.425 -1.6627 -1.0429  0.7718
10448SOL    HW232945   4.923   0.992   3.552  0.7998  1.2211  1.7899
10449SOL     OW32946   3.619   5.475   0.905  0.5107  0.4766 -0.2096
10449SOL    HW132947   3.604   5.470   0.806  0.3597 -2.0641 -0.1314
10449SOL    HW232948   3.684   5.548   0.925  0.6624  0.9555 -2.1887
10450SOL     OW32949   2.537   2.739   1.249  0.0774  0.1534  0.3309
10450SOL    HW132950   2.623   2.726   1.200 -1.3662 -1.1106 -2.0777
10450SOL    HW232951   2.513   2.836   1.250 -0.4029  0.1516 -2.6645
10451SOL     OW32952   6.218   2.080   0.911  0.0382 -0.1790 -0.2631
10451SOL    HW132953   6.132   2.030   0.924 -0.3109  0.3090 -0.6592
10451SOL    HW232954   6.211   2.137   0.829  0.5485  0.2772  0.0081
10452SOL     OW32955   0.587   0.686   3.903  0.6671  0.1994  0.6966
10452SOL    HW132956   0.532   0.769   3.890  1.0287  0.1548 -1.6439
10452SOL    HW232957   0.681   0.712   3.928  1.0218  0.6056 -0.9152
10453SOL     OW32958   1.511   3.125   5.324  0.2710 -0.3739  0.1819
10453SOL    HW132959   1.570   3.060   5.275 -0.3862 -2.1009  1.5655
10453SOL    HW232960   1.528   3.217   5.290  2.5027 -1.0231 -0.6688
10454SOL     OW32961   5.455   0.452   5.770  0.1741 -0.1721 -0.1110
10454SOL    HW132962   5.387   0.485   5.836 -0.3933  0.6362 -1.0754
10454SOL    HW232963   5.416   0.451   5.679  0.5294 -2.5850 -0.2864
10455SOL     OW32964   5.926   1.926   4.947  0.0600 -0.1689 -0.4036
10455SOL    HW132965   5.958   1.883   5.031 -3.4109 -0.2051  1.0673
10455SOL    HW232966   5.843   1.879   4.915 -1.6949  2.9632 -0.8737
10456SOL     OW32967   3.141   3.033   1.862 -0.3204  0.3497 -0.3542
10456SOL    HW132968   3.238   3.022   1.883  0.0902  0.0191 -2.2387
10456SOL    HW232969   3.103   2.945   1.834 -0.5398  0.9023 -1.8977
10457SOL     OW32970   4.894   3.383   0.431 -0.0081  0.1345  0.2969
10457SOL    HW132971   4.887   3.461   0.370  0.2449  1.0063  1.3456
10457SOL    HW232972   4.812   3.326   0.421 -0.2676  0.6094 -0.3721
10458SOL     OW32973   5.625   4.092   5.832 -0.5641 -0.3768  0.3495
10458SOL    HW132974   5.716   4.121   5.861 -0.6580 -0.5223  0.7999
10458SOL    HW232975   5.633   4.025   5.758 -0.3339  0.3061 -0.2497
10459SOL     OW32976   5.290   0.117   3.483 -0.4565  0.8145  0.1675
10459SOL    HW132977   5.273   0.190   3.549  1.4520  1.8698 -0.4188
10459SOL    HW232978   5.300   0.030   3.532 -0.5756  1.3176  1.1151
10460SOL     OW32979   1.191   5.501   3.344  0.4940 -0.2716  0.2958
10460SOL    HW132980   1.229   5.482   3.254 -0.0333  2.3744 -0.5423
10460SOL    HW232981   1.265   5.509   3.411  1.0675  0.1418 -0.3852
10461SOL     OW32982   0.050   5.515   5.596  0.5501  0.4234 -0.0278
10461SOL    HW132983   0.098   5.593   5.555  1.7823 -0.0561  0.4368
10461SOL    HW232984   0.107   5.433   5.588  0.8734  0.2864  2.5457
10462SOL     OW32985   6.203   1.487   0.372  0.6322 -0.0015 -0.2707
10462SOL    HW132986   6.282   1.427   0.379  1.1093  0.5529 -0.8769
10462SOL    HW232987   6.146   1.475   0.454  0.4588 -1.6197 -0.5910
10463SOL     OW32988   6.177   3.691   6.843 -0.3848 -0.2415  0.1189
10463SOL    HW132989   6.200   3.662   6.750 -0.2256  0.3247 -0.0225
10463SOL    HW232990   6.224   3.776   6.864 -1.2538  0.1935  0.3367
10464SOL     OW32991   0.006   2.221   6.651 -0.3033  0.1312 -0.3790
10464SOL    HW132992  -0.012   2.228   6.552 -1.2821 -3.2210 -0.5398
10464SOL    HW232993   0.055   2.136   6.670  2.8111  2.1719  1.7809
10465SOL     OW32994   5.809   1.658   2.617 -0.1172  0.0003  0.3840
10465SOL    HW132995   5.796   1.709   2.532  0.8463  0.9676  0.7838
10465SOL    HW232996   5.747   1.580   2.619 -0.6822  0.3852 -0.8641
10466SOL     OW32997   5.199   1.964   1.218  0.2899  0.2884  0.2085
10466SOL    HW132998   5.163   1.886   1.269  0.9852 -0.1916 -0.0190
10466SOL    HW232999   5.294   1.980   1.243  1.0078 -0.6744 -1.7256
10467SOL     OW33000   0.528   4.477   6.267  0.2273 -0.6499 -0.6770
10467SOL    HW133001   0.445   4.532   6.277 -0.9006 -2.2222 -0.9292
10467SOL    HW233002   0.542   4.422   6.350  1.8298  0.5726 -0.0633
10468SOL     OW33003   6.184   1.142   4.260 -0.2569  0.2504  0.5159
10468SOL    HW133004   6.232   1.212   4.314  0.0464 -0.1572  0.7786
10468SOL    HW233005   6.107   1.184   4.212  0.7942  1.0903 -0.5127
10469SOL     OW33006   4.414   2.474   1.145 -0.2259 -0.1632 -0.2732
10469SOL    HW133007   4.435   2.392   1.199  1.0279  0.3386  0.0223
10469SOL    HW233008   4.498   2.524   1.126 -1.1030  1.7208  0.5963
10470SOL     OW33009   3.687   3.930   5.854 -0.1167 -0.7155  0.3787
10470SOL    HW133010   3.672   3.922   5.755  0.2178  1.1415  0.1461
10470SOL    HW233011   3.770   3.881   5.879  0.3047 -0.4377 -0.4284
10471SOL     OW33012   0.046   5.479   0.575  0.0458 -0.4992  0.8416
10471SOL    HW133013  -0.031   5.534   0.542 -1.1364 -1.2825  2.2056
10471SOL    HW233014   0.049   5.393   0.523 -0.5642 -0.8575  1.3932
10472SOL     OW33015   0.471   5.057   5.135 -0.0913 -0.3800 -0.9197
10472SOL    HW133016   0.544   5.058   5.066  0.2824 -1.1120 -0.5430
10472SOL    HW233017   0.425   5.146   5.135  0.0521 -0.2901 -1.9502
10473SOL     OW33018   0.725   4.173   3.224 -0.1437 -0.2532 -0.5940
10473SOL    HW133019   0.819   4.150   3.197  0.6644  1.4702  0.5513
10473SOL    HW233020   0.700   4.262   3.184 -0.3425  0.4727  1.0773
10474SOL     OW33021   2.085   4.606   2.513  0.3889 -0.1434 -0.2871
10474SOL    HW133022   2.049   4.533   2.455  1.9054 -1.5153  0.4051
10474SOL    HW233023   2.185   4.608   2.506  0.7101 -0.8598  2.7663
10475SOL     OW33024   4.205   0.162   0.216 -0.5389  0.1554 -0.1220
10475SOL    HW133025   4.156   0.111   0.287  0.9458  1.4202  1.9304
10475SOL    HW233026   4.258   0.099   0.160 -0.0573 -0.7261  1.2828
10476SOL     OW33027   1.119   0.083   0.744  0.3304  0.4655 -0.0607
10476SOL    HW133028   1.209   0.060   0.782  0.6193 -0.7283 -1.3790
10476SOL    HW233029   1.065   0.130   0.814  1.8101  0.8417  0.9002
10477SOL     OW33030   1.081   0.277   0.151 -0.5168  0.0253  0.1808
10477SOL    HW133031   1.032   0.237   0.228 -0.2081  1.6293  1.2642
10477SOL    HW233032   1.020   0.280   0.071 -1.5686  0.2796  0.9624
10478SOL     OW33033   4.058   3.607   3.482 -0.6395 -0.4299 -0.0816
10478SOL    HW133034   4.116   3.538   3.524 -0.2872  0.0141  0.1717
10478SOL    HW233035   3.982   3.629   3.543  0.2615  0.7305  0.6702
10479SOL     OW33036   6.114   2.728   2.509  0.4953  0.7066  0.6423
10479SOL    HW133037   6.172   2.669   2.565  0.9365 -0.0176 -0.5239
10479SOL    HW233038   6.115   2.821   2.545 -0.7193 -0.0871  2.9230
10480SOL     OW33039   1.136   6.696   4.488  0.6560 -0.1909  0.5833
10480SOL    HW133040   1.100   6.775   4.439  0.0203 -0.3726  0.7554
10480SOL    HW233041   1.152   6.621   4.423  0.6683 -0.1308  0.5174
10481SOL     OW33042   2.210   6.579   0.081 -0.2308 -0.4121 -0.2454
10481SOL    HW133043   2.283   6.525   0.124 -0.9992 -0.6943  0.7435
10481SOL    HW233044   2.203   6.667   0.127 -1.3999 -0.9145  0.5993
10482SOL     OW33045   2.373   4.291   1.792  0.4691 -0.1926 -0.1863
10482SOL    HW133046   2.443   4.230   1.756  1.0486  0.9656 -1.1039
10482SOL    HW233047   2.366   4.372   1.733 -0.7322  0.3194  0.6184
10483SOL     OW33048   6.397   3.349   6.794  0.2135  0.1041  0.0226
10483SOL    HW133049   6.362   3.420   6.855  0.4282 -0.0644  0.3410
10483SOL    HW233050   6.332   3.273   6.791 -0.0288  0.3212 -0.3372
10484SOL     OW33051   6.849   1.364   1.176 -0.1247 -0.1620 -0.5244
10484SOL    HW133052   6.885   1.359   1.269  1.5065 -1.5276 -1.1814
10484SOL    HW233053   6.895   1.297   1.118 -2.0896 -0.3331 -2.0155
10485SOL     OW33054   4.219   6.355   1.673 -0.2388 -0.2711 -0.1850
10485SOL    HW133055   4.274   6.273   1.691  0.0760  0.0687  0.4575
10485SOL    HW233056   4.241   6.425   1.741  0.0522  0.6292 -1.1905
10486SOL     OW33057   3.057   6.387   6.495  0.2325 -0.0443 -0.4171
10486SOL    HW133058   3.127   6.450   6.461  1.8614 -1.6932 -0.2762
10486SOL    HW233059   2.970   6.435   6.503  1.3067  2.0581 -0.7031
10487SOL     OW33060   1.866   5.263   0.481  0.4809  0.1548  0.5462
10487SOL    HW133061   1.943   5.216   0.525  1.9309  3.6667  2.1743
10487SOL    HW233062   1.798   5.287   0.550 -0.5657 -0.1247 -0.3562
10488SOL     OW33063   6.031   3.995   0.503  0.0248  0.7414  0.0566
10488SOL    HW133064   6.127   3.966   0.499 -0.2088  0.0576 -1.4580
10488SOL    HW233065   5.972   3.918   0.476 -0.9717  1.1051  1.1041
10489SOL     OW33066   6.359   0.392   4.084  0.4530  0.8621 -0.3149
10489SOL    HW133067   6.363   0.323   4.011  3.5482 -0.7336  1.1689
10489SOL    HW233068   6.433   0.458   4.072 -0.0239  1.5531  0.4688
10490SOL     OW33069   6.407   6.763   1.724 -0.0248  0.2007 -0.5305
10490SOL    HW133070   6.357   6.819   1.658  0.0699 -0.2490 -0.9897
10490SOL    HW233071   6.344   6.725   1.791 -0.2159  0.0959 -0.7702
10491SOL     OW33072   6.261   0.757   5.993  0.2555  0.5139 -0.1073
10491SOL    HW133073   6.259   0.802   5.904  4.1636  1.2435 -0.0414
10491SOL    HW233074   6.321   0.677   5.988 -0.8404 -0.4542  1.4918
10492SOL     OW33075   6.787   4.989   5.938 -0.5745 -0.5384 -0.3157
10492SOL    HW133076   6.805   4.964   6.033 -0.1635 -0.0197 -0.2528
10492SOL    HW233077   6.847   5.064   5.911  0.5284 -1.8050 -1.5225
10493SOL     OW33078   5.863   0.692   1.693  0.1399  0.0396 -0.0938
10493SOL    HW133079   5.914   0.620   1.740 -0.7465 -0.1517  0.5986
10493SOL    HW233080   5.845   0.664   1.598 -0.2431 -0.6824  0.1850
10494SOL     OW33081   5.075   2.458   6.080  0.0954  0.1723  0.8036
10494SOL    HW133082   5.105   2.364   6.093  1.2325  0.6866  2.1599
10494SOL    HW233083   5.145   2.509   6.029 -1.1199 -0.0127 -1.1509
10495SOL     OW33084   5.814   5.426   1.073  0.5016 -0.1817  0.2474
10495SOL    HW133085   5.769   5.416   1.162  0.9684  0.9200  0.6253
10495SOL    HW233086   5.897   5.482   1.084  0.0908  0.7190 -1.0238
10496SOL     OW33087   3.793   5.671   1.033 -0.3332 -0.3917 -0.2842
10496SOL    HW133088   3.733   5.649   1.111 -0.5310 -0.8223 -0.5492
10496SOL    HW233089   3.863   5.735   1.062 -1.6212  1.0515 -0.2452
10497SOL     OW33090   4.333   0.507   5.286 -0.1451  0.0731 -0.2457
10497SOL    HW133091   4.390   0.586   5.264  0.7137 -1.1635 -2.7877
10497SOL    HW233092   4.388   0.439   5.336 -0.3789  0.2843  0.3128
10498SOL     OW33093   4.675   4.365   4.778  0.0734  0.6112  0.2651
10498SOL    HW133094   4.702   4.327   4.867 -1.4726  0.0597  0.5475
10498SOL    HW233095   4.632   4.454   4.792 -1.1945  0.0325  0.2379
10499SOL     OW33096   5.839   6.301   3.809  0.1046  0.4446 -0.1642
10499SOL    HW133097   5.829   6.352   3.894  1.0202  0.6705 -0.1760
10499SOL    HW233098   5.936   6.293   3.787 -0.1012 -0.0581 -0.9205
10500SOL     OW33099   5.136   2.184   6.118  0.3920 -0.3610  0.2522
10500SOL    HW133100   5.102   2.145   6.032 -0.5291  0.3506  0.2792
10500SOL    HW233101   5.139   2.113   6.188 -2.4648 -0.2038  0.6546
10501SOL     OW33102   3.088   5.498   1.882  0.2023  0.3924 -0.2255
10501SOL    HW133103   3.097   5.558   1.802  0.1419 -0.6683 -1.0482
10501SOL    HW233104   3.134   5.411   1.863 -2.4523 -1.0708 -0.3260
10502SOL     OW33105   1.002   0.796   1.170 -0.4296 -0.4195  0.4485
10502SOL    HW133106   0.944   0.783   1.090  0.6736  0.9649 -0.6430
10502SOL    HW233107   0.957   0.859   1.233  0.0336  1.0640 -0.6341
10503SOL     OW33108   7.003   1.698   6.507 -0.4571  0.4784  1.0944
10503SOL    HW133109   6.935   1.734   6.442 -0.7809  1.3933  1.9216
10503SOL    HW233110   6.962   1.691   6.598 -0.4727 -2.2177  0.9608
10504SOL     OW33111   2.634   3.571   0.940  0.2768  0.6007 -0.0749
10504SOL    HW133112   2.733   3.574   0.927  0.4424 -0.0771  0.8993
10504SOL    HW233113   2.588   3.604   0.858  1.2941  0.1324 -0.8512
10505SOL     OW33114   1.244   0.644   0.513 -0.2715 -0.1831 -0.7400
10505SOL    HW133115   1.231   0.727   0.567  2.4361  0.6676 -1.2199
10505SOL    HW233116   1.184   0.646   0.433 -0.7979  0.9453 -0.3245
10506SOL     OW33117   4.338   3.034   6.380  0.2133 -0.1650 -0.6949
10506SOL    HW133118   4.338   3.102   6.306  1.3287 -0.7188 -1.2322
10506SOL    HW233119   4.431   2.997   6.391 -0.2977 -1.3186 -0.1553
10507SOL     OW33120   5.539   4.911   2.891 -0.4213 -0.5563  0.7058
10507SOL    HW133121   5.561   4.861   2.975  0.2822  1.6703  1.9384
10507SOL    HW233122   5.622   4.930   2.840 -0.8881 -2.2083 -0.7342
10508SOL     OW33123   4.108   2.248   0.039 -0.2901  0.2514 -0.0975
10508SOL    HW133124   4.045   2.322   0.063  0.6438  0.9557  0.2384
10508SOL    HW233125   4.059   2.161   0.042 -1.4234  0.8533 -0.5554
10509SOL     OW33126   0.382   2.330   4.672 -0.2636  0.1863 -0.1799
10509SOL    HW133127   0.478   2.348   4.696  0.2052  0.2816 -2.0023
10509SOL    HW233128   0.354   2.389   4.596 -0.4387 -2.5965 -2.4579
10510SOL     OW33129   1.851   1.000   3.647 -0.0056  0.2138 -0.6271
10510SOL    HW133130   1.823   0.919   3.699 -2.6456 -0.4011 -2.7841
10510SOL    HW233131   1.866   0.975   3.551  1.6810  1.8557 -0.8469
10511SOL     OW33132   5.493   5.522   6.521 -0.1867  0.3289  0.0861
10511SOL    HW133133   5.485   5.602   6.461 -0.7058 -0.0312 -0.3366
10511SOL    HW233134   5.433   5.534   6.600 -1.3094 -0.2256 -0.6542
10512SOL     OW33135   0.728   6.287   5.575  0.2713  0.0951 -0.0374
10512SOL    HW133136   0.789   6.282   5.654 -1.5087  2.3455  1.5956
10512SOL    HW233137   0.746   6.372   5.525 -0.0944 -0.2658 -0.7924
10513SOL     OW33138   5.649   1.935   4.486 -0.0163  0.4034 -0.2261
10513SOL    HW133139   5.630   1.964   4.580 -0.6040  0.3270 -0.3206
10513SOL    HW233140   5.743   1.959   4.463 -0.3132  1.7315 -0.1103
10514SOL     OW33141   0.789   4.942   3.516 -0.3071 -0.0952 -0.2994
10514SOL    HW133142   0.853   4.873   3.483  1.0151  0.3329  1.2094
10514SOL    HW233143   0.770   5.008   3.444  1.6685  0.2558 -0.5600
10515SOL     OW33144   4.850   3.208   2.131 -0.0189 -0.4691  0.0075
10515SOL    HW133145   4.911   3.129   2.136 -1.7649 -1.8168  2.0116
10515SOL    HW233146   4.764   3.186   2.177 -1.6787  1.6690 -1.8275
10516SOL     OW33147   5.088   1.730   4.639 -0.3089 -0.0176 -0.1401
10516SOL    HW133148   5.163   1.675   4.674  0.8012 -0.3912 -2.9136
10516SOL    HW233149   5.007   1.714   4.696  1.0673 -1.3054  1.5940
10517SOL     OW33150   6.129   0.642   1.290  0.0473  0.3530 -0.1487
10517SOL    HW133151   6.111   0.740   1.280 -1.6149  0.0697 -0.3003
10517SOL    HW233152   6.194   0.612   1.221  1.0464  1.4466  0.2832
10518SOL     OW33153   4.853   1.158   1.119 -0.4472 -0.0174 -0.4368
10518SOL    HW133154   4.872   1.071   1.076  2.2319  1.7303 -3.1696
10518SOL    HW233155   4.799   1.215   1.056 -2.6298  0.2405  1.5043
10519SOL     OW33156   0.022   2.545   3.830  0.1733  0.3972  0.4845
10519SOL    HW133157   0.047   2.450   3.850 -1.7798 -0.3045 -0.1576
10519SOL    HW233158  -0.054   2.571   3.890  0.4533  1.4461  0.3884
10520SOL     OW33159   2.714   1.746   5.838 -0.1043  0.2909 -0.1790
10520SOL    HW133160   2.805   1.706   5.847 -0.7720 -0.9570  1.3879
10520SOL    HW233161   2.698   1.810   5.913 -0.5760  0.4110 -0.3790
10521SOL     OW33162   4.913   4.677   4.351 -0.4633 -0.3111  0.1347
10521SOL    HW133163   4.937   4.616   4.275 -0.3827 -0.4623  0.2795
10521SOL    HW233164   4.877   4.622   4.427  0.2414 -0.2466  0.5193
10522SOL     OW33165   3.899   6.901   2.829 -0.0387 -0.0149 -0.7525
10522SOL    HW133166   3.958   6.822   2.813 -0.0126  0.1045 -1.2503
10522SOL    HW233167   3.806   6.870   2.846 -0.2808 -0.1029 -2.1602
10523SOL     OW33168   2.799   5.001   2.674  0.2013  0.6634  0.6232
10523SOL    HW133169   2.802   5.099   2.695  3.1280  0.4822  1.5348
10523SOL    HW233170   2.832   4.986   2.581  1.8659  0.4661  1.2049
10524SOL     OW33171   6.339   1.648   1.733 -0.6540 -0.1835 -0.1098
10524SOL    HW133172   6.297   1.738   1.745 -1.0615 -0.5687  1.6739
10524SOL    HW233173   6.331   1.619   1.638 -0.4050  1.7054 -0.7473
10525SOL     OW33174   6.047   4.370   5.486  0.1983 -0.0135 -0.3850
10525SOL    HW133175   6.103   4.291   5.508 -0.8222 -0.9240 -0.9105
10525SOL    HW233176   6.085   4.452   5.529  1.5477 -0.6960 -0.2283
10526SOL     OW33177   0.046   3.009   6.290  0.2770  0.2035  0.1608
10526SOL    HW133178   0.027   2.997   6.192 -1.5172 -1.4183  0.6423
10526SOL    HW233179  -0.000   2.937   6.342 -0.3455  2.0676  2.3755
10527SOL     OW33180   3.305   6.300   4.196  0.0704  0.2669 -0.3863
10527SOL    HW133181   3.219   6.274   4.240  0.2144 -2.8174 -1.7087
10527SOL    HW233182   3.378   6.300   4.264 -0.3895 -0.5199  0.1292
10528SOL     OW33183   0.455   1.810   1.817 -0.4285 -0.0922  0.2726
10528SOL    HW133184   0.423   1.859   1.737  3.3331  0.1262 -1.2880
10528SOL    HW233185   0.460   1.712   1.797 -1.1620 -0.2829  0.9301
10529SOL     OW33186   2.084   3.195   0.517  0.3115  0.4373 -0.6585
10529SOL    HW133187   2.126   3.166   0.431 -0.6141 -1.8471 -0.4045
10529SOL    HW233188   1.990   3.225   0.500 -0.6211 -2.0464 -0.2472
10530SOL     OW33189   6.812   3.731   3.265  0.0372 -0.3733  0.3092
10530SOL    HW133190   6.720   3.693   3.257  0.6635 -1.6744 -1.3217
10530SOL    HW233191   6.866   3.675   3.327  0.7181 -1.7876 -1.4636
10531SOL     OW33192   2.311   4.677   5.579  0.1349  0.3524  0.2564
10531SOL    HW133193   2.280   4.639   5.666  2.1730 -0.1756  0.8058
10531SOL    HW233194   2.244   4.657   5.507 -1.1169 -0.0433  1.5010
10532SOL     OW33195   4.025   4.977   6.457  0.5516 -0.0430  0.0525
10532SOL    HW133196   4.001   4.922   6.537  1.4197 -0.6874 -0.1060
10532SOL    HW233197   4.123   4.997   6.458  0.6407 -0.3275 -1.0000
10533SOL     OW33198   6.789   2.125   3.108 -0.5008 -0.1952 -0.2880
10533SOL    HW133199   6.723   2.117   3.034 -0.5243 -0.9970 -0.1929
10533SOL    HW233200   6.756   2.191   3.176 -0.6679  0.2397 -0.7847
10534SOL     OW33201   6.745   1.976   0.506 -0.1908  0.0022 -0.4655
10534SOL    HW133202   6.769   1.914   0.581  1.2535 -0.4608 -1.2707
10534SOL    HW233203   6.696   1.925   0.435 -0.3972  0.1477 -0.4298
10535SOL     OW33204   4.790   0.631   3.519 -0.8927 -0.3198 -0.2344
10535SOL    HW133205   4.884   0.602   3.537 -0.9852  0.1319  1.0395
10535SOL    HW233206   4.727   0.577   3.574 -1.2142  0.8369  0.5553
10536SOL     OW33207   0.002   3.531   4.984  0.4245 -0.0466 -0.1741
10536SOL    HW133208  -0.098   3.540   4.988  0.5694  2.0940  0.0019
10536SOL    HW233209   0.026   3.444   4.942 -1.4796 -1.6199  1.7539
10537SOL     OW33210   0.072   5.791   4.785  0.3110  0.4809  0.2408
10537SOL    HW133211   0.015   5.732   4.842  0.3672  2.8377  2.9939
10537SOL    HW233212   0.054   5.887   4.809  2.2317  1.4901 -2.0091
10538SOL     OW33213   3.970   2.097   4.040  0.3749  0.9683 -0.3691
10538SOL    HW133214   4.029   2.042   4.099  0.4027  0.3722 -0.9427
10538SOL    HW233215   3.916   2.161   4.096  0.9186  0.9099  0.2313
10539SOL     OW33216   4.092   2.261   5.619  0.0875  0.0925 -0.3083
10539SOL    HW133217   4.068   2.357   5.637 -2.8005 -0.7263  0.7041
10539SOL    HW233218   4.017   2.216   5.572  0.9099 -1.9827  0.2553
10540SOL     OW33219   4.690   0.410   4.973  0.2387 -0.7584  0.0795
10540SOL    HW133220   4.788   0.389   4.970  0.3430 -0.5791  1.4791
10540SOL    HW233221   4.668   0.456   5.059 -0.8867  0.2635 -0.7116
10541SOL     OW33222   0.634   0.079   1.414  0.2325 -0.4299  0.2875
10541SOL    HW133223   0.675   0.010   1.474 -1.6308 -1.4949  0.4095
10541SOL    HW233224   0.552   0.116   1.457 -0.0215  0.2522 -0.7505
10542SOL     OW33225   4.126   3.469   6.441 -0.1940 -0.0358  0.3264
10542SOL    HW133226   4.211   3.418   6.454 -0.6877 -1.0408 -0.2924
10542SOL    HW233227   4.056   3.408   6.404 -1.2961  0.6941  1.1583
10543SOL     OW33228   1.550   6.267   3.435  0.1902 -0.7990  0.2126
10543SOL    HW133229   1.601   6.231   3.514  1.6832  2.6319  0.9896
10543SOL    HW233230   1.452   6.268   3.456  0.3057 -2.1657  0.9929
10544SOL     OW33231   1.676   1.067   4.200  0.0258 -0.0255  0.0582
10544SOL    HW133232   1.751   1.129   4.225  0.8617 -0.7089 -0.7172
10544SOL    HW233233   1.712   0.974   4.189 -1.0242 -0.4482  0.1142
10545SOL     OW33234   6.483   4.845   0.356  0.4239 -0.2920 -0.1339
10545SOL    HW133235   6.433   4.882   0.277  0.0467  0.2941  0.3747
10545SOL    HW233236   6.547   4.776   0.324  0.4104  0.0681 -0.9878
10546SOL     OW33237   5.879   4.554   5.766 -0.2564 -0.0601 -0.0428
10546SOL    HW133238   5.849   4.459   5.778 -0.9852  0.1995  0.2137
10546SOL    HW233239   5.866   4.582   5.671 -0.2426 -0.1447 -0.0695
10547SOL     OW33240   3.302   0.821   6.748 -0.1163 -0.2549 -0.3428
10547SOL    HW133241   3.400   0.824   6.728 -0.2638 -1.7218 -1.4542
10547SOL    HW233242   3.272   0.726   6.755 -1.2050  0.1581  1.4950
10548SOL     OW33243   4.601   1.523   1.801 -0.0303  1.0035 -0.1683
10548SOL    HW133244   4.567   1.465   1.726  0.9365  1.0536 -0.6631
10548SOL    HW233245   4.696   1.500   1.820 -0.5416  0.3001  1.7515
10549SOL     OW33246   3.397   2.331   5.518  1.1097 -0.4376 -0.4428
10549SOL    HW133247   3.466   2.293   5.580  0.3820 -0.7516  0.1924
10549SOL    HW233248   3.374   2.424   5.547  0.9653 -0.4868 -0.3952
10550SOL     OW33249   2.227   0.276   3.268 -0.0325 -0.3689 -1.0367
10550SOL    HW133250   2.204   0.210   3.197  0.5429 -1.4317 -0.2587
10550SOL    HW233251   2.243   0.366   3.226 -1.5992 -0.5061 -2.0132
10551SOL     OW33252   0.396   3.412   5.593 -0.7497  0.2303 -0.5969
10551SOL    HW133253   0.403   3.508   5.622 -0.6947 -0.1520  0.7074
10551SOL    HW233254   0.452   3.355   5.653 -2.1431 -0.8388 -0.2592
10552SOL     OW33255   6.797   4.963   0.989 -0.0682  0.1017  0.0015
10552SOL    HW133256   6.894   4.971   1.013 -0.2894  2.0794  0.4203
10552SOL    HW233257   6.748   4.914   1.061  0.7079 -1.5345 -0.5399
10553SOL     OW33258   2.416   5.295   3.153  0.2742  0.4935 -0.1959
10553SOL    HW133259   2.417   5.290   3.054  0.0891  0.4945 -0.1972
10553SOL    HW233260   2.503   5.333   3.186  1.1274 -1.2724 -0.2744
10554SOL     OW33261   1.793   4.274   0.572 -0.3945 -0.2476  0.1792
10554SOL    HW133262   1.852   4.283   0.652 -0.2079  1.4936 -0.1131
10554SOL    HW233263   1.845   4.233   0.497 -0.1101 -0.4309  0.4727
10555SOL     OW33264   4.034   2.860   0.313 -0.4837  0.4296  0.7102
10555SOL    HW133265   3.943   2.818   0.311 -1.1082  1.7562  0.5644
10555SOL    HW233266   4.065   2.867   0.408 -0.1299 -0.8390  0.7028
10556SOL     OW33267   3.896   6.087   0.943 -0.0596 -0.2777  0.5193
10556SOL    HW133268   3.819   6.033   0.974  0.2763 -0.4634  1.0458
10556SOL    HW233269   3.869   6.184   0.938 -0.6603 -0.4786 -0.4355
10557SOL     OW33270   5.453   2.262   2.587  0.5615 -0.3581 -0.0394
10557SOL    HW133271   5.437   2.247   2.685  0.7633  0.2587  0.0951
10557SOL    HW233272   5.371   2.300   2.546  0.1780 -1.4294 -0.3012
10558SOL     OW33273   0.732   5.534   6.346 -0.2516  0.1207 -0.5026
10558SOL    HW133274   0.705   5.464   6.280  0.0507 -0.5728  0.0934
10558SOL    HW233275   0.651   5.584   6.376 -0.7521 -1.1936  0.4246
10559SOL     OW33276   1.234   6.257   1.536  0.2128  0.0228 -0.5776
10559SOL    HW133277   1.139   6.264   1.507  0.3413  3.8918 -0.6386
10559SOL    HW233278   1.240   6.265   1.636  0.4721  1.0485 -0.6578
10560SOL     OW33279   5.934   6.434   6.360 -0.2023 -0.2673 -0.1443
10560SOL    HW133280   5.969   6.351   6.404 -0.6505 -1.0727 -1.2626
10560SOL    HW233281   5.916   6.503   6.430  2.3699 -0.2539  0.6215
10561SOL     OW33282   1.271   5.741   5.975  0.1478  0.0274  0.2037
10561SOL    HW133283   1.312   5.819   5.928 -0.8166 -0.3588 -1.3224
10561SOL    HW233284   1.241   5.770   6.066  1.8909  0.8259  0.5635
10562SOL     OW33285   6.596   6.313   6.996 -0.1245 -0.6443  0.5213
10562SOL    HW133286   6.548   6.401   6.999  1.4235  0.2112  1.6296
10562SOL    HW233287   6.594   6.271   7.087 -0.3592 -1.5066  0.1330
10563SOL     OW33288   1.507   0.312   1.749  0.3981 -0.0948 -0.3125
10563SOL    HW133289   1.508   0.223   1.704  1.9988 -0.0562 -0.4103
10563SOL    HW233290   1.594   0.359   1.733 -0.0404  1.0727  0.5597
10564SOL     OW33291   1.393   4.742   4.883 -0.4601 -0.0276  0.0672
10564SOL    HW133292   1.296   4.721   4.897 -0.0196 -0.2192  3.6927
10564SOL    HW233293   1.449   4.689   4.947  1.9002  1.4328 -0.6472
10565SOL     OW33294   2.827   6.503   6.399 -0.0767  0.6610  0.3599
10565SOL    HW133295   2.750   6.551   6.440  0.5642  2.4920 -0.4952
10565SOL    HW233296   2.797   6.455   6.316 -1.0826 -1.9447  2.1121
10566SOL     OW33297   0.226   1.995   2.080 -0.0625 -0.4498  0.8040
10566SOL    HW133298   0.155   1.957   2.138  0.5904 -1.6343  0.8628
10566SOL    HW233299   0.203   1.981   1.984  0.8169 -2.3090  0.8274
10567SOL     OW33300   4.269   1.881   0.038  0.5405 -0.5468  0.4740
10567SOL    HW133301   4.287   1.855   0.133  0.7078  0.2478  0.6642
10567SOL    HW233302   4.312   1.969   0.018  0.2739 -0.5733 -0.2602
10568SOL     OW33303   2.122   6.562   3.964 -0.2211 -0.0036 -0.3276
10568SOL    HW133304   2.047   6.611   3.920  0.2096  0.5832 -0.4180
10568SOL    HW233305   2.091   6.471   3.990 -0.5354 -0.3093 -1.6918
10569SOL     OW33306   1.715   5.764   5.914 -0.3442 -0.4556 -0.0718
10569SOL    HW133307   1.729   5.723   5.824  1.3163  0.1577 -0.1172
10569SOL    HW233308   1.719   5.863   5.907 -1.9021 -0.3253  0.4376
10570SOL     OW33309   4.105   4.044   0.206  0.1739 -0.6722 -0.2424
10570SOL    HW133310   4.100   4.098   0.122  3.4903 -0.6035 -0.5504
10570SOL    HW233311   4.115   3.947   0.183 -0.0520 -0.7782  0.1017
10571SOL     OW33312   1.674   5.609   4.374 -0.0219 -0.2206 -0.2329
10571SOL    HW133313   1.655   5.603   4.471 -0.8924 -0.3712 -0.4078
10571SOL    HW233314   1.670   5.517   4.333 -2.6689  0.1183 -0.9391
10572SOL     OW33315   6.239   5.682   0.910 -0.2021  0.1485 -0.1240
10572SOL    HW133316   6.242   5.602   0.850 -1.6193 -1.8973  2.3296
10572SOL    HW233317   6.226   5.652   1.004 -1.4452  3.3382  0.8388
10573SOL     OW33318   6.944   3.399   3.773 -0.2711 -0.9525 -0.3954
10573SOL    HW133319   6.898   3.437   3.693 -1.0886 -0.8804  0.0946
10573SOL    HW233320   6.876   3.379   3.844  0.5634  0.3697  0.8406
10574SOL     OW33321   0.553   2.755   1.207  0.1125 -0.5540 -0.5857
10574SOL    HW133322   0.501   2.839   1.222  1.0673  0.0144 -0.3123
10574SOL    HW233323   0.492   2.676   1.210 -0.5362 -0.0348  1.1036
10575SOL     OW33324   1.500   5.795   1.661 -0.3005  0.7210  0.5234
10575SOL    HW133325   1.538   5.874   1.710  3.2049 -0.7643  0.5427
10575SOL    HW233326   1.545   5.711   1.693 -2.2003 -1.0221 -1.0961
10576SOL     OW33327   0.953   5.709   5.411  0.1140 -0.1462  0.2309
10576SOL    HW133328   0.955   5.696   5.312 -2.9040  0.6481 -0.0170
10576SOL    HW233329   0.967   5.621   5.456  2.1294 -0.4222 -0.8231
10577SOL     OW33330   4.606   0.165   2.972 -0.0593  0.2087  0.0562
10577SOL    HW133331   4.678   0.139   2.908  0.1029  1.2458 -0.1926
10577SOL    HW233332   4.525   0.194   2.921 -0.1016  0.5629  0.3223
10578SOL     OW33333   2.264   4.769   6.713  0.3807 -0.1038 -0.3223
10578SOL    HW133334   2.193   4.830   6.679  0.2276  0.9221  1.6937
10578SOL    HW233335   2.227   4.677   6.724 -0.3388  0.1921 -0.2547
10579SOL     OW33336   2.654   3.339   3.726 -0.0742  0.4312 -0.5480
10579SOL    HW133337   2.723   3.384   3.671  0.8018 -0.3460 -0.1139
10579SOL    HW233338   2.659   3.372   3.820  0.5286 -0.4746 -0.2416
10580SOL     OW33339   1.819   3.773   5.197  0.6149  0.6195  0.5077
10580SOL    HW133340   1.840   3.776   5.295  0.4705  1.7007  0.5148
10580SOL    HW233341   1.721   3.786   5.184  0.3632 -1.1836  0.2881
10581SOL     OW33342   0.112   2.302   3.477  0.1379  0.6197  0.1194
10581SOL    HW133343   0.029   2.347   3.444  2.1205  3.6162 -1.3693
10581SOL    HW233344   0.103   2.203   3.467 -2.8648  0.8786 -0.8178
10582SOL     OW33345   5.022   3.912   5.962  0.0488  0.5880 -0.3432
10582SOL    HW133346   5.101   3.973   5.948  1.4295 -1.2468 -0.9578
10582SOL    HW233347   4.982   3.888   5.874  0.8454 -1.0216 -0.2975
10583SOL     OW33348   0.368   0.675   5.684 -0.5296 -0.0685 -0.6175
10583SOL    HW133349   0.293   0.729   5.647 -0.2001  1.8037  1.2643
10583SOL    HW233350   0.361   0.672   5.784  1.9319  0.2784 -0.3755
10584SOL     OW33351   1.839   1.258   1.952  0.2081 -0.0336 -0.0889
10584SOL    HW133352   1.757   1.210   1.986  0.2299  0.8533  1.3073
10584SOL    HW233353   1.811   1.337   1.898  0.0587  1.1702  1.6555
10585SOL     OW33354   2.399   0.322   1.840  0.1072  0.2321 -0.2420
10585SOL    HW133355   2.452   0.303   1.758  1.9122 -1.5178  1.2397
10585SOL    HW233356   2.301   0.320   1.818  0.5168  2.4318 -2.8200
10586SOL     OW33357   2.583   0.271   6.048 -0.8362  0.1714  0.1641
10586SOL    HW133358   2.642   0.343   6.086  0.0997 -0.0927 -0.7162
10586SOL    HW233359   2.536   0.223   6.122  2.8895 -2.0561  1.3558
10587SOL     OW33360   3.338   6.699   0.359  1.0993  0.3219 -0.7133
10587SOL    HW133361   3.258   6.641   0.341  0.1035  1.1694  0.7293
10587SOL    HW233362   3.419   6.642   0.367  0.5380 -0.6355 -1.5521
10588SOL     OW33363   1.479   4.876   3.299 -0.1783 -0.3514  0.2220
10588SOL    HW133364   1.481   4.847   3.204  0.3580  0.4215 -0.0056
10588SOL    HW233365   1.385   4.868   3.333 -0.5477  0.2247 -0.6370
10589SOL     OW33366   5.501   6.690   5.356  0.3283 -0.2549  0.3241
10589SOL    HW133367   5.445   6.709   5.437 -0.4384 -0.4870 -0.1483
10589SOL    HW233368   5.555   6.607   5.371 -0.2597 -0.6304  0.3714
10590SOL     OW33369   4.506   4.618   4.872 -0.1759  0.1493 -0.2913
10590SOL    HW133370   4.465   4.529   4.895  1.0893 -0.7809 -1.4815
10590SOL    HW233371   4.437   4.676   4.828 -0.4810 -1.0475 -1.4574
10591SOL     OW33372   1.655   6.949   2.200  0.1151  0.7069 -0.2912
10591SOL    HW133373   1.737   6.959   2.257  0.3001  1.6713 -0.7053
10591SOL    HW233374   1.574   6.941   2.259  0.2056  2.5349  0.1513
10592SOL     OW33375   4.667   3.551   6.894 -0.0055  0.1312  0.6034
10592SOL    HW133376   4.579   3.575   6.934  0.1585  1.2503  0.3357
10592SOL    HW233377   4.740   3.571   6.960  0.1518  0.6396  0.2893
10593SOL     OW33378   2.833   3.936   6.079  0.5177  0.1191  0.3920
10593SOL    HW133379   2.783   4.019   6.102  0.6519  0.2327  0.2823
10593SOL    HW233380   2.928   3.960   6.057  0.4533 -0.0150 -0.0398
10594SOL     OW33381   1.883   6.637   4.853 -0.0515 -0.2280 -0.3411
10594SOL    HW133382   1.935   6.720   4.830 -1.3917  0.2564 -1.7925
10594SOL    HW233383   1.839   6.649   4.942  0.9018  0.0327  0.1147
10595SOL     OW33384   3.269   1.790   1.928  0.0057  0.2597  0.0178
10595SOL    HW133385   3.346   1.853   1.923  1.7154 -1.7097 -0.1345
10595SOL    HW233386   3.249   1.755   1.837 -0.6690  0.3033  0.1463
10596SOL     OW33387   1.994   1.495   2.140 -0.9626 -0.7034  0.0842
10596SOL    HW133388   2.052   1.433   2.192 -1.4848  0.0345  1.5816
10596SOL    HW233389   1.959   1.446   2.059  1.0553 -1.3910 -0.4357
10597SOL     OW33390   4.911   2.143   1.573  0.3372  0.4124 -0.2305
10597SOL    HW133391   4.956   2.232   1.567 -0.2497  0.6382 -1.5468
10597SOL    HW233392   4.971   2.079   1.621  0.2469  1.8150  1.9042
10598SOL     OW33393   1.773   5.134   2.782 -0.0033  0.1389 -0.0494
10598SOL    HW133394   1.749   5.184   2.866  0.5501  1.1968 -0.5104
10598SOL    HW233395   1.700   5.143   2.716 -0.2123 -0.2646  0.1217
10599SOL     OW33396   2.107   5.616   3.885 -0.3524 -0.7236  0.1128
10599SOL    HW133397   2.176   5.615   3.958  1.3098 -2.7045 -1.3426
10599SOL    HW233398   2.037   5.547   3.904 -2.8240  2.1263  2.2248
10600SOL     OW33399   2.759   6.719   1.803 -0.1711 -0.7830 -0.3880
10600SOL    HW133400   2.684   6.717   1.870 -0.7367 -1.0907 -1.0227
10600SOL    HW233401   2.726   6.685   1.715  0.3493  0.3759 -1.0473
10601SOL     OW33402   1.216   2.797   0.322 -0.3393  0.2112 -0.4620
10601SOL    HW133403   1.212   2.721   0.387  2.5679  0.5935  0.2971
10601SOL    HW233404   1.172   2.877   0.362 -0.6249 -0.2009  0.0660
10602SOL     OW33405   5.445   0.170   3.848 -0.3986 -0.3670  0.0723
10602SOL    HW133406   5.457   0.073   3.828  0.6360 -0.1336 -0.5470
10602SOL    HW233407   5.355   0.200   3.817 -0.5709 -1.0444 -0.0935
10603SOL     OW33408   4.585   0.525   0.429  0.1023  0.3003 -0.2195
10603SOL    HW133409   4.583   0.624   0.437 -1.0488  0.3614 -0.9945
10603SOL    HW233410   4.491   0.490   0.426  0.4932 -0.7834 -0.3156
10604SOL     OW33411   0.425   3.470   2.870 -0.3912 -0.7173  0.0340
10604SOL    HW133412   0.336   3.481   2.913  0.1593 -1.7688  1.5561
10604SOL    HW233413   0.496   3.474   2.940  0.4749 -3.8190 -0.5031
10605SOL     OW33414   5.799   6.970   5.918  0.3528  0.5206 -0.2566
10605SOL    HW133415   5.821   6.873   5.904 -1.1432 -0.2086  1.8687
10605SOL    HW233416   5.799   7.017   5.830  2.6374 -1.0423 -1.1796
10606SOL     OW33417   3.319   0.953   0.877 -0.0584 -0.1896  0.2513
10606SOL    HW133418   3.352   0.944   0.971  0.4275 -1.5408 -0.0374
10606SOL    HW233419   3.376   1.020   0.829 -1.0795  1.4713  1.2307
10607SOL     OW33420   6.015   2.409   6.229  0.0204 -0.2990  0.1194
10607SOL    HW133421   6.006   2.417   6.328 -2.1290  0.3890 -0.0947
10607SOL    HW233422   6.063   2.489   6.193 -0.7423  0.3080  0.4330
10608SOL     OW33423   0.970   3.626   0.383  0.4784  0.0946  0.1889
10608SOL    HW133424   0.938   3.715   0.413  0.4187  0.4673 -0.9228
10608SOL    HW233425   0.925   3.602   0.297  0.1996 -1.1886  0.6685
10609SOL     OW33426   6.416   0.221   2.589 -0.3165 -0.1219  0.0430
10609SOL    HW133427   6.335   0.178   2.629 -0.1329  0.0109  0.5656
10609SOL    HW233428   6.409   0.321   2.599 -0.1003 -0.1091  0.0587
10610SOL     OW33429   5.455   0.217   5.447 -0.4306 -0.1538 -0.7872
10610SOL    HW133430   5.537   0.274   5.445 -0.0766 -0.6531 -0.6022
10610SOL    HW233431   5.423   0.207   5.541 -0.2047 -0.6679 -0.7643
10611SOL     OW33432   0.169   2.655   4.601  0.2293  0.6836  0.2863
10611SOL    HW133433   0.126   2.731   4.552  0.6024  1.7380  1.5340
10611SOL    HW233434   0.231   2.607   4.539 -1.9377 -0.2815 -1.2755
10612SOL     OW33435   2.724   5.036   4.913 -0.2643 -0.1856 -0.2620
10612SOL    HW133436   2.800   4.971   4.914 -0.0806  0.0288  0.2603
10612SOL    HW233437   2.680   5.035   4.823  1.1463  0.5994 -1.0135
10613SOL     OW33438   6.836   0.843   2.130 -0.2885  0.1350  0.1274
10613SOL    HW133439   6.814   0.783   2.052 -0.2648  0.6679 -0.2946
10613SOL    HW233440   6.917   0.809   2.176 -2.2072 -2.2048  2.0503
10614SOL     OW33441   5.658   2.079   2.459  0.8203  0.0306  0.2405
10614SOL    HW133442   5.566   2.109   2.433  0.0457 -0.2688  2.4868
10614SOL    HW233443   5.698   2.145   2.522  2.2757  0.2681 -0.8832
10615SOL     OW33444   3.634   4.282   0.942  0.1864 -0.6592  0.2432
10615SOL    HW133445   3.544   4.319   0.967  0.2634 -1.6059  2.1234
10615SOL    HW233446   3.677   4.342   0.874 -0.2230  2.0046  2.1784
10616SOL     OW33447   5.406   5.178   5.475  0.7455  0.4780 -0.1151
10616SOL    HW133448   5.486   5.157   5.532  1.4104 -2.1257 -1.8096
10616SOL    HW233449   5.413   5.271   5.441  2.5132  0.6722  0.6451
10617SOL     OW33450   2.435   0.325   5.026  0.2966  0.2854 -0.3843
10617SOL    HW133451   2.489   0.387   5.084 -0.7159  1.3644 -0.5550
10617SOL    HW233452   2.478   0.318   4.936  1.7509 -1.2143  0.3635
10618SOL     OW33453   2.304   0.930   3.862  0.1096 -0.1186  0.7746
10618SOL    HW133454   2.353   0.852   3.901  2.0534  0.2374 -0.7596
10618SOL    HW233455   2.224   0.951   3.918 -0.5800 -3.2770  1.1437
10619SOL     OW33456   4.819   5.314   5.832  0.2354  0.9614  0.6100
10619SOL    HW133457   4.854   5.221   5.828  1.0659  1.3139 -0.9052
10619SOL    HW233458   4.720   5.312   5.847  0.3864 -0.1231  1.5697
10620SOL     OW33459   1.223   4.124   3.427  0.4279 -0.1236 -0.1380
10620SOL    HW133460   1.133   4.084   3.437 -0.2462  1.2460 -0.4176
10620SOL    HW233461   1.247   4.174   3.510  0.2411  0.7953 -0.6203
10621SOL     OW33462   1.747   2.801   3.231 -0.7459 -0.0058  0.2296
10621SOL    HW133463   1.752   2.757   3.141 -0.1571  2.1202 -0.8411
10621SOL    HW233464   1.831   2.852   3.247 -1.2753  0.4834  1.5493
10622SOL     OW33465   6.087   4.378   4.229 -0.4613  0.3763 -0.3303
10622SOL    HW133466   6.184   4.358   4.245 -0.0775 -0.0341 -2.7714
10622SOL    HW233467   6.078   4.472   4.195 -1.3489  1.6210  2.9991
10623SOL     OW33468   1.146   0.650   1.475 -0.0737  0.0717 -0.7987
10623SOL    HW133469   1.115   0.635   1.381  0.5901  0.7907 -1.1406
10623SOL    HW233470   1.113   0.738   1.507  1.6557  0.8956 -1.2044
10624SOL     OW33471   2.751   3.413   1.525  0.7574  0.0530 -0.0597
10624SOL    HW133472   2.849   3.435   1.530  0.9826 -1.1081  1.4749
10624SOL    HW233473   2.728   3.347   1.597 -0.8690 -0.8362 -1.3262
10625SOL     OW33474   3.363   6.802   6.624 -0.2643 -0.1845 -0.5111
10625SOL    HW133475   3.326   6.733   6.562 -1.3907  1.4016 -1.7183
10625SOL    HW233476   3.432   6.856   6.576  2.0342 -1.6053  1.0037
10626SOL     OW33477   2.253   0.376   5.670  0.5492  0.4697 -0.4134
10626SOL    HW133478   2.346   0.346   5.693  1.4212  1.1621 -2.6953
10626SOL    HW233479   2.196   0.373   5.752  1.9049 -2.3335  0.5901
10627SOL     OW33480   4.490   1.419   2.624 -0.1689 -0.0050 -0.0309
10627SOL    HW133481   4.561   1.484   2.597 -1.3550  2.1907  1.7288
10627SOL    HW233482   4.528   1.353   2.688  0.0833  2.0532  2.0763
10628SOL     OW33483   4.716   2.114   3.711 -0.5338  0.2054  0.2172
10628SOL    HW133484   4.666   2.104   3.626 -1.2993 -0.2822  0.7166
10628SOL    HW233485   4.812   2.135   3.691 -1.0806  1.9983 -0.7403
10629SOL     OW33486   0.246   1.852   1.239  0.1219  0.3045  0.0849
10629SOL    HW133487   0.325   1.860   1.178 -0.8254 -1.4418 -1.4587
10629SOL    HW233488   0.181   1.925   1.219  1.5434  2.1925  1.8448
10630SOL     OW33489   5.529   0.298   3.505  0.0322 -0.3685 -0.2140
10630SOL    HW133490   5.469   0.229   3.464  0.1869 -0.5375 -0.1581
10630SOL    HW233491   5.594   0.331   3.437 -1.3109  1.1876 -0.8151
10631SOL     OW33492   5.585   3.748   5.867 -0.6420 -0.2709  0.5431
10631SOL    HW133493   5.494   3.762   5.828 -0.0254  1.4238 -0.3908
10631SOL    HW233494   5.592   3.799   5.953 -1.0097 -1.5329  1.3353
10632SOL     OW33495   0.920   2.573   5.539  0.4191 -0.3482 -0.6645
10632SOL    HW133496   0.862   2.494   5.517  0.1995 -0.4278  0.1726
10632SOL    HW233497   1.008   2.540   5.574 -0.8314 -0.3399  2.9089
10633SOL     OW33498   4.871   0.136   4.432  0.5695 -0.4122  0.0286
10633SOL    HW133499   4.935   0.165   4.503  0.8123 -1.5973  0.3038
10633SOL    HW233500   4.865   0.036   4.430 -1.5625 -0.3491  0.2956
10634SOL     OW33501   0.603   6.609   3.843  0.2341  0.2268 -0.1681
10634SOL    HW133502   0.698   6.634   3.823 -0.5432  3.4391 -0.3439
10634SOL    HW233503   0.598   6.567   3.934  1.5836  2.1593  0.8606
10635SOL     OW33504   0.127   3.572   4.419  0.0946  0.3988  0.1473
10635SOL    HW133505   0.038   3.581   4.462 -0.1339 -2.2289  0.3723
10635SOL    HW233506   0.193   3.632   4.465 -0.8862  0.1212  1.9839
10636SOL     OW33507   5.470   4.125   2.724 -0.9059  0.1691 -0.4368
10636SOL    HW133508   5.432   4.034   2.739  0.9253 -0.6159 -0.3335
10636SOL    HW233509   5.484   4.140   2.626  0.4635 -0.3973 -0.3437
10637SOL     OW33510   2.031   5.283   2.151  0.7538  0.7088 -0.6258
10637SOL    HW133511   1.949   5.227   2.161  1.7393 -0.7898 -0.6816
10637SOL    HW233512   2.107   5.227   2.117  2.8055  1.1279  2.7661
10638SOL     OW33513   4.755   3.389   0.778  0.2259 -0.2281  0.3106
10638SOL    HW133514   4.692   3.364   0.852 -0.0828 -2.2710 -0.5669
10638SOL    HW233515   4.702   3.421   0.699  0.3854 -0.5811  0.0631
10639SOL     OW33516   1.820   1.721   3.803 -0.3594  0.4956  0.0188
10639SOL    HW133517   1.844   1.785   3.876  2.3983 -0.1763 -0.1783
10639SOL    HW233518   1.797   1.772   3.720 -0.3287  1.2411  0.4583
10640SOL     OW33519   1.197   0.920   5.211  0.2614 -0.1674 -0.2612
10640SOL    HW133520   1.295   0.907   5.224  0.1997 -0.9400 -0.5179
10640SOL    HW233521   1.149   0.903   5.297  0.4675  1.7932  0.3071
10641SOL     OW33522   5.249   5.098   3.609 -0.7568  0.0162  0.1836
10641SOL    HW133523   5.345   5.107   3.580 -0.5243 -1.4020  0.4471
10641SOL    HW233524   5.191   5.149   3.545 -0.0386 -1.0161 -1.3768
10642SOL     OW33525   0.927   3.440   6.031  0.0341  0.1802 -0.8342
10642SOL    HW133526   0.863   3.433   5.955 -1.4158 -1.0202  0.4344
10642SOL    HW233527   0.950   3.536   6.047 -2.5380  0.8258 -0.5108
10643SOL     OW33528   5.549   3.320   1.733 -0.9790  0.0635  0.5946
10643SOL    HW133529   5.478   3.279   1.676 -0.3519 -1.0745  0.5981
10643SOL    HW233530   5.620   3.360   1.675 -0.9928  0.0660  0.5791
10644SOL     OW33531   1.153   1.665   6.331 -1.0222 -0.2859  0.0856
10644SOL    HW133532   1.061   1.653   6.294 -1.0309 -0.9121  0.3077
10644SOL    HW233533   1.176   1.588   6.391 -0.3222 -0.1805 -0.0354
10645SOL     OW33534   4.840   4.187   6.093 -0.1701 -0.0816  0.1418
10645SOL    HW133535   4.833   4.092   6.062  0.1349  0.1282 -0.5968
10645SOL    HW233536   4.751   4.216   6.130 -0.7200 -0.1943 -1.0235
10646SOL     OW33537   5.924   6.149   1.382 -0.3570 -0.3120  0.5303
10646SOL    HW133538   5.903   6.111   1.472  1.4867 -2.1305  0.2702
10646SOL    HW233539   6.017   6.187   1.383 -0.7907  0.8547 -0.2904
10647SOL     OW33540   3.740   4.579   6.510  0.3797 -0.2670  0.3450
10647SOL    HW133541   3.718   4.514   6.437 -2.1942  0.0800  0.6918
10647SOL    HW233542   3.815   4.638   6.480 -1.3370  0.6501 -2.6182
10648SOL     OW33543   1.039   2.198   5.964 -0.1947 -0.5932  0.3620
10648SOL    HW133544   1.033   2.163   6.058  0.7097 -0.7372  0.3774
10648SOL    HW233545   1.128   2.173   5.925  1.3735  3.2103  1.0269
10649SOL     OW33546   4.135   0.996   3.230  0.0741  0.1552 -0.2812
10649SOL    HW133547   4.197   1.010   3.152  0.1170 -1.2919 -0.5362
10649SOL    HW233548   4.181   1.022   3.314  1.1650 -1.1751 -0.4345
   7.02834   7.02834   7.02834
